/*--------------------------------*- C++ -*----------------------------------*\
| =========                 |                                                 |
| \\      /  F ield         | OpenFOAM: The Open Source CFD Toolbox           |
|  \\    /   O peration     | Version:  v2012                                 |
|   \\  /    A nd           | Website:  www.openfoam.com                      |
|    \\/     M anipulation  |                                                 |
\*---------------------------------------------------------------------------*/
FoamFile
{
    version     2.0;
    format      ascii;
    class       volScalarField;
    location    "300";
    object      p;
}
// * * * * * * * * * * * * * * * * * * * * * * * * * * * * * * * * * * * * * //

dimensions      [0 2 -2 0 0 0 0];


internalField   nonuniform List<scalar> 
18649
(
-0.06106
0.0321651
-0.0756142
-0.0313834
0.0169089
-0.12882
0.0329539
0.000570679
-0.0181113
-0.160994
0.0316332
0.0303831
0.0167015
0.0288395
-0.176918
0.0142449
0.0327468
0.0330219
-0.0787762
0.0321556
0.030269
-1.56814
-0.00249043
-0.034333
-0.198103
-0.00201596
-0.0280353
-0.0415944
0.0324812
-0.899105
0.0208743
0.021482
0.0328537
0.00267632
0.0296959
0.0480279
-0.183184
0.0307529
0.0315961
0.0287907
-0.0771192
0.0209833
-0.172178
-0.0251873
0.000975412
-1.43092
-0.0141486
-0.023921
0.0338739
0.0296339
-0.0302496
0.000998185
0.0245409
-0.0666712
0.00568283
-0.0651224
-0.115614
0.0340959
-0.000256543
-0.194314
0.010462
-0.223997
0.0342535
-0.142235
-0.889412
0.0119301
-0.192484
0.0115567
0.000625841
-1.53852
-0.0240156
-0.00041423
0.0329112
0.0340716
0.0188166
-0.0295769
-0.0573116
0.029863
-1.35865
-0.00154159
0.0198475
0.0308207
-0.122667
-0.0538987
0.00103023
-0.0691507
0.0381998
0.032934
-0.00207294
-0.105077
-0.175194
-0.154427
-0.0305001
0.0302702
0.0186943
0.024226
0.049326
0.020676
0.0119766
0.0101976
-0.141648
0.0144897
0.0166663
0.000570743
-0.0161925
-0.0129908
-0.121412
-0.0733649
-0.0540492
0.0329463
0.0305353
-0.0215
0.0310872
0.0248353
0.0186714
0.0187704
0.0133042
-0.022722
0.0193939
0.0369855
0.00923894
-0.0374084
-0.0417117
0.0249218
0.000463823
0.0182828
-0.261235
0.0307987
0.0325208
0.00144207
0.0310878
-0.162557
-0.252182
-0.280042
0.0293968
-1.03344
-0.0282691
-0.0783942
-0.0242142
-0.00274067
-0.0238542
0.0213799
-9.30018e-05
0.0321925
-0.016757
0.00867295
0.0239294
-0.298092
-0.0119445
0.0287618
-0.03595
0.0775262
0.0216225
0.0331638
-0.0350581
0.012802
0.0287858
0.0231529
0.0226618
-0.0242777
-0.14008
-0.0591952
0.0289799
-0.020321
-0.0210576
0.0209731
-0.00623815
-0.0126464
0.00668373
0.00972859
0.0391761
0.0254727
0.021603
0.0226777
0.0302833
0.00237178
-0.00578059
0.0290412
-0.0135595
-0.136131
0.0292748
-0.00155485
0.00652241
0.023338
0.0321909
0.00649542
0.00564463
-0.0391171
0.0094351
5.46669e-05
0.0209825
-0.0350707
0.0795309
0.0377011
0.0212831
0.0215033
0.00649026
0.00646201
-0.00883628
-0.027388
0.000161958
0.0178455
-0.0351508
0.0331218
0.0321766
0.0256617
-0.283832
-0.192069
0.0117177
0.0241477
0.00960072
0.0362125
0.00645419
0.0471603
-0.770756
0.0505366
0.0332645
0.0219955
0.0229074
-0.00985222
0.0276889
0.00218336
-1.13613
0.0325305
-0.0626945
-0.0048113
0.0820245
-0.149662
0.0293909
0.0203392
0.000126405
0.0206093
-0.0238459
0.03067
-0.770541
0.0291151
0.0239531
0.0322431
0.00661148
2.83042e-05
0.024611
-0.131627
-0.072618
-1.38966
-0.0702652
0.0351628
0.036872
0.029229
-1.24236
-0.0352221
0.0353921
-0.169868
0.0310707
0.0196624
0.00112303
0.0211626
0.0239505
0.00995706
0.0136659
0.00663531
-0.180791
0.00458937
0.00263781
0.0271558
0.00598105
0.0846849
0.000905246
-0.00633296
0.0102967
0.0145102
0.0163601
-0.279336
0.045417
0.0145116
-0.175798
-0.0441839
0.0310362
-0.005807
0.024706
-0.222527
-0.0842442
0.0201631
-0.185735
0.0330969
0.00137367
-0.0666957
0.0430415
0.0294288
-0.034879
0.000426933
0.0295741
-0.131768
0.0310351
0.0314286
-0.238301
-1.23347
-0.122083
-1.63765
-0.0243317
0.0228359
0.0183861
-0.0240669
0.0358661
-0.00114267
-0.164567
-0.00337526
-0.00784666
-0.122258
-0.0272183
0.0228814
0.029754
0.0137986
-0.000309438
0.00560788
0.0305942
0.0188383
0.0229442
-0.0756608
-0.0577132
0.00560394
-1.45743
0.0139561
0.00942115
0.0308823
-1.65878
0.0335453
-0.234814
-0.0470427
0.0227142
0.0340545
0.0271583
-0.00646935
-0.378193
0.0104424
-0.0423812
0.0294113
0.0133517
-0.00302088
0.0087186
-0.299084
0.0404876
-0.202724
-0.0790342
-0.0196562
-0.208142
-0.0381472
-0.0780934
0.0314767
-1.60609
-0.0715929
0.0246487
-0.0562433
0.0047174
0.0325719
0.00275788
0.0258517
0.0339195
-0.219971
0.0174276
0.00543107
0.0328664
-0.116297
-0.0123144
0.0235689
0.00576634
-0.176585
0.018328
0.00100271
-0.236392
0.00645921
-0.0341625
-0.711402
0.00199244
0.0243389
-0.17631
0.030602
-0.0666439
-0.233344
-0.196684
-0.352855
-0.348155
0.00581997
0.0327107
-0.264512
-0.190177
0.0355492
0.0387581
0.0227269
0.0273434
0.031011
-0.384016
0.0211288
-0.00147492
0.0354386
-0.0222655
0.0178142
0.0150276
0.000323108
0.0116459
0.0145124
-0.154479
-0.100012
0.0121874
0.0850218
-0.00181785
0.000707958
0.0227813
0.0139061
0.00588912
-0.078024
0.0195182
0.0820825
-0.15128
0.0310704
-0.0907538
-0.00295484
-0.0227836
0.0307345
0.029426
0.02023
0.00288518
-0.000895223
0.023212
-0.178967
-0.0172774
2.25315e-05
-0.019873
-0.00962769
-0.00321982
-1.21777
-0.186975
0.00851385
0.0326548
0.0328075
-0.32178
0.0317133
0.0294703
-0.0876422
0.0315251
0.0161252
0.00834394
2.67836e-05
0.0309606
-0.00278975
0.0306592
0.0309598
0.0298395
-0.132781
-0.128119
0.0315422
0.0284027
-0.258784
0.0286351
0.00304607
0.00069918
0.0195163
0.030582
0.0140278
-0.0311
-0.0824601
0.0215726
-0.213967
0.031678
-0.0045737
-0.418929
0.022941
1.32948e-05
-0.0005053
0.03049
0.0352269
0.0362809
0.00279978
0.0484431
0.0153521
0.0872789
-0.125042
0.032566
0.0311201
0.0273811
-0.0427505
0.00440641
-1.30164
0.0366315
0.0101553
0.000624743
-0.0828018
0.0296177
-0.00589964
-1.5619
0.0280985
0.0354013
-0.0863403
-0.000944335
-0.0514728
0.0225904
-0.0613594
-0.0413838
0.0226749
0.00453899
0.0255079
0.0862347
0.021024
0.0313723
0.0342713
0.00216512
0.0134717
-0.119175
3.67934e-05
0.0224995
-0.0539692
0.0147355
0.031436
0.00224987
-0.155589
-0.260626
0.031765
-0.0294858
0.0302214
0.0557631
0.0222842
0.0235856
0.0325255
0.0351823
-1.30798
0.0233742
-0.065938
-0.489258
-0.0666473
-0.0451016
0.0247053
0.0121681
-0.382552
0.00818208
0.0123142
-0.0475479
0.0310067
-9.11801e-05
0.0383422
-0.168864
0.0352099
-0.0607741
0.0219615
-1.56776
0.0297859
-0.0463785
-0.0438041
-0.214122
0.0345988
0.0182611
0.0292431
0.0217634
-0.0464214
0.0176525
0.0568263
0.0314898
-0.0695344
-0.00169047
-0.00865525
0.0299502
0.0302651
-0.391648
0.000451851
-0.134303
0.0283441
0.0141828
0.0231617
-0.280298
0.0162666
0.0517432
-0.0971953
0.0388716
-0.0431161
-0.00114245
0.0201063
-0.133985
0.000252101
-0.0381621
0.0347368
-0.146884
0.0341206
0.0257112
0.029016
-0.230195
-0.000306387
0.00525083
0.0192397
0.0338478
-0.160542
-1.48825
0.0300658
0.0272062
0.0168893
-0.367163
0.00645918
0.00068478
0.0266754
0.0354188
-0.178855
0.0140024
-0.035151
0.0028316
-1.10546
0.0115973
0.00140714
0.0221158
0.0164837
0.000581969
0.0117168
0.0350968
-0.0134198
0.0310067
-1.54108
0.00029104
0.0293628
-0.123301
0.0322791
0.0200404
0.0135908
-0.0424764
0.0853089
0.0237323
-0.00412636
0.0499195
0.0305521
0.0274518
-0.000594048
-0.124844
-1.35871
-0.126869
-0.168247
0.0340454
-0.0629985
-0.211815
0.0311252
0.0363371
-0.12378
0.0319778
-0.0162765
0.0312864
-0.426222
0.0342096
-0.0541844
-0.0650931
0.0296498
-0.028116
0.0137453
0.0318038
0.00799155
0.0358256
-0.366623
0.00289443
-0.0242239
-5.76024e-06
0.0671874
0.0321306
-1.22399
0.0290135
0.0319358
-0.11215
0.031131
0.0236568
-0.0136471
0.000606685
0.0255128
0.0671405
0.0226549
0.0169556
0.0221056
0.0134715
0.0135097
-0.0508165
0.00208256
0.0271599
0.0211205
-0.00833213
-0.0911706
0.0804204
-0.0374832
-0.39696
-0.0413971
0.0317751
-0.216522
-0.199275
0.0329861
-0.123468
0.0208992
0.0050305
0.0321965
0.0193296
0.0297565
0.0197667
0.0345718
-0.140828
-0.181401
-0.090775
0.0467268
0.00651252
-0.0992161
0.00484562
-0.0733502
0.0330475
-0.050347
0.0148909
-0.0871686
0.0146213
-0.398057
0.0155847
-0.0697941
0.0318517
-0.274306
-0.421528
0.0510089
-0.334886
0.0118926
-1.14303
8.89731e-05
0.0763633
-0.0557873
0.00991647
-5.24635e-05
0.0239537
0.0014544
0.0577205
-0.117787
0.0309631
0.0319255
-0.727026
-0.0783096
0.0196939
0.0822768
0.00957141
0.031
-0.0468053
-0.00737883
0.0015907
0.0765025
0.0243932
-0.0437372
0.011082
0.020967
0.00799613
-0.182682
0.00132794
0.042797
-0.132104
0.0346201
0.0215547
0.000320496
-0.102169
-0.0376719
0.00596671
0.0325051
-0.517418
-0.00239158
0.0764437
-0.0359543
0.0147296
-0.0921366
0.030225
0.00632427
0.00148839
0.0283476
-0.0464255
0.035602
0.00786149
0.011795
-0.00416031
0.0208841
-0.0744358
-0.204281
0.0317792
0.0720859
-0.429956
0.0288522
0.00463016
0.00527617
2.61952e-05
0.0161886
0.00506586
-1.23618
0.036223
0.0342666
0.000685552
0.0330516
0.0132879
0.00155622
-0.00348105
-0.732165
-0.150612
-0.298105
-1.08565
-0.0871785
0.0192177
0.0335345
-0.650763
-0.0287323
-0.569746
0.0426766
-0.0390014
-0.019033
-0.0260176
-0.021471
0.0333184
0.00580174
0.00740572
0.0371144
0.0267199
-0.183844
0.0277346
0.00134955
0.0312107
0.00339184
0.0237493
-0.208932
-0.0102295
-0.178674
0.0304827
-0.103894
0.0314999
0.025694
0.00876274
0.000170596
0.0230284
-0.130543
0.0267366
-0.140347
0.0483551
0.0307152
0.0324643
0.00101557
0.00387628
-0.100805
0.0547473
-0.133383
0.0233817
-0.117006
0.0878863
-0.145462
0.0235383
0.0182382
6.60851e-05
-0.0201287
0.0255936
0.010817
0.00282907
0.00144186
-3.64371e-05
-0.185672
0.022094
0.0532437
0.0131358
0.0230362
0.0371544
0.0102955
-0.13246
0.0129339
0.00272234
0.0303047
0.00436604
0.0177302
-0.23009
0.0418198
-0.153793
0.00587192
0.0384548
0.0232419
0.0213436
0.0112331
0.00035987
0.00419766
-0.132378
-0.148384
-0.0142351
-1.49448
0.000855897
0.0341588
0.0128538
-1.03873
1.30219e-05
-0.0736385
0.0388158
-0.211529
0.00578354
-0.681498
-0.377908
0.0309743
0.0260891
-0.0265716
-1.46453
0.0295246
0.00207907
0.0334979
-0.110382
-1.59312
0.00124117
-0.112823
0.0146759
0.0145055
0.0229949
0.0246011
0.0324819
0.00035753
-0.175788
-0.142309
0.00206222
0.0313018
0.030311
0.03209
0.0215734
-0.542671
-0.299023
-0.124873
0.000367804
2.37599e-05
-5.78806e-05
-0.97497
-0.0956724
-0.275029
-0.0676319
0.00573721
-0.129421
-0.133551
-0.109207
0.00038728
0.00262899
0.0674116
0.0392179
-1.3558
0.0265503
0.00517079
0.00639966
0.0131105
0.0272889
0.00140539
0.031934
0.00104102
0.0172081
0.0679353
-0.0442279
-0.0245332
-0.131327
-0.0146471
0.0340631
-0.15302
0.0380018
0.00220546
0.0198848
-0.0185409
-0.00512081
-1.29818
-0.173654
0.0251557
0.00273727
0.0259325
0.0258981
-0.690707
0.01163
0.00510624
0.000926289
-0.0665802
0.0315998
-0.0105613
0.032493
-0.110845
-1.24
-0.262653
-0.0059373
0.0212669
0.032263
0.0035138
-0.124616
-0.0130519
0.0314034
-0.0386532
-0.015318
0.029566
0.00474914
0.0341745
-0.107871
-0.217202
-0.20828
0.0129783
0.0174821
-0.0440432
0.0201257
1.33312e-05
0.0343021
-0.216906
0.00148892
0.00533932
-0.167816
-1.18003
0.0271304
0.0123273
0.0300051
-0.058708
-4.09929e-06
-0.00980389
-0.114428
-0.232742
-0.138174
0.000199719
0.0324848
-1.46527
0.0290541
0.00328199
-0.867592
-0.184037
0.00723289
0.0132115
0.0263763
-0.0101918
-0.817397
-0.217593
0.0862801
0.0405524
0.0319774
0.0200983
-0.0504055
-0.10702
-0.240752
0.0819237
0.0264395
-1.57145
-0.164469
-0.0768122
-0.25758
-0.119043
0.00542823
0.0317535
-0.990205
-0.144647
0.0367066
0.0210945
0.0307404
0.00137082
0.0362708
-0.111469
0.0324337
-0.172754
0.0311497
-0.266868
0.0182342
-0.768634
0.0236439
0.0239801
-0.266228
-0.0344996
0.00660693
-0.40893
-0.250585
0.0515344
0.0325023
-0.409267
0.0151971
-0.213874
0.0314695
-0.0226299
0.0253921
0.00145118
0.0287416
-0.255598
0.00768539
0.00466309
0.0137894
-0.188072
-0.0452669
0.0341133
0.0293047
0.0368678
-0.130687
0.0101721
0.0259101
-0.249592
-0.0741116
-0.719591
0.0279372
0.00474201
-0.258897
0.000213702
-0.0647959
-0.140656
0.0281432
-4.5819e-05
0.0291912
-0.30377
-0.139798
-0.154118
0.000319496
0.0290171
-0.0230325
0.00546849
0.0315325
-1.48406
-0.455968
0.0163374
0.035365
-0.359928
0.0310591
0.000316731
0.000256388
0.0333354
-0.487201
0.0252962
-0.191691
0.0168909
-0.892146
-0.0215238
9.63712e-06
0.0139044
0.0371269
-0.229176
0.0314329
0.0247278
0.037367
0.00614352
-0.733181
0.0879225
-0.587638
-0.0223727
-0.0292283
-0.1174
0.0252568
0.0259175
0.0158583
0.0153146
0.0323933
0.0238797
-0.0515781
-0.0173522
-0.176051
-0.274524
0.0145077
0.0221647
-0.0157032
0.0340603
0.0338552
-0.228966
0.0317753
-0.0925794
-0.0936665
0.0289751
0.00755352
-0.0154393
-0.0701977
-0.212614
0.0233759
0.0316699
0.0230115
0.0307153
0.0270588
-0.694059
0.0325472
0.0226869
-0.543786
-0.00754107
0.0135392
-0.000174361
-0.0705978
0.0012723
-0.225034
-0.00188075
-0.367397
0.0311035
0.0372839
0.0287359
-0.0588344
-0.000312351
-0.120307
0.0341383
0.0326917
0.000130745
0.0322672
0.000311153
0.00902923
0.018964
0.0336368
-0.134798
-0.12697
0.0228902
-0.007895
-0.000683225
0.023364
-0.0576111
0.0270514
0.000130959
-0.420118
0.0232303
0.0358217
-0.213791
0.0359601
-0.00173832
-0.197347
0.0285534
-0.0156737
0.000397697
-0.113483
-0.195567
0.0361207
0.000299971
0.0330386
0.00553029
0.0052476
0.00885414
-0.232959
0.0013971
-0.0292481
-0.283428
0.0212368
-0.000278304
-0.143281
0.0157725
0.0342624
0.0366864
0.0342512
0.0188952
0.0295273
0.0315337
0.00571068
-0.104243
0.0266994
0.0290859
0.0228872
0.0308233
0.0511489
-0.0052422
-0.301856
-5.5388e-06
-0.0178367
-0.0321745
-0.289639
-0.0257728
-0.823948
0.022235
0.00904543
0.0308091
-0.000337262
-0.0613378
0.00676667
-0.0110953
0.0270396
0.0723747
0.0237749
0.00563377
-0.00251258
0.0339647
0.0110812
-0.239423
-0.0174283
0.0307651
0.0218855
0.0803249
-0.0725604
0.0216026
-0.0533446
-0.0385057
0.00493492
0.0302449
0.00628427
-0.425053
0.0324457
0.0338119
-0.0204167
0.0297597
-0.0558195
-0.0170944
-0.0707634
-1.49831
-0.273442
-0.0470036
-0.063969
-0.00468835
-0.829155
-0.0628259
0.027114
0.0270851
0.011605
-0.274879
0.0308084
0.0272896
-0.0853463
-0.00701003
0.0473007
0.00256718
0.0133795
-0.00156055
0.0309335
0.0307445
0.0309356
-0.0601517
-0.0204377
-0.0655795
0.0307267
0.0121472
-0.0168017
0.0192426
-0.0525125
0.0320543
0.0311149
0.0308496
0.00830064
0.0133468
0.016639
-0.139539
0.0282163
-2.21218e-05
0.0282945
0.0227566
-0.0191199
0.0313782
0.0284428
0.00683995
0.0325876
0.0220849
0.0268326
0.0328198
0.0035139
-0.262603
-0.196545
0.0325758
0.0246052
0.000325891
0.0293345
-0.0402564
-0.0565608
0.0210175
0.000600009
0.0150436
-0.55945
0.013317
-0.0386298
0.000214394
-0.838619
0.0288532
0.0330903
-0.351464
-0.00209815
-1.05832
0.00351967
-0.594515
0.0315151
-0.0507432
0.00259937
-0.040908
-0.0847993
0.0133313
-0.20171
0.0137413
4.22636e-05
-0.0883911
0.0149834
0.0284764
0.0704616
-0.000600744
0.0280591
0.0055993
-0.000215095
0.0224047
-0.0309959
0.029512
0.00268773
-0.831112
0.0343814
0.000363071
0.0159876
0.0312116
0.0146543
0.031585
-0.30756
-0.0957741
-0.0526453
-0.0365721
0.0453566
0.0289661
0.0145857
0.021159
-0.261861
0.0347303
0.0281361
0.0131003
0.032714
-0.0454623
-1.50963
0.014412
-0.143592
0.0261199
0.0128807
6.86688e-06
0.0332961
0.0383931
-0.0207117
0.028311
0.00686211
-0.00803546
0.0226935
0.0181397
-0.024811
-0.5998
-1.9307e-05
-0.219719
0.0062333
-0.135818
0.0244943
0.00905471
-0.186643
-0.0254177
0.0181661
-0.157757
0.0225009
0.0318801
-0.00520064
0.0339191
0.0323332
-0.00579634
-0.049031
0.0362236
0.0301404
0.0341968
0.0197732
-0.112174
0.0309118
0.024515
0.0316365
0.0143729
0.0258718
0.00502046
0.0326989
0.0311395
-0.021512
-0.28343
-0.647231
0.0288261
-0.0369592
-0.104018
-0.0403707
-0.0857939
0.00436266
0.0250957
0.031986
0.0218001
0.030064
-0.20729
0.0325753
0.019007
0.0224261
0.0328101
-0.0123389
0.00131897
-0.464013
0.0175001
-1.29656
0.0219978
-0.14738
0.00646845
0.041522
0.0420915
0.00507787
0.0374233
0.0302017
-0.266388
0.039953
0.0348064
-3.85141e-05
0.0077611
-1.27464
0.0289871
0.0160015
-0.044239
-0.00184154
-0.0577337
0.013038
0.028137
-0.156661
0.0249575
-0.00242017
-0.641571
0.00204698
0.0328222
-0.0843519
0.0312481
0.0361501
0.0110358
-0.0467598
0.0251245
-0.126909
0.0085621
-0.522759
-0.305938
-0.192106
-0.78238
0.0313101
0.0268332
0.0255035
0.0323991
9.43592e-05
-0.183671
0.0211919
-0.24323
0.0342631
0.00314956
0.0085902
0.0101235
0.0129821
0.0295686
-0.0472367
0.0142127
0.0228876
0.0225858
-0.00925289
-0.670909
0.0146698
0.0319745
0.032562
0.0327203
0.0177916
0.0137053
-0.0403329
0.0383298
-0.148537
-0.0331346
0.010636
-0.0644711
0.00957857
0.0274811
0.0139374
0.00453459
0.00544664
0.0222595
0.00472543
0.0264625
-0.00580817
0.00884337
0.0294371
0.0344818
-0.180375
0.0277285
-0.0160438
0.0141624
-0.0281882
0.0048413
0.00247502
0.0266387
0.0282232
0.0268659
0.0417257
0.0208238
-0.148487
0.0330646
0.0173667
-1.26437
0.0339891
0.0316911
0.031191
-0.174984
-0.679662
-0.0409855
0.0133296
0.0209156
-0.451817
0.0200711
0.0312838
0.0259179
-0.0391786
0.00859892
0.00132391
-0.141487
-0.036337
0.0133887
0.0560015
0.00274541
0.0212436
0.00631618
0.0285161
0.0178924
-0.0233749
0.0336052
0.034897
0.00498894
8.76316e-05
0.0174753
0.0282103
0.0212918
-2.79312e-06
0.0323557
0.0318292
0.0347829
0.0377264
-0.00133429
-0.106392
8.26764e-07
-0.896688
0.0315466
-0.591134
0.0147041
-0.0498516
0.0135196
0.0196569
0.0301291
0.00631284
-0.107524
-0.00736271
0.0128882
0.00577022
0.0351674
0.0024038
0.0397932
-0.0971781
0.00291355
0.00755374
-0.785991
-0.042683
0.0101661
0.00278747
0.0132037
0.0337917
0.0267763
0.00732666
0.00556421
-0.550025
-0.00412198
0.0393507
0.0243218
0.02014
0.0113328
0.00219049
0.0268247
0.0130472
0.00737583
0.000874421
-0.00962528
0.0226545
-0.0685323
0.0283834
0.0382657
-0.0452435
-0.0150187
0.0340005
-0.101993
-1.59647
-0.081757
-0.0310916
0.0125593
0.0174817
0.0097775
0.0084273
0.032429
-0.0476043
5.61426e-05
-0.0514224
0.000354338
-0.0186509
-0.000117127
0.0313803
-0.0352176
0.0125604
-0.94698
0.0293306
-3.24797e-05
-0.0814769
-0.177049
0.0317943
-0.0231137
0.0008491
0.00231037
0.0416633
0.0337899
-0.290089
-0.0727466
0.00259917
0.03062
-0.399168
0.0313613
0.0316221
0.0178701
0.028093
-0.0381929
0.00637192
0.0285259
0.0353433
0.00589854
-0.425336
-0.180111
0.0278702
0.00780244
0.0515078
0.00067624
-0.0371884
0.0281912
-0.0488245
0.00684489
-0.613508
0.00688586
0.0234813
-0.942906
-0.0156007
0.00268894
-0.00126774
-0.0614028
0.0455253
-0.0614796
0.0334237
0.00601434
-0.0175659
0.0396658
-0.124725
-0.0872516
0.0122797
-0.0259868
-0.0113682
0.0327695
0.00549326
-1.23046
0.0109982
-0.0279678
-0.304173
-0.0269126
-0.0316865
0.0297724
0.0376025
-0.115286
-0.00409995
0.00718184
-0.183276
0.00474624
-0.0107656
-0.943936
-0.0143491
-0.0303224
0.0365802
0.026447
-0.0550396
0.037269
0.00292108
0.0349133
-0.0222157
-1.19349
0.00456107
0.0263435
-0.00935382
-0.172922
-0.54201
-1.47101
-0.054602
-0.172989
0.0329434
0.0173247
-0.0128562
-0.251841
0.0130675
-0.233411
-0.0115715
-0.265926
0.033002
0.0338318
0.00644326
-0.0124548
0.0591483
0.0332267
-0.0110789
-1.11023
-0.00836524
0.00722597
0.00474201
0.0207097
0.00285915
0.0129383
0.0138818
0.00272647
0.036151
0.00869451
0.0689913
0.00223486
0.0295318
-0.00723805
-0.282561
0.0376421
-0.140799
0.0299895
0.0371283
-0.167242
0.000278504
0.0260808
-0.0183532
0.0322518
-0.0504962
-0.000108308
0.000959868
0.0343362
-0.294126
0.0126452
0.0355571
0.0315385
-0.033723
-0.177659
-0.13189
0.00686979
-0.00798078
-0.684104
-0.147321
-0.361636
-0.128479
-0.015431
0.00994539
0.0149381
0.0291117
0.0326011
0.0265988
0.0112261
0.00860824
-3.95082e-05
0.0221927
-1.26961
0.0500397
-0.168986
-0.17815
-1.58396
-0.0175226
0.000408625
-0.0246069
0.0121664
0.00131753
0.0360976
0.0140771
0.0280428
-0.185546
0.0218157
-0.838054
0.029623
-0.176166
0.0364132
0.0012545
-0.22019
0.0340951
0.0391159
0.0262485
0.00614572
-0.0438318
-0.0740571
0.00757606
-0.149027
0.0313459
0.00604883
0.00631575
0.0302005
0.000713503
0.00882919
-0.13217
0.0243445
-0.0218927
-0.136234
-0.00010864
-0.0632765
0.0315125
0.031411
-0.665723
-0.0798107
-0.188845
0.0374594
0.000516471
0.0132895
-0.0234092
0.00407198
0.0231063
0.0371091
0.0170763
0.0281867
0.028792
0.0248043
0.00489737
-1.17789
-0.00188585
0.0181863
0.00220755
-0.0656703
0.0101961
-0.00829202
0.013146
0.0116133
-0.0230024
0.0289835
0.00219166
-0.140587
-1.53209
0.0324541
0.0375149
0.000801309
0.00702497
-1.16318
-0.226005
-0.153743
-0.0129447
0.0187987
0.00482029
0.00257002
0.0038663
-0.603323
-0.0117196
0.0126386
-0.128416
-0.176311
0.031131
0.00507826
0.0168657
0.0265301
0.0299056
0.0082292
0.0128002
0.0202825
-0.144803
0.00104366
0.0249389
-0.142153
-0.273644
0.0132153
0.0317362
-0.295032
0.063529
-1.64413
-0.628866
0.0349716
0.0298959
0.0319013
-0.0611122
0.00165777
0.0292734
-0.163002
-1.56455
-0.0121343
0.0212499
0.0242192
0.00143418
0.0298736
-0.877611
-0.0229698
-0.0485191
-1.5255
0.0251837
-2.18231e-05
-0.175437
0.0312022
-0.233319
-1.62777
0.079907
-0.0768654
-0.429631
0.0348089
0.0216374
0.0312519
-1.01412
-0.0304725
-0.210126
0.000621581
0.0301741
-0.838263
-0.0750407
0.0218756
0.000123659
0.0391837
-0.0203145
-0.235885
-0.0148657
0.0229901
-0.0275877
-1.62807
-0.00176616
0.0514399
-0.011259
-0.0271359
-0.155773
0.00642531
-1.06769
0.0318006
-0.359721
-0.000551906
0.0162608
-0.135555
0.0335552
0.0106194
0.0324496
-0.0507509
-0.699516
0.0125331
0.0318385
-0.0657561
0.0363468
-0.00260659
-0.0703013
0.0343567
-0.0679509
-0.194863
-0.235282
0.0324825
-0.961062
0.0482318
0.0243201
0.0127941
0.00578159
0.022331
-1.19446
0.0325229
-0.0304508
0.029583
-0.029279
0.0315351
-0.0205808
0.0381277
0.0344337
-0.0277356
0.0343169
0.00630005
0.0310303
-0.0800465
-0.0295543
-0.355348
0.0202011
0.0112631
0.000379354
0.010493
-0.0379252
0.0121064
-0.0215318
-0.308452
-0.0439753
0.0321251
0.0400826
0.0130017
-0.302597
-0.748868
-0.0318332
-0.0836235
-0.142481
0.0138927
-0.194108
-0.0858239
-0.782745
0.0108978
0.0137442
-0.0205061
-0.221174
0.0169356
-0.0497043
-0.0236089
0.0323169
-0.00412018
0.0344645
-1.62392
-0.246697
-1.60382
0.0231372
0.0161056
0.0127124
-0.148875
7.57883e-05
0.0171888
-0.0336156
0.0650503
0.0139768
-0.241257
-0.0419262
-0.0164057
0.0166365
-0.294829
-0.220317
0.0323831
0.0210094
-0.0793049
-0.0941259
-0.0209806
-0.037444
-0.0122897
0.0444874
0.0353882
-0.0370119
0.0257746
0.00345456
-0.0435412
0.024188
0.0313686
0.0285357
0.0311581
-0.0400383
-0.856481
0.0126827
-1.39598
0.015907
-0.0362796
-0.00311898
-0.0843851
-1.48497
0.00898583
-1.41535
-0.0395658
0.0361506
0.0276086
-0.235415
0.0125218
-0.0760609
0.00108681
0.0350518
0.000502065
0.0161103
0.033719
-0.15895
0.0214277
-0.0770332
-0.203994
-3.50782e-05
-0.193598
0.026485
-0.231364
-0.576439
-0.000162121
-0.0592543
0.0292847
-0.0551846
0.0476747
0.0016633
-0.0988298
0.0343705
0.0511153
0.0490118
0.0310351
0.0221572
0.0314665
-0.00535726
-0.049769
-0.0370733
-0.0276085
0.0256277
0.0157786
0.03181
-0.0141161
-0.0675758
0.0287772
0.000327969
-0.00765433
0.0315414
0.0124179
-0.324178
-0.0599215
-0.0374113
-0.277288
0.0135289
0.0324054
-0.0205703
0.0351826
-0.088775
-0.264049
0.000770564
0.0309354
-1.0877
-0.131605
-0.0379473
-1.12498
-0.154712
0.00688694
-0.0362736
-0.10215
0.0233743
0.00211171
0.0477903
-0.0734326
-0.119924
0.0121214
0.0303013
-0.0425248
0.0560198
0.014421
0.0164167
0.0211017
0.000738977
-0.123435
0.02777
-0.0359096
-0.0151166
0.000911784
-0.177266
0.0238542
0.0100565
-0.0788037
-1.45454
-0.144385
0.0133788
0.0448824
-0.0345127
0.0249829
0.0136861
-0.209853
-0.0692455
-0.218702
-0.0439653
0.0320444
0.0322778
0.0126174
0.0173377
-0.551939
-1.55844
-0.0841671
0.0171368
0.0133542
-0.0397928
-0.27764
0.0319321
0.000867045
-0.138582
-1.45791
-0.00200177
0.0126818
0.00172007
-1.26927e-05
0.00854219
-0.327897
0.0298383
0.0390642
-0.00226958
-0.000141537
0.0302048
0.0327458
-0.056339
0.0287504
0.0700225
0.0181008
-0.113208
-0.22872
-0.0399204
0.0299754
0.00345024
0.0411205
0.0138838
0.00274536
0.0313976
0.0194116
-0.0452399
0.00213051
-0.0476831
0.0774237
0.0399333
0.0334074
0.0313933
0.00173988
0.0137274
0.0175167
0.0111447
0.012409
0.00185804
-0.111881
-0.488966
-0.0233631
-0.0701605
-0.00644231
0.0321547
0.0330408
-0.184832
0.0279831
0.0168716
0.0273321
0.0279373
0.0247672
0.0535518
-0.0143005
-0.0150687
0.0226585
-0.739608
-0.0201527
-1.29315
0.00846481
-0.107009
0.0142598
0.0279071
-0.198757
0.0254962
0.0344866
7.94554e-05
0.000485799
0.0313625
0.0320556
0.0462833
0.00459386
-0.0236225
-0.887265
0.040874
-0.0254124
0.0227328
-0.127612
-0.0208325
0.0125124
0.0353997
-0.0149927
0.0735696
0.0317552
0.0288411
-0.0732278
0.0183381
-0.0265813
-1.40965
-0.0253191
-0.0403472
0.020597
0.048099
-0.647297
-0.00379873
0.0288521
-0.134956
-0.74883
-0.0919025
0.030147
-1.5616
0.0327874
0.029639
-0.179264
-0.0320325
0.0299483
0.0137469
-0.0176029
0.0137046
-0.0122899
0.0137125
-0.335568
0.0130927
0.0291385
0.0292704
0.00340407
0.035358
0.0290611
0.012418
-0.117421
0.0322501
-0.0568773
-0.0584325
-0.10147
0.0233429
-1.13798
0.024274
0.0270657
-0.0303773
-1.29909
0.0113116
0.0405405
0.000833436
0.0344776
0.0204382
0.0114049
-0.0395481
0.0322845
-0.05165
-1.30533
-0.0132016
0.0296081
0.00109022
0.0300918
0.0362828
0.00482006
-0.688755
0.0277611
-1.3538
-0.000409196
-0.120971
0.00105123
-0.812367
-1.5897
0.0352011
0.019624
0.0380844
0.0229299
0.0104315
0.0791555
0.0061256
0.0263756
0.0308045
-1.64624
-0.179469
-0.019832
-0.731946
0.0132484
0.00629407
0.0312318
0.028625
-0.0411224
-0.459991
-0.0455001
-0.0454095
0.0316006
-0.230521
0.00645645
0.00454958
-0.01639
-0.183157
-1.37762
0.0223669
0.0278761
0.0300018
-0.571179
-1.28061
0.0229779
-0.9687
0.000801625
0.0327219
0.0124631
0.000481611
-0.127698
-0.0233625
0.0204015
0.0205823
-0.189858
0.0302519
-0.216517
0.0400116
0.0025288
0.0266549
0.0281144
0.0319662
0.0112646
-0.220669
0.0144102
0.0110415
0.0311105
0.000458975
-0.291323
-0.0460301
-1.04931
0.0311553
0.0274188
0.027586
-0.657901
0.0201919
0.0620868
0.0298866
-0.125082
0.0334725
-0.0450671
-0.232306
0.0033258
0.00392545
0.00534619
0.0302418
-0.0839717
0.0294271
0.0145044
0.0279362
-0.272975
-0.906398
-1.00364
-0.014858
0.0205164
-0.269006
0.0155383
-0.062389
0.0219463
0.0313976
0.0301645
-0.152071
-0.0326411
-0.0430903
0.029133
-0.110698
0.0320369
0.0298995
0.00813707
-0.160626
0.0126621
-0.168539
0.0129726
0.0322397
-0.273962
0.0298454
-0.210154
-0.776943
0.0316912
0.0099796
-0.887315
-1.25752
0.0320594
-0.0278149
-0.0239821
0.0356757
0.0310964
-0.693565
0.000244168
0.0310569
-0.252166
0.0311447
-0.0340219
-0.952963
-0.0175804
-0.270494
-1.48612
0.017399
0.0311624
0.0314264
0.0184581
0.0112994
0.0305695
-0.087196
0.0130733
0.0410395
0.0233664
0.0320574
-0.049029
0.032281
0.00979647
0.0218588
-0.0607092
0.00817348
0.031463
0.0277533
-9.12431e-05
0.031308
-0.0137778
0.0342531
0.0244785
0.00989192
0.0277966
0.00491849
-0.0360338
0.0318118
0.00509509
-0.0184163
0.0207376
-0.661129
0.0302979
-0.144355
-0.123338
-1.34559
0.00855271
-0.00332842
-0.130724
-0.624803
-1.02462
0.028142
-1.5248
0.00896209
-0.048631
0.000331324
0.0153714
-0.00733241
-8.47772e-05
-0.0913321
0.0278877
-0.0477823
0.0352428
0.0346133
-0.0397324
0.0130832
-0.781618
-1.51001
-0.0232141
-0.0701495
-0.26536
-0.821905
-1.56031
0.0112722
0.0130336
-0.0307004
0.0218452
-0.158173
-1.58562
-1.48478
-0.0275127
0.0322632
-1.54632
0.047907
-1.4218
0.0219162
0.0311194
0.012708
-0.116238
-1.53562
-0.601316
0.0357786
-1.39754
0.0021555
0.0333953
0.012927
-0.00872472
-0.0641312
-0.0318065
0.0123862
0.0298461
-0.610273
-0.237154
0.0163148
0.0235255
-1.37534
-0.850647
-0.774089
-1.5219
0.0315541
-0.138882
0.0322935
-0.116815
-0.0407362
-0.789848
-0.0258984
-0.0443337
0.0211901
-1.1878
0.0371521
-0.0480433
-1.47072
-1.11823
-1.38623
-0.254102
-0.134422
0.0107132
-0.00626878
0.0310044
-0.00198962
0.032112
-0.0408177
-0.104079
0.0246618
-0.0587989
-0.265673
-0.283013
0.00355854
0.0204947
0.0707689
-0.731684
0.0288144
0.0349767
-1.35235
-0.0376908
0.0237606
-0.00185457
0.0469774
0.0280104
0.0203503
-0.289078
-0.315152
-0.884039
-0.203239
0.0293619
-0.108745
-0.0345177
-0.0496318
-1.02603
-0.804337
-0.0423597
0.0234409
-0.524928
-0.0825146
-0.283389
-1.1373
0.0258432
0.0248142
-1.27059
-0.0843166
0.0399239
-0.199146
0.0609977
0.0318687
0.0111326
0.0267845
0.0464854
-0.281377
0.0283801
0.0544893
-0.0352495
-1.46573
-0.102254
0.000473622
-0.15249
0.0221733
-0.11845
0.000899366
-1.31638
-0.371552
0.0124541
-1.56184
-0.00145867
0.0163733
-0.00102251
0.00669677
-0.00617204
0.0318516
0.034046
-0.164023
0.012841
0.000204441
0.0337677
-0.000171914
-0.248358
-0.65074
-0.0636827
0.0310434
0.0305793
-0.00441692
-1.40685
-0.0467464
-0.552987
-0.0298434
-0.0761273
-0.247752
-1.16818
-0.113163
-0.103077
-0.881529
0.0330882
0.011287
-0.215045
-0.0201519
-0.0537387
-0.168991
0.0368005
-0.128853
0.0317329
-0.0523173
0.0023104
0.0169661
0.0387985
-0.130413
0.0448742
-1.52388
-0.917997
0.0277681
0.0254982
0.0100394
0.0363832
-1.14806
0.0381563
-1.21037
-0.0434674
-0.0260258
0.0323203
0.0347373
-0.0173904
0.0541218
-0.00207696
-1.20226
0.00104582
0.0244732
0.0292415
0.0357796
0.00657087
0.0308195
-0.108986
-0.136161
-1.18902
-0.00822548
-1.42918
-0.076721
0.050743
0.0127828
-0.0050972
0.0299835
-0.0274271
-1.28816
0.0330457
-0.696607
-1.1653
0.0123005
0.0296751
-1.32345
-1.54821
-7.96267e-05
0.0340514
0.0318102
0.00158691
-1.02453
0.0255734
0.0286995
0.0324271
0.0257172
0.0257874
-0.146866
0.0128795
-0.361819
-0.10856
-0.270279
-0.0914306
0.0804019
0.0125752
-0.0545969
0.0281042
0.0271806
0.00773837
0.00617136
-1.43888
0.0397197
-1.01437
-0.0704623
-0.0184367
-0.0383651
-0.410767
0.00818737
-0.543469
-0.0207614
0.0157861
-0.011308
-1.53243
0.0223495
0.0271524
-0.100365
-0.17632
-0.276041
-0.657644
0.0358106
-0.224267
-0.177943
-0.159019
-0.630573
-0.0370448
0.0328705
-0.0327038
-0.0204321
0.0325779
-0.17581
-0.0164288
-1.42191
-0.148197
-0.144182
-0.329007
0.03451
0.0216038
-0.0173578
0.0414777
-0.214757
0.0317441
-0.0176902
0.0330281
0.0304174
0.000235169
0.0353425
-0.198316
0.0212739
-0.300033
-0.09217
0.0136763
-0.114769
0.0197513
-0.121222
0.0321625
0.0324095
-0.0331224
-0.0214676
-0.0677784
-1.60165