/*--------------------------------*- C++ -*----------------------------------*\
| =========                 |                                                 |
| \\      /  F ield         | OpenFOAM: The Open Source CFD Toolbox           |
|  \\    /   O peration     | Version:  v2012                                 |
|   \\  /    A nd           | Website:  www.openfoam.com                      |
|    \\/     M anipulation  |                                                 |
\*---------------------------------------------------------------------------*/
FoamFile
{
    version     2.0;
    format      ascii;
    class       volScalarField;
    location    "50";
    object      omega;
}
// * * * * * * * * * * * * * * * * * * * * * * * * * * * * * * * * * * * * * //

dimensions      [0 0 -1 0 0 0 0];


internalField   nonuniform List<scalar> 
18355
(
0.181412
0.0209031
0.200891
0.0209824
0.0317858
0.826429
0.0215054
0.0335959
0.0218782
0.0476651
0.0250577
0.102917
0.109036
0.574598
0.0210019
0.0206002
0.020975
0.0241375
0.137166
0.0226372
1.72604
0.0219166
0.0207614
0.824336
0.02074
0.0220348
0.0215263
0.0210205
0.0221219
0.0256352
0.740607
0.0417476
0.0211734
0.0208164
0.0212366
0.022099
0.0271491
0.0221604
0.0259908
0.0219133
0.0223164
0.0254706
0.0207285
0.0208465
0.0209028
0.221837
0.0209977
0.0209862
0.765533
0.0212811
0.0213677
1.56459
0.0213443
0.113675
0.0212896
0.0227325
0.0212785
1.26661
0.0221138
4.5325
0.0207961
0.0768137
0.111461
0.0223398
0.0547473
0.0211311
0.0235018
0.0272722
0.0209293
0.0844726
0.0209423
0.021291
0.0347089
0.0250901
0.181997
0.0209212
1.26745
0.0208794
0.0209096
0.204711
0.0234559
0.364936
0.0209011
0.024311
0.0471836
0.0222213
0.0222973
0.0380318
0.0208852
0.0382864
1.01677
1.13951
0.356309
0.0212728
0.0789505
0.0221722
0.020867
0.022119
0.0720526
0.0218481
0.0446678
0.0208802
0.0212197
0.0205707
0.0236306
0.0206371
0.0543245
0.0890218
0.0318388
0.0205292
0.0211604
0.0216183
0.0290604
0.0240624
1.18444
0.0260799
0.0208537
0.346292
0.0227366
0.023369
0.0544837
0.212475
1.02342
0.043775
0.376753
0.566491
0.0215474
0.0209752
0.194627
0.0216737
0.020871
1.57873
0.021278
0.0743759
0.0831081
0.0208799
0.139788
0.0603244
0.0211207
1.62129
0.025018
0.0233709
0.0209609
1.61144
0.08512
0.0216596
4.42585
0.0208348
0.0288715
0.0209857
0.0210127
0.0232928
0.0218646
0.0250756
0.0207023
0.0207661
0.0209807
0.0222288
0.0209696
0.0208712
0.0242956
0.0212861
0.020526
0.0306338
0.0252565
0.0784503
4.4683
0.231292
0.711745
0.0250106
0.0213751
0.0709395
0.022143
0.781043
0.0212499
0.0220476
0.0215164
0.0206443
0.0226091
0.0274801
0.022234
0.0600205
0.0217975
0.0210457
0.031761
0.0212039
0.0220101
0.0369684
0.0213528
0.0216331
0.266024
0.0714444
0.0210462
0.0208157
0.0213834
1.36233
0.0211245
0.231099
0.0209474
0.720886
0.0211574
0.0233943
0.0262175
0.0220301
0.213013
0.021592
0.901753
0.0210403
0.0210526
0.0217159
0.0215763
0.41688
0.0228666
0.0224647
0.020796
0.797604
0.02743
0.025131
0.0216106
0.0210004
0.0309539
0.0210325
0.0361328
0.0226821
0.0340259
0.0226875
0.021029
0.0572106
0.149543
0.0315211
0.0213922
0.0236513
0.039763
0.0210668
0.0311154
0.0329291
0.0219888
0.395004
0.0246474
0.0223205
0.0209673
0.0225467
0.022143
0.0304167
0.0215894
0.0212954
0.0209883
0.328649
0.726635
0.0210126
0.0225853
0.65364
0.141248
0.0225852
0.0206161
0.0268972
0.0246277
0.021687
0.0227414
0.0208141
0.0209315
0.0180613
0.0659484
0.029146
0.0266731
0.0367948
0.0340859
0.0791441
0.0208069
0.0212974
0.0217668
0.0205476
0.0234436
0.025329
0.0209798
0.0215793
0.0300205
0.0208646
0.0741637
0.713421
0.0284801
0.021605
0.0266509
0.0205626
0.0388521
0.0215407
0.0282774
0.0218522
0.0276905
0.0214519
0.0211229
0.0440241
0.0226411
0.0233415
0.0333727
0.0212633
0.0208438
0.0696929
0.0215772
0.0296258
0.0272478
0.540581
0.0403536
0.0679167
0.0237377
0.0309079
0.0212213
0.0238524
0.0287684
0.0441269
0.0241457
0.156824
0.0210841
0.0238584
0.100386
0.0270913
0.0210789
0.0209783
0.0209994
0.0464406
0.289951
2.15666
0.0238699
0.0295737
0.0247664
0.18375
0.0208493
0.0215716
0.0247409
0.021376
0.0316608
0.0211293
0.537626
0.020691
0.477753
0.02131
0.0218635
0.0241443
0.124301
0.291121
0.0305637
0.0240897
0.0219165
0.0208977
0.0213654
0.0240684
0.0844202
0.0209216
0.0215212
0.0212097
0.0218521
0.0209263
0.142951
0.0236562
0.020994
0.0212135
0.0288512
0.0222798
0.0286552
0.0209851
0.0213708
0.0218109
4.49512
0.0181913
0.0209588
0.0209466
0.0283535
0.0210074
0.0220207
0.262658
0.0172842
0.0315311
0.0213487
0.0220294
0.111142
0.022435
0.0264942
0.0239691
0.0209135
0.027329
0.0285392
0.0217351
0.0213009
0.0241064
0.0215117
0.0231932
0.0213836
0.0560947
0.0220367
0.0231155
0.0213382
0.0210013
0.0232577
0.0219157
0.061851
3.8229
0.0234221
0.0223413
0.135446
0.0251359
0.021318
0.0210662
0.0414762
0.0213525
0.0324614
0.0213932
0.0266186
0.21646
0.0381374
0.212158
0.0703601
0.0205751
3.05636
0.0218482
0.0209706
1.72048
0.0212924
0.0261687
0.0212251
0.0603594
0.0212865
0.0687004
0.431759
0.0612315
0.0213013
0.0208661
0.063313
0.0227424
0.0209595
0.0631661
0.0405875
0.0209637
0.0423073
0.061416
0.0208897
0.0221496
0.0293616
1.49939
0.0394239
0.0218573
0.0212734
0.0369444
0.021245
0.0208472
0.0211203
0.0368277
3.87989
0.0208318
0.0224891
0.0214349
0.132551
0.0281417
0.0210344
0.0260174
0.037182
0.0214937
1.86614
0.0775766
0.0218357
0.0213652
0.0382423
0.136679
0.798879
0.0207351
0.290971
0.0211643
0.020817
0.0428499
0.0228736
0.0611276
0.0346267
0.0232573
0.0255596
0.021921
0.137075
0.0228683
0.0281685
0.0218939
0.020651
0.0217407
0.0207159
0.0767521
3.804
0.0599797
0.0244808
0.0216442
0.0218971
0.0218267
0.0237126
0.0224091
0.0211154
0.0213937
0.0396394
0.020941
0.0223549
0.417043
0.249507
0.103058
0.0216529
0.0223965
0.0295613
0.0218787
0.0209426
0.227217
0.0235067
0.0242963
0.0257841
0.0222472
0.0235945
4.49919
0.0314124
0.0219037
0.275159
0.021613
0.230273
3.03867
0.0250836
0.0220978
4.4314
0.0209871
0.0662702
0.0423382
0.025412
0.0228781
0.0217208
0.0214801
0.221617
0.853279
0.0257146
0.46381
0.02358
0.0214673
0.0243332
0.0213038
0.0233414
1.59182
0.810352
3.74612
1.16221
0.0270564
0.0391168
0.0300412
0.0210059
0.0211585
0.0291188
0.0242837
0.0215579
0.0213013
0.546406
0.0208514
1.14713
0.0246611
0.0739706
0.118087
0.0211642
0.0240512
0.209778
0.0213874
3.59951
0.0211763
0.309703
0.0313274
0.0219112
0.0297724
0.0777084
0.0715073
0.0222452
0.0207478
0.0352598
0.0253246
0.0753262
0.0213802
0.0778323
0.0208439
0.214064
0.0212162
0.021183
0.188431
0.0232628
0.0310398
0.0211703
0.0245795
0.0231554
0.504898
2.67134
0.0242729
0.0254449
0.0212924
0.0265133
0.0217646
0.0241017
3.66498
0.0208269
0.0212891
0.0215727
0.0212987
0.0241397
0.0209191
0.0229517
0.0731796
0.0223114
0.0354635
0.428962
0.020808
0.0209958
0.245912
0.0369745
0.466105
0.0362034
0.0217568
0.0213069
0.0209858
0.0250063
0.022017
0.0211539
0.112468
1.62208
0.0211672
1.42984
1.49037
0.0243453
0.215869
0.0208951
0.168832
0.0229063
0.0206065
0.436596
0.0394948
3.46838
0.485559
0.0211323
0.0209778
0.0220905
0.0412835
0.0456536
0.0213282
0.021974
0.108072
0.0218015
0.0405247
0.021076
0.037531
3.33757
0.235316
0.0204109
0.117282
0.0386092
1.33867
0.0243052
0.0209259
0.025592
0.399189
0.024727
0.0430855
0.0213149
0.142686
0.021409
0.021799
0.237339
0.0221493
0.0260425
0.0298281
0.0673399
0.0214801
0.0212941
0.0240113
0.0249036
0.0210241
0.0215241
0.0309655
0.120104
0.0230675
0.0212102
0.0416405
0.424264
0.0212588
0.103512
1.43375
0.0214841
0.776156
0.0209627
0.201849
0.0213573
0.0212314
0.188124
0.0230442
1.50208
0.0229437
0.0212987
0.924479
0.0213532
0.0205536
0.0215248
0.0209369
0.0263928
0.036516
0.42103
0.0222173
3.64043
0.0227745
0.213576
0.753381
0.0221606
0.0213591
0.0245806
0.0211721
0.0972287
0.021199
0.0206686
0.0209162
0.0213137
0.0213781
0.195291
0.0248032
0.0462743
0.0227608
0.0238255
0.0239939
0.0230421
0.0206619
0.0210271
0.0753605
0.0444407
0.0210282
0.816232
3.31094
0.0211074
0.292952
0.0213869
0.0446564
0.0352883
0.0206402
0.0357967
0.0252369
0.207847
0.0211781
0.0243115
0.508768
0.0791575
0.106037
0.0213732
0.0300977
0.0681175
0.162443
0.021379
0.0228408
0.0211105
0.0215021
0.0210755
0.0211841
0.0208267
0.31547
0.0250693
0.0208072
0.020876
0.0210423
0.0218176
0.0747435
0.0665349
0.0211238
0.0249042
0.0215751
0.0216079
0.0214443
0.0209574
0.0361902
0.0209161
0.0208928
0.0220089
0.021626
0.0233033
0.0213843
0.561217
0.9133
0.0243812
0.0208746
0.130201
0.0207147
0.0208848
0.0214383
0.0486488
0.0243504
0.021367
0.0210363
0.0209918
0.0253552
0.0209064
0.0264867
0.0211903
0.0217673
0.0210744
0.0227588
0.852832
0.0209188
0.0218634
0.0211208
0.145743
0.027146
0.0271366
0.0220219
0.0254365
0.0251016
0.0318863
4.56368
0.0221383
0.0248331
0.021886
0.37828
0.022096
0.020993
0.0211791
0.0701372
0.0211315
0.0273556
0.0262266
0.157603
0.0371576
0.0223264
0.020945
0.0211853
0.021243
0.0284799
0.095657
0.526916
0.0451488
0.0215411
0.0208135
0.0226315
0.021076
0.0208191
0.0218035
0.0464317
0.0246202
0.299841
0.0215342
0.0214475
0.0312111
0.0213091
0.138857
0.0458974
0.0402821
0.121378
4.50044
0.0276101
0.0209948
0.0208352
0.0216946
0.0212273
0.140361
0.0453547
0.0941849
0.0208829
0.0216059
0.0229411
0.0208375
4.61503
0.0172134
0.0208808
0.0211181
0.0216356
0.0210821
0.02093
0.0212845
0.205167
0.0210995
0.0219678
0.0208431
0.0205817
0.0210841
0.0214815
0.0262543
0.020571
0.0232851
0.02101
0.0212637
0.205887
0.0240668
0.0435162
0.0229031
0.0219071
0.0642967
0.0174776
0.0213223
0.0209385
0.0207469
0.0259257
0.0222008
0.0277445
0.027233
0.0215232
0.0219462
0.0214912
0.199098
0.0239786
0.0222493
0.0212802
0.0246184
0.0400345
0.021154
0.0727672
0.0207619
0.0210298
0.0245328
0.549404
0.447923
0.0308077
0.248428
0.0207243
0.024636
0.0680826
0.0252239
0.0212369
0.0682096
0.0235161
0.154129
0.670258
0.0210899
0.020693
0.0214891
0.0220218
0.0207591
0.0424847
0.0983408
0.0205639
0.0215485
0.0219444
0.0373171
0.0212794
0.0211611
0.0283554
0.0217784
0.021417
0.0241234
0.0877717
0.0797184
0.0212256
0.0207074
0.0205696
0.0215172
0.0229383
0.0262176
0.0208871
0.0208117
0.0223641
0.0300678
0.0210197
0.0214242
0.0689792
0.0209321
0.020764
0.0213561
1.40357
0.020655
0.0214573
0.0210712
0.0215624
0.0206935
0.0258386
0.129377
0.0214252
0.141488
0.0293177
0.223305
0.057067
0.0209952
0.025753
0.02086
0.0207476
0.0210065
0.323433
0.289369
0.0322279
0.0273972
0.0514866
0.065953
0.0219044
0.0920571
0.0422613
0.0236627
0.0209775
1.23883
0.0222645
0.0213718
0.0209816
0.242568
1.55615
0.846701
0.0207139
0.0832853
0.0237174
0.0230958
0.0294432
0.0237977
0.0229846
0.034148
0.0292228
0.0229971
0.0223143
0.0245207
3.05802
0.194361
0.0212702
0.0214347
0.0210284
3.38555
0.0239028
0.0219763
0.109945
0.0257718
0.0326074
0.0237694
0.0210072
0.0206767
0.0781999
0.0220872
0.0210486
0.0209964
0.0212802
0.021042
0.0209102
0.0217319
0.207714
0.0207662
0.0712537
0.0268815
0.0216916
0.0214289
0.0852367
0.0212185
0.0215455
0.022566
0.720486
0.0400674
0.0230355
0.0215497
2.09692
0.0206714
0.0422776
0.0215315
1.33031
0.0300337
0.0214176
0.0257909
0.020988
0.0243653
1.50242
0.0310735
0.0205274
0.0213489
0.0370446
3.68786
0.0209208
0.0494087
0.0213111
0.0260129
0.0208773
0.0209699
0.0217816
0.0221295
0.0209691
0.0326813
0.0329635
0.0240388
0.116571
1.01733
0.0221993
0.0264137
0.0210675
0.0950094
3.50273
0.152564
0.0210715
0.0224285
0.0215096
0.740569
0.0211571
0.0207129
0.0810356
0.0215254
0.0215376
0.02224
0.0220376
0.0212537
2.80184
0.224911
0.0623762
0.0207584
0.0214663
0.12858
0.0211746
0.0293365
0.0216475
0.0214964
0.0220151
0.0236255
0.242311
0.0213204
0.0214892
0.24068
0.0216022
0.0218045
0.037296
3.79991
0.0332401
0.0214382
0.0210623
3.53671
0.345537
0.19307
0.0212448
0.0337881
0.203301
0.0211609
0.0328216
0.0230099
0.224419
0.0233905
0.0215095
0.0221137
0.0209794
2.82024
0.0214781
0.0212302
0.029187
0.0265546
0.0353732
0.0210485
0.0225771
0.0210184
0.020693
0.0207448
0.0223509
0.0216292
0.0218613
0.0210322
0.0217667
0.0481335
0.0267688
0.0237251
0.0212133
0.0238057
0.0210821
0.0213244
0.0216912
0.0219954
0.022075
0.0211847
0.0218182
0.0217419
0.0211994
0.0212504
0.0208325
0.0207314
0.0650093
0.0652265
0.0212725
2.76618
0.0357923
0.022162
0.0217169
0.0221811
0.0495034
0.0219553
0.021085
0.0206158
0.0209284
0.230716
0.0213173
0.0209941
0.15143
0.0207527
0.0205746
0.0218235
0.0218745
0.077803
0.125899
0.342379
0.0208605
0.357236
0.0254047
0.0212416
0.0208528
0.0229847
0.0212893
0.0291394
0.0594973
0.0232693
0.0221537
0.236313
0.0482317
0.261201
0.0644384
0.0336213
0.0846337
0.0211471
0.224678
1.38286
0.0206214
0.313977
0.0207095
0.0223526
0.121258
0.020726
0.0297592
0.024616
0.0227598
0.0218951
0.0277636
0.0213858
0.0818772
0.0212443
0.0211176
0.047876
0.0205949
0.0216633
0.0218707
0.0535927
0.021202
0.0214219
0.0228676
0.0197969
0.0212315
0.0213086
0.0212503
0.0237475
0.0211885
0.022337
0.0406115
0.0209878
0.0262057
0.0217266
0.0234013
0.0220713
0.0209454
0.0219404
0.0877752
0.0216066
0.0217704
0.0240727
0.0211533
0.0220855
0.0211324
0.0214314
0.0259608
0.0795422
0.0224555
0.0210261
0.0209785
0.0205371
0.0207352
0.0210082
0.0249257
0.0296003
0.0556992
0.0215553
0.543566
0.0209787
0.0212346
3.93273
0.0440846
0.0210566
0.0769998
0.0212823
0.0210211
0.385809
0.0218659
0.0418686
0.0208698
0.133292
0.0212985
0.0209959
0.0207508
0.034236
0.0924322
0.0215754
0.14951
0.0206985
0.0211428
0.0207424
0.124777
0.0212882
0.0206523
0.0216667
0.0226233
0.0212769
0.0214644
0.0208026
0.0218771
0.021546
0.0208572
0.0236936
0.0210903
0.534322
0.0651695
0.021187
0.213506
0.0261624
0.0209436
0.0210404
0.0220866
0.0207534
0.0293462
0.0249284
0.0450127
0.0446736
0.0217175
0.0660591
0.136385
0.0212322
0.0216198
0.0812861
0.0235446
0.0211143
0.0206594
0.0214212
0.0227107
0.0215026
0.0216949
0.0260162
0.0209541
0.0213802
0.0212749
0.0234094
0.0211959
0.102387
0.0213134
0.024207
0.0286481
0.0210052
0.174045
0.541782
0.0232075
0.0260487
0.0280353
0.0209647
0.0471481
0.0214462
0.034711
0.448284
1.65907
0.0392289
0.0213941
0.0265196
0.0210527
0.0296922
0.0211877
2.0971
0.0282544
0.0215942
0.0208101
0.130801
0.0344634
0.0212312
0.0212363
3.16932
0.0216495
0.0206434
0.565969
0.0510682
0.020665
0.141436
0.021018
0.021252
0.0542482
0.0212715
0.0214442
0.0227393
1.69995
0.0208011
0.0259781
0.0214473
0.0212798
0.0208329
0.830086
0.0217636
0.0213039
0.0211651
0.12367
0.0263223
0.0208184
0.0208673
0.0964445
0.0211611
0.0206924
0.147533
4.40067
0.0219378
0.334003
0.0225439
0.0462165
0.022309
0.0576513
0.202612
0.0215794
0.0212942
0.021001
0.0241769
0.0212124
0.468949
0.0596639
0.0205281
0.0220705
0.0209463
0.0211525
0.275969
0.0212221
0.0225291
0.0227207
0.0441136
0.0214634
0.0217045
0.0249294
0.156319
0.0214888
0.0212993
0.0208395
0.020723
0.0239501
0.0435803
0.0216268
0.021137
0.0212964
0.0210547
0.0209582
3.12756
0.0217584
0.0210595
0.0211086
0.058091
0.0207057
0.0206737
0.0361109
0.0214725
0.0368425
0.0212818
0.0214438
0.0258664
4.12058
1.42346
0.0213618
0.0227451
0.0217622
2.67711
0.0211192
0.0249484
0.0211145
0.597234
0.0205355
0.0240434
0.0214725
0.812309
0.036266
0.0294715
2.15101
0.0222257
0.0497569
0.0217388
0.0219905
0.253131
0.0352036
0.0211804
0.0210557
0.0235874
0.0270601
0.0214318
0.0212951
0.0211172
0.021103
0.15323
0.326522
0.0217329
0.021864
3.98004
0.534188
0.0233382
0.0229104
0.023097
0.0244416
0.0212085
0.0224663
0.0217341
0.0209153
0.0209875
0.0215271
0.0218223
0.173587
0.0253769
0.0215606
0.0215745
0.0260944
0.0213517
0.0249096
0.0414065
0.0349897
0.0231796
0.150776
0.0205523
0.0212355
0.0218614
0.0212052
0.0215764
0.0208632
0.02476
0.021015
0.469551
0.021787
0.0206408
0.0206173
0.0217235
0.022359
0.0437659
0.0575463
0.0208923
0.268373
0.0221173
0.0209943
0.0208131
0.0308196
0.186925
0.0208436
0.0208235
0.0213748
0.0222779
0.158371
0.0357057
0.0216796
0.0220341
0.125173
3.06176
0.0219759
0.0211482
0.225917
0.0238576
0.0225209
0.0233279
0.0211603
0.0606924
0.0224842
4.12438
0.0226365
0.0383384
0.0208411
0.0210005
0.0222243
0.021507
0.0237128
0.0216995
0.0215671
0.020796
0.021873
0.0215124
0.0217434
0.0222581
0.0228261
0.0219182
0.0213479
0.0214024
0.0325703
0.0219759
0.0209243
0.0215245
0.14687
0.0214232
0.0215317
0.0218632
0.850972
0.0206502
0.0385983
0.0227607
0.0208952
0.0211222
0.845557
0.0823487
0.0223914
0.0216804
0.0232508
0.0388694
0.0208761
0.0266846
0.0346101
0.0210622
0.0968605
0.0208258
0.0213375
0.0217065
0.021835
0.0291715
0.0477091
3.62344
0.0259348
0.0210627
0.021455
0.0211393
0.041687
0.0219624
0.0304588
0.0208253
0.021381
0.0213639
0.0702384
0.0210142
0.0215886
0.0212867
0.124912
0.0206381
0.137575
0.0206057
0.0241297
0.021688
0.0295583
0.0209984
0.0236411
0.0606763
0.0356773
0.0210239
0.0344723
0.0215223
0.0215182
0.339471
0.0531614
0.0209993
0.0212509
0.0236328
0.0207542
0.0211668
0.0218867
0.0217156
0.0233967
0.0498598
0.0221561
0.0265258
0.0378477
0.0216434
0.0209897
0.0211815
0.0215567
0.0289686
0.0213971
3.76048
0.0212628
2.66977
0.0371266
0.0211288
0.0206907
0.0206743
0.052741
0.0219167
0.0235954
0.0215173
0.0216755
0.0294352
0.0229444
0.025321
0.0216716
0.0214798
0.0227702
0.0212473
0.0229244
0.0213729
0.0215208
0.0219892
0.0218737
0.0808934
0.0231304
0.335738
0.0210038
0.0217786
0.0222545
0.0221451
0.0656525
0.452327
0.0225715
0.0210856
0.0409378
0.0215506
0.0884592
0.022174
0.0369027
0.0223526
1.37231
0.388225
0.0231941
0.0254079
0.0207519
0.0205266
0.0219148
0.0210339
0.0217501
0.0229307
0.0207889
0.0246273
0.0373648
0.0220092
0.0209047
0.0270139
0.0206416
0.0211959
0.0211666
0.085008
0.0216549
0.168524
0.0217327
0.0221947
0.24125
0.0208857
0.0233879
0.0210609
0.0231426
0.500804
0.025314
2.97931
0.0215114
0.0633627
0.0229781
0.0211248
0.0222859
0.0264882
0.0245119
0.0212818
0.0227548
0.0213306
0.0664475
0.0206534
4.36528
0.186852
0.0701659
0.0246151
0.107209
0.0219076
0.0210347
1.45814
0.0211936
0.0768494
0.0218466
0.0226306
0.0214692
0.0212888
0.0262037
1.45684
0.0213904
0.0219501
0.0206378
1.49291
0.0205365
0.0217603
0.0375886
0.0218457
0.0207211
0.021974
0.0212952
0.0328261
0.0221902
0.0337822
0.02519
0.0211287
0.947297
0.0214506
0.0218229
0.0212503
0.0213479
0.160863
0.0216814
0.0205975
0.0365151
0.0218288
0.184456
0.0705469
0.0212717
0.0416497
0.0355078
0.0208674
0.0214495
0.0236149
0.0208337
0.0527347
0.0285091
0.0226877
0.0230114
0.0209308
0.0213181
0.0564261
0.0219886
0.0214624
0.0223098
0.0208535
0.0208778
0.381517
0.0260288
3.71181
0.0272092
0.0503497
0.0263619
0.0211264
0.025486
0.0215255
0.0209866
0.0240406
0.0243094
0.0218793
0.0493318
0.0216529
0.518994
0.985543
0.0221461
0.0228174
0.0225713
3.2762
0.0208895
0.0214635
0.0216578
0.024309
0.0282442
0.0231688
0.0238046
0.0218331
0.0211759
0.0209214
0.0211904
0.0236716
0.0217113
0.0576017
0.0216441
0.0226642
0.0239502
0.0214946
0.0212418
0.0220138
0.0506132
0.0996866
0.021877
0.0232935
1.20158
0.0216339
0.0220053
0.0232062
0.0216066
0.235268
0.366526
0.125923
0.0770475
0.943815
0.0224585
0.020848
0.023537
0.0218413
0.02573
0.0210837
0.0205786
0.181278
0.0586469
0.0210856
0.0207543
0.0270157
0.0200119
0.0231912
0.0208184
2.6329
0.0229303
0.036863
0.0205275
0.026545
0.0209035
0.0228623
0.0249947
0.0211744
2.32707
0.0219978
0.0375609
0.0928776
0.0219546
0.0831967
0.0211996
0.0598037
0.0245338
0.0231469
0.0225416
0.0217416
0.0214587
0.0224252
0.0434942
0.0228921
0.0385053
0.020791
0.22765
0.0210621
0.0219256
0.202369
0.0246745
0.213717
0.0220215
0.022132
3.91375
2.09085
0.0208705
0.254285
0.0327841
0.0207254
0.0208867
1.4307
0.237691
0.0211873
0.020834
0.0214238
0.0212477
2.03595
1.77303
0.0205598
0.0208462
0.0208663
0.208321
0.0455257
0.0213396
0.0206447
2.55226
0.0216361
0.0605854
2.83765
0.024202
0.0212531
0.021248
0.0214183
0.0208346
0.0210485
0.0211894
0.0242889
0.0231233
2.78631
0.0246641
0.0218035
0.0211989
0.0267399
0.191029
0.0366128
0.0211248
0.0213122
0.138212
0.0480819
0.0220418
0.492297
0.0268983
0.0228202
0.257324
0.0227879
0.0252631
0.0218427
0.025264
0.021432
0.0218267
0.231492
0.0278237
0.0210548
0.0213562
0.0208772
0.0334656
0.102657
0.0209821
0.0208645
0.0221208
0.0603502
0.0219396
0.0206612
0.021247
0.0206526
0.0218629
0.0420057
0.0215175
0.021789
0.301672
0.0211194
1.51489
0.0306412
0.0320343
0.0235128
0.0226195
0.0214919
0.196354
0.0808966
0.0641112
2.2917
0.0299382
0.0208789
0.213107
0.020856
0.0672124
1.35366
0.0218262
0.0211328
0.0237331
0.0688652
0.0212057
0.0219419
0.225699
0.0212676
0.0218792
0.0216547
0.0217853
0.0210738
0.06623
0.107753
0.0208916
0.021029
0.444824
0.0211962
0.0213705
0.0210029
0.020837
1.69288
0.0220988
0.0229176
0.0222583
0.0219985
0.0213889
0.0337283
0.090382
0.0267062
0.144492
0.022
0.023361
2.36102
0.0208908
0.0205666
0.0211227
0.0208437
0.0218286
0.0208444
0.0222632
0.826024
0.0213482
0.0211047
0.0227914
0.0208167
0.0347424
0.0216898
2.33831
0.170343
0.0224721
0.0298649
0.0310719
0.0230385
0.0211952
0.0233009
0.0209551
0.0224591
0.0215389
0.0218064
0.209794
0.0210289
0.021331
0.0431296
0.167481
0.0217161
0.0208471
0.174483
0.0222381
0.0226308
0.0213156
0.0208577
0.0212321
0.264508
0.0214478
0.167363
0.0526796
0.0210603
0.0208381
0.022187
0.023962
0.0223161
0.0209342
0.0345557
0.0211084
2.75904
0.214137
0.0222494
0.155516
0.0215642
0.0229326
0.0238894
1.13096
0.0221536
0.0256904
0.0266984
0.227827
0.0217148
0.0331198
0.0214608
0.0444894
0.131229
0.145116
0.021722
0.0272696
0.0220093
0.0239055
0.0228211
0.0237839
0.0287241
0.045539
0.020826
0.0516756
0.0212125
0.0238119
0.0214914
0.0223544
0.0222731
0.204286
0.0216761
0.0218276
0.0564822
0.274341
0.0653385
0.113317
0.0494031
0.0207905
0.0251726
0.062004
0.0210562
0.0211257
0.384124
0.0228151
0.0215025
0.0212146
0.0401249
0.0206984
0.0212596
4.36192
0.0214754
0.0217609
0.0210453
0.0214101
0.0225903
0.021198
0.28107
0.0224504
0.0230908
0.0212045
0.0273207
1.52805
0.0215719
0.0217178
0.0222339
0.162141
0.0213595
0.0242833
0.0207075
0.0209383
0.0343884
0.151777
0.020939
0.0221086
0.0222375
0.0935091
1.02097
0.0223981
0.0228222
0.122098
0.0209923
0.0248763
0.0240469
0.0212165
0.260987
0.657043
0.0387147
0.0229201
1.37954
0.0208925
0.0208086
0.0227597
0.034645
0.191606
0.0209287
0.0349553
0.248033
4.05969
0.0216511
0.0225301
0.701803
0.0219573
0.0236522
0.308255
0.0209673
0.0211984
0.0211602
0.641179
0.0214473
0.0242901
0.0219148
0.0297142
0.026373
0.297542
0.0212055
0.0211435
0.0281044
0.0217827
0.0218642
0.0222465
0.094116
0.106868
0.0209961
0.0213525
3.54818
3.58811
0.927368
0.020761
0.0213638
0.0227028
0.021534
0.0212764
0.0214394
0.0213815
0.0218491
0.0206448
0.0207679
0.0580175
0.0235593
0.0265507
0.848758
0.0646453
0.048357
0.0241324
0.0389815
0.116897
0.030276
0.023194
0.025295
0.0210793
0.880255
0.0210571
0.0210156
0.0212986
0.101279
0.0215253
0.144227
0.0217871
0.0205922
0.041449
0.0211897
0.0211558
0.0211835
0.0219717
0.161236
0.021684
0.0211868
0.0226845
0.161159
0.047371
0.153439
0.0210853
0.0317085
0.0215431
0.0215517
0.0211176
0.0207261
0.0213626
0.0217112
0.0286814
0.022764
0.0227714
0.109488
0.478015
0.113883
0.0213888
0.0939213
0.0324956
0.075411
0.0207299
0.02149
0.0210371
0.0783626
0.0206648
0.0213691
0.0207169
0.0208767
0.112158
0.0220587
0.0631311
0.0217925
0.0206108
0.0224138
0.0214389
0.498103
0.0217186
0.0210339
0.0218023
0.0269172
0.0220888
0.0608236
0.12868
0.0212167
0.0363647
4.34452
0.0211253
0.0215485
0.0412503
0.0206661
0.273119
0.0264951
0.0209658
0.0561834
0.0208191
0.021603
0.0214849
0.0210708
0.0211681
0.022185
0.0212041
0.0207164
0.0215306
0.0218124
0.0477013
0.0213737
0.122137
0.0208486
0.020904
0.0276806
0.0482175
0.0220376
0.0208292
0.021201
0.022316
0.0460429
1.08841
0.0328917
0.0219439
0.0219776
0.0207566
0.0298044
0.0209397
0.0225144
4.32582
0.303089
0.0445195
0.0210523
0.0217356
0.0221751
0.0208664
0.0374959
0.0206276
0.113953
0.0219874
0.148826
0.0265217
4.36728
0.0216292
0.0662658
0.312775
0.243809
0.0341741
0.0248013
0.343194
2.97343
0.0218881
0.0342448
3.76369
0.0212733
0.0207522
0.0213425
0.0238458
0.055435
0.0214782
0.0237013
0.0594157
0.020531
0.0214743
2.21112
0.902885
0.087355
0.0390674
0.27373
0.0221674
0.0608471
0.0235969
0.0239683
0.0460303
0.0223819
3.28212
0.0373499
0.0237323
0.0214052
0.0226637
0.021933
0.0213279
0.200955
0.0206465
0.0212491
0.0212699
0.498895
2.6586
0.0276284
0.0213078
0.0224352
0.0210105
3.20054
0.0215075
0.0219384
0.0234509
0.0495725
0.0206761
0.0741647
3.01213
0.0226515
0.0219124
0.0240588
0.0212123
0.72713
0.0207037
0.0272577
0.0217364
0.0593009
0.0262326
0.772688
0.111778
0.0226932
0.0227589
0.022609
0.0235583
0.0211118
0.0207072
0.0244403
0.0218338
0.0282412
0.0206511
0.0210945
0.0214388
0.0214074
0.025497
0.0207401
0.0204737
0.0215056
0.0219849
0.0266576
0.0538876
0.0226339
0.0225712
0.0806368
0.0212038
0.0213147
0.0710859
0.043562
0.0204834
0.0348937
0.022933
0.0282216
0.0212502
0.0375518
0.021769
0.0212306
0.0207552
0.0205725
0.0211683
0.0210783
1.17014
0.064491
0.0215742
0.0213227
0.0211419
0.0221031
0.0268736
0.711681
0.0219173
0.0282016
0.0244477
0.0225644
0.021677
0.0450229
0.0212983
0.0212576
0.0268031
0.0212223
0.0214587
0.0209675
0.0210472
3.84199
0.0213889
0.0207319
0.0213406
0.20708
0.0346268
0.0217418
0.0208471
0.023816
2.22477
0.0232605
0.0217146
0.0215902
1.16418
0.0218902
0.0211237
0.203311
0.0213166
0.024978
0.0227856
0.0215534
0.0209337
0.0538401
0.0250133
0.020897
0.0212846
0.0217919
0.0209004
0.353444
0.022686
0.021403
0.0205945
0.0219881
0.0206042
0.0212536
0.0715937
0.02086
0.0243115
0.0232854
2.42176
0.0209128
0.0224289
0.0531
0.026915
0.147179
0.0212768
0.0215411
0.0218929
0.0214074
0.0210495
0.0223553
0.0214229
0.349075
0.0778901
0.0600454
3.90804
0.0214241
0.0265539
0.362738
0.0212555
0.0211161
0.64622
0.823496
0.020898
0.0205972
0.0226252
0.0213906
0.197628
0.106335
0.0907628
0.0214998
0.0216642
0.0212351
0.0213319
3.50937
0.537328
3.56712
0.0247039
0.0223796
0.277935
0.0213443
0.0208972
0.022675
0.0209311
0.0218681
0.0212989
0.020942
0.104446
0.0219203
0.0220615
0.0213994
0.0266831
0.0213315
3.40223
0.0206615
0.021215
0.0225447
0.0205212
3.46353
0.0242558
0.0251583
3.1406
0.0212834
0.0315033
1.44854
0.0215372
3.37767
0.0271312
0.0206911
0.0223203
0.0220526
0.378028
0.653432
0.0214981
0.0237039
0.499186
0.021077
0.0206061
0.0235946
0.526331
0.508457
0.0215455
0.0221458
0.0895883
0.0229824
0.0631317
0.0629124
0.0689843
0.0204863
4.38677
0.0215895
0.00929344
0.0599867
0.0356293
4.10078
0.3969
2.57927
0.0205096
0.314288
0.0209528
0.0206329
0.399284
0.0208746
0.0221751
0.0211521
0.0650154
0.0208559
0.126445
0.0205437
0.0217899
0.0754329
0.0263313
0.0250242
0.344764
0.0218355
0.0207913
0.0218822
0.088671
0.0237578
0.125158
0.0214233
0.0262035
0.0217687
0.268738
0.0214293
0.0216337
0.0213741
0.548647
0.0315767
0.0215436
2.54576
0.0211139
0.0218103
0.0242419
1.33068
0.0214007
4.16336
0.0215198
0.273972
0.0214362
0.0427844
0.020991
0.0511458
0.0214313
0.0629934
0.0248427
0.0217262
0.0208972
0.0217477
0.159088
0.0204934
0.0236773
0.0264432
0.0210867
0.0651398
2.86299
0.119219
0.0220628
0.0209264
0.0211902
0.113103
0.0234067
4.03936
0.0241163
0.0221393
0.0216878
0.750183
0.0207727
0.0307914
0.101368
0.0229565
0.188561
0.0232592
2.92881
0.152111
0.0207757
1.35904
0.0222351
0.0211544
0.0228264
0.0834384
0.0231531
0.14684
0.0245524
0.104617
0.0427712
0.0586976
0.0460282
2.14128
0.0214713
0.0215382
2.22859
2.53746
0.0352026
0.0235842
0.657815
0.200143
0.021673
0.0214468
0.0212251
0.544604
0.0207086
0.0219215
0.0340644
0.0634188
0.0207427
0.0206126
0.022204
4.21814
0.0209311
0.0245316
0.0208188
0.113626
0.0218565
0.166245
0.0218524
0.020648
0.0213426
0.0211156
0.0518253
0.0315608
1.13906
0.0213304
0.0291778
0.0207023
0.203486
0.14036
0.0488106
0.020799
0.0521183
0.0208895
0.0216013
0.623703
0.0210838
0.0238592
0.465215
0.0204992
0.102437
0.0207866
0.0208801
0.0215647
0.187819
0.0214597
4.19972
0.106174
0.0115645
0.0247508
0.0207077
0.395549
0.0608103
2.7409
0.033643
2.53456
0.164611
0.0215821
0.0334026
0.0217348
0.0264845
0.0215538
0.0229457
0.0212069
0.025982
0.0181384
4.25979
0.0244903
0.0232613
0.800859
0.396477
0.0212204
0.0214145
0.0667558
0.0371234
0.0211896
0.286801
0.0386002
0.0222951
0.0211941
0.022438
3.51757
0.0216355
0.0574707
0.0208775
0.854721
2.15804
0.0894201
0.0223456
0.0219084
0.021199
0.0213004
0.0214882
0.0241613
0.0224215
0.0215665
3.18472
0.0208381
0.0219338
0.0210682
0.0248069
3.84826
0.0212532
0.0213936
3.22781
0.0206723
4.35247
0.0215327
0.0213971
0.020906
0.0216909
0.0209076
0.0228052
0.0213309
0.170871
0.021802
0.060884
0.0213576
0.999061
0.0214264
0.0246795
1.69633
0.170787
0.021415
0.0214539
0.0298003
0.0207423
0.538969
0.211444
0.0226025
0.0207612
0.0212384
0.0211074
0.0166532
0.0248139
0.0403899
0.16934
0.0369489
0.0214352
0.0211878
0.0205227
0.626765
0.177317
0.0217896
0.0211424
0.0208211
0.0278135
0.0213833
1.95377
3.19804
0.030473
0.0209455
2.88135
0.117358
0.0214523
0.102104
0.0216932
0.829561
0.0338356
0.0338804
0.0256022
1.12474
0.0334775
2.02838
0.0213637
0.0205253
0.020699
0.0211219
0.0215169
0.0288449
0.021253
0.0257046
0.0208915
0.262923
0.0214065
0.0279779
2.45178
0.0221059
0.0206933
0.0266536
4.2782
0.0212742
0.020606
0.16397
4.25044
0.211194
0.021778
0.0209261
1.28571
0.115339
0.0236508
0.0526342
0.0214221
0.0300019
0.0215447
0.111781
0.020766
0.0215057
0.259642
0.0206619
0.0228047
0.707935
0.0592002
0.0206389
0.0213499
0.0207484
3.11876
0.024061
0.0264491
0.0214317
0.0207826
0.111178
0.0304109
0.0211679
0.0212974
0.0207818
0.0228296
0.020842
0.022841
0.174586
2.93178
0.0235384
0.0407706
0.0212444
0.0420158
0.0212094
0.0215781
0.0207629
0.243646
0.0367825
0.0211186
0.0227329
0.19476
0.0378475
3.80851
0.0502982
0.0213
0.020776
0.0264313
0.02252
4.08894
0.0212157
2.71381
4.18917
0.0209052
0.0392756
0.504382
0.0248955
1.83656
0.0936728
0.0217897
4.14997
0.0260039
0.0213269
2.32205
1.1428
0.0905365
0.0217302
0.289249
0.222761
0.0213447
0.158497
0.453514
0.0213852
0.0206956
0.0218451
0.0209447
0.0215572
0.671137
4.40465
0.0214324
0.02192
1.984
2.68342
0.0306502
0.468882
0.0210558
0.0219593
4.14972
0.0477273
2.67394
4.04385
0.0212582
0.0214665
0.0210549
0.0217319
4.11193
0.18639
0.0215302
0.0364333
3.85333
0.0254234
0.0503879
0.021142
0.0215001
0.0219709
0.230065
0.0222659
0.0366764
0.0296032
0.0220493
0.329037
0.0234355
0.406872
0.128532
3.57284
0.0212211
0.0212165
0.0226967
0.0328916
0.211675
0.209295
0.0218967
2.7928
4.19862
0.0304776
0.0324147