/*--------------------------------*- C++ -*----------------------------------*\
| =========                 |                                                 |
| \\      /  F ield         | OpenFOAM: The Open Source CFD Toolbox           |
|  \\    /   O peration     | Version:  v2012                                 |
|   \\  /    A nd           | Website:  www.openfoam.com                      |
|    \\/     M anipulation  |                                                 |
\*---------------------------------------------------------------------------*/
FoamFile
{
    version     2.0;
    format      ascii;
    class       volScalarField;
    location    "250";
    object      nut;
}
// * * * * * * * * * * * * * * * * * * * * * * * * * * * * * * * * * * * * * //

dimensions      [0 2 -1 0 0 0 0];


internalField   nonuniform List<scalar> 
18540
(
0.0213724
0.00672611
0.00633459
0.0177194
0.00193224
0.000874906
0.00135372
0.000459269
6.416e-05
0.00138992
0.000576429
0.00534607
0.0122541
0.00606339
0.0209652
9.74496e-05
9.31235e-05
0.000235637
0.000202447
0.0115882
8.77433e-05
0.000303042
0.00672338
0.00278616
0.000424716
0.000254143
0.000649147
0.000547313
0.000792826
0.00955511
0.00672597
0.00672767
0.000801593
0.0228171
0.000479282
0.0165572
0.000287288
0.00672553
0.006773
5.51178e-05
0.00672555
0.006725
0.0014137
0.0231662
0.000510869
0.000362303
0.000159447
0.00674529
0.000174354
0.000606507
0.00572737
6.72206e-05
0.0140346
0.00672515
0.000401599
0.000843416
0.0110962
0.0107593
0.00270943
0.00680748
0.00250208
0.00083843
0.000552403
0.000141699
0.0181307
0.00574432
8.66167e-05
0.00672244
0.00205073
0.00677038
0.000851704
0.000187206
0.000867398
0.0109226
0.000714226
0.000129611
0.000162657
0.00672151
0.000314207
0.000149436
0.000799909
0.00773158
0.00672474
0.000555519
0.00315845
0.019132
0.00303947
0.00672377
0.000628084
0.0187625
0.00027277
0.000302356
0.000150396
0.00675672
0.00121664
0.00191158
0.000797105
0.000552683
4.59033e-05
0.00186265
0.00290304
0.00672722
0.000132708
0.000160283
0.00344871
0.000518958
0.00275885
0.00505475
0.000508049
0.000686205
0.000339188
0.00509755
0.00672172
0.000669147
0.0127284
0.000252479
0.000216076
0.00056965
0.000631094
0.00102821
0.000220596
0.00805421
0.00250662
0.0118293
0.00672285
0.000881807
0.000824078
0.000212511
0.000847761
0.000104319
0.000309111
0.000285263
0.000471653
0.0208806
0.0067439
0.00672391
0.000638907
0.000441265
0.00114936
0.0058075
0.0184716
0.000575178
0.000646151
0.00270917
0.00676897
0.00673997
0.000779669
0.0177985
0.000771389
0.00854494
0.00673228
0.00108605
0.00675661
0.0134817
2.55322e-05
5.47125e-05
0.00907483
0.00676812
0.00572514
0.00457046
0.000507615
0.000619192
0.0067261
0.00674216
2.93257e-05
0.00551164
0.0195026
0.000181468
0.0216604
0.00295679
0.006724
0.000993488
0.000977906
0.000865317
0.00170635
0.0114809
0.00091098
0.0196228
2.29078e-05
7.02767e-05
0.00112936
0.000173284
0.000620358
0.000487988
0.000475549
0.00328807
0.00168452
0.0012831
0.000315168
0.000342585
0.000719283
0.000626331
0.000484511
0.00672263
7.54675e-05
0.00658501
0.000614183
0.000338533
0.000514545
0.000521572
0.000265687
0.000394921
0.000188686
0.000729221
0.0219992
0.00740006
0.00427521
0.0161252
0.0164438
0.000622299
0.0067266
0.00499261
0.0187894
0.00672501
0.000266034
0.00046819
0.0117873
9.53063e-05
0.00158868
0.0126367
0.00381198
0.000186392
0.0136483
6.58232e-05
0.000171164
7.24908e-06
0.000635205
0.000737829
0.00297183
0.000572581
0.000651242
0.000753162
0.000660298
0.000988921
0.00672587
0.00113607
0.00672646
0.000192681
0.000487538
0.000198191
3.29351e-05
0.000124612
0.000220641
0.000745055
0.0209422
0.0146063
0.00672555
0.00674081
0.000796868
0.00207484
0.000196052
0.0159504
0.00263136
0.00101794
0.000348403
0.000127183
0.000512006
2.90086e-05
0.00666274
0.00769601
0.000119961
0.0220351
0.00168686
0.000178053
0.00206079
0.000803713
0.011425
0.0118426
0.0067253
0.0067249
0.00141651
0.00443878
0.000466445
0.00162511
0.000574218
0.0243829
0.00675439
0.000455364
0.00035406
0.0067417
0.0067269
0.0252846
0.00107585
0.00672609
3.36668e-05
0.00677422
3.09905e-05
0.000619837
0.0173146
0.00113054
0.013309
0.0105023
0.000267772
0.00672474
0.00857886
0.000459525
0.000544196
0.000374345
0.00673302
6.4045e-05
0.00236866
0.0026957
9.96844e-05
0.000101891
9.17787e-05
0.00672635
4.46923e-05
0.00673204
4.42725e-05
0.00672705
0.00525996
0.00246125
0.0233213
0.000715674
0.000328102
3.65865e-05
0.0225464
0.00672933
0.011656
0.00515661
0.0041445
3.21628e-05
0.00194891
0.00147958
0.000977832
0.00442044
0.000595475
0.000649995
0.00672956
0.00672923
0.0067414
0.000441706
4.75395e-05
0.000265996
0.000321036
6.80245e-05
0.00318461
0.00672552
0.00344927
0.000111678
0.000618747
0.000758235
0.00151351
6.96592e-05
0.000441995
6.17951e-05
0.00646454
0.000214422
0.00126867
2.07168e-06
2.1382e-05
0.00672548
0.00777508
0.00186666
0.00672684
0.0110933
0.00672509
0.00675699
0.00372855
0.00787686
0.000595292
0.00674121
0.00672634
0.000482346
0.0127017
0.000218225
0.00679255
0.0067253
0.00288919
0.006723
0.0168195
0.0067364
0.000291109
0.000540521
0.00672544
0.000303004
0.00672612
0.00240875
0.00124445
0.000661756
0.00636701
0.00673116
0.000150422
0.000608632
0.000343692
0.00674021
4.23124e-05
0.0101896
0.00672371
0.00266478
0.0110008
0.00673089
0.000549477
0.00340136
0.0164853
0.00672566
0.0141827
0.0166703
0.00672387
2.97174e-05
0.00226403
0.0189839
0.00127098
0.00672507
0.000792558
0.00676039
0.0198538
0.00137652
0.00229055
0.000493064
0.0015644
0.00398043
0.000169167
0.00673993
0.000591536
6.36133e-05
0.00672552
0.000812847
0.000197915
3.05222e-05
2.64671e-05
0.0194914
0.00672318
3.20207e-05
0.00673015
0.000590696
0.0067304
1.44936e-05
0.000532539
0.000248675
0.00672874
0.0223818
0.000681596
0.0110897
0.000933207
3.88903e-06
0.00672355
0.00673407
0.00893721
0.00525627
4.59888e-05
0.000505145
8.32138e-05
0.00709327
0.00537328
0.00358068
0.00281487
0.00539817
0.00551785
0.00677993
0.00982378
0.0143684
0.0067319
0.00673821
0.00443362
0.00271097
0.000709847
0.00647144
0.00307051
0.000291
0.00138307
0.00212304
0.000588567
0.000566339
0.00672434
0.000234751
0.0101163
0.0011158
0.000773889
0.000693071
1.72299e-05
9.06267e-05
0.0066776
0.0079971
3.17444e-05
0.00676044
0.0218668
0.00672007
0.00476344
0.00674867
0.000476785
0.00675161
0.0123568
0.00192667
0.00113772
0.000453257
0.0005912
0.00534997
0.00494883
0.00153041
2.38481e-05
0.000556564
6.15093e-05
0.00191435
0.00610732
3.39536e-05
0.000492149
0.0219292
0.000600224
0.000651115
2.99407e-05
0.000115225
0.00679692
6.69794e-05
0.00672612
0.000975523
6.09866e-05
0.00291065
5.20009e-05
0.0204301
0.00463259
0.00256429
0.00672522
0.000403414
0.0190456
0.000688281
0.00102506
0.00672448
0.00783468
0.00672235
0.000428942
0.0067258
0.000133742
0.00828148
0.000611128
0.00675779
0.0067251
0.0159852
0.00672411
0.00311265
0.00889372
0.000100039
0.000113502
0.00672365
0.00672544
0.0024901
0.016871
7.36804e-05
0.000312264
0.0039558
0.00672494
0.000270497
0.00026714
0.000249095
0.00120462
0.00675627
0.00776493
0.0139527
0.000698821
0.000759722
0.000283856
0.00673936
0.00113133
0.0128838
0.0067499
0.000750725
0.000610501
0.00580759
0.0104362
0.00674527
0.000938839
0.000555361
0.0067313
0.000564893
0.0015974
0.0171845
0.00673819
8.41278e-05
0.000458976
0.000249898
0.00675663
0.00672617
7.4199e-05
0.00281684
2.42917e-05
0.00827613
0.00596998
0.000564185
0.00457068
0.00557935
0.000288449
0.00672493
0.00901198
0.00949888
0.00782626
0.000291985
0.00469899
0.00528476
0.00132775
0.000620539
0.000862678
0.00673553
0.00672554
0.00190979
0.00208775
0.00635635
0.00460974
0.00161459
0.00168553
0.00677365
0.00740702
0.000538875
0.00438352
0.000126705
0.00436128
0.000318486
0.000672292
0.00672491
0.00672476
0.000456453
0.00138552
0.00595622
0.00401298
0.00251322
0.00371998
0.00798113
0.0024783
0.00672608
0.0203822
0.00390592
0.016701
0.00870769
0.00678003
0.00937924
0.000117737
0.00612604
0.000264
0.00157578
3.19825e-05
0.00694668
0.000946733
0.0169792
0.00519231
0.0148581
0.00672538
0.00298037
0.000615659
0.000428215
0.00675675
0.00110896
0.0176014
0.018361
0.00264222
0.000644879
0.00268226
3.22356e-05
0.000972817
0.00031504
0.00672436
0.000751762
0.018185
0.0067264
0.00672464
0.00481264
0.000192697
0.0178036
0.00559391
0.000502403
0.00440418
0.00899584
0.00672573
0.0109417
3.51586e-05
0.00125678
0.0105787
0.000241535
0.00247076
0.0226647
0.0182954
0.000136814
0.000683794
2.2961e-05
0.013178
6.40568e-05
0.00157885
0.00134352
0.00571245
0.0103387
0.00326836
0.002839
0.0017724
0.00655792
0.00991872
0.000992205
0.0010676
0.000736428
0.0178186
0.000466688
0.00139465
0.000895777
0.00679658
0.000529814
2.9962e-05
0.0105198
0.000742591
0.0158605
0.00673735
0.000221057
0.00164109
0.00201549
0.000175743
0.00676924
0.00184494
0.00241276
0.00673519
0.00673221
3.38512e-05
0.000656305
8.73271e-05
0.00324145
0.0067825
0.00292433
0.0083597
0.00638898
0.0187479
0.00672654
0.00672476
0.000226815
0.00672644
0.000113139
0.000685438
0.00059798
0.00672584
0.00672419
0.000253429
0.00030844
0.000143386
0.00672517
0.00672625
0.000382736
7.43845e-05
0.000672004
0.0010652
0.000232498
0.0100083
0.00672496
0.00673578
0.0108449
0.000312521
0.000543067
0.00673521
0.000349611
6.57629e-05
0.000568704
0.000762614
0.000713295
0.0112131
0.00424322
0.00253291
0.00102412
0.00705227
0.00672838
0.0067238
0.00677039
0.00672549
0.000350451
0.00139862
0.000194962
0.00672978
0.00276211
0.00557837
0.00672457
0.00673615
0.00673621
3.53342e-05
0.00044888
0.00674047
0.000280398
0.000325589
0.000646869
0.000272277
8.66937e-05
0.000429023
0.00013238
0.00097904
0.000311333
0.00672394
0.000208135
0.000144798
0.00672581
0.000357421
0.0208038
0.00356186
0.00022746
0.00026709
0.000155009
0.00181446
0.000738588
0.00040878
0.000151167
0.000738857
0.000687166
0.000958617
0.00672735
0.00126314
0.0176879
0.000987021
0.000370959
3.79956e-05
0.000608718
0.00104531
0.00103477
0.0177915
0.000701469
0.00200165
0.00256073
0.00224882
0.00673477
3.19874e-05
0.00672447
0.000549152
0.00672758
0.000503624
0.00259161
0.00414832
0.00130904
0.00687738
0.00673753
0.00192435
0.00485946
0.0194232
0.00672601
0.00186085
0.00179847
0.0196897
0.000429896
0.000158582
0.000334004
0.000141713
0.00675837
0.000705092
0.0234198
0.000319757
0.00203785
2.7067e-05
0.000754514
0.000117898
0.00734945
0.00582484
0.00388208
0.00414615
0.00290119
0.000492589
0.00672955
0.00673426
0.00675661
0.000601521
0.00054347
0.00177569
7.01191e-05
0.0036207
0.00190272
0.000463334
2.74255e-05
0.00143175
0.00673856
0.0174414
0.00672494
0.0012335
0.0170458
0.000320453
0.00194057
0.00652934
0.000551769
0.00177023
0.0016836
0.00673035
0.0024559
0.000471851
0.000100359
0.00646199
0.00179285
0.00153933
0.000230157
0.011403
0.00672326
8.07203e-05
3.98015e-05
0.00125941
0.00405028
0.00672509
0.000486528
0.00228923
0.0116174
0.000485007
0.0067249
0.00246133
0.00158192
0.000552445
0.0175264
0.00672252
0.00191309
0.00285952
0.000607503
2.55755e-05
0.00672666
0.00256523
0.000370336
0.0180319
0.000636186
0.00903057
0.00672507
0.00672676
0.000443092
0.00672574
7.34828e-05
0.0202937
0.0019964
0.0204311
0.0226193
0.00672512
0.00577562
0.004891
0.000565354
0.000198679
0.000421183
0.0103423
0.00672627
0.0107297
0.000284362
0.0175993
4.77086e-05
0.00215489
0.0100747
0.0054404
0.0203897
0.01072
0.00672695
0.00675429
0.00125932
0.000213553
0.0189444
0.00154475
0.00495879
0.000598121
0.0067227
0.00134059
0.000682942
0.00672282
0.0191729
0.00092446
0.000624394
3.88784e-05
0.000122268
0.00675066
0.00520127
0.000178054
0.0193754
0.000747701
0.000180616
0.00942806
0.0156139
0.00178848
0.00868
0.00506252
0.00102859
0.00672623
0.00582198
0.00746934
0.00739598
0.00310764
0.00622433
0.00673066
0.000529476
0.00672908
0.0157799
0.00673703
0.00197903
0.0016018
0.00022945
0.00673731
0.00673541
0.00214164
0.00890635
0.00672874
0.00672944
0.00541608
0.0067257
0.00022456
0.00093814
0.00411668
0.00826058
0.00483968
0.00675438
0.0042697
0.00846337
0.000836918
0.0173344
0.0172994
0.000198696
0.00472884
0.00212481
0.0228102
0.00335516
0.000927337
0.00928346
0.00081099
0.0109904
0.0067401
0.00820916
0.000852413
9.9648e-05
0.00672173
0.00211359
0.00355663
0.000972246
0.0088241
0.00672576
0.00963461
0.00114562
0.000678434
3.16084e-05
0.00929658
0.000613759
1.72992e-05
3.52258e-05
0.0013843
3.89145e-05
0.0130585
0.00135296
0.00850486
0.000159216
0.00114453
0.00204421
0.000216568
0.00541526
0.00552086
0.0200412
0.0186193
0.00672499
0.0200831
0.00672583
0.000114794
0.00201839
0.00347095
0.00519259
0.0033038
0.00672688
0.000954081
0.00672483
0.00673839
0.000390687
0.00171283
0.00313305
0.00049281
0.00674703
0.00672519
0.00111138
0.000365117
0.0111216
0.00301777
0.00061724
0.000748656
2.97433e-05
0.00089553
0.00673523
0.000635397
0.00674221
0.000463396
0.00369422
0.00673058
0.0067707
0.000894473
0.0107857
0.0187158
0.000583711
0.000183302
0.00672304
0.000243921
0.0222804
0.00474876
0.00418939
0.000543489
0.0120499
0.00106697
0.000907615
0.000953835
0.000160831
4.63712e-05
0.022026
5.76768e-05
0.000828444
0.00305904
0.00673714
0.00124096
0.0031688
7.68746e-05
0.00326614
4.3644e-05
0.0192307
0.00281526
0.000906659
0.016326
0.0206992
0.000386038
0.000280803
0.000450437
0.00674578
0.0160039
0.00676866
0.000104015
0.000871927
0.00673455
0.00150675
0.0129572
0.000288173
0.00158996
0.000833216
0.0214281
0.0102968
0.000232858
0.0067283
0.00314565
0.000492919
0.000271492
0.0148037
0.00672484
0.00151997
0.00213758
0.00523745
5.39676e-05
0.00672329
0.00258185
0.0189891
0.00857821
9.88221e-05
0.0019107
0.00672615
0.0183746
0.000132273
0.0067242
0.000455301
0.00454293
0.000777852
0.00672636
0.0174374
0.00669207
0.000599238
0.0236141
0.00322975
0.000120551
0.000698772
0.0107218
0.000821653
0.00673776
0.000175544
0.00672663
0.00417383
0.000573698
0.000428827
0.00674379
0.000282298
0.00673577
0.00672585
0.00271348
0.00106499
0.00178493
0.00367301
0.000102477
0.000156944
0.00057697
0.00604114
0.000214875
0.000172822
0.00068349
0.00672571
0.000220032
0.00672454
0.00672756
0.00672612
0.00673208
0.0052232
6.50714e-05
0.00672619
0.00672626
0.0111282
0.006044
0.000746354
0.0053341
0.00673991
0.00574294
0.00344719
0.0231003
0.00352443
0.000988709
0.0154665
2.43731e-05
0.000553145
0.00672513
0.00672568
6.74931e-05
0.00672639
0.00672686
1.8319e-05
0.00672601
0.00281509
7.4473e-05
0.000193813
0.00513669
0.00171635
0.00103172
0.000607574
0.0162883
0.00672462
0.00403678
4.60306e-05
0.00600338
0.000302828
0.000255858
0.000140513
0.000744709
0.00414499
0.00661312
0.000292308
0.00575102
0.00755953
0.00676984
0.00198094
0.00107579
0.0104644
0.00672901
0.00672526
0.00578139
0.000671959
0.00673103
0.00558923
0.0190627
0.00368798
0.00212458
0.0172748
5.73326e-05
8.2261e-05
0.00625759
0.00676123
0.00141516
0.0117662
4.46197e-05
0.0067263
0.00380376
0.00672501
0.000517546
0.00253058
0.0174446
0.000621578
0.012115
0.000222692
0.00109257
3.47501e-05
0.00673809
0.0035591
0.00173366
0.000268536
2.36727e-05
0.000625671
0.00239337
0.000595335
0.00672471
0.0186183
0.000706287
0.0159887
0.0143354
0.00673099
5.27435e-05
0.00120147
0.00433504
0.00449416
0.0067254
0.000542467
0.00674248
0.000207781
0.00029688
0.000354644
0.0055529
0.000495241
0.00178973
0.0067355
0.0150641
0.00672443
0.000600811
0.00673092
0.00672509
3.92099e-05
0.0129235
0.00674438
6.17261e-05
0.0067284
0.00343568
0.00147283
0.00493725
0.000123217
0.000658319
0.0146058
0.00209243
0.00645404
0.0227505
0.00199765
0.000802158
0.00843039
0.0063444
0.00674261
0.000258944
0.00189277
0.000590188
0.00358071
0.00672215
0.000177407
3.48454e-05
0.000828646
0.00672623
0.011192
0.00987627
0.0076285
0.000486703
0.000807279
6.70393e-05
0.00673898
1.96261e-05
0.00086186
0.00673921
0.00638742
0.00703117
0.000187964
0.00672457
0.00022098
0.00672527
0.00673546
0.0183063
0.00100928
0.00104186
0.00460066
0.00673566
0.0192148
0.0123471
0.00692872
0.000304054
0.00365824
0.00222649
0.00764974
0.00382
0.00674157
3.59035e-05
0.00621661
0.00045239
0.00861593
0.00100567
0.0208944
0.00331025
0.00672452
0.0124106
0.00236
0.00672448
0.0183508
0.0178767
0.000339124
0.000287797
5.62927e-05
0.00237635
0.00152789
0.000371501
3.39598e-05
0.00116872
0.00672597
0.00102266
0.0172268
0.00673662
0.0117538
7.47188e-05
0.0037771
0.000628134
0.0119446
0.00673454
0.00365845
0.0181798
0.000103153
0.0116568
0.00194234
0.00673751
0.00672523
0.00672222
0.00168808
0.00180773
0.00111354
0.00262627
0.000225628
0.00674349
0.0170712
0.00677521
0.000276369
6.26902e-05
0.000915211
0.00129024
0.00511345
0.00117361
0.00202818
0.000711478
0.0170131
0.000220818
0.00253091
0.00673241
0.000358055
0.000762786
0.00449834
0.022621
0.0067267
0.000570523
0.0083862
0.00077254
0.000266908
0.000267933
0.00213121
0.00675028
0.0105428
0.0106981
0.0126539
0.00673401
0.00672645
0.0036044
3.97346e-05
3.27943e-05
0.00672866
0.00673544
0.00123672
0.00279901
0.000141896
0.000503934
0.000127754
0.000674652
0.000315854
0.000429822
0.00537403
0.00672444
7.8458e-05
0.00102388
0.00435804
0.00674752
0.000101617
0.0090809
0.00684679
0.00642146
0.00024321
0.00673221
0.00673978
0.000516654
6.56329e-05
0.000201692
0.0102095
0.000203459
0.00182334
0.00420385
0.0179883
9.82398e-05
0.00369767
0.000365207
0.00214679
0.00672512
0.00540094
0.000510989
0.00210914
0.000100805
0.00601606
0.0169425
0.000201933
0.00674038
0.00672888
0.00033481
0.00278326
0.00312074
0.0067235
0.000572802
4.60794e-05
7.61191e-05
0.00244523
0.00672507
0.00273255
0.0125428
0.00672461
0.000292112
0.00672543
0.000730472
0.0067254
0.0044535
0.00142474
0.00858321
0.00234138
0.00121482
0.000283968
7.80224e-05
0.018633
0.0191463
0.000224143
3.44867e-05
0.003719
0.00478613
0.000644639
0.00489121
0.0001801
0.0210721
0.00326942
0.0106977
0.0131725
0.00182243
0.000185826
0.00253818
0.0147315
0.000292158
7.235e-05
0.0234289
0.000525582
0.000435199
0.0163776
0.000889858
0.00392247
0.00672383
0.00194684
0.00111895
0.000396362
0.000150519
3.2041e-05
0.00898939
2.60556e-05
0.0108821
0.000121539
0.00645335
0.0166516
0.00598131
0.000130572
0.00124569
0.00943362
0.00610439
0.000316964
0.00218879
0.0178264
0.0015628
0.0012161
0.00672544
0.00457346
0.00672345
6.08172e-05
0.000635388
0.00214723
0.0168746
0.000338001
9.61229e-05
0.00148113
0.00673756
0.0216482
0.0114057
0.00672574
0.00323568
0.000831555
7.8888e-05
0.00383962
0.00672498
0.00672611
0.000338697
0.000159367
0.00159041
0.00672604
0.00561836
0.00403359
0.00706876
0.000379246
0.0112128
0.000914352
0.00191963
0.002988
0.0131071
0.00672341
0.00344124
0.000337682
0.000169537
0.00333929
0.000191317
0.00145493
0.00267246
3.28554e-05
5.4723e-05
0.00179826
0.00074923
0.0189422
0.00673362
0.00121359
0.0125888
0.00672765
0.000171981
0.000899383
0.00672826
0.000831294
0.00917017
0.00672656
0.000167608
0.00370474
0.00150115
0.00615144
0.0169958
0.00672753
0.019566
0.00062623
0.00675423
0.000222035
0.000496415
0.00672847
8.95457e-05
0.0100181
0.00672513
0.00082706
0.0224867
7.72342e-05
0.00726579
0.00481513
0.00375591
0.00112669
0.000733064
7.69643e-05
0.00672324
4.26599e-05
7.67086e-05
0.00293087
0.00674928
0.00674925
0.00386255
0.00672431
0.000221541
0.00111121
0.00111338
0.000548545
0.000444489
0.0170456
0.0226503
0.00338345
0.00334373
2.8118e-05
0.0163553
0.0129816
0.000675937
0.00672506
0.000884294
0.000100066
0.0108213
9.17291e-05
0.00393721
4.58567e-05
3.89757e-05
0.00097794
0.000191088
0.00424938
0.000291603
2.55959e-05
0.00620678
0.00678306
0.006726
0.00616693
0.000324518
0.00402862
0.000105535
0.000605424
0.00317538
0.00555828
0.00673186
0.0067293
0.00538944
0.00673417
0.000135365
0.00140483
0.00380262
0.000154667
0.000319514
0.0189186
0.0065352
0.00284834
0.00673284
0.0154409
0.00221378
0.00164868
0.000643143
0.000355119
0.00014789
0.000121506
0.00251556
0.00187041
0.00285608
0.000599963
0.000159745
0.00122188
0.0199321
0.00178841
0.000764298
0.00297041
0.017688
4.67264e-05
0.00309998
0.00673464
0.00170437
0.0067254
0.00155751
0.000653966
0.00218326
0.00301329
0.00672305
0.00602861
0.00139262
0.0195185
0.00325425
0.00812474
0.000930054
0.000186152
0.000261541
0.000495504
0.00020213
0.00195675
0.000519668
0.0120586
0.000470522
0.000383596
0.00482772
8.62854e-05
0.000184208
0.000371338
0.000699224
5.50743e-05
0.018842
0.00672785
0.0193279
0.000517157
0.00531804
0.0197537
0.000649419
0.000143503
0.00987115
0.000245526
0.000506551
0.000650301
0.000435391
0.000878877
7.46112e-05
0.00672672
0.00317252
0.0002295
0.00577517
0.000260369
0.0048514
0.000312015
0.00673549
0.00901071
0.0193309
2.62896e-05
0.00222693
0.000597787
0.000165707
0.000208393
0.00329089
0.00225181
0.00138735
0.00131084
0.00678165
3.03115e-05
9.20774e-05
0.00672683
0.000150541
0.00235054
0.0136328
4.4993e-05
0.00315882
0.000995718
0.000151129
0.00347996
0.000223589
0.000405523
0.0081958
0.000125302
0.00677986
0.00672613
0.0122518
0.0192932
0.00674812
0.0113162
0.00645323
0.00677832
0.000175257
0.0102896
0.00049024
0.00494922
0.00674652
0.00345254
0.00468073
0.00674889
0.00674935
7.2185e-05
0.00340208
0.0170578
0.00120004
0.00108729
0.00377906
0.00672678
0.00394044
0.000659509
0.00103557
0.0124905
0.00985597
0.000645508
0.0172892
0.00220349
0.0101919
0.0182924
0.00424131
0.000798324
0.000280058
0.0131379
0.00663825
0.00675385
0.0067573
0.000365602
0.00232895
0.000424005
0.00672305
0.0067266
0.00674203
0.00382831
0.00777792
0.00121073
0.000153793
0.000374127
0.00346094
3.36357e-05
0.00676266
0.000511581
0.00146933
0.00890496
4.95905e-05
0.000874754
0.00855032
0.0192216
0.00624094
0.00108876
6.51846e-05
0.00672208
0.00673344
0.00289402
7.15807e-05
0.00672634
0.00673265
0.0102919
0.00818162
0.0067246
0.000135101
0.000431963
0.0122784
0.00672627
0.001254
0.00030924
0.00790502
0.00770773
0.0125191
4.15134e-05
0.00257716
0.00382413
0.00672636
0.00689585
3.42862e-05
0.00672689
0.000490975
0.00776742
0.0180143
4.7042e-05
0.00567788
0.00121224
0.0105568
0.00324252
0.000333201
0.0193097
0.00061337
0.00209811
0.00672632
0.0114456
0.00672615
2.51897e-05
0.000272683
8.33942e-05
0.00204113
0.000566672
0.0180294
0.00676613
0.00673772
0.000364362
0.00672621
0.0188007
0.00172887
4.09377e-05
2.58715e-05
0.000190511
0.000394302
0.00674197
9.48502e-05
0.00672771
0.000279938
0.00619974
0.000912184
0.00015189
0.00403001
0.00230536
0.00672625
0.00136406
0.0138803
5.16662e-05
0.00681203
0.0119164
0.00848432
0.00614429
0.0094858
0.00672428
0.00729473
0.00672168
0.00672228
0.00086594
0.000123809
0.000373158
0.000942759
0.000160162
0.00465161
3.2337e-05
0.000347308
0.00106445
0.00959369
0.00497061
0.00147211
0.000250487
0.0208261
5.824e-05
2.40076e-05
3.33888e-05
0.000679322
0.00484445
0.00206461
0.0118074
0.00672608
0.00672495
0.000509161
0.0026378
0.004776
0.00935754
0.00672669
0.00492161
0.020404
0.00120522
0.000237989
0.0192379
0.0067053
0.000250481
0.000100388
0.00680886
4.72487e-05
0.000628927
0.00673449
0.00186974
0.000148644
0.00672223
0.00173462
0.000346155
0.00435442
0.00673929
0.00067604
0.000574876
0.000354231
0.000181733
0.000330193
0.000891289
0.000488896
0.00201894
0.00801187
0.0185184
0.00672523
0.000288421
9.19878e-05
0.000105309
0.00618468
5.2265e-05
0.00236
0.000554333
0.001476
0.00212552
0.00672565
0.000545032
0.022071
0.00672627
0.00511856
0.00217999
0.00672459
9.8292e-05
0.00672891
0.000802522
0.000109754
0.00617059
0.000389291
0.00218746
0.00232807
0.000844115
5.72465e-05
0.000449735
0.00535136
0.00674531
0.00674939
0.000249093
0.0067235
0.00672949
3.05196e-05
0.0188376
0.0067333
0.00403262
7.27977e-05
0.0067241
0.00676651
0.00672135
0.00414483
0.000678251
0.017843
0.000205651
0.0123619
0.00118338
0.00122329
3.98212e-05
0.00672447
0.00117704
0.000806624
0.0190891
0.0145715
0.00100048
0.0010638
0.00677761
0.000838901
0.0182187
0.00672585
0.000459301
0.00672799
0.00672498
0.00575928
0.0206018
0.00559677
0.00672313
0.00672598
0.0207986
0.0164359
0.000763272
0.00672557
0.000802463
9.49336e-05
0.0165183
0.0217412
0.00672534
0.00447081
0.00672564
0.000421482
0.00646783
0.000416018
4.69055e-05
0.000853471
0.000594161
0.00327692
0.00672537
4.68098e-05
0.00672384
0.00959417
0.00472925
0.00672651
8.37647e-05
0.0024224
0.000223485
0.00134944
0.00675742
0.010649
0.00673341
0.000883676
0.00672855
0.00192907
0.00672183
4.09517e-05
0.00674713
0.00534526
0.00672655
0.000619826
0.00450419
0.00335491
0.00383953
0.000585805
0.0192185
0.00655554
0.000571068
0.0114442
0.00044098
0.000332657
0.000385999
0.00815925
0.0168736
0.00672822
0.00676464
0.00672528
0.00492021
0.0101306
5.35287e-05
0.00952961
0.00359263
0.000572424
0.0192442
0.000157058
0.000604016
0.00209149
1.0702e-05
0.00117747
0.000322186
0.000328135
0.000568454
0.0007161
0.00464664
0.00146614
0.00217853
0.00682668
0.00673229
0.00608535
0.000117909
0.00672467
0.006726
0.00146032
0.00301188
0.00672515
0.00194445
0.00747256
0.000497663
0.0119814
7.33854e-05
4.22592e-05
0.00673489
0.0012452
5.80316e-05
4.64153e-05
2.31959e-05
0.000458693
0.00012722
0.000177092
0.00676958
5.84406e-05
0.00672499
9.55864e-06
0.00673312
0.00673218
0.000460209
0.000184472
0.00266924
0.000288683
8.60456e-05
0.000756721
0.00513873
0.00672623
0.000533722
9.8378e-05
0.0067262
3.75623e-05
0.0170108
0.013059
0.000303751
0.00480323
0.000914363
0.015348
0.000254792
0.0170784
0.0112877
0.00182131
2.97926e-05
0.00672566
0.00774519
0.00438692
0.0172965
0.0183562
0.000695632
0.0130304
0.0124678
0.00109024
0.00676217
0.000644706
0.00673723
0.0112441
0.00866137
0.000591308
0.000301213
0.0067263
0.00168173
0.00145327
0.00921148
0.00856326
0.000519606
0.000565299
0.0217446
5.57175e-05
0.000582258
0.000386116
0.000128121
3.46433e-05
0.00609939
0.000209078
0.00672587
0.00677398
0.00739441
0.0163701
0.000494855
0.000127004
0.000605717
0.00148943
0.00676705
0.00565215
0.0002686
2.84492e-05
0.000173862
5.05176e-05
0.0067333
0.00304995
0.00528904
0.00428968
0.00200818
0.00353256
0.000675525
0.000160785
0.000117412
0.000335083
0.0003164
0.000523908
5.22132e-05
0.00674506
4.29867e-05
0.0214106
0.000838983
4.04006e-05
0.00672676
0.00818016
0.0101462
0.00673346
0.00319532
0.000534123
0.0159598
0.000125128
0.0048691
0.000189488
0.000784138
0.000517257
0.0114417
0.00165831
6.10348e-05
0.0016018
0.000645646
0.00324039
0.00510436
0.0166364
0.00401459
0.00396578
0.00105865
0.00672395
0.000797183
0.00672229
0.00611568
0.0135576
0.00672242
0.00128781
0.00677169
0.0216767
0.00492367
0.0067333
0.00672568
0.00644078
0.000626647
0.00602228
7.12812e-05
0.00101182
0.000952389
0.000242092
9.82153e-05
0.00677369
0.000444661
0.000538036
0.0116046
0.0117043
0.000317624
0.00160916
0.0135331
0.000850974
0.0194806
0.00675172
0.00672791
0.00673305
3.80878e-05
0.000796315
0.00101156
0.000722233
0.000133066
0.00672527
0.000196315
0.0202401
0.0188097
0.0067261
0.000551859
3.43703e-05
0.00673007
0.0182391
0.0179071
0.004358
0.0145837
0.00469
0.00673368
0.00549221
0.00672237
4.6205e-05
0.0118999
0.0191156
0.000364932
0.0067355
0.000392648
0.00313529
0.001473
5.95269e-05
0.0155637
0.00154928
0.00817437
0.013765
0.00784586
0.000455293
0.0221476
0.000162645
0.0196358
0.00672601
5.349e-05
0.0071816
0.00110916
0.00107872
9.4313e-05
0.00534817
0.000605529
0.00743158
3.41032e-05
0.0011031
0.00674213
0.000712656
0.0143499
0.000371365
0.00212519
0.0134978
8.29308e-05
0.0033933
0.00252883
0.017357
0.00376897
0.000745614
0.000330856
0.000333063
0.0194142
0.000880653
0.0126875
0.00672434
0.0154489
0.00557453
0.0067254
0.000599842
0.00336945
0.000121149
0.000456274
0.00674448
0.000437366
0.00959121
0.00049483
0.00185024
0.00351653
0.000320884
0.00672161
0.00673238
0.000242923
0.00673069
0.000143383
0.000570334
0.000773579
0.00178266
0.000399452
0.0127026
0.0202127
0.00673184
0.0116077
0.00025584
0.00470529
0.000220197
0.000472766
0.0125805
0.00353327
0.00119996
3.55005e-05
0.00673189
0.0067239
0.000584633
0.00279784
8.26202e-05
0.00946053
0.000522964
0.00166352
0.0103224
0.00672443
0.00777611
0.0171365
0.00173569
0.0203173
0.0111506
0.00672187
5.6943e-05
0.000566019
0.00123612
0.000384762
0.000773728
0.00672762
4.03197e-05
0.00238622
0.00825749
0.00091455
0.0138706
0.000772355
0.000415735
0.000184562
0.00700848
0.00672652
0.000272879
6.96484e-05
2.60963e-05
0.000382854
0.0084998
0.000351987
7.36082e-05
0.0206407
0.00324559
0.00936773
0.0003382
0.00672533
0.0067243
0.00672407
0.000237803
0.0208772
0.000676357
0.0135031
0.010254
0.00297253
0.00064846
0.00672431
7.07681e-05
0.00679047
0.00961805
0.00672599
0.00094457
0.0165098
0.00156252
1.92963e-05
0.000139791
0.0026134
0.00740393
2.9003e-05
0.00116165
0.0204
0.000449887
0.0058377
3.73255e-05
0.000147326
0.000239704
0.0212205
0.00108826
0.00197292
0.00672523
0.000381853
0.0104872
0.0031363
0.00238861
0.0179826
0.0196474
0.00673223
3.72265e-05
0.0111852
0.000305505
0.000707614
0.00519696
0.0246575
0.00143102
0.0194859
0.00452147
0.00672447
0.0178821
0.00198859
0.00432983
0.00639906
0.00673125
0.00672962
0.000843219
0.000105481
0.00672517
0.00633988
0.00866846
0.00399629
0.0108434
0.00119383
0.000374681
0.00134239
0.00290394
0.00159736
0.00126886
0.00148778
6.21492e-05
0.000596653
0.00484313
0.000417201
0.0020154
0.00675893
0.0172857
1.91887e-05
3.6331e-05
0.00035203
0.000418304
0.000156204
5.98387e-05
0.000194363
0.00672199
0.0115836
4.4323e-05
0.0108697
0.00672491
0.000285027
0.000204939
0.00232888
0.000609758
0.000400474
0.000641176
0.00672603
0.0166538
0.000138705
0.000482146
0.00133836
0.0154089
0.000861893
0.000358212
0.000457925
0.0173708
0.00672637
0.0093508
0.00671428
0.000229927
0.000731488
0.000693184
0.000808445
0.00674189
0.00254739
0.0102411
0.00533523
0.00139963
0.00775498
0.0100544
0.0177157
3.86491e-05
0.00336915
0.00203972
0.0172051
0.000103873
0.00060682
0.000542414
0.00111659
0.00020779
0.0067232
0.000480468
0.0089473
6.6071e-05
0.00986719
2.43952e-05
0.00402923
0.000237479
0.00141617
0.0195375
0.00672893
0.0067281
0.017732
0.000255427
0.000674046
0.00673188
0.00907917
0.000573911
0.0202726
0.00244012
6.12091e-05
0.000305651
0.00482567
0.0191872
0.00672477
0.00676329
0.00122705
0.00672509
0.000265923
0.00102294
0.000919353
0.000896859
0.00049795
0.00103966
0.00527715
0.000481072
7.1881e-05
0.00672575
0.0117234
0.00791854
0.00672544
0.00672573
0.00672862
0.000354515
0.000225535
0.00481343
0.00148135
0.000370433
5.72359e-05
0.00757629
0.0247906
0.000812674
0.000112837
0.00673329
0.0148098
3.62035e-05
0.00117028