/*--------------------------------*- C++ -*----------------------------------*\
| =========                 |                                                 |
| \\      /  F ield         | OpenFOAM: The Open Source CFD Toolbox           |
|  \\    /   O peration     | Version:  v2012                                 |
|   \\  /    A nd           | Website:  www.openfoam.com                      |
|    \\/     M anipulation  |                                                 |
\*---------------------------------------------------------------------------*/
FoamFile
{
    version     2.0;
    format      ascii;
    class       volScalarField;
    location    "250";
    object      omega_0;
}
// * * * * * * * * * * * * * * * * * * * * * * * * * * * * * * * * * * * * * //

dimensions      [0 0 -1 0 0 0 0];


internalField   nonuniform List<scalar> 
18540
(
4.07321
0.0222779
0.0218328
2.90435
0.0254793
0.0329116
0.0252538
0.0615357
0.0871315
0.0223231
0.0258532
0.022008
3.37877
0.0220064
3.44912
1.25908
0.0836437
0.0291316
4.6818
5.87411
0.0475313
0.0961896
0.0221064
11.4682
0.0602438
0.0396255
19.8911
0.0673551
0.0307075
6.00493
0.0222712
0.0220314
0.142908
2.41412
0.0290481
2.94282
0.102113
0.0219539
0.0217161
0.128294
0.0222517
0.022081
4.36244
4.0534
0.065704
0.038143
2.23442
0.0218319
0.043743
0.03682
0.0220098
4.60366
5.64398
0.022247
0.032865
0.0363998
3.51746
2.87874
6.04029
0.0216802
7.16479
0.0269351
0.0301797
0.225574
4.37352
0.0218651
0.0862987
0.0221202
7.01084
0.0216902
0.034884
0.037788
0.162643
3.02351
0.0577169
0.166246
0.075567
0.0220747
0.028495
0.168866
0.0247739
10.3382
0.0219563
0.188051
6.07774
4.25452
0.0220517
0.0221343
0.027734
4.32477
0.302583
0.144988
0.0481537
0.0216435
0.0264081
0.0223943
0.0246786
0.0428776
9.72452
10.298
0.0221487
0.0220313
0.142495
2.35469
6.59826
0.135557
0.0221862
4.24016
0.0302209
0.025057
28.3492
8.49502
0.0220849
0.028652
5.04202
0.0366011
0.0386155
0.0422459
0.0284351
0.033044
9.89686
10.8615
6.68975
7.67931
0.0220317
0.0302676
0.0394891
0.0365708
6.00897
0.170155
0.970082
0.0374846
0.0571531
4.18906
0.0218371
0.0216821
0.0253464
0.0306507
0.0224835
0.02186
4.44734
0.115408
0.0406129
8.44164
0.0217928
0.0217737
0.039455
4.14467
0.030941
10.4296
0.0218155
0.0227679
0.0218107
4.4497
0.476392
0.0821882
9.97124
0.0217961
0.0219625
5.24719
0.082182
0.0502618
0.0222523
0.0218363
6.71972
0.022005
4.18904
0.0354008
3.54802
0.0221068
0.0221365
0.032643
0.0247814
0.027369
0.0222871
7.13098
0.0268004
2.78082
0.489295
0.887881
0.0266127
0.042218
0.0503039
0.143749
0.0253951
9.33309
0.0226872
0.0249826
0.348798
0.0365818
0.0317456
0.0244596
24.5886
0.0220369
0.0695106
0.0219639
0.0429013
0.215735
0.188349
0.0285801
0.0381185
0.156661
0.0360833
0.0356882
4.01546
6.9891
0.0220107
2.94965
2.80494
0.0396173
0.0220348
3.77326
2.76969
0.0221755
0.0452767
0.0374616
7.35186
0.204954
15.3965
4.50522
4.35873
0.0806908
4.99266
0.080786
1.80687
4.77417
0.0355734
0.0395336
5.4064
0.0578064
0.0251579
0.364036
0.169632
0.025038
0.0222601
0.0271344
0.0220485
0.0308381
0.0784555
0.0358407
0.801346
0.567855
0.269534
0.0361025
3.98129
2.73015
0.0222531
0.021786
0.034115
0.0222118
0.0844043
2.73309
4.12469
0.0227925
0.0256789
0.23264
0.365412
0.311625
0.0220043
4.9281
0.197112
3.1103
0.0222692
16.0304
8.40865
0.0331607
7.72562
6.19421
0.0219505
0.0221677
6.65363
7.58897
39.1032
0.0228355
0.15989
3.2598
0.0218019
0.0482808
0.320138
0.0219565
0.0221675
3.5549
0.025402
0.0220495
2.71983
0.0216966
0.917639
0.0557035
2.87603
0.183374
4.48559
4.45866
0.049424
0.0219504
10.4483
0.063912
0.277174
0.0388101
8.92363
0.07461
0.0221166
6.2788
0.38447
0.0555916
0.0956714
0.0220257
0.756625
0.0218224
0.29827
0.0220393
7.19118
0.0225367
3.19802
0.0419364
3.63793
1.99312
3.34699
0.0220111
5.08502
2.97224
5.02725
0.635416
0.0221563
8.41656
0.0254324
0.0220939
0.0482195
0.0287215
0.0220075
0.0219739
0.0217798
0.109317
0.201747
0.0294482
0.947903
0.143118
0.0221098
0.0221732
7.55483
0.0565381
0.0361174
0.0399122
0.0245696
0.0943528
0.338663
0.217276
0.0219632
0.0861769
0.0255109
0.641906
0.59398
0.0221769
11.3486
0.0223577
0.0221687
6.51801
0.0221602
0.0218087
0.0220109
4.37039
0.0646445
0.0218433
0.0220323
0.0268637
4.96926
0.0472694
0.0216403
0.0220743
0.0221353
0.0220159
3.03475
0.0217837
0.243872
0.0250817
0.0221696
0.576887
0.0220436
2.54817
0.0251647
34.2671
12.7366
0.0218268
0.0859834
0.375589
0.030529
0.0217677
0.143978
5.9383
0.0221911
10.4762
6.92247
0.021833
0.0276425
5.22208
3.05459
0.022077
2.94095
2.91905
0.0221979
0.841136
15.4522
4.1575
0.0249867
0.0221645
0.0445506
0.0218056
3.95733
9.18777
0.0222926
0.0798659
20.4409
3.34963
0.202556
0.0218435
0.0451541
2.83132
0.0221654
0.0368999
0.288047
0.210081
0.602201
4.10825
0.0220209
4.76688
0.0217557
0.0524215
0.0217483
0.712353
0.0289175
0.0367728
0.0219793
3.13788
0.0455273
5.75834
0.0250575
7.35411
0.0221155
0.0216847
10.142
0.0220082
0.16037
0.0248858
0.0859354
4.06306
0.0220098
0.0221822
0.0221361
4.61957
0.0220082
0.0216987
8.04109
2.9378
0.0217377
0.0216871
0.0220626
0.0220899
0.0440158
0.0220112
6.23018
33.0334
0.0261528
0.0222143
0.0467026
0.0279369
0.0221646
0.0430877
6.7155
0.0275872
0.325023
0.153677
7.09105
0.0908555
2.91376
4.20983
0.271064
0.0215832
3.18767
0.0220172
4.74369
0.0215573
0.0505481
0.0216148
7.51118
0.0222468
0.0276881
0.0281529
0.0561621
2.96417
0.022008
0.0229132
1.13084
0.0733924
0.120163
7.9053
7.19766
3.94936
0.0288112
3.26325
0.211077
0.0247506
0.345734
0.0984917
0.0216545
0.159079
0.0222754
0.0256069
0.422747
0.0225779
0.100774
2.80978
0.0221066
0.0220867
0.0220838
0.0779394
3.79443
0.0250637
0.0268541
0.0219172
6.34443
0.0221119
34.9281
0.0220708
0.132627
8.83248
0.0537145
0.0215799
0.0221075
2.92872
0.0219217
0.0220501
5.87302
0.488143
0.0507974
0.0221232
0.0222557
0.0224691
4.92052
0.72763
0.0339224
0.0220296
0.022185
0.0348112
0.25657
0.0623808
0.0292949
0.0215857
2.79748
5.1498
0.0253798
0.0351092
0.026404
0.021851
0.181291
6.5414
0.0216062
0.0450986
0.283937
13.9364
3.43125
0.0219953
0.0250166
0.0279219
0.0217215
0.0258461
0.0235556
3.01109
0.0218519
0.099574
0.0261511
0.044044
0.0216568
0.0222673
0.239394
0.0225913
0.496095
3.66228
0.0218473
0.0282246
0.0220672
0.0218594
0.123951
0.0221734
6.47418
4.19381
3.2504
0.0323216
0.0219998
0.0220068
0.0258252
0.382736
0.0379411
0.0214734
0.0220708
0.0222413
4.8436
0.0220091
0.0218848
7.9694
0.0234733
0.0217106
11.5207
0.0789693
0.0219873
0.0506983
5.49215
0.0305563
0.0412163
0.0221583
0.0220609
0.0826537
0.0281466
7.15758
6.94495
5.99183
0.0219988
3.45121
0.022021
0.0222684
3.87854
0.0222337
3.68661
3.88919
0.0226048
3.00064
0.283525
7.09774
0.0664766
0.0258976
0.596807
3.9542
0.0285404
2.75239
3.39518
2.78602
0.0222563
0.0223914
0.0235754
0.32919
0.0215917
0.0313348
3.93602
3.03383
0.0223885
0.045609
20.4023
0.260272
0.0241285
0.0337732
0.0220726
0.0246624
2.74517
0.0219919
0.0220768
0.0218726
0.0365714
4.07958
0.0219785
23.8996
0.0221022
3.45344
0.0219959
5.70589
0.373233
0.0266896
3.03586
0.0604207
0.0221499
3.93216
3.9771
0.0425357
0.0257287
1.15544
3.3457
0.103884
11.3038
0.0226669
5.44102
5.13452
0.0220033
0.02205
0.0223165
0.0218628
3.33554
0.0279566
0.0243241
0.0288123
2.79011
0.0329667
0.024534
0.0235098
0.0226513
29.8533
0.634369
3.26431
0.0299583
3.07224
0.0216726
0.0522927
0.0243846
5.16555
0.0424377
0.0217104
0.023244
0.0222876
0.0216821
0.0217094
0.460766
0.0273097
0.0692137
5.36442
0.0217178
0.0223185
6.61414
3.81685
4.03927
0.0221335
0.0221626
0.0311944
0.0218251
0.0988214
0.239149
0.0243366
0.0222763
0.0221466
0.0338863
0.0326357
0.0479726
0.022057
0.0222692
0.0334304
0.241677
0.0258536
0.0280838
0.0643961
3.31411
0.0221708
0.0233577
4.09751
0.143877
0.0663556
0.0219766
0.0876712
15.1254
0.0816318
0.0300547
0.0308939
2.71405
0.0219098
25.6017
0.20586
4.3127
0.0219517
0.0219833
0.0222185
0.0218839
0.0934165
0.0247862
0.0376879
0.0217611
0.0222215
5.02134
0.0221598
0.0217907
0.0218604
2.78816
0.397106
0.0217583
0.0319057
0.120843
0.0362722
0.0406063
0.0633881
0.143066
0.128517
0.0234467
0.120906
0.0219772
0.67694
0.0406108
0.0218292
0.11369
3.76516
0.0220428
10.3457
0.0651389
0.115159
0.0223865
18.3405
0.113737
0.0482742
0.0252163
0.0455697
11.0819
0.0220148
0.0237026
2.78193
0.0268195
0.0334446
0.418852
0.0394607
0.0297398
0.0267615
4.05222
0.0248782
0.0224014
8.55349
0.023172
0.0217932
0.530233
0.0218873
0.029615
0.0219554
0.0604618
4.00236
0.0221723
0.0249956
3.04754
0.0218595
7.64575
0.0220047
2.35973
0.0218062
0.0224142
0.0241044
2.78418
0.0315175
0.0442333
0.028536
0.0315842
0.0218038
0.0270257
3.2612
0.310993
0.0222657
5.04849
0.135183
0.0325944
4.73033
0.0220059
0.0222286
0.0220231
21.4715
0.120417
0.0219415
0.0216155
0.0218621
22.3056
0.0258228
0.0224332
0.0882529
0.0220167
0.0224525
0.342965
2.15287
0.0261532
0.0218659
2.94475
0.0222379
0.0272487
4.76843
0.128685
8.60084
0.0218018
19.6941
0.0224796
0.0257863
0.0218382
0.0221071
13.5281
0.0710941
0.0218237
5.28927
0.0222621
0.0476261
7.04846
0.0221005
0.0694941
0.533519
0.0299712
12.1012
0.0221677
13.7835
0.0221553
6.10141
0.0694916
0.0222386
6.51925
0.0240091
0.0292302
2.3562
0.022127
0.0222408
6.14488
0.0304308
7.45379
0.0221605
0.0221794
0.110413
3.21511
0.0252747
9.96551
0.0221039
0.0221623
0.0256197
0.0219701
2.25637
3.89596
0.0223256
4.01993
2.31664
0.0219769
0.021981
0.0219868
0.15993
0.0412232
0.0408686
2.73058
0.0222898
2.84277
0.0487768
2.75178
3.07775
0.0222336
6.2805
15.0149
4.0877
3.19998
0.0220205
0.0218643
10.5189
0.0340123
4.37531
8.71446
0.0218741
0.0309332
0.0220262
0.0247564
0.127819
0.0220194
4.13956
0.027443
0.0625195
0.169221
32.8836
0.0217975
0.0220098
0.0413959
3.3009
0.0282775
0.0671932
2.98559
3.09162
0.0231655
3.18845
0.0220079
0.209203
0.0221504
0.0218435
4.91906
4.42855
6.41169
5.33958
0.0217339
0.0681748
0.0219464
4.84286
0.0216337
5.23102
0.0258407
0.043745
0.0216438
0.0216302
27.5393
4.80614
0.022012
0.0217682
0.0220023
0.0222708
1.70505
0.242098
0.0220039
3.81145
6.19877
0.0219888
0.0220005
3.97844
0.161174
3.06469
2.73395
0.0530757
0.0218754
0.0221836
2.22185
3.56389
0.254784
3.58803
0.034486
2.73222
0.0215492
3.34023
0.0239348
0.10635
0.0220069
0.0223321
3.89999
0.0246416
6.65787
0.0216972
9.52923
0.0282552
0.0338163
2.05079
4.11799
0.0441206
1.5697
0.454678
0.0235234
0.36175
5.55326
10.7908
4.43478
0.0499789
0.0275892
0.0222618
0.0385209
0.0220121
0.021843
3.89617
3.37077
0.0221723
3.92826
0.0221201
2.48029
0.0221663
0.0221288
0.021983
3.21871
0.0221622
1.79252
0.0221336
0.0215496
0.142088
0.023678
10.859
0.112384
0.0219977
0.0221108
28.0733
0.0370219
3.3781
0.0220824
0.0555209
0.0240651
0.194879
0.0250908
0.0216202
0.052569
0.0217598
0.386213
0.0219801
0.0217417
0.0217865
0.0248468
4.06738
2.76051
0.0535229
0.0458935
0.0220074
0.0340928
3.87551
0.0220083
0.0219955
0.0737631
4.80053
0.0230986
0.0244683
0.0268165
0.0475207
0.136076
2.50997
0.481186
0.0251989
0.0220783
0.0216477
0.0228186
0.0224354
0.0740302
0.0220514
2.26229
4.43412
7.98234
0.0296282
2.98607
2.64559
0.0304417
0.0367457
0.0357055
0.0217166
4.76306
0.0217796
0.0599596
0.0338857
0.0218
0.0255455
2.92744
0.317359
0.0224796
0.0252516
3.80226
5.59055
1.41275
0.0218003
5.72264
0.140039
0.0336869
4.27665
0.0221372
0.0222037
7.91713
5.9301
0.159775
0.0220019
3.46536
4.09311
3.59582
0.0476651
9.62594
0.0221274
2.76048
0.047043
0.0221543
0.0367888
16.6519
7.53247
0.0221372
2.63645
0.022644
0.0264837
3.88795
0.0221891
0.052956
0.0305637
3.75601
0.0336671
0.0215212
0.0463202
0.0220432
7.08179
0.123742
1.83161
0.0217151
0.0342546
0.0217086
0.0222604
0.0221948
0.176716
10.373
0.022142
0.263067
0.0386326
21.2739
0.0218774
0.388532
0.25007
0.0772173
0.022262
0.619217
0.0221677
0.0218033
0.0222773
0.0217171
4.55317
3.67281
0.0222777
0.0222738
5.69123
0.0217998
0.0423069
0.0219564
0.0217629
0.0218681
0.0220765
2.45836
0.0219956
0.023343
4.35232
4.16511
0.029073
0.0220709
0.0222548
7.38199
0.022155
0.0220476
5.41407
0.0222687
0.0222647
0.113573
0.0428727
0.0218089
0.0231795
6.22431
0.0781864
4.69756
0.0220729
8.82516
0.122586
13.308
11.0125
14.5105
1.03336
0.0624858
3.20368
4.79366
0.314636
3.07387
4.41992
0.0216969
0.0222721
0.0229616
4.88433
0.0217875
0.0221056
0.0217972
0.0251973
0.0217285
0.0218432
4.35152
6.66698
0.0221563
2.72862
0.104978
0.131728
6.34235
0.0218131
0.0225296
3.32558
0.459244
0.022267
5.93684
0.0221816
0.036864
0.0221526
3.80328
0.361116
5.4333
11.7731
0.0231172
0.444283
0.0216795
3.91408
0.024241
8.7489
5.54511
0.365355
0.022178
0.040419
0.0222082
2.4699
0.027934
4.71496
5.05525
0.0219261
2.66816
4.32613
0.021863
0.0219528
0.0219718
0.131183
0.021722
0.641787
0.0346292
0.0384658
4.36652
0.260415
1.76368
0.0215949
5.60844
0.021856
0.060433
0.0219236
0.022178
1.20164
5.60896
0.0218809
0.0709836
0.0220143
0.0219763
0.0241584
0.0218819
0.0475421
0.0475163
4.44577
25.7833
0.0217888
2.15071
8.85952
5.42523
2.77603
0.0220098
0.0217271
0.0293612
0.0244266
0.0524459
17.1534
0.0219224
0.138937
1.08055
0.0255733
0.0222674
3.12662
3.63155
6.01661
0.0398205
0.0245775
0.258846
0.0215204
3.60396
0.0266491
0.0215109
0.0217922
11.4879
0.0360468
0.0220664
0.172084
0.0221634
0.0217838
2.66838
0.0234474
0.023332
0.0219588
0.0217001
3.04427
2.81166
5.91774
0.0344585
0.0221479
5.43719
4.54435
7.3653
0.0215073
0.123575
10.6713
0.120423
4.7494
0.0230047
4.00799
0.0221859
0.0218538
7.62988
0.0222797
0.0219085
2.93042
3.91301
0.0401386
0.0334147
0.110632
8.64713
0.0225418
0.0321023
1.03222
0.0271837
0.0221793
0.0274956
2.73078
0.0216884
2.74849
0.064026
6.83428
0.0264069
5.67889
0.0215895
0.0219905
4.06779
0.0461287
2.63194
0.0254733
0.0216676
0.0222458
0.0219188
7.01503
4.69056
0.183951
5.58054
0.0351401
0.0218804
4.6076
0.0216907
0.0327588
0.0707671
0.0272865
0.0245041
0.0218785
0.0272703
0.0237356
0.044324
4.35143
0.0402866
10.529
0.0220079
0.0313855
0.0346104
0.0220163
2.23837
0.022225
0.144941
10.5888
0.20415
0.0329943
0.0410469
0.0222736
0.0218047
3.21664
4.83884
3.52051
0.0216935
0.0221645
9.6697
0.325891
0.133881
0.0217924
0.0219749
0.0232683
5.98953
6.63462
0.387704
0.337269
0.0490882
0.0422432
14.2181
5.78016
0.0221129
0.243606
0.029219
0.0219095
0.0218025
0.0553664
10.1184
5.09127
6.19848
0.12171
0.0216924
0.0219675
0.294965
0.408087
0.893683
3.27778
0.0407154
0.0222394
3.30833
4.44539
0.0452625
0.0219581
18.307
0.0221912
0.0222493
4.35655
0.063245
0.0238026
0.105011
4.29558
2.90294
0.0457597
0.0215096
0.0220141
0.0376774
0.0223032
0.0220618
0.0221438
0.0304956
2.87619
0.107062
0.0226276
0.0219605
3.87082
4.89008
0.0220969
0.029477
0.0220587
0.0260006
0.0221741
0.0218979
0.0245407
7.28883
0.0222551
0.0264523
0.114544
0.134318
4.31365
4.22709
0.0468221
0.163292
3.52774
6.65988
0.389376
0.021907
0.0408461
3.90598
5.13973
6.57277
4.48996
0.025252
1.14496
6.84134
3.02605
0.0319367
0.0732713
4.0006
1.1484
0.0741443
4.86027
2.28334
0.021971
0.0219131
0.0235429
0.167762
0.0992379
0.0372036
1.91758
7.41081
0.521116
3.80163
0.0514491
0.0248118
5.19647
5.96324
0.309787
0.023681
5.3172
0.0218208
0.0835615
0.0221682
4.06376
0.0226248
0.0228604
0.0217204
4.9738
0.021879
0.108538
0.0248454
4.48622
3.58874
0.0387618
1.19901
0.0249522
0.0219708
3.85054
3.63879
0.0220639
0.0223683
0.227514
0.0564309
0.0219755
0.0221466
0.0222799
0.0816013
0.0432062
0.0223138
0.0221283
5.3261
8.1965
3.02342
0.0458041
2.94385
0.0237218
0.0224776
0.0223191
4.37519
0.0218821
0.0220352
1.12646
0.0586631
0.0221434
0.141218
0.025184
0.0222153
0.493389
0.128156
0.0226559
0.0346791
2.77857
0.022005
0.0233414
6.77325
0.0220285
0.113602
0.03127
0.0219894
0.0328673
5.76168
0.021964
0.0394032
6.78157
0.0226975
0.0219835
4.10353
0.0220244
4.73373
0.144322
0.0216558
0.262314
0.0715253
0.0220087
4.71736
5.05119
0.0221605
0.0330084
4.03755
0.0817799
5.78737
0.0218828
3.92555
0.027461
0.028542
0.129394
0.0221692
0.142411
3.57144
0.0220716
0.0216446
0.0217
0.0219867
0.0220762
0.0880649
0.0296156
1.32409
0.0300804
0.0274468
4.1491
2.15617
0.0220315
0.0223147
0.765083
4.99212
3.09248
0.0486814
0.0221505
0.0255909
0.0849853
4.84297
0.0645787
3.84068
2.70444
0.343222
0.0292312
0.095521
0.0219089
0.0739037
3.44435
0.0218457
0.0217127
0.0222749
3.13994
0.141371
5.39527
0.0674703
0.0684164
0.0220357
0.0219298
0.0214751
0.0220054
0.0218833
0.0218688
0.0509427
6.85362
0.0220229
0.0428964
1.17384
3.37337
0.0219827
0.0222131
0.0216965
4.31725
0.0222168
0.0245244
0.0484336
0.0268949
0.0451517
0.0567544
0.0227244
0.0237008
6.97964
0.40922
0.906435
0.0228696
3.54887
0.0237903
0.0280734
0.0222206
2.97762
0.146316
0.0222279
0.0219777
8.84305
0.0220728
0.0243414
0.0261219
0.0222904
0.0220044
0.0221505
5.0023
0.0237553
3.42294
0.0220623
3.90674
0.0319656
0.531309
0.0336529
0.0342879
0.0396888
0.0220967
0.0258745
7.77549
0.0377487
0.13197
0.0220119
0.33033
0.0402624
0.136439
0.129161
3.16799
4.26036
0.0218396
3.71959
0.0607348
0.0218404
4.17498
0.0339255
0.0380054
4.27545
0.0301377
0.0832346
0.026572
0.0250509
0.23211
0.146109
0.0221771
0.0220232
1.11081
3.51189
0.0993934
3.1574
0.0701669
0.0218675
3.80261
4.01235
0.65694
3.60295
1.67748
0.157679
0.0457545
0.0220826
0.0222628
0.0241679
0.0235731
0.0216511
4.28412
0.136394
0.0218509
0.624713
0.022592
2.63397
0.32329
5.30274
7.2949
0.0557435
6.49631
0.0449759
0.0388714
3.38558
0.381837
0.0216939
0.0221802
4.94337
4.27373
0.0218735
6.1423
0.0219975
0.0217113
0.110865
2.73229
1.11205
12.0249
0.0218731
0.0220955
0.0218983
0.0215862
0.0218699
0.0816357
8.56587
3.05335
0.0276065
0.0229179
5.13308
0.0219612
0.0219174
0.0537234
0.0299105
2.54783
3.91578
0.0520622
2.9599
0.0221548
3.61929
3.05397
0.0221332
0.0338583
0.0315685
6.49018
0.0220112
0.0220016
0.0220101
0.0409972
10.4099
0.0479147
0.0220997
0.0221554
0.0220005
0.0219729
4.31035
8.37555
2.09327
0.113112
3.40078
1.23772
0.0215823
0.0732667
0.0231157
3.18069
0.0850997
0.0285949
5.42591
4.42624
0.02192
0.0262551
0.16681
0.0220054
0.0218034
5.67416
0.130405
0.0222766
0.0216145
6.89684
5.42988
0.0222
0.0483994
0.113431
5.8343
0.0221425
8.39133
0.0322702
4.02714
4.2249
2.81553
2.70467
0.0220684
0.0219789
0.0220261
3.64135
3.99715
0.0220215
0.334948
3.95112
3.93225
2.11331
0.0219704
10.744
7.36061
0.0220658
0.0297867
4.26171
0.0472222
26.1058
0.0222797
3.08709
0.0222666
0.616172
1.05551
0.222149
0.0224896
0.0254828
2.86487
0.0222904
0.0217816
0.0850051
0.0222784
3.50227
10.3216
1.78227
5.06795
0.0551976
0.0928259
0.0217671
0.305148
0.0218493
0.0328828
0.0219708
0.243807
1.65633
0.0219695
9.35588
0.0222818
8.71772
3.22013
3.7522
0.0217821
6.82059
3.31938
4.6068
3.78445
0.0221167
3.36894
12.0028
0.0219988
10.2405
0.0487133
0.111136
0.237549
0.0373092
4.63643
0.170226
0.0307769
0.0287265
3.67777
4.24124
0.0225007
0.10197
3.96698
2.82923
0.517764
6.80737
0.0298288
0.0219143
0.0222507
2.74814
0.0221366
0.0220697
0.065788
0.0226973
0.0219673
3.02065
0.0222071
4.09451
3.85143
0.0267336
0.122128
3.51679
0.023293
0.130387
0.0989162
0.0217634
0.2116
0.418441
0.0214974
11.4229
0.0448609
0.0219266
0.0229276
0.0351086
0.0218988
0.0217869
0.0351257
0.0254308
0.104286
0.0798983
0.0480322
0.0277328
0.0987867
0.0236863
10.2113
4.20759
0.022057
0.0365053
0.0695995
3.63164
2.92113
0.152529
2.86397
0.0506702
0.0255376
6.91879
0.0222688
0.0761509
3.87125
0.0222692
15.2286
0.0224108
0.0220847
0.059147
0.0218378
0.0300526
0.064237
13.5021
0.100496
6.81012
3.97595
0.023772
0.101101
0.0285063
0.0219148
0.0218096
0.0214871
0.167384
0.0221755
0.0219757
0.600113
2.4412
0.0216197
0.0220141
0.283567
0.0221089
0.0217636
0.0220425
0.0219181
0.0450193
2.8403
0.0373986
6.57382
0.172514
0.0227304
0.137109
0.0221996
0.0235127
0.0287596
2.97396
5.21216
0.0295061
0.0265492
0.0216381
0.0242206
3.45036
0.0221312
0.0342087
0.0220191
0.022081
5.64639
2.24288
0.0218592
0.022093
0.0217124
3.83432
3.02814
0.0247592
0.0222611
0.0328478
3.6247
3.36847
3.30187
0.0221934
0.0219601
0.0220629
0.0502241
0.0247073
0.155775
0.125426
0.222162
0.0335263
0.0221869
0.0222024
0.136319
0.022055
4.1287
0.0219031
0.0221685
0.0709787
0.0221407
0.0335511
0.0264825
0.021612
2.83692
0.0218107
0.0310792
0.0220067
7.59411
0.0219311
0.165988
0.0218094
0.0218949
0.0221691
0.0282999
0.022002
0.0220004
3.65405
0.0302391
3.70054
10.1229
0.0700406
8.02883
0.088111
0.103357
0.158347
4.6614
2.72742
0.0220112
0.0219687
0.0220865
6.60427
2.95394
3.05611
3.88382
5.09683
0.0247482
4.30767
1.20794
1.93458
29.237
5.21788
4.55699
0.0326763
0.030576
0.114973
0.144049
4.84868
0.0225798
0.0227536
5.95459
0.0218776
3.52269
1.35703
0.0221009
0.0221232
0.0225044
3.38709
0.0219739
0.0228124
4.05609
0.0315101
5.46328
4.56082
16.4707
0.022005
0.0247283
0.0983682
4.58257
19.8075
0.0506104
1.08917
0.0904149
0.0217726
2.80808
0.0220751
2.43871
0.0218062
0.021801
0.103235
0.0361813
0.022089
0.13226
0.0686572
1.93786
3.67194
0.0222612
0.026854
5.07093
0.0222109
0.56535
4.3734
3.3151
0.0394315
7.83846
6.26569
4.983
0.0397691
4.54951
5.76245
8.24634
2.28431
0.0222699
9.21507
4.88201
2.62899
2.85576
0.0243335
5.61489
6.97282
0.0233455
0.0215752
0.0353017
0.0219729
5.62292
2.80298
0.128137
0.0309918
0.02228
0.0224955
0.0231581
3.68444
3.75163
0.226142
0.0289645
3.80969
3.34451
0.0281454
0.0407176
0.039345
0.355586
0.0220107
0.0375852
0.0222775
0.0215723
4.37431
2.81221
0.0446191
0.0826664
0.0525676
0.0228326
0.0219807
0.0218188
0.030337
3.3366
0.0425182
0.108565
0.0215013
0.0222697
0.0218628
0.0221767
0.0226668
3.25745
0.117682
0.0478022
0.0618538
0.268128
0.0471666
0.0432499
0.112385
0.0218726
1.42927
3.31699
0.0317196
0.642726
0.0222189
2.77903
3.07383
0.0218755
8.60613
0.0301815
5.72715
0.0499918
0.0219113
0.778977
9.52566
0.0272713
3.39988
5.29233
0.112668
0.023163
1.0611
4.04806
3.12938
2.92091
3.07633
3.0691
0.0232806
0.0220836
3.21617
0.0220109
2.89345
2.8132
0.0220134
0.0232194
0.0222197
3.85591
4.26735
0.0219817
0.0221678
0.0249197
0.0391429
9.26806
1.98984
0.210734
0.0248874
27.4993
0.0398715
0.0216327
0.0428445
0.0338238
2.75418
3.66821
0.91276
0.0228075
5.72814
0.0341833
2.90503
0.021646
0.0220277
0.0217055
0.431437
0.0268076
7.28815
0.340772
0.0924601
0.0220516
0.0467449
3.02556
4.45528
0.0222741
0.0320797
0.316502
0.021499
2.74605
2.83379
15.6743
3.10335
0.021989
0.0215502
0.0220062
0.022023
0.141656
7.35391
2.85782
0.0743125
0.0215687
0.027997
0.0219975
0.0228555
1.00626
2.55887
0.0248469
3.72143
2.93351
3.79411
0.0992595
3.07638
0.974476
3.94234
0.0222285
0.173159
3.43857
0.0248929
0.0246591
0.0927897
3.45592
0.107584
3.14507
0.28495
0.026794
0.0218133
0.102363
4.97258
0.189636
0.0229163
5.8574
0.089887
3.26063
8.05823
4.00771
0.0220193
0.236519
0.194726
0.0292847
4.0886
0.0324373
6.42671
0.0221921
3.37716
0.0220089
0.0222165
0.0682942
13.9727
0.0470968
0.121508
0.0218151
0.105551
2.99643
0.0316775
3.71276
0.0222608
0.236686
0.0220677
0.021813
0.289024
0.0218871
0.124722
0.0534029
0.113162
0.0239052
0.212282
2.68373
2.95348
0.0216529
5.75361
7.69441
9.78913
0.0584876
0.28593
3.53125
3.7845
0.0236268
0.433434
0.0216186
0.0220871
0.379565
0.0220736
0.205808
5.70707
0.325213
0.0255672
6.84143
0.0220884
4.50364
3.04275
0.0251672
2.80799
4.05106
0.0219257
2.69065
0.0264541
0.0247526
0.0463125
0.0311925
0.0220139
2.00228
0.022139
4.29544
24.6069
3.0744
0.152172
0.0293751
0.0356572
3.48965
0.0221504
0.0605325
0.0555099
1.65914
0.081517
4.45446
0.0905407
0.149816
3.5025
7.97523
3.92502
0.169122
0.0219934
0.0219942
0.0221829
0.0413246
3.4894
0.0260772
2.68386
8.01231
16.065
1.37372
0.0219638
0.0630568
0.0216578
5.89749
0.0222726
0.0237528
4.83897
0.0234281
0.674914
0.0609172
0.0221768
3.21346
1.57603
10.3815
2.81286
0.0389694
3.54418
0.253628
0.0435459
0.0764608
3.95179
0.0243452
0.0228761
0.0220789
0.1102
2.85475
3.25463
26.0872
4.4607
2.83142
0.0216841
2.03754
3.62547
0.24283
0.0422233
0.0220067
3.27613
0.0232293
2.79216
3.17971
0.0221201
4.42598
10.3057
9.59753
0.0220057
0.0217189
0.0216918
10.1331
3.16194
0.0219865
8.87777
3.45256
0.0219749
4.30076
0.0231708
0.0486655
0.0274281
0.0220637
0.0228287
9.99077
5.39493
0.0723654
0.312002
0.0219913
0.106048
7.77019
0.0216652
4.40765
5.52686
0.33722
0.0801781
0.0699986
0.172003
0.238914
0.0453988
0.0219211
5.08908
2.71802
7.86746
0.0220572
0.111519
0.0413225
0.0221436
0.109961
0.0313462
0.0237623
0.0222576
2.87297
0.0467006
0.104346
0.0250769
3.35028
0.0358873
0.279595
0.132077
2.99911
0.0221637
2.82718
0.0220137
0.030447
0.0252224
0.366862
0.0352754
0.0217562
0.0221034
3.81499
0.0219136
0.0267353
4.4967
3.36761
4.3807
0.43494
3.68547
9.70668
2.74992
18.4197
0.133784
0.0272453
0.0273229
0.0387013
0.021926
0.0465694
5.64204
0.12691
3.05972
0.568431
0.0221881
1.21635
0.0251251
2.94712
0.0219919
0.0220095
3.94987
0.240436
0.2
0.0215159
3.708
0.026643
2.85076
0.0225097
0.097354
0.0898888
5.45481
2.96697
0.0221096
0.0217921
0.0232543
0.0221354
0.0344149
17.0265
0.0340036
0.0319437
0.0346138
0.0232505
0.0218664
0.176483
3.16607
0.0219653
5.42114
3.25754
0.0222074
0.022176
0.0220156
0.413173
0.0351629
9.98691
0.0224009
0.288763
0.880734
3.69197
3.4829
0.0271292
11.1874
0.0216716
4.76611
0.573218
0.0285553
0.0219963
0.167753
0.0221775
0.0218024
0.0220719
2.7729
5.35416
2.74317
0.0275358
3.36505
0.0221902
0.0221895
0.0319115
2.91279
0.0215534
0.0221734
0.0321093
0.0241361
2.31335
3.19452
0.0925187
0.0322972
0.106493
3.29288
0.223613
0.0233283
0.0215545
0.170258
0.0831609
2.95299
0.404536
4.60373
0.0344139
7.01714
2.87291
0.0521884
2.98701
3.00459
0.0216674
0.0217054
9.64144
0.0329779
3.22599
3.41958
8.94252
0.0234656
7.65636
0.0220279
0.0224393
0.0220189
10.1827
0.0240414
2.94059
0.0224894
0.106963
4.09247
6.05505
4.144
0.0359428
3.24263
0.0220128
0.0220868
0.022071
0.0217918
1.28965
4.60257
0.0220405
4.7242
2.96133
0.645158
2.1178
0.196811
4.47339
0.0501274
2.79066
5.82014
0.0304043
0.120979
0.0427442
5.37308
0.0218243
0.0243169
3.778
0.0326565
0.0221139
0.0220637
3.32418
0.0234307
0.207144
0.0219054
3.27436
0.0311878
0.0468359
0.0263867
0.239063
0.0873915
6.1345
0.0274711
0.0218202
0.0216735
4.22925
3.28904
7.24286
4.24798
0.0258377
4.56599
0.0268172
0.369729
0.101764
3.52937
3.07116
0.0220842
2.82976
26.3489
5.68161
0.0423742
6.17521
3.92825
0.0274916
4.33269
1.71547
0.101605
2.90372
0.0247931
0.039878
0.0505509
0.0268082
0.0218928
0.0593232
0.21448
2.61086
0.0225252
3.64596
0.0260587
0.0389482
0.0305887
0.02214
0.0220015
2.36325
5.81333
14.9612
0.0259207
0.021749
0.0224238
0.0220707
0.0350341
0.0227413
3.60896
0.845025
3.05939
6.21154
0.0221951
0.186459
2.85311
0.0237292
3.94868
4.13075
4.07739
0.0219837
0.0221856
3.98251
5.86325
0.270422
0.0457653
0.0219668
3.62169
0.0231068
0.0285263
0.0550665
4.88481
0.0235548
0.0219983
2.24443
0.0786719
2.98508
2.97583
2.00654
2.34344
0.0219006
0.355688
3.97001
0.0952221
4.05698
0.156129
0.0296884
2.94532
4.14431
0.0224844
0.0706708
0.0305357
0.0219867
8.61813
0.248852
20.7151
4.44852
0.143685
0.0248938
0.111386
0.0687375
0.021706
0.0501742
0.0257067
0.0218162
0.0330411
0.0228129
0.0324687
0.0623126
4.89198
3.44283
0.745297
6.73248
0.0883696
0.022453
0.0286625
2.99126
0.0227624
3.26132
0.223021
4.09039
0.0327381
3.66051
0.0446508
3.10668
0.0249015
7.10017
6.52117
0.0223191
3.63252
5.45485
2.91674
2.62509
8.00069
0.0354856
6.05932
6.68151
8.36397
0.0410305
0.374534
0.0216565
9.22905
3.00484
0.609021
0.482422
0.0560904
3.32077
0.0637807
0.0220025
0.0220288
0.0217106
3.98962
3.90178
0.0220288
0.0579824
0.0219653
2.99154
0.0309424
0.0228858
0.17482
0.0244576
0.0268277
1.07496
0.0584471
0.0775582
0.02725
0.0317524
0.0219066
7.43527
1.0967
0.0224375
0.029353
0.0734806
6.20871
0.0229485
22.8156
0.022488
0.0361691
3.34774
1.71449
3.22865
0.744432
0.0216397
11.1777
3.60652
34.8506
3.34935
0.0318159
7.95382
0.0966534
0.0289376
0.323543
23.5972
0.081529
2.90903
0.0257542
0.0218209
0.0231593
0.022327
4.45768
0.48851
1.86577
0.134188
0.0225765
0.0221795
0.0344323
0.0227366
0.0424659
5.58423
2.96237
0.0294503
0.0224082
2.75061
0.022051
0.0694513
3.398
0.129049
0.0486792
0.0258714
0.0226556
3.97917
0.0219714
3.24582
0.05411
0.0220946
8.54774
0.02249
2.9287
12.7473
0.0253117
0.0215831
13.3552
4.72011
3.30756
0.0218846
0.0214982
0.0237743
0.0488078
0.0222312
0.0307569
0.0876209
0.0219903
0.0221311
0.0220975
0.532984
0.0232823
0.0233114
0.163727
8.31757
4.43822
1.2243
3.00041
0.0709364
0.0391133
25.139
0.025454
0.0320578
2.22626
8.57384
0.0372415
0.0280276
4.20187
0.0415119
2.91111
4.02946
2.29206
0.046562
0.0416588
0.0373128
4.44085
8.23559
8.10289
6.56133
1.40467
2.75878
0.022064
5.01805
18.1168
3.73973
13.0399
3.90456
0.0348535
0.0220211
7.51289
0.0371708
0.0244604
7.29486
0.771038
0.049118
2.84509
2.80964
0.0220107
0.0783857
5.27627
0.0222751
7.78918
3.94964
0.0581803
0.0367091
6.78013
0.570945
0.0546926
4.09496
0.022052
0.141961
0.0585711
0.0377603
2.07208
0.066721
0.072601
0.0669849
0.704303
0.022278
4.46121
0.0260342
0.0334772
0.209761
28.426
8.57695
2.16636
0.0240628
1.81428
0.700942
2.6934
3.86016
2.86741
4.17613
6.15918
2.8008
0.0234899
2.13563
0.206551
0.546594
0.0221523
4.0066
3.00479
0.0267263
2.72943
0.380591
5.51665
0.0220911
0.021794
0.0216342
2.83499
6.90876
0.022051
4.40218
4.01643
0.0221613
6.13104
2.3568
5.98013
3.01725
2.45846
0.0220464
0.0416701
16.8384
4.78822
2.00383
0.0231895
1.87234
2.88725
1.88146
3.29285
6.23728
0.0377696
0.225672
0.0287813
0.0221674
0.0218195
0.0220085
3.32383
0.0273226
0.0271625
2.59002
0.374412
1.65007
0.022109
30.1099
0.0218697
2.93792
0.0234824
0.0221807
3.20071
29.6828
1.73238
0.0259162
0.0305109
0.0222731
0.20646
0.023235
0.252779
2.64647
0.268923
3.02582
17.5806
4.27616
0.179986
0.0247662
0.0265621
0.0217928
0.0312127
0.0225263
3.28842
0.138512
0.0451253
4.10877
0.0219344
3.59591
0.0401486
0.0220055
0.3663
0.11552
0.024508
0.0262416
0.0815882
0.402039
0.0220796
0.044354
6.05699
3.14434
2.66247
0.0235371
2.7686
0.121566
0.250317
2.81645
0.0222822
4.20484
0.102765
0.0262619
11.2291
6.26647
0.0220091
0.0327656
0.0569409
0.0530105
0.0216585
0.0220974
0.0357922
0.0247237
23.1421
0.0471638
0.0972019
3.66068
0.0218928
0.0287599
0.0216962
4.13101
0.0630202
0.0234354
0.021845
0.024759
16.383
0.0220613
0.0222804
1.66498
0.0456792
0.0220642
4.49694
0.0243586
4.55772
0.159638
0.0447417
2.49627
4.1517
0.0217609
2.86526
0.808819
9.57051
4.41171
0.0225815
0.0601804
0.0312025
5.24457
0.022223
13.0799
2.99277
0.0233572
0.0265436
0.0223457
0.0221268
0.0533069
3.21404
4.46271
3.70565