/*--------------------------------*- C++ -*----------------------------------*\
| =========                 |                                                 |
| \\      /  F ield         | OpenFOAM: The Open Source CFD Toolbox           |
|  \\    /   O peration     | Version:  v2012                                 |
|   \\  /    A nd           | Website:  www.openfoam.com                      |
|    \\/     M anipulation  |                                                 |
\*---------------------------------------------------------------------------*/
FoamFile
{
    version     2.0;
    format      ascii;
    class       surfaceScalarField;
    location    "250";
    object      phi;
}
// * * * * * * * * * * * * * * * * * * * * * * * * * * * * * * * * * * * * * //

dimensions      [0 3 -1 0 0 0 0];
oriented        oriented;


internalField   nonuniform List<scalar> 
27506
(
-0.0246761
0.0143929
0.0102831
0.296176
0.206167
-0.502343
-0.250022
-0.125888
0.37591
0.00326522
-0.00617367
0.00290846
0.265997
-0.172732
-0.0932649
-0.239689
0.162697
0.076992
0.166007
0.0999897
0.0535937
-0.159552
0.105959
-0.0657032
0.0252107
0.0404925
0.154795
0.107695
-0.262489
-0.101043
-0.0714923
0.172535
-0.233271
0.340048
-0.106777
0.00817595
0.00182383
-0.00999978
0.0647596
-0.272013
0.207254
0.00801926
0.00445933
-0.0124786
-0.03658
0.112595
-0.0760149
-0.0418441
0.104444
-0.0625995
-0.0972824
0.118687
-0.0214047
0.00021333
-0.0015587
0.00134537
-0.0124542
-0.0111679
0.0236221
-0.0661773
0.0039877
0.0621896
-0.0592247
0.152339
-0.0931146
-0.49521
0.229257
0.265953
-0.00813714
0.0198044
-0.0116672
0.1784
-0.124807
0.0661523
-0.152046
0.0858939
0.0056386
-0.00144346
-0.00419514
-0.0961119
-0.0591415
0.155253
0.083709
0.12791
-0.211619
0.071766
-0.0373383
-0.0344277
-0.0623811
0.358558
-0.419846
0.227093
0.192753
-0.0696644
-0.0558163
0.125481
-0.0173035
0.0133526
0.00395094
-0.0871438
0.164749
-0.0776057
0.0063621
-0.00309689
-0.137618
0.0783935
0.124381
-0.402185
0.277805
0.433524
-0.319923
-0.1136
-0.0197502
0.0614381
-0.0416879
-0.07299
-0.341116
0.414106
0.404606
-0.132476
-0.272131
0.00757069
-0.000247789
-0.0073229
0.0398871
-0.0547166
0.0148295
0.0747016
-0.170813
0.147636
-0.0814838
0.0605132
-0.0768684
0.0163553
-0.393843
0.143821
0.0151153
-0.0812926
0.0792101
0.119907
-0.199117
0.298772
-0.234012
0.00651177
-0.00847388
0.00196211
-0.0222239
0.00976963
-0.58037
0.436689
0.143681
0.186521
-0.118686
-0.0678353
0.0607628
-0.222945
0.162182
-0.00049971
0.00867566
0.00828282
-0.0101955
0.00191268
-0.00924306
0.0168046
-0.00756154
-0.324553
0.0134589
-0.00780449
-0.00565438
-0.126494
-0.0885282
0.215022
-0.176086
0.117319
0.0587673
-0.132089
0.0769793
0.0551093
-0.0302787
0.0122494
0.0180293
0.323615
-0.106457
-0.217158
0.0814953
-0.0658916
-0.0156037
0.589942
-0.426646
-0.163296
0.0151442
-0.0159751
0.000830827
0.27443
-0.401439
0.127008
-0.161985
-0.0714068
-0.029649
0.101056
0.122376
-0.159398
0.0370215
0.00902011
-0.00073729
-0.0847422
0.168166
-0.0834234
-0.127189
0.0756522
0.0515367
-0.119309
0.0774649
-0.450974
0.491278
-0.040304
-0.153515
0.0562327
-0.0504234
0.122553
-0.0721294
-0.123766
0.203859
-0.0800938
-0.0251641
-0.0380967
0.0632608
0.297363
0.249809
-0.547172
-0.161152
0.0465014
0.114651
0.00969412
0.00376474
0.00898959
-0.00230063
-0.00668896
0.0436281
0.232966
-0.276594
-0.131683
0.473481
-0.341797
0.0572646
0.114641
-0.171906
0.00962233
-0.000632732
-0.128285
0.0957147
0.0325706
0.108145
-0.130201
0.0220567
-0.0548401
-0.0650946
0.119935
-0.466971
0.459514
0.00745774
-0.107232
0.250295
-0.143063
0.250417
-0.0956221
0.208669
-0.0991682
-0.109501
-0.204788
0.150997
0.053791
-0.018311
0.012588
0.00572299
0.00746278
5.30545e-05
-0.00751583
-0.0736596
0.317401
-0.243742
-0.462365
0.47807
-0.0157047
-0.131639
0.0812158
-0.0986011
0.0620211
-0.00159641
-0.0101474
0.0117438
0.0555492
-0.125214
-0.282617
0.208957
0.00577607
-0.0060599
0.000283825
-0.113413
-0.0626733
-0.165979
0.194934
-0.0289553
-0.010699
0.010699
0.00752028
-0.0161505
0.00863025
0.00474562
-0.45572
-0.222283
0.0873498
0.134933
-0.00201444
-0.00100044
0.00301487
0.157523
-0.0217097
-0.135813
-0.0802349
0.148086
-0.0678511
-0.0737387
-0.131049
-0.171872
0.084728
-0.193116
-0.0465731
0.00286355
-0.00265022
0.0516806
-0.0305147
-0.0211659
-0.00608988
0.0125373
-0.00644745
-0.0188781
0.0376417
-0.0187635
-0.402126
0.394549
0.00757709
-0.13295
0.216659
0.252983
-0.0678618
-0.185122
-0.122342
0.0573859
0.0649564
0.0082133
-0.000642614
-0.0786009
-0.0485879
-0.106604
0.0852651
0.0213393
0.108592
0.0489306
-0.173508
0.0887656
0.0489973
-0.0660205
0.0170232
-0.276572
-0.117272
-0.462951
0.0696215
0.393329
-0.18383
0.0827876
-0.113558
0.213126
-0.0995682
0.0610716
0.164943
-0.226015
0.230504
0.0931117
-0.0186219
-0.0116567
-0.0741385
0.140168
-0.0660296
-0.211927
0.133115
0.0788111
0.00709892
-0.0581885
0.313289
-0.255101
-0.199118
0.479648
-0.280531
0.169006
0.0839772
0.000718871
0.0482784
0.0696581
-0.183216
0.0466421
0.00503846
-0.45921
0.297499
0.16171
0.251746
-0.0843568
-0.167389
0.119293
0.228625
-0.347918
0.00241274
0.000742731
-0.00315547
0.0526027
-0.00714923
-0.0454535
-0.0240553
-0.0416479
-0.046794
0.0216299
0.238398
-0.296587
-0.412838
0.160188
0.252649
0.00410625
0.00166983
-0.112321
0.171452
-0.0591312
0.160922
-0.00342215
-0.1575
-0.544761
0.35993
0.184831
-0.401446
0.124874
-0.000126659
-0.00143204
-0.329641
0.0963696
0.0602689
-0.0310883
-0.0291806
-0.0554431
-0.0668992
0.0155129
-0.00749359
0.298865
-0.113455
-0.18541
-0.463523
0.33184
-0.126177
-0.0861968
0.212373
-0.135767
-0.0796346
0.215401
0.178491
-0.121226
-0.256632
-0.014939
0.271571
-0.0116547
0.0229763
-0.0113216
0.0966919
-0.223186
0.00407931
-0.00594598
0.00186668
0.0333587
0.019244
0.070926
0.00661251
-0.0775385
-0.190348
0.204052
-0.0137044
0.0510031
0.0651028
-0.116106
-0.0266425
0.187565
-0.0196515
0.127796
0.126165
0.0176058
-0.143771
0.00422692
0.000789251
-0.00501617
-0.177462
0.248051
-0.0705891
-0.170548
0.250899
-0.0803508
0.110269
-0.0504916
-0.0597777
0.0591565
-0.139391
-0.210648
0.0844711
-0.22513
0.101364
-0.00689211
0.00856559
-0.00167348
-0.378911
-0.0232144
0.0145807
0.0439676
-0.0585482
-0.186192
-0.226646
-0.239861
0.165295
0.0745656
0.0407285
0.0538921
-0.0946205
-0.0396994
-0.121453
-0.186851
0.110897
0.0759539
-0.0633721
0.147953
-0.0845811
-0.10044
0.152003
-0.0515639
-0.0391791
-0.0839421
0.123121
-0.128488
0.207698
-0.0159264
0.0173338
-0.00140737
0.0147759
-0.00725565
0.215633
-0.336232
0.120599
0.00672219
-0.000360087
-0.0043715
-0.0064259
0.0107974
0.196354
-0.16661
-0.029744
-0.252018
-0.167828
-0.00980346
0.015892
-0.00608852
0.00606247
-0.00198317
0.305285
0.123374
-0.428658
-0.114448
0.0596079
-0.174747
0.190169
-0.015422
0.0109988
-0.0298769
-0.0468722
-0.042697
0.0895691
0.00773707
-0.0158742
0.0554521
0.0296045
-0.0850566
0.00233937
-0.0121428
-0.0621141
0.131228
-0.0691142
-0.022259
-0.0457595
0.0680185
0.0442243
0.0177843
-0.0620086
-0.0172463
0.0777594
-0.000126659
0.188686
-0.184944
-0.0037414
0.176277
0.0200767
0.0112857
0.00385857
-0.0958819
-0.0677914
0.163673
0.0832761
0.125393
-0.0434133
-0.069901
0.113314
0.119393
0.00298304
-0.241556
0.142388
-0.263241
-0.281519
-0.270843
0.13801
0.132833
-0.0710131
0.313953
-0.24294
-0.127706
0.112807
0.0148984
-0.168976
0.0566553
-0.104724
0.065545
0.0228742
-0.0107979
-0.0120763
0.0624163
0.0278784
-0.0902946
0.0424058
-0.113562
0.0711563
0.18505
0.00363589
-0.0140264
-0.00189999
0.00913406
0.00306858
-0.0122026
0.29544
-0.36843
0.46925
-0.34174
-0.12751
0.215375
-0.168568
-0.0468069
-0.0736275
0.219709
-0.146081
0.125283
-0.0511356
-0.0741476
-0.0104117
0.00604017
-0.00325523
0.0116868
-0.00843155
0.171151
0.0805948
-0.00738368
0.133549
-0.0736948
-0.0583938
0.0511645
-0.123804
0.0726398
0.0164216
-0.0330992
0.0166776
-0.21129
-0.118351
-0.00504589
0.00190612
0.00313977
-0.140251
0.0665559
-0.00209517
4.6423e-05
0.00204874
0.237921
-0.0806539
-0.157267
-0.0345595
-0.0333331
0.0118526
-0.0122352
0.000382611
0.0536269
0.161748
-0.0203387
-0.0284593
0.048798
-0.00256333
-0.0133459
0.0159092
0.421743
-0.118928
0.424213
0.0127777
-0.0128268
4.90657e-05
-0.00172578
0.0059527
0.0216153
-0.00641141
-0.0152039
0.0958759
0.154049
-0.249925
0.0911739
0.041301
-0.132475
-0.00479576
0.007403
-0.00260724
-0.261052
0.380345
-0.0559334
0.172107
-0.116174
-0.0978377
-0.0304476
-0.237566
0.370939
-0.133372
0.183219
0.245182
-0.428401
0.009325
0.00618786
0.0209434
-0.169215
0.148272
-0.307345
0.236332
-0.0246498
-0.00898561
0.0336354
0.365135
-0.0907044
0.00768416
0.0136055
-0.0212897
-0.163218
0.0673363
-0.00199338
-0.00439525
0.00638863
0.148404
-0.059679
-0.0887249
0.000398302
-0.0509775
0.10643
0.128375
-0.0819922
-0.0463824
0.400816
-0.151006
-0.0203386
0.0435416
-0.023203
-0.193417
0.153847
0.0395699
0.103139
-0.0624108
0.084264
0.0285264
-0.0805256
0.0519992
0.0446239
-0.0300432
-0.303866
0.134819
0.169047
0.0174729
-0.00941972
-0.00805316
-0.125738
0.0764507
0.0492874
0.0599379
-0.0924231
0.0324852
-0.0888982
0.074508
0.0143902
-0.383759
0.269313
0.114446
0.0164237
0.00645049
-0.325374
-0.133836
-0.0177256
0.0341473
-0.432726
0.180708
0.000214504
-0.00155993
0.00134543
-0.188274
0.292329
-0.104055
0.000953166
-0.00574893
-0.0708545
0.0794964
0.0219126
-0.101409
0.0147941
0.00428527
-0.0190793
-0.00577134
0.0102307
0.358099
-0.204962
-0.153137
0.0448328
-0.0670918
-0.00973281
0.002881
0.00685181
-0.00336826
-0.00805348
0.0114217
-0.0457487
0.0452953
0.000453434
0.187348
-0.260976
-0.0134657
0.00422261
0.240811
-0.11877
-0.122041
-0.325632
0.238258
0.0873733
-0.224629
0.120323
0.104306
-0.139452
-0.0828317
-0.377851
0.0398444
0.338006
-0.411564
0.0508095
0.360755
0.270132
-0.149559
0.0754207
-0.0428412
0.0529582
-0.0101171
-0.102257
-0.0254488
-0.074609
-0.0319955
-0.0128658
-0.0657351
0.115183
0.183683
0.0977783
0.340586
-0.438365
-0.00707319
0.0123012
-0.005228
0.072686
-0.0127481
-0.165839
-0.00890833
-0.0453346
-0.166592
0.160928
0.0647389
-0.225666
0.0661028
0.0153925
-0.144861
0.0897023
0.0551584
0.0525967
-0.0392955
-0.0133012
-0.400277
0.162711
-0.129467
0.0673526
-0.128082
0.22617
-0.0980882
-0.00355364
-0.0362172
0.0397709
0.00405054
-0.0519355
0.047885
0.322874
0.100844
-0.423718
-0.0493959
0.0290573
-0.0705763
-0.185784
0.25636
0.282158
0.17862
-0.460778
0.00918929
-0.0147116
0.00552229
-0.317724
-0.106645
0.42437
0.396815
-0.16819
-0.185411
0.314997
-0.129586
-0.00347645
-0.00156945
-0.0658243
-0.127593
-0.273479
-0.127967
-0.101263
-0.282496
-0.184627
-0.00572115
0.00026545
-0.00126589
0.128101
-0.0666977
-0.0614035
-0.147859
-0.200012
0.0945336
0.310073
0.188146
-0.301602
-0.176411
0.386308
-0.209897
-0.00823892
0.00545972
0.00277919
-0.447668
0.339201
0.108467
-0.051204
0.129031
-0.0778267
0.10523
0.0793366
-0.184567
0.420652
-0.0636939
-0.0620442
-0.118773
0.0705682
0.05553
-0.126098
0.212681
-0.191738
0.0149137
0.00329889
-0.0182126
0.0272067
-0.0358137
0.00860704
-0.442269
0.116895
0.0979211
0.0273621
0.0607455
-0.104159
0.0790644
0.0626243
-0.141689
0.212977
0.266671
0.0368657
-0.0299138
-0.00695197
0.0542949
0.0174711
-0.405293
0.468607
-0.0633143
0.0207504
0.0700171
-0.0907675
0.0201881
-0.120649
-0.32162
-0.0727199
-0.114879
0.187599
0.0112824
0.00619048
-0.00109555
-0.00714336
0.234771
0.13526
-0.370032
-0.0106778
0.00703502
0.00364275
0.00147713
0.00524505
-0.433532
0.0282396
-0.0152099
0.0228941
0.00890293
-0.00204483
-0.0068581
0.0287387
0.0315302
-0.240921
0.112839
0.202758
0.184869
-0.387627
-0.196824
0.174261
0.0225625
-0.28673
-0.0678219
0.354552
-0.0237218
0.0581926
-0.0344707
0.00387749
-0.00996737
0.276459
-0.215009
-0.0614497
-0.0515973
0.141305
-0.0897078
0.020048
-0.00513428
-0.0103069
0.00705171
-0.0645985
-0.40292
0.129441
-0.0413055
-0.155518
-0.00617147
-0.0121999
0.0183714
-0.0745237
0.41511
-0.072344
-0.150601
0.107279
-0.0648732
0.00412179
-0.046963
-0.0615116
0.0370823
0.0244294
-0.0124267
0.218138
-0.00399638
0.0105082
0.472697
-0.355491
-0.117206
-0.143202
-0.0319347
0.175137
0.314466
0.158232
0.00292247
-0.0281125
0.0251901
-0.171003
0.120566
0.0504372
0.150855
-0.0916986
-0.319547
-0.0920171
-0.00196022
0.000502638
0.00145758
0.213723
-0.13183
-0.081893
-0.00853536
0.00597203
0.089933
0.119488
-0.209421
-0.018311
-0.342425
-0.152785
0.337965
-0.450719
0.112754
0.0130269
-0.223222
-0.0925939
0.315816
0.0080216
0.0288441
-0.175963
0.00998364
-0.000428408
0.0446527
-0.00114721
-0.00867519
0.0098224
-0.0963272
0.306576
-0.210249
-0.103083
-0.179612
0.282695
0.188526
0.0390834
-0.227609
0.00765837
-0.00880558
-0.349167
0.137877
-0.248711
-0.175469
0.424181
0.00445065
0.0160656
-0.0205163
-0.00469121
-0.00598657
0.00707697
-0.470028
0.469812
-0.339634
-0.130179
-0.397457
0.259951
0.137505
-0.116601
0.237921
-0.200103
0.140342
0.0597612
0.202444
0.00642269
-0.0124891
0.0060664
0.0056386
0.0893339
-0.252878
0.163545
0.0597288
-0.316361
-0.106855
-0.117774
0.105771
0.484824
-0.163627
-0.321197
-0.0468562
-0.0675917
-0.0147046
0.00304991
-0.26537
0.183296
0.0820746
-0.047433
0.108094
-0.0606607
-0.0452776
0.136451
-0.0419294
0.0383758
-0.0227954
-0.00431417
-0.00674849
0.0110627
-0.00142493
0.00533943
-0.00391451
0.0126023
0.0399944
-0.163281
0.350527
-0.187246
0.00110841
-0.00306863
-0.424696
-0.0376693
0.0586559
0.0376245
-0.0962805
-0.0735071
-0.393464
-0.143361
0.0874278
0.176568
0.233775
-0.410342
-0.0401396
0.019801
0.114353
-0.262969
0.148615
-0.184316
-0.0810543
-0.105001
-0.0668708
-0.112249
-0.0612591
-0.00341297
-0.00631984
-0.178759
-0.100625
0.279385
0.21198
-0.116104
0.0262827
-0.0126772
-0.171388
0.0990864
0.0723018
-0.0585363
0.0387862
0.0116071
-0.0123048
0.000697734
0.0188458
-0.00607211
-0.0127737
0.0273996
-0.0302552
0.0028556
-0.220521
0.0810698
-0.00166382
-0.00043135
-0.0471961
-0.0744736
0.12167
-0.111486
-0.0723443
0.0470214
-0.0344191
0.0617447
0.0216893
-0.083434
-0.329119
0.051395
-0.0982671
0.512338
-0.354973
-0.157365
0.0715951
-0.0585084
0.0625589
-0.254521
0.236092
0.0184291
0.0614915
0.0150114
-0.0765029
0.00415252
-0.00477139
0.000618865
-0.214947
-0.0889193
0.142503
-0.259105
0.228514
-0.36099
-0.146775
0.0951773
0.0143741
-0.0128648
-0.0015093
0.210079
-0.104848
-0.234699
0.0453769
0.189322
-0.309028
0.380562
-0.071534
-0.00127134
0.0116666
-0.0103953
0.305273
0.284669
-0.00192316
0.0235385
-0.0151809
0.289969
-0.274788
0.0860477
-0.0989136
0.0595247
-0.0309983
-0.181161
0.0689128
-0.368771
0.20549
0.160801
-0.379619
0.218818
0.00497665
-0.00697003
0.0573448
-0.366373
0.267899
-0.224271
0.00160753
0.00218801
-0.00379554
-0.0275188
0.0899351
0.101266
0.0271081
0.131056
0.521779
-0.297479
-0.2243
0.103886
-0.29216
0.005686
-0.00895032
0.00326432
-0.00566007
0.0765861
-0.0885849
0.153007
-0.064422
0.334158
-0.112586
-0.221572
0.114606
0.323683
-0.43829
-0.0610606
-0.0359272
0.0969878
0.0639067
-0.115111
0.0606476
0.0622611
-0.122909
-0.105096
-0.176379
-0.413677
0.0449055
0.00799074
-0.0123049
-0.00303074
0.00871675
-0.122521
-0.0704428
0.192963
0.147971
-0.227611
0.0796399
-0.163065
0.0405769
0.122488
-0.283544
-0.119376
0.0762929
0.0721111
0.0108883
-0.0242341
0.384663
-0.208096
-0.230422
0.156253
0.0741694
0.0557062
0.0445202
-0.0173135
0.0067865
-0.00877819
0.00199169
-0.535179
0.0673727
0.467806
0.203636
-0.12036
-0.077495
-0.143027
0.330647
-0.463205
0.132558
-0.0119463
-0.151118
-0.277074
0.0349405
0.242134
-0.00229734
0.00681381
-0.00451647
-0.405987
0.122443
0.096159
-0.0344143
0.124584
-0.056657
0.10766
-0.296281
-0.0780713
0.374352
0.249097
-0.0584976
0.0883119
-0.0298143
-0.0163203
-0.238201
-0.0343568
-0.0271549
0.00444211
-0.00586703
-0.124244
-0.222778
0.347022
-0.0995014
-0.28841
-0.109046
-0.415423
0.318327
0.0970953
0.0557529
0.0777893
-0.133542
0.422489
-0.299115
-0.00786616
0.00947369
-0.00442048
0.0084005
-0.00398002
0.00515785
-0.0129341
0.00777623
-0.0961793
0.107465
-0.0112854
-0.350187
0.0750383
0.275149
0.0962353
-0.274995
0.249341
-0.160007
-0.0749321
0.126097
-0.0778935
0.1978
-0.421334
-0.0296326
0.450966
-0.285816
0.270635
0.234641
-0.120288
-0.0127278
0.005442
0.00728583
0.192942
0.165157
-0.328904
0.118489
0.210415
-0.0131954
-0.000379542
0.013575
-0.270127
0.201698
0.0684289
0.168336
0.265187
-0.0202356
-0.0291603
-0.0668009
0.170334
-0.103533
0.309364
0.0169116
-0.326276
-0.0534834
-0.0465251
0.100009
0.00410049
5.75587e-06
-0.0456271
0.124692
-0.11883
0.0719737
-0.181155
0.383912
0.375645
-0.225279
-0.150366
-0.170803
0.104002
-0.276662
0.201069
0.0755935
-0.0103056
0.00903423
0.00153496
0.00256554
-0.00222301
-0.0109724
-0.318382
0.132971
-0.00721284
0.0143194
-0.00710659
0.019822
0.295175
-0.339072
-0.082604
0.421676
-0.0319125
0.0682126
-0.0363001
0.352851
-0.252534
-0.100317
0.000913183
-0.00592849
0.00501531
-0.00545547
0.0120369
-0.00658147
0.590103
-0.139501
-0.450602
0.014067
-0.00890912
-0.0789731
-0.0174982
0.0964713
0.011308
0.00753775
0.101493
-0.118977
0.0174839
0.236211
-0.154355
-0.0818557
-0.0251635
0.0143655
0.00420088
0.00621975
-0.0104206
-0.143974
-0.0982572
0.242232
0.00820841
0.00728455
-0.015493
0.00256037
0.00978555
-0.0123459
0.000830526
0.00830353
-0.216395
-0.363975
-0.212617
0.316502
-0.202415
0.0673903
0.135024
0.0652489
-0.103541
0.0382919
-0.0428548
-0.370822
-0.0827371
0.0102098
-0.00929659
0.00472464
-0.00740292
0.00267828
-0.161545
0.222616
-0.0651273
0.014257
-0.00535409
0.0136627
-0.139739
-0.0853904
0.106404
0.0801168
0.38023
-0.192451
-0.18778
-0.176816
0.0653301
-0.00143914
-0.00688706
0.00832619
-0.366788
0.356839
0.00994909
0.204658
-0.394758
0.1901
0.179654
-0.303899
-0.104397
0.0329901
0.040606
-0.0344292
0.343793
0.00160254
-0.00723927
-0.0656802
-0.0105388
0.00972809
0.000810748
0.00345532
-0.370244
-0.00593362
0.0132145
-0.00728085
0.00777126
0.0554131
-0.0631844
0.113528
-0.22076
0.00722293
0.00179718
-0.0689775
0.129625
0.281255
-0.0927297
-0.0190042
0.0538422
-0.034838
-0.0628944
0.0391725
0.0557449
0.0303399
-0.0860848
-0.199353
0.145183
0.0541702
-0.00530479
0.0200988
0.00712535
-0.017149
0.0100237
0.00684478
0.0546467
5.04864e-05
-0.00149395
-0.241744
0.0642817
-0.010618
0.00354483
-0.00142041
0.00990397
-0.00848356
0.121677
0.187824
-0.309502
-0.123714
-0.158103
0.281817
0.286615
-0.178921
-0.299497
-0.115926
-0.0185418
0.0124216
0.00612014
-0.112924
-0.103435
0.216359
-0.22447
0.088703
0.0658353
-0.20981
0.0108875
-0.00535219
-0.00553536
0.202587
-0.096183
-0.157301
-0.0836195
-0.128607
-0.0738078
0.344473
0.24563
-0.00284434
-0.00404777
-0.0288731
0.0317956
0.00765752
-0.000434595
-0.0788511
-0.122191
0.201042
-0.00786236
0.00556503
-0.218559
0.490037
-0.271478
-0.0597806
0.153221
-0.0934407
-0.255177
0.0978755
0.00457949
0.00819824
-0.0531443
-0.0685756
0.12172
-0.341503
0.0215798
-0.0581466
-0.19711
-0.103004
0.300114
-0.0878379
0.425803
-0.431131
0.31748
0.11365
0.0075194
-0.027995
0.0204756
0.0683735
-0.173374
0.0602067
-0.0636205
0.00341388
0.00630855
0.00767324
-0.0139818
0.414188
-0.297449
-0.116739
-0.276399
0.0637822
0.00884231
0.00545067
-0.0126635
0.0391396
0.0327766
-0.0719162
-0.132506
-0.278679
0.411184
0.137778
0.284711
0.118946
-0.0226687
-0.0962775
-0.261672
0.40664
-0.144968
0.0998362
-0.0330255
-0.0668107
-0.119335
0.0721387
-0.0745506
-0.102265
0.331913
-0.442405
0.110491
-0.328226
-0.135297
-0.202138
0.140361
0.0617776
-0.0804644
-0.0592053
0.13967
-0.0692781
0.0640294
0.00524861
0.298583
0.0770615
-0.356076
-0.00677429
0.36285
-0.11261
-0.0895282
0.0208782
-0.0793758
-0.0813455
0.166225
-0.0848796
-0.211182
0.137222
-0.0357286
-0.0115581
0.00101922
-0.435359
0.316431
-0.0220553
0.448319
-0.426263
0.0169229
-0.00979753
-0.135955
0.0355155
-0.0487196
-0.0951874
-0.439991
-0.060987
0.151355
-0.090368
0.00886353
-0.00886353
-0.125333
-0.04547
-0.0495706
0.191486
-0.141915
-0.158651
0.10908
0.00391166
0.00725553
-0.0111672
0.351825
-0.197814
-0.154011
0.00796585
-0.0398506
0.0318848
-0.142363
0.0826842
-0.0110404
0.00558496
-0.294307
0.413377
-0.11907
0.418699
-0.0508791
-0.36782
0.421814
-0.443869
-0.251819
0.38547
-0.13365
0.0913523
-0.0678111
0.228739
-0.104141
0.0552423
0.0488989
-0.436211
0.08072
0.121313
-0.224396
-0.00911604
0.00751963
-0.28499
0.422768
-0.304132
-0.143537
0.276062
-0.400595
0.124533
-0.0291962
0.0209536
0.00824256
0.101863
-0.0366143
-0.461449
0.190589
0.27086
-0.137611
0.0571466
0.137029
-0.0406479
-0.0963809
-0.0436269
0.191598
0.0690883
-0.130927
0.0618385
-0.0197834
-0.041588
0.0613714
0.0802308
0.0465612
-0.126792
-0.0399801
0.120501
-0.080521
-0.142175
0.246105
-0.103929
-0.0771908
0.132944
0.0515155
0.367183
0.0834413
-0.0555629
-0.0801532
-0.00115105
0.0813042
0.146996
-0.408668
0.0559282
-0.148691
0.092763
-0.011829
0.0189028
-0.00707374
0.131374
-0.255087
0.0077097
0.00115383
0.055196
-0.117508
0.0623119
-0.120542
0.0805617
0.216039
-0.00344057
-0.00725844
-0.0544573
-0.0841588
0.138616
-0.0522182
-0.0200073
0.0722255
0.116166
0.0787683
-0.0438498
-0.00476195
0.00624818
-0.00148624
-0.405482
0.32045
0.0850326
-0.117244
-0.129832
0.247076
0.00552305
0.0053645
0.177168
0.0731274
-0.155653
0.0670677
0.0113507
0.0356707
-0.0681042
-0.1025
0.170604
-0.217113
0.0841624
-0.0796387
-0.15506
0.0832278
-0.0440882
-0.178793
0.0562723
0.333741
-0.153115
-0.180625
-0.00709142
0.0069864
-0.0316942
0.211857
-0.180163
-0.430647
0.126516
-0.0249799
0.00865852
0.0163214
0.120834
-0.372653
0.0761694
-0.189582
-0.419278
0.124972
-0.0671564
0.170915
-0.103759
0.00737517
-0.00818406
0.000808882
-0.142806
-0.212456
-0.238359
-0.00730422
0.00237276
0.00493146
-0.129925
0.0127599
8.44065e-05
-0.0128444
-0.346651
0.261521
0.0851305
-0.0178526
0.0118823
0.00597022
0.375478
-0.399451
0.0239733
-0.180533
0.3186
-0.138067
-0.273774
0.232976
0.0407981
-0.00179346
0.0483702
-0.167056
0.0765173
-0.0207724
-0.124719
-0.0462835
-0.00517033
-0.091009
0.110085
0.124311
0.0810069
-0.205318
0.00163166
0.0476065
0.0626628
0.201948
-0.284874
0.0829257
0.0109805
0.00379619
-0.0147767
0.0517571
0.0837942
-0.135551
0.102985
0.0159613
0.00256391
0.00776351
-0.0103274
-0.295247
0.0720252
0.19122
-0.26547
0.07425
-0.0132017
0.0211676
0.0825715
-0.369158
0.0415567
0.327601
-0.0879143
-0.287096
0.375011
-0.412794
0.113297
0.00349333
0.00507226
-0.155331
-0.0440225
0.153208
0.0041106
-0.0700022
-0.0290153
0.244648
0.228533
0.0900673
-0.0742446
-0.0706162
-0.0119953
0.0162806
-0.173345
-0.0795339
-0.294597
-0.118198
0.00407104
-0.00635011
0.00227907
0.431727
0.00496268
-0.0936751
-0.0595259
0.0203724
0.0391536
-0.115394
0.0747463
0.00554185
0.000453704
-0.00599556
-0.10766
-0.229314
0.336974
0.00349868
0.00720033
0.264084
-0.14905
-0.115034
0.0628663
0.442729
-0.0672511
-0.26196
0.104174
0.157787
-0.0037506
0.00241836
0.00133224
0.0206277
0.0334764
-0.0541041
-0.330437
-0.00913132
0.0119099
-0.0027786
-0.326482
0.222259
0.104223
0.0489744
-0.102458
0.00941521
0.0135611
-0.0990963
0.328353
0.0407008
-0.0200731
-0.0210992
0.00908009
0.0120191
0.252681
-0.167564
-0.0851163
0.0650987
-0.0443483
-0.430534
0.11281
0.00354887
-0.00194633
0.27188
-0.162989
-0.108891
0.00577342
0.00660815
-0.0123816
-0.0922409
0.158849
-0.0666086
-0.450627
0.459349
-0.00872265
-0.0113087
0.00794044
-0.246683
-0.0270913
0.187067
-0.0102619
-0.00759064
-0.470494
0.0438483
-0.283082
0.0859723
0.00230779
0.00929928
0.165689
0.0460735
-0.0452074
-0.000866076
-0.229292
0.412511
-0.077487
-0.198217
0.275704
0.153549
-0.0976209
-0.0014592
0.00196184
0.169647
-0.0797135
-0.0440368
-0.00275721
-0.160606
0.321407
-0.050893
0.333051
-0.151788
0.454229
-0.334096
-0.120133
0.00661325
-0.0127847
0.0249349
-0.0568474
0.161034
0.115425
0.0426097
-0.0154249
-0.0271849
-0.0164006
-0.000902871
0.321616
-0.40067
0.0790543
0.216669
0.102696
-0.319365
-0.21035
0.309218
-0.098868
-0.0524614
0.132692
0.129301
-0.0641979
0.177474
-0.105372
-0.0721019
0.0114556
-0.00754399
0.468408
-0.179912
-0.288496
-0.00724414
0.0139186
-0.00667446
0.0836606
-0.143441
-0.00543546
0.0134122
-0.0079767
-0.0143293
-0.0148668
0.185667
-0.270696
0.0850282
0.00224812
0.00772928
-0.0099774
0.0207719
-0.0514172
0.0306453
-0.0259778
-0.00894061
-0.136169
-0.372139
0.077543
0.00614313
-0.000601278
-0.0773435
0.133424
-0.0560803
0.0131278
-0.00120093
-0.0119268
-0.00595377
0.00119182
-0.336879
0.244119
0.0927592
0.0858059
0.12732
0.307988
0.0955961
-0.403585
0.111623
0.139276
-0.0838961
0.135653
-0.101512
0.4095
-0.0472236
0.0161353
0.156399
-0.227348
0.0709497
-0.169896
0.102739
0.0101252
0.0350418
-0.045167
0.000280124
0.0123079
-0.381653
0.120601
0.152863
0.187185
-0.0954658
0.0377929
0.0576729
-0.0072933
0.000399051
0.00689425
-0.0799553
-0.119369
0.199324
-0.0641131
0.00682283
-0.00240264
-0.164689
-0.0478716
0.212561
-0.0138498
0.00630113
0.0075487
-0.130152
-0.219015
-0.0858063
-0.0565569
-0.227516
0.449516
-0.222
0.398241
-0.231203
-0.167038
0.00276351
0.00257592
0.00336652
-0.00912381
0.00575729
0.00204636
0.00980625
0.00348809
0.00317841
-0.0066665
-0.475588
0.342262
0.133326
0.0623154
-0.154556
0.0442185
-0.0326503
-0.0268756
-0.289969
0.0103995
0.279569
-0.00300769
-0.00972015
0.086429
0.162912
0.067909
0.0607216
-0.128631
-0.464757
0.174788
0.338212
-0.327812
-0.00906625
-0.0238155
0.0328818
-0.0204862
0.0135757
0.00691053
-0.0574006
-0.0725177
-0.363694
-0.10164
0.333243
-0.231603
-0.14923
0.481144
0.054042
0.0246719
-0.0787139
0.136601
-0.0890468
-0.047554
-0.211541
-0.13511
-0.0109456
0.00227042
0.0081693
0.00274445
-0.0109137
-0.413829
-0.00853594
0.422365
-0.203616
-0.103708
0.307324
0.0097251
-0.00635857
0.0985622
-0.145072
0.04651
0.00742684
-0.0027022
0.011363
-0.0073625
-0.00400048
0.109314
0.0439077
-0.244556
-0.0923231
-0.232826
-0.0936567
0.0102819
-0.0170602
0.00677833
0.0108732
-0.00349799
0.0836555
0.0529453
-0.0024376
0.0092241
-0.20393
0.0754425
-0.00420926
-0.00591396
0.0101232
-0.243674
-0.129474
0.373148
-0.0201281
0.0122832
0.00784491
-0.2178
0.0780611
0.0967823
-0.0589877
-0.0377946
0.326944
0.151125
0.167575
0.0820506
-0.249625
0.117409
-0.0587528
-0.252305
0.0877852
0.16452
-0.00148946
-0.0063767
-0.430703
-0.0285905
0.459294
-0.00103726
0.023696
-0.0226587
-0.0933662
-0.119401
-0.0624384
0.181839
-0.0314783
0.00682848
-0.00784147
0.0104054
0.102553
0.0717083
0.0209779
-0.0247534
-0.000226554
-0.236307
0.119063
-0.0507371
-0.0624967
0.0182176
0.0442791
0.00974663
-0.00332394
0.00596291
-0.0103834
0.046109
0.118867
-0.222301
0.272435
-0.086768
-0.10147
0.0718215
-0.183368
0.259945
0.138296
0.0390686
-0.0580729
0.00275795
-0.00421715
0.383366
-0.211963
0.00706638
0.00730774
-0.259322
-0.0903011
0.349623
0.119468
-0.039972
0.188303
0.0835762
0.231976
-0.320445
0.0884692
-0.315858
0.105509
0.00150986
0.00573552
-0.00724538
0.423802
0.114008
-0.0607121
-0.0532961
-0.194712
-0.19986
0.394572
0.140837
-0.38451
0.154173
-0.0725056
-0.0816676
-0.0753761
0.0137323
-0.0633227
-0.0862366
-0.145492
-0.204695
0.287205
-0.447811
-0.0576943
0.048628
0.063837
0.104116
-0.167953
-0.00827015
-0.0102716
-0.19167
0.306853
-0.0954583
-0.0677599
-0.160666
0.0861154
-0.0551075
0.0560861
-0.000978574
-0.21213
0.132495
0.250297
-0.169844
-0.422551
0.185463
0.237088
-0.125424
-0.122034
-0.177968
0.300003
-0.161123
0.0837533
0.229536
-0.113575
-0.13873
-0.0117886
-0.00869757
-0.00670362
0.000542733
0.00616089
-0.165684
0.0702256
-0.05366
0.121569
0.392571
-0.00626323
0.0899771
-0.0216222
0.02163
-7.83793e-06
-0.333363
0.231723
-0.3098
0.106184
-0.0723144
-0.0990737
0.00880231
-0.0102227
-0.246269
0.104093
0.0957488
0.127054
-0.222803
-0.0602719
0.198282
-0.110901
0.0957713
0.0151293
-0.00124174
0.016538
-0.00318541
0.0688474
-0.0745075
0.156026
0.04761
-0.120406
-0.141555
-0.292696
-0.172061
0.155165
-0.18474
0.0295744
-0.184714
-0.105677
0.290391
0.0512607
-0.0832359
-0.200081
0.283317
0.00404571
0.0147547
-0.0188005
0.00714174
-0.00287863
-0.00426311
-0.00041979
0.00374733
-0.141126
-0.0665063
0.207633
-0.00274411
0.00681515
-0.0146388
0.00920338
0.0202309
0.0925764
0.129145
0.101677
0.0704492
-0.172126
-0.111977
0.330052
-0.218075
0.00201239
0.00145463
-0.00346702
0.317121
-0.233367
-0.0532759
0.0334925
0.0771167
-0.196518
-0.315634
-0.115013
0.255173
-0.168744
0.00659175
0.00291109
-0.00950285
0.127089
-0.0334994
-0.0935897
-0.0881007
0.253044
0.133772
-0.0202572
0.00842815
-0.00468501
0.00495046
-0.0267713
0.0808134
-0.256487
0.392311
-0.135824
0.00934171
0.00319563
0.0929545
0.0612187
0.042069
0.0609159
0.00077356
-0.0095712
0.00879764
-0.383884
0.189172
-0.171797
0.210881
0.115652
-0.0456354
-0.00367777
0.000121805
0.00355597
-0.0493061
-0.0058014
0.371829
0.0207413
0.00720001
-0.00569016
-0.000150753
4.0284e-05
0.000110469
-0.00643364
0.0106345
0.024299
-0.0115155
0.00136803
-0.366464
0.107142
-0.00064115
-0.0859573
0.0166793
0.156598
0.165514
-0.00612597
0.0341682
-0.0280423
0.080277
-0.0583644
-0.36028
0.227774
0.00384484
-0.0119927
0.00814789
0.00699705
-0.420826
0.0663264
0.0897729
-0.156099
-0.000983806
-0.0206384
-0.3147
0.105888
0.208812
-0.0851601
0.038635
0.112635
0.0186495
-0.0122409
-0.00640858
0.125306
-0.206438
0.0811327
0.275919
0.113767
-0.389687
-0.0267869
-0.0841137
-0.125034
-0.181898
0.306931
0.00861058
-0.00512249
-0.0805043
-0.0610013
0.141506
0.069471
0.0445372
-0.340055
0.228079
-0.135661
0.0309373
0.463512
-0.330303
-0.133209
0.179884
-0.431337
0.251453
-0.182995
-0.100087
-0.145693
0.0598872
7.49956e-06
-0.311657
0.215201
0.0964567
0.0924145
-0.0154352
-0.105893
0.0257396
-0.00437573
0.108712
-0.329086
-0.0233643
0.099815
0.0134414
-0.0698896
-0.493877
0.152761
-0.0782753
0.0973822
-0.0191068
-0.448617
-0.396609
0.140122
-0.508237
0.169165
-0.100483
0.0123628
-0.006143
-0.00707506
0.00150218
0.00557289
-0.493603
0.137528
-0.332901
-0.145188
0.478088
0.005263
0.116452
-0.29149
0.175038
-0.0401627
0.190306
-0.150144
0.23316
0.137778
-0.248472
-0.0613404
-0.310799
0.297398
-0.195961
-0.101437
-0.0106879
-0.306833
0.184799
0.290706
-0.133257
-0.157449
0.0296765
-0.0755012
0.0458247
0.0486724
-0.0220821
-0.0265903
-0.155778
-0.045111
0.200889
0.320622
-0.0858509
-0.215098
0.394982
0.0461995
-0.000126024
-0.43098
0.203464
0.187572
-0.312606
0.0207295
-0.00974893
-0.370902
0.288298
-0.106374
-0.163991
0.270365
0.0337675
0.0630148
0.0761565
0.253962
-0.137509
0.0646072
-0.229296
-0.00908532