/*--------------------------------*- C++ -*----------------------------------*\
| =========                 |                                                 |
| \\      /  F ield         | OpenFOAM: The Open Source CFD Toolbox           |
|  \\    /   O peration     | Version:  v2012                                 |
|   \\  /    A nd           | Website:  www.openfoam.com                      |
|    \\/     M anipulation  |                                                 |
\*---------------------------------------------------------------------------*/
FoamFile
{
    version     2.0;
    format      ascii;
    class       volVectorField;
    location    "250";
    object      U;
}
// * * * * * * * * * * * * * * * * * * * * * * * * * * * * * * * * * * * * * //

dimensions      [0 1 -1 0 0 0 0];


internalField   nonuniform List<vector> 
18540
(
(0.328588 0.0339076 0)
(0.999999 -0.000701601 3.06114e-21)
(1.02148 -0.0160338 7.45372e-22)
(-0.119415 -0.00767616 0)
(1.09094 0.00409979 -7.24242e-21)
(1.10779 0.0405278 1.03621e-20)
(1.091 0.00348226 1.81605e-20)
(1.20732 -0.0122677 0)
(0.628448 -0.13553 7.0115e-20)
(0.999963 -0.0565119 -2.11007e-22)
(0.960052 -0.101001 -1.0242e-20)
(0.989104 -0.0191806 1.16677e-20)
(-0.210767 -0.0168657 -8.18917e-20)
(0.995724 -0.021771 -7.38082e-21)
(0.193523 0.00546965 -5.41911e-22)
(1.279 0.0328171 0)
(1.10991 -0.29223 0)
(0.899363 -0.0911447 0)
(-0.0182638 0.0507647 0)
(0.373248 0.0760498 3.99171e-20)
(0.756609 -0.0265997 -3.56755e-20)
(1.24922 -0.0748089 0)
(1.00227 -0.00634804 7.23864e-22)
(-0.276441 -0.264856 0)
(1.20213 -0.0057468 0)
(1.06229 -0.183889 0)
(0.112487 0.0241177 1.20551e-19)
(1.20631 0.0248246 2.31512e-20)
(1.11484 0.0215158 -2.04746e-20)
(0.937154 0.0636459 3.21203e-20)
(1.0001 -0.00107122 -5.44582e-21)
(0.995099 -0.0149804 0)
(1.25864 0.0485474 -2.52786e-20)
(-0.0837439 -0.250245 -3.05615e-20)
(1.01666 -0.140004 0)
(-0.136577 -0.00997472 0)
(1.25393 -0.0829877 4.72105e-20)
(1.00812 -0.0101689 1.06482e-21)
(1.03303 -0.00589862 -2.38729e-21)
(0.728135 -0.374007 0)
(1.00021 -0.00151983 1.31708e-21)
(0.998755 -0.0131137 1.55561e-20)
(-0.187557 -0.0251031 0)
(0.596362 0.0300901 2.52451e-20)
(1.20405 0.0176998 -1.93556e-20)
(1.06173 -0.189223 0)
(1.10345 -0.663626 -5.78459e-20)
(1.02077 -0.0155113 -4.13417e-22)
(0.767939 -0.03746 -6.81056e-20)
(1.13563 0.0226919 -1.47301e-20)
(0.995122 -0.021214 -6.52617e-21)
(0.0623057 0.185363 0)
(0.312528 0.0703828 0)
(1.00018 -0.000662744 0)
(1.06082 -0.155962 1.49124e-21)
(1.11036 0.0511373 0)
(-0.220629 -0.0180997 8.00612e-20)
(-0.181405 -0.0487501 -9.06171e-20)
(-0.353723 -0.0290555 0)
(1.03476 0.00306405 0)
(-0.282201 -0.0244197 5.4317e-20)
(1.10624 -0.0325436 0)
(1.06059 -0.142263 6.73006e-21)
(1.20861 -0.368576 0)
(0.385912 0.042821 9.68636e-20)
(1.02815 -0.0219239 1.68761e-21)
(0.856699 -0.351261 -2.24246e-20)
(1.00179 -0.00131539 1.70241e-21)
(-0.361523 -0.0304212 -3.87235e-20)
(1.03245 -0.00461351 3.13883e-21)
(1.10685 0.048618 0)
(0.849228 -0.142476 2.15755e-20)
(1.26091 0.033882 0)
(-0.162165 -0.0512008 1.4446e-19)
(1.15222 0.0790747 2.75422e-20)
(1.16425 -0.367628 8.84351e-20)
(1.10122 -0.28533 0)
(1.00282 -0.000985272 3.64748e-22)
(0.905299 -0.097157 6.13649e-21)
(1.26568 -0.245578 2.16418e-20)
(1.02118 -0.103582 -6.41365e-22)
(0.890415 -0.092005 0)
(1.00802 -0.00935221 0)
(1.27069 0.103584 -2.10345e-20)
(-0.278779 -0.0236041 0)
(0.150707 -0.0233072 -5.53177e-20)
(1.00105 -0.0389796 0)
(1.00159 -0.00547127 0)
(1.07381 -0.103959 0)
(0.138963 -0.0302448 8.49632e-20)
(1.33179 -0.217035 1.41107e-20)
(1.28177 -0.0392884 1.17342e-19)
(1.07216 -0.22546 -5.27432e-21)
(1.02116 -0.00101527 -5.20002e-23)
(1.09986 -0.00622174 -5.06092e-22)
(0.999293 -0.0610162 1.09248e-20)
(1.04935 -0.0978083 8.41071e-21)
(1.16239 -0.0361262 6.14605e-20)
(0.100581 0.184563 -4.97234e-20)
(-0.182257 -0.0151211 -2.33575e-20)
(1.05228 -0.0119279 3.34724e-21)
(1.00459 -0.000766866 -1.39833e-21)
(1.25115 -0.238862 -6.60283e-20)
(1.27714 0.0350432 0)
(-0.283605 -0.022484 -2.17693e-20)
(1.256 0.045473 0)
(1.05367 -0.0138141 8.2995e-21)
(-0.104349 -0.0414657 1.97792e-19)
(1.05555 -0.143063 -5.42443e-21)
(0.9277 -0.0612548 0)
(-0.22973 -0.0155576 -1.06638e-20)
(-0.29035 -0.12814 6.94237e-20)
(1.00252 -0.000959527 0)
(1.04771 -0.128858 -2.90819e-21)
(0.0148865 -0.0346555 -7.4773e-20)
(1.04038 -0.188209 1.9381e-21)
(1.03015 -0.203141 1.73782e-21)
(1.16109 -0.0391562 -8.69257e-22)
(1.01635 -0.138208 0)
(1.11041 0.0383494 1.27091e-20)
(-0.0299251 0.025047 -8.45527e-20)
(0.73932 -0.100155 3.29658e-20)
(-0.290064 -0.0237384 5.63286e-20)
(0.505713 -0.00109874 -2.72599e-20)
(1.00467 -0.00822775 5.0759e-21)
(1.11119 0.0220417 2.10252e-20)
(1.13156 0.0449578 1.54511e-20)
(0.919956 -0.1814 8.55783e-21)
(-0.189501 -0.0246489 0)
(1.15942 -0.360107 -8.46646e-20)
(1.28783 -0.412432 7.44314e-20)
(1.05086 -0.182609 1.77007e-21)
(1.15155 0.0728591 0)
(0.745614 0.0444137 -1.27656e-20)
(1.01989 -0.0159645 0)
(1.0168 -0.00170359 -1.52006e-21)
(0.962696 -0.0959998 1.96444e-20)
(1.09336 -0.113914 0)
(0.970743 -0.0389477 5.46557e-21)
(1.02866 -0.0215382 -8.15428e-22)
(0.388804 0.0455302 3.14217e-20)
(1.25739 -0.00409833 -5.36455e-20)
(1.15092 0.0111869 -2.17963e-20)
(-0.157073 -0.0125997 -2.19844e-20)
(1.03111 -0.013319 2.73302e-21)
(1.02172 -0.0103398 2.90771e-21)
(1.12914 0.0472678 1.34451e-20)
(0.711001 0.0437455 0)
(1.09205 -0.117872 0)
(0.697264 -0.0988563 -3.71877e-20)
(1.01668 -0.00947993 0)
(0.964522 -0.0491647 5.03837e-22)
(1.02566 -0.0150361 6.00769e-22)
(-0.0346093 -0.0303632 -1.38441e-19)
(0.613133 -0.454671 0)
(0.648517 -0.113316 0)
(0.746395 -0.0773189 0)
(1.0315 -0.0138005 1.03711e-21)
(1.01023 -0.0273925 -5.27876e-21)
(-0.0756207 -0.0455131 -1.92542e-19)
(1.20911 0.0699109 0)
(1.15459 0.0459915 -3.65102e-21)
(0.999811 -0.00176392 6.29411e-21)
(1.01947 -0.0150663 0)
(-0.0248644 0.0205365 0)
(0.989274 -0.0191037 -9.60141e-21)
(0.667018 0.0369993 4.83854e-20)
(0.919211 -0.170182 -8.73978e-21)
(0.233228 0.0104983 -3.44964e-20)
(1.04558 -0.0270441 0)
(1.00156 -0.0055634 0)
(1.11559 0.0320213 0)
(1.06263 -0.0849203 0)
(1.07395 -0.104619 -7.21106e-21)
(1.01562 -0.0548245 -1.76408e-21)
(0.320189 -0.0178856 6.41508e-20)
(1.10344 -0.0342582 0)
(-0.114304 0.0148185 0)
(0.594655 -0.530661 0)
(1.05316 -0.582289 6.77855e-20)
(1.07004 -0.103664 0)
(0.946702 -0.220413 1.73919e-20)
(1.15627 0.0474828 -6.42724e-21)
(1.27814 -0.0329714 -1.45371e-19)
(0.921171 -0.062502 -1.70402e-20)
(-0.121503 0.0309413 0)
(0.976869 -0.0626113 0)
(1.09175 -0.0116796 -7.07181e-21)
(1.36355 -0.046852 7.97654e-20)
(1.02844 -0.192285 -1.5686e-21)
(1.115 0.0255446 -1.03223e-20)
(1.02078 -0.096584 2.02519e-21)
(-0.064656 -0.13894 0)
(1.00424 -0.00818764 -4.03495e-21)
(0.71576 0.117532 0)
(1.00974 -0.027168 0)
(1.12708 0.0529841 -1.4212e-20)
(1.30556 0.023518 6.65187e-20)
(1.27116 0.104919 -5.09373e-20)
(1.05445 -0.126897 2.02478e-21)
(1.06989 -0.186993 -6.87628e-21)
(1.2895 -0.0513025 1.2029e-19)
(0.942961 -0.180548 -2.36859e-20)
(1.1313 0.0251003 7.65072e-21)
(0.246302 -0.00171403 -6.3968e-20)
(-0.271333 -0.117756 7.58925e-20)
(0.987291 -0.0205676 -5.25196e-21)
(-0.142619 -0.0099214 0)
(-0.204999 -0.0076472 -3.76958e-20)
(1.15124 -0.00699686 6.2142e-21)
(0.995324 -0.0144832 0)
(-0.325095 -0.03556 -9.72059e-20)
(-0.131246 0.0109842 1.81745e-22)
(1.00082 -0.00468403 0)
(1.06737 -0.21784 0)
(1.15568 -0.0408515 0)
(0.413087 -0.00592243 2.77001e-20)
(1.03203 -0.457144 0)
(-0.285711 -0.262616 -5.48956e-20)
(1.03257 0.0604311 -8.6314e-20)
(-0.335213 -0.0344659 1.95082e-19)
(1.19547 -0.219532 2.03805e-20)
(0.897798 0.0469043 0)
(0.652142 -0.0613705 1.09933e-19)
(1.10525 -0.656664 1.04963e-19)
(0.00655131 0.0134226 2.79394e-20)
(1.14362 -0.0569288 0)
(1.15021 -0.00216809 -2.08149e-20)
(-0.357164 -0.0302752 -4.56858e-20)
(1.18296 0.0375479 0)
(1.0538 -0.0921556 -2.74138e-21)
(1.33158 -0.0286488 -6.67196e-20)
(1.2633 0.0385215 4.77268e-22)
(1.04887 -0.0969368 -3.81184e-21)
(0.999822 -0.00174919 0)
(1.10166 -0.000501659 -1.19674e-20)
(0.996228 -0.014517 0)
(0.866272 -0.0263142 0)
(1.20677 0.0583375 0)
(0.935297 -0.189362 3.33123e-22)
(0.341536 -0.133403 0)
(1.18869 -0.485192 1.30326e-19)
(1.29713 -0.26348 -5.8694e-20)
(1.14261 -0.0562021 -2.56209e-20)
(0.268574 0.000388979 7.26357e-20)
(-0.229996 -0.0246884 9.35636e-20)
(1.00021 -0.00137375 3.225e-21)
(1.02137 -0.0111765 0)
(1.1369 -0.0711058 0)
(0.987137 -0.0418793 1.32168e-20)
(1.10566 -0.32544 1.12769e-20)
(-0.222044 -0.00887153 8.69558e-20)
(-0.240442 -0.0337023 7.00206e-20)
(0.961964 -0.0509046 -1.71361e-20)
(0.917175 -0.0607123 0)
(1.20655 -0.355071 7.66636e-20)
(1.33815 -0.060973 0)
(0.501012 -0.290563 7.15499e-20)
(0.98991 -0.0180079 -8.72925e-23)
(-0.0788136 0.0810743 0)
(1.18351 -0.375075 -3.65114e-20)
(-0.00694965 0.0339221 -2.52559e-20)
(0.970348 -0.0261122 -3.46666e-20)
(1.00088 0.637709 -2.22222e-20)
(-0.290455 -0.0249921 0)
(1.13714 -0.0711911 2.17249e-20)
(0.704218 0.0313657 -1.49233e-19)
(0.252967 0.041192 0)
(1.00833 -0.010202 8.50395e-22)
(1.00093 -0.00518116 -1.75517e-21)
(-0.291498 -0.0330668 8.91354e-20)
(-0.144409 0.0336843 0)
(0.503501 0.280537 8.75629e-20)
(1.06462 -0.040477 -1.19342e-20)
(1.26413 0.0160002 -1.03368e-19)
(0.12506 0.000208148 0)
(1.02534 -0.0142668 2.16214e-21)
(1.1835 -0.0383629 3.51316e-20)
(1.33339 -0.211605 7.14472e-20)
(1.00777 -0.025282 8.68586e-21)
(0.999988 -0.00780401 5.43935e-21)
(0.235708 0.0096289 4.3908e-20)
(1.08929 -0.0442008 -1.97424e-21)
(0.996518 -0.0142314 -1.03066e-20)
(0.292919 -0.576979 -8.4308e-20)
(1.03315 -0.00432578 -7.12735e-21)
(0.376868 0.3005 -1.8409e-19)
(1.18057 0.0323931 2.0618e-20)
(-0.130472 -0.00486146 0)
(1.26449 0.0326623 0)
(-0.0337761 -0.0307037 0)
(1.0976 0.064874 7.97684e-20)
(1.01609 -0.256813 -7.77102e-23)
(1.0082 -0.00941386 0)
(0.615463 -0.0990309 1.41253e-19)
(1.15326 0.0908274 -1.34929e-20)
(1.30115 0.0191232 -5.99522e-20)
(1.06982 -0.185056 1.48087e-20)
(1.06952 -0.0376854 -1.0379e-19)
(0.702925 0.10565 0)
(0.986128 -0.0367016 0)
(-0.344966 -0.0272972 0)
(1.32316 0.15738 -7.48965e-20)
(0.800322 -0.207259 5.16343e-20)
(0.893324 -0.364261 -2.01501e-20)
(1.00096 -0.0174007 0)
(0.326489 -0.14573 0)
(1.01628 -0.00957338 -1.59043e-22)
(0.516449 -0.312559 6.642e-20)
(0.995719 -0.0147067 0)
(-0.0503394 0.0200868 -5.10309e-20)
(1.06177 -0.00707111 0)
(0.100013 -0.00160203 0)
(1.13048 0.0497899 0)
(1.38915 -0.341557 1.01305e-19)
(0.245099 0.335327 -6.51879e-20)
(0.152216 0.00185612 -1.68235e-20)
(0.991666 -0.012518 -9.75096e-21)
(0.967987 0.0447584 0)
(-0.192235 -0.038634 -1.52465e-19)
(-0.275794 -0.0211251 -2.41267e-20)
(0.549682 -0.470091 -5.61704e-20)
(0.988707 -0.041342 0)
(-0.363782 -0.0296088 0)
(1.08732 -0.0491332 3.27784e-21)
(1.04763 0.00479818 3.3121e-21)
(1.15452 0.038068 0)
(1.04429 -0.131602 0)
(1.0011 -0.0201165 8.54255e-21)
(1.00751 -0.0166427 -1.67978e-21)
(1.02188 -0.0109562 -1.53108e-21)
(1.2545 -0.0105193 4.4264e-20)
(0.59432 -0.36403 -7.05662e-20)
(0.872221 -0.0328035 -6.87711e-20)
(1.27427 -0.441209 -7.16422e-20)
(1.13985 -0.353486 1.71555e-20)
(1.04654 -0.0262202 -5.76679e-21)
(1.0008 -0.00596541 -2.01029e-21)
(-0.272203 -0.0142736 4.47833e-20)
(0.803072 -0.228567 0)
(1.15274 -0.0455872 0)
(1.15215 0.0098642 -2.57394e-20)
(1.08612 -0.0143025 1.29194e-20)
(0.866474 -0.354263 0)
(1.3438 -0.12726 4.93335e-20)
(0.606067 -0.405393 3.30061e-20)
(1.00778 -0.0247641 -3.59883e-21)
(1.19541 -0.233946 -4.76421e-20)
(1.0934 -0.0030642 -1.62282e-20)
(0.401586 -1.23061 0)
(0.857792 -0.601576 -3.04447e-21)
(1.00073 -0.00553747 -1.96896e-21)
(0.743793 -0.115827 -2.40434e-19)
(1.00529 -0.0580495 -1.98997e-21)
(1.00018 -0.00758214 -3.5061e-22)
(0.228721 -0.00298396 5.3833e-20)
(1.001 -0.00612937 3.66079e-21)
(1.02648 -0.0154846 0)
(1.01613 -0.0384965 0)
(-0.0928983 0.062774 -2.54019e-20)
(1.15727 0.0866653 4.09809e-20)
(1.01872 -0.0155662 -2.78285e-22)
(1.0008 -0.0170058 8.7416e-21)
(1.06693 -0.10077 0)
(0.00806515 -0.0378028 0)
(1.00134 -0.251629 -1.00129e-21)
(1.033 0.00270443 -5.68279e-23)
(0.998783 -0.0133839 -4.24878e-21)
(1.04597 -0.0284055 -2.96839e-21)
(1.00506 -0.0090387 -3.94285e-21)
(-0.149434 -0.0141658 -5.2193e-23)
(1.01996 -0.00993957 -1.75427e-21)
(1.3268 -0.149026 0)
(0.995761 -0.102463 1.61937e-20)
(1.00084 -0.00609931 -2.05326e-21)
(1.32273 0.146276 0)
(0.995866 -0.0141404 0)
(1.31756 0.14347 0)
(1.08844 -0.0414034 1.52994e-21)
(-0.168717 -0.436597 3.95677e-20)
(0.467384 -0.135905 -7.70509e-20)
(1.01571 -0.00919782 -1.81223e-22)
(1.11827 -0.312793 4.32625e-21)
(1.33639 -0.0295558 3.7243e-20)
(0.951979 -0.15258 1.22714e-21)
(1.02218 -0.0100999 -1.88692e-21)
(0.571829 0.0891623 -1.54312e-21)
(0.916913 0.061585 5.82934e-20)
(1.00063 -0.00059237 -4.40663e-21)
(1.29014 -0.231702 -1.17414e-19)
(0.316488 -0.00225025 -1.49555e-19)
(1.01532 -0.0092782 1.36653e-22)
(1.07755 -0.0991074 7.00243e-21)
(-0.345788 -0.0261989 -1.37468e-19)
(-0.156646 -0.0139952 -1.08243e-19)
(1.00135 -0.0133262 4.59731e-21)
(-0.186294 -0.0348547 0)
(-0.137021 -0.00778733 0)
(1.00053 -0.000405301 4.56792e-21)
(0.383783 0.322082 9.73434e-20)
(0.0865878 -0.097634 0)
(0.666176 0.0358278 -3.44618e-22)
(1.09161 -0.00476611 1.48869e-20)
(0.998677 -0.0054112 -1.21701e-20)
(1.15702 0.02138 7.6751e-21)
(1.02803 -0.0151278 7.31599e-22)
(0.779023 0.059264 4.0716e-22)
(-0.301626 -0.0245177 0)
(0.986352 -0.0496468 0)
(1.1762 0.107843 1.78723e-20)
(-0.190159 -0.381928 8.9401e-20)
(-0.227516 -0.0357914 -1.43082e-19)
(1.18262 -0.357118 -3.56289e-20)
(1.01829 -0.0146726 2.78784e-22)
(1.1585 0.0181785 2.46912e-20)
(0.101186 -0.404546 0)
(1.00084 -0.00653043 3.98835e-21)
(1.11317 0.048257 0)
(1.30832 -0.258197 -7.08761e-20)
(0.584747 -0.315942 0)
(0.708351 -0.581093 2.43979e-20)
(0.326514 0.0354691 -3.13315e-20)
(1.00498 -0.00879957 2.53615e-21)
(0.0701571 0.230214 0)
(1.01828 -0.00551102 -6.02361e-22)
(1.16133 0.051758 5.11988e-20)
(1.01856 -0.00544467 -3.92051e-23)
(0.513735 0.399487 5.9093e-20)
(0.964808 -0.139217 -2.80259e-20)
(1.03026 -0.196361 9.32843e-22)
(1.00685 -0.015898 0)
(0.0149298 0.0324352 -5.15506e-20)
(1.16226 0.031944 -2.52622e-20)
(0.174496 0.0362306 0)
(1.04269 -0.0996674 5.52361e-22)
(0.551664 0.635108 0)
(1.00197 -0.00634089 -6.76053e-22)
(1.0227 -0.00488341 1.0144e-21)
(0.590206 -0.0918249 0)
(0.993223 -0.0227359 3.90603e-21)
(0.550954 0.118297 -6.62026e-22)
(0.932756 -0.0592695 0)
(0.636201 -0.0271068 -1.47907e-19)
(-0.243502 -0.0211024 -4.08437e-20)
(0.994211 -0.0220388 1.03637e-22)
(1.05371 -0.0158111 -1.19873e-20)
(0.97908 -0.0314996 0)
(-0.258953 -0.0226727 5.23749e-20)
(0.989886 -0.0179334 9.06054e-21)
(1.03395 -0.00330895 3.70077e-21)
(0.337694 -0.0627503 0)
(-0.187218 -0.033649 -9.93242e-20)
(1.01625 -0.00176265 9.07427e-23)
(1.02413 -0.00550627 -1.14928e-21)
(1.0476 0.00327604 0)
(0.974216 -0.0163169 1.11712e-20)
(1.12346 0.0668489 8.2719e-21)
(0.99483 -0.0225308 7.13135e-21)
(-0.283198 -0.024542 0)
(0.132919 0.0512566 -1.36669e-19)
(1.08654 0.0187798 -3.25267e-22)
(1.0151 -0.0538309 0)
(1.15616 0.0345317 -2.29032e-20)
(1.07787 -0.101506 1.66057e-20)
(1.00106 -0.00454431 6.77431e-24)
(1.05732 -0.219963 1.38839e-20)
(0.233611 -0.0192738 0)
(1.09209 0.0257897 1.5084e-20)
(1.29341 0.0189172 6.37548e-20)
(1.26083 0.0201092 1.2057e-19)
(0.54344 -0.969739 0)
(0.874352 -0.379282 -1.61489e-20)
(-0.240911 -0.0417191 -6.48465e-20)
(-0.0840698 -0.057113 0)
(0.613244 -0.392673 0)
(1.02959 0.00053867 4.4019e-21)
(0.0176925 0.0359096 8.58885e-20)
(1.00428 -0.000686108 2.70838e-21)
(1.1863 0.035276 0)
(1.021 -0.0008685 8.47509e-22)
(1.18802 -0.0432398 -5.04108e-20)
(1.02855 -0.00234635 -1.88736e-21)
(0.605354 0.0317689 1.38056e-19)
(0.98681 -0.0440141 0)
(1.0942 0.0240367 -1.5487e-20)
(1.01281 -0.134371 -3.70919e-21)
(1.15377 0.0678033 0)
(-0.194715 -0.0398937 -1.08327e-19)
(0.99126 -0.0227147 0)
(1.06631 -0.0412563 0)
(0.357286 0.304154 0)
(1.20577 0.0537678 8.81874e-20)
(0.74906 -0.36689 0)
(-0.291336 -0.0245123 0)
(-0.254507 -0.23796 8.1379e-20)
(0.244807 -0.660708 -5.14827e-20)
(1.04186 -0.125919 3.23816e-21)
(0.019004 0.0382237 5.03635e-20)
(1.28836 -0.00177579 0)
(0.963261 -0.0945384 -1.82849e-20)
(0.55959 -0.451735 0)
(0.927548 -0.368402 1.15526e-20)
(1.03364 0.00251825 4.64094e-21)
(1.02674 -0.42933 0)
(1 -0.000966343 -3.56253e-21)
(1.08919 -0.0466287 -4.57646e-21)
(0.877971 -0.553758 6.15596e-23)
(1.05916 0.00385384 -5.58652e-21)
(0.767214 -0.330276 0)
(-0.0928416 0.0170546 0)
(0.986092 -0.0370881 7.71831e-21)
(0.974695 -0.016866 -3.64063e-20)
(0.998583 -0.0130024 -8.5142e-21)
(1.17457 0.101708 -1.76089e-20)
(0.0941908 -0.150929 0)
(1.00005 -0.101485 -9.16211e-21)
(1.10928 -0.0247798 -1.09891e-20)
(1.00957 -0.00884139 -8.15193e-23)
(-0.24086 0.0392954 6.65413e-20)
(1.00204 -0.00108341 1.9875e-21)
(0.418408 0.251771 4.51005e-20)
(0.997381 -0.0128927 0)
(1.1363 -0.344783 0)
(0.940377 -0.0182053 0)
(1.15167 0.0656067 -1.69372e-20)
(1.02913 0.000182655 -8.74128e-23)
(1.00127 -0.0111251 0)
(-0.148663 -0.00763638 0)
(1.00925 -0.00837087 0)
(1.00212 -0.0380021 5.56243e-21)
(0.0827832 -0.0450491 8.64098e-20)
(1.1917 -0.458065 -3.27185e-20)
(1.02239 -0.252191 0)
(1.00185 -0.00574318 0)
(1.00017 -0.000944287 -1.7374e-23)
(1.06017 -0.00904846 -2.37842e-21)
(0.125514 0.0566268 -2.14934e-20)
(1.05769 -0.586694 4.84757e-20)
(1.02055 -0.172295 1.34181e-21)
(1.00017 -0.0367071 -5.634e-21)
(1.00064 -0.00461411 0)
(0.83673 -0.0594244 -2.6675e-20)
(1.3327 -0.162378 -6.15132e-20)
(1.17777 -0.177018 -3.57801e-20)
(1.08989 0.036339 0)
(1.02898 -0.000237789 0)
(-0.228032 -0.0435462 0)
(0.155625 0.061787 0)
(0.940199 -0.0858702 2.42851e-20)
(1.13804 -0.0074766 0)
(0.900356 -0.0172457 4.06381e-20)
(1.01759 -0.0151522 0)
(1.2642 0.0318374 0)
(0.327213 0.0389444 0)
(1.02812 -0.00175682 0)
(1.12672 0.0611533 -2.21879e-20)
(1.29684 0.0221645 5.91928e-20)
(0.639916 -0.170324 1.50786e-19)
(-0.210422 -0.0179055 0)
(1.00784 -0.000983937 1.5428e-21)
(1.05518 -0.0918685 3.03163e-21)
(1.03644 -0.128125 -3.09469e-21)
(1.02028 -0.00548973 -7.42603e-22)
(0.904116 -0.0157153 -2.54382e-20)
(1.0736 -0.0414373 3.17171e-22)
(-0.138757 -0.0152959 -5.72451e-20)
(1.01711 -0.0142936 0)
(0.933708 -0.38911 -1.63068e-20)
(0.903839 -0.0142834 0)
(0.946846 -0.227137 -3.62774e-20)
(1.02952 -0.00367454 3.98472e-21)
(0.999952 -0.00136497 0)
(1.05087 -0.487117 4.23041e-20)
(1.05971 0.00268238 -3.02551e-21)
(0.685078 -0.527114 -2.3427e-21)
(-0.113383 -0.0554678 -1.09408e-19)
(1.04137 -0.00168806 -2.17715e-21)
(1.0492 -0.129605 -5.2661e-21)
(1.0481 0.00294564 -2.83867e-21)
(1.0256 -0.0217376 2.29595e-21)
(1.28033 -0.0728313 -3.20493e-20)
(1.0009 -0.00472126 -3.23308e-21)
(0.151434 -0.0471016 -7.94793e-20)
(-0.116631 0.133153 4.51598e-20)
(-0.321564 -0.0251063 -5.28037e-24)
(0.848864 -0.0270172 2.86195e-20)
(0.999323 -0.0288212 -2.85253e-21)
(0.991221 -0.0220812 5.32173e-21)
(1.08397 0.0189757 -5.9695e-21)
(1.34418 -0.0443895 0)
(1.13748 0.0309597 2.66553e-20)
(1.02333 0.000102309 -2.50933e-22)
(0.997605 -0.0134621 0)
(0.987647 -0.0470417 0)
(-0.270182 -0.0320377 0)
(0.991011 -0.0123122 2.4731e-21)
(1.04288 -0.00699811 0)
(-0.363808 -0.0326067 1.30471e-20)
(1.07 -0.0424933 0)
(1.0331 -0.00574182 0)
(0.7582 -0.126662 -2.33242e-19)
(1.21123 0.0500361 5.02218e-20)
(1.04573 0.00143692 0)
(0.902328 -0.242952 0)
(-0.0721782 -0.0435842 0)
(0.95721 -0.150872 2.49296e-20)
(1.06058 -0.208712 -6.61591e-21)
(0.998517 -0.00545459 -8.59001e-21)
(0.995807 -0.011378 -9.19119e-21)
(1.21581 0.0436442 1.38966e-20)
(1.09158 0.0305355 1.29207e-20)
(-0.233467 0.0475537 -3.94638e-20)
(-0.0300135 -0.0507529 0)
(-0.358439 -0.0322158 1.0546e-19)
(1.01605 -0.0379505 0)
(-0.283719 -0.0151359 0)
(1.01684 -0.0396076 0)
(1.00001 -0.00144181 -1.88753e-21)
(0.816318 0.0756187 1.14903e-23)
(1.05009 0.006919 0)
(0.128872 0.0431062 4.79482e-20)
(-0.237927 -0.0210547 -3.58347e-20)
(1.01221 -0.000593846 0)
(-0.309484 -0.0234933 -5.72225e-20)
(1.24274 -0.339761 0)
(-0.260413 -0.204523 -3.68859e-20)
(1.15488 -0.214999 0)
(1.08815 0.014816 -1.43467e-20)
(0.369967 -0.159263 1.74512e-22)
(-0.248122 -0.0185895 0)
(1.11403 -0.00221498 0)
(-0.146774 -0.318646 5.50124e-20)
(-0.28712 -0.0379146 -8.5099e-20)
(-0.218465 -0.0254967 -1.39556e-19)
(1.00009 -0.000620991 -2.17724e-21)
(1.05881 -0.00738807 4.54407e-21)
(0.939407 -0.0444639 0)
(1.33906 -0.0104832 -1.95144e-20)
(1.02916 -0.000464749 -5.09962e-22)
(1.11612 0.0247707 0)
(0.170703 0.0501227 0)
(-0.148855 -0.00300069 -1.30736e-20)
(0.971263 -0.0423664 -1.17006e-20)
(1.12936 0.0583015 -2.44872e-20)
(0.259591 -0.147784 -4.78546e-20)
(0.599899 -0.355881 1.23899e-19)
(1.0172 -0.095787 3.51418e-21)
(1.0686 -0.149214 -7.98283e-21)
(0.996219 -0.0105301 -1.81025e-20)
(0.965564 -0.0908714 1.91257e-20)
(-0.168727 0.0129861 6.89918e-20)
(1.00621 -0.0153828 4.77503e-21)
(0.996658 -0.011258 0)
(1.04239 -0.00217196 -6.22534e-21)
(0.858892 -0.134469 0)
(0.635659 0.0360201 -6.3224e-20)
(1.04528 0.0023662 0)
(0.0693265 0.0587062 -8.72656e-20)
(1.04826 0.00443442 -3.43646e-21)
(-0.238335 -0.013749 -6.55191e-20)
(1.00559 -0.0149132 -6.83336e-21)
(-0.249842 -0.0763276 0)
(0.857936 -0.523483 0)
(1.10247 -0.00751045 1.81258e-20)
(-0.160066 -0.0512341 2.53525e-20)
(1.17604 -0.172926 3.41711e-20)
(0.978911 -0.0317667 8.11344e-21)
(0.652493 0.0411506 4.64514e-20)
(0.83232 0.0654862 0)
(0.781138 -0.074834 0)
(1.02565 -0.112434 1.9248e-21)
(0.239248 0.368293 -2.28684e-21)
(-0.152186 -0.342092 -6.49349e-20)
(0.771309 -0.355687 0)
(0.0421351 0.0358305 0)
(0.978766 -0.0589337 -4.98054e-21)
(-0.261691 -0.00925715 -8.44176e-20)
(-0.220576 0.0539498 4.7817e-20)
(1.0422 -0.0248642 0)
(0.997142 -0.0357076 2.66654e-22)
(1.0021 -0.0568468 -3.97692e-21)
(1.02482 -0.0216928 -1.60877e-21)
(-0.277262 -0.093787 1.42743e-19)
(1.10932 -0.00445193 0)
(1.06099 -0.0805503 -3.59552e-21)
(1.11609 -0.00434359 0)
(-0.183492 0.00913427 1.33838e-19)
(1.06831 -0.148681 8.54878e-21)
(1.0911 -0.00635624 -2.66235e-20)
(0.942202 -0.0457573 1.28816e-20)
(1.0126 -0.00035079 9.15333e-22)
(-0.0985771 -0.180516 0)
(0.525465 0.400848 0)
(-0.137933 -0.0530958 0)
(1.11802 -0.0569664 2.87904e-20)
(-0.159723 -0.0161876 0)
(1.02421 -0.00486053 -2.23196e-21)
(1.14493 -0.185678 0)
(1.08919 -0.00767481 1.19076e-20)
(-0.285419 -0.0330005 0)
(0.973742 -0.220603 0)
(1.03224 -0.00623606 -3.24502e-22)
(1.06873 -0.0410494 0)
(1.05267 -0.0277719 0)
(1.02327 -0.00510851 -2.19256e-21)
(1.02109 -0.00530159 8.62943e-22)
(0.422999 -0.270304 1.40474e-19)
(1.0128 -0.130487 1.61549e-21)
(0.684683 0.0707806 0)
(-0.319418 -0.0231024 0)
(1.03462 -0.0044774 1.37286e-21)
(1.05759 -0.00900785 -7.0526e-23)
(-0.268542 -0.0813096 -6.50434e-20)
(-0.294636 -0.0177342 -6.81137e-20)
(0.885242 0.0704366 -5.51376e-20)
(0.999283 -0.00996908 0)
(1.00106 -0.0050538 1.03538e-20)
(0.862122 -0.0662707 4.33449e-20)
(1.01377 -0.00527715 5.54127e-23)
(1.08188 -0.356986 0)
(1.29335 -0.00274061 -9.48307e-20)
(0.966064 -0.0892179 0)
(1.00002 -0.000179182 4.74843e-21)
(1.00136 -0.00536639 -3.05671e-21)
(1.08313 -0.14567 0)
(0.923734 -0.165634 3.37221e-20)
(0.758575 0.0195746 3.23285e-20)
(0.995343 -0.0115642 4.15391e-21)
(0.999945 -0.00132062 5.47726e-21)
(1.07826 -0.141521 0)
(1.05206 -0.478279 -3.34849e-20)
(0.934311 -0.0770906 1.77196e-20)
(1.11165 -0.00766922 0)
(1.15565 -0.215323 0)
(-0.229716 -0.0123827 7.55942e-20)
(1.00084 -0.00509736 1.69513e-21)
(1.01672 -0.000157089 9.73987e-22)
(-0.148547 -0.356827 3.50658e-20)
(1.2853 -0.0634853 -1.22479e-19)
(1.15366 0.0959041 1.36708e-20)
(1.00734 -0.000926898 -1.43036e-21)
(1.24335 -0.067019 -8.007e-20)
(-0.212357 -0.00792773 9.28431e-20)
(1.21748 0.0421652 4.79766e-20)
(1.11931 -0.0638814 3.49403e-20)
(1.12049 -0.0655436 -9.77469e-21)
(-0.24085 -0.0407937 0)
(1.03851 -0.0196927 0)
(0.616421 -0.284055 -5.2202e-20)
(1.2669 0.0291485 -5.09788e-20)
(-0.253559 -0.0213576 0)
(1.00875 -0.014781 -3.99394e-21)
(1.00642 -0.00961886 -6.44749e-22)
(1.01848 -0.000562323 -9.69601e-22)
(1.01114 -0.00744297 4.30769e-22)
(1.24832 -0.0725124 9.27866e-20)
(1.08776 -0.0122037 -2.04343e-20)
(0.829262 -0.0989386 0)
(1.01772 -0.00529903 0)
(1.05442 -0.0174952 -5.26566e-21)
(-0.26909 -0.0209516 -2.41562e-20)
(1.00114 -0.00508377 -6.72732e-21)
(1.01952 -0.0103193 9.94187e-22)
(1.01594 -0.0138195 2.79105e-22)
(0.199399 -0.530746 1.3743e-19)
(1.34074 -0.000806219 0)
(1.02247 -0.00905895 -1.01892e-21)
(0.930221 -0.151256 -8.84443e-22)
(1.26483 -0.0292955 -4.90356e-20)
(1.14116 -0.000986542 0)
(1.01729 -0.221442 -1.39985e-22)
(0.694202 -0.0982711 0)
(1.25996 0.0858613 -5.23027e-21)
(1.1976 -0.28411 5.72205e-20)
(1.02727 -0.0784976 -1.38095e-21)
(1.27438 -0.0643068 3.03149e-20)
(1.00695 -0.0100022 0)
(1.20881 -0.479397 -4.15723e-20)
(0.791511 -0.0282262 8.72763e-20)
(1.0134 -0.00485533 -5.59461e-23)
(1.21802 0.125366 -2.75199e-20)
(0.291981 0.0092402 3.01445e-20)
(0.996149 -0.0353044 -4.80571e-21)
(-0.219088 -0.011902 -9.99017e-20)
(1.09069 -0.278706 2.13127e-20)
(1.18827 -0.288058 -4.89136e-20)
(1.00336 -0.0595956 1.76499e-21)
(-0.221816 -0.0201201 4.78524e-20)
(1.25969 -0.0252093 -5.3796e-20)
(0.751228 -0.0471143 -6.33438e-22)
(0.926107 -0.0606685 3.78153e-20)
(1.12732 0.06392 3.49824e-20)
(-0.175614 -0.00790812 -1.82882e-20)
(1.001 -0.0187114 0)
(1.07834 -0.0206636 0)
(-0.187396 0.00822264 -6.60956e-20)
(1.09985 -0.00438862 -7.12823e-21)
(1.02061 -0.171893 2.86872e-22)
(0.573572 -0.450258 -1.18888e-19)
(1.16028 -0.0227258 0)
(1.11004 0.0190094 -2.6634e-21)
(1.10815 -0.0272021 1.18667e-20)
(0.944989 0.0800144 8.78748e-20)
(0.944544 -0.0796163 -3.93108e-20)
(1.05289 -0.0374445 0)
(-0.158411 -0.0118341 9.03951e-20)
(1.04088 -0.0750516 0)
(1.01886 -0.00986027 -1.01298e-21)
(0.405311 0.147952 1.21492e-19)
(1.01078 -0.00701161 -1.15025e-21)
(1.05444 -0.135089 9.74448e-21)
(1.00849 -0.0140481 4.08104e-21)
(1.20063 0.00348609 0)
(-0.234796 -0.0313813 0)
(1.04809 0.00760509 -6.24531e-21)
(1.08984 -0.0152451 9.8106e-21)
(-0.152649 -0.0463371 0)
(1.01643 -0.014696 -2.43264e-22)
(-0.31914 -0.0246371 6.79574e-20)
(1.00197 -0.032729 -1.09057e-23)
(-0.16791 -0.277588 1.48617e-20)
(1.01279 -0.00152822 -1.64094e-24)
(1.05393 -0.0344833 0)
(1.07042 0.0173575 -1.50105e-20)
(-0.111197 0.0138957 0)
(1.06033 -0.147412 -7.25487e-21)
(0.773318 -0.0504514 0)
(0.963956 -0.13044 1.28967e-20)
(0.853774 -0.0411728 -1.51623e-20)
(1.02715 -0.0152045 1.23934e-21)
(1.07947 -0.0888077 -3.4256e-21)
(0.118505 6.51598e-05 -1.97295e-20)
(1.35971 -0.043411 -1.70916e-19)
(0.993468 -0.0510313 -1.12932e-20)
(0.0442036 0.426433 -2.37215e-20)
(1.25361 0.0299342 -6.85208e-21)
(0.852898 -0.0544405 0)
(-0.251313 -0.00301701 4.14314e-20)
(0.993071 -0.0221351 0)
(1.04944 0.00734666 6.36932e-21)
(0.983853 -0.0184999 -1.52475e-20)
(0.393506 -0.187969 0)
(1.26393 -0.0265179 0)
(1.00962 -0.0153382 -6.15249e-22)
(1.02432 -0.00253097 0)
(1.02389 -0.0211154 6.83822e-22)
(-0.103833 -0.155292 -1.6031e-19)
(1.02309 -0.113064 -1.53449e-21)
(1.05415 -0.0372816 4.79662e-21)
(0.84538 -0.336715 -1.52195e-20)
(0.986448 -0.0208419 1.20785e-22)
(1.05538 -0.0348652 0)
(1.3435 -0.12571 -9.6734e-20)
(0.237552 0.320602 7.29528e-20)
(1.08764 0.0173607 1.26992e-20)
(1.02331 -0.0212736 -5.05546e-22)
(-0.124099 -0.011418 -1.43565e-20)
(1.00019 -0.000899428 0)
(1.10191 -0.000613305 -1.94385e-20)
(0.753699 0.0444376 0)
(1.27117 -0.0370505 1.89498e-19)
(-0.155004 -0.00719835 -5.75751e-20)
(1.03983 -0.0019834 4.09518e-21)
(-0.22883 -0.0258038 -5.32334e-20)
(1.02157 -0.0638432 7.01951e-22)
(1.08684 0.0149687 0)
(1.01299 -0.00183025 2.60814e-23)
(0.974623 -0.0189279 1.01881e-20)
(-0.0088284 -0.097078 -6.8016e-20)
(0.665294 -0.0851329 0)
(1.04073 -0.00249098 2.17601e-21)
(-0.254517 -0.0320458 0)
(1.02231 -0.0493286 -9.98874e-22)
(0.903416 -0.244625 0)
(0.31345 -0.0115307 0)
(1.00243 -0.00664354 0)
(0.669877 -0.0732651 4.41174e-20)
(0.371571 0.0403531 6.07296e-20)
(1.09592 0.036911 -8.21383e-21)
(1.14609 -0.196375 8.01022e-20)
(1.00087 -0.00555417 -1.83998e-21)
(0.0387416 0.0614453 0)
(0.980083 -0.0338047 8.54026e-21)
(0.199423 0.024866 1.32233e-19)
(1.18075 0.0767988 0)
(1.0002 -0.000146924 -2.11906e-21)
(-0.291524 -0.0236539 8.84659e-20)
(1.07177 0.0147458 1.78456e-20)
(1.05506 -0.136373 -4.88608e-21)
(-0.176193 -0.267706 0)
(1.00159 -0.000911452 4.50191e-22)
(1.05086 -0.0272154 7.88158e-22)
(-0.283545 -0.0236532 -1.37024e-20)
(1.06166 -0.145244 -7.3796e-21)
(0.719566 -0.963983 2.61087e-20)
(0.999865 -0.00843531 -6.29239e-21)
(1.02893 -0.0476289 -1.77628e-22)
(1.2111 0.122774 4.7396e-20)
(0.0330622 0.0333613 0)
(1.04444 -0.0983452 0)
(0.724901 -0.0779411 4.74005e-20)
(1.00138 -0.0108421 0)
(1.0003 -0.00833315 1.83769e-21)
(0.93756 -0.0812214 -3.90666e-21)
(1.00722 -0.0139037 -2.80481e-21)
(0.103946 -0.387474 0)
(0.757024 0.060922 -1.03542e-19)
(0.986616 -0.0498816 0)
(0.569084 0.027214 0)
(-0.101529 -0.259898 7.67727e-20)
(1.00694 -0.0125284 2.75412e-21)
(1.01483 -0.0358554 2.32136e-21)
(1.00472 -0.0304212 2.3138e-21)
(1.26488 0.0918738 7.33174e-20)
(0.957163 -0.214512 9.44357e-21)
(1.14498 -0.124878 0)
(-0.25415 -0.0409986 -5.3785e-20)
(1.00002 -0.000350372 7.12864e-21)
(-0.297739 -0.0228784 0)
(1.1394 -0.182097 -2.36476e-20)
(-0.0184515 -0.216968 0)
(0.197651 -0.514914 -1.13954e-19)
(1.00487 -0.0541178 3.89626e-21)
(0.15056 -0.0347427 -5.41591e-20)
(0.654584 -0.181917 0)
(0.603927 0.0309265 -2.42315e-20)
(-0.140187 -0.331276 6.81814e-20)
(1.0009 -0.0182214 0)
(1.02233 -0.020463 4.7294e-22)
(-0.178158 -0.0093579 0)
(0.909599 -0.161272 -2.42207e-20)
(0.173242 -0.0371994 0)
(-0.155776 -0.0069868 0)
(1.03203 -0.0213132 -5.11611e-21)
(1.09789 -0.109792 0)
(1.00467 -0.00727067 0)
(1.09135 -0.0115061 1.55481e-20)
(1.25053 0.0339953 -5.07984e-20)
(1.00494 -0.00775133 -1.1703e-21)
(0.607039 0.0322155 -8.28643e-20)
(1.11331 -0.0269994 -1.61519e-20)
(1.20468 0.00203668 -5.25312e-20)
(0.658917 0.250489 0)
(0.282471 0.164735 0)
(1.02454 -0.0138061 -2.18812e-21)
(0.988586 -0.0204256 -1.40683e-20)
(0.796722 0.0076067 2.63809e-21)
(-0.151349 0.023646 0)
(1.09011 -0.0959567 -4.93377e-21)
(1.08671 -0.288526 -2.12901e-20)
(-0.309506 -0.0240902 6.28191e-20)
(-0.165574 -0.0156147 6.17974e-20)
(1.07348 -0.0306129 0)
(-0.307141 -0.0180114 -1.48138e-22)
(0.990414 -0.0168189 1.02722e-20)
(1.26706 0.0291911 8.81826e-20)