/*--------------------------------*- C++ -*----------------------------------*\
| =========                 |                                                 |
| \\      /  F ield         | OpenFOAM: The Open Source CFD Toolbox           |
|  \\    /   O peration     | Version:  v2012                                 |
|   \\  /    A nd           | Website:  www.openfoam.com                      |
|    \\/     M anipulation  |                                                 |
\*---------------------------------------------------------------------------*/
FoamFile
{
    version     2.0;
    format      ascii;
    class       volScalarField;
    location    "200";
    object      ddt0(k);
}
// * * * * * * * * * * * * * * * * * * * * * * * * * * * * * * * * * * * * * //

dimensions      [0 2 -3 0 0 0 0];


internalField   nonuniform List<scalar> 
18649
(
0.00039839
6.04996e-07
5.66923e-08
-0.00192542
-3.2005e-05
3.70257e-08
-0.00970133
1.28184e-05
-1.01814e-06
-5.02314e-07
-2.07535e-05
-0.00876964
0.00772005
3.41349e-07
-1.53739e-07
1.55227e-06
4.1162e-08
1.28343e-06
5.29706e-07
-0.000227708
0.0040999
-1.40396e-07
-0.00492769
-1.63836e-05
4.31101e-08
-0.000404029
-7.05045e-07
-0.00866507
-0.000358619
-3.38694e-08
-4.74621e-07
9.38522e-06
-2.67494e-08
-3.35831e-07
2.67664e-08
-0.00131175
-9.22942e-07
1.2759e-07
-2.11385e-08
6.06969e-05
-4.2135e-06
6.0678e-05
1.08053e-05
-0.0022661
-7.72199e-08
-3.85174e-08
-0.000425279
-0.00183152
-0.00953635
1.55247e-08
-0.0304572
-1.11753e-06
0.00979562
-0.00305209
-2.91973e-08
-0.0126494
-0.0100826
-2.41891e-06
0.000716297
5.71014e-08
0.000462714
-2.25204e-07
5.3412e-06
-0.00139972
-4.86871e-09
-0.00132197
-9.67023e-08
-0.00972187
-0.000505917
-0.000186208
-0.00530042
5.15207e-08
5.34493e-06
-2.64462e-07
1.1172e-08
0.00363749
5.88542e-07
-3.1125e-07
-4.58268e-08
2.81623e-05
3.6268e-08
-0.000481927
0.000912078
0.00954605
-1.50095e-07
-1.2254e-08
-5.49115e-07
-4.72282e-07
-5.89339e-06
5.89103e-08
4.33969e-07
6.22875e-08
1.54251e-07
-0.00233801
3.27324e-07
-4.48295e-05
4.40323e-08
1.48261e-07
-0.000250832
-2.20152e-07
-0.00479325
1.62677e-07
5.46817e-08
-0.0290857
-0.000322885
-1.32083e-06
8.87293e-09
-2.52104e-07
-7.27327e-07
-4.78283e-07
-0.00170217
9.3284e-07
2.53907e-07
-2.60581e-07
-1.3358e-05
5.75631e-08
-4.30863e-08
-0.00936251
-0.00250802
-1.71895e-07
0.000669238
-5.91782e-07
6.83652e-06
2.27602e-08
-0.000207594
6.39869e-08
1.15821e-09
-0.000628259
-8.53309e-07
-0.00997441
4.24604e-07
0.000935852
3.07155e-07
0.0008967
-1.37583e-06
2.63606e-08
-0.0021993
-0.0102411
8.83364e-07
-4.06246e-07
-6.61217e-05
-1.4009e-07
-1.93462e-08
2.83702e-08
3.48479e-08
0.00444915
-2.85168e-09
-2.94206e-07
-0.0060807
-0.000432758
0.000355296
2.01933e-08
0.000925341
-1.11062e-07
3.42585e-08
1.72829e-09
-1.72499e-06
2.2072e-05
-6.52726e-09
-1.09998e-07
-1.81965e-07
-4.88693e-05
0.000704072
-8.94189e-08
-0.000243864
-1.79989e-05
1.12603e-08
-6.55972e-08
-2.69666e-07
-3.63583e-08
3.49635e-07
4.56525e-05
-3.46836e-06
-1.35229e-05
1.52959e-07
-0.0042985
-0.00560384
-6.41343e-07
-7.868e-09
0.000353305
-0.00398777
-1.7602e-08
1.64531e-09
-0.00176522
-8.15237e-07
-1.52417e-06
-1.1447e-08
-2.33772e-07
2.09597e-06
-9.40161e-07
-0.00189728
2.41063e-07
4.00163e-05
-1.45914e-07
4.93372e-08
-1.62766e-08
-6.83437e-07
-2.08267e-06
9.25318e-08
3.08325e-10
-3.69361e-07
-4.30524e-05
-0.00897408
-1.16317e-06
-6.0984e-06
-6.90881e-07
-0.0109266
-0.000477438
-4.00268e-09
-0.000965728
3.86601e-07
-7.89668e-08
-5.99169e-07
-4.92898e-05
0.000976988
-2.95115e-07
6.4449e-07
-1.77657e-07
-0.000134853
-1.40834e-07
8.81091e-07
2.47132e-07
-0.000178631
3.72849e-05
-6.76135e-05
-0.00200473
-2.98709e-07
4.99358e-08
0.00967974
-0.00352128
9.15521e-07
1.64723e-07
-0.00628469
-3.49825e-06
-0.000129856
-0.000127128
6.02268e-06
-3.69573e-06
2.41524e-07
-0.000288452
4.66553e-08
-0.00787694
5.37555e-07
-6.03675e-09
-2.95957e-07
-4.18786e-07
0.00653866
6.5769e-08
-0.00425827
-1.77864e-06
-0.0081519
-0.00980737
-3.00419e-06
-4.66033e-07
-1.28436e-06
-0.00353823
6.78024e-08
5.20739e-07
-1.2279e-06
-4.66792e-07
2.65516e-07
1.50678e-06
-0.00121832
2.93084e-07
3.85891e-08
-0.000211911
-0.00746238
1.19649e-08
-0.00244474
7.37254e-08
0.00424962
-1.84314e-06
0.00963905
0.00551539
4.5011e-05
-1.60826e-07
3.13422e-08
0.0113932
-0.0028968
-9.43595e-05
-2.49951e-09
-1.17325e-07
0.000869858
-1.86629e-06
-0.00621907
-0.0070381
-1.7106e-07
5.05638e-07
1.24729e-08
-5.3451e-08
5.09264e-06
-0.00917974
-0.0106146
2.3222e-05
-0.00724206
4.41749e-07
-0.0042169
0.000679391
5.11836e-08
-0.00692565
-1.88102e-08
-3.57817e-07
1.79921e-07
-4.56359e-08
-1.65076e-07
-2.37975e-05
2.7059e-08
-3.87338e-06
-1.02122e-05
-2.27717e-07
-0.000585023
-1.20651e-07
-0.0426083
-1.01515e-07
-1.59375e-07
2.69093e-07
3.51687e-07
1.29694e-10
0.00102822
-0.0027936
1.39823e-08
-1.0875e-07
-3.35364e-06
5.27613e-10
-8.4882e-08
-1.83884e-07
-1.54412e-08
-4.25432e-07
-0.0103088
-1.86147e-06
-0.000522496
-3.34233e-08
-9.43063e-08
-4.6633e-06
-1.36321e-08
4.32903e-08
0.00545954
7.06098e-08
-0.0220758
-1.11609e-06
0.00017701
-1.09848e-08
9.72176e-07
-6.52143e-07
-5.17231e-07
1.3287e-07
-7.0493e-09
4.72601e-08
4.00204e-06
-1.16483e-06
-2.00076e-07
0.011369
3.65992e-08
-1.6564e-07
-0.000229027
-0.0052156
3.76583e-07
-0.000384716
-9.70293e-05
-1.89382e-05
-0.0105286
-4.48572e-07
-0.0104212
1.51739e-07
0.00179351
-0.00059667
7.31349e-07
-1.23115e-06
-3.39786e-07
-5.48386e-07
4.69154e-07
1.94721e-08
-3.03663e-07
-0.00675479
-9.07452e-07
-0.000148434
-0.000706554
0.000767179
0.00508843
-1.13741e-07
5.32782e-10
2.10826e-06
1.06207e-07
-0.000275337
3.0601e-11
1.68256e-08
2.31378e-05
-0.010335
-2.98986e-07
1.5671e-07
-0.0024243
2.05467e-06
-1.11569e-07
-0.0168466
5.65499e-08
1.36059e-07
-0.000322948
-2.06392e-07
8.2972e-09
0.00747067
-0.00635566
-4.77613e-09
1.22617e-07
-5.02169e-08
-0.00836603
0.00563082
-1.36899e-07
-0.00365619
4.6466e-08
2.44974e-08
-0.0113218
-3.44876e-08
-0.0104306
3.45721e-07
4.56019e-05
0.00377927
0.00722181
-0.00507668
4.77985e-08
-0.000887016
1.38568e-07
0.0115075
-2.07977e-06
0.00107364
-0.00106288
1.70661e-08
6.29446e-08
0.00131723
0.000142016
5.38664e-07
-0.00744027
-3.54291e-07
-4.53978e-08
2.71774e-08
-0.0107518
0.0112362
-0.00111233
-2.56549e-07
2.05505e-07
-1.94306e-05
0.000813533
4.6061e-07
-7.11134e-07
1.49751e-07
3.7909e-08
1.99059e-05
-0.000684577
-5.72587e-08
-8.67089e-08
-0.00211776
1.17131e-08
0.00105672
5.92201e-08
3.83463e-05
2.93312e-06
0.00143387
-5.71808e-07
-0.00332136
-0.000627158
8.50484e-07
4.61829e-06
-3.13535e-07
5.99256e-06
-3.60385e-07
3.44498e-07
-1.76178e-06
-2.65317e-05
-4.00637e-08
1.24618e-08
0.00085881
7.25573e-08
-9.44176e-09
0.0164049
3.78321e-08
-0.00280085
-2.08141e-07
2.90645e-07
-5.62617e-08
-4.90862e-07
5.56877e-08
1.2821e-08
9.64043e-05
-1.39053e-07
1.18082e-06
1.21483e-08
7.45254e-08
-0.00207638
5.04372e-09
-0.00518003
1.32088e-06
-0.00902378
0.0144206
0.01524
0.000796605
-3.42839e-07
4.64031e-06
1.8038e-06
0.0011924
3.26021e-07
-5.10188e-07
-4.37028e-07
3.8896e-06
-6.80128e-05
5.46555e-06
6.20813e-10
5.70965e-05
-2.67999e-06
-0.011447
-9.99464e-08
-0.000756812
-4.9601e-07
-1.17051e-05
-2.80366e-07
-8.34604e-06
-0.000455482
1.77871e-08
-6.04922e-08
0.0150235
-8.96351e-08
1.12704e-06
1.12064e-09
5.12807e-07
-5.80141e-07
-2.69615e-06
2.19782e-08
1.34499e-05
8.67311e-09
-0.00672925
2.17634e-09
0.000791247
-0.0175673
-0.0022376
0.000361307
-2.45134e-07
-0.00521724
4.70275e-06
-0.00909947
-0.000457168
-1.23797e-07
1.4818e-06
-3.96213e-07
-1.01556e-08
-0.0290146
-3.01492e-08
8.73876e-09
3.94924e-08
1.67868e-09
-6.88662e-09
1.10139e-07
0.00924626
7.86415e-08
3.018e-07
-3.24381e-07
-1.56273e-06
-5.82891e-05
-0.00161628
2.95638e-07
-6.59344e-07
2.363e-06
2.03978e-06
-5.5113e-08
0.00138769
-0.00242529
0.00662173
-0.00968839
4.84552e-07
-4.18415e-07
-1.24725e-06
2.92228e-06
-1.94443e-07
-0.0037199
1.68017e-07
-1.70123e-07
5.7513e-09
-0.00037584
0.00139675
0.01159
-2.19956e-06
1.11621e-07
-0.00804416
-0.00115809
0.00138
-4.71634e-07
-2.92687e-07
0.00952743
-1.2204e-08
0.0157005
-1.85674e-06
-2.90071e-08
-2.33422e-07
0.000100786
-7.85917e-05
-1.20168e-07
1.70211e-06
-6.2924e-07
8.06117e-08
-0.000239738
-0.000119249
1.78685e-07
-0.00856818
2.0709e-07
-0.0211887
1.23434e-07
0.00275719
2.51767e-06
1.34071e-06
-1.77548e-07
0.00159102
-2.13227e-06
4.97907e-06
6.68893e-06
-0.00024583
-3.96265e-07
0.0109422
-6.73947e-08
-1.20216e-06
-0.0112346
2.29861e-08
-2.44212e-08
-1.66298e-07
1.51199e-07
-5.6571e-06
2.05113e-07
1.21205e-07
0.000123273
-0.000278848
0.000416895
4.85563e-10
-0.00263724
2.73868e-08
-5.39417e-05
-2.64585e-06
-7.00367e-09
-1.62834e-07
2.52472e-07
-0.012081
1.43574e-07
3.98671e-06
-6.65657e-06
-5.50838e-07
2.87935e-07
1.51592e-08
-1.18755e-06
-0.00426184
-1.10007e-07
-4.19596e-07
5.1757e-08
-0.0410842
1.58176e-08
5.28216e-07
-1.08525e-07
7.85572e-08
-0.00149706
1.47357e-05
-4.72956e-05
-7.2931e-07
0.00744593
-5.32748e-07
-1.95573e-08
1.88494e-06
-0.000152342
-5.84135e-07
-1.13462e-07
-0.0039646
-0.00645587
-4.87154e-08
0.000850296
0.0053091
-1.53331e-07
1.15919e-07
1.70474e-06
-8.58787e-08
2.84591e-07
-0.000533943
-0.00556719
-0.000460923
-0.00324064
-3.57978e-08
0.00745033
-7.0175e-09
-1.28483e-08
-2.65596e-08
-0.00153774
8.80203e-08
1.47157e-07
0.00883222
0.000726357
-6.31047e-07
-0.0197581
3.97282e-08
-5.16182e-08
-0.00828933
-2.02473e-07
0.000148279
-4.73329e-07
-2.45691e-05
1.57174e-08
-7.72671e-07
1.67663e-09
-3.10574e-05
2.22583e-07
-0.000363118
0.0090202
-4.546e-05
0.000514512
9.18875e-05
-4.55316e-07
-0.00199063
-0.00476338
-1.00679e-05
2.28787e-07
-1.66845e-07
-0.000668467
-0.00693798
-0.0146406
-1.7664e-05
3.11702e-06
-9.81536e-08
-5.02866e-07
-0.0107033
-0.000196144
1.39947e-07
-1.32212e-07
-0.0105199
-0.00499747
0.000694709
2.80121e-08
-1.2521e-07
6.77476e-07
-0.00270123
0.000189234
7.71107e-09
3.89218e-07
2.46294e-08
-0.00023335
-2.72726e-07
-0.0136419
1.03895e-06
-1.11505e-07
5.29016e-08
-0.000620579
7.15166e-08
-4.43896e-07
1.67632e-07
-1.08566e-07
4.00176e-07
-0.000210092
1.11867e-06
0.000102891
-0.0106898
0.00031065
-0.00190418
1.11356e-08
-0.0167108
-1.66574e-06
-6.80895e-07
-0.00213651
-6.39213e-08
1.88697e-07
-1.12929e-07
-7.12583e-05
-0.00254464
-9.53291e-05
1.99283e-07
-4.27522e-07
-3.96225e-09
-3.76438e-08
3.93253e-08
-9.84853e-07
-6.93266e-07
-0.0426906
7.9594e-08
-7.47766e-09
1.63856e-05
-0.000207199
5.0645e-08
-1.38037e-08
-0.00457409
0.00043562
1.46584e-07
-0.000707741
-0.000389868
1.69525e-06
-3.64331e-07
8.11186e-09
2.40309e-07
-2.78782e-06
0.000223759
0.0176126
7.27143e-08
-0.0241757
0.010552
0.00117118
9.03945e-08
0.000971388
-1.8077e-05
-0.00867763
3.55194e-07
0.00763215
-1.80292e-07
0.000813402
-0.00322573
-0.0102168
7.00522e-08
-4.20326e-08
-1.4888e-06
-0.000365992
-3.34518e-07
-3.63507e-05
6.08053e-07
6.49783e-05
-9.98364e-07
-0.0084375
0.000273702
9.19205e-08
-0.000728792
-2.69507e-06
-1.02935e-05
-3.57436e-06
-0.00356734
-1.92757e-07
-1.70898e-05
-7.67237e-07
3.76627e-05
0.0010393
4.28059e-07
0.00493287
-0.00191166
1.90028e-07
2.6971e-05
9.8634e-06
6.67727e-09
-0.00630666
0.00708428
5.66118e-07
2.01288e-06
-0.00394346
1.17158e-07
0.000135185
-8.70345e-08
2.70536e-07
1.68224e-07
-9.24062e-09
-1.91889e-08
8.5761e-10
-0.00228039
2.38184e-08
-4.26422e-07
-3.81612e-08
-0.00622556
3.09277e-07
-2.08291e-07
-1.43638e-07
0.000176134
5.5389e-07
-1.65436e-06
4.57439e-05
-1.38619e-06
-0.00519452
2.93357e-07
-7.30974e-07
0.00957659
-0.00108197
-5.9351e-07
2.55181e-07
8.79988e-07
3.91904e-07
0.000839359
7.45242e-07
1.0543e-07
1.19207e-06
2.17791e-08
-0.00593482
-1.08835e-07
4.76031e-07
-2.89928e-07
-9.16058e-07
-1.24999e-06
1.18219e-05
1.55352e-07
5.25683e-08
-1.72227e-05
2.48996e-07
-0.00926041
-0.00176083
1.64638e-06
-0.0058958
-4.86439e-10
-0.00265985
-3.19125e-08
-1.32582e-05
-0.000209715
0.000681936
-3.0043e-06
-2.41797e-08
-1.41697e-05
2.91583e-07
0.000474987
0.0161807
-0.0498508
5.82872e-06
3.878e-06
5.30963e-07
-8.58385e-07
0.000580003
-0.0073839
1.68549e-07
-0.00201859
0.0124592
5.57952e-08
1.65409e-06
-0.00788388
-0.0203551
-1.16007e-07
-0.00509703
-0.00325717
-0.0040724
0.000267405
-0.0089146
0.0153984
-1.31181e-06
2.92878e-09
1.08556e-07
-4.4687e-06
-7.62896e-08
6.1379e-07
-0.000970128
1.78665e-07
5.14031e-07
-0.00695948
-4.44306e-07
-0.0137878
1.11112e-07
-0.0109455
1.25908e-05
2.85448e-06
1.76616e-10
-0.000622998
-8.69817e-08
-0.00141286
0.00161503
-1.76624e-08
6.86899e-06
1.05754e-07
0.00258634
0.0160998
-0.000232785
0.0199615
-6.75481e-08
-6.54752e-07
0.000504547
-5.71366e-07
-3.71287e-05
-6.83187e-08
3.47577e-08
-2.78412e-08
4.32965e-07
-1.53886e-06
8.51102e-08
7.78377e-08
-1.5923e-06
-4.3874e-07
-2.19001e-07
-3.2454e-05
2.34096e-07
-7.39349e-07
2.36305e-07
1.08917e-07
0.00702477
-0.00517324
0.000285143
-0.00226202
0.00577347
0.000100372
-0.000378176
4.13206e-07
-1.67211e-06
-8.95164e-06
3.23338e-07
-7.23563e-08
-1.7388e-07
-3.84255e-08
0.000318087
2.54527e-06
-0.0172788
-1.39161e-06
-1.12924e-06
-0.00324965
-0.00679662
0.0026295
-2.0116e-06
-0.00710639
6.47626e-07
3.2197e-07
-2.59411e-07
-2.8077e-09
2.59892e-07
-6.06637e-06
0.000707576
3.01454e-06
-0.00508322
0.0011876
-5.86185e-05
-6.50591e-07
-5.37547e-08
-1.57649e-06
-2.91631e-06
-8.35359e-08
-0.00873176
1.7482e-06
-0.00356548
0.0058196
-1.16683e-06
-6.51386e-05
3.83602e-09
2.10708e-07
-1.35218e-06
0.000118704
-7.72137e-07
-5.16228e-08
-3.75836e-08
-5.00916e-07
1.88323e-07
0.000258608
-6.92136e-08
5.61494e-11
9.56074e-08
-4.88397e-05
-6.21418e-08
-5.88491e-07
7.63676e-05
5.83053e-08
-0.00374239
2.72265e-08
-5.60061e-06
2.64652e-07
0.000904331
4.67347e-07
-3.83241e-05
0.00112342
-0.0100403
3.77141e-08
-0.00418358
-1.48083e-06
-3.33256e-07
-1.50913e-06
8.40723e-08
-2.87669e-06
-8.32786e-07
2.82443e-07
-0.0081464
0.000133182
-3.13373e-07
0.000254888
-0.000583367
2.80129e-07
2.42461e-07
-5.58708e-07
-4.08249e-07
3.00236e-07
-0.00293583
3.95545e-08
6.84434e-08
2.11916e-07
-0.00509975
-0.0105467
4.56939e-08
-0.0089728
6.30861e-06
0.000296679
0.00904314
-1.28849e-07
-2.41335e-08
5.13027e-06
-5.98779e-07
-0.00466281
0.00788634
-0.0137798
1.46198e-07
4.39676e-07
-0.00742207
3.21441e-07
0.00153814
0.000152038
-0.0144791
5.79043e-07
-5.77453e-09
-0.00518522
3.02206e-07
4.58895e-08
1.16015e-06
-1.60003e-07
7.51592e-07
2.79893e-07
7.90088e-08
-0.0030859
-1.32571e-06
-5.72096e-08
-7.0413e-05
3.07968e-09
0.00709382
-9.12994e-06
-0.0141073
-2.97634e-07
0.271755
1.87928e-05
1.36802e-07
0.000314137
2.38291e-07
0.0114878
-0.00418695
2.58452e-07
-0.00822678
-4.03032e-08
3.42057e-08
0.0010175
-1.20057e-07
-7.74791e-06
-2.989e-06
-4.74175e-08
-0.000178091
-2.47618e-08
-1.78331e-06
-9.12037e-09
4.80065e-08
-3.83272e-08
-5.50363e-07
-1.34217e-08
1.22506e-08
8.80842e-08
1.13748e-07
-5.03685e-07
-0.00900416
-1.86872e-07
-0.00130977
0.000472633
-2.81857e-07
5.84151e-05
8.18864e-08
-2.4389e-08
0.000380926
-0.0111067
-2.64939e-05
0.0134563
2.37332e-07
1.05693e-06
1.3737e-06
1.22285e-07
-4.82316e-07
3.23552e-08
-2.34057e-06
-0.000836462
-6.67206e-05
-5.73741e-07
6.14031e-07
-0.00596473
-0.0010916
-1.20109e-06
0.000195873
-4.28509e-07
-7.55684e-06
-0.00589007
0.0310023
-0.0477666
0.00506334
1.06429e-05
-0.00034284
-0.00103883
6.4058e-07
7.78807e-08
-1.55905e-08
-0.00511382
6.21505e-07
2.82551e-06
-0.0451709
6.90143e-06
2.10762e-08
-2.70268e-07
0.00711923
-0.000211343
1.02596e-06
0.000125168
4.6387e-08
-3.76452e-07
0.000369662
-3.11828e-09
-3.49172e-07
-0.000120154
-7.25642e-08
-7.46709e-07
-0.00456352
-0.00793201
1.99321e-07
6.795e-10
-0.00844191
1.06889e-05
-0.0255684
9.85729e-08
-0.00262839
0.000288737
-1.04267e-06
1.1659e-08
0.000727254
-1.42815e-08
2.84922e-07
-2.64682e-07
-4.45151e-08
-6.04826e-07
-6.5732e-08
3.65891e-08
9.19984e-09
-4.80731e-07
0.00472574
-0.00423171
-9.51623e-09
-0.00496737
-2.62085e-06
-0.00095791
0.00841153
-0.00816606
7.22759e-08
-1.68026e-07
2.82884e-05
-1.02197e-07
1.38218e-08
1.02099e-07
3.08761e-07
9.51033e-06
2.80637e-09
-0.00441549
0.000763964
2.85856e-09
-2.52353e-07
1.311e-07
-4.28689e-09
1.48643e-05
2.61279e-05
-2.99483e-07
-1.38799e-05
-0.010068
2.58148e-07
-0.00530089
-5.2959e-09
-0.00978921
4.33892e-10
1.10418e-08
-0.000343169
0.00892384
3.70726e-08
-0.00104808
4.37112e-07
-0.00871597
-5.2469e-07
1.00915e-05
-0.00323258
-5.16334e-07
2.99568e-05
-0.000315745
-1.3538e-07
8.57678e-06
-4.49615e-07
-8.84618e-05
-0.00982941
1.68432e-07
0.00798513
1.62343e-07
2.17154e-08
-2.22325e-07
-1.7487e-06
0.000827061
-1.15307e-06
-0.00557207
-0.00445914
-1.34149e-06
-0.00224646
-5.21811e-08
-0.00064426
1.88238e-07
-3.38828e-06
3.01593e-07
-6.79827e-08
8.11891e-07
-0.00471687
-0.00906018
1.40314e-06
5.76255e-06
-8.09409e-05
7.86497e-08
-1.3413e-05
-0.00175604
-0.0230063
-0.000270364
-0.0102965
-7.29936e-06
1.72888e-07
-2.73545e-08
-1.7919e-07
-0.00168374
-0.00462259
4.98601e-08
5.85924e-07
-0.000205578
2.80138e-06
-0.00492771
5.20788e-06
0.00894384
-0.000141308
-1.05583e-08
-0.00380001
6.94769e-07
-2.6777e-06
-0.0104333
-0.00334503
0.000537005
1.61501e-06
-8.28692e-05
-0.00824724
-2.36955e-06
1.01018e-07
2.04864e-07
1.84473e-06
-2.23071e-08
3.28196e-08
2.05833e-05
0.0528185
-0.000911866
2.04212e-07
-0.00749365
-0.00938691
-3.55222e-06
1.44362e-05
-1.17413e-06
0.00717806
-0.000113716
-5.27052e-08
-0.000290244
-9.8181e-07
1.62282e-08
1.71616e-08
-0.00423645
3.17115e-08
-0.00398751
-1.58571e-07
-1.06322e-07
-3.02551e-07
-0.000856848
0.000174869
-4.29555e-06
-0.000108171
0.000244716
0.0162897
-0.0050752
7.54125e-08
-0.000126659
-0.0165511
-9.07298e-07
1.17399e-07
3.76278e-06
-0.00413798
4.53243e-05
-2.22567e-07
8.88554e-09
-0.000925393
8.15359e-05
-1.78808e-07
0.00670795
-0.000502322
-0.00418481
2.24326e-07
1.19578e-07
-1.28721e-07
6.50051e-06
0.000290698
2.05598e-09
5.72658e-07
-2.72748e-05
-2.64833e-07
-1.08011e-06
-9.38971e-08
4.8988e-08
2.04454e-07
-2.8259e-06
2.7764e-08
-2.3761e-06
-9.89146e-09
-1.72292e-07
-0.00675446
0.000685538
-0.00545075
1.02563e-07
6.79585e-07
-0.0264669
4.79092e-07
2.96314e-08
-3.04623e-08
-4.24349e-08
0.000173592
-6.10774e-08
-1.25067e-07
1.88072e-07
7.5742e-10
9.60511e-08
0.000822946
4.31918e-08
-2.09787e-06
0.0201954
1.31609e-07
-4.8537e-09
3.42391e-08
-1.57268e-05
1.34607e-05
1.26445e-08
-1.37939e-08
1.71081e-06
-2.33776e-05
1.87706e-07
-7.64628e-06
-1.11681e-07
1.63996e-05
-4.58802e-07
-1.18772e-06
1.19178e-08
-9.23797e-05
0.00459752
1.31119e-06
1.33929e-10
-0.0147673
-2.41959e-07
2.54403e-07
-9.80486e-07
-1.0345e-09
-4.02054e-08
9.64181e-06
2.30155e-06
-1.1263e-06
3.18389e-07
7.91623e-09
5.83356e-08
5.91714e-06
1.50473e-08
-0.0212921
-0.00200145
-5.03444e-07
-6.65086e-07
1.07797e-07
-3.7493e-06
4.14299e-08
1.46475e-09
2.9479e-07
-8.34701e-06
-2.40035e-07
-3.05051e-07
-0.00662814
4.73117e-09
-1.06252e-06
2.73726e-08
4.32529e-07
-2.24224e-07
-2.19828e-06
-3.9109e-07
1.35874e-07
8.49132e-07
-7.79615e-08
2.78496e-07
-0.00675131
2.3165e-07
-0.00433046
-0.000373703
-2.84827e-08
-0.00155049
-0.000164937
-0.000137726
-0.000819133
-7.3443e-07
1.41236e-07
-1.74087e-05
-2.98588e-05
1.35904e-07
1.21523e-07
1.35374e-07
-0.0233092
2.71325e-07
1.57472e-08
1.70417e-08
7.96922e-09
-1.3516e-06
2.86075e-07
-5.22312e-07
-2.07642e-07
6.4035e-09
8.55901e-08
-1.976e-08
5.81518e-07
-0.000141521
-2.16364e-06
9.35629e-10
-9.94325e-08
-2.79313e-07
-3.26466e-06
7.02262e-08
-0.000526067
9.2028e-08
2.61418e-07
-0.00159457
-1.97143e-06
-8.65781e-08
-1.08142e-07
5.88124e-08
-5.35522e-08
9.24264e-07
-8.81422e-08
5.44764e-07
-0.0412591
-1.10186e-06
0.000441035
-3.56592e-05
-1.87254e-07
1.21734e-07
-4.64524e-07
2.60405e-07
-8.72143e-05
8.74496e-08
0.0046201
1.47753e-07
3.60431e-07
4.91667e-08
-1.55567e-06
-0.0052474
-0.00102641
-0.00432074
-1.65259e-08
4.76527e-07
-0.00529334
-0.0233712
-0.0078085
0.00132452
-4.06186e-08
1.63474e-06
-2.09183e-06
-2.15802e-09
-6.46291e-09
-3.76495e-07
-4.02539e-09
-9.87333e-07
-0.0113067
-5.27153e-08
4.50832e-08
0.000179581
-2.72873e-07
-2.85117e-07
-5.0753e-08
-0.0129393
4.45782e-07
2.23156e-09
1.22838e-06
1.5269e-06
2.4934e-05
4.46257e-07
2.00541e-08
1.25686e-05
-3.68223e-09
5.31856e-06
-1.49837e-06
-9.1106e-05
2.65792e-07
0.00217568
1.43807e-09
1.40118e-07
8.42855e-08
2.62773e-09
2.61185e-07
1.42729e-07
0.000419061
-0.0048553
2.97198e-09
-0.0224906
-0.00331576
-1.06175e-07
-9.50802e-09
-0.00561104
4.51996e-06
-2.61325e-06
0.000155094
-1.03837e-06
-1.28517e-08
-5.68195e-08
-0.00725514
-1.02348e-07
1.15909e-05
0.000455039
0.0070278
7.80056e-08
5.32557e-07
-0.000142046
3.07431e-06
1.35787e-06
1.21467e-07
3.13923e-07
0.00772574
1.53081e-10
-0.00780627
0.000140338
0.00298962
5.22264e-08
-0.00750118
-3.87994e-07
-0.00128735
1.99304e-07
2.93049e-06
6.28571e-09
-1.04518e-05
-6.87357e-05
-9.75322e-11
-0.000471085
-0.00510933
1.02656e-07
0.000835061
1.83003e-07
-1.3134e-06
3.25837e-07
-1.07005e-05
1.30286e-07
-0.00599051
0.000353641
-0.00483278
2.13596e-08
-2.67072e-07
-2.62187e-07
0.00810353
-5.90677e-07
7.31994e-06
2.11444e-07
-0.000570901
-2.27298e-07
-4.63967e-06
0.000829487
1.36387e-07
0.00162856
3.26171e-06
-5.12371e-06
-4.29766e-08
-1.03037e-06
-9.60352e-07
-1.13306e-07
-1.88291e-07
2.90046e-07
-4.44473e-08
-2.27841e-05
-4.48727e-08
-0.0481844
-1.26344e-05
4.31098e-06
-0.00165934
3.93482e-07
0.000153785
0.000804252
-0.00699682
-0.00119053
-6.09692e-08
2.82131e-06
-0.005099
3.77414e-07
1.25118e-07
-9.2747e-07
3.20829e-08
2.88536e-07
-6.16144e-06
3.54814e-07
5.27606e-06
1.64752e-06
0.00634731
-1.92176e-08
4.22377e-06
2.262e-05
-0.00665565
0.000346292
-2.82547e-08
2.69384e-07
-7.85863e-09
-0.0294236
6.87223e-06
-3.26232e-05
-0.00749331
2.07391e-06
-1.14802e-06
6.903e-08
-9.80638e-07
-3.14373e-07
0.00139752
-7.58827e-07
6.85381e-08
0.00654439
-1.44498e-07
6.81209e-06
1.11484e-06
-0.00480472
-1.67403e-07
-4.60248e-08
-3.09801e-07
-1.46042e-07
-0.00578427
5.45487e-08
-2.86361e-08
-0.00014083
-5.58888e-07
-3.10825e-08
-5.00795e-08
1.59377e-06
1.52961e-05
1.08652e-06
-2.21187e-06
1.1277e-07
-1.06729e-07
5.55695e-07
2.20421e-06
-0.00024606
8.87333e-06
-1.57473e-05
-2.41334e-07
-8.3303e-08
-0.00768183
-3.77112e-09
5.27097e-08
6.86721e-08
7.82697e-07
-3.90873e-07
2.90113e-08
-0.000365726
-0.00680171
2.97106e-06
-0.00865644
0.0187201
-3.51859e-07
0.000396203
-2.97601e-05
1.25361e-05
7.83784e-08
3.77563e-08
-0.00511171
-9.53158e-11
-5.79098e-07
0.00208368
3.44372e-07
3.04709e-07
-0.00526796
1.10203e-05
-1.6171e-06
2.12525e-07
2.30706e-08
-0.00563292
-0.00101329
3.64415e-07
6.97441e-08
-1.06257e-07
0.00595899
8.47516e-06
-8.33887e-07
-2.02901e-07
4.73034e-09
0.000909006
-1.09041e-05
3.46415e-07
-2.27167e-08
-5.62755e-08
-8.05477e-08
2.53508e-06
0.000960817
-0.000233752
3.5891e-08
-1.85572e-07
-0.0013989
-2.87066e-06
-1.93999e-07
-7.77732e-07
-4.60133e-08
-2.77753e-07
-0.00108839
9.01152e-09
2.83261e-05
-0.034436
-2.89637e-07
-1.45852e-07
-8.686e-08
-0.0235367
5.87689e-08
-0.00812022
-0.00038559
-8.57207e-05
5.53413e-10
9.24878e-06
0.000201412
9.87978e-10
0.00105355
0.000286602
-0.00532066
-3.7568e-07
3.01774e-07
3.34776e-05
1.39804e-07
0.00587546
-0.000860243
-0.00560218
2.32719e-07
-6.33531e-07
0.0107751
-0.000769234
-4.97515e-07
-1.21977e-07
-2.08464e-06
-1.35136e-08
7.67835e-07
-0.00796724
0.004463
-7.80907e-06
-2.05483e-06
1.30069e-10
-0.0111232
-0.00653199
3.90066e-07
0.00248112
-9.94826e-06
-0.0063552
-3.71536e-08
-1.36067e-07
-0.00269544
0.000811893
2.32108e-07
2.26843e-05
-1.18572e-08
2.34196e-06
-1.78944e-06
3.00947e-06
6.43697e-09
-1.49434e-07
5.17121e-08
-0.0087152
0.00614201
-0.00675593
-3.96563e-07
-0.00106522
4.71282e-09
0.000659269
8.83636e-08
-0.0050791
-0.00619449
-2.1693e-09
-7.25304e-07
1.22365e-07
1.0996e-07
1.31521e-07
7.90985e-05
0.000274004
2.58804e-08
-0.000331421
7.52719e-08
-1.42036e-06
-0.0118553
-0.0222511
-1.99465e-07
9.25281e-07
0.000846096
-0.000902308
-0.000222676
1.57392e-07
1.56483e-07
-1.64936e-07
-3.0091e-08
-5.62594e-08
0.00875711
6.62358e-08
2.81202e-07
1.90933e-08
3.56921e-07
1.63176e-06
-7.22374e-06
3.91928e-07
-1.07981e-08
-0.000996685
-1.4873e-09
-3.0894e-07
2.20479e-06
0.000877768
-3.52894e-08
-9.67992e-08
-1.10588e-06
3.78869e-07
0.000463876
3.39146e-07
2.64119e-07
2.32258e-07
2.03686e-05
6.2007e-08
1.37866e-07
-0.00609889
2.44746e-05
0.00593436
-1.20684e-07
-0.000581038
0.00102224
-3.29764e-07
-7.22722e-08
-0.00914413
1.18762e-08
-1.12696e-07
-2.12523e-07
3.79769e-05
0.000746398
5.52686e-07
1.08301e-06
-0.00622267
-3.6802e-07
2.96807e-07
-1.19516e-07
0.00474846
-1.06574e-08
0.0153048
3.15346e-08
2.47395e-06
0.000149206
-2.7615e-06
0.000665507
-4.1295e-05
9.59649e-05
2.52694e-06
6.63036e-08
2.10983e-07
-6.07668e-06
2.21624e-07
-0.00969307
-0.0387952
-2.84832e-07
4.7212e-09
3.4974e-06
1.30272e-06
-0.000108155
-0.000651321
-0.0023611
3.23875e-07
-5.54122e-09
0.000372639
1.9176e-08
-1.90293e-07
-1.53824e-08
-0.000136453
-0.00893668
-0.000191081
-3.87827e-07
-2.02337e-05
-9.7305e-06
-2.9427e-06
3.54222e-06
-1.03832e-07
-5.66444e-07
1.1228e-07
-8.16313e-05
-1.35398e-07
-0.0011682
2.80081e-06
-6.6655e-08
4.19416e-05
-1.04871e-07
-3.89638e-09
-1.49081e-06
-2.95562e-07
0.000780437
2.86949e-07
-4.05635e-08
1.80418e-07
-0.00741799
-7.57867e-08
-0.00466234
-0.00366722
2.05726e-07
-8.61981e-08
-0.000886278
-1.31404e-07
0.00570423
4.90395e-05
-0.00031924
-6.4386e-08
-0.00115339
-0.00647126
4.35831e-08
4.02971e-07
-1.4611e-06
-1.75831e-09
-0.000809733
1.95539e-07
8.0841e-06
-2.44951e-06
-3.09419e-06
1.52394e-05
-1.08423e-06
5.42311e-08
1.5742e-07
-0.00913485
0.000177246
-0.00902201
0.00366182
4.65315e-07
-0.00285026
-8.45154e-09
-0.00368317
-0.000109109
0.00418834
-4.17247e-07
-0.000141813
-0.0404916
0.0030935
4.60456e-07
-1.68628e-06
4.29883e-07
-2.38612e-07
4.54634e-07
6.51275e-08
2.19966e-07
-0.00651336
2.87832e-07
2.07164e-05
-7.16427e-05
0.000975066
-1.5352e-05
-3.56985e-07
-1.26101e-08
-2.38702e-07
3.16128e-07
4.66752e-05
-0.000744427
-1.64252e-05
-7.14655e-08
-0.00393438
-5.5575e-05
-6.08447e-07
-7.11692e-05
-0.00879503
-4.96803e-08
5.14674e-07
0.00133095
-0.00223087
1.17658e-07
1.21204e-07
6.36169e-06
-1.8992e-08
-0.000163433
0.000365246
1.65091e-06
-1.0977e-07
-0.011731
5.31301e-08
-1.93561e-07
-1.05471e-06
0.00117864
-2.16885e-06
-4.19811e-06
1.14456e-07
5.97581e-06
-2.12471e-06
2.70939e-07
-0.00241754
3.70434e-06
-0.00759125
1.27752e-06
-0.0196238
-0.000463062
-0.00257613
5.90561e-06
2.31815e-07
1.10736e-06
0.00518202
-6.72868e-05
0.000560037
-2.17456e-06
-8.73996e-08
-5.54777e-07
-7.98628e-07
3.0226e-07
-0.00109573
-0.000964813
4.43554e-05
3.19372e-07
-8.80058e-08
2.82843e-09
-1.42747e-07
-0.00184953
-0.0044476
3.58673e-08
-0.00422525
0.00979002
0.0036571
3.1621e-06
-0.00551118
9.37604e-08
-9.18745e-08
0.00688411
3.27279e-08
-8.23808e-08
4.73775e-07
-0.00388071
-0.00112264
-8.53406e-09
-1.13941e-06
-0.0104516
1.78552e-09
8.50283e-06
-1.72869e-06
5.88166e-07
0.00769327
-0.00675277
8.11581e-08
0.00154648
-0.00192118
6.3156e-10
-0.0041679
-0.000248703
6.8258e-06
3.39705e-07
-1.05243e-06
-0.00927977
-4.71238e-08
-1.90023e-09
2.68936e-07
-1.8536e-05
-9.09849e-07
-0.0046053
-0.00278788
2.33491e-07
-1.34506e-06
0.00635871
-0.00687032
-0.00490243
-5.91518e-08
-4.96844e-07
2.10936e-08
6.32087e-05
0.000224682
-0.00228215
-4.22778e-07
6.30923e-11
-6.02326e-08
-3.27158e-08
-0.0104932
2.82609e-07
9.60573e-08
0.000272051
-3.7789e-09
3.08266e-08
2.00579e-06
-0.00952704
0.0104464
-1.95099e-05
-1.24613e-08
-0.00206373
-1.43045e-08
4.94273e-08
8.90703e-05
-0.00624361
0.012916
-0.00292972
-5.68441e-07
-0.00484772
0.016276
-3.47588e-08
-1.54425e-05
-3.48093e-08
1.60241e-07
4.38555e-08
-2.13967e-07
2.64004e-07
4.52686e-08
-8.1053e-08
-0.00575726
-1.43674e-07
1.73356e-07
-9.42875e-08
-5.15362e-06
-1.49894e-06
-4.54158e-08
-1.8455e-07
-4.60258e-08
-0.0355603
4.23908e-09
1.12984e-07
8.465e-07
1.1813e-07
-2.63281e-05
1.73284e-07
0.00736187
0.00445866
-1.52903e-07
-0.0037465
4.31429e-08
-3.41532e-06
-0.000370488
-2.16707e-07
2.03993e-05
0.000210061
1.31207e-06
2.14085e-07
-1.17137e-07
-0.000126996
-0.00783357
1.32314e-06
-1.04658e-07
8.02266e-07
-0.00475525
-3.36787e-08
-0.00779939
-4.56248e-08
3.14041e-07
2.08524e-07
-0.000938469
-6.18706e-08
-1.26013e-08
8.64774e-08
-1.14145e-06
1.61029e-07
-1.31971e-06
0.00305314
-0.00103544
4.71031e-09
0.000840586
-2.65781e-07
1.02818e-05
0.0158795
-3.07924e-06
0.00320715
4.152e-05
7.35308e-07
1.88262e-07
-6.36379e-08
0.000335783
0.00270472
-2.10112e-07
0.000179495
0.00120455
3.08605e-07
2.03775e-07
-0.000105629
4.05855e-06
0.00855062
0.000939606
4.96568e-08
0.000481575
1.46328e-08
3.28536e-08
-3.79085e-08
-4.28156e-07
-1.08516e-08
-7.18484e-07
-3.7717e-08
1.38575e-09
3.04124e-07
-1.04484e-07
0.000303557
1.34951e-07
-9.66171e-07
8.95567e-08
-4.95517e-07
0.0220597
-0.00128677
0.00850056
-8.40011e-08
-3.31145e-06
-1.38117e-06
3.13072e-07
1.28335e-08
2.46487e-07
-1.03852e-06
-6.27566e-06
-0.003561
-4.46798e-05
-1.11429e-06
0.000269025
2.37719e-07
-0.00104609
1.03189e-07
-2.34026e-08
-0.00299513
-1.11025e-07
-3.85019e-05
-1.78481e-08
-0.00271718
0.000409085
-2.80949e-06
-0.0021725
-2.93795e-06
-0.00894318
4.98229e-08
1.94756e-08
-2.95977e-08
0.00765902
3.99261e-05
1.23975e-07
-9.52769e-08
1.18263e-07
-7.25959e-08
6.02768e-08
0.016182
0.000324279
-4.3576e-07
5.62248e-05
-6.25768e-08
-3.16051e-06
5.96909e-06
-0.00362609
2.38966e-10
-0.000251967
2.33192e-08
-0.00304829
-0.00163411
-2.4395e-07
-3.4067e-06
3.34118e-07
5.95118e-06
-3.0699e-06
-0.00939403
4.46758e-07
5.7571e-08
-1.80181e-07
2.13133e-06
-9.86173e-07
0.00237504
1.02453e-06
9.05502e-07
-9.39424e-08
5.59433e-09
-3.71859e-07
2.02355e-08
9.74638e-09
9.29242e-07
0.000867303
-3.32078e-08
-1.84443e-08
1.62326e-05
-7.83155e-05
-5.87752e-05
0.0159575
1.68434e-06
-1.53008e-06
-2.23672e-07
-0.000109172
-1.12649e-07
-1.51603e-08
1.05265e-08
2.93559e-07
-1.53739e-06
3.74079e-07
1.31849e-07
1.23398e-05
-3.63215e-07
3.00908e-06
0.000308841
-5.66928e-08
0.000826668
1.05838e-08
-0.0078831
1.38367e-07
-2.02785e-08
-4.69846e-07
-5.52141e-07
-0.00450167
-8.46463e-08
-4.77107e-07
-0.00348319
-7.77513e-07
-1.34423e-06
-3.57238e-05
-0.018025
-4.16009e-08
4.7429e-08
-0.000362012
0.00276344
-0.001891
-1.16973e-08
-9.39465e-08
0.00200741
-1.00647e-07
3.28641e-07
1.48405e-07
1.23474e-07
6.19813e-07
-2.14951e-07
-0.000556643
1.11123e-06
-3.33531e-07
8.26542e-08
1.51929e-08
1.94608e-07
-0.00768871
-0.00191573
0.000939646
1.55448e-07
-0.000334122
9.75511e-05