/*--------------------------------*- C++ -*----------------------------------*\
| =========                 |                                                 |
| \\      /  F ield         | OpenFOAM: The Open Source CFD Toolbox           |
|  \\    /   O peration     | Version:  v2012                                 |
|   \\  /    A nd           | Website:  www.openfoam.com                      |
|    \\/     M anipulation  |                                                 |
\*---------------------------------------------------------------------------*/
FoamFile
{
    version     2.0;
    format      ascii;
    class       volScalarField;
    location    "200";
    object      k_0;
}
// * * * * * * * * * * * * * * * * * * * * * * * * * * * * * * * * * * * * * //

dimensions      [0 2 -2 0 0 0 0];


internalField   nonuniform List<scalar> 
18649
(
0.00258596
0.000155655
0.000154521
0.00761419
0.000186732
0.000161596
0.0780098
0.000205021
0.000190789
0.000151389
0.000196874
0.0226588
0.0642226
0.000154313
0.000149096
0.000176173
0.000147221
0.000176193
0.00019168
0.0470859
0.0227718
0.000152343
0.0153015
0.000321338
0.00014791
0.0463993
0.000150916
0.0240997
0.000241449
0.000146121
0.000152
0.000173891
0.000148275
0.000154797
0.00015111
0.0127398
0.00015771
0.000149787
0.000148291
0.000204155
0.00019298
0.000306465
0.000200103
0.0294213
0.000155841
0.000146045
0.0171914
0.00847031
0.0341872
0.000148713
0.0663835
0.000164772
0.0582577
0.075218
0.000148304
0.0372078
0.0433407
0.00020001
0.00613748
0.000151117
0.00255969
0.000148712
0.000198909
0.0104083
0.000149827
0.0113916
0.000150741
0.0434469
0.00932182
0.000295908
0.0265742
0.00014884
0.000174318
0.000160224
0.000153991
0.0216715
0.000162748
0.000161687
0.000159719
0.000191973
0.000147498
0.0154802
0.00723325
0.0616291
0.000167987
0.000148168
0.000159511
0.000163833
0.000171175
0.000161146
0.00016871
0.000150008
0.000149386
0.0633041
0.000152184
0.000193963
0.000150964
0.000184753
0.00894634
0.000150671
0.0152296
0.000165062
0.000147222
0.065044
0.00861217
0.000165151
0.000149228
0.00015256
0.000165263
0.000153407
0.014847
0.000171146
0.000149344
0.000153396
0.000246663
0.000156323
0.00014834
0.053783
0.0288729
0.000149449
0.00633846
0.000151002
0.000174153
0.000148857
0.0305613
0.000147897
0.000149966
0.0540249
0.000150825
0.0560749
0.000149361
0.00792437
0.00014878
0.00675807
0.000158078
0.000149426
0.0245853
0.0442758
0.000168548
0.000161211
0.000250736
0.000149518
0.000148053
0.000148201
0.000149119
0.0282337
0.000147999
0.00014876
0.0141215
0.00882817
0.000232215
0.000149494
0.0106092
0.000151737
0.00015025
0.000148188
0.000176765
0.000188742
0.000148201
0.00014949
0.000148726
0.000264801
0.00686313
0.000151719
0.031598
0.000244651
0.000149193
0.000148837
0.000150368
0.000155895
0.000149412
0.000432724
0.000198427
0.000187174
0.000149742
0.0849375
0.0122178
0.000156351
0.000148239
0.000238147
0.00208223
0.000146678
0.00014974
0.0780651
0.00016061
0.000178347
0.000149155
0.000149565
0.000176783
0.000162887
0.000436164
0.000150037
0.00164257
0.000151047
0.000147231
0.000149353
0.000159121
0.000170188
0.000154297
0.00014978
0.000148705
0.000222245
0.042062
0.000157645
0.000172052
0.00016914
0.00530995
0.0183953
0.000152405
0.00311752
0.000149563
0.000153873
0.00015057
0.00121971
0.00851941
0.000149556
0.000166581
0.000148887
0.0296532
0.000149566
0.000220678
0.000149284
0.000452714
0.000395771
0.0440946
0.061118
0.000149727
0.000149471
0.0561343
0.0837415
0.000177414
0.000148683
0.0120876
0.000175332
0.0463269
0.000254065
0.000175593
0.00018216
0.000148787
0.000274287
0.000146943
0.0377981
0.000177151
0.000146664
0.000153528
0.000162899
0.0428286
0.000149462
0.0521871
0.000169642
0.00839518
0.0763601
0.000178052
0.000151256
0.000161255
0.0321055
0.000149297
0.000149557
0.000153651
0.000153551
0.000149054
0.000170618
0.00341078
0.000149446
0.000147264
0.0144818
0.0882556
0.000149368
0.0769987
0.000147426
0.0263348
0.000177154
0.0537333
0.0583269
0.000192057
0.000151023
0.000147258
0.0576126
0.0617707
0.0294547
0.000149122
0.000148789
0.0118062
0.000160311
0.0681712
0.0132099
0.000152068
0.000163
0.000149533
0.000146834
0.000216827
0.00937887
0.0858172
0.000225449
0.00502802
0.000151674
0.00391575
0.000388758
0.000147221
0.0883795
0.000148033
0.000155044
0.000150795
0.000148259
0.000149282
0.000183822
0.000149458
0.000183824
0.000183693
0.00015454
0.0470453
0.000151132
0.0012191
0.000149071
0.000152019
0.00014874
0.000153607
0.000149819
0.00784184
0.0346133
0.000149324
0.000148751
0.000194122
0.000149564
0.000148252
0.000150345
0.000149154
0.000161083
0.0594908
0.000168995
0.00429142
0.000148823
0.000148812
0.000199619
0.00014812
0.000145553
0.071257
0.000159532
0.0445835
0.000157983
0.000258788
0.00014814
0.000158047
0.00015074
0.000155627
0.000148919
0.000149453
0.000146968
0.000168415
0.000175069
0.000149097
0.0592153
0.000149132
0.000150239
0.00432645
0.0783776
0.000153814
0.0393852
0.000269401
0.0281793
0.0831559
0.000155194
0.0809585
0.000149124
0.0325161
0.000533838
0.000151045
0.000155138
0.000159231
0.000151732
0.000150043
0.000147945
0.000148818
0.0434495
0.000161374
0.0448635
0.00408916
6.24209e-05
0.0393153
0.000156072
0.000149932
0.000177221
0.000148668
0.000419399
0.000149791
0.000149525
0.000509881
0.0869487
0.000153295
0.000148868
0.000102138
0.000170866
0.000149527
0.0686739
0.000153867
0.000154956
0.0112666
0.000157111
0.000149552
0.0681299
0.04322
0.000178829
0.000149172
0.000148829
0.0414294
0.0704539
0.000149012
0.00197744
0.000147505
0.000149378
0.0775503
0.00014845
0.0607939
0.000157314
0.000293786
0.035529
0.0653787
0.0860663
0.000148545
0.0147104
0.000149116
0.0567997
0.000177628
0.0324721
0.0647539
0.000147859
0.000146707
0.0002773
0.0261813
0.000158396
0.0594079
0.000153104
0.000154022
0.000147283
0.0581442
0.0602175
0.00717353
0.000152197
0.000150071
0.000453255
0.0155129
0.00015511
0.000151693
0.000148902
0.000147525
0.0278464
0.0527795
0.00014834
0.000150981
0.0149733
0.000148901
0.00533315
0.000148778
0.00144468
0.00017056
0.0323211
0.000158427
0.0763272
0.00336704
0.000157576
0.000189537
0.000153843
0.000186166
0.00015589
0.000149439
0.00016063
0.000414913
0.000146921
0.000154601
0.0144905
0.000147581
0.000149439
0.0478649
0.000147939
0.0322132
0.000152396
0.000153574
0.000150797
0.000162803
0.000153731
0.00014995
0.000233326
0.00014949
0.000163226
0.000148783
0.000162148
0.028436
0.000149884
0.0838505
0.000159134
0.0785762
0.0564778
0.0539092
0.0035809
0.000163504
0.000181714
0.000177733
0.00645603
0.000149617
0.000183854
0.000153413
0.000175388
0.000228781
0.000172277
0.000149525
0.000217983
0.0002675
0.0789486
0.000150548
0.0142408
0.000153463
0.000218528
0.000148782
0.000179227
0.0241873
0.000149383
0.000150833
0.0547971
0.000149139
0.000183769
0.000148984
0.000162167
0.000150909
0.00017113
0.000147922
0.000187656
0.000149823
0.0764807
0.000150674
0.00346385
0.05301
0.0632058
0.0201824
0.000154281
0.0770851
0.000185664
0.0681083
0.00357008
0.000149473
0.000163285
0.000287079
0.000154068
0.00079143
0.000150288
0.000149282
0.000153937
0.000148517
0.000149862
0.000150328
0.0574582
0.000147474
0.000149149
0.000161672
0.00015538
0.000230907
0.0624667
0.000149637
0.000200344
0.000245391
0.000172413
0.000148823
0.0229756
0.0818722
0.0324731
0.000102753
0.000177116
0.000154053
0.000163826
0.000168948
0.000152749
0.00178603
0.000149059
0.000152769
0.000147481
0.062652
0.0311055
0.0349318
0.000160497
0.000149097
0.0408139
0.0119962
0.00048319
0.000162731
0.000163924
0.0534289
0.000148422
0.0523173
0.000155012
0.000152324
0.000150741
0.000231782
0.00862638
0.000152372
0.000186902
0.000158864
0.000151622
0.00109852
0.000224123
0.000149269
0.0691485
0.000168407
0.063145
0.000150224
0.0732141
0.000170987
0.000166257
0.000152971
0.0310884
0.000176301
0.000189655
0.000205489
0.0257749
0.000158235
0.0363228
0.000152021
0.000161173
0.07759
0.000161326
0.000148255
0.000164325
0.000153815
0.000199041
0.000149119
0.00014937
0.000252572
0.0002894
0.0216812
0.000149752
0.0313787
0.000148752
0.000199589
0.000179038
0.000147552
0.000150375
0.000151004
0.0607066
0.000150777
0.000182368
0.000219338
0.0001652
0.000149464
0.000148721
0.000153243
0.0772993
0.000148636
0.000159715
0.000147189
0.0737346
0.000149797
0.000152691
0.000153329
0.000147542
0.0124607
0.000257463
0.000355399
0.000156213
0.0696981
0.0001679
0.000148272
0.000168051
0.00841028
0.000157306
0.000150595
0.077809
0.0890285
0.000148802
0.0118277
0.0322306
0.000152117
0.000152857
0.000177598
0.000150576
0.00014929
0.000558068
0.0269623
0.0011794
0.0765776
0.000149202
0.0580897
0.000148877
0.000148479
0.000148113
0.00971989
0.000150109
0.000149806
0.0527056
0.01668
0.000154429
0.0147564
0.000162966
0.000148359
0.0841233
0.000160564
0.000247423
0.000151686
0.000207808
0.000145736
0.000158622
0.000149892
0.000201873
0.000149462
0.00768326
0.0509227
0.000214582
0.00722275
0.0266042
0.000157348
0.0235529
0.0124391
0.000221698
0.000150807
0.000150254
0.0176833
0.0887185
0.010849
0.000190665
0.000172737
0.000148958
0.000157265
0.0787325
0.00362876
0.000149059
0.000155682
0.0481644
0.0738076
0.0318877
0.000212357
0.000151441
0.000152136
0.0297485
0.0223977
0.000147356
0.000163571
0.000147292
0.000540929
0.000148754
0.0613783
0.000172713
0.000148782
0.000152348
0.0248897
0.000149107
0.000158717
0.000149362
0.000149864
0.000149192
0.000464394
0.000174939
0.000150129
0.0838856
0.02019
0.0657231
0.000149891
0.0555639
0.000155341
0.000158991
0.000249604
0.000148933
0.000149438
0.000149338
0.00050208
0.0606026
0.000408749
0.000149249
0.000158961
0.000148205
0.000148105
0.000145986
0.000153236
0.000164826
0.0734086
0.000159685
0.000148483
0.000187358
0.000558568
0.000166058
0.000148456
0.060799
0.0210538
0.000149006
0.00949201
0.000165318
0.000180226
0.00015857
0.000149011
0.000153643
0.000182682
0.00791787
0.0511758
0.0001507
0.0640067
0.0397091
0.00741819
0.00015286
0.0104516
0.00021149
0.0272044
0.000167589
0.0399809
0.000149555
0.0156064
0.0766961
0.0646376
0.000149954
0.000150936
0.000159145
0.000382263
0.000150689
0.000211186
0.000151791
0.000230303
0.000163349
0.0277297
0.0631169
0.000148845
0.000210676
0.00017111
0.000211923
0.000187724
0.0612626
0.000149131
0.000189067
0.000171724
0.000252065
0.0313731
0.000149467
0.0380427
0.070908
0.000149375
0.0527414
0.000200626
0.00014741
0.074974
0.069035
0.000151309
0.000169121
0.0513257
0.000149333
0.0389919
0.000149555
0.000149298
0.000149397
0.000168187
0.000148513
0.000146057
0.0667138
0.000149945
0.000157505
0.000152049
0.0883241
0.000163251
0.000149116
0.000149198
0.0383498
0.00015018
0.000238712
0.000442453
0.000160359
0.0831869
0.000153115
0.00016499
0.0639301
0.000118864
0.000157569
0.000149125
0.000159838
0.00016179
0.000302949
0.000154175
0.00014861
0.000183697
0.000149427
0.0281556
0.000171204
0.000150217
0.000148666
0.000161342
0.000159675
0.000398222
0.000149347
0.000147485
0.000336008
0.000149318
0.012069
0.0210895
0.000157525
0.0627929
0.000149047
0.0337287
0.000148874
0.000187086
0.000229278
0.000383936
0.000171746
0.000147925
0.000185559
0.000153674
0.00749962
0.0506176
0.00740301
0.000227575
0.000178539
0.000151739
0.000154076
0.0178341
0.0275668
0.000149167
0.0779809
0.0586641
0.000147525
0.000169684
0.00826933
0.0520639
0.000149236
0.0276137
0.0769083
0.0347093
0.0222469
0.0802646
0.0225527
0.000178805
0.000148293
0.000155454
0.00016847
0.000149147
0.00015139
0.0367116
0.00015384
0.000178526
0.0241399
0.000224237
0.0650775
0.000162973
0.0623788
0.000199234
0.000182336
0.000149866
0.00904883
0.000148997
0.0652353
0.0444217
0.000149325
0.000215489
0.000149508
0.0708467
0.0503771
0.000216378
0.0053099
0.000146894
0.000150454
0.0190208
0.000175791
0.00356597
0.000146803
0.000148599
0.000148462
0.000153996
0.000171681
0.000148585
0.000148464
0.000155629
0.000153724
0.000149557
0.000208314
0.000149189
0.000161257
0.000149345
0.000153657
0.00120966
0.0810886
0.000527708
0.0262396
0.0634695
0.000224921
0.000563185
0.000153499
0.000167551
0.0235455
0.000153982
0.000148588
0.000148795
0.000152379
0.000265019
0.000174673
0.000499053
0.000171734
0.000156823
0.0325426
0.0257253
0.02385
0.000171825
0.028003
0.000151678
0.000149228
0.000148876
0.000149962
0.000149135
0.000178134
0.0166998
0.00018894
0.00362841
0.00763852
0.0537508
0.000159065
0.000149162
0.000172074
0.000158596
0.000169705
0.00498019
0.000165561
0.0780875
0.0441079
0.000186153
0.000346512
0.000145987
0.000149031
0.000160831
0.0187638
0.000154086
0.000148888
0.000150397
0.000155678
0.000149211
0.0186371
0.000155398
0.000149859
0.000148693
0.000201978
0.000153757
0.000158964
0.00827774
0.000147285
0.00109675
0.00015874
0.00018278
0.00014915
0.0214177
0.000149549
0.000217385
0.000339165
0.0802717
0.000148834
0.0633343
0.000161736
0.000154719
0.000160349
0.000153906
0.000172358
0.000155385
0.000148987
0.0384802
0.000244956
0.000154616
0.0265378
0.0188202
0.000149377
0.000149351
0.000174277
0.000151911
0.000150743
0.0751881
0.000145549
0.000149093
0.000149757
0.0835805
0.0623948
0.000164216
0.081443
0.000170937
0.000773265
0.0547301
0.000154554
0.000149202
0.000199208
0.000154386
0.0764912
0.0465853
0.0593021
0.000149033
0.000170026
0.0394891
0.000149267
0.0102759
0.0269314
0.0648867
0.000149452
0.000148436
0.0842862
0.000156761
0.000146777
0.000166738
0.000150879
0.000150236
0.000152296
0.000149422
0.0341452
0.000170626
0.000148327
0.000256202
0.000148387
0.0402506
0.000177635
0.0832676
0.000153467
0.00165492
0.000280098
0.000148761
0.000264217
0.000149017
0.0385134
0.063856
0.000155633
0.0253725
0.000150618
0.000149025
0.00568248
0.000149352
0.00146719
0.000171528
0.000149226
0.0391796
0.000148994
0.000171624
0.000148572
0.000151975
0.000153257
0.00016344
0.000148619
0.000148769
0.000148871
0.000151288
0.000151692
0.0770308
0.000148622
0.00294294
0.00673917
0.000155937
0.0202973
0.000148679
0.000147754
0.0232083
0.058958
0.00020858
0.0589789
0.000153917
0.000151737
0.000169425
0.00014929
0.000159726
0.00015253
0.000201294
0.0698985
0.000229755
0.00016
0.000157545
2.8412e-05
0.0326838
0.000161527
0.000389565
0.000159352
0.00019807
0.0264356
0.0107086
0.0768689
0.0671806
0.000178204
0.0258384
0.00261892
0.000169273
0.000149305
0.000148033
0.0805715
0.000157415
0.000204409
0.0766406
0.00017084
0.000153402
0.000148917
0.0631631
0.0410851
0.000162769
0.0224995
0.000153643
0.000154051
0.00756437
0.000151235
0.000149043
0.00377296
0.000150904
0.000168157
0.0418308
0.0846409
0.000150905
0.000149866
0.0316413
0.000217799
0.0380603
0.000148612
0.0712371
0.000221056
0.00810762
0.000149146
0.0226096
0.000148397
0.000153711
0.000152027
0.000148381
0.000199568
0.000148222
0.000149498
0.000149922
0.000152258
0.0514857
0.0775656
0.000149124
0.0743268
0.000173444
0.079445
0.0506192
0.068054
0.000147456
0.000149528
0.000198316
0.000152138
0.00014993
0.000148677
0.000153603
0.000249861
0.000148952
0.0294065
0.00686712
0.000149821
0.000153299
0.000149152
0.000148405
0.000291713
0.0211491
0.000148963
0.0483949
0.0446645
0.000149033
0.0864768
0.000151823
0.0421936
0.000149187
0.000145816
0.0245503
0.0489692
0.000149246
0.0376875
0.000152175
0.0301441
0.000152566
0.00017883
0.0477866
0.000159689
0.000217563
0.0405685
0.000153897
0.000181608
0.000163885
0.0427929
0.0883832
0.000154035
0.0589006
0.000150583
0.000166796
0.000148783
0.000167851
0.00996275
0.000154102
0.0120315
0.0318742
0.000165814
0.0816053
0.000149674
0.0331179
0.000149316
0.000277621
0.000150789
0.000148335
0.000206886
0.0317116
0.0660464
0.000165608
0.000216226
0.0491228
0.000157106
0.000208823
0.0626921
0.0240086
0.0386841
0.0463671
0.000215365
0.000173452
0.000149017
0.000148858
0.0656459
0.0509432
0.000151403
0.000182784
0.0422291
0.000171179
0.0836246
0.00018469
0.0580949
0.0385604
0.000159279
0.0471949
0.000165586
0.000172511
0.047261
0.0654122
0.0542284
0.000174242
0.024671
0.0267898
0.000155111
0.000151461
0.000152463
0.000158968
0.000147948
0.000147247
0.000213274
0.0193579
0.00953216
0.000149175
0.0677581
0.046238
0.000173235
0.000196795
0.000166417
0.0512816
0.000311751
0.000149112
0.00136295
0.000175186
0.000148813
0.000146461
0.03551
0.000148921
0.0687224
0.000151412
0.000148935
0.000151476
0.0387442
0.00023279
0.000181379
0.000233954
0.0105424
0.0478877
0.0763985
0.000151552
0.000279877
0.0672522
0.00183068
0.000149463
0.000182682
0.0428077
0.00161485
0.000148718
0.000149821
0.054883
0.000200422
0.000165102
0.0697722
0.0587963
0.0331326
0.000148711
0.000149167
0.00014878
0.000215717
0.000251766
0.000151034
0.000149464
0.000181339
0.000197716
0.000173245
0.000148706
0.000150048
0.000149152
0.000168265
0.000146923
0.000174065
0.000149985
0.000148736
0.00808252
0.0398276
0.075306
0.000151351
0.000168735
0.072402
0.000151959
0.00015358
0.000147209
0.000151567
0.00225255
0.000148344
0.000149275
0.00015001
0.000149195
0.000148486
0.00624325
0.000146749
0.000171753
0.00295923
0.000148997
0.000149964
0.000151205
0.000264841
0.000245165
0.000149844
0.000148525
0.000166777
0.000202214
0.000152366
0.000174038
0.00016057
0.00186331
0.000156188
0.000169433
0.000148958
0.00158124
0.0249012
0.000200735
0.000149794
0.0593572
0.000164772
0.000149356
0.000170506
0.000149847
0.00014833
0.000217207
0.000180679
0.000165495
0.000149436
0.000148885
0.000148164
0.000190594
0.000146391
0.0203461
0.058186
0.000164468
0.00015742
0.000152144
0.000199027
0.000149493
0.000148925
0.000150005
0.00017778
0.000160966
0.000158023
0.0890615
0.000148594
0.000181055
0.000146776
0.000151012
0.00015349
0.000171266
0.000149001
0.000148431
0.000155319
0.000156948
0.00014936
0.0712217
0.000149397
0.0306588
0.000220374
0.000148556
0.055333
0.000342534
0.000481838
0.00910825
0.000158368
0.000148925
0.000228169
0.000189694
0.000159188
0.000148644
0.000168806
0.027978
0.000149239
0.00014853
0.000149533
0.00014985
0.000185007
0.000149256
0.000152992
0.00014874
0.000147935
0.000159573
0.000166674
0.00015571
6.4813e-05
0.000189075
0.000149081
0.000153983
0.000149084
0.000180594
0.00015376
0.00893521
0.000148823
0.00014932
0.0564047
0.000177336
0.000150924
0.000148918
0.000147212
0.000148373
0.000163038
0.000146883
0.000149466
0.00195304
0.000167487
0.0385232
0.000187924
0.000148629
0.0001491
0.000166776
0.000153208
0.000281724
0.000149242
0.068439
0.000148428
0.000148841
0.000157032
0.000296453
0.0651304
0.00909131
0.0640868
0.00014836
0.000152023
0.0804229
0.071335
0.0474887
0.0088031
0.000146097
0.000169907
0.000152642
0.000151551
0.00014848
0.00015953
0.000149051
0.000151826
0.0599324
0.000147953
0.000148946
0.000344049
0.000158118
0.000149179
0.000148805
0.0412907
0.000174775
0.000147482
0.000198437
0.000159953
0.0002087
0.000217735
0.000149844
0.000198246
0.000147963
0.000181616
0.000165901
0.000374178
0.000149221
0.0396982
0.000148344
0.000154168
0.000151607
0.000149865
0.000149299
0.000149107
0.0231652
0.0665748
0.000149818
0.0721494
0.0147363
0.000148523
0.000147813
0.066236
0.000183246
0.000172479
0.00696125
0.000166557
0.000149022
0.000149057
0.0691683
0.000149452
0.000197872
0.0214275
0.0680571
0.000150596
0.000155776
0.00021305
0.000204223
0.000175621
0.00016627
0.000159328
0.0447628
0.00014979
0.00761409
0.00778054
0.0536517
0.000148723
0.00596404
0.000153674
0.000253519
0.000149464
0.000179609
0.000147831
0.000203335
0.000200968
0.00015345
0.0017249
0.0294153
0.000151829
0.0091415
0.000148648
0.000152588
0.00014936
0.000226596
0.000149053
0.084615
0.000216908
0.0501444
0.000149827
0.000148788
0.000166208
0.0498946
0.000158355
0.000202646
0.000149172
0.00159209
0.000154985
0.000214813
0.0108269
0.000149412
0.0384077
0.000184242
0.000209163
0.000148414
0.000155708
0.000159896
0.0001521
0.000165339
0.000149325
0.000150849
0.000197338
0.000148849
0.00279698
0.00018095
0.000186157
0.0277479
0.000159286
0.0212693
0.0152434
0.0647563
0.0590883
0.000150542
0.000205623
0.0613667
0.000158598
0.000149933
0.000152753
0.000149542
0.000153962
0.000199936
0.000164176
0.000188192
0.000181144
0.0412761
0.00014683
0.000169253
0.00189421
0.0834
0.0234281
0.000150798
0.000149385
0.000146911
0.0736387
0.000173799
0.000216596
0.0116787
0.000175871
0.000166739
0.000148694
0.000167939
0.000153214
0.0535909
0.000165061
0.000147263
0.0448369
0.000167801
0.000217253
0.000171023
0.085768
0.000152579
0.000146697
0.000148763
0.000153929
0.0881323
0.000147245
0.00014936
0.000223752
0.000163239
0.000147998
0.000146581
0.000162336
0.000184791
0.000171175
0.000247484
0.000150667
0.000149277
0.000162156
0.000211034
0.0208384
0.000217557
0.000214486
0.000149444
0.000146789
0.0305532
0.000148956
0.000147442
0.000147902
0.000153624
0.00016821
0.000161673
0.00109105
0.00586049
0.000174037
0.0613575
0.0144985
0.000148985
0.00706236
0.00021105
0.000196216
0.000149293
0.000147154
0.084541
0.000164148
0.000155503
0.000368727
0.000148801
0.000149169
0.0675232
0.000252218
0.000187475
0.00014933
0.000146862
0.00770507
0.000334378
0.000149402
0.000160295
0.000149162
0.0603049
0.000295751
0.000165324
0.000148752
0.000148921
0.0347301
0.000468276
0.000157856
0.000147988
0.000153494
0.000154023
0.000174994
0.00682355
0.0164488
0.00014885
0.000148851
0.064433
0.000165214
0.000152305
0.000157906
0.000155238
0.000150864
0.0347108
0.000149011
0.000207495
0.0845948
0.000148667
0.000148616
0.000148911
0.0465588
0.000147424
0.050306
0.0044829
0.000206091
0.000149876
0.000199002
0.0172637
0.000146207
0.034371
0.000340824
0.085086
0.000150193
0.000149378
0.00019798
0.000150059
0.0548709
0.000352103
0.0754683
0.000149303
0.000158516
0.0634791
0.0582685
0.000165148
0.000148735
0.000172502
0.000148714
0.000322026
0.0292934
0.0675552
0.000182148
0.000154596
0.000149833
0.0640961
0.010385
0.000149278
0.000483358
0.000188142
0.0724345
0.00015932
0.000148948
0.0180641
0.0128536
0.000164506
0.000214326
0.000153058
0.000189377
0.000168962
0.000170992
0.000149591
0.000149157
0.000161162
0.0395528
0.0506698
0.0695755
0.000162724
0.076713
0.000149925
0.0018053
0.000149095
0.0494394
0.0110946
0.000148337
0.000159922
0.000148611
0.000149267
0.00014926
0.000209334
0.00743437
0.000151317
0.003784
0.000148772
0.000160762
0.0645673
0.0398091
0.000170732
0.000166482
0.000299335
0.0018854
0.000210652
0.000148828
0.000149626
0.000148764
0.000147992
0.000148614
0.0482065
0.000146686
0.000150948
0.000146514
0.000155396
0.000153427
0.000183593
0.000159096
0.000148663
0.00984856
0.000148637
0.000154375
0.000167636
0.0143992
0.000147154
0.000149607
0.000152587
0.000151059
0.0240922
0.000194724
0.00014931
0.000149346
0.000188367
0.00014795
0.000149271
0.0653495
0.000364972
0.00768672
0.000156535
0.0320037
0.00494171
0.000162523
0.000152181
0.0232078
0.000145813
0.000148713
0.000148771
0.0002002
0.00173777
0.000153488
0.000196825
0.0680007
0.000157746
0.000148829
0.000154616
0.0433323
0.000148802
0.0236801
0.000149844
0.000193109
0.000386477
0.000154517
0.0173559
0.000214835
0.000216618
0.00017444
0.000148522
0.000151467
0.000171407
0.000149331
0.0663464
0.00508533
0.000151666
0.000149927
0.000174137
0.000155987
0.000230481
0.000129203
0.058705
0.000149335
0.000149094
0.0218643
0.000149229
0.000163712
0.000161297
0.000221555
0.0251165
0.000292854
0.000159455
0.000207172
0.000328326
0.000179522
0.000176353
0.000151412
0.000170753
0.000149922
0.0166565
0.000154723
0.0711729
0.000184816
0.000149065
0.000236252
0.00015173
0.00014895
0.000173488
0.000161904
0.00770182
0.000148821
0.000152967
0.000149327
0.0861508
0.0001475
0.0581261
0.030765
0.000149174
0.00014751
0.0395935
0.000153587
0.029293
0.0490376
0.0520144
0.000171261
0.0337279
0.00465626
0.000151534
0.000148995
0.00016727
0.000148558
0.0633993
0.000150105
0.000217767
0.000165515
0.000175261
0.0512994
0.000177257
0.000149296
0.000148754
0.0235421
0.0041173
0.0257845
0.0377536
0.0001651
0.0493937
0.000148816
0.0501149
0.000480423
0.000208378
0.00017373
0.000260781
0.000705703
0.0266737
0.000149234
0.000168009
0.000153682
0.000149431
0.000151802
0.000147511
0.00015074
0.0685898
0.000148822
0.000216062
0.00021247
0.00862445
0.000211155
0.000163261
0.0001639
0.0001533
0.000149167
0.00123015
0.0170089
0.000189314
0.000149773
0.0749517
0.000222939
0.000166391
0.000462966
0.0282854
0.000148465
0.000149637
0.00135548
0.0629782
0.000149312
0.000148964
0.000173588
0.000147257
0.0563386
0.000291188
0.000162636
0.000150333
0.0786306
0.000147936
0.00015393
0.000156043
3.20975e-05
0.000176356
0.000168911
0.000159536
0.00018561
0.000198008
0.000150841
0.0416641
0.000174843
0.0324043
0.000166081
0.069973
0.0100266
0.0513215
0.000430942
0.000154941
0.000164809
0.0269933
0.0716477
0.0229785
0.000169188
0.000150511
0.000151422
0.000183176
0.000149323
0.0115653
0.00202315
0.000980154
0.000150957
0.000155607
0.000149288
0.000155987
0.0288295
0.0656704
0.000147468
0.0731804
0.0552879
0.0386916
0.000176134
0.074462
0.000151339
0.000148843
0.0606332
0.000148454
0.000152288
0.000150425
0.0648009
0.00947226
0.000166123
0.000167357
0.0831937
0.000149812
0.000173527
0.000163412
0.000153057
0.0277029
0.0648713
0.000148746
0.0346562
0.011859
0.000149252
0.0578908
0.0510581
0.000198859
0.000161319
0.000155649
0.0661309
0.000154884
0.000147891
0.000149331
0.000209996
0.000167475
0.0346574
0.0124902
0.000150014
0.000152993
0.0664695
0.0782014
0.0669082
0.00014922
0.000171877
0.000147448
0.00181202
0.000376147
0.0112763
0.000173809
0.00014978
0.000146781
0.000148507
0.064403
0.000150764
0.000148837
0.00866628
0.000148917
0.000147333
0.000168371
0.0640147
0.0643831
0.000239828
0.000148854
0.0672605
0.000147048
0.000145243
0.000318267
0.0874034
0.0597136
0.0291853
0.000154758
0.0300261
0.0147007
0.000147902
0.000205081
0.000149265
0.000149186
0.00014852
0.000148774
0.000149325
0.000147502
0.000173525
0.0154069
0.000149004
0.000148749
0.000155793
0.000168594
0.000193619
0.000148557
0.000148794
0.000149102
0.0849247
0.000147965
0.000148672
0.000158106
0.000149712
0.000194177
0.000149403
0.0668334
0.0527545
0.000163307
0.0177948
0.000147959
0.000198333
0.0490951
0.000148642
0.000270967
0.000376782
0.000172909
0.000149802
0.000148095
0.00438533
0.0767585
0.000186231
0.000148246
0.000152593
0.0356862
0.000149734
0.0860175
0.000148804
0.000149349
0.000149379
0.0120397
0.000156457
0.000148124
0.000149064
0.000173114
0.000182098
0.000159558
0.000183485
0.0711266
0.000149123
0.0551928
0.000148902
0.000199791
0.0458248
0.000158786
0.0499021
0.000351135
0.000162183
0.00014959
0.000149141
0.000314936
0.0578882
0.000153175
0.00603846
0.0403759
0.000149327
0.000149131
0.000384396
0.00019842
0.0564781
0.00946385
0.000152076
0.00964571
0.000149847
0.000149113
0.00015003
0.000155555
0.000148687
0.000152704
0.000148942
0.000149072
0.000154825
0.000148399
0.0253701
0.000149407
0.000173003
0.00014894
0.000150373
0.0418214
0.00476009
0.0658323
0.000159712
0.000185505
0.000165563
0.000150012
0.000149601
0.000160136
0.000169158
0.000197961
0.0133872
0.00143594
0.00018128
0.00221249
0.000151248
0.00224632
0.000149314
0.00015942
0.0148228
0.0001585
0.0553199
0.000148759
0.0104708
0.00337121
0.000194677
0.0627044
0.00018519
0.00905056
0.000146967
0.000145713
0.000148236
0.0410074
0.0002762
0.000159939
0.000149229
0.000153417
0.000148773
0.000150196
0.0453353
0.000264673
0.000152034
0.000213771
0.000148389
0.00019021
0.000196299
0.0640189
0.000147522
0.00970846
0.000147418
0.0637121
0.0583208
0.000164682
0.000187358
0.000157726
0.000195985
0.00373797
0.0849893
0.000153075
0.000159844
0.000152557
0.000162126
0.000160353
0.000338774
0.000167671
0.000200549
0.000149082
0.000149825
0.000164223
0.000151205
0.000147933
0.00016935
0.00920324
0.000146108
0.000175392
0.000204513
0.00025565
0.000262285
0.0280624
0.000200642
0.000161954
0.000149172
0.011458
0.000149268
0.000149866
0.000148794
0.000149627
0.000163931
0.000159302
0.000152103
0.000175571
0.000159594
0.00019089
0.0746895
0.000167338
0.00907838
0.000149052
0.0453222
0.000177022
0.000156047
0.00015036
0.000173806
0.0670563
0.000148645
0.000157902
0.0712813
0.000165663
0.000152985
0.000227506
0.0699944
0.000149366
0.000148839
0.055867
0.037031
0.0626276
0.000162913
0.000148815
0.0313275
0.000148743
0.000149265
0.000149429
0.000151904
0.000166786
0.000149585
0.060247
0.000161721
0.000169594
0.000148548
0.00014905
0.000151824
0.0423575
0.0075795
0.0685775
0.000152948
0.0102306
6.2086e-05
0.017076
0.00014932
0.000153982
0.048073
0.000149832
0.0312663
0.0164203
0.00985912
0.000151149
0.000146353
0.000148711
0.000153022
0.000150021
0.0107754
0.0760212
0.000159552
0.0627087
0.000151389
0.0429306
0.000147808
0.000149364
0.0657605
0.0656699
0.00014667
0.000159336
0.00019815
0.00014969
0.0362259
0.000165636
0.059934
0.000148633
0.0126185
0.0250308
0.000156922
0.00201663
0.0346937
0.0526811
0.000216192
0.000189805
0.000173959
0.000367389
0.000149267
0.000151141
0.000149261
0.074198
0.000149192
0.000150117
0.000149325
0.000185188
0.000149229
0.000146584
0.0638777
0.0734458
0.000280668
0.0179506
0.0572461
0.000149899
0.000219052
0.0125494
0.000170018
0.000147773
0.00014847
0.000157752
0.0151256
0.0676549
0.0872065
0.00014865
0.027857
0.0457928
0.00800839
0.0238466
0.00015053
0.000267773
0.000147195
0.000149389
0.0256763
0.000219312
0.000169777
0.00014909
0.000148759
0.000163465
0.00406546
0.00362312
0.0873375
0.000150733
0.00941322
0.000151271
0.00020943
0.00033207
0.000337745
0.000150871
0.000149376
0.00768547
0.000147739
0.00281054
0.000148675
0.0521128
0.000149445
0.000194445
0.065033
0.000155232
0.0469773
0.000172699
0.00242427
0.000149161
0.0632817
0.000153726
0.0584219
0.0132147
0.0553902
0.0109891
0.000149348
0.00961423
0.000186306
0.000175804
0.000240297
0.0753248
0.000157093
0.000147735
0.0657089
0.000152201
0.000153225
0.0484479
0.000149853
0.00014986
0.0676723
0.0482241
0.0753792
0.000148737
0.0141126
0.000149348
0.00015819
0.0163129
0.000156216
0.000151141
0.00856692
0.018954
0.000188582
0.066522
0.00014858
0.00018061
0.000234904
0.00473096
0.000166517
0.000182404
0.060057
0.0586121
0.00103563
0.000147119
0.000152259
0.000157352
0.000153816
0.000149228
0.000161089
0.000149367
0.00124849
0.0290896
0.000162416
0.000148339
0.000150141
0.00015998
0.000148639
0.0773527
0.00019635
0.00063804
0.00017781
0.000151166
0.000149538
0.000218009
0.000150869
0.0125366
0.0001493
0.00956069
0.000216334
0.0242471
0.000188374