/*--------------------------------*- C++ -*----------------------------------*\
| =========                 |                                                 |
| \\      /  F ield         | OpenFOAM: The Open Source CFD Toolbox           |
|  \\    /   O peration     | Version:  v2012                                 |
|   \\  /    A nd           | Website:  www.openfoam.com                      |
|    \\/     M anipulation  |                                                 |
\*---------------------------------------------------------------------------*/
FoamFile
{
    version     2.0;
    format      ascii;
    class       volVectorField;
    location    "200";
    object      U_0;
}
// * * * * * * * * * * * * * * * * * * * * * * * * * * * * * * * * * * * * * //

dimensions      [0 1 -1 0 0 0 0];


internalField   nonuniform List<vector> 
18649
(
(-0.143374 -0.0273391 3.79952e-23)
(1.02035 -0.124753 -7.295e-22)
(1.07636 0.0026379 0)
(-0.142077 -0.0153435 -1.59462e-19)
(0.483643 -0.185564 1.25339e-19)
(1.12579 -0.0751478 -4.06607e-20)
(0.144905 -0.0901958 -1.59957e-19)
(1.27964 -0.272727 -2.39262e-20)
(1.26484 0.0113628 3.52712e-20)
(0.958619 -0.0615569 -9.34353e-22)
(1.22629 -0.329506 1.01691e-19)
(-0.332222 -0.102005 -4.78886e-20)
(1.09887 0.263555 -2.66985e-19)
(1.07523 0.00118417 0)
(0.992052 -0.0223184 0)
(1.21206 -0.0565338 5.02837e-20)
(1.01642 -0.00253102 6.05384e-22)
(1.2112 -0.0620379 2.15872e-20)
(1.13447 -0.40976 6.10062e-20)
(0.0381123 -0.091096 -1.83357e-19)
(0.00854293 -0.0326568 -1.29891e-20)
(1.05288 -0.0686015 0)
(-0.255452 -0.0364414 0)
(1.32976 0.298896 0)
(1.01767 -0.0172406 0)
(0.0101302 -0.0889661 -3.9492e-20)
(1.04083 -0.061175 -1.00012e-21)
(-0.333995 -0.108888 -1.37854e-19)
(1.33391 -0.25664 0)
(1.03164 -0.00192947 -1.1422e-20)
(1.06083 -0.0490558 5.35146e-21)
(1.05969 -0.342531 1.48936e-20)
(1.00523 -0.010154 -9.28715e-23)
(0.964612 -0.11022 -2.29425e-20)
(0.982865 -0.0782717 4.83433e-21)
(-0.271914 -0.0475072 -4.39395e-20)
(0.880899 -0.0801162 6.5849e-20)
(1.01744 -0.0574687 2.03178e-22)
(1.03684 -0.0142202 7.03336e-21)
(1.27137 -0.274027 -6.85494e-20)
(1.27572 0.0103388 -1.07913e-19)
(1.32839 0.301329 -5.51016e-21)
(1.27033 0.0578365 -5.23427e-21)
(-0.211344 -0.0568496 7.11274e-23)
(1.0242 -0.123972 -7.95537e-22)
(1.03199 -0.00158419 -1.01366e-20)
(-0.0670866 -0.032056 -1.47361e-19)
(-0.138145 -0.0162406 1.1294e-19)
(1.11195 -0.313996 -9.68959e-22)
(1.03491 -0.0206063 1.29287e-20)
(-0.408093 0.416403 1.03251e-19)
(1.1269 -0.121956 -6.54343e-21)
(0.299324 -0.0445209 3.36701e-20)
(0.428615 -0.134072 0)
(1.00501 -0.00926712 -7.13953e-22)
(1.07293 -0.3045 1.29745e-19)
(-0.256542 -0.160832 0)
(1.31662 -0.0171156 0)
(-0.116778 -0.020341 -1.53232e-19)
(0.962046 -0.0608956 1.03201e-21)
(-0.143465 -0.0272598 -1.07866e-19)
(1.00394 -0.0225959 3.13849e-21)
(1.26255 0.0648497 0)
(-0.126034 -0.018274 -6.22093e-20)
(1.01908 -0.0567519 0)
(-0.11954 -0.0182831 2.19049e-19)
(1.0506 -0.0386042 0)
(-0.260229 -0.186121 0)
(-0.125063 -0.0256455 -1.12721e-19)
(1.43781 -0.133065 1.33239e-19)
(-0.267646 -0.0411858 1.81411e-20)
(1.00526 -0.0257559 3.92626e-22)
(1.04576 -0.350807 4.26752e-21)
(1.12264 -0.0389716 -1.08633e-22)
(0.969519 -0.106545 1.87591e-20)
(0.00209536 -0.034195 1.4229e-20)
(0.865636 -0.183701 1.20798e-20)
(1.05033 -0.170272 1.18431e-20)
(1.11896 -0.0377585 -1.24997e-20)
(0.986942 -0.51822 0)
(1.01658 -0.00242603 0)
(-0.0810817 -0.0343635 0)
(-0.153607 -0.0454142 2.86756e-19)
(0.327123 -0.0495177 -3.17875e-20)
(0.83933 -0.295036 0)
(1.03647 -0.0133203 -9.84793e-21)
(0.887153 -0.137804 5.61328e-20)
(1.12468 -0.118399 4.93893e-20)
(1.16195 -0.168366 2.65148e-20)
(1.1275 -0.0459279 0)
(1.16406 -0.0182256 -5.42107e-20)
(0.966231 -0.040806 0)
(1.00729 -0.0506401 -2.35363e-21)
(-0.170479 -0.107186 -2.15459e-19)
(1.05193 -0.0671447 0)
(1.22508 -0.311085 1.47394e-19)
(0.967583 -0.0650764 0)
(0.962236 -0.478229 3.82167e-21)
(-0.122589 -0.0272876 -5.69884e-20)
(1.04009 -0.0573306 8.88159e-22)
(-0.256057 -0.0375308 -1.7345e-19)
(0.925553 -0.259423 0)
(1.02133 -0.00785975 9.62461e-24)
(-0.390633 0.425246 0)
(-0.126686 -0.0269146 6.25124e-20)
(1.13127 -0.121761 -1.09124e-21)
(0.999101 -0.00580432 -5.94812e-21)
(1.06605 -0.050655 -1.21816e-21)
(0.927508 -0.252036 -1.48957e-20)
(0.967997 -0.0960876 1.61237e-20)
(-0.27266 -0.0469667 -8.39024e-20)
(0.68668 -0.241277 -1.36369e-19)
(1.00721 -0.0504613 -2.11868e-21)
(0.963316 -0.0959936 -5.27341e-21)
(1.41546 -0.0740802 1.19505e-19)
(1.08706 0.0027418 -1.22809e-20)
(1.00454 -0.00893168 -1.30547e-23)
(-0.17309 -0.225585 0)
(-0.220816 -0.0549398 0)
(1.04444 -0.0185243 0)
(-0.116628 -0.0215894 1.52651e-19)
(1.02758 -0.0709634 0)
(1.04781 -0.349463 -4.10072e-21)
(1.00456 -0.0257841 4.54114e-23)
(-0.0699095 -0.0727662 5.15806e-20)
(1.01812 -0.0181983 0)
(1.00003 -0.000536268 -6.51496e-21)
(0.0134799 -0.104758 3.59821e-20)
(1.02674 -0.0696237 1.2694e-21)
(-0.15087 -0.22358 1.03531e-19)
(1.00037 -0.0417067 4.55847e-22)
(-0.150142 -0.0477282 -1.85907e-19)
(1.01994 -0.0337655 -1.86625e-21)
(-0.110844 -0.018959 1.22509e-19)
(0.874723 -0.0859446 -2.392e-20)
(0.999818 -0.00532309 -1.31553e-20)
(-0.240478 -0.0533177 -9.68365e-23)
(-0.252898 -0.168938 0)
(1.16054 -0.0150338 4.92096e-20)
(1.04401 -0.173452 0)
(0.473645 -0.611475 -2.83981e-20)
(1.02937 -0.0475427 0)
(1.03178 -0.015712 0)
(1.00908 -0.0159159 1.74053e-22)
(1.00034 -0.00868196 -1.26416e-20)
(-0.411957 -0.21176 0)
(1.03232 -0.0161853 0)
(1.002 -0.0171097 -8.80367e-21)
(-0.246103 -0.0355358 0)
(-0.127372 -0.0263403 1.25686e-19)
(1.4872 -0.105917 -9.03685e-20)
(0.999579 -0.00391481 0)
(-0.172233 -0.0664745 0)
(1.06311 -0.020702 -1.40705e-20)
(1.02918 -0.0609818 0)
(1.00866 -0.015746 0)
(0.596905 -0.268141 0)
(0.984671 -0.50542 -1.26262e-20)
(1.00514 -0.00489702 -1.37936e-23)
(0.989509 -0.047745 4.00584e-21)
(1.00094 -0.0144912 6.80605e-21)
(1.28232 -0.341185 1.54802e-19)
(-0.112335 -0.021491 -1.25882e-19)
(1.06255 -0.0209582 -1.33855e-20)
(-0.0637699 -0.0736194 0)
(1.40966 -0.0806478 -1.14878e-19)
(0.999155 -0.00602527 0)
(1.00666 -0.0277261 -1.15375e-21)
(1.03058 -0.061532 -2.08257e-21)
(1.08475 0.000783354 -2.01179e-20)
(0.999628 -0.0422625 0)
(0.166269 -0.489806 1.42669e-19)
(1.30702 -0.0168674 0)
(0.484975 -0.238037 0)
(1.02071 -0.0545609 -6.5287e-22)
(0.671326 0.158477 -2.84124e-19)
(-0.23714 -0.0355444 1.92296e-22)
(1.02907 -0.128327 3.08073e-21)
(1.00482 -0.0049369 -7.63162e-23)
(1.44814 -0.152976 0)
(1.45522 -0.147001 0)
(1.02985 -0.00500146 0)
(1.00003 -0.000874418 1.2876e-21)
(-0.637029 -0.092269 -1.31801e-19)
(1.10713 -0.105698 0)
(1.21524 -0.0197767 0)
(1.00041 -0.00789999 9.47561e-21)
(1.02998 -0.0469025 0)
(1.17275 0.0366475 0)
(0.979174 -0.215162 0)
(0.922013 -0.834833 -3.42214e-20)
(1.02105 -0.0598896 0)
(-0.153273 -0.0128605 -8.68387e-20)
(1.05691 -0.0195793 0)
(1.0198 -0.0065012 3.18719e-21)
(1.00048 -0.00568393 0)
(0.891907 -0.128888 -2.02793e-20)
(0.995024 -0.321277 -1.84509e-21)
(0.969009 -0.1063 9.73605e-21)
(1.00003 -0.000735854 0)
(1.0019 -0.0162534 0)
(1.38357 -0.063253 0)
(-0.270637 -0.193857 -1.28595e-20)
(0.891741 -0.0939531 -1.75782e-20)
(1.16472 -0.181776 1.32159e-20)
(0.709378 -0.21655 1.92441e-20)
(1.31189 -0.249769 4.67221e-20)
(-0.0596778 -0.0280631 9.43575e-20)
(1.06487 -0.0505582 0)
(-0.14443 -0.0169947 -1.8902e-19)
(0.988827 -0.0509244 -3.9201e-21)
(1.02484 -0.108337 -6.06807e-22)
(1.02336 -0.0696466 0)
(-0.154668 -0.0125646 1.91885e-19)
(-0.151832 -0.0544422 2.43722e-19)
(1.04149 -0.0321189 -6.39123e-21)
(0.831533 -0.266024 0)
(1.02575 -0.0330709 3.11519e-21)
(-0.064243 -0.0717838 -1.85741e-22)
(1.00133 -0.0550196 8.79536e-21)
(1.29416 0.113042 2.62357e-20)
(1.02331 -0.0454164 9.03252e-22)
(0.342963 -0.863359 2.22038e-20)
(0.198404 -0.498424 -1.16152e-21)
(0.0691179 -0.0883167 1.36659e-19)
(-0.1642 -0.167251 1.03451e-19)
(1.04272 -0.0331835 7.50497e-21)
(1.00103 -0.0550548 -3.91414e-21)
(0.263485 -0.0374922 0)
(0.733568 0.163779 3.68961e-19)
(1.16903 0.0428756 7.93881e-21)
(1.01971 -0.0309993 -1.00546e-21)
(-0.236624 -0.0378633 0)
(1.20959 -0.0699638 -4.77146e-20)
(0.0585474 -0.0909287 1.44375e-19)
(1.29171 -0.316262 2.3117e-20)
(0.599181 -0.267244 7.18617e-20)
(0.479205 -0.161396 6.53394e-20)
(1.01963 -0.0333793 2.12413e-21)
(1.2371 -0.473854 -1.18039e-19)
(1.02301 -0.00498385 0)
(-0.267546 -0.0852414 -5.96457e-20)
(1.16907 0.0424314 1.74365e-21)
(1.0293 -0.00476094 3.13283e-22)
(0.964289 -0.0969573 1.08552e-20)
(0.986761 -0.20934 4.14604e-21)
(0.151379 -0.0243461 1.44888e-19)
(0.990075 -0.0473941 0)
(0.758728 -0.339447 2.909e-20)
(0.994811 -0.31024 8.96126e-21)
(-0.273936 -0.0621939 1.29464e-19)
(0.118529 -0.104733 2.07724e-19)
(1.21065 -0.0158233 0)
(0.982748 -0.0774786 5.50393e-21)
(1.11303 -0.100794 4.52582e-20)
(-0.226186 -0.0518221 0)
(1.0231 -0.0439542 -1.25206e-21)
(0.988785 -0.0510964 0)
(0.960481 -0.0943026 5.50784e-21)
(0.969011 -0.100957 -1.70248e-20)
(1.03708 -0.0243457 -2.54196e-21)
(0.688684 -0.238328 7.89173e-20)
(-0.14446 -0.0156491 1.79034e-19)
(0.987891 -0.0462401 1.39012e-20)
(1.01903 -0.00668137 -3.19429e-21)
(-0.0876854 -0.0384781 5.34852e-20)
(0.488728 0.0486396 -1.44981e-19)
(1.00038 -0.00601019 0)
(-0.615821 -0.0850551 -6.77954e-20)
(1.02427 -0.0117552 0)
(-0.416829 -0.204539 4.6148e-20)
(1.08563 -0.353457 -2.14195e-20)
(0.246421 -0.0351053 3.61935e-20)
(0.629561 -0.297748 0)
(1.14922 -0.40272 0)
(1.05648 -0.0187837 2.17877e-21)
(1.01868 -0.00594232 0)
(1.1721 0.276388 -1.64456e-19)
(-0.144485 -0.169616 0)
(-0.0516096 -0.0720524 -2.80802e-21)
(1.00041 -0.00871467 1.40451e-21)
(1.0245 -0.0334924 7.55857e-21)
(-0.164158 -0.0666131 3.68146e-20)
(1.07141 -0.138849 -2.49258e-20)
(0.766656 -0.121775 1.11329e-19)
(-0.24287 -0.0398749 0)
(1.06551 -0.0200395 0)
(0.869324 -0.19362 0)
(0.999858 -0.00434683 0)
(1.0326 -0.00604742 0)
(1.28684 0.104913 -2.42201e-20)
(-0.296099 -0.0729035 5.66106e-20)
(0.303134 -0.088311 -1.57774e-19)
(0.290211 -0.123829 -2.13446e-19)
(1.34659 -0.239397 -6.50178e-22)
(1.00614 -0.0889993 -5.23108e-21)
(1.47787 -0.104097 0)
(1.33656 -0.255233 0)
(1.02022 -0.00713599 0)
(0.539077 0.0576164 0)
(1.00545 -0.00092586 5.37581e-22)
(0.962139 -0.117357 3.13617e-20)
(0.968095 -0.0644651 0)
(1.00819 -0.0155804 -8.06263e-23)
(1.04303 -0.0185159 7.1538e-21)
(0.474804 -0.165536 4.33001e-20)
(0.999831 -0.00508413 1.51152e-20)
(1.24158 -0.023766 5.72674e-20)
(0.474751 -0.124243 -5.92101e-20)
(0.964827 -0.111483 -2.00263e-20)
(-0.00937685 -0.0885863 0)
(0.96257 -0.0640936 3.67677e-20)
(0.518207 -1.23014 -5.45921e-20)
(0.992466 -0.021149 1.19909e-20)
(1.06507 -0.0202481 1.3237e-20)
(1.01997 -0.0322611 0)
(1.07715 -0.0207388 3.47503e-20)
(1.00005 -0.000353224 -2.23648e-21)
(-0.15573 -0.0527795 -1.47338e-19)
(-0.196491 -0.0583545 -1.05021e-19)
(0.999365 -0.00493841 0)
(1.00062 -0.0144096 -3.77258e-21)
(1.27715 0.0215909 8.35682e-20)
(1.00027 -0.000475365 1.27709e-21)
(1.00775 -0.0153773 -5.89825e-22)
(1.04528 -0.0399572 0)
(1.00048 -0.00799472 0)
(0.928066 -0.174611 -2.88738e-20)
(-0.118284 -0.180975 0)
(0.703062 -0.185925 6.99436e-20)
(-0.150951 -0.0234152 4.79796e-20)
(1.00592 -0.0265155 0)
(1.00016 -0.0124927 3.70269e-21)
(1.25472 0.0737881 1.92433e-20)
(1.00566 -0.00480455 -6.9899e-23)
(1.03364 -0.000252104 0)
(-0.635469 -0.12839 -1.42082e-19)
(0.999609 -0.167492 0)
(1.09067 -0.178611 8.36973e-20)
(0.887398 -0.0990172 0)
(1.28374 -0.339608 -7.57228e-20)
(1.00534 -0.00489617 0)
(1.10317 -0.0061643 0)
(1.02471 -0.0696915 -1.49668e-21)
(1.08092 -0.0734933 1.55067e-20)
(0.999457 -0.021853 3.15288e-21)
(1.00035 -0.00521431 -3.95085e-21)
(1.02259 -0.00446454 -4.84294e-21)
(1.15868 -0.00853346 -2.76562e-20)
(1.20787 -0.0732272 0)
(0.996312 -0.0234588 7.68747e-21)
(1.11974 0.313533 -1.57576e-19)
(0.996141 -0.0240885 0)
(1.04496 -0.0408563 0)
(-0.151365 -0.0261424 -1.6579e-19)
(0.891899 -0.0507561 0)
(1.07835 -0.0213371 0)
(0.000397638 -0.0807878 0)
(1.2835 -0.325514 0)
(-0.0552956 -0.0708248 -2.27744e-20)
(0.242205 -0.0864667 0)
(1.07912 -0.0718643 -1.36585e-20)
(0.199059 -0.0952983 0)
(0.996324 -0.0256147 0)
(0.0934197 -0.0501696 1.3632e-19)
(0.584151 -0.987511 4.56669e-20)
(0.965026 -0.0646725 -2.61318e-20)
(0.904936 -0.0541778 -4.45151e-20)
(0.999518 -0.163261 3.13202e-21)
(1.05919 -0.045652 0)
(1.02259 -0.0614509 5.79599e-22)
(1.03065 -0.0157073 0)
(0.999677 -0.0194502 4.78514e-21)
(-0.230962 -0.0892295 -5.77171e-20)
(0.92138 -0.183224 0)
(0.0490883 -0.0889338 -1.42003e-19)
(-0.149921 -0.0215721 2.07099e-20)
(1.34543 -0.246578 0)
(0.128118 -0.0267875 -9.14221e-20)
(1.09578 -0.0348648 -1.45223e-20)
(0.999973 -0.000950344 4.56913e-21)
(1.16069 0.0480653 0)
(1.0171 -0.0309194 0)
(0.900948 -0.860376 0)
(1.00008 -0.000122455 2.64413e-21)
(0.999687 -0.00396094 -9.40886e-21)
(0.086129 -0.253217 0)
(0.337976 -0.0712835 0)
(1.07123 -0.0527529 -6.45268e-21)
(1.03591 -0.02213 0)
(1.31371 -0.316482 1.01409e-19)
(1.11755 -0.238734 -1.4821e-20)
(0.997907 -0.0534359 1.01294e-20)
(-0.451659 0.0988953 -1.1404e-19)
(1.07173 0.000980883 1.5716e-20)
(0.906842 -0.0550848 5.53792e-20)
(-0.268516 -0.049385 2.371e-19)
(1.09448 -0.0738979 -1.06113e-20)
(0.999837 -0.00426874 -4.57208e-21)
(-0.611833 -0.140218 0)
(-0.228172 -0.0843631 0)
(1.2087 -0.00746669 -2.49798e-20)
(1.00525 -0.0365604 0)
(1.00019 -0.0120764 0)
(-0.256124 -0.106144 0)
(-0.621545 -0.130336 1.79717e-19)
(1.02627 -0.0349158 0)
(1.31327 -0.300766 9.12669e-20)
(1.02615 -0.0129858 0)
(1.03174 -0.0428837 1.23844e-22)
(0.139779 -0.14174 0)
(1.03885 -0.0130093 3.36344e-22)
(-0.104956 -0.185611 0)
(1.09507 -0.0738384 0)
(1.40427 0.207843 0)
(0.102479 -0.0263819 1.43952e-19)
(1.07301 0.273735 2.05112e-19)
(0.629139 0.137603 4.01534e-19)
(1.01688 -0.0283566 0)
(-0.030107 -0.0441839 7.00932e-20)
(0.996324 -0.0257955 0)
(1.1927 0.254352 2.33683e-19)
(1.1644 -0.270001 0)
(0.0819618 -0.0604122 8.08306e-20)
(0.321313 -0.124769 1.49506e-19)
(1.03016 -0.0148975 -3.25707e-21)
(1.03301 0.00018583 -1.61347e-22)
(1.23938 -0.473949 0)
(-0.0422669 -0.067957 -4.47603e-20)
(1.10483 -0.00816629 1.04031e-20)
(0.63993 -0.279886 -8.56204e-20)
(1.06867 -0.0529883 5.72933e-21)
(1.05444 -0.0890122 2.34308e-20)
(1.01766 -0.00540743 -4.00207e-21)
(-0.128299 -0.219074 -8.34251e-22)
(1.10258 0.320451 1.73076e-19)
(-0.103729 -0.0276501 -4.20392e-20)
(1.06277 -0.0463143 9.41747e-21)
(0.966238 -0.0409468 -7.95812e-21)
(0.108322 -0.259777 0)
(-0.172468 -0.0667825 -1.22047e-19)
(0.904751 -0.051486 -6.4608e-20)
(1.00071 -0.085759 -7.79427e-21)
(1.03596 -0.0228359 0)
(1.02685 -0.0127289 -6.62581e-21)
(-0.0456214 -0.0701383 0)
(0.0034576 -0.100308 6.85626e-20)
(1.00443 -0.00769479 -4.54223e-23)
(1.05503 -0.00897568 -1.03697e-20)
(-0.272555 -0.0454022 0)
(1.03882 -0.0178351 7.01169e-22)
(-0.215063 -0.0517729 2.49509e-19)
(1.03485 -0.0209213 -9.48061e-21)
(-0.147071 -0.0260956 0)
(1.11189 -0.237778 -4.60104e-20)
(0.0876218 -0.0554575 7.24626e-20)
(0.949713 -0.154219 -1.31393e-20)
(0.462716 -0.131667 -7.33803e-20)
(-0.148801 -0.0212554 1.20228e-20)
(1.03394 -0.139484 5.8365e-21)
(1.26352 0.00365514 -3.94491e-20)
(1.055 -0.0909599 -1.03488e-20)
(1.24818 -0.00681549 3.28478e-20)
(1.09393 -0.0314228 0)
(0.989696 -0.0438939 0)
(1.07123 -0.144178 1.04086e-21)
(0.235044 -0.610422 -7.51602e-20)
(1.03278 -0.00658256 0)
(1.08308 -0.0448852 0)
(-0.174551 -0.0666308 3.4492e-20)
(1.02523 -0.0139206 1.12397e-20)
(1.00032 -0.00524213 0)
(1.27378 0.268784 0)
(1.01563 -0.0174607 3.30454e-21)
(-0.209248 -0.0561406 -5.37678e-20)
(1.06812 -0.0195249 0)
(1.07646 -0.018111 0)
(1.05343 -0.00653382 0)
(1.13764 -0.0514358 -4.00099e-20)
(1.07008 0.00234325 1.3452e-20)
(1.00008 -0.00111071 1.47367e-22)
(0.52425 -0.602956 0)
(1.0325 -0.0441279 -3.27204e-22)
(0.832575 -0.166413 0)
(1.00068 -0.0140517 -3.51451e-21)
(1.10601 -0.129093 5.62882e-20)
(-0.212517 -0.0573829 -1.27166e-19)
(1.00006 -0.0013522 -1.48195e-22)
(0.708308 -0.0715845 3.30557e-20)
(1.0913 -0.104505 0)
(0.156848 -0.0591382 0)
(-0.578598 -0.178453 1.50839e-19)
(-0.563174 -0.186043 0)
(-0.18101 -0.0533186 0)
(1.14146 -0.0528897 4.49942e-20)
(1.19373 -0.263466 9.02607e-22)
(1.16598 0.0455498 9.58387e-21)
(-0.221172 -0.0528686 -1.24977e-19)
(0.97912 -0.0444588 0)
(1.16024 -0.338805 -7.60432e-20)
(0.974415 -0.102028 1.5601e-20)
(0.525834 -0.0744784 1.09838e-19)
(1.39609 -0.0707984 -9.72454e-20)
(1.09237 -0.288876 0)
(1.00035 -0.000568031 -1.04074e-21)
(0.390748 -0.393408 -8.62884e-20)
(1.43619 -0.0126243 1.33193e-19)
(0.160707 -0.142392 2.22382e-20)
(1.04982 -0.0342981 0)
(-0.26665 -0.0501513 -3.37331e-19)
(0.927619 -0.058049 -6.49071e-22)
(1.30331 0.107472 -2.5804e-20)
(0.996957 -0.0122905 7.14552e-21)
(1.16581 -0.276142 -5.27883e-20)
(-0.184086 -0.064087 9.98956e-20)
(0.999478 -0.00472645 -9.5958e-21)
(1.05399 -0.00814883 0)
(-0.580833 -0.179705 0)
(1.04131 -0.0203251 0)
(0.963472 -0.490054 -3.74249e-21)
(1.03952 -0.0209632 0)
(1.12979 -0.0776039 3.76234e-20)
(1.03983 -0.059942 3.78045e-21)
(1.17308 -0.111164 2.22512e-20)
(1.01529 -0.01631 -1.11412e-21)
(0.746339 -0.500207 -2.11885e-20)
(1.00008 -0.00113165 1.08749e-21)
(0.121126 0.0331003 -5.26566e-20)
(1.05186 -0.0352055 0)
(-0.180026 -0.0550062 -1.80612e-19)
(1.05246 -0.155915 0)
(-0.185246 -0.0971779 1.33527e-19)
(-0.170817 -0.0663628 -1.26116e-19)
(1.08063 -0.0425828 0)
(0.915802 -0.0548219 1.4256e-20)
(1.24596 -0.00960701 6.28415e-20)
(-0.011776 -0.187005 1.72978e-19)
(-0.150516 -0.0227849 -2.64919e-20)
(1.04448 -0.0171126 8.31273e-22)
(0.823793 -0.166489 2.6814e-20)
(1.3928 0.191522 -1.04836e-19)
(1.08138 -0.0258018 1.85426e-20)
(1.50861 0.219906 2.14865e-20)
(1.02066 -0.0671192 0)
(0.999289 -0.0053658 5.47202e-21)
(1.08011 -0.0273774 -6.88801e-21)
(1.00355 -0.000707119 1.05805e-22)
(1.00006 -0.000962064 2.72702e-21)
(1.021 -0.0678661 -7.84385e-23)
(0.296002 -0.122938 1.54071e-19)
(1.02483 -0.0125495 0)
(1.03138 -0.033965 0)
(1.13151 -0.0454614 -1.49075e-20)
(1.05781 -0.10046 1.97423e-22)
(0.515931 -0.561887 5.01081e-20)
(-0.188196 -0.120245 1.00871e-19)
(0.978123 -0.0437584 -7.83885e-22)
(1.26115 0.0696298 2.31546e-20)
(1.3277 -0.235761 0)
(1.08887 -0.287134 0)
(1.00049 -0.0133674 7.61108e-21)
(-0.0246189 -0.0151944 0)
(0.778122 0.18933 -1.29386e-19)
(0.0788774 -0.0359163 0)
(1.50802 0.212034 -2.53163e-20)
(1.17276 0.0365857 0)
(1.05826 -0.0892758 3.16099e-21)
(1.1433 -0.0616793 1.17758e-20)
(1.16061 -0.00931501 0)
(1.07021 -0.0176296 -7.93777e-21)
(1.35498 -0.234647 4.1539e-20)
(1.01183 -0.0397725 0)
(1.07052 -0.0181096 -9.0976e-21)
(1.03332 -0.010049 4.36555e-21)
(-0.369491 -0.0986073 0)
(0.0758322 -0.0542617 -2.28202e-19)
(-0.444685 -0.225528 -7.66092e-20)
(1.03578 -0.17001 -6.16057e-21)
(1.00651 -0.0345574 -2.82872e-21)
(-0.256239 -0.098475 0)
(-0.113959 -0.0186434 -1.16663e-19)
(0.964169 -0.860644 3.19011e-20)
(1.10899 -0.130477 -2.65575e-20)
(0.761472 -0.0648884 -1.86899e-21)
(-0.397271 -0.212017 -1.76335e-20)
(1.00487 -0.000746243 -1.9848e-22)
(-0.56566 -0.185677 0)
(1.05399 -0.100394 -1.64819e-22)
(0.95764 -0.0747751 0)
(0.958295 -0.0504373 0)
(0.595568 -0.643743 -2.87211e-20)
(-0.120576 -0.0280332 3.04118e-20)
(1.0678 -0.0191678 0)
(0.736371 -0.49441 0)
(0.950075 -0.155945 -7.76914e-21)
(1.00483 -0.0856571 6.47474e-21)
(-0.160309 -0.0120789 -1.14677e-19)
(1.05789 -0.589413 -5.53056e-20)
(0.996979 -0.0347933 4.68833e-21)
(0.00607058 -0.181675 -1.56295e-19)
(1.16454 -0.0200708 1.43879e-20)
(-0.334222 0.40413 -2.00735e-19)
(1.02738 -0.0623397 -2.21106e-21)
(0.546329 -0.103072 -9.70923e-20)
(1.17185 -0.109542 4.03796e-20)
(1.12707 0.0246609 -1.52152e-20)
(1.00974 -0.000512295 -1.45924e-21)
(0.0805297 -0.0489062 -9.22407e-20)
(1.20668 -0.157152 3.63936e-20)
(1.2689 -0.00640044 0)
(1.24924 0.0977707 2.02524e-20)
(-0.148947 -0.067831 0)
(1.10492 -0.00884931 1.59077e-22)
(-0.432806 -0.229326 1.40769e-19)
(1.06376 -0.0319137 0)
(1.03943 -0.169298 0)
(0.139677 -0.178162 -1.65999e-19)
(1.1223 -0.0799262 2.10021e-20)
(1.00572 -0.0101116 0)
(0.752507 -0.087885 -1.79743e-21)
(1.07921 -0.0329231 -1.99252e-20)
(1.24083 0.0751989 1.01915e-19)
(1.03073 -0.0328407 7.00835e-23)
(0.994642 -0.0410589 5.99997e-21)
(0.503147 -0.607838 -4.77581e-20)
(1.20152 -0.510656 0)
(-0.0659696 -0.0647719 -1.09422e-19)
(1.0001 -0.000471197 0)
(-0.209068 -0.0563187 5.62558e-20)
(1.03572 -0.0201259 0)
(0.920079 -0.581161 -1.58015e-21)
(1.21151 -0.0105345 1.53199e-20)
(1.03341 -0.0105893 -4.62609e-21)
(1.04703 -0.0396384 -9.57252e-21)
(0.965367 -0.0674742 -9.03626e-21)
(1.05083 -0.128003 0)
(0.973548 -0.0654235 -1.43609e-20)
(1.19341 -0.266071 1.53622e-22)
(1.31462 0.0923317 2.15371e-20)
(0.978361 -0.243469 5.69616e-21)
(1.02737 -0.0475782 0)
(1.0241 -0.031798 -4.56665e-21)
(0.958386 -0.0919024 0)
(0.247299 -0.157497 7.09791e-20)
(1.00398 -0.0217494 2.92028e-21)
(0.916122 -0.151328 -1.47273e-20)
(1.02204 -0.00731419 -4.8716e-21)
(-0.470225 0.500321 5.49352e-20)
(1.00008 -0.00167806 0)
(0.953068 -0.0756895 2.50543e-20)
(1.07007 -0.00165372 -3.91578e-21)
(1.02464 -0.0131055 -5.82766e-21)
(-0.271974 -0.046053 1.48124e-19)
(1.42275 -0.0113632 -6.0171e-20)
(0.181514 -0.432886 0)
(1.02516 -0.130003 -5.29033e-21)
(0.43199 -0.0754246 -2.05828e-21)
(1.16203 -0.025744 0)
(1.0363 -0.0145335 2.51262e-21)
(1.13268 0.0314066 3.77342e-20)
(-0.12451 -0.0278385 0)
(1.09728 -0.06844 1.82451e-20)
(1.04907 -0.0394832 5.47408e-21)
(0.287226 -0.152821 6.89229e-20)
(0.61221 0.0105884 0)
(1.00151 -0.0180733 9.26861e-21)
(-0.158125 -0.0661449 0)
(0.0912324 -0.0581894 0)
(1.06415 -0.0327951 7.7668e-21)
(1.07036 -0.0146035 0)
(1.19666 -0.202017 3.73365e-20)
(0.959821 -0.0468719 -1.50431e-20)
(0.997471 -0.0336879 0)
(0.858317 -0.965132 0)
(-0.268498 -0.0416469 -2.24441e-20)
(-0.16555 -0.0116172 0)
(0.311194 -0.147685 -1.41464e-19)
(0.997606 -0.0294797 -1.83161e-20)
(0.791356 -0.296473 0)
(1.00658 -0.0281201 0)
(1.00878 -0.0218524 -4.549e-22)
(1.03522 -0.0139597 -4.57023e-21)
(-0.130526 -0.0176098 0)
(1.02104 -0.00164147 -6.78873e-21)
(1.02204 -0.0567638 1.36909e-21)
(-0.380492 -0.216524 -6.01554e-22)
(-0.178454 -0.065918 -1.93431e-19)
(1.07991 -0.0518068 2.9194e-20)
(1.28484 -0.227058 1.53475e-19)
(1.10715 -0.136668 -1.65394e-20)
(1.0044 -0.00835195 0)
(0.307984 0.0351716 0)
(1.12453 -0.0365594 -2.57819e-22)
(1.182 -0.504998 0)
(1.01169 -0.0847095 0)
(1.02619 -0.570469 -8.2372e-22)
(1.03384 -0.00110367 -5.62838e-21)
(1.10729 -0.0117652 -1.1741e-20)
(0.99996 -0.00110263 9.824e-21)
(1.20692 -0.379079 9.11841e-20)
(1.02805 -0.0464109 0)
(-0.143819 -0.031444 3.13298e-20)
(0.215337 -0.0302417 0)
(1.34401 -0.17635 -1.22772e-19)
(-0.112764 -0.0246002 -6.07206e-23)
(-0.0523701 -0.0691415 0)
(0.913588 -0.116188 3.90777e-20)
(-0.241443 -0.0532322 -1.55753e-19)
(1.25158 -0.281954 0)
(1.304 0.113774 2.79358e-20)
(0.95841 -0.0497214 4.99177e-21)
(1.04573 -0.0390173 9.29032e-21)
(-0.0675132 -0.0266995 -4.84155e-20)
(0.557654 0.0449344 0)
(1.28679 -0.249223 -5.27128e-20)
(1.21301 -0.323459 -1.3299e-19)
(1.0999 -0.289369 -4.88169e-20)
(0.999408 -0.0213751 5.36716e-21)
(1.03063 -0.135618 -9.46602e-22)
(0.159623 -0.175995 1.88592e-19)
(-0.151759 -0.025754 2.49838e-19)
(1.00606 -0.0333536 2.08441e-22)
(1.0701 -0.0938869 0)
(-0.223754 -0.179785 -4.96223e-20)
(0.0864755 0.136695 -2.78673e-19)
(0.0661416 -0.0638298 -1.22158e-19)
(1.368 -0.0931073 1.02217e-19)
(1.00706 -0.000310588 -9.56409e-22)
(0.959044 -0.0795663 2.84939e-20)
(-0.220658 -0.0545009 1.20235e-19)
(-0.01875 -0.0301452 0)
(1.01478 -0.00328699 2.36495e-21)
(1.14008 -0.0212137 -4.80248e-20)
(1.018 -0.00607465 3.38737e-21)
(0.731983 -0.992372 -1.00294e-21)
(0.997247 -0.011793 0)
(0.969434 -0.14419 -8.70119e-20)
(1.1035 -0.289452 5.57342e-20)
(1.00182 -0.0178728 7.78852e-21)
(1.0609 0.000857444 0)
(-0.185542 -0.064195 3.74013e-20)
(0.997106 -0.0258429 0)
(1.08624 -0.109668 1.2457e-20)
(0.994076 -0.0395196 -6.20476e-21)
(1.01079 -0.000787989 1.12886e-22)
(1.00416 -0.0428635 5.05233e-23)
(1.10171 -0.690263 -3.34502e-20)
(0.880597 -0.400188 -2.15777e-20)
(1.33821 -0.252035 -3.80878e-20)
(0.257209 -0.096684 -1.7366e-19)
(-0.180151 -0.0654604 9.70644e-20)
(-0.451674 -0.0817258 0)
(1.00001 -0.00109097 -9.32141e-21)
(1.04621 -0.149507 0)
(0.906997 -0.0630909 5.70263e-20)
(1.10193 -0.0876314 -4.24629e-20)
(1.31773 -0.293474 -9.45422e-20)
(0.999157 -0.0221497 0)
(0.989179 -0.0427371 -1.7804e-21)
(1.04333 -0.0166765 0)
(0.437212 -0.905026 -1.79021e-20)
(-0.15731 -0.181631 -2.28498e-19)
(0.395749 -0.795858 1.81915e-20)
(0.998729 -0.0329329 -1.45092e-20)
(0.993829 -0.157405 -3.09376e-21)
(1.03707 -0.0128631 -3.77931e-23)
(1.03466 -0.0142251 1.39104e-22)
(1.03324 -0.0001311 -1.18111e-20)
(1.00195 -0.105367 -4.01281e-21)
(0.976553 -0.241132 -6.00627e-21)
(-0.468737 0.525299 -2.40776e-21)
(0.924475 -0.153341 1.22376e-20)
(1.00848 -0.0221054 0)
(0.954297 -0.518104 -4.54626e-21)
(0.727763 -0.974773 -3.38606e-20)
(0.843368 -0.240335 1.05541e-21)
(1.00777 -0.0221865 1.56928e-21)
(-0.128867 -0.19739 -2.78477e-19)
(-0.0800759 -0.0656556 0)
(1.00623 -0.0327165 6.05223e-21)
(-0.126659 -0.0241947 -1.21138e-19)
(1.31069 -0.308428 -8.55476e-20)
(1.21388 0.00663841 0)
(0.993039 -0.155921 0)
(0.999874 -0.00966375 0)
(1.02339 -0.104624 9.89729e-22)
(1.16114 -0.322936 0)
(-0.116225 -0.0279004 -1.38124e-19)
(1.15491 0.38026 -4.69593e-20)
(1.05107 -0.0377823 -1.25208e-21)
(-0.362345 0.396651 -1.0694e-19)
(-0.418165 -0.233857 1.59276e-19)
(-0.228565 -0.0527051 -9.71256e-20)
(1.06989 -0.0139746 2.3336e-21)
(-0.17758 -0.0662218 0)
(1.28763 -0.259587 -3.72332e-21)
(-0.296872 -0.0627025 0)
(0.840524 -0.27669 0)
(0.136134 -0.0480607 -8.96686e-20)
(1.04502 -0.0189319 0)
(-0.181111 -0.0658281 2.1259e-19)
(0.353794 -0.142344 0)
(1.00831 -0.123427 0)
(1.02082 -0.0590092 0)
(1.05434 -0.00714743 0)
(1.04478 -0.145165 4.05921e-21)
(1.45885 -0.139362 0)
(1.04078 -0.0576377 4.25145e-21)
(1.33606 -0.175904 1.59989e-19)
(1.01368 -0.0838621 0)
(1.15472 -0.508383 3.60256e-20)
(1.13938 -0.0686612 0)
(-0.293635 -0.0596439 0)
(-0.395654 -0.105384 1.76258e-19)
(1.03676 -0.0208784 -1.22202e-21)
(1.31837 -0.295995 0)
(1.06904 -0.285948 1.96328e-20)
(1.35992 -0.0800213 -1.81807e-19)
(1.25638 -0.192782 0)
(-0.136318 -0.183977 9.86785e-20)
(1.00098 -0.0284216 -6.0609e-21)
(1.20893 -0.306821 0)
(0.69459 -0.274775 2.79858e-20)
(1.28404 -0.308656 -1.47077e-19)
(0.0719428 -0.0591705 0)
(0.998552 -0.0510251 0)
(0.115884 -0.0240354 -1.17349e-19)
(0.18211 0.384836 -7.65323e-20)
(0.993566 -0.034796 -1.11165e-20)
(0.122553 -0.103413 -1.24684e-19)
(1.24632 -0.308623 -5.77702e-20)
(1.01403 -0.00364401 1.77325e-23)
(0.0935131 0.0384914 0)
(-0.627212 -0.137639 -3.94414e-20)
(1.03223 -0.0746167 -3.29373e-21)
(1.1395 -0.178989 0)
(-0.14409 -0.0979634 -3.37061e-22)
(0.993245 -0.0339953 -6.86354e-21)
(0.0786436 -0.0821375 -1.26967e-19)
(0.998962 -0.0554551 -1.0284e-20)
(1.0003 -0.0371297 -7.68572e-21)
(0.989508 -0.0414941 1.80041e-21)
(1.16593 -0.048332 -6.39636e-20)
(1.00786 -0.0216538 0)
(1.03402 -0.00181134 8.3511e-21)
(-0.469395 -0.0786274 1.30308e-19)
(0.999928 -0.000924006 -1.28324e-20)
(1.09794 -0.0705491 -3.13076e-20)
(1.06432 -0.0295409 1.49624e-20)
(0.613177 0.0561588 1.57052e-19)
(0.878845 -0.206462 0)
(1.00054 -0.0281441 8.28092e-22)
(1.04201 -0.0188658 -1.35583e-21)
(0.0825645 -0.0794033 -8.64964e-20)
(1.02001 -0.0648812 0)
(0.650087 -0.702162 3.51488e-20)
(0.161479 -0.544698 0)
(1.03147 -0.165374 6.56166e-21)
(0.753741 -0.0597102 -6.48712e-20)
(1.00303 -0.10286 6.69354e-21)
(1.14154 -0.00932318 5.61096e-20)
(0.348459 -0.0532616 -3.51834e-20)
(1.31251 0.450902 0)
(0.910547 -0.122067 -3.62675e-20)
(1.00738 -0.0399501 0)
(1.02864 -0.166302 -2.57911e-21)
(1.10019 -0.129759 0)
(1.34057 -0.250736 0)
(1.07473 8.69047e-05 0)
(1.00553 -0.0200851 0)
(1.237 -0.0165004 -6.09783e-20)
(0.999529 -0.00442933 1.01631e-20)
(-0.34931 -0.16356 -2.51745e-22)
(1.12402 -0.233459 -5.18589e-20)
(1.0177 -0.0638602 0)
(1.00187 -0.0159751 -4.85168e-23)
(1.11629 -0.0954191 5.15091e-20)
(1.06683 -0.138763 -1.17945e-20)
(0.214773 -0.545647 0)
(0.983455 -0.0369012 -2.11347e-20)
(1.02203 -0.0118962 -1.12423e-21)
(0.182398 -0.43694 0)
(1.00213 -0.0401983 -4.13733e-22)
(1.33823 -0.210018 -8.20481e-20)
(1.1842 -0.408558 -2.40565e-19)
(1.0343 -0.138816 -8.9849e-21)
(-0.0953963 -0.191074 1.66184e-19)
(1.00005 -0.00935081 0)
(-0.197208 -0.0581391 0)
(1.00032 -0.0118641 -6.8922e-21)
(1.25372 -0.200922 -1.91954e-20)
(0.648942 -0.711357 -7.67246e-21)
(1.31873 0.476472 1.27663e-19)
(1.18501 -0.0919713 0)
(1.00756 -0.00622117 4.88279e-22)
(1.24664 -0.203462 5.95524e-20)
(1.07776 -0.0189897 1.09631e-20)
(-0.146668 -0.0390174 -1.94499e-19)
(-0.557898 -0.188993 -2.61297e-19)
(1.22609 -0.548072 -7.40549e-20)
(1.22659 -0.400471 9.59167e-20)
(1.21777 -0.128656 0)
(1.00849 -0.0864112 2.29171e-21)
(1.03156 -0.104906 -1.85167e-21)
(-0.184408 -0.0650912 -1.43531e-19)
(-0.280564 -0.0465028 8.21811e-20)
(1.00648 -0.0383553 0)
(0.448873 0.314919 7.37266e-20)
(1.09393 0.351565 -6.63922e-20)
(1.02256 -0.0127721 1.21716e-21)
(0.706909 -0.212625 0)
(1.44861 -0.139873 -2.51737e-20)
(1.02902 -0.167683 7.08611e-20)
(1.04224 -0.0198152 -5.71141e-21)
(-0.264152 -0.0423736 0)
(0.284425 0.28015 -5.17038e-20)
(-0.22625 -0.0527933 1.58107e-19)
(-0.0325987 -0.018321 0)
(0.204082 -0.170699 -8.55584e-20)
(-0.534742 -0.167558 2.48922e-19)
(1.21872 -0.130416 1.84052e-20)
(1.00458 -0.0054451 2.71556e-22)
(0.908529 -0.0735868 2.70139e-20)
(1.13724 -0.166455 1.71647e-20)
(1.00194 -0.0295127 5.45233e-21)
(1.03169 -0.0743423 0)
(-0.102097 -0.0720907 -1.82059e-19)
(1.06994 0.0037152 -1.47733e-20)
(1.19943 -0.209363 -5.16235e-20)
(-0.351839 -0.137194 0)
(0.730593 -0.606099 0)
(-0.389488 0.100694 -1.20626e-19)
(0.85459 -0.181381 1.39588e-20)
(0.864585 -0.150712 -1.05433e-19)
(1.25356 -0.281136 -1.30954e-19)
(1.20166 -0.258234 0)
(1.00003 -0.000286349 2.1839e-21)
(-0.128914 -0.0250228 0)
(1.00797 -0.000724796 -1.04681e-21)
(0.374282 -0.121638 -3.19676e-20)
(0.989649 -0.386644 -9.46789e-20)
(1.00067 -0.00624617 0)
(1.27845 0.109553 2.32833e-20)
(0.988342 -0.0487496 -2.29298e-20)
(0.558467 -0.0797559 1.69949e-19)
(-0.541783 -0.194789 2.15681e-19)
(1.03757 -0.591869 0)
(1.28165 -0.418397 2.87664e-21)
(1.03421 -0.0056516 0)
(1.0214 -0.0696119 -4.95685e-22)
(-0.173385 -0.066261 0)
(1.07022 -0.36155 1.47604e-20)