/*--------------------------------*- C++ -*----------------------------------*\
| =========                 |                                                 |
| \\      /  F ield         | OpenFOAM: The Open Source CFD Toolbox           |
|  \\    /   O peration     | Version:  v2012                                 |
|   \\  /    A nd           | Website:  www.openfoam.com                      |
|    \\/     M anipulation  |                                                 |
\*---------------------------------------------------------------------------*/
FoamFile
{
    version     2.0;
    format      ascii;
    class       volScalarField;
    location    "200";
    object      ddt0(epsilon);
}
// * * * * * * * * * * * * * * * * * * * * * * * * * * * * * * * * * * * * * //

dimensions      [0 2 -4 0 0 0 0];


internalField   nonuniform List<scalar> 
33474
(
-2.78861e-11
1.8546e-08
1.96927e-09
1.66284e-12
-2.4421e-10
9.39883e-12
-6.92552e-12
3.3995e-12
-6.00424e-11
-0.00022799
3.40692e-12
2.51925e-12
-7.29627e-12
-1.74372e-10
7.59785e-12
1.407e-12
-1.27648e-11
-2.4256e-09
-3.25575e-11
3.14876e-11
4.84851e-10
6.69359e-06
7.19763e-12
1.58778e-11
-2.2303e-12
4.84376e-12
2.33608e-12
7.80067e-11
7.40122e-06
-2.84065e-12
4.63135e-12
-2.761e-11
-9.51027e-09
-2.1172e-09
-1.09196e-12
-1.8729e-12
-2.85267e-05
6.67717e-08
-3.76706e-11
-3.16164e-11
-5.13197e-12
-3.01572e-12
3.66954e-08
-2.02239e-11
-0.000220998
-9.18257e-06
-5.17611e-07
-2.52974e-11
-1.48163e-06
-6.27828e-12
-5.48932e-12
3.82335e-12
-1.70905e-09
-1.82896e-12
-7.88353e-11
5.97205e-11
7.96589e-11
3.49079e-10
-3.20052e-11
-3.94341e-11
-4.77387e-11
2.93452e-07
-4.22457e-05
8.89128e-08
-5.03797e-11
-6.21558e-11
-1.20773e-12
-4.29284e-05
5.80381e-12
-5.5332e-11
6.48081e-07
-5.06817e-08
-6.90419e-08
-1.34852e-10
4.62373e-05
-2.26337e-08
4.00319e-05
2.85998e-11
-1.85674e-10
-4.6467e-10
-5.84375e-05
2.48871e-11
4.03456e-05
-1.60076e-12
2.01031e-13
-7.20662e-12
5.09806e-10
-0.000416714
3.93018e-05
7.56777e-13
5.14497e-11
-1.81736e-11
-1.68709e-09
3.20574e-12
-5.38603e-12
-1.19958e-11
-6.08033e-11
-5.05959e-11
5.54953e-12
-2.38186e-08
5.06003e-10
1.04127e-05
-3.71207e-11
-1.57542e-06
-4.67333e-10
-1.12633e-12
3.21446e-11
-1.8206e-11
5.58449e-12
-4.60975e-12
-3.02359e-11
-1.81071e-12
4.69994e-08
-2.57925e-11
3.9931e-10
1.37703e-10
2.84869e-11
3.87711e-09
7.21541e-11
-2.95853e-12
-6.78134e-11
-1.22545e-07
1.105e-10
-4.49792e-12
-7.2751e-12
-1.60751e-11
-4.66286e-11
3.07492e-10
3.69714e-09
-4.15726e-11
-2.23395e-12
-8.69836e-11
-1.17651e-06
-4.88664e-05
-5.30669e-11
-8.03054e-08
-5.17089e-06
-4.71702e-05
-3.76304e-07
2.2474e-09
5.64011e-11
1.49671e-08
1.37055e-13
-1.62253e-11
-1.22364e-11
3.85046e-12
-8.43321e-05
3.4276e-07
-1.27614e-07
-1.42078e-07
-6.99483e-08
3.03243e-12
7.34319e-11
-2.44888e-11
1.31015e-10
1.44496e-12
-1.86908e-11
-8.61109e-11
-5.03193e-12
-1.05932e-07
-3.37368e-11
2.06449e-08
-1.28403e-09
-2.8143e-06
2.68421e-11
-1.47903e-05
-1.83645e-12
-1.12963e-05
7.35625e-12
6.01543e-12
-2.81079e-09
-3.60268e-12
2.18775e-05
-4.54011e-12
6.66342e-11
-0.000142714
-3.90435e-11
1.65785e-08
-7.35375e-05
3.65548e-12
-2.31342e-12
1.05542e-11
-2.04724e-12
-3.00466e-10
-1.07032e-11
-0.000408652
-3.12458e-05
9.30063e-12
-2.1169e-11
-7.22622e-12
9.36199e-12
3.02575e-11
-1.33747e-07
4.00035e-07
-5.5255e-05
-7.57203e-12
-1.68959e-06
5.34779e-10
-1.33611e-07
-5.22665e-12
-1.31162e-11
3.35378e-11
-2.85082e-07
-5.65376e-09
4.14613e-10
-1.40283e-12
-3.17242e-13
4.84e-10
-1.97896e-11
-0.000419939
-2.99516e-07
-1.46363e-11
-1.1677e-10
1.01718e-10
-1.76138e-11
-2.54367e-09
-1.07891e-11
-7.34373e-05
-4.82094e-06
-1.14281e-11
-2.35861e-11
-1.20293e-12
-2.79169e-11
4.47546e-10
-2.32045e-13
-8.1381e-12
1.99412e-07
-4.89797e-10
8.66708e-12
-8.72667e-13
-3.6908e-06
-1.42753e-12
1.213e-12
-2.17549e-12
-9.83074e-13
-4.39129e-05
4.04603e-11
-2.68113e-11
-5.03646e-11
-8.82814e-11
1.06856e-11
5.94634e-10
2.46022e-08
-1.11667e-10
4.03795e-10
-1.45655e-12
-2.06394e-13
1.19241e-13
-2.2982e-10
-2.55129e-10
6.93038e-11
8.71987e-11
3.85077e-10
3.44445e-12
-2.53684e-11
1.05192e-11
-8.13621e-05
6.26856e-12
5.87876e-10
-0.000247296
5.53279e-07
4.70722e-08
-4.94918e-12
4.5648e-05
-2.02111e-11
-4.83508e-12
-7.06453e-05
1.89884e-07
1.81235e-07
5.07745e-12
-3.11011e-10
5.711e-11
-4.51833e-11
-5.51938e-12
-2.57547e-12
-1.37073e-11
3.76049e-11
-1.43381e-12
-9.39904e-11
-1.42486e-11
-7.62917e-11
-5.81419e-11
-9.16741e-11
8.73123e-12
-1.4717e-11
-7.49869e-12
6.52398e-12
-1.46427e-11
3.77174e-10
8.71026e-07
-1.31857e-05
-6.17525e-11
-3.12233e-05
-2.47803e-10
-2.02409e-11
-7.01881e-05
-0.000130068
1.77889e-10
-3.37626e-11
-8.89078e-11
3.85867e-11
7.66545e-09
-5.77815e-06
-2.19595e-12
-8.92379e-12
-4.98817e-12
-8.01191e-12
1.84564e-10
5.70712e-10
-8.60518e-06
6.13001e-11
-2.64316e-11
-1.19149e-12
-1.52377e-05
3.83087e-06
-4.62167e-05
-5.09395e-06
3.67618e-10
2.75441e-12
-7.78434e-05
-1.42404e-10
-2.47081e-12
-0.000325224
-4.13439e-12
6.05193e-12
-7.63452e-13
-4.09791e-05
-2.44688e-11
-3.62779e-11
-3.78707e-10
4.19746e-12
-5.16183e-10
-6.84238e-11
-6.0988e-05
-6.3534e-10
-6.99408e-12
2.99436e-05
1.4099e-12
3.4697e-12
-8.55554e-10
1.08552e-11
4.91752e-10
-1.0109e-07
-5.23416e-07
-1.71946e-09
-1.03838e-12
-3.77889e-12
-1.7085e-10
-2.04587e-09
-1.09378e-12
-2.10218e-14
-1.66146e-12
9.41379e-11
2.3965e-10
5.46311e-12
-8.53011e-13
-1.52749e-11
-6.34191e-13
2.54959e-13
-1.15931e-06
6.74485e-11
-1.33083e-06
-4.09128e-13
-5.31644e-12
-1.72073e-11
-3.71663e-10
-2.79625e-12
6.05305e-11
-1.75973e-11
-9.90186e-08
1.33558e-11
8.16994e-12
-6.25008e-12
7.78701e-09
-6.70443e-12
2.38683e-10
-1.39483e-11
4.48409e-11
-1.65738e-11
-0.000214678
-1.33711e-11
4.83411e-07
-9.70872e-12
3.61122e-13
5.65646e-11
-1.08085e-10
-4.14952e-11
5.95385e-12
-8.47624e-11
1.84729e-11
3.21312e-12
-7.16481e-06
9.47934e-12
-2.63929e-10
1.89464e-11
-5.84507e-10
3.47797e-11
1.88046e-12
-4.56168e-12
-2.93123e-11
1.45405e-11
-3.59089e-10
-4.34289e-12
6.05403e-12
-4.07259e-09
-1.14271e-13
7.89534e-10
2.65122e-05
-1.23642e-05
7.5282e-09
-8.71084e-12
-2.42162e-11
6.49259e-12
-4.81274e-12
2.18977e-11
-3.97821e-12
9.75902e-05
-9.84715e-10
-1.11367e-11
2.55279e-11
-5.25033e-12
4.64685e-11
-9.18147e-12
-1.86173e-10
2.06098e-12
3.56691e-12
-9.13153e-08
-9.80392e-11
-7.68717e-12
-4.02767e-12
-1.0297e-12
0.000547353
-1.21712e-11
-7.28578e-08
-1.33352e-11
-6.60457e-11
2.47581e-11
-1.96336e-09
-3.09102e-09
-3.15435e-12
-2.57575e-12
2.44112e-08
-3.74581e-12
-2.41586e-10
-3.1199e-12
-3.4451e-11
-1.28662e-11
-4.72169e-11
-2.46889e-11
-5.93432e-09
-1.33244e-05
-3.59666e-11
-6.82005e-11
-6.67701e-12
-4.76821e-07
4.50862e-09
-2.39875e-07
-2.86858e-07
2.14132e-11
-4.46098e-12
-8.54474e-12
-3.20783e-11
-2.91623e-11
3.80868e-11
-1.15612e-07
7.13435e-12
1.15905e-11
2.21756e-11
-1.4587e-10
-6.67388e-12
-0.000305478
-4.76617e-12
1.102e-11
-9.18992e-12
-2.90394e-11
-5.17344e-11
-2.8118e-12
-3.12186e-12
5.18691e-05
-2.63502e-11
1.08076e-09
6.51308e-07
6.91911e-07
-9.25528e-12
-4.05365e-11
-4.78147e-11
6.25425e-05
-1.41762e-11
-1.22318e-11
-3.16792e-10
5.81552e-07
6.11446e-07
-9.37009e-11
-0.000345805
-7.81664e-10
-1.54036e-11
2.58949e-10
-9.73004e-13
-5.64547e-12
-3.22797e-12
-2.20624e-11
3.37711e-10
-1.97143e-10
1.36912e-05
-6.50629e-12
-2.43337e-11
3.16942e-12
-0.000443358
4.40042e-06
3.95699e-11
-5.83123e-11
2.91749e-11
-2.24453e-10
5.274e-10
-3.43209e-10
2.4049e-11
2.62162e-12
-2.93225e-11
-6.47231e-11
-6.56739e-05
3.60079e-10
-2.02985e-11
-3.37966e-12
1.0887e-10
-6.91956e-11
-6.83474e-12
-4.42964e-12
-2.58301e-08
-0.000447459
-2.48601e-11
-1.63243e-11
-1.78119e-07
-7.37464e-11
8.56533e-13
3.06864e-08
-4.24962e-06
-4.86984e-10
-1.36767e-11
-5.99688e-11
-4.62068e-12
-1.66184e-12
3.8014e-06
-6.84695e-12
8.0933e-12
-3.29873e-12
-5.3923e-12
-3.48748e-11
-1.66553e-05
3.47365e-11
-7.4654e-12
1.10439e-06
5.45667e-11
-2.74455e-12
-6.39267e-12
-8.00931e-05
7.27493e-06
-6.45474e-12
-2.7e-10
-6.78625e-11
1.26656e-11
1.26777e-08
-7.49521e-11
-1.4988e-12
-2.19868e-07
-5.7819e-11
2.37992e-11
-7.5127e-11
9.57019e-06
-3.29685e-12
3.4237e-12
-1.86662e-10
2.03029e-10
2.18583e-11
-2.09894e-09
-2.46783e-10
-2.4798e-12
-2.22679e-11
1.00716e-11
-1.12544e-10
-2.19625e-06
-1.07501e-10
1.68551e-10
-2.44499e-11
3.67085e-11
-6.85183e-05
7.25168e-05
1.24809e-11
1.11836e-12
-1.70769e-11
8.28063e-12
-2.40772e-09
5.49623e-07
-2.63912e-08
-9.35201e-13
-5.93906e-12
7.07844e-12
4.81917e-07
4.78797e-10
-2.19043e-11
-1.41159e-11
9.4466e-11
-1.72575e-11
-1.48534e-11
-4.41036e-12
-1.60861e-06
-0.000252792
1.10494e-11
-4.2907e-11
1.73765e-11
-2.0429e-10
-3.53328e-11
-2.93018e-12
-1.47546e-07
-3.4645e-09
-1.2603e-05
4.31558e-09
4.50156e-11
4.53644e-12
-2.80635e-12
3.19993e-12
-5.35442e-12
2.80467e-12
9.45661e-11
-4.5497e-09
7.75486e-11
1.00865e-11
5.90787e-11
-2.15845e-08
-2.96678e-05
-1.10226e-11
5.80923e-11
-8.6335e-12
-1.01844e-10
-0.000433665
6.63777e-05
-1.13445e-10
-2.88227e-07
-4.60954e-12
3.96668e-12
-6.31979e-05
-3.28814e-12
-5.22346e-10
-3.47396e-12
-4.22482e-12
9.09358e-12
3.76797e-11
1.66733e-09
-5.77814e-12
1.28385e-07
-1.02393e-10
6.25786e-05
-6.42621e-05
-1.4651e-05
3.85505e-09
-4.79797e-11
-8.63022e-12
-4.79541e-12
9.76135e-12
1.6884e-05
-4.52537e-11
-0.000230031
0.000135932
7.69407e-11
-1.71183e-12
-2.29962e-12
-3.4076e-08
-2.15764e-08
1.30255e-11
-1.30506e-11
0.000481475
-7.5644e-09
-2.2594e-13
-2.7658e-10
4.60605e-11
-1.11882e-11
-1.20147e-11
5.17453e-05
-4.23118e-10
1.14577e-11
6.79598e-12
-0.000388135
0.000140202
-1.00779e-05
-2.51256e-06
-8.93145e-12
-8.56594e-10
-1.81379e-12
-3.52656e-12
3.06487e-08
-5.24854e-11
-1.59101e-06
-3.7008e-12
2.18253e-12
2.2989e-11
1.16145e-12
-1.71935e-05
-6.19578e-11
-1.22997e-05
2.28335e-09
1.48935e-12
-3.28147e-11
-5.18297e-07
-2.40624e-12
-8.60882e-13
-1.67558e-11
5.03752e-10
3.51697e-09
-3.214e-09
-3.7994e-07
-7.0361e-12
-1.435e-07
-2.59486e-09
-1.98577e-05
2.86712e-11
2.93279e-10
-1.70403e-11
-5.22934e-07
-8.31317e-12
-2.24377e-11
-2.59781e-12
-6.52164e-06
-1.19884e-06
-3.37028e-12
-1.21688e-11
6.89404e-09
-2.73348e-12
-5.33843e-12
-1.86492e-11
-1.70906e-11
-2.7752e-09
5.23462e-11
-1.67925e-12
-1.32049e-11
7.5213e-12
7.9407e-12
-1.00492e-10
-8.59809e-07
-3.09471e-12
3.70661e-12
5.74023e-05
-4.71693e-12
4.16884e-08
-1.33089e-11
-3.3061e-09
-3.75969e-07
-2.19167e-11
-1.59516e-12
1.20907e-11
-1.17431e-11
6.18797e-05
-1.9711e-08
-6.35329e-09
-1.09658e-05
-4.62517e-12
-3.8027e-12
-8.8211e-07
1.60323e-10
-1.03157e-08
2.87507e-09
-5.44732e-14
4.76745e-05
-4.00517e-11
-4.67213e-10
1.10265e-12
1.33546e-12
-1.49041e-11
-6.28637e-05
-4.36126e-12
0.000140984
2.85158e-12
-9.16753e-12
1.7666e-11
9.08767e-05
2.46252e-11
6.89157e-12
-2.92318e-09
-4.25586e-12
-7.22294e-11
-3.04546e-08
-1.50704e-11
3.62582e-13
-1.41607e-12
2.91048e-11
2.53046e-05
-5.43124e-12
-0.000271035
-2.96795e-12
4.99657e-11
-6.46704e-12
8.37845e-12
3.37376e-11
4.08171e-10
-1.47076e-06
7.64242e-10
2.85447e-12
3.16156e-07
-8.63254e-12
-4.36417e-10
-3.22135e-11
-4.89487e-05
2.51875e-12
1.45194e-10
-3.92408e-05
-2.78954e-12
2.81265e-11
-3.65301e-12
-1.38557e-12
-2.75694e-12
7.50728e-12
3.68068e-10
-2.26952e-08
3.70309e-13
-1.50839e-12
-7.18781e-07
-7.29689e-05
6.90371e-11
-8.43654e-08
-2.87839e-12
-3.48079e-12
-4.59815e-12
-2.05273e-12
-4.44078e-12
2.88064e-09
-4.73542e-11
-7.86355e-10
3.37669e-12
4.44199e-07
-9.01422e-12
-1.32275e-12
4.23102e-12
1.31636e-07
-1.79719e-11
2.49431e-08
3.53652e-11
4.90743e-07
-2.00076e-11
-2.30304e-11
5.15323e-05
-4.52403e-11
-0.000397644
4.78127e-11
-1.89981e-12
2.07674e-11
-3.40447e-11
-1.87903e-10
-2.02167e-09
-1.03893e-06
2.85535e-11
4.12235e-05
3.04132e-11
-1.0639e-11
-3.46038e-12
2.1708e-10
-2.00352e-12
3.07824e-11
2.15478e-12
-3.24728e-05
4.00494e-11
4.05542e-10
-3.46645e-10
-2.37383e-07
4.33978e-11
-1.18648e-10
-1.14053e-11
-2.92909e-11
4.74912e-11
3.07303e-12
-3.54403e-12
-5.14518e-12
-9.63753e-07
-5.33532e-12
-1.86799e-09
1.89949e-12
-3.58089e-11
0.000159537
-1.26035e-12
4.34772e-11
-4.26611e-12
-1.37136e-11
2.09703e-11
-4.2334e-12
-1.14002e-10
-2.02658e-12
1.32492e-08
-6.22816e-08
1.51883e-11
5.19994e-12
-7.4088e-12
-5.11742e-12
-1.92391e-12
-4.65468e-10
8.09631e-09
4.3198e-07
-5.57044e-10
3.96368e-11
-0.000265918
-4.32596e-05
2.20103e-06
-1.20089e-11
-1.39802e-11
-1.26905e-09
-2.68602e-11
3.59899e-11
2.22628e-13
1.32471e-08
-6.64128e-12
3.46065e-05
-2.88226e-11
5.14551e-11
-1.0195e-11
-1.17591e-11
-8.55256e-12
-8.21086e-12
-1.75583e-12
-4.61624e-12
-1.15217e-12
5.49292e-07
-1.31241e-11
-2.9066e-09
-5.65162e-12
4.74968e-06
-3.05332e-12
6.21364e-05
-2.4955e-12
6.26941e-14
3.26915e-10
-3.0839e-05
1.10485e-11
3.85557e-11
3.02862e-12
-2.65418e-12
5.62626e-11
-6.72402e-12
5.43726e-11
-5.86895e-12
-1.07929e-11
-2.49078e-10
-1.26573e-12
-0.000286955
-1.8087e-11
-3.29679e-12
3.21074e-12
-9.31345e-12
2.06577e-05
3.4482e-06
1.7232e-05
-2.21526e-07
-3.93405e-09
3.13062e-06
-4.93658e-10
-1.19959e-12
5.55152e-05
-5.0069e-10
2.12468e-12
-1.16751e-11
2.40484e-11
-5.00239e-11
1.7882e-11
-2.30392e-11
-8.94432e-12
-1.87041e-11
3.72945e-09
9.72709e-10
-1.60983e-10
-1.63059e-11
5.19e-12
1.14804e-12
2.9992e-07
6.23597e-12
-3.33061e-12
-5.5762e-08
1.07287e-09
-1.7901e-11
-4.16421e-06
-1.93109e-05
1.77137e-12
-3.5423e-11
-4.07643e-11
-1.81142e-11
-7.94886e-11
-2.57423e-11
6.93351e-11
-1.01489e-09
1.77037e-11
-2.08931e-11
-6.03713e-12
2.43211e-11
-1.72594e-11
5.76875e-10
4.01218e-11
-1.33974e-11
-3.00269e-11
-1.55712e-11
-3.13523e-11
-3.98977e-12
-4.62344e-12
-7.01226e-11
2.48495e-11
-1.23253e-11
3.06822e-11
-1.67184e-11
-2.31529e-08
-4.1051e-09
5.6625e-11
-3.78146e-12
8.01961e-12
7.79392e-05
-3.00305e-12
-2.59219e-12
-2.52086e-10
-4.38158e-06
6.19666e-12
-9.15435e-12
-1.42527e-11
6.0497e-08
1.13749e-11
-7.74772e-11
-1.59159e-11
-6.14636e-06
-3.98879e-10
-1.53968e-11
-1.09176e-10
-1.97977e-12
7.61155e-11
-1.17031e-06
-5.13858e-12
3.11764e-11
5.94768e-12
-2.50716e-11
-6.36947e-12
-9.56386e-12
-6.0994e-12
3.48773e-09
7.01634e-12
-9.36564e-13
-3.4792e-12
2.10176e-11
-0.000200697
-6.48569e-12
1.80246e-12
1.10862e-13
4.35995e-12
9.67246e-12
-1.51227e-12
7.71956e-08
-1.47697e-11
1.04694e-10
-6.84605e-12
1.063e-11
-1.08389e-09
-1.20887e-12
5.06575e-11
7.2938e-12
3.68955e-13
1.07369e-11
5.08866e-07
5.02637e-11
-6.54684e-13
3.93798e-11
3.71118e-11
-2.93408e-09
-1.16395e-12
8.35773e-12
6.30733e-10
-2.66168e-12
-9.22205e-13
-1.07003e-10
-2.48298e-11
-1.47791e-11
3.18157e-11
9.91474e-11
-1.19311e-12
1.36214e-10
6.79362e-12
-1.03195e-10
-1.76594e-10
-6.04579e-11
-0.00032949
-4.64669e-12
1.92474e-11
6.81782e-06
-1.92529e-11
2.23272e-12
-1.16914e-13
-2.90837e-13
2.56614e-13
8.85873e-11
-1.04929e-08
1.97333e-06
-1.25904e-11
-2.68958e-10
-2.20867e-14
-2.25989e-12
-4.30897e-11
1.97397e-06
5.80569e-11
-1.54402e-11
6.24214e-10
-1.80516e-11
-3.88208e-12
-9.24195e-13
1.08639e-10
-1.01001e-11
-1.48222e-12
2.18804e-06
9.61275e-12
6.71762e-08
-5.31218e-12
-4.37931e-13
-0.000313574
-0.000201082
-8.66665e-06
-3.81868e-09
7.91281e-12
1.23335e-11
-1.01165e-09
-6.22569e-11
1.6279e-11
-1.56078e-12
-8.29612e-07
-1.09972e-11
3.3277e-11
-3.45193e-07
3.03417e-10
-2.48977e-10
-1.00758e-11
-7.99514e-11
-8.05199e-05
-6.98603e-06
-1.76952e-09
-3.03014e-12
-6.58133e-12
1.10115e-09
-9.04803e-13
-1.42925e-09
5.28996e-12
5.64336e-11
-5.27005e-10
3.45836e-10
3.08674e-08
-6.92535e-12
4.28026e-10
-8.80008e-12
4.22919e-11
-2.11819e-08
-8.84538e-07
-4.74431e-12
-3.51032e-11
1.01925e-10
-5.86208e-12
1.19819e-07
-5.19669e-12
1.07772e-13
-1.01771e-08
9.08116e-12
7.97549e-06
-2.59952e-11
-3.56907e-12
-1.16234e-11
-1.50408e-10
1.11746e-08
-6.00187e-13
-1.36345e-12
2.32963e-11
-5.63165e-11
1.59741e-14
-0.000401275
-2.34222e-12
2.15307e-10
4.8559e-07
-1.5134e-11
-1.0825e-11
1.91081e-12
-6.02036e-11
-7.30153e-10
3.97152e-11
-4.24692e-07
-1.41742e-11
7.25686e-07
-1.96823e-12
1.11984e-11
-1.7195e-05
-2.42254e-12
4.05538e-11
4.3244e-11
5.59294e-05
-4.78425e-11
-4.27252e-12
-2.07691e-10
-7.89876e-11
-8.58848e-09
-2.36873e-10
-3.62999e-12
-6.41941e-11
1.38851e-05
0.000116701
-2.37024e-12
1.38765e-11
-4.88817e-12
6.32422e-11
4.51438e-12
3.08984e-11
5.30063e-11
-3.8848e-06
-1.43058e-11
-2.21982e-12
2.7408e-11
-2.92774e-11
-3.08681e-08
2.78071e-12
7.65251e-11
4.60104e-07
1.26696e-10
5.20511e-12
-4.88186e-12
-4.23705e-07
-8.87612e-12
8.37773e-05
-2.29766e-12
-1.03071e-11
-4.59881e-10
5.77337e-06
1.71231e-08
-8.34789e-05
3.96998e-10
-1.44811e-12
-1.11613e-08
-2.75582e-11
-1.35876e-06
3.64222e-10
-3.90647e-12
-2.69406e-11
3.1837e-11
-5.27651e-12
-0.000163122
3.70008e-11
-7.23609e-08
-1.05158e-12
-1.18374e-12
0.000242248
-2.15008e-12
-1.32736e-11
-3.11164e-11
-2.12554e-12
-5.15504e-12
-2.11655e-11
4.90266e-09
-1.98827e-06
1.15647e-11
3.00786e-12
-0.00017949
-6.49841e-11
6.51588e-13
-0.00044701
3.40444e-11
-6.35653e-11
1.77108e-11
-8.62409e-13
-1.4466e-09
-2.16764e-05
-2.13595e-10
-2.88939e-11
6.54863e-12
2.05487e-11
1.44634e-07
1.91636e-08
-1.85727e-12
-1.97454e-11
-1.08731e-11
2.64223e-08
-1.5509e-07
4.07823e-10
7.78218e-12
-2.26178e-05
-9.69201e-12
-1.08875e-12
-1.90178e-12
5.57945e-11
-4.43027e-11
-9.22118e-12
6.42352e-13
-6.92758e-12
-3.21027e-12
-4.79559e-12
-6.41442e-12
-1.472e-11
-6.41043e-12
5.65663e-12
-1.12877e-07
1.73265e-05
2.46136e-06
-6.41587e-08
-3.13693e-11
-8.34095e-11
-4.63469e-12
3.92675e-07
4.43858e-09
-8.33653e-11
6.17684e-10
6.17199e-13
2.13111e-06
3.89054e-10
-3.92784e-12
-9.34143e-12
6.25743e-13
-2.85556e-11
2.52766e-12
-8.9546e-12
8.56209e-13
1.49379e-07
-1.61418e-06
-5.88601e-10
-0.000109444
-6.44339e-13
-6.52383e-12
5.85153e-05
-3.41284e-07
-6.92067e-12
-9.22548e-10
-2.8873e-12
1.80168e-11
3.36574e-06
3.74331e-10
-9.58186e-11
-1.209e-08
-5.26445e-10
-1.12874e-12
-5.8595e-09
8.4405e-08
-1.38233e-12
-5.56275e-12
-3.73061e-12
-2.16948e-11
-4.80883e-11
-1.95335e-10
-6.51075e-10
6.74565e-12
-2.57244e-12
-2.04913e-11
1.24314e-07
7.43005e-10
-3.19273e-08
-1.06473e-11
1.15289e-12
-1.85033e-11
-4.30523e-12
-0.000248054
8.10308e-12
-9.06114e-12
-8.09929e-09
4.9567e-13
-4.92399e-12
0.000111977
-4.89613e-12
-8.74106e-13
3.78644e-10
-3.0488e-12
-1.53729e-11
1.49763e-11
-4.01311e-10
-6.93956e-13
-2.32831e-12
4.39278e-12
-2.13297e-05
4.99668e-11
1.85237e-11
9.44912e-12
1.1565e-07
2.58333e-05
-7.01833e-12
1.90281e-11
1.09639e-07
-3.14231e-05
-6.57922e-12
1.34305e-11
-5.34305e-10
2.90094e-10
6.08961e-11
-4.51448e-12
7.90746e-12
3.18862e-05
-3.05961e-08
-5.26042e-10
-1.0072e-13
-6.12031e-13
-1.1326e-11
2.05255e-11
5.23921e-13
-1.2765e-11
9.46166e-11
2.43903e-05
1.78753e-11
-2.04975e-12
-2.76465e-07
-2.32427e-07
-1.49183e-10
-3.23593e-11
-4.07801e-12
-3.38258e-08
5.16082e-13
2.53301e-11
-8.27081e-05
-4.97013e-12
-8.13109e-11
4.16063e-10
-2.01058e-12
-6.44104e-12
5.95951e-12
6.05204e-05
-0.000365615
4.04134e-11
-2.0259e-12
-1.93039e-06
6.46495e-11
-8.06956e-11
-2.43631e-11
-0.000335187
-5.89197e-12
-9.66904e-12
-2.02298e-11
8.35034e-12
-1.41413e-10
6.82752e-11
-1.71451e-12
-3.43749e-11
-4.75219e-10
-1.78911e-07
-2.6177e-12
-1.68631e-10
-1.89496e-11
-3.5312e-12
-7.1742e-12
-3.99658e-14
-8.55502e-05
2.77293e-11
-2.17718e-12
3.68866e-11
-1.68259e-11
4.44056e-12
-3.05337e-11
5.77515e-11
-2.08345e-11
4.1117e-11
2.05849e-08
6.47491e-05
5.6547e-12
6.50618e-14
-3.39109e-07
-2.70263e-10
-2.36889e-11
-1.19351e-10
1.05928e-08
6.18452e-10
-1.017e-06
-3.58436e-12
-4.14875e-12
-4.35501e-11
-9.91989e-12
2.36519e-05
-8.62776e-13
-1.79497e-11
-4.81406e-12
-2.96415e-11
1.7639e-10
-8.17392e-11
5.12012e-12
4.19601e-10
1.41376e-11
-2.59556e-12
7.46614e-05
-4.65212e-07
4.42414e-10
-0.00018669
-1.93976e-11
5.86348e-14
-7.90373e-06
-0.000354882
2.7047e-11
-7.20904e-12
5.61078e-11
-7.72967e-07
-2.5134e-12
-2.36089e-08
1.5454e-11
-2.38945e-12
1.34912e-10
-2.09599e-12
3.68077e-13
-3.57652e-12
-2.52955e-12
-2.11443e-12
3.94335e-12
2.71652e-12
2.81307e-10
3.41616e-10
-5.8952e-12
2.49372e-08
-2.1009e-12
-1.34121e-11
-7.36943e-07
2.51701e-11
-5.62603e-12
-5.57817e-12
1.30349e-12
-1.91174e-13
-2.23838e-14
6.7184e-13
-9.32224e-12
-4.74407e-10
-1.06359e-11
-6.29408e-11
-2.70674e-07
-7.54944e-12
-3.34829e-12
-4.08743e-11
-5.5758e-11
-1.78208e-09
-4.51209e-11
0.000105966
-6.13717e-11
-1.34969e-11
-3.77653e-11
-2.35775e-11
4.24675e-06
6.67842e-11
-2.28406e-11
1.36598e-11
2.15526e-12
-7.03695e-11
-4.69785e-11
-8.34846e-11
-1.0736e-11
-4.51773e-11
-1.55945e-10
-9.51172e-10
3.97955e-11
1.52843e-10
-7.13823e-12
2.48701e-11
6.62471e-10
4.93902e-12
2.70785e-08
-5.69887e-12
6.63794e-11
-1.84951e-10
2.68888e-11
-3.2966e-12
-4.67226e-11
2.5083e-08
-4.48917e-12
-2.30958e-11
-2.00863e-11
-0.000419725
1.49561e-12
2.23258e-09
-1.85603e-11
2.39029e-06
-5.87354e-10
-3.06488e-10
-2.54962e-11
-7.49249e-13
-6.2691e-11
1.98079e-12
-3.43163e-11
-3.79151e-08
-5.46583e-13
-3.80399e-12
-4.79911e-12
-1.7032e-10
-3.38299e-11
-2.26299e-11
-4.75832e-05
-2.38912e-12
6.19404e-05
-1.72082e-11
2.26418e-11
-9.19664e-12
1.24913e-11
-6.50418e-11
1.90239e-11
-1.33578e-06
-1.94467e-10
-1.07758e-11
-9.40021e-11
-6.70301e-08
-1.86828e-09
-3.01384e-11
9.91587e-13
2.26411e-12
-2.96244e-12
-1.05415e-12
1.28411e-12
8.31122e-12
-3.66917e-12
5.03869e-05
-1.41605e-05
-7.5187e-05
-4.17977e-12
1.87112e-06
-1.01037e-08
1.87879e-11
2.25471e-12
-4.31977e-12
8.77426e-08
-3.96188e-10
-7.39697e-06
-3.96754e-12
-2.57807e-11
-4.3541e-11
2.69293e-08
-1.29479e-11
-1.68484e-13
1.90777e-10
-5.36477e-12
-3.13271e-11
-3.54229e-10
-9.17544e-12
-3.65223e-10
-9.70106e-07
-5.52195e-11
-4.24747e-12
-0.000135038
-4.50531e-12
-4.36128e-12
3.06752e-13
-7.33731e-11
1.90849e-11
-4.06667e-12
4.12009e-12
-2.90232e-12
-1.98247e-10
-2.77712e-11
-1.69286e-11
-1.7278e-11
-3.85115e-05
-8.53841e-12
-1.35048e-11
1.22015e-11
1.63743e-05
-2.59954e-12
4.08684e-10
8.64503e-12
-1.90791e-05
3.20462e-10
-1.55813e-12
-2.03439e-12
-1.49585e-11
8.06669e-05
6.51077e-11
5.28092e-11
2.96864e-05
-2.25181e-11
-4.25036e-12
-1.3302e-11
3.67087e-12
-3.9895e-12
-3.46066e-11
2.38496e-13
3.18177e-06
2.66011e-10
-8.9644e-12
5.78366e-10
-3.70638e-11
-3.6112e-11
-2.87618e-12
-1.45258e-12
3.70385e-10
8.77096e-12
1.06808e-11
-3.31636e-11
1.22001e-12
-1.32655e-11
-2.36593e-12
5.37229e-11
-2.47199e-12
-1.59832e-10
-4.11904e-05
-6.50638e-12
-3.75257e-11
-2.85052e-12
-1.62355e-08
-9.63587e-05
2.54309e-05
7.39723e-12
-8.45628e-13
-1.09385e-11
-3.37914e-10
-1.86264e-10
-3.99611e-12
-3.68799e-11
2.1955e-08
5.49789e-12
0.000439078
-7.97332e-12
-4.75401e-09
-1.68091e-09
-5.99945e-11
4.59186e-08
-1.36646e-10
-1.72076e-11
-1.77951e-10
-2.10229e-11
1.84715e-10
-2.12231e-09
-1.50016e-06
8.63324e-05
-2.51038e-07
-2.76587e-11
-3.82716e-11
-3.29789e-12
-2.34711e-12
-1.98032e-09
-2.05029e-09
-4.55387e-08
-1.17422e-10
2.07959e-13
9.59998e-11
-3.99544e-12
3.59923e-07
-2.15637e-11
-4.16199e-13
1.69926e-08
-1.99811e-10
-8.39286e-13
-5.91046e-12
-2.50487e-08
9.02655e-13
-0.000150888
1.79164e-13
2.2434e-11
-1.46245e-11
0.000488223
1.99863e-13
-5.97231e-13
6.40513e-11
-1.81228e-08
1.47067e-11
-2.13645e-11
6.4594e-11
1.68041e-09
-4.65056e-11
-1.30216e-07
-3.41613e-10
2.88069e-11
-1.56259e-11
-1.94075e-11
8.34892e-11
1.18361e-08
-7.9356e-11
-1.8456e-10
6.68076e-05
3.79947e-12
-4.15953e-10
-2.04157e-12
-2.64171e-10
-1.42817e-12
-1.98559e-10
-2.27619e-10
1.87624e-11
-1.76598e-13
-9.79738e-11
-6.95325e-11
5.65272e-12
-4.77871e-12
-4.00872e-08
-1.34949e-07
-3.25187e-12
-5.57948e-11
7.89163e-12
-3.90955e-12
-4.05101e-11
1.04873e-11
-6.51518e-13
3.06341e-06
-1.27612e-10
5.93369e-05
-1.66216e-11
-7.29882e-12
-1.01216e-10
-2.26926e-11
5.43632e-05
2.53271e-10
-1.36595e-10
5.42347e-08
-1.3178e-08
-5.26832e-12
5.29886e-11
7.2164e-05
1.06903e-12
-3.58495e-12
3.40542e-12
7.05083e-13
4.32932e-12
-1.41746e-09
5.78917e-05
-1.34743e-11
-9.06931e-11
1.77756e-11
-8.06312e-12
-0.000334863
-3.61817e-12
5.47362e-12
-3.11697e-06
-2.90435e-11
-2.17692e-11
-2.68999e-10
-5.82261e-12
-4.99531e-07
-9.07423e-11
-6.05965e-11
-5.5219e-08
1.25785e-12
3.29044e-11
0.000247963
-1.32725e-06
-2.01432e-10
2.17859e-11
-8.81757e-11
-8.25727e-12
-1.34618e-11
-2.53051e-12
1.81603e-11
1.16498e-12
5.79671e-13
-9.79899e-12
1.72766e-11
1.651e-12
-3.90198e-12
-4.94915e-12
-2.99803e-11
1.6356e-12
-1.17401e-10
-4.25397e-13
-1.55998e-05
-2.6243e-10
-5.98204e-12
-8.77218e-12
-6.50565e-10
-2.39229e-12
-4.54345e-12
6.94066e-05
6.65597e-12
1.65332e-11
-7.68389e-11
3.70316e-11
-1.97544e-11
-4.92203e-12
8.15267e-12
-1.50249e-06
-6.16619e-11
-6.59615e-12
-3.06663e-08
-3.4015e-11
-2.21749e-12
-2.94114e-10
-1.21249e-06
3.4437e-11
-4.48813e-10
4.82303e-11
-3.62908e-05
6.01015e-05
-1.03085e-11
-3.82276e-11
-2.6191e-12
-2.11357e-10
-1.61296e-05
-6.05204e-12
-2.53534e-05
-6.66663e-12
-3.95565e-12
1.86927e-12
0.000508458
-4.52331e-11
1.33054e-07
-5.07076e-10
2.98332e-11
2.12383e-08
-2.63337e-11
-4.302e-07
-5.32503e-13
0.000212379
-6.23734e-08
-0.000299631
-6.40714e-09
2.05968e-11
-1.62269e-06
1.54319e-10
-2.97817e-05
-2.17588e-12
-2.60932e-11
2.57964e-11
-1.03605e-11
-8.6023e-13
-3.14498e-05
-2.39351e-10
-5.09778e-09
-2.78898e-10
5.09706e-08
6.71187e-12
1.01516e-11
-7.65366e-12
-1.28248e-11
-2.69138e-09
-5.52133e-12
0.000552625
-2.82509e-11
-4.34866e-09
2.95224e-12
2.27783e-11
-8.46185e-12
-4.50087e-12
1.36643e-11
2.81926e-10
-2.84884e-13
-4.31292e-09
-5.19965e-12
3.19063e-07
-2.84107e-05
-2.80565e-07
-0.00022166
1.76327e-11
-3.19627e-11
5.75912e-12
-5.49978e-12
-2.34869e-11
-4.50223e-12
-2.69134e-10
-1.09823e-09
2.27092e-11
-2.14985e-11
1.01083e-11
-4.92423e-12
1.31671e-11
-0.000228917
9.0368e-06
-8.40444e-11
2.45018e-11
-8.98352e-12
3.61947e-11
-7.48413e-13
0.000111516
4.09478e-11
-1.78478e-11
1.75902e-11
-2.74714e-12
-1.34121e-11
-1.3295e-10
1.54606e-12
-0.000156797
6.19664e-05
5.47661e-10
-1.0529e-12
-2.15908e-12
-5.3025e-12
1.91362e-11
-1.70245e-08
2.1023e-12
-1.03871e-10
4.17443e-08
6.06559e-09
0.000245115
-1.45164e-11
-4.30367e-14
3.86272e-11
-1.2144e-10
2.25261e-05
6.19748e-10
-9.8678e-12
-2.15814e-12
-7.99109e-06
-2.03113e-09
5.43428e-05
-9.79468e-07
-1.48381e-12
-3.5144e-11
-4.8039e-12
-1.10896e-10
-1.39615e-11
7.79443e-13
2.3385e-11
-6.39351e-12
1.06566e-06
-5.87207e-12
2.00829e-12
-1.25044e-07
2.438e-11
1.82445e-10
-2.4416e-11
-5.60063e-12
2.82429e-12
-1.32945e-12
0.0001592
-2.40552e-12
-6.4316e-12
-1.26348e-11
2.11157e-12
1.70037e-12
-3.16034e-12
-8.67021e-12
-3.05717e-11
1.70267e-11
-9.73362e-09
-3.75626e-05
4.22269e-12
-5.12591e-11
6.81459e-12
-5.56419e-12
-3.61824e-12
-4.13067e-12
3.31277e-12
-8.76911e-12
3.87674e-12
-9.31109e-11
7.14116e-13
-5.209e-11
-5.84959e-11
-2.13035e-10
0.000444948
-1.29863e-07
-3.90214e-12
2.47078e-11
-3.15837e-11
-5.24074e-10
-4.02172e-12
-1.0101e-11
-1.33704e-12
-2.38026e-10
-4.00356e-12
-2.10034e-10
5.89927e-12
-3.38656e-12
-3.96839e-10
1.59398e-11
0.000118278
-1.84094e-11
-1.42606e-11
-2.87676e-12
2.86896e-06
2.12295e-13
-1.76847e-12
-2.24303e-12
1.38915e-12
-5.37957e-09
9.69839e-13
-3.07406e-13
-5.00733e-12
2.34217e-08
-5.91701e-11
-1.58177e-11
-1.5783e-10
-9.31743e-10
-2.52289e-12
-1.32746e-07
4.72728e-11
-1.92167e-11
-4.7342e-10
-2.31181e-10
-5.8357e-11
-1.65394e-12
3.59545e-11
-9.68549e-06
-4.49701e-09
7.57505e-12
2.91683e-10
2.0299e-11
-5.14159e-10
-5.03739e-12
2.02626e-11
3.99552e-10
-3.31043e-09
8.13853e-12
4.02754e-11
1.24161e-06
3.03182e-11
2.03119e-11
9.68127e-06
-6.97206e-12
1.41729e-10
-4.57391e-10
2.61561e-12
-2.87018e-11
-1.90243e-12
-9.14675e-12
-4.13413e-05
3.26711e-11
-2.13649e-11
-2.95061e-11
3.1307e-11
-2.67802e-11
-4.71676e-11
3.20095e-11
7.88713e-05
-0.000234166
-5.3988e-12
-9.59803e-12
2.0498e-10
-6.39185e-12
-7.7725e-10
-1.68715e-12
-2.0247e-11
-6.15997e-13
1.36135e-11
4.41767e-11
1.79829e-13
-1.02155e-10
-4.32297e-11
2.27355e-11
-4.42698e-12
-7.34593e-11
7.61394e-12
-1.29648e-09
-0.000152593
-4.50107e-12
1.16343e-11
8.33993e-08
2.27155e-12
-2.64993e-11
-5.76909e-12
-1.85741e-11
3.73552e-10
6.14389e-05
-1.21747e-12
1.14941e-07
-7.40074e-12
1.64474e-11
-4.26628e-10
1.86087e-11
-5.41408e-12
3.10683e-11
1.83119e-11
-4.19168e-06
-1.61613e-09
-3.67187e-12
1.41559e-11
-1.55417e-11
-3.92298e-11
7.18544e-11
4.14281e-10
4.59734e-11
-3.27993e-11
-3.59414e-12
-1.41999e-09
-1.48131e-10
-3.32258e-08
3.02733e-09
-3.4462e-12
-4.70726e-11
-7.23686e-11
-4.39923e-05
4.84522e-12
-5.01712e-10
-1.38942e-10
-2.73538e-11
-6.23602e-10
2.69767e-11
-2.78837e-12
-9.83119e-13
-5.92889e-11
2.62185e-11
-1.15085e-10
-7.77022e-12
-1.22135e-05
1.0315e-10
2.66417e-10
-1.85641e-10
-3.09665e-11
-1.18993e-11
-4.09413e-10
2.8128e-11
-3.94045e-12
1.27566e-06
5.53178e-11
-1.73508e-11
0.000452153
7.28914e-11
-1.90269e-11
3.01086e-11
-2.31241e-12
1.42284e-05
7.81441e-11
-3.49755e-07
4.34071e-11
-4.52282e-12
1.2595e-12
-6.25272e-10
-1.3485e-10
3.158e-05
-1.99721e-12
2.89088e-09
1.45836e-11
1.83837e-11
-3.11391e-09
-4.12955e-11
2.17566e-09
-2.22505e-08
1.42073e-11
-4.09425e-12
5.38544e-11
2.41485e-12
4.29526e-10
2.38527e-11
-3.4672e-11
-1.05835e-11
7.33111e-12
-1.86755e-09
1.91249e-10
-6.04126e-11
-0.000238943
-2.02634e-11
-4.22671e-09
-9.45526e-09
-1.57813e-09
4.3399e-11
-3.09298e-10
-2.70737e-12
-3.7042e-11
2.79384e-12
-2.22701e-05
-7.16488e-10
3.21565e-12
1.09673e-11
-1.47572e-05
1.32464e-08
-1.07461e-05
7.08633e-12
2.80947e-12
1.13192e-11
-8.27862e-05
-2.36339e-09
-6.22597e-13
-1.02158e-06
-8.63028e-09
7.41037e-11
-3.4041e-12
-4.07515e-05
-4.52158e-08
5.95649e-11
-5.05544e-12
-3.76798e-11
-2.13636e-12
4.66329e-13
-1.4233e-05
-9.2154e-12
-6.56924e-12
9.12571e-11
5.1066e-11
5.30872e-12
-1.20586e-10
3.82459e-12
1.38824e-11
4.36268e-11
-1.73542e-10
8.87517e-11
5.57193e-05
1.09434e-09
-1.80824e-12
-1.83885e-10
4.96544e-11
-4.35589e-12
2.60272e-07
9.3442e-12
1.44467e-08
-3.30201e-12
6.70261e-12
-1.64561e-08
3.76267e-11
1.5512e-11
-7.28606e-12
1.68993e-11
-2.70516e-11
-9.72916e-11
1.57967e-11
3.7474e-11
1.2997e-09
6.87872e-11
-8.84514e-10
-3.25834e-11
-1.8666e-09
-9.47277e-05
-1.2831e-07
-4.83436e-07
-5.27754e-11
-4.84559e-12
2.11165e-11
-4.84832e-11
-1.05657e-11
-3.71742e-12
6.04388e-05
5.38784e-07
1.26692e-12
3.42045e-07
-2.90841e-13
-3.37726e-11
-1.31633e-11
5.88125e-05
-1.21636e-11
-1.90638e-12
3.16801e-11
-3.81617e-12
-7.3542e-07
2.57779e-10
1.35149e-06
-4.24206e-12
-1.36347e-11
-1.3908e-10
6.63231e-09
-0.000154264
-1.00004e-11
6.31163e-11
-1.34017e-11
-7.71501e-11
-2.35108e-10
-2.0016e-11
1.80785e-09
-2.05393e-08
1.5536e-11
-2.18947e-12
-4.3076e-11
2.79068e-11
-3.70112e-08
-5.01154e-12
1.53947e-11
-2.47893e-11
-3.05508e-09
2.16104e-11
6.43044e-11
-2.26761e-12