/*--------------------------------*- C++ -*----------------------------------*\
| =========                 |                                                 |
| \\      /  F ield         | OpenFOAM: The Open Source CFD Toolbox           |
|  \\    /   O peration     | Version:  v2012                                 |
|   \\  /    A nd           | Website:  www.openfoam.com                      |
|    \\/     M anipulation  |                                                 |
\*---------------------------------------------------------------------------*/
FoamFile
{
    version     2.0;
    format      ascii;
    class       volScalarField;
    location    "200";
    object      k;
}
// * * * * * * * * * * * * * * * * * * * * * * * * * * * * * * * * * * * * * //

dimensions      [0 2 -2 0 0 0 0];


internalField   nonuniform List<scalar> 
33474
(
8.95982e-05
6.98442e-05
0.000115022
7.94046e-05
9.04196e-05
7.95832e-05
6.3328e-05
8.69135e-05
6.98682e-05
0.0153577
7.4051e-05
8.13025e-05
6.32036e-05
8.99243e-05
9.08769e-05
6.11005e-05
5.33591e-05
0.000160667
8.67136e-05
7.49766e-05
0.000111774
8.45356e-05
7.91989e-05
8.96657e-05
7.89036e-05
8.13168e-05
6.3895e-05
9.80014e-05
9.98737e-05
5.53781e-05
4.45151e-05
7.91659e-05
0.000127619
0.000156899
5.85959e-05
7.34854e-05
0.031179
5.67651e-05
8.09927e-05
8.99634e-05
7.62612e-05
5.52971e-05
5.59155e-05
7.84891e-05
0.0279342
0.00103766
0.00693327
9.35264e-05
0.000511501
5.8414e-05
8.58168e-05
6.76591e-05
9.30164e-05
6.31236e-05
8.00021e-05
9.77172e-05
8.01261e-05
0.000107957
8.98182e-05
8.6778e-05
8.08032e-05
0.00578372
0.0310868
5.83266e-05
5.7788e-05
8.5075e-05
5.05902e-05
0.0326824
6.75777e-05
8.79154e-05
0.00553866
0.00597051
4.93603e-05
5.7784e-05
0.000472165
0.000550521
5.29441e-05
8.59157e-05
9.00412e-05
9.20193e-05
0.0301399
8.15699e-05
0.00102623
5.8539e-05
9.36725e-05
5.8999e-05
0.000112636
0.0456946
0.00358098
4.83474e-05
7.91931e-05
5.83689e-05
9.26032e-05
7.58982e-05
6.33013e-05
9.35174e-05
9.36359e-05
8.79893e-05
6.73812e-05
0.000483735
0.000113798
0.000622383
8.79528e-05
0.00281422
4.46671e-05
5.0013e-05
8.58286e-05
8.83447e-05
6.7322e-05
5.48734e-05
8.94209e-05
5.05144e-05
0.00013228
7.71649e-05
0.000108908
9.99751e-05
8.06921e-05
0.000122887
8.24452e-05
6.32358e-05
8.68572e-05
0.0001364
7.97935e-05
5.89551e-05
9.36991e-05
7.51455e-05
7.10441e-05
0.000107492
0.00012049
9.15246e-05
6.27105e-05
8.7883e-05
0.000160474
0.0299145
9.07619e-05
6.09179e-05
0.00268809
0.0264903
0.000191089
0.000117155
8.56449e-05
3.27912e-05
4.41518e-05
7.70235e-05
8.47257e-05
8.93038e-05
0.0112929
0.00379842
0.00153529
0.0018135
0.000883783
7.41988e-05
8.22738e-05
7.6547e-05
9.98483e-05
7.90046e-05
9.2098e-05
7.9671e-05
8.94757e-05
0.001254
0.000129712
2.09874e-05
0.000119893
0.0020115
9.31079e-05
0.00440997
6.34242e-05
0.00129375
8.58021e-05
9.36117e-05
0.000174667
6.07266e-05
0.00229789
5.47718e-05
8.59955e-05
0.0181815
8.83774e-05
7.0384e-05
0.0130334
6.28854e-05
6.30263e-05
8.95695e-05
5.83602e-05
7.14473e-05
8.44456e-05
0.0451591
0.0146638
8.03187e-05
8.8122e-05
7.64403e-05
8.661e-05
8.94247e-05
0.00202085
0.00203856
0.0182003
7.7449e-05
0.00169759
0.000107534
0.00228647
6.62743e-05
7.42635e-05
7.14008e-05
0.00262678
9.83327e-05
0.000113956
6.38241e-05
6.33117e-05
0.000113059
7.73056e-05
0.0446337
0.00272542
4.6288e-05
8.73038e-05
9.95792e-05
4.62566e-05
0.000171735
7.55712e-05
0.0155731
0.0176607
7.61331e-05
7.71914e-05
7.41333e-05
7.53652e-05
0.000112397
4.41957e-05
9.18e-05
0.00376186
9.21481e-05
6.67829e-05
9.17366e-05
0.017958
6.54418e-05
6.30678e-05
6.02031e-05
6.0662e-05
0.00629206
9.32239e-05
8.03041e-05
6.99125e-05
8.91983e-05
7.92851e-05
0.00011551
0.00094452
8.71568e-05
0.000110702
6.10327e-05
7.33317e-05
7.75306e-05
8.67933e-05
8.71639e-05
9.35563e-05
8.59399e-05
0.000107275
6.37255e-05
8.92314e-05
6.67654e-05
0.0265161
6.70853e-05
0.000114467
0.0184707
0.00579296
0.000898051
8.71083e-05
0.00613817
7.15052e-05
6.08098e-05
0.0163541
0.00501514
0.00514665
7.52807e-05
9.03176e-05
8.23101e-05
9.16309e-05
7.96761e-05
6.08344e-05
7.75444e-05
8.2641e-05
6.79314e-05
8.9692e-05
8.44713e-05
8.92787e-05
6.28745e-05
8.91202e-05
7.94656e-05
5.83322e-05
7.30898e-05
6.7054e-05
5.33012e-05
0.000108103
0.00607065
0.00164096
6.54708e-05
0.00517698
8.98909e-05
8.86459e-05
0.00949089
0.0183754
9.99633e-05
7.81135e-05
8.91857e-05
8.25809e-05
5.52379e-05
0.00100281
6.78637e-05
4.67312e-05
6.61325e-05
4.67222e-05
0.000100365
0.000107374
0.0352791
8.21943e-05
7.79567e-05
4.82757e-05
0.00164409
0.00124411
0.0155215
0.0340017
0.000107522
8.67643e-05
0.00516214
5.77703e-05
6.51092e-05
0.0428163
6.28485e-05
8.59988e-05
8.95673e-05
0.0059392
7.15833e-05
8.71301e-05
5.7683e-05
8.44533e-05
8.80094e-05
9.37384e-05
0.00869324
5.75717e-05
7.69549e-05
5.66539e-05
4.6925e-05
4.69405e-05
5.60108e-05
7.98343e-05
0.000107933
0.00343839
0.00695965
0.000196787
5.79443e-05
6.89822e-05
8.59671e-05
9.43802e-05
9.36909e-05
7.4084e-05
5.79515e-05
9.98482e-05
0.000100601
7.96996e-05
4.44614e-05
7.55826e-05
6.35589e-05
5.00395e-05
0.00942898
8.0708e-05
0.00888585
8.88128e-05
8.47861e-05
7.62773e-05
8.75406e-05
6.00433e-05
8.18188e-05
7.03826e-05
0.00310791
4.71473e-05
4.71471e-05
6.95823e-05
0.000123023
8.66e-05
0.000100256
7.61548e-05
8.23318e-05
7.75506e-05
0.0266336
5.11928e-05
0.00221533
6.94273e-05
7.99007e-05
9.81907e-05
5.42546e-05
8.66401e-05
7.68457e-05
8.49076e-05
8.6941e-05
7.10413e-05
0.00314134
4.60834e-05
4.5221e-05
8.46599e-05
9.70819e-05
8.78814e-05
6.52972e-05
6.06107e-05
8.0604e-05
8.21618e-05
8.73496e-05
6.59842e-05
7.94379e-05
0.000164535
4.42243e-05
0.000109495
0.0154661
0.0264939
5.08994e-05
8.1444e-05
7.6226e-05
8.47541e-05
7.069e-05
8.66901e-05
6.12351e-05
0.0280431
4.56618e-05
4.95629e-05
9.36694e-05
6.12771e-05
8.24289e-05
7.1313e-05
4.49916e-05
8.44867e-05
8.59872e-05
0.00350568
8.76064e-05
7.91063e-05
7.04997e-05
6.4178e-05
0.00937992
7.13096e-05
0.00344157
8.69469e-05
8.02626e-05
8.81518e-05
9.38818e-05
0.000116222
5.06736e-05
6.24404e-05
5.91002e-05
6.419e-05
7.00373e-05
5.07259e-05
8.69282e-05
5.03795e-05
8.1077e-05
7.54092e-05
0.00367952
0.0272387
8.0492e-05
5.37791e-05
7.89457e-05
0.000159581
0.00361461
0.00508789
0.00483544
8.16646e-05
4.73794e-05
8.57422e-05
8.65681e-05
8.18021e-05
7.22766e-05
0.00594479
7.46432e-05
4.73783e-05
8.30712e-05
8.07225e-05
7.60409e-05
0.0433037
5.60448e-05
8.66034e-05
8.0265e-05
5.46098e-05
8.62702e-05
6.25523e-05
5.84204e-05
0.0119302
8.06703e-05
0.000112731
0.00552739
0.00530353
7.50222e-05
7.99514e-05
7.11402e-05
0.0426892
8.68918e-05
6.80802e-05
4.45311e-05
0.00533254
0.00540346
8.98606e-05
0.0404309
5.6199e-05
8.03392e-05
5.52494e-05
5.70003e-05
7.37536e-05
5.69079e-05
8.56288e-05
0.00010405
8.89862e-05
0.000280996
7.08092e-05
7.57056e-05
8.1326e-05
0.047403
9.54066e-05
9.79129e-05
8.9413e-05
7.23617e-05
9.03451e-05
0.000129854
5.5213e-05
7.98411e-05
7.96672e-05
8.68468e-05
8.21005e-05
0.0373706
0.000103459
7.82992e-05
6.11539e-05
6.41152e-05
8.05667e-05
7.49718e-05
6.04081e-05
0.00069124
0.0470585
8.81371e-05
8.81645e-05
0.00410889
8.92886e-05
8.47938e-05
8.23898e-05
0.000190799
9.41181e-05
5.71717e-05
8.05584e-05
7.10016e-05
4.99304e-05
7.64973e-05
7.35714e-05
7.90935e-05
5.022e-05
7.10137e-05
7.91876e-05
0.0358687
8.2994e-05
4.44478e-05
0.00558767
7.15811e-05
4.42061e-05
5.28106e-05
0.0289531
0.00663096
5.27227e-05
8.24959e-05
8.80694e-05
8.46224e-05
0.000100683
8.9267e-05
7.35945e-05
0.00440934
8.93745e-05
8.54851e-05
8.70112e-05
0.00023791
5.43512e-05
5.7334e-05
8.89557e-05
6.61132e-05
7.44723e-05
0.000166839
9.03138e-05
8.72798e-05
7.91566e-05
7.74238e-05
9.07656e-05
0.00317532
6.57362e-05
5.62172e-05
7.80028e-05
8.16216e-05
0.00916048
0.0166351
8.49215e-05
6.28995e-05
7.51358e-05
8.18181e-05
0.000171013
0.00409177
0.000140973
6.12218e-05
7.34803e-05
8.55803e-05
0.00405404
0.000107767
5.72936e-05
8.47981e-05
6.98652e-05
7.56258e-05
7.91348e-05
6.84962e-05
0.00768605
0.0201332
7.73818e-05
6.73661e-05
7.94716e-05
0.00223203
8.69662e-05
5.73271e-05
0.0010138
0.00146493
0.0206121
0.00162968
8.42717e-05
7.84551e-05
6.07298e-05
5.81794e-05
4.99821e-05
7.778e-05
5.70331e-05
0.00223412
8.2009e-05
6.65205e-05
8.54889e-05
0.000403403
0.0292279
7.81523e-05
6.97595e-05
8.71184e-05
8.88351e-05
0.0457964
0.0139861
0.000109108
0.00495452
7.0989e-05
6.8844e-05
0.0281159
5.43325e-05
9.82638e-05
5.44112e-05
5.49106e-05
7.76588e-05
5.69948e-05
5.92235e-05
7.09266e-05
2.24648e-05
8.87209e-05
0.0426474
0.00850732
0.0205084
6.02952e-05
7.71186e-05
5.94363e-05
6.02929e-05
6.64891e-05
0.000167451
8.82929e-05
0.0267441
0.000721306
7.70739e-05
6.90034e-05
5.84216e-05
0.000968444
0.00110844
8.95283e-05
6.87636e-05
0.00694693
0.000472595
4.41792e-05
9.06356e-05
8.08669e-05
5.23524e-05
5.22686e-05
0.00662446
5.04099e-05
8.50469e-05
8.46218e-05
0.0464062
0.0145159
0.00409785
0.00350277
6.70075e-05
0.000110181
5.935e-05
6.13707e-05
6.178e-05
8.97479e-05
0.00267463
6.14326e-05
8.58234e-05
8.8494e-05
7.8256e-05
0.0366299
8.49587e-05
0.00608497
0.000188515
7.83733e-05
7.38128e-05
0.00183975
8.257e-05
4.47949e-05
6.53242e-05
3.98372e-05
4.86197e-05
9.60333e-05
0.00158733
7.29668e-05
0.00472229
0.000142608
0.0297507
8.42979e-05
6.62781e-05
6.82024e-05
0.00181422
5.18641e-05
7.87872e-05
6.26767e-05
0.0326866
0.00604939
6.20403e-05
7.50558e-05
6.33344e-05
6.16989e-05
6.90687e-05
6.92205e-05
7.95221e-05
0.000161313
6.63515e-05
6.34549e-05
7.08558e-05
6.62148e-05
8.05669e-05
6.64389e-05
0.000111719
6.16055e-05
6.16933e-05
0.0434223
6.88769e-05
7.80552e-05
7.88103e-05
0.000652254
0.00581179
7.5552e-05
6.11795e-05
8.14418e-05
5.30038e-05
0.039308
0.00129583
0.00129568
0.00146742
5.65958e-05
6.24867e-05
0.000407849
6.65227e-05
8.83198e-05
4.76632e-05
6.76895e-05
0.0127554
8.67364e-05
9.32826e-05
6.56522e-05
6.64923e-05
7.97208e-05
0.0376731
7.66111e-05
0.0293256
6.00694e-05
7.81463e-05
8.74409e-05
0.0298485
7.22147e-05
6.6198e-05
9.56211e-05
6.06271e-05
9.37174e-05
0.000595797
8.82721e-05
4.41368e-05
6.21889e-05
8.73534e-05
0.00476311
7.35831e-05
0.0252198
6.08668e-05
8.21398e-05
6.04205e-05
4.44476e-05
8.30094e-05
0.000112054
0.008455
8.12983e-05
7.31084e-05
0.00351356
6.4875e-05
4.58487e-05
8.50314e-05
0.00685219
7.34256e-05
0.000127631
0.00833652
6.09803e-05
8.10225e-05
5.91192e-05
6.25935e-05
6.08765e-05
7.87503e-05
0.000108681
0.000205847
7.96597e-05
5.02806e-05
0.00208569
0.0297123
8.57638e-05
0.000223884
6.22913e-05
5.89716e-05
4.83337e-05
5.6592e-05
5.89196e-05
2.7875e-05
9.32331e-05
5.34194e-05
8.46392e-05
0.000122557
7.06747e-05
6.64146e-05
5.11783e-05
3.59984e-05
5.61582e-05
0.00014675
8.92818e-05
0.00376228
8.82354e-05
5.09806e-05
6.75509e-05
9.04425e-05
0.0444987
9.04035e-05
6.202e-05
7.23134e-05
7.83946e-05
8.77516e-05
0.000166382
0.00844483
8.55779e-05
0.00900964
8.72503e-05
6.08052e-05
5.42984e-05
0.000131216
6.58527e-05
8.11371e-05
6.65168e-05
0.0347992
8.10211e-05
0.000109538
6.59131e-05
0.00128449
8.47354e-05
8.55008e-05
7.57149e-05
8.6201e-05
8.38089e-05
6.92372e-05
5.4458e-05
7.30103e-05
0.00836388
8.58305e-05
0.000164336
7.86612e-05
6.98921e-05
0.0288205
5.01957e-05
8.38056e-05
7.90263e-05
7.77645e-05
8.93873e-05
5.89743e-05
8.53505e-05
7.36775e-05
0.000139563
0.000364523
8.39896e-05
7.11539e-05
7.06659e-05
6.06226e-05
5.01606e-05
9.42263e-05
0.000116248
0.0042728
9.69874e-05
8.7589e-05
0.0226034
0.00974619
0.00271257
7.43677e-05
7.54546e-05
0.00010773
7.65424e-05
8.49276e-05
4.47347e-05
9.67195e-06
8.74532e-05
0.00918611
7.48844e-05
8.29105e-05
7.08796e-05
8.85331e-05
4.88972e-05
5.19384e-05
5.0085e-05
5.3691e-05
6.70655e-05
0.000297789
7.52507e-05
0.000198028
5.00688e-05
0.00208327
5.32193e-05
0.040324
5.82226e-05
5.81832e-05
0.000108239
0.00874634
8.59117e-05
8.29337e-05
6.93681e-05
5.94852e-05
8.3636e-05
5.16328e-05
8.39285e-05
7.52867e-05
5.15561e-05
8.85829e-05
5.65675e-05
0.0413341
6.30646e-05
7.83978e-05
8.10853e-05
7.0186e-05
0.0155544
0.00089529
0.0298149
0.00115205
9.82126e-05
0.000608292
9.15161e-05
6.29599e-05
0.0115009
9.13691e-05
6.70225e-05
8.89708e-05
8.07157e-05
6.8786e-05
8.38674e-05
7.59707e-05
7.00426e-05
8.90834e-05
0.000115209
0.000132681
4.63869e-05
7.75915e-05
7.91346e-05
6.84255e-05
0.00361492
8.04383e-05
5.70498e-05
0.000366851
6.31599e-05
8.24731e-05
0.00770382
0.00501064
5.66512e-05
8.85155e-05
6.15263e-05
7.54857e-05
8.99977e-05
8.7401e-05
0.000134018
0.000137989
8.28619e-05
7.79217e-05
6.75144e-05
8.28734e-05
7.40654e-05
5.8336e-05
8.09833e-05
7.58817e-05
5.13006e-05
7.56001e-05
7.96927e-05
8.73097e-05
4.85901e-05
7.73524e-05
8.02854e-05
8.60982e-05
8.92066e-05
5.9129e-05
0.000613706
0.00013412
8.37506e-05
5.46109e-05
6.59609e-05
0.0395096
6.19317e-05
6.18422e-05
9.11867e-05
0.00250595
6.76401e-05
9.23979e-05
6.663e-05
4.90378e-05
6.75633e-05
9.04918e-05
7.86915e-05
0.00605921
5.71836e-05
7.7912e-05
8.51463e-05
7.3823e-05
4.61076e-05
0.000393703
5.78015e-05
8.28406e-05
4.64558e-05
5.4785e-05
5.76786e-05
7.43366e-05
4.7702e-05
0.000181435
8.23153e-05
6.52603e-05
5.42008e-05
7.53996e-05
0.0169373
6.35259e-05
6.28031e-05
6.18653e-05
7.96862e-05
7.89715e-05
7.03671e-05
0.00047579
7.77842e-05
7.81943e-05
7.57041e-05
4.74826e-05
4.65163e-05
4.74861e-05
8.39987e-05
6.66074e-05
8.94624e-05
7.4764e-05
0.00386222
9.84426e-05
6.3053e-05
8.9484e-05
7.4807e-05
0.000187782
5.01047e-05
6.59264e-05
0.000116574
6.03005e-05
4.77068e-05
9.06304e-05
7.89425e-05
8.10991e-05
8.01503e-05
8.16746e-05
6.13835e-05
0.000134073
7.36195e-05
9.00737e-05
9.44138e-05
6.50878e-05
0.0450813
4.84017e-05
8.0023e-05
0.0365767
4.61513e-05
4.84212e-05
8.90963e-05
7.57533e-05
7.47051e-05
8.75539e-05
0.000225416
0.00035671
7.93346e-05
9.21519e-05
7.12355e-05
7.58538e-05
7.96056e-05
0.00365562
6.50998e-05
7.02659e-05
0.0001155
7.02965e-05
6.07273e-05
6.12925e-05
7.07137e-05
9.39743e-05
8.03911e-05
0.00390489
7.17032e-05
0.00380145
5.59742e-05
5.55519e-05
0.0484048
0.0182145
0.0032016
9.65732e-05
7.50018e-05
7.9524e-05
9.01308e-05
6.51607e-05
7.74257e-05
5.72012e-05
0.00722781
8.92144e-05
7.92343e-05
0.00330864
0.000100524
9.24419e-05
7.49971e-05
8.92817e-05
0.023341
0.00100567
0.000195354
5.33277e-05
4.9604e-05
6.64185e-05
5.93259e-05
0.000173641
7.28974e-05
8.19347e-05
8.81421e-05
6.59421e-05
0.000543208
8.72963e-05
0.000112533
7.00397e-05
9.8157e-05
0.000484412
0.00715472
8.16405e-05
0.000135774
8.74385e-05
7.59836e-05
4.45248e-05
5.20302e-05
7.04333e-05
0.000226266
7.16992e-05
0.0377781
9.09301e-05
8.49091e-05
6.7432e-05
9.47268e-05
0.000124041
6.9581e-05
5.74475e-05
7.73592e-05
0.000133112
8.24343e-05
0.0428812
7.76738e-05
8.05757e-05
0.00420744
7.84478e-05
6.99831e-05
8.05961e-05
6.67526e-05
6.16082e-05
8.4797e-05
0.00613683
7.88563e-05
0.00614886
4.44234e-05
8.14806e-05
0.00506663
5.09553e-05
4.61519e-05
8.60401e-05
0.043119
8.9155e-05
7.36219e-05
8.06199e-05
8.90483e-05
0.000243407
8.97866e-05
6.98123e-05
6.11096e-05
0.000150625
0.0312839
5.01403e-05
8.04525e-05
6.67537e-05
9.40416e-05
4.43713e-05
6.02733e-05
9.36963e-05
0.0022784
8.42307e-05
8.14523e-05
8.7117e-05
5.0942e-05
0.000665484
6.82176e-05
6.63491e-05
0.00654766
6.61682e-05
7.48567e-05
6.94815e-05
0.000365071
6.4848e-05
0.0357043
6.06899e-05
7.54158e-05
9.36738e-05
7.80284e-05
7.30191e-05
0.0255061
0.000109033
4.93101e-05
0.00021524
8.67546e-05
0.000168854
5.63486e-05
5.95643e-05
9.29818e-05
8.01909e-05
6.9572e-05
0.0396951
7.60668e-05
0.000231162
7.39123e-05
5.87093e-05
0.00089333
6.25574e-05
6.98659e-05
8.7282e-05
5.95717e-05
7.86415e-05
8.74705e-05
5.29907e-05
0.00893729
6.92042e-05
5.94751e-05
0.0118657
8.77778e-05
4.61788e-05
0.0460344
8.03178e-05
8.89734e-05
8.54874e-05
5.54753e-05
0.000155709
0.00225064
8.98079e-05
8.20541e-05
6.64895e-05
8.00685e-05
0.00372235
0.000153192
5.39845e-05
9.20659e-05
7.14568e-05
0.000140042
0.00155634
0.000110561
6.92926e-05
0.0200351
5.10348e-05
4.92879e-05
8.19012e-05
8.71096e-05
8.99724e-05
4.66321e-05
7.94138e-05
4.43098e-05
7.91535e-05
5.917e-05
4.98644e-05
8.93643e-05
7.62992e-05
6.64549e-05
0.00585205
0.000128523
0.00257527
0.00201607
5.68111e-05
8.90723e-05
5.58797e-05
0.00187892
5.25554e-05
8.17945e-05
6.16701e-05
4.99632e-05
0.0009982
0.00010986
5.57702e-05
7.33161e-05
6.30446e-05
8.66969e-05
6.15227e-05
5.91219e-05
4.66144e-05
6.77876e-05
0.00256264
5.63744e-05
0.0331042
4.44286e-05
6.41547e-05
0.0385915
0.00375436
8.4923e-05
0.000150155
5.89998e-05
8.93727e-05
0.00233172
0.000108998
9.00655e-05
0.000118804
9.51174e-05
6.81384e-05
0.00016551
0.000907945
6.32513e-05
7.523e-05
5.3348e-05
8.68176e-05
8.82618e-05
9.21109e-05
6.56983e-05
5.04081e-05
7.71391e-05
7.80276e-05
0.00538892
5.50267e-05
0.00064377
5.39316e-05
6.41077e-05
7.5241e-05
5.42273e-05
0.0174351
7.44993e-05
7.61191e-05
0.000128646
5.97972e-05
5.02732e-05
0.0271387
5.41706e-05
6.31665e-05
0.000108934
5.41108e-05
7.5485e-05
7.95682e-05
8.73072e-05
5.09951e-05
7.80755e-05
7.32634e-05
0.0203403
8.84643e-05
7.63817e-05
4.68173e-05
0.000449156
0.0279587
5.96966e-05
8.21013e-05
0.000859561
0.0310208
6.59176e-05
8.48881e-05
9.5718e-05
6.45014e-05
8.43049e-05
4.68172e-05
7.67306e-05
0.0385772
0.00021727
8.2434e-05
6.76573e-05
5.6422e-05
8.64188e-05
8.71758e-05
4.43319e-05
7.77183e-05
9.59013e-05
0.0145761
8.64785e-05
6.0405e-05
0.00113921
0.000268625
8.88242e-05
5.82876e-05
5.66231e-05
0.000124586
6.27101e-05
8.71339e-05
0.0188185
6.03806e-05
8.19901e-05
0.000110264
5.07339e-05
6.62596e-05
7.64862e-05
0.0385671
0.047897
8.10232e-05
6.03727e-05
0.00886344
7.6159e-05
8.9134e-05
8.43931e-05
0.0437489
5.97235e-05
8.93817e-05
7.41271e-05
7.83339e-05
8.88835e-05
7.00368e-05
0.000102257
8.17248e-05
9.31937e-05
0.000882897
7.05992e-05
8.89521e-05
7.48807e-05
6.57955e-05
7.34682e-05
5.93481e-05
0.0175125
8.45291e-05
5.06724e-05
8.85285e-05
7.90159e-05
6.75852e-05
8.93638e-05
8.69273e-05
7.41974e-05
8.38634e-05
0.000141991
0.0423445
6.27574e-05
5.7069e-05
0.00528492
8.66468e-05
8.61142e-05
9.14113e-05
0.000126461
5.93203e-05
0.00186154
5.46041e-05
4.90157e-05
8.05724e-05
7.01213e-05
0.0149743
5.64928e-05
7.77672e-05
7.11193e-05
8.58074e-05
7.35062e-05
8.72414e-05
4.70456e-05
0.000127549
9.62251e-05
5.6805e-05
0.0371439
0.000161333
6.9814e-05
0.0401516
7.86336e-05
7.05253e-05
0.00694452
0.0418572
7.95801e-05
4.70472e-05
8.97238e-05
0.00915529
5.91504e-05
0.000719948
9.62877e-05
6.00259e-05
8.14093e-05
5.70424e-05
6.51415e-05
7.86315e-05
5.63896e-05
5.49996e-05
6.27164e-05
4.41721e-05
0.000100869
0.000100818
6.05008e-05
0.000129476
7.60072e-05
4.93077e-05
0.00920033
8.17705e-05
8.64069e-05
5.88295e-05
4.7601e-05
5.99845e-05
6.59344e-05
6.50872e-05
8.56783e-05
7.35479e-05
5.92402e-05
7.88197e-05
0.000323485
8.86173e-05
5.49462e-05
5.74415e-05
8.37951e-05
0.000160337
8.94746e-05
0.0315786
8.83982e-05
7.52344e-05
5.79562e-05
8.62736e-05
0.00211962
8.20912e-05
7.63261e-05
4.65241e-05
6.59038e-05
9.38941e-05
7.51099e-05
8.18546e-05
9.04275e-05
7.83946e-05
8.75684e-05
5.59072e-05
8.31655e-05
0.000127011
5.99104e-05
9.33598e-05
0.00011657
7.98064e-05
5.55255e-05
4.99036e-05
0.000138421
5.64635e-05
9.34523e-05
6.24753e-05
9.37387e-05
0.000184523
6.49963e-05
8.99903e-05
8.56588e-05
0.0449444
7.28187e-05
0.000117004
7.52298e-05
0.00287418
7.89239e-05
8.87096e-05
7.52991e-05
5.53569e-05
7.85249e-05
7.29681e-05
7.8277e-05
8.39106e-05
6.69289e-05
7.86553e-05
5.71685e-05
8.879e-05
5.42652e-05
8.70118e-05
0.0284186
7.83572e-05
0.0373301
7.92833e-05
8.16474e-05
4.72635e-05
8.88114e-05
9.03182e-05
0.000129218
0.00860615
8.95205e-05
8.88196e-05
8.74152e-05
0.00624472
9.28813e-05
6.12686e-05
6.29103e-05
7.42456e-05
4.66375e-05
7.6895e-05
4.98363e-05
4.72487e-05
8.19503e-05
0.0306435
0.00621551
0.00510242
6.13326e-05
0.000149643
0.000139105
8.58686e-05
7.43911e-05
7.7911e-05
0.0054827
6.63441e-05
0.00104409
5.62797e-05
5.60417e-05
9.02611e-05
5.94161e-05
8.62694e-05
6.5812e-05
6.59031e-05
7.35651e-05
7.49463e-05
8.96271e-05
7.01724e-05
9.07039e-05
0.000443635
5.91602e-05
5.68137e-05
0.0342612
7.41785e-05
5.69007e-05
6.31912e-05
9.02457e-05
8.82097e-05
5.33936e-05
7.31189e-05
6.59614e-05
8.78917e-05
7.896e-05
7.53829e-05
6.2903e-05
0.00737777
7.55761e-05
6.83422e-05
7.55124e-05
0.00319259
5.67605e-05
0.000109297
0.000133407
0.00824228
0.000101105
7.10618e-05
8.52606e-05
6.24423e-05
0.0393983
9.84193e-05
6.64187e-05
0.00793597
9.05238e-05
5.65809e-05
6.86081e-05
7.87277e-05
5.90514e-05
8.95176e-05
6.56745e-05
8.75661e-05
0.000104985
9.25304e-05
6.1676e-05
8.71237e-05
5.47152e-05
7.80103e-05
5.72245e-05
0.0001085
8.39993e-05
6.8397e-05
0.000141889
6.55773e-05
8.70064e-05
5.89347e-05
8.37342e-05
6.34229e-05
8.80589e-05
0.0188817
6.12582e-05
5.08688e-05
7.34147e-05
0.000237861
0.0323713
0.000355302
8.33213e-05
8.40434e-05
8.93056e-05
9.03324e-05
5.6657e-05
7.01744e-05
7.54175e-05
0.00283278
5.68562e-05
0.0088762
8.68125e-05
8.11293e-05
0.000159468
9.0311e-05
0.000352218
8.79698e-05
7.85765e-05
8.8935e-05
6.78745e-05
6.60313e-05
9.38528e-05
0.002806
0.0345632
0.000319309
8.67195e-05
7.56308e-05
6.08003e-05
5.84533e-05
8.30826e-05
9.31108e-05
0.00254007
5.79714e-05
8.72263e-05
7.79663e-05
7.26575e-05
0.00494866
6.98581e-05
8.13106e-05
0.000243456
8.90974e-05
5.65655e-05
6.28555e-05
0.000101455
6.4894e-05
0.0296761
4.81163e-05
8.44112e-05
8.80991e-05
0.0121831
4.81148e-05
6.4436e-05
8.41471e-05
0.000439501
8.4034e-05
8.92702e-05
8.87281e-05
5.57415e-05
9.3329e-05
0.0040675
4.47248e-05
8.41551e-05
7.52981e-05
9.21844e-05
6.49107e-05
0.000135908
9.03231e-05
8.83496e-05
0.0420656
5.67953e-05
9.07179e-05
6.17875e-05
7.30354e-05
4.79999e-05
9.78497e-05
8.83053e-05
8.28597e-05
7.74563e-05
7.06095e-05
8.44198e-05
5.088e-05
5.61466e-05
0.00278762
0.000292057
5.24878e-05
7.31778e-05
7.12889e-05
5.30637e-05
9.01595e-05
7.99096e-05
4.75953e-05
0.00116395
9.11309e-05
0.0382974
5.33563e-05
5.25772e-05
8.76509e-05
7.81943e-05
0.0377297
8.22507e-05
0.000100509
8.9741e-05
0.000511717
6.12756e-05
8.38071e-05
0.0404751
6.44003e-05
6.11312e-05
4.43344e-05
5.71828e-05
5.83121e-05
7.26212e-05
0.0372938
5.5169e-05
8.86908e-05
7.44622e-05
8.58865e-05
0.0383174
5.29791e-05
8.35378e-05
0.00418289
9.93048e-05
9.08317e-05
9.59647e-05
6.1545e-05
0.00676307
8.76984e-05
9.33192e-05
8.34251e-05
5.52889e-05
8.16349e-05
0.00133345
0.00273079
8.8979e-05
8.30747e-05
8.21681e-05
5.85489e-05
5.24039e-05
5.25556e-05
5.14073e-05
6.8278e-05
8.72398e-05
5.13518e-05
7.81764e-05
4.43586e-05
7.29942e-05
5.73572e-05
7.67245e-05
7.31344e-05
9.15888e-05
9.04417e-05
0.0271921
5.48066e-05
8.45991e-05
5.68372e-05
7.25493e-05
4.83422e-05
8.32975e-05
0.0402651
8.13034e-05
8.45473e-05
7.35388e-05
7.45208e-05
7.56555e-05
7.32525e-05
6.691e-05
0.00867481
6.65666e-05
5.84784e-05
0.000738592
6.48484e-05
4.55045e-05
9.05478e-05
0.000424582
8.87157e-05
5.38589e-05
8.73076e-05
0.0370739
0.0256308
5.95834e-05
9.39233e-05
6.50826e-05
8.85215e-05
0.00173601
6.05358e-05
0.0369833
5.55341e-05
8.51282e-05
7.34142e-05
0.00951376
7.74743e-05
6.57326e-05
9.427e-05
8.08676e-05
0.000785548
7.80647e-05
0.0001598
7.86253e-05
0.0247065
0.000229293
0.0419394
0.00022817
7.12213e-05
0.000165913
0.000125414
0.00682189
8.34529e-05
8.67776e-05
8.70447e-05
7.8704e-05
6.96308e-05
0.00846989
8.84164e-05
0.00010484
9.08701e-05
8.99245e-05
7.81482e-05
9.15396e-05
5.98998e-05
8.19236e-05
0.000188512
5.35276e-05
0.00917805
7.78985e-05
0.000209783
7.94005e-05
8.57022e-05
7.89844e-05
7.91653e-05
5.12478e-05
0.000105513
7.28188e-05
0.000203504
5.20298e-05
6.8455e-05
0.00745499
6.193e-05
0.0353973
6.8242e-05
9.30574e-05
5.1271e-05
7.08584e-05
7.7941e-05
5.34912e-05
6.59362e-05
6.75542e-05
6.79846e-05
7.97723e-05
5.92338e-05
6.02811e-05
8.19783e-05
0.0433046
0.00010856
8.89033e-05
8.15659e-05
7.80665e-05
7.61714e-05
6.34757e-05
0.0257205
5.95733e-05
7.51938e-05
8.86863e-05
6.00211e-05
6.40087e-05
8.66996e-05
4.97387e-05
0.0376122
0.0365094
4.4753e-05
6.95762e-05
5.07543e-05
5.7381e-05
6.02428e-05
0.000217281
9.33014e-05
8.88203e-05
8.99857e-05
5.73122e-05
0.0279455
7.00742e-05
6.47387e-05
8.12036e-05
8.76505e-05
0.013512
0.000117656
8.95811e-05
5.42432e-05
0.025099
9.72581e-05
0.000130703
0.000442377
7.35671e-05
7.83266e-05
5.39148e-05
9.03529e-05
6.90358e-05
4.43126e-05
8.86566e-05
5.67e-05
0.000721636
5.35924e-05
7.21049e-05
0.000252488
8.11562e-05
0.000123512
8.54387e-05
6.46685e-05
7.29771e-05
6.06381e-05
0.0268681
8.82207e-05
6.74446e-05
8.26433e-05
6.08037e-05
5.1446e-05
5.62161e-05
8.77644e-05
7.50052e-05
8.11635e-05
0.000118865
0.018364
6.43137e-05
7.5664e-05
7.87393e-05
7.03626e-05
6.11025e-05
6.24137e-05
7.86871e-05
6.9952e-05
8.73266e-05
9.02956e-05
6.26008e-05
5.91694e-05
8.61851e-05
6.53225e-05
0.00211854
0.00634759
5.90515e-05
8.6366e-05
6.79454e-05
9.41486e-05
7.37965e-05
7.55157e-05
6.33377e-05
9.13791e-05
5.3597e-05
8.88249e-05
7.99639e-05
5.53565e-05
9.09501e-05
8.16138e-05
0.000891805
7.77812e-05
8.16108e-05
5.9214e-05
0.000898885
7.67422e-05
6.68047e-05
5.91568e-05
6.46283e-05
0.000168636
6.32616e-05
6.38888e-05
5.30876e-05
3.1399e-05
6.325e-05
8.65782e-05
7.01431e-05
9.42733e-05
5.53116e-05
0.000949587
8.13566e-05
8.10646e-05
0.000133809
9.20006e-05
8.63875e-05
6.25174e-05
8.17814e-05
0.00333207
0.000503674
7.10988e-05
0.000104991
9.99205e-05
9.41853e-05
5.31851e-05
5.14244e-05
0.000111325
0.000445917
6.5523e-05
8.15389e-05
0.000101706
8.27209e-05
9.14818e-05
0.0313651
5.29534e-05
7.77635e-05
8.93875e-05
7.91993e-05
7.80448e-05
6.37252e-05
8.9853e-05
0.0100307
7.94136e-05
5.92038e-05
8.82393e-05
8.13611e-05
7.62084e-05
7.754e-05
8.58674e-05
0.035699
0.0373761
8.18284e-05
8.1658e-05
0.000126953
5.30461e-05
9.32017e-05
4.4926e-05
7.80891e-05
7.4105e-05
7.99373e-05
8.19762e-05
4.41215e-05
9.06346e-05
8.65048e-05
8.4011e-05
7.90378e-05
8.56731e-05
8.82711e-05
9.11067e-05
0.0350019
5.47108e-05
5.0806e-05
0.00048236
6.41924e-05
7.76602e-05
7.07444e-05
8.63344e-05
0.000102539
0.0389364
6.08209e-05
0.000533699
7.25227e-05
8.729e-05
8.94743e-05
7.65465e-05
5.73432e-05
8.50346e-05
8.38966e-05
0.00496949
9.12259e-05
5.90828e-05
7.72161e-05
7.79138e-05
8.81968e-05
8.20265e-05
0.000112082
8.17458e-05
6.90155e-05
5.4497e-05
9.14415e-05
7.07414e-05
9.07723e-05
7.36957e-05
5.80758e-05
6.2399e-05
9.0649e-05
0.00853852
7.09879e-05
6.17429e-05
9.83571e-05
7.93371e-05
0.000146012
8.49416e-05
7.15146e-05
5.86561e-05
7.34253e-05
6.88393e-05
7.81261e-05
5.69141e-05
0.00414562
9.56589e-05
0.000105404
9.63573e-05
8.84687e-05
7.77682e-05
9.26114e-05
8.56301e-05
6.44801e-05
0.000106859
7.63343e-05
9.0271e-05
0.00947589
8.61485e-05
8.98297e-05
8.73527e-05
7.20873e-05
0.00288706
8.89846e-05
0.00678602
7.95218e-05
6.49479e-05
4.4168e-05
9.22747e-05
7.3846e-05
5.58729e-05
5.08502e-05
0.000112065
8.73335e-05
4.43679e-05
0.00264454
9.00032e-05
8.81135e-05
0.000223175
8.20119e-05
5.40825e-05
7.83037e-05
6.26014e-05
0.000112795
7.64926e-05
9.19578e-05
7.77749e-05
8.96632e-05
8.06287e-05
7.79674e-05
6.80075e-05
0.0420484
8.34556e-05
0.000461194
0.000243127
8.70105e-05
8.15174e-05
9.78925e-05
7.64444e-05
9.30466e-05
6.66418e-05
0.00791495
5.60909e-05
9.26302e-05
6.88935e-05
0.0078167
0.000143698
0.00391406
6.54681e-05
6.56478e-05
7.71345e-05
0.0158834
0.00017751
8.37455e-05
0.00234925
0.00022414
9.64787e-05
8.43576e-05
0.00751834
0.00619913
8.31652e-05
5.90377e-05
8.84433e-05
6.36294e-05
6.13285e-05
0.00821503
8.58391e-05
7.26793e-05
9.83681e-05
9.35104e-05
7.35105e-05
9.41352e-05
7.36241e-05
6.09777e-05
8.13645e-05
8.16032e-05
7.79705e-05
0.0299574
0.000128683
7.69783e-05
6.00332e-05
8.51737e-05
6.36708e-05
0.00276003
6.10911e-05
9.26339e-05
5.34376e-05
7.34795e-05
0.000223404
8.3933e-05
8.5964e-05
7.60089e-05
6.36244e-05
8.78353e-05
7.94453e-05
8.52321e-05
7.45583e-05
0.000127606
9.87216e-05
8.89663e-05
8.65425e-05
0.00016385
0.0302726
0.000247043
0.0065888
7.19988e-05
6.21966e-05
8.20984e-05
7.54658e-05
5.03487e-05
5.5347e-05
0.042976
0.000604806
9.17554e-05
0.00251445
6.25344e-05
8.7896e-05
8.48793e-05
0.0432982
5.23857e-05
8.83857e-05
5.85806e-05
8.63193e-05
0.00205466
0.000119747
0.00532111
5.39847e-05
7.55779e-05
6.01951e-05
5.63765e-05
0.0338388
5.96822e-05
5.20604e-05
8.05084e-05
9.48007e-05
5.66276e-05
8.04068e-05
5.64801e-05
9.63395e-05
8.17321e-05
6.06094e-05
8.66477e-05
7.46644e-05
0.00023594
5.71554e-05
5.98373e-05
8.05617e-05
0.000180561
6.8894e-05
8.34684e-05
5.81881e-05
9.24522e-05
5.1928e-05
8.7252e-05
8.63216e-05
6.57145e-05
0.00411064
6.65006e-05
9.00374e-05
5.53829e-05
0.000100907
8.62165e-05
8.11118e-05
7.54286e-05
0.00380902
6.66664e-05
0.00123481
8.87712e-05
7.76562e-05
7.95246e-05
9.44696e-05
9.20803e-05
7.23652e-05
8.35056e-05
6.75794e-05
0.000158557
8.94588e-05
0.000117859
0.0425385
8.54113e-05
8.78095e-05
8.9782e-05
7.99033e-05
9.22324e-05
6.79338e-05
5.87608e-05
8.14484e-05
8.09987e-05
8.40993e-05
6.0611e-05
8.96124e-05
5.06221e-05
8.04569e-05
0.00563741
0.000108546
8.18164e-05
5.93336e-05
8.07237e-05
0.0053916
0.00144697
8.07665e-05
8.97135e-05
8.6295e-05
0.0407489
6.05306e-05
7.62096e-05
8.99523e-05
6.55266e-05
7.47512e-05
7.47362e-05
6.83186e-05
9.07262e-05
6.95054e-05
8.47056e-05
8.44397e-05
4.9126e-05
5.91872e-05
0.000122853
6.21618e-05
4.92768e-05
0.0268484
6.5239e-05
8.31677e-05
0.00253656
8.74978e-05
0.00149262
5.08046e-05
8.83356e-05
5.86538e-05
9.00224e-05
8.93513e-05
8.9697e-05
0.00119112
7.41311e-05
9.55987e-05
5.61391e-05
8.00836e-05
6.97215e-05
7.14272e-05
5.08001e-05
8.87617e-05
5.05882e-05
4.99891e-05
5.72933e-05
8.21523e-05
0.000813868
0.00558084
0.000104065
7.28433e-05
7.29911e-05
8.27095e-05
5.59564e-05
0.000145763
9.26533e-05
6.61326e-05
6.90731e-05
0.000101665
0.00236303
8.90709e-05
7.22357e-05
0.000118758
7.31831e-05
5.47554e-05
0.00131342
6.86125e-05
0.0353857
0.00010161
6.58631e-05
0.0153739
8.89208e-05
6.64313e-05
7.89449e-05
9.50864e-05
8.88263e-05
0.0292943
6.62784e-05
0.00441391
5.17608e-05
7.9109e-05
0.00382046
5.78109e-05
8.85164e-05
0.00386067
5.59592e-05
7.06626e-05
0.014458
0.000103141
9.51248e-05
9.50683e-05
5.1569e-05
8.99595e-05
9.02059e-05
0.0168078
0.00523446
0.000121362
5.12614e-05
6.64982e-05
0.000333284
5.7707e-05
8.89445e-05
5.55861e-05
7.42854e-05
0.000101209
8.72355e-05
5.46611e-05
6.95296e-05
0.000110653
6.98314e-05
8.97805e-05
8.1858e-05
5.98719e-05
7.08107e-05
6.33979e-05
0.0275839
0.00641732
5.05093e-05
4.99603e-05
0.000101166
8.08396e-05
0.0267299
0.000100826
0.000133029