/*--------------------------------*- C++ -*----------------------------------*\
| =========                 |                                                 |
| \\      /  F ield         | OpenFOAM: The Open Source CFD Toolbox           |
|  \\    /   O peration     | Version:  v2012                                 |
|   \\  /    A nd           | Website:  www.openfoam.com                      |
|    \\/     M anipulation  |                                                 |
\*---------------------------------------------------------------------------*/
FoamFile
{
    version     2.0;
    format      ascii;
    class       volScalarField;
    location    "50";
    object      omega;
}
// * * * * * * * * * * * * * * * * * * * * * * * * * * * * * * * * * * * * * //

dimensions      [0 0 -1 0 0 0 0];


internalField   nonuniform List<scalar> 
18166
(
0.113059
0.021411
0.171097
0.0672164
0.138592
0.0443226
0.0210832
0.0214056
0.02932
0.180863
0.0214186
0.0650552
0.0262816
0.0362758
0.0257952
0.0215951
4.56951
0.0210361
0.0232257
0.689009
0.0221179
0.0241052
0.0233622
0.0222403
0.0806157
0.313113
0.021429
0.528408
0.0215236
0.0211562
0.0208822
0.0213772
0.0328663
0.0720705
1.22544
0.0214594
0.0206352
0.0217207
0.0241077
0.0655902
0.0292767
0.0239472
0.0239164
0.0231088
0.800599
0.0206803
0.0218229
1.19239
0.0211578
0.725454
0.548197
4.5266
0.0211267
0.021524
0.0206736
0.0213585
0.508897
0.0214002
1.07208
0.0213665
0.0217365
0.0208123
0.0210944
0.0214522
0.0217882
0.0208384
0.0209774
0.0215613
3.84541
0.0216322
0.0259767
0.0678192
0.24186
0.0286754
0.0215926
0.0310659
3.12948
1.52529
0.197055
0.0261863
0.0220615
0.0232758
0.249321
0.020599
0.0206923
0.0216792
0.0228291
0.0214454
0.0211562
3.14829
0.0205844
0.0217418
0.0239213
0.0211605
0.0280919
0.0217333
0.0986447
0.0213292
1.47458
2.97134
0.0220771
0.0211189
0.0211489
0.533584
0.0209831
0.495959
0.0215653
0.0213087
0.0211585
0.0214774
4.25559
0.4781
4.47322
3.80921
0.0224515
0.528893
1.51416
0.0251167
0.0221669
0.0209763
0.0215498
0.0209364
0.0246949
0.0207491
0.0212092
0.0234842
0.0233066
0.0225678
0.0211176
0.0214322
0.021075
0.0214617
0.0425155
0.0218952
0.0329782
0.536185
0.0211428
0.223096
0.0214393
0.357561
0.0214261
0.0215387
0.0233717
0.436053
0.0209091
1.04648
0.475674
0.0206348
0.0211315
2.94162
0.0228726
0.022066
0.351203
4.20464
0.06394
0.0211037
0.0213514
0.0220655
0.064252
0.0224116
0.0214054
0.0223883
4.11013
0.0242157
0.0214674
0.0232473
0.04312
0.0213574
4.14805
0.021294
0.0269115
0.535752
0.0211181
1.20148
0.0243059
0.565526
0.0214992
0.0906075
0.0213524
0.0217587
0.0207432
0.0217224
0.0817477
0.231932
0.023115
0.0220185
0.0212606
0.0217227
0.0222003
0.0231179
0.0219956
0.0231232
0.239949
0.0221006
0.0225616
0.159607
0.151323
0.410604
0.0214369
0.0209828
0.0222625
1.4833
4.11964
0.0225747
0.0213722
0.0605798
0.0215632
0.0673786
0.0566757
0.0242567
0.0210999
0.0602266
0.0573884
0.0229276
0.0241644
0.0214612
1.19184
0.021491
0.022018
0.0211914
0.0234857
0.353262
0.0366333
0.0214616
0.0218811
0.527584
0.0208036
0.0211089
0.0209532
0.0213634
0.022388
0.0211697
0.291427
0.021147
4.15695
0.342159
0.336797
0.0239869
0.0221002
0.0618324
0.0208357
0.0357412
0.0226897
0.527591
0.0212938
0.0208447
0.245077
0.0208744
0.0266552
0.0458414
0.355153
0.021186
0.021361
0.0575422
0.0215702
0.0215813
0.0214537
0.0214141
0.0213547
0.0217092
0.0388646
0.038877
0.0217022
0.0219662
0.0217755
0.0240395
0.12867
0.0213294
0.0214392
0.536959
0.0209919
0.0213787
0.0514765
0.0213565
0.0252683
0.0209509
0.548227
0.0206894
0.021388
0.0916194
0.0210668
0.0233156
0.0331333
0.0213729
0.0214385
0.022474
0.0667717
0.0560866
0.0209445
0.0219377
0.0212437
0.0248178
0.0214649
0.0224733
0.0210526
0.0248729
0.0220712
0.547509
0.0210918
0.134398
0.0293063
0.0441357
3.93452
0.0242464
0.0211791
0.0252453
0.0518973
0.0211372
0.0210562
0.0218755
0.0213481
0.0212101
0.0217401
0.0212859
0.0210587
0.0243406
0.020742
0.0639134
0.0670554
0.0209862
0.198369
0.0229614
4.20739
0.0229419
0.0206664
0.0207531
0.0213357
0.167648
0.0211948
0.055776
0.0215195
0.023776
0.0209396
0.0214847
0.0323192
0.0212474
0.0542227
0.0425097
0.0214233
0.0211001
0.0426356
0.0217669
0.0633864
0.0212012
0.0231296
0.0214825
0.131376
0.0215037
0.0208035
0.0210111
0.0499923
0.0229177
0.0634306
0.0217089
0.152297
0.0234852
0.0214059
0.0213358
0.599222
0.050595
0.0211332
0.0211979
0.0211432
0.0232586
0.612921
0.0211431
0.0206598
0.0212811
0.0210825
0.0241761
0.0207649
0.0211755
0.0211162
0.208572
0.0210937
0.0245742
0.0210757
0.024145
0.0212045
0.0215229
0.0207894
0.0213222
0.0518876
0.284304
0.0207989
0.0215023
0.0325608
0.0531061
0.0221285
0.156962
0.0207999
1.25388
0.0272963
0.0221865
0.230631
0.0602217
0.0213116
0.0208178
0.021214
0.0742728
0.0208496
0.0208357
0.0214917
0.0207668
0.0222322
0.0210441
0.0235888
0.201852
0.129692
0.0206969
0.0210378
0.145929
0.0288002
0.0227057
0.0210832
0.180271
0.0217601
0.0213562
0.0207033
0.0222751
0.020988
0.0210914
0.604104
0.60709
0.0221759
0.0213308
0.021503
0.0209943
0.0209403
0.0319567
0.0220981
0.0216401
0.0211728
0.0287467
0.0220575
0.0211815
0.0210998
0.0918807
3.00966
0.244399
4.06465
0.174839
0.111373
0.0971605
0.0211982
0.0260351
0.140137
0.0215985
0.0324356
0.0209397
0.0297204
0.0212647
0.0213157
0.021474
0.0214649
0.0235318
0.0234061
0.0210795
0.0211887
0.021184
0.0218937
0.0207329
0.0209204
0.0232413
0.0257065
0.0236679
0.0223458
0.0212166
0.0262246
0.0214014
0.00974471
0.0212287
0.023848
0.0214238
0.194982
0.0214769
0.0222396
0.0230923
0.0210785
0.124197
0.0258642
0.0225645
0.429304
0.0211307
0.0306185
0.0236134
0.0964655
0.0208025
0.0221713
0.0224665
0.0209538
0.0211003
0.0211707
0.0580904
0.362353
0.0257335
0.0213197
0.0243331
0.0213854
0.0213388
0.0233397
0.0214
0.0219595
0.726116
0.0224176
0.0214765
0.0211249
0.020957
0.0227116
0.572924
0.0215258
0.0223685
0.0209859
0.0246027
0.104893
0.0693137
0.383166
0.0214984
1.3255
0.0214217
0.0219466
0.107317
0.038876
0.0590808
4.18559
0.0227194
0.0213969
0.0212245
0.02162
0.021204
0.0710495
0.0237996
2.95919
1.0717
0.0251915
1.44273
0.0220686
0.0237465
0.0240138
0.0215963
0.023264
0.0496483
0.0248592
0.0699628
0.0214765
0.0243293
0.0234021
0.0208081
0.275435
0.0210292
0.0257196
0.0212323
0.0209254
0.0422967
0.0209397
0.0208115
0.052589
0.057846
0.0210556
0.357274
0.0213316
0.0299018
0.0387843
0.0220355
0.021042
4.13396
0.0215593
0.0221083
0.0208563
0.0216574
0.0223814
0.0208433
0.238996
0.021096
0.171205
0.21271
0.0242716
0.0211927
0.0219918
0.021138
0.021327
0.0213481
0.0238887
0.021179
0.0209653
0.0236909
0.0211715
0.0207568
0.0598047
0.0215089
1.30057
0.021643
0.0405091
0.0304029
0.0214802
0.0232402
0.0233927
0.338881
0.0831217
0.25497
0.0206722
0.0268247
0.0219355
0.0212195
0.0342173
0.0208188
0.0296938
0.360818
0.073524
0.0214066
0.0212118
0.0320133
0.0217556
0.0219228
0.0215603
0.0209336
0.0345722
0.021345
0.0228583
0.0206986
0.0593954
0.0207843
0.756714
1.10814
0.0210099
0.0360511
0.0211762
0.0210504
2.79975
0.0265726
0.0220614
0.0218099
0.021367
3.16137
0.0592082
0.0277444
0.0216597
0.0235197
0.0218108
0.0208873
0.0211827
0.0209428
0.0724041
0.0214928
0.0213551
0.0207869
0.531092
0.0233107
0.0211983
0.0211624
0.0414021
0.024037
0.0216505
0.0571076
0.0237471
4.02504
0.0220776
0.0217368
0.020665
0.0216089
0.020994
0.0229863
0.0216796
0.0212457
0.021599
0.0323573
0.0223005
0.0322973
0.0212137
0.0619934
0.0416545
0.0217939
0.0216011
0.151787
0.0563843
0.664266
0.0313949
0.0210898
0.0226192
0.0217244
0.0207617
0.0209265
0.0206865
0.0726206
0.0436721
0.142847
0.608774
0.543629
0.2563
0.0211146
0.0263847
0.0209385
0.0211809
0.0338065
0.151061
1.38684
0.0322999
0.166333
0.0213787
0.021164
0.0459943
0.0660621
0.0211231
0.269422
0.0233313
0.0211249
0.0230364
0.0211625
0.0244173
0.0238418
0.1734
0.0927943
0.0587449
0.0416421
0.544459
0.0316224
0.0231151
0.0213397
0.021758
0.0303643
0.487767
0.0213477
0.143975
0.0242845
0.0231997
0.021112
0.0720531
0.0295235
0.0398865
0.136458
0.0414903
0.0262651
0.0295663
0.0520064
0.0216818
0.0213675
0.0221591
0.136811
0.0235876
0.188306
0.503659
0.654607
0.0229152
0.0212754
0.0226991
0.0211338
0.0315374
0.0295606
0.0233696
0.0214891
0.0212095
0.026305
0.0209525
0.0219374
3.1905
0.0214659
0.146452
0.0207477
0.0222382
0.0492158
0.023825
0.0226782
0.0316001
0.0657326
0.0234581
0.021306
0.0232398
0.0236108
0.196843
0.0212059
0.0212115
0.0208786
0.0208875
0.0209597
0.0223009
0.0677449
0.377498
0.357625
0.0548172
0.0728969
4.09965
0.0288244
0.0869203
0.0596969
0.375744
0.0222935
0.0216347
0.0208817
0.0247347
0.537454
0.0213189
0.0238018
0.0213312
0.0221882
0.305983
0.0210855
0.0212018
0.0287191
0.0208125
0.0216316
0.021354
0.0214116
0.0210001
0.0727965
0.0212528
0.0211317
0.0289618
0.0504166
0.0226505
1.25916
0.021362
0.0259686
0.0211359
0.0240299
0.308723
0.021198
0.363129
0.079643
0.0233454
0.0208189
0.0241937
0.02206
0.0226756
0.0221813
0.0211005
0.736395
0.0214151
0.0325461
0.0215397
0.0343483
0.0212827
0.0244369
0.0235249
0.0209298
0.0234974
0.0206466
0.0214643
0.0226267
0.0222396
0.0543819
0.167506
0.0214169
0.0998785
0.0208869
0.0221247
0.0206098
0.0566277
0.0242779
0.0207032
0.0226542
0.0286575
0.0211315
0.0209254
0.0216826
0.0742906
0.0212376
0.435243
0.327577
0.0211356
0.0224892
0.0220634
0.0221266
0.230113
0.0214835
0.294092
0.0206383
0.0212198
0.0646422
4.03101
0.0384756
0.0207758
0.0369783
0.0212265
0.434248
0.0224054
0.0352842
0.0843136
0.250333
0.0212403
0.0215228
0.0213486
3.9356
0.0212869
3.60159
0.020756
0.135101
0.108878
0.0238696
0.0233336
0.0213748
0.031783
0.0622239
0.0218072
0.0253192
0.0351286
0.0225819
0.0247361
0.0277453
0.175395
0.0214927
0.0216114
0.0213575
0.022316
0.0219534
0.0215088
0.24619
0.020888
0.366372
3.51554
0.0271814
0.066411
0.0213928
0.0210345
1.25797
1.12976
0.468418
0.0375789
0.180218
0.0209318
0.0232384
0.466458
4.05904
0.241947
0.0220195
0.0244807
0.0770061
0.021037
0.0211823
0.0210249
0.0217705
0.0229592
0.0214755
0.0369918
0.020618
0.119844
0.0215394
0.0275408
0.181662
0.603249
0.487719
0.0503836
0.314886
3.76652
0.0232043
0.0280462
0.0225219
0.0229574
0.0217763
0.0819976
0.0232186
0.102564
0.0246457
0.0620419
0.0658018
0.020875
0.0520646
0.0206101
0.0231298
0.781452
0.0213868
0.0231446
0.205853
0.0347447
0.622758
0.0405839
0.0206931
0.350792
0.0228281
0.0218165
0.0268265
0.0224322
0.476951
0.0230598
0.0210837
0.0368606
0.0216146
0.024126
0.0207522
0.0216969
0.0218534
0.267008
0.0240298
0.0236378
0.134632
0.0213231
0.0293403
0.169329
0.0280573
0.0213121
0.0247837
3.09946
0.230975
0.26987
0.0219349
0.0206468
0.0329461
0.0930952
0.02107
0.0263226
0.0316163
0.0318312
0.0221178
0.105692
0.453746
0.0207653
0.0206539
0.0206255
0.0214735
0.0207942
0.0277556
0.0210683
0.204356
0.0573164
0.0208976
3.83027
0.0208486
0.0249099
0.0220732
0.0254678
0.0231889
0.0224718
0.0611302
0.0219149
0.0215905
0.0232268
0.312047
0.0231797
0.020927
0.00918877
0.0208428
0.0359232
4.10314
0.527595
0.023474
0.0224431
0.0224303
0.0219667
0.0227536
0.0768007
0.0208613
0.298398
0.0361586
0.0266894
0.0251576
0.0262007
0.19003
0.0208805
0.486648
0.0227025
4.05181
0.0221615
0.237756
0.0226924
0.0206585
0.021536
0.0208326
0.0219801
0.0583205
0.0213373
0.345836
0.383339
0.226142
0.0218315
0.0215037
0.023521
0.0703317
1.14028
0.0220554
0.0733923
0.0214229
0.024405
0.0258537
0.0216812
0.0219695
0.0213807
0.0219937
0.0339874
0.0739393
0.155029
0.0215839
0.268344
0.0702239
0.185053
0.054097
0.0219817
0.0214548
0.150797
0.0214213
0.0206654
0.0335428
0.0213348
4.3511
0.0228224
4.04073
0.0243656
0.0208798
0.0211767
0.0241979
0.037782
0.0208555
0.463545
0.0206358
0.0208198
0.0212369
0.0234855
0.0212029
0.036032
0.0227453
3.32853
0.0213998
0.0212744
0.0214903
0.507846
0.0217353
0.0210925
0.0262468
0.0214933
0.0214347
0.0259343
0.0214224
0.021023
0.0209589
0.0225466
1.25546
0.692736
0.0215393
0.021315
0.0238888
0.0242751
0.0271639
0.0218851
0.0244214
0.0394342
4.19747
0.0264226
0.0210077
0.0348744
0.0221125
0.111194
0.0265203
0.0220132
0.0722669
0.161592
0.0258518
0.0208074
0.0206291
0.0669071
0.0243526
0.020837
0.0229753
0.0214698
0.0223433
0.0213293
0.110186
0.0209004
0.344331
0.0820742
0.0211016
0.110918
0.0379906
0.124117
0.0447584
0.0241783
0.0221185
0.0212171
4.13958
0.0211911
0.0220614
0.0246766
0.0213801
0.0225844
0.0384603
2.98995
0.198422
0.0208771
0.0211326
0.0696699
3.67533
0.0240249
0.0220516
1.23366
0.0212419
0.0211769
0.0209518
0.0514323
0.048642
0.0211761
0.0222609
0.0214754
0.0220476
0.0241332
0.0227984
0.0213258
0.0338988
3.69975
3.99483
0.0233282
0.0211701
0.0246133
0.0154044
0.539625
0.020901
0.0241607
0.0521672
0.0264812
0.0213876
0.0195571
0.0218174
0.0309712
0.0223155
0.0227311
0.527682
0.0834337
0.0205278
0.0226707
0.0222373
0.561315
0.0220711
0.0214477
0.0208288
0.0231905
0.0220926
0.0255444
0.0213195
0.0217202
0.0208753
0.0915915
3.21454
0.0260924
0.0220616
0.0209829
3.08511
0.0222232
0.405613
0.0207995
0.0216261
1.2721
0.0207402
0.0227789
0.0700436
0.113539
0.218512
0.0214763
0.0217967
0.0214216
0.021247
0.0447814
0.0213038
0.0233268
0.0206209
0.0287101
0.0817079
0.0519284
0.0214039
0.0206153
0.0213659
0.0214749
0.578641
0.0218469
0.330999
0.0240953
0.020934
0.0232149
0.0213284
0.0720847
0.0216342
0.094494
0.0213228
0.0212694
3.86585
0.0214321
0.0218506
0.0213504
0.0213812
0.0224345
0.0207972
0.0270868
0.0543821
0.0290715
0.0345077
0.0211828
0.0207325
0.0213171
0.581435
0.0218612
0.0214212
0.0221983
0.107114
0.0212926
0.0208338
0.0237707
0.0208802
0.0211671
0.0222048
0.0340731
0.0218656
0.0207553
0.104818
0.0214906
0.179641
0.020559
0.100745
0.531367
0.0208429
0.0262637
0.0222233
0.024882
0.0212797
0.0366072
0.0718728
0.0214612
0.0217214
0.0210498
0.0306786
0.0206377
0.0213743
0.02143
0.110646
3.18932
0.0227981
0.0223962
0.0206124
0.0226634
0.0226202
0.0208081
0.0230667
0.0217266
0.0213368
0.0208692
0.105318
0.0205736
0.0213686
0.0209982
0.0213172
0.0214297
0.0509281
0.0214093
0.0257847
0.555108
1.88064
0.0212691
0.552413
0.0207672
0.0222525
4.01749
3.09971
0.0225559
0.023925
0.0210251
0.502674
0.23379
0.02104
0.0235558
0.0211675
0.0405912
0.440124
1.13429
0.0209688
0.0206366
0.0205679
0.0476719
0.0214314
0.0208122
0.0211074
0.0421418
0.0230066
0.0213725
0.0214603
0.0223051
0.0212184
1.28407
0.0343334
0.0216352
0.55822
0.421766
0.0206127
0.0317339
0.0348606
0.0283831
0.0218397
1.1191
0.0385301
0.0216008
0.0886554
0.111435
0.0228777
0.0210236
0.0212639
0.0214747
0.0210672
0.545922
0.567942
0.0214137
0.021756
0.0212999
0.0329915
0.678001
0.0210355
0.0215752
0.0218682
0.0214756
0.0216966
0.0220269
0.0217916
0.348154
0.0207873
3.95286
0.351366
0.0222171
0.0212603
0.0208956
0.0225029
0.0220479
0.0208768
0.536329
0.0898766
0.158258
0.0210152
0.443177
0.0230181
0.0889384
0.0213937
0.0373108
0.0237306
0.0466516
0.0219067
0.0206707
0.0234326
0.205918
0.0132876
0.0240352
0.0213187
0.0211198
0.372528
0.0218535
0.104432
0.605691
0.0225097
0.0217012
0.0210436
0.0208576
0.0211435
0.0212906
0.0265168
0.0213674
0.145122
0.0216438
0.0212334
0.0207915
0.0376671
0.021811
0.021765
0.0211968
0.0208639
0.0217349
0.0217091
0.0209987
0.0205777
0.546915
0.761711
0.0218121
0.0208985
0.022667
0.0220642
0.0225803
0.0214052
0.998545
0.179087
0.521003
0.0223842
0.0227673
0.02125
0.0218332
0.0208438
0.0215366
0.0831379
0.0221751
3.33394
0.0209273
0.0213668
1.4019
0.0243909
0.0211258
0.474846
0.545084
0.0499019
0.0217127
0.0217637
0.0208849
0.512233
0.0981203
0.101994
0.125463
0.0328882
0.72575
0.0537249
0.0214501
0.0217336
0.0916233
0.0633031
0.0253908
0.0214273
0.0239261
0.0643302
4.12964
0.0217472
0.0215628
0.0368861
0.0217716
0.0216558
0.0212817
0.0208443
0.0214002
0.0214024
0.0205738
0.0209058
0.0214028
0.451191
0.788874
0.0206933
0.0238284
0.0208415
0.0869251
0.0258829
0.0217624
0.302351
0.0231231
1.1832
0.0516245
0.470118
0.021724
0.0291413
0.0217534
0.0213895
0.128279
0.0212733
0.0215163
0.0719282
0.0527353
0.0210686
0.0207555
0.0213549
0.0212691
1.12438
0.0735913
0.0221216
0.0241099
0.0961956
0.161093
0.0225945
0.0232475
0.0213971
0.0213619
0.0207121
0.200922
0.0827477
0.369913
0.02228
0.0208698
0.0940838
0.0213996
0.0342769
0.0225342
0.146204
0.0209094
0.022684
0.0551591
0.0221231
0.0873402
0.0213489
0.0214674
0.0226146
0.0378955
0.0260353
0.0342479
0.0233363
0.0219402
0.0209932
0.0232446
0.0206176
0.0221703
0.0212352
0.0352257
0.0214065
0.0218122
0.0229279
0.0130859
0.0230231
0.0178157
0.0518997
0.0248445
0.129393
0.0217059
0.0216614
0.0220028
0.020907
0.0221435
0.0237228
3.19816
3.70019
0.0362064
0.0211431
0.0223144
1.2406
4.00273
2.8787
0.0219596
0.021754
0.0268929
0.0219099
0.0353226
0.0218504
0.022142
0.0227743
0.0376145
1.0279
0.02149
0.0266866
0.0220287
0.0215222
4.425
0.567278
0.025808
0.07226
0.0837009
0.0209265
0.138408
0.0337926
0.0213884
0.0215129
0.547598
0.0326773
0.0568145
0.0689795
0.0238499
0.0484737
0.021205
0.0211781
0.0209552
0.0214076
0.128553
0.0210801
0.0222732
1.01601
0.0212903
0.462649
0.0213867
0.0207091
4.15217
0.0209284
0.0218079
0.39841
0.0212151
0.0212986
0.020639
0.0207168
0.583982
0.0220221
0.0210123
0.0817286
0.0211537
0.0232509
0.0220851
0.021629
0.0477305
0.0217541
0.0325721
0.0608437
0.0212948
0.021013
0.0208463
0.0231466
0.27391
0.0214963
0.191212
0.02121
0.0920791
0.0217576
0.0280858
0.024856
0.0207924
0.414728
0.0214358
0.177643
0.0213514
0.0221551
0.0213299
0.0212503
0.0218986
0.0209991
0.0287256
0.0242291
0.0763881
0.0214537
0.0224394
0.117404
0.349227
3.02882
0.153413
0.0272094
0.026001
1.38597
0.0212411
0.0207215
0.0243722
0.0207839
0.0474444
0.0599051
0.0224186
0.0241185
0.0205643
0.0207205
0.0232846
0.0585478
0.0212846
3.87486
0.021348
0.0213721
0.535308
0.0218434
0.0206097
0.0206005
0.0225563
0.0223187
0.368802
0.0219011
0.020992
0.0213657
0.0482187
0.316873
0.0281568
1.37004
0.0204968
0.0242262
0.0205509
0.0701631
0.0211622
0.0205112
0.0210473
0.069829
0.16945
0.0212989
0.0261403
0.0245797
0.0209927
0.0345904
0.0871455
0.0242203
0.0213374
0.100095
0.0393004
0.0234025
0.0214438
0.714273
0.0212
0.452045
0.0205974
0.0212259
0.0214071
0.0218645
0.025418
0.0234509
0.0212346
0.0213081
0.0210001
0.0244817
3.25269
0.0214242
0.0211005
0.0214889
0.15554
0.0235696
0.0215886
3.69303
0.349845
0.0211584
0.0234408
0.0210332
0.0646775
0.022487
0.101822
0.0335083
0.273554
1.19852
0.0227541
0.0211029
0.743375
3.29462
0.0221337
0.0233391
0.0213716
0.0212069
0.0213815
0.251933
0.0239416
0.026877
0.0220449
0.287729
0.021166
0.341611
0.021034
0.0213447
0.0211503
0.143964
0.0213678
0.0385813
0.0211933
0.0207885
0.0224149
0.0208823
0.02178
0.0207815
0.0207086
0.155015
0.0264269
0.0213203
0.0214326
0.0209748
0.046747
0.0208146
0.0214149
0.0244857
0.0213996
0.0290439
0.0210412
0.201373
0.744923
0.0226025
0.0215519
0.109463
0.0497163
0.0226828
0.0205365
0.0215185
0.0252865
0.144321
0.0209424
0.278945
0.0342062
0.0218124
0.0217067
0.0213776
0.0645408
0.0213727
3.98704
0.023849
0.0225835
0.0218357
0.121415
0.0224169
0.0213505
0.0755892
4.07381
0.0999598
0.0224557
0.0219652
0.153672
0.0218094
0.0244216
0.0215662
0.0234748
0.0223202
0.0213449
0.0166365
0.0747269
0.0233286
0.0221149
0.0845048
0.0234109
0.0206438
0.124676
0.0502412
0.0389502
0.0226524
0.0213244
0.0213155
0.572055
0.0216621
0.512604
0.0213002
0.0212005
0.332784
0.0276991
0.525876
0.0213857
0.0218696
0.0294773
0.0226101
0.0213424
0.0217498
0.103726
0.102734
5.33514
0.343277
0.0251668
0.0241855
0.0207714
0.0207994
0.022008
0.021464
0.0216778
5.36087
0.0654166
0.0211636
0.0211511
0.0772151
3.74643
0.09259
0.0209504
0.0208134
0.0438459
0.0213309
0.0213435
0.14511
0.021643
0.0221031
0.022036
0.0772792
0.0219806
0.0815675
0.0983891
0.0220469
0.0215932
0.0220065
0.0215161
0.0213923
0.0299354
1.12723
0.0215639
0.0253113
0.0211538
0.511137
0.0473668
0.184902
4.12425
0.0255137
0.0449727
0.470136
0.0214421
0.0207609
0.0213588
0.0233257
0.0276882
0.0221122
0.0210058
0.322573
0.0211401
0.0215435
0.0207823
0.0218287
3.63263
0.330139
0.0226719
0.423061
0.0208087
0.0208633
0.0711116
0.0212842
0.0539194
0.0213693
0.0233676
0.0210501
0.0228793
0.0212932
0.0232217
0.0229517
0.0212571
0.479586
0.0216411
0.0217309
0.0229344
0.0211679
0.342675
0.0912745
0.0207536
0.0259696
4.01883
0.021275
0.348522
0.0217392
0.0216977
0.0212743
0.0252465
0.0226879
0.0206691
0.0213976
0.0305944
2.90096
0.0208654
0.0207287
0.428499
0.0215499
0.0212989
0.0464521
0.0233464
0.0216391
0.0208706
0.10021
0.021283
0.0231719
0.0237249
0.23983
0.279062
0.0212663
0.0214846
0.0213636
0.0347833
0.0209852
0.0229143
0.0608578
0.0214894
0.0235598
0.0604004
0.0208038
0.0365744
0.0213025
0.0232222
1.33092
0.569842
0.0211492
0.0616947
0.0212851
0.0211751
0.0316385
0.021695
0.0218867
0.0217844
0.0213428
0.021768
0.0208015
0.0219683
0.0216805
0.0480136
0.459381
0.0212458
1.49308
0.0214084
0.0213955
0.0217203
0.0209177
0.0216277
0.0212156
0.0205735
0.0223446
1.17277
0.0214256
0.0240985
0.0206134
0.0212093
1.31857
0.342808
0.0211742
0.0213794
0.0668831
0.0219768
0.021766
0.0945103
0.793946
0.0207687
0.0220551
0.0206611
4.06974
0.0212511
0.0214422
4.13637
0.13344
0.0212524
1.38204
0.021399
0.0210833
0.0208106
0.0208182
0.312521
0.0224695
0.0226254
3.63296
0.0226241
0.0214257
0.0208873
0.0226449
0.349181
0.0610733
0.023084
0.0214611
0.0699867
0.0212643
0.0214807
0.0232855
0.0205532
0.0233708
0.0205654
0.0217826
0.0207294
0.0386181
0.249126
4.02013
0.0802382
0.0298471
0.0467884
0.021311
0.0369863
0.0211628
0.0213336
0.0285237
0.0226952
0.0216183
0.0229379
0.0208299
0.0270752
0.36365
0.0224597
0.0213737
0.0226413
0.0213111
0.0206647
0.0213249
0.0268169
0.0328398
0.310078
0.0219177
0.852953
0.0213048
0.0208088
0.0225302
0.0234346
0.0212669
0.0209245
0.0211967
0.210401
0.341862
2.83416
0.770664
0.345587
0.033841
0.405391
0.0209781
0.0220389
0.0256705
0.0217138
0.0205055
0.0461032
0.0212974
0.607108
0.0212581
0.0213531
0.021471
0.0211184
0.0506998
0.0209503
0.345827
0.0216427
0.0328368
4.89924
0.0222624
0.562343
0.0215695
0.0215925
0.0308343
0.0211455
0.0207767
0.0365997
0.0301121
0.0211631
0.0208013
0.0212238
0.187192
0.437747
0.0217387
0.0208636
0.0216255
0.0210039
0.0215183
0.146522
0.0206734
0.142591
4.12715
0.021522
0.0211105
0.0723759
0.0214481
0.0777386
0.108853
0.0208714
0.0220034
0.058904
0.0413936
0.0586327
0.163046
0.0254566
0.0225827
0.0365439
0.0215292
0.0219381
0.0272338
0.0212173
0.0213899
0.0222162
0.0213041
0.302182
0.0213181
0.425152
0.0347608
0.0496453
0.0223722
0.0300276
0.0260706
0.158829
0.0209577
0.0210605
0.568722
0.0707807
0.0216367
0.0922467
0.530939
0.0213679
0.0217751
0.0235023
0.0209823
0.0752473
0.0210631
0.0459851
0.0214539
0.0732305
0.0559366
0.0802959
0.149777
0.0212506
0.0212744
3.77443
0.0496713
0.0313245
0.0213414
0.0211937
0.161249
0.021533
0.0220471
0.0729805
0.0210336
0.0181703
0.0244488
0.0223252
0.0214263
0.0326275
0.0234084
0.0469244
0.0234377
0.0220834
0.0210582
0.0213287
1.21802
0.0213218
0.0213746
0.0207594
0.521682
0.540062
0.0474368
0.0212512
0.0213457
0.0612698
0.0210265
0.0214395
0.0212381
0.0229223
0.0208923
3.21676
0.0227953
0.0217074
1.1801
0.0836854
0.0233552
0.0210188
0.0212673
0.0212493
0.0212997
0.0209576
1.33512
0.0217102
0.0215724
0.0368603
0.426543
0.0550714
0.0344704
0.0405653
0.0210171
0.0205588
0.57688
0.0214052
0.0219125
0.219591
0.021119
0.0210434
0.021782
0.0212297
0.0211241
0.0207676
0.0718664
0.303298
0.752949
0.0423683
2.93043
0.0232355
0.0215421
3.02513
0.0213695
0.0631322
0.0214802
0.332483
0.0208845
0.0638927
0.699842
0.0219663
0.0205142
0.0214484
0.0266206
0.021145
1.35049
0.0210024
0.0225331
0.0231317
0.0540889
0.021269
0.024756
0.0212565
0.0206661
0.0208933
0.0303223
0.0213922
0.468186
0.0208822
0.985728
0.0592448
0.0219851
0.0212415
0.0241442
0.0207458
0.0220515
0.0207532
0.0221223
1.31628
0.0207784
0.914198
0.0212091
0.0264851
0.034341
0.0212148
2.85259
0.02134
0.0219842
0.0245153
0.74802
0.0238179
0.0210476
0.021385
0.0457689
0.0434448
0.0264499
0.0243093
0.024487
0.0218171
0.0212162
0.0210214
0.0228481
0.0248656
0.0228803
0.0231563
0.0218865
0.405224
3.38335
0.0215935
0.0211087
0.0244079
0.129786
0.0213966
0.0229898
0.022314
0.0214382
0.0212452
0.0238972
0.0208802
0.021319
0.060362
0.0216817
0.0215782
0.0215608
0.0209703
0.839541
0.103447
0.0240507
0.0214149
3.48368
0.0306181
0.0834077
0.022366
0.039267
0.0382287
4.38146
0.0208232
0.0230714
0.0264128
0.0213228
0.022475
0.0285286
0.0211609
0.0213364
0.0326862
0.0222354
0.0262024
0.0616643
0.0214855
0.0213925
0.0515885
0.0214811
0.0958027
0.0208467
0.487861
0.0219293
0.0214998
0.0204942
0.0746214
0.0628216
0.0206479
0.139893
0.0418869
0.0775195
4.33264
0.0212533
0.0467686
1.3855
0.185007
0.0212322
0.0400935
0.0358209
3.53757
0.0219131
0.0224357
0.161035
0.0701042
0.0236249
0.288595
0.0227114
0.24995
0.020859
0.0212486
0.0216349
0.0661446
0.0212934
0.089649
4.15422
0.0497099
0.0208791
0.0213086
0.0211472
0.0311887
0.0207245
0.0213395
0.0174913
4.07931
0.0231169
0.0214551
0.0211474
0.0209274
0.514813
0.021617
0.0222206
0.020546
0.020834
0.0339551
4.05036
0.0242572
0.0206131
0.031927
3.5799
0.0218706
0.020694
0.031993
0.022036
0.0215913
0.0232961
0.0242275
4.04947
3.99012
3.13796
0.0222224
4.01449
0.75066
0.0227643
0.0212664
0.0272412
0.0219499
0.229225
0.315387
3.73666
3.74664
0.749159
0.0208085
0.0672625
2.35666
0.0293245
3.94316
4.27279
0.0213649
0.519582
0.0207737
0.0212945
0.141094
0.0213408
0.021379
0.0210342
0.0217024
3.73056
0.0249152
0.0832091
0.0215878
0.64966
0.0207385
0.0214666
0.0206768
0.493423
0.0213498
0.022824
0.506392
0.021154
0.0207761
0.0238708
0.0234084
0.0252101
0.0254958
0.0339445
1.48996
0.0206122
0.0213146
0.0220164
0.0509311
0.423653
0.0213368
0.0213523
0.350041
0.0214231
0.020605
0.192414
0.0209171
0.0307096
0.0220746
2.54723
0.0322992
0.122497
0.0210664
3.06077
0.0233935
0.0210274
2.09789
0.0214235
2.6198
0.0305485
0.0232977
0.0217898
0.176996
0.0214756
0.05597
0.0226462
0.0205965
0.0213458
0.021481
0.132549
0.0303461
0.0209702
1.73426
0.0569704
0.0211883
0.0219455
0.0210499
0.352167
0.0823738
0.0207972
0.0466586
0.517696
0.135805
0.0213479
0.02248
0.131113
0.0209209
0.0211302
0.0211846
0.0320072
0.335167
0.0258542
0.0236252
0.0215586
0.0207841
0.0205588
0.0710411
0.0213394
0.0220337
1.37934
0.0212569
0.0272726
0.0213344
0.141236
3.91076
0.0219336
0.0210257
0.521155
0.0212184
4.09727
0.0225065
0.579777
0.560609
0.272675
3.70896
0.0211318
0.721184
0.0232874
0.0224755
0.0209722
0.0248693
0.418264
0.0223639
0.0214538
0.0326662
0.105267
0.020891
0.0210753
0.0371054
0.0289454
0.0205853
1.08273
0.0230062
0.0212965
0.0219106
0.0212624
3.88754
0.150671
0.251467
0.0224538
0.0488173
0.0213942
0.0210571
0.0398116
0.112743
0.0214069
0.0725092
0.175563
0.0211053
0.0217915
0.0253138
0.0230055
0.0275342
0.0217118
0.209846
0.0246102
0.0214373
3.37452
0.0213844
0.132701
0.0230286
0.0209749
0.119179
0.176227
0.0210896
0.0210478
0.0210496
0.0347563
0.0217828
0.126448
0.0213214
0.02145
0.291513
0.127995
0.0213118
1.20444
2.10215
0.050643
0.0235786
0.020462
0.0212378
0.472618
0.245368
0.0206821
0.0213588
0.744306
0.0668713
0.0223557
0.0209321
0.0435327
0.238558
0.0209676
0.34255
0.224194
0.0211458
0.0221011
0.0303104
0.345709
0.123758
0.0218985
0.0314929
3.22779
0.035167
3.63748
0.0208549
0.515105
0.02559
0.175205
0.0285852
0.0486895
0.0656905
0.0205344
0.214164
0.0241078
3.14757
0.059274
0.152322
1.50541
0.112555
0.0214623
0.103514
0.11528
0.0242751
0.0298601
3.81034
0.265865
0.0206758
0.127698
0.0210269
0.0214203
0.0224142
0.0209862
1.61684
0.0218633
0.0211013
0.0213199
0.380392
3.68238
1.32845
0.0216863
0.0214079
0.544268
1.32099
0.0252031
0.0656584
0.0311541
0.0221064
0.0214507
0.783142
0.0215002
0.0264212
0.0217935
0.0212649
0.022407
0.478278
0.0213993
0.0485285
0.146187
0.112855
1.90945
0.0330757
0.0251566
0.0215341
0.0214355
0.0210761
0.0305514
0.021127
0.0212516
0.368408
0.0214039
0.0213496
0.0232089
0.0225544
0.0223222
0.0814437
1.39024
0.0220036
0.0207336
0.0272845
0.0206848
0.0217542
0.0336834
0.126406
0.137127
0.549334
0.876099
0.302022
0.0265908
0.0214066
0.0217561
0.0213789
0.0213237
0.0225033
0.0316607
0.0232737
0.0233804
0.0234196
0.979846
0.0233845
0.021862
0.0302332
0.021663
0.0213704
0.021824
0.0212999
0.0212736
0.023344
0.0212439
0.0416072
0.020769
0.0341148
0.021341
0.0328131
0.328769
0.0213147
0.0426955
0.0748929
0.0215286
4.25372
0.02132
0.0217611
0.021678
0.0220602
0.0214251
0.0223687
0.0435552
4.17244
0.0206728
0.0211205
0.021219
0.0971154
0.0233415
0.0216562
0.0230102
0.0370526
0.0217239
0.0214102
1.09543
0.0438775
4.6533
0.0210886
0.0225039
0.158455
0.022169
0.0310861
0.142951
1.36521
0.0212855
0.0213712
0.139567
0.0224063
0.0205875
0.0223119
0.0219576
0.0450483
0.0207782
0.0206197
0.0558025
3.60775
0.0217093
0.0379093
0.0211015
0.0235657
0.0217042
0.758139
0.0290981
1.39715
0.022136
0.428882
0.0463647
0.070898
0.0264875
0.0212016
0.0206374
0.0207389
0.0860946
1.30139
0.0219861
0.0233855
0.0218431
0.133525
0.0219648
0.0220783
0.0306961
0.0223059
0.0273206
0.0221863
0.02057
0.0216563
0.0211352
0.161068
0.0209818
0.540114
0.0207052
0.04703
0.0217122
0.0219998
0.0212598
0.0216365
0.0213454
0.0208617
0.0671971
0.0249902
0.647669
0.0218331
0.0244259
0.0235521
0.0219325
0.0443346
0.0223974
0.0220233
0.0231369
4.02949
0.0219643
0.0452943
0.0206236
0.0209001
0.0228798
0.0230831
0.304621
0.0206654
0.0230319
0.0229514
0.0250921
0.0899129
0.044374
0.0208113
0.0215445
0.0397601
0.0212928
0.0217047
0.021347
0.0209328
3.47925
0.113146
0.0239114
3.2423
0.021305
0.0417997
0.0213489
0.032421
0.0207434
0.0210308
0.064983
0.0274126
0.0894739
0.0213632
4.05487
0.0209917
0.0774672
0.0208668
0.0210542
0.0456921
0.0206878
0.0254563
0.978198
3.00821
0.0217231
0.0261147
3.95363
0.0217334
0.0209952
0.0879091
0.0238886
0.0238425
0.0595826
0.0205549
0.0971401
0.0159728
4.11057
0.0210878
0.0205746
0.0239423
0.0231878
0.0299035
0.0240666
0.0217946
0.0205999
0.0210434
0.0205018
0.0249761
0.0697438
0.0215697
0.0216808
0.0436372
0.117111
0.0210538
0.0301079
3.26343
0.020951
0.0213951
0.0206727
0.0269535
0.0217799
0.0647153
0.0365439
0.020556
0.0212103
0.157779
0.02105
0.0214526
3.60425
0.132959
0.05267
0.0267541
0.0213022
0.023513
0.0206374
0.0258614
0.0291611
0.0468627
0.0211581
0.0212682
0.0279722
0.0549691
4.06112
0.0328511
0.0932916
0.0218636
0.0223549
0.0220274
0.0504072
0.0501006
0.0394321
0.0224918
0.0206974
0.0497784
0.0242316
0.0210383
0.196066
0.0627634