/*--------------------------------*- C++ -*----------------------------------*\
| =========                 |                                                 |
| \\      /  F ield         | OpenFOAM: The Open Source CFD Toolbox           |
|  \\    /   O peration     | Version:  v2012                                 |
|   \\  /    A nd           | Website:  www.openfoam.com                      |
|    \\/     M anipulation  |                                                 |
\*---------------------------------------------------------------------------*/
FoamFile
{
    version     2.0;
    format      ascii;
    class       volScalarField;
    location    "50";
    object      omega_0;
}
// * * * * * * * * * * * * * * * * * * * * * * * * * * * * * * * * * * * * * //

dimensions      [0 0 -1 0 0 0 0];


internalField   nonuniform List<scalar> 
18166
(
0.117012
0.0214109
0.170515
0.0673442
0.134531
0.0443551
0.0210832
0.0214055
0.0293162
0.185817
0.0214185
0.0651558
0.0262791
0.0362719
0.0257922
0.021595
4.5753
0.0210364
0.0232252
0.689286
0.0221179
0.0241084
0.0233621
0.0222394
0.0816351
0.312654
0.021429
0.52817
0.0215235
0.0211562
0.0208804
0.0213759
0.0328643
0.0729812
1.21375
0.0214594
0.0206352
0.0217213
0.0241118
0.0656582
0.0292732
0.0239472
0.0239161
0.0231079
0.779315
0.0206803
0.0218228
1.19521
0.0211569
0.726215
0.548299
4.52981
0.0211255
0.0215241
0.0206737
0.0213585
0.507129
0.0214001
1.05399
0.0213665
0.0217391
0.0208123
0.0210965
0.0214522
0.0217882
0.0208384
0.0209774
0.0215612
3.84588
0.0216297
0.0259734
0.0677896
0.240735
0.0286743
0.0215898
0.0310784
3.12949
1.52649
0.197266
0.026187
0.0220618
0.023279
0.238663
0.0205986
0.0206924
0.0216812
0.0228264
0.0214454
0.0211562
3.14832
0.0205842
0.0217421
0.0239229
0.0211605
0.0280909
0.021733
0.0987068
0.0213291
1.4778
2.97617
0.0220756
0.0211191
0.0211489
0.53347
0.0209817
0.49391
0.0215654
0.0213086
0.0211552
0.0214773
4.26447
0.459259
4.48359
3.80976
0.0224505
0.529047
1.51542
0.0251136
0.0221661
0.0209742
0.0215496
0.0209343
0.0246912
0.0207491
0.0212092
0.0234835
0.0233061
0.0225637
0.0211193
0.0214321
0.021075
0.0214617
0.0425989
0.0218942
0.0329838
0.536394
0.0211427
0.223073
0.0214408
0.357714
0.0214262
0.0215386
0.0233721
0.438843
0.0209109
1.02782
0.477668
0.0206349
0.0211328
2.94575
0.0228737
0.0220659
0.351503
4.20642
0.0639964
0.0211041
0.0213518
0.0220659
0.0643419
0.0224103
0.0214053
0.0223927
4.11199
0.0242154
0.0214674
0.0232464
0.043484
0.0213573
4.15168
0.0212945
0.0269429
0.536228
0.021118
1.2144
0.0243058
0.568537
0.0215024
0.0902334
0.0213524
0.0217585
0.0207432
0.0217236
0.0812762
0.231754
0.0231127
0.0220189
0.0212605
0.0217226
0.0221993
0.0231196
0.021996
0.0231209
0.239882
0.0221005
0.0225684
0.15956
0.151052
0.412774
0.021437
0.0209828
0.0222645
1.48673
4.12401
0.0225736
0.0213722
0.0606757
0.0215631
0.0675384
0.0567293
0.0242429
0.0210998
0.0602918
0.0574567
0.0229237
0.0241633
0.0214613
1.19493
0.0214912
0.0220185
0.0211915
0.0234884
0.353036
0.0366308
0.0214616
0.0218811
0.528287
0.0208036
0.0211088
0.0209524
0.0213634
0.0223882
0.02117
0.290867
0.0211481
4.15785
0.342012
0.336463
0.0239875
0.0221004
0.0618926
0.0208357
0.0357206
0.0226904
0.527989
0.0212938
0.0208434
0.234521
0.0208729
0.0266611
0.0458893
0.355201
0.0211861
0.0213609
0.0575846
0.0215701
0.0215812
0.0214538
0.0214141
0.0213546
0.021709
0.0388647
0.0388627
0.0217021
0.0219664
0.0217754
0.024043
0.128854
0.0213293
0.0214395
0.538962
0.0209919
0.0213787
0.0520704
0.0213549
0.0252427
0.0209509
0.548412
0.0206895
0.0213879
0.0917288
0.0210667
0.0232993
0.0330855
0.0213729
0.0214385
0.0224717
0.0667157
0.056125
0.0209445
0.0219379
0.0212404
0.0249762
0.0214649
0.0224721
0.0210503
0.0248762
0.02207
0.546797
0.0210901
0.134605
0.0293172
0.0442093
3.9356
0.0242484
0.0211791
0.0252388
0.051895
0.0211372
0.0210564
0.0218758
0.0213481
0.0212101
0.0217398
0.0212858
0.0210587
0.0243404
0.0207416
0.0639216
0.0670544
0.0209862
0.197738
0.0229594
4.20958
0.0229401
0.0206664
0.020753
0.0213357
0.167253
0.0211948
0.0557629
0.0215196
0.0237761
0.0209396
0.0214848
0.0322781
0.0212473
0.0542024
0.0424961
0.0214234
0.0211001
0.0427133
0.0217665
0.0633465
0.0212012
0.0231281
0.0214824
0.130989
0.0215036
0.0208035
0.0210098
0.0504878
0.022916
0.0635746
0.0217085
0.152678
0.0234843
0.0214058
0.021336
0.598972
0.050595
0.0211335
0.0211979
0.0211421
0.0232583
0.614261
0.0211418
0.0206598
0.021281
0.0210825
0.0241707
0.0207649
0.0211754
0.0211162
0.207511
0.0210937
0.0245747
0.0210761
0.024124
0.0212045
0.0215228
0.0207897
0.0213222
0.0519781
0.28197
0.0207987
0.0215022
0.0325543
0.0531542
0.0221287
0.156339
0.0208009
1.25914
0.0272889
0.0221863
0.232182
0.0602746
0.0213116
0.0208189
0.021214
0.0744732
0.0208512
0.0208368
0.0214918
0.0207677
0.0222315
0.021044
0.0235912
0.201395
0.128887
0.0206978
0.0210379
0.148036
0.028808
0.0227041
0.0210819
0.179961
0.0217598
0.0213562
0.0207034
0.0222741
0.020988
0.0210906
0.604635
0.607241
0.0221776
0.0213307
0.0215029
0.0209929
0.0209392
0.0319003
0.0220979
0.0216381
0.0211729
0.0287912
0.022058
0.0211815
0.0210997
0.0919944
2.99739
0.239263
4.06537
0.175474
0.11214
0.0974265
0.0211982
0.026071
0.138837
0.0215984
0.03243
0.0209387
0.0296597
0.0212646
0.0213157
0.0214722
0.0214644
0.0235297
0.0233958
0.0210795
0.0211887
0.0211838
0.0218926
0.0207348
0.0209205
0.023241
0.0257058
0.0236451
0.0223448
0.0212166
0.026613
0.0214015
0.0098892
0.0212287
0.0238451
0.0214263
0.191552
0.0214768
0.0222409
0.02309
0.0210788
0.124554
0.0258557
0.022567
0.426707
0.0211306
0.0306174
0.0236206
0.096579
0.0208054
0.0221714
0.0224672
0.0209538
0.0211002
0.0211707
0.0581009
0.362259
0.0257269
0.0213196
0.024334
0.0213854
0.0213388
0.0233397
0.0214
0.0219595
0.704184
0.022418
0.0214765
0.0211248
0.020957
0.0227128
0.574166
0.0215259
0.0223685
0.0209859
0.0246073
0.104943
0.0692095
0.377446
0.0214984
1.28806
0.0214217
0.0219471
0.106252
0.0390431
0.0590965
4.18659
0.022715
0.0213969
0.0212245
0.0216202
0.021204
0.0712251
0.0238044
2.94708
1.07948
0.0252407
1.40619
0.022069
0.023748
0.0240205
0.0215963
0.0232611
0.0496285
0.0248463
0.0698621
0.0214765
0.024331
0.0233997
0.0208094
0.283772
0.0210295
0.0257143
0.0212328
0.0209254
0.0422712
0.0209412
0.0208124
0.0525396
0.0578632
0.0210556
0.357649
0.0213315
0.0298976
0.0393163
0.0220368
0.021042
4.13677
0.0215593
0.0221083
0.0208579
0.0216573
0.0223837
0.0208444
0.238116
0.021096
0.170184
0.214698
0.0242681
0.0211927
0.0219918
0.0211379
0.0213269
0.0213471
0.0238838
0.0211793
0.0209657
0.0236903
0.0211715
0.0207568
0.0598301
0.0215089
1.30223
0.0216458
0.040742
0.0303976
0.0214802
0.0232398
0.0233923
0.338678
0.0830988
0.24411
0.0206722
0.0268146
0.0219354
0.0212195
0.0341975
0.0208218
0.0310315
0.361024
0.0736433
0.0214067
0.0212136
0.0323089
0.0217561
0.0219228
0.0215601
0.0209336
0.0346058
0.0213451
0.0228556
0.020197
0.0594132
0.0207887
0.77587
1.12868
0.0210099
0.036491
0.0211762
0.0210504
2.80535
0.026571
0.0220616
0.0218104
0.021367
3.16642
0.0591969
0.0277404
0.0216622
0.0235306
0.0218108
0.0217142
0.0211827
0.0209427
0.0725974
0.0214927
0.0213551
0.0207869
0.531513
0.0233116
0.0211982
0.0211594
0.0414168
0.0240368
0.0216583
0.0583134
0.0237517
4.02704
0.0220777
0.0217364
0.0206651
0.0216085
0.0209942
0.0229848
0.0216796
0.0212457
0.0215983
0.0323956
0.0223006
0.0325504
0.0212137
0.0620798
0.0416765
0.0217943
0.021601
0.15162
0.0561635
0.666018
0.0315391
0.0210898
0.0226193
0.0217314
0.0207611
0.0209263
0.0206866
0.072624
0.0437112
0.142873
0.608628
0.543087
0.256574
0.0211145
0.0263773
0.0209385
0.0211808
0.0337549
0.15065
1.38815
0.0322956
0.163755
0.0213787
0.021164
0.0459898
0.0672439
0.0211231
0.265543
0.023329
0.0211248
0.0230357
0.0211625
0.0244172
0.0238374
0.17355
0.0927705
0.0586881
0.0420964
0.54489
0.0316145
0.0231132
0.0213397
0.021758
0.0303622
0.494757
0.0213477
0.143704
0.0242815
0.0231951
0.0211121
0.0720106
0.0295226
0.0398959
0.13695
0.0413302
0.0262835
0.0295616
0.0520012
0.0216837
0.0213674
0.022159
0.136675
0.0235836
0.189722
0.523505
0.656028
0.0229151
0.0212751
0.0226997
0.0211338
0.0315285
0.0296467
0.0233666
0.021489
0.0212095
0.0262984
0.0209527
0.0219374
3.18492
0.0214659
0.145548
0.0207469
0.0222383
0.049208
0.0238582
0.0226788
0.0316057
0.0657219
0.0234595
0.0213066
0.0232416
0.0236079
0.20007
0.0212059
0.0212116
0.0208786
0.0208876
0.0209593
0.0223015
0.0678178
0.377446
0.361428
0.0548528
0.0728373
4.10023
0.0288161
0.0869713
0.0597449
0.37596
0.0222934
0.0216346
0.0208817
0.0247307
0.537777
0.0213188
0.0238012
0.0213311
0.0221884
0.305419
0.0210855
0.0212018
0.0287286
0.0208125
0.0216316
0.021354
0.0214116
0.0210077
0.072713
0.0212534
0.0211317
0.0290554
0.0511861
0.0226507
1.26234
0.021362
0.026132
0.0211355
0.0240299
0.307559
0.0211953
0.36323
0.0796301
0.0233434
0.0208189
0.0241882
0.022059
0.0226774
0.0221816
0.0211092
0.747663
0.0214152
0.0325345
0.0215397
0.034362
0.0212825
0.0244362
0.023523
0.02093
0.0234958
0.0206467
0.0214643
0.0226262
0.0222396
0.0543449
0.166369
0.0214169
0.0999184
0.0208874
0.0221231
0.0206098
0.0557216
0.0242728
0.0207032
0.0226541
0.0285412
0.0211315
0.020925
0.0216824
0.0743171
0.0212375
0.435442
0.3268
0.0211356
0.0224888
0.0220621
0.0221255
0.229121
0.0214834
0.293167
0.0206385
0.0212198
0.0646573
4.03421
0.0379406
0.0207758
0.036947
0.0212265
0.434455
0.0224062
0.0362041
0.0843278
0.251157
0.0212384
0.0215228
0.0213486
3.93647
0.0212868
3.60386
0.020756
0.133773
0.108919
0.0238661
0.0233311
0.0213712
0.0317453
0.0621922
0.0218075
0.0253197
0.0351523
0.0225806
0.0247271
0.0279089
0.17716
0.0214928
0.0216115
0.0213575
0.0223158
0.0219521
0.0215091
0.247809
0.020888
0.350306
3.50625
0.0271698
0.0663521
0.0213928
0.0210347
1.26115
1.1354
0.46908
0.0375974
0.180349
0.0209318
0.0232382
0.46672
4.06445
0.243086
0.0220192
0.0244851
0.0770691
0.021037
0.0211823
0.0210248
0.0217682
0.0229572
0.0214754
0.0370133
0.020618
0.118251
0.0215396
0.0275286
0.181347
0.613091
0.479108
0.0501154
0.31664
3.76861
0.0232058
0.0280361
0.0225224
0.0229555
0.0217763
0.0821289
0.0232073
0.102401
0.0246466
0.0616381
0.0658653
0.0208744
0.0520389
0.0206101
0.0231272
0.784659
0.0213868
0.0231459
0.206262
0.0346496
0.625542
0.0404103
0.0206949
0.347152
0.0228264
0.0218147
0.0268309
0.0224317
0.475259
0.0230618
0.0210837
0.0368424
0.0216145
0.0241258
0.0207523
0.0216969
0.0218537
0.265164
0.024027
0.0236409
0.133681
0.0213229
0.0293034
0.168754
0.0280466
0.0213119
0.0247867
3.09815
0.231441
0.269646
0.021935
0.0206468
0.0328793
0.0929053
0.02107
0.0262934
0.0315808
0.0318206
0.022117
0.105031
0.453947
0.0207661
0.0206539
0.0206256
0.0214743
0.0207942
0.0279013
0.0210716
0.203491
0.0587428
0.0208978
3.8295
0.0208486
0.0249105
0.0220714
0.0254633
0.0231955
0.0224709
0.0610898
0.0219143
0.0215901
0.0232249
0.313075
0.0231907
0.020927
0.00926671
0.0208432
0.0359308
4.10979
0.530308
0.0234706
0.022442
0.0224301
0.0219668
0.0227529
0.076822
0.0208614
0.279072
0.036181
0.0266904
0.0251358
0.026161
0.189881
0.0208806
0.48765
0.0226932
4.0548
0.0221571
0.237032
0.0226929
0.0206586
0.0215356
0.0208343
0.0219749
0.0583246
0.0213374
0.34517
0.383857
0.23312
0.0218326
0.0215039
0.0235186
0.0702086
1.14365
0.022055
0.0733355
0.0214229
0.0244065
0.0258483
0.021681
0.0219697
0.0213807
0.0219931
0.034023
0.0734651
0.153969
0.0215832
0.26735
0.0702636
0.184051
0.0540629
0.0219825
0.0214547
0.151204
0.0214213
0.0206656
0.0335794
0.0213348
4.34765
0.0228206
4.04238
0.0243626
0.0208798
0.0211767
0.024198
0.0378029
0.0208556
0.463874
0.020636
0.0208198
0.0212385
0.0234835
0.0212029
0.03603
0.0227472
3.33335
0.0213998
0.0212744
0.0214903
0.507607
0.0217355
0.0210924
0.0262487
0.0214932
0.0214341
0.0259389
0.0214224
0.0210266
0.0209625
0.0225452
1.25832
0.700725
0.0215388
0.021315
0.0239112
0.0242778
0.0271588
0.0218844
0.0244232
0.0394357
4.19246
0.0264264
0.0210077
0.0348988
0.0221116
0.111317
0.0265094
0.0220125
0.072211
0.160495
0.0258584
0.0208074
0.0206293
0.0668507
0.0243925
0.0208429
0.022975
0.0214697
0.0223432
0.0213292
0.110212
0.0209005
0.343059
0.0821133
0.0211015
0.110898
0.0379901
0.123605
0.04475
0.0241689
0.0221188
0.0212153
4.14775
0.0211911
0.022062
0.0246458
0.0213801
0.022584
0.0383547
2.96849
0.197386
0.0208769
0.0211326
0.0697715
3.6731
0.0240249
0.0220508
1.24757
0.0212454
0.0211769
0.0209543
0.0514097
0.0486641
0.021176
0.0222599
0.0214756
0.0220468
0.0241385
0.0228001
0.0213257
0.0339984
3.69255
4.00137
0.0233279
0.0211737
0.0246055
0.0160321
0.539454
0.020903
0.0241646
0.0521931
0.0264861
0.0213875
0.0196101
0.0218194
0.0309711
0.0223158
0.0227314
0.53337
0.0833096
0.0205279
0.0226692
0.0222375
0.561814
0.0220715
0.0214441
0.0208288
0.0231939
0.0220927
0.0255411
0.0213195
0.02172
0.0208753
0.0909575
3.21727
0.0260906
0.0220615
0.0209827
3.06853
0.022223
0.411875
0.0207995
0.0216236
1.27529
0.0207403
0.0227765
0.0700234
0.113559
0.219285
0.0214763
0.021797
0.0214229
0.021247
0.0447663
0.0213039
0.0233266
0.0206209
0.0287642
0.0817669
0.0519812
0.0214054
0.0206154
0.0213659
0.0214748
0.578994
0.0218471
0.331885
0.0240964
0.0209342
0.0232168
0.0213279
0.0720493
0.0216341
0.094242
0.0213228
0.021268
3.86594
0.0214414
0.021855
0.0213533
0.0213812
0.0224351
0.0207974
0.027072
0.0543352
0.0291063
0.0343468
0.0211873
0.0207325
0.0213263
0.581669
0.0218619
0.0214212
0.0221972
0.107238
0.021296
0.0208338
0.0237679
0.0208802
0.0211671
0.022203
0.0340816
0.0218686
0.0207538
0.104715
0.0214927
0.181045
0.020559
0.100575
0.531402
0.0208427
0.02627
0.022222
0.0248777
0.0212797
0.036643
0.0719336
0.0214634
0.0217206
0.0210498
0.0306929
0.020638
0.0213744
0.02143
0.110786
3.19263
0.0227958
0.0223951
0.0206121
0.0226625
0.0226263
0.0208081
0.0230683
0.0217263
0.0213368
0.0208707
0.105326
0.020573
0.0213686
0.0209981
0.0213172
0.0214297
0.0509312
0.0214113
0.0257912
0.555334
1.85344
0.0212697
0.552609
0.0207681
0.0222552
4.01873
3.09827
0.0225546
0.0239221
0.021025
0.502147
0.228812
0.02104
0.0235534
0.0211676
0.0405887
0.422819
1.13112
0.0209688
0.020637
0.0205684
0.0477259
0.0214329
0.0208122
0.0211074
0.042152
0.0230077
0.0213749
0.0214603
0.0223065
0.0212189
1.28625
0.0343311
0.0216351
0.558103
0.420313
0.0206129
0.031704
0.0348731
0.0283743
0.0218428
1.12355
0.0385302
0.0216023
0.0885879
0.11156
0.0228764
0.0210236
0.0212639
0.0214746
0.0210671
0.545985
0.568185
0.0214151
0.0217542
0.0212999
0.0329873
0.681385
0.0210355
0.0215777
0.0218684
0.0214756
0.0216966
0.0220262
0.0217909
0.346894
0.0207877
3.95415
0.3414
0.0222174
0.0212603
0.0208956
0.0225021
0.0220477
0.0208768
0.536236
0.0907263
0.165887
0.0210152
0.440262
0.0230172
0.0895042
0.0213937
0.0373069
0.0237274
0.0462499
0.0219068
0.0206707
0.0234323
0.204745
0.0134993
0.0240338
0.0213187
0.0211188
0.371679
0.0218536
0.104629
0.610275
0.0225101
0.0217021
0.0210432
0.0208575
0.0211435
0.0212906
0.0265178
0.0213674
0.144049
0.0216438
0.0212334
0.0207915
0.0376543
0.0218107
0.0217617
0.0211968
0.0208641
0.0217313
0.0217079
0.0209971
0.0205771
0.547016
0.765527
0.0218084
0.0208985
0.0226671
0.0220629
0.0225809
0.0214051
1.00898
0.180024
0.520794
0.0223825
0.0227698
0.02125
0.0218306
0.0208439
0.0215368
0.083201
0.0221741
3.328
0.0209273
0.0213667
1.40401
0.0243967
0.0211257
0.473087
0.545232
0.0499278
0.0217103
0.0217643
0.0208849
0.511884
0.098001
0.102117
0.125268
0.0329131
0.732353
0.0538073
0.0214452
0.0217367
0.0916046
0.0635628
0.0253979
0.0214274
0.0239287
0.0643697
4.13313
0.0217451
0.0215578
0.0368865
0.0217682
0.0216525
0.0212841
0.0208431
0.0214003
0.0214023
0.0205741
0.0209058
0.0214027
0.451767
0.813319
0.0206934
0.0238305
0.0208416
0.0869263
0.0258808
0.0217621
0.295471
0.0231225
1.1806
0.0516141
0.469507
0.021724
0.0290063
0.0217532
0.0213895
0.128096
0.0212733
0.021513
0.0710102
0.0527636
0.0210686
0.0207555
0.0213549
0.0212691
1.12786
0.0736811
0.022121
0.0241117
0.0962615
0.161193
0.022594
0.0232444
0.021397
0.0213618
0.0207122
0.20149
0.0828099
0.378297
0.0222785
0.0208698
0.09408
0.0213996
0.0342828
0.0225336
0.144179
0.0209094
0.0226846
0.0551725
0.0221222
0.0874046
0.0213488
0.0214673
0.0226163
0.0382803
0.026027
0.034275
0.0233341
0.0219403
0.0209932
0.0232444
0.0206177
0.0221701
0.0212351
0.0352216
0.0214066
0.0218118
0.0229265
0.013349
0.0230216
0.0177383
0.0519154
0.0248791
0.133853
0.0217059
0.0216615
0.0220029
0.020907
0.0221449
0.0237203
3.20359
3.69646
0.0361996
0.0211431
0.0223148
1.21282
4.0048
2.88591
0.0219604
0.0217535
0.0268856
0.0219107
0.0353403
0.0218511
0.0221421
0.0227726
0.0376329
1.02751
0.0214892
0.0266861
0.0220283
0.0215222
4.43023
0.567482
0.0258073
0.0689847
0.0836818
0.0209262
0.137149
0.0338036
0.0213884
0.0215142
0.547676
0.0326948
0.0567922
0.070202
0.0238487
0.0484553
0.021205
0.0211781
0.0209552
0.0214077
0.128682
0.02108
0.0222742
0.984673
0.0212903
0.463092
0.0213867
0.0207098
4.15359
0.0209281
0.0218076
0.419348
0.0212151
0.0212997
0.0206388
0.0207176
0.584224
0.0220235
0.0210123
0.0818839
0.021158
0.0232475
0.0220847
0.0216293
0.0477624
0.0217546
0.0325621
0.060913
0.0212948
0.0210145
0.0208463
0.0231443
0.266945
0.0214961
0.193596
0.0212143
0.0918596
0.0217581
0.0281496
0.0248637
0.0207925
0.414959
0.0214359
0.177679
0.0213514
0.0221562
0.0213299
0.0212503
0.0218984
0.021002
0.0299374
0.0242326
0.0764245
0.0214536
0.0224383
0.117818
0.349933
3.03515
0.155633
0.0289717
0.0259981
1.38115
0.0212411
0.0207217
0.0243898
0.0207839
0.0484709
0.059806
0.0224197
0.0241165
0.0205644
0.0207206
0.0232839
0.0583801
0.0212846
3.87677
0.0213481
0.0213724
0.535632
0.0218421
0.0206096
0.0205997
0.0225588
0.0223177
0.381079
0.021901
0.020992
0.021366
0.0483058
0.317414
0.0281424
1.37116
0.0204969
0.0242239
0.0205511
0.0703175
0.0211621
0.0205112
0.0210472
0.0695563
0.170353
0.0212989
0.0261305
0.0245721
0.0209927
0.0345805
0.0871095
0.0242191
0.0213373
0.10061
0.0392515
0.023402
0.0214437
0.716719
0.0211998
0.452203
0.0205972
0.0212259
0.021407
0.0218645
0.0254172
0.0234526
0.0212345
0.0213081
0.0210001
0.0244875
3.26796
0.0214246
0.021103
0.0214889
0.155322
0.0235666
0.0215886
3.70409
0.350291
0.021157
0.0234403
0.0210331
0.0647849
0.022489
0.103712
0.03353
0.275713
1.20199
0.0227527
0.0211028
0.733716
3.29991
0.0221325
0.0233369
0.0213717
0.0212069
0.0213816
0.252583
0.0239428
0.026882
0.0220483
0.287291
0.021166
0.342581
0.021034
0.0213447
0.0211503
0.14384
0.0213678
0.0398633
0.0211933
0.0207885
0.0224164
0.0208823
0.0217797
0.0207816
0.0207088
0.15509
0.0264338
0.0213234
0.0214326
0.0209748
0.0467337
0.0208146
0.0214149
0.024485
0.0213997
0.0290334
0.0210412
0.203725
0.746285
0.022604
0.021552
0.108048
0.0494123
0.0226764
0.0205366
0.0215185
0.0252785
0.14446
0.0209424
0.280147
0.0342056
0.021813
0.0217065
0.0213778
0.06392
0.0213726
3.98879
0.0238519
0.0225849
0.0217419
0.121288
0.0224163
0.0213505
0.0756518
4.08008
0.0999208
0.022454
0.0219691
0.15378
0.0218091
0.0244203
0.021566
0.0234668
0.022319
0.0213449
0.0154179
0.0748337
0.0233218
0.0221133
0.0846178
0.0234133
0.0206438
0.124624
0.0502384
0.0389578
0.0226528
0.0213233
0.0213147
0.572449
0.0216621
0.51249
0.0213002
0.0211989
0.333139
0.0276867
0.526053
0.0213856
0.0218693
0.0294758
0.0226128
0.0213424
0.0217498
0.103664
0.102683
5.32885
0.343759
0.0251682
0.0241872
0.0207715
0.0207994
0.0220065
0.0214607
0.0216782
5.37063
0.0653409
0.0211637
0.0211511
0.0773498
3.74708
0.0904237
0.0209504
0.0208126
0.043818
0.021328
0.0213435
0.150613
0.021646
0.0221062
0.0220362
0.0772853
0.0219799
0.0815479
0.0984497
0.0220472
0.0215933
0.0220064
0.0215159
0.0213923
0.0301253
1.13015
0.0215637
0.0253054
0.0211538
0.510822
0.0473633
0.185268
4.12263
0.0255061
0.0450102
0.471
0.021442
0.0207609
0.0213588
0.0233342
0.0276758
0.0221098
0.0210068
0.324689
0.0211402
0.0215423
0.0207823
0.0218298
3.62915
0.330923
0.0226733
0.423032
0.0208087
0.0208649
0.0708708
0.0212812
0.0538721
0.0213693
0.0233669
0.0210501
0.0228769
0.0212913
0.0232244
0.0229499
0.0212514
0.478704
0.0216448
0.0217346
0.0229328
0.0211648
0.343188
0.0905143
0.0207536
0.0259725
4.02161
0.021275
0.350651
0.0217391
0.0216994
0.0212743
0.0252454
0.0226925
0.0206689
0.0213976
0.0306179
2.90747
0.0208647
0.0207273
0.428482
0.02155
0.0212989
0.0465229
0.0233441
0.021639
0.0208712
0.100198
0.021283
0.0231717
0.023724
0.238399
0.279591
0.0212663
0.0214845
0.0213636
0.0347736
0.0209887
0.022914
0.0611821
0.0214895
0.0235566
0.0603995
0.020804
0.0365666
0.0212997
0.0232216
1.33293
0.570196
0.0211492
0.0619181
0.0212827
0.0211731
0.0317749
0.0216979
0.0218859
0.0217852
0.0213428
0.0217677
0.0208015
0.0219681
0.0216803
0.0480333
0.458358
0.0212402
1.49432
0.0214084
0.0213916
0.0217192
0.0209202
0.0216304
0.0212156
0.0205735
0.0223458
1.13791
0.0214256
0.0240801
0.020614
0.0212075
1.31701
0.351682
0.0211742
0.0213794
0.0669708
0.0219761
0.0217697
0.0947934
0.791734
0.0207687
0.0220549
0.0206625
4.0659
0.0212511
0.0214421
4.13954
0.133542
0.0212524
1.38314
0.021399
0.0210816
0.0208112
0.0208182
0.316079
0.0224697
0.0226259
3.63379
0.0226244
0.0214258
0.0208868
0.0226437
0.349958
0.0611769
0.0230832
0.0214612
0.069991
0.0212642
0.0214806
0.0232858
0.0205533
0.0233712
0.0205668
0.0217825
0.0207295
0.0386436
0.247533
4.0224
0.0802882
0.0298671
0.0468064
0.0213109
0.0369979
0.0211629
0.0213336
0.0285236
0.0226965
0.0216183
0.0229386
0.0208299
0.0270804
0.355594
0.0224598
0.0213737
0.0226417
0.0213111
0.0206647
0.021325
0.0268213
0.032835
0.309054
0.0219212
0.861812
0.0213048
0.0208088
0.0225288
0.0234345
0.0212668
0.0209241
0.0211966
0.211878
0.340496
2.84093
0.789109
0.34628
0.0338931
0.410887
0.0209781
0.0220355
0.025662
0.0217152
0.0205055
0.0461599
0.0212973
0.608276
0.0212581
0.0213531
0.0214709
0.0211231
0.0510836
0.0209503
0.344824
0.0216421
0.0328272
4.89041
0.0222622
0.562662
0.0215693
0.0215926
0.0308278
0.0211441
0.0207767
0.0366015
0.0301044
0.0211631
0.0208029
0.0212238
0.184874
0.424578
0.0217384
0.0208636
0.0216255
0.0210074
0.021521
0.14653
0.0206734
0.142519
4.1282
0.021522
0.0211149
0.0722972
0.021448
0.0778133
0.109008
0.0208714
0.0220033
0.0589249
0.0414007
0.0587054
0.162256
0.0254532
0.0225814
0.0365343
0.0215291
0.021935
0.027229
0.0212178
0.0213901
0.0222175
0.0213041
0.300098
0.0213181
0.426532
0.034745
0.0497342
0.0223704
0.030021
0.026066
0.158551
0.0209577
0.0210595
0.569008
0.0696672
0.0216369
0.0922045
0.531879
0.0213679
0.0217748
0.0235045
0.0209823
0.075374
0.0210631
0.0460651
0.0214564
0.0731102
0.0542295
0.080382
0.150083
0.0212506
0.0212743
3.76519
0.0487758
0.0313256
0.0213414
0.0211997
0.157204
0.0215304
0.0220462
0.0733343
0.0210336
0.0177602
0.0244453
0.0223251
0.0214262
0.0326177
0.0234079
0.0469482
0.0234357
0.0220834
0.0210582
0.0213287
1.20998
0.0213217
0.0213746
0.0207594
0.523079
0.539894
0.0474559
0.0212502
0.0213458
0.0613612
0.0210264
0.0214371
0.0212417
0.0229213
0.020891
3.22768
0.0227963
0.0217072
1.1831
0.0838154
0.0233548
0.0210188
0.0212672
0.0212471
0.0212997
0.0209566
1.32049
0.0217099
0.0215724
0.0368432
0.425722
0.0550716
0.0344738
0.0405717
0.0210171
0.0205589
0.577062
0.0214052
0.0219159
0.22867
0.0211199
0.0210433
0.0217828
0.0212297
0.0211241
0.0207676
0.072006
0.303714
0.739106
0.042402
2.93644
0.0232358
0.0215387
3.02471
0.0213695
0.0631227
0.02148
0.330614
0.0208887
0.0641103
0.671979
0.0219669
0.0205142
0.0214484
0.0266232
0.021145
1.35204
0.0210028
0.0225347
0.0231308
0.0541091
0.021269
0.024766
0.0212574
0.0206662
0.0208933
0.0303779
0.0213888
0.467412
0.0208822
0.9714
0.0591405
0.0219874
0.0212415
0.0241422
0.0207459
0.0220506
0.0207532
0.0221213
1.31904
0.0207784
0.924697
0.021209
0.0264848
0.0343375
0.021215
2.85925
0.02134
0.0219834
0.0245114
0.748152
0.0238177
0.0210475
0.0213877
0.0457915
0.0437951
0.0264467
0.0243395
0.0244867
0.0218169
0.0212162
0.0210237
0.0228471
0.0248627
0.0228767
0.0231547
0.0218867
0.404039
3.38477
0.0215932
0.0211088
0.0244269
0.125832
0.0213967
0.0230023
0.0223128
0.0214382
0.0212465
0.0238948
0.0208802
0.021319
0.0587785
0.0216786
0.0215758
0.0215572
0.02097
0.823139
0.103505
0.0240478
0.0214148
3.48758
0.0306142
0.0834454
0.0223648
0.0387322
0.0382142
4.38432
0.0208261
0.0230714
0.0264355
0.0213228
0.0224749
0.0285194
0.0211609
0.0213364
0.032687
0.022236
0.0262059
0.0620798
0.0214854
0.0213925
0.0514008
0.0214805
0.0958274
0.0208482
0.48862
0.0219291
0.0214997
0.0204943
0.0741928
0.0625895
0.0206477
0.140109
0.041916
0.0766061
4.3366
0.0212533
0.046778
1.3869
0.184013
0.0212322
0.0400866
0.0358753
3.54975
0.0219126
0.0224362
0.161161
0.0700583
0.0236309
0.287707
0.0227112
0.247825
0.020859
0.0212484
0.0216374
0.06608
0.0212933
0.089722
4.15659
0.0493634
0.0208778
0.0213085
0.0211473
0.0311653
0.0207282
0.0213395
0.0169553
4.08002
0.0231095
0.021455
0.0211474
0.0209274
0.51469
0.0216168
0.0222214
0.0205463
0.0208343
0.0340264
4.05417
0.0242535
0.0206127
0.031942
3.58325
0.0218708
0.0206941
0.0319862
0.0220069
0.021593
0.023288
0.0242247
4.05053
3.99195
3.14499
0.0222214
4.01999
0.751616
0.0227627
0.0212635
0.0272324
0.0219497
0.228274
0.313406
3.73732
3.74879
0.749709
0.0208085
0.0671574
2.35179
0.0293295
3.94029
4.27481
0.0213649
0.519678
0.0207737
0.0212944
0.140511
0.0213381
0.021379
0.0210341
0.0217023
3.73315
0.024911
0.0832359
0.0215874
0.639146
0.0207386
0.0214666
0.0206767
0.513229
0.0213498
0.0228225
0.506857
0.0211539
0.0207761
0.0238683
0.0234086
0.0251813
0.0254909
0.0339585
1.49382
0.0206124
0.0213146
0.0220128
0.050929
0.423044
0.0213368
0.0213523
0.350447
0.0214231
0.020605
0.192194
0.0209171
0.0306935
0.0220725
2.53929
0.032328
0.122447
0.0210667
3.05913
0.0233907
0.021031
2.12133
0.0214235
2.61046
0.0305642
0.0233044
0.0217861
0.176885
0.0214755
0.0560411
0.0226447
0.0205957
0.0213458
0.0214813
0.132644
0.0303339
0.0209702
1.72755
0.0570324
0.0211887
0.0219454
0.0210536
0.352212
0.0819427
0.0207972
0.0461208
0.520109
0.136537
0.021347
0.0224809
0.131223
0.0209209
0.0211301
0.0211844
0.0319977
0.320621
0.0258966
0.0236256
0.0215586
0.0207841
0.0205587
0.0712034
0.0213395
0.022031
1.38173
0.0212569
0.027276
0.0213343
0.141311
3.91788
0.0219344
0.0210256
0.52128
0.0212184
4.09761
0.0225036
0.58009
0.560525
0.270632
3.71171
0.0211318
0.721766
0.023287
0.0224745
0.0209722
0.0248733
0.404594
0.0223648
0.0214539
0.0326682
0.105617
0.020891
0.0210795
0.0371232
0.0289375
0.0205853
1.0682
0.0230005
0.0212965
0.0219116
0.0212624
3.88925
0.151219
0.266181
0.0224538
0.0488623
0.0213942
0.021057
0.0397915
0.112684
0.021407
0.0728848
0.175929
0.0211052
0.0217926
0.0253089
0.0230043
0.027524
0.0217121
0.209924
0.0246182
0.0214373
3.37608
0.0213843
0.132517
0.0230284
0.0209748
0.118703
0.181588
0.0210879
0.0210477
0.0210496
0.0347331
0.0217849
0.125218
0.0213214
0.02145
0.291872
0.128037
0.0213156
1.16743
2.11803
0.0540236
0.0235813
0.0204623
0.0212377
0.472205
0.245927
0.0206821
0.0213592
0.744819
0.0670214
0.0223557
0.0209321
0.043535
0.234863
0.0209676
0.334635
0.222307
0.0211458
0.0221019
0.0303276
0.343818
0.12354
0.0218984
0.0315084
3.22461
0.0351578
3.64052
0.0208549
0.514527
0.0255925
0.175294
0.0285848
0.0476301
0.0656806
0.0205345
0.21204
0.024105
3.15482
0.0592782
0.151915
1.50853
0.112486
0.0214622
0.103447
0.115404
0.0242881
0.029851
3.81544
0.266754
0.0206758
0.127671
0.0210268
0.0214145
0.0224142
0.0209902
1.63775
0.0218629
0.0211014
0.02132
0.378572
3.68535
1.3401
0.0216902
0.0214079
0.544517
1.31889
0.0252013
0.0658183
0.0311764
0.0221064
0.0214507
0.78478
0.0214998
0.0264171
0.0217968
0.0212649
0.0224044
0.479858
0.0213989
0.0485488
0.145916
0.114121
1.90969
0.0330418
0.025152
0.0215343
0.0214356
0.021076
0.0305376
0.0211269
0.0212515
0.36778
0.0214038
0.0213496
0.0232059
0.0225548
0.022324
0.0815302
1.39174
0.0220035
0.020735
0.0272809
0.020686
0.0217544
0.0336716
0.126503
0.136839
0.54964
0.879395
0.300195
0.0265925
0.0214005
0.0217561
0.0213791
0.0213216
0.0225035
0.0316598
0.0232734
0.0233802
0.0234195
0.995623
0.0233844
0.0218585
0.030227
0.0216634
0.0213703
0.0218239
0.0212999
0.0212736
0.0233438
0.0212418
0.0416177
0.020769
0.0341022
0.021341
0.0328069
0.330077
0.0213147
0.0424852
0.0750165
0.0215289
4.25638
0.02132
0.021761
0.0216779
0.0220602
0.0214267
0.0223679
0.0434421
4.17868
0.0206728
0.0211205
0.0212189
0.0970709
0.0233413
0.021656
0.0230108
0.0370236
0.0217272
0.0214102
1.11542
0.0439307
4.67085
0.0210885
0.022504
0.158101
0.0221691
0.031063
0.143093
1.36728
0.0212855
0.0213711
0.139943
0.0224064
0.0205873
0.0223143
0.0219575
0.0450904
0.0207782
0.0206199
0.0558265
3.60993
0.021709
0.0378882
0.0211054
0.0235656
0.0217041
0.759606
0.0291049
1.39897
0.0221354
0.429099
0.0463683
0.0710495
0.0264951
0.0212016
0.0206368
0.020739
0.0860986
1.30573
0.0219859
0.0233857
0.0218443
0.133198
0.0219646
0.0220783
0.0306887
0.0223033
0.027318
0.0221863
0.0205716
0.0216562
0.0211352
0.160866
0.0209818
0.539968
0.0207067
0.0470111
0.0217119
0.0219961
0.0212579
0.0216365
0.0213454
0.0208649
0.0671839
0.024985
0.655595
0.0218356
0.0244239
0.0235554
0.0219323
0.0443658
0.0223972
0.0220232
0.0231368
4.0324
0.0219679
0.0453236
0.020623
0.0208987
0.0228791
0.0230807
0.30495
0.0206655
0.0230314
0.0229519
0.025084
0.0882922
0.0444238
0.0208114
0.0215443
0.0397719
0.0212927
0.0217046
0.0213471
0.0209357
3.48791
0.113154
0.0239111
3.23397
0.0213022
0.0418198
0.0213488
0.0324118
0.0207434
0.0210307
0.0646108
0.0274137
0.0894261
0.0213632
4.05585
0.0209917
0.0775044
0.0208668
0.0210541
0.0457011
0.0206878
0.0254596
0.96386
3.0177
0.0217222
0.0261075
3.9553
0.0217333
0.0209937
0.0914857
0.0238884
0.0238412
0.0596635
0.0205557
0.0970714
0.0160649
4.11202
0.0210876
0.0205746
0.023943
0.0231869
0.0298836
0.0240666
0.0217946
0.020601
0.0210428
0.0205018
0.024975
0.0698301
0.0215724
0.0216807
0.0436467
0.11723
0.0210538
0.0300871
3.26885
0.020951
0.0213951
0.020673
0.0269479
0.02178
0.0648596
0.0365393
0.0205572
0.0212102
0.158152
0.02105
0.0214527
3.59909
0.132985
0.0527269
0.0267474
0.0213021
0.0235108
0.020637
0.0258607
0.029131
0.0468578
0.0211563
0.0212678
0.0279826
0.052814
4.06469
0.032902
0.0927212
0.0218636
0.0223544
0.0220274
0.0504213
0.0500818
0.0394395
0.0224923
0.020698
0.049871
0.0242279
0.0210383
0.196319
0.0627112
0.0236664
0.482233
0.0219745
0.0202851
0.0214547
0.0233647
0.0213395
0.0207452