/*--------------------------------*- C++ -*----------------------------------*\
| =========                 |                                                 |
| \\      /  F ield         | OpenFOAM: The Open Source CFD Toolbox           |
|  \\    /   O peration     | Version:  v2012                                 |
|   \\  /    A nd           | Website:  www.openfoam.com                      |
|    \\/     M anipulation  |                                                 |
\*---------------------------------------------------------------------------*/
FoamFile
{
    version     2.0;
    format      ascii;
    class       volScalarField;
    location    "50";
    object      p;
}
// * * * * * * * * * * * * * * * * * * * * * * * * * * * * * * * * * * * * * //

dimensions      [0 2 -2 0 0 0 0];


internalField   nonuniform List<scalar> 
18166
(
0.00400268
0.00260653
-0.0429149
-0.0180406
-0.0210464
-0.0284217
0.00407974
0.00595952
0.00191334
0.00365263
0.00242764
-0.00985505
-0.0204546
0.00154333
-0.0103357
0.0044794
-0.00589728
0.00247234
-0.0163392
0.00172147
-0.0102069
0.00127073
-0.0162839
-0.00122974
0.000970323
-0.0057764
0.00605777
-0.0149179
-0.0010719
0.00320617
-2.54583e-05
-4.87687e-06
0.0080553
0.00153285
-0.0477673
-0.00110341
0.00255501
-2.29422e-05
0.00787151
-0.00901414
0.00299198
-0.0190702
0.000142833
-0.0160002
-0.041226
0.00277268
0.00295163
-0.00464808
6.19944e-06
0.00164157
-0.0319432
-0.000667237
-6.20037e-06
0.00588128
0.00275438
0.0010089
0.00174738
0.00307869
-0.036359
0.000838381
0.00113535
0.00333064
0.00179741
-0.000441857
0.00327697
0.00339491
0.00360498
0.00441703
0.0258457
0.000826163
-0.0199018
-0.0185344
0.0151327
0.00107044
0.000748784
0.0090331
-0.192628
0.00829453
-0.00594324
0.00772715
-0.00981975
0.00363796
-0.0290068
0.000992937
0.00291394
0.00131355
-0.00151801
-0.000225065
0.00309596
-0.187059
0.000937463
0.000636694
-0.01947
0.003048
0.00119126
-0.00462155
-0.0151858
0.00304996
0.0155346
0.00552622
0.00542528
0.00228939
0.00327781
-0.0189093
0.000883939
-0.000808532
0.00136425
0.00340444
1.72008e-06
-0.000760619
-0.00678158
-0.0372108
-0.00726628
0.0231031
-0.00194415
-0.0236528
0.00762588
0.00960892
-0.00137431
-4.78187e-06
0.00343347
-1.12348e-05
0.00903107
0.00317226
0.00270101
-0.0079721
-0.00797806
0.00268517
0.00157722
-1.27957e-05
0.00404827
-0.000842072
0.00434077
0.00525802
0.0082074
-0.0276872
0.00520533
-0.00478442
0.00153514
-0.00932401
0.00500536
0.00365587
-0.0111638
0.00101239
3.73256e-06
-0.0474001
-9.54417e-05
0.00255286
0.00178324
0.00962989
0.00376589
-0.0107703
-0.00713476
-0.0281366
-0.0332885
0.00197551
0.0041076
0.00736088
-0.0346649
-0.00218637
0.00602321
0.00190973
0.035953
0.000115638
-0.000948056
0.00376641
0.0132353
0.0058013
-0.0344142
0.00405569
0.00393208
-0.0296139
0.00502489
0.0215062
0.000125262
-0.00705667
0.00138264
0.000345442
0.00106988
-0.00673317
0.00313453
0.000734161
0.000427787
-0.0149496
0.00400958
0.00120638
0.00555348
-0.0066839
0.00206699
0.00136447
0.00717847
0.00363361
-0.0147215
0.00298499
0.00188695
-0.0311092
-0.0325634
0.0058444
0.00489453
0.00361965
0.00381712
0.0130968
-0.0410168
-0.00209187
0.000892097
-0.0258516
0.00406458
-0.0181944
-0.0276218
-0.00203767
0.00493489
-0.0247922
-0.0271447
-0.00186671
-0.0166345
0.00520926
-0.0104714
0.00576405
0.00732684
0.00460181
0.00358353
-0.0113899
-0.00113925
0.00325786
0.00296414
-0.00126862
0.00330105
0.00459503
1.06778e-05
0.00320998
0.00262227
5.34915e-05
-0.00590766
5.56272e-05
-0.0213638
-0.0113462
-0.0109984
0.000435789
0.00376083
-0.00502479
0.00339001
0.000494867
0.00259737
-0.00119294
0.0032744
-1.70188e-05
-0.0379139
-1.2443e-05
0.00769011
-0.0279523
-0.0125727
0.00464841
0.00590264
-0.00827145
0.00386251
0.003
0.00529326
6.28745e-05
0.00589959
-0.00454489
0.0179018
0.0180533
-0.00638625
0.000829926
0.00295827
0.00877023
0.0161713
0.00572221
0.00123094
-0.00126438
0.00352526
0.000828394
0.0112194
2.11328e-05
0.00384958
0.00362995
-0.0312792
0.00295538
0.00264974
-0.016171
0.00409243
-0.00160108
-0.0285523
0.000770265
-0.000185151
0.00304175
-0.0312718
-0.00792847
0.00349009
0.00695795
1.25306e-05
0.00125268
-0.00117428
0.00195432
6.79397e-06
0.00121444
-4.51297e-05
-0.00109616
7.32092e-06
0.0171569
-0.00395641
0.0086612
0.0160675
0.00792435
0.00319451
0.00399193
0.00681103
0.0048254
0.00223562
0.00680821
0.00281444
0.00267557
-0.00185793
0.00568854
0.00405883
0.000265406
0.00130009
-0.0240474
-0.0326285
0.00352363
0.0105307
0.0027362
-0.0336089
0.00318306
0.002707
0.00135772
0.00273226
-0.0423287
0.00282514
-0.0289307
0.00136623
0.000250009
0.00342423
0.00558816
-0.0275272
0.00258736
-0.029402
0.019362
0.00420843
0.00358211
0.00874447
-0.00191378
-0.0233046
0.00277459
-0.00834538
-0.000967006
-0.00163911
-0.000601369
0.00357718
0.000941619
0.0109892
-3.68524e-05
-0.00545661
-0.00210002
0.0165791
-0.0169357
0.00602727
0.00419336
-0.0121738
0.00598727
0.00367703
0.00496622
2.38389e-05
-0.0084975
0.00436014
1.09174e-05
0.00266253
0.0029407
0.00495392
0.00969327
0.00321356
0.00472069
0.00456156
-0.0392198
0.00356893
0.000468323
0.00262241
0.00368413
0.00324052
-0.00085943
-2.4269e-05
0.00164094
-0.0217746
-0.00324465
-2.38166e-05
-0.00142795
-0.00093428
-0.021042
-0.010144
-0.00183629
-3.3773e-05
0.0239929
2.39475e-05
-0.0058835
0.00516126
-0.0197096
0.00311513
-2.69933e-05
0.00293342
-0.0175666
-3.11626e-05
-1.78017e-05
0.00550099
0.00015201
-0.00600299
0.00343211
0.00138914
0.0169883
-0.00253839
0.000179265
0.00237417
0.00431873
0.00410423
-4.013e-05
-1.46898e-05
-0.0283369
-0.00503153
0.00193142
0.00295517
0.00190808
0.00342687
-2.7054e-06
-0.00412152
-0.00703247
0.00382195
0.00312176
-0.000438612
-6.19428e-06
2.12272e-06
0.00293727
-0.00621472
-1.85826e-05
0.00323983
0.00410807
0.00286659
0.00449814
0.00501121
-0.0150392
-0.15349
-0.00173789
-0.0147629
-0.0487755
0.0257896
0.0233568
0.0039152
0.00397748
0.0126158
0.0042983
-0.00190002
3.69289e-06
0.00327329
0.00552892
0.00173801
-4.11411e-05
-2.11209e-05
0.0073055
0.003431
0.00360699
0.00445099
0.0048362
-4.65773e-05
0.000160186
0.00244207
-0.015999
-0.0109456
0.00362333
0.00118674
0.00265418
0.00252623
0.00456846
0.00267434
0.00264404
0.00819141
0.00164257
-0.0390714
0.00293247
0.0037714
-1.0091e-05
0.00371474
-0.0270788
0.0115975
-0.00180515
-0.00101129
0.00483385
0.00853066
0.00378866
-0.0145451
3.16523e-05
0.00752903
0.00252295
0.00349859
0.00484711
0.00318458
0.00412987
-0.0116094
0.0112044
0.00580549
-0.0206005
0.000873163
0.00126949
-0.0117404
0.00127442
-0.00917328
-0.0453968
0.00379186
-0.00164351
0.00488267
0.00365138
0.00376168
-0.00357225
0.00580594
0.00325714
0.00342907
0.00135184
-0.0131064
-0.0290997
-0.00432283
-0.00122996
-0.100454
-0.000110275
0.0071634
-0.0171681
0.0042418
0.00575782
-0.0275169
0.00311466
0.00116846
0.00268541
-6.92414e-06
0.00341082
-0.0173178
0.00741846
-0.167574
0.0257181
0.00331775
-0.102464
-1.68298e-05
0.000902474
0.00746058
0.00505521
0.00377379
-0.0246086
0.00380894
-0.03047
-0.0015134
-0.019839
-3.25153e-05
-3.5179e-05
0.0265499
0.00367224
-0.00952493
0.00381934
0.00364498
0.0191419
1.6995e-05
-2.50058e-05
-0.0198819
-0.019536
0.00480149
-0.00979911
0.00247906
-0.00362626
0.0133474
0.00101474
0.00406689
0.0358317
0.00461889
0.00246018
-2.7036e-05
-0.00362257
0.00379068
-2.17566e-05
-0.000646372
0.00436188
-0.00211067
0.00424144
-0.0174553
0.00382201
-0.00968819
0.00519663
0.00555618
7.47753e-06
0.00930601
0.00378036
-7.20218e-06
0.000117759
0.00298761
0.00319009
0.0188145
-0.00107295
-0.130216
0.00174798
0.00879161
0.00424617
-0.00152186
0.00297784
0.0030865
-0.00589676
-0.0381743
-0.0294684
0.00278159
0.00734536
0.00304221
0.00312014
0.0162504
4.84443e-05
-0.00140766
-0.0120291
-0.00276599
0.00464503
0.0018668
-0.00209766
0.00670283
0.00340327
0.00283854
0.00345263
-0.0140579
0.00454832
0.00377235
0.00282877
0.0195232
0.00177583
0.023624
-0.0267314
0.00350609
-0.00246762
0.00296852
0.00409872
0.00211362
0.00124639
0.00732375
0.00685518
0.0055809
-0.150639
0.0104599
0.000275711
0.000734404
0.00380426
0.00312208
0.00452943
0.00382526
2.05176e-05
-0.0193124
0.00306379
0.00183294
0.00325739
-0.0291286
0.00365137
0.00469393
8.36848e-06
0.00380916
0.000228132
0.00133329
0.00373194
0.00377702
-0.0151132
-0.0105825
-0.00214914
0.00274641
0.00289759
0.00365216
-0.00874114
-0.00619875
0.00255913
-1.13711e-05
0.00894192
0.00256396
0.00361881
0.00320558
-0.0354074
0.00427369
0.00676943
0.00486726
-0.021512
0.00120819
-0.0126768
0.00248667
0.00431393
-0.014565
0.00129085
0.00128363
0.00218692
0.00281634
-0.0268265
-0.0278916
0.015885
-0.00853686
-0.00996495
-0.00204513
0.00493027
0.00741663
0.00344685
0.00197942
-0.028914
-0.0354186
-0.0101623
-0.0166288
0.0134749
0.000940868
0.00321825
0.0150475
0.00414603
0.0049325
-0.0034308
-0.00081639
0.00510957
0.00714098
0.00317432
0.000211885
0.00864255
-0.00403454
-0.0175104
0.022208
0.00927717
-0.0325382
0.0056513
-0.00886543
0.00255114
0.00315066
0.00357517
0.0236069
0.00105875
-0.036577
0.0109742
0.00334584
0.00237008
-0.00449645
-0.0165416
0.0040066
-0.0237392
0.00893563
0.00148106
-0.0174321
-0.0309889
0.000590736
0.00590464
-0.00632803
-0.022959
0.0087436
0.00393399
-0.00693106
-0.00982568
-2.00884e-06
0.00550052
0.000907819
0.00329304
0.00485915
0.00419019
0.0086269
-0.000805432
0.00390899
0.0118664
0.00359103
0.00320453
0.00275005
-0.00104336
-0.0032827
0.00123664
0.00339385
0.0161621
0.00337941
0.00227281
-0.0165594
0.00695364
-0.0112201
0.00396976
0.00722401
0.0100693
-0.00085134
0.00271503
0.00409818
0.00388961
0.00379772
1.29153e-05
0.0022255
-0.0109955
0.00435775
0.00237156
0.0112598
-0.0141414
-0.0209086
0.00796714
-0.0208042
-0.0042305
0.0044798
-0.0087266
0.00529151
0.00391406
0.0113571
-0.0305275
0.00578026
1.02128e-05
0.00139535
0.00757952
-0.0403707
0.00361363
0.00279297
0.00771166
0.00363172
0.00544749
0.000984834
0.00106858
0.00163003
-0.0281702
0.0040029
0.00327157
0.00407089
-0.00282622
0.00693304
-0.0168639
0.00111636
0.00127402
0.00103167
0.000141248
0.00150311
6.0134e-06
-0.0103494
-0.0371828
-5.06745e-05
0.00344484
0.00937616
0.00657463
0.0080792
0.00312976
0.00160871
0.00307201
0.0046898
0.0164528
0.00340167
0.0073855
0.00570593
5.85812e-05
0.00776233
0.00358252
-0.00133686
0.00248218
-0.00127635
0.00735711
-0.00167218
0.0205911
-0.00451911
0.000941893
-0.0159511
6.20196e-06
0.00515189
0.00252621
0.00143603
0.00790171
0.00295319
0.00734283
0.0049937
0.00343656
1.3003e-05
-0.0042139
-0.0133675
0.00475276
0.00312892
-0.00669693
0.00338653
-0.00985447
-3.82438e-05
0.0050128
-0.00561745
-0.00168944
-0.0043541
0.0024268
0.0041875
0.00584169
-0.00948965
0.00271345
0.00322029
-5.69197e-05
0.00379709
0.00330116
0.00290838
0.004319
-0.00139769
0.0023473
0.000680068
0.0031211
0.0039494
0.0179593
0.00566033
0.0276921
0.00321348
-0.0254364
-0.0158671
0.0104082
0.00498371
2.32228e-05
-0.0271341
-0.0185123
0.00656241
0.000490925
0.00738321
0.00203343
6.86511e-05
0.00164003
0.00474553
0.00585789
0.00313677
0.00469264
0.0029543
-7.08366e-05
0.00608205
-0.0252468
0.00382752
-0.0614267
-0.00709729
0.0128282
-0.0215154
0.00115754
0.00239239
0.0200142
0.0234044
0.0033506
-0.0235682
0.00501745
0.0036723
0.00354465
0.00284733
-0.050146
0.00380938
-0.0104152
0.000356524
-0.0245724
0.00344217
0.00490319
0.0040599
0.000960593
0.00804145
-0.00111381
-0.0228328
0.00220573
-0.0235529
0.00611731
-0.00116704
0.0110588
0.0261057
-0.0319056
-0.00191028
0.00535329
0.0313738
0.0086347
0.0124656
0.000796752
0.00451899
0.00596757
-0.00224927
0.00185863
-0.0167681
-0.0102793
-0.00193019
0.0207722
8.00265e-05
-0.0203906
0.00253207
0.00816504
0.00138336
0.00123095
0.00373309
0.00163255
-0.00147486
-0.0136832
-0.00183739
0.000181857
-0.00153774
-3.71513e-05
0.000974541
-0.00774315
-0.00934505
0.0013987
0.00845897
0.00414472
0.0172573
-0.00361668
1.29583e-05
0.00201303
-0.00650263
0.00692001
-0.00236251
0.00787704
0.00864067
-0.00314724
0.00581649
-0.00147044
-0.00121426
0.012246
0.00557347
-0.0103703
-0.20101
-0.000904105
-0.000929643
-0.00850355
0.00250849
0.00823501
0.00114325
0.00488624
0.00387632
0.0122218
0.0114353
-0.00189176
-0.00227515
0.00311595
1.13505e-05
0.0025916
0.00225785
0.00185107
0.00329361
0.00825083
-5.62165e-05
0.000430664
0.00460721
0.00351876
0.00949593
0.0038279
0.000408136
-3.87383e-05
0.00473159
0.000716688
0.00682049
-0.0183838
-0.00019864
0.00571886
-5.08192e-05
0.00528242
0.000696787
0.00387098
0.00276986
-0.000133709
0.00265035
-0.010797
-0.00493252
-0.00106546
0.00144885
0.00303083
-0.00896774
-0.00180731
-0.0258108
6.66249e-06
-0.0680504
0.0090796
-0.00104475
0.00334587
0.00335115
0.00357494
0.00352437
0.00392467
0.00322139
0.032647
-0.000453049
-0.00096942
0.00077801
0.00147999
0.00339099
-4.73453e-06
-0.000424087
0.0219852
0.00453027
-0.00456216
0.00360472
0.0125645
0.000976014
0.00601317
-0.00467246
-0.0191416
-0.0281271
-0.00234047
0.00879766
0.00300461
0.00942424
0.00472567
-0.00397546
0.00718847
0.00198159
0.00593578
-0.0145278
-0.0019424
-0.00380906
0.00566679
-0.00509877
-0.0202334
-0.00205547
-0.030659
0.0071914
0.00175206
-0.0317383
0.00120988
0.00148936
0.00240373
0.00380662
-0.00562438
0.00448705
0.0379287
-0.000353323
0.00381063
0.00391797
0.000331892
0.0102308
0.00350073
0.00364744
0.00236822
0.0033532
0.00172113
-0.00400757
0.00492137
-0.0249754
0.00801875
-0.0255405
0.0030564
0.00251038
-0.00135841
0.0019361
0.0062053
0.00493204
-0.0239209
-0.00193564
-2.653e-05
0.00892549
0.00135546
7.05998e-05
6.43844e-05
0.00423119
-0.0105669
0.024036
0.00331453
0.00397292
-0.00161431
0.00906493
-0.000789212
-0.000337668
0.00360864
-0.0269084
-0.00170322
-0.00774031
0.00352788
-0.00147356
0.00177863
0.0168028
0.0125705
0.00591197
0.00741531
-0.0346534
0.00875181
0.00358254
0.00232619
-0.0222477
0.00328602
0.0017201
-0.0091882
0.00185738
-0.00920302
0.00223522
0.0187676
0.00363855
0.00248971
-0.0221102
0.00454623
-0.0132142
0.0111005
5.82721e-05
-0.00887817
0.00375449
0.00288181
0.000751943
-0.0576781
0.00480511
0.00378881
0.00377575
0.00187685
-0.00653846
0.00193416
-0.0997078
-0.00475625
-0.000114702
0.003137
0.0226029
0.0104155
9.80336e-05
0.00656633
0.0183722
-7.78073e-05
0.0049572
-3.90616e-05
-0.0240472
-0.00609254
0.00214072
0.00142065
0.00598622
0.00194122
0.00383905
0.00825529
0.00213366
0.00171901
0.00057209
-0.0435944
-0.017137
-7.04708e-05
0.00384048
0.00233326
-0.0151374
-3.36016e-05
-0.0115682
-0.0134583
-0.0135994
0.00373318
0.00379788
-0.000194548
-0.0274713
0.000733878
-0.0141167
-0.0308775
-0.00775864
0.00048761
0.00411269
-0.0108782
0.000900301
0.000861772
3.99648e-05
0.00338804
0.00162465
0.000667678
-0.0185069
0.00381778
0.00296798
0.00361281
-0.00192644
0.0189476
-0.00208366
0.00296342
0.00227834
-0.0938645
0.00297452
-0.0262118
0.00352912
0.000263924
-0.0999363
0.00314344
0.00694407
-0.0206259
-0.0127264
0.00373904
0.00609836
0.00643585
-0.000115952
0.0027483
-0.00792902
0.00437267
-0.0177884
0.00250616
-0.00223985
-0.0234453
-0.0177907
-0.000118284
0.00249949
0.00393038
-0.00144896
-0.0101537
-0.00825048
-0.00924668
-0.0194082
0.00209477
0.00899477
-2.80373e-05
-0.018503
-0.00351959
-0.0127359
0.00206992
7.65184e-06
0.0201341
0.0014416
0.00119299
-8.64886e-05
0.00424659
0.00109628
0.00312667
0.0128068
0.0211861
-0.00239226
0.00206396
-0.000205265
0.00310941
0.00150205
-0.00304131
0.00697918
0.00330923
0.00249843
0.0235301
-8.20367e-05
0.00337995
0.00124454
0.00383672
0.00391091
-4.4347e-05
0.0082341
0.00116413
0.000906026
-0.000258261
-0.000172005
-0.057453
0.000496031
-0.0175619
0.00387522
0.000106642
-0.0140913
-1.20372e-05
0.011316
0.0041107
-0.0338428
0.0177605
-0.000160454
-0.000203276
0.00483805
-0.00255611
0.00204684
0.0049554
0.00156518
0.0237018
0.0180318
0.00697543
0.00222702
0.00204459
-0.00177508
0.00365591
0.00336153
0.00904815
0.00268554
0.00340807
-2.48044e-05
-0.021247
0.000865876
0.000674508
0.00459755
0.00233853
0.00140067
-0.0140461
-0.000104545
-0.0213927
-0.0212271
-0.0762666
0.00391982
-0.0255215
3.22831e-06
0.00160884
0.0359319
-0.189095
0.00467866
0.00156877
0.00400349
-0.00787458
-0.0635087
0.00480996
0.000364742
0.00300528
0.0137025
-0.0336913
0.00884328
0.00361201
0.00202832
0.00186815
-0.0180416
-0.000137768
0.00340648
0.00355169
0.0133019
0.0090868
-9.60262e-05
-0.00097492
0.00755065
0.003861
-0.120478
-0.0121725
-0.00375149
-0.0183839
-0.00474789
0.00238872
-0.0278366
-0.0126557
0.00842418
-0.000172992
0.0213064
-0.0267917
-0.000169164
-0.00945218
-0.0214714
-0.00105809
0.00472012
0.00221079
0.00613073
0.00489427
-0.0312713
-0.00399951
-0.000121565
-0.000171234
0.0039787
0.00698218
-0.0372211
0.00346117
-0.000174546
0.00063859
-0.00132039
-0.000156423
-0.000334432
-0.000179447
0.00387374
0.000145758
0.0395334
-0.0683159
-0.0104306
0.00226771
0.00407216
-0.00655527
-0.00569732
0.00359188
-0.0191315
-0.00305905
-0.0168489
0.00441824
0.00255104
-0.0154088
-0.00647834
0.000224444
-0.0336153
0.00728675
0.00109906
-0.00781821
0.00287743
0.0031859
-0.00498794
0.00249003
-0.0162195
0.00450732
0.000964559
0.00466409
-0.00810017
0.0225111
-0.0308163
-0.00074096
-0.000168837
0.00108782
-5.41849e-05
0.00329352
0.00217037
-0.00183548
0.00098832
-0.00394638
-0.00526825
0.00389388
0.00349489
-0.0258131
0.003985
-0.000177515
0.00476492
-4.33807e-05
-0.000200158
0.000240582
0.000827405
0.000900909
-0.0262832
-0.000736471
-0.000211776
0.00407586
-5.69296e-06
-4.52461e-05
0.000974813
0.00601621
0.0261488
0.003897
-0.0165309
-3.96425e-05
0.00363912
0.00286833
-0.000176525
0.000123312
0.00604704
0.00977009
-0.00180116
-0.0016232
0.00390109
0.000748646
-0.0160586
0.00806123
0.00502507
0.00118181
-0.00262355
-0.0325307
-0.000199806
0.00674234
0.00401434
-0.0141933
-0.0174324
0.0194981
-0.0120641
-0.0145819
0.022936
-0.0181583
-2.01507e-06
0.00102187
-0.00292642
0.00993335
-0.00137646
0.00560122
-0.0120305
0.000128351
0.0336007
-0.000216724
-1.91062e-06
-0.0257223
-0.000209207
-0.000264999
0.00168013
-9.32471e-05
0.00552549
0.000251772
0.00191094
0.00410607
4.03257e-05
0.00258445
0.00855209
0.00245642
-0.0116295
0.00349319
-0.0208262
-0.00141748
0.003451
-0.0642993
-0.012098
0.00934564
0.0175273
-0.0112348
0.0057234
0.0164058
-0.00632041
0.00214519
-0.0116833
0.00247149
-0.000211652
0.00192123
-0.00763163
0.00452973
0.00322391
0.0048076
0.00399043
-0.0195949
-0.00232143
-0.00229247
0.00918674
0.0194158
0.00539448
-0.00965478
0.00699391
0.000472423
0.000982625
0.00272528
0.00372684
-0.0249599
0.00681146
0.00665761
0.00356135
-0.00215834
0.00439427
0.00293091
-0.000695837
-0.0421949
0.00403479
-0.00979828
-0.0133138
0.00261804
-0.021473
0.00203742
-0.00104906
0.00786022
0.014861
0.0114852
-0.0132044
0.00451635
-0.0082547
0.00433983
0.00313528
0.00243163
0.00300884
0.00544968
0.00781303
0.00573831
0.00369949
-6.24631e-05
-0.00113532
-7.24579e-05
0.00451096
-0.0322098
-0.00190326
-0.0200409
0.00329478
-0.00579425
0.0033808
0.00367016
-0.00013265
0.000650905
-0.0185129
-0.0102385
-0.0241921
0.00309084
0.00793383
-0.0640594
0.0222355
-0.0241017
0.00716975
-0.00021636
0.000489189
0.00703849
0.00818108
0.00694871
-0.000117514
0.00763224
-0.0222818
-0.0334623
-1.88137e-05
0.00846435
-0.00642
0.00328779
0.00484005
-0.00685696
-0.0189051
-0.00241701
-0.00646504
3.46386e-06
-0.0312534
0.00816251
0.00201863
0.00169462
-0.0142707
0.00809307
-0.0139924
-0.00620152
-8.62842e-06
-0.0243493
0.00282263
0.00293244
0.00424956
0.00579516
-0.0101004
0.00485755
-0.00135059
-0.086907
0.00212565
0.00340607
0.000987437
5.17965e-05
-0.0157464
2.77965e-05
-0.00135887
0.0100721
0.00380607
0.00182286
0.00143678
6.22031e-05
-0.00494189
-0.00122503
0.00466796
-0.018417
-0.000159702
0.00705003
-0.00656837
0.0064622
-0.00698117
0.00674111
0.00267391
-0.00740185
0.00411736
4.87443e-06
0.0038133
0.00499816
-0.0126029
0.000445274
0.00433551
-0.000188365
-0.0110132
-0.000201503
-0.00207438
-0.00124379
0.00331208
0.0031393
0.00582528
-0.0419592
0.00121836
-0.00149911
0.00146341
0.00279632
0.00684244
-4.86924e-05
0.00818598
0.00345954
-0.0014429
0.00251552
0.00473729
-0.000315737
-0.0113562
-0.0259505
0.00408855
0.00232868
-0.00284779
0.00483117
0.00286788
0.00272832
-0.00136987
0.00344609
-0.00268972
0.00240595
-0.0015589
-0.000579574
0.00059076
0.00252353
-0.00570183
-0.000531224
0.0025383
0.0304642
0.00528815
0.00129097
-0.0118014
1.22272e-05
0.00213778
0.000848958
0.00199067
-0.00152597
0.0260352
0.00686618
0.00457362
0.00304197
-0.0223119
0.00364177
0.00403728
0.0114368
0.000355254
-0.0179479
0.000592379
0.0214491
0.00488941
0.000378278
0.00466389
0.000752011
0.00110308
0.00213652
0.0112428
-0.000960094
2.04381e-05
0.00840265
-0.0198614
7.50469e-05
0.00229997
-0.0416597
0.00146677
-0.00605532
0.00144348
-0.0408017
0.00536928
0.00307402
0.00209491
0.00282398
0.00390437
-0.00890068
-0.0189601
0.00145744
0.00276033
0.0042531
0.00396383
-0.00112583
-0.0371775
0.00309942
0.00174069
-0.00188052
-0.00303936
0.00586042
0.00334039
-0.0417732
0.0036047
-3.10942e-05
-0.0125594
0.00409148
0.0220599
0.00370994
-0.00444054
-0.0273288
-0.00505724
-0.026718
-0.000764324
0.00489278
-0.0297059
-0.0417903
-4.01614e-05
-5.80256e-05
0.0053509
0.00286661
0.00456583
-0.0422548
0.00360379
-0.0125212
-0.000149865
-0.00706134
0.00340039
0.00426038
0.00391922
0.00228834
0.00305993
-0.0389183
0.00591742
0.00451691
0.00282778
0.0033213
0.00767511
0.00364755
-0.00169901
0.00311324
0.00255422
0.00719454
-0.0236114
-0.000187897
0.00332523
0.00432295
-0.0248578
0.00339616
0.00119234
8.05048e-06
0.0049101
0.0124076
0.0044381
-0.00401755
-0.0502391
-0.00124791
0.00221518
-0.0201153
0.00184113
-0.00132661
0.000523965
-0.00247394
0.0118065
-0.0108627
0.00363518
0.0044415
0.00862794
0.00685844
-0.00299479
0.00570816
0.00184289
0.000619266
0.0238408
0.007031
0.0076317
0.00460722
-0.0181532
-0.00607032
0.00212712
0.0178792
-0.0230241
0.00159723
-2.88462e-05
-0.000163463
-0.0405273
-0.00111531
-0.0105056
0.00241422
-0.00178673
-0.00195429
0.00121074
0.00910352
0.0235455
-0.00172503
-0.000102678
0.0198407
0.00928954
0.00260979
-0.038494
-0.0301846
0.000389661
-0.0134856
8.26772e-06
6.07935e-06
-0.0127208
-0.00565777
0.00313952
0.00218566
-3.50102e-05
-0.00404161
0.0135704
-0.0149327
0.000648452
0.00454131
0.00850592
-0.00112236
0.00270391
-0.00665399
-0.0253583
-0.00288033
-0.0590604
-0.00514864
0.00760277
-0.0109427
0.00247237
0.00334072
-4.25424e-05
-0.000347859
0.00657344
-0.0531716
-0.000485208
0.000579281
0.00397735
-0.0204815
0.0238824
-0.000364585
0.00341571
-1.98078e-05
0.0161583
-0.000357206
0.00220653
0.0254566
-0.000273333
-0.000148669
-0.0100302
-0.0044494
-0.00047348
-0.0207927
-0.0149488
0.00294881
0.00551959
-0.00488581
0.000272605
0.00058447
0.00161285
-0.00288084
0.00214757
0.010245
0.00381975
-0.00686172
0.020083
-0.0495135
0.0144509
-0.0141691
-0.0183349
-0.00890863
0.0023818
0.00332201
0.000840533
-8.64889e-05
0.0138538
-0.000101381
-0.000716293
0.00398671
0.00310253
-1.78297e-05
0.00328901
-0.00110001
-0.00279022
-0.0109152
0.00378376
-0.00764775
0.00344965
-0.000141501
0.00166472
2.47711e-05
-0.019829
0.00376527
-0.00652746
0.00380411
-0.00155227
1.25687e-06
-0.000579808
0.00408639
8.93584e-06
-0.0064821
-0.000137155
-0.000129203
-0.00390297
-8.55164e-06
-0.0129608
-0.0107812
0.00327407
-0.0211132
-0.0222884
0.00211592
0.00405485
-0.00304988
-0.000173684
0.00386329
-0.00387974
-0.00103348
0.00230479
0.00218421
-0.0280075
0.0157536
-7.07983e-05
0.000953718
-0.0095011
0.00619875
0.00258118
-0.022381
0.00968134
-0.00437416
-0.000618833
-0.0296388
0.00249402
0.0032312
0.00709156
-0.0146266
-0.0244088
0.00287963
0.00440286
0.00291533
-0.0116681
-0.000170944
-0.0150892
0.00284513
0.00454813
0.00540042
-0.0175869
0.00333008
0.0070881
-4.43962e-05
-0.0127199
-0.115622
-0.0146744
0.00313696
0.00147767
-0.000469335
-0.000435231
0.00180212
-0.000158729
0.00518501
-0.000211524
0.00111284
0.00317113
0.00356304
-0.00660079
-0.00317546
-0.0340432
-0.00386275
6.73867e-06
0.0140015
0.000112752
2.20283e-05
0.000502231
-0.000161384
-0.000152013
0.00284163
0.000866108
0.00755687
-0.0957878
1.32855e-05
0.00154206
0.00197394
-3.4067e-05
0.00666167
0.00548487
0.00338926
0.00473001
-0.00383661
0.00171297
-0.000115283
-0.0133703
-0.00171058
0.00336144
-0.00530246
0.0016262
0.00712813
0.00264291
0.00341606
-0.0233054
-0.00991487
0.00330489
0.0142802
0.00230334
0.000430975
-0.000545399
0.00345948
-0.0197829
0.00298484
0.00271935
0.0242502
0.000698757
0.00550191
-6.16415e-05
0.00747848
0.00352599
-0.0194714
0.00908372
0.00575658
-0.00509048
0.00375305
0.00295877
0.00339817
0.000508661
-0.0129927
0.00179881
-0.00713133
0.00310707
0.00304633
-0.00616995
-0.00239331
0.0083135
-0.0276318
-0.0331941
0.00250131
-0.0215777
0.00258776
0.00212837
0.00845274
0.00102995
-0.00418844
0.00278278
0.00337533
-0.013201
-0.0125804
0.0037498
0.00206388
-2.27801e-06
0.00227454
0.00275156
0.00514385
0.00838581
0.00281115
-0.000241118
-0.000160574
-0.0167951
0.00200832
0.00343536
-1.11344e-05
0.00339233
0.00219421
-0.000532409
-0.000829474
0.00153282
-0.00866272
0.0148577
0.0256749
-0.00918282
-0.0267817
-0.0224889
0.00449736
-8.89676e-05
0.0108114
-0.00100406
0.000335302
-0.0184979
0.00340408
-0.00478748
0.00258849
0.00229894
0.000126582
0.0015661
0.00828782
0.00420171
-0.00845663
-2.31661e-05
0.00630588
-0.0442954
0.00305481
-0.0180908
0.00217217
0.00537392
0.00653917
-0.000542239
0.00338728
0.00889582
-0.00331758
0.00382454
-0.000479419
0.00278621
-0.0277068
-0.0552228
-0.0010324
0.00375803
-0.00502418
0.00134002
-0.000237207
-0.00739441
0.00277139
-0.0107799
-0.00975969
-0.00272955
-0.000168669
0.000836243
-0.000855706
0.0231893
0.0226475
0.00354231
0.00341554
-0.00179316
-0.00778047
-0.0175507
-0.00809875
-0.014549
6.72861e-06
0.0103278
0.00401441
-7.98591e-05
0.00282356
8.48898e-05
0.0028061
-0.000699052
0.00509207
-0.00477063
0.00258002
-0.00744638
0.00870379
-0.0180676
-0.00154427
0.00679165
0.00046024
-0.00291368
0.00437759
-0.000478953
-0.00911126
-0.00356118
0.00571338
-0.0183797
0.00487346
0.00225985
-0.00135939
0.00882176
0.00350576
-0.018913
0.00486002
-0.0219042
-0.000237299
-0.0192438
0.00906724
0.01105
-0.0263148
0.0025877
-3.13143e-05
-0.00845658
0.00281803
0.00320697
0.00187659
0.00147705
-0.00152644
-3.26137e-06
0.00233242
0.00882414
0.00397604
-0.00164457
0.00901498
-0.00953625
0.00158982
0.00982621
0.00337109
-0.017218
-6.22803e-05
0.00322114
0.00382117
0.00411718
-0.0822251
0.00576438
0.00217952
0.00319374
0.00531268
-0.0140724
-0.00507544
0.00293944
-3.43401e-05
0.0212181
0.00417647
-0.000272327
-0.000172437
0.00882811
-0.000103512
-0.000237602
0.00880426
-0.00325695
-0.0716076
-0.0133729
0.00297483
0.00447789
0.00256729
-3.94386e-05
0.00236698
4.81894e-06
-0.000483529
-0.00239656
0.00339514
0.0131776
-0.00916482
0.0182835
0.000467736
0.00720057
0.00413938
0.00197977
-0.00490948
6.48276e-05
-0.000145464
-0.0222374
-0.000805131
0.00456349
-8.52555e-05
0.00316054
0.00310094
0.00322177
-0.0193968
0.00112709
-0.00223365
0.0166595
-0.00318728
0.00298139
-0.000286715
-0.200372
0.00235564
0.000977495
0.000389835
-0.00610122
0.00145083
0.00365377
-0.0905561
0.00722748
0.000365971
-0.000757154
-0.0183251
0.00404501
0.0150669
6.09042e-05
0.00769078
-0.00573167
0.0203568
0.00284696
-0.00132543
0.00148021
0.00272579
0.0035222
-0.00238498
-5.03756e-05
-0.00998803
0.00353478
5.13016e-05
0.00252133
-0.000603619
0.00265657
0.0083134
0.00322971
0.00309394
0.0031569
0.00298649
-0.0177847
0.0032259
0.0266063
0.00279029
0.0111326
0.00757604
-0.000904837
-0.00881844
0.00120183
0.00246391
0.00335284
-0.0694018
0.0104087
0.00474051
-0.000205804
-0.00519344
0.0081879
0.000152597
-0.0016289
0.00021168
0.00452315
0.00283817
0.00175761
-0.0141341
0.0110809
-0.00183915
0.00932251
0.00107347
-0.00871803
0.0284908
0.00545898
0.00411352
-0.00138984
-0.0168258
0.00500619
0.000991881
0.00439184
0.00429226
-0.000198621
0.00264092
0.00355306
0.00220958
-0.00561616
0.000885303
8.74038e-05
3.97017e-05
-0.00058062
-0.0124708
-0.0232655
-0.00240728
-0.000133349
-0.0189984
0.00285395
-0.0177931
-0.00611902
-0.00165272
-0.00022188
0.00827859
0.00148098
0.0015746
0.00193223
0.00157982
0.00336609
-0.016721
0.00399111
0.00196759
-0.026874
0.0010547
-0.00701797
0.00266269
0.000169288
0.00236628
0.00116584
0.00547453
0.0243759
-0.000555405
0.00381332
-0.00618152
0.00381739
0.000364575
-0.00182214
0.00337265
0.00142549
-0.0090776
-0.00920271
-0.0210002
0.0151905
0.00266973
-0.025609
0.0122036
-0.00262517
0.00253524
0.00673432
-0.0331104
-0.0310964
0.00115289
-0.0133926
-0.0284006
-0.0133882
-0.000290241
-0.00216876
-0.0144053
-0.0144435
0.0038831
0.00558313
-0.00049283
0.000717847
0.00251253
0.0246848
-0.0171099
0.0083549
-8.68444e-05
0.00216117
0.00417106
-0.0261961
0.00159213
0.00113939
-0.00159893
-0.00870942
-2.22438e-05
0.000299315
0.00389409
0.00362444
-0.00412258
-0.00381691
0.00370839
0.00193827
-1.75011e-05
-0.0322803
0.00306341
0.0034313
0.00206939
0.00332435
-0.0274384
-0.00874117
0.00287381
0.00248599
0.00554686
-0.000482922
-4.36366e-05
-0.00388223
-0.00303289
0.0273858
-0.0512159
0.00443504
-0.0246486
-0.0642081
-0.000317928
3.47356e-05
0.0113944
-0.00484936
-0.0047075
-0.00321583
-0.0289198
-0.0100515
-0.0570913
0.00360701
-0.0191382
0.00583524
0.00333228
0.0164557
0.0187587
0.00194289
-0.0152859
0.0032566
0.00231241
-0.000796502
-3.51708e-05
0.000485892
0.00459762
-0.00580688
0.00664341
-0.00883193
-0.0013774
0.0055147
-0.00780602
0.00318558
-0.00134648
0.00240148
-0.0433923
0.00567032
-0.00346939
0.00315697
0.00491041
0.00340953
-0.00206059
0.00340826
4.01072e-05
0.00669088
-0.000394322
-0.0124939
0.0023054
0.00208921
-9.08701e-05
-0.0171739
0.000690706
0.00134098
0.000963113
0.00359047
0.00167948
0.00225867
-0.00522581
0.00363634
-0.0258565
-4.74879e-05
0.00265425
-0.0257723
-0.0164587
0.00216645
0.0121833
0.0062816
0.00169208
-0.0385415
0.00183015
-0.00844357
0.00348868
-0.000329082
6.41333e-05
-0.00568324
0.00381262
-0.0116166
-4.62654e-05
0.000878921
0.00154229
0.006046
-0.0397903
0.0029427
0.00444624
-0.00351505
-0.0129291
0.00372519
-0.00520116
-0.000479626
-0.00558472
-0.00190172
0.00334862
0.00105232
0.00639585
-0.00298901
-0.000228056
0.00826199
0.00418622
0.00360047
0.0048151
-0.000753356
0.00707216
-0.0686368
0.00324647
-0.011753
0.0049867
0.00343384
0.00084185
-0.00102135
0.000615358