/*--------------------------------*- C++ -*----------------------------------*\
| =========                 |                                                 |
| \\      /  F ield         | OpenFOAM: The Open Source CFD Toolbox           |
|  \\    /   O peration     | Version:  v2012                                 |
|   \\  /    A nd           | Website:  www.openfoam.com                      |
|    \\/     M anipulation  |                                                 |
\*---------------------------------------------------------------------------*/
FoamFile
{
    version     2.0;
    format      ascii;
    class       surfaceScalarField;
    location    "350";
    object      phi;
}
// * * * * * * * * * * * * * * * * * * * * * * * * * * * * * * * * * * * * * //

dimensions      [0 3 -1 0 0 0 0];
oriented        oriented;


internalField   nonuniform List<scalar> 
27688
(
-0.291684
0.177186
0.114499
-0.00697143
-0.0515992
0.0585706
-0.185167
-0.0247944
0.209961
0.290431
-0.189763
-0.100668
0.123028
0.138326
-0.261354
0.168661
0.0511272
-0.219789
-0.0105818
-0.0446944
0.0552762
0.0186201
-0.0217805
0.00316043
-0.0534164
0.0755147
-0.0220983
0.000768348
0.0774898
-0.0782581
0.262847
-0.139819
-0.117216
0.229365
-0.112149
-0.0435772
0.425046
-0.381469
0.106703
-0.231001
0.124298
0.217955
-0.279511
0.0615555
-0.00561726
0.174279
-0.202667
-0.0289831
0.23165
-0.157536
-0.134149
-0.250994
-0.102558
0.353551
0.0587609
-0.00662449
-0.0521365
0.320317
-0.102362
-0.0297553
0.0337109
-0.0039556
-0.489582
0.140211
0.349372
-0.241106
0.123889
0.0116687
0.0377732
-0.0494419
-0.0802273
0.0268109
-0.0771539
0.0824452
-0.00529123
0.036676
0.021714
-0.05839
0.0755009
-0.0692445
-0.00625637
-0.260337
0.0751703
-0.208211
0.117738
0.0904735
-0.0786979
0.236709
-0.158011
0.0748309
0.0484998
-0.123331
0.194681
0.191833
-0.386514
-0.186653
0.0913192
0.0953337
0.0542895
-0.0448427
-0.00944676
0.297287
-0.162371
-0.134916
-0.00498936
-0.0595844
0.0645737
-0.00673307
0.0253532
-0.297229
-0.192353
-0.0129083
0.012315
0.000593274
0.032373
-0.0320134
-0.000359584
0.000133457
0.0275796
-0.027713
0.0240621
0.00379687
-0.027859
0.0596485
0.0719487
-0.131597
-0.0122947
-0.0928364
0.105131
-0.00312868
-0.0158772
0.0190059
0.125412
-0.0547981
-0.0706136
-0.0817767
0.0849183
-0.00314154
0.0434999
0.00316016
-0.0466601
-0.0834749
0.00632094
0.100195
-0.196637
0.0964421
-6.77237e-05
-0.0770527
0.0771204
-0.0773679
0.0778725
-0.000504548
-0.0617006
0.0575561
0.00414447
0.0614987
-0.066488
-0.00440865
0.086165
-0.0817564
0.0920342
-0.0118585
-0.0801757
-0.0128396
-6.87177e-05
-0.0582791
0.0556538
0.00262534
0.0173753
-0.018202
0.000826717
0.0618059
-0.0189191
-0.0428868
-0.0788534
-0.00292334
0.508397
-0.476337
-0.0320601
-0.0654069
0.0737774
-0.00837053
-0.0766401
0.0849621
-0.00832197
-0.0562283
-0.00205077
0.0698635
-0.141403
0.0715399
-0.345694
0.302117
-0.0119516
-0.000887987
0.0888639
-0.0783349
-0.010529
0.0457754
-0.296769
0.253484
-0.451834
0.198349
0.0525088
-0.0692316
0.0167228
-0.0179659
0.0179659
0.0163928
0.0378966
-0.478814
0.27792
0.200895
0.300426
-0.245227
-0.0551994
-0.177001
-0.20806
0.385061
0.00543144
-0.0820715
0.097004
0.0521535
-0.149157
-0.186036
0.380717
-0.271542
0.256813
0.0147286
-0.173548
0.106047
0.0675003
0.00244286
-0.0321981
0.194988
-0.314861
0.119873
-0.00759808
-0.0567335
0.0643316
0.0137438
-0.00142879
0.0236993
0.0381066
-5.71595e-05
-0.00266952
0.00272668
0.173857
-0.345266
0.171409
0.000484774
0.0168906
-0.0144278
-0.0515074
0.0659352
-0.152008
0.385935
-0.233927
-0.000308022
0.0191083
-0.0188002
-0.0668655
0.0307337
0.0361318
0.140585
0.0647195
-0.205305
0.0696247
-0.0679904
-0.00163426
0.0166676
0.401701
-0.418369
-0.00159563
0.0263769
-0.0247812
0.0460642
-0.00256426
-0.000883509
0.00196039
-0.00107688
-0.235081
0.156383
0.0602308
-0.0746586
0.0323827
0.0431182
0.0881477
-0.0785495
-0.00959823
0.065275
-0.0536063
0.282124
-0.530221
0.248097
-0.0326871
-0.0341784
-0.0818971
0.0492099
-0.0174492
0.018683
-0.0012338
-0.0578207
-0.0825637
0.140384
0.0217432
-0.0248719
0.0240621
-0.368936
0.27622
0.0927159
0.420682
-0.286668
-0.134014
0.0433006
-0.0538824
0.233025
0.057406
0.0763324
-0.0764001
0.0199274
-0.0199274
0.0866733
-0.195206
0.108533
-0.0911856
-0.0883538
0.179539
-0.0584429
0.132157
-0.0737146
0.170508
0.055243
-0.225751
0.086308
0.0106056
-0.0969137
0.0771527
-0.0735745
-0.00357814
-0.0548894
0.145562
-0.090673
0.00173874
-0.0671456
-0.00213939
-0.0654059
0.0675453
-0.0108466
-0.0714194
0.082266
-0.0262045
-0.00126404
0.0274685
0.0198596
0.0275247
-0.0473843
0.056043
0.00271791
-0.0903807
0.085972
-0.140061
0.355786
-0.215725
-0.0709848
0.125407
-0.054422
-0.377085
0.22133
0.155756
-0.0152077
-0.00224147
0.0364492
-0.0355614
-0.000887856
-0.327587
0.25035
0.0772377
0.0204108
-0.0234689
0.00305811
-0.0402765
-0.0416206
0.215229
-0.39223
-0.436289
0.0500204
0.386269
-0.161138
0.103318
-0.235293
-0.133643
-0.38879
0.467621
-0.0788301
-0.231223
-0.040319
0.340713
-0.324046
0.0857455
-0.205104
0.119358
0.0435368
-0.069314
0.0257773
0.164915
-0.287498
0.122583
0.0442842
-0.117338
0.0730538
0.224409
-0.14998
-0.0744294
-0.177341
0.118899
0.0222592
-0.00184836
-0.00220158
0.0368704
-0.0346688
0.114539
-0.0805597
-0.0339791
0.102315
-0.225757
0.123441
0.0307826
0.0918839
-0.00557587
-0.0565957
0.12957
-0.0729748
-0.0424388
0.0433699
-0.000931168
0.0437478
-0.0679212
0.0241734
0.302151
-0.220398
-0.0817529
-0.164778
0.110421
0.0543565
-0.104724
-0.0688234
0.0281797
-0.0290823
0.000902653
-0.176107
-0.0700213
0.246128
0.0708601
-0.00123542
0.439542
-0.310806
-0.128736
-0.0462573
0.121088
-0.0776201
0.0837201
-0.00610008
-0.0640984
0.0768427
-0.0127442
0.0244044
-0.024271
0.275645
-0.102633
-0.173012
-0.0751303
0.0458546
0.0292757
0.163026
0.0613832
0.276614
-0.528467
0.251853
-0.136442
0.0371935
0.0992486
-0.0174152
0.060952
-0.111228
-0.0754252
0.0628553
-0.0261793
-0.20179
0.422074
-0.220284
0.305868
-0.499578
0.19371
0.104525
-0.109616
0.00509021
-0.0163211
0.0600689
0.0493245
0.00947771
-0.0588022
0.058249
-0.0658471
-0.136422
0.243125
0.425993
-0.238257
-0.187735
0.122115
-0.0499683
-0.0721468
-0.088969
-0.0758088
0.0442693
-0.246937
-0.179697
0.394926
0.0710996
-0.0293186
-0.0417811
-0.233797
-0.0937906
-0.0676258
-0.0148008
-0.00669962
0.0215004
0.156376
-0.0967274
0.0804721
-0.0033194
-0.0344589
0.0366194
-0.00216047
0.0638851
-0.0499661
-0.013919
0.00573952
-0.0205403
-0.0321591
-0.0429713
-0.191286
0.105815
0.0854711
-0.0221334
0.0226617
-0.000528292
-0.00242132
0.00153781
0.308379
-0.495184
0.186804
-0.239009
-0.155094
0.394102
0.00281344
0.0614372
-0.0642506
-0.0699295
0.072743
-0.152713
0.0376737
0.115039
0.0509359
-0.439726
0.114977
0.111322
-0.226299
-0.271461
0.524793
-0.253332
-0.0479994
0.00220004
0.0457993
-0.0769771
0.0372481
0.039729
0.115499
0.0698017
-0.185301
-0.111928
-0.0954803
0.207408
0.217277
-0.131532
-0.0803375
0.0312706
-0.0179071
-0.0133635
-0.484467
0.363322
0.121145
-0.013513
-0.000839129
0.0143521
0.1421
0.160051
-0.178994
0.087808
-0.0837302
0.00655215
0.0771781
0.0653498
-0.0674892
-0.0633203
0.133184
-0.126374
-0.0294345
0.155808
0.0563153
-0.126921
0.070606
-0.167953
0.450077
0.000125784
-0.107743
-0.0286986
0.160323
0.211052
-0.371375
0.293245
-0.463289
0.170043
-0.0524541
0.0734929
-0.0210388
0.0572606
-0.101681
-0.0824723
0.184153
-0.0579015
0.0509301
-0.119705
0.2199
-0.182719
0.421608
-0.238889
-0.0166514
0.0150558
0.0766938
0.0153404
-0.115132
0.108814
0.0063181
0.0170592
0.0540404
0.404166
-0.243843
0.0153443
-0.0148766
-0.000467751
-0.223404
-0.0194935
0.242897
-0.385272
0.233264
-0.0300593
0.0341983
-0.00413898
0.068816
0.0514713
-0.0316117
0.106178
-0.0214014
-0.0847767
-0.13064
0.0757507
0.0690107
-0.0655975
-0.00341315
-0.211628
0.371781
-0.160153
0.111627
-0.407473
0.295846
0.096198
-0.208126
0.117664
0.158555
-0.0430139
-0.0049855
-0.0392039
0.0989082
0.0546486
-0.153557
-0.0268532
0.0323484
-0.00549523
-0.0671422
0.0488871
0.0182551
-0.0670795
0.074419
-0.00733954
-0.119417
0.0646193
-0.0698724
0.0801335
-0.0102611
0.124707
-0.0674647
-0.0572427
-0.0790517
-0.00467851
-0.2212
-0.155886
0.0750724
0.0905595
-0.165632
0.250907
-0.133243
0.275594
0.163948
0.119587
-0.123657
0.0040696
-0.119013
0.10707
0.0119429
-0.230899
0.160926
0.0699732
-0.230904
0.0965075
0.134396
0.00896457
0.022306
-0.224562
-0.175022
0.399584
-0.0838475
-0.00978637
0.0936339
-0.258526
0.0991581
0.159368
0.0690781
0.10113
-0.170208
-0.0288891
0.0187824
0.0101067
0.0336125
-0.257016
-0.337705
0.265106
0.0725991
0.0078409
0.0687933
-0.0766341
-0.0759929
0.0883055
-0.0123126
-0.0862087
0.0770564
0.00915229
-0.125774
0.283973
-0.1582
0.0803371
0.00151168
-0.0818488
-0.318623
0.213693
0.10493
0.111516
-0.0672321
-0.0302303
0.038977
-0.00874675
-0.0755872
0.0114888
-0.0210409
0.0207329
-0.0416283
-0.00399222
0.0456206
-0.0339577
-0.0084811
-0.123894
-0.108032
0.231926
0.0158936
0.0886319
0.0747869
0.43361
-0.116614
0.0459574
0.0706571
-0.0889839
-0.102302
-0.432949
0.220886
0.212063
0.4351
-0.12672
0.271268
-0.212277
-0.0589909
-0.000989937
0.027398
-0.0264081
0.007342
-0.037151
0.0349494
-0.0634901
0.0697153
-0.0062252
0.362891
-0.251263
0.0631292
-0.0138047
-0.327229
-0.157238
0.453056
-0.272299
-0.180757
-0.0428017
-0.190995
0.186825
-0.117747
-0.132037
0.0527918
0.0792449
0.0152879
-0.0945039
0.079216
0.00724914
0.0482353
-0.0554845
-0.346481
0.397417
0.0524015
-0.0698168
-0.293896
-0.0964764
0.390372
0.00212316
-0.0365821
-0.224996
0.453928
-0.228931
0.050083
0.00849649
-0.0585795
0.0530394
-0.0693605
-0.221833
0.179031
-0.0662208
-0.118918
0.185139
0.000368795
-0.0455169
0.0451481
-0.0577531
-0.0446525
0.102406
-0.0381507
0.00792046
0.10924
0.162028
0.255708
0.197348
-0.110259
0.0392745
0.353244
-0.131914
-0.0541023
-0.00466383
0.0587661
-0.0390184
-0.113694
-0.185253
0.083572
0.0384789
-0.0492414
0.0107625
-0.0629681
0.0911784
-0.0282103
0.0823868
-0.00660786
-0.0757789
0.0361982
0.000251031
-0.078071
0.0749596
0.00311142
-0.249696
-0.183253
0.0912626
-0.0784605
-0.0128021
-0.076109
0.155268
-0.0791588
-0.0698392
0.0803995
-0.0105603
0.0914397
-0.0111026
0.123453
-0.115605
-0.16759
0.283195
0.15656
0.0868388
-0.243399
0.0527259
-0.0437221
-0.00900381
-0.286969
-0.122707
0.409675
-0.124523
0.27126
-0.146737
0.433537
-0.127669
-0.451661
0.157765
0.0284716
-0.0172894
0.187798
0.171615
-0.0965427
0.196583
-0.398204
0.201621
-0.0161909
-0.0126982
0.0287772
0.00359582
-0.0981732
0.0146318
0.0835415
-0.000129673
-0.0235334
0.0236631
0.00685766
-0.393508
0.210789
-0.244105
0.49759
0.0857421
-0.0849737
-0.0689464
0.0164923
0.336409
-0.162552
-0.128098
-0.190525
0.0343469
0.0420844
0.082743
-0.124827
-0.47556
0.129079
0.231943
0.0684828
0.0837284
-0.00847338
-0.075255
-0.02347
0.138969
0.176159
-0.400721
-0.0663826
-0.0519523
-0.0704519
-0.00761911
-0.383388
0.015458
0.36793
-0.220583
-0.117122
0.12277
-0.18899
-0.0786579
0.00128999
0.188486
-0.38427
0.195784
-0.0777399
-0.00772946
0.0854693
-0.0368289
0.0371977
0.20998
-0.0824127
-0.00143482
-0.0146944
0.17772
-0.150522
-0.174484
0.325006
-0.0387433
-0.0305707
0.000136596
-0.276846
0.161241
-0.00312564
0.0521906
-0.049065
-0.0138605
-0.00434151
0.0481659
-0.00337592
-0.04479
-0.209115
-0.218018
0.427133
0.0280326
-0.0290225
-0.304275
0.176177
-0.0750151
0.143228
-0.0682129
0.0768916
-0.147242
0.0703502
-0.0297121
0.0361774
-0.00646531
-0.402257
0.25497
0.147287
-0.0297331
-0.038188
-0.388964
0.167764
-0.0493216
0.155369
-0.101232
-0.0308046
-0.366994
0.131701
0.145974
0.056646
-0.20262
0.0928027
-0.310812
-0.0914448
-0.108364
0.264924
-0.171295
0.0665709
-0.0848578
0.0984028
-0.013545
0.172776
-0.412812
0.240036
0.102006
0.0672252
-0.169231
0.0633517
0.051187
-0.065659
0.0704711
-0.30948
-0.0211041
-0.00236482
0.0722367
-0.149206
0.0769695
-0.066598
0.138547
0.370405
-0.181919
-0.0371895
0.0381974
-0.00100796
-0.0946442
-0.075044
-0.0860943
-0.0568448
0.0692333
-0.0123884
0.00443581
-0.336633
0.186111
0.136294
0.235487
-0.100048
0.0877532
-0.429564
0.0349925
0.394572
0.369109
-0.173597
-0.195511
0.0461618
0.0785455
-0.233083
-0.245731
-0.253755
0.0618686
0.191886
-0.0472892
0.0664659
-0.0191766
-0.0825269
0.0741095
0.0084174
-0.137789
0.092868
0.0449212
0.00876237
-0.0656072
0.126434
0.149211
0.0633887
-0.116753
0.0533647
-0.00688512
0.0256675
0.015891
-0.0237606
0.119577
-0.0958162
0.0330171
-0.0286021
-0.004415
-0.0856461
0.077864
0.00778208
0.428987
-0.23212
-0.196866
-0.157884
0.0689147
-0.479007
0.207546
0.0928418
-0.00970565
-0.0831361
-0.0791001
-0.0249279
0.104028
0.240993
0.184173
-0.425166
-0.00669244
0.0649415
-0.200388
-0.166606
-0.11585
0.218165
-0.0809673
0.188525
-0.107557
-0.0302506
0.0280902
0.00216035
-0.0370594
0.0073473
-0.142411
0.0318293
0.110582
-0.00129503
0.0578611
-0.056566
-0.239466
-0.177338
0.416804
-0.0730158
0.082556
-0.00954018
-0.157345
0.222065
-0.217368
0.458362
0.306136
0.170055
-0.0581893
-0.00209372
0.060283
0.180055
-0.384907
0.204853
-0.0347104
-0.1077
0.0315644
-0.112124
-0.161261
0.0862165
-0.0625549
0.0294703
0.0330846
0.156537
-0.116843
-0.0396939
-0.152085
0.0736574
0.0784275
-0.0195628
-0.00154126
0.147578
-0.0999402
-0.0476377
0.0122696
-0.0757596
0.0466454
-0.104399
0.0533606
-0.0564863
-0.2253
0.146202
0.0790985
-0.00775943
0.0462383
-0.0877836
-0.116741
-0.0198932
0.0690938
-0.0492006
-0.220142
0.00194379
0.128056
0.0184287
-0.146485
0.0085527
0.0776123
-0.0734845
0.139628
-0.0661436
-0.0738017
0.0657559
0.0080458
0.00178756
-0.130237
0.245214
-0.451488
0.179189
-0.00475551
-0.0206873
0.0254428
-0.0540449
0.057609
-0.00356409
-0.0548883
-0.025339
0.0234362
-0.0334101
0.0099739
-0.15604
-0.0692599
-0.443096
0.218099
-0.418013
0.0194786
0.398535
0.181755
0.129126
-0.310881
0.00155149
0.189521
0.161696
-0.0848045
0.013881
-0.193973
0.131604
0.0623687
-0.114813
0.0910522
0.0647784
-0.0603313
-0.0141443
0.0744755
-0.0448531
1.03772e-05
-0.174791
0.373074
-0.198283
0.120546
0.0270319
0.157607
-0.0984415
-0.0591656
0.000805334
0.0904573
0.0331453
-0.314372
0.281226
-0.152343
-0.0499117
0.202255
-0.23846
-0.213028
-0.0793336
0.0859304
-0.00659677
-0.0222845
-0.000758639
0.0230432
-0.0948936
0.240868
0.322626
-0.289481
0.0672737
-0.00120578
-0.0660679
0.0886936
-0.0763056
-0.012388
0.168971
-0.254891
0.0859204
0.195051
0.0267228
-0.0263051
-0.000417694
-0.348607
0.113995
0.234612
0.00704697
0.0128804
-0.270406
0.499015
-0.228609
0.0583295
-0.0646405
0.006311
0.0174884
0.0180838
-0.0355722
-0.0881579
-0.0729562
-0.0849275
-0.100251
0.065232
0.0350191
-0.569361
0.357486
0.211875
-0.0171397
0.00327919
0.0581772
-0.197076
-0.181141
0.378217
0.111787
-0.235682
-0.115139
0.0648418
0.0502973
0.15475
-0.0558418
-0.092867
0.0264844
-0.0783101
0.086151
-0.452807
0.276073
0.176735
-0.43325
0.197521
0.235729
-0.00751126
0.0682049
-0.0606936
0.00915354
0.034635
-0.0437885
-0.207586
0.366611
-0.159025
-0.214137
-0.044389
0.414029
-0.251449
-0.162579
-0.087064
0.0784467
0.00861726
0.00751162
-0.0678429
-0.120506
0.315495
0.0702512
-0.00490134
0.153747
0.142569
-0.296316
-0.022532
0.022532
0.25276
-0.430098
0.00931908
0.0672667
-0.0765858
-0.0361059
-0.0641452
0.0377873
-0.0337011
-0.00408623
-0.0926583
-0.0925944
0.0211066
0.0119105
-0.182869
0.0680563
-0.318677
0.199296
0.119381
-0.0113479
0.0857862
-0.0744383
-0.0383816
-0.123242
0.265686
-0.142443
0.0105271
0.284738
-0.175497
-0.538891
0.319297
0.219594
0.0244475
-0.0313326
-0.316861
0.0415182
0.275342
-0.0311384
0.0357288
-0.00459042
0.0387416
-0.0153054
0.0242747
0.042619
-0.0353699
0.0906912
-0.082052
-0.0086392
-0.0371176
-0.032114
0.132649
-0.270639
0.13799
0.126951
-0.0521326
-0.0748187
-0.0993368
-0.0384524
-0.0366205
-0.0823928
-0.110624
0.194624
0.123513
-0.318137
-0.153331
0.28598
-0.057581
-0.271396
0.328977
0.20263
0.167776
0.0024007
-0.00245786
0.00923112
-0.0569139
0.0476828
-0.219934
0.422025
-0.202091
0.372445
-0.175862
-0.0932874
0.204609
0.214601
0.0826856
0.105858
0.0738204
0.0531309
0.00689764
-0.0723036
0.0460894
-0.0416166
-0.00447277
-0.0654318
0.0795398
-0.014108
0.188095
0.221129
-0.409224
-0.164733
-0.1719
-0.0842003
-0.00618034
-0.0830084
0.214265
-0.131257
0.126384
-0.108301
0.0636486
-0.315483
-0.223408
-0.0740416
0.196811
0.410408
-0.133794
-0.133989
0.0548891
-0.0189981
0.0715459
-0.0525478
-0.0200567
0.022918
-0.00286134
-0.00128196
0.0288615
-0.0117072
0.0550078
0.00178
0.000598886
-0.00237888
-0.541325
0.344333
0.196992
0.0576668
-0.00693815
-0.0312476
0.0381858
-0.170746
0.269904
-0.0851811
-0.097688
0.000971012
-0.153314
0.376589
-0.173959
-0.0605364
0.0105703
0.00721633
-0.318217
-0.251144
-0.0741822
0.0664668
0.00771533
0.132713
0.0879557
-0.220669
-0.138504
0.27677
-0.138266
-0.0675292
0.0608368
-0.205124
-0.143483
-0.0435921
0.129645
-0.0860533
0.0344271
-0.226973
0.192546
-0.0395255
-0.00112055
0.0406461
0.12751
-0.201552
-0.0267245
0.0532482
-0.0265237
-0.0661762
0.0188869
-0.00720203
-0.054054
0.0612561
-0.180625
0.142942
0.0376823
0.0445518
-0.0270634
0.0695817
-0.0804283
0.122496
0.111967
-0.234463
-0.125292
0.262748
-0.137457
0.0539518
0.00157574
-0.0555276
0.00238362
0.050977
0.392882
-0.212827
-0.0559383
0.0644348
-0.0261218
-0.0320854
0.0582072
-0.267377
0.132629
0.134748
-0.0819411
-0.0928105
0.174752
0.115356
-0.162071
0.0467145
-0.0287623
0.000778533
0.0279838
-0.252744
-0.200063
-0.141291
0.295039
-0.0757306
-0.003603
0.116451
-0.191957
0.0755063
0.00140076
-0.0932386
0.0918379
0.201142
-0.421076
-0.00269135
0.0610208
0.0862214
-0.371062
0.28484
0.0972202
-0.277268
0.180048
0.00471281
-0.00661298
-0.00897372
-0.0638788
0.0728525
-0.32707
0.269489
0.216669
-0.402878
0.186209
0.0845209
-0.0963793
0.29124
-0.114054
-0.0549779
0.119071
-0.0640931
-0.549773
0.320153
0.229619
0.0601623
-0.0577786
0.0759848
0.0274262
-0.0267954
-0.000630848
0.31764
0.158551
-0.445896
-0.133927
-0.0969723
-0.463207
0.026918
0.00827659
-0.0271492
0.0246738
0.0024754
-0.0409238
0.0600317
-0.0191079
0.00222592
-0.0926902
-0.00188149
0.0945717
0.000230768
0.0542481
-0.0975547
0.0433066
-0.0943231
0.0836011
0.010722
-0.326207
-0.223566
-0.0714956
0.349415
0.00415809
0.0296907
-0.0338488
-0.00644973
0.0588513
-0.311763
-0.00509741
-0.0750051
0.23249
-0.379351
0.146861
0.0634449
-0.0218333
-0.0416117
-0.16927
0.394283
-0.225012
0.322017
-0.224797
0.280375
-0.0813101
-0.199065
-0.029392
-0.0341159
0.0635079
0.0328931
0.0243505
-0.0572436
-0.24443
0.0567672
0.187663
0.45004
-0.230352
-0.219688
0.245506
0.204534
0.0441737
-0.00610627
0.0591457
-0.153185
0.0596529
0.0935321
0.0663463
0.0632242
-0.078923
0.0714093
0.00751369
-0.137166
0.165227
-0.0280612
-0.399565
0.219868
-0.0560112
-0.00133838
0.0277152
0.0662728
0.0690279
-0.135301
-0.200388
0.388483
0.243534
0.174046
-0.41758
0.151338
0.105476
0.0935484
0.0629884
-0.00371063
-0.0503342
-0.0034321
6.12325e-05
0.00337087
0.0530977
-0.0670168
-0.136805
0.0653044
-0.0164173
0.176117
-0.353342
0.177225
0.0100534
-0.387422
0.377369
-0.0686521
0.117152
-0.234697
0.00654876
-0.00402727
-0.032644
0.0278885
-0.000979699
0.0227229
0.0529949
-0.114123
0.0611281
0.0170221
0.0357038
-0.132151
-0.112846
0.244998
0.217001
-0.182574
0.0925927
-0.104577
0.0119844
0.0133811
0.0754828
0.000226649
-0.0264311
-0.222398
-0.17111
0.117458
-0.0540691
0.00173838
-0.0394327
0.0376943
-0.101394
0.234107
0.00045157
0.02657
0.000856249
-0.390671
0.221401
0.536553
-0.302656
-0.233897
0.102863
0.019252
-0.403926
0.221299
0.182627
0.156475
0.00326532
0.0412865
-0.0440729
0.0281681
0.0159047
0.00467174
-0.0184138
0.013742
0.00636043
0.0608751
-0.0672355
-0.0765127
0.0793323
-0.0028196
-0.0214794
-0.0274403
0.000420149
0.0270202
-0.341164
0.212994
0.128169
0.102599
-0.0210628
-0.0815364
-0.326865
0.162133
-0.145946
-0.0346785
0.0200967
-0.0231866
0.00308988
0.42461
-0.181076
0.0578745
0.000674368
-0.0585489
0.188013
0.103227
0.135377
-0.00321949
0.0517725
-0.0466177
0.0967479
0.0847878
-0.181536
0.536405
-0.314087
-0.222318
0.0970572
0.00912092
0.0882553
-0.264362
-0.0649707
-0.00495886
0.052289
0.00166282
0.247086
-0.159131
-0.0755214
-0.0171688
0.00321834
-0.511502
0.32996
0.181542
-0.0346755
-0.0827085
0.117384
-0.0530768
-0.0552243
-0.192033
0.376206
-0.186436
0.279274
-0.0928383
-0.224872
0.215223
0.00964967
0.00260499
-0.0483784
0.0578561
0.30735
0.218462
-0.450583
0.108712
-0.107311
0.00829199
-0.00357918
0.465271
-0.0716935
-0.393578
-0.111947
-0.192327
0.0106365
-0.0106365
0.178746
-0.375822
0.17107
0.223212
0.0575513
-0.0602427
-0.0243604
-0.00307993
0.0634855
-0.0062033
-0.0572822
-0.41568
0.198312
-0.189237
-0.210328
-2.51832e-05
-0.109258
-0.158119
-0.199134
-0.197611
0.396745
-0.00309025
0.0310529
-0.0279626
-0.0809609
0.091557
-0.0105961
0.00102026
-0.0193658
-0.0423348
-0.0283162
0.111874
-0.0835583
-0.00112108
-0.243309
0.0790849
0.0523691
-0.131454
0.130915
-0.288676
0.157761
-0.0804896
0.0102175
0.322336
-0.14622
-0.00139261
-0.0165732
0.112168
-0.0543505
-0.0578171
-0.0522015
-0.119549
0.17175
-0.0303918
0.0301882
0.000203599
0.00529026
0.0618312
-0.0671214
0.0436638
0.0630048
-0.106669
-0.0816104
0.0554886
0.104103
-0.0511078
-0.151763
0.0585248
0.148725
-0.235077
0.100209
0.134868
-0.408485
0.219248
0.0532655
-0.203245
-0.187077
-0.0843907
-0.0610146
0.0849119
-0.132278
0.299576
-0.167297
-0.0299657
0.0317041
-0.0568977
-0.0537273
0.110625
0.021138
-0.0242282
0.0384013
-0.0501086
0.0614303
-0.125245
0.0638151
-0.0592623
0.0667739
-0.0726323
0.365878
-0.265321
-0.246182
0.145784
0.0861238
-0.231908
0.0554126
-0.0618624
0.00307554
0.120401
-0.215881
-0.0987501
0.248981
-0.150231
-0.0327455
0.0326233
0.000122158
-0.0954991
-0.172671
0.26817
-0.169686
-0.172703
0.342389
-0.232875
0.0755298
0.0547953
-0.0609016
0.154965
-0.0983189
-0.0140278
-0.040882
0.0549097
-0.254586
0.16327
0.0913162
0.0937977
-0.138679
0.0448816
0.0287751
-0.030057
0.168528
-0.266761
0.171262
-0.370401
0.162814
-0.476348
0.189379
-0.00260059
0.00264348
-4.28887e-05
0.0433776
0.0141786
0.0173167
0.00280392
-0.0201207
-0.193684
-0.0267137
0.0112706
-0.0200013
0.00873078
-0.00625276
0.0273907
0.00257689
-0.0326362
0.023131
-0.0030343
0.11144
-0.0677759
0.0270267
-0.0276743
0.00064767
0.27148
-0.122206
-0.149274
-0.14259
0.0497536
-0.0978376
0.156771
-0.0589335
0.0878601
-0.0748588
-0.0130013
0.0551617
-0.0623637
-0.121957
0.0438435
0.0648685
-0.0769128
-0.0748506
-0.0230232
0.0554059
-0.0854805
0.275992
-0.190512
0.15996
-0.314899
0.154939
-0.0295062
-0.00323935
-0.39934
0.198952
0.197654
-0.0115205
0.0409908
-0.0742677
0.205712
-0.131444
-0.089136
0.0802834
0.00885268
-0.000641324
0.129463
-0.203731
0.134813
0.0332722
-0.168086
0.152608
-0.017795
-0.258635
-0.0825293
-0.0258013
-0.0893307
-0.0526508
0.120876
-0.0682252
-0.53321
0.317328
0.215882
-0.0523549
0.0230363
-0.0363427
0.0332712
0.00307145
-0.0590568
0.0683759
0.104856
-0.180566
0.0757099
-0.0298682
0.00110583
-0.0326486
-0.00687697
0.0267297
-0.110677
0.0839476
0.303241
0.118379
0.173661
-0.29204
-0.044335
-0.0203438
0.0646788
0.294253
-0.210135
-0.0841178
0.221447
0.315106
0.108582
-0.24368
0.135098
0.166057
-0.298335
0.100529
0.170951
0.398938
-0.214484
-0.237349
-0.105801
0.0447322
0.0610689
-0.303364
0.506075
-0.202711
0.336111
-0.326057
0.00495968
-0.0720392
0.1516
-0.298374
0.158313
0.520848
-0.200694
0.125739
-0.276178
-0.0148142
0.290992
-0.217665
0.0837388
-0.0965603
0.242344
-0.368923
0.19499
0.173933
-0.00474288
-0.0315998
0.0998088
0.0663204
0.00393076
-0.42939
0.19093
0.177637
-0.0611869
-0.0784393
-0.0707669
-0.190921
0.0982631
0.106245
-0.0795148
0.023703
-0.14736
0.0405428
-0.02415
0.00775079
0.0102151
0.0265842
-0.0279226
0.407528
-0.236124
-0.171404
0.140394
-0.0612118
0.020288
0.0822546
-0.0551679
-0.0270867
0.00353336
-0.203249
-0.196092
-0.142874
-0.144624
0.0764555
-0.163859
0.0874037
0.143086
-0.273654
0.130568
-0.00887649
-0.0360075
0.044884
-0.00077488
-0.020266
-0.142659
0.274388
-0.13173
-0.393215
0.117037
0.0256869
-0.0266666
0.0151823
-0.0105105
-0.0757367
0.0901667
-0.01443
0.0179251
0.0702226
-0.0361414
0.00500306
0.00247081
-0.00234133
-0.000129477
-0.00272302
-0.191604
0.194327
-0.0758863
-0.0655172
-0.0816484
-0.0128554
0.00933624
0.0832565
-0.0695731
0.0748634
-0.222603
0.127709
0.0953153
0.110124
-0.205439
0.0525763
-0.0196832
0.0315758
-0.0846526
-0.282877
0.243471
-0.40983
0.166358
-0.231717
0.131085
0.100632
0.220701
0.300146
0.17515
-0.0470938
-0.0014539
-0.0305595
0.0586751
-0.122454
0.063779
-0.19216
0.301981
-0.109822
-0.0848051
-0.281556
0.115289
0.166267
0.107817
-0.170221
-0.0648567
-0.0279874
-0.0160855
0.0282842
-0.00171426
0.106943
0.125001
-0.231944
0.0954002
-0.193549
0.0981493
0.00582947
0.0576155
-0.175695
-0.219739
0.0875875
0.1861
0.284282
-0.153368
0.00197127
0.026313
-0.177034
-0.0538698
-0.0723013
-0.0594146
0.131716
-0.213566
0.143153
0.0704124
0.000397117
0.00876406
-0.00916118
-0.309251
0.263414
-0.132569
-0.130845
0.00549853
0.0286998
-0.122544
0.106561
0.0159831
0.0325077
-0.443437
0.378796
0.0646407
-0.023226
0.00094148
0.184082
-0.383216
0.159167
-0.285772
0.126606
-0.0244571
0.00366812
0.0207889
0.207629
0.121261
-0.32889
0.0220481
-0.022823
0.224251
0.197775
-0.00302583
0.0605772
0.0379586
-0.0357034
-0.00225519
0.0778227
-0.0900311
0.0122083
0.00467667
-0.0405755
-0.00427763
0.00129276
-0.0798422
0.026134
-0.242211
-0.187179
0.223726
-0.226449
0.411343
-0.187093
-0.0907586
0.00655824
0.427651
-0.239452
-0.188199
-0.0774419
-0.00217047
0.0796123
-0.0822456
-0.0247521
0.0788571
0.00983653
0.168187
-0.342707
0.17452
0.122834
-0.0789901
-0.216133
-0.187793
-0.49764
0.179423
-0.20121
-0.0236621
-0.221502
-0.230159
-0.0726954
0.174702
-0.155189
0.0573515
-0.18324
-0.185683
0.209049
-0.366375
0.157326
-0.0763214
0.0180786
0.0582429
-0.490223
0.0467864
0.0131393
-0.0885415
0.0754023
-0.132272
0.0803615
-0.0338152
-0.0465463
0.334617
-0.200803
-0.133814
-0.00879288
-0.0240627
0.0328556
0.0123722
0.0631425
-0.0376066
0.0417647
0.0864732
-0.0787435
-0.00772964
0.114034
0.0643281
-0.0112304
0.00896859
0.0192111
0.0538518
0.0698145
-0.123666
-0.00871927
-0.000202086
0.00892136
0.394878
-0.15914
-0.235738
-0.0494348
-0.0111016
0.0171242
0.385868
-0.233501
-0.152368
0.0159205
-0.0947561
0.0788356
-0.127381
-0.0983755
-0.032811
-0.00333038
0.0485142
0.0683439
-0.116858
-0.142172
-0.184304
0.326476
-0.086322
0.329793
-0.086073
-0.00468558
-0.158539
0.0749187
0.0836204
0.0314816
0.0488799
0.425981
-0.227868
-0.198113
0.0519465
-0.0713716
0.019425
-0.0955212
0.324795
0.0972797
-0.000859419
0.0114267
-0.0105673
-0.209179
0.0531382
-0.150816
-0.0614615
-0.0446289
0.0467598
-0.103658
-0.0534744
-0.0935575
0.147032
0.0042575
0.0405526
0.0623105
0.328114
-0.124737
-0.203377
0.0715016
-0.0195551
-0.410972
0.207723
-0.248872
0.421044
-0.172173
-0.00888817
0.0871422
-0.0782541
-0.191157
0.111843
0.0793143
0.229603
0.156266
-0.0655656
-0.00834237
-0.108501
-0.0781545
0.0897216
-0.0115671
-0.0325108
0.00298154
0.0295293
0.397602
-0.206008
-0.191594
0.0102741
0.171713
0.223761
-0.395474
0.466846
-0.256554
-0.210292
0.220614
-0.13847
-0.0821441
-0.0116888
0.140332
-0.128643
0.191398
-0.114847
-0.0765509
0.0676543
-0.00615567
0.00474123
-0.0622012
0.05746
-0.102761
-0.0197832
-0.238011
-0.295198
-7.25667e-05
0.0453876
-0.0200496
-0.025338
-0.0250123
-0.00407005
-0.106929
0.314558
0.359494
-0.16487
0.0821051
0.116887
-0.14587
0.197564
-0.0639421
-0.124411
-0.140088
0.128399
0.0739166
0.0794931
-0.15341
-0.214202
0.12906
0.114654
-0.243714
-0.0940204
-0.128583
-0.19745
0.418749
0.134089
-0.0678164
-0.11475
0.257836
-0.124825
-0.164285
0.28911
0.00473375
-0.0830687
0.0472133
-0.0505892
-0.0521377
-0.0536634
-0.0273339
-0.00517692
0.0905498
-0.0127271
-0.0835924
0.0820522
0.0015402
0.19644
0.0364167
-0.0322836
-0.00413309
0.0597133
0.0140641
0.027707
-0.082685
0.142601
-0.0717188
-0.0708818
-0.0762285
0.075975
0.000253537
0.0030983
0.0333184
-0.0662937
0.0111025
0.0551913
0.424991
-0.172231
0.0733847
-0.107364
-0.00946374
0.00376045
0.0169539
-0.0207143
0.0655716
-0.00585823
0.313709
-0.176436
-0.137273
-0.00625372
0.0735274
-0.0621631
-0.165141
0.0473868
0.150937
-0.236418
-0.0805209
0.0899444
-0.00942348
0.0722338
-0.148343
0.118593
-0.0447723
0.130308
0.0610897
-0.052536
0.115105
-0.062569
-0.00127755
-0.00215455
-0.0628442
-0.00340962
0.0662538
-0.120552
-0.138291
0.258843
-0.110748
-0.162096
0.272844
0.239443
0.32752
-0.189169
-0.138351
0.0710831
-0.0665691
-0.00451405
0.143919
-0.206218
0.0622992
0.0845264
-0.0770049
-0.00752153
-0.128138
-0.108273
0.306465
-0.140348
-0.166117
0.449642
-0.0245961
-0.304992
0.0586063
0.246386
0.0666417
-0.00520454
-0.127693
0.0553914
0.0778624
-0.00826919
-0.0695932
-0.150156
0.283613
-0.133457
-0.254786
0.0611022
0.0974216
0.00517768
0.0663563
-0.0850428
0.0186866
0.015031
-0.231881
0.444102
-0.212221
-0.279945
0.159393
0.0443321
-0.0410668
0.179408
0.100967
-0.146231
0.340222
-0.193991
0.089674
0.24373
-0.437283
0.193553
0.00470364
0.0242604
-0.0289641
-0.151012
0.317069
0.0845068
-0.0181505
0.00417592
0.052731
-0.0569069
-0.238218
0.130186
0.0115545
-0.00745084
-0.0286417
0.0360926
0.458656
-0.21315
0.231309
0.210499
-0.441808
0.0623337
0.0526068
-0.114941
-0.156714
-0.158147
-0.00803973
0.0867788
-0.0787391
0.263928
-0.0991368
-0.164791
-0.0527179
-0.00190579
0.0546237
-0.00370388
-0.0746889
0.0783928
0.154784
0.132881
0.0962034
-0.229084
0.00302707
-0.227485
-0.248863
0.000375983
-0.00297658
0.011373
0.0465015
0.165647
-0.290472
-0.0367015
-0.0495072
-0.0469698
0.0517524
-0.00478261
0.0842135
0.037097
-0.0572894
0.0201924
0.267277
-0.402315
0.135038
0.115458
-0.0639926
-0.0514657
-0.086266
0.0105293
0.0413914
0.00399619
0.20896
0.139781
-0.0876275
0.16008
-0.118809
-0.0412713
0.155477
-0.0506206
-0.158594
0.324249
-0.165655
-0.0130891
0.0144871
-0.00139805
0.00572004
0.0875878
0.0676801
0.0282787
-0.00125202
0.375817
0.159751
-0.0307023
-0.129048
-0.178032
-0.140645
-0.0961792
-0.0307421
-0.268015
0.142241
0.140194
0.12322
0.227311
0.309094
0.532145
-0.302919
-0.229225
-0.0547293
-0.0564323
0.00371442
-0.185494
-0.0307152
0.21621
0.119687
-0.242603
0.122916
-0.228798
0.127404
-0.0014869
0.0295195
0.0817901
0.0930522
-0.161417
0.068365
0.00676694
-0.0414789
0.0460527
-0.00457385
-0.107112
0.0545756
-0.357243