/*--------------------------------*- C++ -*----------------------------------*\
| =========                 |                                                 |
| \\      /  F ield         | OpenFOAM: The Open Source CFD Toolbox           |
|  \\    /   O peration     | Version:  v2012                                 |
|   \\  /    A nd           | Website:  www.openfoam.com                      |
|    \\/     M anipulation  |                                                 |
\*---------------------------------------------------------------------------*/
FoamFile
{
    version     2.0;
    format      ascii;
    class       volScalarField;
    location    "100";
    object      k_0;
}
// * * * * * * * * * * * * * * * * * * * * * * * * * * * * * * * * * * * * * //

dimensions      [0 2 -2 0 0 0 0];


internalField   nonuniform List<scalar> 
18649
(
0.000363887
0.000142797
0.000378779
0.000201944
0.0001523
0.00406903
0.00014371
0.000133294
0.000883576
0.000769432
0.000143404
0.000141797
0.000160751
0.000147257
0.0324329
0.00016266
0.000153218
0.000143662
0.010707
0.000142759
0.000141745
0.0280008
0.000285243
0.000193026
0.000461528
0.000283131
0.000374371
0.00683654
0.000148927
0.0793228
0.000174881
0.000173192
0.000153062
0.000166736
0.000148171
0.000168266
0.0251293
0.000201327
0.000143269
0.000147145
0.00414393
0.00015016
0.000214213
0.00752087
0.000651537
0.04936
0.00028974
0.000165443
0.00014383
0.000198655
0.000199877
0.000298703
0.000144165
0.000500573
0.000162848
0.000244186
0.000221352
0.000143843
0.000151281
0.000444049
0.000139889
0.000189379
0.000144226
0.000344953
0.0783565
0.000464279
0.000555088
0.000155188
0.00068707
0.026448
0.000384918
0.000166325
0.000143595
0.000144216
0.00018028
0.00682179
0.00117593
0.000151168
0.0862618
0.000241322
0.000176728
0.000205503
0.000417861
0.00839168
0.000156335
0.000235071
0.000158367
0.000165399
0.000248323
0.0317199
0.0312518
0.000205313
0.000194602
0.00029835
0.000145606
0.000144226
0.000168086
0.00104186
0.000267437
0.000140031
0.000235634
0.000157056
0.00203402
0.000136184
0.000786985
0.000688583
0.000184281
0.0189788
0.000242564
0.000143553
0.000143361
0.000167863
0.000172253
0.000140342
0.000144389
0.00235059
0.0001551
0.000168441
0.000149764
0.000158562
0.000142961
0.000185293
0.0154119
0.000140346
0.000162444
0.000150573
0.000495312
0.000144571
0.00014933
0.000160489
0.000144679
0.000396267
0.000195563
0.000199494
0.000146905
0.0372403
0.00783801
0.0231515
0.00881889
0.00096091
0.000163949
0.000154131
0.000135456
0.000146078
0.000460743
0.000140482
0.000147605
0.000201147
0.000621738
0.000145672
0.0108367
0.000223903
0.000158385
0.000143517
0.000180466
0.00960082
0.000145741
0.000146287
0.000139675
0.0107258
0.000200654
0.000747422
0.000145613
0.010585
0.000342058
0.000146768
0.000272097
0.000578982
0.000168755
0.000139287
0.000159536
0.000145609
0.000139864
0.000153709
0.000195404
0.00050885
0.00051707
0.000145656
0.000642006
0.00118722
0.000141339
0.00073153
0.000204538
0.000145381
0.000146663
0.000200889
0.000159648
0.000182128
0.000141014
0.000146921
0.000154239
0.0144228
0.000222663
0.000163422
0.000203559
0.000139776
0.00020889
0.000205216
0.000273889
0.000165505
0.000147351
0.000144208
0.0128683
0.000143569
0.00014653
0.000144045
0.00020756
0.00132642
0.000151581
0.000143784
0.000140518
0.000152264
0.000139228
0.000165509
0.0833143
0.000168505
0.000148671
0.000153881
0.000146045
0.000287198
0.000241908
0.000297555
0.03834
0.000137085
0.00105569
0.000260254
0.000217098
0.0269249
0.00016427
0.000245593
0.000144835
0.000177839
0.000166011
0.000141916
0.0612935
0.000141285
0.000151143
0.000146622
0.000140526
0.000130563
0.000190992
0.000157844
0.00537451
0.0868225
0.00170541
0.000164302
0.000164113
0.000151105
0.0204138
0.000183458
0.000166882
0.0251837
0.00014466
0.000180531
0.000161705
0.000144599
0.000143684
0.00013981
0.000156551
0.000170497
0.0257639
0.000138022
0.000149235
0.000180085
0.000139522
0.000214663
0.000179648
0.000268285
0.000170016
0.000148693
0.000115262
0.0233894
0.000164283
0.000148627
0.0295558
0.000185711
0.000147196
0.000156919
0.000190987
0.00019036
0.000252381
0.000151164
0.00156042
0.000148363
0.000158277
0.000231918
0.000184969
0.000143994
0.0072997
0.000151979
0.000141465
0.00185883
0.000144704
0.000144551
0.000571297
0.0170648
0.000397062
0.0413666
0.000163465
0.000147091
0.000144215
0.0115086
0.000159618
0.000481202
0.00039104
0.000254092
0.000275648
0.000191919
0.00016491
0.000204101
0.000141517
0.00149529
0.000153279
0.000186499
0.000147888
0.000176998
0.000155119
0.0272936
0.000707374
0.000181682
0.0838108
0.000143014
0.000142082
0.000144951
0.0456736
0.000157341
0.000718855
0.0133195
0.000151691
0.000143744
0.000147911
0.00900344
0.00014092
0.000163282
0.0155701
0.000141436
0.000819599
0.000248544
0.000183104
0.000204966
0.000181416
0.00117937
0.0294843
0.00665562
0.000272959
0.000204197
0.000180554
0.000143172
0.0455392
0.0145193
0.000150798
0.0122459
0.00013775
0.000159864
0.000160984
0.000189607
0.000156468
0.0302077
0.00017879
0.00015571
0.000167666
0.0318685
0.00317183
0.000148065
0.000249903
0.000293336
0.000143467
0.000155781
0.00380412
0.000139733
0.000177677
0.059081
0.000275999
0.000143954
0.0273051
0.000144922
0.012876
0.00617227
0.030269
0.000216573
0.000197271
0.000181387
0.000157898
0.0289171
0.0296718
0.000151453
0.000185128
0.000140335
0.000147701
0.000144108
0.000119121
0.000178667
0.000243496
0.000151617
0.00981055
0.00117214
0.000182739
0.000154434
0.000145072
0.000144148
0.000467795
0.0189381
0.000151355
0.000207911
0.000391313
0.000175939
0.000140285
0.000227147
0.000176983
0.000179419
0.000176105
0.000207337
0.000208433
0.000144715
0.000337191
0.000159462
0.00709313
0.000169091
0.000147888
0.000150146
0.000168832
0.000239958
0.000199615
0.0280327
0.00997133
0.000130356
0.00546564
0.00400436
0.000156402
0.0659542
0.00282652
0.000141315
0.000159247
0.000160624
0.0298704
0.00014349
0.000141902
0.0163841
0.000143263
0.000173513
0.000141239
0.000132248
0.000144783
0.000180766
0.000144876
0.000144414
0.000147758
0.000211526
0.0073284
0.00015648
0.000145846
0.000599037
0.000145754
0.000476317
0.000168375
0.000165025
0.000141911
0.000140844
0.000312651
0.000234503
0.000146218
0.0360925
0.000143411
0.00061039
0.0562662
0.000155022
0.000132446
0.000162172
0.000144085
0.000151004
0.000176067
0.000146554
0.000165938
0.00667298
0.000199077
0.000190057
0.000143664
0.000144799
0.000173675
0.000238559
0.000174114
0.0855204
0.000157485
0.00013963
0.000212761
0.0122885
0.000141635
0.00544712
0.0579291
0.0001494
0.000173929
0.0164646
0.000190655
0.00255308
0.000139625
0.00378691
0.00769484
0.000146302
0.000136771
0.000147119
0.000201816
0.000150457
0.000148101
0.000155828
0.000292294
0.000239571
0.0310084
0.000144523
0.000140339
0.00461447
0.000176988
0.000144466
0.00016877
0.000223045
0.000196975
0.000172746
0.00717536
0.000141724
0.000214578
0.000140247
0.000139956
0.000161676
0.000144257
0.0359782
0.000139894
0.000218467
0.0162072
0.00572842
0.000241143
0.000191857
0.000140284
0.000107513
0.000142101
0.00013901
0.000234349
0.000147486
0.000136497
0.000181466
0.0244119
0.00014378
0.0137442
0.000176119
0.0424743
0.000141682
0.000191263
0.00117438
0.0295262
0.000156311
0.00010203
0.000163053
0.000173393
0.000434405
0.000182513
0.000210827
0.000144441
0.00170838
0.00036168
0.011101
0.000141755
0.0001433
0.0521102
1.30817e-05
0.000224775
0.000172221
0.000143083
0.000152177
0.029209
0.00020534
0.000168657
0.000177979
0.000160073
0.000192947
0.000191084
0.000139409
0.0102636
0.000133878
0.00661876
0.000150573
0.00473922
0.000144139
0.000146121
0.000141243
0.0356542
0.000232591
0.000135567
0.000150498
0.00014372
0.00262293
0.0601285
0.000141682
0.000140957
0.000146299
0.00019622
0.000196563
0.00262385
0.000150694
0.000143875
0.00464922
0.000159751
0.00190312
0.000166561
0.0659208
0.00014148
0.000147018
0.000139525
0.000527447
0.000183077
0.000881793
0.000143767
0.000504459
0.000144721
0.0635288
0.00022831
0.000141385
0.000222227
0.000146241
0.000139298
0.00014639
0.0291814
0.000195795
0.000139988
0.000261215
0.000232558
0.000143685
0.000218428
0.000165268
0.00648332
0.0367825
0.030042
0.0262746
0.00014393
0.000642671
0.000361353
0.000148863
0.000197774
0.000509155
0.000170365
0.000426159
0.000151429
0.00657794
0.000144094
0.00354822
0.000270289
0.000142036
0.0288026
0.000151094
0.0001654
0.000142382
0.000151753
0.0175767
0.000162669
0.0288029
0.00832785
0.000204934
0.000143932
0.0894046
0.000203408
0.000146805
0.00944263
0.000144272
0.000152471
0.00838229
0.000169311
0.000188941
0.000210916
0.000139587
0.000178977
0.000220084
0.000150949
0.000140439
0.00466942
0.000164472
0.000140859
0.00013974
0.00575477
0.0141251
0.000194028
0.000232633
0.0139786
0.00213189
0.000143661
0.0188863
0.000580749
0.000143817
0.000193014
0.000139631
0.000177053
0.000143884
0.00015662
0.000141693
0.000139174
0.000143888
0.000227376
0.0313713
0.0120856
0.000164928
0.00020038
0.00021437
0.000135519
0.0287233
0.000197926
0.000347825
0.000153987
0.000209489
0.000142145
0.00905459
0.000181987
0.0264778
0.000145139
0.0608406
0.0040087
0.000167048
0.0380148
0.000145151
0.081511
0.000184204
0.00018581
0.000351217
0.000139388
0.000155896
0.000140057
0.000160156
0.000228059
0.0342449
0.000142167
0.000230124
0.054591
0.00215945
0.000139098
0.000217258
0.000139652
0.000142164
0.00435924
0.000456302
0.000173202
0.000195345
0.000154893
0.00628408
0.000161375
0.000150356
0.000251422
0.00019276
0.000151704
0.000187968
0.000202875
0.000143856
0.000146816
0.000136548
0.0332529
0.000178891
0.000139014
0.000149673
0.00862883
0.00413586
0.00019771
0.0302291
0.000154382
0.00441447
0.000148019
0.000141135
0.000143117
0.0001774
0.000209337
0.000143905
0.000143867
0.000141108
0.00107613
0.000151749
0.00126829
0.0168154
0.0001436
0.000183466
0.00268002
0.000141763
0.000136241
0.000135836
0.000134424
0.000271525
0.000173864
0.0814111
0.000186754
0.000197131
0.000167241
0.000143769
0.000153424
0.000165616
0.000258407
0.0615267
0.000159238
0.000537571
0.0863096
0.0032545
0.000145869
0.000143771
0.00170597
0.000177375
0.00538071
0.000160007
0.000208311
0.000418042
0.0179654
0.00101502
0.000197177
0.000138883
0.000149821
0.000159764
0.000140748
0.0553878
0.000286699
0.000172333
0.000144685
0.00017116
0.000190183
0.000876325
0.00292916
0.0303552
0.000145364
0.0421604
0.000142385
0.000146987
0.00015779
0.000152753
0.000148945
0.00027428
0.000140828
0.00018669
0.000170489
0.000143518
0.000146595
0.000205574
0.000298151
0.0326682
0.000170515
0.0259811
0.000150114
0.000194267
0.000209061
0.000213795
0.000149131
0.000150348
0.000130527
0.00701709
0.000151453
0.000158422
0.00015729
0.000168532
0.000134657
0.00029193
0.000191377
0.000169894
0.000125976
0.000139791
0.000186061
0.000207499
0.00595348
0.000139728
0.000160746
0.000141935
0.000161383
0.000148708
0.0415185
0.000160052
0.00019235
0.00016458
0.000161401
0.000139858
0.000147548
0.000201266
0.000135919
0.000160221
0.000186835
0.0284934
0.00629148
0.0276052
0.000170444
0.0001439
0.000139476
0.084146
0.0001359
0.0204364
0.000176306
0.0323528
0.000138453
0.0571075
0.000738006
0.000144736
0.000166557
0.00645018
0.0823857
0.0001619
0.000175881
0.000144098
0.0317745
0.0714174
0.000191706
0.0307863
0.000153028
0.000147546
0.00015051
0.000144122
0.000150173
0.000135038
0.00847126
0.00690063
0.000138282
0.000142339
0.000141918
0.000157973
0.000139309
0.0115747
0.00051461
0.000201445
0.00013691
0.00014266
0.000134864
0.0376305
0.0330853
0.000680188
0.0120513
0.000154174
0.000365148
0.000564526
0.033417
0.00013787
0.000155817
0.000234314
0.000155298
0.0817042
0.000140844
0.000171
0.000142966
0.000183063
0.00020602
0.000145431
0.000156729
2.55584e-05
0.000155672
0.00019404
0.000313411
0.00110697
0.000191159
0.000502839
0.000144031
0.000185343
0.000197805
0.000161071
0.000160785
0.00711444
0.000669768
0.0843314
0.0265043
0.000149451
0.00015343
0.000183883
0.00015172
0.0597488
0.000275809
0.000135428
0.000164246
0.000297331
0.000144994
0.000370454
0.000150327
0.0362417
0.0842947
0.000195289
0.00154713
0.000175267
0.000205148
0.000164922
0.0258236
0.00568379
0.000168376
0.000400203
0.00449717
0.000141492
0.000136105
0.000144001
0.0287618
0.0471496
0.000389633
0.000138888
0.000210126
0.0390341
0.000153949
0.000132765
0.000144193
0.0307174
0.000144497
0.00016108
0.055871
0.088225
0.0001408
0.000233749
0.000142762
0.0233018
0.000133573
0.000145438
0.00864787
0.000459124
0.000374302
0.000135156
0.000143719
0.0275115
0.000148925
0.000163895
0.0814601
0.000444759
0.00014978
0.000142416
0.000146724
0.00622347
0.0633006
0.0171445
0.000212167
0.000156932
0.000204407
0.000150845
0.000805585
0.000194481
0.0517314
0.000200926
0.000164095
0.0749281
0.0293933
0.0207116
0.000173005
0.0350071
0.000135937
0.000157958
0.0378403
0.000203258
0.000173401
0.000151124
0.000144849
0.000526461
0.000155208
0.0112083
0.000147447
0.0223908
0.000142244
0.0182884
0.000181382
0.0600967
0.000155398
0.000150035
0.0188635
0.000188346
0.000139804
0.00347152
0.0370863
0.000169255
0.000150722
0.00295441
0.000177354
0.000310561
0.000142337
0.0316724
0.000164188
0.000165606
0.000143868
0.0130239
0.000143977
0.000136601
0.000140865
0.0295533
0.000311792
0.000143526
0.000141379
0.00015319
0.0286076
0.000157917
0.000146905
0.00048096
0.0158203
0.080791
0.000152452
0.000139032
0.0428241
0.000140182
0.000238813
0.0209067
0.000141668
0.000133835
0.000145703
0.0183165
0.000361659
0.0566775
0.000135538
0.000141873
0.00249187
0.000181702
0.000250865
0.0835034
0.00825271
0.000176091
0.000144824
0.0408153
0.000148167
0.000134655
0.000139253
0.000143019
0.0053204
0.000161685
0.0291909
0.000145186
0.0393061
0.00557529
0.000133015
0.000183476
0.000247789
0.000471738
0.00014458
0.00019128
0.000180623
0.000172036
0.0631054
0.000206565
0.0134133
0.00557857
0.00130654
0.0276431
0.000147129
0.000150459
0.000173498
0.00018056
0.00014645
0.000140624
0.000224891
0.000162902
0.000102363
1.07406e-05
0.000144872
0.000919944
0.00591174
0.000157406
0.000158551
0.0331786
0.000163719
0.0397689
0.0319313
0.000145772
0.000144942
0.0216798
0.00519368
0.0328706
0.00015085
0.000143483
0.000140377
0.000167034
0.000140864
0.00654207
0.000146824
0.00107221
0.00458942
0.000156983
0.0001594
0.000146267
0.00451374
0.000157109
0.000200491
0.000156436
0.00552076
0.000142244
0.000189215
0.000141156
0.000234686
0.000158483
0.00492111
0.000155255
0.00014367
0.000190294
0.000142867
0.000133896
0.000141712
0.000145813
0.000143777
0.0265685
0.00426025
0.000139756
0.00822387
0.000162123
0.000148692
0.000183296
0.000140821
0.000135179
0.00011854
0.000140453
0.000194613
0.0306755
0.000167923
0.000397095
0.047814
0.000141111
0.0223819
0.000145946
0.000200758
0.0307172
0.000152189
0.000145399
0.000159064
0.000198296
0.000154889
0.000141547
0.0220557
0.00015342
0.035753
0.0534384
0.000183273
0.000182285
0.000134185
0.000154575
0.000143583
0.000156061
0.000143792
0.00130813
0.000142455
0.000143178
0.000200012
0.0102291
0.000145937
0.00014125
0.000148447
0.000142375
0.000167226
0.00179266
0.00892939
0.000133
0.0377335
0.00022647
0.00116107
0.00219951
0.0876878
0.000147209
0.000142752
0.000144816
0.000159454
0.000283024
0.000140683
0.0353612
0.000140792
0.000200656
0.00014067
0.000135501
0.00828333
0.000155363
0.00020181
0.000374131
0.00373271
0.00014483
0.00013944
0.000202916
0.00161204
0.000154826
0.0222169
0.000311533
0.000135192
0.000143015
0.000179773
0.000634749
0.000148457
0.000143416
0.000185567
0.000142659
0.000280927
0.0121936
0.00211582
0.0532977
0.000884323
0.024739
0.0159577
0.00111367
0.040508
0.000129269
0.000140971
0.000140914
0.000213779
0.0100194
0.000146729
0.00015077
0.0253654
0.0351831
0.000183516
0.00015065
0.000158627
0.0327975
0.000142421
0.000146972
0.000144757
0.000353914
0.000163599
0.022249
0.000144871
0.000248026
0.000187581
0.00014966
0.000348011
0.00014268
0.000145839
0.000142421
0.000175615
0.00015545
0.000359126
0.049811
0.00014159
0.000133292
0.000141071
0.000139662
0.0185659
0.000147775
0.000141044
0.000177814
0.000143162
0.000147249
0.000140779
0.000156447
9.68896e-05
0.0378095
0.0247054
0.000151064
0.000147444
0.00013757
0.000145726
0.0307522
0.029672
0.000150967
0.000163119
0.000139579
0.0173874
0.000153913
0.00349301
0.000134259
0.0744704
0.000145475
0.000160431
0.00669153
0.000270412
0.0667169
0.00572737
0.0556637
0.000145032
0.02219
0.000152838
0.000197425
0.000512029
0.000141032
0.0375428
0.000140416
0.000134811
0.0262026
0.000139346
0.00014111
0.000231239
0.000179066
0.000141504
0.000169044
0.000147498
0.000139508
0.0290859
0.000141446
0.000150433
0.0835595
0.000143883
0.000566918
0.000144883
0.000144638
0.000142865
0.000142579
0.000544794
0.000178774
0.00268964
0.0332396
0.000196459
0.000141178
0.000136997
0.000139134
0.000407278
0.000157602
0.000144986
0.000155248
0.000143773
9.85683e-05
0.0640503
0.000137326
0.000142347
0.000140766
0.000188997
0.000152761
0.000143525
0.00019403
0.00222176
0.000141777
0.000816648
0.0208172
0.00021187
0.000144518
0.00223095
0.00984583
0.000133176
0.000365396
0.000142562
0.0528039
0.000147412
0.000248293
0.0125684
0.000176063
0.000139042
0.000185284
0.000144534
0.000142583
0.000159899
0.00021074
0.000143837
0.00792882
0.0226817
0.000143774
0.000141639
0.00015681
0.000149155
0.000190378
0.000142463
0.000158013
0.000144575
0.000142062
0.000169611
0.000252792
0.000143164
0.000142084
0.000166309
0.000610569
0.0575573
0.000145712
0.0249233
0.00438074
0.018431
0.000368902
0.000173045
0.000147598
0.00014709
0.000139389
0.000147878
0.0305446
0.000151199
0.000149622
0.000166922
0.000143828
0.00690946
0.000185269
0.0269642
0.000149753
0.0159617
0.000148991
0.00051468
0.000141269
0.000189126
0.00016133
0.000742908
0.000153861
0.000141654
0.000658821
0.000160029
0.000143869
0.000134322
0.00275109
0.0843643
0.000141207
0.000146063
0.0196573
0.000902017
0.000328219
0.000139073
0.000141447
0.0236534
0.0001476
0.00744239
0.00284538
0.000138593
0.000150568
0.000251632
0.000142334
0.000144087
0.000139128
0.000212537
0.000170779
0.000218158
0.000119669
0.00157066
0.000837752
0.0253702
0.0886984
0.000142206
0.000140822
0.000148206
0.00015727
0.000143048
0.0263897
0.000139199
0.0168525
0.000150066
0.000209821
0.000243258
0.000216933
0.000142505
0.000145746
0.000398611
0.000144136
0.000144091
0.000166035
0.00184629
0.0600394
0.000145106
0.000142655
0.000157284
0.000151777
0.000138278
0.000168786
0.0156943
0.000154314
0.0147587
0.000186953
0.000185905
0.00156656
0.000160649
0.000252876
0.000164462
0.000254569
0.000158457
0.000139549
0.000135689
0.000140862
0.000316865
0.000140592
0.000216486
0.000166871
0.0217618
0.000147479
0.000172043
0.000164237
0.0226137
0.0249738
0.000445344
0.000148157
0.000141075
0.000140873
0.000158151
0.000138988
0.0230168
0.000151059
0.000190825
0.014204
0.00014957
0.000142486
0.000142127
0.000527273
0.0607554
0.0155924
0.000172225
0.000139058
0.00618715
0.000440627
0.000144603
0.000140722
0.0127162
0.00348926
0.000148831
0.0148226
0.031862
0.000141656
0.000245612
0.000145415
0.000149396
0.000809974
0.000145814
0.000138319
0.000173825
0.000157984
0.000151767
0.000135682
0.000135747
0.000149748
0.000150723
0.00014926
0.000133849
0.000147277
0.000145947
0.000143686
0.000183428
0.000156987
0.014335
0.000135388
0.0792461
0.000144564
0.00585998
0.000152564
0.000351087
0.000163452
0.000158707
0.000141604
0.000140421
0.000199609
0.000158763
0.000226827
0.000156921
0.000143939
3.97968e-05
0.000157656
0.00189487
8.95312e-05
0.022612
0.0674948
0.000189295
0.00080591
0.000143858
0.000161562
0.000143456
0.000150357
0.000140847
0.000153641
0.00383434
0.000742017
0.000159096
0.000147494
0.000149642
0.0200038
0.000154385
0.000140752
0.000194634
0.000143452
0.000133485
0.00653434
0.000152618
0.000265203
0.00017585
0.000187543
0.000349831
0.035774
0.000152901
0.0041968
0.0264402
0.0173296
0.0142149
0.000150313
0.000138256
0.000140742
0.000169826
0.000143846
0.0166528
0.000156405
0.0358419
0.000148061
0.000173468
0.000137504
0.000147164
0.000259193
0.000262177
0.0642448
0.000145815
0.000133594
0.0258457
0.000321613
0.000142558
0.000288227
0.000133326
0.000162524
0.000157636
0.000143759
0.000456265
0.000251532
0.000170819
0.000147548
5.92457e-05
0.00016158
0.000144507
0.00155783
0.00014745
0.000399435
2.97501e-05
0.000141057
0.000192425
0.000135799
0.00849423
0.0253965
0.000163799
0.000145015
0.000167163
0.000135172
0.0367935
0.000163215
0.000399691
0.000166506
0.00089322
0.000221903
0.000191079
0.0807017
0.00030525
0.00014369
0.000345145
0.000270193
0.000193661
0.0225843
0.000160178
4.65034e-05
0.000171086
0.000159142
0.0277798
0.0152936
0.00100034
0.00987075
0.00667172
0.000143718
0.000168991
0.0901008
0.00432237
0.010391
0.000232025
0.000174913
0.000277982
0.00015059
0.000164865
0.0298801
0.000308277
0.000141153
0.0253182
0.000159072
0.00310521
0.0382086
0.000162724
0.00889449
0.000188046
0.0001556
0.00124827
0.00017447
0.000174868
0.000143744
0.00864367
0.0824472
0.000158176
0.000147313
0.000158745
0.0231012
0.00135849
0.0488359
0.000173771
0.0255235
0.000152829
0.000138258
0.000300769
0.0284689
0.000152953
0.000394854
0.00347953
0.000417724
0.000153271
0.000149085
0.0276083
0.00568239
0.000218414
0.000157476
0.000280191
0.0170368
0.000285074
0.000143499
0.000138623
0.000149336
0.0001454
0.000141843
0.000169895
0.000142529
0.000191451
0.000231965
0.000189969
0.00015572
0.000151159
0.000281927
0.00019506
0.000172727
0.000327974
0.000141542
0.000180198
0.000365077
0.000179909
0.000147349
0.00209186
0.000146418
0.027655
0.000146923
0.000438563
0.000154543
0.000491987
0.00252049
0.000153518
0.000142572
0.0119069
0.0255293
0.000182801
0.000214662
0.000276437
0.0890145
0.0273997
0.0144411
0.0296
0.0377972
0.000771925
0.00382484
0.0001458
0.000143789
0.000146634
0.00013917
0.000157127
0.000133603
0.000221693
0.0311942
0.000198936
0.0261113
0.0289307
0.0730825
0.000333824
0.000182534
0.00252608
0.000398094
0.000160129
0.00015426
0.000141355
0.000141039
0.0268035
0.000167673
0.0740909
0.00015102
0.0247678
0.00025175
0.000153343
0.0109089
0.000149523
0.000160795
0.000141133
0.000139663
0.000394766
0.00394375
0.0001561
0.000261665
0.000142255
0.000136048
0.000287387
0.000141688
0.000134291
0.000449365
0.000187801
0.000184233
0.000171537
0.000309553
0.000144201
0.00235643
0.000142318
0.000143164
0.00995303
0.000189536
0.0327431
0.000153739
0.000136925
0.000136855
0.0365775
0.000783979
0.000167187
0.000157241
0.000138219
0.000146672
0.00014113
0.000162194
0.000710232
0.089841
0.000281192
0.000174095
0.000140938
0.00112791
4.34976e-05
0.000270281
0.000828938
0.0001672
0.0354354
0.000142529
0.000547282
0.0136882
0.073145
0.000149848
0.000158263
0.000136809
0.00402136
0.0131923
0.0342617
0.0375607
0.0160341
0.000173501
0.000135265
0.000506471
0.000166261
0.0887878
0.000163299
0.000138249
0.000188304
0.0376953
0.000142563
0.000135434
0.000144442
0.000186107
0.000141497
0.000184314
0.000119277
0.000182718
0.000269471
0.000139872
0.000159653
0.00889155
0.000720748
0.000148728
0.000155868
0.000549744
0.000185675
0.0636613
0.0247509
0.000143923
0.000145232
0.000145222
0.0175622
0.0310947
0.000141846
0.0272976
0.0243091
0.00556865
0.000139186
0.000147401
0.000177327
0.000141564
0.0786321
0.032676
0.00784499
0.0701162
0.000144331
0.000133182
0.0160693
0.00014485
0.0291658
0.0682227
0.000221516
0.0201444
0.020842
0.000150514
0.000180336
0.000143607
0.0791366
0.000200622
0.0129366
0.00013318
0.000161962
0.0310583
0.000334179
0.000153331
0.000149339
0.00015763
0.000164498
0.000191536
0.0376814
0.000168505
0.000182016
0.0319971
0.000726822
0.000241226
0.037351
0.000211395
0.0158334
0.000215513
0.0362134
0.000144953
0.017918
0.000492029
0.000138187
0.000319878
0.000143584
0.000172722
0.000147941
0.0150354
0.0591959
0.00014848
0.000144175
0.000205777
0.000172038
0.000156991
0.00201164
0.000170339
0.0196856
0.0262502
0.0184084
0.000148069
0.0812579
0.000164909
0.000160062
0.000150625
0.000135745
0.000139533
0.0903775
0.00014786
0.000676481
0.000145358
0.00019039
0.00014561
0.00018173
0.00016639
0.000143608
0.000426657
0.000143505
0.0191934
0.0001425
0.0255993
0.000180376
0.00023321
0.000102772
2.52158e-05
0.000303276
0.000161805
0.000250909
0.0188858
0.000225752
0.000216073
0.000257224
0.000149499
0.000155783
0.00018747
0.0509044
0.0889155
0.0127114
0.000183244
0.000218749
0.000142244
0.0343675
0.0158787
0.0418523
0.000152263
0.000137085
0.000190027
0.000175998
0.000138238
0.000249742
0.00980961
0.000146738
0.000261025
0.000150007
0.0348944
0.00558273
0.0607996
0.000179368
0.000138232
0.000141967
0.0208653
0.000130853
0.000154491
0.000272351
0.000187597
0.000137177
0.000192896
0.000789956
0.000168866
0.000143296
0.000237747
0.000213126
0.000147118
0.000164871
0.0241145
0.0339942
0.000210918
0.000284442
0.0377002
0.000160937
0.000143774
0.00270575
0.000140601
0.000169923
0.00118363
0.000235166
0.000146921
0.000141077
0.000143451
0.000248984
0.073441
0.000145665
0.0348784
0.00015213
0.000277297
0.000275985
0.0169028
0.0250604
7.65271e-05
0.0816433
0.0134846
0.000157851
0.000141284
0.00649817
0.00015152
0.000132237
0.000136948
0.00015092
0.000156489
0.000152897
0.000151537
0.025038
0.000139281
0.000182999
0.0242027
0.000133526
0.0323658
0.000168312
0.000193352
0.00549042
0.000312473
0.0245325
0.000142381
0.000872901
0.000164013
0.000173681
0.000178929
0.000154168
0.000169215
0.000201613
0.000142533
0.000148782
0.000144253
0.000467135
0.000291988
0.000161702
0.000251558
0.000141117
0.000237157
0.000145109
0.000163467
0.0105133
0.000142346
0.000185825
0.017867
0.000142366
5.24877e-05
0.0201029
0.000175917
0.00022879
0.039182
0.000172921
0.000156654
0.000169214
0.000143652
0.000176463
0.00315784
0.000134267
0.000143125
0.0123595
0.0269119
0.0122834
0.0166225
0.000375577
0.000216826
0.00954764
0.0156038
0.000144753
0.000138606
0.000166707
0.0259599
0.00501996
0.000151875
0.000145682
0.000304443
0.000187588
0.000183029
0.000153481
0.000139152
0.000135107
0.0192748
0.000180202
0.0139538
0.000278186
0.000135619
0.0352899
0.000156912
0.000160309
0.0175638
0.0867498
0.0293693
0.000167257
0.000162088
0.0127788
0.000147199
0.000151197
0.00609852
0.000221072
0.0312425
0.0014642
0.000215548
0.000142755
0.000136539
0.000138871
0.0441553
0.0632944
0.000175272
0.000152455
0.000137048
0.0103723
0.045395
0.000144608
0.000458603
0.000184007
0.0245899
0.000311884
0.000136712
0.0306697
0.000133614
0.000173696
0.0181287
0.000145274
0.000155369
0.000819541
0.000155964
0.000152726
0.000170454
0.000284583
0.000145762
0.000210261
0.000138935
0.0258904
0.0269331
0.00362256
0.000141514
0.000161236
0.000191384
0.000255484
0.000473016
0.000144782
0.00021835
0.00017132
0.000138048
0.000458392
0.000226584
0.000164725
0.000143242
0.000143983
0.00017406
0.000138998
0.000167555
0.000154814
0.000165912
0.000473497
0.00806128
0.00282623
0.000162148
0.0165328
0.000272282
0.000154499
0.000171817
0.0177943
0.000141376
0.000173267
0.000140839
0.00016498
0.000151853
0.000223026
0.0248705
0.00178291
0.000150819
0.0711855
0.000177934
0.0763261
0.000808998
0.0273547
0.000160707
0.000151834
0.0328061
0.000144496
0.000143539
0.000141243
0.000148744
0.000142849
0.000143337
0.000188536
0.000138441
0.000195133
0.0578114
0.000157238
0.00245651
0.000165278
0.000182869
0.0259837
0.000140946
0.000152278
0.00269858
0.000235554
0.000161327
0.000141195
0.00949607
0.000138346
0.0106883
0.07308
0.0024787
0.0221198
0.000165983
0.000239482
0.0448247
0.000217234
0.000151107
0.000208354
0.0549592
0.0309065
0.000145834
0.0787845
0.000143931
0.000145474
0.0277475
0.00910854
0.000145223
0.000164358
0.0387988
0.000159754
0.000507091
0.000168844
0.0108973
0.0001951
0.000150223
0.000145519
0.000170575
0.000143654
0.000141212
0.000196687
0.000438938
0.000152397
0.0296934
0.00103515
0.00029555
0.00014911
0.0625534
0.000140169
0.000146421
0.000196815
0.0789135
0.000576952
0.000196981
0.000134115
0.000143498
0.000180873
0.016005
0.000944881
0.000146789
0.00984912
0.029391
0.00138286
0.000145384
0.000162637
0.000146446
0.000144816
0.000213675
0.0491806
0.000146629
0.0788346
0.000203418
0.0169086
0.00259734
0.0555072
0.0741639
0.000143715
0.000569862
0.000154788
0.00015983
8.39746e-05
0.000187963
0.00252726
0.00014121
0.000141902
0.0352719
0.0298473
0.00270931
0.053232
0.00015052
0.000139153
0.000142618
0.000141722
0.00983182
0.00120753
0.000169878
0.000172342
0.000142463
0.00978634
0.000223407
0.000137179
0.00266106
0.000340724
0.0876055
0.000177926
0.000149918
0.000145179
0.00164824
0.0445028
0.000179752
0.0835883
0.000184481
0.000143888
0.000241796
0.000137453
0.0280115
0.000304502
0.000149818
0.000138919
0.0125904
0.000145584
0.00185601
0.000161488
0.000642783
0.000146591
0.000146545
0.000144822
0.000181627
0.0591561
0.000151305
0.00136436
0.000146691
0.00013655
0.000597177
0.0174483
0.0361263
0.000149478
0.000140851
0.000166249
0.0383987
0.00013883
0.000182727
0.00014533
0.000598082
0.000148657
0.0442637
0.00345741
0.000178614
0.000166664
0.000827679
0.000146237
0.00490718
0.000169374
0.000137104
0.000140996
0.00210172
0.0496653
0.0871099
0.000457635
0.000139542
0.0690401
0.000163482
0.000280919
0.000178256
0.000142238
0.000141687
0.000216047
0.0060861
0.040956
0.000146885
0.000253529
0.000143413
0.000141474
0.00013768
0.0317901
0.000111171
0.0364284
0.000148599
0.000146401
0.000448239
0.00014211
0.0239701
0.0404559
0.000145214
0.000140917
0.0260421
0.0640079
0.000145659
0.000218476
0.000162606
0.000157143
0.000149943
0.0428042
0.000134659
0.000144752
0.00820093
0.000146478
0.000221821
0.0837807
0.000180213
0.0226901
0.0853738
0.000139013
0.000144658
0.000143028
0.000146193
0.000138199
0.000146542
0.0107057
0.00018948
0.000160487
0.000149454
0.000144683
0.000277088
0.000142799
0.000141148
0.000148649
0.0190679
0.000187679
0.00014286
0.000140963
0.000157567
0.00014458
0.000167607
0.000151408
0.00014022
0.0157451
0.000146535
0.000156474
0.00152387
0.000143612
0.000157425
0.000299911
0.000139655
0.0590267
0.000141762
0.00265613
0.000184399
0.0736761
0.000167426
0.000914228
0.000184355
0.0519877
0.0734113
0.000149526
0.067961
0.000289974
0.00264172
0.000167947
0.000138155
0.0330343
0.000138981
0.000177447
0.000175417
0.0354365
0.000155089
0.000155607
0.000286724
0.000188323