/*--------------------------------*- C++ -*----------------------------------*\
| =========                 |                                                 |
| \\      /  F ield         | OpenFOAM: The Open Source CFD Toolbox           |
|  \\    /   O peration     | Version:  v2012                                 |
|   \\  /    A nd           | Website:  www.openfoam.com                      |
|    \\/     M anipulation  |                                                 |
\*---------------------------------------------------------------------------*/
FoamFile
{
    version     2.0;
    format      ascii;
    class       volScalarField;
    location    "100";
    object      p;
}
// * * * * * * * * * * * * * * * * * * * * * * * * * * * * * * * * * * * * * //

dimensions      [0 2 -2 0 0 0 0];


internalField   nonuniform List<scalar> 
18649
(
-0.0238067
0.0414533
-0.0215377
-0.0490134
0.0119174
-0.104833
0.0458718
0.00159022
0.00614375
-0.0911223
0.0391271
0.0347907
0.0117355
0.0432721
-0.984289
0.00949017
0.0371257
0.0457542
-0.115155
0.0413704
0.0344538
-0.34889
0.00153796
-0.0262334
-0.0994405
0.00165777
0.000312788
-0.0161233
0.0396882
0.0494519
0.00461768
0.00499756
0.0366164
0.019488
0.0340051
0.043605
-0.880263
0.0199185
0.0390326
0.043626
-0.113045
0.0425197
-0.0433424
-0.038961
-0.00298787
-0.347378
0.00278842
0.0264221
0.0474529
-0.0383947
-0.0408897
0.000602436
0.0194141
-0.0911787
0.00336348
-0.173633
-0.0791384
0.0478625
0.000230075
-0.0104964
0.00579572
0.0331208
0.049918
-0.0964358
0.0299175
-0.0205462
-0.0099199
0.0363312
-0.00327112
-0.377634
0.00114707
0.0207486
0.0453402
0.0497868
0.00349526
-0.0407187
-0.020535
0.0344424
-0.0977624
0.000445274
0.00425602
0.0176202
-0.0916363
-0.103984
0.00218022
-0.154057
0.046254
0.0485563
0.000596192
-0.436686
-1.01164
-0.010089
-0.0312228
0.0417999
0.00875029
0.0187164
0.0420048
0.00200874
-0.0164231
0.00558991
-0.121468
0.00965369
-0.0240059
0.00156347
0.00586919
0.00564264
-0.0836371
-0.494528
-0.171424
0.0452121
0.0362655
0.0221186
0.0500115
0.0224941
0.00911648
0.00354463
0.0361376
0.0200703
0.0147063
0.0471229
0.00478282
-0.00567282
-0.217463
0.02272
0.00140093
0.0428101
-0.107745
0.0294149
0.0400399
0.00509855
0.0464246
-0.101454
0.0394808
0.0469015
0.0332709
-0.550082
-0.0160389
-0.535616
-0.0107329
-0.0049693
0.0295695
0.0174063
0.000410366
0.0319178
0.00288836
0.00468689
0.0484697
0.049756
0.00482972
0.0472543
-0.0139681
-0.0396005
0.017782
0.0453408
0.00332606
-0.00370571
0.0469037
0.0156474
0.0186578
-0.0133185
-0.115992
-0.0254739
0.0475021
-0.00761903
-0.242575
0.0168022
0.00519699
0.0032642
0.0050125
0.00546077
0.0463809
0.0243684
0.0155297
0.0131517
-0.0338099
-0.000889002
0.00404667
0.0466387
0.00422993
-0.114127
0.031882
-0.00404201
0.000491157
0.0163369
0.0344003
0.000704382
0.00351483
0.000624789
0.00507119
0.00322227
0.0365711
-0.0123008
-0.0311886
0.0488535
0.0500122
0.0155833
0.00086381
0.000863869
-0.212307
0.0271892
0.00336163
0.0129025
-0.0189642
0.0454879
0.0317544
0.0247625
0.0475065
-0.0120074
0.0439427
0.0186239
0.00524256
0.0424975
0.00459551
0.0289905
0.112151
0.0274293
0.0434897
0.0375053
0.0151391
0.00316648
0.031928
0.00699918
-0.50888
0.0467123
-0.0288878
0.00515406
-0.0343801
-0.321199
0.0332258
0.0317078
0.00312048
0.00386967
0.0255725
0.0360236
-0.162444
0.0314573
0.0401828
0.0339852
0.004419
0.000117731
0.0532167
-0.0127055
0.0255654
-0.0948865
-0.0309351
0.0298836
0.0489089
0.0328042
-0.47892
-0.00217401
0.0302524
-0.276372
0.030414
0.00319749
0.0282323
0.0170969
0.0180413
0.00557455
0.0321118
0.00502954
-0.902431
0.0045988
0.00506337
0.0500666
0.0045395
-0.0299087
0.00189723
0.00431847
0.00669767
0.00779534
0.00769824
-0.0518083
0.0299481
0.00792913
-0.967352
-0.00650504
0.0428232
0.0387418
0.0508388
0.0334138
-0.193104
0.0409825
-0.0118284
0.0430957
0.00492695
-0.129482
0.0489949
0.0333219
-0.0103875
0.00143122
0.0326664
-0.10644
0.0453766
0.0311081
-0.0917116
-0.465837
-0.0829658
-0.232674
0.0309847
0.0145848
0.00913393
-0.0143879
0.0486802
0.00653487
-0.102051
0.00531863
0.00404707
0.00620486
0.0286461
-0.0539768
0.0331805
-0.0235912
0.00036881
0.00248097
0.0424955
0.00442122
0.0352024
-0.137967
-0.0245898
0.00266136
-0.160872
0.00799799
0.00504237
0.0371813
-0.214198
0.0334063
-0.082144
-0.0246382
0.0137688
0.0472714
0.04357
-0.0551122
0.064219
0.00678864
-0.203313
0.0318467
-0.0201193
0.00518271
-0.00932652
0.0515317
0.0275017
-0.0102811
-0.1681
-0.0470383
-0.105206
-0.0523301
0.0147455
0.0380956
-0.22203
-0.129677
0.0404532
0.018434
0.00463734
0.0296258
0.0291903
0.0188512
0.0335622
-0.0167145
0.0045946
0.00372562
0.0505453
-0.409276
-0.0138924
0.0167583
-0.0140813
-0.0117297
0.00937317
0.00231372
-0.0114593
0.00454297
0.0077073
-0.115495
0.00668203
0.0222223
-0.968141
0.0459547
0.0194136
-0.0117695
-0.0182395
0.0573574
0.0528475
0.00237732
0.029551
-0.0769165
-0.0191554
0.0419639
0.0272659
0.0173647
0.0437524
0.037569
0.0689627
0.00372211
0.00531834
0.0414712
-0.0141356
-0.0193882
0.00469147
0.00396428
0.00757332
0.00818434
-0.124085
-0.154439
0.0446237
-0.0244566
-0.000220073
0.00187103
0.0176202
-0.00845702
0.00262526
0.0166317
0.0148809
-0.0253666
-0.0176377
0.047244
-0.211459
0.0324131
-0.0463825
0.0491717
0.042691
0.042794
0.0155988
0.00517827
-0.0416953
-0.0200245
-0.00979335
0.000116832
-0.0190614
-0.0106971
0.0388565
-0.198222
-0.105704
0.00451041
0.0457461
0.0464459
-0.667864
0.0399196
0.0296736
-0.122326
0.0384399
0.0060029
0.00442411
0.000277501
0.0451535
-0.0038346
0.0470513
0.0300587
0.0427199
-0.0323124
-0.111237
0.0289251
0.0482941
-0.0988469
0.0485908
-0.00074432
0.0168407
0.0148796
0.0358046
0.00819066
-0.249101
-0.171399
0.0116622
-0.780903
0.0396103
0.00520465
-0.197193
0.0147522
0.00019293
0.000384037
0.0292462
0.0424242
0.0309645
0.00498274
0.0298444
-0.0112082
0.00529187
0.0134801
0.0449042
0.029846
0.00845938
-0.270883
0.00744756
-0.0899578
0.0466438
0.00569033
0.00549553
-0.135487
0.0314607
-0.00220648
-0.256163
0.0300609
0.0297342
-0.100456
0.000387663
0.0332825
0.0186522
0.0324794
0.0143438
0.0193434
0.00460738
0.0215103
0.00692175
0.0419486
0.0423424
0.0334505
0.000907218
-0.0151529
-0.349473
0.00295106
0.0169804
-0.0921362
0.00592272
0.0445298
0.00353188
-0.0552818
0.0410916
0.0502811
-0.032505
0.0341669
-0.0606279
0.0166855
0.0203275
0.0481118
0.0476154
-0.451055
0.0200005
-0.00105857
0.100297
-0.406729
-0.00111471
0.0461016
0.00787133
0.0747755
0.00423066
0.007972
-0.151671
0.0426831
0.000274712
0.0294759
-0.52999
0.048525
-0.0126202
0.00435806
-0.241749
0.0320604
-0.0168878
-0.00480651
-0.0128632
0.033276
0.0579873
0.0328305
0.00501625
-0.0268507
0.00412291
-0.0514489
0.0442893
0.026624
0.000211365
-0.00321086
0.0324664
0.0292722
-0.19504
0.0339914
-0.0799862
0.0121561
0.00811501
0.015477
-0.687186
-0.0575557
0.0282741
0.0242537
0.0319341
-0.0226644
0.000434524
0.0132953
-0.0981623
0.00170063
-0.0265292
0.0425984
-0.0931335
0.0492604
0.0218987
0.031299
-0.743385
0.00533003
0.00468036
0.0424716
0.0470201
-0.141312
-0.291089
0.0338011
0.0267778
0.0085874
0.0678039
0.00051042
0.00102668
0.0268591
0.0489016
-0.140531
0.00930497
0.00561657
0.00471763
-0.211927
0.00645809
0.00458363
0.0176001
0.0424362
0.00116527
-0.02322
0.0484195
0.00350117
0.0467127
-0.253833
0.00517149
0.0319934
-0.0689802
0.042317
0.0134042
0.0089257
-0.206958
0.00670739
0.0206197
0.00397477
-0.0889596
0.0294883
0.05613
0.0221926
-0.120799
-0.428257
-0.317151
-0.591382
0.0483114
-0.0260373
-0.113258
0.0378699
0.0444803
-0.0814131
0.0513057
-0.00167964
0.0382939
-0.0636205
0.0491397
-0.370147
-0.00105954
0.0298117
-0.129097
0.00907544
0.0486027
0.00419934
0.0426495
-0.0741243
0.00475054
-0.0855158
-0.0496396
0.0222452
0.0452089
0.00336096
0.019968
0.0304314
-0.126006
0.0306877
0.020996
-0.0513223
0.00153953
0.0471593
0.0257051
0.0188811
0.00477872
0.0509878
0.0449221
0.00790295
0.0238001
0.0238644
0.0270608
0.0149085
0.00652933
-0.0804218
0.010168
-0.147286
-0.0708533
0.0053385
0.0407033
-0.20048
-0.10396
0.0463772
0.00299924
0.0146235
0.00225908
0.0449823
0.0146447
0.0318014
0.0131078
0.0485248
-0.120839
-0.820067
-0.0654165
0.0313417
0.000435499
-0.28052
0.00460791
-0.0390703
0.0212819
-0.000754527
0.0375829
-0.294856
0.00842087
-0.0783168
0.00450226
-0.0289633
0.0313893
-0.114599
-0.0607366
0.0291676
-0.491405
0.00768508
0.00929628
9.54699e-05
0.0142966
-0.0240256
0.00562326
0.00355847
0.0209693
0.00287366
-0.0790767
-0.794276
0.0370623
0.0312999
-0.188975
-0.0920413
0.0131849
-0.00362019
0.00530129
0.0372241
-0.0182145
0.00298333
0.00953133
-0.00977486
0.0355664
-0.0180862
0.00714881
0.00930001
-0.016742
-0.042191
0.00482209
0.0495565
-0.0152481
0.0483554
0.0111414
0.00235768
-0.390932
0.00685377
0.00459978
0.0387429
-0.496165
0.0070216
-0.0161027
-0.209219
0.0365408
-0.082192
0.0424452
0.00440269
0.00453049
0.0492142
-0.0627714
0.0492961
0.00404475
0.00662505
0.0449489
0.00886875
-0.0814273
-0.157151
0.0408454
0.0172587
-0.0485024
0.0284211
0.00461209
0.00467674
0.00150929
0.0562413
0.00455133
0.00227592
0.0265647
0.0216215
0.00174549
0.0462613
0.0390301
0.00291861
0.00419625
0.0911293
-0.120364
-0.15853
0.0167178
0.0234273
0.0144728
0.0469391
-0.156905
0.00677772
0.0992596
0.0432157
-0.0611605
0.00271878
-0.0105059
0.00638265
0.0314736
0.00460154
0.00531818
0.0318497
0.0262981
-0.483603
0.0131544
0.00587731
0.0474904
0.0121628
0.0573757
-0.113609
-0.0116906
-0.833555
0.0361505
-0.583172
0.0391468
0.0483311
0.0326882
0.00373953
0.0149052
-0.0143029
0.0259966
0.0213231
0.0439125
0.0367378
0.0421276
0.00522119
-8.65741e-05
-0.325268
0.0354064
-0.265028
0.0416987
0.000159951
0.00203651
-0.035329
0.0168152
0.0434771
0.000250289
0.00967809
0.0396814
0.00709056
0.00492121
0.00554698
0.00142661
-0.107879
0.0492965
0.0370699
0.0335464
0.0193367
0.0263722
0.0044912
0.0243494
0.00761266
0.00488427
0.0334122
0.00419706
0.0127887
-0.562675
0.0437424
-0.0115089
0.00309831
0.0486739
0.0196717
0.0173547
0.00513921
0.00230433
0.00432331
0.0196006
-0.372963
-0.038074
-0.403834
0.0136601
0.0482332
0.00761014
0.0114609
0.00182752
-0.163981
0.0125725
-0.960977
0.00463929
-0.118092
-0.145603
0.0461711
0.0261519
0.0150415
-0.174397
0.0336097
0.00483196
0.0440747
-0.406249
-0.0983437
0.00605101
-0.444461
0.0394837
0.00964811
0.0148426
0.0226947
0.0386566
0.0021021
0.0153325
0.0191982
0.00436318
0.0384327
0.0335844
0.0291121
0.016906
-0.510163
-0.145621
-0.0130179
0.00247781
0.00275533
0.000370088
-0.64326
-0.288384
-0.00535115
-0.00366694
0.00364688
-0.105598
-0.0931615
-0.736461
0.00268571
0.00498354
-0.0397218
0.0420753
-0.0153515
0.0254401
0.00457917
0.00494753
-0.00922615
0.0193083
0.004535
0.0419478
-0.00516442
0.0121957
0.0303071
-0.00881871
0.00610353
0.0105095
0.00314184
0.0487613
0.0252093
0.0272521
0.00352484
0.0153801
-0.0480935
0.00590779
0.00808261
-0.805916
0.021316
0.00500508
0.0494718
0.0390581
-0.190783
0.0461637
0.004663
0.00211883
-0.26053
0.042951
0.0347618
0.0381123
-0.799697
0.0172912
0.0411977
-0.000139947
0.00451336
0.0543559
0.00454032
-0.0217193
0.0100396
0.0495024
7.64181e-06
-0.0139216
0.0322452
0.00461197
0.0486911
-0.689406
-0.51756
-0.114939
0.00778077
0.0339285
-0.0262155
0.0156896
0.0002501
0.0497156
-0.0155447
0.00457131
0.00316998
-0.49517
0.0022687
0.0273115
-0.0105954
0.0293506
-0.0212387
0.00110024
0.0356352
-0.127438
-0.103447
-0.0960236
0.00195533
0.0450108
-0.427763
0.0323414
0.00468562
0.0260975
-0.103012
0.00522385
0.0075606
0.047964
-0.035148
-0.172112
-0.0442473
-0.00409835
0.0401974
0.0174031
0.0415487
0.0259188
-0.00235032
-0.463869
-0.017334
0.0260371
-0.0781966
-0.0205104
-0.16811
0.00159762
-0.829344
0.00469119
0.0418742
-0.634075
-0.00930246
0.0528856
0.0407989
0.0462068
0.00283448
0.0455649
-0.13312
0.0405038
-0.232091
0.0378185
-0.0124268
0.00397765
-0.147823
0.0582202
0.0419816
-0.056133
-0.0117046
0.00453487
-0.0382653
-0.456982
0.0256971
0.0379466
-0.0480345
0.00576746
-0.115505
0.0390283
-0.00655299
0.0249619
0.00543109
0.031574
-0.0116868
0.00394811
0.00461312
0.00796998
-0.018214
-0.00302105
0.0465127
0.031718
0.042843
-0.425359
0.0320897
0.0479665
-0.108622
-0.150346
0.106203
0.0295955
0.00459011
-0.512999
0.00278183
-0.00136446
-0.238059
0.0270474
0.00100518
0.0460963
-0.0538981
-0.0826729
-0.18046
0.00215943
0.0285518
-0.0152651
-0.00646038
-0.104995
-0.145467
0.0894069
0.00555085
0.0479047
-0.408857
0.04233
0.00196712
0.00271532
0.0436754
0.104959
0.0243812
-0.0187189
0.00875359
-0.63341
-0.0207939
0.000205325
0.00923892
-0.106243
-0.118187
0.0474856
0.0436354
0.0296683
0.00472539
0.0760717
0.00187157
-0.113863
-0.024336
0.00644514
-0.695907
0.0482631
0.0407943
0.00611061
0.00516368
0.0422874
0.0196554
-0.000783313
0.029784
-0.0121627
0.00594722
0.00821808
-0.00606793
-0.0312001
0.0452672
0.044879
-0.90918
0.0485651
-0.573632
-0.485781
0.0463056
0.00382808
-0.00877559
-0.0741551
-0.0110113
0.0205797
0.0394227
0.0181002
0.0478549
0.0267584
-0.154043
0.0422
-0.0065131
0.0862588
0.0391128
0.00742501
0.00270703
-0.0430988
0.00485648
-0.105945
0.0383774
-0.0422544
0.0376209
0.0280826
0.0306909
-0.00178803
0.00029831
0.0225193
0.0318756
0.0451653
0.00015691
0.0418138
0.00177839
0.00470816
0.00873158
0.0471084
-0.184479
-0.0339379
0.0189645
-0.0523807
0.000515024
0.0161865
-0.276019
0.0269163
0.00188555
0.0803761
0.0183815
-0.0303382
-0.0141033
0.0298871
-0.000186058
-0.538755
0.0302605
-0.00807092
0.00361143
-0.0172949
-1.04105
0.0421027
0.00345812
0.0428941
0.00299645
0.00384735
0.00462948
-0.238399
0.00496993
-0.242037
-0.0867627
0.00270396
-0.00650187
-0.0783586
0.0362227
0.0468769
0.0459708
0.0477372
0.013434
0.0287227
0.0386667
0.00272078
-0.127461
0.0268784
0.0315912
0.0144552
0.0352863
0.0363295
0.000181079
-0.0403837
0.000699419
0.000497116
-0.126601
-0.00345402
-0.015122
0.107881
0.012585
0.00462807
0.0473143
0.0316171
-0.00155712
0.00437986
0.00412473
0.027024
0.0269104
0.019344
0.00475947
-0.00011565
0.0323342
0.00415281
-0.155472
-0.017754
0.0467505
0.0172639
-0.021793
-0.0079688
0.035567
-0.0077539
-0.0594914
0.00460481
0.0295326
0.00479105
-0.143972
0.039759
0.0457707
-0.011722
0.0289017
-0.000852427
-0.00694784
0.0335712
-0.30306
-0.252117
-0.0193612
0.0283342
-0.0102095
-0.655087
-0.00482312
0.0264915
0.0266219
0.00548136
-0.0333967
0.043111
0.0401424
-0.0374685
0.0106801
0.0467275
0.00510853
0.00736834
0.0135892
0.0358838
0.0429979
0.0456518
-0.000403895
0.0287591
-0.00878575
0.0456793
-0.162466
-0.0162805
0.0444631
-0.00106913
0.041041
0.0378567
0.0351224
0.00563063
0.00741693
-0.00314709
-0.481671
0.0273451
0.00061803
0.0295622
0.0189837
-0.0104853
0.0425446
0.030252
0.0050588
0.0432206
0.012179
0.0264555
0.0450709
-0.00507023
-0.0207462
-0.280346
0.0369323
0.047817
0.00255785
0.0455504
-0.264652
-0.028187
0.00956407
0.0255943
0.00894825
-0.474645
0.0381763
-0.0591391
0.00175734
0.0657675
0.0318528
0.0468121
-0.0333799
0.000164977
-0.185633
-0.00513656
-0.479632
0.0431418
-0.0262841
0.00512279
-0.0542609
-0.0288153
0.00773877
-0.730689
0.00806675
0.00165431
-0.00679824
0.00899177
0.0299842
-0.0388437
-0.00048815
0.0271848
0.00467
0.000269401
0.0184656
-0.0112141
0.0323732
0.00506137
0.0437024
0.0483298
-0.00282979
0.00852076
0.0448537
0.00834834
0.0395627
-0.125939
0.0230413
-0.0679274
-0.304328
-0.0301378
0.0315282
0.00967921
0.0165108
-0.168163
0.0310445
0.0301055
0.00737639
0.0457679
-0.301187
-0.273841
0.00954994
-0.110096
0.0246037
0.0569427
0.00344405
0.0455797
0.0273359
-0.0129647
0.027213
0.00686222
-0.00880009
0.0317806
0.0132105
-0.013625
-0.484816
0.000487591
-0.156311
0.00491431
-0.170508
0.0484004
0.0237921
-0.13529
0.00902081
0.0113357
0.0257381
0.0190106
0.0404137
0.0322354
0.0540984
0.0450348
-0.0503518
-0.0154243
0.0494803
0.0345211
0.0307927
0.00858863
0.00540586
0.0356835
0.0218819
0.0429638
0.00831803
0.0155849
-0.184748
0.043416
0.0379189
0.0250257
-0.220631
-0.095879
0.0493083
-0.197185
0.0290641
0.0212763
-0.0711228
0.00437687
0.0459418
0.030775
0.0172331
0.0349602
-1.00724
0.0373793
0.0450369
0.0105605
0.0461353
-0.0468967
0.0057913
0.0826909
0.046451
-0.433763
0.0444695
-0.105141
0.00436935
-0.0163327
0.0446327
0.00723796
0.0426238
0.0347824
-0.120124
0.0332489
0.0485713
0.00128671
0.00613249
-0.108239
0.0314221
0.00839156
-0.00817808
-0.00403507
-0.0171122
0.00778498
0.0274818
-0.570671
0.0463324
-0.0445741
-0.146449
0.00456418
0.0409997
-0.0102545
0.0382263
0.0493042
0.0062925
-0.00494227
0.0135347
-0.0532619
0.00434775
-0.17086
-0.133018
-0.715563
0.0643994
0.0384606
0.0262955
0.0217346
0.0399393
0.00292653
-0.647501
0.016277
-0.0421281
0.0424747
0.0251991
-0.0114615
0.005497
0.00739978
0.0450902
0.000168912
0.00798943
0.0197273
0.0115967
-0.0123237
-0.156785
0.00980722
0.040798
0.0394383
0.0421462
0.0123189
0.00738533
-0.114276
0.0417194
-0.121453
-0.00856774
0.00542724
-0.00825783
0.00467366
-0.0638194
0.00750959
-0.186628
0.00359572
0.0179092
0.00458436
0.0251793
0.00648065
0.00479574
0.0168284
0.0498669
-0.174904
0.043798
0.0150172
0.00754528
0.0281665
0.0271278
-0.00058507
0.0435051
0.0292998
0.026165
0.0416029
0.0161145
-0.161586
0.0406802
0.0316311
-0.420159
0.0426162
0.0397966
0.0380527
-0.092418
-0.446639
-0.105837
0.00741424
0.0161699
-0.179202
-0.0035714
0.0446231
0.0242079
-0.108794
0.00856502
0.0046893
-0.199418
-0.276794
0.00768349
0.0215865
0.00493083
0.00989046
0.00703625
0.0490008
0.0123676
0.0132678
0.0335313
0.0408514
0.00464369
0.00193853
0.0458093
0.0401831
0.0442765
0.00123502
0.0345887
0.0303035
0.0477599
0.0532371
0.0365628
0.0183311
0.00169629
0.0833386
0.0477963
-0.126004
0.0403049
0.000827527
0.00744313
0.0150747
0.0346275
0.00447804
-0.0117898
0.0351716
-0.00738776
0.00352282
0.0491651
-0.00578891
0.0444559
-0.0843787
-0.00439641
0.0306787
0.0948422
-0.0109187
0.00552057
0.00481671
0.026843
0.0458738
0.0405917
0.00428396
0.00375906
0.101388
0.00635528
0.0344203
0.0480744
0.0085796
0.0285315
0.00356021
0.0265736
0.00720461
0.00402389
0.00223754
-0.00641957
0.0125756
-0.0086399
0.0433929
0.0279936
0.00130529
-0.121882
0.0388967
0.032734
-0.313604
-0.154859
-0.010012
0.0069219
0.0118896
0.00537387
0.00570339
0.0453129
0.00155326
0.00366994
-0.0314693
0.00369565
0.0129029
0.000336889
0.0428078
0.00345814
0.0526428
-0.201703
0.0452513
0.000288285
-0.00750638
-0.104233
0.040155
-0.146675
0.00212786
0.0267045
0.0405255
0.0471408
-0.180815
-0.203837
0.00384933
0.0426794
0.0774168
0.0448974
0.043098
-0.0223683
0.0435923
0.00014612
0.00352906
0.0305278
0.0236363
0.00481332
-0.18607
-0.863691
0.0267614
0.00544937
0.0376054
0.00246139
-0.0192024
0.0273407
-0.000369245
0.0205778
-0.164514
-0.00711799
0.0454365
0.0247448
0.00546561
0.00488538
-0.00715807
-0.0683813
-0.0233181
-0.178301
0.0298447
0.00350818
0.0165357
0.0455273
-0.00749726
0.0278541
0.00444281
-0.0169561
-0.0420355
0.0455943
0.00474257
0.0203341
-0.0136278
0.00481282
0.0534503
0.0115004
0.00389833
0.0405144
0.0247509
-0.529364
0.00661143
0.00427756
-0.732767
0.00396051
-0.0189637
-0.607956
0.0296721
-7.96343e-05
0.0533794
0.0263963
0.0326764
0.0286588
0.00395755
0.0481045
-0.016177
-0.103603
0.00409368
0.0451543
0.0362005
-0.649377
-0.167313
-0.334662
0.0206534
-0.871571
0.0388162
0.011672
0.00566684
-0.849852
0.00721202
-0.120536
-0.0187374
-0.154669
0.0428387
0.0428363
0.0279214
-0.0266121
-0.0631719
0.0455926
0.00214477
-0.479693
0.00117881
0.00399584
0.00459254
0.0445845
0.00493907
0.00741528
0.00921506
0.00486236
0.0246317
-0.00821863
-0.00400089
0.00360769
0.0336266
0.00164351
0.0449496
0.0288158
-0.0900087
0.0342026
0.0288054
-0.278961
0.00111465
0.045511
-0.0103322
0.0400938
-0.0208991
0.00289575
-0.000686252
0.030656
-0.189922
-0.0104686
0.0449496
0.0393493
-0.0124146
-0.915281
0.024967
0.000294869
0.00453514
0.0748853
-0.0213863
-0.203342
-0.47799
-0.151448
0.00561421
0.00437669
0.0457619
0.0456366
0.0476102
0.00638353
0.0337829
0.000862437
0.0319622
-0.544178
-0.0329385
-0.692617
-0.647694
-0.170629
-0.0467562
0.00146965
-0.0158075
0.00642505
0.00490583
0.0453575
0.00819703
0.0288917
-0.720499
0.0173767
0.081739
0.0399785
-0.220101
-0.0644879
0.00481179
-0.129769
0.0428085
0.047151
0.0240073
0.00453527
0.000605955
-0.0402164
0.00535847
-0.12619
0.0386019
0.00483876
-0.000618668
0.034633
0.00227493
0.00518758
0.0177446
0.053807
0.0162467
-0.284394
0.00265836
-0.0370982
0.0391251
0.037562
-0.1352
-0.00782818
-1.0325
0.0420721
0.0026665
0.00853199
-0.00619891
0.00688241
0.0186053
0.0353576
0.011438
0.0446302
0.0310988
0.0235035
0.00702471
0.0233736
8.38583e-05
0.00506322
0.00488196
-0.00614054
0.00529215
0.00354406
0.00447037
0.019343
-0.205821
0.0275641
0.00738293
-0.182359
-0.22128
0.0399924
0.0345575
0.00301851
-0.00310638
-0.437101
-0.85157
-0.532468
0.0240012
0.00492251
0.00457331
-0.00131771
0.00428413
0.0584386
0.0280514
0.00817478
0.016491
-0.751485
0.0370783
0.00465778
0.0118344
0.0432185
0.0340409
0.00197562
0.0305795
0.00279262
-0.117595
0.00385464
0.0230653
-0.149183
-0.12011
0.00747267
0.035237
-0.110239
0.000899948
-0.141377
-0.467829
0.0489533
0.0477214
0.0346097
-0.155351
0.0195817
0.029269
-0.815703
-0.329486
-0.0115496
0.0165502
0.0220463
0.00574468
0.0333994
0.0967749
-0.175637
-0.109825
-0.236663
0.0208497
0.00082551
-0.574928
0.0490516
-0.876476
-0.121392
-0.0415717
-0.511549
0.0700815
0.0429039
0.00342066
0.0331265
0.00572508
0.0189943
-0.0554418
0.00170237
0.0352768
-0.616773
-0.273035
0.0181724
0.00348704
0.0450498
0.0273687
0.0357638
-0.147689
0.0167225
-0.0012123
-0.280434
-0.0117916
0.0166495
-0.119393
-0.0762484
-0.23293
-0.00232789
-0.55692
0.0358147
-0.0582774
-0.0115029
0.0105923
-0.170478
0.0461666
0.00692393
0.0401409
-0.225239
-0.159651
0.00691993
0.04373
-0.00653997
0.0296371
0.0372314
-0.00863079
0.0306293
-0.0370616
-0.167453
-0.0534397
0.0343165
0.0238674
0.0328045
0.0221638
0.0070528
0.00479538
0.0182082
0.0364644
0.0404641
-0.00322145
0.0477464
-0.0182759
0.0299506
-0.00370866
0.0230193
0.047151
-0.00132771
0.0465615
0.0262649
0.0364953
-0.469323
0.00217082
0.0599464
0.0143589
0.00592893
0.00656427
0.026486
-0.208551
0.0293015
-0.119601
0.0542462
0.00263828
0.0405392
0.0418842
0.00696074
-0.191616
0.0651345
-0.00760216
0.0111293
-0.0462397
0.00803897
-0.960216
-0.205216
-0.678704
0.042726
0.00887658
-0.0189476
-0.116964
0.0112313
-0.194681
-0.0165256
0.0403244
-0.207766
0.0429285
-0.264586
0.0232497
-0.147852
-0.00147447
0.0103885
0.00726016
-0.555362
0.000315971
0.0364257
0.00430211
-0.00307635
0.00905824
0.0369378
-0.00565057
0.0193498
0.0115831
0.0478977
0.0138468
0.0402461
0.022006
-0.00683488
-0.434271
-0.0758425
0.000387965
-0.141131
0.0350121
0.0484671
-0.0146296
0.0241972
0.00415335
-0.00752223
-0.124226
0.0429023
0.0303979
0.0327134
-0.188704
-0.0469159
0.0070607
-0.41957
0.040584
0.00325626
0.000524563
-0.161058
-0.421845
0.00440369
-0.0265533
-0.0847201
0.0464579
0.0266979
0.023432
0.043609
-0.00602862
0.0033948
0.0422234
0.0373266
0.0391513
0.040568
-0.690242
0.0166046
0.0095707
-0.690079
0.000421198
-0.156583
0.0264682
0.0350323
0.112504
0.00703457
-0.00736976
0.0282693
-0.391525
0.0380412
0.00300901
0.0237323
0.0310201
0.0397464
-0.0390765
0.0362982
0.0449677
0.0330575
0.000284665
0.00160305
-0.294079
-0.194361
0.0227777
-0.139874
0.0352054
0.0283509
-0.451061
0.0274297
0.00107732
0.028254
0.0392867
0.00706263
-0.0683219
0.017508
0.00929676
-0.157589
0.00734968
0.0444031
0.0190019
0.04797
0.0240549
-0.321442
0.00232846
0.0325491
-0.46374
-0.303244
-0.0234059
-0.42583
-0.304079
-0.00185056
0.0082946
-0.139259
0.0165198
0.00455657
0.0274392
-0.00694597
0.0323527
0.0429875
0.0442523
0.00234139
0.0337126
0.00572189
0.0384612
0.0162522
0.00251177
-0.118696
0.0438664
-0.00962656
-0.131316
0.00284628
-0.978135
0.0213364
0.0280738
-0.549164
-0.0540256
-0.227446
0.00742407
0.0338767
-0.0764932
0.0485367
0.0439599
-0.125567
-0.00174374
-0.975205
-0.0341428
0.0170149
0.0415699
0.0080386
0.010828
-0.443184
-0.138787
0.0245477
0.03956
0.00854609
0.00772738
-0.183269
0.0402967
-0.00218256
0.0249452
-0.436471
5.5933e-05
0.0080493
0.0225903
0.000214407
0.00810236
-0.216563
0.0471006
0.04283
-0.000563225
0.0389088
0.0353507
0.0154122
-0.127046
0.0496877
-0.0039526
0.0114179
-0.00697011
-0.0114071
-0.037975
0.0343086
-0.00323346
-0.0212856
-0.101899
-0.00106549
0.0489787
0.0314859
0.0216117
0.00454621
-0.376257
-0.0314158
0.0473036
0.0446447
0.0333102
0.00310496
0.00826624
0.0297607
0.0371324
0.0210469
-0.000945586
-0.0864391
0.0823734
0.0339846
-0.042725
0.00463172
0.0420841
0.0133364
-0.182595
0.0273133
0.0314793
0.0277495
0.0296442
0.0230519
-0.0746517
0.0378433
-0.00734672
0.0409061
-0.0612211
-0.0417794
-0.0459293
0.00633753
-0.00813322
0.0279344
0.0389965
-0.987934
0.0212749
0.0468295
0.00270543
0.00388928
0.038012
0.0423352
-0.0134557
0.00458779
-0.0323226
-0.169671
0.0421312
-0.0145996
0.0172645
0.0238705
0.0336576
0.00810176
0.0404295
-0.0170208
-0.00934049
0.045478
0.0308519
-0.487262
0.0130121
0.0146407
-0.0779683
-0.014717
-0.18384
0.0200859
-0.0947701
0.0827306
-0.00698259
0.0398173
-0.0244569
-0.442237
-0.492205
0.0441936
-0.131102
0.0466586
0.0459616
-0.750745
-0.0440829
0.0468112
0.00744919
-0.16359
0.00905191
-0.00163646
0.0073921
-0.102758
0.00724414
0.0407918
0.0488017
0.00414464
0.0482208
0.0316838
0.00509579
-0.0713688
0.0408352
-0.0546898
-0.00606139
-0.0576555
0.043483
-0.273274
0.0215304
0.0476525
0.0284061
-0.0220388
0.005812
-0.0329135
0.00211145
0.0466964
-0.00363725
0.0244212
-0.0297487
0.0396709
-0.00036205
-0.523738
0.0402084
0.0487339
0.00245509
0.0435778
0.049473
-0.00177978
0.104406
0.045123
-0.0321144
0.00386938
-0.581007
-0.0155718
-0.129314
-0.152217
0.0480955
-0.0163631
0.0430641
0.0154747
0.0267082
0.0144098
0.00370568
0.0241536
0.0368719
-0.266459
-0.899965
-0.0170981
0.119917
0.00734064
0.004586
0.0376589
0.0279681
-0.0486023
0.072943
0.0249387
0.0196062
0.0395304
-0.126923
0.000267966
0.00460932
-0.0165208
-0.146482
-0.0737998
0.00370684
0.0410701
0.0474022
-0.163531
-0.322159
0.00286066
0.0523734
0.00198312
0.0463108
0.00705978
0.00275463
-0.0192357
0.00473906
0.0435088
0.0157907
-0.528159
0.0444835
-0.118056
0.0302825
0.00707971
0.0483851
0.044925
0.0404506
0.00517034
-0.183226
0.00800314
-0.00128751
0.0430441
0.00253155
-0.13819
0.028026
-0.626038
0.0414156
0.0280027
0.0288572
0.0968331
0.0152132
0.0372371
0.0459754
-0.0674795
0.0427794
-0.0272543
-0.115752
-0.000631656
0.00435751
0.00679883
0.043672
0.0261811
0.016773
0.00952316
0.0287516
-0.280417
-0.16798
0.0696565
0.00241696
0.0139543
-0.494026
0.0106001
-0.0748936
0.00140096
0.038711
0.0343877
-0.071571
-0.013836
-0.018116
0.0437113
-0.0695289
0.0424455
0.0341585
0.00503211
0.00649
0.00715616
-0.819302
0.00727116
0.0397779
-0.139677
0.0302152
-0.662451
-0.448104
0.0325532
0.00537003
-0.574822
-0.213938
0.0421529
-0.0982985
0.0329477
0.0464893
0.0410574
0.115417
0.00189548
0.0448967
0.0174718
0.0431232
-0.110938
0.0690664
-0.0013642
-0.246351
-0.0899881
0.010758
0.0469502
0.0379538
0.0594629
0.00663957
0.0432892
-0.0606553
0.00749678
0.0459173
0.0430375
0.0497908
-0.0799709
0.0416504
0.00533677
0.0458169
-0.0553313
0.00192311
0.0387518
0.0283413
-1.61088e-05
0.0463895
0.0209831
0.0409829
0.0218982
-0.00891936
0.0454367
0.00397545
0.0336457
0.0412839
0.00384797
0.00519683
0.0142297
0.0523788
0.0349579
-0.118739
0.0209279
-0.0738604
0.0190661
-0.000765529
0.0229024
-0.403683
-0.0586064
0.0414868
-0.112292
-0.00102196
-0.0132794
0.00125231
0.00983697
-0.105908
0.0002752
0.0230112
0.042014
-0.0605614
0.0455723
0.0455744
-0.257333
0.0070481
-0.596814
-0.332473
0.0308498
0.00543445
-0.183775
0.109844
-0.313809
0.00543239
0.00734742
-0.0475471
0.0411576
-0.19046
-0.331006
-0.320739
-0.0462165
0.0393398
-0.16942
0.0398848
-0.34061
0.00483884
0.0368996
0.00708952
-0.349131
-0.0931238
0.0385019
0.045872
-0.471524
-0.0614057
0.0447592
0.00686405
-0.0129013
0.00994022
-0.086657
0.0280539
0.0309473
0.0834389
-0.854891
0.00761396
0.0131459
-0.490052
-0.447378
-0.461684
-0.0918796
0.0394108
-0.100613
0.0388537
0.0140028
-0.0571846
-0.176297
-0.00905791
0.04225
0.0437805
-0.577218
-0.0136996
-0.283307
-0.41759
0.0531929
-0.33209
-0.594214
-0.262572
0.00159051
-0.0118414
0.0375148
0.000107282
0.0422547
-0.0728938
-0.522984
-0.028922
-0.0610701
-0.133461
0.0181052
0.00722932
0.0469355
-0.00834904
0.0940764
0.030977
0.0472179
-0.0163252
-0.00991389
0.0229642
0.0043613
0.0459066
0.0393031
0.0159865
-0.0904893
0.0518405
-0.106131
-0.667611
0.0474355
-0.110469
-0.0455918
0.0244467
-0.253773
-0.132315
-0.08454
0.0054316
-0.186657
0.0259863
-0.532634
-0.595673
0.0491372
0.0230964
-0.477703
-0.043033
0.0411792
-0.857541
0.0303479
0.0438739
0.00345143
0.046251
0.0450517
0.0209905
0.0406556
-0.040223
-0.000397871
-0.105329
0.00235476
0.0205916
-0.341855
0.0178764
-0.133403
0.00402468
-0.352895
0.0700004
0.00689893
-0.111884
0.00343437
-0.0374904
0.00380311
0.00110629
-0.0112212
0.0317601
0.0318232
-0.688267
0.00705529
0.0040085
0.049078
0.00409547
-0.151111
0.00711994
0.0069613
0.0368769
0.0356954
0.00565232
-0.473385
0.00599945
0.0566382
0.0340594
-0.0283986
-0.117908
-0.583411
-0.567526
0.00945497
-0.248543
0.0425274
0.00727586
-0.0972958
-0.00243898
-0.0586343
-0.932589
-0.00853423
-0.152876
0.042611
-0.258517
0.00365522
0.00700177
0.0265855
-0.0967313
0.0363705
-0.326802
-0.0667633
0.0292607
0.0312644
0.0109024
0.0495671
-0.0913114
0.0360881
-0.502273
-0.240758
0.0143414
0.0392322
0.0466968
-0.0652515
-0.0410897
-0.0224535
-0.0479732
-0.0304578
0.0395881
0.0279854
0.0491003
0.000667375
0.0321412
-0.0227055
-0.184206
-0.0762828
-0.0100317
-0.0357218
0.0267845
-0.0195823
0.00725387
0.00273514
0.0288271
-0.173113
-0.533212
0.0423625
-0.183705
-0.535202
0.000336646
0.030576
-0.099572
-0.365149
0.00399378
0.0319202
0.0411099
0.00432357
-0.528902
0.0238126
0.0309524
0.0401147
0.022054
-0.0222096
-0.13923
0.00835394
0.0584852
0.0139854
0.0424028
-0.446766
0.014015
0.00706326
-0.0424681
0.0300527
0.026915
0.00540862
-0.0312019
-0.128668
0.0522271
-0.585683
-0.0163035
-0.0180686
-0.0146812
0.0747355
0.00497968
-0.181526
0.00256825
0.0285396
0.026624
-0.16013
-0.0136089
0.0271879
-0.00128114
-0.875234
0.0427749
0.0283527
0.0244722
-0.120224
-0.120023
0.0293333
-0.463924
-0.00455494
0.0425082
-0.00435062
0.00290551
0.0352467
-0.0832443
-0.0232246