/*--------------------------------*- C++ -*----------------------------------*\
| =========                 |                                                 |
| \\      /  F ield         | OpenFOAM: The Open Source CFD Toolbox           |
|  \\    /   O peration     | Version:  v2012                                 |
|   \\  /    A nd           | Website:  www.openfoam.com                      |
|    \\/     M anipulation  |                                                 |
\*---------------------------------------------------------------------------*/
FoamFile
{
    version     2.0;
    format      ascii;
    class       volVectorField;
    location    "100";
    object      U;
}
// * * * * * * * * * * * * * * * * * * * * * * * * * * * * * * * * * * * * * //

dimensions      [0 1 -1 0 0 0 0];


internalField   nonuniform List<vector> 
18649
(
(0.988366 -0.200672 1.1942e-20)
(1.02559 0.00488928 1.104e-20)
(0.980483 -0.195241 -1.07242e-20)
(1.235 -0.0461156 3.42686e-21)
(1.03444 -5.03735e-05 4.94505e-21)
(0.734407 -0.492507 0)
(1.02298 0.00733985 0)
(1.03086 0.0030295 -3.09609e-22)
(0.900161 -0.0881371 1.29643e-21)
(0.82128 0.621923 3.95449e-20)
(1.02933 0.00871792 2.08006e-20)
(1.03072 0.00485993 -4.40216e-21)
(1.0334 0.00010014 -4.38015e-21)
(1.02606 0.00797128 -1.28344e-20)
(0.234969 0.11196 6.37006e-20)
(1.03395 0.000167388 0)
(1.04558 0.0183354 6.91898e-21)
(1.02296 0.00723844 0)
(0.796545 0.483681 -3.35349e-20)
(1.02562 0.00464815 0)
(1.03086 0.00480723 8.08231e-21)
(-0.240274 0.36496 -4.17853e-20)
(0.982314 -0.102253 -3.14284e-22)
(1.20002 -0.0127618 0)
(0.825687 0.611442 -6.87911e-20)
(0.984145 -0.0970216 3.29973e-22)
(0.94229 -0.129361 2.86837e-23)
(0.59637 0.109897 -3.09493e-21)
(1.03381 0.0184597 1.62185e-20)
(0.0541525 0.000491327 -8.06644e-21)
(1.05316 -0.0300124 0)
(1.0497 -0.0280214 0)
(1.04566 0.0175901 1.95064e-22)
(1.08783 -0.011388 2.71407e-21)
(1.02783 0.000407118 -9.38478e-21)
(0.965614 -0.0180637 0)
(0.472697 -0.458389 2.58898e-19)
(1.1263 -0.0188249 8.25099e-21)
(1.02938 0.00849147 -2.05651e-20)
(1.02614 0.00825064 2.58309e-21)
(1.04361 -0.485567 1.91794e-20)
(1.03557 0.00880039 -7.2708e-21)
(1.29587 0.152101 1.13805e-20)
(0.552341 0.120089 -9.05234e-21)
(0.966283 -0.0905552 1.17088e-21)
(-0.262971 0.0404521 -9.16473e-20)
(0.970643 -0.0891368 -4.80082e-22)
(1.09153 0.0225995 0)
(1.02138 0.0065207 6.78901e-21)
(1.16176 -0.138379 -2.71161e-21)
(1.22294 -0.0295488 0)
(0.985356 -0.112756 3.70521e-23)
(1.04391 0.00799712 5.63507e-21)
(1.03999 -0.420797 7.40006e-21)
(1.04018 -0.028991 5.81356e-22)
(1.42199 -0.0721246 0)
(0.80243 -0.424267 0)
(1.02101 0.00672482 -6.75563e-21)
(1.02711 0.00519591 3.69729e-24)
(0.95989 -0.138326 -2.53888e-21)
(1.04591 0.00327643 0)
(1.11365 0.130804 4.47605e-21)
(1.01994 0.00845265 0)
(0.821635 -0.461241 1.29539e-20)
(0.0193019 -0.00990968 1.76351e-22)
(1.10639 -0.124716 1.83726e-21)
(0.962706 -0.135099 2.40991e-21)
(1.05146 0.00424512 0)
(0.961027 -0.0982822 -8.96314e-22)
(-0.246451 0.387583 -8.62363e-20)
(0.938909 -0.12654 0)
(1.08792 -0.010865 -5.90952e-21)
(1.02325 0.00697081 0)
(1.0201 0.00850645 0)
(1.03343 -0.0361977 0)
(0.552061 0.141791 4.33718e-21)
(0.828508 -0.200349 -1.3655e-21)
(1.02733 0.000443339 1.08971e-20)
(-0.128213 0.0612963 -2.54508e-20)
(1.0258 -0.00996931 3.17558e-26)
(1.03223 -0.0351333 0)
(1.13089 -0.03411 -9.38295e-21)
(0.82555 -0.462686 0)
(0.824316 0.476107 3.76206e-20)
(1.02583 0.00123014 1.96565e-22)
(1.40768 -0.0391117 4.83933e-20)
(0.991457 0.0208824 9.62729e-21)
(0.999344 0.0538474 -1.18768e-20)
(1.02764 -0.00895846 -1.36257e-23)
(0.443491 -0.175112 0)
(0.314715 -0.00977351 -7.07921e-20)
(1.22414 0.130532 0)
(1.20525 -0.0278897 -3.1417e-21)
(0.823491 -0.0285602 2.14908e-20)
(1.03339 -0.00986528 -1.19395e-21)
(1.04431 0.00761423 -5.35694e-22)
(0.967797 -0.0179095 1.09426e-22)
(1.21581 -0.0152218 0)
(1.09632 -0.115234 -7.34841e-22)
(1.0462 0.00316291 -1.00588e-21)
(0.761671 -0.504269 3.69492e-20)
(1.0347 7.43968e-05 -2.29213e-21)
(1.15987 -0.084696 0)
(1.03081 0.00264369 3.56098e-22)
(0.904038 -0.0949796 5.24217e-22)
(0.911603 -0.100279 -5.60674e-22)
(0.805621 -0.444743 -1.46939e-20)
(1.56254 -0.29487 1.70436e-19)
(1.41094 -0.0936693 -9.55651e-21)
(1.02326 0.00686956 0)
(1.02753 0.000877255 5.76748e-23)
(1.09984 0.0138705 -5.92742e-22)
(0.984471 0.0635018 1.1432e-20)
(1.03556 0.00217312 1.12954e-20)
(1.03351 -0.00921919 0)
(1.21982 0.0041067 -1.07479e-21)
(1.05105 0.00421039 5.14051e-21)
(1.10217 0.0121987 -2.1997e-21)
(1.03415 -2.9511e-05 5.56773e-21)
(0.992303 0.0235158 2.8375e-21)
(1.04999 -0.00130355 9.30143e-22)
(1.16581 0.00354416 4.24566e-22)
(1.07997 0.0863413 6.22359e-20)
(1.03535 0.00204632 -7.06702e-21)
(1.02909 0.00134011 3.08431e-22)
(1.03778 0.0105819 0)
(0.683224 -0.565382 0)
(1.03573 0.00596396 0)
(1.03338 0.0187474 3.13759e-23)
(1.01096 0.0100596 -2.19168e-22)
(1.0241 0.0103857 2.06545e-20)
(0.81088 -0.482991 -1.51012e-20)
(1.1209 0.154122 0)
(1.11844 0.16745 1.69813e-20)
(1.02835 0.000390972 -1.73533e-20)
(-0.297221 -0.00521177 -7.60601e-20)
(0.588201 0.064599 4.59201e-21)
(1.5378 -0.337887 -1.1965e-19)
(0.59346 0.0404462 -2.57683e-21)
(0.952824 -0.108131 -3.45583e-22)
(1.08462 0.0238602 -9.55872e-21)
(1.03334 -3.22821e-05 3.14514e-21)
(1.03089 0.00861262 -8.13717e-23)
(1.03812 0.00510227 5.76038e-21)
(0.933074 -0.113078 2.37071e-22)
(1.04765 -0.00457941 -9.15678e-22)
(1.0288 0.0157516 -6.69236e-21)
(1.10475 0.161896 1.26486e-20)
(0.916433 -0.103395 -9.00897e-22)
(1.02527 0.0116953 4.76564e-23)
(0.829459 -0.153236 8.00398e-22)
(1.00096 -0.282504 1.5339e-21)
(1.03257 7.16155e-05 1.00162e-22)
(1.02298 0.00639449 1.54274e-20)
(1.14719 0.00399316 0)
(1.25951 0.0389322 -1.48712e-21)
(1.02548 0.0114966 6.32676e-21)
(1.04788 0.00267518 3.51434e-21)
(1.03656 0.00112123 -3.33318e-21)
(1.0999 0.160171 3.81507e-21)
(0.768081 -0.498247 0)
(0.799103 -0.207924 -1.07837e-20)
(1.02509 0.011875 -2.13116e-20)
(0.582317 -0.0260153 1.78807e-22)
(1.26838 -0.457152 -3.13647e-20)
(1.03453 7.47231e-05 3.1918e-21)
(0.976429 -0.0500223 2.16439e-21)
(0.914803 -0.118563 8.83235e-22)
(1.02683 -0.00161767 -8.71318e-22)
(1.04602 -0.000711311 0)
(0.987403 0.0172278 1.33512e-22)
(1.03278 0.000617159 -7.01722e-21)
(1.03896 -0.000391736 1.9407e-21)
(1.05411 0.000466095 -3.36908e-21)
(1.15137 -0.122651 3.02167e-21)
(0.989736 -0.0686465 2.56707e-22)
(0.944611 -0.0935681 -9.68834e-23)
(1.02546 0.0114625 0)
(0.909777 -0.113283 0)
(0.751399 -0.507691 -2.0328e-20)
(1.03186 0.00398749 0)
(0.948728 -0.101254 9.04069e-22)
(1.0569 -0.0447035 0)
(1.04685 0.00405796 -3.75456e-21)
(1.03918 0.00851235 6.34706e-21)
(1.05727 -0.0413977 0)
(1.03897 -0.0287007 1.38292e-23)
(1.15389 0.011988 4.18464e-22)
(1.04811 -0.00156571 4.47317e-22)
(1.02659 0.0166803 0)
(1.04093 -0.00311551 0)
(0.850544 -0.125413 2.0171e-21)
(0.978768 -0.261177 8.33867e-21)
(0.979268 0.0302285 -8.77191e-21)
(1.0319 0.112942 0)
(1.03863 -0.000356595 -1.61506e-21)
(1.05255 -0.0488502 -2.80032e-23)
(1.05337 -0.0447354 3.4943e-22)
(1.24619 -0.439564 1.95245e-20)
(1.09128 0.0235818 -3.22588e-22)
(1.02574 0.0172264 0)
(1.03537 -3.13111e-06 1.18667e-21)
(1.09571 0.170721 0)
(1.02297 0.00655246 3.20385e-21)
(1.03816 0.00468909 -1.08604e-20)
(1.03271 0.000419522 1.01152e-20)
(1.12389 0.182248 -1.22471e-20)
(0.953197 -0.14328 0)
(1.04218 0.017454 -4.61364e-21)
(1.04429 0.00642115 0)
(1.04735 -0.000468502 -2.42416e-22)
(1.00974 0.00502331 0)
(1.03644 -0.0118392 -4.41991e-22)
(1.01603 -0.0467934 -2.81676e-22)
(0.416984 0.193271 3.62283e-20)
(1.01248 -0.0582922 -1.28353e-20)
(1.02222 0.000870369 -1.78738e-20)
(1.0394 -0.00350263 -3.10433e-21)
(1.0478 0.00222595 6.29184e-21)
(0.97229 -0.084322 0)
(0.95987 -0.00180377 0)
(0.990379 0.0296292 -2.67501e-21)
(-0.311218 -0.0321714 0)
(0.841252 -0.00924234 0)
(0.781239 -0.242847 6.50338e-21)
(0.980579 -0.0526401 -2.02429e-21)
(1.01729 -0.257117 -1.40745e-20)
(0.969563 0.868594 1.32275e-19)
(1.0237 0.000109444 0)
(0.952256 -0.00134081 -2.74464e-21)
(1.02688 0.0160381 -1.11988e-21)
(1.03966 -0.0336278 7.93802e-22)
(1.09331 0.0189381 0)
(1.02971 0.00456445 2.78258e-22)
(0.706964 0.0207151 0)
(1.03203 0.00393882 -7.61468e-21)
(1.0339 0.00179444 -8.67278e-21)
(1.03919 0.00831017 1.22536e-20)
(1.03865 -0.0126481 4.24748e-22)
(1.03642 0.00498035 -2.01902e-23)
(1.0012 0.108694 -3.23418e-21)
(0.971714 -0.155755 0)
(0.953846 0.14769 0)
(-0.123795 0.0862028 0)
(0.748142 -0.234655 0)
(1.02297 -0.00596901 -8.20505e-21)
(0.979475 0.0299103 2.40693e-21)
(1.02808 0.000549099 1.15389e-20)
(-0.174644 0.771596 -8.06762e-20)
(1.15854 0.00235166 3.77958e-24)
(1.02181 -0.0101648 8.77075e-21)
(0.938826 0.884458 -3.48309e-20)
(1.03651 0.00555487 3.407e-21)
(1.03661 -0.039109 -8.4615e-22)
(1.07354 -0.000339558 -2.14572e-21)
(1.03463 -2.37284e-06 9.03833e-22)
(1.0446 0.00576442 0)
(1.04616 0.00129742 -1.01361e-21)
(0.944768 0.00940258 7.04235e-21)
(1.02705 -0.00154132 0)
(0.380802 -0.34752 -4.43357e-19)
(1.02609 -0.0101078 -4.61789e-22)
(1.01416 -0.0121447 0)
(1.01623 0.0845133 1.12716e-20)
(1.03424 -0.012549 4.49015e-22)
(0.996189 -0.243818 4.91462e-21)
(1.02385 0.000659952 0)
(0.977952 -0.0700896 9.32661e-22)
(1.03346 -0.000430197 0)
(1.02589 0.00630998 4.89028e-22)
(0.792237 -0.182203 -5.94186e-22)
(1.196 0.299894 1.83584e-20)
(1.01787 -0.0431792 -2.27869e-22)
(1.02633 0.00798494 0)
(0.312076 -0.118866 7.83492e-20)
(1.1692 0.00957905 -1.93879e-21)
(1.02314 0.00831576 -5.4835e-21)
(1.0599 0.0236117 1.09594e-20)
(1.01463 0.100742 0)
(1.11795 0.13582 -4.38972e-21)
(1.46777 -0.0499341 3.15326e-20)
(1.03768 0.00649776 -1.52901e-20)
(0.946649 -0.145487 0)
(1.02241 0.000693784 6.56859e-22)
(1.01176 0.0117475 -1.37344e-21)
(1.38631 -0.0242949 -3.09335e-20)
(0.913172 -0.0061595 0)
(1.02886 0.000706928 0)
(0.602651 0.0878738 0)
(1.03005 0.00154864 -6.24442e-22)
(1.03161 0.00421159 3.41874e-21)
(0.758352 -0.484838 2.18622e-20)
(1.02459 0.0102089 8.55938e-21)
(1.03685 0.00550693 0)
(0.670351 -0.537064 1.36425e-20)
(-0.175076 0.818658 0)
(0.813648 -0.431882 1.04e-20)
(-0.146189 0.546764 -7.60591e-20)
(1.08256 0.0280135 0)
(1.04892 0.000801329 -3.68909e-21)
(1.03223 -0.00842966 0)
(0.578242 -0.0482272 1.55996e-21)
(0.857131 -0.00051158 0)
(0.774915 -0.1773 3.61289e-21)
(1.38332 0.190113 -1.81444e-20)
(0.983349 -0.0466336 0)
(0.976053 -0.073047 0)
(1.17506 0.0861457 1.66711e-21)
(1.08866 0.028346 -5.72558e-21)
(1.18725 -0.144892 2.23469e-20)
(1.03135 0.00434676 3.6253e-21)
(1.14074 -0.108734 3.60457e-21)
(1.02745 0.00510136 9.23324e-24)
(1.03919 -0.0387752 7.98367e-22)
(1.02376 0.00693258 -1.54691e-20)
(1.02929 -0.0315153 0)
(1.04211 -0.00711042 9.65618e-22)
(0.330512 -0.0126951 9.43916e-20)
(0.810807 -0.23331 8.14488e-21)
(1.04081 -0.0373365 -1.08356e-21)
(-0.165043 0.0599361 1.99155e-20)
(1.03288 0.00903454 1.56683e-21)
(1.0489 -5.73558e-05 -4.86813e-22)
(1.02679 0.000840155 9.83944e-21)
(-0.143335 0.516251 9.30401e-20)
(1.05409 0.00653352 1.37294e-22)
(0.660792 -0.520392 -1.79416e-20)
(1.11111 0.168238 -4.43719e-21)
(1.05252 0.00195053 4.73674e-21)
(1.02128 0.00592523 1.06076e-20)
(1.02784 0.00768869 7.04289e-21)
(0.551749 0.164617 1.60301e-20)
(1.06754 0.15413 0)
(1.03481 -0.000453932 -1.55965e-21)
(1.11053 0.13788 -6.33074e-20)
(1.03231 0.00457179 0)
(1.12742 -0.111355 -2.48719e-21)
(0.987042 -0.0487057 1.01493e-24)
(1.1362 -0.0557473 1.31102e-21)
(1.10838 0.171053 0)
(1.04978 -0.0362893 4.21505e-21)
(0.961751 -0.129684 0)
(0.322377 0.039645 -9.00595e-20)
(0.561309 0.168959 5.24599e-21)
(0.761227 0.638848 -6.3707e-21)
(1.24668 -0.0207193 7.19479e-21)
(1.13968 0.0530351 -6.00317e-22)
(1.03028 0.00828028 -6.0311e-21)
(-0.11925 0.600067 -4.5826e-20)
(0.81075 0.471299 0)
(1.03296 0.00188373 1.35406e-20)
(0.990934 0.462133 1.92686e-21)
(1.02678 -0.00963445 0)
(1.0246 -0.000240447 1.21411e-20)
(1.06995 3.06529e-05 -2.27777e-21)
(1.15306 -0.00807249 5.46363e-21)
(1.05264 0.00678113 0)
(1.09885 0.0824926 0)
(1.02213 -0.0313025 1.12779e-21)
(1.03622 -0.0267461 7.4151e-22)
(0.992923 0.0545807 1.31243e-20)
(0.568539 -0.460907 9.05908e-20)
(1.1538 0.0709044 2.80629e-21)
(1.04921 0.00817701 -3.70424e-21)
(1.06643 -0.118755 -3.09354e-21)
(0.961111 -0.144556 -2.7587e-21)
(1.03219 -0.0076592 -4.18578e-21)
(1.02513 0.00149424 -1.93424e-22)
(0.962273 -0.1248 -7.10392e-23)
(1.03704 -0.0121074 0)
(1.13651 0.0081837 -2.05244e-21)
(0.665293 0.0958848 -3.77424e-20)
(0.990692 0.0259129 2.57861e-21)
(1.03376 0.000350791 3.32668e-24)
(0.401657 -0.236445 9.48203e-20)
(1.02456 0.0104954 0)
(0.93006 0.472041 0)
(0.961633 -0.119639 -4.15714e-21)
(1.12785 0.115382 0)
(1.07459 0.152834 4.79978e-21)
(1.0775 0.143008 -1.48211e-20)
(1.04419 -0.0367523 4.53534e-22)
(1.02631 0.00208156 -9.68358e-21)
(1.20972 0.308908 -3.53221e-20)
(1.11757 0.103707 2.30769e-21)
(1.01281 0.00297208 1.06309e-20)
(1.04582 -0.0459758 0)
(1.03935 0.000918285 -4.17518e-21)
(1.0275 0.00826455 0)
(1.02662 0.000918918 -2.54139e-20)
(1.06534 0.16133 0)
(1.04228 -0.0364919 0)
(0.989677 -0.0435235 -9.97143e-25)
(1.0132 0.00247413 -1.06237e-22)
(0.576186 0.00493513 -2.23624e-21)
(1.1439 -0.0929046 2.42432e-21)
(1.01338 -0.0281786 1.63307e-21)
(1.02281 0.0192191 1.13979e-21)
(1.03793 -0.000160522 -6.66364e-22)
(1.03034 0.00786135 -5.45032e-23)
(1.40148 0.156053 0)
(0.797373 0.428431 0)
(1.04129 0.018781 0)
(1.02655 -0.211463 0)
(1.02386 -0.0292778 -2.30353e-23)
(1.02314 0.000758323 0)
(1.03906 0.00123406 0)
(1.06125 -0.0950859 0)
(1.04433 -0.0343894 0)
(1.13441 0.0561636 -3.15252e-21)
(1.0281 -0.000262162 3.00712e-21)
(1.03183 -0.216405 0)
(1.24433 0.116721 4.14688e-21)
(1.0237 0.0105927 0)
(1.49579 -0.0253805 -8.00196e-20)
(1.06846 0.00924383 -6.90926e-21)
(0.551042 0.150227 1.05285e-20)
(1.01011 0.0599755 3.20736e-20)
(1.02528 0.00666288 1.78181e-20)
(1.03601 0.00974073 1.31835e-20)
(1.09452 -0.0164043 -7.22389e-21)
(0.992745 -0.0451805 -4.90806e-22)
(1.17277 -0.122037 0)
(1.13692 0.15833 -4.4995e-21)
(1.08344 0.155323 -4.84634e-21)
(1.03725 0.00485613 0)
(1.16827 0.0798931 -3.74319e-21)
(1.13006 0.108378 2.29731e-21)
(1.05854 0.0209287 9.33114e-21)
(0.0670941 0.782319 0)
(0.712187 0.651758 4.07464e-20)
(1.04859 -0.00503551 2.30646e-22)
(1.02051 0.0440776 1.12323e-20)
(1.01739 0.0436286 0)
(-0.0284892 1.00844 0)
(1.02858 0.0088768 1.27534e-20)
(1.03514 0.00625421 8.74876e-21)
(0.598292 -0.0660115 -1.7394e-20)
(1.03006 0.00839888 0)
(1.01714 -0.0211312 2.12013e-21)
(1.04813 -0.00628065 -2.07581e-22)
(1.03332 0.00831129 -8.6906e-23)
(1.02469 0.0102675 9.7955e-21)
(1.13861 -0.0361437 -8.12891e-22)
(1.02406 0.0107967 -4.38572e-21)
(1.03624 0.0059202 0)
(1.02488 0.0071596 0)
(1.26652 0.100262 -1.04022e-20)
(0.730293 -0.499694 0)
(1.02708 0.00647482 1.49379e-20)
(1.02524 0.0126697 1.67521e-21)
(0.667228 -0.554098 0)
(1.0249 0.0128802 6.49353e-21)
(0.982813 -0.0657335 -3.66101e-22)
(1.09468 -0.0164265 7.57148e-21)
(1.0316 -0.000105796 -3.70537e-21)
(1.02994 0.00485012 4.94323e-21)
(1.0347 0.00742082 -2.30716e-23)
(1.23634 -0.50302 4.83026e-20)
(1.43588 0.0102123 -5.69989e-20)
(1.04538 -0.00719048 9.69465e-23)
(1.01314 0.398386 -1.32245e-19)
(1.02877 0.00865815 -1.80456e-20)
(0.940857 -0.088838 0)
(0.8499 0.266295 -4.41796e-20)
(1.05416 0.00598558 -2.02198e-21)
(1.03341 0.00851969 1.23701e-22)
(1.02649 0.0033998 -6.52775e-23)
(1.03555 0.00631536 0)
(1.01308 0.00648291 0)
(1.01123 -0.0192152 -1.26223e-22)
(1.01558 -0.0142047 -7.17321e-22)
(1.00968 -0.0466314 0)
(1.25739 0.0296077 -8.07967e-22)
(0.962791 -0.164517 1.56452e-21)
(1.16101 0.0929662 3.89717e-21)
(1.02382 0.0077403 0)
(1.03593 0.00577939 0)
(1.08406 -0.0594799 5.81859e-22)
(1.2329 -0.541308 2.96015e-20)
(1.10884 -0.0293012 -2.39752e-22)
(-0.124845 0.0411351 2.1037e-20)
(0.995945 0.0252053 0)
(1.0459 0.00164125 0)
(0.999365 -0.0314846 0)
(0.825066 -0.508114 1.21761e-20)
(1.03357 0.00555009 -4.41357e-21)
(1.06753 0.135956 0)
(-0.2201 0.151697 0)
(1.02935 0.000305809 5.41394e-21)
(1.01524 -0.0131681 -5.91164e-21)
(0.577427 -0.014481 1.62914e-20)
(1.02466 -0.00166472 7.23022e-23)
(0.934877 0.0853955 0)
(1.03641 0.000735225 3.5106e-21)
(0.923817 0.101416 -1.121e-20)
(1.04033 0.188982 2.59459e-21)
(1.03421 0.000180365 3.89518e-21)
(1.02582 -0.00760511 -1.11725e-21)
(1.04227 0.0128635 0)
(0.95061 -0.165984 2.03114e-21)
(1.03587 0.00747668 1.17221e-20)
(1.0225 0.0069709 -5.18302e-21)
(1.05093 0.00520153 3.0701e-21)
(0.986655 -0.107334 0)
(1.08566 -0.112916 -1.77589e-21)
(0.539456 -0.481304 -9.31487e-20)
(1.02758 0.0153039 5.39641e-22)
(1.03943 0.000580757 0)
(0.807082 0.469319 -3.58087e-20)
(1.01073 -0.0162204 1.39673e-21)
(1.02483 0.00988662 8.43935e-21)
(1.01571 0.000282968 -6.28627e-22)
(1.30416 0.164963 -8.88202e-21)
(1.12535 0.163531 4.3697e-21)
(0.97858 0.060844 -6.40075e-21)
(0.563339 0.100444 -3.25927e-21)
(1.03112 0.00489117 0)
(1.13197 -0.226269 1.23605e-20)
(1.03944 0.000539969 -2.06404e-21)
(1.03609 0.00140081 4.35894e-21)
(1.00892 0.0449284 0)
(1.01964 0.0014718 -1.82433e-20)
(-0.291656 0.0600464 -1.29604e-19)
(1.03616 0.00147443 -3.61481e-23)
(0.941611 -0.13507 -2.40284e-22)
(0.93131 0.254674 -2.82998e-20)
(1.56692 -0.305588 0)
(0.945824 -0.130481 8.20231e-23)
(1.04435 0.0807902 0)
(1.03833 0.000113646 0)
(1.09095 0.226384 2.52597e-20)
(1.04909 -0.00666221 2.09355e-22)
(1.03851 0.000118054 -1.00629e-21)
(1.37704 -0.0869419 7.99468e-20)
(1.02323 0.00794943 -1.72185e-20)
(1.03044 0.0087178 1.29989e-22)
(1.0334 -0.0363499 0)
(-0.0917637 0.0989053 0)
(1.0196 0.00423513 1.15138e-20)
(1.08769 0.52388 1.12352e-21)
(1.0473 -0.0333613 0)
(-0.118134 0.647079 4.30671e-20)
(1.03323 0.00551788 0)
(1.19251 0.00605093 4.17254e-21)
(0.743582 -0.193076 -2.75299e-22)
(1.0589 0.0564104 -1.35285e-21)
(1.05042 0.00493266 3.08434e-21)
(0.921192 0.12027 9.25411e-21)
(1.02548 7.98798e-05 0)
(1.0551 -0.0261767 0)
(0.999271 -0.214867 -1.28998e-20)
(1.02275 -0.033494 -9.4856e-22)
(1.11883 -0.221066 -9.12966e-21)
(1.02498 0.0099884 1.0233e-20)
(0.837397 -0.0730553 5.34147e-21)
(1.02284 -0.0251313 0)
(1.05227 0.158167 -2.6213e-22)
(1.03309 0.0054854 0)
(1.0358 0.00650256 8.16306e-21)
(0.868252 0.338371 8.27104e-20)
(0.939896 0.0125912 -5.71931e-21)
(1.34273 0.142376 0)
(1.07723 -0.0564926 -5.07932e-21)
(1.03203 0.00885308 1.61496e-21)
(1.05204 0.00812058 -1.02658e-21)
(-0.0488593 1.00612 0)
(1.20162 -0.125194 -2.22293e-20)
(1.01003 -0.0550343 1.69471e-22)
(1.11542 0.0784254 4.15725e-21)
(1.02443 -0.030474 0)
(1.19921 -0.00955414 0)
(1.02612 -0.00219366 1.15572e-22)
(1.03753 -0.00180286 2.85761e-21)
(0.670245 0.602785 2.83683e-20)
(1.0305 0.00792635 -3.47403e-22)
(0.577452 0.126693 3.08088e-21)
(1.01345 0.0093172 5.26954e-21)
(0.714489 0.606797 -1.87684e-20)
(1.02039 0.00805266 0)
(1.04131 0.011856 0)
(1.03198 0.00376556 -3.76872e-21)
(0.915825 0.504994 1.00972e-19)
(0.994829 -0.040118 -2.04805e-21)
(1.02896 -0.00550868 0)
(1.03741 0.00975393 0)
(1.02153 0.00617518 -1.4589e-20)
(1.42079 0.168565 0)
(-0.239104 0.0567948 -1.83512e-20)
(1.03134 0.00487738 4.64661e-21)
(1.03441 0.00398982 8.47919e-21)
(1.0276 -0.00556385 1.89119e-21)
(1.10969 0.239232 -1.12929e-20)
(1.06104 -0.0378481 0)
(1.06744 0.124746 4.81903e-22)
(1.03068 0.000270843 -4.68179e-21)
(1.01925 0.0043273 0)
(1.41983 0.194774 2.9579e-20)
(1.03427 5.4564e-05 0)
(0.849498 -0.0749459 -5.98025e-22)
(1.01576 -0.0270168 -9.38298e-22)
(0.100137 0.813245 0)
(1.04359 0.00799415 6.95472e-22)
(1.01547 0.0100144 4.65845e-22)
(1.03692 0.000608907 3.92343e-21)
(0.803778 -0.0153381 -1.51773e-20)
(1.02538 0.00055698 5.62652e-24)
(1.11985 -0.126183 6.35484e-21)
(1.01971 0.00418568 6.02881e-21)
(0.927292 -0.113287 6.95406e-22)
(1.02398 0.0104985 -4.73512e-21)
(-0.218372 0.111296 -3.96292e-20)
(0.997699 -0.0416756 2.03874e-21)
(1.03194 0.00424157 3.86959e-21)
(1.32386 0.0857093 -1.28076e-20)
(1.02444 0.0131116 -1.76438e-20)
(1.03727 -0.00178659 0)
(1.03685 0.000262811 0)
(1.40552 0.359836 -2.66339e-20)
(0.967564 -0.155873 -8.50188e-22)
(1.03593 0.00156097 -2.32079e-21)
(0.983421 -0.0709241 -7.89468e-22)
(1.12154 -0.301722 0)
(1.03585 0.00628823 0)
(0.938097 0.0947215 0)
(1.08342 -0.00745492 6.94346e-21)
(0.743382 -0.514503 -1.07945e-20)
(-0.290943 0.0689153 2.98902e-19)
(0.571283 -0.553076 -6.96954e-20)
(-0.0614002 0.103131 1.89155e-21)
(1.02082 0.00712547 -9.99306e-21)
(0.766383 -0.21292 -1.06638e-21)
(0.755646 -0.506175 1.80828e-20)
(1.02572 0.000560491 0)
(0.837071 -0.0128643 -1.00525e-21)
(0.778834 -0.446655 0)
(0.98938 0.067125 6.27398e-21)
(0.76069 -0.198845 0)
(1.02524 0.000591529 0)
(0.678937 0.346122 0)
(1.02036 0.00781012 0)
(1.53221 -0.337685 0)
(0.943833 -0.121733 0)
(1.03528 0.00618591 -9.06061e-21)
(1.4027 0.334242 4.88209e-20)
(1.03608 0.000160323 -4.41877e-22)
(1.00376 0.0547334 0)
(1.04847 -0.00786893 -2.10367e-22)
(1.01029 0.00854296 0)
(0.622082 0.182786 1.24325e-20)
(1.01604 -0.0246955 -2.08585e-21)
(1.36802 0.342947 -2.58396e-20)
(0.593445 0.192528 0)
(0.86859 -0.136503 0)
(1.02406 0.00868922 0)
(-0.0192967 0.124097 0)
(1.13284 -0.0143176 -6.00872e-22)
(1.03663 0.00461154 0)
(0.73949 -0.526957 -1.24487e-20)
(1.03662 0.00567936 -4.06955e-21)
(1.0328 0.000116292 0)
(0.546121 0.149346 -2.86625e-20)
(1.02691 0.00114611 -3.17543e-22)
(1.03701 0.0910897 -1.11873e-20)
(0.8682 -0.118604 -5.72132e-21)
(1.03611 0.00074065 -3.99715e-21)
(1.01981 -0.0280556 -1.14849e-21)
(1.01897 0.12619 0)
(1.03998 0.0174723 0)
(1.03667 0.00712138 -1.71095e-23)
(0.968537 0.154306 3.68927e-21)
(1.08011 -0.00733217 -6.56446e-21)
(1.03375 0.00328339 0)
(1.03847 -0.00111593 0)
(1.09286 0.14009 -1.36749e-21)
(0.607357 -0.122189 1.27943e-20)
(0.963875 -0.14141 -2.73552e-21)
(1.36807 -0.112649 1.30029e-21)
(0.639736 0.24778 0)
(0.840408 -0.0745135 0)
(1.02784 0.00924421 0)
(0.927032 0.860423 -7.88305e-21)
(0.707473 -0.522847 4.17395e-21)
(1.02271 0.0077493 0)
(1.18068 0.0860778 -1.73723e-21)
(1.03823 -0.00134818 -3.73193e-21)
(1.11767 -0.0360515 -1.1713e-21)
(1.02419 0.0089177 0)
(1.03292 -9.35107e-05 6.2406e-21)
(1.03346 0.00556191 -4.86991e-21)
(1.03693 -0.001499 0)
(1.02027 0.00627296 -3.45274e-21)
(0.759075 -0.505428 -3.73706e-20)
(-0.0425951 0.526382 1.4191e-19)
(0.615842 -0.142274 1.27702e-21)
(1.00686 -0.0420201 9.49483e-21)
(1.06096 -0.0404617 -2.02167e-23)
(1.1406 -0.638343 -7.39045e-21)
(1.02727 -0.00526826 -1.27443e-21)
(1.18177 0.156287 -4.81457e-21)
(1.10625 -0.0542094 -6.01881e-22)
(0.945839 -0.127938 0)
(1.0473 0.00467258 -1.284e-20)
(1.17928 -0.63047 -3.20286e-20)
(1.03176 0.00704268 4.18332e-22)
(0.670432 0.351882 -1.30127e-20)
(1.01518 -0.0320351 -5.33747e-22)
(1.19457 0.163308 -3.41113e-21)
(1.03722 0.00515403 0)
(1.10222 0.344306 6.35109e-21)
(0.69688 0.38028 1.21549e-20)
(1.00784 -0.0503698 -6.97049e-21)
(0.728146 0.756185 0)
(1.03781 -0.000178578 -2.35659e-21)
(0.187736 0.490795 0)
(1.02938 0.000889673 0)
(0.991528 -0.118759 0)
(0.922724 -0.30626 1.52437e-21)
(1.04585 -0.000142071 1.11473e-21)
(1.02599 0.0201364 6.78166e-22)
(1.03587 0.00147288 0)
(1.02176 0.00112703 -1.46073e-21)
(1.11523 -0.289415 0)
(1.30288 -0.52737 2.26079e-19)
(1.02928 0.00518078 -5.30303e-21)
(0.961468 -0.0127439 0)
(0.787885 0.345428 1.92317e-20)
(0.786744 0.471876 6.94435e-21)
(1.03675 -0.00152108 0)
(0.916578 -0.211282 5.41502e-23)
(1.04662 -0.00161506 2.56883e-22)
(1.02904 0.00488992 4.15094e-21)
(0.831858 -0.191437 0)
(0.947715 -0.0996489 -1.18122e-21)
(1.10846 -0.0281932 0)
(1.03606 -0.163091 2.14269e-21)
(1.04019 -0.00781884 -3.54349e-21)
(0.821992 -0.170325 1.27365e-21)
(1.03538 -0.000444014 1.38197e-21)
(1.04388 -0.0130677 0)
(1.07611 -0.124896 0)
(1.30031 0.179461 -2.25294e-21)
(1.01425 0.0118783 -8.63569e-22)
(0.900502 0.00732382 -7.41198e-21)
(1.22773 0.103999 1.33142e-21)
(1.0203 0.00607668 -1.93485e-20)
(1.0451 -0.00797584 2.04945e-21)
(1.02855 0.0103695 -6.01041e-22)
(0.395789 -0.106943 0)
(1.14093 0.0109909 0)
(1.03368 -0.0122056 4.73386e-22)
(1.03706 0.0174301 0)
(-0.0858119 1.03276 -2.87975e-19)
(1.09925 0.12041 0)
(1.04543 -0.172564 2.87725e-21)
(1.43519 0.269455 2.77343e-20)
(1.04817 0.00187572 1.76152e-20)
(0.729836 0.45212 3.14645e-20)
(1.02417 0.00636379 0)
(1.03744 -0.0138357 0)
(1.01691 0.0082934 0)
(1.02154 0.0858218 -6.39356e-21)
(1.27093 -0.0308891 -3.85323e-20)
(1.01893 0.00418518 0)
(1.04922 -0.00875131 2.06676e-22)
(1.04274 0.00730535 0)
(0.78443 0.00940181 -3.72206e-21)
(1.04375 -0.0147461 1.51555e-21)
(0.764455 0.457654 -6.89415e-21)
(0.651292 0.721006 0)
(1.02769 0.00891718 9.45346e-22)
(0.988604 -0.107892 9.91254e-21)
(0.716083 0.370601 1.00492e-21)
(1.03543 0.00644492 7.82345e-21)
(1.02617 -0.00658474 -1.80148e-21)
(1.02908 -0.00599299 0)
(1.03083 0.00881204 1.49837e-22)
(0.838449 0.0459347 0)
(1.01891 -0.000881358 1.94911e-21)
(0.140849 0.477172 0)
(1.06996 -0.0453577 -6.78069e-21)
(1.09712 -0.0606617 0)
(1.02649 0.00110265 0)
(1.0227 0.00761343 -1.30458e-20)
(1.04622 0.0073724 9.56728e-21)
(1.02034 0.000782086 1.17753e-21)
(0.984053 -0.0655288 -9.19215e-22)
(0.257028 -0.0495814 2.05549e-20)
(0.749791 -0.497081 0)
(0.583355 -0.678566 -4.43146e-20)
(-0.00656246 0.0595823 0)
(0.816429 -0.0840204 -4.25452e-21)
(1.03478 -5.78848e-05 -5.83023e-21)
(1.02191 0.00706533 -8.12748e-21)
(0.78707 0.769057 0)
(1.13452 0.00274593 -1.24992e-21)
(0.875299 0.0856172 -1.32028e-20)
(0.988066 -0.00303861 1.8432e-21)
(1.26363 -0.035542 1.79073e-20)
(0.938227 -0.114327 -1.04381e-21)
(0.867682 -0.0909407 -2.3209e-21)
(0.892983 -0.0821161 -6.97743e-22)
(0.972643 -0.0216446 0)
(1.03286 -0.0118178 -1.41095e-21)
(1.03246 -0.00249013 2.15994e-21)
(1.02725 -0.026645 0)
(1.03383 0.00278262 7.02404e-21)
(1.3086 0.2923 -1.03452e-19)
(0.815122 -0.158962 1.41002e-21)
(1.00281 0.00019966 0)
(1.02352 0.0105666 -5.16363e-21)
(1.10101 -0.0222605 4.25645e-21)
(0.941898 0.0968534 2.36291e-21)
(0.737929 -0.499558 -3.26621e-20)
(1.14097 0.0831026 6.77633e-22)
(-0.0279337 0.438031 2.97182e-19)
(1.02722 0.000829001 2.18622e-21)
(1.47506 -0.187129 0)
(1.02727 0.00457824 -8.886e-21)
(1.0274 0.0140249 0)
(1.05915 -0.000393567 1.04246e-20)
(1.02381 0.018712 -6.70467e-22)
(1.05025 0.00285938 -3.6182e-21)
(0.968397 -0.16627 -3.91732e-21)
(1.0345 0.00350541 0)
(1.13893 0.0996392 -5.3184e-21)
(0.957857 -0.0117772 0)
(1.02728 0.00097991 -3.7198e-21)
(1.02453 0.0140981 9.08879e-21)
(1.00244 -0.0328333 3.83333e-24)
(0.988775 -0.117079 3.61565e-23)
(0.380759 -0.155054 5.32165e-21)
(0.9764 -0.0451661 2.07881e-21)
(0.559589 -0.554278 7.07036e-20)
(1.03358 0.00659607 0)
(1.18771 0.0816884 2.52589e-24)
(0.932381 -0.185187 1.26958e-21)
(1.27181 0.134231 0)
(1.04973 0.00948332 0)
(1.03713 0.0113732 0)
(1.03598 0.00462037 0)
(1.0721 0.162748 -1.07677e-21)
(1.03251 6.13922e-06 1.11695e-22)
(1.03579 -0.000500538 1.49154e-21)
(1.01507 -0.0216449 -9.38272e-22)
(1.00427 -0.00027397 -8.42029e-22)
(1.03089 0.00873948 -1.29911e-22)
(0.710001 -0.523736 -1.8621e-20)
(1.03728 0.10931 0)
(0.971964 -0.0375247 -2.16494e-21)
(0.956553 0.0184318 -1.06843e-20)
(1.03641 0.00134922 0)
(1.06344 -0.0424107 6.58851e-21)
(0.992125 -0.0170834 0)
(0.795983 -0.0517553 -1.27542e-20)
(1.039 0.00629237 0)
(1.0147 -0.023283 0)
(1.03278 0.00588366 -4.71693e-21)
(1.02707 -0.0298101 3.05283e-24)
(1.03459 2.58477e-05 -3.08733e-21)
(1.0984 0.483906 0)
(0.987649 -0.00249474 -3.91128e-21)
(0.965547 -0.151481 1.08154e-22)
(1.04244 -0.0298504 1.47548e-22)
(0.983961 0.0240193 1.23928e-20)
(1.03633 0.00128857 -4.35225e-21)
(1.03441 -3.11893e-05 0)
(0.994085 -0.00980857 -1.21093e-21)
(1.02876 0.0094786 2.06567e-22)
(1.02568 -0.0278996 9.72985e-22)
(1.1423 0.0959685 6.89919e-21)
(0.946699 0.845641 -9.39693e-20)
(0.601177 0.159231 2.20444e-21)
(-0.254503 0.33579 2.1806e-19)
(1.10064 -0.0223177 -4.38085e-21)
(1.02078 0.00694959 3.7603e-21)
(1.03931 0.00626806 -2.23824e-21)
(-0.0158714 0.0335835 2.64285e-22)
(1.03022 0.00961086 0)
(0.831714 0.394641 0)
(0.829283 -0.162043 2.06902e-21)
(0.613822 0.500428 -1.572e-19)
(1.03234 -0.0113582 0)
(0.663087 0.0058987 0)
(0.750234 0.729129 0)
(1.02426 0.010384 -1.37423e-20)
(1.02618 0.026579 -7.70758e-21)
(1.04585 0.177316 2.76852e-21)
(-0.174175 0.0535235 -9.78104e-21)
(1.0253 9.37499e-05 0)
(1.11667 -0.03575 9.69146e-22)
(1.02246 0.00133555 1.38053e-20)
(0.463106 -0.301828 -9.3785e-20)
(-0.058197 0.422858 0)
(1.00004 0.00194598 -6.47903e-22)
(0.543942 -0.358708 1.17214e-19)
(1.04485 0.00736925 -4.43736e-21)
(1.03639 0.000258441 -2.72655e-21)
(1.05142 0.00416186 -3.58057e-21)
(1.03353 0.000354126 0)
(1.03792 0.0184245 -2.01937e-21)
(1.02935 0.00867485 4.26539e-22)
(0.733055 -0.0716674 -8.36009e-22)
(0.755343 -0.0840497 0)
(1.01771 0.00159386 4.55217e-22)
(1.02808 0.00493067 -1.02785e-20)
(1.03253 0.00576696 -2.38553e-21)
(1.02609 0.00362737 -5.50157e-21)
(1.03671 0.00034364 3.90538e-21)
(-0.0825713 1.02704 3.76473e-20)
(0.594976 -0.661437 0)
(1.22358 0.0877858 -1.58661e-21)
(1.02811 0.010444 -2.21706e-22)
(1.02833 0.0140406 2.70134e-22)
(1.03116 0.00865254 9.34018e-23)
(-0.138375 0.365541 6.81898e-20)
(0.354195 -0.089018 0)
(1.23302 0.274872 -3.40256e-21)
(1.01895 0.549163 -3.28156e-21)
(1.039 -0.0252693 6.70848e-22)
(0.821236 -0.484346 1.47576e-20)
(0.778972 -0.461669 4.23508e-20)
(1.32077 -0.576815 -2.3857e-19)
(1.02744 0.0113592 0)
(1.01412 -0.0202744 0)
(0.949325 -0.302438 5.28492e-21)
(1.0011 0.00116314 6.16281e-21)
(0.0599643 0.429408 -3.94401e-21)
(1.03499 0.00373789 6.60708e-21)
(1.02077 -0.000980959 -2.24295e-21)
(1.03042 -0.00304917 0)
(1.1329 -0.0603852 -1.32651e-21)
(1.14656 -0.0125971 2.2471e-21)
(1.01614 0.00975928 0)
(1.03825 0.033146 2.56829e-21)
(1.10857 0.0469815 2.90293e-22)
(1.03382 -5.56795e-06 1.43666e-21)
(0.888627 -0.0960658 0)
(0.906884 -0.255771 0)
(0.883657 -0.0903498 0)
(1.16615 0.0931575 -4.56791e-21)
(0.92232 -0.119232 -1.43385e-21)
(1.02061 0.00761196 0)
(1.12598 0.106036 -1.26864e-20)
(1.01538 -0.059692 1.06706e-20)
(1.01873 0.000419513 -7.59234e-22)
(1.03249 -1.50282e-05 -3.21725e-21)
(0.556783 0.168745 0)
(0.932349 -0.0869501 -1.25668e-21)
(0.0885733 0.397946 -3.18587e-21)
(0.836935 -0.724778 0)
(1.04292 0.014722 0)
(1.0144 -0.0187588 9.82259e-22)
(1.02138 0.0991316 0)
(1.03251 -0.000402205 4.92316e-21)
(0.78702 0.248749 2.24813e-20)
(0.804869 -0.0135486 0)
(1.0284 -0.00506341 -1.77077e-21)
(1.0242 0.00114599 4.7913e-22)
(1.19074 -0.554238 2.79622e-20)
(1.02543 0.0109528 -4.39625e-21)