/*--------------------------------*- C++ -*----------------------------------*\
| =========                 |                                                 |
| \\      /  F ield         | OpenFOAM: The Open Source CFD Toolbox           |
|  \\    /   O peration     | Version:  v2012                                 |
|   \\  /    A nd           | Website:  www.openfoam.com                      |
|    \\/     M anipulation  |                                                 |
\*---------------------------------------------------------------------------*/
FoamFile
{
    version     2.0;
    format      ascii;
    class       volVectorField;
    location    "250";
    object      ddtCorrDdt0(U);
}
// * * * * * * * * * * * * * * * * * * * * * * * * * * * * * * * * * * * * * //

dimensions      [0 1 -2 0 0 0 0];


internalField   nonuniform List<vector> 
18166
(
(-0.00398977 -0.00195611 -7.94608e-23)
(-2.46501e-05 6.07804e-06 6.23489e-23)
(0.00378924 -0.000475406 -1.02699e-23)
(0.00360401 -7.85617e-05 2.05059e-23)
(-0.00510417 0.00262338 0)
(-0.00048915 2.89467e-05 -2.13016e-23)
(-1.14738e-06 5.96012e-06 -1.519e-23)
(2.42307e-05 4.4853e-07 1.11953e-22)
(-3.14241e-05 -0.000188444 0)
(-0.00382678 -0.000778172 8.00512e-23)
(-2.44927e-05 4.19261e-06 0)
(-0.000658458 0.000199032 0)
(3.7168e-05 -4.18592e-05 2.73627e-24)
(8.15769e-05 -0.00019938 1.26656e-22)
(2.49993e-05 -8.27952e-05 -2.14516e-23)
(-3.81315e-05 2.48395e-05 0)
(0.0162599 -0.00900444 0)
(2.57087e-05 5.48745e-06 7.21522e-24)
(2.18232e-05 -3.24236e-05 3.56404e-23)
(-0.00103406 -0.000482006 2.78728e-23)
(6.57018e-06 -2.49121e-05 1.58084e-23)
(4.44e-06 -2.49067e-07 0)
(2.20312e-05 -3.48398e-05 6.59919e-24)
(-3.78012e-05 -4.24881e-05 0)
(0.00282244 0.00775754 3.49398e-23)
(0.00308487 0.00154405 -1.11764e-22)
(2.64355e-05 2.62765e-06 -6.9677e-23)
(0.00233768 0.000145938 3.17371e-23)
(-1.65551e-05 -1.40628e-05 0)
(-5.02478e-06 4.27424e-06 -5.42397e-23)
(3.02464e-05 8.43441e-06 0)
(0.000969245 0.00501447 -8.82315e-24)
(0.000685672 -0.000391336 6.9886e-23)
(0.00233083 0.00792287 0)
(-0.00072926 0.00159243 -4.87936e-22)
(-5.05925e-06 -8.23847e-06 -4.15804e-24)
(1.11334e-05 1.8866e-06 -3.24843e-25)
(-1.65091e-05 1.28883e-06 4.52063e-24)
(0.000216123 -4.90386e-05 6.68434e-23)
(-0.000574881 0.000297874 0)
(-4.3129e-05 -0.000195466 9.75981e-23)
(2.77031e-05 -3.4327e-05 0)
(-1.76723e-05 -2.80196e-07 1.39101e-23)
(2.07549e-05 -3.14845e-05 1.79505e-23)
(-0.00605052 0.00150498 0)
(1.41032e-05 4.59361e-06 2.12096e-23)
(-3.4516e-06 2.6468e-08 -4.84446e-24)
(-0.0100796 -0.0107119 7.32131e-23)
(3.17147e-05 1.37656e-05 -3.78991e-25)
(-0.00177715 0.000190263 6.97962e-23)
(9.02058e-05 -0.000224856 5.89761e-23)
(0.0157285 -0.00882933 1.70314e-22)
(3.213e-05 1.28616e-05 5.3186e-25)
(-6.30221e-07 4.17679e-05 -7.18527e-23)
(1.38459e-05 4.23491e-06 -6.84762e-23)
(-7.09744e-06 -4.48504e-06 -4.74207e-23)
(-0.000129242 0.00337449 0)
(-2.85541e-06 -4.4638e-07 0)
(-0.000961969 0.00196588 -1.93788e-22)
(-7.25015e-06 -5.19119e-06 2.51138e-23)
(2.52903e-05 -1.91589e-05 -3.26749e-23)
(4.33663e-06 2.69981e-06 -7.8199e-23)
(9.26173e-06 -6.58066e-07 4.90319e-23)
(-3.18466e-06 -5.55603e-06 -4.15302e-25)
(-2.44751e-06 4.15494e-07 3.41171e-23)
(3.48991e-06 2.40088e-06 0)
(-3.09656e-09 3.47739e-06 0)
(-3.46944e-05 2.52042e-05 -4.0073e-23)
(0.000989837 0.00595346 -2.07017e-22)
(1.85964e-05 -7.88993e-06 4.52091e-23)
(3.54867e-05 -4.06038e-05 0)
(0.00366467 -0.00082351 -1.38098e-22)
(-0.000584986 -0.000456493 0)
(-3.09392e-05 -0.000173485 0)
(1.85543e-05 -8.14271e-06 -3.03446e-23)
(0.000197114 -0.000642262 -7.66253e-23)
(0.00222945 0.000671076 0)
(-0.00555411 -0.00830798 -4.55985e-22)
(-6.71546e-05 -0.00133829 2.77547e-22)
(-8.18669e-05 -0.0003236 0)
(6.90587e-06 -2.47985e-05 7.73068e-24)
(0.00016095 0.000160703 0)
(-0.00711021 0.00197568 1.16222e-23)
(6.92892e-06 -6.99569e-06 0)
(7.7828e-06 1.70161e-06 4.34542e-23)
(2.82029e-05 -1.72272e-05 6.07683e-26)
(0.0002224 -0.000148585 -6.01663e-25)
(-3.67756e-06 -5.63072e-06 5.95944e-25)
(-5.00803e-06 3.36485e-06 8.33324e-23)
(0.000327187 -0.000356166 0)
(6.43648e-06 -7.43264e-06 1.93297e-23)
(1.96891e-05 -6.40835e-06 0)
(2.78508e-05 -3.30017e-05 0)
(-4.96999e-06 3.01718e-06 -8.04494e-23)
(-3.48639e-05 -0.000167919 0)
(-7.66195e-06 -2.56664e-05 0)
(-0.00687973 0.0085948 0)
(-2.7757e-06 -5.17273e-07 0)
(0.00376685 -0.0103304 0)
(-0.00521734 0.00388732 -2.11372e-23)
(-0.000113363 6.2271e-05 -9.13979e-24)
(2.90896e-05 3.40304e-06 3.38141e-23)
(-4.78738e-06 4.49225e-06 0)
(0.0028899 -0.000196203 3.26897e-23)
(1.35226e-05 -9.20669e-06 -6.31043e-24)
(0.00101851 0.00335868 7.12357e-24)
(6.01623e-06 -1.61436e-06 4.33173e-23)
(4.0084e-07 9.2813e-07 -6.91916e-23)
(5.68959e-05 0.000140469 -1.97589e-24)
(-1.49445e-05 -1.15132e-05 0)
(0.00526068 -0.00907174 -5.20336e-22)
(-0.00263856 0.002352 0)
(0.0148483 -0.00831725 0)
(-0.00117412 0.00481436 0)
(-3.41175e-05 -5.08164e-05 2.68293e-23)
(0.0025213 -0.00108283 -1.15057e-22)
(-0.00490877 -0.00413405 -6.20699e-22)
(-0.000223707 7.77815e-07 1.72646e-22)
(-3.59188e-05 -4.02336e-05 0)
(-2.05084e-05 4.88982e-06 -6.39424e-24)
(-3.67248e-05 1.11552e-05 -8.88451e-23)
(-1.93979e-05 4.31105e-06 0)
(-0.000203986 -9.0184e-07 -1.00662e-22)
(5.85307e-06 2.22595e-06 -6.39264e-23)
(-5.5063e-06 1.19204e-06 -4.19466e-23)
(6.88512e-07 -6.47034e-05 3.28445e-24)
(-1.30305e-07 -6.23935e-05 0)
(5.46592e-05 2.6165e-05 6.84741e-23)
(8.07999e-06 -1.39042e-06 1.89722e-23)
(-4.18996e-06 -5.70886e-06 -4.41021e-25)
(-1.06696e-06 5.70798e-06 -7.9294e-24)
(-3.13837e-06 -6.16751e-06 -2.20706e-25)
(-0.000263354 7.38524e-05 8.30318e-24)
(-9.63768e-05 6.37467e-05 0)
(0.000616497 -0.000496263 -1.59383e-23)
(0.0027119 -0.00125815 1.05263e-22)
(-2.82268e-07 -3.53023e-06 0)
(0.00629004 0.0084941 -1.67058e-22)
(7.83646e-06 -1.29201e-06 2.52488e-23)
(0.00149927 0.00230538 2.81074e-22)
(-1.30428e-05 2.9719e-05 -9.65554e-23)
(-3.55178e-05 1.32721e-05 1.56628e-22)
(1.25301e-05 -5.09346e-05 -8.63146e-24)
(0.000572796 0.00234041 -1.18874e-22)
(4.22566e-05 2.31585e-05 3.50768e-25)
(-0.00530439 0.00138994 0)
(0.00130192 0.00295842 2.4391e-22)
(1.13838e-05 2.00889e-06 3.5505e-23)
(2.83708e-05 -5.14295e-06 8.16764e-24)
(-0.00522159 0.00375299 0)
(3.60931e-05 -6.40074e-05 -4.06942e-23)
(8.406e-06 -2.2845e-05 -1.18489e-23)
(0.00169489 0.00394296 0)
(-0.00148051 -0.00706935 0)
(-0.00264588 -0.00187773 0)
(2.88629e-05 -3.1267e-06 -8.34564e-24)
(3.60875e-05 6.45319e-05 2.73442e-23)
(-1.6674e-05 8.59323e-05 5.02237e-23)
(-0.00268602 -0.0026623 0)
(-3.16476e-05 -4.89269e-05 4.2012e-23)
(1.87866e-05 -1.52765e-05 2.57774e-23)
(5.4259e-05 -2.3587e-05 1.51762e-23)
(0.00797946 0.00362666 -1.36691e-21)
(-1.73081e-05 -3.46916e-07 -1.03552e-23)
(-3.14903e-06 -6.17498e-06 5.32698e-24)
(0.000101176 -6.39824e-05 -2.03755e-23)
(-7.1528e-05 1.33196e-05 4.33561e-22)
(2.01218e-05 2.36909e-06 1.50449e-23)
(0.00178588 -0.00438627 6.17044e-22)
(3.53897e-05 5.72586e-05 -2.82958e-23)
(-9.14174e-05 -6.60355e-05 3.44315e-23)
(-0.000139812 -0.00312842 -5.00505e-24)
(1.35012e-06 7.55078e-07 0)
(0.0078594 -0.00189694 0)
(-1.61778e-05 -5.27695e-07 9.83758e-24)
(-0.00124093 -0.00365243 -7.85508e-24)
(2.75402e-05 -1.37308e-05 2.57466e-23)
(-0.00220602 -0.00370288 4.41825e-23)
(-7.45935e-06 -4.02799e-06 2.25486e-23)
(-3.3971e-07 -1.85868e-05 0)
(6.08891e-06 2.04589e-06 3.34522e-23)
(1.96137e-05 -7.23667e-06 -1.09255e-23)
(-0.00354004 -0.00386551 3.13048e-23)
(0.0119703 0.00591974 -9.85583e-24)
(-0.000101976 -4.31556e-05 -9.27161e-24)
(5.18046e-06 -1.56192e-06 0)
(1.19134e-05 -1.66603e-07 -5.54846e-23)
(1.30992e-06 -1.63295e-05 -2.11747e-23)
(-6.32342e-05 -2.44102e-05 1.3327e-23)
(6.83983e-06 -9.14963e-07 -3.69846e-23)
(-1.11475e-05 8.06902e-05 -4.90202e-23)
(-9.65781e-05 -4.78986e-05 9.38239e-23)
(0.00608642 0.00409831 -2.96764e-22)
(-3.68544e-06 -1.60814e-07 0)
(4.9564e-05 -3.16353e-05 2.76135e-23)
(0.0043252 -0.00617872 -2.46986e-21)
(0.00468989 -0.00765694 -1.72278e-21)
(-0.00108563 0.0003169 3.43157e-23)
(-1.53921e-05 2.98665e-05 -3.59529e-23)
(-1.17696e-07 3.67721e-06 -6.53815e-24)
(0.00011473 3.38846e-05 -2.52329e-23)
(-0.000633675 -0.00999034 0)
(0.00277103 -0.00353595 1.53422e-22)
(-3.33673e-05 -5.37183e-05 2.58209e-23)
(-6.48503e-06 -5.54049e-06 0)
(-0.00183476 0.00104332 5.63654e-23)
(-3.70952e-05 1.84414e-05 0)
(0.00387345 0.00063635 0)
(-0.00164933 0.000537475 -4.27052e-23)
(0.000210986 1.71258e-05 0)
(4.78338e-07 1.322e-06 0)
(-0.00164496 0.00120863 -5.02539e-23)
(-0.00175378 0.000678033 4.84097e-23)
(0.000183728 1.15303e-06 1.37592e-23)
(2.66683e-05 -4.08488e-05 1.85258e-23)
(-1.23517e-05 3.34363e-05 0)
(-0.00837546 -0.00890161 3.29645e-22)
(1.19947e-06 3.83491e-05 0)
(-2.95161e-06 8.31401e-05 -1.02863e-22)
(7.2499e-07 1.23029e-05 -3.44508e-24)
(0.000188474 0.00013518 -4.83211e-23)
(0.00837799 -0.00552148 0)
(5.64225e-05 -0.000151714 6.54965e-23)
(4.80061e-06 9.0369e-07 -2.59475e-23)
(-3.67161e-06 -6.20935e-09 0)
(0.00206141 0.00346877 -1.05078e-22)
(4.56466e-06 2.50744e-06 4.58634e-23)
(1.23258e-06 5.83772e-06 0)
(-8.95546e-05 0.00042051 0)
(5.27357e-06 9.67271e-07 1.8826e-23)
(9.39766e-06 3.64845e-07 -2.92302e-23)
(-2.31856e-05 1.11934e-07 -3.60644e-24)
(0.00337619 0.00190476 -3.89566e-22)
(-2.36196e-05 -2.56081e-07 3.8364e-24)
(-0.00227057 -0.00911213 0)
(0.00461431 -0.00948512 2.71787e-23)
(0.00194094 -0.0137166 4.01637e-23)
(-6.78506e-06 -1.61463e-06 7.7209e-24)
(6.75657e-05 -1.88315e-05 0)
(-0.000129478 0.000485765 1.30285e-22)
(3.46514e-06 2.13624e-06 2.42266e-23)
(6.63049e-05 -0.000181924 -1.14838e-22)
(9.39488e-06 2.51945e-07 0)
(0.00231521 0.00386651 0)
(4.53032e-06 1.00111e-06 1.1225e-22)
(-1.65502e-05 5.14924e-06 0)
(-0.0118459 -0.00178846 4.93417e-23)
(-1.77176e-05 6.04809e-06 0)
(-5.00448e-05 -0.000361018 -5.91433e-24)
(-0.000599365 0.000106085 0)
(0.00786023 -0.00286794 -3.74778e-22)
(1.35646e-06 1.14901e-05 3.03478e-24)
(1.95172e-05 -4.47774e-06 1.22223e-22)
(-0.000395454 8.3375e-05 1.09965e-24)
(-3.76557e-05 1.57727e-05 -8.33577e-23)
(-3.76786e-06 1.20103e-08 8.23188e-24)
(-1.00324e-05 3.3269e-05 7.3398e-23)
(-5.43704e-06 -6.98169e-06 0)
(1.81002e-05 -7.50129e-06 -2.44482e-23)
(-7.42545e-06 -2.43472e-05 0)
(-0.000726047 0.000106165 1.9372e-22)
(-0.000698264 0.000197984 0)
(1.27562e-06 -1.59861e-05 7.42641e-24)
(1.60289e-07 -2.47252e-06 0)
(-3.55967e-06 1.12152e-07 -2.94729e-23)
(0.000111819 0.00018015 6.66785e-23)
(0.00084046 -0.00916398 2.34753e-22)
(1.76829e-05 1.20867e-06 2.55319e-23)
(5.29911e-06 -1.82793e-06 -2.74521e-23)
(0.000504359 -0.000792872 1.65168e-24)
(-1.98835e-07 2.85134e-06 -5.11842e-23)
(-6.155e-06 -5.82943e-06 0)
(-0.000199951 8.70363e-05 6.16598e-23)
(0.000429855 0.00483237 5.0611e-23)
(-7.71711e-05 4.28352e-05 -1.67661e-23)
(6.08275e-07 3.60667e-06 -2.45341e-23)
(0.00104233 -0.000714781 1.05042e-22)
(7.59899e-06 1.81796e-06 4.42939e-23)
(-2.30606e-05 5.19586e-06 -8.26545e-23)
(-0.00411221 0.00876368 -2.83533e-22)
(-8.46059e-07 5.54632e-06 7.76074e-24)
(0.000266037 -0.000155662 -1.06945e-23)
(3.59618e-06 -6.62187e-05 -4.84718e-24)
(-6.91336e-06 -5.71219e-06 0)
(-4.13108e-06 -5.99304e-06 -3.15393e-25)
(5.45051e-05 3.44779e-05 -5.69191e-23)
(-0.00345167 -0.000739266 0)
(-0.00029852 7.45345e-05 8.36204e-23)
(9.29827e-07 2.20288e-06 0)
(-2.62547e-05 7.40649e-05 0)
(4.616e-05 0.000120586 1.91537e-24)
(-0.0022795 -0.00189836 2.50116e-23)
(-4.47534e-06 -7.69882e-06 1.71475e-24)
(-6.78341e-05 -3.71393e-05 1.0171e-22)
(-2.12442e-05 3.02516e-06 2.97233e-24)
(6.0052e-06 -4.28034e-07 -1.95239e-23)
(6.15882e-06 3.49564e-06 -1.01108e-24)
(0.000383405 0.00354197 0)
(-2.24137e-05 3.23251e-06 -2.99852e-24)
(-0.000500728 -0.00755781 -2.25323e-22)
(1.54119e-05 -0.000137094 1.31424e-22)
(3.83909e-05 -0.00117656 -2.03607e-23)
(0.00378345 0.00742912 -4.41133e-22)
(0.00021902 -8.15214e-05 -7.25896e-23)
(-6.29334e-06 5.44138e-06 -1.52632e-23)
(-6.34995e-05 6.86452e-05 0)
(0.000537704 -0.000501913 8.81806e-23)
(2.9914e-06 5.42042e-06 -6.89207e-23)
(2.82288e-05 2.23853e-06 -3.23207e-23)
(-2.01619e-05 7.04867e-05 4.92713e-23)
(-1.91773e-05 6.9356e-06 -2.53365e-23)
(-5.78644e-06 1.58616e-06 5.20177e-23)
(-2.30488e-05 -2.44049e-05 1.24189e-23)
(8.97812e-06 -1.00092e-05 9.58323e-23)
(-8.4881e-07 5.44034e-06 -7.88984e-24)
(-1.23909e-05 -1.01904e-06 1.2086e-23)
(9.23679e-06 -4.70593e-06 -2.2967e-23)
(-0.00184343 0.00160561 -9.15813e-23)
(-0.00368307 -0.00146652 0)
(-5.49184e-08 2.70765e-06 2.43942e-23)
(0.0274617 -0.00154407 3.53705e-22)
(-8.41829e-05 -4.85442e-05 0)
(-0.000392872 -0.00573402 -4.23474e-22)
(-8.91201e-05 -4.44151e-05 0)
(1.42722e-05 4.00256e-06 5.95689e-25)
(9.48855e-06 -4.54517e-06 2.21433e-23)
(-1.81236e-05 6.19149e-06 2.38465e-23)
(-0.00168877 -0.00460002 1.48749e-22)
(-5.64303e-06 1.66291e-06 2.3358e-23)
(-0.00177741 0.000137354 0)
(6.34984e-06 -1.63826e-06 -5.1855e-23)
(-1.54484e-05 -9.1629e-07 2.6195e-24)
(2.17648e-06 1.29406e-06 0)
(-6.00169e-06 3.71986e-05 7.07009e-23)
(4.31876e-06 -5.3802e-05 -1.21731e-23)
(-4.71285e-06 2.66673e-07 0)
(-0.00150547 6.50466e-06 0)
(-0.000748338 0.000390535 0)
(2.34564e-05 7.70413e-05 3.53174e-23)
(-2.81258e-06 5.0646e-06 -3.40049e-23)
(-6.81948e-05 -0.000990997 -3.8427e-23)
(-2.37745e-05 -2.54552e-05 -1.65342e-23)
(-0.00160992 0.00184143 -9.10663e-23)
(-5.43063e-06 1.63037e-06 3.89268e-23)
(1.16194e-06 -5.82243e-05 1.24039e-23)
(-1.39721e-05 -1.21283e-05 0)
(0.0181029 0.0169451 3.02379e-21)
(-1.77274e-05 -1.2235e-05 1.92468e-23)
(7.33276e-06 1.08805e-05 -4.61052e-23)
(1.36565e-05 -8.60538e-06 5.45811e-24)
(-0.000236263 0.000236455 0)
(-2.12948e-06 1.67599e-06 0)
(-9.48476e-05 0.000604064 4.45806e-24)
(-2.0396e-05 -2.31606e-05 0)
(-0.000614467 -0.00896102 0)
(2.36729e-05 -3.49441e-05 1.73636e-23)
(2.11471e-05 -1.15069e-05 -2.69416e-23)
(2.54114e-05 7.01152e-05 -5.83495e-23)
(-0.000441141 -0.000567149 -5.11424e-23)
(0.000500267 -0.000397042 -4.77709e-23)
(3.66913e-05 1.72016e-05 1.12129e-23)
(5.01757e-06 9.55113e-06 -6.25956e-23)
(-2.25512e-05 1.43874e-06 -6.66075e-24)
(2.25718e-06 -6.03196e-05 1.22365e-23)
(-0.00149173 0.000255584 -3.60348e-23)
(-2.32431e-05 1.74889e-06 6.88304e-24)
(1.41573e-05 3.69489e-06 0)
(-3.19611e-06 2.41736e-07 5.91556e-24)
(-3.0445e-06 -4.35082e-07 -8.36335e-23)
(-0.000187114 5.87372e-05 7.21295e-23)
(5.26475e-06 2.05086e-06 0)
(-2.56349e-05 3.60522e-05 0)
(1.21755e-06 6.35021e-06 4.80302e-23)
(-0.0157486 -0.00690442 8.83335e-22)
(-2.55287e-06 4.70292e-06 5.39979e-23)
(-6.78459e-06 -1.14005e-06 0)
(2.56803e-05 6.57826e-06 0)
(-1.51263e-05 4.67275e-05 -3.46701e-23)
(4.99635e-06 1.09244e-06 -3.32876e-23)
(-1.75844e-05 -1.36792e-05 0)
(-1.34659e-05 2.92742e-06 -6.11798e-24)
(-6.72408e-06 -2.18931e-06 5.53094e-23)
(0.000204029 0.0011326 0)
(-0.000514425 0.00170678 2.63856e-23)
(-1.27839e-05 4.85365e-06 8.00656e-24)
(-1.29183e-05 -1.39926e-05 3.02724e-23)
(2.9154e-05 -0.000170428 0)
(0.000465328 0.00122505 -3.25298e-23)
(5.47287e-06 -2.58008e-05 -1.47962e-23)
(0.0184988 0.0159389 1.43697e-21)
(-1.23583e-05 9.29373e-07 -1.90322e-24)
(0.000313393 0.0104537 2.9286e-22)
(-3.00081e-05 -0.000150428 4.15784e-23)
(-9.48125e-06 -4.14449e-05 0)
(0.00276203 0.00802411 -5.75258e-23)
(0.00195849 0.00164959 4.28185e-23)
(-2.58894e-06 7.48534e-07 0)
(-1.63102e-05 -6.52901e-07 1.31821e-25)
(-3.18721e-06 1.03995e-07 2.16621e-23)
(-0.00179788 -0.000902217 8.70619e-23)
(-1.64473e-05 -2.09255e-06 8.24236e-24)
(-1.90382e-05 -1.47159e-06 -6.39506e-24)
(-8.66491e-06 3.7422e-05 7.59438e-23)
(-1.45671e-05 -2.46624e-05 -1.4978e-25)
(-9.62199e-06 -4.26687e-05 4.61368e-23)
(1.00389e-06 1.18055e-06 6.90441e-23)
(7.23423e-06 -6.07791e-07 3.23457e-23)
(-8.90226e-05 -0.000523546 -5.24976e-22)
(-0.00119771 -0.00277006 0)
(-1.34399e-05 -2.28161e-05 8.17044e-24)
(2.65051e-05 4.60928e-06 -3.76036e-23)
(0.00300345 0.00532501 -2.61088e-22)
(-0.000205986 -8.77231e-05 0)
(-8.20053e-07 2.39296e-06 -2.45313e-24)
(3.11624e-05 1.17989e-05 0)
(0.00724171 0.00212295 -6.27715e-23)
(-6.86449e-06 -2.63741e-05 2.53903e-24)
(-4.26349e-06 -3.23887e-06 0)
(9.43862e-06 4.43435e-06 3.98774e-23)
(-6.35715e-05 -2.87392e-05 2.8611e-23)
(2.011e-06 1.09877e-06 0)
(3.02402e-05 1.18832e-05 -1.34186e-25)
(-8.58651e-05 -0.00110459 0)
(-0.000300421 -0.000784485 -6.44374e-23)
(9.8214e-05 7.72348e-06 -4.43603e-23)
(-2.68398e-06 6.46012e-07 1.93967e-23)
(-1.87832e-05 -1.20156e-05 -2.103e-23)
(3.00916e-05 9.84036e-06 0)
(2.90991e-05 8.59284e-06 0)
(0.000155218 0.000511151 0)
(-7.52015e-06 -3.86143e-05 2.06378e-23)
(-1.3592e-05 2.78771e-06 0)
(-5.89512e-06 5.34883e-06 0)
(-0.000210805 -2.01802e-05 3.31517e-23)
(8.10621e-06 6.01579e-07 0)
(-3.27328e-07 1.17823e-05 -2.40173e-23)
(-2.41717e-06 -1.2676e-06 1.02966e-22)
(-0.00144656 0.000760957 -1.79148e-22)
(-0.00706837 -0.0033399 0)
(0.00189073 0.00188869 0)
(-0.00159848 -0.0103847 0)
(0.0218577 0.00285975 0)
(-0.00247168 -0.000609397 0)
(-0.00231042 -0.000470331 -2.6595e-22)
(-5.9717e-06 1.10032e-05 4.79214e-23)
(-7.63815e-05 -9.53323e-05 -9.43284e-25)
(0.0273509 -0.00130123 0)
(-3.95485e-05 2.15242e-05 0)
(2.71906e-05 -0.000161074 0)
(-0.000166314 0.000434747 -3.89802e-25)
(0.000187526 0.00044159 1.516e-23)
(1.25802e-05 2.11683e-06 0)
(-6.62011e-06 -1.84134e-06 -4.73913e-23)
(-1.32255e-05 3.32024e-06 0)
(2.59415e-05 2.54342e-06 3.72571e-26)
(-0.000150809 6.11418e-07 0)
(8.56253e-06 5.16011e-05 -1.62521e-23)
(-2.23809e-06 4.70166e-06 7.27446e-24)
(-9.32959e-07 1.24503e-05 2.72752e-23)
(-2.86704e-05 3.28131e-05 3.48633e-23)
(7.46384e-06 4.04326e-06 0)
(-5.57509e-06 -2.8493e-05 -2.48857e-23)
(9.47493e-06 4.5113e-07 0)
(2.09057e-05 -3.37339e-05 -1.84009e-23)
(2.54166e-05 -7.89038e-05 3.06838e-23)
(-4.22607e-06 5.7493e-05 0)
(-5.98342e-05 -3.73887e-05 0)
(-5.26895e-06 1.01676e-06 -2.40012e-23)
(0.000191862 0.000705947 -1.49712e-23)
(-1.59485e-05 2.57419e-05 0)
(0.000153691 -7.06812e-05 1.13138e-23)
(-4.79473e-06 5.99364e-07 -1.98076e-23)
(-0.000168672 1.66332e-05 0)
(2.97498e-05 -1.14693e-05 -2.00128e-25)
(-0.00933665 -0.00308389 0)
(-3.52188e-06 1.45947e-07 5.94772e-24)
(9.26137e-05 -6.75802e-06 4.71434e-23)
(-1.09714e-05 1.60953e-06 -1.94879e-24)
(3.35405e-05 1.91938e-05 -3.68709e-23)
(0.00427148 0.00113406 5.92613e-23)
(-9.05664e-05 0.000244722 -1.89596e-22)
(9.74458e-05 4.98317e-05 0)
(0.000378022 0.00264889 1.98522e-23)
(2.93939e-06 4.91843e-06 8.20708e-23)
(0.000294697 -0.000584492 0)
(2.5602e-05 -8.62939e-05 2.0724e-23)
(-0.00141007 0.000993186 9.04476e-23)
(-3.29234e-05 -5.27953e-06 2.28495e-23)
(-3.56339e-05 8.80583e-05 1.3347e-22)
(9.67649e-06 2.63746e-07 -6.68642e-23)
(8.12188e-07 2.38519e-06 -7.21659e-24)
(-2.16129e-05 1.73433e-05 0)
(-5.7702e-06 4.91205e-06 -5.54389e-23)
(0.000798666 -0.000163355 1.63904e-22)
(0.00403605 -0.00309119 4.77133e-22)
(-7.62731e-05 0.000241802 1.7639e-22)
(3.16194e-06 -1.84486e-05 0)
(3.14674e-05 -3.49017e-05 4.48896e-23)
(-5.3659e-06 -5.43386e-06 -1.96372e-24)
(-7.74799e-06 -3.17737e-06 -8.45809e-24)
(1.36083e-05 -4.80003e-05 4.31497e-24)
(-3.83718e-06 -3.45199e-06 -4.59349e-24)
(4.73195e-06 -2.19722e-05 0)
(-0.00358299 0.00209751 0)
(7.37572e-05 -3.45827e-05 0)
(-5.42461e-06 -9.74463e-06 0)
(-2.48869e-05 1.91704e-05 0)
(4.56956e-07 3.80736e-06 -2.53154e-23)
(9.51245e-05 -3.80168e-05 4.13429e-23)
(0.000421845 -0.000845493 0)
(-4.23096e-06 4.16308e-05 -7.94989e-23)
(-2.22451e-06 2.06706e-07 -7.5227e-23)
(8.03181e-07 1.33278e-06 -7.63506e-23)
(6.609e-06 -4.2627e-07 0)
(-0.00132714 0.00154653 -1.53658e-22)
(-0.00381687 0.000555551 -2.43697e-25)
(0.00216159 0.00270615 -5.33853e-24)
(-1.38795e-05 -1.33846e-05 -1.98251e-23)
(-0.0111376 -0.00533004 -7.78817e-23)
(-5.31344e-06 -7.12678e-06 7.20371e-24)
(1.92919e-06 7.79291e-05 1.01082e-22)
(-0.00701327 0.00187873 -8.69478e-23)
(-0.000260447 1.62516e-06 -8.2203e-23)
(0.000888502 -0.000343758 -3.21592e-22)
(-0.00194476 -0.00789266 0)
(4.44867e-05 3.78124e-05 -3.09002e-23)
(-4.01388e-06 -3.70655e-06 5.9185e-24)
(-4.52507e-06 5.55669e-07 1.83744e-23)
(-1.62791e-05 1.57314e-06 -4.32569e-24)
(5.26165e-07 1.01611e-06 0)
(-0.00163216 -0.001372 -4.30097e-23)
(-1.95063e-05 -0.000203161 1.04116e-22)
(-0.00235795 -0.00161165 -3.17078e-23)
(-0.00179076 0.00895546 0)
(3.83144e-05 7.22636e-05 0)
(-0.0108794 -0.00536206 8.21947e-23)
(-1.65384e-05 1.04725e-06 0)
(1.49182e-06 -1.36208e-06 -1.69126e-23)
(3.75133e-06 -0.000222345 -5.10415e-23)
(-3.29406e-05 3.50497e-05 0)
(7.64784e-05 -7.6392e-05 -1.96156e-23)
(-0.000510319 0.000762716 0)
(1.89833e-05 -0.000144023 1.22068e-24)
(-0.00436165 2.34518e-05 2.65715e-25)
(-5.22749e-06 -9.40736e-06 0)
(3.06622e-05 -3.56787e-05 -4.03104e-23)
(-1.03676e-05 1.02415e-06 -1.92311e-24)
(-1.35731e-05 -3.23883e-07 0)
(-0.00413502 0.00258657 7.99284e-23)
(3.08582e-05 1.72321e-05 4.14421e-23)
(2.27762e-05 -8.42155e-05 -6.38781e-23)
(4.38083e-05 2.74797e-05 0)
(1.11478e-06 3.50618e-06 1.22668e-23)
(-0.000800032 0.000276506 1.83141e-22)
(4.01368e-05 2.25611e-05 0)
(-1.54177e-05 5.99642e-08 0)
(0.000899094 0.000967976 1.32954e-22)
(0.00158158 0.00148476 1.16098e-22)
(-2.79718e-06 1.40568e-06 -1.9246e-23)
(0.000896404 0.00140186 3.99e-23)
(-1.73449e-05 4.32967e-06 0)
(1.75519e-05 -0.000140366 6.19076e-23)
(-6.54806e-06 -0.000102487 -2.45705e-22)
(3.33043e-06 -1.95044e-06 -2.01815e-23)
(-7.73562e-07 5.39365e-06 1.49723e-23)
(0.0051136 0.00326691 4.48192e-22)
(-3.31268e-05 2.83905e-05 -8.33059e-23)
(5.98042e-05 2.00674e-05 0)
(-1.75866e-05 -2.43688e-06 -3.79982e-24)
(-1.03865e-05 -2.33807e-05 -1.27114e-23)
(0.000115579 1.50927e-05 0)
(-1.84643e-05 -1.48874e-06 -4.1358e-24)
(-0.00273861 -0.00652976 7.57974e-23)
(9.97337e-08 6.40511e-06 0)
(-0.00102585 -0.00485521 0)
(0.00280953 0.00641321 0)
(2.75856e-05 -4.00243e-05 -3.31611e-23)
(-5.96651e-06 1.02029e-05 -8.52348e-23)
(4.41574e-06 -2.27584e-05 0)
(-2.14488e-06 -4.20833e-06 0)
(-4.0019e-05 -6.12799e-06 0)
(0.00137199 0.00466694 0)
(-0.000172052 6.64689e-05 -4.64638e-23)
(4.01624e-05 2.39189e-05 0)
(-0.00183297 0.00156884 -3.02246e-23)
(-1.80422e-05 9.8009e-08 6.35382e-24)
(-3.7703e-06 1.21439e-06 9.56978e-23)
(5.52461e-06 1.9663e-06 3.89068e-23)
(-0.0011137 -0.00084294 2.16287e-22)
(-1.57424e-05 -1.34416e-05 2.46454e-23)
(0.00300286 0.00397567 4.82306e-23)
(9.20599e-06 -5.99337e-07 -3.56199e-23)
(0.00026052 -0.00113998 -2.68263e-23)
(-5.28582e-05 -0.000226132 1.06975e-22)
(-3.67097e-06 -7.43774e-06 2.41013e-24)
(-3.21969e-06 7.78085e-08 0)
(-3.44682e-06 3.57564e-08 0)
(0.00276244 0.00237364 0)
(0.00930395 -0.0150756 1.74158e-22)
(-0.00487661 0.00218893 6.31731e-23)
(1.04429e-05 3.21914e-06 1.8908e-25)
(-0.000181936 -0.000143249 -6.71581e-23)
(-2.86449e-06 3.48546e-07 0)
(-8.83751e-06 6.81757e-06 6.92377e-23)
(-0.000330442 0.00040425 0)
(-3.0848e-05 -6.09432e-06 -1.1961e-23)
(-0.000238738 -0.000231092 -9.22692e-23)
(0.00311988 -0.00125676 -5.02071e-22)
(0.000269218 0.00128762 0)
(-1.68732e-05 7.80914e-05 6.52055e-23)
(9.44889e-06 -5.11545e-07 -1.79809e-26)
(-0.000207341 -0.00013109 0)
(1.19841e-05 6.0998e-05 2.22386e-23)
(2.5516e-06 5.3398e-07 0)
(2.95891e-05 1.34957e-05 -4.6166e-23)
(6.33732e-07 1.67679e-06 7.97511e-23)
(0.000134424 -0.00012138 5.49368e-23)
(-1.23441e-05 7.22048e-05 -6.2706e-23)
(5.62389e-05 -6.25849e-05 0)
(-0.00755226 -0.00188087 -1.0692e-22)
(-0.00119971 -0.000716921 0)
(2.11704e-05 -2.24189e-06 -1.5107e-23)
(-0.00234439 -0.00168958 0)
(0.0110575 0.0029946 -1.42757e-22)
(-5.23828e-07 2.73311e-06 0)
(-0.000195756 -0.000208216 7.3769e-23)
(-3.66777e-06 8.79963e-07 -7.24832e-23)
(-8.0232e-07 5.37541e-06 8.52948e-24)
(-0.00235672 0.00439026 1.00046e-22)
(5.19322e-05 -9.5721e-05 0)
(-2.30903e-05 8.36932e-05 -7.45415e-23)
(9.22589e-06 6.6303e-05 0)
(-4.49593e-05 -7.76032e-06 -9.62469e-23)
(0.00141252 0.00158433 6.37078e-23)
(0.000344428 -0.00111721 7.30085e-23)
(-2.54936e-05 -0.000156473 0)
(2.01438e-05 -1.22483e-05 3.82332e-23)
(4.45639e-07 -5.72846e-05 2.29118e-23)
(-3.14658e-06 4.24581e-07 -1.96435e-25)
(-0.000202181 0.000362423 0)
(-5.76271e-06 1.02216e-05 4.24107e-23)
(2.7327e-05 8.45312e-06 2.34029e-25)
(0.000187894 -0.0039976 2.18255e-24)
(-3.17438e-06 -4.57715e-07 1.27598e-23)
(-4.43527e-06 -3.28349e-06 1.78997e-23)
(5.32213e-06 3.06858e-06 5.5833e-23)
(0.000787826 -0.00273044 -7.57356e-23)
(0.000186613 6.68816e-05 2.38131e-23)
(-2.33894e-05 4.44759e-05 6.58826e-23)
(5.73996e-05 0.000102099 0)
(0.000180929 -0.000288405 0)
(-1.33057e-05 -1.22001e-06 1.10762e-23)
(1.99298e-05 -5.8096e-06 0)
(0.00180665 0.00420748 8.24988e-23)
(-1.23306e-05 -4.69489e-05 -4.73976e-23)
(-0.000852933 -0.0105873 0)
(7.57284e-06 -2.37285e-05 0)
(-2.12264e-05 -2.4359e-05 -2.6082e-23)
(1.07047e-05 2.91949e-06 0)
(2.78501e-05 1.49257e-05 2.08668e-23)
(2.84351e-05 1.8292e-05 0)
(2.14124e-06 -5.41513e-05 2.07377e-23)
(1.16073e-06 -1.46966e-05 -5.58633e-25)
(-4.89022e-06 4.06249e-07 0)
(2.48638e-05 2.1529e-06 0)
(0.000182077 -0.000786419 1.16374e-22)
(9.79146e-06 3.37635e-07 5.23239e-23)
(-0.000981405 0.00141195 0)
(-8.40798e-06 7.19332e-06 -7.25623e-23)
(-0.00178567 -0.00286665 2.87228e-23)
(-0.000213534 0.000104063 -1.81692e-23)
(2.4575e-06 6.56478e-05 0)
(-3.50488e-05 3.21049e-05 0)
(-0.00424842 -0.00217829 0)
(-0.00325657 -0.00299946 -3.76743e-23)
(0.00198788 -0.000846871 8.01409e-23)
(0.000252366 0.000621365 8.34321e-24)
(-5.25522e-08 6.29438e-06 9.98443e-23)
(1.57088e-05 -2.73038e-05 4.20422e-23)
(1.95437e-05 -6.02599e-06 0)
(9.45023e-06 -5.14409e-06 4.98291e-23)
(2.59618e-05 1.46382e-06 -1.74176e-23)
(1.39063e-05 5.11976e-06 7.45031e-23)
(-0.00341891 0.00155262 0)
(-0.00040118 6.54043e-05 3.87881e-23)
(0.0012289 -0.00940993 0)
(-0.000479178 -0.000625126 1.33205e-22)
(0.00261134 0.000928355 -1.54966e-22)
(0.00351493 0.00552886 2.16478e-22)
(1.82487e-06 2.67968e-06 0)
(-0.00018363 -0.000125685 -9.18024e-23)
(8.32789e-07 1.58052e-06 -7.74562e-23)
(3.0453e-05 -2.19394e-06 0)
(-1.02707e-05 -7.56105e-05 1.61074e-23)
(0.00391684 -0.00955363 1.72427e-21)
(-0.00249054 0.00170921 -4.69616e-22)
(9.89229e-05 -5.26678e-05 5.62536e-23)
(-0.000437361 -0.000244011 5.87226e-23)
(-5.84249e-06 -5.49261e-06 -1.55766e-23)
(-5.4227e-06 4.79858e-06 4.17763e-23)
(-0.000577838 -0.000680737 0)
(-1.21689e-05 0.00035714 -2.72111e-23)
(2.63387e-06 3.20248e-06 0)
(0.00152092 -0.00273688 4.73533e-22)
(-8.76312e-06 1.17486e-05 1.89216e-23)
(-1.7623e-08 -1.55082e-06 -8.09427e-23)
(-2.65608e-05 -0.000153768 -2.44391e-23)
(-5.28629e-06 4.4655e-06 7.49284e-23)
(-1.51903e-05 -7.31168e-07 0)
(-0.000170186 3.20462e-05 0)
(0.00228248 -0.00243449 -4.89158e-23)
(-0.00395743 0.00303196 -6.16605e-23)
(-0.0011109 0.000849281 0)
(-0.000543415 -0.000975014 -3.70221e-23)
(-6.47998e-05 -0.00248404 -1.38531e-23)
(-6.66899e-05 -0.000263268 0)
(3.16397e-06 -5.62739e-05 -1.06101e-23)
(-1.83855e-05 4.78852e-06 0)
(-2.93911e-06 -1.67889e-07 0)
(-3.86015e-05 -0.000215882 1.52153e-23)
(0.00127822 0.00569596 -2.16191e-22)
(-8.27111e-06 -3.73791e-06 -4.17703e-24)
(0.00443896 -0.010081 6.50944e-22)
(-0.000115147 0.000179903 -9.20384e-23)
(2.10932e-05 5.55455e-05 4.8221e-23)
(2.81616e-05 4.88014e-06 3.32131e-23)
(-2.69855e-05 0.00113558 -1.3058e-22)
(6.71814e-05 -5.3178e-05 -5.38888e-24)
(0.000138266 -0.000292567 7.4273e-23)
(0.00403141 0.000114346 -5.93649e-23)
(-0.000256931 -0.000959541 0)
(6.61546e-05 -8.08438e-05 0)
(6.45087e-05 -4.75394e-05 2.74695e-23)
(-0.00120854 -0.000422038 -4.62698e-24)
(1.90321e-05 -1.10701e-05 -1.98849e-23)
(1.41526e-05 -1.45767e-05 0)
(-7.49562e-06 -4.0282e-05 0)
(-0.00291998 -0.00349247 -1.50546e-22)
(-0.00015827 5.6785e-05 0)
(0.000115165 0.000462692 1.45091e-23)
(0.00384817 -0.00251466 0)
(-0.000933397 -0.000923735 6.92954e-23)
(-1.73847e-05 3.73876e-07 -1.61978e-25)
(-2.95023e-05 -9.66116e-06 2.22469e-25)
(1.2613e-06 -1.84083e-06 3.31918e-25)
(-4.04862e-06 4.24518e-06 2.98283e-23)
(-4.70438e-05 -0.000249877 -1.26765e-22)
(-0.000166228 6.25976e-05 0)
(-0.000146254 6.33433e-05 0)
(-1.5832e-05 -1.21453e-05 -1.4079e-23)
(-6.6448e-06 1.09345e-05 -4.68697e-23)
(-6.18604e-05 0.000262121 4.73031e-23)
(2.6353e-05 1.65704e-05 4.33741e-23)
(-2.46426e-06 4.71192e-07 6.83788e-23)
(-0.00290874 0.00381785 0)
(-3.63453e-06 -6.37979e-06 0)
(-0.000287908 -0.00554558 0)
(9.20582e-06 -5.2908e-06 -1.45528e-23)
(2.53072e-06 3.41771e-07 -3.47798e-23)
(-0.000654449 -0.000762413 -9.36985e-23)
(2.17546e-05 7.20241e-05 0)
(1.00586e-05 1.06599e-07 -1.84899e-24)
(9.06638e-05 -5.73201e-05 -1.60784e-23)
(0.00129156 -0.000601819 -1.67543e-22)
(1.27223e-05 -5.27959e-05 7.29821e-24)
(4.1653e-05 5.09358e-05 0)
(-1.07349e-05 -0.000170184 0)
(-0.000108217 0.00014754 0)
(0.015629 -0.00480073 1.35637e-21)
(-6.13925e-06 1.78201e-06 -4.6054e-23)
(-4.89084e-06 1.21415e-05 2.72908e-23)
(1.47972e-06 8.06046e-06 6.08447e-23)
(1.61963e-06 6.12912e-06 -5.88881e-23)
(2.82947e-05 9.18672e-06 -2.0176e-25)
(1.02138e-05 9.23823e-08 6.85071e-24)
(-0.000785966 0.000209388 -1.18453e-23)
(-0.00178996 0.00826736 1.03821e-22)
(-0.00241539 0.00108952 0)
(0.000226926 -0.00101073 -6.97526e-23)
(-0.00114004 0.000143514 8.34154e-23)
(-0.00169584 -0.00953714 -6.25053e-22)
(-0.000137991 -0.00045053 0)
(0.00818908 -0.00893439 6.57425e-24)
(3.63341e-06 0.000395732 0)
(-0.00177841 0.00751579 0)
(1.77701e-06 -3.66378e-05 -2.92802e-24)
(-3.45299e-05 3.88708e-05 0)
(1.1084e-06 8.28119e-06 -3.4912e-23)
(-0.000118533 0.00019771 9.80436e-23)
(0.00229602 -0.00179874 1.20122e-22)
(1.18684e-05 -1.08436e-05 -1.01943e-22)
(-1.78069e-05 6.71267e-08 7.88924e-24)
(-7.62498e-06 -2.72055e-06 0)
(-2.92119e-05 9.16278e-05 0)
(-0.0184406 -0.008116 -9.59005e-22)
(-2.37092e-06 4.80414e-06 0)
(-6.15334e-06 1.84712e-06 -2.80583e-23)
(-0.000182049 -0.000417085 1.70957e-24)
(6.92139e-06 1.1727e-05 0)
(-3.13644e-05 4.14952e-05 0)
(-7.87494e-06 -4.14206e-06 1.99856e-23)
(-3.68148e-06 -3.54788e-06 0)
(2.10998e-05 -3.60327e-06 -8.52158e-27)
(-0.00401378 0.0014251 0)
(4.01209e-05 4.47521e-05 2.77089e-23)
(-3.77658e-06 3.72843e-06 -6.11126e-23)
(-0.000131038 7.41439e-05 0)
(-0.00027233 -0.000185304 0)
(-1.66735e-05 -0.000128982 2.73933e-23)
(-0.00434494 -0.00256745 -2.12329e-22)
(-1.41658e-05 -2.9133e-06 0)
(-0.00218899 -0.00231819 1.7024e-23)
(1.45007e-05 -7.88861e-06 -2.56754e-23)
(-1.6283e-05 -6.98203e-07 0)
(-0.00285659 0.0110799 5.29766e-23)
(4.61023e-05 8.54876e-05 7.82405e-25)
(0.000311796 -0.000949259 4.13364e-22)