/*--------------------------------*- C++ -*----------------------------------*\
| =========                 |                                                 |
| \\      /  F ield         | OpenFOAM: The Open Source CFD Toolbox           |
|  \\    /   O peration     | Version:  v2012                                 |
|   \\  /    A nd           | Website:  www.openfoam.com                      |
|    \\/     M anipulation  |                                                 |
\*---------------------------------------------------------------------------*/
FoamFile
{
    version     2.0;
    format      ascii;
    class       volScalarField;
    location    "250";
    object      epsilon_0;
}
// * * * * * * * * * * * * * * * * * * * * * * * * * * * * * * * * * * * * * //

dimensions      [0 2 -3 0 0 0 0];


internalField   nonuniform List<scalar> 
18166
(
1.46529e-05
1.34569e-06
4.02558e-05
2.20424e-06
0.000105885
1.87963e-06
1.16593e-06
1.15287e-06
1.48876e-06
1.10975e-05
1.35265e-06
1.92143e-06
1.63076e-06
1.5464e-06
1.5537e-06
1.31686e-06
0.0141411
8.18572e-07
1.61985e-06
8.70035e-07
1.58988e-06
1.34002e-06
1.61255e-06
1.44949e-06
1.37094e-06
6.19483e-06
1.15731e-06
0.000233627
1.46302e-06
1.26239e-06
4.09551e-07
1.23717e-05
1.1756e-06
1.55713e-06
0.000123571
1.55657e-06
8.48224e-07
5.29581e-07
1.16175e-06
1.92178e-06
1.48204e-06
1.63076e-06
6.3893e-07
1.62169e-06
0.000282985
8.60265e-07
1.4109e-06
2.83658e-05
4.1595e-07
1.01063e-06
7.47745e-06
0.0143643
4.14728e-07
1.24046e-06
8.59087e-07
1.47469e-06
0.000303281
1.5064e-06
6.80301e-05
1.48276e-06
7.67585e-07
9.81958e-07
7.81108e-07
1.57285e-06
1.26826e-06
1.00354e-06
1.10904e-06
1.31335e-06
0.00369931
7.30157e-07
1.627e-06
2.20234e-06
1.43498e-06
1.48608e-06
7.28756e-07
1.14174e-06
0.00946101
0.00108494
4.43562e-05
1.1039e-06
1.59283e-06
9.59211e-07
0.000170174
7.05387e-07
9.0617e-07
7.72973e-07
6.58113e-07
1.57623e-06
1.27238e-06
0.00846595
7.01798e-07
7.46225e-07
1.63391e-06
1.27819e-06
1.48482e-06
1.53161e-06
3.58298e-06
1.49349e-06
0.000245979
0.0132096
1.02317e-06
8.07359e-07
1.25474e-06
0.000157632
7.16625e-07
0.00020714
7.32218e-07
1.13538e-06
4.17433e-07
1.4641e-06
0.00760269
0.000827966
0.0100105
0.00359345
1.46296e-06
0.000168308
0.00110084
1.37441e-06
1.44954e-06
5.6138e-07
1.33903e-06
5.5895e-07
1.37247e-06
9.46292e-07
1.3269e-06
1.52625e-06
1.52813e-06
8.16634e-07
7.56753e-07
1.56136e-06
1.16254e-06
1.58131e-06
8.87066e-07
1.01981e-06
1.17095e-06
0.000112972
1.10319e-06
3.73387e-05
7.5736e-07
2.50282e-05
1.26339e-06
1.33173e-06
1.56386e-06
6.45999e-05
4.15196e-07
0.0003838
3.81267e-05
8.47865e-07
7.85e-07
0.0134641
8.98877e-07
1.61061e-06
2.84041e-05
0.00610533
2.31518e-06
7.89808e-07
9.52092e-07
1.25835e-06
2.3494e-06
1.46532e-06
1.12797e-06
7.87225e-07
0.00717217
7.31133e-07
1.58934e-06
9.14535e-07
1.37357e-06
1.15371e-06
0.00584531
9.51356e-07
8.85682e-07
0.000204011
1.11565e-06
6.19062e-05
7.02985e-07
1.73284e-05
7.72827e-07
1.11951e-06
1.46689e-06
1.58546e-06
9.45354e-07
7.48627e-07
1.03176e-06
0.00492038
1.40167e-06
7.23638e-07
1.14016e-06
1.5951e-06
1.40261e-06
7.95916e-07
1.25687e-06
1.40649e-06
0.00551391
1.47123e-06
7.82852e-07
2.45681e-05
1.6427e-05
1.08354e-06
1.27015e-06
1.1149e-06
9.34765e-07
0.000393918
0.0058124
1.46634e-06
1.49589e-06
2.22064e-06
1.32469e-06
2.22123e-06
2.13145e-06
6.74933e-07
1.11056e-06
2.18446e-06
2.13633e-06
6.7449e-07
1.60573e-06
1.26118e-06
1.58512e-05
1.23507e-06
1.24857e-06
1.19753e-06
9.54215e-07
0.000137292
1.56364e-06
1.00158e-06
1.46392e-06
0.000154924
9.80941e-07
1.15125e-06
4.2315e-07
9.84784e-07
9.80679e-07
5.71521e-07
3.05724e-06
5.72524e-07
0.0061241
0.000151283
0.000152973
7.44134e-07
9.11027e-07
1.82941e-06
1.01068e-06
1.54955e-06
9.76135e-07
0.000131232
1.00487e-06
5.55797e-07
0.000168451
5.57898e-07
1.10942e-06
1.9039e-06
0.000130655
1.191e-06
1.14126e-06
1.80894e-06
1.33098e-06
1.41705e-06
1.25625e-06
1.53246e-06
1.1356e-06
1.53315e-06
1.43127e-06
1.42393e-06
1.60224e-06
6.85822e-07
1.43227e-06
1.22344e-06
5.55862e-06
1.14965e-06
7.24545e-07
4.94207e-07
1.1236e-06
1.50375e-06
1.3707e-06
2.16701e-05
8.66631e-07
1.08665e-06
1.37644e-05
9.08351e-07
1.34071e-06
3.27722e-06
1.15526e-06
6.58177e-07
1.72695e-06
1.49029e-06
1.56049e-06
8.21019e-07
2.39713e-06
1.78836e-06
1.09186e-06
1.26965e-06
4.18873e-07
5.60919e-07
1.5638e-06
1.41152e-06
5.62188e-07
1.17509e-06
5.06873e-07
0.000297415
5.65227e-07
5.11465e-06
1.53256e-06
1.16286e-06
0.00414755
1.15675e-06
1.27342e-06
8.61789e-07
1.63343e-06
1.14831e-06
8.04075e-07
1.26576e-06
1.33206e-06
1.32772e-06
1.46387e-06
1.11973e-06
1.15018e-06
7.41497e-07
7.35304e-07
2.29156e-06
2.41175e-06
1.12e-06
0.000747109
1.41299e-06
0.00609442
1.40771e-06
8.5232e-07
7.38462e-07
1.33312e-06
3.67073e-05
1.31442e-06
2.12537e-06
7.37715e-07
6.75851e-07
1.05441e-06
1.24834e-06
1.71766e-06
1.38418e-06
2.08576e-06
1.42788e-06
9.60636e-07
1.20252e-06
1.1494e-06
1.46037e-06
2.26496e-06
1.32087e-06
1.53447e-06
1.47107e-06
6.62695e-05
1.44974e-06
9.47385e-07
7.20253e-07
1.35354e-06
6.32607e-07
1.84353e-06
1.47116e-06
1.32182e-05
1.61679e-06
1.13342e-06
9.61219e-07
1.85971e-07
1.63639e-06
9.1179e-07
1.17443e-06
5.65372e-07
1.5341e-06
1.10721e-06
5.65436e-07
8.49871e-07
1.3702e-06
1.09009e-06
1.35051e-06
9.59924e-07
1.00559e-06
1.15693e-06
0.000700041
1.20093e-06
8.74104e-07
8.22666e-07
8.52535e-07
9.8792e-07
1.458e-06
5.49636e-07
1.44504e-06
1.97849e-06
0.000396585
5.5218e-07
1.48371e-06
1.53343e-06
1.97937e-06
1.58885e-06
8.93555e-05
5.46789e-07
2.29087e-06
1.48574e-06
1.51595e-06
7.43026e-06
2.12514e-06
1.27821e-06
5.43239e-07
1.35902e-06
2.19046e-06
5.39996e-07
5.37068e-07
1.25375e-06
6.29784e-07
1.51104e-06
1.09959e-06
8.14047e-07
1.44411e-06
9.73122e-05
6.30185e-07
8.14512e-07
1.2452e-05
8.9437e-07
5.80901e-07
4.14787e-07
0.00154124
1.53724e-06
1.50695e-06
8.94375e-07
1.40605e-06
1.06159e-06
4.15601e-07
2.09133e-07
1.96353e-07
9.25298e-07
1.2827e-06
1.44677e-06
4.12464e-07
4.1328e-07
9.87931e-07
1.52394e-06
5.12396e-07
1.26841e-06
8.89018e-07
9.45181e-07
1.19755e-06
1.09495e-06
2.41282e-06
0.00558435
1.06895e-06
0.00603703
0.000126982
1.69483e-06
1.65546e-06
1.24233e-06
8.90285e-07
0.000483978
1.32348e-06
1.53825e-06
4.25117e-07
9.82856e-07
1.14709e-06
1.43984e-06
5.09952e-07
4.7807e-07
1.36786e-06
8.43375e-07
1.18834e-06
1.20648e-06
1.00802e-06
5.01952e-07
6.45125e-07
8.42578e-07
1.613e-06
1.55816e-06
8.47955e-07
1.41763e-06
1.33685e-06
9.97804e-07
1.27564e-06
8.0041e-07
1.35961e-06
1.3618e-06
7.78339e-07
0.000100732
1.39593e-06
9.20871e-07
5.69038e-07
9.14211e-07
0.00171085
1.30201e-06
6.90157e-07
0.000213314
1.14307e-06
1.14803e-06
8.99008e-07
2.4249e-06
5.89609e-07
1.27525e-06
9.49031e-07
1.09496e-06
1.02157e-06
1.26983e-06
1.70909e-06
9.86897e-05
1.29918e-06
1.10596e-06
1.63563e-06
1.5177e-06
1.45143e-06
1.56835e-06
1.55346e-06
1.5975e-06
0.000834591
9.10459e-07
1.55218e-06
1.02097e-06
1.09223e-06
9.14993e-07
4.17336e-07
1.24571e-06
1.31914e-06
1.10702e-06
1.17659e-06
3.03096e-06
2.49353e-06
1.09537e-06
1.4769e-06
0.0023894
1.53418e-06
1.24591e-06
8.88558e-05
8.92057e-07
1.70276e-06
0.00617695
8.25735e-07
1.54699e-06
1.35005e-06
5.25907e-07
1.12543e-06
2.19374e-06
1.1036e-06
0.0064473
2.18386e-06
8.34818e-07
0.00218828
5.36787e-07
7.67898e-07
1.1083e-06
1.29796e-06
9.09228e-07
1.95869e-06
9.04335e-07
2.50618e-06
1.55746e-06
1.63327e-06
7.30325e-07
5.4446e-07
1.79222e-06
9.09326e-07
1.5503e-06
9.24864e-07
1.06477e-06
1.43504e-06
4.17223e-07
5.45205e-07
1.9662e-06
2.08448e-06
1.08807e-06
5.22319e-05
1.34343e-06
1.53313e-06
1.39248e-06
7.09728e-07
1.13784e-06
0.00589696
1.30562e-06
8.1298e-07
5.3814e-07
1.51645e-06
9.30158e-07
5.3886e-07
2.64916e-06
1.15731e-06
0.000136565
1.18386e-05
1.61107e-06
1.24347e-06
1.60107e-06
1.09722e-06
1.05004e-06
8.48859e-06
1.34506e-06
9.21656e-07
4.35715e-07
6.32531e-07
1.30409e-06
9.57146e-07
1.57058e-06
1.46694e-06
0.0021496
7.86509e-07
1.16514e-06
1.48197e-06
1.57819e-06
1.65258e-06
1.61061e-06
7.95622e-06
2.9411e-06
0.000634963
8.73742e-07
1.42595e-06
1.34415e-06
1.29177e-06
1.37239e-06
5.90064e-07
7.6798e-07
9.17693e-05
1.94678e-06
9.83823e-07
7.86921e-07
7.53675e-07
1.23192e-06
1.09251e-06
8.24615e-07
1.1045e-06
1.64357e-06
9.81905e-07
9.04121e-07
2.50225e-06
1.56631e-06
7.85139e-07
1.34467e-05
0.00240615
1.13918e-06
7.64083e-07
1.30626e-06
1.14315e-06
0.0134605
7.75343e-07
1.26506e-06
1.23705e-06
1.04596e-06
0.0104913
1.65504e-06
1.48976e-06
7.57312e-07
8.89302e-07
1.33016e-06
8.81323e-07
1.23942e-06
4.16581e-07
2.25155e-06
1.505e-06
1.49553e-06
9.61759e-07
0.00018943
9.44392e-07
9.94386e-07
4.16993e-07
1.56301e-06
7.36446e-07
7.6018e-07
6.21986e-06
8.84688e-07
0.00607559
1.60484e-06
1.47047e-06
8.68e-07
8.27766e-07
9.12094e-07
1.54022e-06
1.61209e-06
1.37753e-06
5.00263e-07
1.14768e-06
9.40463e-07
6.50909e-06
1.28546e-06
2.28298e-06
8.8186e-07
1.24291e-06
1.30479e-06
6.82396e-06
1.1979e-06
1.74867e-05
9.92417e-07
1.15453e-06
1.62412e-06
7.5845e-07
7.31689e-07
8.02093e-07
8.66648e-07
2.60286e-06
1.86577e-06
1.43524e-05
1.37642e-06
0.000209146
2.28869e-06
1.12426e-06
1.41929e-06
1.10138e-06
7.92781e-07
1.73773e-06
1.66487e-05
1.51316e-06
1.6413e-06
1.41513e-06
1.50835e-06
1.26512e-06
1.51504e-06
8.58996e-07
1.12939e-06
0.005326
7.31224e-07
1.10612e-06
1.09882e-06
1.26748e-06
7.36224e-07
1.35608e-06
0.00529711
3.32454e-06
1.47126e-06
1.14662e-06
0.000157652
1.48326e-06
1.53999e-06
1.34154e-06
1.54056e-06
1.48815e-06
1.62457e-06
1.45474e-06
1.18053e-05
1.30619e-06
8.38997e-07
8.12195e-07
1.95832e-06
1.626e-06
1.55394e-06
0.00172251
1.14366e-06
7.80705e-07
1.62739e-06
2.04382e-06
7.56037e-07
1.12293e-06
1.52465e-06
5.60929e-06
1.34499e-06
9.02287e-07
0.00521653
1.06521e-05
5.80573e-07
1.0584e-06
6.99656e-07
1.23987e-06
1.48898e-06
8.77981e-07
1.34e-06
1.46132e-06
1.24616e-06
1.29329e-06
9.06665e-07
1.28852e-06
0.00222117
1.57658e-06
9.3208e-05
7.29398e-07
1.1072e-06
1.53191e-06
8.37704e-07
9.21678e-07
1.63477e-06
1.76076e-06
1.56177e-06
9.43531e-07
1.10271e-06
1.30602e-06
0.000672581
1.31984e-06
1.23714e-06
1.00887e-06
1.02364e-06
4.15157e-07
8.81101e-07
1.95969e-06
3.39268e-05
7.95606e-06
1.62341e-06
2.08045e-06
0.00609924
1.10763e-06
2.8321e-06
1.79137e-06
3.57283e-05
1.55523e-06
1.2968e-06
1.00615e-06
1.30782e-06
0.000110753
1.12417e-06
6.55605e-07
1.44481e-06
1.27097e-06
0.000297366
1.1908e-06
1.31681e-06
1.10504e-06
9.51631e-07
1.29008e-06
1.4624e-06
1.56277e-06
7.76862e-07
2.61233e-06
9.41661e-07
1.23919e-06
8.73728e-07
7.57339e-07
1.09826e-06
9.9845e-06
1.40907e-06
5.56028e-07
7.28889e-07
7.07346e-07
0.000161877
4.17985e-07
4.89384e-05
2.84579e-06
1.00035e-06
9.80586e-07
1.35617e-06
1.08379e-06
1.21869e-06
1.0236e-06
7.74262e-07
0.00113869
1.27088e-06
1.36494e-06
1.14591e-06
1.23042e-06
1.11333e-06
7.19739e-07
1.36226e-06
9.09423e-07
7.26603e-07
8.31537e-07
1.55096e-06
1.14157e-06
6.91147e-07
1.45243e-06
3.78403e-05
1.5623e-06
3.89734e-06
4.16042e-07
1.01258e-06
8.49459e-07
9.96262e-07
1.37756e-06
8.93255e-07
1.13585e-06
1.03977e-06
1.23451e-06
4.21434e-07
1.52927e-06
2.07548e-06
9.96984e-07
8.33493e-07
0.000161419
1.23744e-06
1.56284e-06
5.07199e-07
1.00696e-06
0.000126731
1.52787e-06
0.000162685
8.28784e-07
1.23297e-06
1.7665e-06
0.00609467
2.79853e-06
9.62881e-07
1.5629e-06
1.25903e-06
8.75093e-07
9.58799e-07
8.67676e-07
2.05012e-06
0.00413136
7.12646e-07
1.53477e-06
1.28926e-06
0.00415167
1.13891e-06
0.00802889
9.32697e-07
0.00170081
3.1535e-06
1.31149e-06
1.39506e-06
8.81656e-05
1.70867e-06
2.07263e-06
1.26661e-06
1.13426e-06
1.2295e-06
1.41017e-06
7.54566e-07
5.21714e-07
8.15752e-06
1.229e-06
9.73575e-07
1.25909e-06
1.43527e-06
5.05722e-07
1.2098e-06
0.00109825
1.02361e-06
0.00035217
0.0194193
1.29732e-06
2.36424e-06
1.53545e-06
8.38935e-07
1.78207e-06
2.05226e-06
3.2874e-07
1.74787e-06
0.000776074
1.07022e-06
1.89968e-06
6.99752e-07
0.00765411
9.00242e-07
1.61263e-06
7.56078e-07
2.71978e-06
1.16407e-06
1.171e-06
1.12571e-06
7.37157e-07
1.33509e-06
1.48144e-06
1.73749e-06
8.11028e-07
0.00167119
1.22114e-06
2.84412e-06
0.000574893
1.78007e-06
0.000221887
1.96319e-05
1.07538e-06
0.00673087
1.22928e-06
1.30123e-06
7.08675e-07
1.39127e-06
1.29231e-06
2.06271e-06
7.82097e-07
4.5389e-06
1.54601e-06
2.43373e-05
1.58104e-06
6.20944e-07
1.95976e-06
8.47972e-07
1.34002e-06
5.9075e-05
1.53108e-06
9.49783e-07
0.000164988
7.42901e-06
3.83181e-05
9.17657e-06
6.48238e-07
0.000357166
6.32634e-07
7.38559e-07
1.53768e-06
1.55883e-06
4.23501e-05
1.22397e-06
1.1584e-06
1.42379e-06
1.52799e-06
7.151e-07
7.9988e-07
1.61196e-06
1.24831e-06
0.000295598
1.37296e-06
1.22298e-06
6.78896e-05
1.11196e-06
3.23879e-06
1.07245e-06
1.29531e-06
1.05869e-06
1.54874e-06
0.00955789
1.87683e-06
0.00503332
1.58645e-06
8.38306e-07
1.10144e-06
0.000125516
1.09225e-06
8.70963e-07
1.30117e-06
1.29491e-06
1.45748e-06
8.11314e-05
6.66805e-07
4.17497e-07
8.43081e-07
8.13979e-07
7.86422e-07
9.69928e-07
1.10253e-06
5.27243e-07
5.03938e-06
8.71281e-07
9.04303e-07
0.00353517
9.70741e-07
1.16164e-06
5.26387e-07
1.43274e-06
5.96456e-07
1.09444e-06
2.04828e-06
1.43238e-06
1.0489e-06
7.00167e-07
1.35724e-05
5.94748e-07
1.05568e-06
8.05197e-07
5.42064e-07
1.54333e-06
0.00663731
2.44001e-05
7.31066e-07
1.4178e-06
1.40963e-06
1.58995e-06
1.45945e-06
2.73458e-06
4.16065e-07
0.000368104
1.15115e-06
1.48831e-06
9.75964e-07
9.79629e-07
0.00174402
9.06897e-07
7.30853e-08
8.30009e-07
0.00531948
6.21856e-07
1.35342e-06
6.97807e-07
7.45254e-07
8.58585e-07
4.1545e-07
6.21699e-07
1.47908e-06
1.26028e-06
0.000163732
8.93598e-07
0.000651841
7.04188e-07
1.21572e-06
1.49422e-06
2.26934e-06
0.000250666
1.46518e-06
1.82341e-06
1.33895e-06
1.23932e-06
1.43288e-06
1.52027e-06
1.2632e-06
1.54169e-06
1.04016e-06
1.64462e-06
4.45511e-05
6.59088e-05
1.04444e-06
0.000161651
2.45021e-06
0.000135298
2.08547e-06
1.2103e-06
1.37724e-06
0.00172257
1.58093e-06
7.44093e-07
9.65898e-07
1.29158e-06
0.0182364
1.38607e-06
0.00667544
1.4608e-06
1.01516e-06
1.23123e-06
7.66521e-07
1.29985e-06
9.02016e-07
2.91584e-07
8.23088e-07
9.9058e-07
7.83886e-07
1.49242e-06
1.18122e-06
1.73507e-06
1.21242e-06
0.00865271
1.33311e-06
1.41636e-06
1.48702e-06
1.21854e-06
1.27439e-06
1.10354e-06
1.65646e-06
1.52902e-06
4.72803e-07
1.20896e-06
1.58575e-06
5.79712e-07
5.81688e-07
1.38156e-06
1.67414e-05
1.67508e-06
8.55782e-07
1.27977e-06
7.26418e-07
1.22865e-06
1.49157e-06
1.43394e-06
9.5e-07
1.79156e-06
0.0186601
1.53718e-06
1.13247e-06
1.55296e-06
1.40269e-06
2.87605e-06
1.36191e-06
1.04538e-06
1.83211e-06
0.00169798
1.20581e-06
9.57072e-07
8.19915e-07
2.3821e-06
8.27918e-07
7.81946e-07
1.54566e-06
1.37691e-06
1.56025e-06
1.35354e-06
2.89715e-06
1.04343e-06
0.000158758
2.85438e-06
9.91903e-07
5.77629e-06
1.3063e-06
9.39547e-07
1.68586e-06
8.57021e-07
9.16599e-07
7.14357e-07
0.00877023
1.18295e-06
9.16102e-07
8.5703e-07
1.53695e-06
1.51975e-06
1.0461e-06
0.00254936
0.00010693
5.43882e-07
1.25881e-06
1.60437e-06
0.00291997
6.93852e-07
1.09034e-06
9.7567e-05
5.25274e-07
1.16311e-06
5.30618e-07
1.99578e-06
1.70218e-06
7.97865e-07
1.41364e-06
1.20458e-06
1.39977e-06
9.04096e-07
1.22396e-06
1.47304e-06
9.71307e-07
0.0189788
0.00552315
1.62279e-06
5.27629e-07
8.9946e-07
1.09555e-06
7.27767e-07
5.33323e-07
1.5602e-06
1.82117e-06
1.58119e-06
1.30394e-06
1.02227e-06
4.808e-07
1.7015e-06
6.90821e-07
1.61256e-06
0.00104865
2.51945e-05
6.50806e-07
1.38609e-06
1.59323e-06
1.08307e-06
6.944e-07
8.56534e-05
9.92116e-07
8.54966e-07
6.78353e-07
1.61661e-06
1.28731e-06
1.36749e-06
1.02222e-06
5.45285e-05
0.0123908
1.49128e-06
1.44045e-06
8.06016e-07
0.00262166
1.43896e-06
0.00107223
9.52315e-07
7.33372e-07
0.00201098
9.20605e-07
1.08125e-06
2.47077e-06
6.08971e-06
8.77447e-07
1.10192e-06
1.27355e-06
5.15292e-07
1.31929e-06
1.68416e-06
1.25849e-06
1.62867e-06
8.41715e-07
7.22467e-07
2.87811e-06
1.87957e-06
5.17474e-07
8.4321e-07
1.2924e-06
1.57074e-06
0.000223434
1.60262e-06
0.0001087
1.6291e-06
7.97797e-07
1.24556e-06
4.70256e-07
2.22973e-06
1.51808e-06
5.32964e-05
1.46493e-06
4.38121e-06
0.00364089
7.66517e-07
7.52622e-07
5.21955e-07
1.2839e-06
7.3111e-07
8.74103e-07
1.36512e-06
1.44513e-06
7.14915e-07
9.59727e-07
5.32123e-07
9.14857e-07
7.68537e-07
0.000141322
1.21844e-06
1.20049e-06
1.3953e-06
2.29299e-06
5.24235e-07
1.00204e-06
1.43872e-06
1.01064e-06
1.22661e-06
5.27752e-07
1.20378e-06
7.51162e-07
7.11896e-07
3.03052e-06
5.08585e-07
0.00168928
6.47893e-07
0.0004372
0.000365892
6.21354e-07
1.5842e-06
6.36099e-07
1.30281e-06
1.26345e-06
1.78605e-06
1.70471e-06
5.10759e-07
4.8649e-07
1.04599e-06
7.10955e-07
7.96875e-07
1.24982e-06
1.60087e-06
2.58343e-06
0.012333
1.08786e-06
1.40669e-06
7.9988e-07
1.4603e-06
8.76353e-07
9.74106e-07
1.2564e-06
1.37338e-06
1.06277e-06
5.34278e-07
3.90254e-06
7.01004e-07
1.44532e-06
1.0464e-06
1.34796e-06
1.59702e-06
1.81773e-06
5.18591e-07
1.63805e-06
7.56962e-05
0.00133322
9.34119e-07
8.07557e-05
4.16062e-07
7.84511e-07
0.00761552
0.00830204
1.37513e-06
1.43947e-06
1.1292e-06
1.19413e-06
0.00165767
1.05422e-06
1.44528e-06
1.28457e-06
1.49261e-06
0.000165386
0.000119767
1.10241e-06
7.94618e-07
7.85369e-07
1.82539e-06
5.11888e-07
9.76411e-07
1.21175e-06
1.50588e-06
1.2623e-06
5.20883e-07
1.56858e-06
1.2029e-06
9.31525e-07
0.00227111
1.62585e-06
1.52634e-06
7.19197e-07
2.37956e-07
8.32755e-07
1.70933e-06
1.63521e-06
1.14852e-06
4.79186e-07
1.82507e-06
1.77665e-06
5.05293e-07
7.25464e-06
4.42688e-06
1.45546e-06
1.04935e-06
1.3788e-06
1.10764e-06
1.04422e-06
4.72972e-06
7.66407e-05
5.1414e-07
4.98861e-07
1.27519e-06
1.48463e-06
0.00101667
1.1611e-06
5.07468e-07
6.70443e-07
1.58322e-06
5.02036e-07
1.43514e-06
5.01008e-07
0.000111553
6.25656e-07
0.00709663
0.00278458
1.58963e-06
1.37379e-06
9.96079e-07
1.52008e-06
1.52077e-06
1.02487e-06
5.01948e-07
1.05387e-05
0.00155505
9.90249e-07
0.000294253
1.61636e-06
1.67282e-05
1.49265e-06
1.79385e-06
1.37233e-06
9.89259e-07
1.57569e-06
8.97874e-07
1.89171e-06
5.00702e-05
7.97367e-07
1.60439e-06
1.25668e-06
7.24096e-07
7.99535e-05
1.59665e-06
2.25738e-06
0.00103752
6.34983e-07
5.04221e-07
7.29711e-07
5.53485e-07
1.24974e-06
1.42317e-06
1.4942e-06
1.41632e-06
4.06374e-05
1.59353e-06
1.25629e-06
9.4645e-07
1.76129e-06
1.35133e-06
4.95712e-07
1.18935e-06
5.56659e-07
4.92605e-07
7.36388e-07
7.14797e-07
7.02901e-07
2.22767e-05
7.90369e-05
4.94753e-07
1.00413e-06
5.79021e-07
6.22778e-07
7.661e-07
1.14646e-06
2.60247e-06
8.75785e-07
5.86456e-07
5.73822e-07
8.71517e-07
1.41056e-06
4.97868e-07
6.25174e-07
1.22685e-06
1.94702e-06
1.45744e-06
0.00226611
1.05388e-06
1.43419e-06
1.39249e-06
1.16688e-06
1.12125e-06
2.79933e-05
5.09208e-05
2.00767e-06
4.89505e-07
1.2263e-06
9.91677e-07
7.48902e-07
3.9877e-06
2.36589e-06
7.39101e-06
1.63576e-06
1.59404e-06
1.92411e-06
4.40284e-07
7.65734e-07
2.29227e-06
1.34826e-06
7.67535e-07
1.22532e-06
1.56115e-06
1.3553e-06
0.00579961
4.88858e-07
4.41945e-07
1.74886e-06
4.91775e-07
7.23796e-07
7.78944e-07
5.46312e-07
1.22116e-06
1.44281e-06
7.88555e-07
1.01e-06
1.49691e-06
1.82064e-06
0.00197957
8.46174e-07
1.5607e-06
9.04579e-07
3.06669e-06
1.31526e-06
1.35945e-06
0.00326759
1.57457e-06
8.20832e-05
1.53422e-06
7.41345e-07
1.29306e-06
1.40422e-06
1.58077e-06
1.55695e-06
8.01932e-06
1.41257e-06
7.20919e-07
3.78666e-06
1.75499e-06
9.93046e-07
9.31041e-07
1.2522e-06
1.26558e-06
0.000273523
2.31416e-06
1.46529e-06
1.23399e-06
2.07663e-06
9.59429e-05
1.55675e-06
1.07513e-06
1.44046e-06
1.41554e-06
8.46048e-07
0.00237187
0.0015543
9.17945e-07
1.08366e-06
1.0201e-06
2.2867e-06
1.28397e-06
9.59961e-07
6.33438e-07
0.00102444
1.02663e-06
1.55723e-06
1.84869e-06
1.39186e-06
2.78096e-06
1.50023e-06
1.48425e-06
1.20731e-06
1.3928e-06
1.36575e-06
1.63538e-06
1.40027e-06
1.57918e-06
9.85766e-07
1.73047e-06
8.3682e-07
1.39858e-06
1.06574e-06
1.2414e-06
1.20156e-06
1.35741e-06
5.98784e-07
4.83672e-07
6.36577e-07
1.03402e-06
2.04641e-06
7.22213e-07
0.00161297
1.2205e-06
1.60737e-06
1.08409e-06
1.04864e-06
4.7171e-07
1.4456e-06
0.0104145
0.00291538
1.73299e-06
1.2702e-06
1.26555e-06
0.000765891
0.00538838
0.0127489
1.21668e-06
4.86053e-07
1.4793e-06
1.20578e-06
1.21882e-06
1.22402e-06
4.6977e-07
1.33511e-06
1.73722e-06
0.00124395
4.40626e-07
1.18986e-06
1.53226e-06
1.01726e-06
0.0106909
0.000253034
1.62086e-06
1.4343e-06
4.56613e-06
4.16394e-07
0.00179693
1.21219e-06
1.55292e-06
7.8114e-07
7.61209e-07
1.19752e-06
1.87485e-06
0.00013751
6.65284e-07
1.93135e-06
1.34141e-06
1.29845e-06
9.83081e-07
1.19491e-06
8.87291e-06
1.03001e-06
6.69316e-07
0.00215689
1.41952e-06
1.28992e-07
1.52149e-06
5.99249e-07
0.00596074
4.15664e-07
1.45072e-06
0.00154481
1.25471e-06
7.86678e-07
7.38117e-07
5.9959e-07
0.000187196
6.69921e-07
1.05098e-06
2.32368e-06
5.29118e-07
1.0814e-06
1.53242e-06
1.19998e-06
1.70166e-06
1.20265e-06
9.53959e-07
1.83866e-06
1.26793e-06
4.15943e-07
9.73325e-07
1.39018e-06
9.96821e-05
1.41712e-06
9.8982e-07
5.30392e-07
4.20908e-05
4.83613e-07
7.30287e-07
5.11134e-07
8.91843e-07
8.60789e-07
1.20611e-06
0.000111301
1.40479e-06
6.83592e-07
1.44722e-06
1.31681e-06
1.14564e-06
5.29814e-07
1.37202e-06
9.55466e-07
2.16798e-06
1.35554e-06
1.37064e-06
1.03978e-06
0.000126289
0.0117781
9.63619e-07
3.31548e-07
1.49644e-06
0.000685841
1.39796e-06
8.45342e-07
5.13238e-07
9.41822e-07
7.48111e-07
1.33626e-06
6.71641e-07
1.46123e-06
6.60436e-07
8.30153e-07
1.50571e-06
1.42411e-06
1.43035e-06
0.00552473
1.21851e-06
7.28956e-07
7.55831e-07
5.45226e-07
8.05414e-07
7.02864e-07
7.90295e-07
1.45335e-06
4.75565e-06
1.15123e-06
1.04019e-06
8.35408e-07
1.91108e-06
8.85397e-07
8.86232e-07
3.07517e-06
6.31473e-07
1.61516e-06
6.62293e-07
1.46865e-06
1.15993e-06
6.31879e-07
1.09977e-06
6.65607e-07
1.94902e-06
1.43421e-06
1.36884e-06
5.31138e-07
4.16812e-07
1.487e-06
3.03376e-06
6.97313e-07
1.35134e-06
7.93893e-05
9.8019e-07
1.50951e-06
1.38621e-06
0.000986509
1.06097e-06
8.59854e-07
8.02383e-07
1.31003e-06
1.30416e-06
1.61335e-06
1.6206e-06
7.63265e-07
1.31635e-06
1.26569e-06
1.1109e-06
5.23489e-07
0.0043976
8.40785e-07
7.81848e-07
1.55521e-06
4.32606e-05
1.38858e-06
1.03818e-06
0.00493607
1.06518e-06
4.50007e-07
1.57342e-06
1.13084e-06
1.47197e-06
9.39609e-07
7.29769e-05
1.72916e-06
7.54427e-07
0.000156324
1.45029e-06
1.02908e-06
0.00111577
0.00894406
5.1382e-07
6.63444e-07
1.22243e-06
1.34234e-06
1.27032e-06
0.000109563
9.44793e-07
1.57551e-06
4.73904e-07
0.000145858
1.25558e-06
2.02167e-05
1.13955e-06
1.50138e-06
1.27807e-06
1.27269e-05
1.10436e-06
8.86983e-07
1.30817e-06
9.58483e-07
1.20683e-06
1.02747e-06
1.45911e-06
8.75541e-07
8.31326e-07
6.79862e-05
1.65369e-06
5.25585e-07
1.02733e-06
9.87797e-07
1.89565e-06
9.78158e-07
1.57246e-06
7.01092e-07
1.261e-06
1.29498e-06
9.88653e-07
7.61229e-07
0.000975802
6.48129e-07
8.31392e-07
0.000450998
1.16127e-06
6.51462e-07
6.55087e-07
1.59933e-06
1.30275e-06
1.38172e-05
1.08011e-06
1.06971e-06
1.15773e-06
1.20766e-06
1.49086e-06
1.19064e-06
7.9322e-07
1.44261e-06
0.00513992
1.06926e-06
1.18947e-06
1.02784e-06
6.29893e-06
1.51494e-06
1.50426e-06
1.73377e-06
0.00688966
2.93514e-06
6.28253e-07
4.76469e-07
1.67947e-05
1.44822e-06
1.55208e-06
1.3673e-06
6.68104e-07
1.46045e-06
1.45944e-06
1.15914e-06
1.63011e-06
6.65226e-07
4.67366e-07
1.80941e-06
1.25053e-06
8.54753e-07
7.45802e-06
2.00754e-06
1.57436e-06
1.60778e-06
7.27062e-06
2.25169e-06
0.00020949
1.59835e-06
1.59349e-06
1.43923e-06
4.51055e-07
4.30408e-05
1.3667e-06
0.000264982
1.50813e-06
1.34316e-06
1.15612e-06
6.45015e-07
1.5048e-06
1.59164e-06
4.08076e-06
2.95114e-06
0.0206374
4.27805e-05
1.10306e-06
1.55532e-06
8.21755e-07
9.67049e-07
4.99309e-07
7.16502e-07
1.20513e-06
0.0214745
1.83759e-06
6.57834e-07
1.2142e-06
2.421e-06
0.00327445
1.00709e-06
1.04752e-06
5.54566e-07
1.35197e-06
7.1371e-07
1.49715e-06
5.15874e-06
5.16179e-07
4.74134e-07
1.59974e-06
2.75751e-06
1.43586e-06
2.66216e-06
3.80498e-06
9.67601e-07
1.2789e-06
1.50994e-06
1.42241e-06
1.51849e-06
9.81889e-07
3.57063e-05
8.21602e-07
1.36933e-06
1.22398e-06
1.4102e-05
1.44203e-06
0.000168272
0.0144214
1.58161e-06
1.79311e-06
7.75882e-07
1.35714e-06
9.26014e-07
1.4408e-06
7.50823e-07
1.36179e-06
4.67646e-07
6.63192e-07
7.50424e-07
1.26605e-06
4.42373e-07
9.54745e-07
6.67105e-07
0.00289358
0.000145603
9.20994e-07
0.000197232
9.70644e-07
5.39175e-07
8.03712e-07
9.45049e-05
2.00184e-06
1.30133e-06
1.5153e-06
1.15574e-06
6.61392e-07
4.93477e-05
7.35543e-07
1.39652e-06
4.2834e-07
7.24867e-07
4.79208e-07
4.76748e-07
1.48682e-06
4.17573e-07
0.000153119
8.20098e-06
9.21485e-07
1.63555e-06
0.00618964
1.36551e-06
6.32165e-07
1.4896e-06
4.82144e-07
1.27199e-06
1.4975e-06
6.4195e-07
8.15862e-07
1.56927e-06
1.70261e-06
0.00245
5.49849e-07
7.13042e-07
0.000198068
1.1e-06
1.33507e-06
1.86871e-06
1.30565e-06
1.5482e-06
6.64027e-07
3.71265e-06
1.42622e-06
1.74858e-06
1.07514e-06
7.09268e-05
7.3232e-05
1.43098e-06
9.77628e-07
1.53562e-06
1.62576e-06
5.35695e-07
1.61684e-06
1.00358e-06
9.79721e-07
1.39409e-06
2.02555e-06
8.90224e-07
1.24515e-06
4.53746e-07
1.57909e-06
0.00200639
0.000157947
1.2658e-06
1.37739e-06
7.09462e-07
7.06681e-07
9.77636e-07
4.80466e-07
1.01285e-06
4.83428e-07
1.42635e-06
1.36527e-06
9.4893e-07
1.54074e-06
1.49858e-06
1.97604e-06
2.46095e-07
4.25144e-07
0.000199826
1.52127e-06
9.47451e-05
7.41811e-07
5.38521e-07
4.80923e-07
1.30729e-06
6.94407e-07
1.19575e-06
0.00634961
1.54857e-06
7.86019e-07
7.91393e-07
4.51748e-07
0.000784572
6.04486e-07
1.2575e-06
1.26436e-06
1.86017e-06
1.40045e-06
4.75029e-07
0.000297097
0.00040917
9.31625e-07
1.51278e-06
7.58013e-07
0.017226
1.38996e-06
1.1261e-06
0.00575202
1.05833e-05
1.01557e-06
3.4734e-06
1.57323e-06
6.95576e-07
6.61423e-07
9.7942e-07
0.00109993
9.86453e-07
1.00487e-06
0.0032392
6.86343e-07
1.23246e-06
5.52941e-07
1.33022e-06
8.93521e-07
2.12438e-06
1.3117e-06
1.22399e-06
1.92961e-06
1.2744e-06
1.37109e-06
1.43039e-06
6.49206e-07
1.5787e-06
7.74587e-07
1.58128e-06
9.34526e-07
1.55353e-06
7.19128e-07
0.00597843
1.95574e-06
1.6951e-06
1.94726e-06
1.34038e-06
1.72761e-06
8.22106e-07
1.4823e-06
1.14316e-06
7.18636e-07
1.55011e-06
1.08767e-06
9.94212e-07
1.5821e-06
6.25174e-05
9.03954e-07
1.53482e-06
5.69924e-07
1.35056e-06
8.83405e-07
1.21989e-06
1.19269e-06
9.4811e-07
0.000165902
4.76501e-07
0.00188213
1.43527e-06
9.72112e-07
1.0306e-06
1.49155e-06
1.35975e-06
6.86094e-07
6.90633e-07
0.00339312
7.32719e-07
0.00251956
1.06205e-05
7.86955e-05
1.72704e-06
0.00109285
1.03557e-06
4.653e-07
1.36935e-06
6.60478e-07
6.24598e-07
1.82131e-06
1.1525e-06
5.76139e-06
1.39831e-06
1.51219e-06
1.42883e-06
7.7578e-07
1.10075e-06
9.77509e-07
7.3204e-07
4.46373e-07
1.49045e-06
0.0208584
1.42485e-06
0.000151383
1.37319e-06
1.28614e-06
1.4693e-06
7.02445e-07
9.39531e-07
1.28407e-06
1.52986e-06
1.22983e-06
6.55042e-07
1.3137e-06
0.00043267
0.00722586
1.44806e-06
1.00179e-06
1.59575e-06
7.49758e-07
5.19433e-07
2.84122e-05
8.62738e-07
2.14282e-05
0.00593547
1.59441e-06
5.30826e-07
1.95822e-06
1.49242e-06
1.63233e-06
2.54277e-06
1.02171e-06
1.16447e-06
1.76496e-06
1.64747e-06
1.99209e-06
0.000191436
1.58572e-06
9.54953e-07
1.49137e-06
1.32098e-06
4.63347e-07
1.46619e-06
5.72344e-07
8.19912e-07
5.36067e-07
1.216e-06
7.04621e-07
1.33735e-06
7.79882e-07
1.2751e-06
1.86521e-06
7.01303e-07
1.46206e-06
1.47109e-06
3.48561e-05
1.03304e-06
6.99702e-07
0.000249804
7.87465e-05
1.27804e-06
3.37269e-06
3.91082e-05
1.5309e-06
1.45177e-06
1.2291e-06
1.1178e-06
2.55688e-06
1.038e-06
1.85773e-06
5.22176e-07
2.39543e-06
1.17433e-06
1.92266e-06
1.65308e-05
1.33e-06
4.45711e-07
0.0196441
3.61419e-06
9.42147e-07
1.47825e-06
7.72284e-07
1.06038e-06
4.40137e-07
1.39198e-06
1.15234e-06
1.13592e-06
5.44602e-07
1.36745e-06
1.5657e-06
1.38146e-06
1.4641e-06
1.43501e-06
1.81559e-06
8.17922e-07
1.56663e-06
1.162e-06
1.27732e-06
0.00195286
1.14325e-06
1.53795e-06
9.36899e-07
6.79546e-05
7.46256e-07
1.68544e-06
8.18053e-07
4.45346e-07
1.44616e-06
1.12088e-06
6.15783e-07
5.26108e-07
1.3068e-06
5.46902e-07
0.00358426
1.26285e-06
1.49786e-06
0.00243719
2.18867e-06
1.63849e-06
9.96298e-07
1.40838e-06
4.52774e-07
1.34544e-06
4.16049e-07
0.00308997
1.47814e-06
1.16817e-06
1.47034e-06
7.43388e-07
1.55052e-06
1.53883e-06
1.22958e-06
1.11574e-06
7.93646e-07
0.000228849
1.5084e-06
4.75068e-07
0.00154917
6.65823e-07
1.00055e-06
4.69756e-07
1.267e-06
1.2724e-06
9.43839e-07
2.45375e-06
4.43669e-06
0.00279539
1.48331e-06
0.0129146
1.40931e-06
6.15263e-07
0.00915528
1.53573e-06
1.45101e-06
1.41961e-06
6.96399e-07
7.57623e-07
1.57075e-06
0.00567396
1.2387e-06
6.3054e-07
1.48114e-06
1.61578e-06
1.20732e-06
2.17878e-06
5.60495e-07
1.19607e-06
1.50696e-06
1.51186e-06
1.42871e-06
5.06714e-07
7.50596e-07
8.57928e-07
1.04039e-06
7.2631e-07
4.56648e-07
7.4284e-07
1.03096e-06
0.00262439
1.31555e-06
5.12845e-07
1.32408e-06
1.36677e-06
9.16068e-07
1.38111e-06
9.33145e-07
1.38446e-06
1.06143e-05
9.59302e-07
2.3375e-06
1.3459e-06
1.27398e-06
1.4926e-06
6.72468e-07
0.0128804
1.44745e-06
1.3889e-06
1.43023e-06
0.000929472
1.28876e-06
1.09039e-06
5.22681e-07
1.65891e-06
1.10361e-06
1.47679e-06
7.30335e-07
7.46716e-07
1.33935e-06
1.35398e-06
7.8352e-07
1.60711e-06
1.28031e-06
6.79225e-07
1.30073e-06
7.45598e-07
7.35057e-07
0.0122656
1.02854e-06
9.56507e-07
5.74138e-07
1.43401e-05
1.25306e-06
7.64892e-07
1.37091e-06
9.67881e-07
6.11738e-07
8.10462e-07
1.02933e-06
1.46492e-06
0.000194595
7.31534e-07
7.29019e-07
4.40797e-07
6.88785e-07
4.13327e-06
2.92264e-06
1.47713e-06
1.46603e-06
0.00698082
9.50687e-07
2.80704e-06
1.5168e-06
4.69614e-05
1.57479e-06
0.0119665
7.56611e-07
7.76869e-07
7.82556e-07
1.44156e-06
1.11559e-06
1.61582e-06
1.21925e-06
1.48126e-06
1.71862e-06
7.18417e-07
1.53105e-06
1.01561e-06
1.42626e-06
1.56612e-06
7.86376e-07
1.03481e-06
1.62828e-06
6.57606e-07
1.58832e-07
1.5372e-06
1.32255e-06
6.33472e-07
6.75725e-05
1.02915e-06
7.35795e-07
1.28582e-05
1.65861e-06
0.00163585
0.00962054
1.39473e-06
1.90184e-06
2.68053e-06
0.000139996
1.35202e-06
1.23344e-06
1.77324e-06
0.00457207
1.40918e-06
1.62173e-06
2.54644e-05
2.02657e-06
7.46578e-07
4.16393e-06
1.61733e-06
0.000101617
9.75489e-07
1.10887e-06
5.17881e-07
1.84368e-06
1.33747e-06
1.59708e-06
0.00580838
1.30927e-06
5.49279e-07
1.44883e-06
9.61284e-07
1.70041e-06
7.68785e-07
1.42885e-06
4.84685e-07
0.00594879
1.42295e-06
1.42518e-06
1.21742e-06
1.06772e-06
1.18757e-05
1.53571e-06
8.99888e-07
7.90024e-07
4.16677e-07
1.75375e-06