/*--------------------------------*- C++ -*----------------------------------*\
| =========                 |                                                 |
| \\      /  F ield         | OpenFOAM: The Open Source CFD Toolbox           |
|  \\    /   O peration     | Version:  v2012                                 |
|   \\  /    A nd           | Website:  www.openfoam.com                      |
|    \\/     M anipulation  |                                                 |
\*---------------------------------------------------------------------------*/
FoamFile
{
    version     2.0;
    format      ascii;
    class       volScalarField;
    location    "250";
    object      p;
}
// * * * * * * * * * * * * * * * * * * * * * * * * * * * * * * * * * * * * * //

dimensions      [0 2 -2 0 0 0 0];


internalField   nonuniform List<scalar> 
18166
(
-0.00047278
-0.00480154
-0.0110425
-0.0294855
0.00158005
-0.0398029
-0.00191066
-0.0013347
-0.0103675
0.000228839
-0.00493537
-0.0143415
-0.025713
-0.0108603
-0.0184083
-0.004418
-0.0767642
-0.000191886
-0.0199244
0.00157054
-0.0140512
-0.000422819
-0.0201392
-0.00965394
-0.000193904
-0.000524982
-0.00136359
-0.000485221
-0.00710909
-0.00246147
6.3582e-07
-0.000368704
0.000902457
-0.000116521
0.00282326
-0.0051531
-0.000504346
-2.04242e-05
-0.000114742
-0.0134271
-0.00987801
-0.0223917
1.06904e-05
-0.01957
0.00402233
-0.000436723
-0.00152353
0.00372148
3.24899e-06
0.00147715
-0.000873007
-0.0704945
4.21153e-06
-0.00260683
-0.000443363
-0.00363406
0.000240383
-0.000801525
0.0039317
-0.00379751
-0.000156969
-0.000977333
-0.000404159
-0.00402893
-0.00179437
-0.00108266
-0.00150053
-0.00431498
-0.0379062
-0.00019903
-0.0251355
-0.0288571
0.0018264
-0.0109531
-0.000194603
0.000888152
-0.00871036
0.00562797
-0.0499947
0.000475936
-0.0136228
0.000192209
0.000900315
-0.000221334
-0.00072004
-0.000158302
-3.37203e-05
-0.00391024
-0.00234177
-0.0100016
-0.000213075
-0.000168249
-0.0225691
-0.00233264
-0.0109455
-0.00984589
-0.0393729
-0.000828196
0.00653961
-0.0366278
8.33505e-05
-0.000178601
-0.00243341
-0.000204775
-0.000208458
-0.00142019
-0.000282799
-0.00148457
5.01846e-06
-0.0065271
-0.0790735
0.00205795
-0.0758015
-0.0384859
-0.0105773
0.000169935
0.00916793
-0.00472748
-0.00962168
-1.8225e-05
-0.00495457
-1.90771e-05
-0.00493819
-0.000865056
-0.00252338
-0.0153486
-0.0151313
-0.000110771
-0.000326455
-0.0038748
-0.0018653
-0.0044882
8.55645e-05
3.68433e-05
0.000910291
-0.000949122
-0.0011186
-0.0481161
-0.00030759
-0.000207756
-0.00318331
-0.00479008
-0.0173845
0.00123313
1.28966e-06
0.00195687
0.00155921
-0.000495256
-0.000179041
-0.0371197
4.42884e-05
-0.0140004
-0.00119592
-0.0832242
-0.0494364
-0.000180499
-7.58233e-05
-0.00254532
-0.0504922
-0.0105632
-0.00101039
-0.000133543
-0.0528845
-0.000114019
-0.00448584
8.4299e-05
0.0012106
-0.00142221
-0.0837402
-9.7187e-05
6.94969e-05
-2.46117e-05
-0.00130109
0.00558247
-6.39804e-05
0.00189862
-0.000162096
0.00112268
-0.00366779
-0.0106726
-0.000841858
-0.000166074
0.000970968
0.00617894
-0.00734671
-0.00021546
-0.00137441
-0.0101548
-0.00756926
-0.000383787
-0.00253646
-0.00762501
0.00535449
-0.0012383
-0.000138534
-0.06516
-0.0642249
0.00121166
-0.00331139
-0.00152373
6.55785e-05
0.00777665
-0.0835751
-0.0107462
-0.00357625
-0.0429295
-0.0046296
-0.0304707
-0.0434383
-9.21808e-05
-0.00129908
-0.0420415
-0.0438728
-9.84826e-05
-0.0215302
-0.00312258
0.0033573
-0.00257963
-0.00239063
-0.00221747
0.000189523
0.00273169
-0.0125184
-0.000971554
-0.00133941
-0.000319883
-0.000969985
-0.00173891
1.52587e-05
-0.000964238
-0.000615687
-2.72164e-05
-0.000275756
-2.71365e-05
-0.0819263
0.00277354
0.00273829
-0.000299344
1.35634e-05
-0.0116522
-0.00109845
-0.011448
-0.000542213
0.000724287
-0.00100327
-1.06631e-05
-0.0253334
-1.19513e-05
0.000517229
-0.0400006
0.00198377
-0.00215318
-0.00123825
-0.0144028
-0.0047646
-0.00159531
-0.0030171
-0.00409565
-0.0011637
-0.00963923
-0.00186505
-0.00163823
-0.00980667
-0.000177784
-0.00147379
-0.000691199
0.00200257
-0.0013993
-0.000213062
-4.73672e-05
-0.00154633
-0.00354304
0.00131107
-0.000353405
8.53191e-06
-0.00140125
-0.000167529
-0.000736543
-0.00471587
-0.0385882
-0.00180248
-2.90615e-05
-0.0350604
-0.00377854
-0.00402397
-0.00010209
-0.0490853
-0.014385
-0.00140641
-0.00293605
-2.13727e-06
0.000707907
-0.00509772
-0.00805507
-1.72901e-05
-0.000742379
-6.43121e-05
0.000140743
-1.86151e-05
0.00245785
-0.0146514
0.00126511
-0.0376552
-2.90935e-05
-0.00272338
-2.77263e-06
-0.00678672
-0.00167623
-0.000183109
-0.00285322
-0.00430726
-0.00259662
-0.00872173
-0.00108179
-0.00178083
-0.000114613
-0.000274246
-0.0424962
-0.0499129
-0.00151932
0.00685842
-0.00801899
-0.0836206
-0.0077252
-0.000430269
-0.000282767
-0.00425342
-0.0118701
-0.00245663
-0.0444243
-0.000317058
-6.35661e-05
-0.00124877
-0.00281888
-0.034188
-0.00214945
-0.0440112
-0.00103139
-5.16025e-05
-0.00210031
0.00115486
-0.00892806
-0.0416125
-0.00245193
-0.0152087
-0.00658615
-0.0462787
-0.0067828
-0.00064098
-0.000216053
0.00113662
1.53374e-05
-0.0111089
-0.00868727
0.0041148
-0.0206754
-0.00108266
-8.11157e-05
0.000126759
-0.00730076
-0.000154497
-0.00190838
-2.85934e-05
-0.0154459
0.00123523
-2.6515e-05
-0.000431414
-0.00163771
-0.00109942
-0.00411063
-0.000909343
-0.000294328
-0.00179937
-0.0761363
-0.00206723
-0.000521198
-0.000182829
-4.25055e-05
-0.000977235
-0.00701807
1.13178e-06
-0.00309557
-0.0347822
-0.000150226
-1.81077e-06
-0.0069159
-0.0124118
-0.0343251
-0.0141267
-0.0480716
-2.86955e-06
0.00329779
-0.0115566
-0.0122206
-0.00024871
-0.03237
-0.00176418
-5.26176e-06
-0.00163605
-0.0185381
-3.47432e-06
-8.42879e-06
-0.0029379
-8.27893e-05
-0.0124552
-0.00142442
-0.000291513
0.00179029
0.000311576
-8.59952e-05
-0.000193091
2.44344e-05
0.000114454
-0.000177261
-7.39548e-06
-0.0740027
-0.0101405
-0.00213319
-0.000624556
-0.0077987
-0.00127514
-7.17114e-06
-0.000190787
-0.000102606
3.96971e-05
-0.0017571
-0.00675979
6.86109e-06
-4.51153e-07
0.000415622
-0.0121469
-2.3267e-05
-0.0026464
9.69636e-05
-0.000848373
-0.00224855
-0.00110605
-0.0122025
-0.00332378
0.000530365
-0.0804915
-0.0102167
0.00145055
0.00106401
-0.00272966
7.77249e-05
0.00664498
-0.00458626
-0.0129007
2.5081e-05
0.000382246
-0.00145516
-0.00300893
-1.73658e-05
-0.000176067
-0.00537809
-6.46565e-05
-0.00197872
-0.00232417
-0.000304969
-1.43197e-05
-9.6059e-05
-0.00052821
-0.0197567
-0.0187188
-4.96927e-05
-0.008352
-0.00252072
0.000483872
-0.00345653
-0.000116658
-0.00221831
-0.00490911
-0.000165763
-0.0257258
-0.00156747
4.05366e-05
6.49773e-05
-0.00018004
0.00406449
-0.00139214
-0.000125345
-0.000809906
-0.0016185
0.000812992
6.21143e-05
-0.0112237
-3.26174e-05
-0.00285366
-0.000703905
-0.0014303
-0.000483178
-0.00261963
-0.00738097
0.00201393
-0.00128353
-0.000879945
-0.0237662
-0.00331109
-0.00358796
-0.0175722
-0.00251624
-0.0128529
0.00361319
3.35022e-05
-0.00580427
-0.000436595
-0.00142134
5.99079e-05
-0.000335928
-0.0027284
-0.00201925
-0.00144408
-0.000154779
-0.00927128
-0.048576
0.000507998
-0.00684413
-0.0114833
-0.00425327
-0.00233814
0.00367189
0.000106802
-0.00677837
-0.0836774
-9.70629e-05
-0.00268131
-0.00216635
-3.00167e-05
-0.00149231
-0.019478
0.000162838
-0.00193011
0.00317774
-7.1535e-05
-0.00613135
2.75438e-06
-0.000172498
0.000204374
-0.00392243
8.0062e-05
-0.0381409
0.00011095
-0.0494655
-0.00561319
-0.0232959
-0.00013757
-4.96027e-06
0.00253823
-0.000198106
-0.0179298
-0.000121039
-0.00129785
-0.00126365
-1.11236e-06
-7.56333e-06
-0.0325169
-0.0327001
-0.00114365
-0.000360781
-0.00433219
-0.0146315
0.00137143
-0.000231193
-0.00169025
-0.053118
-0.00414609
-0.000117499
-5.32817e-06
-0.00895978
6.78333e-05
-8.78315e-06
0.0015809
-0.00184795
0.000198599
-9.75783e-05
-0.0220715
-0.00273898
-0.0132219
-0.0010591
-0.000404842
-0.000638127
-0.00406013
-0.000141243
0.000117521
-4.9422e-06
-0.00195174
-0.000891673
-0.00144874
-0.00695474
0.00580196
-0.000460467
0.00121615
-0.00923305
-0.00526283
-0.00169671
-0.000705303
-0.000513359
-0.0566089
4.06241e-05
-0.000565815
-0.00685471
-0.00177673
-0.00314699
-0.00114754
-3.5919e-05
-9.44561e-05
0.000410568
-0.00873241
-7.75042e-05
-0.000403957
-0.000126183
-0.00223381
-0.00127513
-0.000137956
-0.00145651
-0.023115
-0.000115434
4.94723e-05
0.000626277
-0.00120724
-0.000234925
0.00464639
-0.0740234
-0.00161552
-0.000128585
-0.00193538
-0.00171925
-0.0325685
-0.000129364
-0.00266568
-0.00226775
-0.000360817
-0.0140835
-0.00460627
-0.0115127
-0.00016015
2.94239e-05
-0.00179107
1.51547e-05
-0.00266619
-7.15339e-06
-0.0243371
-0.000874651
-0.00228132
-0.000897648
0.000693395
0.000157302
-0.000249383
-8.83555e-07
-0.00910738
-0.000213064
-0.000224042
0.000756228
2.41016e-05
-0.0810552
-0.0140092
-0.0088646
-0.00054841
-0.000131224
-0.000222663
-0.0152547
-0.00938013
-0.00222655
-0.000124659
0.000982577
-0.000638992
0.000881844
-0.00308262
-0.0507162
6.73e-05
-0.00241851
-0.00408785
-0.0296617
0.00101522
0.00261585
0.000450854
-0.00183796
-0.0175971
-0.000225641
-0.000265819
-0.000200847
-0.000448257
-0.0478732
-0.0388948
0.00342313
-0.000323908
-0.00027815
-0.000607843
-0.00139917
-0.00674434
-0.00143224
-0.000175576
-0.0356772
-0.0652089
0.00326484
-0.0252639
0.00158631
-0.00334968
-0.00255171
-0.0033555
-1.39144e-05
-0.00145577
0.00775716
-0.000145824
-0.00117257
2.19166e-05
-0.00252155
-0.000275897
-0.00461087
0.00768445
-0.0440129
0.00014982
0.00135881
-0.000723809
-0.00846567
-0.0154926
-0.00438071
-0.000715961
-0.00964977
0.00236227
-0.00386823
-0.0643421
-0.00226679
-7.11642e-05
-0.000180847
-0.00952093
-0.0246661
-0.00916518
0.00627564
0.00120242
-0.000127025
-0.0251578
-0.0444915
-0.000159002
-0.00101765
-0.0123971
-0.0288705
-0.00425041
-5.80871e-05
0.00546805
0.00158503
-2.99337e-05
-0.000514277
-0.000148804
-0.00229329
-0.00893038
5.98315e-05
-0.00414213
-0.00669966
-0.0028126
-0.00106261
-0.000239738
-0.00184112
-0.0379054
-0.00475666
0.000563844
-0.000260912
-0.00131094
-0.00291624
-6.47353e-05
-0.00053258
-0.0249114
-0.00572505
-0.0175774
-9.82184e-05
5.94111e-05
-0.00265304
-0.0583218
-0.00260333
-0.00271639
-0.000922949
-0.00104877
2.88136e-07
-0.000562766
-0.0145234
-0.00190259
0.00158379
-0.00491383
-0.0149574
-0.0824041
0.000692833
-0.0271827
-0.0115414
-0.00185374
-0.0139553
-0.00386605
-0.00091311
-0.00206556
0.000531754
-0.00109089
-5.48118e-05
-0.00346945
-0.00270738
-0.0750111
-0.00201787
-0.00255838
0.00068903
-0.000643745
-0.0036959
-0.00383308
-0.00263614
-0.00023693
-0.0488431
-0.000114715
-0.00226068
3.42681e-05
-0.000123952
-7.33073e-05
0.00413531
-0.00482782
0.000809779
-0.000225359
2.40486e-05
-0.00170569
-5.00631e-06
0.000397084
-0.0554344
6.59087e-05
-0.000931128
-0.00439446
-0.000175846
-0.00127584
-0.000819766
-0.000237449
-0.0585054
-0.0034618
-0.00122995
-0.00144128
0.000796139
-0.00101226
-0.000170262
-0.00508209
-0.000262536
-0.000143829
-0.000368182
-0.00538562
-0.000381515
-0.000121305
-1.84351e-05
0.00237416
-0.00271652
-0.044025
-2.41063e-05
0.000111823
-0.000550724
0.000453216
-0.00549117
-0.000613516
-0.000311987
0.000720654
-0.00230273
-2.15674e-06
-0.00935381
-0.0140487
-0.000210558
-2.62231e-05
-0.00126807
-0.00234325
-0.015017
1.14529e-07
0.000122254
0.00157309
-0.00628265
-0.000826161
-0.000371032
-0.00270906
-0.00637089
-0.0792992
0.000744646
-0.00090962
-0.0119479
-0.00298697
-0.00015067
-0.000793561
-1.50357e-05
-0.00752677
0.00403506
-0.000195389
-0.000698147
-0.00365879
-0.0407997
-0.00131578
-0.040371
-0.000743842
0.00609162
-0.00962775
-0.00269783
-0.00691482
0.000159302
-0.0335457
-0.0286142
-0.00296576
0.000730392
0.000883553
-0.00814528
-0.000146126
0.000662259
-0.000538361
-0.00244238
-0.000835477
-0.00313187
-0.00149144
-2.52703e-05
-0.00206778
-0.0724279
-0.0010353
-0.0177096
-0.0724566
-0.00090223
-0.0405635
-0.00278631
-0.000496616
0.00295078
0.00308991
-0.000122058
-0.0332372
0.00365179
-0.00131609
0.00012356
-0.000167231
-0.0947015
-4.541e-05
-0.0136052
-0.000146956
-0.0471215
-0.0017025
-0.00188034
-0.00160225
-0.000206465
-0.0042002
-0.00650322
-0.032354
-0.000350583
0.00337861
-0.00222864
0.000392528
0.00585119
0.00274681
-0.027382
0.000661766
0.00108997
-0.0380361
-0.00112587
-0.000625088
-0.000236305
-0.00687525
-0.0036498
-0.00827638
-0.000134673
-0.0336176
-0.0177321
0.000751464
-0.000671133
-6.48289e-05
-0.0332197
-0.000551375
-0.00430718
0.00270732
-0.00277297
0.000157977
-0.0466589
0.000866226
0.000840642
0.000634528
-0.00010486
-0.00155821
0.000134441
-0.000209195
-0.0168737
-0.0146193
8.7202e-06
-0.00112984
-0.00191197
-0.0021845
-0.00857544
-0.000230451
-0.000419486
-0.00973044
-0.00245586
-0.000366163
-0.0053507
-0.000835809
0.00152546
-0.000943538
0.000642293
0.00111705
-0.000498857
-0.000460787
-0.0180317
-0.00606996
-0.000707233
0.00616606
-0.012489
-0.000393806
0.000932551
-0.0447418
-0.00115204
3.12213e-05
6.46356e-05
0.000177161
-0.00983962
-0.000662021
-2.45548e-05
6.01357e-06
-0.000405158
-0.000349658
-0.000161171
-0.000929039
0.00103373
2.73186e-06
0.00132123
1.8515e-05
-0.000276805
-0.0369732
-0.000673922
-0.000199341
-2.96988e-05
-0.00827203
0.000128931
-0.000107009
-0.0280445
-0.00840451
-0.000203303
0.000102861
-0.00135276
7.70586e-05
-0.001211
-0.000107294
2.15847e-05
-0.0104782
-0.0801022
0.00196977
-0.000145074
-0.00835711
-0.00186336
-0.0128359
-0.0107658
-0.0481154
1.87757e-05
-0.0163897
0.0013162
-0.0121491
0.000312502
0.000342923
0.00613754
-0.000298952
0.000169544
-8.73563e-05
-0.0560412
5.64354e-05
0.00124826
-0.000167056
-0.000297158
-0.000117032
7.09032e-06
5.42498e-05
-0.000104202
-0.00317157
-0.000489306
-8.81443e-05
0.00663643
-0.000217931
-0.00218905
-0.0131589
-0.0286006
0.00532083
-0.00996033
-0.00456785
-0.00471845
-0.00077076
-0.00827768
-0.00927412
-0.00286495
-0.00182764
7.42798e-06
-0.0235121
-0.000210361
0.00203533
-0.000179191
-0.00125717
-0.0395321
-5.76945e-05
-0.0449207
-0.00163596
-0.00550552
0.00346851
-0.00236033
-0.000302402
0.000382608
-0.00367924
-0.0733127
-0.0066892
-0.0490915
-0.0109059
-0.000995548
-0.00258578
-0.00023902
0.000793742
-0.000311126
-6.0309e-05
-0.000361282
-0.00100516
-0.000170814
-0.0128328
-0.00198807
-0.0336362
-0.00113925
-0.0277978
-0.00460692
-0.00203282
-0.00674116
-2.2261e-05
-0.00322005
-0.00122603
-0.0277934
-0.00647133
-3.42332e-05
-4.44548e-05
-0.0021672
-3.804e-05
-4.07938e-05
-0.00657912
0.00322636
0.00258979
-0.000116371
-0.0034521
-0.00014418
-0.000666416
-0.0121084
-0.00840906
0.000218333
-0.0365657
-0.0714239
-0.0167062
-0.0016153
-0.0126411
-0.00761115
0.000734089
-0.00334856
-9.82173e-06
-0.00519384
0.00298358
-1.81331e-05
-0.000712011
-0.000362246
-0.0415112
-8.2246e-05
-0.00023777
-0.0154876
-0.00554776
-0.0143372
-0.00437469
0.00108886
-0.00119575
-0.00178238
-0.0461878
-0.000319479
-0.0397758
0.00071067
0.00138526
-0.0174049
-1.92126e-05
-0.000671522
-0.000198925
-0.0967202
-0.00203284
1.26706e-05
-2.67104e-05
-0.00197802
-0.0134421
0.000824263
-0.0162682
0.00134957
2.11567e-05
-0.00198613
-0.000307963
-0.0380775
-0.000176658
-0.000228855
0.00673318
7.59482e-06
-0.00179994
-3.53562e-06
-0.0381982
-0.0145814
-0.000177073
-0.00809282
-0.00202897
-0.00738374
9.45627e-05
-0.00127721
-0.00216463
0.000390394
-0.0712503
-0.0828738
-0.0203926
8.27605e-06
0.000105646
-4.70124e-05
-0.000118049
-3.46021e-06
-0.0182596
-0.0209521
-0.0210261
-0.00402804
0.000624186
1.43444e-05
-0.0331664
-0.00020794
-0.0176685
0.00155931
0.00218071
-0.000132228
-0.0067859
-0.0147552
0.00100929
-0.000202622
-0.000377356
-0.00100952
-0.000280628
-0.000170314
-0.0239062
-0.00357553
-0.00594581
-0.00109512
0.000388703
-0.0433754
-0.0126611
-0.00127336
-0.000193176
-0.0178841
-0.00178191
0.000710098
-0.000708438
-0.000160887
0.00366075
-0.000701616
8.17696e-05
-0.0405468
-0.0411448
-5.2434e-05
-0.000670262
-0.00313388
2.19846e-05
-0.00343735
-0.0167442
-0.00310292
-0.020714
-0.000524407
-0.000143231
-0.0473041
-0.0275841
1.94503e-05
-0.000526702
-0.00377632
-0.00532284
-0.00115449
-0.0117273
-0.000289774
-0.0228385
-0.000199298
-0.00139163
-3.24499e-05
-0.0232042
-0.00874799
0.00154821
-0.00228498
-0.000388289
-0.0419219
-0.000229663
-0.000219582
1.20457e-05
-0.00362265
-0.000244785
-0.000306097
-0.00320385
0.000202777
-0.000144136
0.000710103
3.90648e-05
-0.00067952
-0.000227792
-0.00152138
-0.00186808
-0.00163967
-0.00730514
0.00170874
1.09998e-05
-0.00105223
-0.00952369
-0.000988028
-0.00251836
-2.30747e-05
0.000838775
-0.000219488
-0.00021169
-0.00478117
3.02316e-05
-0.00374779
-0.000128977
0.00371462
-0.0453097
-6.86109e-05
-0.0212983
-0.000241044
-0.00182894
-0.00315121
-0.0399349
-0.00150362
2.81056e-05
3.20915e-05
-0.000745311
-0.000143488
-0.00026173
-0.00295399
-0.00182717
0.00215616
-0.0362935
3.89629e-05
-0.00774227
-0.000442378
-0.0106025
-3.51964e-05
-0.000924405
-0.00168903
-0.00613136
-0.00126459
-7.3462e-06
-0.0289462
-0.000205918
-0.00459531
-0.000875194
-0.0042267
-0.00202564
-0.021739
1.66142e-05
-0.0258588
-0.000446679
-0.0184028
-0.000103898
-0.000531583
6.81667e-06
-0.000304058
-0.051859
-0.0051412
-0.006304
-0.00954058
-0.00162361
-0.000608404
-0.00470776
-0.000838641
-0.0099765
-0.00235903
-0.00420201
-0.000127372
0.0060601
-0.00146914
-0.000267564
-0.000319042
-0.0280728
2.52348e-05
-0.000917737
-0.00214775
-0.00428099
-0.00184284
1.48756e-05
-0.00482929
-0.00128026
-0.000125981
0.00413955
-0.0212719
-0.00880763
-0.000219025
-0.00074575
-0.000472013
-0.0337752
-0.0219735
0.000626818
2.25809e-05
0.00288002
-0.0361092
3.39614e-05
0.00219038
-0.0294592
-0.0103503
-0.000836748
-0.00293201
-0.000730791
-0.00069984
0.000228435
-0.00115287
2.41465e-05
4.00037e-05
-0.00335517
-0.00768596
0.000610409
-0.00170592
3.22141e-05
-0.000170544
-0.00498015
3.75369e-05
-0.00874447
3.89364e-05
-0.00236608
-7.90884e-05
-0.0460845
-0.00216414
-0.0144275
-0.00286083
-0.000726641
-0.013277
-0.0117436
-0.00111311
-0.000266451
0.00251244
0.004421
-0.000421187
-0.0426224
-0.019034
0.00344467
-0.00443047
-0.040193
-0.00552249
0.00040464
-0.0120744
-0.000689806
-0.000730269
0.00287923
-0.000115362
-0.0211473
-0.00307764
-0.000218472
-0.00206637
-0.0117541
0.00111271
0.00175414
3.48127e-05
3.59286e-05
-0.000231886
4.99246e-06
-0.00237
-0.00248137
-0.0126464
-0.00487822
0.0026848
-0.00887362
-0.00298279
-0.000683677
-0.0350181
-0.00548527
4.09626e-05
-0.00211043
3.16872e-06
4.03653e-05
-0.000161299
-0.000207368
-0.000210629
0.0007592
0.00332857
4.15629e-05
-0.000790987
-1.50206e-05
-0.000252708
-0.000146338
-0.00124019
0.00361548
-7.44898e-05
-0.00015747
6.99537e-05
-3.90485e-05
-0.00153875
4.10245e-05
-7.49499e-05
-0.00235962
-0.00336163
-0.00989963
-0.0339873
-0.00119386
-0.00473962
0.00315118
-8.92779e-05
-0.0013555
-0.00050337
-0.00146283
-0.0448301
3.71953e-05
-0.00210104
-0.000729455
-0.000255494
-0.0332108
0.000831531
-0.0380215
-0.0232526
0.00244097
-0.0280589
6.01033e-05
-0.000155417
-0.00699352
0.0012299
0.000574106
-0.0024602
-0.0182846
0.00172857
-0.0559712
3.68982e-05
8.82331e-05
-0.0346234
4.0254e-05
-0.000153058
-0.000171687
1.34567e-05
-0.00241048
-0.00532582
-0.000319864
-0.000823187
-0.00459483
-0.000177978
0.00739303
-0.000547843
-0.0179358
-0.000331701
-0.0463212
0.000580819
-0.0057217
-0.00234799
-0.0174633
0.00490157
-0.00240528
-0.00025878
-0.00372095
0.0012536
-0.0103815
-0.00155846
-0.0393336
-0.00211681
-0.000152041
0.00111687
-0.0147771
-0.000363108
-0.000730517
-0.00300139
-0.00316455
0.00258048
0.00198385
-0.0100701
-0.000797549
0.000380832
0.00238386
-0.0151919
0.000206046
-0.00521409
-0.00470222
-0.000328418
0.00640985
0.00456186
0.00260262
-9.58559e-05
-0.00109742
-0.0061446
-0.00360656
0.00036312
4.58016e-05
-0.0775643
-0.000969164
-0.0154262
-0.0193276
-0.00709214
-0.0259168
-0.00207824
-0.0063482
-0.00114833
0.00119446
-0.00362786
-0.0224391
-0.00721751
-0.0124547
-0.000435131
-0.000826459
-0.00048212
-0.00183358
-0.000620313
0.000790673
-0.00206361
-0.00568679
-2.26345e-05
0.00057539
-0.000133106
0.000710128
-0.0452557
-0.000142229
0.00318202
-0.00157262
-0.00911569
-0.00125154
-0.00121196
-1.62377e-05
-0.00991879
-0.0291654
-0.0319224
-0.0330503
-0.00196135
-0.00244529
-0.0188074
-0.0625819
-0.0327805
-0.00175793
3.09162e-05
-0.0110587
-0.00162968
0.000850871
-0.00199296
-1.14615e-06
-0.00434351
-0.0319107
0.00291609
3.7499e-05
0.000205917
-0.0120587
-0.0010759
-0.0730076
-0.00131759
-0.0243982
0.00191759
0.00188467
-1.40261e-06
0.00292366
0.000784918
-0.00171259
-0.000160628
-0.000128123
0.000784205
-0.0200903
0.000892413
-4.22789e-05
-0.0373059
-0.0020306
-0.00235595
-0.000485892
-0.00195483
-0.00469228
-0.000568883
-7.81304e-05
-0.0125198
-0.00258327
8.68637e-05
-0.00311787
-4.26128e-05
-0.0790881
-2.74771e-06
-0.00874126
0.00541449
-0.00290306
-0.000166961
-0.000298283
-4.54592e-05
-0.00152918
-8.09918e-05
-0.000878891
-0.0183235
3.23339e-05
0.000169237
-0.0123099
-0.00178109
-0.0153877
-0.00171267
0.00033933
-0.0136316
-0.00323766
-3.1509e-07
-0.000701614
-0.00675561
0.00210021
-0.00635483
2.31338e-05
3.87478e-05
0.00281805
2.44696e-05
-0.000142598
0.000410515
-0.000351751
-5.21557e-05
-0.00210419
-0.00768036
-0.00466951
-0.000108605
-0.00332845
-0.00348342
-0.00080259
-7.40992e-07
0.0015042
0.000226971
0.00221214
-0.00512746
-0.00612864
-0.000290553
7.70703e-05
-0.0280225
9.9615e-06
0.00064732
-0.0131251
-0.0398135
-0.00159646
-0.000317243
0.00044231
-0.000680473
-0.000116695
0.00158398
-8.94364e-05
-0.0109696
-0.000150511
-0.000295024
-0.0137142
0.00184202
-0.00189717
-0.0348411
-0.00241357
-0.000260264
-0.000109316
-1.51224e-05
-0.000341206
-0.000204127
-0.000129499
-0.00996747
0.00413514
-0.000864034
-0.000831487
-0.00014533
-0.0349661
-8.19585e-05
7.97167e-05
0.00401438
-0.00010693
-0.0222043
-0.00015315
0.000792869
-0.00176883
-0.000108425
-0.00128157
0.000592218
-0.000834725
-0.0024418
-0.00385574
0.000233997
-3.34244e-06
-0.00688457
-0.0451232
-0.000249376
-0.00443194
-0.0232552
0.000421968
-0.0141075
-0.00558087
0.000817906
-0.000626812
-0.000143373
-0.00034121
-0.00318641
-0.00402001
-0.0120846
-0.0240066
-0.000172188
-0.00328899
-0.00321244
-0.00151507
0.000251865
-0.0816505
-0.000135023
-0.000183628
-0.00597584
-0.0454838
-0.00646647
-0.00102636
-0.0833731
0.00100152
1.31993e-05
-0.0180956
-0.00163103
0.000588625
9.25975e-05
-5.62872e-05
-0.034608
-8.87802e-05
0.00394321
-0.0100639
-0.000525061
0.00245339
-0.0263827
-8.81471e-05
0.000111488
-0.00247151
-0.00192217
-0.00332853
-0.0734737
0.000190239
-0.0204554
-8.66798e-07
0.000602369
-0.00263094
-0.000840711
-0.0016925
-0.00176237
-0.00196881
-0.0651592
-0.000812034
4.3975e-05
-0.00250482
-0.000854898
-0.00127583
-0.00111007
-0.00885732
-0.000321724
-0.000304257
0.00262274
-0.0277578
3.77885e-05
-0.0010746
-0.000474286
-0.0371877
-0.000935696
-0.00248955
0.000141748
-0.00316071
-0.000159966
-0.000379115
-0.000134319
0.000230058
1.3113e-05
-0.000540018
0.00307992
0.000988687
-2.51881e-06
-0.000140683
-0.00586691
-0.00165884
-0.0486687
-0.00136615
0.00098461
0.00108609
-0.0017357
-0.00906684
-0.00192275
0.000648281
-0.00474715
-0.0608975
0.000320796
-0.000941297
0.000635517
-0.0515936
-0.0128523
-0.00194146
-0.00141847
-0.084417
-0.00453889
-1.44067e-05
8.6322e-06
-0.0669036
-0.00859862
-0.0177365
-0.00571007
-6.59357e-05
-0.0102818
-0.00354476
0.00174078
0.000537227
-6.64836e-05
-7.49313e-06
-0.000362305
-0.00137023
-0.000520335
-0.0628131
-0.0433041
-0.0112275
-0.0171791
-0.000307261
-0.000138834
-0.000754717
-0.00916514
1.52023e-05
-0.00233696
1.52137e-05
-0.00160486
-0.00283036
-0.000358554
-0.00370085
-0.00522974
0.000707184
2.39478e-05
-0.00123867
-0.0105176
-0.0533913
-0.005602
-0.10026
-0.00106562
0.000373318
-0.0178896
-0.000254274
-0.000896945
6.34171e-05
-0.000148828
-0.00180769
-0.0975828
-0.00967072
-0.000133374
-0.00238244
-0.0245311
-0.0463038
0.000461118
-0.00124671
-9.6182e-06
0.000549598
-0.00014832
-0.00188948
0.00390106
6.18531e-05
-2.94741e-06
-0.0136164
0.00205743
-0.00871134
-0.0281233
-0.0407391
-0.000819461
-0.00344689
-0.0112398
-0.00655864
-0.00365867
0.000432667
0.00539609
-0.000440099
-0.004371
-0.0024598
-0.00135946
-0.000651983
-0.00869036
-0.0647358
-0.0209064
-0.028468
-8.91966e-05
-0.00513131
-0.00063217
-0.00443738
-0.000143301
-0.00258262
-2.64202e-06
-7.37259e-05
4.47451e-05
-0.00199434
4.57123e-05
-0.000844359
-7.32965e-05
-0.033857
0.000653195
6.45411e-05
-0.000687664
-0.000871732
2.34013e-05
-0.000135941
-0.000863405
-0.0328834
-0.00390501
-0.0143707
-0.00179928
-4.60283e-05
-0.00182078
-0.000148139
-0.00718279
0.000100121
-0.000816549
2.61204e-05
2.13226e-05
-0.0122392
1.31671e-05
0.00105111
0.00151221
-0.000630143
-0.0258018
-0.0840165
-0.00358718
-1.84926e-05
-0.00925133
3.0852e-05
-0.00326643
-0.013591
4.07214e-05
-0.000300766
-0.00142964
-0.0333254
-0.0546182
8.46917e-06
-0.000216843
-0.000560409
-0.000597262
-0.0040045
-0.0345481
-0.00282878
-0.00892668
-7.93148e-05
-0.0551702
-0.0019824
-0.00048838
0.000289658
-0.0608069
-0.0664897
-0.00142414
-4.02794e-05
-0.000827549
-0.0207372
2.99179e-05
-0.0186306
0.000438452
-4.42472e-05
-0.00678164
-0.0261088
-0.000334358
0.000883795
1.65507e-05
-0.0179358
0.00513343
-0.00049427
-0.00227853
0.0017205
-0.000143806
-0.000141513
0.000434855
2.47546e-05
5.41135e-05
2.32738e-05
-0.00426597
-0.00591828
-0.000662464
-0.0119356
-0.00898196
-0.0451095
-0.000551487
6.41418e-05
0.00776022
-0.00414008
-0.00110323
-0.000171796
2.72606e-05
2.51343e-05
-0.00304991
-0.000204679
-0.00116505
-0.00599429
-0.00395946
-0.00012909
-0.000401827
1.35676e-05
-0.0427015
0.00264362
-0.00269061
-0.00320278
-0.0102393
-0.00738075
2.14495e-05
0.00189339
-0.0400344
-0.00065472
-0.0115889
-0.000326348
-0.0691779
-0.00200451
-0.00150464
-0.0804053
-0.00389401
-0.00107427
0.00388575
-0.00127377
-0.000162188
-7.60581e-05
-0.000915169
0.0015254
-0.000727001
-0.000711143
-0.0478594
-0.000141289
-0.00258546
8.74683e-06
-0.00423375
-6.25885e-05
-0.0312749
-0.00322471
-0.00238836
-0.0101703
-0.00326796
-0.00163382
-0.00131092
-0.000131767
-0.0182661
-0.000356659
-0.0109886
-0.000822589
-0.00982534
-0.00025059
-0.0753593
-0.00402653
-0.0326907
-0.0440338
-0.00413728
-0.0310009
-0.000175418
-0.00209681
0.000677774
-0.00014035
-0.00866556
-0.000439784
-0.00102375
-0.0210644
0.00250706
2.85742e-05
-0.00178416
-4.4709e-05
-0.00417823
-0.000621274
-0.00246484
0.00020273
0.000334423
-0.00140749
5.8848e-06
-0.0716712
-0.00262473
-0.000885972
-4.39008e-05
-0.00144507
-0.00347203
-0.000117615
-0.000120325
0.00512799
-0.000223588
-0.0562484
0.00480829
-0.0003867
-0.0344439
0.000892099
-0.000831063
-1.01091e-05
-0.00423299
-5.80687e-05
-9.90675e-05
-0.0287778
-0.00155431
0.00185887
-0.0020422
-0.00166779
-0.00626732
-0.00019111
0.00104767
-0.000459105
-0.000241251
4.52152e-05
-0.00815988
-0.0922252
-0.00162081
-0.000855374
-0.00586583
-0.00360627
-0.00784874
-0.00013726
-0.000699117
0.000760821
-0.014033
-0.00252636
-6.56415e-05
-0.00314446
-0.0713702
0.00179596
-0.00831642
-0.000919954
-0.00855553
-0.000257243
5.23864e-05
-0.00232868
-0.000461017
-0.00335528
-0.0773985
-0.00611843
3.51435e-05
0.00212511
-0.00586169
0.000298207
0.00166386
-0.00111336
-0.00151804
-0.0108547
-0.0171306
-0.0252151
-0.0591581
-0.0210942
0.000639327
-0.00604076
-0.00453207
-5.73109e-06
-0.00974025
-5.13657e-05
-0.000148853
0.000105102
-0.00240655
-0.000430941
-0.00417404
-0.000136783
0.000652765
-0.0283554
-0.000133254
-0.00765966
-0.0109208
-0.0436435
-0.000867948
-0.00013514
-0.00089961
0.00415394
-0.00337659
-0.0452462
-0.00046293
-0.00160224
-0.00860073
-0.000975934
-0.00152128
-0.0383609
-0.000656256
-0.0335941
4.69128e-05
-0.0286778
0.00169803
-0.00323054
-0.0615557
-0.00345214
2.46716e-05
-0.0719165
0.00109732
0.000298565
-0.0023419
-0.000193976
0.000501304
5.49657e-05
-0.0071267
0.00146793
-0.00167617
0.000226031
-0.00480921
-0.014464
-0.00539929
-0.00611708
-0.0012366
-0.0270622
0.000229693
-0.0005447
-0.00183949
-0.00342747
0.00384725
-0.00131855
-0.00163826
-0.0007858
0.000298514
-0.000228734
-0.0141231
-9.54376e-05
2.69459e-05
0.000627874
-0.00155406
3.5047e-05
3.41594e-05
-0.00316074
1.98577e-05
-0.0672169
-0.00200535
-0.00917232
0.00535755
-0.0127391
-0.00184305
-0.000451888
-0.00199652
1.55428e-05
-0.00404188
1.11864e-05
0.0096044
-0.00882697
-0.00155513
-0.00450646
-0.000210566
-0.00201908
-0.011637
0.00117502
-0.00152627
-0.000347287
-0.00166012
-0.00438301
1.15872e-05
0.00365158
-7.78156e-05
-0.000437936
1.83528e-05
-0.00180502
-0.00181812
-0.000809567
-0.0373835
-0.00120387
0.0067623
-0.00282158
-0.0287958
-0.000693071
4.17213e-05
-0.00778037
-0.00146386
0.00160478
-0.00626175
-0.000329166
-0.000266452
0.00184796
-0.00776483
-0.00218418
-0.000105263
-0.00599358
-0.0244014
-0.00230915
0.00310397
-4.27487e-05
-0.00104698
-0.0135949
-0.00121321
-0.00147479
0.000514502
-0.000282227
-0.000463216
-0.00120394
-0.000140922
1.48656e-05
-0.000308425
-0.00115961
0.00793495
0.00163299
0.000174202
-0.00334444
-0.00503297
-0.00060907
-0.00663425
-0.000776736
-0.00683952
0.00356035
-0.00088413
0.00322723
-0.00207116
-0.000550559
-0.00736058
-9.01755e-05
-0.0251903
-0.00373358
-0.00690697
-0.00856765
0.00038702
-0.00200297
-0.00118674
4.28325e-05
-0.0142896
0.00107236
-0.0112219
-0.000142739
-0.00014982
-0.00508794
-0.00189967
-0.000190016
-0.0179493
-0.00125875
-9.80925e-05
-0.00278005
-0.000215989
-0.000288837
-0.0447469
-0.000110167
-0.000203262
0.000512288
0.00228374
-0.0030438
-0.000143148
-0.00621335
-4.94894e-05
1.44792e-05
-0.000112101
-0.00114547
-0.00210825
0.00264463
-0.000205165
-0.000159966
5.2489e-05
-0.00012051
0.00239418
-0.0152514
-0.0121248
-0.00542133
-0.028882
0.00031488
-0.0346017
-0.0127596
0.00293391
-0.0118352
-0.0708557
-0.000279466
-0.000135456
-0.000126044
-0.00322421
-0.00122079
-0.0241726
-0.00244472
-0.00228151
-0.0339302
-0.000214036
-0.0161472
0.000520064
-0.00637053
-0.00124929
-0.000134291
-0.000196531
0.00144353
-6.809e-05
-0.000174395
-0.0115726
-0.00455057
-0.000108607
-0.000381927
0.000416876
-0.00029677
-0.0474119
-0.0178538
0.00402604
-0.0669924
-0.00193225
-0.0379903
0.00378967
0.000218086
-0.00258688
0.00114079
-0.0389972
-0.0791906
-0.0075935
-0.0164746
-0.064287
-0.0156706
-0.000144172
0.00214629
-0.0177274
-0.0622817
-0.000672577
-0.00101251
0.000129738
-0.00889529
-0.00396143
0.00118081
-0.0784516
0.00106933