/*--------------------------------*- C++ -*----------------------------------*\
| =========                 |                                                 |
| \\      /  F ield         | OpenFOAM: The Open Source CFD Toolbox           |
|  \\    /   O peration     | Version:  v2012                                 |
|   \\  /    A nd           | Website:  www.openfoam.com                      |
|    \\/     M anipulation  |                                                 |
\*---------------------------------------------------------------------------*/
FoamFile
{
    version     2.0;
    format      ascii;
    class       volVectorField;
    location    "250";
    object      U;
}
// * * * * * * * * * * * * * * * * * * * * * * * * * * * * * * * * * * * * * //

dimensions      [0 1 -1 0 0 0 0];


internalField   nonuniform List<vector> 
18166
(
(1.02733 0.00376889 8.41458e-24)
(1.02457 -0.00162359 -1.14444e-21)
(1.03563 -0.033639 1.75526e-22)
(1.04969 -0.0289187 -1.0504e-21)
(1.00074 -0.0108562 0)
(1.05989 -0.0141575 1.05626e-20)
(1.02022 -0.00110736 1.18249e-22)
(1.02174 -0.00243748 -4.53711e-22)
(1.03171 -0.0113748 0)
(1.03013 0.00422092 -8.44245e-24)
(1.02471 -0.00155235 0)
(1.03516 -0.0241541 0)
(1.04659 -0.00244141 6.37085e-23)
(1.03205 -0.0149413 -3.03659e-21)
(1.03943 -0.00663152 2.87408e-21)
(1.02493 -0.0031373 0)
(0.535528 -0.0620171 0)
(1.02027 -0.000564052 -8.70509e-24)
(1.04069 0.00335384 6.10812e-21)
(1.01994 0.00216753 2.43355e-22)
(1.03454 0.00399338 3.63137e-21)
(1.0087 7.63061e-05 0)
(1.04094 0.00242665 1.55476e-21)
(1.03044 -0.00322309 0)
(1.02889 0.000113805 -1.56932e-22)
(1.01139 -0.0142792 -1.87858e-23)
(1.02183 -0.00251002 2.77767e-22)
(0.943315 -0.00390174 2.26263e-23)
(1.02677 0.000598793 0)
(1.02014 -0.000437051 6.88579e-22)
(1.01676 -7.16387e-05 0)
(1.00818 -0.00241104 1.45998e-23)
(1.02061 -0.00407565 1.8627e-22)
(1.02916 0.0020904 0)
(0.996044 -0.00941092 -9.52505e-22)
(1.02388 0.00362356 1.26775e-21)
(1.01745 -0.000302674 2.16558e-24)
(1.01739 -2.12208e-05 -4.35765e-24)
(1.02171 -0.003589 -1.23722e-23)
(1.03436 -0.0239006 0)
(1.03123 -0.0113182 -2.10989e-21)
(1.04319 0.0028631 0)
(1.0171 -0.000136154 -1.86516e-23)
(1.04028 0.00374732 2.79995e-21)
(0.971608 -0.00953845 0)
(1.01842 -0.000483991 -5.21064e-23)
(1.01914 0.000206739 6.87898e-23)
(1.02581 -0.00509109 7.22512e-22)
(1.01722 -0.000114848 -1.25601e-24)
(1.02041 0.00186246 3.7474e-22)
(1.02837 0.00202515 1.45758e-23)
(0.530774 -0.0605558 -2.20023e-20)
(1.01718 -0.000108538 1.4487e-24)
(1.02318 -0.00308 4.82394e-22)
(1.01832 -0.000464317 1.70974e-22)
(1.02167 0.00179989 2.14549e-21)
(0.947941 -0.002528 0)
(1.01773 0.000380002 0)
(0.99898 -0.0091965 -4.05026e-22)
(1.02191 0.00191508 -1.16482e-21)
(1.02075 -0.00051132 3.43089e-23)
(1.01753 -0.000296821 3.8427e-22)
(1.01791 -0.000114158 -1.47844e-22)
(1.02247 0.00404344 -8.21684e-22)
(1.01963 -0.000137789 -4.15352e-22)
(1.01759 -0.000283295 0)
(1.01845 -0.000489791 0)
(1.02475 -0.00299924 5.13132e-22)
(0.893889 -0.0512899 4.03558e-21)
(1.01862 -0.000328717 -6.73904e-23)
(1.04598 -0.00209174 0)
(1.04884 -0.0291609 9.63532e-21)
(1.02096 -0.00673737 0)
(1.03217 -0.0110196 0)
(1.01858 -0.000319419 4.4992e-23)
(1.02038 -0.00304468 -2.7919e-22)
(0.534511 -0.0425199 0)
(0.945066 -0.00900441 -6.51598e-22)
(1.07114 -0.0351609 7.82e-21)
(1.02093 -0.00228878 0)
(1.03405 0.00408224 1.48538e-21)
(1.02165 -0.0011208 0)
(0.988986 -0.00948055 -2.34139e-23)
(1.01703 -0.000149698 0)
(1.01721 -0.00017472 -1.69093e-22)
(1.02073 -0.000516478 4.83487e-25)
(1.02043 -0.000602007 -8.57614e-25)
(1.02226 0.00391302 5.12881e-22)
(1.01965 -0.000214901 -1.07064e-21)
(0.599794 -0.045061 0)
(1.01702 -0.000146012 -3.57177e-23)
(1.02007 -0.000447821 0)
(1.04335 0.00332465 0)
(1.01961 -0.000177488 1.05841e-21)
(1.03221 -0.0106876 0)
(1.02993 0.00197709 0)
(1.06241 -0.0322452 0)
(1.01746 0.000453814 0)
(0.991162 -0.010315 0)
(0.443143 -0.052541 -3.55342e-21)
(1.02131 -0.00131407 -2.88825e-24)
(1.02041 -0.000551071 -3.93891e-23)
(1.02014 -0.000496502 0)
(0.970642 -0.00314429 1.063e-24)
(1.01787 -0.000248833 1.07547e-23)
(0.977471 -0.00165368 3.31815e-23)
(1.01774 -2.3883e-05 -1.00499e-22)
(1.01885 -0.000177862 5.33686e-22)
(1.02041 -0.000369439 -5.26458e-25)
(1.02596 0.000878375 0)
(0.663777 -0.0533786 -2.26392e-20)
(0.920504 -0.0100155 0)
(0.612968 -0.0554646 0)
(0.915494 -0.0488007 0)
(1.03138 -0.00352983 -1.28512e-21)
(0.964581 -0.00276347 -1.07963e-22)
(0.940515 -0.00649302 -1.75514e-21)
(1.02646 -0.00768183 -1.31946e-21)
(1.03035 -0.00295688 0)
(1.01799 4.60287e-05 3.37383e-24)
(1.02528 -0.00264628 1.45651e-21)
(1.018 4.54854e-05 0)
(1.02662 -0.00750373 8.55763e-22)
(1.01729 -0.000219143 2.90668e-22)
(1.01986 0.000147555 6.72499e-22)
(1.03629 -0.00345345 1.03141e-22)
(1.03603 -0.00308642 0)
(1.02134 -0.000614791 -5.29418e-23)
(1.0175 -8.02399e-05 -4.55251e-23)
(1.02215 0.00354707 9.6784e-23)
(1.0201 -0.001074 5.99556e-23)
(1.02305 0.00417705 -1.05669e-22)
(1.02182 -0.000321218 5.45868e-24)
(1.02127 -0.00130094 0)
(1.02051 -0.00390666 -4.76696e-23)
(0.987592 -0.00185715 7.80795e-23)
(1.02087 -0.00171914 0)
(1.06987 -0.0355608 -6.33206e-21)
(1.01766 -9.65993e-05 -5.62817e-23)
(0.993455 -0.0162111 5.04651e-23)
(1.02342 -0.00267681 9.09347e-22)
(1.0251 -0.00266691 -2.35813e-21)
(1.03823 -0.00119927 3.56471e-21)
(1.01799 0.00277418 -2.29596e-22)
(1.01821 -0.000197268 8.0515e-25)
(0.969524 -0.010264 0)
(1.02251 0.00273594 2.12519e-22)
(1.01752 -0.000315511 -1.03144e-22)
(1.02035 -0.000516305 -9.66562e-24)
(0.431412 -0.0544366 0)
(1.02135 -0.000800191 -1.34088e-23)
(1.03442 0.00525121 -1.64475e-21)
(0.99405 -0.0155194 0)
(0.847372 -0.0465128 0)
(1.06819 -0.0170995 0)
(1.02034 -0.00052331 9.87627e-24)
(1.02103 -0.00103006 -1.48959e-23)
(1.02385 -0.00423727 -2.62452e-22)
(1.06899 -0.0166007 0)
(1.03139 -0.00326864 -2.01737e-21)
(1.02149 -0.00228053 -8.23464e-23)
(1.02121 -0.000579089 -1.48103e-23)
(0.693951 -0.0538518 1.77936e-20)
(1.01566 0.00012636 -4.5238e-24)
(1.02303 0.00440083 1.8664e-21)
(1.02139 -0.000912856 -7.21143e-24)
(1.02174 -0.00646737 6.03952e-22)
(1.02171 -0.00234687 -7.22118e-23)
(0.885659 -0.0445168 2.7828e-20)
(1.02096 -0.00101507 8.04335e-24)
(1.02155 -0.000613741 1.75209e-23)
(0.942655 -0.000979065 1.64714e-23)
(1.02079 -0.00166213 0)
(1.01568 -0.0102319 0)
(1.01575 -4.64133e-05 -2.22667e-23)
(1.03141 0.00422328 3.96912e-22)
(1.0206 -0.000512305 -2.7517e-23)
(1.01627 0.00459849 -4.59727e-22)
(1.02172 0.00165152 -9.42956e-22)
(1.03067 0.00436504 0)
(1.01729 -0.000214145 -1.46165e-22)
(1.02014 -0.000457654 1.25476e-23)
(1.01739 0.0058873 2.01914e-22)
(0.754485 -0.0341082 1.63118e-22)
(1.02861 -0.00617342 1.70667e-22)
(1.0182 -5.74286e-05 0)
(1.02142 -0.00209684 2.40739e-22)
(1.03013 0.00525478 -3.3226e-21)
(1.02847 -0.00422232 -2.98879e-22)
(1.01737 -0.000105927 9.73404e-23)
(1.02377 -0.00408072 2.83553e-22)
(1.02886 -0.00613975 -1.7899e-21)
(0.699128 -0.0377401 -8.85477e-22)
(1.01826 2.73609e-05 0)
(1.02122 -0.000569859 -2.7203e-23)
(1.08478 -0.0312881 8.76353e-21)
(1.08475 -0.0299862 7.02008e-21)
(1.02152 0.00028279 1.70397e-22)
(1.02356 -0.00268804 3.56955e-22)
(1.01853 -0.000514431 4.83911e-23)
(1.02135 -0.0010092 -6.68991e-24)
(0.972795 -0.0126331 0)
(0.887802 -0.0437397 9.32244e-21)
(1.03163 -0.00374627 -1.31619e-21)
(1.02159 0.00213077 0)
(1.06307 -0.0207406 -7.04913e-21)
(1.02503 -0.00290484 0)
(1.05082 -0.0293271 0)
(1.06323 -0.0190172 6.68092e-21)
(1.02082 -0.000709963 0)
(1.02069 -0.00159238 0)
(1.06227 -0.0211894 6.22618e-21)
(1.06355 -0.0196691 -7.62359e-21)
(1.0207 -0.000660793 -1.58858e-23)
(1.04239 1.81228e-05 6.9992e-21)
(1.02347 -0.00283376 0)
(1.02744 -0.00381041 9.31023e-22)
(1.02306 -0.00294766 0)
(1.02365 -0.00406167 5.38583e-22)
(1.0215 -0.00172885 2.65901e-23)
(1.02165 -0.00112956 -4.34243e-23)
(0.926201 -0.0188401 0)
(1.03367 -0.0151967 -1.7137e-21)
(1.01855 -0.000126752 1.33292e-22)
(1.01866 4.24752e-05 0)
(0.993622 0.000260352 -1.47085e-22)
(1.01748 -0.000276596 -2.26104e-22)
(1.02071 -0.00147938 0)
(1.0215 -0.000235299 0)
(1.01846 -0.000121826 -9.05532e-23)
(1.01756 -6.27137e-05 1.04396e-22)
(1.01758 2.59855e-05 2.58755e-24)
(1.01553 -0.012994 -8.34354e-23)
(1.01759 2.42445e-05 -2.45932e-24)
(0.806133 -0.0482076 0)
(0.896577 -0.0207705 -1.1899e-22)
(0.893723 -0.0166365 -2.78538e-22)
(1.01719 -0.000256781 -1.63578e-23)
(1.02123 -0.00088182 0)
(1.03273 -0.0222918 -2.86653e-21)
(1.01755 -0.000266077 -1.34412e-22)
(1.03262 -0.0147993 2.76342e-21)
(1.01666 -8.95998e-05 0)
(0.992603 -0.000141371 0)
(1.01848 -0.000132256 -5.75993e-22)
(1.01814 5.14227e-05 0)
(1.04467 -0.0453869 -1.63544e-21)
(1.01814 5.26073e-05 0)
(1.02088 -0.00239975 -1.25298e-23)
(1.0601 -0.0150077 0)
(0.929538 -0.020105 3.64067e-22)
(1.02144 -0.00173091 -2.34234e-23)
(1.02158 -0.00230682 -4.59016e-22)
(1.03528 -0.0225941 7.1431e-23)
(1.02516 -0.00286906 1.24345e-21)
(1.01906 2.16209e-05 -1.30254e-22)
(1.02336 -0.00282618 -6.29813e-22)
(1.0224 0.00295904 0)
(1.02151 -0.00226816 8.98602e-23)
(1.02966 0.00223161 0)
(1.02405 -0.00957473 -4.4719e-22)
(1.02391 -0.00934058 0)
(1.0297 0.0053515 1.38169e-21)
(1.01782 -7.17472e-05 0)
(1.01878 -3.96689e-05 4.46387e-22)
(1.02267 -0.0046448 -8.04381e-23)
(1.01528 -0.0185605 4.8139e-22)
(1.02162 -0.00227094 -1.08215e-22)
(1.0177 5.66032e-06 5.25272e-23)
(1.02151 -0.000293339 3.6446e-23)
(1.01832 -0.000393326 3.89619e-22)
(1.02155 0.00228362 0)
(1.02169 -0.00625292 1.11783e-22)
(0.999609 -0.00324631 -3.97246e-23)
(1.02169 -0.00054688 -6.14859e-25)
(1.01839 -0.000515558 1.65017e-22)
(1.02361 0.00176478 -6.64326e-24)
(1.01718 -0.00018693 -1.79633e-22)
(1.02437 -0.00151023 1.56776e-21)
(1.06133 -0.031863 8.48489e-21)
(1.02006 -0.00108951 -5.86803e-23)
(1.0205 -0.00067213 7.01565e-24)
(1.0555 -0.00619887 -1.34155e-22)
(1.02189 0.00207453 0)
(1.02238 0.00369113 2.15269e-22)
(1.02142 -0.000622588 4.34019e-23)
(1.06794 -0.0187072 0)
(1.03519 -0.0219929 -2.95107e-21)
(1.01793 -0.000309647 0)
(1.0241 -0.00411457 0)
(1.02028 -0.000347333 5.10333e-25)
(1.01737 0.00485832 6.66336e-23)
(1.02383 0.00385685 -1.27122e-21)
(1.02908 -0.00480298 -2.38919e-21)
(1.01785 4.02109e-05 -1.8937e-24)
(1.013 -3.33782e-05 7.73654e-23)
(1.01733 1.32058e-05 6.08665e-24)
(0.951827 -0.00200322 0)
(1.01786 4.17004e-05 1.53096e-24)
(1.01461 -0.0171824 -4.61039e-22)
(1.0358 -0.0114918 -6.02298e-21)
(1.01953 -0.0028807 -1.19268e-22)
(0.851572 -0.0521106 7.74507e-21)
(1.02161 -0.00351045 1.34358e-23)
(1.02079 -0.00060277 2.06676e-22)
(1.02174 -0.000543934 0)
(1.02775 -0.0176184 -9.06384e-22)
(1.02096 -0.001663 4.06977e-22)
(1.02031 -0.000541879 3.76494e-23)
(1.02396 -0.00398651 -3.31292e-22)
(1.02378 -0.00137385 4.45346e-22)
(1.02 0.000138112 -8.5109e-22)
(1.02897 -0.000778231 -6.8555e-22)
(1.02129 -0.00206134 -3.42239e-22)
(1.01995 -0.00104335 5.71989e-23)
(1.01575 -2.41842e-05 -9.08105e-24)
(1.01704 -0.000168723 4.78142e-23)
(1.06271 -0.0226012 7.04567e-21)
(1.06854 -0.0180249 0)
(1.01827 -0.000389579 -1.88952e-22)
(0.971036 -0.0203849 1.56895e-21)
(1.02919 -0.00578435 0)
(0.854155 -0.0451723 -1.60607e-20)
(1.02892 -0.00583279 0)
(1.01833 -0.000456919 -1.46289e-24)
(1.01705 -0.000173497 -4.86086e-23)
(1.02362 -0.00124772 -4.19156e-22)
(1.03719 -0.0338268 -2.57956e-21)
(1.01973 5.0979e-05 -3.4713e-22)
(1.06405 -0.0179609 0)
(1.01767 -0.000107158 1.26116e-22)
(1.01724 -0.00012648 -4.35904e-24)
(1.01805 -0.000186938 0)
(1.02327 -0.0029604 -5.30313e-22)
(1.05467 -0.00644114 -8.28643e-21)
(1.01907 0.000563258 0)
(1.06368 -0.0172764 0)
(1.0235 -0.00913029 0)
(1.02111 -0.00106838 -1.2692e-23)
(1.01978 -0.000675595 3.39585e-22)
(1.01977 -0.00266034 -1.93785e-22)
(1.02923 -0.000930784 9.12697e-22)
(1.06191 -0.023144 6.02288e-21)
(1.01974 0.000110253 -6.24086e-22)
(1.03607 -0.00233407 -1.88363e-21)
(1.02601 0.00109492 0)
(1.06412 -0.0401548 1.74088e-20)
(1.02642 0.000339413 -8.78443e-22)
(1.01888 -0.000701192 1.43246e-22)
(1.01787 -0.00025133 -9.30212e-24)
(1.02183 -0.00612073 0)
(1.0152 -5.00932e-05 0)
(1.03219 -0.0225472 8.55497e-23)
(1.02885 -0.000311709 0)
(1.01494 -0.0164791 0)
(1.04149 0.00254319 3.61527e-21)
(1.02154 -0.00232086 8.60655e-23)
(1.02102 -0.00105191 1.70695e-23)
(1.03119 0.000913159 -1.18813e-23)
(1.02835 -0.0176357 6.05046e-22)
(1.02066 -0.000847019 -8.93962e-24)
(1.02144 -0.00188491 3.99382e-22)
(1.01766 2.95158e-05 4.6228e-24)
(1.03633 -0.00266589 -2.03466e-21)
(1.02169 0.000602731 -1.78912e-22)
(1.01776 3.53972e-05 -4.54383e-24)
(1.01823 -0.000440615 0)
(1.01867 0.000167811 -8.41553e-23)
(1.02057 -0.00153217 3.36351e-22)
(1.02586 -0.00691979 -4.58096e-22)
(1.01735 -0.000210223 0)
(1.02078 -0.00124461 0)
(1.02077 -0.00148295 -3.27132e-22)
(1.07318 -0.0341274 -1.26397e-20)
(1.01966 -0.000646748 -5.3072e-22)
(1.01548 -7.0628e-05 0)
(1.02036 -0.000576196 0)
(1.02153 -0.00059935 8.15401e-24)
(1.01842 -0.000140807 1.66387e-22)
(1.02671 0.000428604 0)
(1.01819 5.24307e-05 4.53201e-26)
(1.02079 0.0013367 -1.70028e-21)
(1.05542 -0.0213716 0)
(0.919383 -0.00425784 1.08187e-22)
(1.01829 5.51919e-05 -1.08244e-25)
(1.02639 0.00137403 -2.21248e-21)
(1.03358 -0.0135281 0)
(1.05485 -0.0222236 2.21973e-21)
(1.0346 0.00376965 -3.20037e-21)
(1.06599 -0.0389464 9.24753e-21)
(1.01823 5.49771e-05 5.60224e-26)
(1.02197 -0.00869889 6.0369e-22)
(1.03281 -0.0101097 -1.34313e-21)
(1.0328 -0.000400152 0)
(1.0211 0.00548252 1.16682e-22)
(1.05299 -0.0263203 -2.15936e-21)
(1.01902 -0.000128242 0)
(1.01793 5.27594e-05 -2.1212e-25)
(1.01833 0.000211647 -3.02096e-22)
(1.03842 -0.0278285 -7.42554e-21)
(1.01797 5.64258e-05 -1.85936e-24)
(1.01767 5.00816e-05 2.53387e-24)
(1.02339 -0.0029691 -6.12193e-22)
(1.01768 -7.08804e-05 3.61592e-25)
(1.03306 -0.000626109 -6.03827e-21)
(1.0184 -0.000178305 -5.05432e-22)
(1.01652 -0.000107862 -9.46494e-23)
(1.02096 -0.00707043 -9.82605e-22)
(0.952316 0.01434 0)
(1.01759 -7.29797e-05 -9.0978e-24)
(1.02029 -0.000557678 4.4611e-23)
(1.02019 0.00997724 -7.92911e-23)
(1.02161 -0.000457411 0)
(1.01666 -9.73126e-05 3.07488e-23)
(1.01707 -9.65981e-05 0)
(1.04315 -0.0384192 -2.14586e-20)
(1.03028 0.0020614 -8.06129e-22)
(1.01938 0.00190979 0)
(1.01767 -0.000372328 -1.36826e-22)
(1.02874 -0.00437205 -6.69316e-22)
(1.01822 -0.000174693 0)
(1.01702 -9.41791e-05 4.1852e-25)
(1.02551 0.000248831 0)
(1.02577 0.000364525 1.23995e-23)
(1.02128 -0.000959332 -7.71322e-24)
(1.01923 -0.000101062 -2.20943e-22)
(1.02641 0.00019757 1.06282e-21)
(1.01687 -8.43113e-05 0)
(1.0167 -6.65015e-05 0)
(1.02218 -0.00113143 0)
(1.03267 0.000246396 -3.44006e-21)
(1.01752 -8.42777e-06 0)
(1.02067 -0.000609335 0)
(1.02168 -0.000426917 2.29362e-23)
(1.01818 -0.000147744 0)
(1.02142 -0.00164245 1.98272e-22)
(1.02067 -0.0015888 -4.15784e-22)
(1.03328 -0.0276525 5.0361e-21)
(0.736787 -0.0424953 0)
(1.02324 -0.00274251 0)
(0.765562 -0.0500016 0)
(1.02978 -0.0355363 0)
(1.02048 -0.0101918 0)
(1.02105 -0.0102447 -1.65245e-22)
(1.02164 -0.00136458 -5.08492e-22)
(1.02151 -0.000648926 6.15615e-24)
(0.993226 -0.0162752 0)
(1.02507 -0.0030971 0)
(1.03408 -0.0134464 0)
(1.02158 -0.000140712 -9.49396e-25)
(1.02209 -0.00116205 2.53355e-23)
(1.02148 -0.00212116 0)
(1.02065 0.00125556 1.42089e-21)
(1.01743 -8.56513e-06 0)
(1.01741 -3.30023e-05 -6.0966e-24)
(1.0269 -0.00662025 0)
(1.0215 -0.000606857 7.6991e-24)
(1.01951 -0.000650277 -6.63809e-23)
(1.02151 -0.00164214 -2.34343e-22)
(1.0208 -0.00126867 -4.04987e-23)
(1.01756 2.33051e-05 0)
(1.01788 -0.000116284 2.92293e-23)
(1.01799 -0.000129906 0)
(1.04054 0.00281634 -3.75147e-21)
(1.03972 -0.00621573 -4.22088e-21)
(1.02157 -0.000599932 0)
(1.02929 -0.00435112 0)
(1.01983 0.000227595 4.11543e-22)
(1.02238 -0.0011279 -3.35355e-23)
(1.02354 -0.0024772 0)
(1.0217 -0.000720039 -1.2509e-23)
(1.0192 0.000416713 3.26276e-22)
(1.02652 -0.00682137 0)
(1.02059 -0.000519008 1.12775e-24)
(1.04809 -0.0442271 0)
(1.01885 0.000162922 -8.44559e-23)
(1.02129 -0.000940464 1.22229e-23)
(1.01693 -8.30312e-05 6.16728e-24)
(1.02058 -0.000848214 3.65188e-23)
(0.800794 -0.0135706 -5.2568e-22)
(1.02368 -0.00631689 4.22747e-22)
(1.02078 -0.000573793 0)
(0.96866 -0.00277752 8.15322e-24)
(1.02089 -0.00164994 -4.79153e-22)
(1.02049 -0.00326403 0)
(1.0214 -0.000786071 5.94845e-24)
(1.03249 -0.027672 -2.34801e-21)
(1.01797 2.5837e-05 -1.43226e-23)
(1.02421 -0.00449639 -8.25781e-22)
(1.01688 -5.63567e-05 2.66481e-22)
(1.01799 -0.000325337 5.13837e-23)
(1.02062 -0.0013076 0)
(1.02052 -0.000511826 7.13796e-22)
(1.02839 -0.0193352 -1.85417e-21)
(0.958575 -0.0172301 -4.14252e-22)
(1.02357 -0.006228 -3.52588e-22)
(1.02124 -0.00202378 0)
(1.04459 0.00258854 7.80623e-21)
(1.02122 0.00247432 1.21269e-22)
(1.02159 0.00141768 3.14158e-22)
(1.03843 -0.000801525 -5.80223e-21)
(1.02014 0.00283032 3.81284e-22)
(1.03318 0.00458686 0)
(0.927205 -0.0102433 0)
(1.02128 -0.000879084 0)
(1.02473 0.00357453 0)
(1.02068 -0.00131314 0)
(1.01847 -0.000542948 1.68617e-22)
(1.02134 -0.000912064 1.74551e-23)
(1.02119 -0.000234267 0)
(1.02329 -0.00308668 5.96305e-22)
(1.01872 3.84791e-05 8.51524e-22)
(1.01824 -0.000196933 5.58911e-22)
(1.01306 2.56874e-05 0)
(1.0308 -0.0277105 2.35203e-21)
(1.06773 -0.0203573 -2.36418e-21)
(1.02367 -0.00290275 -8.90359e-23)
(1.02634 0.00115337 1.31269e-21)
(0.885056 -0.0438534 9.97768e-22)
(1.02263 0.00308229 -9.32175e-22)
(1.02353 -0.00393453 -5.29258e-22)
(0.998291 -0.0107079 1.96523e-22)
(1.02173 -0.000336292 -6.13566e-23)
(1.02769 -0.0191772 3.48244e-21)
(0.815399 -0.0470824 0)
(1.02139 -0.000616378 2.02205e-23)
(1.02037 0.00283291 -4.91267e-22)
(1.01908 0.000398161 -3.00851e-22)
(1.01736 -1.98167e-05 4.16973e-24)
(1.01881 -0.000180506 0)
(1.03928 -0.0277431 4.03012e-21)
(1.02119 -0.00237821 6.43578e-23)
(0.688246 -0.0444389 -7.00276e-22)
(1.02206 -0.00774652 0)
(1.02165 -0.000617758 0)
(0.89452 -0.0458121 -1.09647e-21)
(1.01759 -8.84997e-06 0)
(1.01714 -3.93175e-05 3.19222e-23)
(1.02117 -0.00248736 -2.64869e-23)
(1.0245 -0.00325509 0)
(1.02139 -0.000871398 -9.68204e-24)
(1.05847 -0.0187558 0)
(1.02145 -0.000794914 -6.51455e-24)
(1.06836 -0.0196286 2.43282e-21)
(1.0245 0.00371154 0)
(1.04417 0.00233142 -6.93245e-21)
(1.01486 0.000145763 2.07798e-23)
(1.01814 5.60704e-05 0)
(1.02191 -0.00784085 1.26835e-22)
(1.02049 -0.000823047 -4.05037e-23)
(1.03896 -0.00669669 7.24593e-21)
(1.02082 -0.000912878 0)
(1.01833 -0.000534075 -7.76486e-23)
(1.02362 -0.0093612 -2.24317e-22)
(1.0181 -0.000187695 0)
(1.01802 5.46999e-05 0)
(1.05304 -0.022903 -9.28242e-21)
(1.05325 -0.0253743 -6.80605e-21)
(1.02041 -0.00144393 8.05171e-23)
(0.980363 -0.0171553 1.63478e-23)
(1.02357 -0.000992721 0)
(1.03572 -0.0118617 -2.78311e-21)
(1.02162 -0.00664683 -3.57895e-22)
(1.01784 -0.000116074 3.84696e-23)
(1.0198 -0.00101432 -1.10901e-22)
(0.741925 -0.0511911 -6.12977e-21)
(1.0246 -0.00304111 9.77918e-22)
(1.02134 -0.000614902 0)
(1.01788 5.65366e-05 3.18182e-25)
(1.0289 0.00170626 2.03244e-21)
(1.02135 -0.000992697 0)
(1.01776 5.15729e-05 1.29016e-24)
(1.02184 0.00479136 -7.92006e-22)
(1.02055 -0.00131958 0)
(0.867849 0.0167899 0)
(1.01808 0.00813462 0)
(1.04293 0.000273812 -1.16909e-20)
(1.02155 -0.00127385 9.25289e-22)
(1.0336 0.00477402 0)
(1.02084 -0.00169084 0)
(1.02099 -0.00158227 0)
(1.0128 -0.00298579 0)
(1.02578 -0.00666507 3.07656e-22)
(1.02074 -0.000890748 0)
(1.02401 0.000826227 -1.94925e-23)
(1.01723 -0.000120406 -2.49573e-24)
(1.01858 8.59742e-05 -1.2745e-21)
(1.01735 -0.000200422 -1.77898e-22)
(1.02279 -0.0123766 -2.85432e-22)
(1.02654 0.000760322 -1.35032e-21)
(0.665379 -0.00356148 -4.97124e-22)
(1.01796 -5.71681e-05 1.04749e-22)
(1.01961 -0.0032105 -1.06801e-22)
(1.03056 -0.0117566 -1.91547e-21)
(1.02406 0.00428588 1.14308e-21)
(1.01487 7.07414e-05 0)
(1.01578 -0.000145963 0)
(1.00837 -0.0145533 0)
(1.07415 -0.0182821 -1.96118e-21)
(0.952587 -0.0096349 -1.2871e-22)
(1.01758 -0.000344172 2.85255e-25)
(1.02838 -0.0093428 8.02381e-22)
(1.01927 -0.000196299 0)
(1.02167 -0.000775889 -9.97669e-22)
(1.02366 -0.00799562 0)
(1.01787 2.03515e-05 7.6832e-24)
(1.02193 -0.000331528 6.85733e-23)
(0.960317 -0.0182229 1.27647e-22)
(1.03003 -0.023661 0)
(1.02109 -0.00114725 -1.96806e-23)
(1.01789 -0.000131506 5.92188e-24)
(1.02184 -0.000281803 0)
(1.02321 -0.003537 -1.16452e-22)
(1.01896 -0.000114057 0)
(1.02085 -0.000598776 4.0944e-23)
(1.0179 -0.000233918 -5.85628e-22)
(1.04397 -0.0143103 -5.79474e-21)
(1.02102 -0.0011413 3.36415e-23)
(1.02134 -0.000836897 0)
(1.02619 0.0110856 -1.08188e-22)
(1.02267 -0.0120459 0)
(1.01933 -0.000452193 2.26666e-23)
(1.01623 -0.0100693 0)
(1.01702 -0.0405938 -1.16533e-20)
(1.0184 -0.000386419 0)
(1.02185 -0.000311145 -5.49972e-23)
(1.01854 0.000105177 9.657e-22)
(1.01991 -0.00105629 -6.1836e-23)
(0.392518 -0.0508803 3.52051e-21)
(1.02149 -0.000579426 0)
(1.02397 -0.00425766 4.45795e-22)
(1.02331 -0.00366331 0)
(1.02103 -0.00159211 1.21985e-22)
(0.428538 -0.0428435 1.83402e-21)
(1.02531 -0.016737 -4.94942e-22)
(1.03277 -0.0104979 0)
(1.02044 -0.000483042 -4.02072e-23)
(1.02138 -0.000729859 3.86151e-24)
(1.01954 -0.000167944 -2.49718e-23)
(1.02256 -0.000261534 0)
(1.02141 -0.0012348 -4.56731e-22)
(1.01664 -5.09511e-05 -6.25487e-25)
(1.04333 -0.0295679 -5.53806e-21)
(1.01797 0.000325093 -1.74723e-22)
(1.01961 0.00192715 -6.7845e-22)
(1.01749 -0.000296331 -2.56933e-22)
(0.950502 -0.00169324 1.04969e-22)
(1.02156 -0.00109701 1.97936e-23)
(1.02084 -0.00120736 -6.95909e-23)
(1.0201 -0.000352301 0)
(1.0302 -0.0158373 0)
(1.01688 -4.51655e-05 -3.17084e-23)
(1.01908 -0.000400504 0)
(1.02766 0.0116943 -4.27062e-23)
(1.0214 -0.000700486 -5.79967e-24)
(0.735481 -0.0506538 0)
(1.03444 0.00482982 0)
(1.02908 -0.000477691 1.64036e-21)
(1.01758 -0.000341264 0)
(1.02089 -0.000603632 -1.81746e-23)
(1.02041 -0.000824497 0)
(1.03607 -0.00162181 -4.1736e-21)
(1.02921 0.00585573 -5.24985e-23)
(1.01921 0.000557004 0)
(1.01696 -5.95758e-05 0)
(1.02014 -0.0030192 4.43051e-22)
(1.01795 -9.29096e-05 -2.11582e-22)
(1.02775 0.0124695 0)
(1.02162 -0.000831209 1.01068e-21)
(1.06913 -0.0159721 3.47335e-21)
(1.02182 -0.000379089 -6.75693e-24)
(1.02344 -0.00368276 0)
(1.02465 -0.00323127 0)
(1.05214 -0.0428602 0)
(1.01674 0.00581784 -1.90407e-22)
(1.03131 0.00401317 4.98063e-22)
(1.02231 -0.00117903 1.68598e-23)
(1.02046 -0.00129043 -7.19314e-22)
(1.03825 0.00507622 5.53387e-21)
(1.01898 -0.000388822 0)
(1.01711 -0.000178619 -1.03849e-22)
(1.02009 -0.000527089 2.10061e-23)
(1.01844 -0.000492203 -1.85904e-22)
(1.06746 -0.0221263 0)
(1.05902 -0.0140631 -1.95416e-20)
(1.01485 -0.0178371 0)
(1.0301 0.000872012 -9.73975e-24)
(0.950428 -0.00349489 -6.25343e-23)
(1.02129 -0.00863768 3.40261e-22)
(1.02077 -0.0016325 0)
(1.02826 -0.00902028 1.14074e-21)
(1.01796 -0.000221069 5.68728e-22)
(1.02045 -0.000534394 0)
(1.0561 -0.0067692 9.35466e-21)
(1.08599 -0.0290105 -8.31142e-21)
(1.01916 -0.00440545 -9.54831e-22)
(1.04608 -0.0113897 -8.97444e-21)
(1.02131 -0.00656263 1.0606e-22)
(1.02126 0.00231947 8.4392e-22)
(1.02041 -0.000513133 -5.43074e-22)
(1.0247 -0.0126912 0)
(1.02267 -0.000512183 5.52497e-24)
(1.02083 -0.00164983 0)
(0.654898 -0.0304597 2.04916e-21)
(1.02096 -0.000463668 -1.62211e-23)
(1.02081 -0.00167736 3.39563e-22)
(1.02126 -0.00229136 2.3192e-24)
(1.02027 -0.00044542 -9.57333e-22)
(1.01577 5.8847e-05 0)
(1.02626 -0.00677202 0)
(0.649742 -0.0290901 -2.42016e-22)
(1.06523 -0.0294984 4.52144e-21)
(1.02269 -0.0090866 0)
(1.01953 -0.0018573 -2.47653e-22)
(0.963716 -0.000709435 4.09347e-24)
(1.02981 -0.0121054 0)
(1.03634 -0.00195381 2.01092e-21)
(1.02371 -0.001123 0)
(1.01815 0.000183149 0)
(1.03097 -0.0118241 -2.9756e-22)
(1.02248 -0.00895402 -3.40852e-22)
(1.02204 0.001436 1.67478e-22)
(1.08589 -0.0277096 -3.98301e-21)
(1.0243 -0.00618704 3.063e-22)
(1.02152 -0.000610691 -2.49891e-23)
(1.0204 -0.000557131 -3.92334e-23)
(1.0308 -0.0237309 2.04485e-21)
(1.04559 -0.00887257 1.33523e-21)
(1.03031 -0.0154361 -1.34011e-21)
(0.785864 -0.0133662 5.28904e-22)
(1.01976 -0.00235207 0)
(1.02149 -0.000594655 0)
(1.04607 -0.00861495 -7.28709e-21)
(1.06409 -0.0155632 7.25989e-21)
(1.02041 -0.000476522 2.01263e-23)
(1.02142 -0.00219127 0)
(1.03296 1.87566e-05 0)
(1.05153 -0.0420025 -4.39718e-21)
(1.02591 -0.00646844 0)
(1.02242 -0.000562758 -6.31736e-24)
(0.586754 -0.0270609 0)
(1.03039 0.00483883 2.80984e-22)
(1.01746 -1.48698e-05 -2.74042e-24)
(1.02096 -0.00162694 -7.38806e-24)
(1.01785 -7.16865e-05 -2.41132e-24)
(1.0198 -0.000438365 -3.47716e-22)
(1.03026 -0.0121948 2.29502e-21)
(1.02177 -0.000449432 0)
(1.02579 -0.00625862 0)
(1.02621 0.000715775 8.64167e-22)
(1.0218 -0.00140482 4.97334e-22)
(1.02341 -0.00616284 -6.48172e-23)
(1.0203 -0.000798048 -5.64303e-23)
(1.01934 -0.000196144 -7.52556e-22)
(0.971577 -0.0498337 0)
(1.02341 0.00413605 0)
(0.956998 0.0129602 0)
(1.0171 -0.000175406 2.94921e-23)
(1.01805 -7.60501e-05 2.2503e-22)
(1.02421 -0.0128516 3.6873e-22)
(1.02163 -0.000607171 0)
(1.01679 -7.19957e-05 6.11653e-24)
(1.04571 -0.0108684 2.70352e-21)
(1.02645 -0.0198897 1.53837e-21)
(1.03842 -0.00157356 -3.24192e-21)
(1.02097 -0.000994021 0)
(1.02126 -0.00238483 0)
(1.02453 -0.00595067 0)
(1.05263 -0.0436722 1.71678e-20)
(1.02007 6.60639e-05 7.53515e-22)
(1.02182 -0.00153561 -2.72185e-22)
(1.01897 -0.000808731 -2.57601e-22)
(1.01868 -0.000713741 2.81744e-22)
(1.01671 -6.36988e-05 5.39242e-25)
(1.01784 -8.98142e-05 -2.38232e-23)
(1.03527 -0.0247069 4.86486e-22)
(0.99226 0.001761 -4.56901e-22)
(1.0302 0.00294639 0)
(1.02574 -0.0162813 5.56663e-22)
(1.03556 -0.0260073 -3.64033e-21)
(0.775315 -0.0489645 -1.54246e-20)
(1.02068 -0.00222381 0)
(1.04613 -0.0348776 -4.22217e-22)
(1.03263 -0.0217781 0)
(0.993423 0.00413819 0)
(1.03456 0.00125923 2.39144e-21)
(1.02453 -0.00341436 0)
(1.01905 -0.000829046 1.39567e-22)
(1.02417 -0.00629539 -3.26287e-22)
(0.983639 -0.000568101 -1.19051e-22)
(1.02138 -0.00213673 3.64064e-22)
(1.0168 -0.000134969 8.99267e-24)
(1.02141 0.00132703 0)
(1.02407 -0.00446617 0)
(1.08182 -0.0332833 1.31054e-20)
(1.01962 -0.000675648 0)
(1.02002 2.94758e-05 4.33605e-22)
(1.02071 -0.00209766 -1.6072e-23)
(1.01897 -0.000725778 0)
(1.02438 -0.00342045 0)
(1.02199 0.00158909 -8.76273e-22)
(1.0204 0.00316187 0)
(1.01925 -0.000435425 1.33712e-26)
(1.06817 -0.021325 0)
(1.02089 -0.000977133 -1.70595e-23)
(1.0197 -0.000417625 7.14453e-22)
(1.02178 -0.000478684 0)
(1.02197 -0.00026374 0)
(1.02131 -0.00229349 -2.59954e-24)
(1.02931 -0.00228856 -1.09425e-21)
(1.02372 0.000295688 0)
(1.01614 0.00489016 9.05089e-23)
(1.01797 -0.000270169 4.52924e-23)
(1.01662 -3.22208e-05 0)
(0.902187 0.00452325 -3.28503e-22)
(1.01997 -0.000331038 -9.60567e-25)
(0.980163 -0.0170183 -7.6287e-23)
(1.07229 -0.0177827 7.22022e-21)
(1.01083 -3.23849e-07 0)
(1.01796 -0.000466431 0)
(1.0261 -0.00698529 -1.66681e-22)
(1.02128 -0.00204371 -7.3574e-23)
(1.02287 -0.00417933 -1.46539e-22)
(1.01816 -8.14167e-05 -1.74361e-22)
(1.01915 -0.000424312 0)
(1.03449 -0.0455773 -7.49063e-21)
(1.02361 -0.00257031 0)
(1.02371 -0.00778815 0)
(1.01909 -0.000136173 -6.62e-22)
(1.02164 -0.00506907 -3.04445e-22)
(1.02124 -0.00202541 3.2548e-22)
(1.01527 -3.16883e-05 8.28315e-24)
(1.02664 -0.00657954 0)
(1.02022 -0.000798637 -4.23777e-24)
(1.0211 -0.000465036 0)
(1.01846 -0.000444581 0)
(1.0242 0.0035306 0)
(1.02168 -0.00302171 4.68067e-23)
(1.02065 -0.000547512 9.51719e-25)
(1.02286 -0.00889763 3.66141e-23)
(1.00113 0.00832945 2.48255e-22)
(1.02056 0.00327352 0)
(1.06536 -0.0305366 4.76348e-21)
(1.02336 0.000203461 -6.29281e-25)
(1.02136 -0.00122818 -1.43951e-23)
(1.01701 -0.00015596 5.29445e-23)
(1.02254 -0.00225073 0)
(1.02708 -0.00730533 0)
(1.01773 -0.000389693 0)
(1.02161 -0.00294746 0)
(1.02182 -0.000582446 0)
(1.02005 -0.000610083 5.65622e-22)
(1.02153 -0.000353807 1.5371e-24)
(1.02932 0.00213535 0)
(1.03476 -0.026057 5.31985e-21)
(1.0209 -0.00121421 0)
(1.0216 -0.000935261 -3.43806e-24)
(0.840603 0.00185055 9.00052e-23)
(1.02008 -0.00058749 -5.49729e-22)
(1.03571 0.00108776 4.93298e-21)
(1.01719 2.07065e-06 -2.77413e-24)
(1.02139 -0.00119996 3.25163e-23)
(0.931143 0.00651959 1.69423e-22)
(1.02541 0.00286974 -2.48566e-21)
(0.856043 -0.00075372 -2.67417e-22)
(1.01837 -0.000430475 -4.50316e-23)
(1.02191 -0.00162669 2.80826e-22)
(1.02722 -0.0200501 -1.63879e-21)
(0.723105 -0.0522491 1.31639e-20)
(1.0236 0.00992803 -3.77468e-23)
(1.01735 -0.000244323 0)
(1.03309 -0.0153507 3.28909e-21)
(1.02202 -0.001396 -5.57755e-22)
(1.02125 -0.00110258 3.99646e-23)
(1.01763 -0.0001592 0)
(1.02257 -0.000427747 -1.15275e-24)
(1.02897 -0.0244978 6.30717e-22)
(0.773349 -0.0312741 6.31605e-22)
(1.01827 -0.00027528 0)
(1.01782 0.000339263 0)
(1.02343 -0.00203601 -8.27534e-22)
(0.857368 -0.051961 -2.22379e-20)
(1.02146 -0.00214604 -3.68197e-22)
(0.651251 -0.0585387 0)
(1.01783 -0.000428019 0)
(0.73419 -0.0128612 0)
(1.03106 -0.0283483 -1.84273e-21)
(1.02461 -0.00614279 0)
(1.02826 -0.00650191 0)
(0.930454 -0.00354126 -9.31655e-23)
(1.05408 -0.0059361 0)
(1.04872 -0.026897 0)
(1.02398 -0.00383601 3.51773e-22)
(1.01236 3.25524e-05 0)
(1.02152 -0.0050999 3.63456e-22)
(1.02919 -0.00501593 -4.60226e-22)
(1.02125 -0.000483532 4.36324e-24)
(1.01771 0.00548494 2.0678e-22)
(1.02287 0.00778196 7.95447e-23)
(1.02295 -0.00294569 0)
(1.01844 -0.000102801 1.98714e-22)
(1.02309 -0.00235039 0)
(1.01841 0.000228228 3.81511e-23)
(1.01741 3.3658e-06 3.49433e-24)
(1.02264 -0.0029292 -4.24459e-22)
(1.05763 -0.0384321 3.02615e-20)
(1.01874 -0.000732891 -1.5946e-22)
(1.03162 -0.0441029 -2.00579e-21)
(0.294072 -0.0521984 -5.42104e-21)
(1.0233 -0.00622508 6.6425e-23)
(1.06124 -0.0249682 0)
(1.02051 0.00272057 1.48592e-22)
(1.01805 -0.000139688 -2.78276e-23)
(1.02119 -0.0103687 0)
(1.0222 -0.00919826 -5.4217e-22)
(1.02635 -0.00139206 0)
(1.05373 -0.0129319 0)
(0.97624 -0.0261508 -8.74369e-23)
(1.01842 -0.000561512 -7.89026e-23)
(1.01003 0.000123307 0)
(1.02232 -0.00123071 0)
(0.6589 -0.0491228 1.79259e-20)
(1.02237 -0.000672695 2.71658e-23)
(1.03399 0.00544495 1.58988e-21)
(1.02121 -0.000493146 -4.76267e-24)
(1.06713 -0.0239905 -9.24208e-21)
(1.01845 -0.000334004 -2.03977e-22)
(1.02132 -0.00181234 0)
(1.01965 -0.000981016 0)
(1.01875 -0.000344073 -2.74617e-23)
(1.02575 -0.00586817 -6.67211e-22)
(1.02582 0.00145243 -1.6685e-21)
(1.05289 -0.0128754 0)
(1.01821 -0.000391096 1.44476e-22)
(0.729657 -0.0127641 -8.71583e-22)
(1.02286 -0.00305282 0)