/*--------------------------------*- C++ -*----------------------------------*\
| =========                 |                                                 |
| \\      /  F ield         | OpenFOAM: The Open Source CFD Toolbox           |
|  \\    /   O peration     | Version:  v2012                                 |
|   \\  /    A nd           | Website:  www.openfoam.com                      |
|    \\/     M anipulation  |                                                 |
\*---------------------------------------------------------------------------*/
FoamFile
{
    version     2.0;
    format      ascii;
    class       volScalarField;
    location    "100";
    object      k_0;
}
// * * * * * * * * * * * * * * * * * * * * * * * * * * * * * * * * * * * * * //

dimensions      [0 2 -2 0 0 0 0];


internalField   nonuniform List<scalar> 
18232
(
0.000163797
0.00056137
0.0270591
0.000227007
0.000194145
0.0232591
0.00177486
0.000163238
0.00110929
0.000796903
0.000187768
0.00015527
0.0218911
0.000859889
0.000192579
0.0132738
0.000188218
0.000590963
0.00018122
0.000277616
0.000374807
0.00168874
0.020146
0.000158343
0.000166007
0.000159923
0.00016963
0.00264423
0.000140914
0.000475291
0.000160172
0.00028407
0.000165536
0.000155955
0.000221445
0.000163728
0.000361271
0.0248987
0.000398353
0.000144455
0.000333979
0.00014757
0.0235203
0.000158245
0.00034231
0.000159537
0.052177
0.000176588
0.000195143
0.0244273
0.000187513
0.000189471
0.000142678
0.00112502
0.000152062
0.00163665
0.00993114
0.0554439
0.000153796
0.000187752
0.000238437
0.0423103
0.00391294
0.000735754
0.000193822
0.000166236
0.000388512
0.00015931
0.00017312
0.000153631
0.000147248
0.000453049
0.00171125
0.000147956
0.000233701
0.000147588
0.000171906
0.0080819
0.00336849
0.000100085
0.000314935
0.000218722
0.000315854
0.000233991
0.000329793
0.00065016
0.000191901
0.00017355
0.0041434
0.0393752
0.000171571
0.000150284
0.000228848
0.0574399
0.000194652
0.000234056
0.000165161
0.000149893
0.000166216
0.000165523
0.0281655
0.0463097
0.000148457
0.000152947
0.000147187
0.00275392
0.000156381
0.000782885
0.000489614
0.000324627
0.000305379
0.000170847
0.000223513
0.000194592
0.000151622
0.000164291
0.000165031
0.00179154
0.000440469
0.000166937
0.000405194
0.00149883
0.000169503
0.0166349
0.000147312
0.000153479
0.000167784
0.0387796
0.000257836
0.000356756
0.000166486
0.000220196
0.00014797
0.000143739
0.000158992
0.000140023
0.000228682
0.000190388
0.000368643
0.0277421
0.000140805
0.0106114
0.0216766
0.000319904
0.000152215
0.000155747
0.000167707
0.000314761
0.000155706
0.000187284
0.000305672
0.000147548
0.0267765
0.000172098
0.0219673
0.000283313
0.0187972
0.000193793
0.000165109
0.0115572
0.000153912
0.047893
0.0195454
0.000560814
0.000323411
0.000144017
0.000210799
0.0278892
0.000145024
0.000286164
0.000155754
0.0340973
0.000256308
0.000147875
0.000150224
0.000141139
0.00655312
0.0001562
0.000156094
0.000141172
0.000150481
0.000421926
0.000168542
0.00627785
0.000151896
0.000144718
0.000167986
0.000297828
0.000222344
0.000220671
0.000158725
0.000340211
0.000161981
0.000161275
0.000155372
0.000163421
0.000208115
0.000155467
0.000168529
0.000147311
0.000215361
0.000155066
0.000152852
0.000151295
0.000156003
0.000166551
0.000216402
0.000402132
0.000161108
0.000153623
0.000140823
0.000165946
0.0001422
0.000251346
0.000152826
0.00050458
0.000171302
0.000145113
0.0146526
0.000318423
0.000172708
0.000245963
0.00125262
0.018117
0.000186358
0.000153804
0.000184436
0.000171612
0.000184175
0.000221691
0.00639027
0.000140701
0.000150921
0.000142983
0.000194642
0.000155152
0.000196767
0.000271359
0.000182168
0.000172646
0.00608774
0.000165921
0.000172359
0.000837253
0.0546966
0.000159749
0.000187497
0.00018036
0.000142978
0.000151802
0.00790236
0.000182783
0.000486212
0.000192806
0.000223152
0.00624188
0.000160162
0.000508968
0.000162482
0.000144278
0.0144776
0.000142224
0.0385741
0.000159272
0.0001573
0.000265238
0.000269806
0.000174344
0.000164173
0.0369247
0.000175086
0.000193013
0.00030183
0.000359577
0.020875
0.000148174
0.000430647
0.000157468
0.000156819
0.0117137
0.00578416
0.000193655
0.000381375
0.000153406
0.000260088
0.000154839
0.000154969
0.000151165
0.0430873
0.000372532
0.0623797
0.000251529
0.000139907
0.000116563
0.000173707
0.000165086
0.000159084
0.000141353
0.00020405
0.00195667
0.000157322
0.000308444
0.000451173
0.000143322
0.000153871
0.000144041
0.000156666
0.000179366
0.00016565
0.00015532
0.000165792
0.000247576
0.00354638
0.00015123
0.000189986
0.0371409
0.000154252
0.000188787
0.00022198
0.00042837
0.000155213
0.000295914
0.000247029
0.00014399
0.000248699
0.0434426
0.000154926
0.000155642
0.000166327
0.000143891
0.000187519
0.000227986
0.0460751
0.000156209
0.000183947
0.000246781
0.000148004
0.000157191
0.000220073
0.00208388
0.000255263
0.000368534
0.000169942
0.000249387
0.000215861
0.000179149
0.0108324
0.000153164
0.000156554
0.000151478
0.000149961
0.000186969
0.000290864
0.000181742
0.00015993
0.000152762
0.0168667
0.000145604
0.000157259
0.000154481
0.000166994
3.65665e-05
0.000183606
0.000163185
0.000155198
0.000150121
0.000163922
0.000154929
0.000329437
0.00015574
0.000157781
0.000171384
0.00800907
0.000195885
0.000193968
0.000145661
0.0632311
0.00029819
0.000165453
0.0228428
0.000666635
0.000149526
0.000156509
0.000190151
0.000229239
0.000238195
0.000170217
0.000184704
0.000166014
0.000166049
0.00129232
0.00135513
0.000145399
0.000166263
0.000172154
0.000161396
0.000468773
0.000153869
0.000298075
0.000167032
0.000268658
0.000140633
0.000166039
0.000166646
0.000590102
0.000184416
0.000168091
0.000247654
0.0002158
0.00224432
0.016659
0.000166277
0.00509967
0.00015424
0.000157459
0.000192567
0.000161184
0.000583437
0.000139819
0.000173222
0.000406074
0.000311649
0.000299876
0.00010455
0.000170036
0.000211403
0.000216961
0.000155277
0.000153828
0.0631634
0.00122512
0.000160088
0.000154657
0.000146442
0.000140695
0.000158229
0.00025004
0.000180887
0.000140918
0.000185336
0.000166824
0.000154612
0.00152069
0.000151755
0.000158217
0.000156063
0.000200335
0.00180612
0.000142495
0.000156833
0.0174497
0.000184956
0.000214984
0.000145615
0.000147985
0.000147953
0.000155594
0.00331666
0.000189194
0.000145622
0.000155367
0.000162617
0.000828081
0.000154086
0.000167636
0.00169071
0.000144276
0.0142052
0.000365482
0.00033993
0.00845364
0.00016699
0.0427348
0.0171753
0.000381833
0.000153116
0.00015254
0.000148366
0.00461387
0.000154512
0.000962805
0.000145363
0.000294882
0.000139294
0.000151526
0.000149276
0.000241254
0.00918441
0.000355957
0.000165041
0.000170393
0.00538276
0.0444204
0.000139704
0.00132318
0.000157802
0.013922
0.000152274
0.0010809
0.000139434
0.00443116
0.000149408
0.000161728
0.000155351
0.000290204
0.000150863
0.000190059
0.000163618
0.0456826
0.000165752
0.000181442
0.001084
0.00021592
0.000196463
0.0011618
0.000165458
0.000169565
0.000145328
0.000148167
0.000141843
0.000139172
0.000143089
0.000199335
0.000152274
0.000149366
0.000150332
0.00019948
0.000546019
0.000155806
0.000199662
0.000149286
0.0703169
0.0012958
0.000146474
0.000261858
0.000164226
0.0197628
0.000149581
0.0151653
0.000144615
0.000158448
0.0124168
0.000236778
0.000170195
0.000575135
0.000258981
0.000187832
0.000139849
0.0660315
0.000142503
0.000345852
0.00016221
0.000195147
0.000176274
0.000266129
0.000198302
0.000160124
0.000150919
0.000149609
0.000173558
0.000169503
0.000151351
0.000177982
0.00147522
0.0388366
0.00100428
0.000201447
0.000131374
0.000423132
0.000343643
0.000168741
0.000217549
0.000156563
0.00130616
0.00016539
0.000199504
0.000149102
0.000169548
0.00200004
0.00472486
0.00018523
0.000151045
0.000403021
0.00071876
0.00289421
0.000175664
0.000272935
0.000152327
0.00016084
0.000374635
0.000284758
0.000140269
0.0433365
0.000166378
0.000146684
0.0414737
0.000166712
0.000194267
0.000208295
0.000138335
0.00018677
0.0370929
0.0223248
0.000155617
0.00030554
0.000142738
0.000142347
0.000159739
0.000920236
0.000320343
0.0014712
0.000152088
0.000163662
0.00828451
0.000143196
0.00295413
0.000747943
0.000246565
0.00016542
0.000236148
0.000158879
0.00014205
0.000934607
0.000311272
0.000208619
0.000307177
0.000676976
0.00018777
0.000207627
0.000170256
0.000348688
0.000155832
0.00016575
0.000325918
0.00597666
0.000180063
0.00032964
0.000142501
0.000196333
0.000193527
0.000492915
0.000365786
0.000152154
0.000155249
0.00352163
0.000178625
0.00153382
0.000167956
0.000191512
0.00015057
0.000182005
0.000152723
0.000196753
0.000353853
0.00014814
0.000161414
0.000160475
0.00036568
0.000152294
0.000217521
0.000204163
0.000188886
0.000158718
0.000162732
0.000182905
0.0003048
0.000206731
0.000156419
0.000361676
0.000208602
0.0624909
0.000166409
0.000163244
0.000267342
0.000150115
0.000144699
0.000171717
0.000183037
0.00016465
0.000155777
0.00028699
0.000143949
0.000318587
0.000161123
0.000199678
0.000160749
0.0770364
0.000190898
0.000154061
0.000264579
0.000225453
0.00014315
0.000159151
0.0158528
0.000195567
0.000526184
0.000170358
0.000147522
0.00114403
0.000170615
0.00502069
0.000170702
0.000157552
0.000314131
0.000302847
0.000436704
0.000194057
0.000180877
0.000147729
0.000163981
0.000276719
0.000190276
0.000155787
0.000145887
0.000428622
0.000159862
0.000193653
0.000185595
0.000148654
0.000293015
0.000184044
0.0411253
0.000606192
0.000201288
0.000156598
0.000167805
0.000154148
0.000164744
0.000384554
0.000141256
0.000165377
0.000486568
0.00015592
0.000147455
0.00140476
0.00016039
0.000177017
0.000170909
0.000560698
0.000154828
0.000239117
0.00120177
0.000187771
0.000403006
0.0134532
0.00847411
0.000161501
0.000444338
0.00020709
0.0116851
0.000166999
0.00020989
0.000283122
0.000148253
0.0135608
0.000345209
0.000147322
0.000260884
0.000229283
0.000194031
0.000171529
0.000161166
0.000261469
0.0151189
0.000155886
0.000175301
0.000243196
0.000182713
0.000147285
0.000272645
0.000211753
0.000194763
0.0302329
0.000149993
0.000178474
0.000143674
0.0001969
0.000200343
0.000394391
0.000153471
0.0497359
0.000171345
0.000317349
0.00017022
0.000154837
0.000757486
0.000164049
0.000781002
0.000142989
0.00016074
0.00027665
0.000218753
0.000164001
0.000170217
0.000169963
0.000150645
0.000153404
0.000273696
0.000188423
0.0237016
0.000220267
0.000240415
0.000171089
0.000144602
0.000170672
0.000230012
0.000200588
0.000170513
0.000143456
0.000139398
0.00369319
0.000167524
0.0670546
0.0002713
0.000164325
0.000182843
0.000156785
0.0107509
0.000166593
0.00017066
0.000155877
0.00016026
0.000188616
0.000264726
0.00015337
0.00197562
0.000383532
0.000176721
0.000178508
0.000186852
0.000155694
0.000147178
0.000142297
0.00017908
0.000159573
0.000177543
0.000229698
0.0487811
0.00022733
0.000150065
0.000721972
0.000167107
0.000160896
0.000166433
0.000158258
0.000261061
0.00202084
0.00284415
0.000468959
0.000150774
0.000160417
0.000164902
0.00141478
0.000173142
0.000155554
0.00177441
0.000345482
0.0153378
0.000167383
0.000156451
0.000247094
0.000186454
0.000171108
0.000164482
0.0170584
0.000169686
0.000158026
0.0053074
0.000144551
0.00030302
0.00016018
0.001163
0.000224155
0.000160139
0.000153325
0.000159432
0.000159073
0.000162518
0.0535669
0.000277831
0.000205814
0.00015611
0.000141529
0.00104187
0.00222076
0.000160797
0.000169459
0.000309577
0.000233878
0.000318038
0.00016685
0.000225652
0.0001663
0.000213873
0.000167131
0.000172528
0.000161559
0.000146579
0.000280719
0.000167026
0.000332015
0.000161303
0.000161554
0.0433972
0.000184295
0.00014366
0.000150674
0.000143961
0.000148236
0.000149678
0.000177848
0.000168995
0.000235949
0.000513433
0.000837799
0.000146609
0.0437108
0.000264649
0.00076085
0.00015606
0.00538741
0.000835991
0.000165203
0.00016219
0.000183689
0.000284268
0.000215779
0.000180216
0.000355283
0.000120458
0.000149575
0.000190621
0.000161995
0.00016696
0.000172348
0.000167105
0.00114857
0.00109482
0.000209407
0.000156734
0.000145571
0.000186346
0.00303508
0.000144154
0.000148916
0.000822688
0.000146721
0.000188351
0.000181043
0.000158363
0.0100383
0.000158099
0.000209531
0.050669
0.000165767
0.000167184
0.000175045
0.000278425
0.000630097
0.00135775
0.00239424
0.000178521
0.00013944
0.00014825
0.00123888
0.000169752
0.000150497
0.000149963
0.000197513
0.000146983
0.00060073
0.0116492
0.000377809
0.000164504
0.000407671
0.000302011
0.000747908
0.00015816
0.000217445
0.000146834
0.0141552
0.000153772
0.0001578
0.0276316
0.000187476
0.000149179
0.0003571
0.000151549
0.000299666
0.000162067
0.000165948
0.000160285
0.000155469
0.000166456
0.000602157
0.000143019
0.000222728
0.000169071
0.000173904
0.000142525
0.00014811
0.000160923
0.000387238
0.000156333
0.0245009
0.000167977
0.0261164
0.000169982
0.000175859
0.00246051
0.000234101
0.000152685
0.000159901
0.000171943
0.000176775
0.000148703
0.000225187
0.00019123
0.000250407
0.0108151
0.000153337
0.000156209
0.000158365
0.000168314
0.000160811
0.000157444
0.00027313
0.000144722
0.000166267
0.000157047
0.00119071
0.0391778
0.000589155
0.000148764
0.000159814
0.000152446
0.0002453
0.000154775
0.000148289
0.000982002
0.000302568
0.00014351
0.000198373
0.00108656
0.000158214
0.00014927
0.0227612
0.000161489
0.000150274
0.00015424
0.00111505
0.000141437
0.000661788
0.00016333
0.000168114
0.000172735
0.000141755
0.0430175
0.000158444
0.00014351
0.000331728
0.000151414
0.000158581
0.000166068
0.000162168
0.000153714
0.000161253
0.000297322
0.000224205
0.00014524
0.0117773
0.000141216
0.000288785
0.0554456
0.000176061
0.0159858
0.000144313
0.0039362
0.000143844
0.000571447
0.000154772
0.0494486
0.00395889
0.0144815
0.000165994
0.0633369
0.000373163
0.000394998
0.000164243
0.000160617
0.000211122
0.00258101
0.00286058
0.000162174
0.000223822
0.00023406
0.000160302
0.0140865
0.000161914
0.000322891
0.018454
0.000154531
0.000160529
0.000161012
0.000147781
0.000139594
0.000594804
0.000160393
0.000445305
0.000145693
0.045587
0.00412425
0.000144817
0.000153984
0.000191196
0.000157753
0.000441682
0.000240435
0.000888426
0.000300058
0.000298419
0.000151108
0.000157565
0.000142036
0.000148345
0.000139247
0.0634009
0.000151473
0.000148661
0.000143803
0.0159359
0.0001642
0.000163514
0.000373885
0.000169557
0.000141495
0.000255091
0.000157363
0.000147902
0.000147863
0.000230825
0.000162163
0.069542
0.000158614
0.000144695
0.000278477
0.000141539
0.000157163
0.000350107
0.000305858
0.000473711
0.000882999
0.000163319
0.000152444
0.000156784
0.000159021
0.000174225
0.000823579
0.0336879
0.000147169
0.00168595
0.0130422
0.000156567
0.00015783
0.000160863
0.000396304
0.00281808
0.000153653
0.00015601
0.000155431
0.000249839
0.000156428
0.000309221
0.000159091
0.000234161
0.000153598
0.000148399
0.000523524
0.000217603
0.000155956
0.000484027
0.000149745
0.00200224
0.000159581
0.000160525
0.0176944
0.000244717
0.00017427
0.000477808
0.000159181
0.000183243
0.000154173
0.000176919
0.00014949
0.000401261
0.000169328
0.000169078
0.000339885
0.00186939
0.000193385
0.000148608
0.000188972
0.000156789
0.000166927
0.013593
0.000175344
0.00014962
0.000150486
0.00133976
0.000147408
0.000277056
0.000156652
0.000206251
0.000164889
0.00014661
0.000165079
0.00027337
0.00129998
0.00130813
0.000292338
0.000337361
0.00020833
0.0292867
0.000148606
0.000340898
0.000146681
0.000157446
0.00040463
0.0001655
0.000111193
0.000292752
0.0408167
0.000166409
0.000147226
0.00016667
0.00015851
0.0503114
0.0001544
0.0140569
0.000151965
0.00117527
0.000177953
0.000168674
0.0138613
0.000156809
0.00114957
0.00015891
0.000171627
0.000300159
0.000157765
0.00112728
0.000158305
0.000202356
0.000158515
0.000149113
0.000160098
0.0501762
0.000336583
0.000148343
0.000165908
0.000467061
0.00112512
0.000155917
0.000273714
0.000149254
0.000150066
0.000154474
0.000155594
0.000157054
0.000149294
0.000186937
0.000170479
0.000280511
0.000163738
0.000158825
0.000152525
0.000163196
0.013313
0.0599711
0.000289398
0.000160683
0.000389366
0.00017446
0.00102301
0.000152805
0.000215269
0.069356
0.000143947
0.00013845
0.000152516
0.000338777
0.000546098
0.000154168
0.000144653
0.000193824
0.000163344
0.000192191
0.0491241
0.000153804
0.000856323
0.00017684
0.0620243
0.0463867
0.000160174
0.000174525
0.000182007
0.000149626
0.00100142
0.0309413
0.000184275
0.000155655
0.000644468
0.000185819
0.00020264
0.000236503
0.000152391
0.000176747
0.000166279
0.000199445
0.00176411
0.000159872
0.00015905
0.000219798
0.00438431
0.000151232
0.000946721
0.000154136
0.000230064
0.000149244
0.000155447
0.000168421
0.000165099
0.000248004
0.000169726
0.000159642
0.00153486
0.000162774
0.000191841
0.000176823
0.000170488
0.000152256
0.00583853
0.000143227
0.000144533
0.0299413
0.00014449
0.0070607
0.000155393
0.000260287
0.000162898
0.000141828
0.0315435
0.000151856
0.000232515
0.0141989
0.000143481
0.0687029
0.00414472
0.000163882
0.0003348
0.000287608
0.000354046
0.000165775
0.00333728
0.000163668
0.000162124
0.000420351
0.00102571
0.000152361
0.000318273
0.0309164
0.000146915
0.000156637
0.00024194
0.000228457
0.000155689
0.000290301
0.0243603
0.000391278
0.000164064
0.00017058
0.000165819
0.000160637
0.000141617
0.000471151
0.0180987
0.000164777
0.0440752
0.000154346
0.000146176
0.000342394
0.001384
0.000144127
0.000153784
0.000371336
0.000371228
0.000163071
0.000168584
0.000149352
0.00284943
0.0078289
0.000172283
0.000158624
0.00021517
0.000186268
0.00333373
0.000165499
0.000153368
0.000159574
0.000147668
0.000152114
0.000147949
0.000160045
0.000456664
0.0510502
0.000141687
0.052165
0.000201435
0.00583171
0.000185374
0.0431343
0.0002184
0.000160533
0.000178438
0.000163411
0.000158734
0.000179683
0.000158401
0.000166081
0.000362878
0.000351452
0.0144964
0.000195092
0.00559252
0.000159578
0.000186307
0.0646703
0.00025116
0.000350135
0.000167985
0.000153222
0.0142712
0.000152664
0.000201065
0.000217374
0.000167841
0.00105409
0.079186
0.00113735
0.00016921
0.00327999
0.000699637
0.000383312
0.000160212
0.00133936
0.00126899
0.00115014
0.0140939
0.000147098
0.0294578
0.00016369
0.000188316
0.00365457
0.000338712
0.00143751
0.000409092
0.000209925
0.000426213
5.42139e-05
0.0463016
0.0001502
0.000160626
0.000149532
0.00124077
0.000319068
0.00063554
0.00036364
0.0369031
0.0302707
0.000491574
0.000215586
0.0206652
0.000217437
0.000159105
0.000201076
0.0010929
0.000219933
0.000159742
0.000157669
0.00577203
0.000354164
0.000181762
0.000215911
0.000543342
0.0130358
0.000230558
0.000258513
0.00578901
0.000155053
0.000161426
0.000285841
0.000296185
0.00049993
0.000323815
0.00015562
0.000726397
0.000173638
0.000173044
0.0481862
0.000142977
0.000150113
0.000277596
0.00035194
0.000155461
0.00042309
0.00188854
0.000334789
0.00017651
0.000877176
0.0371818
0.000212795
0.0138268
0.000155728
0.000190973
0.000414145
0.000181859
0.000299376
0.000186814
0.000214101
0.000187769
0.000335614
0.000358684
0.000221653
0.0289684
0.000152484
0.000176758
0.0157624
0.00104985
0.0485013
0.000179488
0.000990507
0.000164451
0.00440142
0.000360506
0.000151533
0.0025682
0.00112591
0.000167542
0.000161448
0.000230674
0.064659
0.000193042
0.000167119
0.000513687
0.000141978
0.00239619
0.00182297
0.00017539
0.000149861
0.00439226
0.000634508
0.0750513
0.00034865
0.000236111
0.000171219
0.000151825
0.000166858
0.000152755
0.00134408
0.000290834
0.000150448
0.0001404
0.000165813
0.000170381
0.000222945
0.000332062
0.000305747
0.000146931
0.000184598
0.000143679
0.000239362
0.000147401
0.000152042
0.000276782
0.000361248
0.000160922
0.000162008
0.0645246
0.00512451
0.000210351
0.000144926
0.00126226
0.0228875
0.000175005
0.000799296
0.00018543
0.000156693
0.0459908
0.000175202
0.00031897
0.000142952
0.000203631
0.000172946
0.000270048
0.000156679
0.000153221
0.000165606
0.000171976
0.000202359
0.000269415
0.000152905
0.000159453
0.000155437
0.000323556
0.000146492
0.0674922
0.000140869
0.000227136
0.00020115
0.000176541
0.000171389
0.000176805
0.000143292
0.000162565
0.0147229
0.000272179
0.0524539
6.6439e-05
0.000146837
0.011714
0.000172026
0.0469864
0.000206938
0.00016559
0.0619912
0.000143793
0.0173996
0.000174855
0.000145893
0.000167069
0.00016238
0.000238444
0.000160344
0.00438411
0.000159858
0.000170358
0.00123532
0.000153753
0.0140777
0.000153332
0.000215851
0.000145914
0.000166183
0.0010879
0.0287431
0.00020316
0.000164119
0.000142749
0.000155927
0.000144439
0.000182458
0.0521247
0.000308713
0.000176147
0.000154259
0.000181192
0.000253936
0.000228895
0.00559014
0.000160753
0.000232454
0.000300034
0.0168987
0.000317785
0.000170535
0.000237473
0.0440057
0.000177495
0.000152192
0.000170756
0.000380391
0.000159067
0.000162941
0.000155861
0.000147156
0.000155443
0.000204425
0.000609848
0.000148648
0.00014126
0.00203596
0.000157879
0.00846936
0.000431508
0.000159817
0.000218761
0.0142147
0.000159293
0.0139612
0.000155252
0.000155989
0.000164425
0.000220474
0.000281412
0.000190628
0.000178414
0.0142545
0.000239216
0.0168892
0.0813528
0.000190195
0.000174761
0.000173498
0.00016836
0.000160672
0.000283491
0.00688206
0.000147481
0.000161197
0.0720191
0.000142776
0.000355334
0.0185485
0.000156333
0.000157451
0.051923
0.000310437
0.0572123
0.0151249
0.000159045
0.000156817
0.000477144
0.00851839
0.000341885
0.000331947
0.000301195
0.000234622
0.0476333
0.000292841
0.000155636
0.00147785
0.000243752
0.00803216
0.000348304
0.00017434
0.0139403
0.000172697
0.00180221
0.000157096
0.000354127
0.00120295
0.00019204
0.00020596
0.000159086
0.000268725
0.000144535
0.0152572
0.0169979
0.00634005
0.000415606
0.000312172
0.000162712
0.000144482
0.00029916
0.000145577
0.000158895
0.000191777
0.000920038
0.000821469
0.000145516
0.000227796
0.000158982
0.00015126
0.00160674
0.000731952
0.000143175
0.000154912
0.000292747
0.000172047
0.000159256
0.0166281
0.000157117
0.00014103
0.000151994
0.000214857
0.0180375
0.000263868
0.00452177
0.0700145
0.000295817
0.00418284
0.00468315
0.0262295
0.000157182
0.000356218
0.000138963
0.000491129
0.000191038
0.0144796
0.000160075
0.000153626
0.000173339
0.0139167
0.00331375
0.000171622
0.000233567
0.000143723
0.000151151
0.0304106
8.64766e-05
0.00014983
0.000152679
0.00017792
0.000149052
0.00184454
0.000443504
0.000170164
0.000165282
0.000227845
0.000220724
0.000144827
0.000222258
0.000241422
0.000154078
0.000157454
0.000303722
0.0532178
0.00020679
0.00508908
0.000157787
0.00015082
0.000165055
0.000190416
0.00015787
0.0020631
0.000160175
0.000460646
0.000144901
0.000175053
0.000365705
0.000161288
0.000180613
0.0121945
0.000239277
0.000477685
0.000160349
0.0209264
0.000177677
0.000227414
0.00698932
0.00175407
0.000156004
0.000142246
0.000180835
0.000159872
0.000344239
0.000319073
0.000159195
0.000149877
0.00017854
0.0105114
0.000312223
0.000172799
0.000162471
0.01604
0.000160562
0.000346751
0.00135642
0.0604663
0.000148381
0.000166894
0.000158297
0.000233561
0.0170846
0.000141084
0.00016887
0.000174564
0.000428959
0.000225656
0.000282741
0.00698004
0.000189146
0.000178659
0.000163128
0.000160994
0.000204357
0.000143154
0.00183057
0.000378504
0.000233072
0.000636507
0.000157092
0.00549239
0.000144873
0.00205076
0.000153439
0.0386243
0.000170308
0.0420131
0.00024739
0.000163273
0.000164045
0.000188795
0.000335623
0.00245633
0.00404168
0.000142641
0.000159752
0.000160226
0.0041215
0.000242313
0.00025331
0.000151448
0.00172029
0.0001479
0.000252178
0.000171576
0.0196453
0.00015563
0.0500289
0.000173998
0.000436422
0.000156595
0.000190492
0.000206041
0.000176771
0.000162516
0.000155612
0.000142404
0.000153932
0.000172743
0.000160234
0.00167175
0.000145044
0.000194491
0.06721
0.000162537
0.000143254
0.000165568
0.000146645
0.0247585
0.000148696
0.000155268
0.0569765
0.000169363
0.000213274
0.000152688
0.000359337
0.000194272
0.000166398
0.00594677
0.00028285
0.0270875
0.000339901
0.000153286
0.000152402
0.000157453
0.000199615
0.000160895
0.000149916
0.0191669
0.00311225
0.000233313
0.000145605
0.000202696
0.000146236
0.00039675
0.000176739
0.000182078
0.000454291
0.00020123
0.000207908
0.000174167
0.000144545
0.00022792
0.00139916
0.000148525
0.049994
0.000147475
0.000214724
0.0365422
0.000166428
0.0389645
0.000163609
0.000152121
0.019581
0.000230065
0.000153757
0.000324911
0.0329279
0.00335362
0.000141254
0.00139198
0.000157165
0.000574577
0.0337624
0.000141499
0.000200435
0.000187766
0.000166265
0.000164322
0.000267291
0.000145719
0.000148592
0.00207216
0.0292684
0.000153879
0.0002092
0.000141846
0.000425956
0.000196376
0.000152365
0.0235619
0.000322394
0.000529416
0.000159088
0.000156371
0.000162633
0.000160583
0.000176855
0.000398452
1.1854e-05
0.000234826
0.0319031
0.000313018
0.000146969
0.000151758
0.000165309
0.0025682
0.000159361
0.0035125
0.0316697
0.000344348
0.000328277
0.000186928
0.000234436
0.000241235
0.000246729
0.0194873
0.000178948
0.0144118
0.000146221
0.00559678
0.000140928
0.000212005
0.000152408
0.000221452
0.00022471
0.000159118
0.000140902
0.00020781
0.000203702
0.000158802
0.000178998
0.00014792
0.000320025
0.000152164
0.000158392
0.000165924
0.000198353
0.000160851
0.00015155
0.000231912
7.30024e-05
0.0412402
0.000410099
0.000175402
0.000139978
0.000145704
0.000207217
0.00015289
0.000179007
0.00139265
0.0501726
0.000185681
0.000152081
0.0139194
0.000816755
0.000373503
0.000156815
0.000337827
0.0578384
0.000808965
0.000130251
0.00016223
0.000150071
0.000160379
0.000261497
0.000356561
0.000160118
0.0123629
0.0001882
0.000162447
0.000159298
0.000145283
0.000185209
0.000183215
0.000255576
0.000303638
0.000170963
0.000230968
0.000570849
0.01482
0.00016971
0.000149167
0.000173035
0.000155669
0.000168317
0.000146694
0.000158846
0.000158032
0.000155015
0.000159582
0.00017513
0.000472551
0.000157787
0.00025469
0.00598224
0.00107138
0.000223894
0.000159229
0.000167491
0.000153088
0.0285596
0.00017729
0.00034551
0.000150742
0.000161609
0.000160225
0.000159239
0.000172835
0.000372677
0.0185129
0.000172004
0.000363401
0.000146509
0.00018287
0.00961366
0.000294488
0.0201381
0.009002
0.000544945
0.000148782
0.000146352
0.000153629
0.00507725
0.00759514
0.000214583
0.0174904
0.000140725
0.00508335
0.0106143
0.000138318
0.000173168
0.00685001
0.000164258
0.00511193
0.000190554
0.0545843
0.000147094
0.000764417
0.000142152
0.000154555
0.000151779
0.000346677
0.0153458
0.0290582
0.000194987
0.000152909
0.00016574
0.000157373
0.000222701
0.0543256
0.000145461
0.00117541
0.000159107
0.000203117
0.013134
0.000157109
0.00014476
0.000156067
0.000172107
0.000148903
0.000167535
0.000164867
0.0527236
0.00041072
0.0472539
0.000146015
0.000330725
0.000145803
0.000175204
0.000147387
0.000152786
0.000262725
0.000150474
0.00234525
0.000171783
0.000247882
0.000155292
0.000145474
0.000326583
0.00015973
0.000192864
0.046474
0.000152074
0.000144096
0.000157169
0.0429449
0.000279138
0.000147065
0.000123386
0.000147547
0.00386247
0.0448725
0.000286718
0.0471238
0.0292225
0.000167162
0.0124611
0.000151234
6.35018e-05
0.000155122
0.000176055
0.000170156
0.000381844
0.000163071
0.000225659
0.00017144
0.000145817
0.000147356
0.000147489
0.000204104
0.00629916
0.000144474
0.000159987
0.000245846
0.000158935
0.000374188
0.0162071
0.000146632
0.000260535
0.000212908
0.00035884
0.000190969
0.0088401
0.0180531
0.0533881
0.000161878
0.000153209
0.000144186
0.00132982
0.000200108
0.000162469
0.000152001
0.000141051
0.00015028
0.000161558
0.00281562
0.000301434
0.0739401
0.000154835
0.000155436
0.000162055
0.0685499
0.000160134
0.000168261
0.000161508
0.00014051
0.0151664
0.000186109
0.000199479
0.00653756
0.000278782
0.000952609
0.000169505
0.000284871
0.000178833
0.000146982
0.000160283
0.0187226
0.000798423
0.000208896
0.00056144
0.00020318
0.00017063
0.000156358
0.00626796
0.000367131
0.00014108
0.000386029
0.000295321
0.000157615
0.000216161
0.00016024
0.000238792
0.000172581
0.00286443
0.000323248
0.000356874
0.000140332
0.000154103
0.00016184
0.000162127
0.000185291
0.00024236
0.000225648
0.000203986
0.000198742
0.000160998
0.000407807
0.000168773
0.000190617
0.000208628
0.000200845
0.000149546
0.000149763
0.000196404
0.00748134
0.00112337
0.000157575
0.00811699
0.000160321
0.0158083
0.000172473
0.000145494
0.000155161
0.000166976
0.0120932
0.000168575
0.000184171
0.000143805
0.000153559
0.000152828
0.0585625
0.000224196
0.000147145
0.000283789
0.000593827
0.000154368
0.00032439
0.000147954
0.000172383
0.0585749
0.000218549
0.000155298
0.000320217
0.000315933
0.000163212
0.000186971
0.000154667
0.0445365
0.00882004
0.000180141
0.000217641
0.00025705
0.000162461
0.000153124
0.000225621
0.000184588
0.000316389
0.000227104
0.00277078
0.00016146
0.000165387
0.000158004
0.00018095
0.000185933
0.000206698
0.000142367
0.000233035
0.000261368
0.037588
0.000147534
0.000158714
0.000168759
0.000166179
0.000159328
0.000222669
0.000162436
0.00017547
0.000147167
0.000146705
0.000160927
0.00425151
0.000243066
0.000167521
0.000198872
0.000169329
0.00015314
0.000229692
0.000274489
0.00015844
0.000167942
0.0153022
0.000157012
0.000147
0.0387719
0.00731329
0.00338494
0.0180352
0.000150746
0.000227912
0.00482669
0.000433619
0.000138637
0.000877643
0.000172677
0.000213752
0.000147795
0.000179879
0.00402798
0.00149406
0.000149154
0.000340048
0.000168788
0.00941718
0.000143506
0.00103992
0.000172276
0.000147858
0.000155337
0.000253527
0.0341316
0.0244249
0.000260898
0.000175724
0.000172207
0.000161615
0.000185568
0.000237195
0.0433694
0.000440462
0.000146592
0.000274666
0.000184481
0.000155785
0.00014456
0.000781961
0.000161793
0.00148308
0.000148162
0.000147433
0.000263318
0.000239737
0.000293289
0.00018718
0.000785004
0.000212405
0.00016179
0.000150328
0.000227529
0.000175096
0.000151939
0.0110492
0.000147834
0.000147982
0.000154059
0.00246085
0.000160044
0.000146976
0.0173961
0.000305743
0.000202404
0.000141466
0.0422374
0.000145922
0.000145546
0.0149931
0.000144757
0.000199236
0.000154719
0.000173843
0.000145554
0.000152168
0.000221732
0.000210503
0.000142699
0.000144803
0.000150464
0.000253493
0.000408722
0.000144944
0.0262724
0.00539411
0.000148474
0.000156549
0.00015527
0.000145108
0.000150821
0.000164377
0.000195418
0.000196682
0.00447577
0.00533829
0.000839861
0.000147294
0.000147594
0.000159245
0.000335161
0.000232777
0.000193427
0.000159003
0.000146269
0.000172527
0.00042052
0.000275995
0.000159816
0.0595983
0.000249314
0.000173949
0.000162083
0.0395391
0.000170371
0.000189504