/*--------------------------------*- C++ -*----------------------------------*\
| =========                 |                                                 |
| \\      /  F ield         | OpenFOAM: The Open Source CFD Toolbox           |
|  \\    /   O peration     | Version:  v2012                                 |
|   \\  /    A nd           | Website:  www.openfoam.com                      |
|    \\/     M anipulation  |                                                 |
\*---------------------------------------------------------------------------*/
FoamFile
{
    version     2.0;
    format      ascii;
    class       volVectorField;
    location    "100";
    object      U_0;
}
// * * * * * * * * * * * * * * * * * * * * * * * * * * * * * * * * * * * * * //

dimensions      [0 1 -1 0 0 0 0];


internalField   nonuniform List<vector> 
18232
(
(1.02062 -0.0275975 0)
(0.91107 0.00745115 -5.90918e-21)
(0.0476157 0.925727 1.61275e-19)
(1.04697 0.171665 0)
(0.9862 -0.0235019 1.65074e-21)
(1.29487 0.499113 -2.36319e-19)
(1.01974 0.245376 -3.83144e-21)
(1.00419 0.000755104 -3.9434e-23)
(1.07718 0.0636667 0)
(1.00232 0.229291 0)
(0.987072 -0.0184969 -6.63246e-22)
(1.03697 0.0225504 -6.13937e-21)
(0.744115 -0.483952 4.18559e-20)
(0.972764 0.255021 7.42864e-21)
(1.05102 0.0667832 4.92782e-22)
(0.701118 -0.0252968 9.9097e-21)
(1.08288 0.100984 -3.54657e-20)
(0.676689 0.215427 7.04087e-21)
(1.00921 0.000152653 2.03429e-22)
(1.06653 0.177971 6.84931e-22)
(0.673115 0.657683 1.07048e-20)
(0.996937 0.273612 -3.27537e-21)
(0.772553 -0.484227 -2.59975e-20)
(1.02665 0.0222481 -4.31964e-21)
(1.02258 -0.0280002 -7.75831e-23)
(1.00672 0.00838477 6.33706e-24)
(1.02587 0.0376385 1.32642e-21)
(0.818704 0.000655145 -2.19926e-21)
(1.02441 0.00430126 4.51681e-22)
(0.918619 0.0209872 0)
(1.00608 0.00709903 -5.62951e-24)
(1.05366 0.173936 0)
(0.978006 0.0110016 0)
(1.06773 0.0184358 2.00219e-20)
(1.05581 0.155708 4.08435e-20)
(1.00519 0.000869915 -7.99414e-23)
(0.741359 0.61844 4.86461e-20)
(0.97366 0.55112 1.41525e-20)
(0.913484 0.11854 -4.18477e-21)
(1.02026 0.0059015 0)
(0.951224 0.014145 -2.16885e-21)
(1.02727 0.00973635 -3.73191e-21)
(0.0309473 0.964815 -2.18664e-19)
(1.02609 0.022026 -3.06216e-21)
(0.946185 0.00745239 0)
(1.05968 0.0344358 1.94121e-20)
(0.902147 -0.213212 -1.86741e-20)
(0.978002 0.01008 0)
(1.04764 0.0694593 -9.80819e-22)
(1.29757 0.492471 7.60674e-20)
(1.07969 0.101084 2.83392e-20)
(1.04988 0.0652052 -7.61183e-22)
(1.01307 -0.00721023 5.3501e-22)
(1.05105 -0.0759806 1.94133e-21)
(1.01027 -0.0141444 8.16217e-23)
(1.07602 0.073141 0)
(0.736474 -0.044267 -8.37424e-21)
(0.918186 -0.166636 -1.66427e-20)
(1.04446 0.0196146 1.70903e-20)
(1.04956 0.0634301 -1.89278e-21)
(0.990323 0.070103 0)
(1.13639 0.271014 2.05528e-20)
(0.658151 -0.0150973 -3.1413e-21)
(1.02449 0.198827 -1.06078e-21)
(1.00261 0.0283884 -2.21237e-22)
(1.00087 0.0063534 1.08204e-21)
(0.910646 0.114041 -1.89266e-21)
(1.05956 0.0330875 -1.10614e-20)
(1.01599 0.0241254 0)
(1.04363 0.0190174 -1.19713e-20)
(1.03758 0.00283325 0)
(0.933701 0.0235451 0)
(0.874068 0.0493873 -6.5118e-22)
(1.02781 0.0102809 0)
(0.998608 0.0647608 -2.77652e-21)
(1.02686 0.00986279 0)
(1.02178 0.0350377 0)
(0.796557 0.00948758 0)
(0.658256 -0.0388554 0)
(0.975628 0.0111107 -8.57978e-22)
(0.902517 0.178848 1.79232e-21)
(1.07393 0.171439 1.4963e-20)
(1.02676 0.370823 -8.03297e-20)
(1.01923 0.0520503 0)
(0.941946 0.0253434 7.96916e-23)
(0.813005 0.500531 -4.24991e-21)
(0.985927 -0.0196336 -1.93297e-21)
(1.00702 0.00012518 0)
(0.906182 -0.0981176 2.09895e-22)
(0.259727 0.805398 -1.67829e-19)
(1.09707 0.0631113 0)
(1.02107 0.0108521 0)
(0.999062 0.0774813 -3.135e-21)
(0.90734 -0.124441 -7.72926e-20)
(1.00075 0.0269908 6.09374e-22)
(1.01653 0.0555553 2.08637e-22)
(0.999074 -0.00473383 1.17982e-21)
(1.02075 0.0103265 -4.08369e-21)
(0.998401 -0.00528657 -7.1301e-22)
(1.07461 0.0481893 -8.82309e-21)
(1.1824 0.602879 -1.66349e-19)
(1.10264 0.257805 2.59704e-20)
(1.01121 0.00564256 0)
(1.03175 0.0108867 1.20867e-21)
(1.03713 0.00351288 0)
(0.812989 0.00532591 1.40674e-21)
(1.04929 0.0258661 0)
(0.949303 0.275182 0)
(0.693601 0.22951 0)
(1.01773 0.13304 0)
(1.00412 0.0975731 -9.68319e-22)
(1.0215 0.0346903 -1.43794e-21)
(1.00634 0.0783558 6.26516e-21)
(1.24699 0.494821 -5.88831e-20)
(1.03146 0.00972557 -8.74467e-22)
(1.04719 0.0408887 5.58452e-21)
(1.07274 0.0469644 -4.10743e-21)
(0.872154 0.054077 1.54395e-21)
(0.897258 0.28141 -6.49491e-21)
(0.999779 0.00579643 4.45011e-23)
(0.940648 0.0281548 -3.33954e-22)
(0.907445 0.00647701 -1.76609e-21)
(1.01547 -0.000239539 8.69848e-22)
(1.2032 -0.0261749 6.73206e-21)
(1.0264 0.0096077 -3.32171e-21)
(1.00938 0.000587176 0)
(1.07136 0.0518264 -1.6667e-20)
(0.226412 0.805892 0)
(1.067 0.258014 0)
(0.98163 -0.027308 1.53274e-21)
(1.01746 0.0144293 4.3215e-22)
(1.05111 0.157152 -3.6499e-20)
(1.01219 -0.0120183 -4.63143e-23)
(1.0167 0.00502913 -4.16874e-22)
(1.06044 0.0321161 2.1172e-20)
(1.02418 0.00346402 -2.31169e-22)
(1.05244 0.169509 0)
(1.04736 0.0805001 4.79091e-21)
(0.805116 0.6041 -5.13082e-20)
(1.26317 0.511861 1.12669e-19)
(1.02482 0.0038136 -1.56403e-23)
(0.0532368 1.0529 1.22411e-19)
(-0.00580436 0.973482 2.43559e-19)
(1.01112 0.36837 9.34994e-20)
(1.01171 0.000857655 6.11469e-22)
(1.05727 0.0225687 1.50335e-22)
(1.06877 0.0525176 -1.58965e-20)
(1.0525 -0.0329992 4.74861e-22)
(1.02245 0.0122081 0)
(0.986452 -0.0131307 1.42412e-21)
(0.916637 0.131582 4.52897e-22)
(1.01287 -0.0122168 7.95731e-23)
(1.20862 0.576791 1.61926e-19)
(1.07144 0.0638469 -1.06232e-20)
(-0.139141 0.221102 8.43913e-20)
(0.948243 0.175737 5.229e-21)
(-0.0269017 1.00073 -7.52103e-20)
(1.05826 0.0996325 3.49848e-20)
(1.0187 0.0127221 0)
(0.0887514 1.04953 1.05341e-19)
(1.0253 0.0161932 0)
(1.13094 0.193506 0)
(-0.159615 0.242694 -1.14275e-19)
(0.844575 0.493518 -3.879e-21)
(1.02748 0.115936 1.79675e-22)
(1.01722 0.00534779 -6.33807e-21)
(1.07537 0.0278144 -1.19065e-21)
(0.995102 0.516022 -2.52675e-20)
(1.03117 0.00112109 1.1672e-20)
(0.941264 0.160483 -3.56541e-21)
(1.03485 0.023432 0)
(1.19602 -0.0038304 7.97798e-21)
(1.076 0.254097 -4.48638e-20)
(1.02811 0.010146 -3.52555e-21)
(1.01218 0.0125256 -2.72162e-23)
(1.01662 -0.00641706 2.62102e-22)
(0.922223 -0.0458714 -3.92103e-22)
(1.0569 0.0248519 -4.00203e-22)
(1.03357 0.011842 -9.66454e-23)
(1.01644 -0.00641525 2.45155e-22)
(1.01269 -0.0154714 4.20249e-23)
(0.883757 0.265385 2.49662e-21)
(1.06826 0.0539329 -1.95924e-20)
(0.909562 -0.0448696 1.37924e-22)
(1.01806 0.014038 -2.03781e-22)
(1.01194 -0.00835571 0)
(1.0157 0.000663149 -2.03057e-22)
(0.793716 0.630704 -4.04894e-21)
(1.00329 0.0691338 -1.27622e-21)
(1.04117 0.147288 1.74424e-20)
(1.06026 0.0314695 -9.58501e-21)
(1.07659 0.299729 5.55768e-21)
(1.00493 0.0229563 1.24055e-21)
(1.00488 0.0222445 0)
(1.03494 0.0225524 0)
(1.00494 0.0238786 1.31279e-21)
(1.07701 0.0300341 -1.05961e-21)
(1.05694 0.0220081 -7.08845e-23)
(1.06676 0.053831 1.80152e-21)
(1.02588 0.00926044 8.84253e-21)
(0.994986 -0.0448468 4.03224e-22)
(1.00999 -0.017348 0)
(1.0413 0.0166318 0)
(1.01027 0.0130967 9.85582e-23)
(1.0566 0.0238258 -1.46931e-20)
(1.01774 0.0148618 0)
(1.00425 0.0657344 -1.26792e-21)
(1.07044 0.047573 -9.12058e-22)
(1.03655 0.0327156 0)
(1.01634 0.0155409 1.49093e-22)
(1.02584 0.00253009 0)
(0.99931 0.000956967 0)
(1.01024 -0.00204451 -3.8943e-22)
(1.01806 0.0643602 0)
(1.04052 0.017357 -8.27519e-21)
(0.769863 0.100346 0)
(1.02041 0.0324656 -1.2673e-21)
(1.03145 0.00113828 -7.67191e-21)
(0.650879 -0.311164 -3.13063e-20)
(0.894075 0.182095 -1.09671e-21)
(1.07238 0.0656162 0)
(1.02149 0.0596353 0)
(0.908116 0.0496208 4.39232e-22)
(1.22488 0.0175156 0)
(0.975828 0.00213162 4.7698e-22)
(1.01061 -0.0166722 -9.64799e-23)
(0.985983 -0.00860267 0)
(1.00816 0.0194741 4.45053e-22)
(1.04883 0.0603286 0)
(1.08058 0.170022 -2.46744e-20)
(0.941507 -0.0289866 -2.73736e-21)
(1.02592 0.00228881 0)
(1.01286 0.0133715 2.77576e-23)
(1.0149 -0.00877652 3.15399e-23)
(0.997033 0.024337 0)
(1.03361 0.0113613 0)
(0.994953 0.021931 3.15809e-22)
(0.984949 0.224484 -1.77554e-20)
(1.01534 0.0423645 0)
(1.01318 0.0228047 -2.96987e-22)
(0.00822083 1.0427 5.67323e-20)
(1.02609 -0.0272037 4.00358e-23)
(1.00687 0.0185479 0)
(1.11368 0.107976 0)
(0.897276 -0.179725 8.18763e-20)
(1.00842 0.00155664 1.09139e-22)
(1.05418 0.0851982 1.08199e-20)
(1.01643 0.040397 -1.40363e-22)
(1.01274 -0.00698734 -8.36481e-22)
(1.01089 0.0140358 -9.92882e-23)
(0.0291673 1.03885 0)
(1.04689 0.0600133 2.38054e-21)
(0.544243 0.62115 0)
(1.05778 0.0963919 -4.54215e-20)
(1.04451 0.146927 -1.80005e-20)
(0.95214 -0.0296614 2.92498e-21)
(1.05722 0.0356864 7.91494e-21)
(0.740575 0.0942402 -1.86482e-20)
(1.00473 0.0231691 -6.52673e-22)
(1.01745 0.00582632 7.91123e-21)
(0.685719 -0.33112 8.43945e-21)
(1.01004 -0.000839112 0)
(-0.0167013 0.609462 -3.42602e-19)
(1.00742 -0.000161842 8.50381e-22)
(1.02319 0.0178277 -4.86222e-21)
(0.995135 0.204322 1.52917e-22)
(1.01866 0.0762128 3.27673e-22)
(1.01452 0.0245282 3.07041e-22)
(1.02382 -0.0283395 -3.43063e-23)
(-0.0344482 0.619771 3.33283e-19)
(0.987527 0.00104701 -4.49462e-22)
(0.994566 0.0211585 0)
(0.921755 0.114487 -1.91307e-21)
(0.870152 0.572346 0)
(0.872167 -0.131604 2.5463e-20)
(1.02922 0.0104429 0)
(0.802922 0.125362 8.55352e-22)
(1.02351 0.0183397 1.56783e-21)
(1.01112 -0.0191788 -3.93372e-23)
(0.891501 -0.113618 -2.1014e-20)
(0.817312 0.0201747 1.58199e-20)
(1.39212 0.428783 2.83802e-21)
(0.927234 0.0959448 2.01383e-21)
(1.00777 0.0147583 7.24601e-23)
(1.02298 0.069672 1.1293e-22)
(1.00698 0.00373392 4.32964e-23)
(1.00811 0.000150438 -2.46162e-21)
(1.02295 0.0122157 0)
(0.335697 0.764518 0)
(0.840854 0.18025 5.14206e-21)
(0.334572 0.352629 0)
(1.40025 0.443 0)
(1.02449 0.00307497 -2.13128e-22)
(1.13451 -0.0215201 -6.80207e-21)
(1.01195 0.0223975 0)
(1.02615 0.000243997 9.20858e-21)
(1.01101 -0.0208418 4.24899e-22)
(1.02662 0.00193059 5.32318e-22)
(0.99548 -0.037206 1.25207e-21)
(0.861923 0.0665641 -1.83829e-21)
(1.12853 -0.00275145 4.45223e-21)
(1.02793 0.351618 -2.79605e-20)
(0.582343 0.630663 -2.82427e-21)
(1.01465 -0.00875186 3.95843e-22)
(1.00843 0.0153799 -2.11491e-22)
(1.01996 0.0052544 4.89241e-21)
(1.06816 0.0225297 2.1221e-20)
(1.0514 0.0496978 0)
(0.998752 -0.00233053 -7.27873e-22)
(1.02997 -0.0196347 -5.49893e-22)
(1.01597 -0.000204209 -1.35011e-21)
(1.09559 0.251441 0)
(0.90024 -0.0995442 0)
(1.0111 -0.0142053 3.44846e-23)
(0.982637 -0.011374 -8.58217e-22)
(0.860133 -0.14569 -1.0267e-20)
(1.02556 0.0168069 0)
(1.13823 0.0164987 -7.59562e-21)
(1.01638 0.046471 -9.76219e-22)
(0.944131 0.0338076 -8.20603e-23)
(1.02251 0.0120697 0)
(1.06726 0.343725 -1.39204e-20)
(0.984513 0.0572155 -1.70246e-22)
(1.01691 0.0054583 0)
(1.08573 0.242963 0)
(1.16196 0.210729 2.22778e-20)
(1.03721 0.0224302 1.29081e-20)
(1.0225 0.0121606 9.54302e-22)
(0.998266 -0.0026705 7.1935e-22)
(1.01966 0.00492211 -5.02004e-21)
(0.978319 0.0107575 1.71739e-21)
(1.02047 0.0255738 -3.30848e-21)
(0.827209 -0.157264 1.10715e-20)
(1.0686 0.0207741 -2.74429e-20)
(1.04643 0.061271 0)
(0.984239 0.0590404 7.55217e-22)
(1.01102 0.00535867 5.11473e-22)
(1.03034 0.0232933 0)
(1.00386 -0.00827227 -2.8996e-21)
(1.04544 -0.0807529 -9.056e-22)
(1.23695 0.280218 -1.18725e-20)
(0.842551 0.168969 -5.74202e-21)
(1.02442 0.0356044 2.21722e-21)
(1.23228 0.259936 5.56719e-20)
(1.01849 0.0439993 1.04367e-21)
(1.05144 0.0506557 0)
(0.738796 -0.410733 0)
(1.00737 0.00283497 -1.60197e-22)
(1.05457 0.0259867 0)
(1.01577 0.0141704 2.24978e-22)
(1.02313 0.011335 2.86417e-21)
(1.06161 0.0535732 9.49686e-22)
(0.979276 -0.00774505 0)
(1.00155 -0.0295169 -1.61987e-21)
(1.06962 0.0332526 1.34058e-20)
(1.01569 0.0146361 5.74379e-23)
(0.998634 0.554181 1.42582e-20)
(1.03054 0.000375131 1.91651e-21)
(1.02127 0.0149142 -1.09797e-21)
(1.05837 0.0180622 2.40787e-20)
(0.998457 3.14341e-05 0)
(1.15912 -0.0372788 1.32161e-21)
(1.05745 0.048884 -2.74729e-22)
(1.01793 2.7216e-05 0)
(1.02263 0.0120584 0)
(1.02247 0.0110495 0)
(0.990334 0.00174411 -3.48634e-22)
(1.06024 0.0189998 0)
(0.976408 -0.0190694 1.29779e-21)
(1.00711 0.00455677 9.28431e-23)
(1.00842 0.00163883 -1.32423e-22)
(1.02306 0.037326 0)
(0.730749 -0.425471 0)
(0.998214 -0.0348273 -9.46179e-22)
(0.993059 0.0186355 0)
(1.02968 0.00614532 0)
(0.371176 0.357479 0)
(0.94587 0.0658979 1.10899e-22)
(0.999203 -0.0120652 1.36868e-21)
(1.15308 0.366742 0)
(0.904987 0.270174 0)
(1.02551 0.0115648 0)
(1.05632 0.0253566 -1.58001e-20)
(1.04936 0.0838248 -4.41037e-21)
(0.942752 0.00655749 -1.10791e-23)
(0.942971 0.00716733 -6.90258e-23)
(1.04344 0.0469385 2.05187e-21)
(0.976879 0.00967544 0)
(1.0374 0.0397202 3.74179e-21)
(0.998883 -0.0126699 -8.10077e-22)
(1.15092 0.077093 0)
(0.917523 0.00378019 -3.07445e-23)
(1.01193 -0.00898719 1.78094e-22)
(1.01637 0.000756379 -5.58219e-22)
(1.01063 0.0211833 -1.53902e-22)
(1.07221 0.0374281 -1.46002e-20)
(1.05498 0.152415 0)
(1.00741 0.0036018 2.12156e-22)
(1.04424 0.350505 3.78198e-21)
(1.07285 0.0510719 0)
(1.05152 0.269819 5.11194e-20)
(1.01914 -0.00566781 0)
(1.04786 0.0432135 2.43617e-23)
(1.07277 0.0498261 -6.9029e-22)
(0.840244 0.571156 -3.1148e-21)
(1.05854 0.0496036 2.57702e-22)
(1.03419 0.0406323 0)
(1.14732 -0.0203077 0)
(1.0138 0.0846013 -6.08234e-21)
(1.15152 0.100086 0)
(0.637715 -0.401352 -3.03929e-21)
(1.03648 0.0389894 -3.19307e-21)
(1.02495 -0.0928957 0)
(1.0578 0.016618 -2.48664e-22)
(1.02195 0.0149677 8.4461e-22)
(0.988208 -0.0235757 0)
(1.06937 0.0379407 0)
(0.835453 0.56731 0)
(1.01834 -0.00197998 2.57999e-22)
(1.00941 0.0203935 -1.90559e-22)
(1.14789 0.0342541 0)
(1.09945 0.310308 -7.60926e-21)
(1.01233 0.0828059 0)
(0.977351 0.00986098 0)
(1.10133 0.0569264 -3.38061e-20)
(0.966874 0.0109315 3.58956e-21)
(1.08692 0.0278111 -4.65129e-22)
(1.02801 0.000467853 -3.29351e-21)
(1.05594 0.01565 -1.54884e-20)
(0.43869 0.405109 -1.1742e-19)
(0.810779 -0.208924 1.41446e-21)
(1.05856 0.0345575 -9.02555e-21)
(1.05983 0.0179652 0)
(1.01691 0.00164755 0)
(1.01897 -0.00554389 -2.58456e-22)
(1.00439 0.0190259 0)
(1.04051 -0.00686917 -2.87485e-21)
(1.06791 0.080214 -1.68787e-21)
(1.01833 -0.00191487 0)
(1.05028 0.0611288 0)
(0.99914 0.00330638 3.47614e-22)
(1.01164 0.000861114 -7.22944e-22)
(0.886086 0.0436661 7.39749e-22)
(1.00893 -0.000155491 0)
(1.02992 0.024302 0)
(1.0492 0.0252157 0)
(1.04601 0.0770086 -2.17394e-22)
(0.790422 -0.151591 0)
(1.01025 -0.00233057 3.9443e-22)
(1.0696 0.0225708 -3.21045e-20)
(1.02488 0.530352 3.53319e-20)
(0.98997 0.00826234 1.56268e-21)
(1.08844 0.0296704 2.10442e-22)
(1.02887 0.00648056 0)
(1.02462 0.0101954 -3.1488e-21)
(1.02508 0.00992428 6.71945e-21)
(1.02306 0.01179 -1.90039e-21)
(0.93174 0.172818 -3.62397e-22)
(1.00862 0.0414091 2.75554e-22)
(1.02847 0.00645384 0)
(1.03611 0.022899 6.5719e-21)
(1.01358 -0.000533353 0)
(1.15089 0.0557826 0)
(1.03777 0.0200644 -7.45299e-21)
(1.05817 0.0489797 -1.30249e-20)
(1.1598 0.07222 0)
(1.01998 0.0055251 0)
(0.718496 -0.297658 9.55839e-21)
(0.939902 0.029762 0)
(0.938816 0.0231742 -5.63042e-23)
(0.730359 -0.460491 -1.35183e-20)
(1.05863 0.0484533 0)
(0.293201 0.758042 1.14509e-19)
(-0.0488372 1.00705 -7.25512e-20)
(0.927578 0.0983246 0)
(1.01601 0.00168279 -4.47874e-22)
(1.01596 0.00166763 -2.5094e-22)
(1.04002 0.0046698 -8.68432e-21)
(1.02644 -0.0917073 -5.78398e-23)
(1.03024 -0.0195008 5.80894e-22)
(1.01598 0.0882286 -1.62089e-21)
(1.03216 0.00231595 0)
(1.04589 0.194399 0)
(1.01877 -0.0026081 2.3665e-22)
(1.012 -0.0157238 -7.17568e-23)
(1.01218 -0.0132594 0)
(1.04588 0.00219855 -2.06008e-21)
(0.75226 0.0642687 -9.29213e-21)
(1.22925 0.401737 3.71003e-20)
(1.04711 0.0417297 -1.19041e-20)
(1.02611 0.0384948 0)
(0.981093 0.799067 -4.95547e-20)
(-0.0687354 0.298425 -6.56974e-20)
(1.0202 -0.00373262 4.78673e-22)
(0.901811 0.0335248 2.15477e-22)
(1.03219 0.0253302 0)
(-0.0685185 1.02674 -3.07397e-20)
(1.02931 0.0154758 2.73758e-21)
(1.15853 0.0454642 0)
(1.02476 0.00117514 -5.05367e-22)
(0.912294 -0.100524 -2.11146e-22)
(1.02051 0.000365862 -4.54271e-22)
(1.00464 0.0224511 -1.3163e-21)
(1.02313 0.0120691 -8.69799e-22)
(0.848388 0.612602 7.52929e-20)
(1.01504 0.0133016 -2.5815e-22)
(1.00687 0.0397443 0)
(1.00424 0.0237456 -1.81436e-21)
(0.739516 0.707703 9.17688e-20)
(0.999966 0.00384063 -6.29225e-22)
(1.0514 0.0553043 0)
(1.06114 0.071188 0)
(0.96874 -0.0146311 2.07945e-21)
(0.950279 0.00322015 2.40193e-22)
(0.445966 -0.63573 2.99125e-20)
(1.04799 0.0429485 -3.29376e-21)
(0.985529 0.0018366 2.56649e-23)
(1.03208 0.00214984 -7.08738e-22)
(1.03944 0.00452702 0)
(1.0112 -0.00374794 -3.34377e-22)
(1.02413 0.00240305 4.80285e-22)
(1.01048 -0.000639664 8.29135e-22)
(1.00298 -0.0393558 6.05575e-22)
(1.02882 0.0155909 2.79072e-21)
(1.02514 0.011417 0)
(1.02025 0.0105752 -4.02401e-21)
(1.02916 0.0704566 -1.07154e-20)
(0.811213 -0.438712 0)
(1.01811 0.000944319 0)
(1.0492 0.076182 1.86242e-22)
(1.01926 0.00954535 0)
(-0.0386015 0.866522 3.9618e-20)
(0.908018 0.0261327 -3.5679e-22)
(1.01294 -0.011278 0)
(1.18111 0.294142 0)
(1.05 0.0413264 6.02177e-24)
(0.886872 -0.0445387 3.15768e-21)
(1.01309 -0.0146832 9.72899e-24)
(0.641731 -0.329046 4.09172e-20)
(1.02895 0.00327398 -8.00659e-21)
(1.03738 -0.0168776 -7.75108e-22)
(0.742555 -0.460432 1.17166e-20)
(0.964183 -0.0396945 1.21665e-21)
(1.04416 0.0466747 6.81944e-21)
(0.80406 0.4463 1.55638e-20)
(1.07983 0.0336522 9.19576e-22)
(0.991544 0.0133732 0)
(1.02002 -0.00375655 -2.82862e-22)
(0.592088 0.412077 1.21673e-19)
(1.00996 -0.000956052 0)
(1.00331 -0.0366874 0)
(1.05431 0.0396298 8.02643e-21)
(1.1162 0.12463 -1.97175e-20)
(1.01385 0.000461289 4.73686e-22)
(1.06036 0.280175 -4.06724e-20)
(1.0184 0.0631347 -2.73566e-22)
(1.01417 0.0201151 -2.56271e-23)
(1.02259 0.0118291 0)
(1.02284 0.0107956 8.61385e-23)
(1.04325 0.0499971 -1.4043e-22)
(1.06505 0.0552744 1.43728e-20)
(1.00848 0.00318306 0)
(0.964351 0.00425309 0)
(0.901122 0.0127083 0)
(1.0795 0.602507 -2.08255e-19)
(0.931956 0.016584 4.68014e-21)
(1.01787 0.0643998 -1.45897e-21)
(0.974809 0.0107373 5.07045e-22)
(0.783006 0.1283 -9.15352e-22)
(0.985447 0.031703 -6.71869e-22)
(1.03496 0.0200335 -9.04826e-22)
(0.65291 0.205796 -1.7124e-20)
(1.03738 -0.0158256 1.06286e-21)
(1.11205 0.119511 3.2677e-21)
(1.03408 0.018608 1.5709e-21)
(0.952031 0.00345711 -2.41098e-22)
(1.01427 0.0118869 0)
(1.01755 0.000220984 -4.57885e-21)
(1.0165 0.100432 2.85288e-22)
(0.705742 -0.012213 0)
(0.990563 0.0092352 -2.1535e-21)
(1.02009 0.000301901 0)
(1.25562 0.424993 5.35027e-20)
(0.458038 -0.623898 0)
(0.761483 -0.0757421 0)
(1.03285 0.0244351 -4.27598e-22)
(1.20957 0.314648 -6.21404e-20)
(1.02127 0.0120356 -1.25481e-21)
(1.05645 0.0369366 1.7877e-20)
(0.935008 0.0143807 0)
(1.07443 0.0394264 0)
(1.02524 0.00275355 0)
(1.04346 0.585826 3.24346e-19)
(1.03051 0.0185019 0)
(1.01101 0.00470661 1.11461e-21)
(0.764608 0.739258 -1.48803e-19)
(0.999969 -0.0149649 8.32494e-22)
(1.06445 0.10312 3.71486e-21)
(1.17808 0.534426 -4.11224e-20)
(1.02336 0.000609544 0)
(1.02759 0.0580474 0)
(0.811458 0.00915293 3.29236e-21)
(0.724781 -0.064056 4.43992e-21)
(1.02327 0.0118371 0)
(1.04702 0.074072 -2.42544e-21)
(1.01352 -0.00733438 -4.90385e-23)
(1.01222 -0.00139487 -1.00708e-21)
(1.03587 -0.0184961 0)
(0.58703 0.231228 -1.66709e-20)
(0.955284 -0.0503351 0)
(0.728501 -0.175242 0)
(1.02126 0.0119778 -2.34695e-21)
(1.05005 0.0409867 -7.8975e-25)
(0.780993 0.0293217 0)
(1.01202 -0.00122393 1.06486e-21)
(0.986593 0.747677 0)
(0.570219 0.208347 0)
(0.957353 -0.0258758 -1.21451e-21)
(0.999005 -0.00847899 4.51181e-22)
(0.953543 0.00105014 -1.38601e-23)
(1.00585 0.0200641 4.24885e-22)
(1.01094 -0.00364508 3.40879e-22)
(1.05974 -0.0727071 -6.80273e-22)
(1.05636 0.224187 0)
(1.00092 0.000812944 1.7768e-21)
(1.23833 0.379206 3.2602e-21)
(0.956216 0.0162753 7.09675e-22)
(1.06261 0.0503693 -6.40586e-22)
(1.00994 0.0688809 -1.96609e-21)
(1.02015 0.0318291 1.74796e-21)
(0.988046 0.0381656 0)
(1.06854 0.0186024 1.07038e-20)
(1.00114 -0.0156893 0)
(0.915215 -0.0239407 4.6029e-21)
(0.896894 0.147913 2.00371e-22)
(1.05292 0.0494445 -3.50359e-21)
(0.98716 -0.0252246 -2.70623e-21)
(1.01448 0.00199872 2.94081e-21)
(1.00542 -0.0388618 7.14205e-22)
(0.970669 0.00203996 0)
(0.902457 0.470657 6.91154e-21)
(0.987562 0.0396647 3.94444e-22)
(1.01728 0.0145578 1.54626e-22)
(1.02301 0.0120194 8.60397e-22)
(0.913873 0.153318 0)
(1.01016 0.017524 -6.97574e-23)
(0.928202 0.327621 0)
(1.03193 0.0195715 0)
(0.972491 -0.00295243 4.84103e-22)
(1.01357 0.0129344 1.45193e-22)
(1.06861 0.0804565 -1.11917e-20)
(1.01888 0.0148586 1.43098e-22)
(1.03343 0.0703127 0)
(1.23874 0.405144 -7.88702e-20)
(1.0146 0.00767615 2.56463e-21)
(1.0155 0.0208286 9.75885e-23)
(1.0079 0.000540123 8.25222e-22)
(0.98447 0.0338031 0)
(1.02001 0.0115789 -3.18674e-21)
(0.991161 -0.0436403 -4.77382e-22)
(1.04872 0.0801832 2.22171e-22)
(1.02744 0.0621995 0)
(1.0297 0.0251007 0)
(1.01615 0.0217854 -6.16936e-23)
(1.05268 0.0569542 -1.90506e-21)
(1.03874 -0.0336199 -1.71168e-21)
(1.04448 0.0825413 0)
(1.05133 0.0262601 0)
(0.944018 0.0318013 3.82916e-22)
(1.00775 0.0339463 -9.74396e-24)
(0.398703 0.400488 -1.87527e-20)
(0.998312 -0.00934892 -3.77619e-22)
(1.02939 0.0165723 -8.05837e-22)
(0.958831 0.0412078 0)
(1.02192 0.0111822 3.379e-21)
(1.02979 0.00136054 -8.15207e-21)
(1.09347 0.0631952 2.25811e-20)
(1.02876 0.0554655 -9.40632e-22)
(1.03535 0.0172601 0)
(1.02378 0.0120343 4.0188e-22)
(1.04462 0.0579583 2.8929e-21)
(1.0139 0.00181736 -1.35492e-21)
(0.896685 0.138238 -4.7819e-22)
(1.01661 0.00082406 0)
(1.11784 -0.0120418 0)
(1.03587 0.0321677 1.39866e-22)
(-0.115455 0.780869 0)
(0.991519 0.0157095 0)
(1.05641 0.0169021 -2.25839e-21)
(1.04353 0.0509856 0)
(0.959475 -0.00419287 -1.84686e-21)
(1.01049 0.00212977 1.43295e-21)
(1.00745 0.00139571 8.44284e-23)
(1.29335 0.560339 8.13402e-20)
(0.98265 0.0109466 -9.09734e-22)
(1.1513 0.0265922 6.64903e-21)
(0.982119 0.00231874 8.66722e-22)
(1.02903 0.00992117 0)
(0.924177 0.0162056 -3.9449e-21)
(1.05105 0.0500607 0)
(0.916494 0.177342 7.46388e-22)
(1.0061 0.0173037 0)
(1.0309 0.0241157 0)
(1.04291 0.0725906 3.67332e-21)
(1.24987 0.36381 -1.37238e-19)
(1.14973 -0.00651761 0)
(1.11669 0.120421 1.32284e-21)
(1.05324 0.048449 -3.09456e-21)
(1.01447 0.00732937 0)
(1.04817 0.0405728 -6.27488e-21)
(1.04663 0.0526047 9.16409e-22)
(0.992858 0.0172692 5.96139e-22)
(1.07126 0.0171772 -2.37414e-20)
(1.02985 0.0067151 0)
(0.3733 0.60254 1.64648e-20)
(1.07372 0.0324729 0)
(0.982453 0.0105753 1.01217e-21)
(1.05743 0.0821028 -4.82952e-21)
(1.02046 0.00951741 1.07332e-21)
(0.978219 0.585232 0)
(1.02999 0.057588 4.53465e-22)
(0.568051 0.791872 0)
(1.08941 0.11087 0)
(0.966643 -0.00325497 -1.93973e-21)
(1.05236 0.0271624 1.04301e-20)
(1.02127 0.0296355 -5.88629e-22)
(1.03707 0.0201267 0)
(1.03073 0.0174764 -2.42868e-22)
(0.883569 0.0360213 9.12679e-21)
(1.02665 0.00177246 0)
(1.03368 0.0370248 -1.25136e-21)
(1.07953 0.106732 -7.82482e-21)
(1.02359 0.0127276 0)
(1.03422 0.00784805 1.07395e-20)
(0.897612 0.0554443 0)
(1.07009 0.0343284 0)
(1.01133 0.0150752 0)
(1.00334 0.0129626 0)
(1.04237 0.179653 6.35334e-22)
(1.06256 0.016505 0)
(1.23132 0.237724 4.85483e-20)
(0.911273 0.0438508 -2.66087e-21)
(0.990783 0.0110992 0)
(0.982546 0.0112409 0)
(1.29139 0.564419 -8.38254e-20)
(0.757331 0.0858524 -5.36608e-21)
(1.03667 0.0325099 -8.86755e-21)
(0.97774 0.0114201 0)
(1.01229 0.0672494 2.51953e-21)
(0.504115 0.173534 -5.02323e-20)
(1.0449 0.0432147 -1.89273e-22)
(0.997678 -0.0424176 -1.40893e-21)
(1.05436 -0.0240507 1.9935e-22)
(1.02874 0.010601 0)
(0.115267 -0.454495 1.19961e-19)
(0.404875 0.53624 -1.36985e-20)
(1.02841 0.0096188 2.27682e-21)
(0.985987 0.0290007 0)
(0.965917 -0.0218859 -7.14912e-23)
(1.25108 0.474395 1.01972e-19)
(1.01563 4.16062e-05 2.27234e-22)
(1.01479 0.0209589 -1.60951e-23)
(1.16079 0.290416 0)
(0.159666 1.0405 -9.66042e-20)
(1.00614 0.00165602 -3.95017e-24)
(1.02241 0.0401566 0)
(1.24229 0.244469 -1.06517e-19)
(0.986422 -0.00777367 1.83879e-21)
(1.01758 0.0014348 -1.02235e-21)
(1.07205 0.069554 -1.90456e-22)
(1.02448 0.0955081 -8.07935e-21)
(0.975354 0.00468441 2.29554e-22)
(1.15987 0.338184 -2.02473e-20)
(1.01998 0.0101388 3.83002e-21)
(1.01901 0.0427424 6.15233e-22)
(1.01569 0.00506442 0)
(0.97485 0.00942242 1.69243e-21)
(1.17188 0.139229 -9.04184e-20)
(0.816893 0.189789 2.88025e-21)
(1.04027 0.0192136 -4.87965e-21)
(0.66818 -0.0999149 1.84208e-20)
(1.005 0.0161635 0)
(1.00749 -0.0354981 -1.78708e-21)
(1.00441 0.0149621 0)
(1.06291 0.0168885 0)
(0.929077 0.251921 2.02874e-21)
(1.05485 0.0420719 0)
(0.944621 0.0240228 1.40501e-21)
(1.02609 0.00533631 1.8743e-21)
(1.0268 -0.0249627 -1.35536e-22)
(1.22027 0.318515 6.25878e-20)
(1.02253 0.0310052 -1.52282e-22)
(1.00289 0.0233653 -3.58921e-22)
(1.01518 0.0148915 -7.42668e-22)
(1.03181 0.0207185 0)
(1.00841 0.00256692 0)
(1.01715 0.0150572 0)
(0.99611 -0.0186177 0)
(0.975486 0.00573759 4.45884e-22)
(0.796075 -0.452515 1.03118e-20)
(1.00747 0.0838324 -4.87777e-21)
(1.08333 -0.110128 -1.89251e-21)
(1.09939 0.0616765 0)
(1.02949 0.00262213 0)
(1.10418 0.0593898 3.47825e-20)
(0.961628 -0.0167011 3.5311e-21)
(0.97502 0.00798857 -2.31704e-21)
(1.05175 0.0496835 -8.22894e-21)
(1.01567 0.00492023 -3.04446e-21)
(1.01881 -0.0025245 0)
(0.870934 -0.0172938 -1.74906e-21)
(1.04177 0.043167 0)
(0.569932 0.381828 -1.35888e-19)
(1.07153 0.16456 -8.45192e-22)
(1.0049 0.00975336 5.12541e-22)
(0.976248 0.00299767 -1.5358e-21)
(1.02436 0.0132645 -5.63172e-22)
(0.0958382 -0.471726 -1.01695e-19)
(0.991571 0.000643833 -4.2176e-24)
(1.01564 0.00038554 -4.22826e-22)
(1.00804 0.00668154 -5.02294e-23)
(1.04594 0.0345791 -1.57774e-21)
(1.01378 -0.0380752 -7.86675e-22)
(1.16993 0.298067 0)
(1.00973 -0.0148368 2.04013e-23)
(0.871113 0.0928913 7.57206e-23)
(0.944377 0.0324849 -4.46653e-23)
(1.02208 0.0424082 0)
(1.01938 0.0428658 9.46518e-22)
(0.964891 0.00423475 7.71368e-23)
(1.0062 0.0168206 0)
(1.0339 0.00750645 -7.79352e-21)
(1.02573 0.00488743 -1.31724e-21)
(1.05095 0.0537206 0)
(1.02624 -0.0235193 1.14133e-22)
(1.04398 0.0538263 2.53154e-21)
(1.02164 0.0189326 3.16796e-21)
(0.108265 0.457474 8.54834e-20)
(1.12564 0.209381 6.29709e-20)
(1.00814 0.00129052 0)
(0.90333 -0.0169423 1.7724e-21)
(1.08571 0.051474 -7.15904e-21)
(1.03475 0.0313473 2.80391e-21)
(1.02482 3.36156e-05 0)
(1.06091 0.0298788 0)
(0.981661 0.0324719 -6.30464e-21)
(0.863449 0.0819673 -1.62759e-22)
(0.525084 0.20169 2.01436e-20)
(1.00885 0.188915 -2.07809e-21)
(1.0081 0.0020104 -2.08847e-22)
(1.03417 0.03043 3.06226e-21)
(1.08211 0.0451439 2.63723e-20)
(0.933119 0.0616669 -1.01911e-22)
(1.04427 0.0495331 3.86036e-21)
(1.00921 0.000590626 0)
(0.770606 -0.147472 5.52848e-22)
(0.983501 0.0261454 9.82627e-22)
(-0.193402 0.378153 -4.65836e-20)
(1.03344 0.0397711 1.28016e-21)
(1.02437 0.013097 0)
(1.07352 -0.00670788 0)
(0.983274 -0.0104152 0)
(0.962077 0.630191 5.74161e-20)
(1.00412 0.00795665 1.74406e-22)
(0.743969 -0.481049 6.30627e-20)
(1.01559 0.0163742 8.43145e-22)
(1.03605 -0.0178603 -6.45751e-23)
(0.964475 -0.100325 -1.08689e-21)
(1.0291 0.00277927 7.9761e-21)
(0.974376 -0.0059548 3.64854e-21)
(1.04688 0.03434 1.50913e-20)
(1.07426 -0.0675825 -4.89239e-22)
(1.12689 0.196015 0)
(1.01035 0.000825584 0)
(1.0399 0.0188316 1.47883e-20)
(1.01038 0.0213795 1.39072e-22)
(1.0201 0.000883168 0)
(1.01976 0.0156399 -5.25145e-22)
(1.03631 0.222103 -5.56442e-22)
(1.04119 0.294185 2.05045e-20)
(1.03313 0.0974144 0)
(1.02236 0.0122352 7.00206e-23)
(1.02486 0.00463855 -2.6334e-22)
(0.926018 -0.0449081 -1.88477e-21)
(0.736357 0.390916 0)
(1.05735 0.0363778 1.03677e-20)
(1.06657 0.0559033 2.18883e-21)
(1.0111 0.102169 1.11957e-21)
(1.20836 0.510376 4.90877e-20)
(0.997502 -0.0315409 -2.40341e-22)
(1.00465 0.0251853 8.49977e-22)
(0.959875 -0.00393581 2.89463e-21)
(1.04479 0.0428488 4.19964e-21)
(1.00696 -0.00801429 3.30824e-21)
(1.03063 0.0366279 -4.41496e-21)
(1.03272 0.0234012 -8.31288e-22)
(1.02024 0.0147112 -5.97715e-22)
(1.0353 0.00360742 -1.39448e-20)
(1.03014 0.279389 0)
(1.00395 0.0250825 -4.09215e-22)
(1.01132 -0.104738 -1.27826e-21)
(1.02277 0.0173528 3.02912e-22)
(1.02236 0.0184076 0)
(1.09946 0.302428 -1.3822e-20)
(0.99953 -0.0300372 1.09122e-21)
(1.01641 -0.00981072 0)
(1.01123 0.00262739 0)
(1.02722 0.00552713 -5.61973e-22)
(1.0201 0.00904633 0)
(1.01936 0.00975218 9.56436e-22)
(1.05093 0.0507431 6.56597e-21)
(1.0336 0.0209729 8.77588e-22)
(1.0505 0.185124 0)
(0.500562 0.625498 -2.20173e-20)
(0.924143 -0.0695367 -7.58147e-22)
(1.03534 0.00369089 1.23051e-20)
(0.646093 0.749525 -6.26325e-21)
(1.14728 0.299956 -3.92119e-20)
(0.949602 0.0144471 -2.21601e-21)
(1.00782 0.000136827 1.53577e-21)
(0.902575 -0.0539834 0)
(0.929779 -0.064438 7.68748e-22)
(1.00229 -0.0173521 -1.30934e-21)
(1.08842 0.0354847 -1.17167e-20)
(0.989212 0.00471338 1.86602e-22)
(0.955957 -0.0485467 4.02914e-21)
(1.01755 0.102865 7.01451e-21)
(1.05174 0.0543423 0)
(1.007 -0.116955 3.45178e-22)
(0.886034 0.222973 -1.77066e-21)
(1.02023 0.00995684 -3.97907e-21)
(0.983153 -0.0159787 -2.16132e-22)
(1.0554 0.0387321 0)
(1.04129 0.0136256 0)
(1.03421 0.0222212 0)
(1.04173 0.0122707 -6.29934e-22)
(0.995219 -0.0286799 2.12297e-21)
(1.00015 -0.0265799 1.30227e-21)
(1.02853 0.105442 1.01946e-20)
(1.0305 0.0227286 2.42776e-21)
(1.01662 0.00152979 0)
(1.00293 -0.0333685 8.96499e-22)
(0.964845 -0.00732733 -2.91727e-21)
(1.01307 0.00515062 9.85981e-22)
(1.01685 0.00146627 4.44951e-21)
(0.965272 -0.00541224 1.68487e-21)
(1.01124 -0.00967701 0)
(0.762791 0.397315 -5.76516e-21)
(0.989614 0.00282088 -9.1308e-22)
(1.00505 0.0192374 -2.00881e-22)
(-0.0598388 -0.0718426 0)
(1.00611 0.019268 0)
(1.0137 -0.0115897 1.66147e-21)
(0.195279 0.514436 -2.06866e-19)
(1.02676 0.000185044 6.56913e-21)
(0.981177 0.00269077 -8.04399e-22)
(1.00957 0.0260579 -5.83781e-22)
(0.985008 0.0152449 0)
(0.975376 -0.0701606 5.88663e-22)
(1.04848 0.213703 7.61292e-21)
(0.773022 -0.0974125 -3.60248e-21)
(1.05081 0.0500434 4.13843e-21)
(1.02479 0.000971933 0)
(1.0126 0.00676153 1.02935e-21)
(1.06412 0.188259 1.26705e-21)
(1.05193 0.04994 -3.66554e-21)
(1.01157 0.0131381 0)
(1.0397 0.00926651 0)
(0.997478 0.0247862 9.10445e-22)
(1.01533 0.00233729 2.16769e-22)
(0.888739 0.00127801 6.4191e-21)
(-0.0604484 -0.100624 2.29993e-21)
(1.01523 0.563367 0)
(1.08022 0.0443714 -1.87277e-20)