/*--------------------------------*- C++ -*----------------------------------*\
| =========                 |                                                 |
| \\      /  F ield         | OpenFOAM: The Open Source CFD Toolbox           |
|  \\    /   O peration     | Version:  v2012                                 |
|   \\  /    A nd           | Website:  www.openfoam.com                      |
|    \\/     M anipulation  |                                                 |
\*---------------------------------------------------------------------------*/
FoamFile
{
    version     2.0;
    format      ascii;
    class       surfaceScalarField;
    location    "150";
    object      ddtCorrDdt0(phi);
}
// * * * * * * * * * * * * * * * * * * * * * * * * * * * * * * * * * * * * * //

dimensions      [0 3 -2 0 0 0 0];
oriented        oriented;


internalField   nonuniform List<scalar> 
27704
(
-0.0366415
0.0409538
-0.00431223
1.24202e-05
2.06031e-05
-3.30266e-05
0.00943779
-0.0460793
-0.00525667
0.00128111
0.00397555
-8.7607e-06
1.50075e-05
-6.24685e-06
0.0300204
-0.0202958
-0.0097247
5.42103e-07
6.83883e-05
-6.89289e-05
-2.11613e-05
6.44324e-05
-4.3271e-05
-0.0510535
0.014778
0.0362754
0.0748311
0.00147704
2.4149e-05
-5.70143e-05
3.28659e-05
-6.69644e-05
4.63853e-05
2.05783e-05
5.24331e-06
-1.40037e-05
0.000280215
-0.000444287
0.00016407
-0.00562889
0.0183553
-0.012726
7.1376e-06
-8.06942e-06
9.30284e-07
0.000973946
-4.76809e-05
-0.000926266
-6.01153e-05
6.06568e-05
-0.0848385
0.00533485
0.0795037
-2.73379e-05
3.97565e-05
-1.89123e-05
-4.80528e-05
-0.00538613
-0.00155586
0.00694219
-0.0114152
0.0202075
-0.00879227
0.00505087
-0.00176235
-0.00328852
0.0827839
-0.00795278
-0.0162374
0.00482225
0.0026293
-0.00810947
0.00548016
-0.00112927
-0.0338906
0.03502
-0.000206881
-0.000334429
0.000541307
-0.000229142
0.000774047
-0.000544953
-0.00251449
0.0014396
0.00107489
-0.00159808
-0.000916412
0.00118363
-0.000209682
-0.000670868
0.00180564
-0.00113478
4.16549e-05
-4.09819e-05
-6.73623e-07
0.00292745
-0.00492491
0.00199745
-0.000605224
-0.0233012
0.0239066
0.00681918
-0.000652232
-0.00616693
3.80784e-05
-1.39295e-05
-0.000146077
0.00042629
-0.0524174
0.00336253
0.0490548
0.000467697
-3.52708e-06
-0.000464174
0.00611273
-0.00202049
-0.00409224
0.0157691
0.0277486
-0.0435177
0.02516
-0.0210551
-0.00410488
0.00404203
-0.00293662
-0.00110543
0.00300155
0.0146337
-0.0176353
-0.000317334
0.00131565
-0.000998318
7.38382e-05
-5.26282e-05
-2.12069e-05
-0.00767915
0.00476987
0.00290925
-0.00123591
-0.00402076
-0.0192402
0.025321
-0.00608071
0.000448298
-0.000181463
-0.000266836
-0.0149455
-0.0374719
-0.000428739
9.62533e-05
0.000332486
-0.00883216
0.0041416
0.00469049
0.030419
-0.00749164
-0.0229273
5.74369e-05
1.64025e-05
2.45326e-05
-0.000272365
0.000247833
0.047988
0.00625236
-0.0542403
-0.00011361
7.55409e-05
3.80708e-05
0.000689513
2.6452e-05
-7.60409e-05
0.0408092
-0.0224402
-0.0183689
-0.000560748
0.000331574
-0.0187045
0.019534
-0.000829437
0.00766164
0.0403263
-0.000564029
-0.000201307
0.000765329
-0.00557891
0.0307389
-0.00601165
0.000625603
-0.0057676
0.00839691
-0.00155068
0.000879809
1.04759e-05
-7.05906e-05
-4.23861e-05
6.8838e-05
0.000436273
0.00294939
-0.00338565
-0.0465487
0.0623178
-0.00362334
0.00516957
-0.00154626
4.20592e-05
-4.06628e-07
0.00234795
-0.000985751
-0.00136218
-0.00136265
0.00208552
-0.000722864
-0.00193094
0.00236722
-0.00052403
0.00734321
-0.0431953
0.0737256
-0.0305304
-0.0048226
5.81659e-05
-3.65887e-05
-2.15772e-05
-0.00871087
-0.000121342
0.000267655
-0.00224819
0.00198052
-0.00358621
0.00261083
0.000975375
0.0010699
-0.00243256
0.00575933
0.0192873
-0.0250466
0.0153885
-0.0210173
0.0034942
-0.000132953
-0.00336125
0.002153
0.00289787
-0.014524
0.0151163
-0.000592341
0.000370423
0.000117897
-0.000488317
0.000153772
0.000294527
-0.000869535
0.00379697
-0.00597872
-0.00570943
0.0116881
-0.0176196
-0.00108486
1.32097e-05
-0.00012682
-0.0286396
0.0963439
-0.0677041
7.92086e-07
6.34484e-06
-0.00734519
-0.00885133
0.0161965
-5.6259e-05
3.50982e-05
-0.00952767
-0.0415258
-0.0366142
0.0270865
-0.0527384
0.00954298
0.0252165
-0.00967648
-0.01554
-0.00694896
0.0110906
6.17779e-05
-5.1302e-05
-2.0761e-05
4.24703e-05
-2.17074e-05
0.00177385
-0.000945265
-0.000828581
-0.00374576
0.00466565
-0.000919904
1.13919e-05
-7.65229e-06
-3.73871e-06
-9.23401e-05
0.000462766
0.0039883
-0.00996702
-0.000756528
0.000192495
0.000911003
0.000862843
-8.45141e-06
-1.89343e-05
2.7386e-05
0.00253672
-0.00226907
0.000174505
-3.46136e-05
-0.000139891
-0.00272935
0.00050692
0.00222243
-0.0371242
0.0173452
0.019779
3.85443e-06
7.53734e-06
7.85131e-06
4.07648e-05
-4.86157e-05
-0.000512799
-1.97807e-05
0.000532577
0.0595681
-0.0305028
-0.0290653
-5.05624e-05
0.000594014
-0.00054345
0.000400677
-0.000607554
0.000392818
-1.90057e-05
-0.000373811
0.000165375
-0.000135523
-2.98569e-05
0.0274524
0.0133568
0.000501771
-0.00200443
0.00150267
0.000671763
-0.00237653
0.00170477
-4.17414e-05
6.21069e-06
3.55301e-05
0.000207295
-0.00645988
0.0172781
-0.0108181
0.00870522
0.0165113
-0.00542016
-0.00103972
0.0189514
-0.0104324
-0.00851907
-0.000979142
0.000978119
1.02642e-06
2.43956e-05
-2.01634e-06
-2.23796e-05
4.50276e-05
-4.28811e-05
-2.14648e-06
9.64118e-05
-0.000419679
0.000323268
-0.000799972
0.00124941
-0.000449432
-0.000101954
-2.56276e-05
0.000127581
-0.000324161
8.5315e-05
0.000597405
0.00128453
-0.00188192
-0.0307382
-0.00587603
-0.000150509
1.62146e-05
0.00013429
0.0237504
-0.014112
-0.00963839
-0.0200325
0.0101584
0.00987403
2.49645e-05
-5.69029e-07
-5.48794e-06
5.75503e-05
-5.20612e-05
0.00205309
-0.00240441
0.000351306
0.00880623
-0.0100957
0.0012895
-0.000245877
9.53598e-05
-0.000485282
0.000160804
0.000324479
-3.6472e-05
2.55197e-05
1.09531e-05
-0.0275672
0.0238372
0.00372998
-0.0316009
0.0634003
-0.0317992
-0.0086851
-0.00105941
0.00974448
-0.000162483
0.000178695
0.00645501
0.00715322
-0.0136083
-0.024071
0.01682
0.00725089
2.95931e-05
-2.7686e-05
-1.90802e-06
0.00702229
-0.000741172
-0.00628112
0.0469173
-0.0138723
-0.0330449
2.40861e-05
-1.72027e-05
-6.88256e-06
4.55261e-05
-0.000110526
6.49986e-05
0.000173272
-0.00242147
1.45565e-05
4.90553e-06
-1.94619e-05
-9.41504e-05
1.89366e-05
7.52129e-05
-0.00080747
0.00016813
0.000639339
-0.0039088
-0.00377039
0.0355031
-0.0218005
-0.0137026
-0.020366
0.0193906
0.000975381
-0.000154335
-9.15467e-05
0.0161791
-0.0288101
-0.00279088
-5.89038e-05
2.75246e-05
3.13796e-05
-0.000593642
0.0195451
-0.00137574
0.000861707
0.000514036
-0.000273806
-0.000211476
-0.000151058
0.000485389
-0.000334331
-0.00088098
-0.000494765
-0.000138388
-0.00029035
0.00263298
-0.000579904
0.000147783
-0.000127891
-1.98916e-05
0.000401899
-0.000240947
-0.000160951
-0.00114537
0.000404563
0.000740805
0.00309153
0.0206588
-0.00958117
-0.0104513
-0.00102848
0.00297878
-0.0019503
-0.00695631
0.00353276
0.00342356
-1.79157e-05
-7.62338e-05
-0.00146152
0.00100277
0.000458753
-0.000599816
-0.0128087
-0.0112625
-0.00118352
0.000866188
4.1707e-05
0.000360192
-5.39504e-06
2.17269e-05
-1.63333e-05
-0.0215575
-0.00600972
5.62909e-05
0.000598411
-0.000501996
2.02904e-05
-5.73463e-06
-0.00204429
0.00271607
-0.0721939
0.0732637
-0.00106979
-0.000271915
-0.000236207
0.000508113
0.000345068
-0.000191295
0.000101566
4.62171e-05
0.000888453
-0.00155793
0.00066948
2.05774e-05
2.64587e-05
-4.70363e-05
0.000912988
-0.0030222
0.00210919
-0.00120147
-0.00627149
0.00747297
-0.00378471
0.0028907
0.000893997
-5.39798e-05
1.46078e-05
3.93715e-05
-0.000959324
-0.000186047
0.000520305
-0.0003595
-0.00640165
0.0094032
-0.014225
0.00818257
0.00604241
-0.00266618
0.00120464
0.00146154
0.00244684
0.00173479
0.014893
-0.00589675
-0.00899622
0.00673774
-0.0154228
0.00399869
0.0030236
-0.0178243
0.0053363
0.012488
-0.0306082
0.0307355
-0.000127315
-4.04213e-05
4.04195e-05
-0.00880441
-0.00542057
-0.000353256
0.000112309
-0.00293932
0.00320976
-0.000270429
0.000626698
0.000688959
1.23669e-05
-3.84979e-05
2.61313e-05
-0.0852527
0.0910905
-0.00583784
-2.10489e-05
-3.78548e-05
-0.000582028
-1.25787e-05
0.000594606
-0.000480437
0.000329379
-2.03568e-05
-4.80606e-05
6.8418e-05
-4.13857e-05
7.02636e-05
-2.8878e-05
0.00668476
-0.00374841
-0.00293635
-0.0253144
-0.0191126
0.044427
0.0166167
-0.0208899
0.00427317
0.00260146
-0.000253519
0.00792287
-0.0423796
0.0344568
-0.000738782
0.00232705
-0.00158826
0.00155669
-0.00258516
4.65155e-06
-4.63949e-05
0.00832474
-0.0103393
0.00201454
-9.63605e-05
0.00216059
-0.00289936
-0.0340888
0.00348061
-0.000657794
0.00036479
0.000293006
1.00638e-05
-0.00144259
0.000760595
0.000681989
2.27551e-05
6.83717e-06
0.00024978
9.52895e-05
8.15461e-05
3.64133e-05
-0.00011796
-0.0173407
0.00853631
1.0644e-05
1.34427e-05
-0.0198904
0.0192854
-3.15515e-06
1.33117e-05
-1.01569e-05
0.000150625
-0.000254404
0.000103781
0.00328065
0.00161744
-0.0048981
-3.94033e-05
-1.31699e-05
5.25735e-05
-0.00316944
-0.0146549
6.50607e-05
-3.12231e-05
-3.38375e-05
-0.00510057
0.00913448
-0.00403391
6.83666e-06
1.37098e-06
-8.20817e-06
0.000286905
5.98121e-05
-0.000346717
-0.0295573
0.0181546
0.0114027
0.00723874
0.000197059
-0.00743575
0.00231618
-0.0014032
0.000363031
-7.6125e-05
-0.00213574
0.0175245
-0.00181508
0.002322
-0.000142953
0.000490929
-0.00034798
-0.000730456
0.000116849
0.000613603
0.00280038
0.00388439
-0.00101237
0.00170188
0.000110627
-0.00818705
0.00807638
-1.97076e-05
-0.000573047
0.00059275
-0.00264126
-0.0695526
-2.64852e-05
-2.74949e-05
-0.000129617
0.000522435
-0.00160029
-0.00711057
-0.00789673
0.00291894
0.00497778
-3.34988e-05
3.97094e-05
0.0161488
5.22819e-05
-4.44304e-05
6.83025e-05
-3.42842e-05
-3.40197e-05
0.00121028
-0.000173054
0.000158283
1.47704e-05
-0.000562362
0.00042367
0.000138692
0.0584297
-0.0356099
-0.0228197
0.0115259
-0.00320108
0.024148
0.00627097
-0.000601115
0.0080632
-0.007462
-0.000967778
-1.13612e-05
0.000451338
6.89655e-05
0.000419636
-0.000511976
-0.012225
0.01868
0.00739902
0.00749394
-0.0217544
-0.00780292
0.00996462
-0.00373992
-0.00622463
0.00506549
-0.0010668
0.00407851
-0.00917909
0.00221161
-0.00233468
0.000123068
-0.000205402
-0.00704756
0.00322259
0.00382492
5.23897e-05
1.59111e-05
-0.0132471
-0.0059598
0.0192069
0.000434391
-0.000409858
-0.000784221
0.000732303
5.19184e-05
0.000516447
-0.000610616
9.41671e-05
-0.00288939
0.000958455
-0.00121936
0.00048409
0.000735266
-0.0116226
-0.00347816
-0.00468276
-0.000214316
-0.000569905
-0.00289924
0.00330962
-0.000410382
-0.000163198
-7.66245e-05
0.000239821
4.66149e-05
3.62156e-05
-2.93261e-05
-6.88895e-06
0.00520885
-0.00580995
-0.00207
0.00116937
0.000900631
0.0101493
-0.0317067
-0.000286951
-0.000520519
-5.50104e-05
7.40372e-05
-1.90255e-05
-8.16872e-05
0.000386484
-0.000304802
0.0435978
0.0177991
-0.0613968
0.00133146
-0.000128754
-0.00120268
8.26424e-06
-1.42854e-06
-0.0212701
-0.0158541
6.73972e-05
-3.08912e-05
-3.65058e-05
0.00233308
-0.0155801
0.00287078
0.00219472
-0.000785127
-0.00259698
0.00338209
-0.00177912
0.000232538
0.00425093
-0.00448346
-0.0361512
0.0438128
-0.00956366
-0.00205891
-0.014257
-0.067181
0.081438
-0.016449
-0.040636
0.057085
0.00472359
-0.00344248
-0.00172365
0.00103663
0.000687017
-3.86368e-05
-1.76152e-05
5.62541e-05
0.00143883
0.00662442
0.0762045
-0.0708697
-0.000593397
1.13678e-05
-0.0216983
0.0114915
0.0102069
-1.32662e-05
1.01105e-05
0.000896217
0.00104777
-0.00194397
-0.000586977
-0.000855608
0.00159796
0.00532302
-0.00692096
-0.00113869
-0.000931308
0.0336195
-0.0555359
0.0219165
-0.0017373
-0.000634901
0.00237221
-0.000127403
0.000306326
-0.000178922
-0.00138685
-0.00219937
0.0432928
-0.0207037
-0.0225891
-0.0108683
0.00385725
0.00701102
7.56995e-05
0.000468078
-0.000543782
0.0229612
-0.0136188
-0.00934238
0.0539809
-0.0477285
0.000404403
1.52337e-05
2.70244e-05
3.11415e-05
0.0183189
-0.0544701
-3.60141e-05
5.65918e-05
0.00170904
0.000356085
-0.00206514
0.0300549
0.0627273
-0.0927822
-0.00106349
-0.00160269
1.56916e-05
-5.49266e-06
-1.01993e-05
-0.022026
0.000155708
-0.000184219
2.85086e-05
-0.0140121
-0.00768628
-0.0335347
0.0518536
0.0412085
-0.00758901
-0.0003684
0.00169987
-0.000790187
0.000575871
-0.00107865
0.00197488
-0.00182581
0.00906461
0.0371976
0.0040109
0.000666636
-0.00135884
0.000692189
0.00553244
-0.00529989
-9.94447e-05
2.80023e-05
7.14432e-05
-0.000334725
0.000253031
2.65743e-05
9.6414e-06
-0.00187832
0.00174958
0.0021489
0.00106086
0.00359339
-0.000722613
0.00134685
-0.000680225
0.00173311
-0.013305
-0.000133806
0.00245889
-0.00232508
-0.000585702
3.8521e-05
0.000547182
1.96684e-05
-7.32222e-06
-1.23458e-05
-9.80792e-05
-0.000146293
0.000244376
0.0039105
0.00605413
-0.125284
0.0234846
0.1018
-0.000534816
0.00993619
-0.0131056
-0.00156549
0.0101128
-0.00854732
4.01125e-05
2.49482e-05
-3.50732e-05
-6.43718e-05
0.00952128
-0.0143279
0.00480664
-0.000421613
-0.000368574
-0.00102269
-0.000700964
6.81007e-07
-1.78294e-05
1.71496e-05
-0.00240263
0.0123388
0.00394018
-0.000445985
0.000112746
3.22359e-05
-0.000144988
-0.00768659
0.00779721
-0.000117742
0.000944736
-0.000826996
-0.0662359
0.0196873
-0.00315422
0.00287035
0.000283865
-0.000513322
6.1464e-05
0.000451858
0.000593967
-0.000126272
-0.00118265
0.00210437
-0.000921721
0.00196521
0.00162818
-0.0022777
-0.0313516
0.0554165
-0.0240648
0.00298652
0.0208507
2.12718e-05
3.02065e-05
-0.0108985
-0.00827255
-0.00373639
0.0120089
-3.07735e-05
-0.000699684
0.0166933
-0.0134095
-0.00328383
-0.0141104
-0.00233851
4.48059e-05
-0.000146759
-0.00204385
-4.50272e-05
0.00208888
-0.00207701
3.31527e-05
-0.0165406
0.0226298
-0.00608936
5.70005e-05
-4.94342e-05
-7.56429e-06
1.87634e-05
-0.000162002
0.000143241
0.0942622
-0.014671
-0.0795912
-3.69177e-05
-1.7187e-06
-0.00184199
0.000418846
0.00142316
-9.28809e-05
0.000137687
-4.24304e-05
-2.15635e-06
4.45868e-05
-0.00017081
-2.24244e-06
0.0027918
-0.0033058
0.000513996
0.000116334
-0.000181677
6.53398e-05
-0.000489316
-0.000168475
-0.000519492
6.1694e-06
-6.12521e-05
-0.00437425
0.0044355
-0.00550385
-0.0147921
-0.000783864
-0.000828237
0.00161211
5.46583e-06
0.000168685
-0.000174159
0.0239581
0.000162846
-0.000157384
0.021592
0.013911
0.000622991
-1.81193e-05
1.88007e-05
3.64607e-05
-2.40936e-05
5.98887e-05
5.47942e-05
-0.000114682
0.0287463
-0.0119262
-0.00830843
0.000190883
-0.000463351
0.000272473
-0.0209212
0.00246114
0.01846
2.27588e-05
3.42439e-05
-0.014597
-0.00576903
-0.0650382
-0.0312019
0.0962402
-0.000925021
0.000519706
0.000405314
2.30325e-05
-6.54629e-05
-7.77547e-05
-0.000523413
0.000601168
0.000399487
-0.000450049
0.000749275
-0.00131
0.000560728
0.00343324
0.00139098
-0.00482421
0.000172538
-2.19125e-05
-0.00156385
-0.00145835
0.0127945
-0.0132375
0.00307171
0.0101658
0.00230569
-0.00251899
0.000213297
-3.5151e-05
9.12841e-05
-5.61336e-05
0.000104699
-0.00358601
0.00197476
0.00161124
0.0233743
0.00537225
-0.00168869
0.00283538
-0.00114668
-0.00213409
0.00114833
0.00177216
0.000764548
9.47563e-05
0.00142358
-0.000122229
-0.00130136
0.0210969
0.00839701
-0.029494
0.000104219
-4.54328e-05
-5.87854e-05
0.0179222
0.00698215
-0.0249043
-0.00246608
0.00503622
-0.00257015
-3.91541e-05
9.01044e-07
3.82534e-05
0.00412045
-0.000687201
0.0167075
0.0775547
-0.00108062
0.00110254
-2.19174e-05
-0.0184876
0.00305721
0.0154304
-9.73345e-06
-2.67375e-05
0.00151887
-0.0200065
0.00827646
-0.0168058
0.00852932
-1.86999e-05
2.04455e-05
-1.74554e-06
-4.06678e-06
5.12857e-06
-1.06235e-06
-2.61005e-05
-0.000514616
0.000540715
-0.000654958
-0.0125826
0.000505945
-0.000509477
0.000529099
0.00012918
-0.000658284
3.61704e-06
-0.00114231
0.000967209
-0.00528369
-0.0123359
0.0102409
0.033052
-0.000190072
-0.000163184
-7.51434e-05
0.000103145
0.0418681
-0.0466906
-0.000954575
-0.000833271
0.00178786
-0.000131251
-3.39862e-05
0.000165235
6.4187e-06
-5.52693e-06
-8.91957e-07
0.000751311
0.00536143
0.00220655
-0.00419397
0.000448197
0.0402929
-0.0125442
-6.92339e-05
5.03215e-05
-0.0116135
0.00447702
0.00713651
-8.51366e-05
9.99194e-06
-1.64505e-05
7.52836e-08
1.63776e-05
-0.000584806
0.00253767
-0.00195287
3.24739e-05
-5.21017e-05
1.96263e-05
0.00467988
-0.00294637
-0.00173361
1.48145e-06
-1.79294e-05
0.0486719
-0.0538838
0.00521186
0.00348586
0.000912957
-0.00439877
0.00646589
-0.0161424
0.0422204
-0.00520571
-0.0370147
-0.00506827
0.00303099
0.00203729
1.62406e-05
-1.11398e-06
-1.51263e-05
0.00293684
0.000112942
-0.00304976
7.18504e-05
-0.000164731
1.2007e-05
4.23347e-06
0.00300701
-0.00995603
-0.000546414
0.00040346
5.73195e-05
-1.2292e-05
-0.00628166
0.00104469
0.00523699
-0.013536
-4.65402e-05
3.78574e-05
4.56867e-07
-3.83147e-05
-0.021826
0.00748636
0.0143396
-0.00289004
0.00129197
0.00967998
-0.00824106
9.81554e-05
-4.91926e-05
-4.89623e-05
0.00421198
-0.00277356
-0.00143841
0.0378245
-0.0127109
-0.0251136
0.0276986
0.0467942
-0.0744927
0.00121889
-0.00121527
-0.00778039
0.00749185
0.000288547
-3.57705e-05
0.00183542
-0.000395816
0.0296374
0.0113164
0.00142241
-0.00315971
-0.00868605
-0.0029275
1.09327e-05
-0.000142182
-0.0335811
0.0376559
-0.00407488
0.00413591
-0.0057014
0.020602
-0.0309148
0.0103127
5.10117e-05
4.71433e-05
5.8247e-05
0.00031063
-0.000368876
-0.092983
0.0279451
-0.00959155
-0.00774919
-0.00045232
-0.00749554
0.00794788
-0.000975793
-0.00261023
-0.000178589
1.53914e-05
-0.000324818
-0.000600206
-0.0197952
0.00325466
-0.00379269
0.00701526
-0.00187726
-0.00190746
0.00111363
5.00759e-06
0.00169225
-0.00220009
0.00050781
0.00244963
-0.000843737
-0.000236885
-2.49637e-05
-7.54527e-05
0.000100414
0.0286614
-0.0402372
0.0115758
5.1019e-05
1.92648e-05
-7.02841e-05
0.00640226
0.00109407
-0.0003448
0.014551
-5.6732e-05
7.56586e-05
-1.89251e-05
-0.000442023
0.000415924
3.40547e-05
-5.51036e-05
-0.0188064
-0.00211488
0.0025668
-0.000601588
9.11641e-06
4.21155e-06
-1.33285e-05
8.11669e-05
5.21541e-06
-6.02254e-05
-0.00610851
0.010019
-0.00138331
0.00377624
-0.00239302
-4.03706e-05
-2.8864e-05
-6.9082e-05
3.82926e-05
3.07894e-05
0.000546273
-0.00036074
-0.000185532
2.76712e-05
0.00290918
0.00115683
-0.00021844
-0.000938392
-0.0034933
0.0214155
-5.26367e-06
-2.60258e-05
3.1289e-05
5.8125e-05
-2.02658e-05
0.00367888
-0.00978733
-5.19238e-06
-2.87677e-06
0.045233
-0.065652
0.0204189
0.000167594
-0.000477872
0.000310279
0.0115851
0.00510822
2.1821e-05
-0.000140868
0.000119047
-0.000152972
0.00028147
-0.000128498
-3.164e-05
-6.87169e-06
3.85111e-05
0.00172888
-0.0162529
7.13176e-05
-3.59943e-05
-3.53232e-05
0.0218671
-3.98466e-05
4.03044e-05
-0.0194728
0.0186728
5.58417e-05
0.000109527
-0.00323334
0.000767214
0.00119311
0.00137369
-3.43503e-05
6.18753e-05
-0.00593155
0.00547923
-0.000359884
0.000345107
1.4774e-05
-7.80293e-05
5.30662e-05
4.06762e-06
-1.04433e-05
6.37405e-06
0.0166265
-0.0202743
0.00364777
-0.00579958
0.00887127
1.20559e-05
-1.19779e-05
0.00153587
0.00759861
-0.0164155
0.00967832
0.00673714
0.000457736
-0.00306042
-0.003032
0.00609241
-0.00189555
0.000344873
-0.0195073
0.0140033
0.00309529
0.00158448
0.0556496
-0.0454086
-0.0149667
0.00143046
-2.29485e-05
6.7265e-05
-4.43145e-05
0.0146606
0.00818168
0.0246277
-0.0328093
3.18098e-05
-5.80611e-06
-2.60046e-05
0.00921959
-0.0714771
0.00327879
0.0160701
-4.71421e-07
3.22801e-05
-0.106148
0.0474429
0.0587051
-7.29446e-05
1.6212e-05
-0.015288
0.0217541
-0.0341256
0.0408209
-0.00669534
0.000187564
-0.000168801
-0.0166742
0.0028564
0.0138178
-3.40193e-06
7.47021e-06
-0.000424816
0.00303564
-6.16688e-05
0.00013352
-0.000421556
0.0190008
0.0787277
-0.0977284
-0.000138456
0.000306051
-0.0139486
-0.00272558
0.0623826
0.0114183
0.00568411
-0.0150022
0.00931807
-2.92595e-05
-5.58557e-05
8.51132e-05
-0.0015773
0.00188612
-0.000308828
0.00564476
-0.00629699
0.000724236
-0.00024713
-0.000477106
-0.0155906
-0.0039167
-0.000197571
-1.78436e-05
1.16599e-05
6.18369e-06
-0.0226381
6.54917e-05
-2.47267e-05
-0.00300485
-0.00206342
-0.0067227
0.0124068
2.7862e-05
-2.47441e-05
-3.11607e-06
-0.00248346
0.00184856
-0.00415593
-0.000199811
0.000120888
-2.44598e-05
-9.64263e-05
0.0160376
0.000579158
-0.00105979
-0.000835772
-5.82571e-05
2.79866e-05
3.02718e-05
-8.86685e-05
1.55416e-07
8.85135e-05
0.00229829
-0.011246
0.00894772
0.0908509
0.0203499
-0.111201
-0.010606
0.00480636
-0.00725329
0.0102603
0.094024
-0.0750232
0.0608184
-0.0155853
4.5582e-05
2.07685e-05
-6.6346e-05
0.0358453
-0.0121243
-0.0237211
-0.020816
-0.0190342
0.0398502
-8.58563e-06
-6.71969e-05
7.57832e-05
0.00267723
-0.000465608
-2.33341e-05
-6.53348e-05
-0.00183581
0.00313406
-0.00129826
5.63102e-05
-8.55712e-05
-2.65712e-05
5.50263e-05
1.86666e-06
-7.98969e-05
-3.59191e-05
-2.58073e-05
6.17283e-05
0.0347606
-0.00561264
0.00490248
0.000710321
-0.00630977
0.0971606
-0.00330946
0.00174559
0.00027585
-0.0279519
0.0151113
0.0128405
7.76339e-06
-2.03394e-06
-5.72891e-06
-0.0200962
-0.0163382
0.0364344
-0.00220524
0.0070191
-0.00481384
-0.0362904
0.0226941
0.0135964
0.000500664
0.00040852
-0.000909189
-0.0187225
-0.0092293
-4.20073e-05
0.000160472
-0.000118461
-0.0749875
-0.0311605
-0.00261726
0.0242852
-0.0443814
0.000434283
-1.06118e-05
-0.00587667
0.0105059
-0.00462914
0.105122
-0.0576794
-0.00333561
0.0164494
-0.0279878
0.0115383
1.1512e-05
8.15707e-06
-0.00503929
0.00143137
0.00360795
4.24596e-05
2.55843e-05
-0.00253601
-0.00477877
0.00731477
-0.0371571
0.0451039
-0.00794692
8.19403e-05
-0.000390002
0.000604547
-0.000214545
5.20479e-06
6.85198e-06
4.91295e-06
2.00231e-05
-2.49359e-05
-0.00474093
-0.0116745
-0.0125522
-0.0189901
0.0315425
-9.87082e-06
2.9595e-05
-1.97231e-05
0.0100768
-0.00189424
0.00773574
-0.10253
0.0947945
-0.0123066
0.0541747
6.12402e-05
-5.93738e-05
0.0148897
-0.0157263
0.000836575
-8.95947e-06
1.61377e-05
-2.60087e-05
-0.00303562
0.00820518
-0.00782735
0.027218
-0.00236696
0.000678263
0.0081393
0.00135876
-0.00949807
-0.000896467
-0.000322897
-0.0171476
-1.29264e-05
8.93987e-06
3.98675e-06
-0.000146699
0.000549779
-0.000403081
0.0176775
-0.00609738
0.00407694
-0.000202493
-0.000198451
0.000400945
-1.00739e-05
-0.00788666
-0.00101448
-0.00290861
0.00392309
2.60789e-05
-6.19966e-05
-0.000225529
0.000416416
-6.98765e-05
0.000142897
-7.30205e-05
0.0202718
-0.0145125
-0.000695367
3.73777e-06
-4.31405e-05
0.000682254
-0.000112177
-0.000570082
-0.00684759
0.0139053
-0.00705771
0.00931274
-0.00701445
8.78615e-05
0.00805143
0.0218406
-0.00521404
-0.000255866
0.0186876
0.0150234
-0.033711
-3.04717e-06
-4.45453e-05
-3.13837e-05
7.59295e-05
0.000123283
-0.000174491
5.12083e-05
0.00435499
-0.00107434
-0.00124184
-0.0030908
0.00433264
2.33409e-05
3.47824e-05
0.000104941
-0.00016661
0.000113185
-9.13648e-05
0.0125951
-0.0165584
0.00396323
-0.0007292
0.000582505
0.00523381
-0.0175404
0.0379034
-0.00325967
-0.0346437
-9.58084e-06
5.51631e-05
-0.00654046
0.00400445
0.0460946
0.0590277
-5.74058e-05
-0.000114511
0.000171921
-6.70399e-06
5.8714e-06
8.32282e-07
-5.30525e-06
1.44218e-05
-6.87497e-05
6.41135e-05
4.63607e-06
0.0106206
-0.014687
0.00406632
-9.38004e-06
-8.78352e-07
1.02587e-05
-0.00173734
-0.00330193
-0.00376867
0.00608287
-0.00231418
-0.00665546
0.00445022
3.42686e-05
5.98024e-05
-0.000757089
0.000395414
0.00036167
1.7858e-05
-1.29449e-05
0.005861
-0.00432513
0.00166315
-0.00355533
0.00189215
0.0742374
0.0221066
-0.00941498
0.0357465
-0.0263315
-0.0010483
2.14075e-05
0.00102685
-0.0401193
0.00653824
9.38469e-06
-2.83197e-05
4.64518e-05
1.46873e-05
-6.11361e-05
0.0733401
0.0147082
-0.088048
-0.00198176
0.00233783
0.00165452
0.000560873
-0.00221539
0.000148511
0.00192804
-0.00207657
0.00348174
0.000800745
0.000448672
-0.0231629
0.0262544
-0.0357748
0.0505529
0.00972318
0.000353601
-3.7215e-05
4.0953e-05
2.59727e-05
-1.39254e-05
-1.20459e-05
5.95595e-05
0.00163269
-2.81121e-05
4.78446e-05
-1.9733e-05
0.0194202
-0.000689833
-0.0187304
0.0232702
-0.00511565
0.000203744
0.000403051
-0.000606795
-1.87717e-05
0.00013152
-0.00132011
-0.00104685
0.00337673
-0.00643714
0.0230703
0.00528494
-0.0283552
-0.00610745
0.0099647
-0.00729767
0.00168515
9.25436e-06
-3.00149e-05
0.016024
-0.0241279
0.00810389
-1.03326e-05
2.35464e-05
-1.32161e-05
-0.000217076
0.000266755
-4.96866e-05
-0.000147214
-0.000635658
0.00078287
-9.76912e-05
-0.000488011
0.000460567
0.000192459
-0.000653025
-0.0525811
0.0272667
5.7076e-05
-3.93705e-05
-1.77065e-05
0.00151231
-0.00150595
-6.3481e-06
-0.00162938
-0.00329554
1.31447e-05
1.79767e-05
-0.000425395
0.000407417
0.00088835
0.000535231
0.00537646
0.0199445
0.00692436
0.0133475
-0.000895463
-0.0026265
0.00352195
-0.00541505
0.0610647
-0.000625464
0.000549904
7.5556e-05
0.00215521
0.000522026
-0.000947531
0.0138444
-0.0128968
0.00472828
-0.00478954
-0.000639809
0.000715507
-0.000357303
0.00033752
2.79913e-05
4.22724e-05
-0.0139815
0.00504582
0.00893572
5.3894e-05
0.000599176
-0.00065307
-6.12502e-06
-6.80274e-06
-0.000288835
-1.11358e-05
0.000299973
0.000449577
-0.000245833
-4.20753e-05
-2.66743e-05
-0.0320355
0.0112196
-0.00249698
0.00602974
0.00246379
-0.00335926
0.00181292
0.00931081
-0.0111237
2.08165e-05
3.4163e-06
-2.42304e-05
-0.00533576
0.0015671
0.00333935
-0.00296032
-0.000379017
0.018704
0.0223098
-0.0410137
-0.000104523
2.68373e-05
7.76876e-05
-0.00042729
-6.28282e-06
-6.42752e-05
7.05585e-05
-0.000329008
3.03972e-05
0.00029861
9.54497e-06
-1.49408e-05
0.00950272
-0.0158193
0.00631657
-0.00174663
0.00189513
0.0348683
-0.000298729
0.000394983
3.47201e-05
0.00294406
2.22985e-05
2.07385e-05
0.00310107
0.000238286
-0.000115791
4.59143e-05
-0.000141926
-0.000187082
0.00136188
0.000150431
0.0262531
0.00448239
-0.0646617
-0.00502606
0.0696878
-0.00516164
-0.000849917
0.000784261
3.44892e-05
-5.68747e-05
-4.76489e-05
-5.59613e-05
-0.000992373
9.17003e-05
-7.55937e-05
-1.61061e-05
-0.00819368
-0.117091
0.016756
0.00651419
-0.0131167
-0.00397229
0.0170889
-3.85002e-05
1.28558e-06
0.0795815
-0.0495267
-0.00701985
-0.0602833
0.0673032
1.71152e-05
-0.000152639
0.0029147
-0.00179189
-0.00112281
-0.00570507
-0.00249605
-0.000403185
5.45175e-06
3.49669e-05
0.000999569
-4.54675e-05
3.80098e-05
7.45893e-06
-0.0121431
0.0314305
-0.000198617
-0.00497634
0.00517499
0.000271902
-0.000837838
0.000565935
-0.0328468
-0.000300908
-0.000456184
4.53837e-06
-3.7466e-06
-0.00033447
0.000795035
1.44756e-05
1.21485e-06
0.000599746
8.25071e-05
5.24088e-05
-9.74164e-05
4.50075e-05
0.0542314
-0.0237386
-0.0304928
0.0214153
0.0328161
4.15577e-06
-7.12676e-05
6.71119e-05
-3.18231e-06
-1.55667e-05
1.87476e-05
5.10634e-05
-5.73474e-05
-0.00186252
3.4377e-05
-2.28195e-06
-3.20938e-05
0.00612225
0.0319502
-0.0413652
0.00175986
-0.00277434
9.43662e-05
4.85313e-05
0.000259774
-0.000145811
-0.000113963
-3.85938e-05
-4.28728e-06
0.00108838
0.00512987
0.0183836
-0.0114592
-0.00123926
-0.00511394
0.00635325
-0.0103346
0.000232917
-3.13707e-05
-0.000201545
-0.00664442
0.0803699
-0.0558332
-0.0156439
0.0157147
-0.0282669
-0.000146956
3.4087e-05
0.000112869
0.000299346
-0.000310481
0.0131484
-0.0227308
0.00958237
0.00181436
-0.000950734
-0.000863634
0.00242035
-0.00550419
0.00308387
-5.58036e-05
1.89799e-05
3.68214e-05
-1.0054e-05
6.73883e-07
2.00453e-05
-1.61953e-05
-3.84932e-06
-0.00321421
0.00242907
0.00724272
-0.000212032
5.90607e-05
0.00105381
0.00043943
-0.00149324
0.00376619
-0.005779
0.00201281
1.33553e-05
1.65192e-06
0.00579906
-0.0108651
0.00506604
-0.0324545
0.0351182
-0.0026638
0.0329882
-0.068763
-2.89954e-05
-0.0333451
-4.37662e-05
-2.91777e-05
-0.00147819
0.000852251
0.000625942
0.00427309
-0.00888686
0.0046138
1.73061e-06
4.6878e-06
2.75689e-05
-3.11186e-05
3.5516e-06
-0.0712584
0.0570014
-0.00566336
-0.00893361
0.00406899
-0.00164861
0.0396143
-0.00989646
-0.0297176
-2.93083e-05
0.000740729
-0.00071142
5.15049e-05
0.000247841
0.00550183
-0.000539022
0.000592918
0.0850625
-0.0773267
0.014324
1.06184e-05
-6.40681e-06
8.14884e-06
-4.47375e-05
-0.0111121
-0.0076102
5.9241e-05
0.000157838
-0.000217079
0.00469697
-0.0142885
0.000775222
-0.000175478
0.039517
-0.0220197
-0.0174974
0.00233163
-0.00191466
-8.97723e-05
0.0275472
-0.0450081
0.0174609
-0.000741138
-0.00176259
0.00846327
-0.00670069
-0.000373931
0.000246468
0.000127463
-0.0326301
0.0412101
-0.00858001
-0.00620017
-0.00357904
0.0039799
-0.0298806
0.0259007
-0.01438
3.18748e-05
3.55216e-05
-5.93561e-06
-7.68205e-07
2.34984e-05
0.0349241
-0.0192092
0.0243062
-0.0148036
0.0312521
8.52895e-05
-3.8866e-05
-4.64231e-05
0.0103492
-0.0175979
-0.0209414
0.0385393
2.39843e-05
3.58516e-06
-2.53808e-05
4.84134e-05
-3.82781e-07
-0.0230851
-0.0324508
-8.87487e-05
-0.00170524
0.0063688
-0.00466355
0.0216962
-0.00227601
-0.00155592
-4.98957e-05
3.49577e-05
1.49402e-05
-0.00482112
0.0143424
4.12917e-05
-0.00029415
0.00025286
-0.00784174
0.0340337
-0.0261919
-4.25464e-05
3.96217e-05
2.92461e-06
-0.0103348
0.0150317
-0.014371
-0.00121966
-0.0219705
-0.030441
0.0524115
-0.0889352
0.033102
-7.56009e-05
-2.26143e-05
9.82151e-05
4.89667e-05
-8.41176e-05
-0.000270424
-0.0048912
-1.56879e-05
-3.07086e-05
-0.000358113
-1.58181e-05
0.00885441
-0.00259584
-0.00625856
-0.00434744
-0.0280508
0.0323983
1.20838e-05
1.38884e-05
-1.6547e-05
-0.000157963
0.000174506
0.00025083
-0.000234018
-1.68262e-05
0.00203601
-0.0666977
-0.00539968
-0.0798529
-0.0258099
-0.0183215
0.0441314
0.0139421
-0.00222171
0.000780355
0.00144135
0.00649507
0.000486236
0.0157641
0.0218919
-0.000484214
0.00263942
-0.00203134
0.0137472
0.0109235
-0.0108356
0.00154926
0.00136544
0.00374348
-0.00394206
0.0186948
0.0185028
-0.014902
0.0183495
-0.00344754
-0.00398266
0.00554583
-0.00156317
0.0205269
-1.75589e-05
1.22537e-05
-0.000509711
0.00156352
0.00523454
-0.00414617
-0.00304156
0.0072251
-0.0089877
-0.000587701
1.4652e-05
0.000172822
0.015416
0.0411993
-0.00201258
0.00147401
0.000538563
-0.022486
0.00811495
0.000108142
0.00027518
-0.000383323
0.00175658
6.04725e-06
1.76754e-05
-2.37235e-05
0.036201
-0.062579
0.0263781
-0.00146698
0.0299972
0.0610932
0.000911203
0.00970941
-0.000429791
-0.000195675
-0.0109152
0.0570203
-0.0461051
-0.00349419
-5.41037e-05
0.00354831
-5.63711e-05
-0.0875946
0.0434244
0.0441702
0.00941067
0.00293612
-4.54148e-05
0.000750656
2.45642e-05
-0.0415
0.00117107
-0.00212564
0.0376694
-0.0130417
-2.57169e-05
1.53837e-05
-0.0205806
0.0383703
-0.0177896
0.00238297
-0.000833714
0.000420317
-0.000439322
2.99695e-05
1.72523e-05
-4.7222e-05
0.0568356
-0.0206346
-1.90126e-05
0.000123955
1.80464e-06
-8.10132e-05