/*--------------------------------*- C++ -*----------------------------------*\
| =========                 |                                                 |
| \\      /  F ield         | OpenFOAM: The Open Source CFD Toolbox           |
|  \\    /   O peration     | Version:  v2012                                 |
|   \\  /    A nd           | Website:  www.openfoam.com                      |
|    \\/     M anipulation  |                                                 |
\*---------------------------------------------------------------------------*/
FoamFile
{
    version     2.0;
    format      ascii;
    class       surfaceScalarField;
    location    "150";
    object      ddtCorrDdt0(phi);
}
// * * * * * * * * * * * * * * * * * * * * * * * * * * * * * * * * * * * * * //

dimensions      [0 3 -2 0 0 0 0];
oriented        oriented;


internalField   nonuniform List<scalar> 
27506
(
3.39845e-06
4.08793e-05
-4.42744e-05
-7.78151e-07
7.52591e-07
2.55544e-08
3.28336e-06
-1.0446e-06
-2.2385e-06
2.13831e-05
-3.78218e-06
-1.76013e-05
8.76414e-06
-1.13161e-05
2.55245e-06
-4.03289e-05
1.53766e-05
2.49524e-05
1.20598e-05
-3.29546e-06
8.71295e-06
1.54321e-05
-2.41439e-05
-1.79589e-05
3.65267e-05
-1.85707e-05
-6.59044e-07
-6.67313e-06
7.33223e-06
5.82226e-07
7.20668e-06
-7.78871e-06
4.25599e-06
-1.26785e-06
-2.98794e-06
-1.38202e-05
-1.60996e-05
2.99189e-05
1.29203e-06
1.0821e-06
-2.37398e-06
-3.70561e-05
3.58207e-05
1.23447e-06
4.49074e-05
-2.36557e-05
-2.1251e-05
1.62649e-05
-1.82054e-05
1.94092e-06
-2.97153e-06
-6.82103e-06
9.79272e-06
-1.08121e-05
-9.77066e-08
1.09098e-05
5.11694e-05
-4.47414e-05
-6.42755e-06
-7.6446e-06
1.37374e-05
-6.09317e-06
5.24791e-07
-4.12412e-06
3.59918e-06
1.77787e-06
-1.43534e-06
-3.42483e-07
1.75949e-05
-0.000108185
9.05924e-05
-1.83759e-05
2.709e-05
1.21827e-06
1.14193e-05
-1.26374e-05
5.89279e-05
-6.36081e-06
-5.25659e-05
5.52643e-05
-1.68206e-05
-3.84428e-05
2.53374e-05
-9.66031e-06
-1.56767e-05
6.49032e-05
-7.80521e-05
1.31487e-05
-7.01218e-07
-7.69091e-08
1.44919e-06
-8.83377e-07
-5.65986e-07
8.75117e-05
9.84366e-06
-9.73554e-05
0.000159336
-7.91043e-05
-8.02364e-05
8.27803e-06
-1.19883e-05
3.71028e-06
1.01863e-05
1.11966e-05
1.35487e-06
-8.28481e-07
2.86419e-07
7.83819e-07
-1.07029e-06
2.22872e-06
9.04734e-08
-2.31919e-06
7.56533e-07
-1.65921e-05
1.58342e-05
1.76071e-06
-1.12177e-06
-6.38931e-07
-2.23839e-06
1.89862e-06
3.39793e-07
-1.09779e-05
1.12206e-06
9.85591e-06
-6.02913e-05
7.06513e-05
-1.03576e-05
2.30709e-05
3.21937e-05
-1.05491e-05
1.17675e-05
-1.39823e-05
4.44148e-05
-3.04325e-05
2.09495e-06
1.18875e-06
-1.41594e-05
6.51471e-06
3.51771e-05
-2.29605e-05
-1.2216e-05
-1.25024e-06
2.5423e-06
2.57198e-05
-2.57686e-05
4.93008e-08
2.78451e-05
2.33245e-05
2.77879e-07
4.03631e-07
-6.81546e-07
-1.29808e-05
1.31312e-05
-1.50057e-07
2.71958e-05
-4.68103e-05
1.96151e-05
9.5554e-06
-2.33762e-05
2.336e-05
-1.73423e-05
-6.01726e-06
-3.27847e-05
5.84907e-05
-2.57062e-05
-2.41588e-06
-8.39439e-07
-1.96977e-06
2.80939e-06
1.2288e-05
-8.53294e-06
-3.75504e-06
1.06595e-05
-1.26069e-05
1.94763e-06
1.98512e-05
-2.17301e-05
1.8804e-06
1.47287e-06
4.16254e-05
-4.30975e-05
-2.40553e-07
-3.38209e-06
3.62232e-06
-1.90806e-05
1.889e-05
1.90527e-07
-1.38831e-06
7.10897e-07
6.77346e-07
5.10006e-05
-5.28505e-05
1.84985e-06
1.85884e-07
-1.99273e-06
1.80714e-06
-1.95586e-05
-2.00789e-06
1.23303e-05
-1.03225e-05
-9.34995e-05
0.000103284
-9.78409e-06
1.53541e-05
8.0062e-06
5.84357e-05
1.22286e-05
-7.06637e-05
1.3187e-05
-2.13658e-05
8.17883e-06
1.82592e-05
-1.99412e-06
1.08429e-06
-1.17176e-06
8.7489e-08
7.35615e-06
-1.03272e-05
2.18802e-05
-9.75112e-06
-1.21287e-05
8.55411e-06
-1.00609e-05
1.50666e-06
-7.26385e-07
6.96269e-05
-6.89e-05
-1.22109e-06
6.2226e-08
1.15888e-06
6.46722e-05
0.000112297
-0.000176973
2.95662e-06
-3.79589e-06
-8.25924e-06
-1.77018e-05
2.59597e-05
-7.65205e-06
5.40134e-07
7.11195e-06
2.24112e-06
-1.94261e-06
-2.98557e-07
6.0576e-06
-1.14515e-05
5.39376e-06
-3.48601e-05
2.6601e-05
-1.09692e-05
-1.1418e-05
2.23876e-05
-2.16273e-05
3.84833e-06
1.77804e-05
1.34805e-05
1.98855e-06
-1.54691e-05
-2.27826e-06
1.82347e-06
4.54765e-07
-1.32751e-05
8.93677e-06
4.33858e-06
-6.52106e-06
5.86193e-06
-7.61846e-06
-2.48905e-06
1.01076e-05
1.33963e-05
3.64364e-07
-1.37615e-05
7.50381e-06
-3.77889e-06
-3.72372e-06
-5.21165e-06
1.59352e-06
3.61845e-06
-4.18313e-06
2.75656e-06
1.42682e-06
7.74306e-07
-8.68786e-07
9.4575e-08
8.75453e-06
1.3126e-05
-1.82827e-06
4.67353e-05
-1.42701e-06
2.54362e-05
-2.40113e-05
2.84669e-06
8.46651e-05
-3.03754e-06
-1.1456e-06
1.05846e-05
-5.95158e-06
-4.63322e-06
1.14906e-05
-8.31011e-07
-1.47491e-06
-7.17089e-06
8.6456e-06
1.00221e-05
-1.00159e-05
-4.63008e-05
9.44734e-05
-4.81795e-05
1.10994e-08
1.07317e-06
1.18805e-05
-2.81944e-08
-1.18521e-05
-4.97755e-05
3.4227e-05
1.55488e-05
-1.15738e-05
-2.35083e-06
1.39246e-05
1.11952e-05
-1.51945e-05
3.99951e-06
1.43599e-05
-9.63689e-07
1.1231e-05
-2.95304e-06
-1.8507e-05
-2.18218e-05
-1.19662e-06
-9.61548e-06
-8.60672e-05
3.249e-05
5.35775e-05
-6.37938e-06
1.90594e-05
-1.26804e-05
-8.81388e-06
-3.78578e-05
4.66714e-05
3.78478e-07
-1.53986e-06
1.16137e-06
3.35468e-06
2.19826e-05
5.23449e-05
-4.21423e-05
-1.0203e-05
1.17482e-05
-2.25389e-06
-9.49446e-06
-1.1627e-05
6.4917e-07
2.04374e-05
-7.25005e-06
2.41759e-05
-9.60128e-06
-1.45745e-05
-1.25577e-05
9.84112e-07
-2.25708e-05
8.10071e-05
-7.29469e-05
8.64797e-05
-1.35325e-05
2.62942e-06
-5.34495e-07
4.47383e-07
-5.80254e-07
1.32949e-07
8.1319e-06
-7.54992e-06
-2.26324e-06
-9.68492e-06
1.19482e-05
-1.06304e-05
5.30292e-06
5.32738e-06
-3.82261e-06
3.58253e-06
-3.6375e-05
3.7848e-05
4.46676e-06
-3.00898e-05
2.56236e-05
-7.81265e-06
-1.9196e-05
2.70093e-05
-1.27269e-06
-5.74416e-06
2.23058e-06
3.51374e-06
-2.24771e-06
-1.10161e-07
2.3581e-06
7.23263e-06
4.51126e-05
-1.08116e-06
-7.18653e-05
-1.09616e-05
8.69842e-06
-5.39273e-05
-3.21394e-05
1.01283e-06
-1.35122e-06
3.38283e-07
-2.70647e-06
-6.59365e-06
9.30023e-06
3.39433e-06
-3.73593e-06
3.42013e-07
4.17813e-05
-3.7542e-07
-4.14065e-05
-3.90899e-05
8.10242e-06
3.09861e-05
-1.86625e-05
7.03774e-07
4.98255e-05
-5.05517e-05
-3.24606e-06
-2.49782e-06
3.49745e-06
9.60527e-07
-4.45788e-06
9.18457e-06
1.40101e-06
0.000106068
-4.75159e-05
-5.85523e-05
-2.68433e-05
4.14335e-05
-1.45897e-05
7.45072e-07
3.26177e-06
-4.00683e-06
1.98716e-06
6.4253e-07
8.64844e-06
-8.74623e-06
1.05889e-06
3.1976e-06
-6.99733e-05
4.47137e-05
2.52624e-05
1.12433e-06
1.06238e-05
-7.22261e-06
-2.98335e-05
-7.35842e-07
-5.39684e-06
6.13268e-06
2.05665e-06
1.84432e-07
1.11798e-05
-2.92889e-05
1.81097e-05
1.0703e-05
-3.93695e-06
-6.76604e-06
-4.81275e-06
1.08704e-05
5.71929e-06
7.29112e-07
-6.44813e-06
-9.33613e-06
-4.26073e-05
5.19441e-05
8.22131e-06
4.06675e-06
3.98878e-05
-3.73063e-05
-2.5814e-06
-2.17934e-05
-1.72967e-05
-4.71337e-05
-5.98969e-06
5.31228e-05
1.30414e-05
-6.12279e-06
-6.91859e-06
-4.76555e-06
-9.00945e-06
1.37752e-05
-4.97245e-05
2.28817e-05
-1.40509e-05
-7.57523e-06
3.07811e-06
-9.52398e-06
6.4444e-06
-6.70193e-05
6.75027e-06
6.02682e-05
-4.80485e-07
-7.33568e-06
7.81622e-06
4.23124e-06
4.80593e-06
-9.03668e-06
3.98666e-05
-2.6333e-05
-1.35335e-05
-1.81496e-06
1.30102e-05
-1.30325e-05
2.42122e-05
1.01857e-05
-1.6316e-06
0.000118871
-6.10659e-05
-5.78041e-05
1.45957e-06
-1.08114e-06
-1.48898e-05
1.41567e-05
7.33148e-07
-4.74832e-07
3.97236e-06
-5.36961e-05
8.2051e-06
4.5491e-05
-8.58152e-05
6.03047e-05
2.5511e-05
-8.39796e-05
0.000148651
9.88237e-06
-1.09711e-05
1.08907e-06
-9.25555e-07
-1.05076e-05
1.14333e-05
-1.28389e-05
5.15755e-06
7.68058e-06
6.95244e-06
5.85802e-06
-1.28103e-05
1.39762e-05
2.12011e-05
5.98782e-06
-2.97549e-05
2.37673e-05
-8.72668e-05
4.0971e-05
3.47534e-06
1.98985e-06
-5.46545e-06
-3.99392e-06
1.41799e-05
-3.16389e-05
-2.61099e-05
5.77489e-05
7.45195e-06
1.14909e-05
-1.89414e-05
1.07243e-06
3.76763e-07
-2.60574e-05
3.58672e-05
-9.80979e-06
3.64951e-05
3.39265e-06
1.78164e-06
-3.74962e-06
1.96804e-06
1.43333e-05
-8.52772e-07
1.52423e-05
-4.40083e-06
-1.08412e-05
-4.84043e-05
3.95904e-05
7.85533e-06
1.88488e-05
-2.6704e-05
-7.42387e-05
9.18423e-05
-1.7699e-05
-7.11827e-05
8.88817e-05
3.02688e-06
-2.90844e-05
-9.83193e-06
-7.56118e-06
1.73933e-05
-2.21488e-05
1.79485e-05
4.20036e-06
5.92242e-06
-1.29859e-05
7.06434e-06
2.78007e-05
-4.17829e-05
8.64861e-06
-1.86881e-06
1.02481e-05
-8.38037e-06
-9.03494e-06
1.64872e-05
3.63293e-05
1.46714e-05
5.01339e-05
-3.71201e-05
-1.30133e-05
3.85994e-06
-1.14784e-05
1.79181e-05
-3.85408e-05
2.06236e-05
-8.3176e-05
-1.03232e-05
8.77747e-06
-1.12665e-05
-2.59807e-06
3.34316e-06
-9.76446e-06
1.37606e-05
-3.9954e-06
3.31764e-07
-1.19439e-06
8.62687e-07
-2.66722e-06
-7.73286e-06
1.04004e-05
3.75648e-05
6.85037e-05
1.19797e-05
-5.02723e-06
-2.21741e-05
3.15542e-06
1.90187e-05
1.46147e-05
-5.70616e-05
4.24472e-05
-2.15834e-05
8.89985e-06
1.26839e-05
-1.09697e-05
9.10141e-06
2.44494e-05
-1.8461e-05
4.59747e-05
1.58621e-06
-4.756e-05
9.47351e-07
8.13352e-07
-3.33191e-07
2.48354e-06
-2.15058e-06
-2.47988e-06
1.01233e-05
-7.6438e-06
-8.66742e-06
-9.21892e-08
8.7597e-06
-2.13922e-05
1.60322e-05
5.35997e-06
-5.43225e-05
2.26837e-05
3.53647e-06
-3.12723e-06
-4.09222e-07
-7.56073e-06
4.85433e-06
7.57288e-06
-4.49516e-06
2.18151e-05
-1.96402e-06
2.62659e-05
-3.27556e-05
6.48906e-06
2.182e-05
-8.22246e-06
-1.35982e-05
3.19837e-06
-2.13965e-06
-0.000115501
-3.46639e-05
0.000150164
1.90263e-05
2.7891e-06
-1.87044e-05
-2.62349e-05
4.49403e-05
1.12364e-06
-9.1793e-06
8.05573e-06
-1.06244e-05
-1.00819e-05
-1.53282e-05
1.41661e-05
1.16179e-06
7.05204e-06
-9.53208e-06
8.78059e-06
1.16399e-05
-2.04205e-05
1.25134e-05
2.26602e-05
-3.51717e-05
-9.34692e-07
3.71561e-06
-1.93402e-06
8.31988e-06
-7.49466e-06
-8.24966e-07
-1.29685e-05
-5.40511e-05
-1.16232e-05
4.52589e-06
7.09764e-06
-9.70369e-06
6.51471e-06
3.1891e-06
-5.77556e-05
1.26065e-06
5.64955e-05
2.95524e-05
5.24005e-06
-3.47931e-05
3.77782e-06
-3.83611e-07
-7.33876e-06
-8.58786e-06
1.59256e-05
9.53678e-06
-2.05053e-05
5.33985e-08
-3.19872e-06
3.14538e-06
5.49936e-06
-6.8484e-06
1.34901e-06
1.96113e-05
-2.68339e-05
1.03977e-05
-2.71119e-06
-7.68626e-06
1.20765e-06
-8.75875e-07
1.55076e-05
4.32894e-06
-1.98368e-05
1.80059e-06
-1.61447e-06
4.39124e-07
-5.68669e-06
5.24453e-06
1.88778e-05
3.12564e-05
1.437e-05
-2.22074e-05
7.83713e-06
-9.70863e-05
4.47957e-05
5.22907e-05
-7.99416e-06
0.000108154
-0.000125852
-1.79867e-05
8.59258e-06
9.39448e-06
-8.26965e-07
8.89201e-07
5.47614e-05
-8.11995e-05
2.64377e-05
-8.25979e-05
-3.10814e-06
8.57071e-05
-4.27834e-05
-4.30314e-05
-1.14747e-05
-3.83608e-05
5.20229e-05
-1.36616e-05
1.00001e-06
-1.58899e-05
6.29914e-06
-9.44545e-06
3.14634e-06
6.25991e-05
-3.38347e-05
-2.87642e-05
0.000131732
0.000126208
-0.000257942
-1.68162e-05
1.41169e-05
2.70212e-06
2.08092e-05
-1.85621e-05
-2.24704e-06
1.68049e-06
-2.21971e-06
5.3927e-07
-2.7394e-05
5.21978e-06
1.10253e-06
-8.97759e-08
2.36004e-05
-1.78401e-06
1.46121e-06
-3.88754e-07
0.00017454
-0.000183432
8.89202e-06
5.60152e-07
3.23328e-06
-3.79375e-06
3.23364e-05
-2.78406e-06
-4.64635e-05
1.58648e-05
-3.99618e-05
2.40968e-05
5.60192e-06
-1.14737e-05
5.87004e-06
2.65634e-05
9.25712e-06
-8.02009e-07
1.25459e-06
-4.52961e-07
-9.59347e-06
-1.25537e-05
2.77958e-06
-4.55045e-06
1.77077e-06
-1.15086e-07
-1.57371e-05
1.58521e-05
-6.6562e-06
7.76043e-07
5.8793e-06
-9.5869e-06
9.19557e-07
-4.5771e-05
1.29865e-05
-5.0884e-06
1.09092e-05
-5.82049e-06
-2.63953e-06
9.44379e-07
1.69488e-06
-6.83762e-06
3.51197e-05
-2.82815e-05
1.08481e-05
1.03251e-06
2.02002e-06
2.87098e-07
-2.30684e-06
1.50222e-06
4.1628e-07
-1.91839e-06
-2.58094e-06
2.87483e-05
-2.42812e-05
-3.2431e-05
3.82082e-05
-5.78061e-06
8.78926e-06
-1.14564e-05
1.15193e-05
1.26568e-05
1.8849e-05
1.58858e-06
5.72055e-06
-6.45663e-06
-4.48023e-06
2.42222e-06
2.05799e-06
1.87615e-05
-4.03959e-05
2.16375e-05
-1.11908e-05
-5.62463e-06
3.73765e-06
1.15044e-05
-2.09174e-05
1.31052e-05
-3.82319e-06
7.96166e-06
-4.13819e-06
-1.93461e-05
2.65448e-07
-1.69111e-05
3.92874e-07
1.652e-05
-2.27778e-05
1.82959e-05
4.48178e-06
3.36524e-06
-3.31176e-06
5.81753e-06
-1.56493e-05
4.71051e-06
4.25086e-06
-8.96121e-06
8.51289e-07
1.60452e-05
-1.68962e-05
3.31004e-05
-1.27946e-05
-2.03062e-05
2.23737e-06
-4.41697e-06
2.17952e-06
7.79487e-05
-2.3187e-05
4.64989e-06
2.72805e-06
-7.37781e-06
-6.0328e-06
4.58206e-06
1.45064e-06
7.34856e-06
3.66967e-05
-4.40462e-05
-1.89798e-06
3.94859e-06
-2.0507e-06
-3.01316e-07
-3.43435e-06
1.40091e-06
-4.59377e-06
3.19284e-06
5.59265e-05
-0.000171428
-0.000101566
1.89684e-05
1.9521e-06
3.50025e-08
-4.98681e-07
2.17921e-06
6.20971e-06
6.83177e-06
4.49365e-05
-1.07093e-05
-1.73489e-05
1.07468e-05
6.60254e-06
-3.56934e-06
7.97161e-07
-1.00444e-06
-1.23384e-06
-5.99146e-06
5.94752e-07
2.02497e-06
-1.55583e-06
-4.69186e-07
3.08201e-05
-5.19844e-06
-2.56227e-05
5.18987e-07
-2.26665e-06
1.74749e-06
-1.74653e-05
9.4543e-06
8.01117e-06
-5.17283e-06
-3.70666e-06
8.87947e-06
-2.2429e-06
-0.000117657
0.000249387
2.6679e-07
8.65018e-05
-0.000298215
0.000211712
1.27451e-06
9.12332e-06
-0.000131233
-7.95903e-05
0.000210825
-3.341e-05
7.90261e-05
-4.56158e-05
1.11263e-06
-1.01993e-08
-7.70485e-06
-1.36873e-05
4.40743e-05
-2.61557e-05
-9.12581e-06
-2.24985e-06
1.13756e-05
2.18289e-06
-2.29285e-06
-2.17367e-06
-1.67613e-05
1.89346e-05
1.44434e-05
5.04604e-05
7.30857e-07
-5.43494e-07
-1.87374e-07
-3.7303e-05
-1.73771e-05
5.46802e-05
-4.10565e-05
2.44754e-07
8.6777e-07
-5.25236e-06
1.116e-05
-5.90767e-06
3.97476e-05
2.28517e-05
1.52473e-05
1.55738e-05
-1.3096e-06
-5.85131e-07
1.89476e-06
-3.86355e-05
3.91456e-05
-5.08227e-07
-2.09424e-05
1.69482e-05
3.39837e-07
3.91004e-07
-2.15563e-06
2.59355e-06
-1.52698e-05
-4.84914e-06
2.01202e-05
-2.8484e-05
-4.14874e-05
-5.50209e-06
1.02119e-05
6.59929e-06
-7.17153e-06
5.72185e-07
-9.95112e-06
-1.37147e-05
2.36664e-05
4.29974e-06
-4.61777e-06
3.18611e-07
0.000124282
-0.000185589
6.13071e-05
6.56042e-06
-1.29399e-05
-7.41709e-06
-4.29641e-07
7.84681e-06
0.000125839
-1.6765e-05
-0.000109074
-0.000188969
5.77328e-05
1.27808e-06
2.25849e-06
-2.33953e-06
1.91502e-06
3.73103e-08
-3.09369e-05
2.09862e-05
8.05868e-07
7.86217e-06
-8.66699e-06
4.74844e-06
-2.32624e-06
-3.43419e-05
-1.2468e-05
-1.00442e-05
-1.15389e-05
-2.89658e-05
-3.46651e-06
5.55686e-06
2.07681e-06
-7.6333e-06
4.50247e-05
4.85081e-07
4.26447e-06
2.14554e-05
4.44349e-07
9.06991e-07
-1.35151e-06
4.06416e-05
-6.00231e-05
1.93824e-05
-1.12352e-06
1.56789e-06
5.61505e-06
-1.08837e-05
5.26888e-06
1.27958e-05
-7.30368e-06
-5.49211e-06
-1.25983e-05
1.07832e-05
1.71336e-06
-2.11105e-07
1.69637e-05
-3.76339e-05
2.06707e-05
4.61607e-06
3.11647e-05
-3.57803e-05
3.46251e-05
-2.21118e-05
-9.35996e-06
5.26189e-07
8.83383e-06
7.50411e-06
3.6448e-08
1.74144e-06
-1.12264e-06
-1.38762e-06
2.50993e-06
-4.87095e-05
4.01042e-06
-2.40775e-06
-1.6026e-06
-2.05251e-05
1.83507e-05
6.48292e-06
-7.95776e-06
1.04628e-05
-4.54041e-06
6.91867e-06
-2.9204e-06
-3.9981e-06
-1.97854e-06
-1.16055e-06
3.13909e-06
-5.70673e-06
2.6299e-06
3.07688e-06
-9.31201e-06
9.39275e-06
-8.06952e-08
6.84603e-07
6.23421e-06
1.20645e-06
1.99146e-06
-1.38842e-07
-1.89473e-06
2.03418e-06
-4.56332e-05
-6.0175e-06
5.1651e-05
-5.69168e-06
-3.29432e-05
3.09328e-07
1.38222e-07
1.65076e-06
1.0366e-06
-2.68715e-06
-3.44129e-06
1.37217e-06
2.06855e-06
-8.64615e-06
1.29359e-06
-5.85802e-05
9.8891e-06
4.86919e-05
-3.22874e-06
-1.42749e-06
8.20245e-06
-6.77462e-06
5.89292e-05
8.27695e-06
-1.76179e-05
9.34078e-06
-1.78925e-06
7.50865e-06
-3.65365e-05
2.96991e-05
-1.00651e-05
-2.11411e-06
3.26886e-06
-1.15475e-06
1.18653e-05
2.46797e-06
3.76698e-05
-4.70057e-05
-2.57322e-05
1.46477e-05
1.10846e-05
9.12401e-05
-4.60531e-05
-4.51863e-05
6.52824e-06
-6.42836e-05
2.18086e-05
-2.09577e-05
1.46299e-06
2.06442e-06
-9.3541e-06
7.28977e-06
-4.83511e-06
2.10219e-05
-1.61866e-05
3.23736e-05
-5.51527e-05
7.15566e-07
1.49146e-06
-2.20636e-06
4.41955e-05
-2.723e-05
8.83611e-07
-1.09311e-07
-2.90082e-06
1.37403e-05
-1.08386e-05
-9.54487e-07
-1.32369e-06
5.10039e-06
-1.244e-05
1.74351e-06
5.41881e-07
-2.28488e-06
2.52476e-05
-1.64679e-05
-1.06238e-05
7.81555e-06
2.80839e-06
-1.20734e-05
-1.36586e-05
8.45049e-06
2.7805e-06
4.60935e-05
-6.86638e-05
5.03974e-06
-2.26013e-06
4.20611e-06
-2.98032e-06
-1.22571e-06
-4.94827e-06
-4.75518e-06
-8.91234e-06
3.22442e-06
2.60237e-05
-7.78144e-05
5.17911e-05
1.31862e-05
-1.24298e-05
5.1977e-06
-7.22345e-06
2.02594e-06
-0.000112338
2.21473e-05
9.01746e-05
-1.56386e-05
1.70804e-05
-1.44151e-06
1.1078e-05
-2.29689e-07
2.67217e-05
-4.54268e-05
4.09938e-05
-1.63122e-05
-2.46811e-05
7.70028e-07
7.36196e-06
1.1897e-06
3.11809e-05
-1.13229e-05
-7.23072e-06
1.85538e-05
-2.49885e-06
-1.09519e-05
1.88072e-05
2.43028e-07
1.11926e-06
-1.36232e-06
-7.79956e-06
1.83414e-05
1.47592e-05
-4.41114e-06
3.46119e-06
9.49874e-07
-1.48709e-05
1.57482e-06
1.32967e-05
4.07259e-05
-3.1909e-05
-8.81696e-06
-1.12245e-06
7.4216e-06
-7.19433e-06
-1.45187e-06
1.57153e-07
1.74149e-06
1.26641e-05
0.000113176
-9.06051e-05
7.23751e-05
1.82296e-05
-1.0301e-05
5.12805e-06
4.39059e-06
-1.03822e-05
5.99166e-06
6.11423e-07
-6.86523e-07
7.51251e-08
3.75353e-05
-7.85878e-05
4.10507e-05
-5.86476e-07
-8.01823e-07
-2.76198e-06
-8.86081e-06
-8.90551e-07
-6.74377e-07
1.56472e-06
-2.57666e-06
2.14258e-05
-4.49507e-05
6.59015e-06
-2.14449e-05
6.75387e-05
-1.69544e-06
2.41098e-06
-2.35811e-06
2.1116e-06
2.4648e-07
1.83956e-05
-4.02573e-06
-1.07179e-07
7.18567e-07
-6.398e-06
-1.25405e-06
4.57197e-05
-4.28612e-05
-2.85807e-06
4.83282e-05
-3.37135e-05
-1.14019e-05
-6.58475e-06
-1.90613e-06
-1.35162e-07
7.17131e-07
-5.82025e-07
3.82352e-06
-3.26317e-06
-4.87101e-05
3.42349e-05
1.44794e-05
-3.06707e-05
-1.6463e-05
1.06597e-05
-1.41225e-05
3.46261e-06
-2.03313e-06
-4.81458e-06
6.84778e-06
-3.98235e-06
2.25204e-06
1.73031e-06
-6.94442e-06
1.14636e-05
-4.5194e-06
-4.53487e-06
-1.29306e-05
6.77702e-06
-1.3242e-05
6.46508e-06
-1.52957e-05
-2.08159e-05
-3.12187e-06
1.42659e-06
1.18108e-05
-9.74619e-06
-2.19697e-05
-2.67398e-05
-4.82119e-07
9.8284e-06
-9.34637e-06
-1.79131e-05
4.29991e-07
1.74841e-05
5.41335e-06
-9.30513e-06
3.89245e-06
1.4527e-06
4.62283e-07
-4.79674e-05
-4.91187e-05
-1.50805e-05
3.77406e-05
2.1257e-06
-3.8199e-07
-5.83198e-05
9.00554e-06
4.93144e-05
4.84569e-05
-8.20838e-05
4.86739e-05
7.3229e-06
3.42288e-06
-1.07458e-05
3.89661e-07
-1.78129e-08
-3.71702e-07
-5.81688e-06
9.67688e-06
5.67955e-07
1.051e-05
-1.08894e-06
-9.38551e-07
2.02729e-06
8.98117e-06
-3.56894e-06
-3.90602e-07
7.10055e-06
-6.70974e-06
2.13753e-05
-2.21369e-05
7.6138e-07
1.81701e-06
-3.64373e-07
-2.09769e-05
9.65438e-06
2.73241e-06
8.63297e-06
-1.33984e-05
-3.6867e-07
-1.66014e-06
2.02903e-06
-2.35506e-06
2.73001e-05
-3.22973e-05
4.99759e-06
-1.16217e-06
-3.24881e-06
-1.13917e-05
1.69486e-05
8.55101e-06
-1.3386e-05
-1.76896e-06
-5.81968e-07
2.35095e-06
9.85424e-06
-1.69599e-06
-1.74543e-06
1.22356e-06
-3.92323e-06
2.6997e-06
-4.75627e-06
7.71857e-06
-2.96213e-06
-2.01782e-06
-1.73187e-06
4.39128e-05
1.80714e-06
0.00015932
3.09777e-05
-0.000190295
2.2259e-05
-4.84606e-05
2.62017e-05
-6.24923e-06
-4.57099e-06
1.08203e-05
2.46301e-06
3.20148e-06
-5.66462e-06
3.06002e-06
1.14595e-06
1.61493e-05
-7.87189e-06
-1.60505e-05
4.23165e-05
-3.2045e-05
9.08494e-06
-2.86204e-06
2.36655e-07
2.62544e-06
6.08826e-07
-1.49932e-06
-6.55763e-06
-4.06609e-06
-3.43516e-06
-2.73563e-07
3.70871e-06
-1.56913e-06
7.6729e-07
-2.34446e-06
2.26438e-06
8.02124e-08
-3.76018e-05
-1.84676e-06
3.94486e-05
-1.79498e-06
-6.7836e-06
8.57877e-06
2.28502e-06
-5.62186e-08
1.90023e-05
5.89461e-05
-3.52781e-05
-3.14723e-05
6.67506e-05
3.02122e-06
-7.03734e-07
-2.31782e-06
3.79742e-06
1.13791e-05
-1.51766e-05
1.07956e-05
-1.61128e-06
1.2641e-06
-1.03899e-05
1.4299e-05
-2.43355e-06
7.30984e-06
-7.10623e-07
-5.85948e-07
6.09368e-07
-2.35695e-08
3.26102e-05
-6.78882e-05
-2.96939e-05
1.97582e-05
9.93582e-06
7.28823e-05
-3.53488e-05
1.53879e-05
-4.59142e-06
-4.47216e-06
-3.31295e-05
4.92315e-06
-3.52228e-06
-2.18003e-05
5.12372e-05
-2.94369e-05
6.36048e-07
-5.22977e-06
-8.37541e-07
1.35436e-06
-5.16873e-07
4.1278e-05
-0.00022892
0.000187644
2.92706e-06
-1.41638e-06
-1.51063e-06
-5.23052e-05
3.47038e-05
1.76024e-05
1.69452e-05
-2.34263e-05
6.4806e-06
-5.81264e-07
1.31892e-07
4.49538e-07
5.28382e-05
-3.05791e-05
2.09017e-05
-9.10836e-06
-1.17932e-05
-6.10423e-05
-5.12949e-05
1.91421e-06
1.04759e-05
-1.23904e-05
1.49406e-05
-5.073e-06
-9.86727e-06
2.29065e-05
-1.97508e-05
-1.88737e-06
1.36284e-05
-1.17409e-05
-1.74325e-05
1.01107e-05
7.32221e-06
-2.01209e-05
-0.000151974
0.0001721
-7.78128e-07
1.59505e-05
-1.51729e-05
1.38174e-05
3.21575e-05
5.27793e-07
-2.49931e-07
-8.57337e-08
3.90969e-06
1.50414e-06
4.83937e-06
-6.34319e-06
5.466e-05
-2.30666e-05
-3.1593e-05
-1.32098e-06
-1.80066e-06
-2.26925e-05
-3.04973e-05
-2.18059e-05
-3.03131e-06
3.36896e-05
-3.06577e-05
-3.53196e-06
-7.09852e-06
-5.01147e-05
-3.19555e-05
1.66866e-05
5.65058e-05
8.26677e-06
1.91895e-06
-2.69214e-06
-1.02884e-05
-3.51338e-07
-9.68621e-07
1.3198e-06
7.29854e-06
-6.52873e-06
-2.23132e-06
-4.81233e-05
5.03549e-05
7.45865e-07
-1.82411e-06
1.07837e-06
6.73831e-07
8.08089e-07
-1.48202e-06
2.07523e-07
-1.97626e-06
7.83592e-06
-9.844e-06
-6.13721e-05
7.07109e-07
2.31402e-06
-9.36531e-06
1.09214e-05
-1.26757e-06
-2.97939e-05
2.12954e-05
8.49896e-06
-1.22364e-06
1.96955e-06
4.60581e-05
-7.8777e-05
3.27173e-05
-3.11921e-05
-5.54693e-06
3.67392e-05
-6.65771e-06
-6.61732e-06
2.00012e-05
-4.64699e-06
1.27633e-05
-5.98609e-06
-2.58488e-06
-6.72706e-06
0.000139405
-0.000238232
9.88268e-05
0.000174518
-5.02352e-05
7.99697e-06
-1.38951e-05
5.89814e-06
1.15553e-05
-6.12923e-06
-5.42595e-06
8.04687e-06
-2.44563e-06
-3.11298e-05
0.00016884
-0.000137712
-5.4525e-06
-9.41849e-06
6.23838e-05
-6.87437e-05
6.73203e-06
-7.21244e-06
3.90977e-05
-2.03355e-05
-2.74561e-05
-3.77113e-05
6.51687e-05
5.82394e-06
-5.9899e-06
1.65758e-07
8.11748e-06
-3.69541e-06
-4.42184e-06
-8.28251e-06
1.60946e-06
3.24466e-06
-2.02142e-06
8.88393e-05
-0.000221906
0.000133063
-1.61338e-05
9.23145e-06
6.90259e-06
6.76881e-06
3.93429e-06
-1.05683e-05
-6.86432e-06
6.57507e-05
-3.24254e-05
-3.33289e-05
-1.46551e-05
1.19634e-05
4.48777e-06
-9.99003e-06
7.94114e-06
-6.43683e-06
-2.7307e-07
-3.08088e-07
9.34764e-05
2.53942e-05
-6.95377e-06
1.25686e-05
1.51189e-05
4.88258e-06
-8.42256e-06
1.11435e-05
-2.72063e-06
2.48379e-05
-3.46292e-06
-2.59477e-06
1.36552e-06
1.22936e-06
1.4351e-05
-1.43159e-05
-3.46907e-08
-4.91792e-06
9.40558e-06
4.67891e-06
3.64098e-06
6.51623e-06
8.36762e-06
-1.48838e-05
-1.85631e-06
1.94668e-06
-6.74312e-06
6.91663e-06
-5.15544e-06
-1.76102e-06
-2.49135e-06
1.3688e-06
-1.0276e-06
-1.15804e-06
2.1855e-06
2.57547e-05
1.11951e-05
-3.69514e-05
-2.14704e-06
1.05976e-05
1.30149e-05
3.77813e-06
-1.67933e-05
2.07312e-05
2.2604e-05
-4.33351e-05
2.23045e-06
-4.06348e-07
-1.82354e-06
-3.0614e-06
2.97579e-06
-4.12087e-05
2.07335e-05
-4.25337e-05
-3.01122e-05
-0.000135775
0.000165887
-4.83254e-06
5.10748e-06
-2.74917e-07
-3.24714e-06
1.22928e-06
8.3999e-07
-1.05971e-05
9.75701e-06
4.4431e-07
-7.16577e-07
2.72178e-07
-2.03768e-05
1.27585e-05
7.61839e-06
1.7077e-05
2.39171e-05
-1.2402e-06
8.53892e-06
-1.71728e-07
5.29853e-09
1.66348e-07
-6.51115e-07
2.70775e-06
1.46904e-05
-4.97524e-06
-9.71488e-06
3.05018e-06
9.52958e-06
-1.25799e-05
-1.17449e-05
-2.42857e-06
1.41733e-05
-6.56691e-07
7.08575e-08
-1.26811e-06
2.17618e-06
-9.08067e-07
3.28674e-06
1.1404e-05
1.5965e-05
1.13352e-05
-3.9995e-06
-4.15932e-06
8.15886e-06
-6.02312e-06
-1.07824e-05
1.26965e-05
-2.28186e-05
-6.97523e-06
1.84505e-06
1.87052e-06
-3.07302e-07
7.34978e-07
-4.27807e-07
-0.000174467
0.000143334
-4.38152e-06
-8.45728e-06
-0.000100006
-7.56736e-08
4.65356e-07
2.24032e-06
-6.5056e-06
4.26603e-06
-1.01289e-05
1.01289e-05
5.8343e-05
-2.57328e-05
-9.24202e-06
-3.03125e-06
1.22746e-05
-6.00911e-07
-8.64091e-06
-4.12107e-06
2.39983e-05
-1.98758e-05
2.64402e-07
4.32496e-06
-4.58895e-06
-1.88497e-05
4.94939e-05
-3.06444e-05
9.54768e-05
-5.06809e-05
2.23316e-05
-5.38675e-06
1.36118e-06
-1.65746e-06
2.9642e-07
-4.15728e-07
-9.73715e-07
1.38941e-06
8.28355e-07
-1.13559e-06
1.06744e-07
-8.23912e-07
7.17053e-07
-1.88351e-06
-8.33424e-06
4.51124e-06
7.74989e-06
-1.32796e-05
5.52999e-06
-2.05257e-07
1.11212e-06
-3.2346e-06
-2.47211e-06
1.95033e-05
-2.09304e-05
-1.30728e-06
-1.93989e-06
1.92769e-06
-1.40888e-06
-9.07162e-07
1.72325e-06
-8.16196e-07
1.90821e-05
-1.22921e-05
-6.7891e-06
2.06338e-05
3.40264e-05
3.75739e-07
-2.44647e-06
2.07084e-06
1.18421e-05
-8.79194e-06
-1.72222e-05
2.00572e-05
-2.8345e-06
-2.10976e-05
3.18508e-06
-1.04188e-05
1.44009e-05
-3.98192e-06
-2.40682e-06
2.46029e-05
-2.21952e-05
-0.000174642
9.14607e-05
8.31831e-05
2.00184e-05
-1.98338e-05
-1.84084e-07
7.59073e-06
-8.15097e-06
5.6046e-07
-4.16166e-06
-5.94034e-07
9.09386e-07
-1.32513e-06
-4.30117e-05
-1.40498e-05
-8.35988e-06
1.36614e-05
-5.3018e-06
-2.79961e-07
7.24216e-07
0.000186332
-5.1845e-05
-0.000134486
-2.5262e-05
-4.22546e-06
2.94869e-05
2.50385e-06
5.6137e-06
-7.28853e-06
-2.84044e-06
-1.52739e-05
1.61632e-05
-8.89067e-07
1.58176e-05
4.2011e-06
-3.63269e-06
2.74803e-06
7.27301e-06
1.84919e-05
8.47122e-07
-1.93387e-05
-6.81448e-06
1.38645e-05
-7.05013e-06
1.82563e-06
-8.99753e-06
-4.95747e-05
-6.1764e-06
7.21404e-06
-1.03765e-06
1.92787e-06
-2.37559e-06
4.47839e-07
6.55862e-06
-6.43491e-06
-1.23493e-07
3.64156e-05
2.93336e-05
-3.38147e-06
1.23186e-05
1.30456e-05
-2.38568e-06
2.08157e-05
-1.96269e-05
-1.17361e-05
1.49358e-05
-3.20017e-06
-1.69135e-05
2.02688e-05
9.57144e-06
-5.18083e-06
-0.000202544
0.000172432
8.08134e-06
-8.56347e-06
-3.49951e-06
-4.05959e-06
7.55942e-06
2.76272e-06
7.01582e-07
-5.48886e-06
-4.37206e-06
9.86136e-06
6.82e-07
1.24547e-06
3.36872e-06
4.72051e-06
-8.08791e-06
-6.0194e-07
7.08692e-07
4.93727e-07
1.09969e-05
1.49963e-06
-1.3844e-07
-1.0391e-05
-1.92482e-05
2.96401e-05
7.67412e-07
1.16789e-06
-1.93526e-06
-1.96588e-06
-5.02719e-07
-4.103e-06
-2.38609e-06
-4.63492e-06
7.02097e-06
9.09797e-07
3.58497e-05
1.17103e-06
-3.70207e-05
5.27349e-06
2.60466e-07
-5.53384e-06
0.00016228
-0.000186951
2.46723e-05
-5.45382e-07
5.65803e-07
-2.03607e-08
-3.51822e-06
-4.10332e-06
7.62221e-06
-9.35824e-06
9.67049e-06
-3.11946e-07
3.41971e-06
2.21747e-06
1.09139e-05
-6.47099e-06
1.44678e-05
6.72738e-06
6.06855e-06
-1.06428e-05
4.39361e-06
3.99843e-06
-1.19545e-05
4.75545e-06
7.19922e-06
3.18033e-05
3.29432e-05
6.92373e-06
-4.65019e-08
7.42075e-06
-7.37431e-06
1.98725e-05
-4.44649e-07
-1.94282e-05
-1.36755e-05
-5.61218e-05
6.97976e-05
-7.08581e-06
7.92582e-06
-1.97646e-05
-2.26138e-05
4.23791e-05
1.37633e-06
2.6341e-06
-5.60872e-06
-2.01879e-07
5.81059e-06
2.09429e-05
-3.97927e-05
1.26981e-06
1.39906e-06
1.19422e-07
-1.51825e-06
-1.57637e-06
-4.7373e-07
2.05021e-06
1.67139e-06
1.57331e-06
2.28116e-05
-8.38697e-05
6.86459e-06
4.69068e-06
-7.0172e-06
4.43437e-06
1.44557e-05
4.77536e-06
-1.30018e-06
2.06442e-06
-6.16722e-06
2.79248e-06
-1.97027e-05
-1.13152e-05
-1.5918e-07
-7.89615e-06
-9.72131e-06
2.89698e-06
-1.22566e-06
1.43008e-05
5.08826e-06
-1.93891e-05
-4.23944e-07
8.27562e-07
-1.31458e-05
-2.30351e-06
2.47142e-05
-2.24088e-05
1.34252e-05
6.63316e-06
5.41121e-06
-1.81634e-06
-3.5939e-06
-1.60709e-06
-5.84708e-07
2.19181e-06
-5.10169e-06
-4.91125e-06
-7.12939e-06
5.54123e-06
1.58834e-06
7.04468e-06
-6.18795e-07
7.34618e-08
-8.67187e-07
8.50513e-06
-7.63804e-06
2.35706e-05
-7.87792e-05
5.52104e-05
1.00773e-05
-1.12348e-05
1.15852e-06
-2.18907e-06
-1.15144e-06
-1.27562e-06
2.42715e-06
7.17604e-06
-3.73892e-06
-3.4371e-06
-1.07057e-05
1.45033e-05
-5.349e-05
1.08824e-05
-2.84477e-07
-1.15082e-06
2.25217e-06
7.82594e-06
1.01563e-06
1.39539e-05
-1.49701e-05
3.41541e-05
-1.72367e-05
-1.6917e-05
-7.13314e-05
3.4028e-05
1.92951e-06
-3.82752e-06
-7.54435e-06
-1.82112e-06
-1.77783e-06
8.35242e-06
-6.57449e-06
-3.09362e-05
-9.02144e-06
3.99532e-05
7.32003e-05
8.0319e-06
-8.12321e-05
1.98465e-07
-1.18115e-07
-8.03583e-08
-1.18541e-05
1.1739e-05
-9.43537e-06
7.72835e-08
-1.04773e-05
-3.39464e-06
0.000165673
1.08452e-06
-3.73662e-07
3.26501e-07
6.59028e-06
-2.88568e-06
8.08351e-06
-1.03892e-05
-2.93145e-05
2.82539e-05
1.05971e-06
5.49261e-06
6.76151e-09
-1.8553e-06
6.14277e-06
-4.28763e-06
4.5489e-05
0.000140842
-4.76116e-05
9.97717e-06
-9.12662e-06
-2.3328e-07
6.83931e-05
-1.85673e-05
-5.33039e-07
-1.82509e-06
-4.85282e-06
-1.17999e-06
5.82889e-06
-1.55557e-06
1.99871e-06
-4.42986e-07
-2.5758e-06
3.38174e-06
-0.000138254
0.000179534
1.26265e-06
-8.67973e-06
-7.19347e-05
2.25952e-05
4.93387e-05
0.0001146
4.47351e-05
-1.96087e-06
1.13925e-06
8.21665e-07
-1.22415e-06
-3.85414e-06
5.07838e-06
-8.95384e-07
-4.10264e-06
4.99805e-06
-4.68763e-05
-0.000127766
-1.54702e-05
6.46085e-06
-9.41544e-06
1.32197e-05
-3.80389e-06
1.81335e-05
-2.22535e-05
3.2817e-08
-4.49209e-07
4.16374e-07
-3.12168e-05
5.23026e-05
-2.10857e-05
3.57597e-06
1.07758e-05
7.92907e-05
-9.58879e-05
1.6569e-05
1.19989e-05
7.08388e-06
-1.88571e-06
6.89915e-06
-5.01326e-06
-5.25861e-05
1.64543e-05
3.61326e-05
-5.99301e-05
7.96985e-05
-1.97684e-05
4.21704e-05
0.00014872
-2.91802e-07
1.56293e-06
1.33407e-06
4.92332e-06
4.89009e-07
2.35363e-06
-1.2579e-05
1.02254e-05
-4.61135e-05
2.47095e-05
2.14039e-05
-5.82177e-06
-3.54353e-07
-2.24731e-08
-3.63342e-06
3.65589e-06
3.48461e-06
-1.31695e-05
-1.84557e-06
9.24741e-07
9.20825e-07
8.69748e-06
-3.8914e-06
5.55972e-05
-6.92723e-05
-1.02481e-06
-8.20825e-07
4.68229e-05
-2.1063e-06
1.17034e-05
1.5228e-07
-1.18557e-05
2.06952e-05
-3.10856e-05
-1.11173e-05
1.66138e-05
-5.49666e-06
8.76592e-06
-1.25445e-05
6.94614e-07
3.08349e-06
3.03175e-06
-4.29959e-06
-4.05303e-06
1.27458e-05
-8.69285e-06
5.05391e-05
-3.18556e-05
-1.86821e-05
-4.77232e-06
1.15311e-05
-6.75877e-06
2.98538e-06
2.16215e-05
1.96391e-05
6.44114e-06
-6.77413e-06
3.32958e-07
-5.47013e-05
2.40698e-05
3.06317e-05
2.159e-06
-9.52741e-07
4.41131e-05
5.13638e-05
-4.99852e-06
-7.32995e-07
5.7316e-06
-6.18039e-07
-3.01321e-06
3.63134e-06
-2.65862e-06
2.36808e-05
9.64088e-05
-0.000124223
2.78168e-05
-6.57288e-06
-8.7552e-06
1.16639e-05
8.93761e-05
-0.000101037
-7.59738e-07
-1.03779e-06
1.7974e-06
8.82227e-05
-1.50221e-05