/*--------------------------------*- C++ -*----------------------------------*\
| =========                 |                                                 |
| \\      /  F ield         | OpenFOAM: The Open Source CFD Toolbox           |
|  \\    /   O peration     | Version:  v2012                                 |
|   \\  /    A nd           | Website:  www.openfoam.com                      |
|    \\/     M anipulation  |                                                 |
\*---------------------------------------------------------------------------*/
FoamFile
{
    version     2.0;
    format      ascii;
    class       volScalarField;
    location    "150";
    object      k_0;
}
// * * * * * * * * * * * * * * * * * * * * * * * * * * * * * * * * * * * * * //

dimensions      [0 2 -2 0 0 0 0];


internalField   nonuniform List<scalar> 
18540
(
0.0969956
0.000147561
0.000106252
0.0600091
9.52524e-05
9.68989e-05
9.5171e-05
0.000124204
0.000301478
0.00010884
0.000106945
0.000118274
0.0451412
0.000119728
0.0890649
0.0171954
0.000180587
0.000109472
0.0711282
0.10248
0.000143962
0.000164875
0.000131408
0.04166
0.000121969
0.000114637
0.0184209
0.00012802
9.72151e-05
0.0792432
0.000147218
0.000123968
0.000273087
0.0526079
0.000106914
0.0573102
0.000170635
0.000118681
9.63963e-05
0.000495604
0.000145045
0.000128827
0.0222162
0.0923131
0.000125558
0.00011425
0.036971
0.000106893
0.000139433
0.000100569
0.000120045
0.0370654
0.101751
0.000144758
0.000108483
9.80736e-05
0.0431907
0.0588245
0.0278244
9.04512e-05
0.0285342
9.89466e-05
0.000106699
0.000562231
0.0983975
0.000104488
0.00025074
0.000132817
0.0249551
9.54249e-05
9.74909e-05
0.000121532
0.000320987
0.0627639
0.000110364
0.000361235
0.000173079
0.000129224
0.000109174
0.000343569
0.000105
0.0830926
0.000118976
0.000323655
0.0297234
0.0852421
0.000112494
0.000133855
0.0001038
0.0846656
0.000792643
0.000268766
0.000126767
9.76868e-05
9.66275e-05
0.000108394
0.000103654
0.000106212
0.0477566
0.0622279
9.65991e-05
0.000123947
0.000289192
0.0258927
0.0283629
0.000255738
9.65427e-05
0.0613196
0.000106739
0.000107508
0.0251456
0.0473754
0.000130158
0.000105855
0.0927277
0.000112926
0.00011654
0.000106273
0.000106644
9.72167e-05
0.0861364
0.0917471
0.0281553
0.104037
0.000125308
9.68557e-05
0.000101305
0.000117297
0.0190758
0.00038282
0.0113329
0.000112759
0.000109755
0.0865644
0.000107321
0.000104848
0.000106942
0.000104839
0.000110597
0.000104066
0.0985954
0.000207657
0.000103104
0.0702381
0.000100796
0.000104153
0.00010097
0.0884438
0.000105137
0.0944878
0.000108027
0.000108942
0.000103728
0.0879576
0.00330597
0.000279517
0.0936139
0.000100636
0.000113998
0.0684438
0.000140256
0.000106631
0.000144732
0.000107691
0.0323744
0.00011862
0.090558
0.000116136
0.0909069
0.00010061
0.000134013
9.7557e-05
0.000102715
0.000103601
0.000107566
0.104525
9.8929e-05
0.0668987
0.00328767
0.0091373
0.000103561
0.000123613
0.000107233
0.000263633
0.000107557
0.0255228
0.00010846
9.65867e-05
0.00431124
0.000114648
9.73431e-05
0.000105022
0.0297312
0.000125671
0.000225723
0.000114239
0.000101369
0.0050538
0.00032644
0.000105583
0.000113493
0.000267871
0.000115552
9.98541e-05
0.0888073
0.0502558
0.000117351
0.0563964
0.0653479
0.000103107
0.000124395
0.0334866
0.0641371
0.000137495
0.000123989
0.000105269
0.104862
0.000598867
0.0389108
0.0619549
0.0302391
0.000172451
0.0771152
0.000235587
0.0305156
0.020763
0.000103794
0.000103094
0.0271796
0.000115875
0.000103484
0.00176595
0.000345106
0.000103813
0.000145647
9.6309e-05
0.000125253
0.000110742
0.000136864
0.00011575
0.00530708
0.00382182
0.000588178
0.000103764
0.0897556
0.0606755
0.000144422
0.000104777
0.000104511
0.000111376
0.000212659
0.0618482
0.0271555
0.000108859
0.000107645
0.000581293
0.00108183
0.0015196
0.000119094
0.0148413
0.000444113
0.0817564
0.000111559
0.0985486
0.0256734
0.000104568
0.0980307
0.102394
0.000118329
0.000136696
0.0222575
0.028248
0.103668
0.000100025
0.000300877
0.0850462
0.00010367
0.000113014
0.000858345
0.000115641
0.000136211
0.0909441
9.93712e-05
0.000125694
0.039154
9.51959e-05
0.0153715
0.000114313
0.0593421
0.000375851
0.0882823
0.0537532
0.000134294
0.000118616
0.0982302
0.000114468
0.00379693
0.000114242
0.0715994
0.000239251
0.000112526
0.0281803
0.00331006
0.000164998
0.000284267
0.000123945
0.00760093
0.000108447
0.00148558
0.000124572
0.0132062
9.50827e-05
0.0830919
0.000101711
0.0229902
0.0394104
0.08655
0.000121858
0.0703497
0.0380247
0.0317909
0.00515652
0.000112038
0.0230973
9.96763e-05
9.14807e-05
0.000105839
0.000105868
0.00012173
0.000119117
0.000104379
0.000192215
0.000917568
0.000109946
0.0108142
0.000318877
0.000100282
0.000137023
0.0281294
0.000165323
0.000105062
0.000103315
9.64315e-05
0.000272731
0.000816583
0.00112387
0.000116218
0.000178735
9.58272e-05
0.0444688
0.00431574
0.000137413
0.0908239
0.000108247
0.000136251
0.102962
0.000135905
0.00010346
0.000109364
0.0159135
0.000115276
0.000108207
0.000124468
0.00010349
0.0920136
0.000134438
9.03648e-05
0.000128086
0.000100771
0.000123915
0.0547526
0.000105368
0.000525615
0.00010601
0.000136752
0.00357815
0.00012526
0.018478
9.92787e-05
0.0240011
0.101871
0.000108944
0.000213389
0.00249193
0.000110136
0.000103837
0.000628185
0.0807622
0.000139291
0.0428688
0.104411
0.000109317
0.000103297
0.0291108
0.0536521
0.000128413
0.0673006
0.0577108
0.000139874
0.014173
0.0951406
0.0905275
9.58363e-05
0.000136322
0.00010532
0.000102699
0.0857631
0.0235717
0.000110446
0.000127844
0.029452
0.031742
0.000462981
0.000108479
0.000105354
0.0329121
0.000136327
9.83969e-05
0.000801352
0.00095638
0.0034981
0.0971928
0.000124324
0.0403073
0.000104655
0.000109568
0.000104099
0.0145728
0.000108126
0.000114242
0.000119785
0.0830319
0.0001073
0.100444
0.000104063
0.0717357
0.000132106
0.00010007
0.0997606
0.000118567
0.000724109
0.000107496
0.000260196
0.0380003
0.000119259
9.71524e-05
0.00011281
0.0344028
0.000119435
9.44455e-05
0.104922
0.0672015
0.000105442
9.95703e-05
9.18965e-05
0.000112967
0.000102076
0.000119372
0.0285391
0.0123028
9.39804e-05
0.000107906
0.000105947
0.000103482
0.000136526
0.000123045
0.103313
9.4617e-05
0.00267481
0.000285401
0.075236
0.000263742
0.0396884
0.0732198
0.00145862
9.13943e-05
0.0839097
0.000124957
0.0451228
9.81881e-05
0.000114109
9.40884e-05
0.101852
0.000110878
9.48581e-05
0.000106516
0.000109582
0.0385647
0.000117963
9.97411e-05
0.0226851
0.000132779
0.000435432
0.0257929
0.046444
0.0393868
0.00010555
0.0848678
0.000462508
0.000106913
0.00188167
0.000279669
9.04857e-05
0.000466854
0.000147347
9.96348e-05
0.00298235
9.28952e-05
0.000322414
0.0698168
0.000112792
0.000113135
0.000128889
0.00012609
0.0726926
0.00010595
9.84446e-05
0.000116167
0.0463664
0.000132247
0.0995602
0.000127654
0.000301677
0.0817279
0.000108581
9.1664e-05
0.000131038
0.0562331
0.000116517
0.000112778
0.0976998
0.00298066
0.000136412
0.000132894
0.000145497
9.5352e-05
0.0969021
0.00701022
0.000110935
0.00011337
0.000138314
0.000116563
0.000582777
0.000135385
9.46047e-05
9.21996e-05
0.0438374
0.0983452
0.000107359
0.000100883
0.000107714
0.000109032
0.000363172
0.103782
9.40208e-05
0.000101751
0.00342577
0.09419
0.0446619
0.000117236
0.000103332
0.000105566
0.000102473
0.000107629
9.91605e-05
0.0562407
0.000109294
0.00028309
0.000107572
0.000126071
9.55193e-05
0.000146506
0.000833904
9.29933e-05
0.00315463
0.0670116
9.33699e-05
0.000105599
9.21592e-05
0.000105659
0.000228336
0.00013724
0.100863
0.0180862
0.0387216
0.000113393
0.000116017
0.000118231
9.37464e-05
0.00207238
0.000101022
9.14871e-05
0.000127702
0.000111026
0.024361
0.000121511
9.53305e-05
0.0238009
9.94303e-05
9.60839e-05
0.0891235
0.000138176
9.23417e-05
0.000145716
0.0692254
0.000110238
0.000120124
0.000135801
0.000126997
0.000143086
9.45668e-05
0.0433774
0.0776311
0.0266198
0.000109759
0.0393804
0.000109201
0.000146695
0.0847915
9.13279e-05
0.0921412
0.0397763
0.000111098
0.0421266
0.000716791
0.0480556
0.000143031
9.43737e-05
0.00408361
0.0381787
9.78392e-05
0.0288294
0.034136
0.0631137
0.000145571
9.51996e-05
0.000107846
0.00438975
9.2325e-05
9.74418e-05
0.0943988
0.0558515
0.000110351
0.000102104
0.102196
0.00121151
0.000105145
0.000108589
0.000128095
0.000106923
0.0642507
0.000121123
0.00012851
9.35e-05
0.000118646
0.0910971
9.21911e-05
0.111656
9.17565e-05
0.0419688
0.000121683
0.0540933
0.00145044
9.68184e-05
0.0628876
0.000132974
0.000112596
0.0895288
0.0829099
0.000135288
0.000105243
0.0406142
0.0297498
0.000320699
0.027099
0.000108676
0.0319566
0.04625
0.000100874
0.000113911
0.000108704
0.00010595
0.0232899
9.73327e-05
0.000102682
9.80906e-05
0.0661889
0.000108172
9.6009e-05
0.000107881
0.000110475
0.0284302
0.0102751
0.0672118
0.000101506
0.0531837
9.89098e-05
0.000129202
9.60245e-05
0.024086
0.000124075
9.6596e-05
9.97501e-05
9.95426e-05
9.97699e-05
0.000101674
0.00337294
0.000106249
0.000215967
0.028097
9.52676e-05
9.53212e-05
0.051219
0.035986
0.0786656
0.000132637
0.000136347
0.000112738
0.00010951
0.000253225
0.000543709
0.000106959
0.000147635
0.000134845
0.00010793
0.000113466
0.000150313
0.000126461
0.000146719
0.000107795
0.000910171
0.000107523
9.75326e-05
0.000142557
0.0440011
0.000136893
0.000106358
0.0285271
0.00024634
0.000116254
0.000118135
0.00015756
0.0103642
0.000143784
0.000101956
0.000102235
0.0528311
0.000100566
0.0941791
0.000439167
0.0364494
0.000117785
0.000121158
0.000101613
0.000113587
0.000163236
9.64326e-05
0.000121726
0.000104884
9.74623e-05
0.0327628
0.000136025
0.000105781
0.000110202
0.0380888
0.00626165
0.000103223
0.000112357
0.000212435
0.000101297
0.000120617
0.000205424
0.000265711
0.000272108
0.000104871
0.000215662
0.000120649
0.00766339
0.00012607
0.000109894
0.000174344
0.0910329
0.000113774
0.0129297
0.000159689
0.000242319
0.000108423
0.0352817
0.000196456
0.000148262
0.000107509
0.000102508
0.0647995
0.000122788
9.70526e-05
0.0658197
9.64039e-05
0.000109956
0.00240786
0.000105691
9.66501e-05
9.84868e-05
0.0734793
0.000107295
0.000100853
0.07073
0.000103826
0.000106205
0.00384841
0.000114019
0.000106215
0.000118282
0.000121379
0.0267515
9.09523e-05
9.66017e-05
0.0518754
0.000109931
0.0250119
0.000114716
0.0284618
0.000109938
0.000100389
9.24981e-05
0.0670529
0.000107736
0.000137211
0.000108007
0.000112799
0.000103041
0.000102805
0.0843747
0.00419347
0.000110049
0.0491949
0.000246594
0.000113101
0.0342653
0.000118996
9.10632e-05
0.000116162
0.10276
0.000207251
0.000116859
9.64062e-05
0.000106364
0.0334396
0.000105226
0.00010069
0.000258893
0.000117032
0.000100321
0.00090459
0.0445198
9.41989e-05
0.000106653
0.0588275
0.000143736
9.64755e-05
0.0882822
0.000228563
0.0751875
9.34702e-05
0.0401695
0.000106003
9.41494e-05
0.000109753
0.000113023
0.0315688
0.000224965
9.34966e-05
0.024208
0.000106974
0.000137308
0.104561
0.000130996
0.000235577
0.00321286
9.51706e-05
0.057171
0.00013664
0.109921
0.000112333
0.101737
0.000122132
0.000143697
0.0269393
9.2583e-05
0.000106007
0.0280536
0.000133606
9.97811e-05
0.0284625
0.000107281
0.0731602
0.000135062
0.000105698
0.0001676
0.0847128
0.000104066
0.0940727
0.00013081
0.000135823
0.00010742
0.000119629
0.029416
0.0872175
0.000110046
0.0924855
0.0495575
0.000120367
0.000110474
0.000114883
0.000289109
0.000123151
0.000111494
0.0491937
0.000148828
0.0454626
0.000124724
0.0593066
0.0367444
0.000109017
0.100704
0.0934581
0.0922751
0.0279667
0.000123382
0.000107093
0.0666227
0.000114928
0.085508
0.0759914
0.000102858
0.000104834
0.000124715
9.64194e-05
0.000229763
0.000124247
0.0926401
9.88166e-05
0.000123481
0.000767127
0.0819953
0.000103942
0.000117942
0.00012718
0.0581088
0.000103074
0.000168892
0.0422768
0.0523611
9.84909e-05
0.0403437
0.000119866
0.000477529
0.000134608
9.92087e-05
0.0790803
0.0122533
0.0284427
0.0118558
0.000103271
0.000120056
0.00011738
0.087588
9.68014e-05
0.0247597
9.35271e-05
0.000124741
9.74553e-05
9.69982e-05
0.0964787
0.0364831
0.000122353
0.000105498
0.000117406
0.000147252
0.0237184
0.000670945
0.000115194
0.0403594
0.0293851
9.17816e-05
0.000113335
0.0130204
0.000331076
0.0535424
0.0629045
0.000129298
0.00010323
0.000107082
0.0465694
0.0300132
0.000589346
0.0424588
9.95355e-05
0.0530254
9.23312e-05
0.0452326
0.00010516
0.000280021
0.000123593
9.74288e-05
0.0352349
0.000103023
0.101506
0.000102574
0.101331
9.47974e-05
0.000102736
0.034674
0.037678
0.000105415
0.0312209
0.00298591
9.7242e-05
0.00189837
0.0864547
0.023616
0.0185409
0.000136113
9.71525e-05
0.00010881
0.000122872
0.000117691
9.90852e-05
0.0887383
0.0873373
0.000137114
0.0743659
0.000132033
0.0192422
0.000112225
0.000107982
0.000115177
0.0352764
0.000135769
0.0221397
0.00013343
9.26092e-05
0.000243344
9.94366e-05
0.0435844
0.000193819
0.000116531
0.000131359
0.0744718
0.000109263
0.0237896
0.000100176
0.000114419
0.000106909
0.000650386
0.000102899
9.64656e-05
0.000108746
0.000103146
0.00279518
0.000100376
0.000103784
0.000100206
0.000103176
0.034301
0.064126
0.000112967
0.000128607
0.000123143
0.000108259
0.092672
0.000117892
0.000113612
0.000133515
0.0491516
0.000104992
0.000103481
9.60979e-05
0.000135489
0.000725423
0.0546687
0.00313638
0.000103211
0.000113322
9.75922e-05
0.000108891
9.24815e-05
0.000239985
0.000112248
0.0313114
0.0814655
0.0882721
9.90565e-05
0.0563177
0.0577938
0.000111262
0.000114645
0.000107726
9.97324e-05
0.0941253
0.000100284
0.000193939
0.000102314
0.00010662
9.33118e-05
0.064802
0.000765063
0.000110439
0.00010758
0.0923061
0.0962645
0.0191675
0.000107615
0.0292224
0.000242122
0.000114656
0.0528227
0.000133856
0.00011285
0.0334341
0.0787192
0.000591071
0.000122722
0.0297158
0.0789094
0.041435
0.000145607
0.0245428
0.000132701
0.0629374
0.000144272
0.00013558
0.000108575
0.0849389
0.029065
0.000133599
0.0325071
9.24838e-05
0.000107822
0.0932482
9.58261e-05
0.00014573
0.000101768
0.0237266
9.92901e-05
9.13585e-05
0.000133169
0.000124857
0.010481
0.00020974
0.0225103
0.000100314
0.000115164
0.000101132
0.000145863
0.000100125
0.000371281
0.0618863
9.55054e-05
0.000680302
0.000124668
0.104116
9.06153e-05
0.00274591
0.000622387
0.000137225
0.00014618
0.00594192
0.0001368
0.000107971
0.000147757
0.00010215
0.0347929
0.0297677
0.000147747
0.000147055
0.0974813
9.62592e-05
0.000105105
0.000115326
0.000103496
0.000107433
0.000113315
0.0539264
0.000100435
0.000104133
0.0697376
0.0584179
0.000102075
0.000127824
0.000144479
0.0718828
0.000135143
0.000125723
0.0557915
0.00014613
9.6864e-05
0.000283354
0.0001248
9.5822e-05
9.85974e-05
0.0196166
0.000137427
0.0990218
0.000128119
0.0148104
0.00043299
0.10052
0.01217
0.012431
0.0155308
0.000125318
0.033485
0.0184707
0.00075875
0.0362567
0.0437999
9.57938e-05
0.00011058
0.000104089
0.0617637
0.000106731
0.000130931
9.66034e-05
0.000103947
0.000102948
9.93782e-05
0.0869595
0.0278538
0.000108821
0.0609994
0.000376694
0.000349841
0.0166705
0.000102894
0.000109567
0.0704276
0.00308372
0.000146406
0.0290941
0.000137973
0.000103759
0.000108497
0.0944398
0.0011654
0.0950802
0.0114672
0.000108891
0.00239884
9.92102e-05
0.0483564
9.22382e-05
0.0112515
0.0516423
0.00115715
0.00010028
0.000106512
0.000140702
0.0338824
0.000102979
0.0821468
0.0961245
0.000115548
0.0324115
0.0221603
9.92025e-05
0.000104771
0.000119889
0.000233387
0.00010091
0.00912752
0.00011579
0.000110324
0.0351922
0.00181168
0.0130973
9.51554e-05
0.0994776
0.000111921
0.000121462
0.000115366
0.000137573
0.0206194
0.0991477
0.000109996
0.000228504
0.000122358
0.000109763
9.59367e-05
0.000102365
0.00013758
0.000107211
0.0685696
0.103438
9.67738e-05
0.042717
0.0733462
0.0191593
0.0476529
0.000120895
0.000101072
0.000109568
9.21413e-05
0.000111622
0.0711712
0.000116906
0.000291801
0.0166714
0.00010397
0.000145682
0.0435583
0.0714632
0.0718822
0.000109076
0.000103319
0.000832985
9.11194e-05
0.0398625
0.000102599
9.07051e-05
9.71929e-05
0.102974
0.000117407
0.00012757
0.000343252
0.000136258
9.73607e-05
0.0578448
0.00010454
0.000103509
0.000105239
0.000100685
0.0575734
0.0602879
0.0141104
0.000116388
9.6309e-05
0.0250912
0.0126565
0.0785077
9.01878e-05
0.00042886
0.0709695
0.000206103
0.0527229
0.000103738
0.091853
9.61337e-05
0.000111798
0.103816
0.000111196
0.000115501
0.060788
0.0952742
0.000114593
0.000113484
0.000402463
0.0716126
0.000105721
0.000109813
0.0129931
9.48923e-05
0.000137584
9.86868e-05
0.0627396
9.98935e-05
0.0564546
0.000201301
0.0280035
0.000108003
0.0974913
9.50874e-05
0.000100788
0.0892219
0.000139351
0.025433
0.000114288
9.86177e-05
0.0001445
0.00011668
0.0245216
0.0395658
0.000400365
0.0273479
0.00011534
0.000110329
0.0864001
9.48498e-05
0.00011265
0.000216644
9.78686e-05
9.87117e-05
0.000104343
9.47065e-05
9.27945e-05
0.000106512
0.0751164
0.000120439
0.0244241
0.000120874
0.000111518
9.96667e-05
0.000117222
0.0469326
0.000141876
0.000268264
0.0910821
0.000443115
0.00011372
0.00011539
0.000108461
0.000104451
0.023451
0.0910926
0.0393477
0.000100573
0.000135889
0.0882408
0.0021248
0.00032452
0.000107125
0.000118028
0.0001035
0.0274922
0.0731556
0.00122531
0.000865634
0.000107661
0.000124141
0.0271836
0.0312282
0.000131672
0.000771528
9.89089e-05
0.000100264
0.000104798
0.000167764
0.0960957
0.0539692
0.0142562
0.000214541
0.000100747
0.000116703
0.00433267
0.002776
0.0148393
0.0668192
0.000120328
0.00011158
0.032526
0.0831649
0.00013143
0.00010488
0.0151626
0.000107726
0.000144995
0.0345959
0.000116588
9.27678e-05
0.000257722
0.0363994
0.0689643
0.00012995
9.01788e-05
0.000122338
0.000110334
9.73515e-05
0.000112394
0.000134516
0.000103027
0.0347226
0.00028621
9.25778e-05
0.000119192
0.0262147
0.0696204
0.000130212
0.000107142
0.000126784
0.000102441
0.000137187
0.000100138
9.85648e-05
0.103734
9.78445e-05
9.49843e-05
0.000202885
0.000575547
0.0879513
0.0898615
0.000125446
0.000805704
0.0302988
0.0287159
0.00187724
0.000107279
0.00012039
0.0941736
0.0281987
0.102927
0.0499775
0.000113719
0.017393
0.0280528
0.0533557
0.000111771
0.000227509
0.0924975
0.0105197
0.000125061
0.0909923
0.0242214
0.000104843
0.000115914
9.33417e-05
0.000330102
0.000175349
0.000120336
0.0283694
0.103878
0.00332294
0.0401764
0.000143846
0.000103524
0.100397
0.018007
0.000784349
0.000101967
0.0950873
0.000103422
0.000158232
0.000111071
0.0915005
0.000103265
0.000108719
0.000104298
0.0326242
0.00011369
0.000285986
0.000107483
0.0380363
0.0922446
0.000114638
0.0179407
9.4209e-05
0.000117368
0.0937322
0.0745538
0.000126993
9.25914e-05
0.000514496
0.000155719
0.000109727
0.000134595
0.000147918
0.000157917
0.000135634
0.000109948
0.000132835
0.0755954
0.0112191
0.0520702
0.000125032
0.0612425
0.000105334
0.000101759
9.71043e-05
0.0615447
0.000113847
0.000113208
0.0135387
0.000162507
9.57697e-05
0.00148964
9.41823e-05
0.00010575
0.00277349
0.000465424
0.000102832
0.000101058
0.0672636
0.000120482
0.000104696
0.103264
0.000123706
0.000239131
9.8742e-05
0.000120859
9.9077e-05
0.0472028
0.000119091
0.000124713
0.00961341
0.000103335
0.00011655
0.0888567
0.000123495
0.0991709
0.000269731
9.57515e-05
0.000524724
0.000128826
0.000121918
0.0332636
0.0441901
0.000135871
0.00010117
0.0769351
0.000272725
0.0862825
0.000102664
0.0490708
9.69515e-05
0.000103321
0.000349337
0.000137234
0.000557686
0.0313756
0.000113479
9.5876e-05
9.86423e-05
0.000110207
0.000128517
0.000160259
9.66433e-05
0.0163382
0.000103001
0.000107498
0.0894191
0.0433611
0.000113776
9.24954e-05
0.00673957
0.0998173
0.0685713
0.000107963
0.000135048
0.000103848
0.000285542
0.0616849
0.000195131
0.0300739
0.0336215
0.00195209
9.91003e-05
0.000166945
0.000106943
0.000144214
0.0491678
9.05732e-05
9.49381e-05
0.000147258
0.0371394
0.000252694
0.0316615
0.000198921
0.000128471
0.000100709
9.21928e-05
9.19452e-05
0.000121621
9.56346e-05
0.000111055
0.000142669
0.0228222
0.000115955
0.00013323
0.0140314
0.0572246
0.000116808
9.7819e-05
0.000100883
0.0548955
0.000106587
9.44126e-05
0.000106873
0.000108011
0.000134525
0.000178742
9.1309e-05
9.33236e-05
0.0279541
0.00166894
0.00560325
0.000108051
0.069736
0.000109118
0.000101897
9.90055e-05
0.0583317
0.000775373
9.48982e-05
0.000118464
0.0760773
0.000128107
9.42326e-05
0.000107567
9.88858e-05
0.000105835
0.000135508
0.0193117
0.0001009
0.0591292
0.000112274
0.0126296
9.88692e-05
0.00448158
0.000114312
0.000104284
0.000126383
0.000113143
0.000103195
0.102081
0.000108076
0.000231786
0.0001174
0.000956047
0.000128496
0.000214846
0.000238724
0.0299703
0.0908039
0.000110304
0.0938505
0.000120983
9.48445e-05
0.092643
0.000101563
0.00012093
0.0381266
0.000110469
0.000140006
0.00010782
0.000107505
0.000775961
0.000436289
0.000137015
0.000105612
0.0155669
0.0349189
0.000178918
0.0345424
0.00013905
0.000110807
0.0404104
0.0911734
0.00473572
0.0278897
0.0155492
0.000320708
0.000132958
0.000112461
0.0001065
9.75928e-05
0.000101258
9.21038e-05
0.0420668
0.000362934
0.000111209
0.00582096
9.6752e-05
0.0257676
0.00126228
0.0275657
0.0202676
0.000172751
0.0292038
0.000131939
0.000110324
0.0395985
0.00149141
9.43439e-05
0.000137697
0.0699415
0.0893605
0.000108755
0.102657
0.000117805
9.54928e-05
0.000214286
0.0496976
0.0166477
0.064601
0.000109092
0.000112732
9.98399e-05
9.56475e-05
0.000108412
0.000264153
0.0260051
0.0727545
9.49648e-05
0.000109038
0.0307539
0.000118794
0.000102947
0.000113095
9.68596e-05
0.0257329
0.019751
0.000108752
0.0582862
0.000108321
0.0233657
0.0553499
9.13618e-05
9.94583e-05
0.000111581
0.10288
0.000119939
0.000112493
0.000101155
0.000111401
0.0251985
0.000114263
0.000130874
0.000135244
0.000117939
0.000110285
0.0363458
0.0220662
0.0355693
0.000165372
0.0407053
0.0162366
9.11493e-05
0.000125403
0.00010087
0.0410137
0.000241065
9.89043e-05
0.0412043
0.0778697
9.23246e-05
9.79256e-05
0.000737519
0.000123198
0.00010705
0.0275914
0.000353656
0.000147581
9.65845e-05
0.103266
0.0390091
0.000139972
0.000148257
0.000177596
0.100602
0.000133982
0.0809665
0.000113781
0.0387245
0.0174638
0.060705
0.0336618
0.000106013
0.000112694
0.000123738
0.0367768
0.0395085
0.0001233
0.00298666
0.039491
0.0959436
0.0314456
0.000112331
0.022405
0.104678
0.000113795
0.000110141
0.0888579
0.000103878
0.0879971
0.00014788
0.0652535
0.000146372
0.00888836
0.0116416
0.000704665
0.000101675
0.00010412
0.0690431
0.000102824
0.000104978
0.000156736
0.000147659
0.0576671
0.0628319
0.0271655
0.0642998
0.000167205
0.000167603
0.000103517
0.000860248
0.00011086
0.000112538
0.000116893
0.000489995
0.0218439
0.000109211
0.025188
0.000148105
0.077658
0.0483909
0.0352215
9.36339e-05
0.104214
0.0401351
0.0435633
0.0402745
0.000132114
0.0374126
0.101988
0.0001227
0.0201678
0.000145599
0.000171276
0.000567898
0.000121769
0.0330238
0.000748083
0.000111979
9.469e-05
0.0419961
0.0329997
0.000109202
0.00017782
0.0948738
0.0322055
0.0143051
0.056921
0.000102517
0.00010784
0.000107243
0.0486251
0.000133242
0.000127845
0.000118333
9.24329e-05
0.000112931
0.0223499
0.000140097
0.0340578
0.084671
9.72358e-05
0.000213207
0.0865868
0.000106898
0.000218598
0.000280421
9.35534e-05
0.00108674
0.0015495
9.06841e-05
0.0553484
0.000136234
0.00011723
9.78399e-05
0.000110816
0.00010671
0.000105114
0.000103184
0.000107414
0.000162917
0.000164283
0.000123294
9.81445e-05
0.000172618
9.30685e-05
0.0844465
0.0874619
0.000126187
0.00011217
0.000216065
0.052925
0.0396291
0.00065361
0.0244812
0.000110454
9.30945e-05
0.0264007
0.000146217
0.000132276
0.0941736
0.000146747
0.0924732
0.000101255
0.000129187
0.000179298
0.000109543
9.50815e-05
0.000179245
0.0963136
0.000157938
0.0255885
0.0248177
0.000101217
0.000301271
0.000109114
9.38092e-05
0.000105636
9.16659e-05
0.000652813
0.000137693
0.000119311
0.00261297
0.0360891
9.67051e-05
0.000120303
0.00135804
0.000131396
9.9777e-05
0.000126628
0.000102642
0.000102927
0.0680681
0.000120397
0.103773
0.000355865
0.000108289
0.00058538
0.000140004
0.000105346
0.000101262
0.0597258
0.100153
9.5109e-05
9.5928e-05
9.20083e-05
0.000107339
0.0849046
0.000132944
0.000103774
0.000122906
0.00012886
0.0200074
0.0339828
9.49929e-05
0.000130464
0.000103278
0.0812576
0.0553282
0.000107317
0.000146098
9.92689e-05
0.0551021
0.0631005
0.0852869
0.000139071
0.000113059
0.000127141
0.000115801
0.000103868
0.000264428
0.000557305
0.000858988
0.000105736
9.53344e-05
0.000139926
0.000514243
0.000126845
0.0770705
0.000105271
0.000136435
0.000226393
0.00010582
0.000114528
9.5956e-05
9.32251e-05
0.045488
0.000107486
0.000100931
0.000121906
0.0251745
0.000117553
0.00074251
0.000105241
9.32275e-05
0.000136455
0.00010286
0.000118591
0.000106216
0.030657
0.000107507
0.0931673
0.0718244
0.000129557
0.0995625
0.000160095
0.000173284
0.00278378
0.013248
0.0595379
0.000122194
0.000102191
0.000129112
0.0291576
0.0231079
0.0323469
0.0189997
0.0298461
0.000107393
0.086233
0.0191179
0.0188132
0.100463
0.0779024
0.0205828
0.000109987
0.000107712
0.000196322
0.000266185
0.0332522
0.000109
9.989e-05
0.0355628
0.00011193
0.0346674
0.020639
0.000130548
0.000132528
0.000106047
0.0301791
0.000120134
0.000107985
0.0386152
0.000105219
0.0549811
0.0376337
0.10629
0.000120349
9.89252e-05
0.000299116
0.0355071
0.0874296
0.000115651
0.0161852
0.000171624
9.97077e-05
0.0352107
0.000128319
0.0903277
0.000107184
0.000107138
0.000183545
0.000118977
0.000109193
0.000204826
0.000221294
0.0137415
0.0335746
0.000145799
0.000105836
0.0593397
0.000140506
0.00453094
0.0740036
0.0729764
0.000113427
0.0174254
0.0189302
0.0875305
0.000117173
0.0811365
0.0821176
0.0328618
0.032649
0.000146984
0.0782886
0.0325411
0.0449406
0.0618997
0.000107396
0.0874171
0.103585
0.000105586
9.08507e-05
0.000107098
0.00011756
0.0798974
0.0506032
0.0002349
0.000110676
0.000148022
0.000105808
0.000104396
0.0141835
0.0178475
0.000446607
0.000102555
0.0935963
0.0358985
0.000102251
0.00011102
0.000124463
0.00159169
0.000118785
0.00012123
0.000147778
9.62138e-05
0.0433138
0.0656413
0.000111596
0.000194451
0.000111744
0.000105844
0.000106086
0.000103586
0.000111006
0.0339418
0.000128564
0.000369141
9.09313e-05
9.49483e-05
9.52544e-05
9.68548e-05
9.68324e-05
0.0308831
0.000212847
0.000142878
0.000187028
0.000590971
0.000114068
0.000104691
0.000439838
0.000109439
0.0235959
0.0878279
0.000101331
0.00436212
0.000141287
0.0469031
0.043549
0.000111647
0.0647857
0.000104365
0.101734
0.000150698
0.000108128
0.0178806
0.0189574
0.000106105
0.0457545
0.0230166
0.000427075
9.75325e-05
0.0152088
0.0348424
0.0354777
0.0691816
0.0339728
0.03551
0.000105514
0.000129283
0.0269741
0.000123579
0.0428771
0.062641
0.000123759
0.000100826
0.000106837
0.0869026
0.0321323
0.000118997
0.000136572
0.000103267
0.000103046
0.0661791
0.0363132
0.000451763
0.000103447
0.109273
0.000123865
9.22414e-05
0.000110456
0.00010374
0.0561403
0.0245246
0.00987394
0.000105516
0.101714
9.73724e-05
0.063844
9.56371e-05
0.000123521
0.000101368
0.0026601
9.79816e-05
0.104596
0.00188654
0.000222543
0.000126104
0.000129767
0.0604836
0.0799697
0.000147294
0.000105938
0.0018137
9.32825e-05
0.0630533
0.0609958
0.077089
0.0712732
0.000114363
9.3238e-05
0.000120088
0.000124531
0.000522777
0.0988558
0.0637251
0.000144878
9.39134e-05
0.000108659
0.000106455
0.000105615
0.015741
0.0267294
9.90269e-05
0.0185997
0.0664214
0.040132
0.000174643
0.0811628
0.0121405
0.0784445
0.000142381
0.000592911
0.0369587
0.000105966
0.000104736
0.000283149
0.0343694
0.00020192
0.0389682
0.0015852
9.77674e-05
0.000106292
0.000191506
0.0578751
0.00196567
9.7752e-05
0.101062
0.00024027
0.0301467
0.09947
0.0946525
0.000117001
0.00048103
0.0003792
0.000109621
0.0968424
0.000101871
0.0966755
0.000139237
0.0613319
0.000119778
0.00014128
0.000127995
0.0988726
0.000141277
0.000208075
0.000106032
0.000182709
0.0424142
0.000105497
0.0258701
9.26277e-05
0.000500474
0.000128644
0.000107805
0.000688526
0.000112868
0.000250695
0.000115747
0.000207274
9.59463e-05
0.000406191
0.0528882
0.0633007
9.87051e-05
0.10221
0.0797733
0.0558033
0.000149152
0.000618251
0.0432024
0.0297442
0.000101809
0.00274292
9.6885e-05
0.000129511
0.00212632
0.000105484
0.000533669
0.0740706
0.000743164
9.28988e-05
0.10328
0.000129553
0.0356318
0.0543916
0.000113897
0.0685821
0.0794648
0.000117249
0.0321322
0.000105711
9.41645e-05
0.000114893
0.000105289
0.000122609
0.0306962
0.000112755
0.0364684
0.0684154
0.0515983
0.000307095
0.00010694
0.000118936
0.0368497
0.000134942
0.000130966
0.000170814
0.0224513
0.000151592
0.0199196
0.000158468
0.000467997
0.0882572
0.0853501
0.0389857
0.00123122
0.000121672
0.000121821
0.000138349
0.000120698
0.0906393
0.000105723
0.0559149
0.0927857
0.0602028
0.0151068
0.000119526
0.000190057
9.14078e-05
0.0775354
0.000147106
0.000106591
0.095647
9.74829e-05
0.012866
0.000151572
0.000108185
0.0379252
0.0363504
0.0671647
0.0702076
0.000109699
0.035293
0.00134283
0.000133225
0.000145887
0.0891232
0.000102841
9.77867e-05
0.000128548
0.000158894
0.0239588
0.0320137
0.102912
0.0983229
0.0703279
0.00010025
0.0288814
0.0739933
0.000488532
0.000104467
0.000120104
0.086774
0.000102934
0.0657636
0.027614
0.000132274
0.0767516
0.0566038
0.0950688
0.000120623
0.000102365
0.000101139
0.119304
0.050501
0.000121515
0.067855
0.0412701
0.000109207
0.0528799
0.000108039
0.000134308
9.49159e-05
0.000106877
0.000105188
0.120112
0.0246017
0.000211652
0.000779685
0.000114072
0.000184506
0.0942408
9.56559e-05
0.0847623
0.0697078
0.00153548
0.000151176
0.000122496
0.000348844
0.000652252
0.000131649
0.000116899
0.0560992
0.0487311
0.104915
0.000126725
0.000202362
0.000126964
0.000111335
0.000186618
0.000105849
0.000106908
0.000145364
0.057889
0.000139274
0.000159931
9.48683e-05
0.0765804
0.000103373
0.000608408
0.000240202
0.0569946
0.000135864
0.0444724
0.000122226
0.000111111
0.000105705
0.00162575
9.92198e-05
0.000102895
0.000109097
0.0399113
9.35713e-05
9.44838e-05
0.0180776
0.0442523
0.0970441
0.00877564
0.0292542
0.116788
0.059864
0.0642691
0.000255562
0.000106227
9.73303e-05
0.000117391
0.000116981
0.000113003
0.0451325
0.000353851
0.0240858
0.00350474
9.14534e-05
0.0176758
9.39411e-05
0.0623534
0.000120691
0.000122164
0.0728137
0.000462446
0.00514802
9.36274e-05
0.041793
0.000105857
0.0671789
0.000105063
0.000324989
0.000158594
0.0737016
0.0603154
0.00013133
0.000101685
0.000103952
0.000133501
0.00011382
0.0374902
9.70472e-05
9.90834e-05
0.000106514
0.00010417
0.000103428
0.000306137
0.0533235
0.000119366
0.07836
0.0387939
0.000140498
0.000137254
0.000122497
0.00953789
0.000116101
0.0576896
0.000106309