/*--------------------------------*- C++ -*----------------------------------*\
| =========                 |                                                 |
| \\      /  F ield         | OpenFOAM: The Open Source CFD Toolbox           |
|  \\    /   O peration     | Version:  v2012                                 |
|   \\  /    A nd           | Website:  www.openfoam.com                      |
|    \\/     M anipulation  |                                                 |
\*---------------------------------------------------------------------------*/
FoamFile
{
    version     2.0;
    format      ascii;
    class       volScalarField;
    location    "150";
    object      p;
}
// * * * * * * * * * * * * * * * * * * * * * * * * * * * * * * * * * * * * * //

dimensions      [0 2 -2 0 0 0 0];


internalField   nonuniform List<scalar> 
18540
(
-0.255953
0.00832676
-0.0117132
-0.276677
-0.0702475
-0.0879549
-0.0707677
-0.159615
0.32222
0.0250729
0.065942
0.035707
-0.250698
0.0272596
-0.244607
-0.254545
-0.0908977
0.120666
-0.493305
-0.319595
0.235612
-0.198441
0.00528253
-0.190801
-0.156297
-0.028427
-0.199201
-0.158263
-0.089529
-0.26987
0.00809141
0.0288995
-0.195254
-0.17435
0.0140211
-0.279923
-0.202983
-0.000619261
-0.0266622
0.2107
0.00698142
0.0225275
-0.471213
-0.210946
-0.156025
-0.0303968
-0.273541
-0.0114511
0.229746
-0.104166
0.0278918
0.487846
-0.325515
0.00380486
-0.0293764
-0.091363
-0.251911
-0.425062
-0.367003
-0.0313328
-0.278085
-0.0748219
-0.0271016
-0.21088
-0.264935
-0.0152669
0.116852
0.00168398
-0.375219
-0.027023
-0.0890964
0.160972
-0.207384
-0.427212
-0.118539
-0.165652
-0.0844934
0.000612321
0.116627
-0.228526
0.00915608
-0.380817
-0.000902163
-0.170259
-0.280916
-0.195933
0.0214894
0.00571088
-0.040698
-0.194875
-0.281887
-0.233537
-0.041668
-0.0197118
-0.0748212
0.026148
-0.0186498
-0.121802
-0.48271
-0.22121
-0.0382277
-0.0011302
-0.218203
-0.259334
-0.247888
-0.193485
-0.0388384
-0.45309
-0.0227238
0.0950496
-0.177271
-0.194879
0.000808961
-0.0150748
-0.394237
-0.0141271
-0.00249825
-0.119938
0.0136281
-0.089369
-0.496661
-0.393184
-0.299571
-0.371586
0.00273962
-0.0873849
-0.103253
0.0991872
-0.472276
-0.157928
-0.313616
-0.0187536
-0.116994
-0.200357
-0.0106098
-0.0135683
0.0632787
-0.0568185
0.055079
-0.0160607
-0.263014
-0.210321
-0.113696
-0.22723
-0.0214976
-0.0150398
-0.101813
-0.197917
-0.0558555
-0.396428
-0.0107296
0.0616778
-0.0160933
-0.39726
0.243223
0.312899
-0.389909
-0.0216522
0.00664052
-0.455261
-0.153423
-0.119048
0.0224725
-0.0103696
-0.501653
0.0356687
-0.21299
0.10017
-0.244501
-0.028063
0.00605843
-0.0919376
-0.0317806
-0.0410396
0.00891047
-0.378025
-0.0728655
-0.306688
0.220214
-0.164816
-0.0350984
0.0687118
-0.119737
-0.229708
0.101449
-0.209453
0.0491219
-0.0673606
-0.299835
-0.000715085
-0.0906027
0.00866028
-0.195493
0.00310424
0.251869
0.00701186
-0.102331
-0.273195
-0.172853
-0.0210546
-0.0386314
-0.236864
0.077171
-0.101557
-0.198243
-0.195356
0.0378296
-0.278858
-0.370616
-0.114144
0.0286336
-0.406246
-0.311371
0.00773244
-0.0395098
-0.116039
-0.373115
-0.0688963
-0.192762
-0.207496
-0.404534
-0.1593
-0.233993
0.307593
-0.260215
-0.505115
-0.102635
-0.112708
-0.376178
-0.138246
-0.0223315
-0.280479
-0.209209
-0.0172598
0.0224363
-0.0767889
0.0272187
0.14855
-0.151871
0.0827345
0.457514
-0.240733
-0.263028
-0.102639
-0.198601
-0.385285
0.00720321
-0.0143645
-0.0977119
0.0375364
-0.0957817
-0.367588
-0.451088
0.0633209
0.10501
-0.204309
-0.281796
0.3669
0.0350036
-0.161638
-0.188241
-0.301734
0.0553076
-0.380703
-0.262681
-0.0984727
-0.344617
-0.347755
-0.000923597
0.00787843
-0.438162
-0.210543
-0.464626
-0.0401824
-0.21963
-0.24816
-0.0163317
-0.139673
-0.284879
0.00920834
0.0179359
-0.24278
-0.059606
0.0267872
0.334043
-0.0275331
0.378893
-0.136493
-0.285876
-0.215693
-0.392379
-0.204211
0.000468177
-0.00118314
-0.401253
-0.118844
-0.26952
-0.0374471
-0.355195
0.259647
0.0385611
-0.356338
-0.168058
0.19545
0.086287
0.017622
0.461768
-0.0102299
0.355706
0.0279933
-0.159714
-0.0464589
-0.251104
-0.103688
-0.366345
0.405797
-0.241108
0.0338856
-0.232953
-0.45316
-0.297575
0.281513
0.0362121
-0.364564
-0.0576533
-0.0403438
-0.118634
-0.0114341
0.0180689
0.00498671
-0.0149072
-0.206642
0.300342
0.143511
-0.303196
-0.14226
-0.0291996
0.0107246
-0.234559
0.187315
-0.113423
-0.115389
-0.0628176
0.11047
-0.284317
0.279649
0.00883659
-0.163
-0.0702851
-0.15779
0.00614355
0.0100661
-0.40133
0.0201303
0.0170873
-0.374978
0.00901336
-0.0166561
0.00377473
-0.161992
-0.1207
-0.00957352
0.0178296
-0.0323051
-0.397913
0.0160122
-0.0301732
0.0225847
-0.0280318
0.00271302
-0.250525
-0.0136255
-0.270445
0.0320339
0.0102615
-0.170693
0.0278035
-0.173866
-0.0587203
-0.185718
-0.426455
-0.00985079
-0.105671
-0.285973
0.0730033
-0.0155926
0.346296
-0.270197
0.00260292
-0.38069
-0.371111
-0.00940385
-0.0448285
-0.359783
-0.250961
0.0149281
-0.397965
-0.280157
0.00270164
0.358883
-0.469572
-0.209942
-0.0686941
0.0266485
-0.119212
-0.018116
-0.181182
-0.297754
0.0390644
-0.131665
-0.180142
-0.450056
-0.181397
-0.00938635
-0.120728
0.451176
0.0109392
-0.0925881
-0.272926
0.315318
0.132159
-0.263885
0.00260658
0.478049
-0.0140429
-0.123934
-0.0144111
0.287263
0.0610245
-0.00515824
0.00551691
-0.295237
-0.123412
-0.356447
-0.0116139
-0.882888
0.0055405
-0.0188641
-0.400001
0.0305524
0.35608
0.0917399
0.315632
-0.276161
0.0291762
-0.0378787
0.0463601
-0.274962
0.0350711
-0.0283602
-0.403791
-0.397785
-0.0131129
-0.0197152
-0.039925
0.0513227
-0.101293
0.0284161
-0.272012
-0.198532
-0.070173
0.00882767
-0.119064
-0.0445811
0.00637183
-0.0311579
-0.381708
-0.0756891
-0.262907
-0.215452
-0.0153995
0.0952221
-0.436873
-0.438373
0.273039
-0.0274123
-0.296817
-0.000801156
-0.236501
-0.0193856
-0.142293
-0.0254985
-0.349456
0.0384745
-0.0763878
0.0174348
-0.118788
-0.453604
0.033001
-0.0414335
0.383002
-0.151911
0.201869
-0.287181
-0.190859
0.312298
-0.0101786
-0.303888
-0.247095
0.0630646
0.287264
0.0531719
-0.0305457
-0.0565653
0.0219726
-0.0594185
0.0172102
-0.0476935
0.195394
-0.304734
0.0383745
0.050878
0.0229637
-0.130325
-0.175087
0.0287325
-0.0792474
-0.00349063
-0.204928
0.00149166
-0.473716
0.0255453
-0.133811
-0.351417
-0.117437
-0.0270831
0.0138335
-0.28438
-0.00314866
0.0203897
-0.398394
-0.234765
-0.00630791
0.00544794
0.00484789
-0.0453097
-0.339747
-0.164752
0.00759806
0.0222483
0.0088673
0.174165
-0.276463
-0.137066
-0.076545
-0.026677
-0.435904
-0.338207
0.0840366
-0.103932
0.118711
-0.00863902
-0.213505
-0.348177
-0.0253019
-0.101929
-0.266943
-0.420907
-0.277353
-0.00439587
-0.0240117
-0.00681329
-0.016245
0.115659
-0.0476109
-0.255837
-0.00842309
0.0377105
0.114799
0.0713357
-0.0252038
0.0221034
-0.106789
-0.0480912
0.155602
-0.443664
-0.034275
-0.0168451
-0.0401375
-0.0131448
-0.227891
0.00738134
-0.405044
-0.166953
-0.372604
0.163859
0.0226986
0.0331409
-0.0685482
-0.287944
-0.105844
-0.0235448
0.025137
0.037396
-0.445414
0.0344375
-0.0334824
-0.390422
-0.0445573
-0.0269494
-0.39534
-0.158444
-0.0382369
0.107403
-0.456759
0.0683146
-0.0293392
0.0269291
0.0289485
-0.161774
-0.0759903
-0.204398
-0.457024
-0.389154
0.00345339
-0.332965
0.00305798
0.0105152
-0.175152
-0.0425344
-0.293706
-0.25662
-0.0113816
-0.37437
-0.236959
-0.190799
-0.118698
-0.0702475
0.447528
-0.29354
-0.0858086
-0.168756
-0.425427
-0.386807
0.00388792
-0.0444106
0.0846317
-0.289189
-0.026723
-0.09107
-0.291205
-0.239041
0.0543025
-0.10352
-0.453263
0.299662
0.0114343
-0.0339641
0.0286204
0.0606115
-0.332559
0.00634867
0.0276503
-0.0348049
0.154656
-0.21319
-0.0378183
-0.463531
-0.0406049
-0.304725
0.00680432
-0.197019
0.0544085
-0.0764609
-0.428926
-0.135295
0.0466202
-0.170592
-0.186185
0.219458
0.00538603
0.377909
-0.170584
0.180905
-0.200029
0.0473451
-0.233707
-0.209526
-0.0260382
0.025958
0.0231094
-0.0124005
-0.164744
-0.0819611
-0.030034
-0.087286
-0.350053
-0.0366415
-0.0684468
0.0824169
-0.0105128
-0.197174
0.276558
-0.4297
-0.0821363
-0.254877
-0.0201621
-0.108964
-0.0667694
-0.438401
0.0465905
-0.0260437
-0.0434238
-0.033671
-0.0192747
-0.0171134
0.407934
0.0170027
0.27975
-0.332517
-0.0284375
-0.0433492
-0.19678
-0.331915
-0.187842
0.0211017
0.00717767
0.154875
-0.00950037
-0.0860921
-0.252115
0.060142
0.00339656
0.00629176
-0.0468912
0.09617
0.230637
0.0293231
0.0164982
-0.0432841
-0.105979
0.0896942
-0.0836179
-0.119581
-0.303445
0.00826242
-0.0171135
-0.169982
-0.232824
-0.119527
-0.00405231
-0.193679
-0.497864
-0.164507
-0.0818136
-0.0832117
-0.414055
-0.0250552
-0.436166
-0.220182
-0.255492
0.00180174
0.00113406
-0.0170776
-0.00578615
-0.198351
-0.0643448
0.178687
-0.0135939
-0.0383175
-0.24835
0.0068465
-0.0130615
-0.00747959
0.369737
-0.292984
-0.016224
0.0916415
-0.217653
-0.106006
0.00742499
0.28225
-0.17491
-0.177683
0.00111824
-0.222939
0.00071678
-0.259774
0.205773
-0.0092212
-0.146494
-0.214327
0.0267595
-0.501079
-0.0680205
-0.166869
0.0221342
-0.175415
-0.211866
0.242749
0.096514
-0.103005
-0.346714
0.0179364
-0.0551161
-0.351601
-0.0750888
0.00777053
0.279381
-0.120025
-0.0860154
-0.0776828
-0.184928
0.0803558
-0.0309439
-0.241453
-0.0118979
-0.0126438
0.414362
-0.00556868
-0.0207735
0.00181494
-0.153577
-0.450745
-0.0413107
-0.0656638
-0.452193
-0.00770205
-0.325504
0.0195273
-0.167618
-0.00941343
-0.0324204
-0.05868
-0.305995
-0.0269245
0.22629
0.0633915
0.159021
-0.0175181
-0.0464242
-0.244854
-0.298748
0.0320991
0.417125
-0.201281
0.160246
-0.231845
0.0307285
-0.042242
0.0416141
-0.450082
-0.216271
0.00119546
-0.0218306
-0.0117927
-0.195518
0.00686912
-0.0321154
0.128104
0.0385607
-0.0335975
-0.284445
0.422313
-0.0708638
-0.0111598
-0.271398
0.00387493
-0.0769867
-0.239885
-0.222517
-0.301774
-0.0330864
-0.181064
0.00446735
-0.0697925
-0.00971689
0.0509728
-0.197474
0.299073
-0.0336051
-0.449382
0.000620845
0.104457
-0.374566
0.00498802
0.298951
0.445319
-0.0798199
-0.383909
0.00883742
-0.457208
0.0450838
-0.359567
-0.133815
0.00296893
-0.296416
-0.0595201
-0.0229055
-0.167234
0.00179039
-0.0325527
-0.288376
-0.0293072
-0.191961
0.0183993
-0.00689457
-0.144305
-0.298475
-0.0121855
-0.380625
0.0134306
0.0167622
0.0860444
0.00329092
0.465378
-0.176949
0.0386285
-0.200855
-0.172432
0.00278003
0.00435625
0.015406
-0.175664
0.060185
-0.102482
-0.416181
0.0239912
-0.376854
-0.102831
-0.173258
0.385596
0.0197339
-0.392689
-0.422358
-0.207669
-0.169138
0.0181029
-0.0106765
-0.308615
0.108028
-0.191469
-0.33878
-0.0188731
-0.0608945
0.0019295
-0.0676482
-0.197148
0.00184584
-0.216118
-0.0821652
-0.157272
0.257731
-0.477253
-0.0158415
0.0364095
0.201791
-0.224586
-0.0550789
-0.0740152
-0.375638
-0.252778
-0.0496138
-0.35683
0.0346118
-0.222305
0.0227695
-0.0259182
-0.43972
-0.166291
-0.26401
-0.164728
-0.0153775
-0.132747
0.00124584
-0.240422
-0.0217477
-0.4432
-0.0680273
0.0117006
-0.0217442
-0.0216303
-0.448114
-0.181673
0.0183975
-0.0132058
0.0229455
0.00332152
-0.301346
-0.207962
0.0197906
-0.275143
-0.229669
-0.0234657
0.0153703
-0.166861
-0.219753
-0.241459
-0.348915
-0.114439
-0.0182017
0.00134067
-0.172017
-0.452545
-0.206444
-0.278378
-0.100025
-0.419658
-0.0248248
-0.182257
0.0108839
-0.0109281
-0.00135267
-0.0400446
-0.235369
-0.0261364
-0.402128
-0.0154173
-0.393407
-0.0768875
-0.103772
0.342592
-0.232829
-0.120397
0.36739
0.418864
-0.0536031
0.0474277
-0.260937
-0.271978
-0.167093
0.00794374
-0.0799096
0.0204501
0.165353
0.0372165
-0.0266199
-0.175055
-0.294941
0.0267639
-0.173313
0.0169249
-0.359065
0.0459606
0.00700454
0.0149399
-0.468203
0.0175371
-0.276923
0.0267892
-0.0245475
-0.228705
-0.0466557
-0.190749
-0.207704
0.0225344
0.0130524
-0.421262
-0.0908679
-0.1648
-0.0292523
-0.137635
0.0578146
0.177605
-0.0305924
-0.0219233
-0.122941
-0.0164896
-0.293935
-0.0269563
-0.0149217
-0.0222466
-0.0233274
-0.178474
-0.311259
-0.135774
0.0103262
0.00238084
-0.0407237
-0.20643
0.0237944
0.0148396
-0.153661
-0.210089
0.00118353
-0.0179709
-0.0752795
0.0456082
0.225382
-0.174359
-0.139943
-0.0271449
0.0498914
-0.0213512
0.0718048
-0.0459002
0.308608
0.0186673
0.437688
-0.191495
-0.285602
-0.0897487
-0.27289
-0.174351
0.152666
-0.0115728
-0.0861301
-0.0198809
-0.360681
-0.0221139
0.274861
-0.101063
-0.0121521
-0.0664207
-0.411085
-0.277121
0.0569214
0.0997093
-0.214754
-0.398584
-0.28833
-0.0111299
-0.302612
-0.228932
0.16291
-0.212246
0.0269071
0.0472961
-0.376942
-0.446011
0.182422
0.00199028
-0.469698
-0.205617
-0.294828
0.234946
-0.246424
0.0166192
-0.308468
0.230025
0.00616828
-0.0901838
-0.412486
-0.376991
0.0206711
-0.172683
-0.0233401
0.118643
-0.209012
-0.0400554
0.116833
-0.083551
-0.165204
-0.0989292
-0.024936
0.0493377
0.0166982
-0.164661
-0.203368
-0.274566
-0.0195837
0.0876962
-0.0179434
0.00863636
-0.0313104
-0.220223
-0.235197
-0.0397369
-0.222581
0.200948
-0.479912
-0.0359462
-0.167178
-0.225935
-0.153762
0.00681386
-0.281173
0.00671662
-0.0108531
0.0102507
-0.0166908
-0.294242
0.511167
0.0162181
0.0128335
-0.390317
-0.0296309
-0.118367
0.0087542
-0.0157038
-0.00995891
0.0462807
-0.173508
-0.0270856
-0.0070936
-0.205033
0.0290732
-0.0693176
0.0152828
0.00891616
-0.187891
0.0223282
0.0162845
0.386991
0.0108405
-0.0403603
-0.0261094
0.0536746
-0.0301241
-0.0481303
-0.45922
-0.157079
-0.26578
0.0281038
-0.158719
0.310052
-0.42121
-0.450435
-0.458394
-0.242775
-0.16117
-0.45463
-0.167656
-0.275882
-0.435075
-0.202304
-0.0267143
0.0377938
-0.00895624
-0.225103
-0.0119057
0.0126835
-0.0291612
-0.0139317
-0.0158416
-0.0254883
-0.189973
-0.240076
0.0110998
-0.32994
0.298586
-0.0503979
-0.159566
-0.0180443
0.0581795
-0.421607
0.292942
0.0213435
-0.255968
0.008473
-0.105206
0.00992575
-0.241805
-0.28296
-0.400271
-0.47656
0.0656572
0.440834
-0.0201136
-0.466798
-0.0594587
-0.469576
0.208012
-0.285837
-0.0302353
-0.122602
0.0063974
-0.170245
-0.0490488
-0.23212
-0.358794
-0.000536947
0.480697
-0.476263
-0.0258221
-0.0141509
0.0027563
-0.225751
-0.0189587
-0.305417
0.169284
-0.072144
-0.296663
-0.184457
-0.172802
-0.022846
-0.351056
-0.0076363
-0.155346
-0.000961687
0.0090544
0.488479
-0.358298
-0.00600502
0.297872
0.0223674
0.00234664
-0.0608149
-0.0203081
0.0950896
-0.122143
-0.202433
-0.458151
-0.0285393
-0.170396
-0.284515
-0.476813
-0.436493
0.0344832
-0.0185672
0.139295
-0.0604347
-0.134573
-0.413264
-0.00417012
-0.213152
0.483904
-0.017964
0.0168199
-0.180638
-0.432008
-0.273361
-0.108825
-0.0194532
-0.12526
-0.0251647
0.354584
-0.0470209
-0.0252376
-0.0280882
-0.424463
0.137908
0.0289554
-0.233451
0.00943101
-0.0274458
-0.174946
-0.00295635
-0.0157194
-0.0127505
-0.018401
-0.236309
-0.4143
-0.160267
0.164171
-0.0386525
-0.421968
-0.165565
-0.457448
-0.0256222
0.350191
-0.373653
-0.212466
-0.218813
-0.0108196
-0.192169
-0.0397537
-0.00783688
-0.35987
0.0568065
-0.00426469
-0.268201
-0.236665
-0.0554905
0.0771989
0.340023
-0.254174
0.00300395
0.020153
0.472881
-0.0745689
0.0115444
-0.0809826
-0.348614
-0.0192901
-0.41568
0.28065
-0.236605
0.120331
-0.387295
-0.0227545
-0.0260922
-0.203014
0.231711
-0.165231
-0.0236287
-0.0205849
0.0048219
-0.00435587
-0.414681
-0.30777
-0.222403
-0.401229
0.132575
-0.00584453
-0.225833
-0.0277792
0.129127
0.290913
-0.0788774
-0.060268
-0.015197
-0.0752086
-0.0586573
-0.121754
-0.187209
0.0463018
-0.222217
0.0349375
0.0931522
-0.100665
0.0368991
-0.172492
0.0175581
-0.187373
-0.401535
-0.240759
0.102734
-0.0543594
0.0194485
-0.0151104
-0.165424
-0.400785
-0.18097
-0.0183999
0.0222158
-0.45697
0.4382
0.0537458
-0.0116472
0.0118635
-0.0145955
-0.326605
-0.484456
-0.290235
-0.257248
-0.117668
0.00572538
-0.197045
-0.232397
0.0276102
-0.125282
-0.0879764
-0.0257957
-0.0146561
0.220701
-0.389017
-0.234308
-0.159904
-0.212969
-0.0179848
0.00929798
-0.279624
-0.143413
-0.26084
-0.431318
0.0142073
0.054228
-0.448818
-0.191006
0.130968
-0.0138646
-0.283527
0.00718865
0.00303233
-0.305569
-0.130768
-0.0596962
-0.0978286
-0.288334
-0.369082
0.0173712
-0.0254743
0.0337605
-0.0682374
-0.0397406
0.0220216
0.0019297
-0.0735913
0.421984
0.0224679
-0.0484142
-0.000169845
-0.451877
-0.228138
0.0271895
0.0107138
0.0262968
-0.0447297
0.00965697
-0.0256629
-0.0594757
-0.401219
-0.0381489
-0.0736762
-0.217555
0.202331
-0.215784
-0.188639
-0.0629033
0.270552
-0.446972
-0.222265
-0.290919
-0.00831061
0.0267469
-0.223419
-0.369855
-0.374739
-0.211862
-0.0231527
-0.264403
-0.286026
-0.280419
0.0742277
0.280492
-0.203246
-0.324736
-0.130126
-0.244462
-0.246793
-0.012497
-0.0040676
-0.0572834
-0.209322
-0.202129
0.188188
0.42313
-0.403967
0.441501
-0.23191
0.129086
-0.0233194
-0.28856
-0.160333
-0.247503
-0.0330238
-0.383614
-0.0176316
-0.189642
0.0310229
-0.201843
-0.0184431
0.0727342
-0.013599
-0.277577
-0.00638715
-0.000850786
0.0966284
-0.308954
-0.252081
-0.021811
-0.198276
-0.0671175
0.0106027
-0.224815
-0.422576
0.0261294
-0.0451401
-0.245635
0.130324
0.00137316
0.0266782
0.0240653
-0.192555
0.220451
0.0333094
0.0220295
-0.442993
-0.162151
-0.450055
-0.0641742
-0.426879
0.0131795
-0.0273574
-0.0408372
-0.197366
-0.00621612
0.0223758
-0.309888
0.135603
-0.0393318
-0.181655
-0.0676434
-0.00593009
0.440771
0.361868
-0.0212735
-0.10367
-0.330865
0.0267744
-0.000818488
-0.334039
0.0307695
-0.158402
-0.0944354
-0.0025139
-0.097635
-0.206963
0.0028094
0.188576
-0.166715
-0.0178922
0.0153691
-0.356561
0.0307397
-0.268222
-0.186673
-0.0247525
-0.268203
-0.146579
0.0169386
0.509991
-0.21096
0.0265616
-0.103171
-0.208135
0.24759
-0.437099
-0.0196694
-0.466853
-0.0783698
-0.0546925
-0.0344314
0.00226584
0.37237
0.512405
0.049299
-0.0241489
-0.021807
0.00442113
0.0281953
-0.19071
-0.0849713
-0.245459
-0.0709236
0.0605439
-0.357
-0.170204
0.0212042
-0.0442798
0.435856
-0.277744
-0.412372
-0.118974
0.0267772
-0.0189082
0.313572
-0.220787
0.269844
-0.426539
0.436476
0.433608
-0.0874403
-0.195095
-0.00922598
-0.170283
0.202287
-0.0352944
-0.0286496
0.0212721
-0.426853
-0.232606
-0.276543
0.0885137
-0.160884
-0.0270898
-0.0372813
-0.0234624
0.0173472
-0.0332143
-0.00661697
0.120601
-0.432376
0.041892
0.212881
-0.314243
-0.223113
0.0149556
-0.0376774
-0.0179623
-0.210608
-0.00169032
-0.0650629
-0.117699
0.121446
0.137092
0.265442
-0.0483108
-0.0582364
-0.261721
-0.289893
-0.172079
0.047301
-0.171553
-0.0176568
-0.0666371
-0.034452
-0.26111
0.238459
-0.0419417
0.0115335
-0.319471
0.0144232
-0.063646
0.0923373
-0.0349592
-0.00985227
0.00206625
-0.167705
-0.0409903
-0.221272
0.0197982
-0.167552
-0.0960542
-0.269576
0.0945522
-0.0946251
0.2041
0.0473587
-0.0290744
-0.356239
-0.104525
-0.224266
0.032609
-0.186633
0.193598
-0.151416
-0.194047
0.47737
-0.218319
-0.00853209
-0.259283
-0.152602
-0.0327776
-0.216721
-0.105717
0.193286
-0.223033
0.126712
-0.151427
0.119914
0.0996702
-0.205516
-0.0608109
0.0170968
-0.0102722
-0.332564
-0.403044
-0.198018
-0.446036
-0.161759
-0.00680282
-0.258818
-0.192294
0.258077
-0.46945
-0.311129
-0.213251
0.124408
0.0311337
-0.000700025
-0.0617741
-0.0386025
-0.0294105
0.288506
0.0018319
-0.00783071
-0.281333
-0.0459222
-0.165424
0.0344765
-0.354549
-0.447641
0.259115
-0.25395
0.124193
-0.0949596
-0.334862
-0.217031
-0.028679
0.0119315
-0.229082
-0.186484
-0.00766192
-0.311758
0.0254064
-0.0278294
-0.148734
-0.416747
-0.272551
-0.388634
-0.0069782
0.0310925
-0.0263431
-0.0211587
-0.00823206
0.235406
-0.218545
-0.369768
-0.0761505
0.0648551
-0.31462
0.00227965
-0.0192762
-0.136735
-0.0864684
-0.165447
-0.165704
-0.119046
-0.269703
0.00832822
-0.165133
-0.237991
-0.0409729
-0.0994678
0.119881
-0.324203
0.0348987
-0.00762754
-0.01752
-0.105441
-0.229902
-0.136827
0.00421829
0.0192754
0.0253978
0.00336171
-0.242779
-0.423275
-0.257899
-0.142062
-0.468975
0.47894
-0.0275273
-0.132354
-0.0379223
-0.355274
0.307805
-0.0857725
-0.210209
-0.187303
-0.0368704
-0.0746499
0.293318
0.000349199
-0.0117447
-0.374324
-0.00805451
0.0178097
-0.0214373
-0.389427
-0.211252
0.00652387
0.232997
-0.14881
-0.353768
0.0229087
-0.383223
0.164558
-0.261221
-0.161015
-0.41252
0.488126
-0.00687631
0.00786544
0.0329332
-0.337286
0.33665
0.0333752
-0.275385
-0.272846
-0.253639
0.46949
0.00724288
-0.332414
-0.383062
0.0482301
0.122704
-0.190268
-0.104533
-0.436793
0.0131089
-0.422291
0.0197092
0.163655
-0.317041
-0.140585
-0.0284779
-0.0152624
-0.353152
-0.0161751
-0.0140287
-0.193657
0.0124556
-0.219767
-0.247855
0.373475
-0.0331358
0.236824
-0.197311
-0.0159686
-0.183931
-0.00800984
0.131073
0.0101796
-0.20781
-0.263361
-0.000531229
-0.238612
0.018003
-0.362285
-0.251256
0.50222
-0.0324452
-0.347428
-0.338485
-0.218657
-0.250409
0.028199
-0.37237
-0.417385
0.0002547
-0.412384
0.205506
-0.149473
-0.209842
0.189313
-0.315914
0.375898
0.151613
-0.0769731
-0.26213
-0.364866
0.0486584
-0.199596
-0.2868
0.483939
0.16052
-0.502856
-0.0700456
-0.00671271
0.010203
-0.379698
0.0226183
0.011488
-0.133412
-0.049244
0.00504631
-0.16348
0.0226083
-0.204542
-0.174266
-0.0777749
-0.214587
-0.232808
-0.0161565
-0.223044
0.0141899
-0.0319605
0.332303
-0.292373
-0.0247114
-0.1879
0.173811
-0.0044069
-0.0491489
-0.0182969
-0.00987275
-0.0139053
-0.105347
0.109282
-0.149643
-0.143844
-0.103005
-0.0806146
-0.198204
-0.05798
-0.377917
-0.209578
0.0155128
-0.0205807
0.260777
-0.24698
-0.444128
0.366988
-0.226666
-0.133269
-0.0657634
-0.383456
0.00314808
-0.14788
-0.224398
0.0149118
-0.426329
-0.0294844
0.0273457
0.23052
-0.0086483
-0.0787459
0.0881613
-0.412906
-0.148699
-0.364058
-0.455269
-0.0405286
0.132463
0.135632
-0.0358877
-0.0135374
-0.0234336
-0.166572
0.00239772
0.00624052
0.444397
-0.172665
-0.0214684
0.0349393
-0.00413382
0.028482
-0.0226568
-0.000260178
-0.0201048
-0.102018
-0.35653
0.190252
-0.337748
-0.222221
0.0491628
0.268646
0.00550579
0.0127317
-0.0790828
-0.248061
-0.286839
-0.0790242
-0.0739295
-0.0290502
0.098037
-0.234353
0.0227789
-0.10099
0.0223843
0.0246795
-0.161819
-0.169721
-0.0332882
0.00423161
-0.0150026
-0.172769
-0.260282
0.0796241
0.00503692
-0.0979911
-0.186599
-0.182605
-0.305648
0.026132
0.00573506
0.0151386
-0.140891
-0.022948
-0.234684
0.316961
-0.207706
-0.0744961
-0.0407423
0.0260024
0.362404
0.0083475
-0.429265
-0.0136675
0.021065
0.248256
-0.00729771
0.158018
-0.0728754
-0.0265382
-0.37865
-0.0111827
-0.0951411
0.0161878
-0.319854
-0.00409749
0.319029
-0.0139241
-0.0355021
0.021795
-0.052273
0.0239218
-0.00866223
-0.440994
-0.00132016
-0.27693
-0.374729
-0.148353
-0.351701
-0.193896
-0.203913
-0.208201
-0.164359
-0.330135
0.015819
-0.0166174
0.0245532
-0.219764
-0.164112
0.473363
-0.165671
-0.363258
0.082347
-0.191705
-0.246925
-0.359135
-0.448214
0.215298
-0.471471
0.0166264
0.00134464
-0.201072
-0.203167
-0.289422
0.0488818
-0.0404575
-0.210769
-0.00577793
-0.386836
-0.230144
0.0267715
0.0217556
0.00242476
-0.464004
0.00329649
0.047749
-0.26909
-0.0675551
-0.198656
0.490927
-0.172408
0.0261932
-0.0588784
0.145253
0.504316
-0.508726
-0.14174
-0.221704
-0.148935
-0.0227853
0.424074
0.0112734
0.170864
-0.0114511
-0.0116229
-0.201442
0.174548
0.0089246
-0.14918
0.23637
-0.32877
-0.408857
0.0199415
0.013224
-0.286031
0.0228216
0.417801
-0.190342
-0.410635
-0.0442081
-0.160039
-0.465141
-0.244287
-0.00829377
-0.220955
-0.269455
-0.369011
0.364783
0.00311878
-0.363577
-0.306043
-0.179762
-0.283872
0.0808902
-0.267837
-0.341037
0.0142571
-0.0274323
-0.0853276
0.0114349
-0.258527
-0.438703
-0.18895
0.0888937
0.011752
0.000887991
-0.00482546
-0.167845
-0.163188
-0.249828
-0.0662547
-0.227798
0.496496
-0.0636975
-0.108876
0.195803
0.427431
0.0297558
0.177707
0.00327684
-0.0209305
-0.205163
-0.371683
-0.122738
-0.131369
-0.135587
0.0107738
-0.0131269
-0.0170361
0.145844
0.450426
0.143594
0.207559
-0.0244963
-0.0427431
-0.0329705
-0.0385763
-0.0467697
-0.458034
-0.195372
0.165395
0.275084
-0.27769
-0.12955
-0.116837
0.264422
-0.00680481
0.42582
-0.256482
-0.0978632
0.0876508
0.0178227
-0.437747
-0.341479
-0.00598203
-0.189786
-0.0608187
-0.320128
0.201213
-0.00644191
-0.342239
-0.430436
0.0131686
-0.264794
-0.451404
0.308557
-0.051412
-0.248947
-0.228575
-0.445238
-0.372489
-0.459996
-0.462834
0.0118372
0.0290828
-0.303874
0.000961835
-0.452957
-0.402959
0.00123644
-0.0393423
-0.0127875
-0.175037
-0.333092
0.0119615
0.0113234
-0.0235431
-0.114332
-0.358633
-0.19486
-0.215555
-0.0193198
-0.395967
0.196943
-0.0286406
-0.122307
-0.0921811
-0.418736
-0.165263
-0.305749
0.00698706
-0.29857
-0.0892399
-0.269404
-0.024577
0.0295396
-0.0175289
0.442324
-0.0766087
-0.436556
-0.255765
-0.0782411
0.0293499
0.00198636
-0.237323
-0.186703
0.0121496
-0.0535936
0.413914
-0.0228413
-0.319338
-0.291315
-0.416773
-0.394969
0.0149044
-0.0235786
0.0347787
0.00161135
0.360318
-0.336079
-0.2805
-0.168765
-0.023554
0.130906
-0.00821043
0.00909561
-0.158876
-0.165491
-0.059785
-0.161955
-0.403934
-0.289208
-0.199533
-0.300643
-0.248896
-0.178039
0.012113
0.105794
-0.356891
0.0341605
0.00244021
0.0744813
-0.419588
-0.195622
-0.400546
0.423461
-0.0768729
-0.0124699
-0.191618
-0.198997
-0.205755
-0.0484143
-0.297483
0.0186902
-0.459853
-0.330312
-0.294666
0.0375726
-0.252256
-0.247635
0.139713
-0.251668
-0.0991147
-0.304157
0.00560275
-0.183654
0.0353529
0.0256342
-0.159533
-0.454254
0.174748
-0.213811
-0.0128621
-0.204189
-0.369295
-0.0583248
-0.473187
-0.0435152
-0.270694
0.000427895
-0.010844
-0.279929
-0.00500651
-0.181874
-0.147073
-0.209554
-0.059382
-0.251563
-0.391069
-0.251569
-0.0196467
-0.308028
-0.483457
-0.369441
-0.0437657
-0.271262
-0.23279
-0.44239
-0.0351378
0.434934
-0.0210874
0.0291011
-0.288364
-0.00997651
-0.12591
-0.259565
-0.277695
-0.0658412
-0.387177
0.0274744
-0.23492
-0.245964
-0.0227822
-0.297924
-0.420177
-0.0041801
0.497919
0.0162525
-0.0657361
-0.132148
-0.064123
0.0147786
0.484454
0.048295
-0.23712
-0.423254
-0.281276
-0.216246
0.00448966
0.168152
-0.364085
0.0189614
-0.137654
0.261087
0.357556
-0.187128
-0.16659
-0.193459
-0.0372357
-0.306362
-0.254518
-0.24195
-0.199807
0.00589789
0.005267
0.00478741
0.0201156
-0.253941
0.0191597
-0.390314
-0.34488
-0.40081
-0.349307
-0.000412677
0.280089
-0.0301859
-0.27204
0.00864795
0.0342732
-0.344536
-0.0527717
0.308008
-0.0398596
0.0101849
-0.387686
0.444346
-0.327121
-0.30813
-0.107681
-0.40125
0.406334
0.212662
-0.176527
-0.211295
-0.0272821
-0.0469232
0.0235088
-0.139436
-0.164645
-0.466506
-0.454832
-0.257017
-0.326637
-0.0184228
0.468769
-0.422919
-0.270221
-0.118027
0.0339597
-0.25543
-0.0217065
-0.299454
-0.174143
0.0273919
-0.193596
-0.194078
-0.447424
0.0256116
-0.0162493
-0.017244
-0.429933
-0.19843
-0.00225765
-0.353213
-0.313066
0.000348118
-0.195008
0.0641912
-0.0164313
-0.0760686
-0.00320639
0.00307254
-0.409049
-0.364334
0.295545
-0.274443
0.0153697
-0.2056
-0.36161
-0.0254377
-0.215314
0.303055
0.00829396
-0.188981
-0.132103
-0.218872
-0.0660301
0.0917931
-0.00439269
-0.194891
-0.129087
-0.383705
0.0216611
-0.218179
0.201407
0.0297549
-0.197028
-0.0455927
0.0489016
0.0125765
-0.29033
0.16613
-0.143652
-0.0694814
-0.386681
-0.105716
-0.27582
-0.180863
-0.257134
0.0214772
-0.405814
0.0342427
0.150847
0.0214674
-0.274591
-0.0984244
-0.0165486
0.0107275
-0.237907
-0.0359556
-0.0726544
-0.167702
-0.293757
-0.296887
-0.242209
-0.44831
-0.367782
-0.318031
-0.497504
-0.195726
0.0203475
-0.0796758
0.0271115
-0.00342429
-0.133875
-0.208509
0.0167653
-0.164675
0.369017
-0.0418782
-0.268624
-0.0669606
-0.256517
0.00920743
0.0151108
-0.177642
-0.261391
-0.251384
-0.0226164
-0.270232
0.0164151
-0.281205
-0.00688124
0.224999
-0.192427
-0.451823
-0.25094
0.0265198
-0.0195643
-0.0110654
0.026319
0.0747446
-0.194862
-0.0881409
-0.0963401
-0.0877586
-0.00881393
-0.0174656
-0.166013
-0.109239
0.00140667
-0.252327
-0.370985
0.0257512
0.024682
0.0339911
-0.250015
0.106935
-0.368656
0.00250137
-0.276604
-0.131444
-0.170009
-0.255664
-0.0782905
-0.382513
-0.019283
-0.228375
0.428478
-0.075728
-0.000484672
0.104166
0.0209778
-0.0344181
0.0220547
-0.327873
-0.25099
0.295621
-0.0584533
-0.471818
0.0047156
0.0247013
0.161532
-0.163827
-0.0200271
-0.00634704
0.000367955
-0.062548
0.270078
-0.465898
-0.196289
-0.0483772
-0.147767
-0.297526
-0.161924
-0.0394833
-0.0232889
-0.213964
-0.127917
-0.259767
-0.283726
-0.218707
-0.0209968
-0.334249
-0.282543
-0.143703
-0.318987
-0.239653
-0.0192575
-0.0167279
-0.28372
-0.0859886
-0.36797
-0.292076
-0.445986
0.0191579
-0.42509
-0.00952381
0.0567567
-0.000812646
-0.354937
-0.0603104
-0.346132
-0.0247725
0.335351
-0.222076
-0.346246
-0.165083
0.131709
-0.290994
0.0334669
0.0370136
0.00998037
-0.0208569
-0.192871
-0.256371
-0.00555251
-0.430385
-0.305651
-0.255774
-0.152067
-0.163799
-0.184544
0.208601
-0.313996
-0.304441
-0.0920878
-0.187709
0.166011
-0.247264
-0.0107801
-0.0616198
-0.313982
0.124862
0.0261138
0.00866352
-0.310654
-0.0357902
-0.161499
-0.0107198
-0.225396
-0.0949192
0.196301
0.0862607
-0.26313
-0.143792
-0.213731
-0.0658011
-0.0114477
-0.0197206
-0.28075
-0.340438
-0.341151
-0.256205
0.110423
-0.166494
-0.0714816
0.423369
-0.140903
-0.296724
-0.324289
0.00331476
-0.286233
-0.381413
-0.436968
-0.115875
-0.30411
-0.17053
-0.0610561
-0.195794
-0.157712
-0.205049
-0.392193
-0.0655201
0.137107
0.22658
-0.0729019
-0.00516429
0.273578
0.367578
-0.16905
-0.0467804
-0.216045
-0.0729216
0.052299
-0.0853413
-0.0368049
0.0246671
0.487041
-0.270066
-0.47214
-0.0417587
-0.0313514
-0.0307017
0.0464941
0.126134
-0.0488664
-0.411777
-0.313027
-0.370885
-0.211345
0.00440469
-0.161802
-0.444981
-0.0589589
-0.20586
-0.183547
-0.295653
0.0081882
-0.0409636
-0.44608
-0.324837
0.24945
-0.132232
0.00489962
-0.263951
-0.0543625
-0.0778736
-0.126578
-0.236426
-0.01574
0.00225894
-0.364615
-0.163787
-0.164541
-0.45848
0.408118
0.403734
-0.0129172
0.426328
-0.433805
0.172427
-0.424666
-0.218618
0.145911
-0.453699
-0.211202
-0.0469601
-0.0883261
-0.0829465
0.00882065
-0.194671
-0.142363
-0.412055
-0.218293
-0.213212
0.0777482
0.222466
0.290997
-0.0214356
-0.143632
-0.0717813
-0.0100235
-0.102798
-0.00817595
-0.100217
-0.158313
-0.167075
-0.456269
-0.228288
-0.269699
-0.191726
-0.0426277
0.00500014
-0.325642
-0.0205085
-0.263647
-0.159447
-0.16573
-0.071233
-0.163742
-0.124972
-0.401483
0.0209819
-0.336005
-0.162759
-0.015243
-0.316342
-0.444297
-0.276201
0.459997
-0.356874
-0.0886167
-0.29936
-0.44565
-0.340673
0.0331076
-0.285206
-0.0192587
-0.202771
-0.249377
0.118414
0.284597
-0.148707
-0.402693
-0.151564
0.00567595
-0.000516579
-0.0166968
-0.203972
-0.31772
0.0322236
-0.150856
0.00526295
-0.389242