/*--------------------------------*- C++ -*----------------------------------*\
| =========                 |                                                 |
| \\      /  F ield         | OpenFOAM: The Open Source CFD Toolbox           |
|  \\    /   O peration     | Version:  v2012                                 |
|   \\  /    A nd           | Website:  www.openfoam.com                      |
|    \\/     M anipulation  |                                                 |
\*---------------------------------------------------------------------------*/
FoamFile
{
    version     2.0;
    format      ascii;
    class       surfaceScalarField;
    location    "100";
    object      phi;
}
// * * * * * * * * * * * * * * * * * * * * * * * * * * * * * * * * * * * * * //

dimensions      [0 3 -1 0 0 0 0];
oriented        oriented;


internalField   nonuniform List<scalar> 
27668
(
0.0655196
0.0552562
-0.120776
0.0405952
-0.0658825
0.0252873
0.326356
0.149835
-0.0648528
-0.0300711
0.0949239
0.343723
-0.198161
-0.145562
-0.0723997
0.14462
-0.0722203
-0.127415
0.0892076
0.0382078
-0.406177
0.403324
0.00285238
-0.0410085
-0.0399828
0.0809913
-0.0674014
0.023272
0.0441294
0.297964
-0.194682
-0.103282
-0.000470823
0.448648
-0.262124
-0.186524
-0.0060643
0.000756673
0.201901
0.199314
-0.401216
-0.11961
0.0831095
0.0365002
-0.0303994
0.00094765
0.0294518
-0.145105
0.0727054
-0.172988
0.177266
-0.00427746
-0.0087366
0.0272105
-0.0184739
0.110746
-0.248668
0.137922
0.341902
-0.160007
-0.181895
0.00318166
-0.0378918
0.0347101
-0.152469
-0.0915919
0.244061
-0.138591
-0.230728
0.369319
0.0241028
-0.0334113
0.00930851
-0.0882547
0.0450689
0.0431858
-0.0996554
0.264266
-0.16461
-0.0484956
-0.0397591
-0.0594685
0.124988
0.0596501
-0.0553508
-0.00429926
0.0423763
-0.448553
-0.205061
0.214576
-0.00951514
-0.053153
0.103231
-0.0500784
-0.0544402
-0.0729752
-0.0914807
0.0419235
0.0495573
-0.193474
0.392471
-0.198996
0.130265
0.167698
0.231409
0.112314
-0.00792302
0.011135
-0.00321201
0.0519026
-0.0889317
0.0370291
0.0335504
-0.0579198
0.0243695
0.102522
-0.0615601
-0.0409616
-0.00322167
-0.209521
0.0646612
0.14486
0.0391187
0.164331
-0.203449
0.180235
0.221279
-0.401514
0.0573872
0.00234947
-0.0597367
0.120855
-0.283423
0.162568
-0.396916
0.258325
0.260098
-0.493526
0.233428
-0.0732418
0.0649007
0.00834106
-0.0921751
0.0795649
0.0126102
0.0388931
-0.0827923
0.0438992
0.226093
0.115809
0.146199
-0.420702
0.274504
0.417109
-0.277465
-0.139643
0.445224
-0.0116524
-0.433571
-0.319527
0.0309392
-0.0827203
-0.0357599
0.11848
-0.0198872
0.0236468
-0.00375958
0.0763365
-0.0357413
0.149303
-0.248959
0.13964
-0.292109
-0.0940222
0.0332409
0.0607813
0.034991
-0.0726374
0.0376465
-0.265414
-0.0541137
-0.0289401
0.184806
-0.155866
-0.0670619
0.00105044
0.0660115
-0.370775
-0.10697
0.477744
-0.191165
0.110142
0.0810229
-0.0207635
0.0965963
-0.0758328
0.0606522
-0.00326503
-0.0210574
-0.0711177
0.405305
-0.198571
-0.206734
0.1061
-0.054197
-0.159636
0.399322
-0.239686
0.37083
-0.224632
-0.0514597
-0.0492857
0.100745
-0.121014
-0.0701515
-0.0309093
0.0221727
-0.144978
0.184097
0.275657
-0.122665
-0.152992
0.0325431
-0.00844034
-0.190122
-0.0149392
0.0627724
-0.0031223
0.0330531
-0.403828
0.00524295
-0.00510911
-0.000133841
-0.287844
0.371389
-0.0835443
-0.139569
0.0780359
0.0615335
-0.0649649
-0.0521692
0.117134
0.0833775
-0.0444844
-0.13354
-0.0759813
0.0453257
0.0239561
-0.0692818
0.0575051
-0.0544965
-0.0030086
0.258175
0.0183207
-0.276496
0.0222069
-0.0234426
0.00123571
0.195741
-0.315709
0.119968
-0.0304475
0.0284505
0.00199698
-0.100037
0.0468839
-0.308609
0.0207644
0.018027
0.427197
-0.17392
0.0887273
0.0851925
0.166758
-0.0938792
-0.0728788
0.0485562
-0.100016
-0.202684
0.208843
-0.00615917
0.0340698
0.0657513
-0.0998211
0.0231457
-0.0232798
0.000134059
-0.123049
-0.148247
0.271296
-0.0608692
-0.033153
0.0946758
-0.109614
0.0149386
0.00290031
-0.0227875
-0.194125
-0.181961
0.376086
-0.107987
-0.0659332
0.0393896
0.0439879
0.218021
-0.0599859
-0.158035
-0.0285423
-0.00190526
-0.116632
0.0339121
0.0814243
0.0688389
-0.150263
-0.380701
0.187226
-0.00185182
-0.00101673
-0.0892604
-0.150894
0.240155
-0.308531
0.140802
0.167728
0.00349367
0.0911821
0.00444489
-0.0289404
0.0244955
-0.13419
0.170844
-0.0366548
0.177753
-0.14457
-0.033183
0.0465854
-0.115367
0.0687812
-0.0561011
-0.0353796
0.137667
-0.357603
0.219936
0.447268
-0.470513
0.0232449
0.0418559
0.0393452
-0.081201
-0.00737077
-0.0246869
0.0320577
0.156153
-0.133716
-0.022437
-0.0164491
-0.0506128
0.378345
-0.118247
0.044699
-0.108168
0.0634687
0.141217
-0.216681
0.0674332
-0.0256577
-0.0417755
-0.0694288
0.0284202
-0.225853
-0.0364621
0.262315
0.19238
0.224728
-0.00110909
0.000483002
-0.395826
0.148609
0.247217
-0.157116
-0.0181834
0.1753
0.0192503
0.0519031
-0.0711534
0.0864968
-0.0471071
0.348294
-0.195281
-0.153012
-0.0381581
-0.0687955
0.106954
-0.181514
-0.0211698
-0.157754
0.0405609
0.117193
-0.154451
0.301976
-0.147525
-0.00708269
0.0158279
-0.00874522
0.011443
0.246732
-0.220098
-0.175728
-0.0110254
0.0127882
-0.00176276
-0.168409
0.0342195
0.329943
0.118705
-0.171843
0.107993
0.0638498
-0.0364024
0.0944445
-0.0580421
0.0681938
-0.0228681
0.291684
-0.170829
0.130707
-0.305243
0.174536
0.325798
-0.18813
-0.000967145
-0.00695588
-0.0630019
0.0824867
-0.0194848
0.30148
-0.49309
0.191609
0.052223
0.0481757
-0.100399
0.0633673
0.0354353
-0.0988026
0.250214
0.155091
-0.134001
0.0978487
0.0361518
-0.00227029
0.0011612
-0.0298183
0.0804919
-0.0506736
-0.163933
0.157697
0.00623639
-0.340375
0.180367
-0.00173557
0.00126475
0.092492
0.125529
0.0803483
0.0714293
-0.151778
-0.00654976
-0.0109764
0.0175262
0.0722145
-0.135119
0.0629048
0.0222018
-0.0704945
0.0482927
0.0859486
-0.0440927
-0.210563
0.020441
-0.0234396
0.000219085
0.0232205
-0.0483459
0.113259
-0.0649135
-0.0564369
0.0332301
0.0232067
-0.008551
-0.0140061
0.0225571
-0.413711
0.28701
0.1267
0.0536528
-0.083471
0.117853
-0.250924
0.133071
0.164695
-0.253956
-0.0458159
0.0980389
0.0222414
-0.0245973
0.00235583
0.0797045
-0.150096
0.0703917
0.15514
-0.343884
0.188744
0.0263918
-0.00410119
-0.0222906
0.0253472
-0.00220148
-0.107823
0.0714201
0.0530168
0.0495049
0.0395276
-0.00326666
-0.036261
-0.0323287
0.403159
-0.0811361
-0.0528644
-0.0970402
0.423396
0.0295446
0.101824
-0.131369
-0.0128484
-0.0118337
0.0246822
0.0731708
-0.013023
-0.0601478
-0.320176
0.165726
-0.143646
0.174354
-0.0307074
0.00241719
0.131503
-0.13392
0.12108
-0.0658235
-0.00111591
0.0272393
-0.0261234
0.176413
0.189611
-0.366024
0.0967918
-0.0520928
-0.10184
0.0754644
0.0263753
0.0947739
0.0654603
-0.160234
-0.0451174
-0.0567223
0.0869647
-0.226936
0.139971
-0.146321
0.373841
-0.227519
0.0411829
-0.106036
0.111461
-0.406179
0.294718
-0.129495
0.289777
-0.160282
-0.17304
0.0159234
-0.192009
-0.221702
0.0742422
-0.0950057
0.22661
-0.139645
-0.204612
-0.103919
0.373626
-0.211808
-0.161818
-0.00238807
0.286871
-0.156164
0.0285301
-0.0359009
-0.00687649
-0.00989341
0.0167699
-0.0696176
0.265359
0.240456
-0.129709
-0.0356656
0.0822919
-0.0466264
-0.0150195
-0.0157494
0.0307688
-0.184714
-0.0258487
-0.103161
0.0548152
-0.116637
0.256276
0.0895929
-0.154558
0.0255655
0.148964
-0.174529
0.0741742
-0.100871
0.0266969
0.0211447
-0.0216215
0.000476769
-0.224749
-0.0460268
0.270776
0.0550716
0.0123615
-0.19509
0.0126549
0.182435
-0.131007
0.0498707
0.0836095
-0.309462
-0.033386
0.12816
0.33714
-0.182
0.0146015
-0.000561899
-0.0140396
-0.0685005
0.032835
0.00188087
0.00336208
-0.0329436
0.030729
0.00221461
-0.0342247
0.111986
-0.077761
-0.0285443
0.031726
0.103617
-0.0562758
-0.0473407
0.0305552
-0.0550203
0.0244651
-0.371056
0.228034
0.143021
-0.0273501
-0.00622235
0.0335724
-0.0471128
0.127461
-0.0552505
-0.0562351
0.111486
0.06123
-0.026239
0.0556187
0.00188634
0.0836714
-0.0523213
-0.0313502
0.187914
-0.171659
-0.0162552
0.360898
-0.249437
0.0636653
-0.0483973
-0.015268
-0.0325176
0.0859997
-0.0534821
0.194232
-0.173599
-0.0206331
-0.198262
-0.187254
0.385517
-0.482947
0.527758
-0.0448107
-0.0236609
0.0863232
-0.0626624
-0.181381
0.333874
-0.152493
0.0212788
-0.0044866
-0.0167922
-0.0361799
0.0233315
-0.00698923
0.00875072
-0.00176149
0.000754521
-0.031154
-0.0812227
-0.00550646
0.0867292
0.0560309
-0.111281
0.114798
-0.040624
0.00683111
-0.0282957
0.0214646
-0.149879
-0.0231088
0.00688847
0.0143903
0.029534
-0.00632339
-0.0232106
-0.0228573
-0.0803039
0.0571468
-0.0896643
-0.0549742
0.100405
-0.0454308
-0.342175
0.190625
0.15155
-0.03049
-0.0259469
-0.110744
0.0793994
0.0313446
-0.0272522
0.0494539
-0.021019
-0.00242066
0.0675264
-0.065177
0.0485449
0.00228968
-0.0508345
-0.0701081
-0.074997
-0.266644
0.0418944
-0.0470037
0.0793838
-0.0323801
0.0719486
0.0316679
0.112823
-0.0662374
0.0276851
-0.0427046
-0.0154273
-0.0519741
-0.0707105
-0.0602963
0.0248506
-0.0204057
-0.0100914
-0.153842
-0.057909
0.0919788
0.0147225
-0.0212723
0.0751014
-0.00350857
-0.0178154
0.0213239
-0.083162
0.0757068
0.0074552
-0.0596296
0.062245
-0.00261537
0.154903
-0.160757
0.00585351
0.0281877
-0.0751914
-0.0209519
0.0174433
-0.0546429
-0.0531796
-0.131577
0.0754104
0.0561664
-0.0499849
0.108285
-0.0583003
0.164338
-0.00943505
-0.201365
-0.169691
0.0577356
-0.0271804
0.143054
-0.171994
-0.00231147
-0.0306322
-0.206426
0.211647
-0.00522076
0.190405
-0.0725643
-0.117841
-0.128438
-0.0446013
0.00627407
0.0271865
-0.0334605
-0.40333
0.243694
0.021107
-0.0690089
0.0479019
0.145165
-0.191194
-0.00389632
-0.145797
0.171362
-0.0131095
0.172304
-0.159194
-0.0103471
0.00335277
0.00699436
-0.0180591
-0.122787
0.26742
-0.144633
0.0512767
0.000887439
-0.0521641
0.0353971
-0.154861
0.119464
0.000181059
0.0209636
-0.0113385
-0.0698842
-0.442418
0.0243749
0.418043
-0.0996069
0.075946
-0.0473356
0.0772546
-0.029919
-0.0355832
0.089022
-0.0534389
0.0267589
-0.0039821
-0.0227768
-0.188368
0.241598
-0.0532307
0.0151744
-0.00987789
-0.00529654
0.0175631
-0.0244396
0.00245553
0.0370721
0.0689074
-0.00205344
-0.066854
-0.00459623
-0.00808109
0.0126773
0.0880851
-0.167511
0.0794261
-0.136189
-0.0215648
0.0700543
0.0780043
-0.148059
0.0752328
0.0556833
-0.0824402
0.0267569
-0.123132
-0.114613
0.237745
-0.0928444
0.0386452
0.0541992
0.00740256
0.00842535
-0.0366464
-0.0740977
-0.161976
-0.181908
-0.247818
0.283221
-0.035403
0.00242677
0.0273219
-0.0297486
0.269934
0.133542
-0.403475
0.233736
-0.356523
0.366723
0.0805455
-0.144832
-0.195542
-0.0103471
-0.0190045
-0.0196832
0.0386877
-0.110245
0.055602
-0.00172873
-6.84427e-06
-0.124803
0.0653347
-0.017579
0.0511294
0.119138
0.0103478
-0.00814492
-0.00220285
0.382951
-0.18105
0.0327535
-0.0600056
0.0262739
-0.0382691
0.0119951
-0.175141
0.046703
-0.406374
0.266344
0.14003
0.00477233
0.00636271
0.0142271
-0.0248735
0.0106463
-0.431359
0.307034
0.124326
-0.145708
0.0755996
0.112575
-0.0403603
0.143474
-0.124675
-0.0187993
-0.0042615
0.0450138
-0.0407523
-0.271052
0.12667
0.144381
0.489758
-0.229122
-0.260637
0.171643
-0.410837
0.239193
-0.09784
0.0749827
-0.0467771
0.0790999
-0.0323228
-0.162991
0.111836
0.0511543
-0.408129
0.097546
0.310583
0.284963
-0.152258
-0.132705
-0.00401092
-0.232373
0.221651
0.0107217
0.10846
-0.106043
0.0528874
-0.300705
0.0517058
0.0213233
-0.0730291
-0.111838
-0.0570093
0.168847
0.162485
-0.0190113
-0.347867
0.021911
0.325956
-0.200546
0.356168
-0.155622
0.325859
0.163899
-0.0122451
0.00121962
0.00519304
0.0094788
-0.0664444
0.0569656
0.0173088
-0.0258598
0.0202669
-0.0213828
-0.0998548
0.0505691
0.339254
-0.152747
-0.186507
0.0116806
0.214481
0.0611757
-0.0877349
-0.0752557
-0.0603369
-0.0592727
-0.0037221
-0.0766875
0.0804096
-0.0527563
-0.0634274
0.116184
-0.156193
0.0960357
0.0601578
-0.000509022
0.0490539
-0.0786957
-0.0398621
0.118558
0.172616
0.0152982
-0.0709299
0.286828
-0.215898
-0.416533
0.229521
-0.0211291
-0.0521127
0.0928511
0.0849021
0.0520545
0.142177
-0.0501498
0.143001
0.0492035
0.119868
-0.169071
-0.0939648
0.05974
-0.0488161
0.0582949
-0.25783
0.141193
-0.034653
0.0688885
-0.0342355
0.0668389
0.145569
-0.212408
0.0796034
-0.0278976
0.0728818
-0.0517748
-0.0456749
0.0567239
-0.011049
-0.23351
-0.0185805
0.252091
-0.181145
0.0260467
-0.0718035
0.0457568
-0.335756
-0.0723734
0.00482577
0.0574192
-0.0309908
0.00538355
0.0256072
-0.349574
0.39195
-0.236091
0.0296647
0.239684
-0.0474289
-0.192255
0.0452893
-0.00260581
-0.0426834
0.0391755
-0.0129016
-0.0117078
0.0107406
0.067411
-0.146948
0.0795375
-0.0283545
-0.0316861
0.0600406
0.0831327
-0.316643
0.0258829
-0.00572041
-0.0201624
-0.0241023
0.179525
0.30273
-0.482255
-0.0566043
0.0464426
0.0101617
0.129401
-0.00941913
-0.119982
0.0664296
-0.178267
0.236381
0.10953
-0.34591
0.144072
-0.148113
0.00404096
-0.0791017
0.315482
-0.0759163
0.0657955
0.0101208
0.0993824
-0.448956
-0.541472
0.354779
0.186693
0.00246207
-0.00419079
0.0542413
-0.0990529
0.0448116
-0.11195
-0.159102
0.0608978
0.00662865
0.0401915
-0.388059
-0.0157165
0.015895
-0.000178534
0.15296
-0.159279
0.00631859
-0.218336
0.229779
-0.297182
0.0702461
-0.163481
-0.178694
-0.00755871
-0.0404295
0.0479882
-0.271315
0.200385
0.136594
0.0738262
0.0341603
-0.107987
8.33667e-05
0.14076
-0.140843
0.0353237
-0.0435813
0.00825756
-0.103934
0.0539494
-0.204552
0.287684
0.00159301
-0.000834327
-0.00075868
-0.0430139
0.0955915
-0.0525776
0.150538
-0.11072
-0.0398174
0.272215
-0.417646
0.14543
0.200309
-0.183401
-0.016908
0.38416
-0.184846
0.202727
-0.349049
0.156773
-0.0843971
-0.0723757
0.23585
0.112443
-0.190123
0.0590358
0.131087
-0.0293419
0.0850252
0.0825952
-0.0863173
-0.0966954
0.0611122
0.0634636
-0.0131994
-0.0502643
0.116351
0.0398022
0.0375656
-0.0925398
0.0602738
0.0427373
-0.103011
-0.0143151
0.351961
-0.557816
0.205855
0.0248246
0.00590437
0.0721933
-0.0461466
0.0513162
0.0156403
-0.0346448
0.137893
-0.182113
0.0442206
-0.1709
-0.126282
-0.00648861
0.00385792
0.00263069
-0.215829
0.00999914
0.20583
-0.193998
0.23236
-0.0383621
0.023656
-0.0229039
-0.000752135
0.0833197
0.0672181
0.0271979
0.161681
0.0471619
0.210021
0.146148
-0.13824
0.0569424
0.081298
0.168061
0.111312
-0.279373
0.0836752
0.128489
-0.212164
-0.0207587
0.0108653
0.0120325
-0.016729
0.00469644
0.0264219
-0.197173
0.170752
0.184509
-0.0253885
-0.15912
0.028187
0.160307
-0.0162356
0.21562
-0.148781
-0.0114559
0.16042
-0.00203886
-0.0543677
0.0564066
-0.171701
0.191088
-0.0193869
-0.131415
-0.164113
0.295528
0.0412493
0.0159156
-0.00641743
-0.0116417
0.265247
-0.0338379
-0.0320016
0.0862429
-0.26045
0.066452
0.182619
-0.0209376
-0.0465403
0.0819007
-0.0353603
0.0312159
-0.00639129
0.000674339
0.0682331
0.547748
-0.284197
-0.263551
0.103477
0.0654472
-0.0753045
0.00985735
0.0428752
-0.0602587
0.0256056
0.0187951
-0.168074
0.318229
-0.150155
-0.234458
0.187029
-0.00351705
-0.00606391
0.00958097
-0.260664
0.138551
0.122113
-0.0848266
0.0267874
0.0580392
0.511072
-0.212638
-0.298434
0.0449915
-0.0576464
0.0126549
0.0550009
-0.0317289
0.0488776
-0.0564364
0.0765904
-0.0562368
-0.0203536
-0.28357
0.0882891
0.0537429
-0.0557818
-0.109179
-0.091159
0.200338
0.0226749
-0.000467998
0.000376259
0.111004
0.177023
-0.288027
-0.299427
0.478952
0.0458364
-0.0105127
0.0555757
0.0446569
-0.100233
-0.0914579
-0.0481114
-0.0694746
-0.102368
0.0947662
-0.277358
0.182592
0.0349986
-0.0199543
-0.0150443
-0.294256
0.173177
0.121079
-0.05672
0.0527156
0.00400443
0.216026
0.0689373
-0.165121
0.0193241
0.0410803
-0.259417
-0.0222627
0.0946305
-0.0723679
-0.378878
0.137737
0.241141
0.061133
-0.126018
0.0648849
0.000220462
0.014381
-0.0272388
0.0373325
-0.0100937
-0.3736
0.153501
-0.0290344
0.102861
-0.199344
-0.174255
0.169746
-0.0167862
0.0601188
-0.0823814
-0.0671671
-0.0176595
0.0012811
0.00297436
-0.00425547
0.118557
-0.323108
-0.0412637
0.0480948
-0.00671381
0.000225203
0.0278762
-0.24249
0.214613
0.0746138
-0.0019004
-0.0727134
-0.316805
-0.0895696
0.0135886
0.20564
-0.180651
-0.0249887
0.00775984
0.250584
-0.329686
0.0430175
-0.0421301
-0.0200332
-0.00639643
0.0264296
0.0975276
-0.177286
-0.19519
0.372476
-0.411419
0.31775
0.0936685
0.19889
0.0427087
0.157984
-0.0832849
-0.0746988
0.286546
0.261202
-0.102527
0.181544
-0.0790176
0.198852
-0.222393
0.0235407
0.0289739
0.168315
-0.197289
0.0178619
-0.00582933
-0.321194
0.251933
0.0692614
-0.0636702
0.181363
-0.48079
-0.213071
0.240947
-0.0168528
0.0154639
0.00138889
0.0122325
-0.0168287
-0.0529229
0.0486614
-0.2015
-0.119694
-0.0328094
0.0128551
-0.328514
0.147133
-0.176851
0.0160941
-0.207892
0.302659
0.178771
0.0503389
-0.22911
0.00334898
-0.0578454
-0.0322491
-0.0075078
0.0397569
-0.315873
0.190737
0.125136
-0.405649
0.207387
0.101825
-0.0462493
-0.169198
0.320224
-0.151026
-0.216677
0.208556
0.00812086
0.0190801
-0.0652024
0.0461222
0.214451
0.0930399
-0.307491
-0.428216
0.281059
0.147157
-0.308024
0.138825
0.267338
0.175219
-0.156437
-0.0187821
0.211798
0.161828
0.0326067
0.0222385
-0.275419
0.145923
-0.0449592
-0.0478852
-0.186029
0.0487899
0.137239
-0.0165066
0.0153529
0.0011537
-0.035712
0.061916
-0.026204
0.156171
0.00723644
-0.163408
-0.0666154
0.336549
-0.160507
-0.0163437
-0.0524431
0.093626
-0.357478
0.26249
0.0949886
0.0694942
-0.124259
0.054765
-0.234536
-0.310944
-0.230528
0.0264998
-0.00425832
-0.00247228
0.0303111
-0.0278389
-0.214047
0.221648
-0.00760084
-0.196355
-0.206975
-0.170281
0.193832
-0.023551
-0.177992
0.354406
0.0159403
-0.00213289
-0.0147199
-0.0287572
-0.00263047
0.0313877
-0.0899807
0.0707343
0.0192464
-0.141961
0.0743836
0.067577
0.0107404
-0.0654481
0.0547077
-0.0928364
-0.117381
0.210218
0.0427308
-0.0953447
0.0526139
0.176068
-0.100202
-0.0758659
0.0614666
-0.112942
0.0514757
0.107162
-0.0558555
-0.051307
-0.00376014
0.0240271
0.155414
-0.391978
0.199969
-0.00125844
-0.0152482
0.175958
0.141651
-0.317609
0.374992
-0.109263
-0.265728
0.0089272
-0.0124443
0.208439
-0.179465
-0.0184414
0.0205378
-0.00209633
-0.028105
-0.162018
-0.0949293
-0.342551
0.43748
0.0697491
0.345799
-0.095215
0.0809054
-0.0207866
-0.0100165
-0.0261634
0.117289
-0.0169265
-0.100362
0.316854
-0.138206
-0.178648
-0.0360547
-0.149974
0.277509
-0.404671
0.127162
0.0443088
-0.093205
0.0488962
-0.0062668
0.00115769
-0.0928254
0.128222
0.0548922
-0.0727994
0.0179072
-0.0898225
0.391303
-0.14679
-0.0959772
0.242767
-0.0625546
0.180408
-0.0715547
-0.160818
-0.203075
-0.202575
0.0364202
0.0614285
-0.140584
-0.12008
-0.0728136
0.0371016
0.0304362
0.0229198
-0.053356
-0.10851
0.0859248
0.0225851
0.0326333
-0.207433
0.175537
-0.323951
0.148414
0.3204
0.00360405
-0.324004
-0.109742
0.0511891
0.0585534
-0.187204
-0.191674
-0.0154591
-0.000257363
-0.0608642
-0.0773761
0.156124
-0.0182315
-0.0986862
0.0462431
-0.0325445
-0.0759654
-0.00775497
0.000765745
-0.405976
0.187661
0.218315
-0.0049478
0.00911044
-0.00416264
-0.19921
-0.180001
0.379211
-0.00876592
-0.00347913
-0.0596113
0.147696
0.0518212
-0.0419087
-0.00991248
0.0980389
-0.0616186
0.0482381
0.0731984
0.0835743
-0.107046
-0.261867
0.368914
-0.0666054
-0.0791023
0.159025
-0.0702979
0.167938
-0.278856
0.110918
-0.0239335
0.0263602
0.00482883
0.021563
0.150304
-0.06888
-0.133305
0.162465
-0.0291607
-0.412907
0.209833
-0.0868007
0.0259314
0.191499
-0.221674
0.030175
0.443897
-0.194972
-0.248926
-0.0129284
-0.193931
0.11671
0.0772207
-0.0567398
-0.0591889
0.0107916
-0.234425
-0.171551
0.0290009
-0.28768
-0.123739
-0.137029
-0.184974
0.322003
0.0552623
-0.0675026
0.0122403
-0.083572
-0.0261704
-0.285863
0.467225
-0.0364928
0.0790184
-0.0425257
0.190035
0.101325
-0.0585943
0.0759362
-0.021044
-0.00437823
0.00823615
0.0238355
-0.0223671
-0.00146832
0.0149802
0.000483712
0.0246703
0.00486373
0.108988
0.05777
0.0510502
-0.087543
-0.225306
-0.142905
0.0762998
0.0547934
-0.000113324
-0.00843527
0.00854859
0.148136
-0.0187358
0.0213163
0.0959722
0.00646655
0.0291055
-0.0293696
0.000264043
0.00701009
0.0424472
-0.0494573
0.0411213
0.0425501
-0.00627035
0.0444879
-0.0382176
-0.17384
-0.0402072
-0.125755
-0.149663
0.0899001
-0.0170184
-0.131273
-0.1777
0.308973
0.0115663
-0.00821348
0.118689
-0.0491946
0.193944
-0.209691
0.0157465
0.0191606
0.0332328
-0.0523934
-0.137851
0.0439723
-0.146002
0.132892
-0.0189702
0.209472
-0.358061
0.251014
0.174303
0.159571
0.0558066
0.0288554
-0.084662
0.140201
-0.0727902
-0.437383
0.171104
0.266279
-0.00295703
-0.0178016
0.29942
-0.0670017
0.101273
-0.034271
-0.054214
0.00535663
0.0399326
-0.117873
0.201548
0.00460079
0.0472204
0.127154
-0.236333
-0.420879
-0.0620682
-0.160554
0.0272489
0.0348239
-0.0372962
-0.0587965
0.103105
-0.175914
-0.261469
-0.31221
0.175182
-0.170948
0.491348
-0.113955
0.0577198
-0.0248225
0.216011
-0.191189
0.0168704
0.0105353
-0.0274057
0.070327
0.0243035
-0.0296773
0.0325442
-0.0028669
0.00159754
-0.00185007
-0.072153
0.0675631
-0.0568227
-0.0800925
0.0376743
0.0424182
-0.218197
0.369978
-0.151781
-0.158611
0.189371
-0.0307598
0.348777
-0.177387
-0.17139
0.061922
-0.200505
0.138583
0.0317282
-0.0148578
0.191879
-0.192067
0.37851
-0.186443
0.15569
-0.152591
-0.00309911
0.0777396
0.0121605
0.195179
-0.21068
0.0155008
0.00225004
-0.0206915
-0.0375613
0.0477469
-0.0101856
0.0619256
0.0500664
-0.111992
-0.0981615
-0.0437991
0.385116
-0.225098
-0.160019
0.452179
-0.234106
-0.218073
0.0752109
-0.0660872
-0.00912367
-0.471982
0.186119
-0.193321
0.176055
0.0172659
-0.154186
-0.0263288
-0.216741
0.191918
-0.134963
-0.173061
0.295218
-0.288605
-0.00661213
-0.0294967
0.0459794
-0.0164826
0.0390155
-0.0308147
-0.00820075
0.112082
-0.26434
-0.19882
0.00762641
-0.0220196
-0.0611423
-0.0245841
0.294093
0.326169
-0.151829
-0.17434
0.376113
0.151645
-0.0768978
-0.0320344
0.00235708
0.0452305
0.0372562
-0.041582
-0.0508337
0.0924157
-0.00712804
0.00218024
0.279345
-0.114059
-0.165286
0.107651
-0.0602658
-0.0473849
0.145699
-0.271775
0.126075
0.166804
-0.0979653
0.0568653
0.0651365
0.0100744
-0.0549014
0.0092265
0.272846
-0.161375
-0.111471
-0.0231425
0.0238712
-0.000728716
-0.138232
-0.130175
0.268407
-0.109586
0.158789
-0.142576
0.0447361
0.103186
-0.249976
0.0190345
0.337262
-0.356296
0.0406491
-0.0473405
0.109963
-0.062623
-0.0603609
0.279318
-0.218957
-0.0668097
0.107609
-0.0407993
-0.0235359
0.02981
0.0357516
0.0517765
0.0228373
-0.00163918
0.0986723
-0.0970331
-0.0850241
-0.227186
0.241124
-0.0185758
-0.222548
-0.317474
0.119313
-0.217021
-0.223056
0.440077
-0.0246458
-0.00730646
0.0319523
0.00093157
0.0400681
0.0221857
0.112772
-0.134958
0.158085
-0.28075
-0.0952417
0.0552589
0.206549
-0.422355
0.215806
0.000199844
-1.94299e-05
-0.000180414
0.0295808
0.265637
0.204167
0.18095
-0.0674932
0.0112564
-0.186977
0.364044
-0.177066
0.0706304
-0.138032
0.0674015
-0.0855257
0.0239656
0.259547
-0.0890162
-0.170531
0.270619
-0.488676
0.218057
0.158984
0.142992
-0.164887
0.148888
0.0159994
0.0731456
-0.0540654
-0.0114055
0.0390906
0.0362278
-0.0141599
-0.0220679
-0.36142
0.246555
0.114865
0.00757748
-0.186517
-0.20546
-0.046166
-0.010554
-0.0827249
0.00368104
0.0790438
0.281607
-0.170603
0.17489
-0.163638
-0.011252
-0.181141
-0.053317
0.0702489
-0.0619666
-0.0369287
0.0988953
0.276865
-0.0684264
0.00339189
-0.0826423
0.0396284
-0.236955
0.539685
-0.0202031
-0.0014184
0.0676208
0.0167648
-0.0843856
0.144198
0.124778
-0.268975
-0.0298593
0.420607
-0.214058
0.151908
0.00576172
-0.00329965
0.0125136
0.0523871
0.0317022
-0.176272
0.0408662
0.0186039
-0.05947
0.181409
0.14476
0.061449
-0.00969298
-0.051756
0.371598
-0.270457
-0.178848
0.449305
-0.166338
0.337337
0.173735
-0.141926
0.132507
-0.402566
0.10978
0.292786
0.0746282
0.189327
0.0875384
0.0635835
-0.0443332
-0.0580424
-0.012452
0.098663
-0.0371965
-0.0122117
-0.22262
0.234831
0.00811281
0.0589437
-0.100526
-0.0698173
0.105061
-0.0352437
0.183741
-0.170022
0.196444
0.0637013
-0.0619118
-0.00178948
0.25167
0.157603
0.157869
-0.315473
0.0592294
-0.0193613
0.0810249
-0.0616636
-0.183787
-0.140348
0.324134
0.101491
-0.154894
0.0534026
-0.232165
0.219954
-0.0567257
-0.0672205
0.123946
0.0151201
0.0028133
-0.0179334
-0.34432
0.204821
0.139499
-0.207933
0.366931
-0.158999
-0.162535
0.340756
-0.178221
0.0814703
0.184708
0.185664
-0.370372
0.176225
-0.378892
0.202666
-0.237269
0.413495
0.0956477
-0.0233227
-0.072325
-0.142945
-0.167859
0.310804
-0.061646
0.235693
-0.174047
-0.319747
-0.0828184
-0.140553
0.0671331
0.0734198
-0.0713533
-0.157756
0.169414
0.0450673
-0.0081283
0.0695773
-0.25907
0.0373241
0.221746
0.00247998
-0.00119887
0.102774
0.0528038
-0.155578
0.0774496
0.233917
-0.311367
-0.0106102
0.00184425
-0.00841966
-0.0445032
0.0404333
-0.107243
-0.023507
0.0290391
-0.00553207
-0.18993
-0.075484
0.00375253
-0.00355269
-0.0230431
0.20704
-0.183996
-0.0487551
-0.0104338
0.0805503
0.0207224
0.229466
0.139353
-0.36882
0.158365
-0.0555905
0.0178698
-0.0419205
0.0240506
0.0646574
-0.000956143
-0.00620248
0.0866944
0.118895
0.105876
-0.224771
-0.0292178
-0.00798889
0.0372067
-0.203255
0.0803709
0.122884
-0.0512701
0.124295
-0.0730251
-0.0285989
0.0477595
0.10027
-0.051714
-0.101425
-0.182932
0.422409
-0.261761
-0.160648
-0.157841
-0.0143802
0.172222
0.23321
-0.461966
0.228756
0.182979
0.0581455
0.200604
-0.180075
-0.0205286
-0.0212431
0.0621093
-0.0857443
-0.049375
-0.060082
0.0976476
0.0483161
-0.0567358
-0.0670754
-0.0755007
0.033441
-0.0016509
-0.0317901
-0.0181255
0.0300385
-0.0119131
0.352182
-0.357179
0.00499612
0.0306492
-0.0406657
-0.048574
0.101548
-0.0529735
-0.097985
-0.116561
0.214545
0.0576023
0.00282103
0.00848897
-0.0379857
-0.0213519
0.000332941
-0.0446729
0.100772
-0.056099
0.125326
-0.0546954
-0.199628
0.369166
-0.169538
0.0680812
0.23093
0.0749248
-0.0725479
-0.00237686
0.0270273
0.045577
-0.0726044
-0.136826
-0.442418
0.0490544
-0.105753
0.0566984
0.0208069
0.0780176
0.0176301
0.265382
0.0738714
0.223177
-0.24622
0.101946
0.149433
-0.0332787
-0.053522
-0.0209096
0.0294827
-0.00857317
-0.0229614
-0.195242
0.205783
-0.0105405
-0.0887364
0.217226
-0.0598712
-0.0661468
0.115752
0.173736
-0.289489
-0.472472
0.375822
0.0966503
-0.0889231
0.231352
-0.142429
-0.375383
0.183316
-0.0389912
-0.00459006
-0.0611183
-0.0950751
0.299958
0.0993648
-0.0215813
-0.0611436
0.198638
-0.174578
-0.0240607
0.0106003
-0.0107137
0.000605796
-0.300039
0.168766
-0.0556276
-0.0202886
-0.072977
-0.0460951
0.119072
0.182584
-0.184112
0.00152813
-0.205516
-0.266956
0.0436197
-0.0886422
0.0450224
-0.280733
-0.212356
0.00216158
0.0286164
-0.0232329
-0.236624
0.174978
0.00660466
-0.0275142
-0.124872
0.0681467
0.0709208
-0.122191
0.00304652
0.502547
-0.20063
-0.301917
-0.365359
0.188073
0.176865
-0.384797
0.0445889
0.0625736
-0.128272
0.0684006
0.0240076
-0.0401087
-0.0060982
0.0462069
-0.0220297
0.145555
-0.123526
-0.223335
0.130498
0.0655293
-0.000392708
-0.0215482
0.149548
-0.128
-0.0696737
0.0413192
0.285447
-0.125953
-0.159493
0.024457
0.160052
0.0326391
0.00358869
-0.0516791
-0.0327106
0.140703
-0.0290155
-0.00887634
0.0570216
0.0677397
-0.124761
0.14916
0.00273091
0.0114849
-0.0142159
0.195314
-0.296739
0.00692646
-0.314091
0.146017
0.00244024
0.190215
0.164098
-0.354313
0.0234484
-0.0212287
-0.00221968
-0.126072
0.174862
-0.0235828
-0.00784295
0.0314257
-0.211697
-0.00570684
0.217404
0.00872002
0.0267507
-0.0354707
0.295986
-0.0800658
-0.215921
-0.00174882
0.239269
-0.0937008
-0.371386
0.100071
0.0646855
-0.121376
0.0566901
-0.162643
0.322126
-0.159484
-0.0694065
0.0393354
0.0681682
0.00500259
0.19305
0.155614
-0.348663
-0.0326455
-0.0595737
-0.0279156
-0.263053
0.187581
0.0754727
0.0380481
-0.150386
0.112338
-0.299006
0.182555
0.116452
-0.0143571
-0.0788478
-0.0190003
-0.00235156
-0.281814
0.0675988
0.214215
0.0671685
-0.0666012
-0.00056728
0.00652355
-0.0281777
0.0216541
-0.00747892
0.036009
0.28361
0.156594
-0.440204
-0.00612122
-0.0284667
0.0345879
0.0158895
-0.159588
-0.206671
-0.0668224
0.273494
-0.00894102
-0.0253019
0.034243
0.0564408
-0.1192
0.0627594
-0.168701
-0.199467
0.368169
-0.082927
0.0317726
0.0511544
0.00394301
0.0632255
0.37879
-0.149324
0.0376688
-0.000102519
-0.0375663
-0.005734
0.0105286
-0.00479458
0.116659
-0.065408
-0.0512511
-0.0828556
0.210009
-0.0597735
0.113967
-0.0541931
0.00108124
0.0344755
-0.0863511
0.0518756
0.0539846
-0.0227277
-0.0657437
0.0884715
-0.0366535
-0.156668
-0.0103546
-0.172767
0.183122
0.154654
0.0117682
-0.166422
-0.0522935
-0.0320271
0.0843206
0.264243
0.237491
-0.501735
0.184421
-0.330219
0.145798
0.129928
-0.255683
0.321799
-0.368474
0.0466753
0.209648
0.123523
-0.333171
-0.13367
-0.114998
0.0318748
-0.0277224
-0.00415241
-0.0305854
0.0375955
0.179954
-0.011656
0.0035749
-0.0720206
-0.0595563
-0.072487
0.0201658
0.227595
0.0683909
0.105765
-0.105682
0.11691
-0.0604694
0.0552614
0.0357877
-0.10605
0.0702626
0.0638869
-0.0163059
-0.047581
-0.0516541
-0.306406
-0.134214
-0.160043
0.0793069
-0.177292
0.405556
-0.26308
-0.142476
-0.255428
0.226897
0.0285305
-0.0386535
-0.155277
0.0208963
0.0500047
-0.070901
-0.0767124
0.0577016
0.0190108
-0.034852
-0.0475882
0.115354
-0.216734
0.198733
0.0180009
0.362433
-0.172822
0.153052
0.252504
0.186291
0.0732559
0.000958343
-0.0501057
0.0620152
-0.0119094
0.00344376
0.222009
0.135773
-0.301828
0.166055
0.173315
-0.0188334
-0.154482
0.000871781
-0.00208756
0.00121577
-0.155451
0.133903
-0.00427007
0.27862
-0.130622
-0.147998
-0.0116974
0.0669597
0.00763109
-0.0120093
-0.169532
0.184769
-0.0152369
0.351043
-0.157993
-0.104555
-0.158499
-0.436061
-0.00079414
0.436855
0.104364
-0.0151559
-0.0424126
-0.0505242
0.0929368
-0.0237714
-0.149827
-0.0750607
0.0523329
-0.0759482
0.0629251
0.0692406
-0.00371138
0.102886
-0.0582329
-0.0446529
-0.109273
0.131458
0.0641819
-0.0476832
-0.0324093
0.144322
0.134298
0.0448146
-0.051085
0.176031
-0.00593117
-0.1701
0.0815738
-0.110608
0.135216
0.00446605
-0.139682
0.245036
-0.0906965
-0.15434
-0.0341976
0.198973
-0.164776
0.0967268
-0.115269
-0.161349
0.276617
0.0745695
0.0518577
-0.126427
0.121888
0.0299919
-0.00784538
-0.0221465
0.0664412
-0.261123
0.165683
-0.0956282
0.169486
-0.12172
-0.0477669
0.00206629
0.0284092
-0.0304755
0.10653
-0.040779
-0.00178151
0.00337452
0.256704
-0.0673771
-0.245669
-0.179198
0.424866
-0.0629727
0.181867
0.01
0.405711
-0.184433
0.275626
-0.131428
-0.153731
0.0877975
0.114806
-0.0528803
0.119283
-0.0573749
-0.0619085
-0.0476508
-0.0514021
-0.0758633
0.0410113
0.0289534
0.00562932
-0.0345828
0.291446
-0.173629
-0.117817
0.0413356
0.310847
-0.280559
0.176194
0.104365
-0.0533482
0.109481