/*--------------------------------*- C++ -*----------------------------------*\
| =========                 |                                                 |
| \\      /  F ield         | OpenFOAM: The Open Source CFD Toolbox           |
|  \\    /   O peration     | Version:  v2012                                 |
|   \\  /    A nd           | Website:  www.openfoam.com                      |
|    \\/     M anipulation  |                                                 |
\*---------------------------------------------------------------------------*/
FoamFile
{
    version     2.0;
    format      ascii;
    class       volVectorField;
    location    "100";
    object      U_0;
}
// * * * * * * * * * * * * * * * * * * * * * * * * * * * * * * * * * * * * * //

dimensions      [0 1 -1 0 0 0 0];


internalField   nonuniform List<vector> 
18598
(
(1.07204 -0.00547733 -8.48098e-21)
(1.10426 0.0166964 0)
(1.00001 0.000102984 -2.7197e-21)
(1.06935 0.160078 1.62708e-20)
(1.01941 0.0112116 0)
(1.06678 0.0262797 5.61099e-23)
(1.06119 0.0995814 0)
(0.999596 0.00174976 0)
(1.09048 -0.0235801 1.23886e-20)
(0.879084 -0.0305636 9.56913e-21)
(0.989695 0.0104067 1.21553e-20)
(-0.109735 -0.0239403 1.13603e-19)
(1.01728 0.00491443 2.43358e-22)
(-0.129815 -0.0215807 -1.10218e-19)
(0.998862 0.00121029 5.28163e-21)
(1.107 0.0701721 0)
(0.659603 -0.00188188 2.08408e-20)
(1.0657 0.0266051 0)
(1.00612 0.055803 0)
(0.550135 -0.0305235 9.23148e-22)
(0.999658 0.0246037 1.024e-22)
(1.01438 0.0171894 -4.47165e-22)
(0.744356 -0.0144191 -2.02045e-21)
(1.02011 0.0171013 -2.47717e-23)
(1.01327 0.00586119 -3.89321e-22)
(0.704208 -0.0025181 1.24565e-20)
(1.09997 0.0050213 0)
(0.992959 0.00167074 -5.89488e-21)
(1.10017 0.00552401 -1.70941e-20)
(1.07094 -0.00571533 8.7152e-21)
(0.996139 -0.019453 0)
(0.999662 0.00168679 0)
(1.0275 0.0365924 2.40752e-22)
(1.08349 0.0156577 4.61245e-21)
(1.05912 0.101845 0)
(1.09934 -0.00904916 -1.59165e-20)
(1.01295 0.00765109 -1.51756e-22)
(0.989363 0.0108305 0)
(1.01976 0.0109939 -2.34002e-22)
(0.23516 -0.00293811 -1.85448e-20)
(1.08794 0.00927684 0)
(0.960963 0.47816 -2.0434e-20)
(1.14458 0.136311 -2.9562e-20)
(-0.132669 -0.0181477 0)
(0.921993 0.0155937 -1.3471e-20)
(1.01039 0.0389453 1.96394e-21)
(1.01245 0.00539743 0)
(1.07622 0.0105127 -6.42387e-21)
(1.02569 0.00629299 9.67225e-22)
(1.01304 0.00560751 0)
(1.00636 0.00102191 -1.71033e-21)
(1.17995 0.0523797 0)
(1.1318 0.11122 2.5395e-20)
(1.10061 0.0168601 1.32052e-20)
(1.01488 0.0172203 5.17476e-22)
(1.00573 0.005354 3.17588e-21)
(0.99928 0.00617343 6.15244e-21)
(1.00057 0.000304583 -1.38742e-21)
(1.02484 0.00539334 1.40896e-21)
(1.02436 0.102477 0)
(0.55383 0.0145303 1.5443e-21)
(1.10412 0.0162738 2.03734e-21)
(0.992913 0.00144423 6.49101e-21)
(1.01968 0.0168129 3.06194e-23)
(1.09496 0.00229619 -6.13672e-21)
(1.08633 0.00821887 1.3018e-20)
(1.02459 0.00560701 -3.24779e-21)
(1.03975 0.0148912 -4.63737e-21)
(1.12249 0.547392 0)
(1.01234 0.00127805 -1.08567e-21)
(1.05235 0.0130874 -3.30902e-21)
(1.05225 0.0973469 -4.4736e-21)
(1.06683 0.00884483 0)
(1.12951 0.11385 0)
(0.997725 0.00191458 3.61411e-21)
(1.08727 0.00881597 0)
(0.998997 0.00260931 5.58509e-21)
(1.00578 0.00555915 1.63035e-21)
(1.04998 0.14396 4.51117e-21)
(1.05242 0.0137798 3.55668e-21)
(0.62054 -0.0266194 -1.4191e-20)
(1.01031 0.0401668 -1.06173e-21)
(0.985259 -0.00193966 0)
(0.724175 -0.00420683 0)
(1.02659 0.0363955 0)
(0.983995 -0.0207135 -1.62003e-21)
(1.0121 0.0014352 1.56828e-21)
(0.105549 -0.0187699 0)
(0.998213 0.00706964 -7.42166e-21)
(0.999042 0.0953546 0)
(0.953935 0.0566386 -1.59231e-20)
(1.09937 0.016722 0)
(0.924236 0.0131983 1.36924e-20)
(0.841935 0.266756 0)
(1.12064 0.344442 0)
(1.02562 0.0155323 -8.06865e-22)
(0.570394 -0.000797694 -7.9776e-21)
(0.993111 0.0114417 -1.59173e-21)
(0.571577 -0.0298366 0)
(1.08426 0.0155787 4.80749e-21)
(0.998078 0.00688248 8.23731e-21)
(1.00064 0.000284076 0)
(1.04277 0.0640575 -1.37289e-21)
(1.06187 -0.00113912 9.67045e-21)
(1.04568 0.140933 -9.20275e-21)
(1.03977 0.0246373 -1.01007e-20)
(1.08198 -0.00440261 -1.31932e-20)
(0.607992 0.012232 2.61201e-20)
(0.99256 0.0022981 -6.12623e-21)
(1.09549 0.00245643 2.11725e-20)
(0.954473 0.110825 0)
(0.566804 0.0150514 3.01999e-21)
(0.998673 0.00168572 0)
(1.04125 0.065173 8.12208e-21)
(1.09886 0.0146716 -1.4237e-20)
(0.966687 0.0148434 0)
(0.599112 -0.0280925 1.3056e-20)
(1.02221 0.100228 4.15369e-22)
(1.05763 0.0138999 0)
(1.01294 0.00795828 1.70437e-22)
(-0.0423498 -0.0218819 3.7879e-20)
(1.02275 0.0149815 -4.36292e-22)
(1.02713 0.0155386 2.42926e-21)
(0.9585 0.112393 0)
(0.635219 -0.00536167 0)
(1.04543 0.0243043 0)
(1.0465 0.0170687 0)
(1.0761 0.00882638 0)
(1.09884 -0.00803407 0)
(1.01744 0.00956924 0)
(1.01493 0.000743804 -2.14431e-23)
(1.03749 0.173371 -1.16548e-21)
(0.688663 -0.00756753 2.18236e-20)
(0.951852 0.0503746 -1.57194e-20)
(1.09169 0.555964 0)
(1.00652 0.000866865 1.65318e-21)
(1.09334 0.0795489 0)
(0.992503 0.00194804 6.32956e-21)
(1.01268 0.00563842 -9.73658e-22)
(0.742006 0.195594 7.52455e-20)
(1.08867 -0.0231453 0)
(1.0043 0.0186445 3.82099e-21)
(0.999236 0.0064711 -8.74487e-21)
(0.0100695 -0.0157133 0)
(0.998393 0.0121297 -2.2824e-21)
(1.00444 0.0514425 4.59684e-21)
(1.1781 0.0528009 0)
(1.09757 0.0147939 1.38134e-20)
(0.995309 0.0120173 -4.91455e-21)
(0.939023 0.0995057 6.40472e-21)
(1.03912 0.0248167 9.32026e-21)
(1.05493 0.00514048 -3.52914e-21)
(1.00025 0.0162313 -4.86252e-21)
(0.343889 0.00330162 -3.25829e-21)
(1.0257 0.0151935 -3.80027e-22)
(0.998343 0.011737 2.05747e-21)
(0.323618 0.00278189 1.02092e-20)
(1.04581 0.0250171 -1.31099e-21)
(1.01751 0.00482279 -1.53556e-22)
(1.04346 0.0555853 -1.08244e-20)
(1.08788 0.0360101 3.32557e-22)
(0.858161 0.269322 2.1821e-20)
(1.02608 0.00630473 2.0425e-21)
(1.01924 0.00876944 3.15316e-22)
(1.01781 0.00980848 4.36713e-23)
(0.25078 -0.00556246 1.78937e-20)
(1.09752 -0.000244942 8.01271e-21)
(0.999125 2.00388e-05 0)
(1.04159 0.156757 0)
(1.08759 0.054257 -8.53896e-21)
(0.997551 0.00200311 0)
(1.00947 0.140098 -2.07331e-22)
(0.043169 -0.0194202 3.22897e-20)
(1.12971 0.0982265 -2.67959e-20)
(1.04713 0.0379451 5.32082e-21)
(1.01403 0.0166443 3.08729e-23)
(-0.049096 -0.0264949 -7.26226e-20)
(0.96537 0.0158275 -2.49254e-20)
(1.05311 0.0319549 -2.36352e-22)
(0.394003 -0.00299586 -1.8952e-20)
(1.07501 -0.0029366 0)
(1.07663 0.00694006 -1.03791e-20)
(1.03847 0.168449 0)
(1.02582 0.0373878 0)
(0.509472 0.010753 5.43628e-21)
(0.932457 0.0942513 1.12083e-20)
(0.870987 -0.00707783 0)
(0.500062 -0.00462801 0)
(0.99889 0.00519873 0)
(1.13365 0.0994689 1.23517e-20)
(1.03691 0.0068316 3.5809e-21)
(1.02232 0.0146905 1.79943e-21)
(1.04623 0.160713 -2.52275e-21)
(0.628242 0.00655037 2.26661e-21)
(1.04833 0.0578352 0)
(1.01825 0.0134915 -4.91141e-24)
(0.613609 -0.0172714 5.37465e-21)
(0.596949 0.0125037 -2.95186e-20)
(1.08664 0.0364724 2.97573e-20)
(1.14632 0.131092 6.60516e-21)
(0.711226 -0.00482279 0)
(1.006 0.00573676 -1.72477e-21)
(1.00544 0.138818 1.47378e-21)
(1.00001 0.000194375 1.5666e-21)
(0.960565 0.0565583 1.86473e-20)
(0.533358 -0.0260826 4.86454e-20)
(1.20184 0.13531 2.17833e-20)
(0.999757 0.0162668 4.86491e-21)
(1.04577 0.0228982 0)
(1.01831 0.0569883 -1.97839e-22)
(1.0727 -0.00620038 -1.87792e-20)
(0.617167 0.0012439 0)
(1.00979 0.00645501 3.84762e-21)
(1.09626 0.0791136 0)
(1.11133 0.0555822 7.72449e-21)
(1.05055 0.0603439 -7.86953e-21)
(1.11161 0.05772 7.08541e-21)
(1.00822 0.0265499 1.99727e-21)
(0.998921 0.00159986 0)
(1.06375 0.158202 -1.50876e-20)
(1.01672 0.00328915 0)
(0.993929 0.0101751 -6.81233e-21)
(1.00291 0.0517906 -6.37784e-21)
(0.998921 0.00493705 0)
(1.05048 0.0959229 -1.1613e-20)
(1.00869 0.0260817 -3.46634e-21)
(1.02684 0.0158581 -7.94982e-23)
(0.999586 0.00906923 8.63215e-22)
(-0.060129 -0.018282 -3.79661e-20)
(1.01907 0.00856018 3.03359e-22)
(0.730602 -0.00722163 0)
(0.471757 0.00132371 1.19359e-20)
(0.993466 0.0118639 -1.1005e-22)
(0.999309 0.0252485 0)
(1.14461 0.0650024 -1.32769e-20)
(0.64922 -0.0248838 3.63022e-20)
(1.02491 0.0371292 3.19019e-22)
(0.927933 0.0939413 8.99019e-23)
(1.0198 0.016301 2.27939e-22)
(0.956306 0.0554976 0)
(1.04663 0.0207837 0)
(1.0757 0.00412301 -3.69815e-21)
(0.562134 0.0155412 1.82095e-21)
(1.02407 0.00584658 0)
(0.736271 0.211353 4.5911e-20)
(1.01054 0.0446352 3.92611e-21)
(1.00136 0.143341 -1.66065e-21)
(1.00423 0.018115 -4.30015e-21)
(1.05235 0.0604735 9.15763e-21)
(1.0187 0.0138492 4.25104e-23)
(0.365802 0.00367432 -2.30657e-20)
(1.15032 0.0652641 5.07798e-20)
(0.0982777 -0.0207604 0)
(0.647789 -0.00901543 3.46608e-20)
(1.07182 0.0781393 -5.24859e-21)
(0.690623 -0.0156534 -1.50501e-20)
(0.865115 0.103156 -2.64176e-20)
(1.10658 0.0125303 -3.08618e-20)
(0.992992 0.000357068 0)
(0.734174 -0.00386154 1.6547e-20)
(1.05252 0.0313323 -2.06389e-22)
(1.08305 0.0403226 9.14642e-22)
(1.06131 0.00401855 1.52099e-20)
(1.15979 0.338051 -1.00941e-19)
(1.21002 0.10789 -5.34242e-21)
(0.98556 0.0357562 0)
(1.01695 0.00342005 0)
(0.931623 -0.0266886 0)
(1.09873 0.0273676 2.86425e-20)
(1.04615 0.0347023 4.27941e-21)
(1.01036 0.00598793 -1.7874e-22)
(1.01565 0.000337625 -7.42002e-23)
(1.07997 0.0231813 0)
(1.00417 0.0134127 3.12475e-21)
(0.374716 0.0208578 -2.06005e-20)
(0.629307 -0.0160872 -2.06174e-20)
(0.216953 -0.00503523 -1.7544e-20)
(0.671328 -0.00266828 -1.56986e-20)
(1.08823 0.0059347 -7.03395e-21)
(1.08431 0.0411904 -1.50598e-20)
(1.07502 0.00396282 7.34858e-22)
(0.689959 0.174056 2.45858e-20)
(1.00509 0.0544138 1.2012e-21)
(0.43567 0.00739752 0)
(0.635517 -0.0065064 -1.5906e-20)
(0.926799 0.0875927 1.20605e-20)
(1.09785 0.0281043 2.52629e-20)
(1.10393 0.0770006 -7.00303e-21)
(1.01698 0.0139462 -3.01371e-22)
(0.871483 -0.00753051 1.39975e-20)
(1.11201 0.0891219 0)
(1.06348 0.00577981 0)
(0.52092 0.0106752 0)
(1.09105 0.0124795 3.0003e-20)
(1.04126 0.643066 6.9888e-20)
(1.06555 0.0280547 6.30581e-21)
(1.02378 0.00594986 -3.43524e-22)
(1.12172 0.0345516 0)
(0.862891 0.110075 -3.1905e-20)
(1.07682 0.00839122 -1.23544e-20)
(0.736223 -0.0160059 -3.26288e-20)
(0.887713 -0.0287057 0)
(0.996938 0.141862 3.13949e-21)
(0.608697 -0.00405968 -1.71768e-20)
(1.04597 0.0382898 0)
(1.08293 -0.00494649 7.84341e-21)
(0.42298 -0.00471071 2.01082e-20)
(0.934401 0.0994821 1.90902e-20)
(0.554648 0.01475 0)
(1.17025 0.175893 1.05257e-20)
(1.14322 0.291846 2.80968e-20)
(1.04407 0.028032 -8.11533e-21)
(1.124 0.0342542 1.21965e-20)
(0.573156 0.0131798 6.00585e-21)
(1.08675 0.0382115 0)
(1.07783 0.0270536 0)
(1.09079 0.0400611 3.1477e-20)
(1.04485 0.0277103 1.0302e-20)
(0.993338 0.000290495 0)
(1.11989 0.014425 2.08771e-20)
(1.03904 0.014782 -4.53742e-21)
(0.662064 -0.00771831 -3.54423e-20)
(1.02957 0.0159395 3.19909e-23)
(0.930622 0.0129259 -1.25253e-20)
(1.00185 0.0504094 0)
(0.71937 -0.00796882 0)
(0.998953 0.00246476 4.25423e-23)
(0.989743 0.238315 0)
(1.05006 0.0583934 1.07332e-21)
(1.00976 0.0437306 -2.66609e-21)
(1.04755 0.0208762 0)
(1.03862 0.00612194 -6.81381e-22)
(0.279106 0.00492624 -2.55956e-20)
(0.368731 -0.000277958 1.74383e-20)
(1.01096 0.00668906 1.23781e-21)
(0.811171 0.274996 0)
(0.950496 0.0185457 0)
(0.5786 0.0143988 4.21627e-22)
(1.08785 0.00639916 0)
(1.0092 0.000242178 1.02916e-21)
(1.07912 0.0235301 -1.27033e-20)
(1.10373 0.014301 -1.57615e-20)
(1.12598 0.12844 4.44199e-20)
(0.622701 0.00597575 4.39523e-21)
(0.979685 0.0162824 0)
(0.218924 -0.0233447 0)
(0.492297 -0.000294123 -1.76285e-20)
(0.703994 -0.0051652 0)
(1.07523 -0.0264652 6.6138e-23)
(0.316473 -0.00693397 -4.97957e-20)
(0.950239 0.0390267 6.31328e-21)
(1.05486 0.0059512 9.58081e-21)
(1.05597 0.00138587 0)
(0.831154 0.280291 0)
(1.08843 -0.00157186 2.23644e-20)
(1.00993 0.025941 -1.70664e-21)
(0.880625 0.187418 0)
(0.345554 0.0032377 3.94892e-21)
(1.11059 0.0923093 1.3209e-20)
(1.01782 0.0136379 1.66822e-22)
(0.991422 0.00227473 1.66993e-21)
(0.681642 0.00165107 1.38226e-20)
(0.999308 0.00369669 1.66359e-22)
(1.0108 0.00653008 4.14826e-22)
(1.015 0.000797767 0)
(1.01347 0.0166175 -3.54235e-23)
(0.196349 0.00462937 -1.52386e-20)
(0.685603 -0.0219897 -1.61286e-20)
(1.08552 0.0388056 -1.41402e-20)
(8.49471e-05 -0.0293166 -2.29379e-20)
(1.07038 -0.0047777 -8.97276e-21)
(0.981909 0.494675 2.60707e-20)
(0.958409 0.0576026 1.16091e-22)
(0.230624 -0.00598165 -7.97904e-21)
(0.998725 0.00115613 -9.01684e-23)
(1.0472 0.00537962 5.70394e-23)
(0.796387 -0.00581452 4.27181e-21)
(1.0004 0.0508009 9.12408e-22)
(0.998869 0.0064915 0)
(0.241736 -0.00322749 0)
(0.538195 -0.027299 -6.08993e-20)
(0.997363 0.00237473 -3.84262e-21)
(1.06441 0.0283073 5.80312e-21)
(1.07564 -0.00372963 0)
(1.05227 0.0162879 0)
(0.946933 -0.00325382 1.17652e-20)
(0.993377 0.00767147 0)
(1.00001 0.000263374 3.02544e-21)
(1.01627 0.00323862 1.69901e-23)
(0.922115 0.087521 2.80978e-20)
(1.1187 0.0334174 0)
(0.931906 0.0476936 2.082e-20)
(1.00489 0.00636055 -1.86417e-21)
(0.975432 0.00284738 -6.9515e-21)
(1.09962 0.295606 6.90575e-20)
(1.00845 0.0317457 -2.09818e-21)
(1.01851 0.0580421 -4.46585e-23)
(0.991534 0.00193206 -1.72177e-21)
(1.09448 0.000187823 0)
(0.984489 0.0473293 2.79115e-21)
(1.05182 0.0157262 0)
(1 0.00602176 0)
(1.01912 0.0132132 -1.4562e-22)
(1.00002 0.000330698 0)
(0.303301 0.00450624 7.99065e-21)
(0.715822 -0.00335664 -2.27593e-20)
(1.02214 -0.0318397 1.47103e-20)
(0.527515 -0.00556092 0)
(0.593723 0.00299979 -9.38943e-21)
(1.04902 0.149315 -8.20439e-21)
(0.996356 0.000691714 -4.48135e-21)
(0.204822 -0.0209919 1.61441e-20)
(0.984601 -0.00172393 -3.0879e-21)
(0.93345 0.0454352 1.57221e-20)
(1.10691 0.0727639 -2.38913e-20)
(1.00731 0.113999 -1.19495e-21)
(1.07168 0.0737045 0)
(0.984419 0.0874518 1.58118e-20)
(1.02019 0.580359 1.10973e-19)
(1.0059 0.0883755 -1.65986e-21)
(0.98531 0.0371662 -9.08576e-21)
(1.00049 0.0101165 0)
(0.996802 -0.002518 -6.08105e-21)
(1.18596 0.0569486 0)
(1.04679 0.0163825 5.34116e-21)
(1.04715 0.0340487 1.64451e-22)
(1.04744 0.0161468 -5.29931e-21)
(0.952712 0.0150369 9.43698e-21)
(1.07345 0.0795157 7.83181e-21)
(0.998337 -0.0323073 0)
(1.01941 0.0159416 -2.02942e-22)
(1.08586 0.00792467 0)
(1.02965 0.0267383 2.06147e-21)
(1.0939 -0.000188063 8.46463e-21)
(0.99327 0.233828 0)
(0.975815 -0.0139937 1.21287e-20)
(1.02289 0.0058687 0)
(0.997527 0.00229868 3.57037e-21)
(1.04091 0.270325 1.51923e-21)
(1.00468 0.00632357 1.98386e-21)
(1.09536 0.259194 0)
(0.60956 -0.00286212 0)
(0.999679 0.00181851 -9.34138e-21)
(1.02902 0.0160644 0)
(0.980241 0.0144873 0)
(0.951575 -0.00559326 -1.47902e-20)
(0.824328 -0.00627341 7.25706e-21)
(0.279214 -0.00940496 1.3793e-20)
(1.01652 0.0721422 2.08392e-22)
(1.10267 0.00421452 0)
(1.02262 0.00595978 -1.29962e-22)
(0.563488 -0.00189027 0)
(0.581336 -0.00161255 0)
(1.00001 0.000192376 -5.36882e-21)
(0.897047 0.814834 4.62317e-20)
(1.00575 0.0779028 2.8577e-21)
(0.9853 0.0464324 5.07269e-21)
(0.996029 -0.00154682 8.928e-21)
(1.03789 0.0468821 2.13092e-22)
(0.99585 -0.00177708 -7.25212e-21)
(1.10223 0.00736525 0)
(0.999733 0.00174469 1.06681e-20)
(0.999932 8.6824e-06 -1.06387e-20)
(0.074632 -0.0297106 2.11968e-20)
(1.10171 0.0402391 2.57214e-20)
(0.993599 0.00727796 0)
(1.09382 0.0129288 -1.78895e-20)
(1.00007 0.00586321 0)
(0.408059 0.00798183 -3.74743e-22)
(1.04516 0.00915304 0)
(1.0253 0.014612 -1.26265e-22)
(1.00746 0.0264183 -1.9953e-21)
(1.01654 0.0140947 0)
(1.00748 0.162755 1.55969e-20)
(1.00023 0.0101678 0)
(1.01914 0.0137126 3.53799e-22)
(1.08463 0.0540856 1.98255e-21)
(1.04302 0.0428352 4.5914e-21)
(0.895316 -0.00605208 3.6662e-21)
(1.09212 0.0405378 -9.59253e-21)
(1.02237 0.00566045 -2.10392e-21)
(-0.00071937 0.0457413 0)
(1.0882 0.0137556 0)
(1.06469 0.000298566 -4.04823e-21)
(0.999797 0.00178165 0)
(1.03831 0.026166 -4.86499e-21)
(0.998845 0.00135098 -1.13339e-20)
(0.999013 0.00165745 2.86148e-21)
(1.04585 0.0621087 7.4474e-21)
(0.9953 0.0124904 0)
(1.00975 0.0536827 -1.85745e-22)
(1.08777 -0.00197678 -2.98415e-20)
(1.00827 0.112358 0)
(1.12026 0.128489 -6.07479e-22)
(0.9914 -0.0174491 2.10999e-20)
(0.950695 0.0524896 2.28683e-20)
(1.10619 0.078366 1.46145e-20)
(1.10529 0.0601089 4.03532e-20)
(0.584429 -0.0310837 1.56819e-20)
(1.00989 0.000703318 2.60273e-22)
(0.651889 -0.00754169 -4.13004e-21)
(1.0477 0.280111 0)
(0.979415 0.0151373 3.84305e-21)
(0.7022 -0.0208578 0)
(1.04003 0.0136307 -2.78686e-21)
(1.0069 0.0260326 3.81477e-21)
(0.159617 -0.015322 -4.36322e-20)
(0.978235 0.0188142 -9.6631e-21)
(0.988903 0.015791 -1.4463e-21)
(0.601906 0.013584 0)
(1.06421 -0.000343666 1.14396e-22)
(1.04613 0.0236071 0)
(1.03999 0.0237452 -5.21018e-21)
(1.01954 0.0130775 -3.76692e-23)
(0.878514 0.0606789 0)
(1.00468 0.017357 0)
(1.03322 0.0213496 3.4381e-21)
(0.45169 0.00388866 7.28452e-23)
(0.440518 0.0142478 -6.53778e-21)
(0.986013 0.0331753 -7.93543e-21)
(0.982285 0.0328957 -4.82479e-21)
(0.631409 -0.000102153 0)
(1.03915 0.0469234 -1.15403e-21)
(1.03041 0.0272213 2.41917e-21)
(1.04628 0.0200045 0)
(1.09883 0.607794 -1.05837e-19)
(1.02886 0.0355147 -1.70001e-21)
(1.00091 0.0104634 -3.87902e-21)
(0.764471 0.80969 -2.16862e-20)
(0.365993 -0.000636394 -6.39122e-21)
(1.02014 0.0110603 6.22655e-22)
(1.10262 0.0389881 -2.79867e-20)
(0.989515 0.0155395 2.33017e-21)
(1.03973 0.0231509 5.55608e-21)
(1.13892 0.0616764 -2.80595e-20)
(0.676163 -0.0089828 4.07145e-21)
(1.07002 -0.028 -5.33193e-22)
(1.01634 0.000291175 -1.70728e-23)
(1.0095 0.0264268 -2.00069e-21)
(1.16654 0.0402244 0)
(1.0285 0.0362448 3.05788e-21)
(1.09216 0.00842386 1.05528e-20)
(1.03908 0.0259462 5.52993e-21)
(1.00302 0.0117607 0)
(0.981247 0.0149531 0)
(0.238463 -0.0157004 0)
(0.977406 0.00524646 -7.41231e-21)
(1.09355 0.0101075 0)
(1.01407 0.00083224 5.22977e-22)
(0.909208 0.490858 0)
(0.849823 -0.0312507 1.15953e-20)
(1.11512 0.198295 -3.09638e-20)
(1.09824 0.00105066 8.93967e-21)
(0.994856 0.0117452 -2.94115e-21)
(1.10374 0.595692 9.53154e-20)
(1.03692 0.0166434 1.64218e-22)
(0.560524 2.48331e-05 2.14165e-20)
(0.591875 0.0143587 0)
(1.02522 0.00722607 3.40827e-23)
(1.00002 0.000235838 0)
(0.914751 -0.00659196 3.09799e-21)
(1.08319 0.0134884 8.12752e-21)
(0.996173 0.0943819 0)
(1.04216 0.0563678 -2.71002e-21)
(1.00895 0.0103974 1.70257e-21)
(0.745085 -0.0212538 1.06897e-20)
(0.990592 0.0126234 1.31525e-20)
(0.999026 0.00426325 7.40578e-21)
(0.974386 0.00297597 1.49954e-20)
(1.04791 0.021642 0)
(1.02488 0.0146167 -4.55026e-22)
(1.0889 0.253386 2.94629e-21)
(0.994155 0.00418688 -5.60096e-21)
(1.07027 -0.00308688 8.46898e-21)
(0.354253 0.00472666 1.95274e-20)
(0.765229 -0.0195657 -2.11595e-20)
(0.997922 0.0115471 0)
(1.08347 0.0529507 2.02957e-21)
(0.997894 0.0111406 -4.38331e-21)
(1.04547 0.00873021 2.34479e-23)
(1.09328 0.267387 -9.20828e-21)
(1.09308 0.0102434 0)
(0.100157 -0.015357 1.45386e-20)
(1.02207 0.00569651 1.90697e-21)
(0.894823 0.240283 -9.73753e-20)
(0.149486 -0.0153997 1.33597e-20)
(1.00556 0.0139196 0)
(1.10236 0.00751924 0)
(0.998807 0.00621219 4.70584e-21)
(0.818423 0.84751 0)
(1.09743 -9.44221e-05 0)
(1.0375 0.0274901 3.66551e-21)
(0.727826 -0.0214733 2.24549e-20)
(0.995974 -0.0020542 -3.51508e-21)
(0.797912 0.280844 0)
(0.63591 0.00595713 -9.26553e-21)
(1.0864 0.0531433 2.28968e-21)
(1.00771 0.00661436 -2.97216e-22)
(0.998912 0.000411586 -3.28614e-21)
(0.978886 0.0169518 7.89164e-21)
(0.933047 0.0394943 4.33111e-21)
(1.01666 0.000323616 -1.0336e-22)
(1.05174 0.0253835 -3.19339e-21)
(1.01613 0.0330623 0)
(1.02811 0.00885104 -1.53122e-21)
(0.460894 0.0108257 1.31663e-20)
(1.01145 0.0169416 0)
(1.07088 -0.00384647 -8.66499e-21)
(1.00001 0.00018185 -1.70152e-22)
(1.00576 0.0137817 0)
(0.43027 0.010404 -2.59095e-20)
(0.34638 -0.00972818 1.21273e-20)
(0.982384 -0.000952263 0)
(1.01102 0.0167694 -1.88906e-21)
(0.701148 -0.0212425 0)
(1.00422 0.0130141 -3.12678e-21)
(1.04407 0.0292455 -7.36461e-21)
(1.00906 0.0101582 2.17186e-21)
(1.03733 0.00763959 -3.58247e-21)
(1.16565 0.386444 7.04809e-20)
(0.834828 -0.00537664 -3.88185e-21)
(1.00058 0.0177124 2.3801e-21)
(1.01014 0.00569916 1.5061e-21)
(1.08252 0.0134675 9.16968e-21)
(1.01941 0.00751285 -1.04399e-21)
(1.03817 0.00710956 -4.26086e-21)
(1.09269 0.00280987 -1.73091e-20)
(0.991198 0.0011233 0)
(0.999013 -0.00130032 0)
(1.01956 0.0077971 6.05078e-22)
(0.991101 0.00151451 1.83705e-21)
(1.04533 0.010291 0)
(0.999676 0.00939289 2.97699e-21)
(1.12064 0.0330569 -1.29748e-20)
(1.03829 0.0272769 -5.14524e-21)
(0.993576 0.00992045 0)
(0.876926 0.180109 1.01753e-21)
(0.97238 0.0361528 0)
(0.466277 0.0119021 1.39703e-20)
(1.10043 0.00856067 -1.70744e-20)
(0.998764 0.048778 -2.84563e-21)
(0.999205 0.00383578 -1.4703e-21)
(1.04321 0.0296002 1.0679e-20)
(1.06377 0.15219 0)
(1.00243 0.0089363 -2.7743e-21)
(1.06566 0.0757915 -8.31397e-21)
(1.01649 0.00337996 0)
(0.999961 -7.63944e-07 5.42035e-21)
(0.619037 0.00724225 2.73822e-21)
(0.702782 -0.00962566 2.07448e-21)
(1.00195 0.0265212 -1.90153e-21)
(0.999057 0.00225034 0)
(1.03036 0.0345904 -1.90162e-21)
(1.01 0.00670926 -2.32795e-21)
(1.04559 0.00986395 0)
(0.43898 0.00885118 2.90437e-20)
(0.705063 0.000954229 -7.95818e-21)
(1.09522 0.00177276 -3.03874e-20)
(0.945897 0.0740213 1.867e-20)
(1.12624 0.0735704 1.31559e-22)
(1.03027 0.0245957 -2.36981e-21)
(1.07985 0.0192099 7.61797e-21)
(1.03774 0.0651085 0)
(1.09526 0.0310416 2.48092e-21)
(0.847993 0.083785 0)
(0.584079 0.00354638 2.19578e-20)
(1.00067 0.0104889 8.48533e-21)
(0.998786 0.00480295 -5.68544e-21)
(0.476664 0.0107227 0)
(1.00212 0.0115085 2.80534e-21)
(1.01878 0.00922655 0)
(0.275527 -0.0193467 -1.73282e-20)
(1.02774 0.0087357 -2.72225e-21)
(0.486377 0.00756373 1.54747e-21)
(1.00831 0.053716 1.76696e-21)
(1.00004 0.000435824 -7.52238e-22)
(1.01914 0.00917331 0)
(0.995788 -0.00230783 -2.31361e-21)
(1.10358 0.271527 0)
(0.665063 -0.0108313 8.31612e-20)
(1.08012 0.0272062 7.15329e-21)
(1.01025 0.0169467 -2.58586e-21)
(0.973014 0.0344454 1.84047e-20)
(0.999757 0.00598783 2.95789e-21)
(1.07456 0.0608408 7.62762e-21)
(0.184105 -0.00760113 0)
(0.948762 0.0178171 2.68126e-20)
(1.17331 0.0494959 0)
(0.999069 0.000122911 -1.49043e-21)
(0.995207 0.0145138 4.09234e-21)
(1.03736 0.00658394 0)
(1.00786 0.0311352 2.71898e-21)
(1.0098 0.00569647 0)
(1.01379 0.138149 1.42759e-21)
(0.978276 0.00472598 0)
(1.10174 0.0087778 2.17715e-20)
(1.09341 0.0111865 2.18296e-20)
(1.08914 0.0302342 0)
(0.967326 -0.00411916 2.55183e-20)
(1.02156 0.00538957 8.14778e-22)
(1.00001 0.000293591 1.09587e-21)
(1.09148 0.0483345 0)
(0.994402 0.00395471 9.9919e-21)
(0.418383 0.00642564 -1.30374e-20)
(0.881634 0.0559052 -1.70155e-20)
(1.04051 0.0133176 8.29653e-22)
(1.05903 0.149785 0)
(1.08903 0.0310562 0)
(0.193205 -0.00254105 0)
(1.0123 0.0077202 0)
(0.212994 -0.0149449 0)
(0.998416 0.00120902 -6.13238e-21)
(0.310354 0.00263886 -1.67301e-20)
(0.951834 0.0410922 0)
(0.889086 -0.00631611 2.52375e-20)
(1.01563 0.134643 -3.01744e-22)
(0.921639 -0.0286441 1.99904e-20)
(1.04733 0.0609089 6.79252e-21)
(0.999983 0.000244867 4.29415e-21)
(1.06422 0.0295048 0)
(1.04465 0.0651054 -3.4651e-21)
(0.990897 0.000362335 3.8784e-21)
(0.659535 0.003372 1.942e-20)
(0.597404 -0.0157558 0)
(1.05683 0.0136518 0)
(1.03359 0.0411244 0)
(1.00962 0.00541998 0)
(1.09666 0.00169705 -1.531e-20)
(0.9768 0.0171631 -8.73836e-21)
(1.01149 0.0074679 -1.62481e-21)
(0.926163 0.480414 1.86789e-21)
(0.968543 0.0320937 -1.66397e-20)
(1.09546 0.00168213 2.78785e-20)
(0.911415 -0.0253345 -5.74615e-21)
(1.012 0.00774512 0)
(1.10393 0.0147861 1.5059e-20)
(0.999035 0.000406833 0)
(0.997233 0.0033225 1.26047e-20)
(1.13954 0.0210808 -2.53461e-20)
(1.09197 0.0496101 0)
(1.00002 0.000210224 2.92014e-21)
(1.1572 0.152452 8.78676e-21)
(0.998694 0.00149082 -5.71603e-21)
(1.079 0.019138 0)
(1.1705 0.0498249 -1.87099e-20)
(0.19238 -0.0192151 2.19449e-20)
(0.595373 0.0142507 0)
(0.447289 0.00988709 0)
(0.625871 -0.0057635 2.00696e-20)
(1.06142 -0.00191783 -4.95311e-21)
(1.15024 0.153753 0)
(0.997081 -0.00240563 -3.5222e-21)
(1.06309 0.0297144 1.55423e-21)
(1.12919 0.565798 -3.37573e-20)
(0.328244 0.00896615 0)
(1.00716 0.0797574 -1.39662e-21)
(1.07956 0.0266162 3.87314e-21)
(0.621052 0.0078698 -8.69715e-21)
(0.69719 -0.00464676 4.89376e-22)
(0.967474 0.106683 -3.2069e-20)
(1.2085 0.101553 2.87196e-20)
(0.766289 -0.030953 1.58426e-20)
(1.00171 0.0260238 4.03846e-21)
(0.993761 0.00938222 0)
(1.0053 0.228363 1.40733e-21)
(1.00151 0.0115306 -2.94061e-21)
(0.319588 0.00403038 1.01692e-20)
(1.06806 0.0760061 -9.58166e-21)
(1.03394 0.0239693 -4.38366e-22)
(0.950981 0.436413 2.4512e-21)
(1.06135 -0.000496372 -9.67239e-21)
(1.03813 0.00620212 8.12248e-22)
(0.999169 0.0498134 7.57118e-21)
(1.01177 0.00743782 -8.38221e-22)
(0.999974 0.000224486 -8.75679e-21)
(1.00449 0.0137078 -3.1872e-21)
(1.09527 -0.0173259 0)
(1.0175 0.0704614 -2.29341e-22)
(1.00511 0.00134718 -1.37058e-21)
(0.445849 0.00355307 -1.40962e-20)
(0.999883 0.00611241 -4.90364e-22)
(1.01557 0.172208 -8.97891e-22)
(1.0856 0.0405035 1.57527e-20)
(0.940393 -0.00536163 1.16397e-20)
(1.03396 0.0215349 8.96577e-22)
(0.878664 -0.00620745 -2.94493e-20)
(1.03622 0.0167657 1.20573e-22)
(1.01577 0.000472697 4.79278e-23)
(1.03249 0.0410457 0)
(0.74952 -0.00889431 -1.8801e-21)
(1.0735 0.0596306 1.25374e-20)
(1.00491 0.00129712 -1.31281e-21)
(0.997181 0.00308095 3.72702e-23)
(1.00002 0.000367484 -4.06767e-21)
(1.08177 0.0410629 -8.51583e-22)
(0.993444 -0.000717924 7.42903e-21)
(0.619639 0.0152035 3.50145e-20)
(1.09363 0.247199 -1.19851e-20)
(0.726325 -0.00392811 0)
(0.0337046 -0.0129387 0)
(1.03683 0.0073184 5.43233e-21)
(1.12348 0.0736753 0)
(1.10477 -0.000278475 -1.5402e-20)
(1.00077 0.00701492 -2.81494e-21)
(1.04036 0.0218469 -5.49263e-21)
(0.997511 0.0105229 0)
(0.983622 0.0210292 0)
(0.709436 0.0213665 -7.4731e-20)
(0.99879 0.00175235 0)
(1.01394 0.00749908 0)
(1.03589 0.0481788 2.89252e-21)
(1.01424 0.231292 4.02386e-21)
(1.02784 0.0295961 -1.82576e-21)
(0.495519 0.00615469 0)
(0.923413 -0.00637529 1.99558e-20)
(0.999404 0.111407 -7.5893e-22)
(0.945113 0.0707781 0)
(1.00722 0.0105349 4.41677e-22)
(1.0014 0.0050095 4.6607e-21)
(1.23247 0.159863 0)
(1.00001 0.000153003 -3.01467e-21)
(0.96654 0.0291049 -3.57129e-21)
(1.03839 0.00521363 3.67024e-21)
(0.993398 -0.000864323 0)
(1.01926 0.00803601 1.68107e-22)
(0.995553 0.00165449 1.18658e-20)
(0.901732 0.0438343 0)
(0.749086 -0.0161219 4.16666e-20)
(0.976378 0.00357004 6.52554e-21)
(1.00834 0.0440795 2.76553e-21)
(1.16346 0.181024 0)
(1.11195 0.0130283 -1.05708e-20)
(1.02186 0.00538322 -9.31947e-22)
(1.01449 0.0139268 0)
(1.01601 0.000396257 3.79055e-23)
(1.04698 0.0590477 0)
(0.73511 -0.00380935 -4.73775e-21)
(1.09696 -0.000721425 -3.44896e-20)
(1.10281 0.116441 2.14111e-20)
(0.18499 -0.0108459 -1.2148e-22)
(1.00431 0.025715 0)
(1.00495 0.177034 0)
(0.985367 -0.00390102 0)
(1.05849 0.0135258 0)
(0.928021 0.015452 1.42359e-20)
(1.23289 0.152704 0)
(0.958406 -0.0134224 0)
(1.00558 0.025912 0)
(0.609236 0.0112779 3.69872e-20)
(1.02546 0.0129785 0)
(0.951304 0.0138469 -9.41597e-21)
(0.919274 0.0816287 -2.82102e-20)
(0.995573 0.0141603 0)
(1.00611 0.00624749 1.87691e-21)
(1.01117 0.178281 0)
(1.07786 0.0179675 0)
(1.00672 0.0131094 0)
(1.08561 0.0273986 7.50055e-21)
(0.687428 -0.0076199 0)
(1.14307 0.0618257 -1.85758e-23)
(1.1022 0.00740901 7.18558e-21)
(1.10281 0.0694319 -1.3995e-20)
(0.997375 0.0028542 0)
(0.99586 0.0219967 -4.95524e-21)
(1.01943 0.0115897 -2.89582e-22)
(1.00163 0.00142702 3.2369e-21)
(0.681941 -0.0115442 -8.94705e-21)
(0.584884 0.015425 0)
(1.10423 0.0740177 2.01606e-20)
(0.966754 0.0618653 5.96379e-21)
(0.985504 -0.00253444 -8.32577e-21)
(1.09295 -0.02177 -2.24372e-22)
(1.00076 0.000947341 0)
(0.018976 -0.0108274 -6.84594e-20)
(0.995415 0.00179307 -1.38587e-20)
(1.00756 0.0106663 1.4248e-21)
(1.09799 0.00128881 0)
(1.01424 0.00906893 5.52771e-22)
(1.05705 0.00748003 0)
(1.14899 0.140884 0)
(1.02573 0.0166941 1.10083e-21)
(0.999984 0.000463291 -3.94826e-21)
(1.00052 0.016728 0)
(1.04832 0.0186795 -9.08549e-21)
(1.09194 0.0028819 -7.08827e-21)
(0.801067 -0.00986614 0)
(0.689231 -0.00773422 -2.37458e-20)
(1.01991 0.0124373 0)
(1.03719 0.0482637 0)
(0.998847 0.00449452 0)
(1.0119 0.00503578 -6.61021e-21)
(1.11675 0.23157 8.88372e-22)
(1.02562 0.00725621 -2.97741e-21)
(1.04452 0.0125094 7.86757e-21)
(0.981981 0.0143118 -3.56796e-21)
(0.931448 0.0421188 -4.61352e-21)
(1.07979 -0.00609946 -7.67246e-21)
(1.02766 0.0083309 -4.49247e-21)
(0.225287 -0.0037994 0)
(1.08803 0.0146522 0)
(1.00002 0.000258023 4.80802e-21)
(0.575022 0.014972 3.06413e-21)
(1.08662 0.0110506 6.25703e-21)
(0.991293 0.0108855 8.72848e-21)
(0.666072 -0.00728546 -8.2053e-21)
(1.00079 0.000890263 3.48618e-21)
(1.01943 0.00831916 -7.46636e-22)
(0.134481 -0.0291818 2.02744e-20)
(1.181 0.0515397 1.51562e-20)
(1.04697 0.0177411 2.09491e-21)
(1.11414 0.01681 0)
(1.01492 0.0138959 -7.9686e-22)
(1.10233 0.014671 -3.29036e-21)
(0.999754 0.00185917 -1.96036e-21)
(1.00777 0.00116504 3.0372e-21)
(1.03798 0.00757186 2.03411e-21)
(1.01426 0.000835743 1.38207e-22)
(1.00669 0.0757239 -2.32451e-21)
(1.00565 0.00675471 -1.86307e-21)
(1.04616 0.0640379 -7.71374e-21)
(1.0279 0.00809102 1.4468e-21)
(1.17735 0.0488811 2.49693e-20)
(1.0799 0.00693434 1.473e-20)
(1.09621 0.0300143 0)
(0.997298 0.00631091 6.31088e-22)
(0.980833 -0.0188081 -2.24746e-20)
(1.09824 0.116335 -7.03665e-22)
(1.08636 0.00597564 1.90703e-20)
(0.998558 0.00128529 5.99643e-21)
(0.984684 0.0335174 8.42552e-21)
(1.18872 0.369857 0)
(1.00471 0.0178778 -4.98599e-22)
(1.01361 0.0139823 -1.2197e-21)
(1.0729 0.075842 0)
(1.09069 -0.00624734 1.24036e-20)
(1.01956 0.00702748 0)
(0.921197 0.0228834 0)
(0.997496 0.00638019 -6.40595e-22)
(1.07105 0.0118436 -2.36924e-21)
(0.425809 -0.0020693 1.05763e-20)
(0.996185 -0.000539279 -4.49272e-21)
(1.01388 0.00945846 1.21948e-21)
(1.01671 0.0102374 0)
(1.10522 0.0690025 0)
(1.00369 0.00574576 -5.32619e-22)
(0.999921 0.000578466 5.11212e-21)
(0.999912 0.000647224 -4.83882e-21)
(1.10533 0.0417176 -7.4455e-21)
(1.00223 0.0126171 3.13923e-21)
(1.01318 0.0177773 1.65034e-21)
(1.00542 0.00670976 1.97835e-21)
(1.0644 -0.00183404 -1.48729e-20)
(1.03719 0.00823126 -1.96977e-21)
(0.983988 -0.0020269 -3.24132e-21)
(1.10266 0.0145272 8.45432e-21)
(0.988109 0.0146293 2.82083e-21)
(0.0681821 -0.0108282 1.63669e-20)
(1.02707 0.0444354 2.04605e-21)
(0.994648 0.00479045 5.90079e-21)
(0.287517 0.00491255 1.49175e-20)
(0.999949 0.000589483 0)
(1.08484 0.0282686 8.25647e-21)