/*--------------------------------*- C++ -*----------------------------------*\
| =========                 |                                                 |
| \\      /  F ield         | OpenFOAM: The Open Source CFD Toolbox           |
|  \\    /   O peration     | Version:  v2012                                 |
|   \\  /    A nd           | Website:  www.openfoam.com                      |
|    \\/     M anipulation  |                                                 |
\*---------------------------------------------------------------------------*/
FoamFile
{
    version     2.0;
    format      ascii;
    class       volVectorField;
    location    "50";
    object      ddt0(U);
}
// * * * * * * * * * * * * * * * * * * * * * * * * * * * * * * * * * * * * * //

dimensions      [0 1 -2 0 0 0 0];


internalField   nonuniform List<vector> 
18598
(
(0.0120561 0.00249913 0)
(-0.00103992 -0.00275614 -2.51169e-21)
(4.23973e-05 -0.00741433 1.02675e-21)
(0.00686707 -0.0116177 8.3363e-21)
(0.00125187 -0.0083498 -3.96302e-22)
(7.69632e-05 -1.78605e-06 0)
(-0.0448074 0.0804246 0)
(-3.03196e-05 7.02276e-06 3.2199e-24)
(0.000250401 2.86536e-05 9.29914e-22)
(0.00600127 -0.00193742 -1.11355e-21)
(-4.79166e-05 0.000329844 6.9086e-25)
(0.000135087 4.1623e-05 2.91566e-23)
(9.78171e-05 -4.74889e-06 -5.85751e-22)
(-0.0038583 -0.0127221 0)
(0.00987767 0.00158407 0)
(7.63028e-05 7.51834e-06 -8.02468e-23)
(0.000127786 0.0013019 1.09682e-21)
(0.00484346 0.0444152 0)
(-0.0186819 0.0657789 -1.39077e-21)
(-0.00078026 -0.000546007 -2.41284e-25)
(0.00973461 0.0785795 5.95603e-23)
(-0.000405713 -0.00111114 1.18666e-22)
(0.00234802 0.00141967 4.5294e-22)
(0.000185886 -0.000345778 3.7023e-22)
(0.000184045 -7.29431e-05 -7.5858e-22)
(-0.00124718 0.0903771 1.4329e-21)
(7.99551e-05 -0.000169104 -7.24279e-23)
(-0.00749127 0.00406665 1.38315e-21)
(0.000121782 -0.00011517 4.16418e-21)
(0.000324318 0.000558923 -6.82718e-24)
(0.0109533 0.000850736 0)
(0.000245845 1.42447e-05 -1.03176e-23)
(-0.00121679 -0.00265433 6.91804e-22)
(-8.6883e-05 0.000317024 1.44361e-24)
(-0.0211897 -0.137662 -9.39562e-22)
(0.000557399 -2.39157e-05 0)
(0.00109713 -0.000792845 -2.85748e-22)
(0.000182489 -7.21257e-05 7.04675e-22)
(-0.000395659 0.000659938 -2.40688e-22)
(-0.0164293 0.0271862 0)
(-0.00692858 0.00392851 -1.56497e-21)
(0.000387603 0.000131136 3.5626e-23)
(0.000225305 2.56366e-05 -5.53774e-22)
(-0.000392959 0.000544217 0)
(0.000399947 6.25229e-05 2.01147e-23)
(-0.00302087 -0.0138614 -1.858e-21)
(0.000530118 0.000230097 0)
(-0.0202366 0.0216828 0)
(-0.000823478 -0.000978757 -3.82588e-21)
(0.00017443 -4.28617e-05 1.66361e-21)
(0.00402905 0.00485619 0)
(0.000171766 -4.82474e-05 4.75726e-22)
(0.000520261 0.000473283 -6.82094e-22)
(-0.00107447 0.0108615 0)
(3.17411e-05 -0.000137094 9.60945e-22)
(0.000489624 -2.66125e-05 1.59285e-23)
(0.0126209 0.182866 -8.17003e-22)
(-0.0042707 0.0151922 1.27883e-21)
(-0.0166791 -0.0193838 -1.81821e-21)
(-0.0133927 0.0592282 0)
(0.000193879 -4.69721e-05 -4.14833e-22)
(0.000162477 1.48903e-05 9.51744e-22)
(0.000469585 0.000378264 -3.41365e-22)
(0.000394194 -0.00380221 1.55095e-21)
(-0.000825485 -0.00116687 2.33789e-22)
(-0.000274561 0.000141332 6.8217e-22)
(-0.00038948 -0.000432939 -4.10229e-21)
(-0.000172193 0.000205338 -1.37118e-21)
(0.000171325 5.31118e-06 0)
(0.00843422 -0.00147284 2.74129e-21)
(-0.000218673 -8.18456e-05 0)
(0.0001353 -6.62188e-06 1.09052e-21)
(2.107e-05 -0.000142155 1.67622e-21)
(0.000121782 -0.000117482 -2.15405e-21)
(0.000163561 -3.18941e-06 -8.98744e-24)
(2.14184e-05 -0.000544843 1.92115e-22)
(0.000186165 -4.97633e-05 0)
(0.000717589 0.000330526 -1.03263e-23)
(0.000797935 0.00031283 1.6453e-21)
(5.20805e-05 -2.4122e-05 -1.88121e-21)
(0.000175859 -4.21051e-05 -2.57708e-21)
(0.000173961 -4.79902e-05 0)
(0.000203014 -6.80651e-05 2.53551e-22)
(0.00017074 5.8786e-06 -1.16912e-21)
(6.19619e-05 -4.49182e-05 1.55228e-21)
(2.3918e-05 -0.000139864 -1.65205e-21)
(0.000546805 0.000123522 0)
(0.0145446 0.103278 -6.88558e-22)
(0.0125092 -0.0113306 1.70744e-21)
(-0.0108686 -0.0167684 -2.7743e-21)
(0.00120992 -0.000682304 -3.51683e-21)
(0.000889074 -0.000208945 0)
(0.00011658 -2.62227e-05 2.22868e-21)
(9.70774e-05 -0.00019832 -5.81997e-21)
(0.000174966 -3.87093e-05 0)
(3.08336e-05 -0.000138796 0)
(-0.000753435 -0.000659542 -8.70409e-21)
(0.00748252 -0.00165623 -2.94278e-21)
(0.00576418 -0.000913809 8.89085e-22)
(0.000400177 -0.000821165 0)
(0.0125128 0.170056 -1.9617e-21)
(0.0272691 0.164786 6.10302e-22)
(0.0278319 0.0116879 6.29907e-22)
(0.0161242 0.119609 1.92876e-22)
(-0.0277373 0.0615297 0)
(0.000914756 -0.00534618 -3.41347e-21)
(0.00381519 -0.000824607 -2.80228e-21)
(0.00064323 -0.00213489 -7.93224e-22)
(-0.000299068 0.000173501 3.16619e-25)
(0.0185593 -0.0284466 0)
(-4.37416e-05 -0.000316789 4.19053e-23)
(0.0001759 -3.71463e-05 -9.57692e-22)
(0.00242181 0.00172387 0)
(0.0239807 0.00975341 -4.36758e-21)
(0.000249841 6.96902e-06 -6.09697e-22)
(-0.0409147 0.0355032 2.37651e-22)
(3.13025e-05 -6.63839e-05 1.83654e-21)
(0.000431174 4.00623e-07 -1.07222e-23)
(-5.83122e-05 -0.000405168 1.30637e-23)
(0.000207605 -4.99291e-05 0)
(-0.047574 0.0143256 0)
(-0.000759572 -5.1203e-05 -1.09192e-26)
(-0.0204059 -0.103816 -5.33452e-22)
(0.000222371 2.61022e-05 5.54091e-22)
(0.000134868 -7.54365e-06 0)
(-0.0325297 0.0683947 -8.69899e-22)
(0.020779 -0.0757565 0)
(0.000211164 -4.78036e-05 -6.42401e-22)
(0.000315562 0.000116433 3.62688e-23)
(-0.00979374 0.000667439 3.0781e-21)
(-0.000729061 -1.92491e-07 5.83288e-25)
(-0.00866445 -0.0052866 -7.90496e-23)
(0.0102508 -0.0183819 5.97727e-23)
(0.000134977 -0.000199314 0)
(-0.000296578 0.000496466 1.87191e-21)
(0.00311922 -0.00555085 0)
(7.96878e-05 -0.000181912 0)
(-3.95656e-05 0.000742505 -9.85223e-24)
(-7.45546e-05 0.000796897 9.4881e-24)
(-0.00871344 -0.0390436 -4.28812e-23)
(2.66369e-05 -0.000161432 0)
(0.000442766 0.000602686 -5.56519e-24)
(0.000400544 0.00072687 -2.27236e-21)
(-0.00844673 -0.00395405 2.22859e-21)
(0.0014159 0.00365397 -1.38464e-22)
(0.000684658 -0.000548233 -1.36646e-23)
(-0.0143605 0.057056 -1.97598e-21)
(-0.00026183 3.23949e-05 0)
(-0.0220351 -0.139175 -2.45313e-22)
(0.000374439 0.00059174 0)
(0.000245426 -9.60378e-07 6.09185e-22)
(0.0150622 0.0229733 5.24924e-20)
(0.000518145 -0.000225435 4.64002e-23)
(-0.00524497 -0.0026412 1.63848e-21)
(4.68941e-05 -5.9756e-05 2.39099e-22)
(0.000107086 -0.000205737 2.68743e-21)
(0.000616974 -0.000323722 2.84217e-23)
(0.00476321 0.00283578 5.89743e-23)
(0.000164802 -6.51339e-05 0)
(0.00022929 -9.83871e-05 0)
(0.00230236 -0.00522636 -7.49321e-22)
(0.0091417 0.000821578 8.96281e-22)
(0.00376779 -0.000452431 2.37926e-21)
(9.42545e-05 -2.30883e-06 0)
(0.00890278 0.0168378 0)
(0.0398035 0.0407582 0)
(0.00284979 0.00481464 -2.41017e-22)
(6.30349e-05 -9.4448e-05 0)
(0.000159718 -0.000167675 8.84685e-23)
(0.000125801 -0.000116738 0)
(5.15713e-05 -1.60449e-06 0)
(0.0129698 -0.0167009 -5.64225e-23)
(-0.0309381 0.000972986 0)
(0.0118985 -0.0244938 7.57893e-21)
(-0.0300584 0.00805736 0)
(-0.00647553 0.0374181 -5.68185e-21)
(-0.00379417 -0.00529109 0)
(-0.0136347 0.0346391 5.14081e-21)
(0.000212249 -3.39385e-05 4.37909e-24)
(0.000214573 -2.92729e-05 -6.57205e-22)
(-0.00542909 9.67144e-05 -2.42074e-22)
(-0.000107331 -3.22586e-06 -6.69755e-25)
(2.34569e-05 -0.000389475 3.91347e-21)
(-0.00928273 -0.00393866 -2.92742e-21)
(5.66139e-05 -4.67924e-05 -1.97226e-21)
(0.000781585 -0.000214975 0)
(-0.00761614 -0.0413231 0)
(0.000159137 2.25906e-06 -4.22738e-22)
(0.00069171 0.00233181 0)
(0.0324906 0.0399738 -4.1132e-22)
(0.00064875 0.00437746 8.02721e-21)
(4.19415e-05 -5.7853e-05 1.94284e-21)
(0.000205688 -6.19906e-05 6.68374e-22)
(-0.00333689 0.166059 8.92113e-22)
(-0.00508506 -0.00553188 0)
(0.00228063 0.00505769 -7.29535e-22)
(7.03368e-05 -0.000707842 1.13151e-22)
(0.0062814 0.00311523 0)
(0.000552524 0.000715721 0)
(0.00401116 -0.0327371 -1.24603e-22)
(0.00106631 0.00195013 0)
(4.36332e-05 -0.0001833 0)
(0.00101706 -0.00043245 0)
(0.0117964 -0.00769634 -9.42021e-22)
(0.00479124 0.00508741 0)
(6.69908e-05 -9.54322e-05 1.81268e-21)
(-0.000211641 -0.00103867 1.20648e-22)
(0.00110988 -0.000530532 3.66752e-21)
(0.000843547 -0.000319218 0)
(0.0174755 -0.02684 1.22867e-21)
(6.77974e-05 -9.80381e-05 -8.31898e-22)
(-0.000138493 0.000223456 -3.52143e-25)
(0.000538325 -0.000194729 -1.06405e-21)
(0.000414531 -0.00126353 2.37637e-24)
(0.0225631 -0.00240621 -1.68474e-21)
(0.000141092 -0.000215993 4.47369e-22)
(0.0147798 0.0216595 2.65135e-20)
(-0.0324665 0.0117845 -9.63395e-23)
(0.000579052 0.00394055 -4.46266e-21)
(5.5577e-05 -0.000111769 1.52225e-23)
(-0.019738 0.0301405 -1.94882e-22)
(0.00402776 0.00020406 1.43687e-21)
(-0.00936026 -0.0177144 1.23115e-21)
(0.000298622 -0.000614157 -1.20324e-22)
(0.00049537 -0.000184835 -8.68671e-22)
(0.0050942 0.00285864 1.42296e-21)
(-0.000683128 -0.000732889 8.7853e-21)
(-0.00648863 -0.0254133 2.36462e-21)
(0.000377626 -0.000903552 -3.92844e-21)
(0.000564233 0.000813607 0)
(0.00179316 0.000302811 0)
(0.0137069 -0.000928933 -1.9362e-22)
(0.000137057 -2.84656e-06 1.04013e-21)
(0.00525631 -0.00260646 1.18017e-21)
(0.000341608 0.000549934 -3.70792e-24)
(4.05169e-05 -0.000116483 0)
(0.000722213 -0.000594213 8.0927e-24)
(0.00636245 -0.0131694 -7.06954e-21)
(-0.00024528 -0.000101646 7.38112e-26)
(0.0126012 -0.005965 -1.00842e-21)
(0.000183229 1.3448e-05 4.89768e-22)
(5.7787e-05 -4.35814e-05 2.05207e-21)
(0.000606644 0.00256075 0)
(-5.55173e-06 -0.000375787 -3.14046e-21)
(0.000231713 -9.00521e-05 0)
(4.34397e-05 -0.000122704 0)
(0.000115501 -5.44839e-06 0)
(-0.000131629 -0.000164734 3.22508e-21)
(0.000248067 -0.000105766 -6.88043e-22)
(-0.00027939 0.000177269 -8.77337e-28)
(-0.00416899 0.0142021 0)
(0.000129713 0.000322608 3.08624e-22)
(0.0246041 -0.0149842 3.58802e-23)
(0.0135849 0.0107831 0)
(0.000117413 -2.32189e-05 -1.05644e-21)
(9.09655e-05 -7.91414e-05 1.97689e-21)
(0.000186471 -2.86443e-05 -1.06709e-21)
(-0.0216319 0.0257733 -2.31455e-21)
(0.000248721 -1.35096e-06 0)
(0.00888261 -0.0174423 0)
(-0.000601735 1.725e-05 -6.76347e-25)
(-3.19895e-05 2.24299e-05 -2.32986e-23)
(0.0140225 0.0135689 0)
(0.000163741 0.000254008 -5.85963e-22)
(0.000187422 -2.16044e-05 -6.07224e-22)
(0.00965108 -0.0362 1.25798e-22)
(7.47604e-05 0.000789953 -2.7169e-24)
(0.000216435 2.46963e-05 1.61489e-21)
(0.000510688 -7.28811e-05 1.79132e-23)
(0.0175113 -0.0325722 8.62061e-25)
(2.98784e-05 0.000783284 -1.19619e-23)
(-0.000155642 -9.98723e-05 -1.54243e-21)
(0.0348303 0.0297915 4.88803e-21)
(-4.68196e-06 0.000781188 1.27116e-23)
(-6.4944e-07 5.60223e-05 0)
(-0.0138876 0.00411395 7.01317e-22)
(0.000173629 -3.49534e-06 0)
(0.0216255 0.126876 2.81676e-22)
(-0.0353173 -0.00496962 0)
(0.0406526 -0.00572975 -3.84497e-21)
(0.000580262 -0.00201311 1.17452e-21)
(-0.00383238 -0.00268847 0)
(0.000399548 0.000342209 9.90465e-22)
(0.0119241 -0.0125888 0)
(0.0321333 0.0366146 0)
(0.000648895 -0.00383225 1.29582e-21)
(-0.0362853 -0.0128723 2.55986e-22)
(5.08772e-05 -9.04845e-05 -6.26348e-22)
(-0.00365454 -0.209762 -4.47749e-23)
(-0.0455558 0.153856 0)
(0.000548753 -5.78557e-05 -2.56096e-23)
(-0.00273706 -0.0239458 0)
(-4.31572e-05 0.00036863 -7.45314e-25)
(0.00366349 0.00278971 0)
(-0.00979275 0.00126669 -3.84259e-21)
(1.72105e-05 -6.17262e-05 1.92619e-21)
(-0.00364612 0.0261898 0)
(0.00396632 0.00324614 8.4665e-22)
(-0.000250617 0.000191826 2.80566e-25)
(0.0189427 0.123413 3.27925e-22)
(0.000170694 -9.69296e-07 4.01972e-22)
(0.000143068 1.35325e-06 0)
(0.0146143 0.00158777 0)
(-0.000463847 -0.000410902 -1.18997e-22)
(0.000549414 -0.000235501 0)
(-0.000170929 0.0281877 -4.72838e-22)
(0.000165845 -3.27865e-05 -1.75952e-21)
(0.000424011 1.43374e-05 0)
(4.35517e-06 -3.57865e-05 0)
(0.00055651 -0.000241645 1.31652e-23)
(-7.7939e-05 -0.000171336 -1.50468e-21)
(0.000181495 -3.58289e-05 5.61741e-22)
(0.0428411 -0.00108935 3.74434e-21)
(-0.000601162 2.25736e-05 -1.09875e-25)
(0.000486678 -0.000137824 1.77255e-21)
(0.00331565 -0.177982 4.22647e-23)
(0.00115527 -0.000404712 3.53271e-21)
(0.000144751 -1.90432e-05 -1.74042e-22)
(-0.00355556 0.0725856 0)
(0.000183976 -3.55205e-05 -6.15833e-24)
(0.00463431 0.000234318 9.18589e-22)
(0.000171365 -1.24619e-06 -3.8355e-22)
(-7.55615e-05 0.000236779 1.8121e-24)
(0.000194142 -6.98032e-05 -4.16592e-23)
(-0.000857632 -0.000534545 -1.32965e-24)
(0.0334902 0.0439664 0)
(0.000102831 0.000204347 -1.94111e-22)
(0.0135027 -0.0105558 9.39268e-22)
(0.000453165 -0.000126754 8.57877e-22)
(-0.0120121 -0.0863735 -1.11254e-21)
(-0.000319651 8.71726e-05 -7.18713e-26)
(-0.00878658 -0.0242385 0)
(-0.000289638 0.000101231 0)
(-0.00651584 0.00879632 1.26354e-21)
(0.000148293 -0.000442491 -1.93764e-22)
(0.00976987 -0.0150918 4.17601e-21)
(7.16674e-05 -1.19727e-05 -9.86386e-22)
(0.000257719 0.00109125 -5.49754e-22)
(-0.0341787 -0.00514422 -3.08731e-21)
(0.000541184 -0.000189889 -2.73374e-23)
(-0.000526426 0.000714466 4.33996e-21)
(-0.000124313 0.000232401 -1.31879e-24)
(-0.0246767 0.0570381 1.59707e-22)
(-0.00015194 3.57761e-05 5.45753e-22)
(0.000344381 -0.000303949 -6.20647e-23)
(8.59308e-05 -1.24612e-05 0)
(9.79128e-05 -0.000103587 -7.49672e-22)
(-0.00452188 0.0620768 3.19016e-22)
(-0.0341611 0.074358 -9.51632e-23)
(-0.0100499 -0.0060005 2.55427e-21)
(6.07109e-05 -0.000451997 0)
(0.000393201 -0.00134163 -2.45965e-24)
(0.000104709 -6.11122e-05 0)
(0.0338636 0.0323479 -4.80511e-21)
(-0.00817588 -0.00365085 0)
(2.89596e-05 -0.000140147 -2.56226e-21)
(-0.0168115 -0.0157828 0)
(0.0327994 0.0453909 -4.66703e-22)
(0.00578473 0.00637081 0)
(0.000646786 0.000147677 1.11944e-21)
(-0.0030455 0.00878654 -2.24973e-21)
(0.0279149 0.0473418 0)
(0.000223759 -0.000383756 -3.93446e-23)
(2.87519e-05 -0.000146915 2.57827e-21)
(0.0108144 -0.0417305 -1.67555e-22)
(0.000125085 -0.000113585 2.27052e-21)
(-0.0495425 0.0779897 2.18619e-21)
(0.000225659 6.09846e-06 6.75355e-22)
(-0.00699298 0.00805778 0)
(0.000200952 -6.19395e-05 -6.43451e-22)
(3.7566e-05 -0.000129589 0)
(-4.54927e-05 0.000735105 0)
(0.000180051 1.60598e-05 4.68383e-22)
(5.33025e-05 -1.09878e-05 7.42903e-22)
(-0.00877725 -0.00477789 -2.47048e-21)
(0.000188655 5.23024e-06 1.547e-21)
(0.00010455 -6.4017e-08 5.30426e-22)
(0.00022393 -1.24766e-05 5.76217e-22)
(0.000162792 -3.15983e-05 1.82111e-21)
(1.00327e-05 -7.11912e-05 0)
(0.00048038 -0.000590252 4.25409e-23)
(0.0218597 0.000408777 -2.1097e-21)
(0.0049456 0.00625243 0)
(6.1273e-05 -4.775e-05 -7.90383e-22)
(0.000171837 -0.000143395 5.11641e-22)
(0.00412665 -0.000184871 -1.53361e-21)
(0.000612818 0.000504607 1.48739e-21)
(0.000105186 4.87741e-07 1.20553e-21)
(0.0189655 0.00481149 -3.18894e-21)
(0.000404125 -8.56555e-05 0)
(0.000225017 1.46493e-05 0)
(0.0215712 -0.0245449 -7.76518e-22)
(0.000435294 -4.44922e-05 -1.36833e-21)
(-0.0027487 0.0105501 4.73097e-21)
(0.0108025 -0.0207203 2.62391e-21)
(4.90419e-05 -0.000106626 -2.47532e-21)
(8.09174e-05 0.000761915 0)
(0.00463571 0.0682206 0)
(0.00737352 0.000770728 0)
(0.000544459 -0.000157319 -3.71523e-23)
(6.3913e-05 -9.60628e-05 -1.07361e-22)
(0.00136741 0.000518323 -1.80543e-23)
(-0.000147809 4.91315e-05 0)
(0.000592197 0.00021374 3.86214e-22)
(0.00430154 0.00343911 -1.00493e-23)
(0.029037 0.046533 0)
(0.0012984 0.000488984 1.82823e-23)
(-0.0126331 -0.101317 3.66651e-21)
(0.000102008 -0.000107151 2.14905e-21)
(0.00821148 0.0158627 0)
(0.00709029 0.00217758 5.25117e-22)
(0.000123179 -1.30082e-05 5.78187e-22)
(-0.00882757 -3.2057e-05 -4.78509e-21)
(-0.0304841 0.073127 8.0328e-21)
(-0.0363703 0.143413 -4.07911e-23)
(0.000130787 -4.98857e-07 0)
(0.00417529 -0.0261483 0)
(0.000591235 -0.00287126 -1.02886e-20)
(-0.0285058 -0.122052 -6.12798e-22)
(0.0171613 0.00249636 2.51679e-21)
(-0.000161784 0.000233208 -2.98693e-24)
(0.000117821 -0.000130647 -3.61185e-21)
(0.000198448 -7.07072e-05 0)
(0.000403253 -4.65341e-06 -2.71569e-23)
(-0.0336795 -0.00100986 8.75107e-22)
(-0.000794452 -0.00277691 2.84534e-21)
(-0.0324209 0.118759 1.96829e-24)
(6.32468e-05 -2.41075e-05 -5.92795e-22)
(0.000113777 -0.000124771 1.75369e-21)
(3.86637e-05 -0.000128464 1.9439e-21)
(0.00175374 0.00050153 0)
(3.56271e-05 -0.000127579 0)
(0.000190541 1.54621e-05 -4.83841e-22)
(6.59597e-05 -3.5551e-06 1.05963e-21)
(-0.0043679 0.00824332 0)
(2.90472e-05 -0.000137986 2.92659e-21)
(0.000182501 1.59703e-05 -4.90884e-22)
(0.000464302 4.03308e-05 2.1006e-23)
(0.00015628 1.18153e-05 8.78015e-22)
(0.000288237 -2.3375e-05 -1.99822e-23)
(0.000140313 -3.63127e-06 3.24004e-22)
(0.000142571 0.000360485 5.00886e-24)
(-0.0425604 -0.00216523 0)
(0.0109646 -0.00409296 1.00691e-21)
(4.18069e-05 -3.52802e-05 1.60897e-21)
(-0.000802805 0.000185575 1.71948e-21)
(0.0017452 0.000543281 0)
(0.00023377 -0.000103832 0)
(-0.000873091 -0.011381 0)
(-0.00852096 0.00512271 -1.2259e-22)
(7.33242e-05 -1.21886e-05 3.48029e-24)
(0.000580141 -5.79902e-05 -1.03453e-22)
(4.79916e-05 -9.34929e-05 0)
(-0.0112988 0.00327774 2.68308e-22)
(0.00021971 1.74899e-05 -1.24614e-21)
(6.34449e-05 -2.18863e-05 0)
(3.27547e-05 -0.000131041 2.48351e-21)
(0.000244893 1.37173e-06 6.30231e-22)
(2.93755e-05 -0.0001453 -2.73364e-21)
(-5.63292e-05 -0.000461331 0)
(-0.0406077 0.0787288 2.01346e-21)
(8.98385e-05 -9.228e-05 -1.62338e-23)
(-0.000552019 3.87124e-05 0)
(0.000145082 2.22286e-05 -2.93111e-22)
(0.000145102 -0.000145122 0)
(-0.000577896 2.67648e-05 9.47329e-26)
(2.58832e-05 -0.000132627 0)
(0.00882106 -0.0412157 6.10036e-21)
(5.21938e-05 -4.44809e-05 0)
(-0.000131988 -0.000129753 -7.99025e-25)
(0.000195173 -0.000186511 1.14257e-22)
(5.66459e-05 -1.18477e-05 0)
(-0.000133033 0.000260127 8.12713e-25)
(0.000463063 0.00105647 -3.92769e-21)
(-0.00457695 -0.00278054 0)
(0.000219117 3.05084e-06 1.29277e-21)
(8.89353e-05 -0.000426161 0)
(-3.03838e-05 -2.87654e-06 1.26602e-23)
(2.9724e-05 -0.000133704 -1.07613e-21)
(0.000232101 -0.000139566 -1.97961e-21)
(0.00186203 0.000385137 2.34546e-22)
(0.000171034 -8.53839e-07 -9.0505e-24)
(3.7308e-05 -3.57961e-05 2.39167e-23)
(0.000223259 -2.14067e-06 6.51474e-22)
(-0.000263033 0.000151306 2.63812e-25)
(0.0469306 0.0327249 2.04522e-21)
(0.000925769 0.0036096 1.14028e-22)
(-0.000258029 0.000211071 -6.31658e-25)
(0.0113364 -0.00255437 1.12785e-21)
(-0.00386412 -0.00249311 -1.74124e-21)
(0.0592767 0.0901557 2.94293e-21)
(-0.0024335 -0.0210571 2.58485e-21)
(0.00102807 0.00222444 0)
(-6.29706e-05 0.000806306 -1.09013e-23)
(-0.0022773 -0.0201387 2.02546e-22)
(-0.0044202 -0.00242792 3.87287e-21)
(-8.1661e-05 0.000793646 7.03378e-24)
(8.93724e-05 -1.47025e-06 0)
(0.00501481 -0.0391947 0)
(7.14609e-05 0.00368294 6.75021e-22)
(-0.00546229 0.0224873 -1.70637e-21)
(0.000268727 -0.00357491 -1.59224e-21)
(0.000720853 0.000415806 -7.54823e-22)
(-0.00668498 0.00351635 -1.77777e-21)
(7.43367e-05 -7.96218e-05 -5.72665e-22)
(0.000176345 3.06286e-06 4.50743e-22)
(0.000455589 0.000679952 6.22998e-24)
(0.000201321 -0.000438814 -5.87269e-22)
(0.0120674 -0.00174586 -8.59222e-22)
(6.30138e-05 -2.67359e-06 -1.08948e-21)
(-0.000794816 -0.000538221 0)
(0.000511315 0.000813307 4.9544e-21)
(7.84567e-05 -3.78544e-05 0)
(0.0159151 -0.0290002 0)
(-0.0257844 -0.131472 1.01706e-21)
(0.0431355 0.0277201 -4.66995e-21)
(0.000275312 0.0225183 2.24973e-22)
(-0.075107 -0.0580904 1.76224e-21)
(-0.000160822 0.00017038 0)
(-0.000185677 0.000163481 7.17916e-26)
(0.0363542 -0.0276209 -8.01374e-23)
(0.000135388 0.000237415 1.78358e-21)
(0.0109972 -0.00322656 -4.38122e-22)
(0.00527747 0.00237733 -1.24675e-22)
(4.16877e-05 -0.000190169 -3.13735e-21)
(0.00026976 -0.000141804 -8.31748e-22)
(-0.00755675 -0.0369713 -2.41819e-22)
(0.00346827 0.00202835 -3.99362e-23)
(5.22911e-05 0.00326185 0)
(7.28271e-05 -8.18449e-05 -3.22793e-22)
(9.70675e-05 -0.000105791 0)
(-9.60618e-05 2.55416e-05 1.02432e-24)
(0.000185552 1.19964e-05 0)
(0.000145503 0.000210466 -5.50456e-22)
(0.000795169 0.000240958 -5.12602e-22)
(0.000295246 -8.65579e-05 0)
(-0.0218102 -0.128357 -8.98648e-22)
(0.000163592 -3.49953e-05 1.42604e-21)
(-2.99018e-05 0.000597409 -3.16685e-22)
(0.008967 0.0605966 6.20611e-22)
(0.000941435 -0.00129277 3.8218e-22)
(-0.00277765 -0.0027738 1.55967e-21)
(4.98496e-05 -0.000107496 1.68582e-21)
(0.00179931 0.00392331 7.37722e-22)
(-0.0408223 0.0519354 0)
(-0.000112718 0.00124048 1.14479e-21)
(8.25857e-05 -3.04161e-06 9.06028e-22)
(0.0319728 0.0090625 0)
(-0.00422778 0.0123031 7.29974e-22)
(-0.00577507 0.000230648 1.02672e-21)
(-0.0173621 -0.0395858 2.72857e-22)
(0.000155258 0.000640922 1.5996e-22)
(3.34174e-05 -0.000131015 0)
(0.000160685 -8.31888e-05 1.45851e-21)
(-0.00618702 0.00422445 0)
(0.000132097 0.000420746 5.47479e-24)
(-0.00385921 -0.000977009 1.91846e-21)
(0.000563362 -0.000266444 0)
(-0.000120424 -3.80864e-05 -2.36004e-24)
(-0.000200202 -0.000160133 1.23082e-24)
(-0.000184952 -0.000116506 0)
(-0.00263888 0.0165582 3.19294e-21)
(0.00278202 0.0208817 -1.2552e-21)
(-0.000998602 0.000523318 0)
(0.00953024 -0.14683 3.79794e-21)
(0.0717771 0.0479115 3.53372e-22)
(5.81635e-05 -4.6965e-05 1.22224e-21)
(0.00805127 0.00135533 -8.65528e-22)
(6.04051e-05 -4.44949e-05 0)
(0.000289428 0.000486742 -6.42121e-24)
(0.0016584 -0.00588288 -4.59423e-22)
(0.0141237 -0.0402284 -3.46834e-21)
(9.31954e-05 -3.92836e-05 0)
(0.00108372 -0.000937274 -2.65059e-21)
(0.000115694 -1.86379e-05 1.09079e-21)
(0.000266761 0.000413262 0)
(9.5183e-05 -4.25164e-05 -7.83611e-22)
(-0.00620376 -0.0386503 0)
(0.00015002 -1.76408e-06 0)
(0.000149763 1.06503e-05 -6.60124e-22)
(7.70572e-05 0.000809638 5.0203e-22)
(-0.0101657 -0.00125236 1.26741e-21)
(-0.0314708 0.00817677 -5.93157e-22)
(-0.00480905 -0.0241257 -2.44944e-21)
(0.00305731 -0.000121137 1.51055e-21)
(8.0173e-05 -4.0326e-05 4.37432e-22)
(7.23591e-05 -4.14151e-05 -3.90193e-22)
(-0.000174273 0.105371 -4.62532e-22)
(0.0076197 -0.016737 -7.68238e-23)
(0.000161943 -7.69343e-05 1.27128e-21)
(1.75872e-05 -0.00128071 0)
(-8.67151e-05 0.000198556 -2.85908e-24)
(0.000180802 -1.74797e-05 7.07883e-23)
(-0.0003392 -0.000373614 0)
(0.00019621 -3.81211e-05 4.47022e-22)
(0.00065894 0.00116098 2.59566e-21)
(0.00102979 -0.00132078 -3.93801e-22)
(0.000181401 4.87528e-07 -4.63879e-22)
(0.0580257 0.0236966 -2.14864e-21)
(0.000726777 -0.000303552 3.81629e-23)
(0.00355699 0.00434252 -4.71869e-22)
(0.000244455 -0.000157734 1.98907e-21)
(-0.000195083 -0.0013552 3.05159e-23)
(0.000688015 -0.000201277 3.4486e-23)
(0.000179376 -6.90512e-06 6.11536e-22)
(0.00021307 2.44712e-05 -1.05502e-21)
(0.00568067 -0.0091481 1.0968e-22)
(-0.00168428 -0.00965236 -3.0443e-22)
(0.0216876 -0.00283378 2.19518e-21)
(7.47203e-05 0.000192447 5.49478e-22)
(0.000940235 -0.00470464 3.58628e-21)
(8.27033e-05 0.000132811 4.97751e-22)
(0.00565073 -0.00671849 -1.22201e-22)
(-0.0865917 0.169774 -3.36755e-22)
(0.000331754 -7.05628e-05 0)
(0.000180221 -1.6071e-05 5.59599e-22)
(0.000762407 -0.00033277 0)
(0.00632675 0.0246847 -1.48443e-21)
(0.000245821 -0.00013129 1.74106e-21)
(-3.10912e-06 -7.1454e-05 -2.04786e-21)
(0.000182947 -1.45218e-05 -1.25856e-21)
(0.0156107 0.00923403 0)
(-0.0186828 0.044725 8.07901e-22)
(-6.80743e-06 0.000540294 4.25687e-22)
(-0.00890213 -0.00368401 2.68121e-21)
(-0.000494607 2.96763e-05 -1.47757e-24)
(-0.0374899 0.00161777 0)
(-0.0125217 0.00541668 -2.95283e-22)
(0.000182501 -0.00016184 0)
(0.000173363 0.000912391 -1.78658e-22)
(0.000409971 7.67754e-06 0)
(0.000228224 -8.47739e-05 0)
(0.00266099 0.00456305 0)
(0.00426494 0.00139865 9.16553e-22)
(4.08729e-05 -0.000126137 0)
(0.0468168 0.126627 1.13714e-21)
(0.00290769 0.00027881 0)
(2.47788e-05 -0.000164109 0)
(-0.00500765 -0.00790347 -3.06765e-23)
(0.000251866 0.000744564 -2.10583e-21)
(0.00394861 0.00182675 0)
(5.74221e-05 -2.47969e-05 0)
(0.0065821 -0.00251937 3.98527e-23)
(-0.00569375 0.00344402 -1.06495e-20)
(0.00835445 0.083486 1.40445e-21)
(0.000404138 2.63399e-05 -1.32663e-21)
(0.000431767 4.17975e-05 0)
(0.0166158 -0.0254739 -5.40803e-21)
(0.000166616 -3.57882e-05 1.00704e-21)
(0.000129822 -4.07816e-06 0)
(0.000126812 -0.000437637 -3.87544e-21)
(0.000165654 -5.36594e-05 -3.22724e-21)
(0.0154378 0.119812 3.17801e-22)
(0.00489247 -0.000557983 -8.5243e-22)
(-0.00529028 -0.00237079 -3.05239e-21)
(-0.00261672 0.0209436 5.15169e-21)
(-0.0221485 0.0361621 1.14135e-21)
(0.000181767 -1.91387e-05 0)
(0.0039025 -0.00451062 3.04264e-23)
(0.000218228 2.45948e-05 1.1086e-21)
(5.95756e-05 -2.50453e-05 0)
(0.000299961 0.000557015 0)
(-0.0363226 0.0307824 0)
(0.000108672 -3.7081e-05 0)
(0.000173932 -4.08275e-05 7.11589e-22)
(0.000101374 -3.26179e-06 0)
(0.000168859 7.74543e-07 1.19547e-21)
(0.0146302 -0.0961657 8.44611e-22)
(2.77714e-05 -0.00015617 2.23895e-21)
(-0.000634222 0.000595699 -5.19366e-22)
(0.000229424 0.000732293 -1.70054e-22)
(9.71267e-05 -0.000134239 1.54676e-22)
(0.000359254 6.50084e-05 0)
(-0.000210316 0.041293 6.96901e-21)
(0.0564957 0.0347881 0)
(5.6323e-05 -3.7248e-05 -6.30724e-22)
(0.000440709 6.69623e-05 4.53538e-24)
(-0.00700746 0.0385224 0)
(0.00372744 -0.00582477 2.0947e-23)
(0.0178054 0.0290377 0)
(-9.64994e-06 0.000888087 1.14309e-21)
(0.0148895 -0.0388342 6.38627e-21)
(0.000109788 -0.000164613 0)
(0.05097 0.0433072 3.57011e-22)
(0.0232018 0.0150876 0)
(0.00017018 -1.5127e-06 -1.69738e-21)
(-0.000137929 -9.26408e-05 0)
(-0.0147057 -0.022832 1.68253e-21)
(0.00322679 0.000882491 -2.01954e-23)
(-0.000193042 0.00026822 0)
(-0.00900571 0.000474267 9.67833e-23)
(-0.00973221 -0.0216059 0)
(0.00691554 0.0019612 0)
(2.31805e-05 -0.000128166 -4.09591e-21)
(-5.27412e-06 -8.20233e-05 1.98093e-21)
(0.000172291 -3.91586e-05 0)
(0.00211668 0.00142649 -7.24088e-22)
(-0.0428363 0.0838147 -6.71801e-23)
(0.0127237 0.00192474 0)
(0.000258828 -0.000136009 1.96527e-21)
(-0.00240936 -0.00270838 -5.91574e-21)
(-8.3622e-05 0.0195641 1.12099e-22)
(0.000353438 -0.000433057 0)
(0.0178445 -0.0541445 -3.74808e-20)
(0.000179461 0.000383822 -1.56951e-21)
(-0.000128956 0.000718911 -7.43584e-22)
(0.000368569 -0.0442437 -2.6639e-21)
(5.62182e-05 -2.69815e-05 -6.89797e-22)
(-0.00609656 -8.96172e-05 -1.07842e-21)
(0.000164495 -5.09784e-05 0)
(0.00012213 -1.553e-05 1.69983e-21)
(0.000110562 -3.56683e-05 -7.72833e-22)
(0.000139078 -8.99195e-07 -1.42902e-22)
(-0.038797 -0.0482656 -3.29323e-21)
(0.016791 0.00256147 0)
(3.17677e-05 -0.000115693 -1.36786e-21)
(-0.00318371 0.014049 0)
(0.00023739 4.4128e-08 0)
(-0.000444529 -0.00120406 -2.15343e-22)
(4.09011e-05 -0.000123947 -1.74226e-21)
(-0.0025487 -0.00233656 0)
(5.63626e-05 -4.29854e-05 -1.36211e-21)
(-0.000697508 -0.00101769 0)
(-0.00325299 0.0130989 -8.34808e-22)
(5.9269e-05 -4.5451e-06 0)
(0.000172136 -5.71539e-05 1.82556e-22)
(0.00024693 -0.000113094 9.72881e-22)
(-0.02407 0.0790066 1.2314e-20)
(-0.000773857 0.000623285 -2.50083e-21)
(-0.0229587 0.0638788 -2.32653e-22)
(-0.00148098 -0.035118 6.2649e-22)
(0.000159813 -2.31592e-05 -8.93335e-22)
(2.77779e-05 -0.00013368 2.70741e-21)
(-0.0121972 -0.0242455 -2.59833e-21)
(-0.00679896 -0.000332659 0)
(0.000605481 -0.000708437 0)
(0.00344722 0.0734871 0)
(-0.000874827 0.000493625 2.57613e-21)
(0.000654033 -0.000660027 0)
(0.00105002 -0.000297732 -7.18573e-21)
(2.61862e-05 -0.000129428 -2.66145e-21)
(0.000298584 -1.71795e-06 -2.71673e-23)
(0.00130713 0.000109471 7.13097e-22)
(4.32008e-05 -0.000122925 0)
(0.000679025 -0.000592396 -1.91129e-23)
(0.000148071 9.79127e-07 -6.5397e-22)
(0.00692375 0.110718 -2.28604e-23)
(0.00521605 -0.0923939 -9.309e-22)
(0.0448801 -0.00383884 -1.44132e-21)
(0.0113275 -0.0564791 2.9328e-20)
(6.84343e-05 -3.49873e-05 2.0392e-21)
(0.0180661 0.00799135 0)
(6.05356e-05 -0.000199112 -8.04973e-24)
(-0.0325531 0.0401392 5.30812e-22)
(-0.0302932 0.0747508 -7.50545e-24)
(-0.000228619 0.000539908 -3.14556e-21)
(0.000170404 -6.44456e-07 -1.13961e-23)
(0.000228888 3.94662e-05 -7.28548e-22)
(-0.00484745 -0.00864719 1.90264e-22)
(-0.0230208 0.0767986 -9.60401e-22)
(-0.000831323 0.000153839 -3.47811e-22)
(0.00105872 -0.000174234 0)
(0.0225339 0.0240929 0)
(0.00018216 -0.000125182 0)
(0.00902194 -0.00433536 -4.54693e-21)
(0.000537832 0.000131472 0)
(0.0346452 0.0507541 -1.00423e-21)
(-0.0242279 0.0850634 -8.55404e-22)
(0.000555231 0.000300886 1.59533e-23)
(0.000336157 0.000393002 -1.00574e-21)
(-0.000637632 0.000252921 -1.85597e-21)
(7.48615e-05 -5.34654e-05 0)
(0.000132283 -2.45252e-05 0)
(0.000397306 0.000100889 0)
(0.000527483 -0.000750814 0)
(0.000107367 0.00072197 0)
(0.0271463 -0.027741 9.30307e-22)
(0.000212527 0.000394059 -5.28935e-24)
(1.32227e-05 -2.49473e-05 -1.18608e-22)
(2.62625e-05 -0.000175029 9.09956e-24)
(0.00392682 0.00202898 2.46305e-23)
(0.00531529 -0.0521047 -4.05387e-21)
(0.000266372 -0.00015644 9.36008e-22)
(0.000398166 -0.00031367 0)
(9.62867e-05 -0.000132765 -4.81793e-22)
(0.000218494 2.93428e-05 0)
(-0.00436786 0.0102015 0)
(-0.00433132 0.00663574 0)
(-0.0245644 0.0956271 -1.13274e-22)
(-0.000121084 0.000312313 4.50169e-24)
(3.83587e-05 -0.000127423 1.83914e-21)
(0.0419663 0.036335 3.35256e-22)
(0.000180252 3.04028e-06 4.37603e-22)
(-0.000111579 9.22396e-05 4.45183e-22)
(0.000241816 -0.000101273 1.22157e-21)
(5.74063e-05 -4.99327e-05 -1.25029e-21)
(0.000147252 -0.000412307 -1.83606e-21)
(-0.000268565 0.000355229 3.1806e-22)
(1.76155e-05 -0.000122416 1.17287e-21)
(0.0219362 0.0195069 0)
(-0.000479968 0.00671806 9.83485e-22)
(9.41242e-05 0.000411174 -3.73331e-24)
(0.00022652 4.58991e-05 6.84802e-22)
(0.000102755 -0.000104845 -6.67883e-22)
(0.000181937 -0.000415122 1.84801e-21)
(-0.000691379 -9.01179e-05 0)
(-0.00390932 0.00504205 8.45617e-22)
(0.000133449 -2.10136e-05 1.5422e-21)
(0.000642548 -0.00091166 0)
(0.00053441 0.000133276 -7.93774e-23)
(0.00015272 -1.32557e-05 0)
(-5.92411e-06 -0.000315451 0)
(3.95443e-05 -0.000115869 7.68082e-22)
(4.01852e-05 -0.000125197 9.70441e-22)
(-0.036253 0.0693026 0)
(0.000170719 -6.08519e-06 -9.69642e-22)
(4.37201e-05 -0.000113289 0)
(0.00946518 -0.00341208 1.15925e-21)
(0.00565919 -0.0511373 2.10676e-21)
(-0.0126799 -0.0112019 1.72883e-21)
(0.0419272 -0.0105379 0)
(0.00833604 -0.0469566 2.60529e-21)
(5.37263e-05 -4.52361e-05 0)
(-0.00516881 -0.00729593 0)
(0.00031179 0.000545614 0)
(0.000177818 -0.000242237 1.4564e-22)
(0.000163961 -6.14796e-05 1.101e-21)
(0.000168939 0.000636283 -2.27016e-22)
(2.90683e-05 -0.000198944 0)
(-0.000285392 0.000201824 -6.75178e-26)
(-0.0284359 -0.0936396 -8.29084e-24)
(0.00011158 -5.65327e-06 5.17039e-22)
(-0.00021275 -0.0018336 -4.8006e-23)