/*--------------------------------*- C++ -*----------------------------------*\
| =========                 |                                                 |
| \\      /  F ield         | OpenFOAM: The Open Source CFD Toolbox           |
|  \\    /   O peration     | Version:  v2012                                 |
|   \\  /    A nd           | Website:  www.openfoam.com                      |
|    \\/     M anipulation  |                                                 |
\*---------------------------------------------------------------------------*/
FoamFile
{
    version     2.0;
    format      ascii;
    class       surfaceScalarField;
    location    "50";
    object      ddtCorrDdt0(phi);
}
// * * * * * * * * * * * * * * * * * * * * * * * * * * * * * * * * * * * * * //

dimensions      [0 3 -2 0 0 0 0];
oriented        oriented;


internalField   nonuniform List<scalar> 
27642
(
-0.0019891
0.000598362
0.00139073
2.85896e-05
0.000209307
-0.000237899
-0.00215973
-0.000428768
0.0025885
-0.00418723
0.00158237
0.00260487
0.00150757
-0.00366731
2.99994e-05
-3.78393e-06
-2.62152e-05
0.0186423
-0.016902
-0.00174055
2.02211e-05
-2.02212e-05
0.000118762
-0.000107353
-1.14095e-05
0.00274594
-0.00172199
-0.00102393
9.07779e-05
5.66863e-05
-0.000147464
-1.09464e-05
1.44287e-05
-3.4789e-06
-3.18938e-05
4.83275e-05
-1.64336e-05
-0.00164316
0.00171022
-6.70744e-05
0.000406121
-0.0016353
0.00122918
4.59206e-05
-5.68642e-05
-0.000362777
-7.89626e-05
0.00044174
-0.0103127
-0.00542516
0.0157378
0.0375658
-0.028101
-0.00946473
0.000446404
-3.52468e-05
-0.000411157
0.0238312
-0.0341439
-5.26488e-05
-0.000420955
0.000473604
0.000575995
-0.000360245
-0.000215768
0.000243807
-0.000140181
-0.000103627
5.51677e-05
2.00344e-05
-7.52023e-05
0.0367013
0.000864516
4.63634e-05
-9.19875e-05
4.56246e-05
0.000386223
0.000356772
-0.000742994
-6.71902e-05
5.72562e-05
9.93378e-06
0.000208789
8.10065e-05
-0.000289795
-0.00158297
9.11563e-05
2.76067e-05
-0.000231903
0.000260489
-7.70964e-05
0.000167874
-0.00442955
0.0579066
-0.0534771
0.000164757
8.95656e-05
-0.000254322
0.00037481
-0.000407339
3.25287e-05
-1.9019e-05
7.41857e-05
-0.000140488
-9.1186e-07
0.000141407
-0.0135862
0.0137922
-0.000206031
-0.000163782
0.000550005
7.45182e-05
0.000104348
-0.000178866
1.98893e-05
-9.05383e-05
7.0649e-05
-7.60863e-06
-0.000132881
-8.37886e-05
0.000223704
-0.000139914
0.000108484
-0.00175164
-0.000194392
-8.81706e-05
0.000282563
-0.00847155
-0.00511462
-0.000335256
0.000282764
5.2494e-05
6.37592e-05
-1.53849e-06
-6.22179e-05
0.000776995
0.000147741
-0.000924756
7.0741e-05
-7.0476e-05
-2.64471e-07
-9.50609e-05
-0.000215338
0.000310401
-0.00133359
0.00340964
-0.00207605
-4.08829e-05
2.01573e-05
2.07262e-05
-9.65312e-05
0.000261289
-0.0698273
0.00839415
0.0614331
-0.000619315
0.00139329
-0.000773974
0.00127568
-0.00285859
0.00158294
0.0101357
0.0158894
-0.0260252
4.41582e-05
2.21845e-05
-6.63446e-05
8.79154e-05
-6.00663e-05
-2.7849e-05
0.000159941
-0.000255001
0.000225892
0.000183731
-0.000409623
-3.26618e-05
-0.000302594
1.26851e-05
9.75476e-05
-0.000110232
-8.42399e-05
0.000147468
-6.32289e-05
-7.96271e-05
9.23126e-05
-9.01776e-05
4.12207e-05
4.89571e-05
-0.000944155
0.00131649
-0.000372389
1.95402e-05
6.55199e-05
-8.50595e-05
-6.76026e-05
2.57568e-05
4.18459e-05
3.19398e-05
-3.7741e-05
-2.09804e-05
-4.62097e-05
3.82279e-05
-8.66463e-05
4.84187e-05
-2.45641e-05
0.000215305
-0.000190742
-2.06836e-05
6.48387e-05
-0.000273712
0.000343933
-7.02179e-05
-0.000381776
0.000108066
1.00735e-05
-1.62977e-05
6.22393e-06
-6.59182e-06
7.03537e-05
6.92035e-05
-0.000102016
6.16367e-05
4.03798e-05
-6.45784e-05
-2.55993e-05
-2.42447e-05
-3.31453e-06
2.7559e-05
3.68503e-05
-4.91098e-06
-0.000257157
6.27655e-05
-0.0162721
0.0401034
-0.00475519
0.00108493
0.00367025
-0.000715141
-0.00147429
0.00218942
0.000356094
1.87144e-05
-4.08298e-05
-0.000285764
0.000326595
3.85691e-05
9.25184e-06
-4.78215e-05
3.60877e-05
-6.43971e-05
2.8309e-05
5.36254e-05
-6.02159e-05
-2.59469e-05
-1.49396e-05
-3.85561e-05
0.000212453
-0.000173897
-0.00124293
0.00029871
0.000874133
0.00187181
-0.000265598
0.000142735
0.00012285
-0.0139685
-0.0558588
-0.0664703
0.0748647
-0.00305631
-0.00693389
0.0099902
0.0315976
-0.0478697
-0.0103131
-0.00123469
0.0115478
-0.000636828
0.00143339
-0.000796573
0.0006321
-0.000496966
-0.000135159
0.000199774
5.68567e-05
-0.000256634
-7.09638e-05
-6.83577e-05
0.000139322
0.00511199
-0.000839267
-0.0042727
0.000214955
-0.000169034
-2.34665e-05
7.70933e-05
0.000291583
0.000284401
0.0044458
-0.00750211
0.000121742
-3.05858e-05
-0.0233576
0.0114199
0.0119378
-1.71996e-05
1.01585e-05
7.04096e-06
-0.000176724
4.55956e-05
0.000131129
9.51263e-05
0.000119827
3.31345e-05
-8.15569e-05
4.84251e-05
-0.00186095
-0.0214967
0.000234869
-0.000329758
9.48883e-05
-0.0419929
0.00654981
0.0354431
8.92407e-05
-6.93513e-05
-4.49337e-05
-2.26691e-05
-0.0147584
0.0138216
0.000936597
-0.0104695
-0.01126
0.0217295
7.95633e-05
-4.64278e-05
0.000154812
-8.02934e-05
0.000591634
0.000405689
-0.000997319
-0.000159818
0.000394687
0.000758158
-0.00117113
0.000412963
0.00463479
0.00249979
-0.00713458
-5.45422e-05
1.60075e-05
3.85342e-05
8.28127e-05
-9.04214e-05
0.00032039
0.00136722
-0.00168762
9.92179e-05
-5.28545e-05
0.000236728
8.68341e-05
-0.000323562
0.000357637
-0.00012091
-0.000756098
0.00407592
-0.00331981
2.5402e-05
1.28709e-05
-3.82766e-05
-0.000223765
0.000385341
-0.000161577
0.000192962
4.253e-05
-0.000235491
0.00105206
-0.000490436
-0.000561619
-0.000240296
0.000783933
-0.000543645
6.76595e-05
-0.00034156
0.000273902
-0.00740108
-0.00291208
0.00014357
-0.000131798
-1.17714e-05
0.047461
-0.0518906
-0.000329203
0.000105439
7.63966e-05
4.53457e-05
0.0019495
-0.00397301
0.00202352
0.00030718
-0.00023413
-7.30514e-05
0.00020455
0.000362072
-0.00056662
-1.48937e-05
-1.92828e-05
3.41772e-05
7.22525e-05
-3.61646e-05
-1.19734e-05
0.000319154
-0.00223761
-0.000399264
0.00263687
5.14554e-05
-7.53959e-05
2.39423e-05
0.000102177
-8.09384e-05
-2.12377e-05
-0.000865486
0.00118587
-0.000328121
-0.00130721
0.000593488
3.85948e-05
-4.15591e-05
9.66519e-06
-0.00127985
0.00108528
0.000194568
0.00495515
-0.0180856
0.0131304
1.70743e-06
0.000815259
-0.000816978
-1.09026e-05
-2.1358e-05
3.22598e-05
3.23877e-05
-0.000134404
5.92593e-05
-2.00328e-06
2.99994e-05
0.00645327
-0.00181848
0.0143337
-0.0129086
-0.00142504
0.00599108
-0.00102571
-0.00496532
0.00901686
0.0053168
-0.015455
0.009854
0.00560103
-0.00141945
0.00205459
-0.000635146
-0.0110813
-0.00437369
3.23837e-05
4.71806e-05
-4.29461e-05
7.5331e-05
-0.000428777
-4.4804e-05
-5.66161e-05
3.93953e-05
1.72212e-05
-4.98815e-05
-5.9407e-05
0.000109288
0.0011105
-0.000868484
-0.000242012
2.49737e-05
-1.5375e-06
-2.34359e-05
0.000229813
-0.000270642
-0.00391069
0.0031546
-5.25396e-05
7.8958e-05
-2.6418e-05
0.00048777
-2.89623e-05
-0.000458799
0.0159018
-0.0109467
-0.000793129
0.000212479
0.00058064
-2.16368e-06
-1.50358e-05
-2.5346e-05
-5.62088e-05
0.0510441
-0.0650126
-0.00305709
0.00163764
-0.000773141
0.000774845
-0.000362341
0.000160772
0.000201569
-0.000385489
-0.00258043
0.00296592
0.000429562
-0.000176603
-0.000252958
0.00888176
-0.00911679
0.000235025
0.000437271
-9.91865e-05
-0.000338086
5.10449e-06
3.18833e-05
-3.69881e-05
0.000439144
-0.000349358
-8.97837e-05
0.00553397
-0.00495958
-0.000574373
0.00114931
-0.000372337
-1.09885e-05
-2.11425e-05
3.21307e-05
-0.000414989
0.000422801
-6.67091e-05
0.000147602
0.000291543
0.00955148
-0.0200209
-3.40948e-05
2.31071e-05
-0.000101127
2.40306e-05
0.000102419
-0.000203665
0.000101247
-0.00017711
5.11833e-05
0.000125927
0.0029401
-0.00769526
-2.32806e-05
-3.12619e-05
0.00486857
-0.00291901
-0.00769522
0.0126881
-0.00499282
-0.000407471
-0.000385671
7.2986e-05
5.56385e-06
-7.85499e-05
-0.0137045
0.00262324
-0.000581106
0.00062782
-4.67492e-05
-0.00263765
0.00192251
0.0003229
-0.000162126
0.000194257
-9.18375e-05
0.00177915
-0.00216464
-0.000193921
0.000155366
0.000449131
0.00264155
-0.00309066
-0.00014865
-0.000116951
-8.15055e-06
0.000437712
0.000292639
-5.48114e-05
-0.000237858
0.00188279
-0.00168138
-0.000201401
3.23135e-05
-6.17248e-05
2.94118e-05
-0.00189172
0.000169727
-0.000120414
1.73034e-05
1.85711e-05
-3.58747e-05
-0.00026555
0.00033321
-0.00216357
-0.00202364
-9.83687e-05
7.7396e-06
9.06291e-05
0.00381369
0.00172027
7.92784e-05
-2.46281e-05
-5.46516e-05
-5.98715e-07
2.55723e-05
0.000435832
5.1929e-05
3.19879e-05
-8.18695e-05
7.51497e-05
2.70275e-05
-4.00952e-05
1.48922e-05
2.52044e-05
-5.82207e-05
2.86863e-05
2.95345e-05
2.41519e-05
5.24912e-05
-7.66428e-05
-0.000116589
8.09192e-05
3.56705e-05
-4.97657e-05
0.000134265
-8.44996e-05
0.000385276
-0.00100459
-8.96562e-05
-3.55137e-05
0.000125172
0.000828268
0.00805347
0.0055839
-0.00241442
-0.00316947
-2.14416e-05
6.00107e-05
-2.59376e-06
-3.68735e-05
3.9467e-05
9.17932e-05
-7.12108e-05
-2.05827e-05
-0.00204638
-0.0116581
0.000114446
-3.80501e-05
0.00342793
-0.00159046
-0.00183747
-0.00023598
-7.4581e-05
0.000310561
2.80473e-05
-7.82597e-06
0.00263169
0.00295222
4.67107e-05
-0.000136367
2.80263e-05
6.37667e-05
0.00586474
0.00953176
-0.0153965
-0.000307722
0.00034976
-4.20378e-05
2.13139e-05
6.61025e-05
-8.74166e-05
0.000308296
-0.000181714
-0.000126581
0.0124415
-0.00657681
-0.00028336
0.000345664
-6.23041e-05
4.36921e-05
0.00179949
0.00529818
-0.00709753
-0.000348039
6.46796e-05
-9.41714e-06
-5.89738e-06
1.53133e-05
0.000895225
-0.00156469
0.000669483
-6.15399e-05
-2.42529e-05
8.57924e-05
-0.0200453
0.0516429
-0.0145547
0.00164611
0.0124506
-0.00155804
-0.0108926
0.000262545
-6.27714e-05
-0.000492705
0.000272837
0.000219873
0.000222046
-6.21025e-05
0.00561871
0.000834568
0.0245454
-0.0149939
0.000471396
-0.000245507
0.00112603
-0.0156807
-2.40763e-05
-7.82876e-06
3.19051e-05
-0.000603019
-0.0637489
0.064352
0.0197124
0.0249053
-0.0446178
-0.0003241
0.000110159
0.000213941
-0.000967071
0.0098478
-0.00888076
0.000162969
-0.000106283
0.00190768
-0.0016255
-0.000282185
-0.000169043
0.00076068
1.75992e-05
-7.44075e-06
0.00796131
-0.00625144
-0.00170987
0.00178974
0.000117945
8.06876e-05
-0.000130453
0.0251638
-0.045209
-8.5415e-05
4.93295e-05
3.60857e-05
-6.29239e-05
1.03844e-05
0.00239235
-0.000509566
7.83756e-05
-0.000162615
0.000366076
-0.000162418
-0.000203657
0.00864426
-0.000682961
-2.49409e-05
-4.04659e-05
6.54075e-05
4.67517e-05
-0.000171685
0.000124934
-7.31306e-06
-7.58082e-06
0.000160329
0.000205747
4.92829e-05
3.2083e-06
1.76665e-05
4.67218e-05
-6.43882e-05
0.00282698
0.00962366
-4.60169e-06
-0.000231379
0.000102386
9.18713e-05
0.053997
-0.0546
0.000260335
0.000162463
-3.28699e-05
7.51381e-05
-4.22682e-05
-0.028874
0.00431557
0.0245584
-5.35445e-05
-0.00209803
0.00171288
0.00038516
-7.37841e-05
1.22438e-05
-7.99018e-05
0.000108198
-2.82966e-05
2.58904e-05
5.30887e-05
-7.8978e-05
-4.90009e-05
0.000495405
0.00491328
-0.0155642
0.0106509
4.46959e-05
-4.94034e-06
-3.97586e-05
0.000659133
-6.81319e-05
0.000170518
-0.0033599
-0.0386331
0.000104875
-0.000175839
0.00308614
-0.00263701
4.84139e-05
9.51563e-05
-0.000720801
0.000743726
-2.29247e-05
0.000140304
0.000103503
0.0025007
0.000927244
3.84974e-05
-2.07586e-05
-1.77381e-05
-8.49407e-05
-0.000277835
0.00145582
-0.00687194
0.00541606
-0.000163771
-0.000166761
0.000165855
0.000169227
-7.61489e-05
-9.30779e-05
-0.00282934
0.0143562
-0.0115268
7.71246e-06
-5.73668e-05
4.96539e-05
-0.00017842
-5.57101e-05
-3.54867e-05
2.61701e-06
3.84224e-05
-4.60621e-05
7.63935e-06
-0.0187384
-0.0193693
0.01654
0.0013003
-0.000846641
-0.000453658
0.000129666
-5.01197e-05
-7.95465e-05
-5.71149e-05
-0.000119997
3.53543e-05
-3.79478e-05
-0.00534429
0.00714395
0.000631145
0.000420909
-2.8378e-05
-6.46271e-06
3.4841e-05
-0.000948149
0.00222384
0.0195304
-0.0146171
-0.000801025
0.00143712
-0.000636118
0.000202273
-3.93259e-05
-0.000162953
0.00301972
-0.00169365
-0.00132606
0.0255715
-0.00966975
-0.000148877
-2.95445e-05
-2.64593e-05
-8.8829e-06
3.53393e-05
0.00134336
0.00460969
-0.00595303
1.67251e-06
5.75867e-05
0.0124609
0.00618143
9.63204e-05
-7.11133e-05
-2.52062e-05
0.000123922
-0.000844723
-7.91667e-05
5.38218e-05
4.25304e-05
-2.55283e-05
-1.70049e-05
0.000238936
-0.000153551
-8.5385e-05
-2.5665e-05
8.21193e-05
-5.64528e-05
1.53293e-05
1.53043e-05
-0.000278156
0.00103631
-8.0273e-05
6.43148e-05
1.5957e-05
6.04429e-05
-2.44015e-05
-3.60411e-05
0.00011205
-3.73709e-05
-7.46782e-05
-3.66648e-05
-2.75971e-05
6.42622e-05
5.20471e-06
1.23942e-05
-9.62417e-05
0.000333875
-0.000237634
-0.00579115
0.00200087
0.00379028
0.000348282
2.7821e-06
-2.70267e-05
-4.66136e-05
2.24237e-05
2.41901e-05
1.23744e-05
-0.000316159
0.000100822
2.95071e-05
3.09361e-05
-0.00599633
0.00715967
-0.00116335
5.88371e-05
-0.000123132
6.4307e-05
6.76748e-05
2.86461e-05
0.0038777
0.0012343
0.000123764
-6.49181e-05
0.00168613
0.000179491
0.00581162
-1.43598e-05
-2.0356e-05
3.47155e-05
3.79419e-05
0.0285164
-0.0242007
0.00134548
-0.00119867
-0.000146895
0.000145878
-3.20449e-05
0.000611322
-4.5793e-05
-0.000565529
-9.85659e-05
4.45825e-05
5.39833e-05
0.000177846
2.44262e-05
0.00245482
-0.000675666
0.0100073
5.14431e-05
0.000559879
-0.0277587
0.012551
0.0152077
4.90262e-05
-1.06037e-05
-0.000566596
-0.000713256
-0.000228998
-0.00235143
-2.41517e-05
5.76684e-05
-3.35169e-05
0.000272457
-0.000819412
0.000546956
-0.00263037
-0.0121281
0.0438408
-0.0241284
-2.54581e-05
5.77724e-05
0.00856468
-0.000256256
0.000721849
-0.000465593
0.0544286
-0.00663742
-0.00605072
5.43968e-05
-9.46487e-05
0.000143123
-4.84737e-05
1.17092e-05
-5.14966e-05
3.97884e-05
-5.32753e-05
-0.000180319
-0.00347461
0.00493041
-7.4063e-05
0.00028337
-0.0272084
0.0571875
-0.0299791
1.86239e-05
-3.09004e-05
1.22778e-05
-3.85298e-05
5.0239e-05
2.27324e-05
1.97982e-05
0.00082081
-0.000137553
-0.000683257
-2.24651e-05
-1.28765e-05
3.53436e-05
-8.66951e-05
2.7456e-05
5.9237e-05
-1.67793e-05
-1.18928e-05
2.86727e-05
-0.00260412
0.000910478
5.02291e-06
-3.34016e-05
5.36135e-05
4.19896e-05
4.55759e-05
2.22476e-05
-6.78211e-05
-0.000176724
-1.51921e-05
5.34202e-05
0.000153827
2.08926e-05
-0.000174719
0.00858267
-0.00708952
-0.00149316
0.00466929
-0.000855596
1.98646e-05
-1.56372e-05
-4.22808e-06
0.000157137
-0.000278789
0.000121652
9.68551e-05
0.000723955
2.94447e-05
-0.000110383
0.00298048
-0.00350359
0.00052311
-0.000856888
0.000221725
0.000635147
1.73755e-05
2.11222e-05
0.000301755
-0.000152228
-0.000149526
7.60426e-06
-3.16808e-05
0.000248475
-0.00110535
8.18976e-05
-8.09695e-05
-9.28137e-07
3.09872e-05
-1.23627e-05
-2.58114e-05
-1.43421e-05
4.01534e-05
4.14921e-05
7.29542e-05
-3.29231e-05
-0.000208218
0.000183653
-0.000548885
-0.0163533
1.85189e-05
5.44671e-05
-0.000255863
6.98864e-06
0.000248874
5.79011e-05
-1.23248e-05
-9.57704e-05
8.76487e-05
8.12183e-06
-0.000260464
4.19654e-05
-2.00208e-05
-2.19436e-05
-0.00275793
0.0041013
-7.55265e-07
2.38607e-05
-2.31051e-05
3.39128e-05
-9.05288e-05
1.68746e-06
9.47621e-05
-9.64498e-05
1.40486e-05
-2.74694e-05
1.3421e-05
7.46104e-05
9.46163e-05
-0.000330819
0.000245878
-0.000288155
4.33797e-06
7.75595e-05
6.05793e-05
6.90865e-05
-9.69432e-06
-1.05269e-05
5.13972e-06
-3.09514e-05
1.28889e-05
-9.33253e-05
8.04363e-05
0.000233915
5.87088e-05
7.11668e-05
-6.98782e-06
-6.4178e-05
7.90969e-06
4.09372e-05
0.000105535
4.56701e-05
-0.000151206
-0.0168565
-0.00122911
-0.000647775
0.00011328
-7.74433e-06
0.00239936
0.00226993
-7.01418e-05
0.000342981
0.0231546
0.0184957
-0.0416502
0.00288991
-0.00113339
-0.00175652
0.000408308
-0.000240384
-0.000107655
0.00152911
0.0013608
0.000210372
-0.000280515
0.000117253
7.20021e-06
-3.40311e-05
2.68308e-05
-0.00455473
0.0140912
-0.00953645
-0.000590938
0.000205246
-0.00202156
0.000359801
-0.000176071
0.000262464
8.14708e-05
-0.00046766
0.000303878
-3.95166e-05
3.46855e-05
4.83012e-06
4.87874e-05
3.9128e-05
0.000208739
-0.00017461
3.44282e-05
-0.000126447
-0.0015549
-2.31509e-05
6.37209e-06
0.000293471
-0.000328717
-0.000137858
7.82083e-06
2.33606e-05
-3.11801e-05
0.00269271
-0.00353197
0.0540848
0.000343696
-0.0168276
-2.89221e-05
-0.00112148
-0.000900063
-0.00698798
-0.0189407
0.0259287
-9.93951e-05
6.44716e-05
3.49234e-05
1.38846e-05
-0.00258283
0.0146618
5.03804e-05
-5.68711e-06
-0.00267843
9.55766e-05
0.000161408
-0.00239901
3.39612e-05
-2.88572e-05
3.55693e-05
-0.000115247
7.96779e-05
-0.00162168
-0.0118552
0.0134768
0.000255599
0.00132298
-0.00157857
-0.000138924
-0.000452028
-1.37525e-05
-2.57644e-05
-7.9351e-06
-3.81275e-05
5.55898e-05
-4.94324e-05
-6.15785e-06
5.44087e-05
-7.90375e-05
9.70006e-05
-5.02873e-05
-0.000207437
-0.000174338
0.000161173
-9.63023e-05
-6.48704e-05
0.0540108
-6.16055e-05
0.000254167
-0.000218751
-3.54151e-05
0.00133517
-0.0234157
-0.000100694
-0.000107044
0.000207733
0.000343799
-0.00012393
-3.42544e-05
1.98942e-05
0.000797108
-1.31737e-05
0.00327293
0.0143368
-0.0176097
0.000275989
-0.000354951
3.19736e-05
-3.57573e-05
0.00354725
-0.0104812
0.00113568
-0.000753706
-0.00038197
-0.000491555
6.27774e-05
0.0115078
-0.0131295
-0.000317181
0.000305925
1.12562e-05
-3.68066e-05
7.62128e-05
-3.44453e-05
-4.1765e-05
-0.00069447
-0.000678467
0.0013729
-2.21884e-05
-0.000183109
0.000205298
-0.00120131
0.00123166
-3.03483e-05
-0.000274329
4.67315e-05
0.000227598
6.25871e-07
5.4964e-05
1.41995e-05
-0.000112568
-8.01744e-05
9.4374e-05
0.00068826
0.00070503
-0.00409979
0.00142136
7.80892e-05
-0.000212721
0.000134637
0.0427369
0.0320735
-0.0255278
-0.0065457
2.71289e-05
-2.86662e-05
0.00101733
2.38146e-05
-7.80183e-05
0.000247254
-0.000169236
-0.00150232
-0.000966435
-0.00440824
0.0053747
1.07219e-05
-3.86289e-05
2.79069e-05
-0.000113671
-0.000293671
-3.03265e-05
5.77929e-05
-2.74666e-05
-8.0849e-05
-0.000145267
0.000226116
-2.8922e-05
3.96441e-05
0.00478347
-9.08129e-06
-0.00477437
-3.75846e-05
-2.99388e-05
6.75238e-05
9.51105e-06
-6.95773e-05
-0.000350119
3.29389e-05
0.000981031
-0.000942819
-3.82095e-05
-0.0123262
0.00463102
0.00301064
-0.000369096
0.00118601
-0.000807255
-0.000378752
-2.43635e-05
3.21847e-05
2.61497e-05
0.00732218
0.032989
-0.0403112
0.00675236
-0.0105969
0.00384453
3.35716e-05
4.2642e-05
0.000521078
-4.53214e-05
-0.000475757
1.06142e-05
-9.05163e-05
4.06434e-05
-7.87013e-05
3.80582e-05
6.43399e-05
8.31278e-05
-0.000100338
5.13281e-06
9.52057e-05
-0.000253798
0.000499676
0.000119483
-0.000220178
-3.99936e-05
-3.46036e-05
7.45992e-05
-0.00265219
-0.0245219
0.0271741
0.000334182
-0.000291314
-4.28657e-05
0.000466073
0.00132366
0.000104203
-9.13144e-05
0.000552839
-3.17611e-05
-0.000217546
-8.86731e-05
0.00030622
-7.29962e-05
3.30041e-05
8.69611e-05
-6.56475e-05
0.00433004
-0.00328784
-0.00104219
0.000497861
0.00248262
-0.00335515
-0.002436
1.68163e-05
8.01837e-05
0.000983367
0.000450023
5.15545e-05
-3.47383e-05
0.000938504
0.00339154
-0.0264588
-0.0393589
0.000108183
5.29896e-05
3.94323e-05
-7.63151e-05
3.68843e-05
0.000315791
1.83917e-05
0.002301
-0.00169102
-0.00060997
-8.65455e-05
0.000110867
-2.43216e-05
1.73937e-05
-1.21889e-05
-3.35638e-05
-0.00364384
-0.00186944
0.00551327
0.0102564
0.000229366
2.48004e-05
0.00062006
0.00016378
7.29674e-05
-0.000236747
0.00510807
0.0011437
-1.99865e-05
-2.66268e-05
1.20421e-05
0.000394714
-0.000406756
8.18439e-05
4.19282e-05
-1.97196e-05
9.48694e-05
0.00179748
-0.00133141
0.00123755
7.12778e-05
-0.00130883
-1.73635e-05
-0.0433156
0.000895516
0.000290494
3.97474e-05
-1.4341e-05
-0.00104565
-0.00242792
0.00347356
0.000241962
-0.000199431
-0.000387944
-2.82325e-05
1.30539e-05
1.51796e-05
0.00187375
-0.00341079
0.00153705
0.000451797
-0.00114627
0.0186828
0.0180185
0.000145907
-9.91548e-05
0.000117506
-3.56591e-05
0.00618861
-0.00721431
-6.21165e-05
2.16509e-05
6.35898e-05
-2.46988e-05
-3.88911e-05
0.000131263
-7.06842e-05
3.91458e-05
-6.5148e-05
2.60043e-05
-0.0430933
0.0504155
-0.0012239
-0.00016136
0.000523431
-0.00278592
-0.0034655
0.00900032
-0.0128789
0.00387861
-3.56716e-05
-0.0031511
0.00264251
0.000508597
-2.08892e-05
8.69917e-05
-3.04588e-05
1.31049e-05
1.73552e-05
0.00028154
-0.000200534
0.0200256
-0.00860569
5.25311e-05
-4.0454e-05
-1.20774e-05
-7.26741e-06
5.74742e-05
-5.02067e-05
-2.78677e-05
3.50681e-05
-5.76089e-05
-2.78063e-05
-0.0475459
0.0201561
0.0273897
3.84267e-05
-2.55588e-05
-4.96387e-05
-0.000117119
0.000317967
-4.61752e-05
-4.5812e-05
0.000155101
-0.000132497
-2.26039e-05
0.0121421
-0.00228812
0.0203564
-0.0230086
-2.295e-05
2.5978e-05
-3.02812e-06
0.000205181
-0.000160349
-4.48317e-05
-0.00703446
0.0125614
-0.0055269
-0.0022126
0.00819814
-0.0137229
3.5874e-05
0.000203062
0.00474045
-0.00570688
4.32679e-05
-6.22267e-05
1.89582e-05
-0.00861205
0.0289684
-0.0012009
-0.00384754
-2.44547e-05
-7.95486e-05
-0.00280346
-5.51299e-05
0.00147311
-0.00136967
-0.000103426
1.87054e-05
8.61696e-05
0.000678148
0.00312819
-4.20514e-05
0.00287641
-0.00269489
-0.000181508
3.29971e-05
-2.18619e-05
-1.11334e-05
2.51434e-06
1.48793e-05
-5.43848e-05
4.71173e-05
-0.000283249
-7.70018e-05
-0.0362793
0.00907087
-0.00151575
0.00211413
-5.54327e-05
9.10019e-05
0.000694494
-0.000796193
0.000101691
-0.00477109
0.00198516
-8.04986e-05
0.000239184
-0.000158686
0.00701805
-0.015243
0.00822494
-0.0001807
0.000145186
0.000182036
0.000184563
-0.000366601
0.00129206
0.00441246
-1.61001e-05
-1.21322e-05
-0.000437502
-5.40538e-05
6.16641e-05
-2.25176e-05
3.45022e-05
-5.8654e-05
3.96971e-05
1.28339e-05
-5.20924e-05
1.45081e-05
0.0107615
-0.0129651
0.0022037
0.00219195
0.000200392
-1.8873e-05
3.57811e-05
-0.00056364
0.000948916
0.000113572
-7.208e-05
0.000131884
-2.36902e-05
-1.43739e-05
3.80692e-05
0.000633659
6.08372e-05
-2.42312e-05
2.36326e-05
-0.000598098
0.000488617
0.000109482
0.000572037
3.04754e-05
-1.35284e-05
-1.69466e-05
2.56129e-05
4.49335e-05
-7.05465e-05
-6.08524e-05
-5.57361e-05
0.0162414
-0.0119053
-0.00433631
-0.000199027
0.000149395
0.0340762
-0.0181868
-0.0108746
0.00751467
2.68728e-05
2.31119e-05
-4.99882e-05
-2.73793e-05
3.24045e-05
-0.00130526
-0.00149819
-3.45489e-05
0.000528561
-0.000494012
0.000299441
8.11455e-05
-0.000380586
-0.000120938
0.000301943
-0.000350603
4.86603e-05
0.000373031
-0.000112701
-3.34656e-05
6.08642e-06
-0.000137097
-1.01071e-05
0.000147205
0.000168831
1.98485e-05
-0.000188657
-2.24829e-05
3.73796e-05
0.000358699
-5.67555e-05
-2.1703e-05
-0.0434792
-0.00709891
0.0505781
0.0152127
-0.0394679
0.0242552
-0.0108011
0.0116293
0.0116875
-0.00466947
-2.55798e-06
-1.37397e-05
0.00351583
0.000106873
-7.06338e-05
-3.62397e-05
-0.0126536
0.0159266
-0.0178641
-0.0211467
-9.85478e-06
9.26685e-05
-3.67772e-06
-6.08658e-05
6.45435e-05
-7.66317e-05
0.000102769
-2.61379e-05
0.00182845
0.00012285
-0.0019513
0.016212
0.000136074
0.000163698
-0.000299773
0.000193778
0.000179248
-0.00878799
0.0045875
0.0042005
8.10229e-05
-1.15613e-05
-6.94616e-05
0.000381323
-0.00138153
0.00100025
-0.000258963
3.98452e-05
0.000219118
0.0105414
0.014004
0.0302342
-0.0126668
-0.0175674
0.000296923
-0.000268698
-2.82253e-05
0.000100192
0.000121855
-8.69139e-05
0.00024405
-3.49403e-05
2.75044e-05
7.43664e-06
6.00933e-05
-2.36578e-05
-3.64359e-05
1.09317e-05
0.000133619
-0.00014455
-0.000165967
0.00036539
-0.000199423
0.00027988
-0.000240146
-3.97336e-05
0.0140167
-0.0158367
0.00181997
0.000207606
-5.3779e-05
1.08487e-05
-9.16134e-06
5.80325e-05
4.88409e-05
0.00187533
-0.00161973
-0.00161961
-0.00430796
0.00592754
-0.000109769
9.75935e-05
1.21753e-05
0.000236457
-1.05051e-05
-0.000225951
-1.73199e-05
4.9317e-05
-3.19977e-05
-0.000101537
2.4905e-05
0.000154406
-0.000749741
0.000595335
-0.00192946
-0.000674643
0.0198227
0.0104115
6.83209e-05
-3.65653e-05
0.0138369
-0.0224489
3.24705e-05
-8.40997e-05
5.16324e-05
-3.15715e-05
3.03131e-05
1.25464e-06
0.000110364
-3.38029e-05
5.13682e-06
7.14274e-05
5.98353e-05
-5.84605e-05
0.000164516
-0.000106055
3.43281e-05
-7.47692e-06
-2.68491e-05
-0.00373606
-0.00505191
0.000715374
-0.00231832
0.00160296
0.000173609
2.19932e-06
-0.000175808
8.75398e-05
1.52298e-05
4.42774e-06
4.45984e-05
0.000128641
-5.72144e-05
0.00019174
0.000127243
-0.000318984
-0.00207622
0.001859
0.000217236
2.72106e-05
3.28823e-05
0.00027236
-0.000438327
0.000221036
1.05908e-05
-0.000231627
4.19801e-05
-1.51101e-05
-3.40803e-05
-4.86267e-05
8.27075e-05
3.51764e-05
-1.7873e-05
-3.68558e-05
-0.0104442
0.024781
-5.08841e-05
8.27724e-05
-3.18885e-05
3.58254e-05
-1.72546e-05
0.00102876
-0.000647399
0.00369627
-0.0053159
-0.00086851
-0.000851999
0.00172051
-0.00102215
-0.0097789
-0.0066415
0.00294435
0.0036972
-2.49863e-05
0.00157515
0.000253288
0.000203522
0.000129076
-3.75641e-05
-9.1512e-05
-1.36924e-05
4.13888e-05
0.000238491
-3.12419e-05
3.5793e-05
-7.92779e-05
-6.53863e-05
0.000144664
0.0179189
-0.0277626
0.00984376
-1.89864e-05
-3.92342e-05
0.000665345
-0.000679445
1.41003e-05
0.000217546
-1.54047e-06
-0.000216005
4.14267e-05
-6.48929e-05
-7.30888e-05
4.94761e-05
2.36136e-05
8.12654e-05
3.62397e-05
0.00485645
-0.0108601
0.0060036
-0.000491978
-0.0192758
0.0197678
-0.000550681
0.00167885
-0.00112816
9.84202e-05
-6.67734e-05
-3.16439e-05
0.000243808
0.0001909
-0.000434708
0.0132727
-6.89353e-05
-1.1338e-05
0.000482154
0.000818142
-0.000169332
-8.96313e-05
0.000962995
-0.00017059
0.00036233
0.0005718
9.35462e-05
-4.21561e-05
9.58065e-06
3.25759e-05
0.0189684
-0.00104951
-0.00338786
-0.00926579
-0.00020146
1.06717e-05
0.000190789
-0.0142765
-0.0332693
-0.00148552
0.000934842
-0.00267602
0.00137076
-0.00368573
0.00218754
-3.80171e-05
4.5729e-05
-0.00204548
0.00018417
0.00186128
-3.42537e-05
-7.3193e-05
0.000107448
3.60896e-05
7.74826e-05
-2.86481e-05
6.94544e-06
2.1703e-05
-5.85336e-05
2.36833e-05
3.48498e-05
-7.34457e-05
-0.000200882
6.31802e-05
-0.000142458
0.0136399
-0.0028784
0.000349916
-2.01617e-05
-0.000329752
-0.000109527
-0.000339532
-0.00010231
0.000441842
0.00367303
-0.00471868
-1.14076e-05
-2.23954e-05
-0.00114664
1.0378e-05
2.26199e-05
0.000136752
-2.41314e-05
-0.000112618
7.66295e-05
-0.000110883
-5.36944e-05
0.000146473
-5.53991e-05
-9.10736e-05
-0.000127418
0.000146123
6.64469e-05
-2.50202e-05
0.00017574
0.000182959
-8.87142e-06
-5.47046e-07
0.000100752
-0.000440284
-0.00336572
0.00158736
0.00177837
0.00617534
-0.00884957
0.00267421
5.11564e-05
-3.25585e-05
-1.85986e-05
-0.00593217
-0.00961191
0.0155441
-2.41338e-05
-7.43994e-06
6.23388e-05
4.58592e-05
-0.00282427
0.000883414
0.00194086
0.000607363
-0.000282575
-0.000324789
6.83516e-05
0.0100521
-0.0389765
0.000317827
-8.39114e-05
0.000999523
-0.00186803
-0.000360669
0.000297288
6.33826e-05
0.00369053
-0.00129117
-3.23711e-05
-3.9377e-05
7.17482e-05
-3.5778e-05
1.08221e-05
2.49562e-05
-2.77276e-05
-9.14581e-06
1.23155e-05
2.32638e-05
-3.55796e-05
7.25401e-06
7.56734e-05
-8.29274e-05
7.37487e-05
7.2741e-06
-0.00286786
-1.26123e-05
3.7817e-05
6.64375e-05
8.00355e-05
-0.00213204
0.000202578
-2.77289e-05
-2.97976e-05
5.75263e-05
0.000190965
2.43395e-05
-0.00126073
-0.00135506
0.00261578
0.000499958
-0.000534507
0.000333478
-0.000193174
0.000116864
1.98878e-05
-0.00295239
0.00174118
0.00121122
-4.19609e-05
0.000210816
0.000203999
-0.000158403
9.49916e-05
-0.000153452
4.98849e-05
-0.000800229
0.000750351
-0.00020437
-0.000156298
-0.0116901
0.00575792
0.000184418
0.000422945
0.00485657
-0.000644405
-0.00421214
-1.43911e-05
2.84401e-05
-7.02568e-05
5.12374e-05
2.04599e-05
1.24666e-05
9.78501e-05
0.000171146
-0.000268997
-0.000569005
0.000618892
0.000745012
0.000241981
-0.000986995
-0.00162285
-0.000422626
-0.000177787
0.000229495
-5.17094e-05
0.006627
0.0032208
-0.000950516
3.2782e-05
3.08081e-05
-1.74045e-05
-2.23806e-05
-0.000235321
-0.000253745
0.000489066
-0.000688971
8.07941e-05
-0.000114874
0.00740529
0.0121252
0.00351466
-0.00538409
0.000314698
-1.52558e-05
-0.00418591
0.00177149
0.0324589
-0.0198511
-0.012608
-5.70254e-05
5.35777e-05
3.44739e-06
-7.41561e-05
4.02768e-05
3.38795e-05
-0.000771403
-0.000474008
0.00124541
0.0402385
-0.046536
0.0062975
-0.000257388
0.000150341
0.0480684
-0.00103551
-0.0470328
-0.0001564
-4.50598e-05
0.00216205
-0.00127864
0.000290671
-0.000114931
-9.61003e-05
-0.000254018
-0.0109587
0.0137857
-3.2404e-05
-7.49482e-05
0.0159812
0.0320873
-0.0278084
0.0208204
-1.77951e-05
0.000132423
-0.000397572
-0.00167865
0.000223497
-6.83965e-05
-0.0164099
-0.00377325
0.00368665
8.66167e-05
-0.0112546
0.01866
0.000738405
0.00116329
-0.00190168
9.55719e-05
2.12945e-05
-0.000271451
0.000628223
0.0110066
-0.0061502
0.00627677
0.00522107
-0.0114979
1.46475e-05
2.73305e-05
-0.0173837
-0.010375
-0.00367819
-7.53901e-06
-2.38043e-05
-1.4867e-05
3.86711e-05
0.00134609
-0.000260807
0.000161781
-6.62088e-05
0.000225069
9.27518e-05
-5.75055e-05
2.60438e-05
3.14613e-05
-0.000590738
0.000241382
0.000106836
-1.92966e-05
0.000177206
-1.97517e-05
-0.000157455
0.000314918
-0.00012873
-0.000186188
-0.0100237
0.0118876
-0.00186406
0.00307425
0.000335388
0.000341854
-0.000148384
-0.000193467
-4.21181e-05
-5.36521e-05
0.000212897
8.40261e-05
1.41373e-05
1.63384e-05
-0.0177232
0.0409605
-0.0232374
-0.0458627
0.00238344
0.0337865
0.00121514
-6.13356e-06
2.35868e-07
-0.00795526
0.00456739
-0.000596437
0.00133485
0.000306871
-0.000113106
0.00114844
0.000906155
0.000259519
-0.000106381
-0.000153158
0.000171868
4.56782e-05
1.8199e-05
-6.90832e-05
0.000441384
-0.000450595
9.21136e-06
-0.000130796
-6.30099e-06
-9.29209e-05
-1.68487e-05
-4.49397e-06
7.56616e-05
-0.000298632
0.000304114
-5.48502e-06
-0.000245824
0.000309081
-6.32569e-05
2.08664e-05
2.10996e-05
0.0227733
0.0344143
0.00168098
-0.00262913
-0.00835531
-0.0127432
0.0210986
-9.74597e-05
0.00126463
-0.00116717
0.00500791
-0.00113019
-0.000138532
-0.0010186
0.00115715
-0.000154817
0.000107287
-7.86303e-06
0.0109933
-0.0089008
-0.000115236
-6.23969e-05
0.000177631
1.56112e-05
-1.81684e-05
-0.000100477
-0.000156912
-0.00161522
-0.00573869
0.00735394
0.0070437
-0.015399
-0.0178307
0.0173387
0.00101023
0.000299551
-0.000395793
0.00283789
0.00217004
-5.71111e-05
7.71457e-05
-7.48098e-05
0.000206522
-0.000131716
-0.000101598
0.000326661
0.000151625
-0.000200895
4.92708e-05
0.000297866
-0.000134086
0.00012053
-0.000272758
6.159e-05
0.000280266
0.00106778
0.00123321
-3.16317e-05
1.92075e-05
1.2425e-05
-0.0119808
0.000288475
-0.000419853
0.000131379
-3.39013e-05
-5.27449e-05
-2.10211e-05
-1.47568e-05
7.07265e-05
-7.94731e-05
8.74673e-06
-0.00293576
0.00423529
-0.00129954