/*--------------------------------*- C++ -*----------------------------------*\
| =========                 |                                                 |
| \\      /  F ield         | OpenFOAM: The Open Source CFD Toolbox           |
|  \\    /   O peration     | Version:  v2012                                 |
|   \\  /    A nd           | Website:  www.openfoam.com                      |
|    \\/     M anipulation  |                                                 |
\*---------------------------------------------------------------------------*/
FoamFile
{
    version     2.0;
    format      ascii;
    class       volScalarField;
    location    "50";
    object      epsilon;
}
// * * * * * * * * * * * * * * * * * * * * * * * * * * * * * * * * * * * * * //

dimensions      [0 2 -3 0 0 0 0];


internalField   nonuniform List<scalar> 
18598
(
4.20688e-05
7.51131e-05
1.01518e-06
2.05195e-06
1.02436e-06
1.77001e-06
0.00489015
1.07057e-06
8.49868e-07
9.67102e-07
7.48475e-07
7.78253e-07
1.40762e-06
0.00873248
7.45586e-06
7.77741e-07
1.31844e-06
0.000182352
0.000134822
7.66248e-07
0.000211286
7.51147e-07
2.57503e-06
7.44665e-07
1.10112e-06
0.000150268
7.66702e-07
0.0103847
1.3666e-06
7.54502e-07
5.92986e-05
8.43623e-07
9.7311e-05
7.48693e-07
7.58253e-05
7.60154e-07
1.42198e-06
1.09821e-06
1.73238e-06
0.00012145
0.0106746
7.67973e-07
9.97398e-07
1.70353e-06
7.61997e-07
0.00900387
7.79491e-07
0.000128484
1.56879e-06
1.1963e-06
3.64763e-06
1.19674e-06
8.55027e-07
1.59726e-06
1.59072e-06
7.60988e-07
0.000150865
0.00586766
0.006761
1.71351e-05
1.2782e-06
8.64492e-07
8.52338e-07
1.50733e-05
1.5659e-06
1.00225e-06
1.537e-06
1.00333e-06
8.94282e-07
9.41915e-06
1.21795e-06
1.18545e-06
1.62643e-06
1.37232e-06
8.99126e-07
7.70976e-07
1.27417e-06
8.71617e-07
8.77712e-07
1.63656e-06
1.19311e-06
1.19338e-06
7.91433e-07
9.13888e-07
1.54126e-06
1.62176e-06
7.69919e-07
0.000211912
0.00034591
0.0110504
1.41588e-06
1.09874e-06
1.2862e-06
1.44949e-06
1.19734e-06
1.58899e-06
1.56837e-06
8.50027e-06
9.57614e-07
1.44205e-06
0.000122823
0.000156907
1.68644e-06
0.000220415
0.0056037
1.68032e-06
3.84382e-06
4.39286e-06
7.45018e-07
0.00878672
7.72807e-07
1.19393e-06
2.58809e-06
1.54482e-06
8.4111e-07
0.000178444
1.61526e-06
1.0317e-06
7.70697e-07
1.04559e-06
0.000164608
7.56552e-07
8.18996e-05
9.93835e-07
1.19606e-06
0.00430449
0.000144124
1.03966e-06
7.68352e-07
0.0124395
7.57247e-07
0.00973961
1.53468e-06
1.71451e-06
1.70007e-06
1.6814e-06
7.66455e-07
7.57445e-07
7.57488e-07
0.00647679
1.62742e-06
7.52595e-07
1.31605e-06
0.0108303
2.5579e-06
7.50729e-07
0.00513129
8.91858e-07
7.70866e-05
7.52619e-07
8.36241e-07
0.000507465
7.63361e-07
0.00497523
7.98058e-07
1.44139e-06
7.63226e-07
8.0912e-07
1.24821e-06
1.07333e-06
1.66792e-06
9.82965e-06
3.74892e-06
1.44051e-06
0.00528802
4.38562e-06
3.14989e-06
1.52369e-06
8.0795e-07
1.35815e-06
1.87016e-06
1.48683e-06
0.000152287
3.14162e-06
0.000152004
1.27621e-05
1.29729e-06
1.75976e-05
1.03391e-06
1.02331e-06
0.0159515
7.48004e-07
1.46652e-06
0.0123191
1.57266e-06
1.10267e-06
0.00641864
9.27627e-07
2.2078e-06
2.02703e-06
2.58749e-06
1.6239e-06
1.05327e-06
0.000106666
1.31682e-06
3.09381e-06
7.48605e-07
9.55024e-07
7.5259e-07
0.00073633
2.22518e-06
1.66467e-06
7.62071e-07
1.32923e-06
4.1208e-06
1.51119e-06
7.49724e-07
1.40487e-06
7.62137e-07
7.85207e-05
1.50649e-06
7.48261e-07
1.09346e-06
2.75772e-06
0.00031137
1.72522e-06
0.00041515
3.35916e-05
2.46423e-06
8.22106e-07
7.19519e-06
3.63386e-06
0.0109263
7.47712e-07
1.09708e-06
9.41799e-07
1.56091e-06
0.0100345
1.45022e-06
7.52644e-07
2.37143e-06
0.00215061
1.23523e-06
9.64464e-07
7.54002e-07
1.58331e-06
7.49869e-07
2.12573e-06
7.49725e-07
1.3185e-06
9.98228e-07
1.56588e-06
2.20255e-06
1.47602e-06
1.06671e-06
1.5545e-06
1.33868e-06
1.20755e-06
1.07076e-06
7.49657e-07
0.00593729
8.32329e-07
0.000522358
1.93975e-06
1.28217e-06
1.20397e-06
1.03681e-06
8.2448e-06
8.34337e-07
0.00923764
7.51311e-07
9.79302e-07
2.05788e-06
8.28265e-07
1.03272e-06
3.95047e-05
7.55873e-07
9.87601e-07
7.57189e-07
3.0606e-05
7.56035e-07
1.21646e-06
0.00877172
7.56887e-07
1.63215e-06
0.0068961
9.49571e-07
0.000194228
0.000183059
4.12701e-06
4.07993e-06
0.00172967
8.47144e-07
1.40544e-06
3.82675e-05
1.26718e-05
0.000185074
1.56989e-06
0.000341546
0.00138056
7.51407e-07
2.54314e-05
7.48489e-07
1.1349e-06
0.0120092
1.60699e-06
2.34735e-06
1.13944e-06
7.49557e-07
0.000178748
9.56829e-07
9.74524e-07
0.00138374
1.54709e-06
7.5357e-07
2.41877e-06
1.21126e-06
8.8842e-07
8.02792e-07
7.52314e-07
1.20384e-06
1.04847e-06
3.54958e-06
7.50183e-07
1.08817e-06
0.000255602
1.39863e-06
8.2641e-07
2.11502e-05
1.0442e-06
9.38544e-07
9.62389e-07
7.55701e-07
1.06829e-06
7.64673e-07
2.26182e-05
1.69502e-06
1.38431e-06
1.08566e-06
8.3183e-05
7.44815e-07
0.0101015
8.77919e-07
0.0074997
7.4456e-07
0.0086028
1.46999e-06
1.31749e-06
0.00119643
7.51803e-07
1.73228e-06
7.48928e-07
0.000992573
8.13529e-07
7.64155e-07
8.66621e-07
1.4329e-06
1.72274e-05
0.00102671
0.0117691
1.45793e-06
2.91175e-06
1.20604e-06
0.00864175
0.0105585
1.59682e-06
0.00679666
1.34085e-05
4.6281e-06
1.33824e-06
1.52758e-06
5.26181e-06
7.64968e-07
1.60583e-06
0.00690859
1.35322e-06
0.00517673
1.01442e-06
0.00789536
1.05673e-06
1.56895e-06
1.29131e-06
9.88168e-07
1.59715e-06
0.0104688
1.01136e-06
1.16468e-06
1.02369e-06
1.21216e-06
1.60064e-06
7.58683e-07
2.24564e-06
4.3559e-06
1.54612e-06
1.71328e-06
3.76681e-06
8.60557e-07
1.14384e-06
1.40853e-06
1.3335e-06
1.00893e-06
0.00897998
1.33267e-06
1.57139e-06
2.68699e-06
1.56182e-06
7.56352e-07
2.05993e-05
7.13511e-06
7.55033e-07
1.51907e-06
7.55313e-07
8.08424e-07
1.33134e-06
9.32339e-07
8.99981e-07
7.55335e-07
0.0025901
1.42407e-06
0.00483109
9.66537e-07
1.25745e-06
0.0135062
0.00410072
0.00154224
1.34398e-06
2.30617e-05
1.56297e-06
5.21259e-05
1.36023e-06
7.48781e-07
1.40447e-06
1.06508e-06
7.62874e-07
0.00227976
4.57189e-05
7.1523e-05
1.53639e-06
1.4085e-06
1.56709e-06
7.56522e-07
1.58315e-06
9.99961e-07
1.61056e-06
1.50788e-06
1.59572e-06
9.91074e-07
7.59059e-07
7.88015e-07
1.11568e-06
9.83005e-07
7.51558e-07
0.00386761
1.27549e-06
1.22053e-06
1.24854e-06
7.5615e-07
1.07823e-06
1.34567e-06
0.00874367
1.45802e-06
7.59132e-07
1.57876e-06
0.00786355
9.81991e-07
1.53244e-06
1.59592e-06
8.29724e-07
1.60521e-06
7.7512e-07
0.00460478
8.3634e-07
7.48542e-07
7.84469e-07
7.64278e-07
7.48155e-07
1.54185e-06
0.00716537
1.59404e-06
7.48564e-07
7.60472e-07
1.57501e-06
7.50849e-07
1.3264e-06
0.0030488
9.79501e-07
1.4518e-06
9.86744e-07
1.60485e-06
1.13885e-06
2.36759e-06
1.09498e-06
1.62556e-06
1.01921e-06
7.78802e-07
4.36817e-06
2.47245e-06
7.74398e-07
1.27469e-06
0.00227783
0.000134079
0.0104043
2.22263e-06
7.57111e-07
0.0103749
0.00340376
7.57502e-07
1.67719e-06
4.23932e-05
2.35573e-06
0.0206317
1.28692e-05
8.68983e-07
0.0112859
1.49258e-06
8.51364e-07
7.52454e-07
7.44646e-07
0.0016623
1.6652e-06
7.68433e-07
1.32333e-06
1.45231e-06
0.00899911
6.04209e-05
3.07463e-06
0.0174919
0.000994028
7.5949e-07
7.67712e-07
0.000321648
1.71086e-06
0.00033388
8.16432e-07
1.66835e-06
1.09645e-06
4.72616e-05
7.97201e-07
2.2697e-06
1.49723e-06
1.43623e-06
7.54933e-07
1.00092e-06
8.23129e-07
8.79844e-07
7.62466e-07
8.17296e-05
1.21638e-06
7.80094e-07
2.22386e-05
2.82136e-06
0.000788836
1.55657e-06
2.75581e-06
0.00144687
1.30789e-06
1.47033e-06
1.90834e-06
0.00611758
0.0157179
6.39465e-05
7.68644e-07
1.59195e-06
1.26787e-06
2.56905e-06
7.52513e-07
1.28868e-06
7.46362e-07
7.54862e-07
7.50799e-07
7.52515e-07
0.00563164
0.000702555
1.70754e-06
0.000229542
0.000652516
1.56163e-06
7.05687e-06
1.55014e-06
7.52227e-07
1.69942e-06
0.00634121
1.37424e-06
1.43094e-06
1.2869e-06
7.53508e-07
1.36838e-06
0.00733714
1.18642e-06
9.03074e-07
7.73957e-07
0.0130642
2.06412e-05
0.010234
1.13632e-06
1.4451e-06
8.93286e-07
0.000202618
8.53388e-06
1.26039e-06
7.53862e-07
7.5587e-07
8.26794e-07
1.53433e-06
9.04381e-07
1.33714e-06
2.85738e-06
8.02679e-07
2.55198e-05
7.56573e-07
1.14252e-06
1.13597e-06
7.52442e-07
7.57834e-07
8.06972e-07
9.87422e-07
2.00495e-06
1.32091e-06
2.31326e-06
8.2001e-07
1.64916e-06
8.14502e-07
1.31603e-06
0.00145432
7.61702e-07
8.17356e-07
7.56208e-07
0.0120966
1.10943e-06
1.59215e-06
8.14309e-07
1.36422e-06
0.000710428
7.79368e-07
0.0120575
7.4742e-07
0.0035179
0.00724704
1.72516e-06
7.73871e-07
1.3235e-06
1.06256e-06
1.13208e-06
1.14491e-06
1.5569e-06
0.000133559
1.1292e-06
1.62991e-06
2.52337e-06
1.30621e-06
1.14107e-06
1.57869e-06
8.9189e-07
2.39399e-06
0.000130076
8.85954e-07
1.32234e-06
3.26584e-06
1.21446e-06
1.19512e-06
1.44211e-06
1.23642e-06
0.00020306
9.47639e-07
0.00585848
2.01084e-06
3.29162e-06
8.24078e-07
8.70423e-07
9.84634e-07
1.55717e-06
7.53253e-07
0.000156217
1.31802e-06
1.05309e-06
1.45288e-06
9.66066e-07
0.000102182
1.62024e-06
1.7167e-06
7.69267e-07
7.67118e-07
7.67649e-07
3.87104e-05
1.22219e-05
1.57381e-06
7.9405e-07
3.72361e-06
9.6481e-07
0.000108601
1.29827e-06
0.00610826
1.43478e-06
6.30841e-06
0.00352604
9.72298e-07
7.53117e-07
0.00675089
7.99951e-07
7.44911e-07
0.0130614
0.0104776
8.49117e-07
1.56664e-06
1.58593e-06
1.0572e-06
2.48394e-06
6.42527e-05
0.000355291
1.09758e-06
1.71426e-06
2.01503e-06
7.55423e-07
0.00194004
8.37975e-07
7.74797e-07
0.0107198
1.58868e-06
0.0155008
1.23556e-06
1.25766e-06
1.31156e-06
1.25434e-06
0.00343268
0.00190009
1.61865e-06
0.00570446
8.26894e-07
7.52398e-07
1.57105e-06
1.71993e-06
1.57342e-06
7.64443e-07
0.00579887
1.63772e-06
1.11352e-06
1.08045e-06
0.00410905
1.71441e-06
1.78749e-05
9.11325e-05
1.25424e-06
1.58677e-06
0.00700914
0.0150448
7.56205e-07
2.36058e-05
1.7072e-06
7.51432e-07
1.38729e-06
1.58666e-06
8.2874e-07
2.16942e-06
1.55857e-06
7.51002e-07
9.91656e-07
0.000177903
0.000134361
0.000110482
0.00188609
1.64358e-06
1.42255e-06
7.53125e-07
0.00127132
2.2991e-05
1.71056e-06
9.86405e-07
8.08329e-07
2.08162e-06
2.21928e-05
1.00691e-06
1.38155e-06
2.89835e-06
1.16807e-06
0.00206691
7.59467e-07
3.79664e-05
0.00189427
7.59024e-07
8.45198e-07
1.24943e-06
1.48061e-06
1.24058e-06
8.54778e-07
7.45763e-07
7.76587e-07
6.3591e-05
7.51857e-07
7.65133e-07
7.66257e-07
8.02665e-07
0.00761664
1.11848e-06
7.71118e-07
1.44754e-06
8.1322e-07
0.00657284
1.4652e-06
0.0016945
7.489e-07
1.57956e-06
3.61068e-06
9.61212e-07
1.6188e-06
1.07171e-06
1.5661e-06
1.43781e-06
7.91361e-07
1.57031e-06
2.63271e-06
1.12884e-06
7.50214e-07
8.02501e-07
1.41911e-06
1.42799e-06
7.7398e-07
1.10138e-06
1.23224e-06
7.4699e-07
7.55332e-07
1.25188e-06
1.18565e-06
1.58848e-06
1.56719e-06
0.00148437
1.06124e-06
1.57483e-06
0.00101312
0.0080647
0.0115836
0.000140285
0.00601234
1.58659e-06
2.07995e-06
7.52465e-07
7.50563e-07
1.24652e-06
7.72516e-07
1.6742e-06
7.54765e-07
0.000287169
1.36622e-06
7.85276e-07
7.50404e-07
1.19873e-06
1.80436e-06
1.31423e-06
0.00472365
0.00257164
1.09333e-06
1.06403e-06
7.53289e-07
0.00452653
1.01685e-06
0.0115257
7.59628e-07
3.53006e-06
7.72622e-07
7.84696e-07
1.71369e-06
0.00019182
0.00126767
1.01538e-06
9.53048e-05
1.08412e-06
0.00743533
0.00701356
8.16008e-07
5.51925e-06
9.35929e-07
8.21743e-07
1.57942e-06
1.22801e-06
7.46878e-07
7.54139e-07
0.00382933
7.56663e-07
1.4665e-06
7.52741e-07
2.28958e-06
1.57536e-06
0.0118037
1.56394e-06
7.92669e-07
9.2938e-07
8.63063e-07
7.88184e-07
7.4481e-07
1.19546e-06
7.50301e-07
1.6227e-06
7.52088e-07
1.32174e-06
0.00636361
1.38754e-06
2.79163e-06
1.6169e-06
7.55117e-07
8.27125e-07
1.15817e-06
9.87579e-07
0.000170403
0.000156608
2.35699e-06
0.0114461
7.96688e-07
1.23737e-06
1.07949e-06
1.49359e-06
1.20615e-06
1.4096e-06
1.3916e-06
1.16197e-06
1.34287e-06
1.54525e-06
7.86007e-07
1.4484e-06
1.43537e-06
7.98255e-07
9.31685e-07
0.0148487
7.44424e-07
7.89544e-07
1.12952e-06
2.13165e-06
8.6346e-07
8.09231e-07
1.49012e-06
8.08218e-07
2.19385e-06
1.15328e-06
0.00822305
1.57432e-06
1.10184e-06
1.39191e-06
1.56615e-06
7.69946e-07
1.48435e-06
0.00267074
5.89531e-06
7.74299e-07
1.22762e-05
8.39238e-07
1.18477e-06
1.56752e-06
1.00559e-06
7.60145e-07
0.0103073
1.1835e-06
0.000218525
1.32177e-06
7.57943e-07
1.8461e-06
0.000253088
1.35533e-06
1.16863e-06
0.00756541
0.000565506
2.8346e-06
0.000164103
1.01344e-06
8.12417e-07
7.50078e-07
7.73666e-07
1.38609e-05
8.52716e-07
0.00012642
0.00148812
1.54668e-06
7.59221e-07
1.08677e-06
7.64551e-07
5.59942e-05
0.00843557
0.000271264
1.22798e-06
7.86922e-07
0.00980776
0.00482714
0.00503279
1.24409e-06
0.00258173
0.0074324
1.53285e-06
0.00583723
7.84919e-07
2.35654e-06
1.25184e-06
7.66647e-07
7.97025e-07
3.86571e-06
7.48228e-07
0.00391865
1.64804e-06
7.48646e-07
7.65218e-07
7.59134e-07
1.6086e-06
0.000750712
0.000197782
0.000112193
1.63374e-06
0.00117286
1.22077e-06
1.37097e-06
1.28241e-06
1.35442e-06
7.51093e-07
1.08038e-06
7.63318e-07
8.08443e-07
1.12478e-06
1.11789e-06
9.54844e-06
7.49766e-07
1.54278e-06
9.11502e-05
0.00698957
1.35372e-05
8.92471e-07
0.00924707
2.30627e-06
2.62632e-06
1.21566e-06
5.44332e-05
1.31027e-06
1.64127e-06
2.89638e-06
2.82384e-06
6.96359e-06
0.00261954
0.00783432
7.61157e-07
0.00920372
1.0966e-06
2.88288e-06
2.35496e-06
7.45017e-07
7.47094e-07
7.60391e-07
7.48409e-07
0.0146335
1.50124e-06
2.13439e-05
8.70179e-07
9.17565e-07
1.50673e-06
7.79054e-07
1.23531e-06
7.48784e-07
8.03948e-07
1.54176e-06
7.5663e-07
7.48087e-07
4.64112e-05
1.14641e-06
1.94709e-06
7.56019e-07
9.42152e-07
7.73533e-07
0.000108006
1.55678e-06
1.28761e-06
9.43594e-07
7.62496e-07
1.85987e-06
3.13031e-06
1.35929e-06
3.69274e-06
0.00655295
1.53449e-06
1.96293e-06
2.46815e-05
1.24536e-06
7.3536e-06
1.18036e-06
1.8157e-06
1.65722e-06
0.000165482
0.00625819
2.14442e-06
0.0130296
7.74067e-07
1.18899e-06
0.00259224
1.10123e-06
0.000268143
0.0096228
1.80245e-06
1.29674e-06
1.05729e-06
9.35265e-07
0.0086796
7.74441e-07
1.57671e-06
1.55751e-06
7.80806e-07
7.73306e-07
1.27032e-06
1.42807e-06
7.91869e-07
7.63388e-07
1.6251e-06
9.53646e-05
7.80302e-07
0.000729128
1.58231e-06
1.1416e-06
7.602e-07
5.90197e-05
0.0087573
7.81983e-07
1.62502e-06
5.77623e-05
1.58379e-06
0.000141197
7.69632e-07
7.57993e-07
1.09744e-06
1.28594e-06
1.58776e-06
1.30978e-06
7.58134e-07
0.01151
1.111e-06
4.31526e-06
0.000730818
1.14259e-06
1.15752e-06
8.78288e-07
0.000155442
8.02005e-07
1.49125e-06
0.0126964
2.18887e-06
1.23816e-06
7.44372e-07
0.00501165
1.19529e-06
1.23665e-06
1.58995e-06
5.63245e-05
1.34719e-06
1.18229e-06
7.52292e-07
1.08785e-06
1.47197e-06
1.60409e-06
0.000351503
1.03217e-06
1.2564e-06
1.18292e-06
0.0113144
7.64848e-07
7.68122e-07
8.52028e-07
1.84602e-06
7.51642e-07
1.52878e-06
7.65768e-07
8.39688e-07
5.15552e-06
1.00123e-06
7.52572e-07
7.60733e-07
1.44301e-06
7.59265e-07
8.50517e-07
8.42779e-07
7.64341e-07
7.5103e-07
0.00015431
7.62999e-07
1.28789e-06
1.27413e-06
1.35463e-06
8.68804e-05
1.84393e-06
7.52908e-07
1.28003e-06
3.04896e-06
2.92075e-06
0.000104023
7.59373e-07
1.655e-06
2.41173e-06
0.000435682
7.64851e-07
7.61592e-05
9.57697e-07
1.08248e-06
7.50467e-07
1.42272e-06
2.25958e-06
1.06645e-06
1.92563e-06
2.36447e-05
9.99031e-07
9.78015e-07
1.52089e-06
7.6356e-07
0.00878578
8.76497e-07
8.82816e-07
0.00221294
8.89205e-07
8.40347e-07
0.0089312
7.67278e-07
1.42408e-06
7.59084e-07
7.76743e-07
7.36459e-06
1.11005e-06
7.96721e-07
8.31756e-07
1.83169e-06
1.19487e-06
0.000449017
4.08161e-05
4.35278e-06
9.36138e-07
1.23096e-06
1.4008e-06
1.57738e-06
0.0115782
0.0104647
0.00117386
1.34641e-06
1.97469e-06
1.41304e-06
1.53762e-06
0.000159832
1.46388e-06
1.29928e-06
1.00721e-06
1.72552e-06
9.96686e-07
1.41602e-06
1.26689e-06
1.29906e-06
0.000242035
7.54915e-07
1.40258e-06
0.00378222
1.10424e-06
1.11753e-06
7.92212e-07
7.86917e-07
0.0124471
7.96077e-07
1.53601e-06
9.98249e-07
1.47179e-06
1.42578e-06
1.28671e-06
1.97542e-06
0.0107129
7.63386e-07
7.82822e-07
2.28356e-06
6.03629e-06
1.5219e-06
0.00932952
0.000275005
0.0112006
7.72938e-07
1.04925e-06
1.1506e-06
0.00190879
1.49807e-06
1.18425e-06
9.01074e-07
1.59824e-06
0.00337912
1.24018e-06
1.28602e-06
4.44172e-06
0.000454783
1.08e-06
7.48303e-07
0.0109616
8.46103e-07
0.000973461
1.36536e-06
7.54833e-07
9.59886e-07
7.51858e-07
8.07225e-07
1.24088e-06
1.49577e-06
7.56207e-07
9.96375e-07
1.09525e-06
0.000434432
1.38035e-06
0.000161225
0.00704776
5.5046e-05
7.58674e-07
0.000103086
1.70433e-06
7.60666e-07
0.00140093
9.20472e-07
1.56983e-06
1.92483e-06
1.37049e-06
0.00974999
3.68309e-06
1.4693e-06
7.47266e-07
1.24666e-06
1.56318e-06
2.52014e-06
2.3752e-06
2.75514e-06
1.09896e-06
0.0106856
7.87415e-07
1.15284e-06
1.91538e-06
2.04925e-06
1.21237e-06
1.51754e-06
7.83582e-07
6.53591e-06
0.000166711
1.17985e-06
1.3727e-06
0.00129711
1.0634e-06
1.1469e-06
7.53282e-07
2.05205e-06
1.01136e-06
1.74145e-06
7.48762e-07
3.44572e-06
8.31452e-07
1.37055e-06
1.23303e-06
0.000128512
2.78619e-06
7.53524e-07
9.82314e-07
7.31773e-07
1.9306e-06
9.35867e-07
1.22497e-06
7.72891e-07
2.24644e-06
7.61592e-07
1.20494e-06
7.55298e-07
2.46105e-06
1.15894e-06
9.37392e-05
1.54336e-06
7.7484e-07
1.42033e-06
1.3646e-06
1.0389e-06
5.09416e-05
4.04692e-05
0.0061497
0.000100018
7.6938e-07
3.57783e-06
0.00047233
7.58705e-07
1.81605e-06
8.36108e-07
7.736e-07
1.0038e-06
2.01203e-06
2.69726e-06
8.20258e-07
2.03014e-06
1.17118e-06
0.00533722
1.18786e-06
7.87205e-07
0.00800089
1.80595e-06
1.39141e-06
1.43855e-06
0.000289716
8.68711e-07
1.75741e-06
1.39486e-06
1.07432e-06
7.50447e-07
8.21637e-07
1.61333e-06
0.00410843
1.59983e-06
0.0118197
9.20175e-07
2.04148e-06
7.64441e-07
7.49178e-07
1.1753e-05
9.15145e-05
1.5961e-06
2.86371e-06
1.45952e-05
1.27631e-06
1.26669e-05
1.12984e-06
7.83478e-07
7.64994e-07
7.63408e-07
0.00025279
1.95626e-06
7.59782e-07
1.5917e-06
2.64102e-06
0.00651954
1.57043e-06
2.58725e-06
9.37383e-07
5.29147e-06
7.62921e-07
1.23405e-06
8.68502e-07
1.62477e-06
1.67426e-06
0.000428389
1.34135e-05
9.79305e-07
8.98276e-07
9.26138e-06
7.63575e-07
0.00712664
0.00873991
1.09266e-06
9.89171e-07
7.36566e-07
1.56778e-06
0.0108719
1.29851e-06
7.98248e-05
1.28386e-06
1.55655e-06
1.42234e-06
7.74545e-07
9.85447e-07
0.00885538
0.00620157
7.48303e-07
9.04976e-07
2.6019e-06
0.000460243
7.64053e-07
7.76301e-06
1.55627e-06
9.98987e-07
0.00064238
0.000189588
1.0035e-06
6.26329e-06
0.000231973
8.18928e-07
1.53104e-06
5.20843e-06
7.58198e-07
7.53475e-07
7.29981e-05
7.48239e-07
0.000164509
7.11581e-07
7.50064e-07
6.60279e-06
7.54345e-07
1.79656e-06
0.000118857
7.61864e-07
7.6224e-07
7.61503e-07
6.074e-06
8.02298e-07
7.46067e-07
1.34791e-06
0.000125724
5.24166e-05
8.49074e-07
4.65833e-06
0.0100474
1.23988e-06
9.95195e-06
8.08264e-07
2.66737e-06
4.4682e-05
0.00834446
0.00244126
1.87832e-06
0.000216158
7.61364e-07
1.63192e-06
1.06292e-06
9.72071e-07
0.00348564
1.16456e-06
8.82949e-05
7.74244e-07
7.64523e-07
7.45626e-07
1.31953e-06
0.0127429
1.2521e-06
5.78289e-05
0.00689355
1.56162e-06
7.63063e-07
0.0022943
7.5624e-07
1.31788e-06
8.20892e-05
1.46181e-06
1.12911e-06
7.49431e-07
0.0152476
1.1077e-06
1.2674e-06
6.73113e-05
2.11544e-06
7.48181e-07
0.00903809
1.59897e-06
0.00704821
3.80983e-06
8.268e-07
1.22683e-06
1.21735e-06
0.014836
0.00247528
3.5191e-06
1.569e-06
1.38005e-06
9.29635e-07
1.5698e-06
0.0102278
1.34257e-06
0.00407079
9.22224e-07
1.17429e-06
1.37184e-06
1.48449e-05
1.90281e-06
0.00200875
1.33981e-06
1.14067e-06
0.00132683
1.06739e-06
9.77463e-07
8.35354e-07
1.35586e-06
1.41836e-06
1.51233e-06
0.00458976
1.44471e-06
1.50582e-06
1.28887e-06
7.613e-07
7.59006e-07
8.42979e-05
7.48236e-07
0.00884598
9.49196e-07
5.47812e-06
7.6478e-07
1.45316e-06
7.82319e-07
1.47617e-06
1.00855e-06
1.22807e-06
1.17081e-06
1.39512e-06
0.000247362
1.43478e-06
1.68657e-06
1.06713e-06
1.65351e-06
7.53369e-07
0.00225158
2.34619e-06
7.55995e-07
1.26416e-06
1.40027e-05
2.34859e-05
7.55981e-07
2.86365e-05
1.69127e-05
2.21994e-06
1.26668e-06
0.000199181
8.70674e-07
1.33049e-06
8.03729e-07
7.76283e-07
1.11673e-06
8.17665e-07
1.08681e-06
7.51804e-07
7.5436e-07
0.000275048
1.56126e-06
1.27527e-06
1.66102e-06
0.0106737
7.82822e-07
1.10543e-06
1.98888e-06
7.48508e-07
8.21693e-07
1.52857e-06
3.29359e-05
1.44121e-06
3.77315e-06
1.21698e-06
7.48102e-07
1.413e-06
7.49045e-07
7.83261e-07
5.89741e-05
7.71862e-07
1.38409e-06
0.00227153
0.000404997
1.39179e-06
1.44151e-06
2.07235e-06
1.06299e-05
1.23312e-06
2.56617e-06
2.09587e-06
1.61507e-06
7.68731e-07
9.09385e-07
1.75717e-06
1.072e-06
1.61035e-06
8.63649e-07
5.91149e-05
9.57569e-06
5.72701e-06
1.32519e-06
0.00856731
1.40912e-06
1.34454e-06
0.00137093
5.47088e-05
1.22874e-06
7.5591e-07
0.00879721
1.74276e-05
0.00795916
1.43932e-06
7.44983e-07
7.58404e-07
1.42624e-06
7.58463e-07
0.00766908
0.0135285
1.44961e-06
7.6749e-07
1.29896e-06
0.00844802
6.04563e-06
1.37271e-06
7.88904e-07
0.00645682
7.65236e-07
1.49351e-06
0.00705445
1.44064e-05
0.00667978
0.000183834
0.00682355
9.36108e-07
1.5709e-06
8.7212e-07
1.82866e-06
0.0086261
1.48051e-06
9.36164e-07
7.52766e-07
1.41393e-06
0.00683277
8.32892e-07
1.37494e-06
1.43371e-06
0.00712601
5.73755e-05
1.52157e-06
2.61881e-06
1.32821e-06
4.62679e-06
9.21335e-07
4.03137e-06
1.55861e-06
4.88089e-05
1.43545e-06
1.50362e-06
0.0067501
1.06823e-06
1.17674e-06
0.0100755
1.54376e-06
7.53916e-07
7.76843e-07
2.35661e-06
1.10581e-06
9.14921e-07
1.25205e-06
7.47438e-07
8.42085e-07
2.72776e-06
1.28353e-06
0.00871191
7.56742e-06
1.99576e-06
1.08456e-06
0.000559199
7.53152e-07
7.75651e-07
1.44895e-06
1.19604e-06
7.51189e-07
9.15258e-06
3.71484e-06
0.000644484
1.30172e-06
3.75058e-06
7.47385e-07
0.000109955
2.5858e-06
0.00913442
2.25621e-06
7.48128e-07
7.83661e-07
0.00536273
1.15999e-06
1.22491e-06
8.96611e-07
7.62092e-07
0.000642432
8.13816e-07
1.30776e-05
1.55361e-06
7.78943e-07
0.00676383
0.000185859
7.49629e-06
1.30038e-06
1.64578e-06
1.53253e-06
0.000544688
7.77762e-07
7.819e-07
2.38937e-06
0.0102624
7.82329e-07
8.10986e-07
7.61504e-07
7.64658e-07
1.27433e-06
9.16261e-07
1.09323e-06
9.63036e-07
5.08879e-06
8.29836e-05
8.28535e-07
1.30404e-06
7.48502e-07
7.83281e-07
0.0107395
1.48481e-06
1.53204e-06
0.000157394
0.00626397
4.8801e-05
1.3797e-06
0.0130528
9.56125e-07
1.57752e-06
1.55523e-06
6.78409e-06
0.00125344
1.44185e-06
8.47385e-07
0.00699456
0.000791503
7.78444e-07
7.82275e-07
1.54664e-06
1.35365e-06
1.55246e-06
0.00015223
0.000180759
1.95177e-06
1.27469e-06
5.8269e-06
7.6929e-07
1.59709e-05
1.5821e-06
0.00204017
7.73429e-07
7.60853e-07
7.77919e-07
7.74015e-07
2.79095e-06
4.4423e-05
7.82519e-07
1.43674e-06
7.7249e-07
1.22413e-06
1.46654e-06
1.77885e-06
0.0013664
7.96648e-07
1.50103e-06
1.47619e-06
1.42542e-06
0.0155799
1.30196e-06
1.55486e-06
7.76885e-07
7.48734e-07
1.58964e-06
1.99856e-06
1.18121e-06
1.79951e-06
5.90531e-05
9.53517e-07
7.80594e-07
0.000100864
7.65721e-07
7.88141e-07
0.00847572
7.84733e-07
8.1301e-06
7.943e-07
1.61502e-06
1.31587e-06
7.57515e-07
1.28985e-06
1.25877e-06
7.53036e-07
0.00361617
9.3569e-06
8.09663e-07
7.61534e-07
1.7272e-06
1.22589e-06
7.65121e-07
0.000889721
7.52384e-07
2.22108e-06
1.65964e-06
0.0012256
2.26384e-06
7.79554e-07
1.78104e-06
1.60995e-06
1.14899e-06
0.00560281
1.55145e-06
7.46148e-07
4.28934e-05
2.12979e-06
1.4249e-06
1.47912e-06
5.92821e-06
9.67203e-07
1.46443e-06
7.78346e-07
1.67973e-06
0.000161159
8.41193e-07
1.05618e-06
0.0140593
1.52077e-06
5.75954e-05
8.27083e-05
7.44594e-07
5.52725e-05
1.55367e-06
1.17405e-06
1.56842e-06
8.21812e-06
1.57984e-06
7.50339e-07
1.40595e-06
0.00589979
1.42439e-06
1.54491e-06
3.30403e-06
9.9067e-07
1.38496e-06
0.00687987
7.61563e-07
1.51479e-06
1.53028e-06
1.29162e-06
1.15108e-06
4.26542e-06
1.52421e-06
1.56131e-06
1.5635e-06
0.000127182
8.45143e-07
7.60933e-07
4.60405e-05
8.47714e-07
0.00231037
9.91159e-07
7.44281e-07
0.00238289
9.26493e-07
1.99916e-06
7.44457e-07
7.77744e-07
7.78589e-07
1.15888e-06
7.61106e-07
8.42147e-07
0.010609
1.25616e-06
1.7693e-06
1.36792e-06
0.0066612
0.000108275
1.11632e-06
0.000299451
1.53742e-06
7.60396e-07
1.43372e-06
1.52647e-06
7.6406e-05
0.000206268
7.60478e-07
1.75541e-06
1.46252e-06
1.00868e-06
1.15e-06
2.44875e-06
0.00887892
7.86393e-07
0.000466148
1.56039e-06
3.68984e-06
0.000212483
1.47457e-06
7.61691e-07
1.51986e-06
2.44119e-06
1.60929e-06
7.49001e-07
1.24344e-06
4.52598e-05
0.00317362
7.96437e-06
0.00250962
1.60065e-06
0.00259181
7.7909e-07
1.58103e-06
1.38369e-06
0.00323376
7.71936e-07
7.67286e-07
1.60778e-06
7.75784e-07
7.64438e-07
1.92085e-05
7.53687e-07
3.14937e-06
1.77078e-06
1.6027e-06
1.633e-06
2.48699e-05
1.40744e-06
1.40823e-06
1.54013e-06
8.15804e-05
3.64402e-06
0.000540381
1.14417e-06
9.83676e-07
1.06187e-06
0.0109371
7.63567e-07
7.50386e-07
9.23267e-07
0.00743775
8.03518e-06
1.30667e-06
0.0023573
7.5277e-07
7.62401e-07
2.68051e-06
0.00901431
1.25496e-06
4.47824e-05
1.50392e-06
0.00814649
1.05817e-06
1.17105e-06
2.55639e-06
0.00912378
1.33181e-06
1.01465e-06
9.83413e-07
1.44329e-06
7.96333e-07
1.20906e-06
1.30516e-06
0.0078836
0.000173434
1.41032e-06
1.15511e-06
1.97472e-06
7.81136e-06
1.53359e-06
1.42861e-06
7.52651e-07
1.94958e-06
7.61937e-07
3.33115e-05
1.5664e-06
7.65951e-07
1.29697e-06
1.92496e-06
0.00285189
0.0118443
0.000103797
0.00660849
2.40992e-06
0.000142769
0.0113561
2.26707e-06
0.000576291
1.62259e-06
1.971e-06
1.32127e-06
2.07159e-06
2.60522e-06
7.53146e-07
3.01882e-06
0.00672356
7.95946e-06
6.35478e-05
0.000450776
7.74836e-07
7.93131e-07
7.68142e-07
1.49708e-06
1.61577e-06
2.08104e-05
7.53204e-07
0.0114288
1.5118e-06
1.41871e-06
1.15263e-06
8.18784e-05
1.65992e-06
2.28858e-06
1.19155e-06
0.000283725
1.07072e-05
7.51142e-07
1.57859e-06
0.00091897
2.18136e-06
3.87567e-06
9.91095e-07
9.79892e-07
3.78704e-06
9.42744e-06
0.000551315
4.02954e-05
0.000132004
2.3808e-06
0.00150124
2.27226e-06
7.58962e-07
1.42096e-06
7.5882e-07
7.47562e-07
1.86314e-06
7.50017e-07
1.67396e-06
1.62714e-06
0.00151132
0.000128858
7.51477e-07
7.79625e-07
7.80312e-07
2.34677e-06
1.61819e-06
9.02459e-07
7.68804e-07
5.50925e-05
0.00904179
2.2399e-06
9.10944e-07
1.95771e-06
1.19825e-05
8.32407e-07
7.44349e-07
1.90729e-06
1.11621e-06
1.40716e-06
1.33877e-06
2.88566e-06
4.60002e-05
1.45789e-06
9.72286e-07
9.22201e-07
2.2856e-06
0.0022543
7.82648e-07
8.80506e-07
1.38039e-06
7.69002e-07
2.02753e-06
2.70759e-06
0.00688739
7.58548e-07
6.04086e-06
1.24332e-06
0.00775347
0.000135969
0.00401711
1.50968e-06
1.2271e-06
1.48575e-06
1.41151e-06
8.65157e-07
2.9122e-06
1.29757e-06
2.40114e-06
0.000303251
9.1753e-07
7.6677e-07
1.05839e-06
1.27467e-06
0.00293639
6.21035e-05
7.75221e-07
7.64593e-07
0.000466
1.49713e-06
7.76993e-07
1.9569e-06
9.18854e-07
7.61798e-07
1.30044e-06
1.88196e-06
6.617e-06
7.50717e-07
0.0136408
0.0143513
0.00124453
0.0070021
1.59586e-06
2.08388e-06
1.34484e-06
9.29968e-07
1.36896e-06
7.65998e-07
0.00776249
1.3729e-06
4.34042e-06
9.14709e-07
1.16045e-06
5.99488e-05
1.58798e-06
7.51598e-07
1.49813e-06
8.10522e-07
1.88661e-05
1.59965e-06
1.1865e-06
1.77523e-06
1.04115e-06
1.61928e-06
3.87434e-06
0.0113393
2.00316e-06
0.00200307
1.30217e-06
1.3438e-06
2.09297e-06
8.04413e-05
1.36823e-06
0.000561109
2.11634e-06
3.04319e-06
2.61788e-06
0.0103477
1.51324e-06
0.00611137
0.000194738
1.69625e-05
0.0103797
9.54999e-07
8.07316e-07
7.65893e-07
9.13645e-07
1.47268e-06
1.42387e-06
1.41727e-06
0.00910096
3.44466e-06
8.15095e-07
1.5447e-06
7.46313e-07
1.49857e-06
1.49478e-06
3.72867e-05
0.00401214
1.62194e-06
2.30962e-06
4.04442e-06
0.00697213
1.57393e-06
0.00350742
3.02807e-05
2.87555e-06
1.22074e-05
1.95303e-05
7.52215e-07
1.51573e-06
7.63178e-07
1.0572e-06
8.86059e-07
7.67636e-07
7.49564e-07
7.73793e-07
3.96897e-06
1.72335e-06
1.00395e-06
1.94048e-06
0.0131969
7.79528e-07
0.000805968
1.27221e-06
1.53393e-06
1.14111e-05
1.46356e-06
7.55893e-07
3.29675e-05
1.52089e-06
1.54255e-06
0.00934795
7.47755e-07
1.53373e-06
8.82682e-06
1.58469e-06
0.00655172
0.00712441
0.00546282
1.40573e-06
9.8371e-07
1.17282e-06
7.55074e-07
1.32443e-06
7.11323e-05
7.52903e-07
1.6521e-06
1.51104e-06
9.0205e-07
0.00714427
0.000317728
1.27822e-06
1.55481e-06
1.18577e-06
7.55208e-07
1.79971e-06
7.49931e-07
4.14707e-05
1.04801e-06
0.0043177
0.000402502
0.0052968
1.39122e-06
0.00107483
4.01866e-06
6.95812e-07
2.84794e-06
9.61916e-07
1.06991e-06
6.20192e-05
4.90998e-05
0.00173966
1.55999e-06
1.54604e-06
0.00973712
1.25717e-06
7.67981e-07
1.06958e-06
1.56959e-06
7.50629e-07
1.62168e-06
1.88414e-06
8.99536e-07
7.7382e-07
7.6539e-07
8.76237e-05
1.59932e-06
2.05318e-06
0.00601746
2.08445e-06
8.5945e-07
1.20952e-06
3.03997e-06
7.48042e-07
9.2857e-07
1.62227e-06
0.00850856
7.81047e-07
0.00419813
2.04605e-05
1.61737e-06
7.74797e-07
1.50482e-06
0.000585644
8.36389e-07
1.66238e-06
1.22845e-06
0.00360611
0.000153868
1.0119e-06
1.09785e-05
7.6553e-07
0.0130351
7.63338e-07
1.29688e-06
0.000988659
0.00623303
7.55941e-07
1.08223e-06
3.72612e-05
1.51383e-06
0.00729212
1.20159e-06
0.0138912
1.35883e-06
1.60732e-06
1.75019e-06
1.4868e-05
0.00297755
1.53715e-06
7.59539e-07
8.95375e-07
0.0134207
1.22033e-06
7.50051e-07
0.00986348
1.56418e-06
2.46626e-06
3.47293e-06
1.43816e-06
1.79269e-06
0.00955867
4.14052e-05
8.99394e-07
0.00111476
1.17112e-06
0.00251315
0.000301553
1.46442e-06
8.38278e-07
1.26941e-06
8.59394e-07
1.1132e-06
1.44719e-06
7.86167e-07
2.31969e-06
1.49117e-06
1.33207e-06
7.53966e-07
7.48507e-07
1.34834e-06
0.00896857
8.86243e-07
1.05445e-06
0.00927567
0.00683402
1.32639e-06
1.3263e-06
1.41848e-06
1.50688e-06
7.50699e-07
1.46014e-06
1.52821e-06
0.00541027
0.0120342
1.4143e-06
7.64698e-07
7.76049e-07
8.84621e-07
8.14763e-07
7.70659e-07
7.65831e-07
1.25991e-06
2.20016e-06
8.81321e-07
0.00840202
1.3845e-06
2.89455e-06
7.49917e-07
2.37652e-06
1.79209e-06
0.00597344
2.73516e-06
7.49934e-07
1.41284e-06
1.75246e-06
1.69951e-06
1.0083e-06
7.50835e-07
0.00608016
1.45429e-06
1.05142e-06
0.0138839
1.34764e-06
0.00744294
7.55168e-07
1.58768e-06
1.47876e-06
7.51157e-07
4.24012e-06
0.00907462
0.0126099
0.0123681
0.000429774
0.00776379
2.34627e-06
8.62828e-07
1.71607e-06
8.97726e-07
1.62922e-06
0.00625092
0.00660977
7.97546e-07
1.602e-06
5.38063e-06
6.9774e-05
1.2405e-06
2.68742e-06
7.74394e-06
1.31781e-06
1.67627e-06
5.5896e-06
0.000482415
1.32302e-06
0.00428375
1.25824e-06
9.03234e-07
7.6797e-07
1.66905e-06
1.31994e-06
9.22323e-07
2.10182e-06
1.69032e-06
0.000707901
1.39287e-06
9.6331e-07
1.03362e-06
1.04364e-06
0.012442
1.62221e-06
1.16647e-06
0.0127115
1.55968e-06
1.3446e-06
0.00456241
7.43867e-07
2.62939e-06
0.00786884
5.08201e-05
1.95073e-06
1.53783e-06
1.63259e-06
9.42989e-07
1.30178e-06
0.0020498
7.53333e-07
2.64437e-06
7.9535e-07
1.43132e-06