/*--------------------------------*- C++ -*----------------------------------*\
| =========                 |                                                 |
| \\      /  F ield         | OpenFOAM: The Open Source CFD Toolbox           |
|  \\    /   O peration     | Version:  v2012                                 |
|   \\  /    A nd           | Website:  www.openfoam.com                      |
|    \\/     M anipulation  |                                                 |
\*---------------------------------------------------------------------------*/
FoamFile
{
    version     2.0;
    format      ascii;
    class       volScalarField;
    location    "50";
    object      epsilon_0;
}
// * * * * * * * * * * * * * * * * * * * * * * * * * * * * * * * * * * * * * //

dimensions      [0 2 -3 0 0 0 0];


internalField   nonuniform List<scalar> 
18598
(
4.20182e-05
7.50562e-05
1.0152e-06
2.05201e-06
1.02437e-06
1.76999e-06
0.00488727
1.07073e-06
8.49855e-07
9.67126e-07
7.48665e-07
7.78352e-07
1.40762e-06
0.00872791
7.45713e-06
7.77833e-07
1.31843e-06
0.000183824
0.00013378
7.66518e-07
0.000212111
7.51275e-07
2.57504e-06
7.44847e-07
1.10113e-06
0.000149064
7.66903e-07
0.0103839
1.3666e-06
7.54631e-07
5.92184e-05
8.43638e-07
9.72301e-05
7.48877e-07
7.57245e-05
7.60323e-07
1.422e-06
1.09821e-06
1.73236e-06
0.000122725
0.0106741
7.68199e-07
9.97389e-07
1.70352e-06
7.62071e-07
0.00899943
7.79669e-07
0.000129628
1.56881e-06
1.19629e-06
3.64773e-06
1.19674e-06
8.55025e-07
1.5973e-06
1.59072e-06
7.61107e-07
0.000150557
0.00586642
0.00675738
1.71154e-05
1.2782e-06
8.64507e-07
8.52343e-07
1.50693e-05
1.56591e-06
1.00225e-06
1.53701e-06
1.00334e-06
8.94271e-07
9.41786e-06
1.21795e-06
1.18545e-06
1.62643e-06
1.37232e-06
8.9907e-07
7.71126e-07
1.27417e-06
8.71607e-07
8.77709e-07
1.63656e-06
1.1931e-06
1.19338e-06
7.91545e-07
9.13876e-07
1.54126e-06
1.62176e-06
7.70107e-07
0.000212363
0.000348478
0.0110456
1.41589e-06
1.09874e-06
1.2862e-06
1.44949e-06
1.19734e-06
1.58899e-06
1.56838e-06
8.49967e-06
9.57631e-07
1.44206e-06
0.000122266
0.000157215
1.68245e-06
0.000220452
0.0056053
1.68038e-06
3.84394e-06
4.39293e-06
7.45191e-07
0.00879455
7.72926e-07
1.19393e-06
2.58811e-06
1.54432e-06
8.41136e-07
0.00017737
1.61526e-06
1.03191e-06
7.70823e-07
1.04558e-06
0.000163697
7.56766e-07
8.18561e-05
9.93836e-07
1.19606e-06
0.00430241
0.000139918
1.03966e-06
7.68561e-07
0.0124381
7.57468e-07
0.00973648
1.53342e-06
1.71451e-06
1.70006e-06
1.6815e-06
7.66629e-07
7.5764e-07
7.5768e-07
0.00647456
1.62742e-06
7.52763e-07
1.31604e-06
0.0108277
2.55789e-06
7.50892e-07
0.00513236
8.91608e-07
7.70358e-05
7.52785e-07
8.36279e-07
0.000509653
7.63545e-07
0.00497326
7.98053e-07
1.44139e-06
7.63419e-07
8.09151e-07
1.24821e-06
1.07333e-06
1.66801e-06
9.82694e-06
3.74903e-06
1.44051e-06
0.00529077
4.30651e-06
3.14998e-06
1.52369e-06
8.08049e-07
1.35815e-06
1.87014e-06
1.48626e-06
0.000152794
3.13933e-06
0.00015261
1.37734e-05
1.29726e-06
1.81834e-05
1.03391e-06
1.02331e-06
0.0159514
7.48199e-07
1.46653e-06
0.0123167
1.57266e-06
1.10267e-06
0.00641701
9.27628e-07
2.20777e-06
1.94954e-06
2.58745e-06
1.6239e-06
1.05326e-06
0.000106075
1.31677e-06
3.09388e-06
7.48749e-07
9.5505e-07
7.52781e-07
0.000725785
2.22515e-06
1.66467e-06
7.62277e-07
1.32927e-06
4.12101e-06
1.51119e-06
7.49863e-07
1.40488e-06
7.6238e-07
7.59586e-05
1.50649e-06
7.48426e-07
1.09346e-06
2.75779e-06
0.000314976
1.72522e-06
0.000419587
3.45435e-05
2.46419e-06
8.22331e-07
7.594e-06
3.63397e-06
0.0109217
7.4787e-07
1.09708e-06
9.4182e-07
1.56092e-06
0.0100324
1.45024e-06
7.52857e-07
2.37145e-06
0.00214955
1.23524e-06
9.64492e-07
7.5414e-07
1.58331e-06
7.50038e-07
2.12575e-06
7.49962e-07
1.3185e-06
9.98225e-07
1.56588e-06
2.20251e-06
1.47602e-06
1.0667e-06
1.5545e-06
1.33868e-06
1.20755e-06
1.07075e-06
7.49873e-07
0.00593594
8.32304e-07
0.000515569
1.94009e-06
1.28217e-06
1.20397e-06
1.03682e-06
8.4986e-06
8.34369e-07
0.00923683
7.51444e-07
9.79457e-07
2.05895e-06
8.28236e-07
1.03272e-06
3.91168e-05
7.56017e-07
9.87603e-07
7.5727e-07
3.02742e-05
7.56197e-07
1.21646e-06
0.00878606
7.57049e-07
1.63215e-06
0.00689289
9.49575e-07
0.000193355
0.000183344
4.10843e-06
4.08e-06
0.00172853
8.4715e-07
1.40527e-06
3.7224e-05
1.26702e-05
0.000185373
1.56989e-06
0.000337262
0.00137426
7.51585e-07
2.53309e-05
7.48679e-07
1.13491e-06
0.0120077
1.60699e-06
2.34635e-06
1.13945e-06
7.49764e-07
0.000177487
9.56834e-07
9.74525e-07
0.0013827
1.5471e-06
7.53696e-07
2.41663e-06
1.21126e-06
8.88429e-07
8.02757e-07
7.5246e-07
1.20384e-06
1.04847e-06
3.54588e-06
7.50328e-07
1.08816e-06
0.00025145
1.39864e-06
8.26601e-07
2.11756e-05
1.04419e-06
9.38551e-07
9.624e-07
7.55897e-07
1.06829e-06
7.64959e-07
2.37918e-05
1.69502e-06
1.38426e-06
1.08565e-06
8.30483e-05
7.4499e-07
0.0100986
8.77761e-07
0.00749815
7.44744e-07
0.0086014
1.46999e-06
1.31748e-06
0.00119621
7.51967e-07
1.73226e-06
7.49092e-07
0.000995081
8.13459e-07
7.64324e-07
8.66768e-07
1.4329e-06
1.72396e-05
0.00102744
0.0117659
1.45794e-06
2.91181e-06
1.20603e-06
0.00865697
0.0105559
1.59682e-06
0.00679276
1.4948e-05
4.62855e-06
1.33824e-06
1.52761e-06
5.4502e-06
7.65133e-07
1.60584e-06
0.00691495
1.35322e-06
0.00516729
1.01442e-06
0.0078938
1.05673e-06
1.56895e-06
1.2913e-06
9.8817e-07
1.59715e-06
0.0104659
1.01136e-06
1.16472e-06
1.02369e-06
1.21216e-06
1.60064e-06
7.58874e-07
2.24542e-06
4.35637e-06
1.54612e-06
1.71328e-06
3.76695e-06
8.60541e-07
1.14388e-06
1.40868e-06
1.3335e-06
1.00893e-06
0.00898842
1.33267e-06
1.5714e-06
2.6862e-06
1.56182e-06
7.565e-07
2.06489e-05
7.1352e-06
7.55135e-07
1.51907e-06
7.55519e-07
8.08603e-07
1.33133e-06
9.32349e-07
9.76812e-07
7.55543e-07
0.00259016
1.42407e-06
0.0048331
9.66563e-07
1.25745e-06
0.0135051
0.00410029
0.00153605
1.34397e-06
2.29311e-05
1.56302e-06
5.17606e-05
1.36068e-06
7.48977e-07
1.40447e-06
1.06508e-06
7.63008e-07
0.00228147
4.569e-05
7.10502e-05
1.5364e-06
1.40849e-06
1.56709e-06
7.56729e-07
1.58315e-06
9.99959e-07
1.61055e-06
1.50785e-06
1.59572e-06
9.91074e-07
7.59134e-07
7.88006e-07
1.11593e-06
9.82918e-07
7.51733e-07
0.00386513
1.27555e-06
1.22053e-06
1.24853e-06
7.56365e-07
1.07823e-06
1.34559e-06
0.00874026
1.45802e-06
7.59332e-07
1.57876e-06
0.00785994
9.81983e-07
1.53244e-06
1.59592e-06
8.29741e-07
1.60521e-06
7.7528e-07
0.00460274
8.36548e-07
7.48695e-07
7.84484e-07
7.64466e-07
7.48316e-07
1.54186e-06
0.00717156
1.59405e-06
7.48785e-07
7.60664e-07
1.57501e-06
7.51008e-07
1.32639e-06
0.00304715
9.79504e-07
1.45181e-06
9.86935e-07
1.60485e-06
1.13885e-06
2.36761e-06
1.095e-06
1.62556e-06
1.01921e-06
7.7899e-07
4.33531e-06
2.47242e-06
7.74591e-07
1.27484e-06
0.00227652
0.000134415
0.0104011
2.2226e-06
7.57288e-07
0.0103715
0.00340211
7.5769e-07
1.67718e-06
4.1745e-05
2.35568e-06
0.0206405
1.28677e-05
8.68961e-07
0.0112855
1.49258e-06
8.51436e-07
7.52642e-07
7.44831e-07
0.00166064
1.66519e-06
7.68673e-07
1.32332e-06
1.45231e-06
0.00900584
6.01032e-05
3.05872e-06
0.0175054
0.000987989
7.59693e-07
7.67912e-07
0.000331149
1.71086e-06
0.000339858
8.16374e-07
1.66835e-06
1.09645e-06
4.68021e-05
7.9718e-07
2.26965e-06
1.49723e-06
1.43623e-06
7.55139e-07
1.00092e-06
8.23097e-07
8.79854e-07
7.62631e-07
8.17395e-05
1.21638e-06
7.80328e-07
2.23203e-05
2.82143e-06
0.000788161
1.55657e-06
2.75581e-06
0.00144688
1.30788e-06
1.47032e-06
1.9036e-06
0.00611624
0.0157178
6.33192e-05
7.68655e-07
1.59195e-06
1.26787e-06
2.56889e-06
7.52726e-07
1.28864e-06
7.4653e-07
7.55071e-07
7.51038e-07
7.52742e-07
0.0056309
0.000709042
1.70753e-06
0.000224636
0.000658287
1.56163e-06
7.05712e-06
1.55014e-06
7.52412e-07
1.6995e-06
0.00634676
1.37423e-06
1.43096e-06
1.2869e-06
7.53751e-07
1.36837e-06
0.00733946
1.18641e-06
9.03107e-07
7.73962e-07
0.0130625
2.11241e-05
0.0102317
1.13633e-06
1.4451e-06
8.93393e-07
0.0002025
8.46766e-06
1.26039e-06
7.53977e-07
7.56068e-07
8.26802e-07
1.53433e-06
9.04691e-07
1.33714e-06
2.85745e-06
8.02613e-07
2.4612e-05
7.56748e-07
1.14254e-06
1.13597e-06
7.52576e-07
7.57995e-07
8.06911e-07
9.87421e-07
2.00103e-06
1.32084e-06
2.31324e-06
8.1997e-07
1.64922e-06
8.14454e-07
1.31412e-06
0.00144697
7.61864e-07
8.17323e-07
7.56385e-07
0.0121079
1.10943e-06
1.59216e-06
8.14253e-07
1.36398e-06
0.000715355
7.79606e-07
0.0120551
7.47635e-07
0.00351764
0.00724404
1.72516e-06
7.73893e-07
1.3235e-06
1.06256e-06
1.13209e-06
1.14494e-06
1.55691e-06
0.000133842
1.12921e-06
1.62992e-06
2.56292e-06
1.3062e-06
1.14109e-06
1.57869e-06
8.91764e-07
2.39379e-06
0.00012908
8.85968e-07
1.32234e-06
3.25929e-06
1.21446e-06
1.19512e-06
1.44212e-06
1.23642e-06
0.00020327
9.47651e-07
0.00585659
2.01205e-06
3.60092e-06
8.24064e-07
8.71229e-07
9.84631e-07
1.55717e-06
7.534e-07
0.000154933
1.31802e-06
1.05308e-06
1.45288e-06
9.66066e-07
0.000102071
1.62024e-06
1.71668e-06
7.69287e-07
7.6731e-07
7.67855e-07
4.00497e-05
1.1769e-05
1.57381e-06
7.94248e-07
3.74173e-06
9.66431e-07
0.000111456
1.29826e-06
0.00611263
1.43478e-06
6.08812e-06
0.00352986
9.72307e-07
7.53341e-07
0.00674689
8.00156e-07
7.45087e-07
0.0130603
0.0104738
8.48675e-07
1.56664e-06
1.58593e-06
1.0572e-06
2.48394e-06
6.39347e-05
0.000354749
1.09757e-06
1.71426e-06
2.01626e-06
7.55575e-07
0.00193904
8.37969e-07
7.74982e-07
0.0107172
1.58868e-06
0.0155005
1.23557e-06
1.25766e-06
1.31156e-06
1.25432e-06
0.00343213
0.00190005
1.61865e-06
0.00570332
8.26889e-07
7.52513e-07
1.57105e-06
1.71993e-06
1.57342e-06
7.6462e-07
0.0057977
1.63772e-06
1.11352e-06
1.08045e-06
0.00410733
1.7144e-06
1.78229e-05
9.08466e-05
1.25424e-06
1.58677e-06
0.00700398
0.0150443
7.56465e-07
2.36809e-05
1.70719e-06
7.51606e-07
1.3873e-06
1.58666e-06
8.28931e-07
2.16944e-06
1.55857e-06
7.51176e-07
9.91638e-07
0.000177442
0.000132337
0.000107975
0.00188144
1.64358e-06
1.42195e-06
7.53327e-07
0.00127299
2.29129e-05
1.71055e-06
9.86392e-07
8.08252e-07
2.0815e-06
2.21442e-05
1.00691e-06
1.38155e-06
2.90139e-06
1.16807e-06
0.00206462
7.59652e-07
3.83013e-05
0.00189084
7.59217e-07
8.45203e-07
1.24943e-06
1.48061e-06
1.24058e-06
8.54743e-07
7.45969e-07
7.76605e-07
6.28668e-05
7.52038e-07
7.65344e-07
7.66483e-07
8.02643e-07
0.00761018
1.11848e-06
7.71317e-07
1.44754e-06
8.13163e-07
0.00657157
1.46515e-06
0.00169046
7.49091e-07
1.57956e-06
3.49888e-06
9.61201e-07
1.6188e-06
1.0717e-06
1.5661e-06
1.43782e-06
7.91614e-07
1.57032e-06
2.63889e-06
1.12885e-06
7.50408e-07
8.02427e-07
1.41911e-06
1.42799e-06
7.74138e-07
1.10141e-06
1.23224e-06
7.47232e-07
7.55547e-07
1.25189e-06
1.18565e-06
1.58848e-06
1.56719e-06
0.0014835
1.06124e-06
1.57483e-06
0.00101171
0.00805729
0.011579
0.000137373
0.00601422
1.5866e-06
2.07985e-06
7.52641e-07
7.50774e-07
1.24652e-06
7.72521e-07
1.6742e-06
7.54908e-07
0.000281973
1.36622e-06
7.85611e-07
7.50552e-07
1.19873e-06
1.80436e-06
1.31423e-06
0.00472193
0.00257107
1.09331e-06
1.06403e-06
7.53443e-07
0.00452275
1.01685e-06
0.0115227
7.59813e-07
3.53026e-06
7.72755e-07
7.84949e-07
1.71369e-06
0.000187764
0.00126948
1.01537e-06
9.52847e-05
1.0841e-06
0.00742917
0.00700824
8.15959e-07
5.5189e-06
9.35932e-07
8.21722e-07
1.57942e-06
1.22802e-06
7.47032e-07
7.5428e-07
0.00382758
7.5687e-07
1.4665e-06
7.52935e-07
2.32797e-06
1.57535e-06
0.011801
1.56394e-06
7.92715e-07
9.29388e-07
8.63042e-07
7.88194e-07
7.44987e-07
1.19547e-06
7.50481e-07
1.6227e-06
7.5227e-07
1.32167e-06
0.00635814
1.38755e-06
2.75378e-06
1.6169e-06
7.5532e-07
8.2731e-07
1.15819e-06
9.87572e-07
0.000171123
0.000157427
2.357e-06
0.0114411
7.96882e-07
1.23746e-06
1.07949e-06
1.49359e-06
1.20615e-06
1.40961e-06
1.3916e-06
1.16197e-06
1.34275e-06
1.54525e-06
7.86046e-07
1.44833e-06
1.43538e-06
7.98366e-07
9.31702e-07
0.014848
7.44611e-07
7.89609e-07
1.12954e-06
2.13166e-06
8.63645e-07
8.09504e-07
1.49017e-06
8.08423e-07
2.17905e-06
1.1533e-06
0.00823001
1.57432e-06
1.10185e-06
1.39191e-06
1.56615e-06
7.7001e-07
1.48439e-06
0.00266757
5.89618e-06
7.74533e-07
1.22957e-05
8.39337e-07
1.18477e-06
1.56752e-06
1.00559e-06
7.60229e-07
0.0103041
1.1835e-06
0.000224632
1.32182e-06
7.58274e-07
1.84652e-06
0.00025439
1.35533e-06
1.16862e-06
0.00756193
0.000558916
2.83466e-06
0.000163857
1.01343e-06
8.1266e-07
7.50263e-07
7.73659e-07
1.3616e-05
8.52691e-07
0.00012662
0.00148245
1.54669e-06
7.59415e-07
1.08675e-06
7.64756e-07
5.52557e-05
0.00843698
0.000281057
1.22802e-06
7.87024e-07
0.00980686
0.0048257
0.00502795
1.24409e-06
0.00258054
0.00742582
1.53285e-06
0.00584111
7.85043e-07
2.35655e-06
1.25183e-06
7.66815e-07
7.96952e-07
3.8658e-06
7.48471e-07
0.00391928
1.64808e-06
7.48821e-07
7.6541e-07
7.59326e-07
1.6086e-06
0.000752085
0.000197002
0.000114088
1.63374e-06
0.00117536
1.22081e-06
1.37098e-06
1.28238e-06
1.35442e-06
7.51251e-07
1.08038e-06
7.63508e-07
8.0859e-07
1.12479e-06
1.11785e-06
9.54821e-06
7.49953e-07
1.54278e-06
9.0479e-05
0.00698476
1.42695e-05
8.92453e-07
0.00925463
2.3061e-06
2.62638e-06
1.21566e-06
5.43584e-05
1.31027e-06
1.64128e-06
2.89644e-06
2.79605e-06
7.22849e-06
0.00261918
0.00783586
7.61408e-07
0.00921186
1.09661e-06
2.88294e-06
2.35496e-06
7.4521e-07
7.473e-07
7.60581e-07
7.48589e-07
0.0146461
1.50123e-06
2.08998e-05
8.70142e-07
9.17535e-07
1.50673e-06
7.79159e-07
1.23541e-06
7.48981e-07
8.03992e-07
1.54176e-06
7.56847e-07
7.48284e-07
4.55224e-05
1.1464e-06
1.94753e-06
7.56151e-07
9.42171e-07
7.73584e-07
0.000107266
1.55679e-06
1.28761e-06
9.43605e-07
7.6266e-07
1.81642e-06
3.1304e-06
1.35929e-06
3.69283e-06
0.00655159
1.53452e-06
1.96301e-06
2.48772e-05
1.24536e-06
7.35346e-06
1.18036e-06
1.8157e-06
1.65722e-06
0.000168755
0.00626361
2.14442e-06
0.0130281
7.7421e-07
1.18899e-06
0.00259238
1.10123e-06
0.000268697
0.00961908
1.80257e-06
1.2967e-06
1.05729e-06
9.35248e-07
0.00868942
7.7464e-07
1.57671e-06
1.55753e-06
7.80991e-07
7.73471e-07
1.27032e-06
1.42807e-06
7.91827e-07
7.63536e-07
1.6251e-06
9.53996e-05
7.80457e-07
0.000731938
1.58231e-06
1.14161e-06
7.60405e-07
5.90135e-05
0.00875243
7.81957e-07
1.62509e-06
5.77066e-05
1.58379e-06
0.000142653
7.69636e-07
7.58118e-07
1.09744e-06
1.28591e-06
1.58776e-06
1.30977e-06
7.58314e-07
0.011506
1.111e-06
4.31535e-06
0.000729447
1.14258e-06
1.15752e-06
8.78286e-07
0.000156508
8.02095e-07
1.49125e-06
0.0126944
2.18872e-06
1.23826e-06
7.44559e-07
0.00500736
1.19529e-06
1.23665e-06
1.58995e-06
5.53455e-05
1.34718e-06
1.18229e-06
7.52502e-07
1.08784e-06
1.47196e-06
1.60409e-06
0.000347172
1.0321e-06
1.25639e-06
1.18291e-06
0.011311
7.65045e-07
7.68316e-07
8.52009e-07
1.84599e-06
7.51851e-07
1.52878e-06
7.65919e-07
8.39686e-07
5.50863e-06
1.00123e-06
7.52787e-07
7.60772e-07
1.44302e-06
7.59465e-07
8.50535e-07
8.42817e-07
7.64822e-07
7.51216e-07
0.000156141
7.63285e-07
1.28789e-06
1.27412e-06
1.35463e-06
8.63357e-05
1.84389e-06
7.53135e-07
1.28003e-06
3.049e-06
2.92082e-06
0.000105827
7.59525e-07
1.6551e-06
2.41149e-06
0.000436207
7.65132e-07
7.57137e-05
9.57687e-07
1.08256e-06
7.50665e-07
1.42272e-06
2.25938e-06
1.06645e-06
1.92511e-06
2.41281e-05
9.9903e-07
9.78015e-07
1.52089e-06
7.63717e-07
0.00879297
8.7649e-07
8.83172e-07
0.00221341
8.89215e-07
8.40387e-07
0.00894012
7.67426e-07
1.42408e-06
7.59244e-07
7.76971e-07
7.36459e-06
1.11005e-06
7.96725e-07
8.31464e-07
1.85059e-06
1.19487e-06
0.00045886
4.22263e-05
4.35286e-06
9.36135e-07
1.23096e-06
1.40072e-06
1.57738e-06
0.011574
0.0104619
0.00117613
1.34642e-06
1.97469e-06
1.41304e-06
1.55388e-06
0.000159529
1.46388e-06
1.29923e-06
1.0072e-06
1.72552e-06
9.9668e-07
1.41596e-06
1.26688e-06
1.29906e-06
0.000240209
7.55069e-07
1.40258e-06
0.00378367
1.10424e-06
1.11753e-06
7.92223e-07
7.87116e-07
0.0124455
7.96257e-07
1.53601e-06
9.98244e-07
1.47179e-06
1.42578e-06
1.2867e-06
1.97535e-06
0.0107088
7.63577e-07
7.83008e-07
2.28336e-06
6.03702e-06
1.52189e-06
0.00933503
0.000270079
0.0111985
7.73028e-07
1.0491e-06
1.1506e-06
0.00190594
1.49808e-06
1.18428e-06
9.01056e-07
1.59824e-06
0.00337326
1.24018e-06
1.28602e-06
4.35518e-06
0.000450934
1.08e-06
7.4847e-07
0.0109568
8.4612e-07
0.000985232
1.36536e-06
7.55048e-07
9.59879e-07
7.51954e-07
8.07154e-07
1.24088e-06
1.49577e-06
7.56539e-07
9.96374e-07
1.09525e-06
0.000434909
1.38035e-06
0.000163908
0.00704358
5.60814e-05
7.58861e-07
0.000102647
1.70431e-06
7.60879e-07
0.00139389
9.20472e-07
1.5699e-06
1.92485e-06
1.3705e-06
0.0097471
3.76389e-06
1.4693e-06
7.4749e-07
1.24666e-06
1.56323e-06
2.51948e-06
2.3742e-06
2.7552e-06
1.09897e-06
0.0106846
7.87404e-07
1.15284e-06
1.9154e-06
2.04675e-06
1.21237e-06
1.51754e-06
7.83735e-07
6.53594e-06
0.000163034
1.17988e-06
1.3727e-06
0.00129674
1.06341e-06
1.1469e-06
7.53437e-07
2.05194e-06
1.01137e-06
1.74184e-06
7.48933e-07
3.43538e-06
8.31802e-07
1.37049e-06
1.23303e-06
0.000128253
2.78619e-06
7.53671e-07
9.82317e-07
5.93176e-07
1.93061e-06
9.35869e-07
1.22497e-06
7.73074e-07
2.24646e-06
7.61794e-07
1.20495e-06
7.55507e-07
2.46061e-06
1.15894e-06
9.21539e-05
1.5434e-06
7.75078e-07
1.42033e-06
1.3646e-06
1.0389e-06
5.02692e-05
4.01001e-05
0.00614959
9.86563e-05
7.69592e-07
3.57807e-06
0.000472298
7.58891e-07
1.81605e-06
8.36066e-07
7.73842e-07
1.0038e-06
2.01197e-06
2.69729e-06
8.20331e-07
2.03015e-06
1.17118e-06
0.00533757
1.18786e-06
7.87404e-07
0.00799713
1.80601e-06
1.39141e-06
1.43855e-06
0.000289461
8.687e-07
1.75742e-06
1.39486e-06
1.0743e-06
7.50661e-07
8.21825e-07
1.61333e-06
0.00410769
1.59983e-06
0.0118115
9.20176e-07
2.04772e-06
7.6457e-07
7.49364e-07
1.23292e-05
9.1007e-05
1.59617e-06
2.86455e-06
1.53489e-05
1.27631e-06
1.30344e-05
1.12986e-06
7.83646e-07
7.65202e-07
7.63704e-07
0.000249717
1.95619e-06
7.59878e-07
1.5917e-06
2.64108e-06
0.00651456
1.57043e-06
2.58721e-06
9.37383e-07
5.47382e-06
7.63054e-07
1.23405e-06
8.68219e-07
1.62478e-06
1.67427e-06
0.000430134
1.31836e-05
9.79296e-07
8.98275e-07
9.26039e-06
7.63743e-07
0.00713433
0.0087463
1.09266e-06
9.89172e-07
7.38325e-07
1.56778e-06
0.010867
1.2985e-06
7.90625e-05
1.28385e-06
1.55655e-06
1.42235e-06
7.74765e-07
9.85476e-07
0.00885591
0.00620601
7.48495e-07
9.04959e-07
2.60195e-06
0.000459265
7.64266e-07
7.76227e-06
1.55625e-06
9.98982e-07
0.000638541
0.000189854
1.0035e-06
6.21316e-06
0.000239597
8.18884e-07
1.53104e-06
5.2087e-06
7.58369e-07
7.53556e-07
7.46349e-05
7.48431e-07
0.000165528
7.12083e-07
7.50246e-07
6.47243e-06
7.54482e-07
1.79714e-06
0.000119634
7.62058e-07
7.62446e-07
7.61716e-07
6.04005e-06
8.0249e-07
7.46274e-07
1.34834e-06
0.000132164
5.23198e-05
8.49583e-07
4.65841e-06
0.0100421
1.23988e-06
9.71834e-06
8.08438e-07
2.66743e-06
4.3506e-05
0.00833993
0.00244192
1.87833e-06
0.000218367
7.61512e-07
1.63193e-06
1.0629e-06
9.72076e-07
0.00347966
1.16457e-06
8.83495e-05
7.74262e-07
7.64752e-07
7.45837e-07
1.31953e-06
0.0127407
1.25222e-06
5.83101e-05
0.0068898
1.56162e-06
7.63269e-07
0.00229887
7.56573e-07
1.31788e-06
8.20805e-05
1.46181e-06
1.12911e-06
7.49668e-07
0.0152473
1.1077e-06
1.26739e-06
6.71219e-05
2.11542e-06
7.4838e-07
0.00904453
1.59897e-06
0.00704445
4.67292e-06
8.26901e-07
1.22683e-06
1.21735e-06
0.0148352
0.00247461
3.51922e-06
1.569e-06
1.38004e-06
9.29645e-07
1.56987e-06
0.0102242
1.34257e-06
0.00406841
9.22232e-07
1.17429e-06
1.37184e-06
1.49137e-05
1.90282e-06
0.00200563
1.33971e-06
1.14071e-06
0.00131769
1.0674e-06
9.77468e-07
8.35386e-07
1.3558e-06
1.41837e-06
1.51232e-06
0.00459154
1.44471e-06
1.50582e-06
1.28888e-06
7.61506e-07
7.59199e-07
8.28897e-05
7.48436e-07
0.00885708
9.49189e-07
5.52913e-06
7.64984e-07
1.45316e-06
7.82521e-07
1.47617e-06
1.00854e-06
1.22807e-06
1.17081e-06
1.39512e-06
0.000249357
1.43479e-06
1.68668e-06
1.0678e-06
1.65351e-06
7.53641e-07
0.00225197
2.33195e-06
7.56198e-07
1.26416e-06
1.42898e-05
2.37641e-05
7.56037e-07
2.9028e-05
1.69556e-05
2.22108e-06
1.26691e-06
0.000198738
8.7071e-07
1.33048e-06
8.03899e-07
7.76421e-07
1.11675e-06
8.17805e-07
1.08681e-06
7.519e-07
7.54502e-07
0.000275409
1.56126e-06
1.27526e-06
1.66102e-06
0.0106713
7.83081e-07
1.10543e-06
1.98881e-06
7.48708e-07
8.21918e-07
1.52862e-06
3.28805e-05
1.44123e-06
3.725e-06
1.21699e-06
7.48296e-07
1.413e-06
7.49286e-07
7.83483e-07
5.88603e-05
7.71975e-07
1.38409e-06
0.00227564
0.00039902
1.39179e-06
1.44152e-06
2.07235e-06
1.08764e-05
1.23312e-06
2.56623e-06
2.09585e-06
1.61507e-06
7.6874e-07
9.09376e-07
1.75715e-06
1.07198e-06
1.61032e-06
8.63618e-07
5.88958e-05
9.57561e-06
5.65626e-06
1.32667e-06
0.00857605
1.40912e-06
1.34454e-06
0.00137249
5.50287e-05
1.22874e-06
7.56032e-07
0.00879475
1.71653e-05
0.00795746
1.43932e-06
7.45154e-07
7.58497e-07
1.42624e-06
7.58665e-07
0.00766632
0.0135273
1.44962e-06
7.67668e-07
1.29896e-06
0.00844999
6.04634e-06
1.37271e-06
7.88918e-07
0.0064588
7.65344e-07
1.49351e-06
0.00706142
1.47542e-05
0.00668027
0.000184483
0.00682893
9.35154e-07
1.5709e-06
8.72093e-07
1.82866e-06
0.00862179
1.48051e-06
9.35829e-07
7.52975e-07
1.41393e-06
0.00683983
8.3291e-07
1.38146e-06
1.43372e-06
0.00712207
5.74962e-05
1.52157e-06
2.61886e-06
1.32821e-06
4.59534e-06
9.21349e-07
4.0316e-06
1.55862e-06
4.87168e-05
1.43546e-06
1.50362e-06
0.00675661
1.06823e-06
1.17674e-06
0.010084
1.54376e-06
7.53996e-07
7.76944e-07
2.35635e-06
1.10581e-06
9.14913e-07
1.25205e-06
7.47621e-07
8.42333e-07
2.72782e-06
1.28354e-06
0.0087213
7.63154e-06
1.99576e-06
1.08456e-06
0.000564638
7.53318e-07
7.7564e-07
1.44895e-06
1.19604e-06
7.51369e-07
9.01003e-06
3.71499e-06
0.000649665
1.30171e-06
3.75067e-06
7.47571e-07
0.000117046
2.58586e-06
0.00914375
2.2561e-06
7.48257e-07
7.83798e-07
0.00536237
1.15999e-06
1.22491e-06
8.96591e-07
7.62202e-07
0.000648176
8.13813e-07
1.30522e-05
1.55361e-06
7.79021e-07
0.00676366
0.000186051
7.49626e-06
1.30037e-06
1.64578e-06
1.53253e-06
0.000547058
7.77909e-07
7.82165e-07
2.38935e-06
0.0102569
7.82543e-07
8.10934e-07
7.61699e-07
7.64814e-07
1.27434e-06
9.15594e-07
1.09323e-06
9.63024e-07
5.08894e-06
8.3812e-05
8.2875e-07
1.30404e-06
7.48734e-07
7.83499e-07
0.0107309
1.48481e-06
1.53204e-06
0.000155705
0.00626416
4.98683e-05
1.3797e-06
0.0130526
9.56123e-07
1.57752e-06
1.55523e-06
6.78452e-06
0.00125467
1.44185e-06
8.47411e-07
0.00699329
0.000796313
7.7868e-07
7.823e-07
1.54664e-06
1.35365e-06
1.55246e-06
0.000151081
0.00018043
1.95178e-06
1.27469e-06
5.82698e-06
7.69396e-07
1.56923e-05
1.5821e-06
0.00203918
7.73533e-07
7.61023e-07
7.77953e-07
7.74223e-07
2.79102e-06
4.53957e-05
7.82577e-07
1.43675e-06
7.72346e-07
1.22413e-06
1.46654e-06
1.77698e-06
0.00136804
7.96925e-07
1.50103e-06
1.47619e-06
1.42543e-06
0.0155928
1.30196e-06
1.55486e-06
7.76979e-07
7.48861e-07
1.58964e-06
1.99845e-06
1.18121e-06
1.79952e-06
5.79803e-05
9.53514e-07
7.80719e-07
0.000100759
7.65882e-07
7.88284e-07
0.00847119
7.84963e-07
8.1378e-06
7.94598e-07
1.61502e-06
1.31587e-06
7.57619e-07
1.28984e-06
1.25876e-06
7.53124e-07
0.00362061
9.34213e-06
8.09945e-07
7.61721e-07
1.72522e-06
1.22589e-06
7.6526e-07
0.000888123
7.5256e-07
2.22098e-06
1.65964e-06
0.00121837
2.26461e-06
7.79741e-07
1.78102e-06
1.60996e-06
1.149e-06
0.00560354
1.55145e-06
7.46336e-07
4.43e-05
2.12978e-06
1.4249e-06
1.47912e-06
5.92821e-06
9.67195e-07
1.46442e-06
7.78402e-07
1.73975e-06
0.000160977
8.41213e-07
1.05661e-06
0.0140583
1.52082e-06
5.74905e-05
8.13514e-05
7.44775e-07
5.41418e-05
1.55367e-06
1.17406e-06
1.56843e-06
8.21811e-06
1.57984e-06
7.50551e-07
1.40596e-06
0.00589302
1.4244e-06
1.54492e-06
3.29493e-06
9.90661e-07
1.38496e-06
0.00687644
7.61662e-07
1.51481e-06
1.53028e-06
1.29162e-06
1.15108e-06
4.2655e-06
1.52423e-06
1.56131e-06
1.5635e-06
0.000126868
8.45781e-07
7.61025e-07
4.6395e-05
8.47732e-07
0.00231494
9.91155e-07
7.44467e-07
0.00239005
9.25401e-07
1.99917e-06
7.44641e-07
7.78008e-07
7.78753e-07
1.15888e-06
7.61382e-07
8.42428e-07
0.010604
1.25615e-06
1.76928e-06
1.36792e-06
0.00666655
0.000107784
1.11633e-06
0.000302675
1.53742e-06
7.60605e-07
1.43372e-06
1.52648e-06
7.67374e-05
0.000204324
7.60627e-07
1.75539e-06
1.46253e-06
1.00868e-06
1.15e-06
2.4488e-06
0.00888888
7.86458e-07
0.000465219
1.56039e-06
3.68276e-06
0.000214217
1.47548e-06
7.6194e-07
1.51989e-06
2.44028e-06
1.60929e-06
7.49171e-07
1.24344e-06
4.43013e-05
0.00317131
8.12949e-06
0.00251051
1.60066e-06
0.00259015
7.7935e-07
1.58104e-06
1.38369e-06
0.00323086
7.72029e-07
7.67456e-07
1.60778e-06
7.75989e-07
7.64654e-07
1.90562e-05
7.53845e-07
3.14878e-06
1.77076e-06
1.6027e-06
1.63301e-06
2.48971e-05
1.40745e-06
1.40824e-06
1.54013e-06
8.40513e-05
3.64411e-06
0.000548214
1.14417e-06
9.83674e-07
1.06187e-06
0.010933
7.6362e-07
7.50575e-07
9.23203e-07
0.00743609
8.04863e-06
1.30667e-06
0.00236744
7.52859e-07
7.6255e-07
2.67945e-06
0.00902644
1.25493e-06
4.55024e-05
1.50392e-06
0.00814187
1.05815e-06
1.17105e-06
2.54886e-06
0.0091259
1.33181e-06
1.01464e-06
9.83418e-07
1.44328e-06
7.96328e-07
1.20907e-06
1.30516e-06
0.00788053
0.000173089
1.41032e-06
1.1551e-06
1.97472e-06
7.73495e-06
1.53359e-06
1.42861e-06
7.52795e-07
1.94959e-06
7.62189e-07
3.32879e-05
1.56641e-06
7.65998e-07
1.29697e-06
1.92497e-06
0.00284835
0.0118437
0.000102223
0.00660654
2.40968e-06
0.000142053
0.0113553
2.26708e-06
0.000575134
1.62259e-06
1.97093e-06
1.32127e-06
2.0716e-06
2.60528e-06
7.53304e-07
2.9999e-06
0.00672268
7.84281e-06
6.42199e-05
0.000450402
7.75017e-07
7.93281e-07
7.68392e-07
1.49705e-06
1.61578e-06
2.06174e-05
7.53374e-07
0.011427
1.51179e-06
1.41871e-06
1.15264e-06
8.02975e-05
1.66009e-06
2.28839e-06
1.19156e-06
0.00028401
1.07067e-05
7.51325e-07
1.57859e-06
0.000907728
2.18119e-06
3.87638e-06
9.91098e-07
9.79922e-07
3.77079e-06
9.42714e-06
0.000556789
4.07858e-05
0.00013514
2.38078e-06
0.00149406
2.27225e-06
7.59156e-07
1.42097e-06
7.59007e-07
7.4775e-07
1.89589e-06
7.50204e-07
1.67396e-06
1.62714e-06
0.00150672
0.000128192
7.51648e-07
7.797e-07
7.80394e-07
2.3468e-06
1.61819e-06
9.0245e-07
7.69021e-07
5.50896e-05
0.00905351
2.23988e-06
9.10921e-07
1.95772e-06
1.17509e-05
8.32523e-07
7.44534e-07
1.9073e-06
1.11622e-06
1.40717e-06
1.33877e-06
2.88553e-06
4.59319e-05
1.4579e-06
9.72306e-07
9.222e-07
2.28562e-06
0.00226345
7.82802e-07
8.80499e-07
1.38039e-06
7.69193e-07
2.02751e-06
2.70765e-06
0.00688563
7.58582e-07
6.0241e-06
1.24332e-06
0.00775012
0.000134359
0.00401475
1.50968e-06
1.2271e-06
1.48575e-06
1.41151e-06
8.65131e-07
2.91206e-06
1.29783e-06
2.40116e-06
0.000308253
9.17528e-07
7.66822e-07
1.05839e-06
1.27467e-06
0.00293165
6.1633e-05
7.75426e-07
7.64787e-07
0.000475848
1.49713e-06
7.7702e-07
1.95683e-06
9.18196e-07
7.62071e-07
1.30044e-06
1.88194e-06
6.76199e-06
7.50907e-07
0.0136409
0.0143514
0.00124551
0.00699755
1.59586e-06
2.08385e-06
1.34484e-06
9.29977e-07
1.36896e-06
7.66072e-07
0.00775868
1.3729e-06
4.32382e-06
9.14704e-07
1.16047e-06
6.18063e-05
1.58798e-06
7.51803e-07
1.49812e-06
8.10709e-07
1.89231e-05
1.59965e-06
1.1865e-06
1.77523e-06
1.04115e-06
1.61929e-06
3.858e-06
0.0113354
1.99199e-06
0.00200181
1.30212e-06
1.34381e-06
2.12171e-06
8.07678e-05
1.36823e-06
0.000560458
2.11635e-06
3.0426e-06
2.61794e-06
0.0103465
1.51324e-06
0.00611505
0.000199379
1.70075e-05
0.0103778
9.55013e-07
8.07219e-07
7.66061e-07
9.13635e-07
1.47268e-06
1.42387e-06
1.41728e-06
0.00911109
3.44088e-06
8.15225e-07
1.5447e-06
7.465e-07
1.49857e-06
1.49482e-06
3.67445e-05
0.0040151
1.62194e-06
2.30965e-06
4.23521e-06
0.00697055
1.57393e-06
0.00351066
3.05871e-05
2.87562e-06
1.22049e-05
1.92881e-05
7.524e-07
1.51574e-06
7.63307e-07
1.0572e-06
8.8607e-07
7.67851e-07
7.49753e-07
7.71409e-07
3.95019e-06
1.72072e-06
1.00394e-06
1.9404e-06
0.0131967
7.79526e-07
0.000793124
1.2722e-06
1.53394e-06
1.12514e-05
1.46356e-06
7.5602e-07
3.33272e-05
1.52089e-06
1.54255e-06
0.00934285
7.4795e-07
1.53375e-06
8.80272e-06
1.58469e-06
0.00655187
0.00712901
0.00546551
1.40573e-06
9.83731e-07
1.17282e-06
7.55285e-07
1.32443e-06
6.97585e-05
7.53098e-07
1.65212e-06
1.51105e-06
9.02038e-07
0.00713992
0.000316991
1.27949e-06
1.55481e-06
1.18577e-06
7.554e-07
1.79971e-06
7.50117e-07
4.18e-05
1.04801e-06
0.00431886
0.000404267
0.00529075
1.39121e-06
0.00107409
3.96431e-06
6.74447e-07
2.84802e-06
9.61922e-07
1.0699e-06
6.1358e-05
5.11161e-05
0.00174068
1.55999e-06
1.54597e-06
0.00973514
1.25717e-06
7.68186e-07
1.06958e-06
1.56959e-06
7.50822e-07
1.62168e-06
1.88413e-06
8.99548e-07
7.73961e-07
7.65481e-07
8.79062e-05
1.59932e-06
2.05319e-06
0.00602159
2.08446e-06
8.5972e-07
1.20951e-06
3.04096e-06
7.48219e-07
9.28902e-07
1.62228e-06
0.00851448
7.81122e-07
0.00418997
2.0349e-05
1.61738e-06
7.7496e-07
1.50484e-06
0.000576046
8.36138e-07
1.66237e-06
1.22845e-06
0.00360594
0.000157648
1.0119e-06
1.09502e-05
7.65703e-07
0.0130393
7.6349e-07
1.29688e-06
0.000996514
0.00623643
7.56062e-07
1.08054e-06
3.64367e-05
1.51384e-06
0.00730954
1.2016e-06
0.013891
1.35879e-06
1.60732e-06
1.75022e-06
1.47443e-05
0.00297287
1.53733e-06
7.59709e-07
8.95374e-07
0.013419
1.22033e-06
7.50239e-07
0.00986285
1.56418e-06
2.4663e-06
3.45523e-06
1.43816e-06
1.79269e-06
0.00955781
4.07896e-05
8.99409e-07
0.00110006
1.17114e-06
0.00251182
0.000300906
1.46446e-06
8.38296e-07
1.2694e-06
8.59723e-07
1.1132e-06
1.44719e-06
7.86238e-07
2.31972e-06
1.49118e-06
1.33207e-06
7.54128e-07
7.48643e-07
1.34831e-06
0.00897002
8.86258e-07
1.05444e-06
0.00927048
0.00683727
1.32639e-06
1.3263e-06
1.41849e-06
1.50688e-06
7.50806e-07
1.46014e-06
1.52822e-06
0.00540314
0.0120322
1.4143e-06
7.64836e-07
7.7622e-07
8.84651e-07
8.14909e-07
7.70895e-07
7.65986e-07
1.2599e-06
2.20018e-06
8.81314e-07
0.00840728
1.3845e-06
2.88727e-06
7.50109e-07
2.36572e-06
1.79209e-06
0.00597588
2.73523e-06
7.50125e-07
1.41284e-06
1.75246e-06
1.69951e-06
1.00829e-06
7.51049e-07
0.0060775
1.45429e-06
1.05142e-06
0.0138829
1.34764e-06
0.00743906
7.5537e-07
1.58768e-06
1.4788e-06
7.51435e-07
4.24021e-06
0.0090706
0.0126094
0.0123668
0.000430964
0.00776078
2.34626e-06
8.63139e-07
1.71607e-06
8.97709e-07
1.62923e-06
0.00625183
0.00660833
7.95412e-07
1.602e-06
5.38067e-06
7.00019e-05
1.24049e-06
2.68748e-06
7.74392e-06
1.31781e-06
1.6751e-06
5.58971e-06
0.00048344
1.32302e-06
0.00427982
1.2582e-06
9.03227e-07
7.68004e-07
1.66114e-06
1.31994e-06
9.58939e-07
2.10183e-06
1.69032e-06
0.000710331
1.39287e-06
9.63318e-07
1.03361e-06
1.04364e-06
0.0124392
1.62221e-06
1.16649e-06
0.0127089
1.55968e-06
1.3446e-06
0.00455389
7.44039e-07
2.63004e-06
0.00787194
4.9605e-05
1.95074e-06
1.53784e-06
1.63261e-06
9.43e-07
1.30178e-06
0.00206888
7.5361e-07
2.64442e-06
7.95348e-07
1.43133e-06
7.6805e-07
2.45992e-06
1.15423e-06
1.61497e-06