/*--------------------------------*- C++ -*----------------------------------*\
| =========                 |                                                 |
| \\      /  F ield         | OpenFOAM: The Open Source CFD Toolbox           |
|  \\    /   O peration     | Version:  v2012                                 |
|   \\  /    A nd           | Website:  www.openfoam.com                      |
|    \\/     M anipulation  |                                                 |
\*---------------------------------------------------------------------------*/
FoamFile
{
    version     2.0;
    format      ascii;
    class       volScalarField;
    location    "50";
    object      p;
}
// * * * * * * * * * * * * * * * * * * * * * * * * * * * * * * * * * * * * * //

dimensions      [0 2 -2 0 0 0 0];


internalField   nonuniform List<scalar> 
18598
(
-0.0310738
-0.091186
0.00048489
-0.00769581
0.000569608
-0.015886
-0.0131876
-0.000200989
-0.00233274
0.00083268
-8.10799e-05
-0.00109123
-0.0150151
-0.0470388
-0.0337879
-0.00105148
-0.00653162
-0.00700944
-0.00834402
-6.44729e-07
-0.0059626
-0.000617589
-0.0400497
-0.000931203
-0.00823531
-0.0091236
-0.000705359
-0.0994343
-0.0177017
-0.000346087
-0.033437
-0.00228881
-0.0933439
-7.1405e-05
-0.0154778
-0.000631868
-0.0130941
-0.00819779
-0.03166
0.00187071
-0.0989696
-0.000704397
-0.00494075
-0.0317305
-0.00060645
-0.0473057
-0.000824238
0.00199647
-0.0200052
-0.0100519
-0.0282988
-0.00973272
-0.000215285
0.00108398
-0.0342213
-0.000607899
-0.0157252
-0.101178
-0.0500763
-0.00276112
-0.0122138
-0.0025698
-0.000340579
-0.0756562
-0.0190336
-0.00148058
-0.0242442
-0.00167905
-0.00351137
-0.0415381
-0.00664619
-0.0113885
-0.0339127
-0.01797
-0.0028428
-0.00110296
-0.0121354
-0.000529862
-0.000487015
-0.0413949
-0.00998971
-0.00970546
-0.00097875
-0.00374878
-0.019554
-0.0334341
-0.000824709
-0.00584082
-0.0100046
-0.0546171
-0.0124687
-0.00323848
-0.0137225
-0.0235831
-0.0103089
-0.0347589
-0.0218113
-0.0432599
0.000836374
-0.0168484
-0.0106711
-0.0152706
0.00110821
-0.00534717
-0.014861
-0.0105835
-0.0486573
-0.076779
-3.2047e-05
-0.0272762
-0.00109684
-0.0102604
-0.038185
0.000967427
-0.00218188
-0.00694346
-0.0404339
-0.000364984
-0.00105889
-0.00666302
-0.00853764
1.09294e-05
-0.0123098
-0.004994
-0.0115796
-0.00701697
-0.0156939
-0.00653265
-0.000703062
-0.09114
-1.25587e-05
-0.0748711
-0.000777142
-0.0533866
-0.0326273
-0.0093145
-0.000698306
-0.000222891
-0.000212199
-0.0329544
-0.0415226
-0.00034119
-0.00832019
-0.0777573
-0.0294446
-0.000756374
-0.0139599
-0.00160252
-0.0128892
-0.00033734
-0.00212096
-0.00420474
-0.000953808
-0.094135
0.000143464
-0.0229892
-0.000973309
-0.000501532
-0.0126608
-0.00659949
-0.00983889
-0.0354748
-0.0475121
-0.0149307
-0.117652
0.00255458
-0.0275851
-0.0257912
-0.00105686
-0.0172808
-0.015845
-0.00142438
-0.000256732
-0.00852569
-0.000143294
0.00572772
-0.000809187
0.00643104
-0.00631181
-0.00620046
-0.102039
-6.75556e-05
-0.0230353
-0.0786043
-0.0194306
-0.00347058
-0.0334863
-0.00348617
-0.0319355
0.00432396
-0.0256544
-0.0412175
-0.00685252
-0.00956447
-0.000507687
-0.0262034
-0.000654025
0.00120062
-0.000358861
-0.0134463
-0.0348147
-0.0477455
-0.000415124
-0.000301464
-0.0278544
-0.0254434
-0.000621993
-0.0124675
-0.000447133
-0.0131517
-0.025525
-6.74801e-05
-0.00427773
-0.0785235
-0.00879472
-0.0544346
0.00039107
0.00485311
-0.0263847
-0.000318703
0.00633049
-0.0444823
-0.0507421
-0.00065476
-0.00443858
0.00101775
-0.0214717
-0.0481187
-0.0168949
-0.000316899
-0.0488822
-0.0290213
-0.011633
0.000554227
-0.000341442
-0.0295489
-0.000738193
-0.00764571
-5.80252e-05
-0.00024982
-0.00621522
-0.0191681
-0.0307065
-0.0236755
-0.00639801
-0.0310632
-0.0138929
-0.00660204
-0.00621455
-2.46907e-05
-0.102798
-4.40684e-05
-0.0129973
-0.000142771
-0.0135791
-0.00829752
-0.00698641
0.00514853
-0.00201608
-0.0357881
-3.23865e-05
-0.00029728
0.000660934
-0.000157758
-0.00686781
-0.00380473
-0.000168581
-0.00509342
-0.00058659
-0.00529181
-0.000179783
-0.00684146
0.00431459
-0.000184095
-0.0385659
-0.0701159
-0.00504821
-0.00732541
-0.000139728
-0.00543083
-0.0774032
-0.0930873
-0.000319601
-0.000879408
-0.0116219
-0.0739217
-0.000933923
-0.0253128
-0.0242067
-0.0110382
-0.000538924
-0.00374429
-8.17341e-05
-0.000149721
-0.0909669
-0.0392789
0.00590663
6.75163e-05
-2.06448e-05
-0.00480559
-0.00531937
-0.00353428
-0.0276439
-0.0243191
-0.000567088
0.005974
-0.0114949
-0.00175914
0.000154562
-0.000556382
-0.00677755
-0.00734203
-0.00520696
-1.63018e-05
-0.00431941
-0.0249989
-0.0120571
-0.00105638
-0.00523634
-0.00723244
0.000660357
-0.00511495
-1.04377e-05
-0.00738021
8.55597e-06
0.0049565
-0.0408592
-0.000826691
-0.00446419
-0.0116716
-3.78208e-05
-0.0450309
-0.00161691
-0.101516
-0.000943934
-0.0361165
-0.0164834
-0.00702445
0.00263877
-0.00055185
-0.0306126
-1.19071e-05
-0.000668917
0.000255047
-0.000968832
-0.00105136
-0.0211324
-0.00338939
0.000463844
-0.0702396
-0.0218186
-0.0793244
-0.00866108
0.00576725
-0.078158
-0.0382867
-0.0515534
0.00568461
-0.0256366
-0.0110871
0.000716267
0.00601461
-0.000996616
-0.0390585
-0.0231428
-0.0170776
-0.0175291
-0.00541905
-0.102189
-0.00701567
-0.0329816
-0.00728471
-0.00602734
-0.0167839
-0.0786147
-0.00634012
-0.00315638
-0.00570641
-0.0116422
-0.0386163
-6.57932e-05
-0.00386961
-0.0254318
-0.0198254
-0.0513446
-0.0458178
-0.000245879
-0.00312886
0.000602313
-0.01326
-0.00529339
-0.0249341
-0.0128188
0.00162269
-0.00787865
-0.0280241
-0.000173681
-0.0051993
-0.0377415
-0.000580125
-0.0258833
-0.000521067
6.48085e-05
-0.0107152
0.00114804
0.00482749
-0.000492096
-0.00528051
-0.020687
-0.118281
0.00101381
-0.0129504
-0.0888595
-0.00364809
-0.0103118
-0.0116299
-0.00360476
-0.0129137
-0.00668439
0.000272144
-0.000100168
-0.0201222
-0.00721664
-0.000622955
0.00683438
-0.0905645
-0.00828403
-0.017548
-0.0202747
-0.0323817
-0.00062165
-0.0319921
-0.0060422
-0.0166722
0.00099883
-0.0384317
-0.00603533
-0.000597064
-0.0021775
-0.000367041
-0.00281247
-0.000292608
0.00484573
-0.000170367
-0.00835452
-0.00529649
-0.000586452
-0.006528
-0.000551332
-0.069025
-0.0163887
-0.000678638
-0.0256401
-0.0668173
-0.00337608
-0.0173887
-0.0321995
-0.00195835
-0.0391702
-0.00116475
-0.0114343
-0.000333167
-3.33834e-05
-0.00212035
-0.000702103
-2.21635e-05
-0.0326644
-0.0248059
-0.0189887
-5.91234e-05
-0.00118921
-0.0168449
-2.42555e-05
-0.00751524
-0.0931836
-0.00334816
-0.0217292
-0.000170811
-0.0328074
-0.00726082
-0.0473819
-0.00709443
-0.0408076
-0.00559129
2.91417e-05
4.83271e-05
-0.0281239
1.15751e-05
-1.29261e-05
-0.0972235
-0.00686969
-0.0414808
-0.0334913
-0.000195277
-0.0445638
-0.0969328
-0.00020694
-0.0149513
-0.000911383
-0.0259195
-0.121355
-0.0773763
-0.000407402
-0.100074
-0.023
-0.0024323
-0.000325536
-0.000898148
-0.0318726
-0.0164678
3.00709e-05
-0.00814312
-0.0178103
-0.0260041
-0.00957308
0.000310072
-0.120087
-0.00571757
1.0692e-05
2.34248e-05
-8.93378e-05
-0.0411374
-0.00232664
-0.00065943
-0.0483477
-0.00641321
3.08541e-06
-0.000603841
-0.0270265
-0.0234762
-0.0214834
-1.68815e-05
-0.00623136
-0.00015211
-0.000593825
-0.000689161
-0.0148344
-0.0117316
-0.00122892
-0.00592074
-0.0698714
-0.0931598
-0.0281815
-0.0286288
0.00355916
-0.00622472
-0.0158372
0.000501691
-0.105594
-0.0983086
0.000508306
-0.00154127
-0.0324511
-0.0134319
-0.0121105
-0.000255151
-0.00165167
-0.000751114
-3.50915e-05
-4.57494e-05
-4.8571e-05
-0.103636
-0.00145002
-0.0266053
-0.020443
0.000297641
-0.0195648
-0.0358772
-0.0194395
-0.000301588
-0.00999041
-0.0200843
-0.0157965
-0.01335
-0.0136241
-0.000279237
-0.0157415
-0.0329737
-0.00884057
-0.00261859
-0.00159866
-0.0829848
0.00383146
-0.0461088
-0.00130124
-0.0178264
-0.0010377
-0.000137013
-0.0019909
-0.0132366
-0.00048291
-9.16313e-07
-0.00269769
-0.0248555
-0.00226871
-0.00743539
-0.0690787
-0.00234217
-0.000228801
-0.000576249
0.000421565
-0.00698164
-0.000529197
-0.000203279
-0.00239457
-0.00512793
-0.00194019
-0.000699811
-0.00472201
-3.85972e-05
-0.0109877
-4.25091e-05
-0.00163275
-0.0174183
-0.000682715
-0.00253812
-0.000588799
-0.114787
-0.0069718
-0.0374841
-0.00248128
0.00121443
-0.00249323
-0.00119176
-0.0771861
-5.91009e-06
0.00812455
-0.0709981
-0.0526549
-0.00159014
-0.0123183
-0.00642728
0.000522496
-0.000476341
-0.0317081
-0.00714041
-0.00123219
-0.0415385
-0.00218943
-0.00790388
-0.000333569
-0.0175125
-0.00120708
-0.0132118
-0.00501431
-0.0018379
-0.0119844
-0.00863739
-0.0115588
-0.0114854
-0.0209474
-0.0122757
-0.000993093
0.000587279
-0.0932395
0.00616377
0.011407
-0.00262459
-0.00141624
-0.00490708
-0.0175605
-0.000322852
-0.00389328
-0.0144856
-0.00776169
-0.0148432
-0.00548333
-0.0139961
-0.0406771
-0.0295056
-0.00154914
-0.000702275
-0.000225527
0.00503974
0.000444429
-0.0184704
-0.000495283
0.0101617
-0.00170403
-0.011176
-0.00701948
-0.0169327
-0.0225226
0.00224855
-0.00156741
-0.00534271
-3.19983e-05
-0.0441862
-0.000696395
-2.49253e-05
-0.0903042
-0.0473996
-0.000820397
-0.0352265
-0.0368386
-0.00782245
-0.0406894
-0.007717
-0.0312842
-0.00658536
-0.0141486
0.00539471
-0.000565886
-0.00963456
-6.19062e-05
-0.00161843
-0.00465761
-0.0175959
-0.0986588
-0.01224
-0.0130509
-0.0143264
-0.0088077
-0.0013647
-0.024563
-0.0287706
-0.106395
-0.00200552
-0.000589355
-0.0314952
-0.0148016
-0.0190387
-1.55083e-05
-0.106298
-0.0168187
-0.00876695
-0.00637832
-0.000274536
-0.0283952
-0.0037418
-0.00941675
-0.0110229
-0.0374447
-0.0418078
-0.0947842
-0.000479536
-0.00634098
-0.0273946
-0.000659417
-0.0122394
-0.0374901
-0.000496797
-0.050057
-0.0310669
-0.000672897
-0.00357759
-0.00686823
-0.00441058
-0.00778444
-0.0112494
-0.0425837
0.00109914
-0.000303256
0.00380732
-0.00691572
-0.0337122
-0.00454105
-0.00183853
-0.0085942
-0.00600629
-0.000786285
-0.0117409
0.00336004
-0.00776662
-0.035869
-0.000657802
-0.0104172
0.00718905
-0.000644644
-0.000199215
-0.00574077
-0.0201216
-0.0127585
-0.00126281
-0.000747057
-0.0012723
-0.0092137
-0.000292814
-0.0011947
-0.000292519
-0.000608717
-0.0171651
-0.00661505
-0.000576089
-0.0231025
-0.00193064
-0.107259
0.00024517
0.00555532
-9.39895e-05
-0.0320729
0.00208618
-0.00531089
-0.0353002
-0.00628635
-0.0197978
-0.0207819
-0.00138024
-0.0358557
0.00227689
0.00144606
-0.000261304
-0.00178576
-0.0203548
-0.0201077
-1.68196e-06
0.00148342
-0.012542
-0.000719393
-0.000529788
-0.0107801
-0.00611364
-0.0293403
-0.0316446
0.00403161
-0.00779421
-0.0291054
-0.0351778
-0.0150639
-0.0595731
-0.00927528
-0.0164847
-0.0191352
-0.00912742
-0.000317455
-0.000865587
-0.012648
-0.00122991
-0.0484072
-1.95905e-05
-0.0101231
-0.0142063
0.0001018
-0.000150099
-0.0105487
-0.0595844
-0.0114673
-0.00999868
-0.0142912
0.000500196
-0.00690459
-0.000105842
-0.0113778
-0.00645054
-0.071037
-0.000662289
-0.0265585
-2.27102e-05
6.78519e-05
-0.0489092
-0.011081
-0.000330367
-0.00119888
-0.0159508
0.000604717
-0.043884
-0.0393422
0.000161138
-0.0176803
-0.00289799
-0.00194835
-0.0213331
-0.0123633
-0.000725094
-1.79867e-05
-0.00339525
-0.000522315
-0.0224423
-0.00043819
-0.00258555
-0.0199609
-0.0780236
-0.0346664
0.000404784
-0.0027726
-0.000376927
-0.000882271
-2.77921e-05
-0.0105122
-0.000700994
-0.0376011
-0.00043198
-0.000628761
0.00907096
-0.0166539
0.00158031
-0.0343793
-1.37246e-05
-0.000993146
-0.00303482
-0.0048577
-0.0199319
-0.0187402
-0.0455738
-0.059553
-0.00173499
-0.000148515
-0.0084408
-0.0202734
-0.00820686
-0.0163127
-0.0191609
-0.00757408
-0.000356239
-0.030431
-0.000833554
0.000456579
-0.0223981
-0.00112986
0.00140249
-0.0938797
-0.000929944
0.000327193
0.00180388
-0.0484116
-0.00036791
-0.00136903
-0.00821547
-0.00174819
0.00142348
-0.00314986
-0.0278345
-0.0167236
-0.00837165
-0.0148026
-0.0351336
-0.00152001
-0.00852634
-0.0527082
-0.0198416
-0.00175502
-0.00316625
-0.0011534
-0.0112842
-0.017617
-0.00617075
-0.000112225
-0.070534
-0.00583823
0.0059164
0.00151627
-0.000513724
-0.000444994
-0.00823877
-0.017066
-0.00910202
-0.0830713
-0.000706542
-0.0718097
-0.00796592
-0.00134736
-0.000962493
-0.000707289
-0.00158537
-0.00586134
-0.00244431
-0.00777158
-0.00508795
-0.0176417
-0.000675282
0.00119618
-0.000223696
-0.000362704
-0.0341358
0.00756153
-0.00123997
0.000313485
-0.100234
-0.0103333
-0.00373608
-0.010416
-0.000359869
-0.0346017
-0.0297783
-0.119359
0.000235556
-0.0443933
-0.0129824
-0.000377641
-0.00169849
-0.084322
-1.61117e-05
-0.00152941
0.00181789
-0.000731464
-0.000705826
-0.000630366
-0.0167528
-0.00188844
-0.00356713
-0.0112602
-0.0396225
-0.00144342
-0.00143377
-0.0117681
-0.00113802
-0.0114309
-0.000161438
-0.00788148
-0.000970781
-0.000506711
-0.00682126
-0.00699979
-0.079764
-0.000144093
-0.0321848
-0.0123801
-0.0517588
0.00399192
0.00114533
-0.0233853
-0.0115695
-0.0820691
-0.0084816
-0.0127109
-0.00964395
-0.0429235
-0.0730537
-0.00170962
0.00358514
-0.012493
-0.0350603
-6.01472e-05
-0.024195
-0.00804556
-0.076125
-0.0424548
-0.000859146
-1.87084e-05
-0.000688527
-0.000724797
-0.115866
-0.0172484
-0.00716837
-0.000162621
-0.00305165
-0.0205223
-0.0015147
0.00114606
-9.80365e-05
-0.000577594
-0.0303923
-0.000547298
-0.000100498
-0.009063
-0.00969118
0.00526836
-0.000152224
0.00124217
-0.00159194
-0.0135139
-0.020611
-0.0137441
0.00078353
-0.00096785
0.00338991
-0.0312059
-0.0172603
-0.0846674
-0.105991
-0.0154213
-0.00826358
0.00496591
-0.0127526
-0.039607
-0.00787423
-0.061098
-0.0466315
-0.00981567
-0.0176621
-0.0437022
-0.0853385
-0.00194281
-0.00941034
-0.00878994
-0.00600442
-0.0110489
-0.067016
-0.00118678
-0.00098119
-0.0067243
-0.0037423
-0.0160854
-0.000196903
-0.0186757
-0.0185788
-0.000825768
-0.00192625
-0.0137293
-0.0219983
-0.00165014
-2.30845e-05
-0.0404058
-0.0169004
-0.000771917
-0.00222312
-0.0336263
0.00131205
-0.000657094
-0.00464638
-0.0655536
-0.001625
-0.0108211
-0.00958611
-0.0216748
-0.0114136
-0.00153822
-0.000153039
-0.00595909
-0.00134162
-0.0323207
-0.011189
-0.000169635
-0.0721178
-0.00928206
-0.0833385
-0.00567696
-0.00953597
-0.00765634
-0.00248843
0.000633525
-0.000674944
-0.0203457
-0.0796388
-0.0124213
2.13398e-05
-0.00094021
-0.00480279
-0.00842375
-0.0101904
-0.0187514
-0.00812604
-0.0109863
-0.00657568
-0.000266166
-0.00679323
-0.0139598
-0.0287317
-0.0215422
0.000806655
-0.0129204
-0.00826103
-0.0700188
1.85487e-05
-9.56698e-05
-0.00133257
-0.0112557
-0.000254682
-0.0211583
-0.000695916
-0.000177269
0.00305377
-0.00402727
-0.000293713
0.000577956
-0.0229836
-0.000631251
-0.00321043
-0.00302987
0.000470554
-0.000274786
-0.00683754
1.78377e-05
-0.0132535
-0.0134173
-0.0152137
-0.00563806
-0.0119567
-0.000282402
-0.0139484
-0.029642
-0.0750365
0.00221334
-0.000902124
-0.00903934
-0.00811589
-0.01549
-0.000727434
-0.00498648
-0.00531473
0.00127777
-0.000264402
-0.0201657
-0.00775332
-0.00665379
0.00552559
0.00540859
-0.00386546
-0.00502359
-0.0290858
-0.000694437
-0.0211856
-0.00252752
-0.00233534
0.00920076
0.00128229
-0.0029642
-0.0187009
-0.000305781
-0.0199702
-0.000911012
-0.00139297
-0.0877747
-0.00860087
0.000425773
-0.000637634
0.00911173
-0.00852557
-0.00143004
0.0128981
-0.0823863
-0.0045333
-0.0123701
-0.000162507
-0.035845
-0.0687507
-0.0850198
-0.00387583
-0.0166917
-0.0587162
-0.0171454
-0.0019145
-0.00830577
-0.0177733
-0.00125949
-0.000977043
-0.0502234
-0.00605881
-0.000333136
-0.00694805
-0.0140119
-0.00719956
-0.000549255
-0.0162671
0.000545794
-0.00426367
-0.00692867
-0.000108949
-0.00048618
-0.0849444
2.43744e-05
-0.0210566
-0.00520538
-0.0236168
-0.0222975
-0.0124371
-0.0216036
-0.0479672
-0.000950463
0.000306733
-0.00763302
-0.0208623
-0.017302
-0.031083
-0.0019729
-0.0846181
-0.00155856
0.00090772
-0.007416
-0.052145
-0.0280847
-0.00172225
0.00107251
-0.0331735
-0.0192051
-0.00668148
-0.0129572
-0.000984451
-0.00677795
-0.00663902
-0.000161806
-0.0518687
2.94659e-05
0.0031288
-0.0161828
-0.000511131
-0.00542683
-0.00110153
0.000244464
-0.00706736
-0.0277049
-0.000756659
-0.0052534
-0.00675426
-0.0117691
-0.0164294
-0.0125463
-0.0624575
-0.0129389
-0.000112632
-0.0089081
-0.0256808
2.57817e-05
-0.00818327
-0.00433561
-0.0112144
-0.0686502
-0.0186161
-0.0783022
-0.00261182
-0.0179914
-1.30793e-05
-0.0123685
-0.0122303
-0.00671602
0.0018608
-0.0828584
-0.00893656
-0.0982935
-0.0015661
-0.0062354
-0.066241
0.00631377
-0.0113212
-0.028546
0.000229884
-0.086726
-0.0045378
-0.0018075
-0.0185681
-0.0223417
-0.00667468
-0.00747948
-0.000359596
-0.0130313
-0.00433914
0.00254602
-0.000174444
0.00493342
0.00145769
-0.00079798
-0.00465183
-0.00654302
-0.0265894
-0.000363448
-0.00587697
0.0100299
-0.0675052
-0.00131798
-0.0041049
-0.00194716
-0.0502642
-0.000475322
-0.00871877
-0.000865758
-0.00726822
-0.0101254
-0.00358046
-0.0134421
-0.00170222
-0.0171629
-0.0113273
-0.00709589
-0.00718208
-0.008441
-0.0157753
-0.0109296
-0.000558159
-0.0153698
-0.0255975
-0.000600941
-0.0568956
-0.000785138
-0.00192738
-0.00132241
-0.0223022
-0.00449092
0.00141275
-0.0580183
-0.00802153
-0.107701
-0.011366
-0.000222695
-0.0817316
0.00429556
-0.0194249
-0.0203862
-0.0937483
-0.00350242
-0.0133489
-0.0195397
0.000325647
-0.000251707
2.88716e-05
-0.029067
-0.00422924
-0.0354012
-0.0388666
0.00118874
0.00734348
-0.000272752
-0.000139296
0.0109332
-0.012028
-0.0113634
-0.00607624
0.00423414
-0.0125118
0.00365817
0.00102632
0.000317987
3.21969e-05
-0.00073328
-0.0047491
-0.0196752
-0.000130944
-0.0168246
-0.0621991
0.0102253
-0.0284774
-0.0242445
-0.00139962
0.00995468
-0.000299921
-0.0124099
0.001739
-0.0425272
-0.0488468
-0.00949701
-0.00286357
-0.00498249
0.00124332
-0.0452438
-0.000140736
-0.0187434
-0.0276012
-0.00660611
-0.00534209
-0.00109873
-0.0216919
-0.0728407
-0.010413
-0.0115119
-0.00804763
-0.0289893
-0.0209152
-0.00166631
0.00117894
-0.0354878
-0.0204034
-7.09949e-05
0.000884952
-0.060479
-0.0231023
-0.000671889
-0.0549906
-0.0111869
0.0010256
-0.00862371
-0.0121961
-0.0050777
-0.00238412
0.00319604
-0.00198997
-0.029867
-0.0381983
-0.000594872
-0.00111512
-0.0112372
-6.65897e-05
-0.012136
-0.00098538
-0.00011612
0.000174414
-0.000116009
0.00307893
0.00235798
-0.000701741
-0.000712883
-0.000708767
-0.00137299
-0.000513184
-0.000843866
0.00239173
0.00151953
-0.0393563
0.00135103
-0.073392
-0.066879
-0.0125813
-0.00154541
-0.000124557
-0.0652013
-0.00202687
-0.0632453
-0.00514409
-0.068429
-0.010744
-0.000934962
-0.0422444
-0.000174497
-0.00559531
-0.0178234
-0.00629887
-0.018512
-0.00115152
1.13669e-05
-0.000861636
-0.0156289
-0.079219
0.000947932
0.00452221
-0.0649828
-0.0287994
-0.000487632
-0.00455226
-0.000756783
-0.00999841
-0.0166217
-0.0229884
-0.0067654
-0.000717533
-0.0966626
-0.0067923
-0.00647819
-0.0119684
-0.0421441
-7.23554e-05
-0.024234
-0.0289709
-0.0637381
0.0118364
-0.00101574
-0.0122782
-0.0118664
-0.0954714
-0.00093785
-0.0174234
-0.0344549
-0.0188202
-0.00260375
-0.0106949
-0.0696523
-0.0164955
0.00145771
-0.0025478
-0.00767157
-0.0123768
-0.0137286
-0.0692461
-0.0527131
-0.000319812
0.000865292
-0.0108646
-0.00688907
-0.00571959
-0.00286474
-0.00069204
-0.0207779
-0.0173565
-0.119083
-0.0195994
-0.0168057
-0.0142713
-0.000709906
-0.00064569
-0.0126504
-0.000126302
-0.013655
-0.00414341
-0.00163999
-0.000667826
-0.0240799
0.000227406
-0.0243326
-0.00637809
-0.0122642
-0.00649256
-0.0198468
0.00759297
-0.0140299
-0.0085474
0.000590865
-0.0457213
-0.000371677
0.00973109
-0.00172262
-2.42324e-06
-0.0132125
0.00440271
0.00259931
-0.00115086
0.00250222
-0.00423544
0.00108713
0.00134064
-0.00324282
0.00145658
-0.0161236
-0.000139613
-0.0016337
0.00141739
-0.000323373
-0.00858512
-0.00128348
-1.93782e-05
-0.0148158
-0.0261334
-0.00721302
-0.0464343
-0.0850777
-0.000402471
-0.00274088
-0.0202325
-0.000106643
-0.001837
-0.0119793
-0.0372947
-0.0143202
0.000134116
-0.00362044
-9.49375e-05
-0.0162054
-0.000698555
0.000302104
-0.00427238
3.80335e-05
-0.01896
-0.00710741
-0.00340365
-0.0160662
-0.0192233
-0.0482942
0.0032681
-0.00420113
-0.0769511
-0.0393507
-0.0398317
-0.001542
0.000702366
-0.028282
7.3223e-05
-0.012029
-0.000125704
-0.00999209
-0.0893671
-0.00206225
0.00279089
0.0118188
-0.0160702
-0.0142536
-0.00845814
0.00164334
-0.00685328
-0.00013517
-0.0074829
-0.00198368
-0.00955883
-0.0229327
-3.57412e-05
-0.000603317
-0.0204713
-1.25365e-05
-0.0840424
-0.0844373
-0.0198976
-0.000389054
-0.0146626
-0.0369581
-0.0231351
-0.0177374
-0.00164756
-0.0296006
-0.000161348
-0.0167264
-0.0162115
-0.00214579
-0.0952597
-0.0115041
-0.118773
0.00199277
-0.0350378
-0.000280138
-0.0584414
-0.0490764
-0.0234362
-0.00131752
-0.000357537
-0.0195573
-0.0189739
-0.00279271
-0.00206725
-0.0161811
-0.0641139
-0.00632745
-0.0169949
-0.0636938
-0.0159762
-0.00104282
-0.00240788
-0.00297403
-0.0251829
-0.0595539
-0.0226099
-0.0279399
-0.0167045
-0.00567045
-0.00633068
-0.11134
-0.0331949
-0.00132828
0.000837169
-0.00854066
-0.00914474
-0.00235392
-0.0128892
-0.000153162
-0.00019246
-0.0797552
-0.0141306
-0.0228957
0.00356539
-0.0494807
-0.00675261
0.00471995
-0.000667139
-0.00156736
-0.0198831
-0.0116111
-0.00012038
-0.00177259
-0.0425375
-0.00812195
-0.0098083
-0.0732949
-0.000142
0.000494127
-0.0801377
-0.0212191
-0.0175601
-0.000909088
0.000357854
-0.106337
-0.00643728
-0.00368284
0.000968047
-0.000149145
-0.00609662
-0.000804065
-0.0123951
-0.0339212
0.000853049
-0.0915454
-0.0118592
-0.0813657
-0.0145503
-0.0447819
-0.030522
0.00645366
-0.00144359
-0.000426031
-0.0370722
-0.0664876
0.000220323
6.3975e-05
-5.4097e-06
-0.000343804
-0.0136723
0.00174405
-0.00879601
-0.00545251
-0.0400681
0.00785094
-5.21808e-07
-0.0146978
-5.96261e-05
0.000295395
-0.043206
-0.0225996
-0.0262352
-0.00952747
-0.0115808
0.00458285
-0.018709
-0.10012
-0.00275364
-0.0354532
-0.0304348
-0.0342433
-0.00964027
-0.0207051
-0.0031285
-0.105739
0.00759439
0.000806312
0.000675773
-0.0298378
-0.0147833
-0.0257583
-0.00318471
-0.0125416
-0.0699984
-0.011867
-0.0872816
-0.000466292
-0.00238067
-0.0249293
0.00777589
5.61611e-05
-0.000675722
-0.00120847
-0.00117832
-0.0653244
0.00699888
-0.000596016
-0.0226965
0.00068507
-0.0119022
-0.0161983
0.00415433
-0.00477363
-0.000798313
-0.0279375
-0.0165194
-0.0161229
-0.118586
-0.0145294
-0.0251302
0.000471042
-0.000945505
-0.028546
-0.0127507
-0.00707189
-0.0611898
-0.0107702
-0.00528019
0.000849394
-0.0854475
-0.000429538
0.000809255
-0.0607002
0.000364882
-0.000293459
6.70342e-05
-0.0407254
-0.0154712
-0.000111986
-0.0100277
-0.00628227
-0.00127963
0.010823
-0.000849987
-0.000823891
-0.000370229
0.00439499
-0.0119309
-0.000467665
-0.0520929
-0.000305688
-0.0169792
-0.0466616
-0.0138223
0.00912693
-0.000892601
-0.0129372
-0.0401936
-0.00362438
-0.105952
-0.0246559
-0.00014938
-0.00911028
-0.0406171
-0.0184507
-0.022247
-0.0638375
-0.00544105
-0.0202003
-0.000516932
0.00312543
-0.0872442
4.87022e-05
0.000736824
-0.0950799
-0.0114826
-0.0126064
-0.00478312
-0.000974333
-0.0025272
-0.0174076
-0.00941238
-0.0330256
-0.0394524
-0.0166721
-0.00024807
-0.00708793
0.00316865
-0.0204519
-0.0294171
0.00641957
-0.00188578
-0.016015
-0.068841
-6.3985e-05
-0.0181995
-0.0286807
-0.00783258
-0.00547371
-0.0723504
-0.0210827
-0.0218637
-0.0254695
-0.00843502
-0.00135828
-6.91682e-05
0.00202037
-8.02069e-05
-0.00695227
-0.00531041
-0.000982734
-0.00453664
0.00199584
-0.0592767
-0.00099283
-0.00133008
-0.000583665
-0.0105435
1.87229e-05
-0.00194967
-0.0730605
-0.00455634
-0.0304645
-0.0179136
-0.0145656
-0.00700754
-0.00279223
-0.00878031
-0.0181684
-0.00038628
-0.0191217
-0.0234235
-0.00202196
-0.0111294
-0.0002185
-0.0272506
-0.023457
-0.00415311
-0.00593238
-0.076278
-0.0217272
0.000582273
-0.0559969
-0.0325382
-0.000457073
-0.0124395
0.00349409
-0.000293916
-0.0151482
0.000208479
-0.0400296
-0.000181529
-0.00641972
-0.0117112
-0.0797323
0.0028345
-0.00949362
-0.0340825
0.00159509
-0.00128785
-0.0313252
-0.0188641
-0.0372733
-0.000526106
-0.000356329
-0.0330715
-0.000245743
-0.000663291
-0.00219583
-0.000431594
-0.00369169
-0.0292471
-0.0394588
-0.0433858
-0.00827373
-0.007491
-0.0196378
-0.0183751
0.0123553
-0.0714051
0.00029956
-0.00531381
-0.00153678
-0.00551082
-0.0615122
-0.00143665
-0.000663073
-0.00166779
-0.101887
-0.000976076
-0.014677
-0.000186142
-0.00133774
-0.000228011
-0.00772746
-0.0123626
-0.0099302
0.00361679
-0.0283715
-0.00764061
0.00107401
-0.00943198
-0.00190909
-0.0314239
-0.0147467
0.000524543
-0.00519517
-0.0165719
-2.91198e-05
-0.00318725
-0.0118459
-0.0507878
-0.00663877
-0.0192659
-0.00994615
-0.0479487
-0.00168338
-0.0292483
-0.0200177
-1.73575e-05
-0.0545166
-0.000304888
-0.0293339
-0.0342102
-0.000322128
-0.0136746
-0.0568882
0.00642683
-0.0978469
-0.00675599
-0.0378237
-0.00900888
-0.000920845
-0.0965946
-0.0487191
-0.0479802
-0.0421582
-0.018306
-0.0156427
-0.0589239
-0.0789679
-9.32902e-05
-0.00177858
-0.0102858
-0.00186159
-0.0120488
-0.096522
2.63352e-05
-0.00171483
-0.00115098
-0.00992869
-0.0281668
-0.00583934
-0.000412877
-0.0856377
-0.0161812
-0.0183807
-0.00349132
-0.00327883
-0.00101984
-0.0103254
-0.0114535
-0.0146954
-0.0793995
-0.000546761
-0.0336805
-0.0187406
-0.0111128
-0.00335274
-0.00371111
0.000464769
0.00218821
-0.0760123
0.0038245
0.00354939
-0.00429208
-0.0360731
-0.00477216
-0.0421765
-0.000615178
-0.0202762
-0.000611409
-0.000719464
-0.00151597
-0.000665576
-0.0329085
-0.03267
-0.0139461
-0.0013772
-0.000552992
-5.16829e-05
0.000474353
-0.0612144
-0.027312
-0.0029272
-0.00115664
-0.0104842
-0.0144358
-0.0363537
0.00130387
-0.057083
-0.00269225
-0.000652861
-0.000974209
-0.0637754
-0.00299007
-0.00882089
-0.016508
-0.0111535
-0.0611219
-0.0232724
0.000284115
0.000955499
-0.0519983
-0.0020256
-1.99956e-05
-0.00385771
-0.018269
1.0902e-05
-0.0395371
-0.0764971
-0.101034
-0.00116333
-1.50918e-05
-0.00604315
-0.0524832
-0.0130748
-0.0825813
-0.0228775
-0.00863068
-0.0235854
-0.0199201
-0.0034195
-0.00957962
0.00180631
-0.0522718
0.00869468
0.000855878
-0.00146702
-0.00558203
-0.00771423
-0.015963
0.000793452
-1.57206e-05
-1.4646e-07
-0.00434352
-0.0171024
-0.00105913
-0.00987613
0.00170616
1.20497e-05
-0.0103092
-0.00969396
0.00299964
-0.000775416
-0.101262
-0.100625
-0.0132389
-0.0556231
-0.0313634
-0.0321104
-0.0167019
-0.00384366
-0.0183505
7.33044e-06
-0.0104773
-0.0163954
0.000226891
-0.00422793
-0.00269015
-0.0093464
-0.0248448
-0.000230159
-0.0229918
-0.000768537
-0.00571968
-0.0203231
-0.00994578
-0.0565818
-0.00505611
-0.0389808
4.25954e-05
-0.0629886
-0.000419761
-0.0121343
-0.00165905
-0.0138237
0.00951231
-0.000131756
-0.0176128
-0.0321978
-0.0569996
-0.00460769
-0.0589825
-0.0972171
-0.0232964
-0.114759
0.0100466
-0.0043202
-0.00719393
0.000926111
-0.00061556
-0.000401208
0.00108015
-0.0204763
-0.0199463
-0.01551
-0.0190611
0.00392932
-0.000627195
-0.0272139
-0.000155842
-0.0280522
-0.011753
-0.00475955
-0.0157595
-0.0319781
-0.0595183
0.0047577
-0.102526
-0.0245866
0.0106085
0.0106625
-0.0669691
-0.0702269
-0.00476721
-0.000531597
-0.0233295
-0.000170907
-0.00690998
-0.000525897
-0.000709672
-0.000650375
0.00166106
0.000229414
0.00477464
0.000233658
-0.0178332
-0.0975627
-0.00162401
-0.0170812
-0.0127426
-0.031552
-0.00225012
-0.0231656
-7.93773e-05
0.00305819
-0.0286079
-0.0298551
-0.0698831
-0.000715933
-0.0161898
-0.000477171
-0.0287286
-0.0112157
-0.110886
-0.115828
-0.0161583
0.000589055
-0.011005
-3.97467e-05
-0.0160003
-0.00567302
-0.000547223
-0.0149792
-0.0290396
0.000787591
-0.0457762
-0.056834
0.00268496
-0.0287832
-0.00696045
-0.000532354
-0.0618149
-0.000663842
0.00331818
-0.00520046
-0.0214808
-0.0111438
0.00369574
-0.0193838
-0.096938
0.00529949
0.00535628
-0.0638705
-0.0017677
-0.00560847
-0.00665215
0.0129171
-0.0187709
-0.0183828
-0.00685886
-0.0114643
-0.0133317
-0.000697757
-0.00394715
-0.0241602
-0.000649547
-0.0278708
-0.0156439
-0.00404102
4.8289e-05
5.67881e-05
-0.000980065
-0.0392959
-0.0496832
-0.015649
-0.0555807
0.00171006
-0.0112741
-0.00834828
-6.347e-05
-0.00206628
-0.0424232
0.0127861
0.00087048
-0.0108106
0.00179238
-0.0173536
3.73493e-05
-0.0174959
-0.0157564
0.00117283
-0.0320179
-0.0123688
-0.0242068
0.00127581
-0.00384929
0.000463812
-0.000104159
-0.00417571
-1.91222e-06
-0.0114329
0.00913139
-0.112385
-9.06193e-05
-2.85464e-05
-0.00185537
-0.0203021
0.00794765
-0.0028075
-0.0974294
-0.00706272
-0.0322247
-0.0120812
-0.00438715
0.00922733
0.00215926
-8.30762e-05
-0.000445499
-0.0827236
-0.0120919
-0.000263645
-0.0379202
-0.0173347
-0.0602316
-3.76808e-06
-0.0228488
-0.0572078
-0.045487
-0.0014249
-0.0032017
-0.0195942
-0.00214137
0.00226812
-0.0520162
-0.00682681
-0.00136689
-0.0132572
-0.00198562
-0.00665025
-0.0167186
0.000517791
-0.0581622
-0.0271257
-0.0161511
-0.000629944
-0.00128167
-0.00665015
-0.0363149
-0.000617751
-0.000633392
-0.0651685
-0.0300384
-0.0159646
-0.0146074
-0.00861074
-0.0285331
-0.0012972
-0.0237688
-0.0263179
0.00493215
-0.0822982
-0.0193107
-0.000483606
2.20852e-05
-0.00286843
0.00101647
2.23482e-05
-0.000452629
-0.0124954
-0.056246
-0.00388409
0.0139368
-0.0184155
-0.000546839
-0.000260254
0.000928604
-0.0563224
-0.0181777
-0.0752206
-0.000256149
-0.0197575
-0.0594686
-0.0388222
-0.00671084
-0.000237781
-0.0831264
-0.0239402
-0.0054229
-0.0993499
-0.0154852
-0.060354
-1.60273e-05
-0.0172973
-0.00720419
-0.000679609
-0.0687796
-0.0452775
-0.097111
-0.0987158
-0.0108164
-0.0757766
-0.0415128
-0.00202307
-0.0548208
0.00137576
-0.0395878
-0.0241609
-0.0360854
0.00178893
-0.0393383
-0.0648019
-0.000780328
-0.00475829
-0.0730789
-0.0872819
-0.0154815
0.0034661
-0.0523662
-0.0202903
-0.0158335
-0.0458216
-0.00493467
-0.00404238
-0.000329616
-6.51001e-05
-0.0154655
0.00374668
-0.0543757
-0.0437011
-0.00942655
-0.0189718
-0.00282892
-0.00178246
-0.00740013
-0.0751314
-0.0330033
-0.00260694
-0.074733
-0.0267889
-0.0164614
-0.00927409
-0.000802187
0.000225246
-0.0341364
-0.00284589
-0.0625134
-0.0284352
-0.0177407
-0.00501357
-0.0148735
0.0131393
-0.000677607
-0.0665828
0.000242601
-0.0171645
-0.000683533
-0.0804634
-0.00579853
-0.00165716
-0.0218573
-0.00355678
-0.00853228
-0.0673607
-0.0690894
0.00354814
-0.000156101
-0.016912
-0.0147948
-0.0668651
-0.00842438
-0.0637618
-0.0528654
-0.0259762
0.00311829
-0.056488
-0.0469352
-0.0192043
-0.119405
-0.00353874
-0.0787399
0.000264713
-0.0605002
-0.0214459
-0.0288093
-0.0157901
-0.0177529
-0.000162358
0.00672248
-0.0227704
-0.0564937
-0.000415493
-0.0751081
-0.0201622
-0.0014096
-0.00175354
-0.000453024
-0.00788275