/*--------------------------------*- C++ -*----------------------------------*\
| =========                 |                                                 |
| \\      /  F ield         | OpenFOAM: The Open Source CFD Toolbox           |
|  \\    /   O peration     | Version:  v2012                                 |
|   \\  /    A nd           | Website:  www.openfoam.com                      |
|    \\/     M anipulation  |                                                 |
\*---------------------------------------------------------------------------*/
FoamFile
{
    version     2.0;
    format      ascii;
    class       volScalarField;
    location    "300";
    object      k_0;
}
// * * * * * * * * * * * * * * * * * * * * * * * * * * * * * * * * * * * * * //

dimensions      [0 2 -2 0 0 0 0];


internalField   nonuniform List<scalar> 
18166
(
0.00353485
0.000145978
0.000250931
0.000193899
0.000260689
0.000177992
0.000142147
0.000146703
0.000163695
0.00335768
0.000146021
0.000195961
0.000159427
0.000172724
0.000158691
0.000147916
0.0361313
0.000142257
0.000153359
0.0119944
0.000149928
0.000157335
0.000153767
0.000150515
0.00279483
0.00100427
0.00014695
0.00360758
0.000146546
0.000142317
0.000129705
0.00369804
0.000187977
0.00299641
0.000315435
0.000145067
0.000138118
0.000138247
0.000159516
0.000196135
0.000163608
0.000154966
0.000151678
0.000152995
0.000390769
0.00013889
0.000148431
0.0227179
0.000130106
0.0103912
0.00457197
0.0366268
0.000130051
0.000147927
0.00013878
0.000143884
0.00438607
0.000144328
0.000319733
0.000143987
0.00014483
0.00013939
0.000142207
0.000144733
0.000148433
0.000139566
0.000140721
0.000147704
0.0104665
0.000137751
0.000158906
0.000194176
0.000220219
0.000162823
0.000137692
0.000186475
0.000837514
0.00947044
0.000219762
0.000166672
0.000149682
0.000161671
0.000373292
0.00013617
0.000138603
0.000144833
0.000147475
0.000144646
0.000142155
0.000406756
0.000136114
0.000141123
0.000154915
0.000142175
0.000162187
0.000148091
0.000198598
0.000143488
0.0199904
0.0307514
0.000150758
0.000142713
0.000142277
0.0036239
0.000136842
0.00473139
0.000142542
0.000144195
0.000133432
0.000145994
0.0360652
0.00055056
0.0361563
0.00869658
0.000151188
0.00361918
0.0099435
0.000156977
0.000150257
0.00013426
0.000147409
0.000134206
0.000156289
0.000138911
0.000142521
0.000154009
0.000153601
0.00015219
0.000140164
0.000144524
0.000142036
0.000144908
4.76078e-05
0.000149773
0.000190399
0.00386518
0.000143956
0.000226261
0.000142157
0.0018251
0.000146863
0.000147371
0.000153749
0.00263767
0.000130715
0.000329334
0.00281874
0.000138146
0.000142546
0.0318215
0.00015852
0.000149687
0.00243926
0.0360803
0.000184082
0.000142544
0.000147458
0.000151284
0.000183984
0.00015104
0.000146611
0.000152611
0.0368077
0.000153815
0.000144937
0.000162035
0.000196825
0.000146249
0.0322323
0.000146942
0.00017929
0.00456663
0.00014349
0.0284197
0.000154091
0.00990333
0.000143813
0.00341932
0.00014385
0.000148156
0.000138913
0.000141391
0.00394922
0.000469537
0.000153082
0.00014543
0.000145219
0.000147899
0.000150355
0.000151903
0.000150967
0.000153101
0.000364042
0.000150465
0.000152576
0.000198469
0.000195943
0.00139026
0.000146923
0.000140782
0.00015352
0.0160788
0.0316631
0.000151563
0.000143968
0.000185781
0.00014762
0.000193636
0.000184403
0.000150553
0.000143247
0.000185634
0.000184743
0.000145803
0.000155606
0.000147227
0.018658
0.000147652
0.000151162
0.0001439
0.00016248
0.00489334
0.000172472
0.000146094
0.000148783
0.002918
0.000139325
0.000142882
0.000151462
0.000145193
0.000153807
0.00013417
0.00114039
0.000134202
0.0374335
0.00551362
0.00556265
0.00015275
0.00015271
0.000194654
0.000139541
0.000172156
0.000156016
0.0034578
0.00014449
0.000134262
0.000249706
0.000134307
0.000168197
0.000178951
0.00441959
0.000143859
0.000146257
0.000190474
0.00014762
0.000146527
0.000147207
0.000144439
0.000146183
0.000147946
0.000174562
0.000174718
0.000147755
0.000143786
0.000147891
0.000159799
0.000733851
0.000145952
0.000141763
0.00112363
0.000140763
0.000144015
0.00019918
0.00374715
0.000205486
0.000140539
0.00445401
0.000138543
0.000145725
0.000197641
0.000141984
0.000151449
0.000168217
0.000144029
0.000144611
0.000154188
0.000186037
0.000189551
0.000140336
0.00015039
0.000133378
0.0023454
0.000145098
0.000151318
0.000134175
0.000159893
0.000148164
0.00374023
0.000134235
0.00228047
0.000164054
0.000222308
0.0127221
0.000160194
0.000142672
0.000211462
0.000188279
0.000143434
0.000142368
0.000150129
0.000145196
0.000142556
0.000148241
0.000145491
0.000141875
0.00015433
0.000136601
0.000186937
0.000185289
0.00014072
0.0277273
0.000152696
0.0354352
0.00015265
0.000138721
0.000136655
0.000144989
0.000246741
0.000142404
0.000183776
0.000142219
0.000151212
0.00014076
0.000147544
0.000167707
0.000142643
0.000182794
0.000178954
0.000148001
0.000141916
0.000215673
0.0001484
0.000187181
0.000142449
0.000153113
0.000146011
0.000232975
0.00014638
0.000140103
0.000136895
0.000195689
0.000155743
0.000195486
0.000148026
0.0107085
0.000154001
0.00014663
0.000147324
0.0040301
0.000186747
0.000144894
0.000144228
0.000134124
0.000153493
0.0041741
0.000134182
0.000138621
0.000143677
0.000143191
0.000155414
0.000139064
0.000145132
0.000142938
0.000218825
0.000141832
0.000155632
0.00014257
0.000167748
0.00014367
0.00014655
0.000134202
0.000143463
0.000184486
0.00647236
0.000134323
0.000146197
0.000168231
0.000185493
0.000149962
0.000209644
0.00013417
0.018517
0.000160988
0.00015022
0.00434344
0.000188853
0.000143973
0.000133851
0.000142828
0.000199561
0.000133818
0.000133537
0.000147571
0.000135437
0.000150395
0.000141674
0.000155043
0.000217912
0.0040755
0.000135378
0.000142273
0.00459146
0.000217157
0.000153367
0.000129978
0.000935464
0.000148241
0.000143539
0.000138707
0.000150629
0.000141277
0.000129997
0.00229219
0.00277765
0.000153569
0.000144679
0.000146378
0.000129849
0.000129762
0.000183985
0.0001499
0.000139061
0.000142609
0.000154604
0.00015144
0.000143679
0.000143423
0.000212672
0.000321136
0.000255476
0.0367916
0.000256818
4.86907e-05
0.000201634
0.000143514
0.000173914
0.0283504
0.000147883
0.000167869
0.000153156
0.000180347
0.00014525
0.000143391
0.000137957
0.000147647
0.000153949
0.000161606
0.000141705
0.000143748
0.000145149
0.000145998
0.000135842
0.000141374
0.000153449
0.000158513
0.000169722
0.000150882
0.00014256
0.000195071
0.0001465
0.000203296
0.000142527
0.000154501
0.000143787
0.000237255
0.00014542
0.000154227
0.000152784
0.000144395
0.00476275
0.000162108
0.000144677
0.00529949
0.000143372
0.000184969
0.000164024
0.000216294
0.000134844
0.000151439
0.000154207
0.000140415
0.00014417
0.000142523
0.000192984
0.00333281
0.000162037
0.00014576
0.0001558
0.000144015
0.000143725
0.00015366
0.000143987
0.000149213
0.000406895
0.000155387
0.000145382
0.000144431
0.000140606
0.000158248
0.00157118
0.000147899
0.000153171
0.000141035
0.0001593
0.000224748
0.000188366
0.000248159
0.000146196
0.000303416
0.000144538
0.000150796
0.000385475
8.19668e-05
0.000193767
0.0373538
0.000153877
0.000143985
0.000142485
0.000137431
0.000143273
0.000198551
0.000158538
0.000324064
0.0164479
0.000187771
0.000297779
0.000140686
0.000153117
0.000159521
0.000148074
0.000161674
0.000181862
0.000178367
0.000187514
0.000145342
0.000155792
0.000156329
0.00013405
0.00419179
0.000143856
0.000158507
0.000145957
0.000140365
0.000178247
0.000130674
0.000133962
0.00018533
0.000187917
0.000142763
0.00173496
0.000144797
0.000164781
0.000199776
0.000144703
0.00014171
0.035367
0.000147749
0.000151797
0.000133709
0.000147622
0.00015476
0.00013363
0.00459031
0.00014253
0.00462138
0.00457051
0.000155739
0.000143364
0.00014936
0.00014394
0.000145753
0.00352655
0.000154894
0.000145449
0.000859929
0.00015069
0.000142032
0.000139072
0.000200578
0.000146377
0.000612258
0.000145717
0.000195366
0.000164987
0.000145251
0.000159094
0.000160349
0.00167019
0.000188075
0.000282508
0.000138449
0.00016008
0.000149396
0.000143264
0.000170083
0.000134774
0.000319343
0.00268721
0.000205365
0.000147377
0.000143262
0.000264622
0.000149718
0.000150068
0.000145185
0.000140262
0.000170949
0.000146951
0.000158772
0.00448226
0.000200949
0.00013952
0.0296918
0.00429334
0.000140905
0.000310062
0.00014206
0.000141817
0.0293985
0.000170368
0.000151144
0.000150059
0.00014601
0.00753758
0.000195292
0.000161647
0.0001428
0.000163552
0.00014861
0.00200301
0.000143221
0.000129835
0.000197136
0.000145234
0.000143555
0.000139218
0.00410496
0.0001602
0.000145472
0.000133539
0.00017764
0.000152669
0.00013883
0.00450723
0.000166997
0.0356915
0.00014975
0.0001482
0.000138393
0.000145427
0.00014351
0.000152666
0.000147587
0.000142651
0.000150614
0.000188919
0.000153011
0.00449085
0.000143237
0.00018339
0.000106163
0.000149921
0.000148048
0.000215028
0.00373918
0.0123677
0.000191279
0.000142435
0.000151548
0.000138632
0.0001366
0.000141611
0.000138952
0.000189908
0.000177609
0.00530494
0.00352879
0.0040936
0.00188141
0.000143332
0.000159355
0.000140384
0.000142977
0.000169095
0.000195684
0.0002321
0.000167726
0.000212625
0.000143963
0.000142455
0.000183625
0.00170019
0.00014341
0.029095
0.000148572
0.000143696
0.000155443
0.000142389
0.000154788
0.000154536
0.0281185
0.000196543
0.000192948
0.000249719
0.00483737
0.000166545
0.000153046
0.000144959
0.000147823
0.000164932
0.00132437
0.000143885
0.000196135
0.000157783
0.00016272
0.000142701
0.000203853
0.000164762
0.000176097
0.00716371
0.000235396
0.000170756
0.000164641
0.000181258
0.000142727
0.000146254
0.000150119
0.000213618
0.000154213
0.00329928
0.0245802
0.0132331
0.000146713
0.000145381
0.000147938
0.000142081
0.000166464
0.000125743
0.000153788
0.000146155
0.000143677
0.000163753
0.000143005
0.000149572
0.000340114
0.000145017
0.00394386
0.000136558
0.000153126
0.000187301
0.000187856
0.000154912
0.000166981
0.000201343
0.00015397
0.000146931
0.000156345
0.000155842
3.80246e-05
0.000142553
0.000143846
0.000140485
0.000140326
0.000129822
0.000152312
0.000197608
0.00466435
0.00277925
0.000191654
0.000201267
0.03697
0.000177059
0.000202523
0.000192447
0.00467041
0.000150612
0.000148336
0.000140551
0.000158822
0.0040769
0.000145821
0.000151602
0.000143636
0.00015169
0.000142124
0.00014178
0.000142521
0.000176363
0.000140223
0.00014838
0.000143919
0.000144115
0.000139307
0.000189867
0.000146384
0.000142044
0.000139044
0.000253828
0.000153669
0.00701904
0.000144571
0.00273736
0.00013709
0.000152501
0.0046713
0.000133788
0.00182355
0.000187639
0.000160885
0.000139605
0.000155291
0.000150521
0.000154859
0.000152899
0.000139095
0.00050523
0.000146678
0.000168195
0.000146366
0.000187292
0.000145452
0.000155281
0.000153915
0.000142751
0.000152843
0.000138635
0.000145175
0.000154726
0.00014458
0.000190223
0.00498463
0.000144177
0.000198434
0.000226698
0.000151473
0.000137978
0.000227737
0.000155496
0.000138736
0.000154965
0.000204105
0.000142176
0.000155045
0.000147778
0.000203203
0.000145789
0.00522217
0.00460656
0.000142204
0.000151238
0.000148971
0.000151511
0.0037247
0.000145655
0.00466376
0.000138525
0.000144028
0.000198825
0.0357546
0.00446767
0.000139109
0.000173219
0.000143845
0.0031345
0.000154639
0.0016897
0.000213658
0.0278648
0.000137115
0.000145509
0.000145671
0.0140671
0.000145509
0.0310946
0.000139158
0.00902972
0.000227106
0.000156207
0.000153608
0.00381962
0.000166905
0.000191928
0.000149707
0.000159194
0.000188916
0.000151638
0.000157177
0.00289099
0.00438568
0.000147701
0.000147553
0.000146071
0.000152193
0.000147653
0.000147889
0.000192384
0.000140359
0.000251646
0.0353404
0.000165197
0.000189823
0.000143971
0.000142309
0.00420813
0.0124732
0.00339393
0.000173644
0.00555971
0.000140435
0.000158594
0.00316122
0.0311178
0.00329714
0.000149459
0.000154155
0.000190865
0.000141093
0.000143996
0.000141545
0.000138027
0.000152821
0.000145853
0.000173168
0.000138226
0.0103005
0.000148149
0.00408863
0.0244748
0.00661099
0.000243955
0.00407667
0.000326374
0.0298076
0.00015702
0.000166851
0.000146591
0.000152636
0.000149231
0.000210981
0.000156734
0.000205289
0.000156531
0.00405433
0.000206667
0.00013548
0.000184851
0.000137855
0.0001532
0.00187154
0.000143921
0.000159571
0.000163371
0.00430398
0.010927
0.0042888
0.000135888
0.00579927
0.000154038
0.000138141
0.000160348
0.000151077
0.00505803
0.00015647
0.000142207
0.000172499
0.000147273
0.000153364
0.000140051
0.000147701
0.000150262
0.00671189
0.000155008
0.000158679
0.00411554
0.000145815
0.00431348
0.00286594
0.000167234
0.000145639
0.000156811
0.00121896
0.00200572
0.0293769
0.000149107
0.0001386
0.000208499
0.000177028
0.000142967
0.000216396
0.000173741
0.000175018
0.00015003
0.0041026
0.00401215
0.000131695
0.000138642
0.000138321
0.000144512
0.000139271
0.000255498
0.000133543
0.00463836
0.00240623
0.000142312
0.00668967
0.000140648
0.000158032
0.000143285
0.000157844
4.53868e-05
0.000152726
0.000191342
0.000149194
0.000147226
0.000158753
0.00444836
5.20834e-05
0.000140605
0.000200999
0.000135905
0.000172404
0.0352698
0.00853804
0.00015203
0.000151193
0.000153201
0.000149258
0.00015208
0.000190749
1.43208e-05
0.000251286
0.000279253
0.000159991
0.000171099
0.000173183
0.0106828
0.000142089
0.00252471
0.000157643
0.0337911
0.000142471
0.0039864
0.00014745
0.000136491
0.0001459
0.000130846
0.000141506
0.000193636
0.000145786
0.0047578
0.00436886
0.0284854
0.000143494
0.000147835
0.000154087
0.000195776
0.0165297
0.000149769
0.000210964
0.000146207
0.000160861
0.000158456
0.000147783
0.000150636
0.000143706
0.000149299
0.000170367
0.00398967
0.00428638
0.000147209
0.00448163
0.000192206
0.00426506
0.000182147
0.00015123
0.000146272
0.00577388
0.000144149
0.000136562
0.000202174
0.000145429
0.0361875
0.000152241
0.0350626
0.0001558
0.000140327
0.000143203
0.000153534
0.000187041
0.000141719
0.00386647
0.000138479
0.000139447
0.000143164
0.000154021
0.000144259
0.000171473
0.000155184
0.0194974
0.000145961
0.000142824
0.000146036
0.00515291
0.000149189
0.000143213
0.00015947
0.000145777
0.000139336
0.000165898
0.000144123
0.000134343
0.00013431
0.000151453
0.010732
0.00325947
0.000145769
0.000145244
0.000154844
0.000160556
0.000160645
0.000149062
0.000167579
0.000174598
0.0364311
0.000159701
0.000140908
0.000170921
0.000150041
0.000169672
0.000159637
0.000149506
0.000207617
0.00440073
0.000165926
0.00013997
0.000138369
0.000189095
0.000173617
0.00013933
0.000152611
0.000146456
0.000150774
0.000144624
0.00021064
0.000140199
0.00472474
0.000192089
0.000144618
0.000203648
0.000184868
0.00362632
0.000180793
0.0002
0.000152128
0.000137067
0.029897
0.000144037
0.000152728
0.000180347
0.000143727
0.000151543
0.0038871
0.000247338
0.00378212
0.000136202
0.000141805
0.000213221
0.00167662
0.000152349
0.000150491
0.0265162
0.000133814
0.00014397
0.000133514
0.000182894
0.000183858
0.000142944
0.000150583
0.000147585
0.000149773
0.000168205
0.000155384
0.000143277
0.000215893
0.0364117
0.0284866
0.00015358
0.000133867
0.000178281
0.00274807
0.0034255
0.000133562
0.000155487
0.000186955
0.000159879
0.000146057
0.000194749
0.00014214
0.000165858
0.000145408
0.00015187
0.0102528
0.000523151
0.000135263
0.00015184
0.000150399
0.00163886
0.00014428
0.00375651
0.00013955
0.000154249
0.000144063
0.000158174
0.000145224
0.000148362
0.000140036
0.00400012
0.0339841
0.000159054
0.00015037
0.000141944
0.000226564
0.000151406
0.00908358
0.000139867
0.000141143
0.00312553
0.000139043
0.000154608
0.000191715
0.000201791
0.00177655
0.0001469
0.000149551
0.000134117
0.000143452
0.000180602
0.00014529
0.00015353
0.000137881
0.000160601
0.000191777
0.000185474
0.000134169
0.000137832
0.000145879
0.000145227
0.00561291
0.000148619
0.0022409
0.00015527
0.000141636
0.000156722
0.000137764
0.000197236
0.000147448
9.12744e-05
0.000143277
0.00303668
0.00747079
0.000138862
0.000138588
0.000133892
0.000146174
0.000147611
0.000140833
0.000160448
0.000187974
0.000161251
0.00416704
0.000136552
0.000138986
0.000139068
0.00583731
0.000150505
0.000145086
0.000150345
0.000336932
0.000133948
0.000139536
0.000154549
0.000140369
0.000143065
0.000144728
0.000187682
0.000138417
0.000136588
0.000237026
0.000134435
0.000305194
0.000135052
0.00139455
0.000166525
0.000135408
0.000159519
0.000157071
0.000159655
0.00014483
0.000170576
0.000216017
0.0001345
0.000136282
0.000143215
0.000167472
0.000139231
0.000146365
0.000144142
0.00124844
0.0327486
0.000154498
0.000151045
0.000138798
0.000151816
0.000153142
0.000139463
0.000155896
0.000148369
0.000144779
0.000133489
0.000208332
0.000136195
0.000144322
0.000142318
0.000144455
0.000144168
0.000185425
0.000133987
0.000158583
0.00586056
0.000261562
0.0001464
0.0058238
0.000131535
0.000148106
0.036961
0.000331303
0.000151454
0.000154894
0.000141493
0.0051733
0.000300785
0.000142951
0.00015407
0.000142235
0.000177138
0.000294902
0.0306538
0.000140662
0.000139073
0.0001378
0.000182097
0.000134286
0.000139537
0.00014197
0.000179302
0.000155509
0.000134048
0.00014499
0.000152982
0.000145899
0.00241877
0.000170588
0.000147441
0.00386286
0.00443494
0.000137883
0.000166547
0.000171089
0.000175835
0.00013954
0.00625215
0.000173681
0.00013471
0.000383088
0.00020977
0.000152418
0.000142737
0.000143019
0.000146989
0.000143481
0.00487147
0.00565381
0.000134345
0.000135164
0.000145044
0.000168206
0.011532
0.000141102
0.000134744
0.000143034
0.000145147
0.000135003
0.0001497
0.000135249
0.00469548
0.000135389
0.0350172
0.000321277
0.000150312
0.00014297
0.000141165
0.000151282
0.000149685
0.000140017
0.0045902
0.0023092
0.00979525
0.000143579
0.00019626
0.000152769
0.00221616
0.000144392
0.000171156
0.000154377
0.000226496
0.000148966
0.000138334
0.000159757
0.00504292
0.000198462
0.000155321
0.000145545
0.000137023
0.00473105
0.000148666
0.000110568
0.0105482
0.000143343
0.000135061
0.000137021
0.000134965
0.000142216
0.000143061
0.000159762
0.0001446
0.0047353
0.000147318
0.000144024
0.00013982
0.000173039
0.000148892
0.000135798
0.000144082
0.000134993
0.000136682
0.000141571
0.000136836
0.000136184
0.00547654
0.00239385
0.000136579
0.000141048
0.00014502
0.000154946
0.000149342
0.000146692
0.0233264
0.00212856
0.0041948
0.000154917
0.000153619
0.000142521
0.000135751
0.000135455
0.00014811
0.000223364
0.000150255
0.000438738
0.000140648
0.000144402
0.000230254
0.000160486
0.000143545
0.00521907
0.00564359
0.000179973
0.000136752
0.000149795
0.000141009
0.00351549
0.000203621
0.000140199
0.00020558
0.000169233
0.000974627
0.000186755
0.000181616
0.000144601
0.000220204
0.000197363
0.00230694
0.000147071
0.000155029
0.000237943
0.035275
0.00013654
0.000187222
0.000172286
0.000136782
0.000141908
0.000143137
0.000135367
0.000146785
0.00014497
0.000137894
0.000141076
0.00014451
0.00593415
0.0231633
0.000139055
0.000154801
0.000141513
0.000193392
0.00328201
0.000148616
0.000330059
0.000153153
0.0331965
0.000190243
0.00295765
0.000148926
0.000198688
0.00014813
0.000143739
0.000204405
0.000142835
0.000141401
0.00443386
0.000187658
0.000144243
0.000139187
0.000146091
0.000144608
0.0221318
0.000357732
0.000150017
0.000160001
0.000272315
0.00156194
0.000151621
0.000156375
0.000144917
0.000144461
0.000139568
0.0185678
0.0116122
0.00801317
0.000151806
0.000139948
0.000223776
0.00014641
0.000199401
0.00014367
5.57525e-05
0.000140814
0.000151895
0.000189309
0.000150057
0.000202528
0.000143465
0.000145714
0.000154557
0.000196601
0.000158682
0.000170466
0.000153634
0.000149129
0.000143306
0.000158514
0.000137932
0.000151177
0.000145041
0.000188609
0.0001469
0.000148863
0.000153234
0.000239631
0.000154131
0.00020678
0.000180757
0.000154721
0.0104988
0.000147689
0.000147444
0.000150936
0.00014027
0.000149656
0.000154456
0.0236271
0.00113855
0.000171838
0.000141859
0.000152413
0.000265858
0.0340003
0.0251357
0.00015113
0.000137419
0.000160278
0.000150746
0.000189204
0.000150406
0.0001452
0.000152302
0.000173791
5.7871e-05
0.00013565
0.000167574
0.000149617
0.000146627
0.0373553
0.0057595
0.000158705
0.000237396
0.000202696
0.000503258
0.0037988
0.000185167
0.000143757
0.000144528
0.0022849
0.000184496
0.000190305
0.00426783
0.000153235
0.000181287
0.000142311
0.000142277
0.000142698
0.000146917
0.000251269
0.00014383
0.00014356
0.000301638
0.000143086
0.00536692
0.000143984
0.000135002
0.0361622
0.000129953
0.000148665
0.027632
0.000143684
0.00014368
0.000136374
0.000134933
0.00572027
0.000142618
0.000142517
0.000203018
0.000135653
0.000156215
0.000149847
0.000148812
0.000182959
0.000149738
0.000196552
0.000193172
0.000145042
0.000130542
0.000140537
0.000153113
0.00250085
0.000146479
0.00444049
0.000136231
0.000647897
0.00013703
0.000158975
0.000141735
0.000140742
0.00371525
0.000147204
0.000260985
0.000144427
0.000144073
0.000143583
0.000143553
0.000150411
0.000133588
0.000206582
0.000167123
0.000351336
0.000146444
0.0001511
0.00113927
0.00290819
0.0234056
0.00395006
0.00385
0.000158916
0.000100403
0.000142431
0.000139718
4.37679e-05
0.000139719
0.00017983
0.000232533
0.000144144
0.000155325
0.000135335
0.000139635
0.000153478
0.000234157
0.000142879
0.0248746
0.000146191
0.000141312
0.00177719
0.000153938
0.000138177
0.000136306
0.00015412
0.000150773
0.0246176
0.000150364
0.000142314
0.000144311
0.000181721
0.00292595
0.000220786
0.0262922
0.000134883
0.000155554
0.000135423
0.000219913
0.00014375
0.000134844
0.00014245
0.00275376
0.00289978
0.000143117
0.000158836
0.000206998
0.000129884
0.000170298
0.000194059
0.000154804
0.000144796
0.000238223
0.000215642
0.000153765
0.000146086
0.0117196
0.000144762
0.00501991
0.00013808
0.000143135
0.000146316
0.000148721
0.000157888
0.000153716
0.000143242
0.000145285
0.000141238
0.000253055
0.0191335
0.000144681
0.000142142
0.000145568
0.000219417
0.00015411
0.000147221
0.0233046
0.000238108
0.000132957
0.000153914
0.000141652
0.000216125
0.000155057
0.00398867
0.000169449
0.000132633
0.00908888
0.000152084
0.000144101
0.00490649
0.0174298
0.000146547
0.000156064
0.000146473
0.000142282
0.00014629
0.000211904
0.000164004
0.000160633
0.000144268
0.00343033
0.000142642
0.0046224
0.000141502
0.000143367
0.000141907
0.000195747
0.000146132
0.00276621
0.00014243
0.000139356
0.000153611
0.000140111
0.000148489
0.000140628
0.000139474
0.000631528
0.000159801
0.000135883
0.000145748
0.000142968
0.000180177
0.000139528
0.000144106
0.000155505
0.000146584
0.000170602
0.000143959
0.000103415
0.0126873
0.000149689
0.00014646
0.000232394
0.00428365
0.00014934
0.00013531
0.000145754
0.000160605
0.00020349
0.00014048
1.97334e-05
0.000195982
0.00015016
0.000147989
0.00014659
0.00257686
0.000144419
0.0310908
0.000159026
0.00015433
0.000195551
0.000199032
0.000150999
0.000143452
0.000220501
0.0340575
0.00023434
0.000156641
0.000144662
0.000195986
0.000148685
0.000156088
0.000147385
0.000148878
0.000150757
0.00014376
0.00123084
0.000248641
0.000148982
0.000144364
0.000239397
0.000157377
0.000138181
0.00019403
0.000180713
0.000175449
0.000151631
0.00346089
0.00307185
0.00570391
0.000147467
0.00486717
0.000143102
0.000133374
0.00360138
0.000161511
0.00668882
0.000144111
0.000149202
0.000179682
0.000147748
0.000143264
0.000148098
0.00019388
0.000231181
0.0313394
0.00299734
0.000163373
0.000155488
0.00014026
0.000139406
0.000149177
0.000141436
0.00014919
0.0309072
0.000196462
0.000138787
0.000142895
0.000199692
0.00618216
0.000236562
0.000140952
0.00013436
0.000183844
0.000140935
0.00014338
0.0200356
0.000136671
0.000150259
0.000149568
0.000360514
0.000149495
0.000200747
0.000198253
0.000151675
0.000148208
0.000149523
0.000146671
0.000144151
0.000230071
0.0297125
0.000146573
0.000157321
0.000142812
0.00534391
0.000184135
0.000263058
0.0383764
0.000158098
0.000180106
0.000906141
0.0001463
0.000139517
0.000144202
0.000149518
0.000161775
0.000148666
0.000139742
0.00474373
0.000141856
0.000135873
0.000139289
0.000141942
0.0022229
0.00369518
0.000158127
0.00277189
0.000139603
0.00013588
0.000229408
0.00381232
0.000185851
0.000145849
0.000153695
0.00014156
0.000147181
0.00383175
0.000147606
0.000152647
1.97254e-05
0.00498917
0.000135791
0.00013586
0.000152559
0.000133093
0.00464264
0.000285342
0.000139417
0.000158842
0.0348312
0.000143429
0.00466401
0.000148179
0.000136349
0.000144609
0.00015761
0.000147966
0.00013903
0.000143792
0.000165565
0.00390538
0.000135147
0.00013656
0.00262697
0.000147398
0.00014427
0.000180336
0.00015501
0.000147422
0.000139341
0.000192489
0.000142884
0.000157977
0.000158804
0.000199855
0.000194192
0.000142621
0.0001482
0.000143392
0.000171207
0.000136227
0.000152428
0.00102394
0.000148091
0.000154107
0.000190745
0.000140935
0.000191881
0.000134324
0.000153387
0.000450722
0.00574341
0.000142106
0.000233959
0.000140928
0.000140505
0.000224572
0.000136247
0.00014985
0.000142292
0.000144051
0.000148611
0.000140014
0.000149355
0.000147799
0.000178864
0.00494545
0.000134982
0.0178028
0.000144407
0.00378551
0.000141104
0.000136229
0.000136198
0.000142955
0.000135972
0.0001532
0.0003924
0.000144493
0.000160253
0.000138826
0.00013318
8.6683e-05
0.0077329
0.000142746
0.00014632
0.000197528
0.000149506
0.000135441
0.0017112
0.000178338
0.000139569
0.000149719
0.000136826
0.0375316
0.000142637
0.000145491
0.0329476
0.000260185
0.000144077
0.0274525
0.000143781
0.000136927
0.000139026
0.00013963
0.00788603
0.000155439
0.000155803
0.00763708
0.000147053
0.000147032
0.000135174
0.000151988
0.00457165
0.000189733
0.000153859
0.000147407
0.000201173
0.000144393
0.000145446
0.00016329
0.00013514
0.000153745
0.000137104
0.000148298
0.000138771
0.000174918
0.00110628
0.0361294
0.000217641
0.000164693
0.000178463
0.00014444
0.000173259
0.000143066
0.000143333
0.000175455
0.000148802
0.000147241
0.00015826
0.000139539
0.000161019
0.00156556
0.000155577
0.000143636
0.000144753
0.000144293
0.000138503
0.000145896
0.000168053
0.000214398
0.00470319
0.000139331
0.0027336
0.000143207
0.000139573
0.000159362
0.00016248
0.000143327
0.000139486
0.000140467
0.0234721
0.0016393
0.00484882
0.0292751
0.00218252
0.000169772
0.00866674
0.000142116
0.000148532
0.000158022
0.000141507
0.000134618
0.000181021
0.000144114
0.0113221
0.000142698
0.000143427
0.000146095
0.00014135
0.000190615
0.000142724
0.0014621
0.000138213
0.000167997
0.0328163
0.00015183
0.00591156
0.000147367
0.000148143
0.000165549
0.000140495
0.000139567
0.000186568
0.000165032
0.00014294
0.000138746
0.000143055
0.000122504
0.000281941
0.000148277
0.000140251
0.000147151
0.000137404
0.000136382
0.000287005
0.000138738
0.000267871
0.0365066
0.000145836
0.000135932
0.000195988
0.00014533
0.000222638
0.000695047
0.000139936
0.000150512
0.000191595
0.000177628
0.000189753
0.00014123
0.000157933
0.000161484
0.000172586
0.00014739
0.000154318
0.000160791
0.000137259
0.000144327
0.000156608
0.000145627
0.00236438
0.000144611
0.000597574
0.000184157
0.000183614
0.000144872
0.000164574
0.000158838
0.000228188
0.00014174
0.000140122
0.00568861
0.00842057
0.000148523
0.00019546
0.00200549
0.000143551
0.000148484
0.000158208
0.000140666
0.000193657
0.000143512
0.000180484
0.000136316
0.000197256
0.000580712
0.000220081
0.000196187
0.000143383
0.000135339
0.0356198
0.00454034
0.000209556
0.000143453
0.00014102
0.000247646
0.000142894
0.000149776
0.000123652
0.00014155
0.000373196
0.000155712
0.000150695
0.00014589
0.000167913
0.000163603
0.000182005
0.000157835
0.000150249
0.000141657
0.000145492
0.000555006
0.000145878
0.000143617
0.0001391
0.00312788
0.00383691
0.000183019
0.000196216
0.000137211
0.000209454
0.000141676
0.00013936
0.000135627
0.000153521
0.000136206
0.0138186
0.00015464
0.000147973
0.0207827
0.000208905
0.000159634
0.000143515
0.00014276
0.000133633
0.000144137
0.000132485
0.00959635
0.000148017
0.000146571
0.000172692
0.00195467
0.000194236
0.000170393
0.000202294
0.000141557
0.000137753
0.00587564
0.000144456
0.000136363
0.0119899
0.000140092
0.000143802
0.000134226
0.000143264
0.000141657
0.00013916
0.000192529
0.00345928
0.0164243
0.000179979
0.0278142
0.000161863
0.000140211
0.000467814
0.000143541
0.000262791
0.00014628
0.00255828
0.000137556
0.000318117
0.000389103
0.000150993
0.000134752
0.000145431
0.000160022
0.000142866
0.00433167
0.000135806
0.000154116
0.000153101
0.000192621
0.000142646
4.15628e-05
0.000140773
0.000138635
0.000140041
0.000165596
0.000133957
0.00321437
0.000139988
0.0148164
0.000238875
0.000171927
0.000143271
0.000155158
0.000139364
0.000149793
0.000139029
0.000150055
0.00270502
0.000139146
0.0179565
0.000142348
0.000165676
0.000169929
0.000140415
0.0269653
0.000143787
0.000149523
0.000156067
0.0142066
0.000157307
0.000142587
0.000135828
0.000180819
0.000198916
0.000159442
0.000157816
0.000155044
0.00014898
0.000142343
0.00014171
0.000152293
0.000160815
0.000144906
0.000154658
0.000138363
0.00261272
0.0362689
0.000147454
0.000145151
0.000340197
0.000360241
0.00014661
0.000151205
0.000150736
0.00014803
0.0001381
0.000156985
0.000139995
0.000143209
0.00464088
0.00013792
0.000141127
0.000168319
0.000139794
0.000268076
0.000215147
0.000155239
0.000144974
0.0176373
0.000206573
0.000198101
0.000150818
0.00838889
0.000174697
0.0379295
0.000137342
0.000155993
0.000175973
0.000143504
0.000155303
0.000162976
0.000143036
0.000143391
0.000168517
0.000146519
0.000159296
0.0012825
0.000146289
0.000143718
0.000273696
0.000146734
0.000186796
0.00013906
0.00155522
0.000149164
0.000147138
0.000134974
0.0042444
0.00185592
0.000136416
0.000199704
0.000177996
0.0101617
0.038116
0.000142637
0.00018
0.0173941
0.00427442
0.000142679
0.000196301
0.000170069
0.0205986
0.000149227
0.000151026
0.00019846
0.000198799
0.000149995
0.00493887
0.000151825
0.000193447
0.000140798
0.000145118
0.000141627
0.000199034
0.000144119
0.000204801
0.0338861
0.000195251
0.00013539
0.000143158
0.000145543
0.000166588
0.000137813
0.000143965
0.000402863
0.0367464
0.000681985
0.000145919
0.000142782
0.000140354
0.00544105
0.000147268
0.000153634
0.000137665
0.000131878
0.000168754
0.0364019
0.00015554
0.000138979
0.00023076
0.0119766
0.000148747
0.000139099
0.000209865
0.000209375
0.000144191
0.000829241
0.000155514
0.0367108
0.0315585
0.0188206
0.000150438
0.0283125
0.00425273
0.000152122
0.00377339
0.000166793
0.000149287
0.00341267
0.00273019
0.00467039
0.010831
0.0134238
0.000140303
0.000194564
0.00016561
0.0002014
0.0383894
0.0385411
0.000143597
0.00719579