/*--------------------------------*- C++ -*----------------------------------*\
| =========                 |                                                 |
| \\      /  F ield         | OpenFOAM: The Open Source CFD Toolbox           |
|  \\    /   O peration     | Version:  v2012                                 |
|   \\  /    A nd           | Website:  www.openfoam.com                      |
|    \\/     M anipulation  |                                                 |
\*---------------------------------------------------------------------------*/
FoamFile
{
    version     2.0;
    format      ascii;
    class       volScalarField;
    location    "300";
    object      omega_0;
}
// * * * * * * * * * * * * * * * * * * * * * * * * * * * * * * * * * * * * * //

dimensions      [0 0 -1 0 0 0 0];


internalField   nonuniform List<scalar> 
18166
(
0.552
0.021492
0.170428
0.0798643
0.0646978
0.0501906
0.0211218
0.0215364
0.0290977
0.551628
0.0214989
0.0725114
0.0271062
0.0371501
0.0262214
0.0217593
4.21477
0.0209546
0.0235125
0.839221
0.0222354
0.0226904
0.0236962
0.0223337
0.341374
0.135958
0.0215665
0.412641
0.0215835
0.0211819
0.019477
0.269088
0.0356495
0.344418
0.10516
0.0214933
0.0206343
0.0204186
0.0246203
0.0722864
0.0289893
0.0243253
0.0217624
0.0233451
0.13054
0.0206983
0.0219388
1.54791
0.0195218
0.813022
0.431816
4.1544
0.0195149
0.0217176
0.0206884
0.0213814
0.502001
0.0214233
0.0982563
0.0213907
0.0212619
0.0208201
0.0210641
0.0214786
0.0219549
0.0208451
0.0209925
0.0217197
3.09719
0.0205012
0.0266908
0.0796854
0.067846
0.0284578
0.0204947
0.0339793
0.771017
1.18451
0.200358
0.0263085
0.0221678
0.0239817
0.106919
0.0203681
0.0206936
0.0212678
0.0215449
0.021471
0.021176
0.451646
0.0203605
0.0208004
0.024316
0.0211799
0.0280051
0.0218054
0.107865
0.0213475
1.40997
3.60253
0.0223664
0.0210071
0.0211751
0.413653
0.0204251
0.518217
0.0210558
0.0213962
0.019886
0.0215297
4.82705
0.117938
4.66684
2.99512
0.0225394
0.406848
1.18089
0.0251486
0.02226
0.0200587
0.0216776
0.0200518
0.0248018
0.0207496
0.0212274
0.0236481
0.0234723
0.0223067
0.0208159
0.0214572
0.0211118
0.0214912
0.0665099
0.0221856
0.0372397
0.418082
0.021226
0.216691
0.0210311
0.23198
0.0215666
0.0216686
0.0235894
0.462541
0.0195605
0.106578
0.457367
0.0206359
0.0209682
3.60735
0.0229395
0.0221763
0.264608
4.48622
0.0695848
0.0209705
0.0216487
0.0225034
0.0702339
0.0224956
0.0215325
0.0222534
4.27336
0.0219883
0.0214964
0.0234798
0.0491075
0.0214777
4.52171
0.0215668
0.0290645
0.419692
0.0211904
1.55026
0.0220309
0.789115
0.0211387
0.38137
0.0213756
0.0218306
0.0207479
0.0208302
0.395147
0.337374
0.0232228
0.0213549
0.0213593
0.0217893
0.0223215
0.0220324
0.0224073
0.0232186
0.701847
0.0222358
0.0223042
0.177379
0.148763
0.383935
0.0215788
0.0209987
0.0225949
1.36483
4.53298
0.0226608
0.0213947
0.0692874
0.021709
0.0805609
0.0660906
0.0226602
0.0211695
0.0681799
0.0666172
0.0213851
0.0246092
0.0216188
1.52673
0.021672
0.0224397
0.0212607
0.0241217
0.374809
0.0371894
0.0216124
0.0219901
0.443539
0.0208104
0.0211644
0.015848
0.0214958
0.0223922
0.0200669
0.15343
0.0200712
4.43045
0.38373
0.38335
0.0219913
0.0222879
0.0677239
0.0208412
0.0366566
0.0226191
0.463801
0.0214155
0.0200504
0.208567
0.0200566
0.026902
0.0520265
0.366456
0.0212548
0.0214823
0.0627678
0.0217119
0.0216565
0.0216114
0.0214411
0.0214744
0.0217803
0.0381303
0.0382116
0.0217646
0.0211481
0.0218737
0.025215
0.313046
0.0214432
0.0209724
0.264236
0.021004
0.0214011
0.0500927
0.267409
0.0263371
0.0209668
0.425229
0.02069
0.021466
0.102151
0.0211038
0.0222408
0.0355616
0.021397
0.0214647
0.0228074
0.074692
0.0609226
0.0209528
0.0222979
0.0195576
0.334656
0.0214985
0.0225858
0.0200549
0.0228239
0.0212544
0.475103
0.0200627
0.568844
0.0297114
0.0584012
3.3116
0.0247683
0.0212116
0.024585
0.0548749
0.0212023
0.0209609
0.0222164
0.0214174
0.0212296
0.0218215
0.0213934
0.021094
0.0221
0.0204281
0.0719008
0.0733854
0.0209984
1.67599
0.0230584
4.5123
0.02305
0.0206793
0.0204354
0.0214015
0.166886
0.0212131
0.0652902
0.0210244
0.0217667
0.020967
0.0216597
0.034813
0.0212589
0.0627291
0.0418684
0.0217515
0.0211262
0.0509407
0.0218507
0.0720377
0.0212189
0.02329
0.021534
0.204923
0.0215624
0.0208463
0.0204326
0.0472376
0.0220198
0.0687827
0.0217848
1.41271
0.0238178
0.0215334
0.0216379
0.470539
0.0531582
0.0212726
0.0212741
0.0200574
0.0234457
0.585363
0.0200611
0.0206702
0.021311
0.021155
0.0244736
0.020769
0.0213481
0.0211716
0.438709
0.0211183
0.0222865
0.0209941
0.0266447
0.0213125
0.0215825
0.0200372
0.0213407
0.0615047
0.554287
0.0200486
0.0215545
0.0330285
0.0631617
0.0222504
0.179559
0.0200304
1.54401
0.0272504
0.0222795
0.366706
0.0706074
0.0213668
0.0200039
0.0212256
0.0841048
0.019997
0.0199732
0.0216676
0.02023
0.0223267
0.0210825
0.0223574
0.0661242
0.304256
0.020227
0.0209519
0.369825
0.0244956
0.0217654
0.0195091
1.60697
0.0218342
0.0213696
0.0207116
0.0223906
0.0210262
0.0195129
0.378407
0.412313
0.0224563
0.0213935
0.0215617
0.0194958
0.0194858
0.0288126
0.0221982
0.0204737
0.0212048
0.0123049
0.0221798
0.0212463
0.0211754
0.101755
0.307705
0.0477452
4.46608
0.18068
0.0488169
0.0732017
0.021255
0.0266703
1.66527
0.0217572
0.0327868
0.0125827
0.0278709
0.0213631
0.0213337
0.0203675
0.0211161
0.0237374
0.0257293
0.0211031
0.0212543
0.0213536
0.0210513
0.0202767
0.0209965
0.0235441
0.0261358
0.0279677
0.0224468
0.0212339
0.0320378
0.0215246
0.0278177
0.0212413
0.0240254
0.0211278
0.188527
0.0215384
0.0224899
0.02173
0.021212
0.682042
0.0270917
0.0210556
0.532721
0.0211955
0.0341239
0.0246062
0.106376
0.0201378
0.0226236
0.0224172
0.0209631
0.021223
0.0212
0.0616551
0.339314
0.027017
0.0214323
0.0247979
0.0214064
0.0213612
0.023558
0.0214169
0.0220558
0.128229
0.0227751
0.021514
0.0212566
0.0209738
0.0231855
0.315898
0.0217186
0.0226263
0.0210087
0.0227825
0.116053
0.0811068
0.0458928
0.0215517
0.258638
0.0214498
0.0223361
0.0826866
0.0417746
0.0623829
4.4536
0.0227935
0.0214145
0.0212369
0.0203376
0.0212741
0.082618
0.0238909
0.312869
1.44817
0.0289206
0.255849
0.0206541
0.0220833
0.0242001
0.0217802
0.0233488
0.0573146
0.0258834
0.0798049
0.0215133
0.0247885
0.0221331
0.0200192
0.928572
0.0211496
0.0260886
0.0214104
0.0209417
0.0413862
0.0195604
0.0200147
0.0617922
0.0680452
0.0211216
0.245879
0.0213919
0.0302672
0.0518733
0.0212554
0.0210761
4.26392
0.0217233
0.0221572
0.0199865
0.0217254
0.0226833
0.0199823
0.414622
0.0211438
0.320039
0.367777
0.0246998
0.0212457
0.0220905
0.021222
0.021464
0.270074
0.0242434
0.0213424
0.18424
0.0216636
0.0211823
0.0207625
0.0648826
0.0215662
0.276501
0.0214364
0.0454033
0.0299749
0.0215143
0.0235678
0.0237506
0.19593
0.0909999
0.0639606
0.0206775
0.0265697
0.0221006
0.0212615
0.0332576
0.0201338
0.031998
0.313152
0.0826642
0.0217002
0.0211779
0.0205171
0.0220572
0.0221465
0.0213693
0.0209374
0.0371827
0.0216181
0.0229524
0.392733
0.0647995
0.0206749
1.59781
2.76443
0.0210221
0.0344084
0.0211867
0.021086
3.55581
0.0249417
0.022488
0.0221374
0.0215075
2.4901
0.062054
0.0276849
0.0209967
0.0241956
0.0219625
0.355717
0.0212334
0.0194955
0.0840136
0.0215316
0.0213691
0.0207951
0.413577
0.0237797
0.0213934
0.0196211
0.0421795
0.0219243
0.0206044
0.378695
0.0243841
4.62691
0.0221904
0.021815
0.0206694
0.0214165
0.0211099
0.0231186
0.0217412
0.0212579
0.0213895
0.0339132
0.0222995
0.380417
0.0212565
0.068508
0.0470062
0.0221169
0.0217805
0.143136
0.389848
0.816169
0.0308491
0.0211362
0.0227894
0.0205881
0.020425
0.0208709
0.0207065
0.0847413
0.049283
1.13309
0.451704
0.441961
0.277293
0.0211825
0.0261707
0.0209463
0.0210288
0.0368282
0.15098
0.149568
0.0339192
0.0619693
0.0213994
0.0211927
0.0473102
0.338213
0.0211912
1.69624
0.0217944
0.021203
0.0231084
0.0211891
0.0221122
0.0240598
1.69519
0.104884
0.0560632
0.0270015
0.424236
0.0311554
0.0232703
0.0214029
0.0218326
0.0299853
0.54491
0.021373
0.140098
0.025154
0.0257353
0.0210102
0.081137
0.0312785
0.0403683
0.810607
0.0596652
0.0248489
0.0311957
0.0591582
0.0209828
0.021488
0.022257
0.136745
0.0239328
0.443086
1.80227
0.835208
0.0212479
0.0213996
0.0215734
0.0211569
0.0311538
0.0133803
0.0237564
0.0215438
0.0212689
0.0277926
0.0210559
0.022122
0.975017
0.0214975
0.307131
0.0204196
0.0225039
0.0512176
0.0283372
0.0224656
0.0331943
0.0719465
0.023693
0.0215611
0.023326
0.0243466
0.356176
0.0212264
0.0212761
0.0209138
0.0209135
0.0194937
0.0221953
0.0754964
0.355611
0.495954
0.0578403
0.0836714
4.44997
0.029694
0.100049
0.0638064
0.353705
0.0224173
0.0218333
0.0209187
0.0256228
0.418327
0.021432
0.021757
0.0213527
0.0226657
0.0927876
0.0211103
0.0212224
0.0289877
0.0208578
0.0218366
0.0213788
0.0214299
0.0206526
0.0854577
0.0214819
0.0211541
0.0185357
0.0179581
0.0227139
1.05918
0.0214042
0.355724
0.0204544
0.021876
0.342767
0.0196516
0.266585
0.0878347
0.0226352
0.0208353
0.024416
0.0221861
0.0233538
0.0224078
0.020635
0.970968
0.0215454
0.0318164
0.0216719
0.0375916
0.0213898
0.0221395
0.0237493
0.0210295
0.021948
0.0206557
0.0214996
0.0229905
0.0210003
0.0522887
0.367084
0.0214358
0.110976
0.100642
0.0224783
0.0206046
0.0387976
0.0243817
0.0207127
0.0230226
0.0334578
0.0211588
0.0160006
0.021752
0.0860678
0.0214461
0.537712
0.354819
0.0211628
0.0226259
0.0213204
0.022503
0.314026
0.0215248
0.361202
0.0206456
0.0212881
0.069309
4.70005
0.396091
0.0207799
0.0378422
0.0212867
0.440998
0.0225436
0.313083
0.0935262
1.70915
0.0204392
0.021559
0.0214412
3.32203
0.0213927
3.8768
0.020771
0.891008
0.121241
0.0245654
0.0234414
0.256242
0.0338747
0.0739083
0.0221124
0.0227034
0.0379459
0.0226877
0.0230568
0.362998
0.368295
0.0216754
0.0217767
0.0214708
0.0225031
0.0211976
0.0216986
0.960899
0.0209152
0.205566
3.02534
0.0285862
0.0787698
0.0214107
0.0211021
0.944656
1.27955
0.428642
0.0420419
1.16843
0.0209491
0.0234613
0.433633
5.47048
0.456127
0.0221169
0.0226371
0.0872874
0.0210486
0.0212546
0.021058
0.0205262
0.0233593
0.0215242
0.0412978
0.0206096
0.955118
0.0217445
0.342801
1.68432
1.12337
0.207704
0.313969
0.210124
3.89875
0.0241494
0.0295204
0.0214248
0.0230913
0.0220339
0.090644
0.0228346
0.119497
0.0249434
0.314008
0.0714336
0.020222
0.0611772
0.0206006
0.0235078
0.562994
0.0214045
0.0236598
0.156432
0.334189
0.80138
0.331734
0.0202838
0.54737
0.0218523
0.0205359
0.0271798
0.0225689
0.526321
0.0239259
0.0211244
0.0361898
0.0216793
0.0219426
0.020819
0.0217586
0.0222021
0.559593
0.0241868
0.0247277
0.318798
0.0214368
0.346596
0.360252
0.0296137
0.0214416
0.025114
0.987722
0.290733
1.70056
0.0220271
0.0206592
0.0410454
0.162311
0.0211387
0.0267044
0.0332276
0.0337924
0.0222015
0.302217
0.486861
0.01962
0.0206661
0.0206191
0.0212283
0.0208025
0.0483367
0.0199585
0.414853
0.396562
0.020986
2.45365
0.0209004
0.0226226
0.0208684
0.0253485
0.0220072
0.02254
0.0719805
0.0220144
0.0217337
0.022337
0.361683
0.0229652
0.0209529
0.0270245
0.020144
0.0367705
4.91052
0.760504
0.0220012
0.0225414
0.022662
0.0220628
0.0228266
0.0881096
0.0543349
0.204745
0.0471978
0.026663
0.0258001
0.0262407
1.53209
0.0209655
0.354783
0.0238107
4.19038
0.0207695
0.405455
0.0215073
0.0204126
0.0214487
0.0195724
0.0207212
0.0562033
0.0214409
0.352302
0.513053
1.64766
0.0211332
0.021694
0.0236277
0.0827278
1.48144
0.0221373
0.0835283
0.021513
0.0257792
0.0256678
0.0217506
0.0223483
0.0213939
0.022144
0.0366388
0.302759
0.332405
0.0217376
0.361197
0.0838756
0.315354
0.06177
0.0223536
0.0215316
0.754743
0.0214384
0.0204167
0.0305572
0.0214201
3.59971
0.0229717
4.17792
0.0243434
0.0209082
0.0212283
0.0220468
0.0401603
0.0209319
0.472527
0.0206378
0.0208277
0.021048
0.0235967
0.0212795
0.0393709
0.0234219
3.38113
0.0214858
0.0212847
0.0215404
0.545194
0.0219997
0.0211631
0.0272988
0.0215351
0.0204376
0.0275742
0.0214385
0.0200916
0.0200907
0.0227181
1.24508
0.857368
0.0214336
0.0213995
0.0218011
0.0255626
0.0270783
0.021982
0.0251044
0.0440373
3.52544
0.0267513
0.0210207
0.0355974
0.0222334
0.166382
0.0266467
0.0221649
0.0801627
0.684039
0.0275169
0.0208437
0.0206272
0.077671
0.02699
0.0206585
0.0231051
0.0215516
0.0224684
0.0213839
0.128598
0.0209171
0.33921
0.0914478
0.0212663
0.126129
0.0391669
0.38911
0.0484583
0.0245093
0.0222599
0.0204377
5.69002
0.0212634
0.0222686
0.0286658
0.0213941
0.0226995
0.392804
0.261865
0.311956
0.0201689
0.0211455
0.0766017
1.66137
0.0218501
0.0221702
1.53217
0.0199728
0.0212492
0.0199617
0.0595879
0.0524388
0.0210309
0.0223687
0.0216516
0.0221716
0.0256125
0.0235446
0.0213379
0.0336975
3.2806
4.50838
0.0236172
0.0199803
0.0243668
0.336982
0.433913
0.0199691
0.0244346
0.0597472
0.0271204
0.0214849
0.0337175
0.021444
0.0329604
0.0213008
0.0229006
0.806917
0.270092
0.0202448
0.022828
0.0223703
0.354999
0.0211961
0.253274
0.0208391
0.0223101
0.0211569
0.0261757
0.0214013
0.0218587
0.0208925
0.305023
3.72937
0.0261229
0.0222006
0.020909
0.262528
0.0223879
0.80686
0.0208336
0.0207843
0.713104
0.0207544
0.0229246
0.0840531
0.124136
0.341758
0.0215983
0.0220888
0.0199765
0.0212871
0.0479506
0.0213948
0.0236017
0.0206131
0.0244885
0.0913968
0.0598415
0.0199835
0.0206067
0.0214625
0.0215094
0.420194
0.0219262
0.287841
0.0244871
0.0208695
0.0241596
0.0202938
0.0831143
0.0217006
0.0754995
0.0213356
0.269717
2.95465
0.0206116
0.0205805
0.0199727
0.0214905
0.0215685
0.0208437
0.0271303
0.0516781
0.0245945
0.399671
0.0201981
0.0207462
0.0206286
0.443252
0.0221986
0.0215165
0.0223293
0.22776
0.0199803
0.0208409
0.0237673
0.0209103
0.0212165
0.0209986
0.0368473
0.0205664
0.0204028
0.121
0.0199878
0.231849
0.0202182
0.380356
0.171762
0.020218
0.0268927
0.0220644
0.0259237
0.0213597
0.038923
0.0832909
0.0199958
0.0200285
0.0211347
0.0256891
0.0206667
0.0214999
0.0214451
0.455379
3.72338
0.0229207
0.0225142
0.0206765
0.0227414
0.022344
0.0208214
0.023935
0.0218605
0.021454
0.0199655
0.120006
0.0203642
0.021401
0.0210655
0.0213699
0.0214456
0.0574259
0.0199725
0.0265341
0.439607
0.242866
0.0214798
0.439255
0.0196078
0.0216731
4.22718
0.387402
0.0227426
0.0239183
0.0210562
0.44576
0.230589
0.0211172
0.0235632
0.0211872
0.0406255
0.120188
1.45223
0.0209842
0.0206557
0.0205577
0.0537328
0.0199824
0.0208276
0.0211334
0.0428783
0.0238451
0.0199809
0.0214924
0.0227642
0.0214092
0.631431
0.0364316
0.0217019
0.456461
0.440987
0.0206048
0.033594
0.0370801
0.0302444
0.0209244
0.978544
0.0425893
0.0200023
0.0828589
0.125947
0.0229396
0.0210981
0.0212836
0.0216035
0.0211585
0.435891
0.442582
0.0199908
0.0200514
0.0213814
0.0324606
0.796404
0.0210478
0.0200091
0.021055
0.0215084
0.0200102
0.0221271
0.0200509
0.343124
0.0202221
4.13825
0.249128
0.0223448
0.0212795
0.020953
0.0226111
0.0221424
0.0208927
0.465096
0.513955
1.00516
0.0211406
0.1408
0.0232513
0.486602
0.0214235
0.0396968
0.0238958
0.0399556
0.0219916
0.0206638
0.0236942
0.36883
0.0282173
0.0244552
0.0214169
0.0204447
0.346683
0.0219343
0.0966372
0.798676
0.0210843
0.0200232
0.0204505
0.020094
0.021169
0.0213046
0.0265535
0.0214089
0.352515
0.0217004
0.0212982
0.0208259
0.0416131
0.0219834
0.0201309
0.0212698
0.0201001
0.0201067
0.0208307
0.020422
0.0203648
0.440701
0.588587
0.0201141
0.0209501
0.021092
0.0218297
0.0219119
0.0215355
1.6123
0.358282
0.450497
0.0218618
0.0224912
0.0212545
0.0201206
0.0202256
0.0217411
0.0974741
0.0222627
0.682158
0.0209549
0.0214019
0.0913112
0.0250052
0.0211978
0.533694
0.449971
0.0563264
0.020005
0.0220627
0.0209396
0.430133
0.112774
0.0761742
0.13129
0.0353977
0.474349
0.0625921
0.0188329
0.0212089
0.102861
0.0479543
0.308404
0.0215826
0.0242257
0.0643156
4.29135
0.0201389
0.0169472
0.0405537
0.0200383
0.0208985
0.0210372
0.0201112
0.0215445
0.021445
0.020567
0.0209562
0.0214338
0.563108
1.63618
0.0207187
0.0240998
0.0209156
0.0966389
0.335951
0.0219161
0.252756
0.0233504
1.50101
0.053991
0.394399
0.0219593
0.0535521
0.0218256
0.0214016
0.13227
0.0212843
0.0208346
0.397605
0.058303
0.0212168
0.020772
0.0214701
0.0213438
1.55681
0.0839461
0.0222013
0.0253772
0.132056
0.367873
0.0227591
0.0233388
0.0214396
0.0214002
0.0207318
1.68849
0.999014
0.847553
0.0223915
0.0208848
0.106017
0.0215178
0.0326697
0.0210846
0.682677
0.0209485
0.0228561
0.0627817
0.0222588
0.0991358
0.0213616
0.0215141
0.0232159
0.0507143
0.0261156
0.0365021
0.0234353
0.0220287
0.0211123
0.0234895
0.020612
0.0223646
0.021347
0.0384081
0.0215561
0.0219767
0.0217849
0.110595
0.0218866
0.0353656
0.0584347
0.0221547
1.00825
0.0218577
0.0217204
0.0222499
0.0209248
0.0213714
0.0237249
3.4939
1.11425
0.0396771
0.0211551
0.0228608
0.233953
4.22696
3.47573
0.0223407
0.0206176
0.0268006
0.0222431
0.0377819
0.0221891
0.021048
0.0231525
0.0420789
0.243507
0.0195546
0.0279643
0.0221305
0.0216821
4.41627
0.42382
0.0265338
0.0672134
0.0424289
0.153731
0.625833
0.0359517
0.0214014
0.0212307
0.373661
0.035396
0.0652582
0.581714
0.0218535
0.0558115
0.0212166
0.0211962
0.0210566
0.021556
0.145744
0.0211875
0.021009
0.252103
0.0213051
0.547062
0.0214063
0.0201613
4.41613
0.0195024
0.0218964
1.64303
0.0212731
0.0211161
0.0203995
0.0201574
0.433556
0.0209507
0.0210824
0.0915908
0.02011
0.0233148
0.022189
0.0218502
0.0513201
0.0220261
0.0311107
0.066889
0.0213781
0.0195486
0.0208943
0.0232732
0.420013
0.0215666
0.55088
0.0201662
0.244287
0.0205564
0.0239131
0.00233279
0.0208494
0.470651
0.0215966
0.179858
0.0213919
0.0210196
0.0213501
0.0212931
0.0221025
0.0199655
0.053968
0.0249359
0.0545426
0.0215451
0.0226386
0.211364
0.319774
3.44971
0.513472
0.564647
0.0260698
0.122379
0.0212451
0.020741
0.0447364
0.0208161
0.00897699
0.0607171
0.0210442
0.0241154
0.0202574
0.0207228
0.0233894
0.0647124
0.0212941
3.75561
0.021472
0.0209246
0.33214
0.0217073
0.0206016
0.0203739
0.0224396
0.0224094
1.62715
0.0221074
0.0210612
0.0212262
0.0557938
0.421449
0.0334801
1.62108
0.0201931
0.0246085
0.0202689
0.0764292
0.021231
0.0201893
0.021106
0.451547
0.342054
0.0213126
0.0261847
0.0255348
0.0195027
0.0342567
0.0977332
0.0220617
0.0213956
0.189905
0.0383599
0.0235142
0.0215153
0.793121
0.0213097
0.537476
0.020592
0.0212611
0.0215139
0.02195
0.026015
0.0222094
0.021271
0.0213977
0.0210292
0.0209156
4.20501
0.0212667
0.0209185
0.0215281
0.186556
0.0236839
0.0217623
4.39861
0.0993364
0.0197742
0.0236792
0.0210678
0.0731981
0.0228809
0.562551
0.0370862
0.0860702
1.18732
0.0228255
0.0212186
0.614116
3.30466
0.0211263
0.0220786
0.0215049
0.021217
0.0214998
0.21794
0.0245679
0.0276144
0.0214036
0.311383
0.0212011
0.358971
0.0210627
0.0213553
0.0211622
0.141265
0.0214848
0.435653
0.0212128
0.0208031
0.0229359
0.0209007
0.0218653
0.0208291
0.0207125
0.42068
0.0275267
0.0201312
0.021577
0.0210815
0.0535277
0.0208288
0.0214321
0.0221471
0.0215307
0.0313973
0.021182
0.0465336
0.795241
0.0218104
0.0215583
0.168685
0.403277
0.0218647
0.0202518
0.0215572
0.026363
0.14748
0.0209584
0.151251
0.0338874
0.0221134
0.0217806
0.0215152
0.436389
0.0214066
4.16269
0.023965
0.0230735
0.0337306
0.130853
0.0225158
0.0213625
0.0890339
5.05127
0.116517
0.0220582
0.0214738
0.147288
0.0218995
0.0247119
0.0216796
0.0220413
0.0224075
0.0213671
0.413646
0.103471
0.0219652
0.0209783
0.106696
0.0244431
0.0206437
0.129016
0.0573973
0.0401577
0.022809
0.271094
0.270822
0.419695
0.0217208
0.52915
0.0213129
0.0198078
0.350049
0.0277842
0.431775
0.0214092
0.0220633
0.0318023
0.0215723
0.0213502
0.0218213
0.110227
0.115773
2.94392
0.31171
0.025358
0.0244119
0.0207602
0.0208129
0.0213302
0.0208255
0.0219204
3.47424
0.0692421
0.0206087
0.0211987
0.0898236
2.83035
0.0414338
0.0209843
0.020055
0.0408317
0.0207691
0.0213548
1.59934
0.0201898
0.0214316
0.022142
0.107065
0.0220779
0.0952901
0.108418
0.0222245
0.0217942
0.0220974
0.0215889
0.0214156
0.0400032
1.613
0.0215661
0.0253585
0.021198
0.44394
0.0469248
0.185764
3.8946
0.0259821
0.0504247
0.240805
0.0215287
0.0207905
0.0213903
0.0218066
0.0278801
0.021334
0.0206055
0.567761
0.0211529
0.0197596
0.0207956
0.0208783
1.39862
0.347564
0.023135
0.316919
0.0208286
0.0201374
0.0412108
0.264225
0.0629448
0.0214626
0.0234941
0.0210763
0.0215429
0.266562
0.0216973
0.0230754
0.0245425
0.446515
0.0200374
0.020046
0.0230182
0.0203413
0.370905
0.097874
0.0207808
0.0266908
4.78508
0.0213054
0.570663
0.021814
0.0200208
0.0213471
0.0253552
0.0214664
0.020671
0.0214095
0.032851
2.39275
0.0201008
0.0204022
0.311623
0.0216734
0.0213513
0.05282
0.0240199
0.0217031
0.0205623
0.107191
0.0212931
0.0234026
0.023942
0.17722
0.192917
0.0212707
0.0218177
0.0213707
0.0370142
0.0201663
0.0231108
0.281296
0.0218118
0.0236545
0.0699248
0.0208625
0.0401561
0.0199236
0.0234521
0.164499
0.42692
0.0211691
0.0631787
0.0207561
0.0207117
0.036834
0.020035
0.0221991
0.0214726
0.0213741
0.021915
0.0208413
0.0220703
0.0217509
0.0541737
0.449641
0.0849099
1.35657
0.0214356
0.255645
0.0207953
0.0201685
0.0200418
0.0212475
0.0203431
0.0227942
0.300876
0.0214514
0.0233306
0.020676
0.0197921
0.263358
0.84936
0.0212107
0.0214996
0.071409
0.0221029
0.020027
0.448568
0.160165
0.0207985
0.0221469
0.0204642
3.6636
0.0212614
0.0215602
4.45283
0.152915
0.0213661
1.5818
0.0214102
0.020408
0.0205317
0.0208361
0.778113
0.0226427
0.0226182
2.83084
0.021464
0.02158
0.0201073
0.0230281
0.515251
0.0724155
0.0236508
0.0216309
0.0770824
0.0213321
0.0215474
0.0237045
0.0202306
0.0236128
0.0205005
0.021857
0.0207291
0.0392878
0.243646
4.56536
0.0926335
0.0319796
0.0530149
0.0213654
0.0413282
0.0210647
0.0213457
0.0300546
0.0216795
0.0216798
0.0228751
0.0208393
0.0279303
0.32861
0.0227496
0.0213863
0.0210593
0.0213598
0.0206705
0.0214394
0.0282049
0.0377029
0.347444
0.0208827
2.08299
0.0213199
0.0208272
0.0225231
0.0239387
0.0212962
0.0205929
0.0207088
1.72416
0.303695
2.54004
1.61133
0.274844
0.0375547
0.788559
0.0210446
0.0215478
0.0257107
0.020819
0.0201576
0.0519162
0.0213811
0.813626
0.0212685
0.0213636
0.0215291
0.0208255
0.0223641
0.0210548
0.28156
0.0195204
0.0323416
2.99282
0.0224626
0.430722
0.0216781
0.0217877
0.0303294
0.0207011
0.0208043
0.0394353
0.0304633
0.0212092
0.0205011
0.0212568
0.131596
0.366114
0.0218259
0.0208939
0.0216803
0.0204966
0.020161
0.176559
0.020688
0.1655
4.39308
0.0215621
0.0201353
0.0211546
0.021489
0.0933436
0.254997
0.0208854
0.0222247
0.0622044
0.0442808
0.0673629
0.108389
0.0258995
0.0226176
0.0363262
0.0216694
0.0216026
0.0270461
0.0203742
0.0212329
0.0218166
0.0214115
0.352574
0.0213763
0.188935
0.0378629
0.0566346
0.0210821
0.0295902
0.0259352
0.196143
0.021017
0.0206645
0.417697
0.8739
0.0218573
0.103666
0.274965
0.021379
0.0218634
0.0245939
0.0209935
0.0866478
0.021158
0.0527564
0.0201628
0.0866972
0.27574
0.0924643
0.152739
0.0212869
0.0201188
3.11649
0.395356
0.035034
0.0213553
0.0207913
0.0455537
0.0229604
0.0221792
0.0332794
0.0210643
0.0373448
0.0245674
0.0224478
0.0214952
0.0321727
0.0237156
0.053268
0.0222931
0.0221954
0.0210858
0.0214203
0.160867
0.0214348
0.0213863
0.0207705
0.388508
0.452031
0.0509609
0.0258553
0.0204494
0.0652565
0.0210641
0.0205637
0.020103
0.0234859
0.0201741
3.71113
0.0235427
0.0217797
1.504
0.095108
0.0236591
0.0211383
0.0212773
0.0198317
0.0213466
0.0197189
1.12388
0.0217841
0.0217061
0.0362624
0.334351
0.0583233
0.0349175
0.0457782
0.0210533
0.0205622
0.434193
0.0214344
0.0201331
1.05284
0.0206466
0.0211696
0.0199241
0.0212717
0.0211306
0.0207793
0.0825742
0.358038
1.21979
0.0433215
3.55714
0.0233471
0.0206262
0.535464
0.0213799
0.0668879
0.0215451
0.359535
0.0205146
0.0673543
0.298899
0.0223624
0.0201766
0.0214922
0.0274401
0.0211929
0.862649
0.0202211
0.0230435
0.0232416
0.0555666
0.0212741
0.0966446
0.0208793
0.0206779
0.0209053
0.0255738
0.0198578
0.407973
0.0208953
1.20378
0.0636277
0.0234654
0.0212767
0.0242905
0.0207727
0.0222036
0.0207627
0.022269
0.617051
0.0207856
1.5148
0.0212209
0.0284391
0.0339986
0.0206941
3.53052
0.0213641
0.0221203
0.0244583
0.813601
0.0247798
0.0211104
0.020125
0.0478452
0.0268389
0.0262934
0.0220269
0.0221593
0.0220061
0.0212259
0.020868
0.0230561
0.0262293
0.0213187
0.0238397
0.0205581
0.365891
3.814
0.021791
0.0213131
0.178161
0.117003
0.0215299
0.0220498
0.0225111
0.0217663
0.0204084
0.0231109
0.0208941
0.0213305
0.591566
0.0205137
0.0207862
0.0248696
0.0206211
0.0828073
0.113481
0.0241007
0.0214539
3.38502
0.0315209
0.0971221
0.0224588
0.874294
0.0394072
4.24764
0.0204995
0.0226001
0.0252618
0.0213423
0.0227539
0.029722
0.0212108
0.0213496
0.035808
0.0214598
0.0264771
0.31776
0.0215482
0.0214032
0.0471806
0.0216513
0.0719924
0.0205311
0.249717
0.022025
0.0216287
0.0202041
0.299408
0.372676
0.0204076
0.137936
0.0449385
0.965054
4.40011
0.021263
0.0534862
1.46152
0.311896
0.0212492
0.0410664
0.0381959
4.27872
0.0220344
0.022594
0.180455
0.0792925
0.021941
0.422333
0.0228872
0.131788
0.0209137
0.0213511
0.0209577
0.0722849
0.0213419
0.0879332
4.43288
0.0447635
0.0201167
0.021321
0.0213684
0.0334788
0.0205428
0.0213691
0.0496964
4.40771
0.101796
0.0215117
0.0211922
0.0209426
0.44917
0.0216807
0.0224752
0.0205529
0.0196439
0.0366104
4.60788
0.0242168
0.0206549
0.0423067
3.0097
0.0219532
0.0207174
0.0339845
0.0331253
0.0207966
0.122232
0.0242705
4.42141
4.14678
3.29375
0.0224252
4.42325
0.54704
0.0228362
0.26616
0.029132
0.0220412
0.30058
0.372382
2.00329
2.94445
0.802244
0.0208579
0.0793058
0.552525
0.0302611
3.75676
4.26293
0.0213782
0.447624
0.0207868
0.0213378
0.18083
0.0197567
0.0214077
0.0210903
0.0217689
3.4993
0.0252131
0.250833
0.0217701
1.22755
0.0207629
0.0215053
0.0206767
2.7721
0.0214759
0.0229086
0.191044
0.0212227
0.0208083
0.0239184
0.0236721
0.0242857
0.0253503
0.0344023
1.27347
0.0206126
0.0213275
0.0217391
0.0588256
0.419054
0.0213735
0.0213845
0.398352
0.0214377
0.0206033
0.17151
0.0209335
0.0327118
0.0199692
0.342554
0.0354785
0.131946
0.0209577
1.35211
0.0235569
0.0208296
3.77595
0.0214375
0.381222
0.0379322
0.0217239
0.260965
0.175301
0.0215993
0.061386
0.0227252
0.0203734
0.0213907
0.0216544
0.136735
0.0327268
0.0210322
0.227965
0.0638812
0.021341
0.0220368
0.0204973
0.287262
0.200133
0.0208118
0.051273
0.343716
0.183085
0.0205162
0.0231026
0.168588
0.0209352
0.0212741
0.0207071
0.0315057
0.301811
0.0268755
0.0238972
0.0217333
0.0208138
0.0203423
0.0785316
0.0207089
0.0201106
0.35311
0.021268
0.0276018
0.0213773
0.168372
4.41311
0.0222568
0.0210532
0.426166
0.0212272
4.58187
0.0406906
0.426446
0.43147
0.311342
2.77333
0.0211382
0.656909
0.0235216
0.0227447
0.0209835
0.0247794
0.208743
0.0229415
0.0216189
0.0351009
0.690033
0.0209039
0.0202004
0.0377955
0.0285704
0.0203515
1.17315
0.0874397
0.0213907
0.0208944
0.0212717
3.45481
0.252128
1.63473
0.0227326
0.0562698
0.0214044
0.0210801
0.0389743
0.123703
0.0214152
0.18746
0.209829
0.0211802
0.021243
0.0252071
0.0231582
0.0272019
0.020911
0.301985
0.024671
0.0214767
2.2402
0.0214385
0.134623
0.0213127
0.020999
0.190543
0.711033
0.0204129
0.0211025
0.0210743
0.0340141
0.0199596
0.0752088
0.0214389
0.0214841
0.291764
0.13469
0.0201632
0.246692
3.08428
0.62591
0.0243504
0.0201315
0.0212768
0.366022
0.212239
0.0206846
0.0203964
0.69008
0.0618531
0.0226407
0.0210312
0.0442554
0.285
0.0209787
0.30494
0.246007
0.0211825
0.0225658
0.0320389
0.387232
0.129088
0.02199
0.0334734
1.0751
0.0348973
3.66986
0.0208862
0.104959
0.0258803
0.212562
0.0283787
0.555164
0.0738183
0.0202345
1.69579
0.0240917
3.19101
0.0575652
0.139335
1.1122
0.120741
0.0215019
0.111958
0.122082
0.0233737
0.0292584
4.03504
0.236964
0.0206763
0.131864
0.223195
0.002322
0.0227107
0.0205072
3.52609
0.0219859
0.0211138
0.0214374
0.0777074
3.41443
1.60558
0.019996
0.0214236
0.184363
0.177536
0.0255031
0.0880501
0.0330508
0.0222199
0.0214893
0.219949
0.0217004
0.0272035
0.0227222
0.0212738
0.0288079
0.16006
0.0215473
0.0478993
0.142526
0.169644
0.651955
0.0359342
0.0250511
0.0217155
0.0200435
0.0211274
0.0323507
0.021287
0.0212808
0.351985
0.0214415
0.0213702
0.0234019
0.0226959
0.0210037
0.0922373
0.701185
0.0221097
0.0196011
0.0268916
0.0198775
0.0220407
0.0331832
0.151075
0.147446
0.423102
0.332505
0.314534
0.0268945
0.0132385
0.0218295
0.0215147
0.264538
0.0227884
0.0341403
0.0236369
0.0237762
0.023827
2.22481
0.0238867
0.021455
0.0297107
0.0200432
0.0213892
0.0219086
0.0213576
0.0204415
0.0237721
0.0199491
0.0421135
0.0207965
0.0361286
0.0213538
0.0324126
0.169073
0.0214144
0.0425666
0.0829359
0.021714
4.37127
0.0213309
0.0218386
0.0217429
0.0221703
0.0207241
0.0226404
0.0293248
4.63904
0.0202591
0.0211401
0.0212551
0.104062
0.0236043
0.0217264
0.0233834
0.0366057
0.02205
0.0214182
1.69627
0.0441896
4.74598
0.021142
0.0226163
0.17291
0.0222916
0.0312718
0.138708
1.30426
0.021385
0.0214237
1.44757
0.0226716
0.020584
0.0210006
0.0222666
0.0442166
0.0207888
0.0206135
0.0574938
2.15197
0.0217929
0.0319482
0.0205326
0.0239709
0.0217757
0.361847
0.0302966
1.28447
0.0222263
0.339941
0.0520593
0.0839058
0.0290801
0.0212102
0.0203865
0.020746
0.0934568
0.307248
0.0220817
0.0236306
0.0200002
0.134588
0.0220655
0.0223011
0.0302239
0.29467
0.027067
0.0222935
0.020501
0.0217195
0.0211809
0.315097
0.0210082
0.465352
0.0198869
0.0481624
0.0217923
0.0215359
0.0198798
0.0216987
0.021441
0.0205013
0.048155
0.0249247
1.06437
0.0200305
0.0247121
0.0218942
0.0220268
0.0503642
0.0225217
0.022128
0.0233526
4.48803
0.0205224
0.051248
0.020382
0.0196856
0.022984
0.0231827
0.344436
0.0206766
0.0231872
0.0230857
0.0254258
0.792772
0.0504803
0.0208767
0.0216461
0.0444841
0.0213978
0.0217715
0.0214734
0.0204932
3.82354
0.132469
0.0217921
0.572821
0.0199798
0.0475116
0.0213684
0.0354729
0.0207791
0.0211348
0.298696
0.0297182
0.102577
0.0213811
4.36002
0.0210073
0.0887326
0.0209203
0.0211121
0.0472466
0.0206951
0.026207
0.0856724
3.17947
0.0207708
0.0259622
4.04807
0.0218084
0.0197227
0.918334
0.0249175
0.0238821
0.0656858
0.0205453
0.0506957
0.0271683
4.36355
0.0206656
0.0205747
0.0240173
0.0239368
0.0298041
0.0219694
0.0218749
0.0202679
0.020657
0.020169
0.0264659
0.0819949
0.0201912
0.0217503
0.0487174
0.143142
0.0211629
0.0317845
2.9544
0.0210119
0.0214149
0.0198597
0.0268326
0.0220489
0.0759413
0.0386845
0.0205362
0.0212453
0.19009
0.0210719
0.021616
3.42262
0.155812
0.0596999
0.0264409
0.0213654
0.0235546
0.0198414
0.0258124
0.0309712
0.0533583
0.0197715
0.0205508
0.0289554
0.786161
4.37143
0.0360326
0.299523
0.0219504
0.0224422
0.0222629
0.0578644
0.058776
0.0415354
0.0226157
0.0198698
0.0583388
0.0242816
0.0211337
0.135582
0.0693111
0.0237174
1.24399
0.0233236
0.0581485
0.0215003
0.0234037
0.020429
0.020754
0.0208647
0.0349156
0.0219852
0.0201455