/*--------------------------------*- C++ -*----------------------------------*\
| =========                 |                                                 |
| \\      /  F ield         | OpenFOAM: The Open Source CFD Toolbox           |
|  \\    /   O peration     | Version:  v2012                                 |
|   \\  /    A nd           | Website:  www.openfoam.com                      |
|    \\/     M anipulation  |                                                 |
\*---------------------------------------------------------------------------*/
FoamFile
{
    version     2.0;
    format      ascii;
    class       volVectorField;
    location    "300";
    object      ddt0(U);
}
// * * * * * * * * * * * * * * * * * * * * * * * * * * * * * * * * * * * * * //

dimensions      [0 1 -2 0 0 0 0];


internalField   nonuniform List<vector> 
18598
(
(-0.000472359 0.0027823 3.82552e-22)
(-0.000715179 0.000523608 0)
(-5.74753e-08 -2.27299e-07 -3.73202e-22)
(0.000385821 0.000455986 -1.36519e-21)
(-1.30946e-07 -8.17394e-07 0)
(7.36933e-05 -8.17617e-06 8.46988e-25)
(0.000715639 -0.000276255 0)
(-5.05546e-07 -1.20175e-06 0)
(0.0174478 0.0242581 4.54039e-21)
(-0.00695409 0.00344205 -4.1716e-22)
(-2.13894e-06 9.66356e-07 9.50582e-22)
(-0.0285408 -0.00689681 3.09382e-21)
(3.74428e-07 5.57775e-07 -1.07546e-21)
(-0.025091 0.00157423 -1.91119e-21)
(-7.36792e-07 -4.6634e-06 5.635e-22)
(-0.00862045 -0.0119289 0)
(-0.00582335 -0.00105768 -3.63497e-22)
(5.49013e-05 1.33207e-06 0)
(3.90178e-05 2.26437e-07 0)
(0.00608838 0.0207422 -2.06248e-22)
(4.19594e-06 2.39929e-06 1.29243e-23)
(3.75971e-07 -2.20296e-06 -2.78427e-22)
(-0.0173912 -0.0113515 -4.07756e-23)
(-9.35965e-07 -9.15153e-08 4.86083e-23)
(3.03398e-07 3.77516e-07 -3.45351e-22)
(-0.00631023 -0.00111234 1.61923e-24)
(0.000361244 -0.00397908 0)
(-2.14628e-06 1.12824e-06 -4.89477e-22)
(-0.00109295 -0.00577887 2.71354e-21)
(-5.99016e-05 0.00259344 -3.94024e-22)
(-0.0113787 -0.00137135 0)
(1.54702e-07 -8.83252e-07 0)
(-3.71867e-06 -1.88967e-05 -7.97771e-23)
(0.000970979 -0.00197991 -1.08291e-22)
(0.000705629 -0.000174185 0)
(-0.0189571 0.000391151 1.10874e-22)
(4.40506e-07 -2.22658e-07 -1.074e-22)
(-2.55731e-06 2.09332e-06 0)
(-2.43987e-07 -6.52526e-07 2.9844e-22)
(-0.00568537 0.00106237 -1.01631e-21)
(-0.00497712 -0.00469993 0)
(0.0207881 0.0338391 4.87447e-23)
(-0.013383 0.00171335 3.46511e-21)
(-0.028195 -0.000279032 0)
(-3.71015e-05 -2.46172e-06 -3.18083e-22)
(1.38991e-05 -8.37969e-06 5.90283e-22)
(3.99031e-07 1.32352e-07 0)
(-0.0145561 -0.010641 -2.75984e-22)
(-2.66811e-08 1.21277e-06 -3.54311e-22)
(4.34873e-07 3.35836e-07 0)
(5.2857e-07 7.7333e-09 -4.96938e-22)
(0.00421267 -0.0236725 0)
(-0.00148523 0.0160957 -2.78464e-21)
(0.00429091 0.00111892 -3.36211e-22)
(1.46579e-07 -2.95618e-06 3.22212e-22)
(5.88578e-07 -7.07411e-08 7.88248e-22)
(-2.31889e-07 2.30944e-06 7.50186e-22)
(9.76741e-08 -1.22166e-07 -2.42385e-22)
(2.10154e-08 1.18676e-06 -5.69049e-22)
(0.000256087 6.39697e-05 0)
(0.0071615 -0.000595858 -1.02432e-23)
(0.0015863 0.00184679 -9.24523e-23)
(-2.33345e-06 1.08217e-06 5.27532e-22)
(-6.05756e-07 -3.17352e-07 -1.80807e-22)
(-0.00479911 -0.00645732 7.3417e-23)
(0.0116564 -0.00833433 2.00796e-21)
(-4.13531e-08 1.60085e-06 1.32212e-21)
(-4.49018e-06 9.73312e-06 5.67185e-22)
(-0.0727512 -0.0532407 0)
(6.23598e-07 2.6169e-07 -8.71513e-22)
(-2.16277e-05 4.45196e-05 2.47246e-22)
(0.000474726 -0.000175777 4.56358e-22)
(-0.0192463 -0.0126346 0)
(-0.00233065 0.0133108 0)
(-9.53235e-07 4.44102e-06 3.64906e-22)
(-0.00427688 -0.00435892 0)
(-7.60291e-07 1.17338e-06 6.28299e-22)
(5.47991e-07 -1.40557e-07 4.05892e-22)
(0.000463302 0.000410068 -5.89045e-22)
(-2.40564e-05 3.99304e-05 -2.47994e-22)
(0.00916122 0.0233268 1.25017e-21)
(1.67221e-05 -8.37036e-06 -3.18384e-22)
(-3.46637e-06 1.80412e-06 0)
(-0.00604598 -0.000992246 0)
(-1.58567e-06 -1.78152e-05 0)
(-0.0119798 -0.00127576 9.70889e-24)
(6.37848e-07 2.94406e-07 1.25894e-21)
(0.00677005 0.0147872 0)
(-1.24413e-07 1.7732e-06 -8.37621e-22)
(0.00011065 0.000102447 0)
(-1.59865e-05 4.48071e-05 -6.47796e-22)
(0.00443761 0.000860038 0)
(-4.26026e-05 -6.81979e-06 3.23316e-22)
(-0.00135043 -0.000757041 0)
(0.0140636 0.0212341 0)
(-1.90404e-06 -7.83243e-07 3.39588e-22)
(-0.00333251 -0.00038473 3.44918e-22)
(-8.5016e-07 5.76574e-07 -1.4329e-22)
(-0.00699997 0.0180985 0)
(0.00121807 -0.00209975 -1.10855e-22)
(-3.29829e-07 2.00809e-06 9.29665e-22)
(5.40245e-08 -9.19022e-08 0)
(1.35995e-05 -0.000150269 1.7092e-22)
(0.000230314 0.000508943 -5.00211e-22)
(0.000456294 0.00036819 1.13387e-21)
(-1.48365e-05 2.47647e-06 1.28003e-21)
(-0.00500602 0.0020519 3.621e-22)
(0.007206 0.000421002 5.13498e-23)
(-2.19941e-06 6.30788e-07 -4.99198e-22)
(-0.00248453 -0.00602915 -1.44929e-22)
(-5.04925e-05 0.000171234 0)
(0.00609089 -0.000762117 -6.72002e-24)
(-1.07011e-06 -2.323e-06 0)
(3.17629e-05 -0.00014416 -1.06891e-21)
(0.00501504 0.000637867 2.93347e-22)
(-1.11887e-05 7.38965e-06 0)
(-0.00328655 0.0217569 -6.43926e-22)
(0.000235526 5.80685e-05 -3.21829e-22)
(-6.42687e-05 4.32616e-05 0)
(4.04661e-07 -2.99594e-07 1.08463e-22)
(0.000159277 -0.00993561 -8.20151e-22)
(-2.14039e-07 -4.11141e-07 3.61753e-22)
(-1.92223e-06 4.36666e-07 -7.95367e-22)
(-4.33106e-05 0.00017048 0)
(0.00157052 0.00117848 0)
(-2.18408e-05 1.04934e-05 0)
(-1.32627e-05 1.95481e-05 0)
(-0.00113415 -0.000632781 0)
(-0.0164557 0.00103515 0)
(2.32691e-07 -2.9154e-07 0)
(7.70662e-07 2.02998e-07 -6.01309e-23)
(0.000425529 0.000514576 1.60669e-23)
(0.0128407 -0.00287004 -1.20247e-21)
(-2.28637e-05 3.87922e-05 -6.1327e-22)
(-0.0678558 -0.0593009 0)
(5.27519e-07 8.54618e-08 4.77446e-22)
(0.000245996 -0.00446708 0)
(-2.08109e-06 6.45605e-07 5.15766e-22)
(4.32513e-07 1.46537e-07 -6.88698e-22)
(4.15876e-06 -0.000755543 3.30061e-22)
(0.0182977 0.0203575 0)
(2.40616e-06 1.59738e-07 6.50911e-22)
(2.92485e-09 2.13693e-06 -1.06907e-21)
(0.0262102 0.000634346 0)
(4.24202e-07 3.78795e-07 -2.67652e-22)
(3.06525e-05 1.31726e-06 8.11966e-22)
(0.0130171 -0.0191484 0)
(0.00507014 0.000247696 -2.92864e-22)
(5.13623e-08 5.76944e-07 -4.94123e-22)
(-7.264e-05 0.000111607 2.2538e-22)
(-1.5632e-05 1.59574e-06 -1.1744e-21)
(3.84801e-05 0.000124951 2.20314e-22)
(1.7408e-06 1.53574e-06 -6.29709e-22)
(-0.00785865 -0.000539211 2.98482e-23)
(-1.61413e-06 -1.07258e-07 1.41713e-22)
(5.74112e-07 1.38147e-07 2.41271e-22)
(-0.00788351 -0.000236669 9.83917e-23)
(-2.30051e-05 1.06586e-05 1.22515e-22)
(6.17087e-07 -1.21324e-07 3.95319e-22)
(-3.19433e-05 -0.000103976 1.17976e-21)
(0.000931233 0.00154572 1.70256e-23)
(-0.00175572 -0.00033674 1.7058e-22)
(7.97042e-08 1.2649e-06 -6.99282e-22)
(8.02324e-07 7.15189e-07 -4.73549e-22)
(1.84532e-07 -4.74632e-07 -8.03588e-22)
(-0.00607695 0.00161431 9.09062e-22)
(0.0120149 -0.0126611 -4.45224e-22)
(-5.65088e-07 -1.43706e-06 0)
(0.000422353 0.000444142 0)
(-0.00215 0.000932139 6.90269e-23)
(-8.19282e-07 3.44331e-06 0)
(0.000197687 0.000345551 -7.92916e-22)
(0.0253397 0.000420395 -3.35225e-21)
(0.0194405 0.0329592 6.49817e-21)
(-4.78768e-05 -1.12195e-05 -4.68884e-22)
(8.9149e-07 -1.78224e-06 1.60509e-23)
(-0.025933 -0.00691413 -2.14496e-21)
(-1.14966e-05 7.86307e-06 -1.07935e-21)
(-3.83753e-05 1.96992e-05 -4.65615e-24)
(-0.00247532 -0.000386243 2.25316e-22)
(-0.00190586 0.00221272 0)
(-0.0290015 -0.00806369 9.1948e-22)
(0.000410772 0.000486791 0)
(1.93171e-07 -1.92775e-05 0)
(0.000792247 -0.000402929 -2.32908e-22)
(-8.06348e-05 9.01212e-05 3.67425e-22)
(-0.00820528 -0.00116308 0)
(0.00339846 -0.000271068 0)
(-4.51622e-07 1.18104e-06 0)
(0.0132912 0.0407804 -2.59574e-21)
(5.68235e-06 3.30245e-06 -5.32578e-22)
(-7.85974e-07 -2.40363e-06 -1.32078e-21)
(0.000433474 0.000460647 2.80827e-22)
(-0.00106258 -0.00202984 6.0152e-24)
(-6.37965e-05 -0.000139052 0)
(-4.8414e-08 2.0659e-07 -3.59827e-23)
(-0.00961552 -0.00649271 1.37426e-22)
(0.00780047 0.000413896 -1.58943e-22)
(0.000770251 0.00142376 -4.72686e-22)
(-0.0139277 0.00579762 -6.18338e-22)
(0.00399618 0.000280093 0)
(5.99815e-07 -1.82727e-07 -4.16877e-22)
(0.000184147 0.000343673 7.59574e-22)
(-1.34417e-07 2.87714e-08 2.18599e-22)
(-1.29013e-05 4.59059e-05 8.66446e-22)
(0.00573637 -0.0194719 -3.66749e-21)
(-0.0353489 -0.020196 5.3578e-22)
(1.53659e-06 1.54449e-06 6.30021e-22)
(-1.94475e-05 1.18848e-05 0)
(4.50384e-05 -1.22659e-05 -3.10729e-22)
(-0.000555466 0.00317692 8.53608e-22)
(-0.00527628 -0.00102899 0)
(6.7342e-07 3.63875e-08 1.53138e-21)
(0.000301908 -0.00546893 0)
(-0.0199435 0.0121786 4.61661e-22)
(-7.39375e-05 -0.000179067 6.40456e-22)
(-0.0245826 0.00695716 4.40054e-22)
(5.86469e-06 -4.34674e-07 4.38847e-22)
(-6.6893e-07 -4.15778e-06 0)
(0.000416485 0.000475868 1.26589e-21)
(5.58675e-07 2.54348e-07 0)
(-6.69219e-07 1.22244e-06 -6.34608e-22)
(3.08693e-05 4.33451e-06 -1.11531e-21)
(-4.64191e-07 2.43731e-07 0)
(0.00045072 -0.000175397 1.28813e-21)
(4.91786e-06 -4.7629e-07 -8.11054e-22)
(-1.99703e-06 -3.06871e-07 -4.97566e-25)
(3.12132e-07 2.8838e-06 1.09712e-22)
(0.00481915 -0.00670905 1.58268e-21)
(-1.11815e-07 -4.6394e-07 -4.92281e-22)
(0.0102653 -0.0044474 0)
(-0.00346396 -0.00113569 -6.76389e-22)
(-4.7271e-07 5.65456e-07 -1.00173e-23)
(4.0328e-06 2.85149e-06 0)
(-0.0292875 -0.033356 -1.39405e-20)
(0.0102867 0.0013837 -3.96517e-21)
(1.6191e-06 -1.85124e-05 -1.73878e-22)
(-8.45905e-05 8.35281e-05 8.13606e-25)
(-4.04784e-07 -9.02805e-09 -8.03664e-22)
(-1.81855e-05 4.45165e-05 0)
(-1.767e-05 1.48769e-05 0)
(-0.00173489 0.000172097 1.13985e-22)
(0.00731759 -0.000124308 -9.85221e-24)
(4.71872e-07 5.86947e-07 0)
(0.000130256 -0.00117872 2.3408e-22)
(1.95573e-05 -8.19956e-06 1.15676e-21)
(0.000152383 0.000362475 -8.55917e-22)
(2.64393e-06 3.67438e-07 -7.29935e-22)
(-9.9373e-05 -0.000191327 -7.45234e-22)
(1.20512e-07 2.48744e-07 -5.92968e-22)
(-0.00766963 -0.000524315 8.7006e-22)
(-0.0291667 -0.0344039 5.51913e-20)
(0.00341475 0.0135759 0)
(0.00938105 -0.00325884 -1.86293e-21)
(2.35717e-05 -0.00102789 3.14373e-22)
(-0.0130918 -0.00929526 -3.22877e-22)
(-0.00016995 -4.69846e-05 -4.05499e-22)
(-0.0465075 0.00425827 -1.66209e-21)
(-1.98557e-06 1.82408e-06 0)
(-0.00666916 -0.00146939 7.94985e-23)
(-3.75657e-05 1.78429e-05 -4.47888e-24)
(8.24325e-05 0.001165 -1.7114e-23)
(-0.00342324 -0.012367 1.96226e-21)
(0.0115733 0.0142694 -1.81154e-21)
(-0.0185041 0.0290426 -3.96641e-21)
(4.30925e-06 1.75477e-05 0)
(4.7274e-07 2.46619e-07 0)
(-0.0110765 0.00181072 0)
(0.00367513 0.000901187 -4.28635e-22)
(-3.84491e-05 -4.08753e-06 -3.83377e-22)
(5.95537e-07 -3.04481e-07 -8.33501e-23)
(7.93951e-07 9.98476e-08 -4.66146e-22)
(0.000777787 -0.000352244 0)
(1.21074e-06 4.64681e-07 5.51442e-22)
(0.00601063 -6.5628e-05 -1.12821e-23)
(0.00916627 -0.0189113 1.50126e-21)
(-0.00308356 0.00207509 -8.84456e-22)
(-0.00552296 -0.000699534 1.63056e-22)
(-0.00512294 -0.00305009 1.08364e-22)
(2.21564e-05 0.00132193 2.36145e-22)
(-0.00161947 0.000275274 -2.38789e-23)
(-0.0123663 -0.00397458 9.73809e-22)
(3.5897e-05 1.73309e-06 2.40604e-22)
(0.00573079 0.00213174 0)
(0.00487902 0.00171519 8.32376e-22)
(-8.45474e-05 6.99125e-05 3.62471e-22)
(0.00352874 0.00108811 -3.76912e-22)
(-0.000902418 -0.0113084 7.11901e-23)
(1.15221e-07 -2.90944e-07 -5.77523e-22)
(-0.00767571 -0.00109389 2.42701e-22)
(0.0124228 -0.00776235 0)
(-0.0320987 -0.007991 0)
(0.000630937 -0.000562873 0)
(-0.00450345 -0.0079027 2.66966e-21)
(0.0173783 0.00285115 -5.16927e-21)
(5.5999e-05 2.5859e-05 -2.6156e-22)
(-4.69754e-07 1.19119e-06 1.59339e-22)
(0.0698871 -0.0168652 0)
(-0.000188079 -4.85245e-05 -4.73339e-22)
(-0.00129386 -0.000702996 3.511e-22)
(0.0100954 -0.000723309 3.30801e-21)
(-0.00773599 0.0027303 0)
(0.000132397 0.000351668 7.24265e-22)
(-0.000755916 0.000394785 7.66716e-22)
(-4.43193e-05 -1.45462e-05 0)
(-0.00544724 0.00206397 -2.19373e-22)
(-0.000351129 -0.000599086 -2.92998e-22)
(-7.95069e-05 0.00010464 6.25724e-22)
(0.00512109 -0.000584091 0)
(0.0073934 -0.0145455 -7.1476e-22)
(0.017675 0.00778908 1.33575e-21)
(-2.52268e-05 4.98125e-06 7.99173e-22)
(0.0913134 -0.0299133 -3.40341e-21)
(0.00374514 -0.000834199 -2.76656e-23)
(0.000508087 0.00152923 0)
(0.00058815 1.42883e-05 0)
(0.000505389 0.00246353 -3.13898e-22)
(-2.5192e-05 5.32673e-06 -1.01455e-21)
(-2.31229e-06 1.70987e-06 0)
(-0.0497071 -0.00109531 2.1385e-22)
(-3.88551e-06 9.14864e-06 5.9008e-22)
(0.00819802 -0.00447111 1.91488e-21)
(-3.38096e-06 1.04837e-06 -8.0283e-24)
(-3.52076e-05 -1.29927e-06 -3.17107e-22)
(2.75171e-05 4.81533e-06 0)
(0.0150507 0.0049507 0)
(-7.06883e-07 3.15622e-07 -1.66156e-24)
(-9.56766e-05 0.00140574 0)
(-7.96425e-05 -0.00015233 -8.81924e-23)
(2.01851e-05 -6.52768e-06 -7.55017e-22)
(-2.0786e-05 1.55943e-05 0)
(9.13203e-06 4.50026e-06 9.14902e-23)
(-0.0126336 -0.000447511 -4.66526e-22)
(-0.00457027 -0.000270325 -2.08022e-22)
(3.16105e-07 -5.22344e-07 5.69782e-22)
(-0.00150022 -0.0014997 0)
(-2.0342e-05 8.84905e-06 0)
(0.00666295 -0.000177213 -9.15496e-25)
(-0.00484336 -0.00321669 0)
(7.06615e-07 1.86416e-09 4.46061e-22)
(0.000696064 -0.000310349 3.46786e-22)
(0.00373811 0.00671646 -7.36864e-23)
(-0.00390765 0.00600537 -2.8489e-21)
(-0.00155174 -0.00200229 3.14892e-24)
(-4.55576e-06 6.30601e-06 0)
(0.0171738 -0.00782872 0)
(-0.0021769 -0.000880443 1.01864e-21)
(0.00473649 0.000578853 0)
(-0.00289274 0.0108161 7.1558e-24)
(-0.00744475 0.000524945 -2.21113e-21)
(-2.64694e-05 3.00785e-05 2.21075e-22)
(2.25869e-05 0.000118268 -6.0409e-22)
(0.000126917 0.00016149 0)
(-0.00169674 -0.00116657 0)
(-0.00663648 -0.000126389 -3.26871e-22)
(4.17394e-06 -2.00258e-06 -4.50361e-22)
(-0.000571742 4.98146e-05 0)
(-0.00798058 -0.000306567 -5.37822e-23)
(0.0114531 -0.00343055 -1.2877e-21)
(7.42342e-09 2.89189e-07 6.0753e-22)
(-2.83976e-06 1.3812e-06 1.32067e-22)
(-0.00466389 -0.00282651 8.73033e-23)
(-2.20313e-07 2.65104e-06 1.99897e-23)
(6.00606e-07 -4.49951e-07 1.86188e-22)
(7.72647e-07 -6.00447e-09 0)
(1.13672e-06 -2.08693e-06 -1.8417e-23)
(-0.00876666 -0.000472453 -4.33008e-22)
(0.0022151 -0.00107027 4.23277e-22)
(0.000286621 0.00143715 2.54348e-22)
(-0.0232057 -0.00861585 -8.23082e-22)
(-8.95764e-05 0.0022113 4.10005e-22)
(0.0118391 0.0242657 -1.14505e-21)
(-1.20649e-05 4.62731e-05 6.39753e-25)
(-0.00453021 0.00198594 -3.86506e-22)
(-9.74859e-07 -5.17685e-06 -9.46777e-24)
(-0.0302285 -0.00729599 4.91953e-23)
(0.0243144 0.00472848 -3.62e-22)
(2.69133e-05 6.41014e-06 1.29243e-22)
(-2.65386e-07 2.12685e-06 0)
(-0.0061792 0.00114665 0)
(5.51835e-06 0.0198344 3.31554e-21)
(-1.78031e-06 1.65264e-07 -3.85473e-22)
(3.77877e-05 2.92166e-05 -2.59811e-22)
(-0.00212126 0.00252598 0)
(-2.7535e-05 2.95781e-05 0)
(0.0366874 0.01207 7.10962e-22)
(-1.02776e-06 5.15801e-06 0)
(-9.61651e-08 9.1422e-07 4.75303e-22)
(5.49034e-07 3.76679e-07 -3.44892e-22)
(-9.11979e-05 6.6748e-05 7.60407e-22)
(0.036009 -0.00108652 0)
(-4.30323e-05 3.2198e-05 6.06939e-22)
(6.77874e-07 -2.58676e-07 -4.08367e-22)
(-6.7535e-06 8.90147e-07 -3.5265e-22)
(0.0173454 0.0136724 2.75395e-21)
(8.25517e-06 -3.00714e-06 -5.08265e-22)
(3.9453e-05 -1.7272e-05 -7.84157e-22)
(-2.88264e-06 1.0901e-06 -1.33987e-22)
(-0.0122113 -0.00139627 0)
(1.17869e-05 2.67605e-05 2.20582e-22)
(-2.57102e-05 3.12401e-05 0)
(-2.8221e-08 2.21832e-06 0)
(-3.55505e-07 -2.58049e-07 5.61584e-22)
(1.78062e-08 1.68358e-06 0)
(-0.00928555 -0.000294828 1.52425e-22)
(-0.00668031 -0.00149582 -1.23296e-22)
(-0.0169487 0.00447907 -8.29687e-22)
(0.00677195 0.000251799 0)
(-0.00459482 -0.00104235 1.00646e-22)
(0.00046278 0.000423283 9.06894e-22)
(-1.1399e-06 -6.6465e-07 -4.19338e-22)
(0.0206694 -0.00693142 -5.52833e-22)
(-4.61643e-06 -3.90895e-07 -1.92405e-22)
(-3.88398e-05 2.78681e-05 4.69365e-22)
(-0.00584389 -0.0132169 -1.64604e-23)
(0.000190618 0.000179216 -7.83856e-22)
(-0.000233585 -0.000953194 0)
(4.96979e-05 9.64204e-05 1.53721e-21)
(0.0259688 0.0113817 -5.30308e-21)
(0.000123946 6.14149e-05 -4.99022e-22)
(3.60881e-06 1.82033e-05 -7.08563e-22)
(7.382e-07 3.19118e-07 0)
(-1.33002e-06 4.69469e-06 -5.57093e-22)
(0.00466599 -0.0236361 0)
(-1.26135e-05 2.10162e-05 -4.61878e-22)
(-3.79111e-05 -2.7659e-07 3.51904e-24)
(-1.43547e-05 2.20544e-05 4.59164e-22)
(-1.85239e-05 4.57053e-06 3.24831e-22)
(0.000110448 -0.00116073 -4.75515e-22)
(-0.0158946 0.00392069 0)
(-2.40301e-07 8.79603e-08 5.944e-22)
(-0.0249269 -0.00923958 0)
(-5.35522e-06 -3.51384e-06 -5.24808e-22)
(-0.0117467 -0.000824087 -7.68792e-23)
(5.05838e-05 0.00131875 0)
(-0.00897201 -0.000349269 3.60951e-22)
(-8.37615e-08 7.09723e-07 0)
(-1.45345e-07 1.8517e-06 3.5816e-22)
(0.00149779 0.00229561 -1.42214e-22)
(5.03376e-07 -2.41092e-08 4.20305e-22)
(0.0176628 0.00647415 0)
(0.00548814 0.00162816 0)
(-2.13694e-07 -1.20533e-06 -1.12854e-21)
(-3.12526e-06 1.18275e-06 0)
(-4.39508e-06 5.15429e-06 0)
(0.0116699 -0.000611749 -1.13949e-21)
(0.0238463 0.00448204 -5.4984e-22)
(-0.0070361 0.00198721 7.64431e-22)
(9.32349e-05 -1.77123e-05 4.27575e-22)
(-0.0181122 -0.0168422 0)
(1.01281e-07 7.86581e-07 7.19375e-23)
(-0.00275998 -0.00041158 0)
(0.00472366 0.000795439 0)
(2.74453e-08 4.85556e-07 -8.54424e-22)
(0.00289957 -0.048266 -5.30877e-21)
(9.1185e-05 3.09121e-05 7.89683e-22)
(1.28256e-05 2.55898e-05 4.15247e-22)
(-1.4954e-06 -7.86107e-08 7.96988e-22)
(-2.10086e-05 -4.81491e-05 -3.14274e-23)
(-1.38932e-06 -1.18894e-06 -6.47829e-22)
(-0.00551293 -0.0127206 0)
(1.05455e-07 -5.68896e-07 1.29133e-21)
(7.47061e-08 4.20012e-06 -1.14518e-21)
(-0.0158159 -0.00618555 6.67658e-22)
(0.00252401 0.00640812 -1.02933e-22)
(-1.31221e-06 5.17555e-06 0)
(-0.00334332 -0.00698999 -1.87839e-21)
(-1.81861e-08 2.0749e-06 0)
(-0.00603169 -0.000927987 5.4691e-23)
(9.89842e-06 2.35754e-05 0)
(-1.81396e-06 -7.92934e-07 5.17678e-23)
(4.47872e-06 -2.04041e-07 -4.38429e-22)
(2.22776e-07 -5.88361e-07 0)
(0.00132806 0.00246916 1.0316e-21)
(7.9149e-07 3.86063e-07 0)
(-2.58097e-07 -1.68446e-07 -1.22054e-21)
(-0.00167384 0.000663076 -2.96148e-23)
(-4.17784e-05 -3.54422e-05 -5.15947e-22)
(0.0172485 0.00778922 9.23249e-23)
(0.000453649 0.00284186 9.80625e-23)
(-2.86877e-08 9.15145e-07 1.22032e-21)
(0.00176924 0.00363898 0)
(0.00317808 -0.00266555 0)
(-3.15631e-05 0.000695998 1.88967e-22)
(4.15013e-08 -7.58537e-07 0)
(-1.56656e-05 -1.77155e-06 6.45531e-22)
(-6.45177e-07 -4.98571e-06 -1.21362e-21)
(-4.88902e-07 -4.2817e-06 3.14214e-22)
(-1.86732e-05 -0.000161958 -7.94337e-22)
(1.2446e-07 9.87806e-07 0)
(3.66977e-05 -7.63468e-06 1.61217e-24)
(-0.00645904 0.000137972 4.57445e-22)
(0.000199332 0.00016758 0)
(-0.00185936 0.00582351 -2.89446e-23)
(-0.0107116 -0.00161635 1.89419e-22)
(-2.43438e-05 4.55302e-05 8.74473e-22)
(0.00142756 -0.012638 -1.50093e-22)
(-0.0127744 0.000840924 1.41095e-21)
(0.00027263 0.0219396 -7.81587e-22)
(6.12313e-07 1.6176e-09 1.13806e-22)
(0.0108117 -0.00285636 2.06032e-22)
(0.00166296 0.00280853 0)
(-4.84003e-06 5.49395e-06 2.23167e-22)
(0.00314987 -0.000302737 0)
(-2.21881e-06 1.03834e-05 3.39119e-22)
(4.68231e-06 1.08048e-06 7.81034e-22)
(0.0102442 0.00466618 1.89767e-21)
(-5.14708e-06 7.88982e-06 -5.64322e-22)
(-2.89711e-07 4.46488e-06 -1.12005e-22)
(0.007061 0.000472371 0)
(5.29598e-05 0.000693675 -3.18791e-25)
(-2.13893e-05 1.17834e-05 0)
(-1.42166e-05 5.56381e-06 6.49503e-22)
(-4.10437e-07 -5.20415e-07 -1.17389e-25)
(-9.07525e-05 -1.83532e-05 0)
(2.27765e-06 2.1764e-07 0)
(-7.75331e-06 9.54129e-08 -6.59012e-22)
(-0.00429681 -0.00112244 2.47798e-24)
(-0.00338917 -0.000109726 4.9771e-22)
(5.14234e-06 1.30693e-05 -6.19269e-22)
(1.22905e-06 1.42673e-05 -3.30909e-22)
(-0.00556009 -0.00115829 0)
(-2.50923e-05 -5.10415e-05 1.52073e-22)
(-6.776e-06 -7.56098e-06 -5.5714e-22)
(-1.6269e-05 1.52811e-05 0)
(-0.012234 -0.0147954 8.37427e-21)
(-4.89525e-06 -1.4816e-05 5.15113e-22)
(7.25534e-07 -2.46366e-07 -5.35501e-22)
(0.00071867 -0.0615337 4.56333e-21)
(-0.00476403 -0.000218476 8.42579e-23)
(-1.33673e-06 -1.25294e-06 -8.59317e-22)
(0.00353423 0.00637923 1.19306e-22)
(-8.44913e-07 4.28812e-06 1.8872e-22)
(-1.47178e-05 6.28214e-06 -6.92616e-22)
(-0.0297943 -0.0186221 -2.38118e-20)
(0.0104408 -0.00341803 -2.08943e-22)
(-0.00742376 0.00868769 -3.45043e-23)
(8.95405e-07 3.7965e-08 5.47159e-22)
(4.44488e-06 -1.7384e-06 -5.20517e-22)
(0.0192532 0.0198867 0)
(-2.95929e-06 -1.7173e-05 -9.11929e-22)
(-0.0211396 -0.00834304 1.80379e-22)
(-1.5995e-05 -4.26708e-07 -7.33774e-22)
(9.75958e-07 5.22646e-07 0)
(-3.45334e-06 5.33673e-06 0)
(-0.00261862 0.00421921 0)
(-6.65966e-06 1.72694e-06 -3.99199e-22)
(0.00454407 -0.00632544 0)
(6.2425e-07 -1.21136e-07 7.9954e-22)
(0.0163963 0.0418506 0)
(-0.0046922 0.00370701 -4.50764e-22)
(0.0205471 0.0068676 -2.37666e-21)
(0.0098885 -0.00679696 -1.20385e-21)
(-1.39596e-07 6.60093e-07 -2.82214e-22)
(-0.0380899 -0.0374637 -9.40117e-21)
(-6.02326e-06 6.73703e-06 -3.04551e-24)
(-0.00366832 -0.000598651 -7.39293e-22)
(0.00771744 0.000595328 0)
(-3.67285e-08 5.0404e-07 1.47686e-25)
(3.06479e-08 9.59484e-07 0)
(0.0220593 0.00836962 6.00431e-23)
(0.000378639 -0.00260961 -1.82588e-22)
(9.66225e-05 0.000106861 0)
(-2.23424e-05 -0.000104439 3.20999e-22)
(7.91777e-07 1.64851e-07 5.21049e-22)
(-0.0409189 -0.00434029 9.7077e-22)
(-1.21952e-06 2.90124e-06 1.07175e-21)
(-0.026735 -0.0140785 -5.84872e-22)
(-7.87491e-06 1.35786e-06 7.43099e-22)
(-2.26028e-05 1.52555e-05 0)
(-1.57398e-06 -1.00194e-06 2.04633e-22)
(0.00259386 0.000324453 -1.10065e-22)
(-1.46862e-06 1.11455e-06 -4.90734e-22)
(-0.000388161 0.00177863 -3.68914e-22)
(-0.0092384 -0.000667445 -6.70925e-22)
(-0.0411547 -0.00875473 -1.96428e-21)
(4.8872e-07 9.85719e-08 0)
(-0.00146387 0.000697395 -3.20514e-23)
(4.5051e-07 1.68037e-07 -5.03875e-22)
(1.19639e-05 2.42523e-05 2.92748e-25)
(0.00374359 0.000386441 3.89453e-22)
(0.00479981 -0.00542661 0)
(0.019414 0.00401376 -1.14026e-21)
(6.45857e-08 7.99504e-07 -1.10608e-21)
(0.0114098 0.00908356 -3.49964e-21)
(0.0118215 0.00427287 -6.08858e-22)
(1.41527e-06 -1.8593e-08 0)
(-0.00325882 -0.0144915 0)
(-2.75376e-07 2.3696e-06 5.61199e-22)
(0.00800656 -0.0486262 0)
(0.00984495 -0.0101427 0)
(-1.60072e-05 -4.8212e-06 -5.1021e-22)
(-0.0396178 -0.00701601 1.96881e-21)
(-1.40735e-06 -2.83565e-07 -3.13811e-22)
(-0.00134023 -0.00184071 0)
(-0.000493245 -0.00198486 -5.8637e-23)
(-0.00185715 0.000979842 -2.60964e-23)
(7.36739e-07 2.35214e-07 -8.90094e-23)
(4.35817e-08 -2.84445e-06 -3.40244e-22)
(-5.1365e-06 6.8815e-06 4.66273e-22)
(-3.89632e-05 2.33004e-05 1.22471e-22)
(1.18746e-06 3.49728e-08 5.63332e-22)
(-2.68375e-05 1.36507e-05 2.23288e-22)
(5.83856e-06 -9.33349e-06 0)
(-3.81722e-07 7.46172e-07 4.34966e-22)
(-0.0026986 -0.000180876 -7.93326e-22)
(1.43507e-06 -1.37442e-06 0)
(-0.000419784 0.0020696 3.77541e-22)
(1.5139e-08 4.81531e-07 -2.74221e-23)
(3.62323e-07 1.41336e-06 0)
(-0.00352649 -0.000588015 1.92042e-21)
(-0.00749938 0.000332433 5.75599e-22)
(0.0337307 0.0106664 0)
(1.61035e-06 -4.33032e-07 -6.14743e-22)
(-0.0389474 -0.00332088 0)
(1.21793e-06 3.90391e-07 -5.51798e-22)
(-2.53908e-05 1.71363e-06 7.62898e-22)
(8.10057e-07 8.608e-08 6.54508e-22)
(5.47782e-06 5.2222e-06 5.12589e-22)
(0.00432161 0.0200916 -1.27834e-21)
(0.0252453 0.00542593 2.79633e-22)
(2.0433e-06 1.83262e-06 3.24504e-22)
(6.0151e-07 -2.49247e-07 6.52131e-22)
(0.00017003 -0.00240227 -2.17049e-22)
(3.72139e-08 6.93216e-07 1.43505e-21)
(7.30839e-06 5.2186e-06 5.85133e-22)
(-0.00804309 -0.00312645 1.17641e-22)
(-2.8501e-06 6.80409e-07 0)
(-8.35049e-07 -2.45218e-06 0)
(2.726e-08 7.9449e-07 -7.90476e-22)
(-3.07849e-06 1.12478e-06 1.42827e-22)
(5.60211e-06 2.40402e-05 0)
(4.82343e-07 2.3594e-06 3.85013e-22)
(0.0506255 -0.0115326 6.60325e-22)
(-1.63184e-05 -3.59091e-06 7.18438e-22)
(-8.04871e-07 1.69952e-06 0)
(-0.000529365 1.74396e-05 -1.86199e-23)
(-3.84956e-06 2.21958e-05 0)
(-0.000895418 -0.000401215 -9.77662e-22)
(-0.0139385 -0.00849969 -4.0012e-22)
(2.28752e-05 9.4485e-06 -4.08136e-22)
(-2.72228e-07 1.67635e-06 -1.74146e-22)
(-2.51284e-05 -7.71673e-07 -1.10487e-21)
(0.000441516 0.000481521 0)
(6.87301e-07 -4.88261e-07 -4.49969e-22)
(6.76082e-07 -0.000704561 5.1578e-22)
(5.91533e-07 3.23354e-07 0)
(-1.98167e-09 9.06819e-07 5.84913e-22)
(-5.56709e-05 -0.00181495 2.50555e-23)
(0.00221054 -0.00679789 -6.61737e-23)
(4.25379e-06 3.0191e-06 -2.82449e-22)
(-8.12702e-07 -2.1299e-06 0)
(-8.34005e-06 -1.39181e-05 4.85095e-22)
(7.07457e-07 -9.40385e-08 -9.28846e-22)
(7.80019e-06 2.48504e-05 0)
(-0.00345176 -0.000680219 -2.08345e-21)
(-0.00478171 -0.00304904 -7.11733e-23)
(-0.00456274 -0.00951044 3.94919e-22)
(-4.11703e-05 6.86143e-05 6.96275e-22)
(0.00163507 -0.0485299 1.23167e-22)
(-7.18615e-06 -5.32797e-06 6.08288e-22)
(0.000622464 -0.000857653 -2.00861e-22)
(4.59449e-05 -0.000120766 0)
(0.00282827 0.00165904 -3.28669e-23)
(-0.000120923 -7.62951e-05 0)
(-0.00399273 -0.00102642 -2.17268e-22)
(6.73567e-07 -7.77256e-08 1.1643e-21)
(-4.46478e-07 -5.50912e-08 -6.54834e-22)
(-0.000598735 -0.000336716 0)
(9.43454e-07 5.57525e-07 4.24846e-22)
(-5.25862e-07 -5.98964e-07 0)
(-0.00564517 0.0049717 -1.53059e-22)
(-3.85453e-07 7.8967e-07 8.20935e-22)
(-0.00283684 -0.000741704 -8.73596e-23)
(3.60035e-05 -4.22066e-06 4.8065e-22)
(2.15433e-07 1.76185e-06 -1.18059e-22)
(5.82887e-07 -5.04382e-07 0)
(-1.40629e-06 -1.3729e-06 -2.0515e-22)
(0.00383507 -0.000648834 0)
(0.0138743 -0.0188911 -6.20003e-21)
(0.000792131 7.49685e-05 -1.81883e-22)
(1.58833e-06 2.12257e-07 -7.68779e-22)
(-4.50266e-06 2.00984e-05 1.00695e-21)
(-1.63708e-07 2.1302e-06 3.76863e-22)
(-0.000818298 -0.000354552 -2.61738e-22)
(0.0126819 0.01676 0)
(-1.92642e-05 6.36456e-06 8.81185e-22)
(0.0140277 -0.00880049 0)
(-6.21211e-07 -1.97523e-06 -1.54274e-22)
(2.67428e-07 2.21219e-06 4.05134e-22)
(6.63163e-06 3.08692e-06 0)
(8.17355e-06 -1.33623e-06 5.74155e-22)
(6.16674e-07 -7.19773e-08 0)
(0.000254305 0.000321557 -1.31955e-21)
(-5.64913e-06 2.73565e-06 0)
(-0.0127109 -0.00808746 7.51325e-22)
(-0.0384541 0.0232033 -2.99592e-22)
(0.00174702 0.000930638 0)
(-1.03812e-05 -2.17271e-06 1.05585e-21)
(5.52632e-08 8.29339e-07 -5.14623e-22)
(1.09104e-07 6.82363e-07 1.55529e-22)
(-0.00163483 0.00265561 0)
(-2.59223e-06 9.97296e-07 8.93008e-22)
(-0.00558249 -0.00108277 8.91176e-22)
(-8.19548e-05 -1.71996e-05 -2.80204e-22)
(-1.92264e-06 1.04994e-05 -9.69403e-23)
(0.000472141 0.00047085 0)
(0.00166385 0.00106196 0)
(-0.00149298 0.00172331 0)
(3.69668e-07 -4.48537e-07 0)
(0.000441245 0.00412904 0)
(-1.09401e-06 -1.90616e-06 -6.38463e-22)
(-0.00854973 -0.000194696 -3.34503e-22)
(-2.26751e-05 3.0245e-05 0)
(-0.0052557 -0.00265364 7.22305e-22)
(0.000267433 0.00030373 4.02049e-22)
(-0.0103934 0.00255244 -8.88556e-22)
(-3.96241e-05 -0.000162117 -6.29779e-22)
(1.04027e-07 1.87064e-06 4.92261e-22)
(3.21752e-05 4.56078e-05 0)
(1.23776e-05 -0.000171245 3.85065e-22)
(-3.13784e-06 3.73234e-07 2.92272e-22)
(-0.00334457 -0.00253438 6.07594e-23)
(-0.00740694 -0.00568132 0)
(-5.76842e-05 4.68144e-05 0)
(-1.33774e-05 -2.92072e-05 0)
(5.86268e-07 -1.78122e-08 0)
(0.00191177 -0.00788858 1.88443e-22)
(-5.70316e-06 7.54821e-06 -4.9207e-22)
(6.43034e-07 -6.29778e-07 -7.9977e-22)
(0.0171184 0.041368 7.8519e-23)
(-9.39484e-06 1.844e-05 -8.37372e-22)
(-0.00247835 -0.00964211 -2.82993e-22)
(-0.00982118 0.00122269 2.19006e-22)
(3.79549e-07 -5.34532e-07 0)
(0.00115532 0.00492869 2.88356e-22)
(-9.33877e-08 -2.42827e-06 0)
(-9.85177e-07 -1.16887e-06 1.28101e-21)
(-0.0316132 0.00155342 4.45192e-21)
(-0.00198457 0.00260231 0)
(3.98796e-08 8.38745e-07 4.7465e-22)
(-0.00971204 -0.00923642 -8.97966e-22)
(-7.23222e-07 -3.64662e-06 -6.03408e-22)
(0.000510292 -0.000805265 0)
(0.0105818 -0.0052803 -9.46815e-21)
(0.00765437 0.00564193 -1.0925e-21)
(0.00694733 0.000345942 0)
(-0.00310486 -0.000509124 0)
(0.0027352 0.00118742 -9.70995e-22)
(0.000314517 0.000487541 2.66744e-22)
(-0.00845268 -0.00899279 0)
(-1.32119e-06 4.47014e-06 -3.28311e-22)
(1.66241e-05 4.44627e-05 -7.19649e-23)
(-0.0501868 -0.03622 3.98518e-21)
(-0.0122853 -0.000844815 0)
(9.83958e-05 3.07954e-05 -3.08527e-22)
(0.000768532 -9.74137e-06 -9.77712e-23)
(0.00010943 -0.00180447 -1.04007e-22)
(-0.00310176 0.00057208 -1.10026e-23)
(-0.00566097 0.00378651 -1.76513e-21)
(-0.0115144 0.0447021 2.60721e-20)
(-7.5118e-05 0.00368792 -8.76923e-22)
(4.46046e-06 3.15849e-06 5.76482e-22)
(-7.7647e-07 2.73851e-06 0)
(0.000227366 0.00127582 -6.30837e-22)
(8.4861e-07 4.01817e-07 -4.18811e-22)
(-0.010152 -0.000165474 5.21836e-24)
(-2.37781e-05 -0.000807783 5.76524e-22)
(-9.82247e-06 -2.49867e-06 7.73031e-23)
(0.0164845 0.0293048 4.82628e-22)
(0.000184167 0.000449768 5.00366e-22)
(8.21424e-06 4.24289e-06 -1.09062e-22)
(2.31853e-05 8.94613e-06 1.01719e-21)
(4.52897e-07 -6.952e-07 -4.47308e-22)
(-2.31559e-08 1.46458e-06 -9.94657e-22)
(1.26816e-06 6.01761e-07 -5.82716e-22)
(0.0248547 0.0384107 0)
(8.77489e-05 -2.23927e-05 -6.77966e-22)
(5.23158e-07 3.39875e-08 -3.43873e-22)
(-0.00448111 -0.00110065 8.59605e-22)
(-7.85132e-08 1.86871e-06 -6.36356e-23)
(0.000278786 0.000578034 2.84736e-22)
(0.000122752 0.00152579 -2.47511e-22)
(0.00704518 -0.00168927 9.14357e-22)
(-8.01048e-06 8.51269e-07 -1.57984e-22)
(-0.00587694 -0.00261 -7.76996e-22)
(-5.17813e-06 6.32108e-06 1.68047e-24)
(7.40116e-07 1.26635e-07 3.45492e-22)
(-1.1686e-05 -2.70577e-05 0)
(-0.00147595 -0.00827549 6.06188e-23)
(-0.0007831 -0.00028417 -4.4718e-22)
(5.15505e-07 3.1114e-08 -3.21317e-22)
(-7.95241e-07 -1.34937e-06 -1.10479e-24)
(1.20694e-07 1.65421e-06 -5.83258e-22)
(-4.40508e-05 0.00107258 1.66115e-23)
(-1.77424e-06 1.11477e-06 6.15088e-22)
(0.0252585 -0.000376627 -5.58623e-22)
(0.00236072 -7.72662e-05 4.00345e-22)
(0.00164579 -0.000242085 0)
(0.0249156 0.00145717 0)
(5.51677e-06 4.744e-06 -7.95802e-22)
(0.038133 -0.0495893 0)
(-0.035934 -0.00247858 -2.24923e-21)
(1.4068e-07 1.36213e-06 -3.93339e-22)
(-1.34326e-05 8.17028e-06 6.57693e-22)
(5.22555e-07 1.4409e-06 0)
(-1.68183e-06 7.80921e-06 0)
(0.0207683 -0.00319403 3.41364e-21)
(-1.05394e-06 -3.06907e-06 0)
(3.57587e-07 4.57944e-07 0)
(-1.21165e-05 -5.02705e-05 -4.89084e-22)
(0.000372972 0.0013864 -7.07653e-22)
(-5.10452e-06 -8.16227e-06 6.3505e-22)
(-0.00321166 -0.000742509 0)
(0.0208675 0.00670196 5.74496e-22)
(0.000141307 0.00017307 -1.51275e-22)
(-4.0316e-05 6.49763e-05 0)
(8.09045e-07 1.23827e-07 1.10876e-22)
(1.59897e-07 1.47192e-06 7.34637e-22)
(-0.0412848 -0.0611957 0)
(2.07707e-08 3.80683e-07 -4.90017e-22)
(-1.06158e-05 1.56633e-05 -1.63732e-22)
(9.09842e-06 1.63044e-06 -4.87475e-22)