/*--------------------------------*- C++ -*----------------------------------*\
| =========                 |                                                 |
| \\      /  F ield         | OpenFOAM: The Open Source CFD Toolbox           |
|  \\    /   O peration     | Version:  v2012                                 |
|   \\  /    A nd           | Website:  www.openfoam.com                      |
|    \\/     M anipulation  |                                                 |
\*---------------------------------------------------------------------------*/
FoamFile
{
    version     2.0;
    format      ascii;
    class       volScalarField;
    location    "300";
    object      ddt0(epsilon);
}
// * * * * * * * * * * * * * * * * * * * * * * * * * * * * * * * * * * * * * //

dimensions      [0 2 -4 0 0 0 0];


internalField   nonuniform List<scalar> 
18598
(
-1.71927e-09
-9.37698e-05
-1.4518e-12
1.8645e-10
7.17111e-10
-8.47252e-10
-3.41996e-09
8.2239e-10
0.000520796
0.000435905
-4.86818e-10
-0.00671841
5.41254e-10
-0.00319216
-2.69525e-10
-1.8194e-08
-0.00112904
-6.79001e-10
3.76462e-10
-0.00380325
2.04677e-10
1.94694e-09
0.000218289
3.51759e-10
-1.39622e-11
-0.00105951
0.000110987
-1.32605e-09
0.000155197
3.86904e-09
0.000950901
1.04968e-09
1.3099e-10
-3.00806e-09
-3.04355e-09
-0.00103173
1.07869e-10
-8.2743e-10
-1.4942e-13
0.00755901
-9.0076e-07
0.00243892
-0.00030268
-0.00443479
9.78354e-10
-1.64385e-10
-2.54724e-11
0.00191534
-7.02885e-10
1.46297e-10
1.00903e-10
0.00264735
-4.7055e-06
-2.9314e-06
-2.12102e-09
4.97312e-11
-2.91198e-10
-5.55071e-10
-1.35838e-10
-9.52554e-10
0.00351939
-7.48621e-05
1.26968e-09
2.572e-10
-1.53907e-05
0.00205273
-3.69399e-11
2.19702e-11
-0.00934743
4.28739e-11
2.26192e-11
-1.64539e-09
0.00186407
-7.73937e-06
-2.39939e-10
-5.52792e-07
-2.57001e-10
9.59601e-11
-3.47085e-09
-1.30152e-10
-0.00196945
-1.25953e-10
6.78335e-10
-0.00102392
1.69532e-10
0.000957003
1.98496e-12
0.0149881
1.88364e-09
-6.48929e-10
-2.06667e-10
-1.98398e-06
8.33563e-10
1.13918e-07
-0.00728985
-1.53983e-09
-0.00212482
-6.75603e-10
-0.00401027
1.22092e-09
-2.57697e-09
5.25416e-10
2.00252e-11
1.04238e-09
-4.92545e-09
-7.28128e-11
9.52954e-08
0.00300887
-5.2331e-10
-1.13877e-05
1.54945e-09
0.00209414
5.9823e-10
2.09078e-11
-3.61735e-07
1.48551e-09
-0.00367955
-5.9059e-10
-3.75934e-10
5.75973e-10
-0.00783066
6.15307e-11
7.05149e-10
1.88393e-09
-0.00213867
4.88953e-11
-8.96741e-11
-3.46986e-09
-0.000890973
6.67356e-11
-5.68664e-11
9.1612e-09
0.00116575
1.52761e-10
-0.00800622
1.26309e-10
-1.80489e-08
-1.03223e-09
2.96856e-10
2.27327e-08
0.000664286
8.08257e-10
5.5206e-10
-0.00585942
2.16853e-10
-1.19638e-10
0.00286151
4.8201e-07
-4.69591e-10
-2.96084e-10
-1.15212e-10
3.84301e-10
-3.69455e-10
-0.00137393
-2.17704e-09
7.73478e-10
0.000459244
-1.98145e-11
4.07159e-10
5.05294e-11
-1.39743e-09
2.39435e-07
-5.33526e-10
1.49797e-10
-3.7337e-10
0.00613031
-4.94814e-05
-5.94698e-10
2.75631e-10
9.23212e-09
-7.94285e-11
1.61548e-10
-0.00477041
-9.52216e-07
-4.77219e-11
1.14515e-09
-0.00550406
1.24462e-09
-9.54327e-11
-0.000106347
-1.30103e-08
0.00172278
3.16431e-09
1.08818e-10
-0.00179029
-1.905e-09
0.000498345
-0.00203028
4.74495e-09
-6.88212e-06
3.02127e-10
-1.33114e-09
-1.37312e-09
0.000475555
-6.34114e-11
-1.36237e-09
0.00260743
0.00473695
3.59146e-09
-0.000299811
0.00102256
1.67578e-10
-3.14275e-10
2.21352e-11
-3.53538e-10
-0.011252
-0.00114523
-5.28898e-10
5.33434e-11
-8.25683e-11
4.13727e-09
-0.00106788
7.7408e-11
-1.89768e-08
1.62844e-07
-2.15735e-10
1.42725e-07
1.00744e-10
7.59453e-10
-3.67046e-09
-5.22151e-11
4.03832e-10
-3.87996e-10
-3.66245e-09
-1.55396e-09
2.45937e-10
5.61057e-10
-1.37692e-09
-0.0100207
-2.04055e-10
0.000914691
-0.00318599
8.32425e-10
-1.1022e-09
0.000226482
0.00110772
9.55405e-11
-4.07577e-10
3.01523e-09
-1.40826e-10
-4.02695e-12
-3.35611e-09
0.00351034
6.91005e-10
7.8365e-08
-8.02109e-09
3.25687e-11
-1.37189e-10
-2.25897e-10
-2.40985e-10
-0.00408779
0.000313007
0.0113908
0.00176113
-2.20351e-09
0.00127492
1.83525e-09
-0.00652753
8.81643e-10
-0.000891441
9.9028e-11
3.55244e-09
0.00366765
-0.00675751
0.00133731
-5.16808e-10
1.21906e-11
0.000500133
-1.93251e-07
2.76691e-10
-9.01535e-11
6.46083e-11
-4.1016e-09
4.09597e-10
0.0132412
-0.0135303
0.00843439
-0.00126312
-1.02288e-06
4.17883e-09
-2.80915e-09
0.0794194
-6.06854e-11
0.0133938
-0.00215403
-1.51478e-09
1.95617e-07
-4.74983e-08
2.19644e-09
0.000487866
-9.17861e-08
0.00165089
-0.00130168
0.000993921
-0.00830346
-6.87444e-10
1.16261e-10
4.36239e-06
2.44302e-09
-2.72145e-09
0.00293821
0.000469905
-3.21934e-11
-0.00218701
9.90706e-11
-3.426e-07
0.000776244
-1.42928e-10
0.00160976
-0.000356334
0.00679705
-1.51092e-10
1.63125e-05
0.00122898
5.03162e-09
-2.345e-09
1.29366e-08
-8.72521e-11
6.96887e-10
-0.00686474
4.06805e-10
0.0018528
5.3922e-10
-7.64329e-10
-6.86353e-10
-0.00153694
2.26202e-10
1.23673e-08
-1.87244e-10
-3.96874e-09
-8.38318e-12
-4.4802e-10
0.000631387
-0.000499405
-9.79431e-11
9.25063e-08
2.69722e-09
0.00280056
-8.35173e-07
-1.1236e-10
-3.28678e-09
-5.5712e-05
5.65258e-06
0.000338649
1.18571e-09
0.0060981
-0.00284315
0.00107604
0.00116348
0.00408962
-1.86773e-10
3.92558e-10
3.51844e-10
-2.11639e-08
-1.64426e-07
9.56935e-10
1.64016e-08
-0.00156315
-1.10007e-07
3.58646e-11
-9.22296e-10
2.47959e-05
5.31124e-11
3.0529e-11
-1.68755e-11
1.31571e-09
0.00384232
0.00137691
4.12109e-09
-0.00517763
5.44679e-09
0.00401464
-1.94217e-10
0.00726823
-3.24425e-09
0.000613796
-0.000565189
-1.09063e-09
4.01737e-09
0.00685583
-0.00484636
-1.73999e-10
-5.48227e-10
-8.55617e-09
2.85784e-10
-0.00156242
1.34258e-10
-1.68662e-11
7.73041e-11
-3.03894e-11
8.32872e-07
-1.7516e-09
1.26901e-10
-1.7335e-10
0.00755045
3.18771e-10
-1.86348e-10
-9.44719e-10
-6.01311e-06
-4.40171e-10
1.69243e-10
1.02627e-09
7.45667e-10
-2.19346e-11
0.00112808
-0.000932385
0.000585555
-0.00155778
-0.000969697
-2.14179e-10
1.96097e-09
0.00650155
3.2018e-09
-1.49472e-09
-2.65945e-08
-7.16293e-10
-8.30136e-10
-1.66106e-10
-0.00707928
-7.06746e-10
-4.41108e-11
1.10712e-09
4.92035e-10
0.00261374
-2.02495e-11
2.74089e-10
4.04214e-11
2.403e-09
-2.43193e-09
0.000379009
2.39445e-09
0.001124
2.24926e-10
-1.01805e-05
3.96329e-08
0.00112395
-4.31295e-10
-8.2718e-12
-2.09364e-06
1.36167e-10
0.0184342
0.00429743
4.33038e-10
5.97381e-10
-8.88013e-11
0.00107328
-0.000927682
0.0052242
2.32306e-10
-0.00659059
-5.73764e-10
-0.00225972
0.00532702
1.09649e-11
-0.0370363
-2.60452e-10
-1.22298e-10
7.79555e-10
-9.03727e-11
6.72282e-09
7.65209e-05
-3.7034e-10
-5.62008e-10
-0.00276344
3.69401e-08
3.68019e-10
0.000992177
-1.91065e-09
-0.00744246
-4.00623e-11
8.03631e-11
7.4658e-11
1.04614e-09
0.0678028
4.79141e-10
1.07069e-09
6.63013e-09
-6.44696e-11
-0.000194419
1.72419e-08
-8.38979e-11
0.000460511
-7.00538e-08
1.01506e-09
-2.07189e-10
-7.72316e-11
2.62643e-09
8.72798e-10
-5.65081e-11
-2.60455e-10
5.82138e-10
-6.09209e-07
-5.86802e-10
4.5937e-07
0.00109043
1.43296e-11
-5.57371e-08
5.4482e-08
-0.00392682
1.65285e-13
0.00153471
3.24969e-06
7.72979e-10
0.00110927
2.87532e-10
-2.06263e-10
0.000789682
5.69233e-10
5.16103e-11
0.00302123
1.02482e-09
2.95863e-11
-8.4222e-11
7.85948e-10
1.08702e-09
7.87079e-10
1.44133e-10
-0.00357915
-0.00619426
-9.85527e-10
-4.65818e-10
-0.00102223
1.47294e-11
-7.09043e-11
-4.65244e-11
-0.00567541
-1.53834e-11
-3.36591e-10
-0.0233866
-0.00012373
-4.28266e-10
6.80755e-08
-2.01933e-11
2.54433e-11
0.000145542
0.00134505
0.00110822
8.66282e-12
-1.26826e-10
0.00269086
7.33774e-11
0.000780565
-1.03749e-10
2.71801e-09
-2.90572e-10
0.00319296
-3.45307e-12
4.25151e-07
3.85057e-11
0.00285148
0.000466132
0.0378058
6.62669e-05
2.3177e-10
-0.0086779
-3.01137e-10
-0.00205167
0.00414937
2.91367e-10
5.7765e-11
-0.000199948
-3.8216e-09
-6.34756e-10
1.20648e-10
6.67335e-11
0.000113355
-2.34235e-10
0.000956045
-5.79461e-10
-2.26813e-11
-9.43095e-10
-2.31161e-07
-5.81987e-10
4.63274e-09
-0.00490038
0.000816765
2.39428e-09
6.35441e-09
8.61779e-10
-9.32745e-11
-6.17474e-06
3.455e-07
-0.00108186
4.98645e-11
0.0465081
0.000749829
2.61891e-10
3.09683e-05
-5.4772e-09
-0.0588093
8.86562e-05
3.47876e-11
0.000144526
2.07093e-09
1.22319e-07
0.000626063
8.63833e-09
7.97824e-11
6.54107e-10
1.25113e-09
-7.7779e-10
-2.71065e-12
-3.57294e-10
6.66466e-11
2.28945e-10
-0.00431375
3.94302e-09
5.39504e-09
-1.2314e-11
1.73818e-10
-0.00618521
0.00411954
-0.00387376
1.48685e-09
-0.000427537
-3.7941e-10
-1.67093e-10
-6.07071e-10
-3.76744e-11
-0.0110543
-0.00106259
4.79324e-10
-1.83502e-11
-7.49218e-09
-4.04463e-11
-4.47423e-12
3.55865e-06
-1.54108e-09
3.16153e-09
3.54193e-10
-3.90701e-10
4.3796e-11
-7.97274e-10
2.59446e-06
-5.91204e-11
1.46159e-09
-5.65823e-09
-2.57179e-10
-0.00468111
0.000203815
-6.20298e-10
1.7755e-10
-1.46202e-10
-7.24567e-09
-8.55079e-10
-8.5075e-10
-1.18581e-11
1.0126e-09
0.000623476
0.00163802
-8.47859e-10
3.04738e-10
-1.76466e-10
2.1154e-10
-6.99165e-11
-0.00552921
0.000111567
2.43202e-06
5.43237e-10
1.97209e-05
4.375e-10
-5.15443e-09
8.56791e-11
-8.38344e-08
1.59954e-09
-0.000857131
5.19411e-10
1.42626e-09
-0.00404597
5.02561e-11
6.24698e-10
0.00189537
3.89084e-10
-0.00312366
6.44938e-11
-1.40566e-10
6.47206e-10
-4.20285e-10
5.54201e-06
-0.0159856
-2.52606e-09
4.21803e-10
-2.3803e-10
4.72218e-09
1.60072e-09
0.0209136
3.82099e-10
0.00247575
-1.36597e-09
4.5032e-10
2.55113e-10
7.54069e-10
-1.62744e-10
-4.93786e-10
-9.60683e-10
0.000126617
-0.00612265
-3.55961e-09
-5.45243e-10
-7.94489e-11
-7.23562e-11
1.80795e-08
-1.15118e-09
-0.00558818
1.97798e-09
1.63847e-10
-5.03105e-09
2.01172e-09
0.0109748
-2.33159e-10
0.00319468
-3.77217e-10
0.00121527
3.36139e-10
0.000485133
-1.13215e-09
0.000445658
-6.49643e-11
-4.51492e-11
-4.75116e-10
-8.97706e-11
2.72326e-09
0.000174708
0.00308803
-2.16396e-10
-8.76922e-11
1.26598e-10
-2.69729e-06
5.49497e-10
-1.44266e-10
0.00246765
-4.50059e-10
-4.92461e-06
0.000493031
-3.67138e-10
-8.80853e-05
3.12286e-10
5.05885e-10
-0.00118973
2.09937e-08
-5.856e-11
-0.000844595
8.37005e-10
-4.72032e-09
0.00203911
-0.000444424
0.00299439
-0.00470896
-0.00221446
1.1605e-09
-6.26931e-05
1.07275e-09
-3.16524e-10
-0.00893846
-0.0092373
-2.8346e-10
-2.79759e-09
0.000685713
-0.00153686
0.0558637
0.00232846
0.000618912
-1.05937e-10
-1.69112e-10
2.9007e-08
-3.87788e-10
-0.00120389
-1.52655e-09
2.10123e-10
0.000238903
8.28843e-10
2.72004e-10
-8.63786e-10
-1.65242e-11
-5.14967e-11
7.63856e-10
-0.000149665
5.95124e-11
7.99089e-11
-0.00378783
-1.48443e-09
3.99118e-09
5.10737e-09
0.000933027
1.87682e-10
0.000369985
-7.36582e-10
2.51222e-11
-2.02457e-10
0.000590069
1.35318e-09
-4.52527e-11
8.85162e-10
1.06715e-10
3.1212e-09
1.96884e-09
-0.00727461
4.32936e-06
0.000921588
-0.00411383
1.38187e-10
1.11597e-05
-0.0015443
-6.14871e-10
1.02046e-10
-2.72906e-09
3.85883e-10
-0.011618
1.5189e-10
5.54456e-10
-2.24023e-11
2.64618e-08
-2.80768e-10
-0.00260662
0.00015583
-1.17653e-10
5.1556e-10
-6.42866e-10
1.19454e-09
0.000813967
3.55554e-12
-7.63016e-10
-9.1762e-11
3.61474e-10
-1.00677e-10
6.7784e-10
-0.0199706
0.000261483
5.05426e-10
3.80442e-09
-0.000706978
-0.00594322
-1.97618e-10
-6.13401e-10
7.09175e-11
1.65403e-11
0.000870369
-3.93796e-05
-4.33381e-08
0.00466034
-1.06183e-09
5.59999e-09
3.42474e-09
-2.12736e-10
-7.09396e-10
0.000443789
0.000983655
-6.62605e-10
0.00170943
4.78735e-10
1.9457e-09
-4.31927e-10
9.80497e-10
1.67446e-10
6.69436e-09
-3.99542e-09
-2.66239e-09
-3.36352e-09
-0.00180847
0.00020329
4.71182e-05
-1.01684e-08
-6.01994e-10
-1.83531e-10
1.97689e-09
8.64617e-12
0.00167236
0.00398577
-4.75547e-08
-2.49289e-10
-3.54482e-10
0.00026797
3.99168e-10
0.0172246
-1.98086e-09
-3.16908e-10
0.000171523
-2.30391e-10
3.35102e-10
-0.00042065
-5.05614e-10
-7.67748e-11
-1.67719e-10
-1.09724e-12
1.24255e-06
0.00476523
0.00123811
5.40703e-10
1.38008e-11
-1.8624e-09
0.00151653
-6.82547e-06
-1.9492e-11
1.87544e-10
-2.89384e-10
-1.13278e-09
6.06083e-08
2.00909e-10
0.00771286
-1.74086e-07
-9.93454e-12
0.00278138
5.81858e-09
-4.97214e-10
-0.00194248
2.08798e-09
-1.47086e-10
-0.00227244
0.00312995
-5.98232e-11
-0.000453129
7.25255e-10
7.81746e-05
-4.381e-10
-2.79922e-11
-2.18215e-10
1.23256e-11
-1.51503e-10
-1.94091e-10
-1.22953e-10
6.49108e-10
0.00318023
0.00168717
2.83193e-09
1.57959e-10
0.000959875
-1.54926e-08
-1.03252e-07
-6.24632e-10
-9.56636e-10
-0.0036376
-1.33534e-09
1.66052e-09
-8.88635e-10
-1.22748e-05
3.03785e-10
3.95536e-10
1.48323e-10
-1.29739e-09
-0.00124388
-1.62206e-09
1.56304e-10
5.83017e-12
-6.01654e-10
-9.19635e-11
1.77793e-09
1.8745e-09
1.13618e-07
-5.26752e-10
9.2883e-10
2.21627e-10
1.82003e-09
-2.30481e-10
1.9137e-09
0.000176964
1.79238e-09
0.000558961
-2.29795e-10
8.39504e-10
0.00236053
-0.00571853
-3.50387e-09
-0.00104135
-8.83459e-11
0.0222898
-1.68536e-10
0.000530328
9.8778e-09
7.42816e-10
-1.21709e-10
-0.00459141
-0.00900658
2.62297e-06
4.27203e-10
0.000915062
-1.14874e-10
-4.90108e-10
0.000164004
-2.45045e-09
-6.89545e-11
2.64043e-10
2.6967e-10
3.40617e-12
-6.73152e-10
-5.99562e-11
-0.000150401
-5.24767e-09
-7.93253e-08
-0.00622456
-2.3193e-10
0.000856206
-0.0032994
6.11617e-10
-0.0246439
-2.93627e-09
-6.96714e-10
0.00149586
-0.00184311
-0.0238955
-0.00248844
-1.17799e-09
3.24418e-10
-8.56607e-10
1.574e-10
4.28104e-11
-2.91236e-05
4.08313e-05
-2.49729e-11
-1.69734e-10
5.37968e-09
-8.07673e-11
1.07769e-07
-6.74718e-09
9.64567e-12
-3.90157e-10
-1.27168e-09
1.07936e-05
0.00211169
0.00192765
1.62819e-11
8.16254e-10
2.98905e-09
-1.71819e-10
-7.50114e-12
1.68084e-10
1.19105e-09
-0.000189845
-8.17401e-11
-3.1313e-10
-5.68152e-06
1.50401e-10
-0.00746457
0.0101552
1.06901e-09
1.51657e-05
-7.09064e-11
1.33852e-10
-4.33869e-11
6.50699e-09
-6.94559e-10
0.000472308
0.00232176
1.04927e-09
0.00268726
-1.08374e-09
-3.76587e-10
0.00413364
-3.91542e-10
-9.32174e-11
2.63789e-11
1.64008e-09
1.65919e-09
6.95604e-11
0.000402369
3.87605e-10
1.68688e-09
0.00182193
7.34502e-10
-0.000947041
1.55906e-09
2.91452e-11
0.00130488
-2.30971e-09
9.78289e-11
9.15778e-06
-9.41741e-10
3.63114e-10
0.00461386
1.23219e-11
-0.000780145
7.1194e-10
-0.00221785
-5.16668e-10
0.00304377
-1.23989e-10
-0.00290597
6.82311e-10
0.00285732
-1.8236e-10
-0.00714193
-7.49564e-11
1.4281e-10
-7.1582e-10
-1.5571e-10
1.11556e-08
0.00115765
2.72524e-10
0.001718
-1.17762e-09
0.000186608
-3.64682e-10
1.22272e-10
-1.35396e-11
1.0713e-09
-0.00193981
-5.46032e-10
-0.0144242
-0.000845628
0.000518954
-5.98676e-11
-0.00144191
-2.142e-11
-9.55887e-11
6.23241e-11
0.00050884
-1.21881e-09
-7.09887e-10
-0.00538583
-0.0126549
5.02686e-10
0.000637209
0.00260647
8.84616e-11
4.72434e-10
-3.31496e-09
0.00389015
5.2834e-05
-4.41403e-09
8.31858e-10
-5.81278e-10
7.29891e-11
7.48118e-10
1.96067e-05
-5.2148e-12
-8.41025e-10
5.65287e-10
-2.76951e-10
5.66698e-10
-2.111e-10
-0.000584315
0.0382084
3.48002e-10
0.00463405
-2.0742e-09
0.00252363
-3.95983e-10
2.96799e-10
-1.70414e-09
-8.75185e-10
-1.23896e-09
0.00151548
3.59736e-12
2.43042e-11
-4.13937e-10
8.35936e-10
-4.76901e-10
-6.30434e-10
0.00177524
-0.000110444
-7.76298e-08
-4.21231e-11
3.09663e-10
-4.10231e-11
1.63675e-10
-1.60574e-10
-0.00279606
-3.73435e-05
0.00375028
-4.18592e-10
1.46695e-09
-1.60666e-11
-0.00746261
2.56218e-10
-0.00213339
-2.89374e-09
-0.00104721
-0.00225955
9.96124e-11
2.16109e-09
-2.32081e-10
1.69635e-11
-4.02512e-09
4.89084e-10
3.00265e-11
1.79481e-09
-0.000692914
0.00252975
-2.37086e-06
-3.20796e-10
-9.34358e-11
-0.000834737
-2.19368e-10
0.00248756
0.0005463
-1.44806e-10
5.24431e-09
1.72155e-10
1.65689e-09
-4.13256e-10
-2.93248e-09
1.47691e-10
2.48847e-10
-3.62737e-10
-0.00173964
-5.11685e-10
2.58954e-10
1.92511e-11
0.000407718
1.89607e-08
0.00168545
7.03333e-10
-8.21426e-11
3.61279e-10
0.000338931
-7.47048e-11
7.28684e-10
-1.18814e-10
-4.36385e-10
-6.64521e-09
6.46618e-08
7.82678e-07
-0.000674273
1.85367e-10
1.19431e-09
-3.94745e-10
-1.92894e-09
-7.47227e-10
3.30195e-07
-2.94329e-10
4.66697e-11
-5.14081e-07
-1.00087e-09
5.75707e-12
-2.00112e-09
1.46796e-08
0.00144937
-2.13595e-10
0.00204458
2.91623e-10
0.00310139
3.59592e-11
0.00524741
-6.33074e-06
-4.55407e-09
4.80139e-11
1.39833e-10
0.00446086
-6.48644e-10
6.79696e-10
4.602e-07
0.0129053
-0.000356734
7.53341e-10
0.000133824
1.24604e-05
-0.00246162
-1.02858e-05
-0.00371594
-0.00213284
2.7337e-10
-1.20389e-09
1.17324e-10
-2.76069e-10
1.0551e-10
1.14368e-09
-3.89691e-10
5.45778e-10
-3.14273e-10
-0.000182495
6.1055e-07
-3.08334e-10
-7.88541e-05
4.84158e-10
-0.000162389
-5.11531e-10
0.00137706
2.70094e-10
-4.5533e-11
1.43343e-08
1.23212e-10
0.00137647
-5.82926e-11
-2.69461e-11
-6.93209e-10
0.020638
4.44745e-11
-9.72967e-11
2.81295e-06
0.00260477
0.00172967
7.1483e-10
-2.42662e-10
4.90005e-09
4.1519e-10
8.95174e-10
1.10947e-09
2.69047e-10
1.33555e-09
0.00108421
0.000822167
-4.40807e-09
1.28016e-09
-1.09895e-10
1.26738e-10
5.525e-11
-0.000606482
4.69254e-09
2.04975e-10
-1.10873e-09
0.00411727
7.43453e-08
5.84013e-11
-2.86342e-06
-1.86172e-10
0.00151419
-2.0588e-10
-3.20458e-09
3.39408e-09
1.00936e-07
-0.00167422
-3.30911e-10
3.89944e-09
-3.70377e-09
2.38962e-11
-1.56491e-10
-5.51653e-10
-1.06703e-09
-1.18758e-09
0.00411289
-2.88688e-11
3.51913e-09
0.000696124
0.00655522
-0.00537911
-8.36891e-11
-1.34643e-09
-2.28535e-09
-1.76621e-10
7.22053e-10
-1.95031e-10
2.31031e-10
-2.46473e-11
1.8874e-09
-7.68999e-11
-0.00101014
0.0038831
5.90537e-10
-2.14588e-07
4.74516e-11
1.12601e-10
0.00133158
2.70348e-10
-3.66955e-11
-0.00031075
-0.000113065
0.00233923
3.70196e-10
4.90069e-11
9.23529e-10
0.0184039
-1.9746e-11
-1.87947e-09
-9.0275e-10
-1.89847e-06
-1.03428e-10
-0.00246472
0.000604508
-7.66851e-12
-0.000375653
-3.87997e-10
0.00191085
0.00200146
-2.94477e-09
2.14356e-10
2.53317e-10
9.19448e-09
-1.27197e-10
-2.97959e-11
1.045e-10
-7.70362e-11
5.56888e-08
7.4965e-08
-0.00201907
-1.694e-09
4.4638e-08
-1.02934e-10
1.26345e-09
0.00111459
-3.78937e-11
0.00395419
1.01143e-08
-9.58169e-10
-2.16696e-10
-7.57047e-07
2.37699e-10
1.64709e-10
1.88037e-08
-3.33025e-10
-7.05647e-11
0.00130167
-7.15167e-10
2.60555e-10
6.22726e-12
3.27315e-10
-7.8211e-07
5.97866e-08
-1.33661e-09
1.41805e-07
2.19467e-10
6.42834e-09
-0.000165831
-0.00713684
1.87593e-10
0.00894418
-1.19865e-10
0.00136445
0.0413508
0.00160982
2.85218e-10
4.88156e-10
-8.77518e-10
3.30457e-10
5.4776e-05
1.67366e-10
-1.02725e-07
-6.65657e-10
-2.70732e-08
-2.20387e-10
6.78573e-11
-0.002259
-0.0046004
0.00141656
-1.06186e-09
9.11674e-06
-3.77362e-11
-1.97105e-08
2.97984e-10
4.02002e-07
-4.3247e-10
1.97078e-09
-0.00501699
-1.93188e-07
9.24079e-10
-0.00411668
1.97409e-09
-0.00591713
6.46416e-10
0.000527826
1.86884e-08
1.41147e-10
2.75197e-10
0.000638179
-3.80327e-11
-4.72001e-10
0.000644621
4.92749e-11
-2.21274e-09
0.0244353
-4.32613e-10
3.94905e-07
-0.00129844
-2.45048e-10
2.69672e-09
9.44549e-06
-1.92113e-10
-2.15235e-10
0.00503932
4.66712e-07
9.3671e-10
0.00039214
-1.79892e-10
-8.00434e-11
-0.00448668
-6.78256e-11
2.74131e-09
2.39009e-10
-5.85829e-10
4.09458e-10
-2.33774e-10
2.45075e-07
-0.00134007
-1.93865e-09
5.24354e-10
5.02447e-11
1.73244e-10
-1.64055e-10
-0.00147762
-1.38075e-10
-7.41744e-10
-5.07304e-05
2.72673e-09
8.64284e-08
-4.02643e-09
8.3747e-11
3.33841e-10
-1.1715e-10
-1.19973e-09
5.53328e-10
-1.6812e-09
-0.00533395
6.55382e-10
-7.61536e-11
-9.28391e-11
7.03597e-11
-0.000956226
2.39328e-05
1.5456e-10
1.52817e-10
-5.30642e-10
1.13161e-10
-1.37629e-10
-0.0278164
0.00260387
9.84209e-11
1.00259e-07
3.9688e-11
-1.58326e-09
-1.32669e-09
-1.71258e-09
-3.37769e-08
0.000135944
-5.63583e-08
1.37807e-10
1.46863e-10
7.08525e-10
9.47339e-11
-0.00137682
-1.67652e-10
-3.19101e-08
-1.08097e-07
-2.88924e-10
0.000208359
2.64559e-10
2.70146e-05
2.24716e-10
8.45507e-09
2.15823e-10
-5.95915e-11
-4.77045e-10
-1.17068e-10
2.38076e-09
-1.27371e-09
-0.0261881
-0.00469903
-0.00405973
-1.78639e-09
-8.68547e-10
3.84487e-10
-5.79161e-10
-1.56e-10
1.69801e-09
-4.20823e-12
8.53257e-11
-0.00668701
-1.80071e-09
9.86161e-10
-5.7329e-10
0.0201419
-0.00405621
-2.17809e-10
1.71128e-09
0.00414696
0.00322182
1.10663e-09
-0.00733201
-0.00109169
1.97398e-10
-0.00042035
5.59779e-10
7.96007e-10
1.01731e-05
2.95819e-10
-3.05802e-10
0.0733489
-1.19776e-11
-7.14164e-09
4.6011e-10
0.000381072
-9.70009e-10
2.17051e-07
0.00418047
5.61561e-06
0.00256311
2.67239e-11
-1.24133e-10
-8.88907e-10
1.8713e-10
6.32711e-06
1.47863e-10
-1.21956e-09
0.00961413
-1.00907e-10
0.00387628
0.00247056
-9.22355e-10
-4.06722e-11
-1.43118e-09
0.0539436
5.34501e-10
1.37114e-09
6.66283e-11
5.38573e-10
3.77703e-13
-0.00229976
1.26996e-10
4.33461e-11
0.00213554
0.00268699
1.12605e-05
8.14797e-09
-2.06208e-10
0.0387878
0.00462273
-4.80834e-10
0.00347237
-0.00965521
-0.00727413
-5.36763e-10
-7.61167e-11
3.20865e-10
1.76881e-10
-3.269e-11
-0.00747989
-1.263e-09
3.31678e-07
-2.3292e-11
-1.18155e-10
7.4504e-10
1.44052e-09
0.00139408
-3.21561e-09
-1.04394e-09
-2.00304e-10
1.00898e-10
-1.48422e-10
-1.89639e-08
5.12205e-10
-4.61913e-10
-3.37114e-11
7.52026e-11
3.45898e-10
-0.00776506
5.35802e-10
-0.000963578
-9.792e-11
0.000334961
1.03895e-10
0.000722623
-1.07886e-10
-6.84543e-10
8.89128e-10
-9.72162e-11
0.000228218
1.52618e-11
-1.38764e-09
-4.8196e-10
3.82064e-09
8.38801e-08
2.7855e-07
2.23898e-09
6.59899e-10
-1.40244e-08
5.49361e-10
1.80347e-10
2.09783e-10
1.18119e-09
-2.23954e-10
-3.14526e-09
-9.32221e-09
1.90543e-10
-5.31525e-10
-5.15844e-08
-9.2361e-05
7.55572e-10
-1.46168e-10
0.000248318
0.00143017
2.32792e-08
-8.499e-11
-4.53927e-07
-7.96424e-11
-1.47236e-09
-1.52592e-09
1.81124e-09
-0.00162368
1.5987e-09
5.24766e-11
8.05862e-10
-2.79569e-09
-0.00362712
2.57074e-07
-5.68823e-10
2.62034e-12
4.43983e-10
-0.00284876
-1.71365e-07
-2.44301e-11
9.85001e-08
0.00262602
-5.72572e-05
-1.02802e-10
-8.13088e-09
-0.00600516
0.000388908
0.00289806
-0.000108636
-6.82386e-09
-9.68676e-12
0.00450478
0.00411328
7.05795e-10
1.61036e-07
-0.00823077
-0.00349509
-1.38392e-09
-0.000673269
5.20214e-11
0.00114271
6.25663e-10
6.08141e-06
2.90045e-10
2.4317e-10
0.0397197
-3.76825e-10
-3.76653e-11
0.000351155
-9.80528e-10
1.06057e-05
2.99146e-09
-9.60202e-09
-2.09086e-10
0.00105395
4.60686e-11
-1.35981e-10
-2.95748e-11
-0.00107389
-0.00071146
-1.95101e-10
5.35088e-10
0.00321851
2.9035e-10
1.28339e-10
-0.00263858
-4.26407e-10
4.42691e-11
-1.74518e-09
2.26803e-10
9.11399e-06
2.05668e-10
-1.63465e-09
-9.07523e-11
-3.66092e-09
-1.85305e-09
-0.00111158
2.18474e-09
-1.34128e-10
4.56474e-10
-5.03195e-11
1.26475e-09
5.91277e-10
-8.40714e-10
-3.40801e-10
1.33053e-09
-0.000368271
-0.00060543
0.00242332
-9.83671e-11
0.00425912
1.18592e-09
-0.00680616
-0.00195843
-0.0487886
2.12729e-10
1.27509e-10
-9.63507e-11
5.38587e-10
-0.000217465
9.39845e-10
3.09495e-05
-7.165e-11
5.02286e-07
1.29904e-10
-1.00183e-09
0.000934213
-1.58986e-11
-2.19322e-09
0.0127313
0.00263673
-6.77079e-10
3.35219e-11
5.70257e-10
1.76085e-05
-2.84182e-10
1.76568e-07
0.00146943
3.0049e-11
-0.00317729
6.27382e-11
8.92838e-11
-4.66419e-10
-0.00471493
-2.93832e-10
-2.72184e-08
-0.000597017
3.88434e-10
-3.79776e-09
-1.70286e-10
-1.72097e-10
3.73997e-10
-6.02366e-06
4.10169e-10
-3.23411e-11
-4.00871e-13
7.24191e-10
1.93862e-07
-0.00958981
9.51217e-11
-0.00637057
0.00146888
8.06638e-10
0.000849899
7.90401e-11
-1.28556e-10
2.22308e-10
2.0225e-10
-1.23724e-10
-7.98053e-07
-8.33184e-11
-0.00255745
1.52555e-08
5.07738e-05
-0.00135163
-0.00718162
-1.0996e-09
0.00128645
-2.6985e-12
6.24441e-07
-0.00341488
-5.92811e-10
-0.00550919
0.00192588
-0.0001891
0.000931146
0.000912212
-0.000158671
-4.25644e-10
-3.52073e-10
0.00207163
4.34541e-06
1.25267e-10
-2.15478e-09
-3.02204e-10
-2.39476e-08
-0.000468765
-8.68149e-10
4.12007e-10
8.86373e-10
1.62779e-06
-0.00428126
2.82686e-10
1.19904e-09
-5.89147e-10
0.000410559
8.05837e-10
-0.000314856
-5.6091e-10
9.66468e-11
-2.82194e-09
-2.81551e-10
3.33574e-09
2.68315e-10
-0.000300133
-1.53092e-09
0.00059941
2.9652e-09
3.54113e-10
1.27595e-09
6.69424e-10
1.19177e-11
0.00139854
-0.0048285
-7.21522e-11
-5.53714e-10
-0.00246856
-8.37002e-06
2.732e-10
-9.05872e-10
4.94487e-10
6.54432e-09
0.0371281
1.13497e-09
-1.02006e-10
4.73969e-11
-0.000109756
0.00282767
4.25803e-10
-6.05364e-06
0.000998341
-6.29941e-10
0.00127634
-0.000347292
-0.00446996
5.03937e-10
1.30806e-07
1.69258e-10
1.36776e-10
-3.87546e-06
0.00146202
-1.32387e-08
-6.2208e-10
-0.00114092
1.28524e-10
4.98304e-10
-3.67753e-05
1.26183e-09
-3.27294e-06
3.66791e-10
-4.59719e-11
0.00408473
4.16006e-05
-1.92519e-11
-1.79355e-09
1.69548e-09
-5.79319e-05
0.000599237
2.65279e-05
-0.000232428
1.35201e-10
-2.07174e-10
-1.81984e-10
2.82972e-11
-0.0041168
0.00248453
0.0117009
-1.42798e-08
0.00152788
1.17107e-10
7.04321e-11
-1.63013e-10
-3.55975e-11
-9.98278e-10
-1.08631e-11
7.86167e-10
-1.42153e-09
1.28088e-11
4.14877e-10
-2.90321e-11
0.0383723
1.84334e-10
-6.24161e-10
2.77002e-05
6.13056e-10
-1.81852e-09
-3.23383e-10
-3.46317e-08
-9.95472e-10
-1.38086e-10
1.16361e-10
3.34265e-10
-0.00270613
0.00105535
3.07871e-11
-0.00823401
-6.92514e-05
-8.73878e-11
3.5635e-10
7.73332e-10
2.86326e-10
1.63739e-10
-4.32568e-10
-5.47219e-10
-1.76118e-08
0.0277247
0.00305245
-1.27005e-05
2.27214e-10
-1.09573e-10
6.53281e-11
-9.62407e-10
1.37682e-08
-8.18004e-10
0.000900919
6.34135e-05
-3.39415e-10
-2.71701e-10
-0.00157103
1.08438e-10
0.00015738
-0.0026677
0.00325893
1.30933e-10
-0.00635026
0.00113737
-0.000481828
-1.54125e-10
5.50828e-10
-7.28185e-11
2.8249e-10
0.00126042
0.00442845
3.58041e-06
2.95987e-09
1.1653e-09
-8.05662e-11
-5.41956e-09
0.0233469
-4.09714e-10
-2.80953e-11
-0.00586869
-0.000467527
-1.67627e-10
-2.80359e-10
-7.45157e-10
9.33606e-05
-2.53029e-11
-5.95857e-10
1.06701e-10
-6.37843e-10
-6.93146e-11
0.000157511
9.60386e-10
-8.11919e-12
-7.9225e-09
0.00446254
3.00022e-10
1.9047e-05
-1.22296e-09
-6.3263e-10
0.0323816
1.19239e-09
0.0294724
4.21998e-11
-0.00171792
-1.34721e-09
-5.97449e-11
2.64343e-10
-2.34048e-10
6.36425e-10
6.46346e-09
3.16326e-10
5.02991e-10
0.00228079
-1.96344e-10
-0.00430259
2.88546e-10
-1.61682e-09
0.000352787
6.17643e-10
-2.28313e-10
4.75336e-10
-1.21702e-07
2.35583e-10
-0.00156882
-7.60049e-10
-6.17696e-11
-3.79151e-07
-0.00175465
6.96962e-11
2.15447e-10
-2.52436e-10
-1.47752e-10
3.89934e-11
-3.83019e-09
-1.24531e-09
-2.40108e-10
-1.99807e-09
-0.0064397
0.000752514
-2.00402e-09
-1.65491e-09
-7.92389e-11
-0.00323793
-2.26824e-10
1.08672e-10
-2.38797e-10
-0.00526751
-0.00654617
-2.44492e-10
0.00034953
-1.96332e-09
1.05837e-10
-0.00162568
-1.02859e-05
-2.53843e-10
-1.16782e-06
1.23838e-10
3.10662e-10
1.39121e-10
-2.21197e-07
1.4469e-09
-8.91406e-10
-0.00155377
0.00424091
5.64475e-10
4.14069e-11
-0.00589218
5.41084e-10
1.53588e-09
-2.03505e-11
4.19907e-12
-0.00741166
3.07415e-07
3.87741e-11
-4.73251e-06
2.65492e-10
-0.00530282
-7.77427e-05
2.49711e-09
-2.80706e-11
-1.28206e-09
3.81696e-09
-0.00760671
-3.58576e-05
-6.48924e-10
2.49762e-10
-3.57477e-10
-3.08212e-09
1.48639e-10
-0.00148492
-5.55787e-09
-0.00255981
1.71586e-10
-8.53021e-11
0.000868844
3.67946e-10
0.0314494
-6.66503e-10
-1.3043e-09
-3.17724e-09
-5.4721e-10
-2.67881e-10
0.000334875
0.00108289
-0.00509853
-8.69842e-10
-9.53068e-12
1.1049e-10
-9.06509e-10
-3.11469e-09
0.000348192
7.38713e-09
0.00139684
0.000306804
-5.07658e-11
-2.95156e-10
-2.17485e-05
-1.58793e-09
-9.99249e-11
2.05334e-10
0.000998811
-1.40195e-09
-0.000154524
-2.93252e-11
1.27307e-05
3.17268e-11
0.00127921
8.05984e-10
-7.49609e-09
5.14527e-09
0.0288676
-3.00913e-05
-0.00011367
8.42956e-09
-8.90093e-10
1.64835e-09
0.00963185
0.00022795
6.73527e-10
5.52267e-10
-4.90497e-11
-6.40435e-11
-9.19479e-10
0.000372709
-3.17829e-09
2.37315e-10
-2.07841e-09
1.03061e-05
7.06117e-10
9.95266e-11
0.00937524
3.20439e-10
-6.44494e-10
1.84352e-05
-4.506e-10
1.41141e-10
-6.9793e-10
1.53864e-10
0.0048256
1.13957e-10
-5.83822e-10
-0.000396409
1.66067e-10
-4.81979e-11
0.000143453
1.22689e-06
0.00190633
-0.00403308
-2.36434e-10
-0.00368839
2.46413e-09
8.73821e-10
1.49386e-10
2.62591e-10
3.3287e-11
-1.93434e-10
6.97472e-11
0.00337003
-1.60235e-09
6.7476e-09
0.00196382
1.88468e-10
-2.96816e-09
0.000199352
-2.95375e-10
1.84167e-09
1.06063e-09
1.53501e-10
0.00633431
4.04408e-10
5.6501e-11
-0.00505492
-2.41057e-11
-9.80532e-09
-0.0035951
-2.48837e-10
-8.42212e-07
4.37916e-05
0.00171423
-1.54376e-10
-1.63718e-09
-0.00904678
-2.11788e-10
0.00118355
-0.000168169
0.0310733
-4.44628e-10
-2.0558e-08
3.10987e-11
-2.93661e-11
4.14498e-10
1.23736e-10
-4.6824e-10
0.00481029
1.22046e-09
0.00104956
6.4196e-10
0.00665649
-1.39887e-10
-2.1798e-07
0.00301324
3.05816e-09
-2.65345e-09
3.87328e-10
-1.82523e-09
-3.09417e-11
1.42828e-05
-2.26933e-09
0.00360905
2.26332e-10
-3.32737e-11
-2.43236e-12
-5.65594e-11
-3.43858e-09
1.45378e-09
-1.10561e-10
-4.4557e-10
-0.0317523
-3.98806e-05
2.98058e-09
-2.88785e-05
1.55333e-10
-9.04394e-11
4.12232e-10
5.48408e-10
-2.09809e-10
7.00457e-09
1.7119e-09
-4.93494e-10
0.00119608
9.69031e-10
0.000100966
-1.76217e-09
-0.00708374
2.18586e-10
-0.00331523
-6.53643e-12
0.000871067
1.57468e-10
8.11077e-11
1.4406e-10
0.000946602
-4.08248e-11
0.00401162
2.34803e-10
-5.76218e-10
4.58929e-11
1.55853e-06
-0.00640249
-0.00123307
0.000189348
1.86722e-09
-2.86238e-09
-0.004386
1.21815e-08
1.07768e-10
6.72225e-07
7.67569e-10
5.19819e-08
0.00102331
-7.90911e-11
-0.00145608
-4.12379e-12
-5.24036e-07
3.32211e-10
2.74614e-09
2.22176e-08
-5.19924e-10
0.00193066
1.97375e-09
-4.84527e-11
-8.1235e-10
-4.26977e-11
-3.88472e-09
-4.4667e-10
2.45171e-09
9.53043e-11
-1.72372e-07
-0.00634917
3.00316e-09
-0.00800688
0.0192759
7.15202e-11
1.72175e-11
-3.2914e-05
8.80193e-10
-2.66576e-10
-1.52688e-09
-1.853e-09
0.00194832
-1.74392e-09
0.000116732
1.94534e-11
0.000151302
1.40901e-09
4.35557e-10
-2.52758e-10
-2.36989e-10
-1.33662e-10
2.6167e-10
-6.92893e-10
1.79035e-07
-1.2377e-09
-1.71055e-09
-2.04615e-09
-2.39173e-09
-5.32058e-05
0.00209778
0.000310994
3.9788e-07
-1.43598e-09
4.45561e-10
4.62336e-10
-2.21629e-10
-1.04982e-06
-0.00225587
-4.61518e-06
0.00207066
2.42813e-06
0.00136914
-1.53064e-09
-6.31806e-10
-1.76184e-10
-5.28013e-11
-4.51185e-10
-0.000298697
-0.00180617
0.00056174
-1.45285e-10
0.005934
-7.95998e-10
-8.16558e-10
-4.43482e-11
0.000156299
2.59558e-10
-9.9587e-11
-1.11077e-09
-3.31289e-10
1.54386e-07
-0.0105936
-0.00722715
-4.99703e-09
5.91127e-10
-8.91587e-10
-2.92689e-06
0.0223193
-0.00269604
-0.00202947
-1.72186e-10
-0.00047948
-1.41912e-08
1.20624e-09
-1.85061e-09
0.000911285