/*--------------------------------*- C++ -*----------------------------------*\
| =========                 |                                                 |
| \\      /  F ield         | OpenFOAM: The Open Source CFD Toolbox           |
|  \\    /   O peration     | Version:  v2012                                 |
|   \\  /    A nd           | Website:  www.openfoam.com                      |
|    \\/     M anipulation  |                                                 |
\*---------------------------------------------------------------------------*/
FoamFile
{
    version     2.0;
    format      ascii;
    class       surfaceScalarField;
    location    "300";
    object      ddtCorrDdt0(phi);
}
// * * * * * * * * * * * * * * * * * * * * * * * * * * * * * * * * * * * * * //

dimensions      [0 3 -2 0 0 0 0];
oriented        oriented;


internalField   nonuniform List<scalar> 
27668
(
0.000285828
-0.000413024
0.000127195
8.4366e-05
4.70162e-05
-0.000131387
-8.63574e-08
8.63882e-08
6.92083e-06
-4.75313e-05
4.06132e-05
-9.12632e-08
2.67727e-07
-1.76293e-07
-4.89406e-06
1.05198e-05
-5.62612e-06
-7.84859e-05
9.0495e-05
-1.20103e-05
-3.95175e-07
-8.2437e-08
4.77624e-07
-0.00232526
0.00166855
0.000656731
0.000631509
-0.000391808
-0.000239702
-6.60098e-07
2.28017e-07
4.32023e-07
-8.65203e-05
2.51197e-07
-4.18805e-07
1.67671e-07
-0.00126106
0.000497129
1.77954e-06
-2.11117e-06
3.31536e-07
0.000861317
-0.00141668
0.000555346
0.00022582
5.67923e-05
-0.000282613
-6.8538e-06
1.95783e-06
-6.54676e-06
6.60489e-06
-5.77459e-08
0.00121009
-0.000392688
-0.000817413
-1.26982e-07
-9.70023e-07
1.09706e-06
2.52098e-07
-7.00663e-07
4.48789e-07
0.000539777
0.000691916
-0.00123169
4.96939e-08
1.64754e-07
-2.14208e-07
1.133e-07
-1.91448e-07
7.82304e-08
-0.000259285
0.000291981
-3.26968e-05
6.58452e-05
-0.000193572
0.00012771
-2.94636e-07
-4.80232e-07
7.74909e-07
-0.000282535
0.000348374
0.000278105
7.72316e-06
-0.000652975
0.000693388
-4.04138e-05
-4.68617e-07
7.34225e-08
-2.24524e-06
-9.54703e-07
3.19882e-06
0.000124555
5.50054e-05
-0.00017956
-1.57799e-05
-6.27075e-05
0.00137015
-0.000676905
-0.000693269
2.05181e-09
1.65191e-07
-1.6719e-07
1.55285e-07
-8.15383e-07
7.31523e-08
-1.64333e-07
0.000223204
-0.000268725
4.55214e-05
-0.000638165
0.000514715
0.00012345
-0.000226846
-0.00181355
0.00204037
-0.00115696
0.000567717
0.000589273
-0.000624348
7.45784e-06
-1.76308e-06
-5.6952e-06
2.26493e-06
1.01992e-06
-3.28409e-06
1.29701e-08
1.59757e-07
-1.72658e-07
-0.000427135
-0.000525392
0.00095252
-3.50919e-07
7.10545e-08
2.79947e-07
-1.46209e-07
2.59545e-07
1.37833e-07
-2.39775e-07
1.01936e-07
-0.000656112
-0.00053623
0.00119233
0.00056725
0.000718119
-0.0012853
0.00024895
-0.000341158
9.22081e-05
-4.97521e-07
7.49587e-07
1.38579e-07
-2.58086e-07
1.19597e-07
-9.86303e-08
-6.13144e-07
7.1183e-07
-8.55598e-09
7.44459e-08
-6.58338e-08
1.65486e-07
-3.70441e-07
-1.65187e-05
-1.49784e-05
3.14973e-05
-0.00026578
0.000303655
-3.78749e-05
0.000105669
-2.13052e-05
-6.02078e-07
3.07493e-07
-7.67392e-08
1.26548e-07
0.000183902
0.000531444
-0.000715327
0.000721157
-0.000938402
0.00021725
-3.44436e-07
5.0998e-07
2.47677e-06
-2.10662e-06
-3.70092e-07
0.0042395
0.000741106
-0.00498058
-2.74023e-07
-8.83601e-09
2.8283e-07
3.13117e-06
3.62441e-06
-6.75563e-06
-3.69783e-05
5.83003e-05
-2.13208e-05
-0.00121532
0.000788182
0.000865193
-0.000297913
-5.96378e-07
1.65777e-06
-1.06208e-06
-0.000491711
-0.000146454
-2.22406e-07
-6.44588e-08
2.86867e-07
2.39883e-07
-1.01258e-07
4.28487e-06
-5.31999e-05
4.8917e-05
6.34514e-06
-3.21407e-06
-0.000100788
0.00131088
-1.08076e-06
3.34529e-06
-8.75963e-07
-1.80201e-07
1.05637e-06
-0.00028469
2.5404e-05
6.15195e-07
-2.8598e-06
-0.000774652
0.000121674
-4.16962e-08
-2.32324e-07
0.000241266
0.000366861
-0.000608134
-5.07081e-07
-1.68293e-08
5.23942e-07
-1.74241e-05
1.94171e-05
-1.99259e-06
9.24061e-06
-5.10215e-06
-4.13769e-06
0.00037813
-0.000129181
6.93128e-06
5.2637e-07
-8.70582e-05
-1.3931e-05
0.000100942
0.00109841
-0.0001646
-0.000933806
-5.86124e-07
1.34112e-07
4.52141e-07
-0.000125515
0.000144913
-1.94019e-05
5.19734e-08
2.19237e-07
-2.70989e-07
0.00108356
-0.000306261
-0.000777301
-0.000100512
0.000225067
1.80327e-07
-6.87405e-07
-4.42696e-08
3.57397e-08
-1.03545e-06
1.82745e-05
-1.72388e-05
3.00838e-05
4.71817e-05
-7.72657e-05
5.26363e-05
-4.83501e-05
3.28904e-06
-2.82972e-06
-4.60732e-07
-0.000417771
-7.2007e-05
0.000489777
0.000283252
-0.000298408
1.51558e-05
-4.9994e-08
5.83628e-07
-5.33631e-07
0.000382647
-0.000198754
1.40016e-05
9.65504e-06
-2.36565e-05
-2.06155e-05
-0.000245165
1.39434e-06
-9.73015e-07
-4.2165e-07
-1.98086e-05
1.87732e-05
0.00021325
0.00016488
-3.0226e-06
2.32834e-06
6.9424e-07
-0.000160778
0.00124433
-2.71806e-05
1.06619e-05
1.86234e-06
-1.0951e-05
9.08855e-06
-1.49579e-07
1.51695e-07
0.000320505
-0.000576971
-6.68677e-07
8.44668e-07
-1.75792e-07
6.57656e-07
-1.53669e-07
-5.03969e-07
2.04775e-05
-6.47584e-06
-3.65942e-05
-8.35462e-05
0.000120137
1.22907e-06
-3.75367e-06
2.52352e-06
-3.07927e-06
-5.28788e-07
3.60816e-06
2.37221e-05
0.000100947
-0.000124669
0.000819304
0.000550835
1.61175e-07
-9.15412e-08
-6.96123e-08
2.6976e-07
-3.38974e-07
6.92633e-08
5.7602e-05
-1.30682e-05
-4.45329e-05
-0.000322902
-0.000351712
0.000674616
-7.34917e-06
-8.49279e-07
8.19933e-06
-6.49856e-05
0.00430448
1.86491e-07
-4.86537e-08
0.000469798
-7.90426e-05
-0.000390754
-5.30206e-07
-1.33231e-07
-2.68659e-06
-4.39772e-05
4.66618e-05
-0.00158047
-0.00074478
-3.56319e-07
-2.02024e-07
5.58142e-07
5.90655e-07
-6.89244e-07
-0.000282713
0.00092657
-2.25965e-07
-3.50998e-08
2.61129e-07
-4.96855e-06
-7.43656e-07
5.71242e-06
0.00122741
-0.000492554
-0.000734863
0.000411905
-0.000198655
9.29145e-08
-2.08456e-07
1.1578e-07
-1.33467e-05
1.48749e-05
-1.52771e-06
2.49084e-06
7.98192e-07
4.80734e-06
-2.11802e-05
1.63727e-05
-6.59917e-07
5.71112e-07
8.88257e-08
0.000112202
-0.000366961
0.00025476
-1.50602e-07
-4.35473e-07
-1.17402e-07
-1.08614e-07
0.000309513
-0.000334676
2.5164e-05
3.49861e-06
-2.26978e-06
1.74421e-07
7.68037e-08
6.00716e-06
-1.66919e-05
1.06848e-05
0.000134828
2.61299e-05
-0.000160959
-0.000142444
5.53838e-05
-8.71435e-08
-2.63709e-07
-1.80799e-07
4.15625e-07
-2.3478e-07
1.40435e-07
2.0755e-08
0.000106333
0.00011687
1.98871e-05
0.00101867
-0.00103855
-7.207e-07
1.88206e-07
5.32613e-07
-1.30783e-05
5.45775e-05
-4.14964e-05
-1.31734e-05
-0.000188627
0.0002018
2.72225e-07
-8.68975e-07
-1.90506e-05
4.10213e-05
-2.197e-05
-0.00103563
0.000752914
-0.00326395
0.00304902
0.000214936
6.19892e-06
-7.18882e-06
9.89325e-07
-3.50638e-07
-3.49851e-07
-0.00103893
0.000952415
-2.75645e-06
-2.66263e-07
-8.77081e-09
-5.11141e-06
5.11965e-06
-1.13207e-07
0.000118374
-0.00011826
-0.000366484
0.000257283
0.0001092
-0.000185192
0.00173344
-0.00154826
4.81734e-05
9.42947e-06
-2.51096e-06
3.12639e-06
-4.90887e-05
9.50799e-06
3.95771e-05
-1.1216e-05
-3.87906e-06
1.50959e-05
0.000511777
-0.000355347
-0.000156427
-8.34386e-05
-4.1913e-05
0.000125347
1.26087e-07
-5.23427e-07
3.97346e-07
-0.00185289
-0.00141102
6.09161e-08
-1.18196e-06
1.12105e-06
-6.236e-07
-4.49842e-08
-5.96795e-05
4.66032e-05
4.53674e-05
7.67322e-05
-0.000122101
1.10406e-05
9.13641e-06
-2.01772e-05
-5.12852e-08
1.27609e-08
3.85953e-08
-0.000243126
-0.000293526
0.000536653
0.000323317
-4.00658e-05
-2.79241e-05
0.000162752
-0.00116131
4.38465e-06
0.000231612
-8.12426e-06
-0.000223487
6.95238e-09
2.32969e-07
-3.55349e-05
1.64857e-05
-7.10657e-08
-1.528e-08
-8.31356e-06
4.45694e-06
3.85698e-06
-0.0011888
0.000746534
0.000442264
-0.00223551
-0.000223313
0.00245884
-5.70717e-07
-8.91846e-08
1.36415e-06
-3.76074e-06
2.39625e-06
6.7383e-06
1.18977e-06
-7.92741e-06
-0.000174243
-0.000238781
6.11036e-05
-0.000267425
0.000206322
1.31611e-07
1.14814e-07
-2.46332e-07
0.000103207
0.000366597
0.00223805
-0.000358538
-0.0018795
1.4026e-05
-2.48495e-05
1.08228e-05
0.00127928
0.000958776
1.89551e-07
-1.09288e-06
9.0345e-07
-1.97091e-06
3.80551e-08
1.9327e-06
5.53353e-05
-4.84096e-05
-6.56496e-08
-2.00736e-07
2.66419e-07
-3.15703e-07
-1.36671e-07
4.52517e-07
-4.90512e-06
-6.33906e-08
3.46595e-08
9.14501e-08
1.07803e-05
-4.77581e-05
9.45301e-07
-7.5574e-07
3.61598e-07
2.96088e-07
7.22143e-08
8.31419e-07
-9.03606e-07
0.00013313
-1.11041e-08
-1.69705e-07
0.000216656
-0.000539554
-5.92682e-06
0.00012483
-0.000118902
1.63848e-07
-1.11869e-07
8.84672e-07
-1.01162e-06
0.00352378
-0.00245167
-0.00107242
-0.000184176
-0.00032108
0.000505263
2.67114e-07
-2.77674e-06
4.31419e-06
-1.55302e-05
4.96866e-08
-1.26302e-07
4.72296e-06
4.51798e-06
-3.03677e-06
-6.7097e-07
3.70756e-06
-9.46087e-05
0.000157603
-6.29941e-05
0.000252435
-0.000265915
1.34789e-05
4.18088e-07
-1.3979e-07
-2.78223e-07
-7.27038e-05
7.00132e-05
-4.93232e-06
1.81448e-06
3.11739e-06
-1.65816e-05
-1.89524e-05
3.44176e-07
-7.00431e-07
3.1099e-05
-1.7074e-05
1.72517e-08
-6.84442e-08
-0.000335262
-1.63078e-05
0.000351574
0.00265569
0.000867855
-0.000510369
0.00075163
-0.000593521
0.000451066
0.000142457
0.000123662
-3.76522e-05
-8.60126e-05
0.000793658
-0.00025388
-2.16024e-05
1.39148e-05
7.68721e-06
-0.00118608
0.00221024
-0.00102417
8.98643e-07
-2.42261e-07
-6.56302e-07
0.000303378
-3.47659e-06
-0.000299904
3.91683e-06
-3.92573e-06
-0.000116869
0.000106512
1.03581e-05
-0.000166189
0.00088735
0.00058104
0.000517372
-0.000698893
-0.00143896
0.00213786
-7.97827e-07
-2.46353e-06
3.26155e-06
1.76367e-07
-2.42011e-07
-0.00078432
0.000498265
0.000286058
-3.11264e-05
0.000266846
-0.000235722
-7.09265e-06
6.91281e-06
1.80719e-07
-2.2913e-07
-1.00258e-08
2.39248e-07
-3.6364e-07
3.89105e-07
-2.54249e-08
-5.85769e-05
8.54515e-05
-2.68751e-05
-1.02815e-07
4.05351e-07
-3.0247e-07
0.000326045
-6.10863e-05
-0.00026496
-0.000900881
-0.00028791
1.93087e-05
-0.000152709
0.000133398
-3.0764e-05
0.000256584
0.000235718
0.000227817
-0.000463533
-0.000133485
1.66162e-05
-0.000174754
8.01449e-05
0.000131339
0.000381066
-0.000512404
-5.5501e-06
-9.9653e-07
0.000125476
0.000200568
0.000142722
5.3827e-05
-0.000196549
-1.06054e-05
1.49205e-05
0.000258048
-0.000289175
0.0010318
-0.00036422
-0.000667579
-5.63274e-08
7.57037e-08
-1.93631e-08
0.000217845
0.000293934
-0.00126092
6.99681e-05
0.00119091
0.00123113
-0.00141633
-2.02326e-05
-2.88598e-05
-0.00053255
7.15959e-06
0.00104365
-0.000472696
-0.000570951
8.33055e-07
-7.68711e-06
1.24791e-08
4.05675e-07
-0.00122878
0.00395566
-0.00272686
-1.76001e-05
-4.00387e-06
-0.000116412
0.000140135
0.000421205
-0.000605381
0.000318021
0.000313486
-3.56341e-05
1.9053e-05
-6.51814e-05
2.85866e-05
-1.56535e-06
7.76388e-06
0.00017076
-0.000588533
-2.91804e-06
2.80642e-06
-1.72258e-05
-6.57486e-05
-0.000157691
0.000223439
-0.000711781
-0.000422764
0.00113455
-0.00107588
0.00100839
6.74946e-05
-4.32931e-06
3.55009e-06
7.80926e-07
0.00438559
-0.00561436
-0.000134595
6.88468e-05
0.000136015
-0.000163939
-7.32462e-05
4.77047e-05
2.55414e-05
-0.000286307
8.81038e-05
0.000198204
-3.67996e-06
-6.491e-07
1.16084e-07
7.82607e-07
-0.00266843
0.00148232
1.09872e-06
1.37815e-06
-0.000267216
-0.000326304
9.3043e-07
-6.01666e-07
-3.28585e-07
-7.40532e-06
2.74971e-06
4.65544e-06
-4.14535e-06
-7.59723e-07
-0.000115721
0.000790367
-0.00067464
3.60839e-07
-5.83266e-07
0.000145192
-5.93348e-05
-8.58602e-05
-1.38091e-05
-3.29706e-06
-1.63577e-06
1.30619e-06
-4.34307e-06
7.20835e-07
1.24207e-06
-1.96285e-06
0.000457855
-0.000138595
-0.000319261
0.000230576
-2.74046e-07
2.1869e-07
5.54139e-08
-0.00016323
8.9653e-05
7.35416e-05
-2.3892e-06
3.93943e-06
-1.55029e-06
-1.54563e-05
0.000267889
-0.000181396
0.000417112
-2.83106e-07
5.20969e-09
2.77946e-07
-7.28842e-05
1.43072e-05
-0.00044834
0.00022693
0.000221409
0.000574679
-0.000438107
-0.000136526
1.64322e-06
-9.70323e-05
9.5388e-05
8.75816e-08
-1.81804e-06
1.73039e-06
0.00134491
-0.00093593
-0.000408986
-7.67205e-05
7.07917e-05
-1.58147e-05
0.000247426
-0.000952308
0.00091389
3.84262e-05
0.000116641
0.000182957
-0.000299596
3.1307e-06
2.85604e-06
-5.98678e-06
-1.09035e-05
1.57109e-05
-1.53635e-05
3.08885e-05
-1.55253e-05
-0.000177182
-0.000337506
0.000503518
-0.000166013
-1.54578e-08
-8.57969e-07
8.73413e-07
5.45707e-05
-1.00421e-05
-4.45251e-05
-0.000141772
-0.000225188
-0.000655559
-0.000605384
-5.0968e-08
6.37541e-08
3.00131e-07
-7.95653e-07
4.95563e-07
0.000130266
-0.000298063
0.000167796
-8.70932e-07
6.91857e-07
1.79054e-07
-3.44466e-08
-2.39544e-07
2.69672e-07
1.07449e-10
-6.65669e-07
3.15266e-07
0.000457855
-0.000107176
2.1024e-05
8.61494e-05
-1.13936e-05
0.000147409
-0.000156832
-0.00088211
7.20559e-05
0.000206049
-0.000986499
0.00075965
-3.59048e-06
-0.000224503
8.67475e-05
0.000137755
-4.50782e-07
2.23032e-06
-0.000565312
0.00179643
0.00101692
-0.00118065
0.000163728
-4.51854e-06
3.73217e-07
-1.75905e-07
-5.15041e-07
6.90967e-07
-7.44168e-05
-0.000194308
0.0011795
-0.000359438
-0.000820073
3.74197e-07
-1.16945e-07
-2.57851e-07
-3.75985e-06
4.59096e-06
-0.000218617
-0.000147867
-6.76109e-07
3.31682e-06
-2.64086e-06
0.00068215
0.00128969
-0.00197184
4.88214e-07
-1.39731e-06
9.09024e-07
-2.32105e-07
4.03912e-07
-1.71775e-07
-4.09704e-08
-2.00899e-07
2.41931e-07
3.406e-06
-1.40128e-05
-0.00138193
0.00224419
-0.000862253
7.33563e-06
-1.71901e-06
-5.6164e-06
-2.28613e-07
-1.80144e-08
2.46681e-07
-2.20918e-06
1.3174e-06
8.92228e-07
-0.000494837
-2.20304e-06
1.40386e-06
7.99207e-07
7.90033e-06
-1.16154e-06
-4.58928e-07
7.59113e-07
-0.000628784
-0.000154061
0.000782849
3.12584e-06
-4.55747e-06
1.43137e-06
-5.9701e-06
5.29384e-06
4.95879e-07
-6.44566e-07
1.48745e-07
-7.64634e-08
-2.24452e-08
9.9033e-08
3.74001e-07
-6.06082e-07
0.000355978
-4.64659e-05
1.86874e-05
-0.00048735
0.00121402
-0.000726671
0.000274565
-0.000358005
-0.000112869
0.000173974
-4.53629e-05
-7.835e-06
-3.75338e-07
9.95715e-08
2.75871e-07
0.000597474
-1.18087e-06
3.05026e-07
1.56988e-07
7.17871e-06
-0.000573297
0.00143461
1.97102e-05
-2.47656e-05
5.05538e-06
0.000122848
-7.57508e-05
-4.70983e-05
-8.02994e-06
1.54577e-05
-7.42765e-06
2.72937e-05
0.00101635
-4.288e-06
-1.2102e-05
1.63904e-05
2.47148e-06
-3.26909e-06
-1.94989e-07
1.92045e-07
2.9659e-09
5.58994e-07
1.34337e-06
-0.00147525
0.00081915
-4.59518e-06
1.51593e-06
-2.39709e-06
-4.69572e-06
-2.53661e-06
-2.05864e-06
-1.98988e-06
-1.81104e-06
3.80074e-06
4.94192e-05
7.42412e-05
0.000586622
-0.00107397
5.62519e-08
-6.55229e-09
0.000188403
-0.00141595
0.00122755
1.19714e-06
-2.63465e-06
1.43751e-06
-0.000850421
0.00022163
7.11658e-05
7.40262e-05
0.000466288
-0.000564274
9.80137e-05
2.21437e-07
-2.39275e-07
1.79483e-08
6.46251e-07
-8.74505e-05
-9.68601e-05
0.000184308
-1.72647e-07
-5.59534e-08
1.07228e-05
0.00099767
-0.000306703
9.90219e-05
0.000207681
-3.06838e-07
-1.61784e-07
6.72878e-07
2.5764e-07
-1.5911e-06
1.40999e-06
1.81048e-07
0.000463564
-1.97858e-05
-0.000443761
0.00116316
-0.000146233
0.000338355
-0.000232026
2.72932e-06
-1.28803e-05
1.01496e-05
-0.000751171
0.00131893
-0.000567753
2.48351e-07
-2.68953e-08
-0.000130635
8.96239e-06
0.00012167
-0.000181228
3.43712e-07
-3.49027e-07
5.34996e-09
0.001994
0.000282983
-0.00227694
1.04681e-05
2.00691e-06
-1.24753e-05
4.60011e-06
-1.47423e-06
-1.44785e-07
-3.67104e-07
5.11904e-07
1.9918e-06
5.77438e-06
-7.76618e-06
3.3423e-07
-4.79016e-07
0.000145793
-0.00083708
0.000691294
-3.40327e-07
3.35118e-08
-2.73401e-07
-1.38623e-06
1.65964e-06
-0.000700862
0.000544034
-0.000378656
-0.000150659
0.000529311
1.39233e-06
-9.04151e-07
-0.000187619
-0.000344924
6.68212e-07
-1.72299e-07
0.000206533
-0.000236973
3.04361e-05
-1.71785e-06
-2.45694e-06
4.17477e-06
2.06535e-07
-3.57011e-07
-1.39477e-06
3.02031e-07
1.4671e-07
-2.0301e-07
9.24985e-05
0.000106234
-0.00019873
-2.99143e-07
1.04159e-07
-5.91718e-08
-2.96372e-05
-0.000136908
0.000166546
5.68047e-06
-8.87016e-06
3.18909e-06
0.00117309
-0.000991484
-0.000181605
-0.000116893
-0.000169414
2.62239e-07
-1.3848e-08
0.000131948
-1.8099e-05
-0.000113848
-0.000378028
0.000369085
8.94001e-06
2.42103e-05
4.44032e-05
-6.86137e-05
2.94424e-07
4.62891e-08
-3.40733e-07
-2.87775e-06
2.7455e-06
1.31802e-07
-4.83748e-07
-1.62757e-06
-1.45697e-06
-5.13976e-07
-5.11417e-06
2.0581e-05
-1.54667e-05
-1.86433e-07
2.79262e-07
-6.16974e-06
4.24262e-07
5.74575e-06
0.000178533
-0.000516037
2.52552e-05
-5.54493e-06
0.000170728
0.000403971
-0.000661371
3.00841e-05
0.000631297
-1.50038e-07
-7.19893e-06
0.00112425
-9.24203e-05
-0.000926027
-0.000301264
0.0012273
0.00101872
1.66535e-07
-2.88275e-07
1.21813e-07
0.000250515
0.000200552
0.000150561
-0.000238014
-1.50357e-06
7.3255e-05
-0.00018043
-1.82675e-06
-1.20176e-07
1.94688e-06
-1.04457e-06
-3.50121e-07
-0.000505027
0.000420983
8.40419e-05
1.86413e-06
-1.7745e-06
-8.9658e-08
1.22654e-06
-4.64525e-07
-7.62081e-07
0.000286096
-0.000291023
4.92713e-06
-5.71504e-05
8.13608e-05
-2.38963e-06
-1.18536e-06
-1.64524e-06
-2.7301e-08
4.94234e-09
1.36512e-05
-3.86173e-06
-9.7887e-06
1.77748e-07
3.52369e-07
-5.29845e-07
-7.50535e-07
-8.33397e-07
1.584e-06
0.000210812
-8.5983e-05
-7.53818e-05
0.000136056
-6.06846e-05
-2.74686e-06
1.31108e-07
2.61589e-06
-8.84805e-07
2.7862e-06
-1.9013e-06
-0.000210633
-5.01739e-06
7.00915e-06
-9.30954e-07
2.12806e-06
2.82896e-06
-3.49996e-06
-0.000555562
0.000834233
-0.000278666
3.81986e-06
-1.1201e-06
-2.70035e-06
-3.74316e-08
-1.59322e-07
1.96783e-07
0.00010572
-0.00284664
0.000115526
0.000115051
-3.32402e-07
4.0569e-07
-0.000683732
0.000305082
2.6275e-07
9.63744e-07
-2.47837e-06
1.29292e-06
0.00248625
-0.00218795
-0.000298688
0.000545758
-0.000295242
-0.000527391
-0.000424914
4.75751e-07
-2.23747e-07
-2.5197e-07
9.29856e-07
0.00193065
-0.000976564
-0.000954083
2.86477e-06
0.0010778
-0.000889393
-3.87074e-07
1.52344e-08
3.13951e-07
-3.29077e-07
1.22152e-06
1.8842e-07
0.000245251
-9.42967e-05
-0.000150955
1.7201e-06
-1.2273e-06
-4.92484e-07
-0.000533913
0.000623847
-8.99298e-05
3.14672e-07
-1.32583e-07
-1.82064e-07
0.00309148
-0.00220838
-0.000883116
-0.000355025
-3.67895e-05
0.00115137
-0.00105887
0.000760462
-0.000115962
-0.000644501
7.64511e-08
-2.84694e-07
-0.00274684
0.00219129
1.84334e-06
-7.62738e-07
-1.08065e-06
-0.000154744
2.92242e-05
-1.23127e-05
-1.62341e-07
1.23368e-07
3.90126e-08
3.31425e-07
1.23124e-08
0.000880539
0.000292545
-0.000200661
0.000237897
-3.72364e-05
-4.77513e-07
-1.69464e-05
1.45459e-05
-8.53871e-06
7.72635e-08
-1.6278e-07
8.55784e-08
-0.00191084
0.00133827
0.00057258
3.21621e-07
-8.64998e-07
5.43331e-07
0.00117316
-0.00166936
0.000496204
-1.44826e-06
-7.60901e-07
4.31951e-06
-3.01353e-06
-1.90031e-07
3.96573e-07
-3.80743e-05
0.000195341
-0.000157272
5.86221e-07
-4.43134e-07
-1.43023e-07
-0.000255134
8.90192e-05
0.000166115
1.36544e-05
-0.000348914
0.0018714
-0.00194509
7.37005e-05
-2.00069e-07
8.26486e-08
9.61775e-05
-0.000125815
-1.59142e-07
-4.0917e-08
2.47639e-06
-4.19429e-06
0.000262124
-0.000300199
-0.000121926
-0.000411991
2.98488e-05
0.000685589
-0.000715444
2.50421e-07
1.18542e-08
-0.00060866
0.000740003
-0.000359422
-0.000145608
2.41974e-08
-3.19678e-07
2.95518e-07
-0.000745739
0.000911146
-0.000165406
5.81587e-07
-7.57467e-07
0.000780352
-2.65938e-06
2.9465e-06
-2.87257e-07
-3.9438e-05
-1.2958e-07
4.63824e-07
-4.10964e-05
0.00013072
7.44885e-05
-9.35668e-05
1.90763e-05
-0.000150081
-2.16322e-07
-2.51212e-08
2.415e-07
-5.39478e-07
-6.62651e-07
1.20242e-06
-1.01752e-07
-1.71633e-06
-6.38052e-06
6.44352e-06
-6.29556e-08
2.61249e-07
2.14525e-07
4.80503e-06
-5.17826e-06
3.73219e-07
-8.76773e-08
-2.01708e-06
2.10503e-06
1.76008e-07
-1.58628e-07
-1.7358e-08
-9.34666e-05
1.80779e-05
-5.70153e-07
1.60776e-07
4.09702e-07
-0.000183079
3.23437e-07
8.00767e-09
-3.94197e-07
4.18382e-07
0.000122066
-0.000123125
1.04895e-06
-0.000257909
0.00037455
-0.00126645
0.00194861
-2.90564e-07
-2.79455e-07
0.00184923
-0.000510953
-3.84751e-07
2.81985e-07
4.36999e-06
-8.18404e-07
-1.66054e-07
2.43319e-07
1.68396e-06
-9.08393e-07
-7.75513e-07
0.000904844
-0.00106944
-0.0011936
2.06868e-05
0.00117291
-6.66053e-07
-2.99029e-08
6.95994e-07
-2.5429e-07
2.51768e-08
-2.11035e-05
-0.000179557
-2.58154e-07
1.02123e-07
1.5605e-07
-7.96644e-07
1.859e-06
-1.06222e-06
-0.000389508
0.000584521
-0.000194984
-3.64395e-07
-4.75685e-07
8.4018e-07
2.75933e-07
-1.02841e-06
7.52456e-07
-6.12642e-08
-1.96878e-07
-8.23281e-07
-1.53583e-06
-2.23258e-06
3.76843e-06
5.97429e-07
-5.25205e-07
0.00257374
8.60808e-08
1.25227e-07
-4.40912e-07
3.33647e-05
2.12053e-05
1.97479e-06
-4.55541e-06
2.58081e-06
2.05093e-05
-2.41552e-05
3.65009e-06
-0.000163856
-0.00063974
0.000803593
2.85539e-06
1.51403e-06
-4.36942e-06
-8.03861e-07
-6.70804e-08
3.99985e-06
3.71743e-07
8.38569e-06
4.69495e-05
-3.6404e-07
1.01396e-07
2.62712e-07
8.09236e-05
-7.73659e-06
-7.31888e-05
-2.41706e-07
-1.35052e-08
-2.59886e-07
-1.08933e-05
5.626e-05
-0.000417782
0.000323031
9.47483e-05
-6.19747e-07
1.20362e-06
-5.83725e-07
1.08793e-06
-7.27095e-07
3.8752e-06
-1.30421e-06
-2.57034e-06
-1.16463e-07
2.48133e-07
-3.99268e-06
-1.62415e-05
0.000138306
0.000289532
-0.000148789
-0.000140742
6.46595e-06
-0.000718987
0.000712532
3.88402e-06
6.56804e-06
-1.04522e-05
-0.0045292
0.00277016
0.00175906
-3.41607e-07
1.78492e-06
-1.44333e-06
-7.93739e-05
-2.43602e-05
0.000103735
6.06862e-06
1.04341e-05
-1.65022e-05
4.04867e-05
-0.000280418
0.000239932
-1.81661e-05
1.53309e-05
2.83529e-06
5.43952e-05
-0.000167263
1.54618e-07
1.93113e-07
-1.58429e-07
-1.2556e-05
3.30693e-05
-1.14968e-08
3.1138e-07
-2.99822e-07
-7.79958e-08
-1.1717e-07
1.95185e-07
-6.88181e-05
0.000314068
4.48596e-08
1.312e-07
8.97564e-05
-0.000119866
3.00997e-05
-2.23821e-07
-5.9457e-06
-8.86221e-07
6.86899e-07
1.99379e-07
3.37633e-07
-5.27628e-07
3.98045e-07
0.000233065
2.90631e-05
-0.00115126
0.000250396
8.51005e-05
-1.82676e-05
-6.68327e-05
4.95077e-07
-1.33994e-07
-3.61008e-07
3.99131e-06
-2.01645e-06
5.88968e-07
9.90948e-08
-6.87989e-07
-6.32131e-05
8.32311e-05
-2.00185e-05
-0.00052889
0.000895757
1.17701e-06
-3.56625e-06
0.000125747
-0.000744692
0.000618968
-5.928e-07
-1.27765e-07
4.54075e-07
-5.53013e-07
9.88456e-08
-1.13331e-06
1.19434e-06
-1.01515e-06
-1.18785e-06
-1.38e-07
-1.16232e-07
4.46852e-05
-3.66301e-06
1.17935e-06
5.40897e-07
0.000716785
-0.000880641
0.000273345
-0.00158479
0.00131144
-0.000127761
0.000168352
-4.05912e-05
-6.66693e-07
2.27459e-06
-2.85104e-07
1.59395e-08
2.6921e-07
4.12627e-07
-4.39879e-07
2.72955e-08
7.88443e-05
0.000164349
-0.000243193
-5.25358e-07
1.11158e-06
0.000247584
-4.10538e-05
7.26716e-06
6.38464e-06
-2.26798e-07
-1.60003e-06
-4.84614e-05
5.68502e-05
3.70031e-05
-0.000164764
8.02858e-05
-6.09767e-05
-1.35649e-07
2.02923e-07
-6.72075e-08
-0.000207888
-1.05747e-05
0.00021846
-8.66259e-07
1.28854e-06
-4.22187e-07
0.000278775
7.72035e-05
6.64393e-06
-3.5128e-06
-0.000236577
0.00033086
-9.42774e-05
3.62481e-05
8.43942e-06
-0.0004663
-2.19025e-05
1.67882e-05
-1.01403e-06
2.19458e-07
7.94603e-07
3.97726e-06
-7.7375e-06
-1.61447e-06
1.98892e-05
-3.75303e-07
8.49986e-07
-4.74574e-07
0.000186026
-5.57601e-05
0.00017278
-0.000415906
-5.97805e-06
7.84046e-06
-2.76243e-06
-2.40713e-06
5.16923e-06
-2.43433e-07
1.0541e-07
-0.000358063
0.000740699
-1.61854e-08
1.84429e-06
-1.8282e-06
2.53177e-07
6.90702e-08
-3.22231e-07
0.00127793
7.00702e-07
2.30972e-06
-3.01033e-06
0.000537911
0.000672781
-0.000174513
-2.3098e-07
9.53607e-08
-0.000342673
3.59813e-07
-8.99141e-07
5.37951e-07
-1.77893e-07
-3.60173e-07
-0.00153112
0.00184272
-0.000311638
0.000247586
-0.000168742
2.40189e-07
8.32705e-08
-0.000295897
-0.000630728
0.000926658
9.10507e-07
1.59681e-05
-9.53413e-05
0.000726348
-0.000600615
0.000168745
0.000252236
0.000291414
-0.000282453
-8.96155e-06
-9.24123e-05
-3.07194e-05
0.000168168
-2.54478e-05
7.74256e-05
-4.73418e-05
-0.000726034
0.00043015
1.45227e-06
-1.24663e-06
5.22253e-06
-0.00200574
-2.30324e-05
0.000278752
-0.000255712
1.57799e-05
-5.31186e-06
1.14171e-05
7.36834e-05
6.35955e-05
-0.000168154
0.000121777
4.63806e-05
-0.000263962
8.87582e-05
0.000175201
0.0015069
-0.00220579
0.000273145
-0.000178117
-9.50291e-05
-1.02177e-06
4.02087e-07
-8.11092e-07
9.36293e-07
-1.33566e-05
8.45216e-05
-2.22393e-07
-7.73692e-08
2.99813e-07
-0.000359011
0.000220416
-1.1354e-05
9.22763e-05
-1.99719e-06
1.7531e-06
2.44065e-07
0.00133579
0.000188953
-0.00152476
-1.44683e-05
6.16501e-05
-7.25699e-07
1.44664e-06
-1.66315e-06
2.22066e-08
1.93154e-08
-1.03333e-06
3.77497e-07
2.79063e-08
0.00373376
-0.00242145
-0.0013123
1.13913e-05
-8.6629e-06
-2.23067e-07
7.91906e-08
1.43903e-07
7.10809e-05
0.00013973
-5.55716e-08
-5.36968e-05
2.08824e-05
3.2812e-05
-0.000144879
0.000146802
0.000316778
8.62287e-07
-1.61262e-06
0.000111556
-0.000348136
5.04551e-07
1.33876e-06
-3.00348e-07
-6.32678e-08
1.93166e-06
-4.69453e-06
-0.000396674
-2.11146e-05
1.59516e-05
-7.91648e-05
-8.48978e-08
-1.38155e-07
3.95177e-07
1.42635e-07
4.86177e-07
-7.35246e-08
1.07493e-05
9.57633e-05
-4.4839e-07
-1.5272e-07
6.01168e-07
0.000447105
0.000506278
-0.000953387
0.000184071
1.12702e-05
-6.64946e-05
7.61987e-05
-9.70343e-06
0.00107916
-0.00089659
5.02001e-07
-0.000504217
-0.004025
0.00218642
-0.000494005
-0.00169245
4.49465e-07
-1.08532e-08
-4.38529e-07
7.24516e-07
-2.52833e-06
1.80379e-06
3.20978e-08
-4.43573e-07
4.11518e-07
-1.9593e-06
9.32572e-07
1.02675e-06
0.000907534
-0.000460443
-9.34979e-07
-1.91686e-07
1.39674e-07
5.20556e-08
1.94468e-06
4.89271e-06
-6.83727e-06
8.42376e-05
-9.75947e-05
-1.85079e-06
3.55843e-07
1.49497e-06
-4.43316e-05
0.000134083
-0.00103864
0.000872939
0.0001657
-9.22885e-06
2.51094e-05
-1.58802e-05
9.82642e-06
-5.94173e-06
2.41096e-07
-3.31141e-08
-2.07683e-07
4.99852e-08
4.50697e-07
-5.0061e-07
-0.000259397
0.00327112
-0.00301173
-2.4676e-09
2.42674e-07
3.09608e-06
-5.26889e-08
-3.04339e-06
-1.68474e-06
1.36413e-07
2.45941e-07
-6.943e-07
-9.41018e-08
3.28429e-08
-4.14543e-07
2.52733e-07
1.61963e-07
0.00013425
0.00101127
-0.00114555
-0.000861487
0.00133213
-0.000470634
-6.67888e-07
1.98543e-06
-4.4496e-06
1.15225e-06
-0.000650217
-6.15642e-05
0.00248357
-3.46597e-08
1.87733e-07
2.72689e-07
-4.60335e-07
2.84888e-07
1.0424e-07
-1.2766e-05
-2.9237e-05
-3.72588e-05
-0.000433028
0.00145172
0.000108708
-0.000305166
0.000196458
-0.000171786
-3.61033e-05
1.40372e-06
-1.38286e-07
-1.26534e-06
2.33919e-05
-5.67409e-05
3.33471e-05
-1.71106e-07
1.14945e-06
-9.78319e-07
-1.37256e-05
2.77474e-06
-4.74136e-07
-0.00253335
0.00227396
0.000499947
-3.36731e-05
1.42253e-06
-1.24182e-06
-1.80583e-07
-0.000182861
0.000213249
-3.03907e-05
-1.19224e-08
2.87691e-07
-2.75591e-07
1.65984e-06
-3.64961e-06
1.45956e-05
-1.11891e-05
5.96831e-07
-1.42792e-07
-7.69949e-09
2.07677e-07
-1.99925e-07
-3.0305e-05
9.1917e-05
-1.39455e-07
-9.17769e-05
-1.69174e-07
3.4163e-07
-1.72572e-07
-6.0485e-05
0.000144917
-8.44316e-05
-0.000441442
0.000325721
3.45021e-05
0.000228788
-0.000974534
0.000606318
-0.000893957
0.00028763
2.76481e-07
1.18445e-07
1.02601e-06
-8.86484e-07
-1.39395e-07
4.08657e-08
2.26991e-07
-3.03877e-08
-6.04965e-08
9.09185e-08
0.00026361
-0.00035014
8.65226e-05
3.90605e-07
-0.000937519
-7.72778e-06
5.51867e-06
2.20885e-06
-1.28159e-06
1.10144e-06
-0.00179734
0.0034659
-5.92593e-08
3.51859e-09
5.57728e-08
0.000810073
-0.000552318
-0.000257774
9.06752e-08
-5.05145e-07
3.10429e-07
-6.91474e-08
-0.000427474
0.000311514
-2.33765e-08
8.76987e-08
-6.43258e-08
1.76375e-05
-8.18653e-07
-1.68188e-05
0.000770554
-0.000202828
-4.00488e-07
-1.64584e-07
5.65066e-07
1.59387e-06
-1.67095e-07
-1.42671e-06
-7.12546e-08
6.424e-07
4.13452e-06
-6.11313e-07
-3.52314e-06
-0.000568191
0.00017869
-0.00015179
0.000573004
0.000317471
-9.18175e-05
-0.000225653
6.60544e-08
-2.61663e-07
1.95755e-07
7.71907e-06
3.51782e-07
-1.58651e-07
0.00167657
-0.000503422
-0.000141356
5.7561e-05
8.37944e-05
-4.00033e-08
-1.22298e-07
2.15256e-06
1.36601e-06
-3.51835e-06
-1.49788e-07
1.37127e-06
-6.22354e-06
-3.49524e-05
0.000433674
-0.000398727
-9.35449e-08
1.38506e-07
-0.000107633
-0.000278887
-9.91411e-05
-3.8713e-07
3.81347e-08
-0.000228969
-3.69473e-05
-0.000540116
0.000453849
8.62693e-05
-5.44669e-09
-4.24885e-07
4.30393e-07
-0.000387616
1.86352e-08
-7.78791e-08
-1.05187e-07
-0.000523744
-0.000177121
-0.00125729
0.000721044
-4.21078e-06
3.68199e-06
0.000318927
0.000202295
-0.00052121
-1.9776e-07
3.855e-07
0.000100712
0.000178016
-0.000278719
-4.59176e-08
-1.35158e-07
-1.13836e-07
2.49048e-07
-1.70499e-06
2.19281e-07
9.54098e-08
-1.07613e-05
1.2768e-05
-2.83965e-07
5.70536e-08
2.2696e-07
1.89665e-05
1.19114e-07
-2.12628e-07
0.000940962
0.000286407
0.00198026
-0.000246833
0.000277727
-0.00023724
8.66999e-07
-2.76085e-07
-5.90903e-07
3.20194e-05
0.000283707
-0.000175006
0.000494001
-0.000414129
-7.98729e-05
-1.31713e-06
-2.17273e-06
-5.74034e-07
-0.000497304
0.00067751
-0.000180212
5.21883e-07
5.49249e-07
-2.74119e-07
-2.75098e-07
8.51953e-05
0.000214415
-0.000571594
0.00035717
-2.6732e-07
1.6125e-07
1.06101e-07
-5.14592e-06
6.19538e-06
-1.04972e-06
6.49123e-07
2.17882e-07
-3.82183e-06
5.67996e-05
-5.29775e-05
7.37272e-06
7.35984e-06
-1.47293e-05
4.82935e-07
-1.21042e-07
-3.61955e-07
1.16467e-07
8.17438e-08
-1.98185e-07
1.59708e-07
2.6806e-08
-1.86531e-07
-0.000810356
1.671e-07
6.97366e-08
-2.36856e-07
1.52044e-06
-4.87575e-07
-1.03284e-06
1.4756e-06
4.48645e-08
-0.000174791
0.00067493
-0.000500144
-3.56146e-07
7.53751e-09
3.48673e-07
6.39531e-07
-1.13178e-07
-5.26132e-07
-2.05061e-07
-7.88741e-08
-2.24985e-05
9.00168e-05
-6.75182e-05
7.75034e-07
-1.55058e-06
-1.09355e-06
-8.71842e-08
-2.51392e-05
0.000125853
8.91074e-07
-1.00477e-06
1.13609e-07
0.000675591
-0.000645743
-5.06738e-06
5.07982e-06
-1.2727e-08
3.55688e-07
-7.36218e-07
3.80461e-07
0.000356238
-7.74623e-05
0.000223486
-0.00148994
7.00961e-05
-0.000130581
0.00119042
-0.0015665
0.000376093
2.02806e-08
-3.64672e-07
0.000523171
0.0002869
-1.2231e-07
8.49141e-08
3.75002e-08
0.000544386
0.000128395
5.15948e-05
-3.07129e-05
-9.57234e-08
5.13287e-08
4.44037e-08
-5.87666e-07
-4.48045e-06
-0.000419635
0.000235135
0.000184481
-0.000936118
0.000438817
0.00128609
0.00176294
-1.98698e-06
1.14689e-06
8.40087e-07
0.00198574
-0.000292185
-0.00169355
-3.9555e-06
3.82122e-06
1.34217e-07
-6.49113e-06
-9.80394e-06
1.62966e-05
0.000236758
0.00109903
5.43516e-05
-1.71518e-06
2.8675e-07
-2.85724e-07
1.92565e-07
-2.08951e-07
1.636e-08
-6.2744e-06
3.42849e-06
2.84584e-06
3.35777e-07