/*--------------------------------*- C++ -*----------------------------------*\
| =========                 |                                                 |
| \\      /  F ield         | OpenFOAM: The Open Source CFD Toolbox           |
|  \\    /   O peration     | Version:  v2012                                 |
|   \\  /    A nd           | Website:  www.openfoam.com                      |
|    \\/     M anipulation  |                                                 |
\*---------------------------------------------------------------------------*/
FoamFile
{
    version     2.0;
    format      ascii;
    class       volScalarField;
    location    "300";
    object      epsilon;
}
// * * * * * * * * * * * * * * * * * * * * * * * * * * * * * * * * * * * * * //

dimensions      [0 2 -3 0 0 0 0];


internalField   nonuniform List<scalar> 
18598
(
2.0691e-06
4.94668e-05
4.27233e-06
3.57433e-06
1.84973e-06
1.89817e-06
2.33412e-06
3.59956e-06
0.000283873
0.00652289
2.54558e-06
0.0634644
1.73478e-06
0.0711153
3.48275e-06
3.40649e-06
0.0133022
1.89272e-06
2.06613e-06
0.0609978
2.24896e-06
2.03356e-06
0.0297034
1.91308e-06
1.9228e-06
0.0133372
0.000131155
2.86854e-06
0.000140343
2.0321e-06
0.00433577
3.63594e-06
1.93588e-06
2.45879e-06
2.33232e-06
0.000113263
1.98922e-06
2.53869e-06
1.83648e-06
0.0259956
3.80122e-06
0.000483375
1.95182e-05
0.0678562
2.22759e-06
2.05962e-06
1.96778e-06
0.00227542
1.63662e-06
1.94203e-06
2.35845e-06
0.00485821
6.64471e-06
4.94971e-06
2.02428e-06
2.42536e-06
2.91219e-06
3.51151e-06
1.61595e-06
2.17603e-06
0.0142374
4.08938e-05
2.86279e-06
1.91978e-06
2.3597e-05
0.00343945
1.62507e-06
1.73298e-06
0.0147691
1.89695e-06
1.74237e-06
2.22981e-06
0.00276364
6.28279e-06
3.22597e-06
3.61389e-06
3.31351e-06
2.39965e-06
2.82241e-06
1.74623e-06
0.06038
2.05837e-06
2.64468e-06
0.013305
1.94033e-06
0.00462299
1.89907e-06
0.122871
2.82574e-06
2.13972e-06
2.17405e-06
4.60908e-06
2.22764e-06
8.30444e-06
0.0843703
1.81668e-06
0.0143444
2.56486e-06
0.0554643
2.52926e-06
2.8432e-06
3.44937e-06
1.99913e-06
1.7879e-06
2.68742e-06
1.81243e-06
2.70222e-06
0.0100382
2.81577e-06
2.45856e-05
2.26629e-06
0.0114087
3.39132e-06
2.00486e-06
4.64541e-06
2.31462e-06
0.0559121
2.1613e-06
1.7777e-06
1.99803e-06
0.0550127
1.83727e-06
1.80029e-06
2.2798e-06
0.0157351
1.80164e-06
1.74997e-06
2.09407e-06
0.00011536
1.86527e-06
1.73034e-06
3.27091e-06
0.022351
2.18475e-06
0.00999858
2.35241e-06
2.74481e-06
2.83558e-06
1.96434e-06
7.57212e-06
0.000407921
2.26824e-06
2.8889e-06
0.0452757
2.54789e-06
2.07394e-06
0.000852254
4.2826e-06
2.561e-06
2.26955e-06
1.81591e-06
1.7226e-06
2.39029e-06
0.0191288
1.81062e-06
2.56094e-06
0.0198374
1.80627e-06
1.72346e-06
1.96615e-06
2.40408e-06
8.71273e-06
1.63524e-06
1.79632e-06
1.85431e-06
0.0266121
8.6542e-05
3.65083e-06
2.93751e-06
2.40613e-06
3.20595e-06
2.47006e-06
0.0468488
6.76943e-06
1.88066e-06
2.04499e-06
0.0726992
2.30688e-06
1.85478e-06
0.0192843
2.15984e-06
0.00112634
3.16801e-06
1.94918e-06
0.0141008
2.2707e-06
0.00883779
0.0172815
3.00228e-06
9.01049e-06
1.64092e-06
1.84985e-06
3.11519e-06
0.0104592
1.97613e-06
1.91149e-06
0.0321366
0.0119915
2.36199e-06
2.22165e-05
0.00791878
2.39989e-06
2.458e-06
4.22982e-06
2.16792e-06
0.0931844
0.000546994
2.39802e-06
1.79167e-06
2.02008e-06
2.1089e-06
0.0128769
2.13377e-06
2.86265e-06
4.10512e-06
1.9926e-06
4.108e-06
2.12201e-06
3.45301e-06
3.30946e-06
1.6904e-06
2.60854e-06
2.08115e-06
3.03281e-06
2.21378e-06
2.12418e-06
1.80788e-06
2.6819e-06
0.0531038
1.79789e-06
0.0221999
0.014728
2.55106e-06
2.24313e-06
3.93175e-05
0.074069
1.95288e-06
2.27401e-06
1.91201e-06
2.17421e-06
1.77686e-06
2.11657e-06
0.0133485
1.63787e-06
9.34874e-06
2.05032e-06
2.48673e-06
2.28419e-06
1.99841e-06
1.9054e-06
0.0172663
5.54743e-05
0.115419
0.0236449
2.25036e-06
0.031096
2.62747e-06
0.00496634
2.90954e-06
0.0130427
1.85105e-06
2.23535e-06
0.00537624
0.0633459
0.00150301
2.20719e-06
1.67446e-06
0.0058024
3.61065e-06
1.86446e-06
2.09728e-06
1.71217e-06
2.14606e-06
2.37038e-06
0.0288088
0.0921613
0.0285407
0.0135888
3.95497e-06
2.27182e-06
2.08903e-06
0.258782
2.0713e-06
0.0248031
0.0163732
2.26091e-06
3.45418e-06
3.26643e-06
1.9479e-06
0.00887742
3.86182e-06
0.00180686
0.013014
0.00128142
0.106061
1.89643e-06
1.64391e-06
1.37777e-05
2.688e-06
2.13388e-06
0.0696901
0.00649292
2.47978e-06
0.0153181
1.88411e-06
2.90453e-06
0.0205796
2.27666e-06
0.0125404
8.4402e-05
0.0689169
1.82779e-06
1.573e-05
0.0106776
2.35648e-06
2.08587e-06
2.52871e-06
1.82213e-06
2.92617e-06
0.0040191
1.73337e-06
0.0240563
1.78571e-06
2.23108e-06
2.08678e-06
0.016642
3.35356e-06
5.11667e-06
1.98278e-06
2.05761e-06
1.77947e-06
1.63703e-06
0.0337294
0.0188208
2.05271e-06
1.06634e-05
2.25442e-06
0.0115623
3.64493e-06
2.20334e-06
2.12062e-06
3.34407e-05
6.11771e-06
0.0106939
2.373e-06
0.0194114
0.0151248
0.00776641
0.00095277
0.024117
2.20247e-06
1.72353e-06
1.72084e-06
1.00548e-05
5.08826e-06
2.10649e-06
3.63168e-06
0.0186694
3.88184e-06
1.92246e-06
2.78893e-06
0.0113212
3.21899e-06
2.07727e-06
1.72563e-06
2.05868e-06
0.0431626
0.00695247
2.31204e-06
0.0790442
2.00051e-06
0.00113226
2.16768e-06
0.0276372
3.45161e-06
0.00288554
0.0170472
2.09299e-06
2.88025e-06
0.0255531
0.0585159
3.1663e-06
1.88949e-06
2.2057e-06
1.76217e-06
0.00905561
2.69635e-06
4.11867e-06
1.70884e-06
2.2737e-06
1.19033e-05
2.2028e-06
2.49008e-06
2.44896e-06
0.0886509
2.10028e-06
2.02074e-06
2.80792e-06
2.85234e-05
2.15023e-06
1.75547e-06
2.91499e-06
1.88648e-06
4.10515e-06
0.0208961
0.0131142
0.0028614
0.0182257
0.0124884
2.8782e-06
3.13581e-06
0.0185392
2.63117e-06
2.20342e-06
3.43082e-06
2.23121e-06
2.21557e-06
2.1396e-06
0.141767
2.10736e-06
2.19931e-06
2.6093e-06
3.26048e-06
0.00433508
1.74618e-06
1.86205e-06
1.74504e-06
2.27055e-06
2.28448e-06
0.00359425
1.91907e-06
0.000922302
1.87779e-06
2.28194e-05
4.96196e-06
0.00543851
1.64885e-06
3.17606e-06
1.01465e-05
2.50959e-06
0.0810624
0.0114422
3.60515e-06
1.78977e-06
2.39523e-06
0.00755343
0.016157
0.0276712
2.05172e-06
0.000577778
1.65382e-06
0.014618
0.0134056
4.1773e-06
0.0883819
2.07943e-06
2.15722e-06
3.16281e-06
1.93518e-06
3.14703e-06
8.98217e-05
3.63285e-06
4.10887e-06
0.0928447
3.422e-06
2.71361e-06
0.00117031
2.9319e-06
0.0165037
1.68811e-06
1.80921e-06
2.13952e-06
1.96049e-06
0.101112
2.60186e-06
1.89525e-06
2.31565e-06
1.90853e-06
0.0105608
2.58511e-06
1.64607e-06
0.00502297
3.12925e-06
1.82971e-06
3.63643e-06
1.82704e-06
3.45598e-06
3.47329e-06
1.99477e-06
2.54888e-06
2.05203e-06
4.77055e-06
2.2231e-06
5.56664e-06
0.00463457
2.18046e-06
3.38199e-06
3.3735e-06
0.0578599
2.08702e-06
0.0231736
1.29432e-05
2.38141e-06
0.00681804
1.72139e-06
2.14273e-06
0.0390591
2.33905e-06
2.43892e-06
0.0103161
1.82014e-06
1.79632e-06
1.80529e-06
1.87779e-06
2.36311e-06
2.2818e-06
1.81359e-06
0.0146133
0.0157765
2.22485e-06
2.23047e-06
0.0129222
1.93128e-06
1.87842e-06
1.77154e-06
0.0540918
1.92301e-06
2.57848e-06
0.0653701
0.0190732
1.83368e-06
3.62586e-06
2.44555e-06
1.80106e-06
2.52294e-05
0.0230566
0.00111888
1.66631e-06
2.1082e-06
0.000815856
1.92849e-06
0.000616148
1.82362e-06
2.45827e-06
2.39664e-06
0.0355779
2.45667e-06
3.83268e-06
1.78627e-06
0.000600238
0.00675169
0.0640112
9.75306e-05
2.57183e-06
0.0347433
1.75461e-06
0.0140046
0.0115931
1.66365e-06
4.13888e-06
0.00978912
2.525e-06
2.14101e-06
1.96888e-06
2.1992e-06
0.0376573
2.50983e-06
0.00752017
2.44313e-06
1.78473e-06
1.8134e-06
1.32703e-05
2.85447e-06
1.97649e-06
0.0178905
0.0352726
2.57464e-06
2.29159e-06
2.59015e-06
1.68425e-06
1.82107e-05
3.84015e-06
0.0411416
1.65178e-06
0.190655
0.039146
2.30605e-06
5.49541e-05
2.90413e-06
0.108794
9.79862e-05
1.83844e-06
0.0376538
3.16286e-06
1.19898e-05
0.0102282
2.37156e-06
2.27195e-06
3.56903e-06
2.3599e-06
2.20776e-06
1.657e-06
1.81328e-06
2.02264e-06
1.67834e-06
0.0145767
2.11069e-06
2.00575e-06
4.17415e-06
2.29668e-06
0.0157904
0.0259247
0.00728873
2.1188e-06
0.0402248
2.38058e-06
1.83333e-06
2.1999e-06
1.65191e-06
0.0619647
0.0155091
2.35039e-06
2.10329e-06
2.45892e-06
1.76022e-06
1.6471e-06
1.31308e-05
2.80595e-06
3.65544e-06
1.76171e-06
2.79122e-06
1.69705e-06
2.66555e-06
1.32347e-05
1.83487e-06
2.61289e-06
3.55654e-06
2.2132e-06
0.0155712
0.000242046
2.10255e-06
3.18708e-06
1.83771e-06
3.20351e-06
2.59971e-06
2.16628e-06
1.70886e-06
4.15386e-06
0.0102755
0.0252565
2.20276e-06
3.3974e-06
1.91015e-06
2.12268e-06
1.69361e-06
0.0152209
0.0111225
3.75151e-05
2.18512e-06
7.67787e-06
1.85925e-06
2.18266e-06
2.00465e-06
3.01464e-06
2.64696e-06
0.0122281
2.58211e-06
3.04252e-06
0.0147431
2.49894e-06
1.81858e-06
0.0388601
1.67844e-06
0.0135967
2.05668e-06
4.03269e-06
1.81513e-06
3.14589e-06
2.17586e-05
0.0924758
2.14406e-06
2.13971e-06
2.22041e-06
2.92733e-06
2.15852e-06
0.141561
2.24677e-06
0.000605053
3.61619e-06
2.48068e-06
1.6393e-06
2.11118e-06
2.12669e-06
2.45391e-06
2.46827e-06
0.000177472
0.00693245
2.51084e-06
2.39099e-06
1.64765e-06
4.18654e-06
2.53497e-06
2.87158e-06
0.0155077
2.34189e-06
1.71766e-06
3.03304e-06
2.50568e-06
0.0301114
2.02342e-06
0.0354063
3.38683e-06
0.0203659
2.19813e-06
0.00904098
2.43469e-06
0.00594072
1.98971e-06
4.08939e-06
1.89372e-06
2.00684e-06
2.79972e-06
0.0110251
0.0313648
1.77208e-06
1.92388e-06
2.13334e-06
2.82391e-05
2.34825e-06
2.05716e-06
0.000489933
2.23172e-06
3.75373e-05
0.00633183
2.03624e-06
3.919e-05
3.58703e-06
3.07668e-06
0.000628183
2.55071e-06
4.13927e-06
3.88037e-05
3.41832e-06
2.14873e-06
0.00042114
0.041447
0.0106381
0.0146361
0.0160355
1.784e-06
1.29934e-05
3.29398e-06
1.88609e-06
0.0275103
0.0270496
2.08247e-06
2.14414e-06
0.0101694
0.0143168
0.0910445
0.00144393
0.00673815
2.20736e-06
2.63703e-06
4.93398e-06
2.51373e-06
0.0218869
2.19195e-06
1.83295e-06
0.000135452
1.78158e-06
1.63832e-06
2.09827e-06
2.04601e-06
4.14457e-06
2.35539e-06
9.30713e-05
2.04657e-06
2.49426e-06
0.0147683
2.91097e-06
3.04797e-06
2.31757e-06
0.00786348
1.81188e-06
0.00920367
1.75653e-06
1.71538e-06
1.92729e-06
0.0245954
2.14057e-06
2.51377e-06
3.08611e-06
4.14646e-06
2.19907e-06
2.9212e-06
0.128887
1.32995e-05
0.00838904
0.0431331
1.64665e-06
6.33914e-06
0.000120548
2.79486e-06
1.78963e-06
2.61926e-06
2.34155e-06
0.117974
3.41143e-06
1.94196e-06
1.94424e-06
5.1989e-06
1.90891e-06
0.0133338
0.00929141
2.21743e-06
2.18526e-06
2.2892e-06
2.91795e-06
0.00294518
4.18059e-06
2.24487e-06
1.62568e-06
2.93491e-06
1.77952e-06
3.03129e-06
0.0794603
0.0309708
2.45589e-06
2.06355e-06
4.86965e-05
0.00515422
1.64207e-06
2.01466e-06
1.70594e-06
1.98154e-06
0.0085408
8.97161e-05
3.73307e-06
0.034116
2.183e-06
3.09639e-06
2.65784e-06
1.77963e-06
2.23049e-06
0.00314051
0.00607608
2.16483e-06
0.00947935
1.77927e-06
2.26211e-06
2.26033e-06
2.49289e-06
2.39539e-06
3.11228e-06
2.10826e-06
2.28584e-06
2.36109e-06
0.0166171
3.42818e-05
5.16099e-05
3.14125e-06
3.12369e-06
2.31269e-06
1.85512e-06
3.07814e-06
0.0272429
0.0117397
3.22819e-06
2.15437e-06
2.65878e-06
0.00017503
3.40351e-06
0.119731
3.01899e-06
2.27516e-06
0.000113506
1.96113e-06
1.74481e-06
1.53636e-05
1.82618e-06
4.1121e-06
2.37355e-06
1.76468e-06
1.12286e-05
0.0623463
0.00738041
1.86001e-06
1.94096e-06
3.08101e-06
0.00678238
1.46517e-05
1.66104e-06
1.71265e-06
2.41197e-06
2.20743e-06
2.54128e-06
1.67003e-06
0.02704
2.97837e-06
4.13661e-06
0.0118249
3.51759e-06
2.56098e-06
0.0167019
3.38478e-06
1.77858e-06
0.100683
0.00421213
1.7564e-06
0.000608749
2.00217e-06
0.000420214
3.60929e-06
2.23262e-06
1.65385e-06
1.78025e-06
2.07383e-06
2.42303e-06
2.00196e-06
1.66587e-06
0.00135177
0.00113988
3.1504e-06
2.85701e-06
0.00492137
3.45218e-06
3.28517e-06
3.41399e-06
2.22334e-06
0.00159162
2.27355e-06
2.04122e-06
2.24185e-06
1.00602e-05
1.74266e-06
2.22836e-06
2.84334e-06
1.93385e-06
0.018048
3.1587e-06
1.98299e-06
1.8998e-06
3.39053e-06
2.61811e-06
3.99962e-06
3.97332e-06
3.90968e-06
2.4542e-06
2.05991e-06
2.4433e-06
1.83002e-06
1.65887e-06
2.61933e-06
0.000370081
2.44908e-06
0.0398212
1.96062e-06
2.84874e-06
0.0219247
0.00626994
2.32492e-06
0.044185
1.62943e-06
0.137548
1.95677e-06
0.00618248
3.09686e-06
3.1605e-06
1.95893e-06
0.0062607
0.00314794
6.55486e-06
2.34931e-06
0.0331115
2.14748e-06
1.85572e-06
0.000111062
2.64332e-06
1.60715e-06
1.88135e-06
1.67099e-06
3.9898e-06
2.30732e-06
1.96553e-06
0.000475574
2.1658e-06
3.64218e-06
0.00396966
2.25442e-06
0.00876158
0.0524878
3.58008e-06
0.0829057
2.59564e-06
2.1758e-06
0.000330721
0.020898
0.0965481
0.0147647
2.41551e-06
1.74148e-06
1.91797e-06
1.99935e-06
4.01951e-06
2.54929e-05
0.000118355
2.14969e-06
2.2863e-06
2.58601e-06
1.91577e-06
3.89808e-06
3.11597e-06
1.96788e-06
2.15679e-06
2.60275e-06
2.92338e-05
0.0293522
0.00984278
1.69566e-06
1.80851e-06
1.98245e-06
1.69207e-06
1.67551e-06
1.94922e-06
1.95097e-06
0.0104385
2.13833e-06
3.30435e-06
1.32861e-05
1.84994e-06
0.0181132
0.0292909
2.52222e-06
8.37339e-05
2.25447e-06
1.70639e-06
1.67954e-06
2.95466e-06
3.68287e-06
0.0104842
0.00854676
2.05887e-06
0.0296359
1.91615e-06
1.85081e-06
0.0341763
2.71995e-06
2.28737e-06
1.98047e-06
2.72385e-06
1.95445e-06
1.79398e-06
0.00888034
2.03724e-06
1.86196e-06
0.00271859
1.9843e-06
4.10883e-05
2.28151e-06
2.22368e-06
0.00732513
2.88139e-06
1.95758e-06
0.0291611
1.90539e-06
2.06144e-06
0.0317142
1.6164e-06
0.0163128
2.46751e-06
0.0142536
2.32834e-06
0.0110509
2.21073e-06
0.0500256
2.22336e-06
0.0612136
1.95452e-06
0.0164411
1.87276e-06
2.63477e-06
2.14354e-06
2.61751e-06
3.82985e-06
0.000636993
2.73535e-06
0.0321317
2.16931e-06
0.010986
1.66753e-06
2.11149e-06
2.30802e-06
2.16792e-06
0.0134317
2.64749e-06
0.00267655
0.0193942
0.0213494
2.00638e-06
0.0158667
1.96168e-06
2.64097e-06
2.66948e-06
0.0101516
2.09118e-06
1.89737e-06
0.000716688
0.00411826
3.14255e-06
0.00761578
0.0210321
2.4966e-06
1.75149e-06
2.07615e-06
0.012155
7.96622e-06
2.13631e-06
2.49127e-06
2.25474e-06
2.08196e-06
1.64844e-06
7.39779e-06
4.10084e-06
3.05343e-06
2.64026e-06
2.39884e-06
2.84903e-06
2.26232e-06
0.0189308
0.121798
1.96263e-06
0.0235898
2.08834e-06
0.00196813
1.95057e-06
1.90994e-06
2.11561e-06
2.18981e-06
2.14743e-06
0.00127051
4.24306e-06
2.52649e-06
2.17967e-06
3.70964e-06
2.49655e-06
2.23739e-06
0.000377482
0.00167109
5.17004e-06
2.13055e-06
1.94814e-06
2.12668e-06
3.66225e-06
1.82358e-06
0.0424494
0.000169889
0.0139508
3.12314e-06
2.17085e-06
1.84779e-06
0.0662341
1.98544e-06
0.0160686
2.72566e-06
0.000545996
0.0456961
1.77837e-06
2.71954e-06
1.67296e-06
3.76208e-06
2.35767e-06
2.50977e-06
1.87169e-06
2.49624e-06
0.000359025
0.00299938
4.87513e-06
2.15545e-06
2.17964e-06
0.000183044
2.7101e-06
0.000603885
0.00685037
2.10727e-06
2.24282e-06
1.94213e-06
1.84781e-06
2.2527e-06
2.10027e-06
1.6948e-06
1.96035e-06
1.86392e-06
0.0460953
2.56474e-06
1.72526e-06
2.05689e-06
0.0104332
2.62159e-06
0.0137298
1.65415e-06
1.67513e-06
2.34183e-06
0.0312169
1.95969e-06
2.55121e-06
2.01271e-06
2.23674e-06
2.25241e-06
3.45459e-06
6.04208e-06
0.0126235
1.62085e-06
3.55732e-06
2.08105e-06
2.0545e-06
2.23137e-06
3.83763e-06
4.09593e-06
1.6145e-06
3.45714e-06
1.98041e-06
2.26107e-06
2.25807e-06
3.16226e-06
0.00444244
1.92204e-06
0.00358324
1.86904e-06
0.00826637
1.8736e-06
0.0388108
1.0072e-05
3.03819e-06
2.39194e-06
2.01136e-06
0.364316
2.13554e-06
2.33689e-06
3.95558e-06
0.293513
0.0119979
1.90606e-06
0.0111047
1.25555e-05
0.00484932
7.55031e-06
0.0433949
0.0148666
1.70129e-06
3.15923e-06
2.46013e-06
2.49818e-06
1.87019e-06
2.83667e-06
1.64086e-06
1.95012e-06
2.79102e-06
0.0101381
1.42273e-05
1.81463e-06
3.1604e-05
2.16283e-06
0.000193582
2.93697e-06
0.000712427
2.90319e-06
2.45294e-06
3.08344e-06
1.78295e-06
0.00371094
1.78834e-06
1.9852e-06
2.60745e-06
0.0463775
4.18424e-06
4.07814e-06
7.51726e-05
0.0090807
0.00739584
1.65248e-06
1.87934e-06
2.51821e-06
2.28622e-06
2.4847e-06
2.07166e-06
1.71587e-06
3.15865e-06
0.00586899
0.00258826
2.39868e-06
2.46508e-06
1.69751e-06
1.66934e-06
4.20829e-06
0.0197368
2.22043e-06
2.24944e-06
2.09062e-06
0.0224255
7.30963e-06
3.09767e-06
4.90327e-06
1.75412e-06
0.00190062
1.89762e-06
2.08661e-06
2.1724e-06
3.12497e-06
0.014622
2.60451e-06
2.47102e-06
2.09902e-06
2.68726e-06
2.38666e-06
2.83673e-06
2.23237e-06
2.17402e-06
0.0963688
1.90109e-06
1.8758e-06
0.00657645
0.143963
0.000716088
1.76386e-06
2.0718e-06
3.68839e-06
3.39615e-06
2.32825e-06
2.22496e-06
1.95149e-06
4.20042e-06
3.89427e-06
4.18158e-06
0.0184509
0.0256506
1.93587e-06
3.38958e-06
1.86293e-06
1.70294e-06
0.0225821
2.08465e-06
2.24522e-06
0.019435
3.99198e-05
0.00064194
1.72398e-06
2.24034e-06
1.92992e-06
0.111934
1.76966e-06
2.92672e-06
2.50935e-06
2.05327e-05
1.75034e-06
0.005788
0.000307217
2.25782e-06
0.0192055
2.23509e-06
0.0282933
0.00144764
2.27229e-06
1.79702e-06
1.72623e-06
4.39593e-06
2.69755e-06
2.36548e-06
1.94869e-06
2.15826e-06
3.28336e-06
3.76708e-06
0.0173155
2.03458e-06
2.59452e-06
3.52895e-06
2.51479e-06
0.000749884
2.13445e-06
0.0265556
3.09364e-06
2.57814e-06
1.67563e-06
3.24684e-06
2.32306e-06
2.43219e-06
4.89905e-06
2.29135e-06
1.99245e-06
0.0089637
1.98579e-06
1.7152e-06
2.03542e-06
1.94182e-06
3.74125e-06
3.15223e-06
2.43111e-06
6.53012e-06
1.74503e-06
2.51239e-06
0.0115189
0.0649537
1.86157e-06
0.029182
2.9641e-06
0.000907931
0.0833863
0.0022258
1.68916e-06
2.31272e-06
2.91807e-06
2.81028e-06
7.78008e-05
2.42654e-06
4.13491e-06
2.31742e-06
3.02201e-06
1.7073e-06
2.44455e-06
0.0151815
0.0156523
0.000267719
2.44187e-06
0.011351
1.93105e-06
3.1087e-06
2.34969e-06
1.20011e-05
2.10938e-06
2.51519e-06
0.0597822
5.68382e-06
2.35228e-06
0.00188417
3.15944e-06
0.0542615
2.3194e-06
0.00664449
5.09584e-06
2.16246e-06
2.56274e-06
0.000393477
1.90099e-06
2.70211e-06
0.000442227
2.05274e-06
2.24036e-06
0.376989
2.39819e-06
1.32054e-05
0.00329533
2.77045e-06
1.94108e-06
7.61321e-05
2.36072e-06
1.7588e-06
0.0292026
3.93262e-06
2.62544e-06
0.0355265
2.64401e-06
2.88714e-06
0.00297338
2.85984e-06
2.15855e-06
2.5041e-06
2.38346e-06
2.30069e-06
2.25946e-06
5.20466e-06
0.000185192
2.26264e-06
3.34302e-06
4.1437e-06
1.98619e-06
1.97874e-06
0.014103
2.01781e-06
2.52879e-06
2.60452e-05
2.84715e-06
3.55548e-06
2.14678e-06
1.8458e-06
1.95978e-06
2.22345e-06
2.21245e-06
1.78241e-06
2.39137e-06
0.000862682
2.43839e-06
3.56385e-06
2.89483e-06
2.81558e-06
0.0641996
0.0100989
1.86162e-06
1.809e-06
2.49982e-06
2.05135e-06
2.16911e-06
0.0696733
0.0351349
2.71487e-06
3.30468e-06
1.64383e-06
1.99467e-06
3.75362e-06
3.03195e-06
3.3121e-06
0.000183411
3.47825e-06
3.00346e-06
4.08795e-06
1.98331e-06
2.22985e-06
0.0186076
1.81793e-06
3.13888e-06
3.90199e-06
2.21915e-06
0.000181266
2.67965e-06
5.57727e-05
2.54591e-06
3.15655e-06
3.03094e-06
2.2692e-06
1.96914e-06
4.14609e-06
2.85489e-06
2.16465e-06
0.072353
0.0806042
0.0839645
1.87651e-06
2.57957e-06
1.96204e-06
2.10144e-06
2.23871e-06
1.6472e-06
2.53007e-06
2.32269e-06
0.0160128
2.6946e-06
2.19133e-06
2.51554e-06
0.113149
0.0543801
1.90334e-06
2.66377e-06
0.0269608
0.00194683
2.43489e-06
0.0164266
0.0454586
1.70679e-06
0.0437592
2.18354e-06
1.81162e-06
1.97302e-05
1.95944e-06
1.99987e-06
0.127891
1.80262e-06
3.4088e-06
1.9029e-06
0.00941943
2.41464e-06
1.18842e-05
0.0128242
1.50829e-05
0.000986087
2.33921e-06
1.88554e-06
2.19518e-06
2.28238e-06
6.05773e-06
2.6027e-06
2.41171e-06
0.0298758
1.92928e-06
0.00518532
0.00725643
2.82769e-06
2.10989e-06
1.97666e-06
0.0704437
1.96489e-06
2.52858e-06
1.68466e-06
1.9556e-06
1.94415e-06
0.0136432
1.70642e-06
1.68719e-06
0.0206383
0.0185627
1.88884e-05
3.12136e-06
2.08016e-06
0.179554
0.0312614
1.90016e-06
0.0527412
0.00072855
0.0614381
1.81479e-06
3.00969e-06
3.55304e-06
2.27407e-06
2.58928e-06
0.000841933
2.7875e-06
4.50314e-06
2.60363e-06
1.96699e-06
2.23909e-06
3.18701e-06
0.0406206
2.09616e-06
2.23443e-06
2.98407e-06
2.1047e-06
2.07621e-06
2.74574e-06
1.97382e-06
2.19398e-06
2.52413e-06
1.75383e-06
1.76091e-06
0.140261
2.29678e-06
0.0186495
1.90648e-06
0.0107202
1.75475e-06
0.0127645
1.68919e-06
2.43495e-06
2.10115e-06
1.93789e-06
0.0109161
1.95729e-06
2.21504e-06
4.1735e-06
2.20502e-06
3.30415e-06
5.19738e-06
2.23568e-06
3.7692e-06
2.20612e-06
3.40754e-06
2.08337e-06
2.22788e-06
2.35931e-06
2.35079e-06
3.141e-06
2.45634e-06
1.87874e-06
1.94551e-06
4.43366e-06
8.36488e-06
2.42018e-06
1.95336e-06
0.00958416
0.00699216
4.75762e-06
1.99211e-06
3.54609e-06
4.20462e-06
2.24964e-06
2.63735e-06
2.64918e-06
0.0143927
1.83658e-06
2.15539e-06
2.43552e-06
2.48415e-06
0.0176444
1.05583e-05
3.14307e-06
3.21369e-06
1.87406e-06
0.0142725
4.22733e-06
1.76727e-06
2.46808e-06
0.000726278
2.68823e-05
2.17193e-06
2.45344e-06
0.0156576
0.0103186
0.0224565
3.94805e-05
3.63465e-06
3.52276e-06
0.0324807
0.0213845
1.87542e-06
3.28204e-06
0.0762184
0.0519825
2.39187e-06
0.0238498
2.93849e-06
0.00535618
2.70099e-06
2.31596e-05
3.60009e-06
2.1703e-06
0.0655353
2.43754e-06
2.12525e-06
0.00127712
2.79926e-06
1.28371e-05
2.6663e-06
2.46512e-06
3.19209e-06
0.0212792
1.68718e-06
2.23932e-06
1.82835e-06
0.0776478
0.0191001
4.17987e-06
1.94218e-06
0.00913736
2.1842e-06
1.99595e-06
0.0153979
1.75824e-06
2.10326e-06
3.0902e-06
2.41711e-06
3.39874e-05
1.7206e-06
2.46543e-06
2.49188e-06
2.31732e-06
3.14318e-06
0.0154837
2.2366e-06
1.76018e-06
1.97831e-06
4.14471e-06
2.53867e-06
2.88932e-06
2.19227e-06
3.18599e-06
3.28449e-06
0.0203307
0.0124736
0.0572551
2.46374e-06
0.0288104
2.29636e-06
0.0401386
0.0141003
0.340261
1.97627e-06
2.38152e-06
2.49716e-06
1.80934e-06
0.0113389
1.94341e-06
2.3788e-05
1.9048e-06
1.06801e-05
2.16281e-06
2.06383e-06
0.00636733
2.07808e-06
2.13376e-06
0.0317235
0.0383143
2.18888e-06
1.99248e-06
2.22839e-06
1.81743e-05
2.25385e-06
8.81379e-06
0.00480417
1.64228e-06
0.00139352
2.19608e-06
1.86293e-06
2.5309e-06
0.100666
1.88246e-06
2.83994e-06
0.012487
1.76227e-06
2.47824e-06
2.08122e-06
4.10142e-06
2.31524e-06
0.011314
1.76716e-06
1.77044e-06
4.18079e-06
1.73339e-06
6.24519e-06
0.0491073
1.81219e-06
0.0646675
0.00300654
1.99596e-06
0.0165889
4.24526e-06
2.33259e-06
2.37685e-06
2.18776e-06
1.84347e-06
9.02988e-06
1.68784e-06
0.016942
6.93403e-06
3.01535e-05
0.0163
0.00109718
1.92103e-06
0.00337647
3.95967e-06
6.20965e-06
0.0469483
2.13178e-06
0.015612
0.00193917
0.0203341
0.000719462
0.00663002
0.000118458
1.8784e-06
3.19414e-06
0.000709949
1.00564e-05
2.00666e-06
2.05447e-06
2.17807e-06
3.00755e-06
0.0199075
2.11367e-06
2.25492e-06
2.01216e-06
4.25125e-06
0.0148584
1.72863e-06
3.85576e-06
2.14335e-06
0.00464155
2.42156e-06
0.00143946
2.42569e-06
1.81785e-06
2.04854e-06
2.08329e-06
2.78585e-06
3.51531e-06
0.0196111
2.33256e-06
0.0075284
2.18194e-06
3.6294e-06
2.42039e-06
3.83951e-06
1.88093e-06
0.00159035
0.0933708
2.01164e-06
3.42962e-06
0.00101203
8.30038e-06
2.03222e-06
2.99847e-06
2.12085e-06
2.93223e-06
0.297819
2.57015e-06
1.98274e-06
1.65669e-06
0.0115045
0.00940831
2.582e-06
2.39941e-05
0.0070786
2.18657e-06
0.0213916
0.0119365
0.0182638
3.24842e-06
4.95917e-06
1.8571e-06
1.90187e-06
5.23383e-05
0.00748069
3.22769e-06
3.14467e-06
0.0121427
1.90469e-06
2.47913e-06
2.098e-05
2.52351e-06
2.17235e-05
2.68816e-06
4.05015e-06
0.0564111
9.5154e-05
1.68128e-06
2.05771e-06
2.48975e-06
5.61264e-05
0.0139667
9.44465e-05
0.000142919
2.13029e-06
1.89151e-06
2.2438e-06
2.39821e-06
0.0234872
0.0287039
0.0278974
4.02847e-06
0.00580761
1.8096e-06
2.12342e-06
1.89132e-06
1.73977e-06
3.50763e-06
2.01838e-06
2.67482e-06
2.42543e-06
2.5553e-06
1.87072e-06
2.11287e-06
0.19627
2.35794e-06
2.24032e-06
8.52213e-06
2.12138e-06
2.11584e-06
2.46389e-06
3.30412e-06
2.53212e-06
2.16287e-06
4.04761e-06
1.87006e-06
0.015466
0.00845567
2.03535e-06
0.0554553
3.05276e-05
2.72742e-06
1.71119e-06
2.466e-06
2.02043e-06
2.11325e-06
2.16245e-06
2.64403e-06
3.45329e-06
0.0489673
0.0374934
1.334e-05
2.41162e-06
2.2144e-06
2.12735e-06
2.20267e-06
5.78197e-06
2.18565e-06
0.00858025
2.26401e-05
1.91771e-06
1.90086e-06
0.0124945
2.22498e-06
0.000136766
0.0139275
0.0522005
1.71033e-06
0.00613348
0.00637011
0.0015973
1.83741e-06
3.16555e-06
2.20232e-06
2.46869e-06
0.0135524
0.0325773
1.06466e-05
2.14458e-06
1.87264e-06
1.96699e-06
3.00679e-06
0.125373
2.19564e-06
2.44589e-06
0.0546325
0.0607593
1.97457e-06
2.91788e-06
3.38994e-06
8.22158e-05
2.07681e-06
2.21765e-06
1.86852e-06
2.41747e-06
2.75985e-06
0.000113915
3.05724e-06
1.84993e-06
3.62039e-06
0.0328635
2.193e-06
9.53192e-06
1.91485e-06
2.48863e-06
0.0445946
3.89069e-06
0.0345387
3.63173e-06
0.00346679
2.45403e-06
1.838e-06
2.28218e-06
1.94991e-06
1.94129e-06
2.86302e-06
1.86829e-06
3.53607e-06
0.0277662
1.93497e-06
0.00514919
1.78521e-06
2.49733e-06
6.66615e-05
2.22819e-06
1.99072e-06
3.27863e-06
2.94348e-06
3.71786e-06
0.009388
2.47848e-06
4.20536e-06
3.09474e-06
0.0475208
1.84907e-06
2.12905e-06
1.84501e-06
1.98764e-06
2.34354e-06
2.35861e-06
2.72219e-06
2.09529e-06
1.97941e-06
0.0577275
0.00892395
1.98451e-06
2.87185e-06
1.76788e-06
0.073746
2.25968e-06
1.99232e-06
1.85147e-06
0.341975
0.0628528
1.97827e-06
0.0324298
2.90749e-06
2.49954e-06
0.0798764
5.32633e-05
2.56377e-06
5.40461e-06
2.15415e-06
1.95611e-06
4.17183e-06
9.39041e-06
2.69018e-06
2.14711e-06
0.000476538
0.0296222
2.09994e-06
1.9874e-06
0.00284811
2.09516e-06
2.23188e-06
2.01371e-06
4.05846e-06
0.0611027
5.52374e-06
1.66985e-06
4.2419e-05
1.85132e-06
0.00134523
3.45555e-05
2.31714e-06
3.21593e-06
2.52587e-06
2.30063e-06
0.0675745
1.88917e-05
2.24295e-06
1.87823e-06
2.0661e-06
2.11826e-06
2.07555e-06
0.0143407
3.68907e-06
0.0147038
1.63681e-06
2.0424e-06
0.0199455
1.9632e-06
0.16234
1.90838e-06
3.20533e-06
2.29722e-06
2.07996e-06
1.84479e-06
0.000198689
0.00909349
0.0488773
1.88765e-06
3.5188e-06
1.74081e-06
2.67955e-06
2.09915e-06
0.000100677
2.51576e-06
0.00165801
0.0105676
3.8211e-06
1.8473e-06
0.0233309
3.16134e-06
1.88e-06
1.91948e-06
0.00194194
2.24978e-06
7.60409e-05
2.498e-06
3.67933e-05
1.84478e-06
0.016171
1.98885e-06
2.20792e-06
1.90737e-06
0.0529131
4.59156e-05
4.56548e-05
4.59338e-06
1.881e-06
3.46618e-06
0.0358341
0.02555
2.33947e-06
1.97394e-06
3.00728e-06
1.89724e-06
1.75225e-06
0.00116645
2.06967e-06
1.73705e-06
2.02982e-06
2.10865e-05
1.85054e-06
1.72586e-06
0.118325
2.21807e-06
2.44358e-06
7.26658e-06
2.25959e-06
2.02384e-06
2.54427e-06
2.62803e-06
0.0164441
1.65904e-06
1.79582e-06
6.97983e-05
3.10682e-06
1.94937e-06
2.91164e-05
1.60277e-05
0.00801232
0.0493606
2.08758e-06
0.00201958
1.93572e-06
1.9199e-06
2.0096e-06
2.11238e-06
2.33151e-06
3.17029e-06
2.01438e-06
0.0229566
2.49058e-06
2.98778e-06
0.00374139
2.52269e-06
2.18627e-06
0.000119394
1.64552e-06
2.31492e-06
2.51541e-06
1.95481e-06
0.0226164
1.74874e-06
1.98872e-06
0.00745917
1.63386e-06
2.24998e-06
0.00132475
2.40568e-06
6.24029e-06
1.79248e-05
0.00128406
1.70748e-06
3.29767e-06
0.0480421
2.15859e-06
0.00634349
4.08674e-05
0.175318
1.94622e-06
2.72176e-06
1.64029e-06
3.92728e-06
3.13992e-06
2.48889e-06
2.31653e-06
0.0284603
1.76285e-06
0.00640472
3.14015e-06
0.0349769
2.84984e-06
5.90513e-06
0.00140865
1.88191e-06
3.09959e-06
1.96585e-06
2.22166e-06
2.0547e-06
9.6257e-05
2.99229e-06
0.331504
2.26895e-06
1.91329e-06
1.8029e-06
1.68498e-06
2.34375e-06
2.24402e-06
1.96292e-06
4.19029e-06
0.0566709
1.89748e-05
1.85705e-06
1.57945e-05
1.87901e-06
2.91337e-06
3.26547e-06
2.26507e-06
2.58682e-06
3.10077e-06
3.65693e-06
2.17884e-06
0.00604861
1.80238e-06
2.1368e-05
2.63044e-06
0.0656102
1.93291e-06
0.0140366
4.18417e-06
0.0079292
2.12477e-06
1.74724e-06
1.84652e-06
0.000634646
1.76673e-06
0.0412182
2.86147e-06
2.04027e-06
1.74674e-06
1.10196e-05
0.0580819
0.0187474
0.000164704
3.6782e-06
2.19313e-06
0.00187075
2.45515e-06
2.25411e-06
1.04453e-05
2.9725e-06
3.21292e-06
0.00647323
1.88397e-06
0.0505268
1.87524e-06
3.49333e-06
2.12352e-06
3.35702e-06
4.75201e-06
2.72706e-06
0.00509827
2.23993e-06
4.14411e-06
1.9477e-06
2.00002e-06
3.03471e-06
1.8803e-06
2.72215e-06
2.41418e-06
1.79686e-05
0.0582183
3.2538e-06
0.0589562
0.130975
2.0556e-06
1.78676e-06
2.13847e-05
2.30581e-06
3.45363e-06
2.63255e-06
2.11572e-06
0.00876681
2.00372e-06
0.000104801
3.36432e-06
2.81834e-05
2.52281e-06
2.33702e-06
1.70097e-06
2.29296e-06
3.23297e-06
1.79361e-06
2.21942e-06
3.97356e-06
2.83551e-06
2.19609e-06
2.1267e-06
2.02213e-06
2.38092e-05
0.00972338
0.00962803
4.54778e-06
2.59204e-06
2.22009e-06
2.1175e-06
2.15107e-06
5.02689e-06
0.0172776
0.0162494
0.00509015
1.15226e-05
0.00237209
2.49238e-06
1.86163e-06
1.84572e-06
1.87462e-06
1.90532e-06
0.0113828
0.0149112
0.000142231
2.39772e-06
0.029106
2.10892e-06
2.18105e-06
2.03179e-06
8.62398e-05
2.91116e-06
1.64701e-06
2.08749e-06
2.20516e-06
1.4516e-05
0.0939324
0.0640242
7.89558e-06
2.32781e-06
4.07606e-06
7.80269e-06
0.144686
0.0141817
0.0146311
1.77375e-06
0.0122716
4.03592e-06
3.48798e-06
2.53943e-06
0.00753215
2.02358e-06
0.0326435
0.0227685
4.6673e-06
3.06935e-06
0.0539144
0.0480886
2.2309e-06
2.22161e-06
3.74715e-05
0.0199541
1.92888e-06
3.16303e-06
1.91136e-06
0.00691832
0.00999677
2.0701e-06
0.0167689
1.99477e-06
1.83128e-06
2.07816e-05
1.9845e-06
1.80555e-06
3.73393e-06
0.0460512
0.000998322
0.0932388
3.44702e-06
4.19997e-06
9.84971e-06
3.78779e-06
2.88423e-06
0.00113367
2.73605e-06
1.66295e-06
3.12775e-06
2.94078e-06
2.12306e-06
0.020168
0.0327603
0.00208424
3.08613e-06
1.98928e-06
0.00722852
1.70265e-06
0.00866756
1.98948e-06
2.72217e-06
0.00694482
2.25127e-06
2.50072e-06
2.53513e-06
1.70805e-06
9.37033e-06
4.07191e-06
0.0123478
0.0250217
3.8515e-05
1.87104e-06
3.40115e-05
2.76575e-05
3.06198e-06
3.2744e-05
2.33943e-06
0.0148072
2.71196e-06
0.0304735
1.92954e-06
1.67742e-06
2.63806e-06
2.23304e-06
0.048425
0.00866112
0.00678541
0.0267656
8.24763e-06
2.016e-06
3.76409e-06
0.0442716
1.71149e-06
1.73857e-06
0.0457478
1.88233e-06
2.77341e-06
2.12652e-05
1.20869e-05
3.19463e-06
1.81552e-06
2.3861e-06
6.47494e-05
0.0642143
4.05763e-06
0.0195285
2.88769e-06
1.93841e-06
3.36309e-06
3.14671e-06
6.53117e-06
2.57845e-06
2.03537e-06
3.65395e-06
2.09723e-06
0.0308246
5.15081e-06
0.000508934
0.0161143
0.0231186
1.79431e-06
2.57509e-06
0.000434199
2.65131e-05
2.17027e-06
0.0251507
3.05529e-06
2.45633e-06
0.0207109
0.0351955
0.000931639
0.0393139
0.0334591
1.64938e-06
1.98276e-06
0.040947
0.0227467
2.53633e-06
2.87309e-05
0.00121254
0.00404417
0.0388061
0.00063453
4.28382e-06
0.0798756
1.69032e-06
4.10148e-06
5.89232e-06
2.13071e-06
0.0549615
2.4691e-06
1.95979e-06
2.49649e-05
4.23988e-06
2.1323e-06
2.34984e-06
0.0481023
2.12497e-06
0.030957
3.31112e-06
2.80487e-06