/*--------------------------------*- C++ -*----------------------------------*\
| =========                 |                                                 |
| \\      /  F ield         | OpenFOAM: The Open Source CFD Toolbox           |
|  \\    /   O peration     | Version:  v2012                                 |
|   \\  /    A nd           | Website:  www.openfoam.com                      |
|    \\/     M anipulation  |                                                 |
\*---------------------------------------------------------------------------*/
FoamFile
{
    version     2.0;
    format      ascii;
    class       surfaceScalarField;
    location    "300";
    object      phi;
}
// * * * * * * * * * * * * * * * * * * * * * * * * * * * * * * * * * * * * * //

dimensions      [0 3 -1 0 0 0 0];
oriented        oriented;


internalField   nonuniform List<scalar> 
27668
(
0.0656017
0.0552435
-0.120845
0.0400903
-0.0655399
0.0254496
0.326356
0.149835
-0.0648584
-0.0300509
0.0949093
0.343713
-0.198173
-0.145541
-0.0723567
0.144555
-0.0721986
-0.127388
0.0892114
0.0381769
-0.406178
0.403324
0.00285412
-0.0408782
-0.0397455
0.0806236
-0.0673959
0.0231546
0.0442413
0.29796
-0.194672
-0.103288
-0.00062505
0.448654
-0.262148
-0.186506
-0.00547698
0.000468137
0.201903
0.199312
-0.401215
-0.119422
0.0830608
0.0363611
-0.0304976
0.000932319
0.0295653
-0.145046
0.0726894
-0.172979
0.177242
-0.00426318
-0.00850405
0.0269474
-0.0184433
0.11075
-0.248658
0.137909
0.341885
-0.159994
-0.181891
0.00343509
-0.0383737
0.0349386
-0.152448
-0.0915983
0.244047
-0.138576
-0.230739
0.369315
0.0241618
-0.0334852
0.00932337
-0.0882264
0.0452361
0.0429903
-0.099646
0.264262
-0.164616
-0.0483162
-0.0399101
-0.0594693
0.125071
0.0590948
-0.0547843
-0.00431051
0.0423745
-0.448552
-0.205036
0.214547
-0.00951151
-0.0531688
0.103151
-0.0499825
-0.054406
-0.0729823
-0.0915129
0.0422464
0.0492666
-0.193484
0.39247
-0.198986
0.130258
0.167703
0.231385
0.112328
-0.00781651
0.0109295
-0.00311303
0.0517866
-0.0887256
0.0369389
0.0338584
-0.0585855
0.0247271
0.102657
-0.0617197
-0.0409373
-0.00296323
-0.209522
0.0646498
0.144872
0.0391259
0.164311
-0.203436
0.180224
0.221291
-0.401514
0.0577003
0.00204524
-0.0597456
0.120812
-0.283408
0.162596
-0.396915
0.258339
0.260099
-0.493527
0.233428
-0.0728193
0.0650029
0.00781637
-0.0923668
0.0796711
0.0126956
0.0385976
-0.0822707
0.0436731
0.226087
0.115798
0.146196
-0.4207
0.274504
0.417106
-0.27746
-0.139646
0.445224
-0.0116524
-0.433571
-0.319506
0.0308959
-0.0827285
-0.0357352
0.118464
-0.0201291
0.0239427
-0.00381363
0.0760113
-0.035921
0.149309
-0.248955
0.139642
-0.29209
-0.0934488
0.0326006
0.0608482
0.0353085
-0.0725471
0.0372386
-0.26543
-0.0540768
-0.0289036
0.18476
-0.155856
-0.0660613
0.00139715
0.0646641
-0.370789
-0.106968
0.477757
-0.191128
0.110141
0.0809873
-0.0207864
0.0965915
-0.0758051
0.0607386
-0.00303827
-0.0211515
-0.0712153
0.405305
-0.198575
-0.20673
0.105912
-0.0541251
-0.159633
0.399321
-0.239688
0.370827
-0.224632
-0.0514726
-0.0492608
0.100733
-0.120971
-0.0701566
-0.0307404
0.0222363
-0.144957
0.184083
0.275656
-0.122655
-0.153
0.0325824
-0.00842059
-0.190097
-0.0149388
0.0621817
-0.0030869
0.0330491
-0.403838
0.00596413
-0.00565629
-0.000307838
-0.287837
0.371385
-0.0835484
-0.139555
0.0780103
0.0615449
-0.0649827
-0.0521541
0.117137
0.08293
-0.0443324
-0.13355
-0.0759717
0.0453224
0.0239782
-0.0693006
0.0581379
-0.0553966
-0.00274126
0.258173
0.0182978
-0.276471
0.0224162
-0.0237454
0.00132926
0.195731
-0.315704
0.119973
-0.0302244
0.0281968
0.00202758
-0.0999445
0.0467757
-0.308607
0.0207697
0.018027
0.427197
-0.173886
0.0887218
0.0851639
0.166745
-0.0938532
-0.072892
0.0485259
-0.0999984
-0.202639
0.208809
-0.00617039
0.0338035
0.0660106
-0.0998142
0.0233618
-0.0235208
0.000158982
-0.123039
-0.148253
0.271292
-0.0608648
-0.032584
0.0946585
-0.109619
0.0149607
0.00293583
-0.0230649
-0.194122
-0.181963
0.376086
-0.10798
-0.0659058
0.0392579
0.0436721
0.218024
-0.0599985
-0.158026
-0.0283376
-0.00188678
-0.116616
0.0338875
0.0814324
0.0687931
-0.150225
-0.380698
0.187215
-0.00131103
-0.00100261
-0.0892327
-0.150898
0.240131
-0.30851
0.140811
0.1677
0.00347346
0.091185
0.0043795
-0.0291586
0.0247791
-0.134175
0.170807
-0.0366329
0.177713
-0.144558
-0.0331547
0.0464819
-0.115303
0.0688214
-0.0564558
-0.0350571
0.137645
-0.357594
0.219949
0.447289
-0.470539
0.0232504
0.0418251
0.0393583
-0.0811834
-0.00754092
-0.0248782
0.0324191
0.156162
-0.133705
-0.0224563
-0.0166869
-0.0493744
0.378346
-0.118247
0.0446888
-0.108101
0.0634117
0.141223
-0.216692
0.0674516
-0.0256697
-0.0417819
-0.0690796
0.0282014
-0.225848
-0.0364564
0.262305
0.192375
0.224731
-0.00101184
0.00047246
-0.39582
0.148611
0.247209
-0.157092
-0.0181965
0.175289
0.0185082
0.0524416
-0.0709498
0.0861118
-0.0468539
0.348287
-0.195271
-0.153016
-0.0381376
-0.0688099
0.106948
-0.181486
-0.021153
-0.15771
0.0405201
0.11719
-0.154442
0.301967
-0.147526
-0.00725626
0.0161792
-0.00892297
0.0114637
0.246709
-0.220091
-0.17573
-0.0111697
0.0130183
-0.00184857
-0.168376
0.0342017
0.329967
0.118687
-0.171809
0.107962
0.0638467
-0.0364552
0.0944287
-0.0579735
0.0682112
-0.0228888
0.291666
-0.170854
0.130736
-0.305249
0.174513
0.325786
-0.18814
-0.00102773
-0.00678878
-0.0633835
0.082351
-0.0189675
0.301478
-0.49309
0.191612
0.0522385
0.0481474
-0.100386
0.0633558
0.0354353
-0.0987912
0.250211
0.155094
-0.133997
0.0978271
0.0361701
-0.0023464
0.00133457
-0.0296277
0.0804906
-0.0508629
-0.163898
0.157662
0.00623528
-0.340359
0.180366
-0.00128546
0.000660405
0.0925047
0.12552
0.0803335
0.071406
-0.151739
-0.00673159
-0.0110931
0.0178247
0.0721619
-0.135179
0.0630171
0.0222321
-0.0708794
0.0486472
0.0859292
-0.0441041
-0.210539
0.0204415
-0.0237437
0.00022421
0.0235195
-0.0483237
0.113254
-0.0649299
-0.0561374
0.0330427
0.0230948
-0.00867733
-0.0143158
0.0229931
-0.413708
0.287012
0.126695
0.0540156
-0.0836433
0.117802
-0.250888
0.133086
0.164702
-0.253934
-0.0457847
0.0980231
0.0224202
-0.0247865
0.00236632
0.0796979
-0.150064
0.0703664
0.155121
-0.34387
0.188749
0.0267034
-0.00432125
-0.0223821
0.025593
-0.00223122
-0.107798
0.0713431
0.0530092
0.0496478
0.0396998
-0.00321982
-0.03648
-0.0323304
0.403158
-0.0811155
-0.0528817
-0.0970403
0.423396
0.0295623
0.10181
-0.131372
-0.0124661
-0.0123848
0.0248509
0.0718292
-0.01275
-0.0590792
-0.320167
0.165726
-0.143628
0.174314
-0.0306866
0.00243064
0.131477
-0.133908
0.121172
-0.0659289
-0.00113665
0.0274126
-0.026276
0.176406
0.189616
-0.366023
0.0967191
-0.0520303
-0.10186
0.0757006
0.026159
0.0947652
0.0654343
-0.1602
-0.0448906
-0.056969
0.0869537
-0.22692
0.139966
-0.146324
0.373841
-0.227517
0.0411602
-0.106019
0.111438
-0.40619
0.294752
-0.129486
0.289772
-0.160286
-0.173029
0.0159363
-0.192003
-0.221705
0.0742125
-0.0949989
0.226595
-0.139641
-0.204584
-0.103926
0.373622
-0.21181
-0.161812
-0.00178792
0.286877
-0.156142
0.0287698
-0.0363108
-0.00695933
-0.0101332
0.0170925
-0.0696241
0.265355
0.240447
-0.129698
-0.0368452
0.0834986
-0.0466534
-0.0144823
-0.0163336
0.0308159
-0.184691
-0.0258479
-0.103156
0.0548319
-0.116618
0.256259
0.0895775
-0.15456
0.0255424
0.148946
-0.174489
0.0742475
-0.100863
0.0266152
0.021396
-0.0218759
0.000479865
-0.224714
-0.0460638
0.270778
0.0550841
0.0123675
-0.19508
0.0126645
0.182415
-0.131002
0.0498865
0.0836032
-0.309451
-0.0333642
0.128129
0.337125
-0.182004
0.0150204
-0.000588425
-0.014432
-0.0693484
0.0325033
0.00225168
0.00371245
-0.0333837
0.0310383
0.00234535
-0.0341932
0.111947
-0.077754
-0.028731
0.0321661
0.103627
-0.0562693
-0.0473572
0.0292593
-0.0542254
0.0249661
-0.371056
0.228029
0.143027
-0.0273845
-0.00620902
0.0335935
-0.0470955
0.127429
-0.0552001
-0.0562501
0.11145
0.0612639
-0.0259554
0.0565455
0.00159236
0.0833723
-0.0528508
-0.0305214
0.187913
-0.171646
-0.0162674
0.360904
-0.249465
0.0634459
-0.0482851
-0.0151608
-0.0326764
0.0859226
-0.0532462
0.194188
-0.173562
-0.0206253
-0.198254
-0.187261
0.385516
-0.482979
0.52779
-0.0448115
-0.0236288
0.0862454
-0.0626166
-0.181378
0.333866
-0.152488
0.0215196
-0.00455273
-0.0169668
-0.036194
0.0237279
-0.00675128
0.00852931
-0.00177803
0.000786672
-0.0312843
-0.0809988
-0.00558328
0.0865821
0.0560574
-0.111257
0.114789
-0.0405414
0.00636706
-0.0284182
0.0220511
-0.149858
-0.0231206
0.00694869
0.0145709
0.0297888
-0.00625738
-0.0235314
-0.0228356
-0.08032
0.0568927
-0.0895691
-0.0548791
0.10027
-0.0453912
-0.342161
0.190606
0.151555
-0.0303089
-0.0258285
-0.110691
0.079212
0.0314789
-0.0277067
0.0499388
-0.0212903
-0.0024534
0.0673086
-0.0652633
0.0492967
0.00223029
-0.051527
-0.0700727
-0.0749735
-0.266648
0.0419341
-0.0466828
0.0799666
-0.0332838
0.0719457
0.0316809
0.112744
-0.0662621
0.0280948
-0.0425771
-0.0153131
-0.0520828
-0.0706882
-0.0603137
0.0250588
-0.0206793
-0.010089
-0.153809
-0.0581248
0.0919283
0.0148422
-0.0215738
0.075116
-0.00355121
-0.0180422
0.0215934
-0.0829689
0.0755468
0.00742212
-0.0602634
0.0631631
-0.0028997
0.154865
-0.160728
0.00586319
0.0292643
-0.0759471
-0.0211889
0.0176377
-0.0546814
-0.0531169
-0.131491
0.0753605
0.0561309
-0.0499095
0.108264
-0.0583542
0.164306
-0.00944112
-0.20136
-0.169696
0.0568638
-0.0276045
0.143056
-0.17196
-0.00246084
-0.0309228
-0.206388
0.211629
-0.00524092
0.190405
-0.0725523
-0.117853
-0.128416
-0.0446123
0.00618
0.0275242
-0.0337042
-0.403329
0.243696
0.0210532
-0.0689918
0.0479386
0.145132
-0.191173
-0.00390693
-0.145777
0.17132
-0.0130697
0.172265
-0.159195
-0.0105981
0.00341743
0.00718067
-0.0183493
-0.122778
0.267415
-0.144638
0.0512825
0.000898632
-0.0521812
0.035412
-0.154867
0.119455
0.000193376
0.0212026
-0.0112327
-0.0697661
-0.442422
0.0243744
0.418047
-0.0995299
0.0759012
-0.0469413
0.0769023
-0.029961
-0.0356162
0.0891096
-0.0534933
0.02697
-0.00401486
-0.0229551
-0.188359
0.2416
-0.0532413
0.0145555
-0.00937716
-0.00517836
0.0179286
-0.024888
0.00241357
0.0372862
0.0681601
-0.00206683
-0.0660932
-0.0046831
-0.00797802
0.0126611
0.08807
-0.167508
0.079438
-0.136178
-0.0215318
0.0700182
0.0780139
-0.148032
0.0752607
0.0559274
-0.0824082
0.0264808
-0.123121
-0.114609
0.23773
-0.0928546
0.0386358
0.0542189
0.00753174
0.00864749
-0.0367432
-0.0739478
-0.161981
-0.181889
-0.24781
0.28322
-0.0354105
0.00244577
0.0274012
-0.0298469
0.269936
0.133538
-0.403474
0.233743
-0.35652
0.366745
0.0805438
-0.144821
-0.195538
-0.0105981
-0.0188578
-0.0198696
0.0387275
-0.110221
0.0555397
-0.00192994
0.000644482
-0.124859
0.0653899
-0.0175636
0.0514221
0.11914
0.0101274
-0.00790655
-0.00222086
0.382951
-0.181047
0.0330716
-0.0607784
0.0266781
-0.0386767
0.0119986
-0.175127
0.0467108
-0.40637
0.266346
0.140024
0.00464878
0.00628075
0.0141691
-0.0246895
0.0105204
-0.43136
0.30703
0.12433
-0.145653
0.0755799
0.112652
-0.0404899
0.143458
-0.124646
-0.0188114
-0.00390985
0.0453283
-0.0414185
-0.27105
0.126676
0.144374
0.489758
-0.229122
-0.260637
0.171629
-0.41085
0.239221
-0.0978321
0.0749965
-0.0466039
0.0795699
-0.0329661
-0.162994
0.111828
0.0511662
-0.408127
0.0975464
0.31058
0.284966
-0.152268
-0.132698
-0.00371786
-0.23236
0.221632
0.0107281
0.108453
-0.106023
0.0528947
-0.300704
0.0519189
0.0209068
-0.0728257
-0.111849
-0.0569932
0.168842
0.16244
-0.0189826
-0.347867
0.0219142
0.325953
-0.200551
0.356152
-0.155601
0.325859
0.163899
-0.0124352
0.00126554
0.00519794
0.00950166
-0.0657795
0.0562778
0.0176234
-0.0263008
0.020426
-0.0215626
-0.0998423
0.0505815
0.339254
-0.152752
-0.186502
0.011608
0.214487
0.061169
-0.0877233
-0.0752706
-0.0602285
-0.0591933
-0.00374832
-0.0766682
0.0804165
-0.0527231
-0.0634246
0.116148
-0.156186
0.0960141
0.0601719
-0.000529891
0.0498266
-0.0787054
-0.0398378
0.118543
0.172602
0.0153109
-0.0709237
0.286822
-0.215899
-0.416533
0.229517
-0.0205596
-0.0522596
0.0928111
0.0849017
0.0520388
0.142149
-0.0501598
0.142971
0.0492184
0.11986
-0.169079
-0.0939247
0.0597315
-0.0484487
0.0579504
-0.257814
0.141196
-0.0347155
0.0690873
-0.0343718
0.0668222
0.145558
-0.21238
0.0794398
-0.0275208
0.0728611
-0.0518079
-0.0452227
0.0561862
-0.0109635
-0.233478
-0.0186164
0.252095
-0.18115
0.0261097
-0.0717981
0.0456884
-0.335753
-0.0723737
0.00517567
0.0579874
-0.031208
0.00543408
0.0257739
-0.349575
0.391949
-0.23607
0.0296821
0.239685
-0.0474389
-0.192247
0.0450771
-0.00250976
-0.0425674
0.0395625
-0.0128844
-0.0115743
0.0105466
0.0673889
-0.14693
0.0795407
-0.0280645
-0.0322621
0.0603265
0.0831668
-0.316645
0.0261641
-0.00570108
-0.0204631
-0.0242593
0.179525
0.30273
-0.482255
-0.0569024
0.0469649
0.00993754
0.1294
-0.00943751
-0.119963
0.0664134
-0.178262
0.236386
0.109525
-0.34591
0.14405
-0.148083
0.00403334
-0.0790966
0.315482
-0.0756481
0.0656474
0.0100007
0.0993808
-0.448956
-0.541472
0.354779
0.186693
0.00291146
-0.0048414
0.0544345
-0.0991823
0.0447478
-0.111955
-0.159095
0.061026
0.00628254
0.0401882
-0.388055
-0.0160846
0.0162828
-0.000198165
0.152909
-0.159259
0.00634978
-0.218304
0.229767
-0.297167
0.0702469
-0.163484
-0.178677
-0.00772539
-0.0403276
0.048053
-0.271308
0.200385
0.136574
0.0738055
0.0341626
-0.107968
8.76966e-05
0.140729
-0.140817
0.0356692
-0.0438115
0.00814238
-0.103919
0.0540099
-0.204517
0.287684
0.00155478
-0.000892238
-0.000662543
-0.0428012
0.0954354
-0.0526342
0.150546
-0.110704
-0.0398419
0.272216
-0.417645
0.145429
0.200267
-0.183374
-0.0168933
0.384159
-0.184848
0.202725
-0.349049
0.156741
-0.0843682
-0.0723723
0.235852
0.112435
-0.190099
0.059017
0.131082
-0.0290379
0.0849652
0.0825764
-0.0863248
-0.0967567
0.0611405
0.0628517
-0.0131071
-0.0497446
0.116344
0.0398173
0.0375252
-0.0924043
0.0601484
0.0428389
-0.102987
-0.0141685
0.351967
-0.557823
0.205856
0.0249809
0.00605739
0.0721865
-0.0460768
0.0513267
0.0158642
-0.034722
0.137851
-0.182094
0.0442428
-0.170887
-0.12628
-0.00616731
0.00366869
0.00249862
-0.215832
0.0100104
0.205821
-0.194003
0.232357
-0.0383533
0.0238893
-0.0231497
-0.000739609
0.0833054
0.0672407
0.0271796
0.161668
0.0471405
0.210025
0.146127
-0.138249
0.0569562
0.0812925
0.168058
0.111306
-0.279364
0.0836491
0.128487
-0.212136
-0.0212138
0.0110807
0.0122611
-0.0170303
0.00476923
0.0264342
-0.197172
0.170738
0.184509
-0.025401
-0.159108
0.0283449
0.160277
-0.0162267
0.215589
-0.148767
-0.0114342
0.16038
-0.00222236
-0.0545442
0.0567665
-0.171677
0.191062
-0.0193847
-0.131408
-0.164114
0.295522
0.0415202
0.015325
-0.0064869
-0.0118624
0.265241
-0.0338564
-0.0318956
0.0863301
-0.260446
0.0664424
0.182588
-0.0209194
-0.0478927
0.0832256
-0.0353328
0.031545
-0.00656405
0.000757266
0.0674028
0.547789
-0.284216
-0.263574
0.103474
0.0656643
-0.0748621
0.0091978
0.0428706
-0.0603478
0.0256323
0.0187814
-0.168072
0.318222
-0.15015
-0.234459
0.18702
-0.00348311
-0.00581301
0.00929612
-0.260664
0.138559
0.122104
-0.0843328
0.0264535
0.0578793
0.511093
-0.212644
-0.298449
0.0457651
-0.0584442
0.0126791
0.0551417
-0.0319871
0.0491245
-0.0568499
0.0765149
-0.056551
-0.019964
-0.283566
0.0882952
0.0532182
-0.0554405
-0.109144
-0.0911669
0.200311
0.0229311
-0.000514957
0.000368581
0.110966
0.177047
-0.288012
-0.299428
0.478952
0.0459821
-0.010313
0.0555999
0.0445627
-0.100163
-0.0914661
-0.0480891
-0.0694512
-0.102357
0.0947694
-0.277355
0.182586
0.0350535
-0.0196309
-0.0154226
-0.294252
0.173181
0.12107
-0.0572267
0.053108
0.00411869
0.21602
0.0689467
-0.16508
0.0193028
0.0410952
-0.259399
-0.0221959
0.0945333
-0.0723373
-0.378878
0.137743
0.241135
0.0611108
-0.126055
0.0649441
0.000226311
0.0147941
-0.0269869
0.0374668
-0.0104799
-0.373594
0.153504
-0.0290387
0.102844
-0.199336
-0.174258
0.169719
-0.01681
0.0601137
-0.0823096
-0.0669206
-0.0174122
0.00119008
0.00285664
-0.00404672
0.118589
-0.323106
-0.0421047
0.0484718
-0.00639682
0.000229513
0.0278743
-0.242483
0.214608
0.0743
-0.00199311
-0.0723069
-0.316806
-0.0895643
0.0131315
0.2056
-0.180624
-0.0249752
0.00806659
0.250589
-0.329685
0.0430331
-0.0421345
-0.0201919
-0.00643702
0.0266289
0.0975185
-0.177289
-0.195185
0.372474
-0.41142
0.317749
0.0936704
0.198881
0.0427192
0.157985
-0.0832979
-0.074687
0.286571
0.261218
-0.102489
0.181496
-0.0790074
0.198832
-0.222374
0.0235425
0.029014
0.168279
-0.197293
0.0181669
-0.00590581
-0.32118
0.251924
0.0692564
-0.0637485
0.181362
-0.48079
-0.213067
0.240941
-0.0171657
0.0157609
0.00140474
0.0121329
-0.016816
-0.0536247
0.0497149
-0.201493
-0.119687
-0.032734
0.0131031
-0.328506
0.147128
-0.176811
0.016083
-0.207885
0.302654
0.178778
0.0502929
-0.22907
0.00306819
-0.0584648
-0.0326966
-0.00742304
0.0401197
-0.315863
0.190735
0.125127
-0.405648
0.207394
0.101761
-0.0461615
-0.169227
0.320228
-0.151002
-0.21663
0.208547
0.00808377
0.0193506
-0.0651027
0.045752
0.214443
0.0930468
-0.30749
-0.428216
0.281057
0.147159
-0.308029
0.138802
0.267338
0.17517
-0.15642
-0.0187499
0.211792
0.16183
0.0333627
0.0222259
-0.275414
0.145928
-0.0449779
-0.0478767
-0.186029
0.0488033
0.137226
-0.0167413
0.0155733
0.00116793
-0.0356803
0.0618694
-0.0261891
0.156169
0.00722066
-0.16339
-0.0666112
0.336547
-0.160479
-0.016332
-0.0524533
0.0936135
-0.357475
0.262485
0.0949895
0.0694938
-0.124228
0.0547341
-0.234561
-0.310944
-0.230527
0.026717
-0.00429684
-0.00267563
0.0306948
-0.0280192
-0.214041
0.221635
-0.00759393
-0.196353
-0.206977
-0.170257
0.193804
-0.0235468
-0.177997
0.354403
0.0159108
-0.0021442
-0.0150215
-0.0288375
-0.0026418
0.0314793
-0.0894659
0.0707243
0.0187416
-0.141958
0.0743669
0.0675906
0.0107533
-0.0657762
0.0550229
-0.0928156
-0.117375
0.210191
0.042738
-0.0952799
0.0525419
0.176037
-0.100172
-0.0758652
0.0615622
-0.112877
0.0513152
0.107169
-0.0558486
-0.0513206
-0.00380051
0.0242265
0.155414
-0.391976
0.199972
-0.00126772
-0.0154736
0.175957
0.141646
-0.317603
0.374975
-0.109242
-0.265733
0.00865013
-0.0121332
0.208443
-0.17943
-0.0186991
0.0208434
-0.00214437
-0.0280895
-0.162009
-0.0949289
-0.342551
0.43748
0.0697263
0.345799
-0.0952102
0.0808078
-0.0206941
-0.00962449
-0.0265695
0.117199
-0.0169042
-0.100294
0.316841
-0.138199
-0.178642
-0.0360684
-0.149961
0.277504
-0.404669
0.127165
0.0442878
-0.0931789
0.0488911
-0.00680454
0.00114824
-0.092818
0.12823
0.055496
-0.0726236
0.0171276
-0.0898246
0.391303
-0.146793
-0.0959688
0.242762
-0.0625811
0.180383
-0.0715565
-0.160804
-0.203068
-0.20258
0.0363878
0.0614393
-0.140592
-0.120072
-0.0726792
0.0369989
0.029202
0.0233007
-0.0525027
-0.108453
0.0858145
0.0226384
0.0326251
-0.207435
0.175501
-0.32395
0.148449
0.3204
0.00360416
-0.324004
-0.10975
0.0511709
0.0585788
-0.187198
-0.19168
-0.0158502
-0.000234439
-0.0608565
-0.0773922
0.1561
-0.0182488
-0.0986727
0.0462194
-0.0325805
-0.0758724
-0.00751782
0.000766541
-0.405975
0.187651
0.218323
-0.0047019
0.00878183
-0.00407993
-0.199212
-0.179998
0.379211
-0.00885341
-0.00358183
-0.0596266
0.147697
0.0515226
-0.0416851
-0.00983745
0.0980228
-0.061635
0.0481329
0.0731715
0.0835691
-0.107046
-0.261868
0.368913
-0.0665756
-0.079077
0.158993
-0.070271
0.167931
-0.278856
0.110925
-0.0240607
0.0265064
0.00503281
0.0216706
0.150277
-0.0688449
-0.133287
0.162439
-0.0291521
-0.412906
0.209838
-0.0861804
0.0253156
0.191489
-0.221675
0.0301861
0.443895
-0.194978
-0.248918
-0.0128204
-0.193924
0.116696
0.0772284
-0.0568654
-0.0589763
0.0106911
-0.234417
-0.171557
0.02907
-0.287679
-0.123741
-0.137023
-0.184979
0.322001
0.0538284
-0.067035
0.0132066
-0.0835842
-0.0261654
-0.285863
0.467225
-0.0363602
0.0789698
-0.0426095
0.190037
0.10126
-0.0585219
0.0757967
-0.0203007
-0.00422752
0.0078962
0.0240803
-0.0226154
-0.00146492
0.0152406
0.000520364
0.0249779
0.0048109
0.108989
0.0577562
0.051162
-0.0875222
-0.225309
-0.142855
0.0762793
0.0546153
-0.000111402
-0.00869662
0.00880802
0.148118
-0.0187175
0.0212983
0.0959003
0.00652519
0.0291809
-0.0295201
0.000339231
0.00715179
0.0421296
-0.0492814
0.0414293
0.0419429
-0.0060262
0.0445605
-0.0385343
-0.173829
-0.0402121
-0.125745
-0.149669
0.0899187
-0.0170575
-0.131268
-0.177699
0.308967
0.0118305
-0.00841308
0.118656
-0.0491621
0.193925
-0.209657
0.0157325
0.0192583
0.0334641
-0.0527223
-0.13784
0.0439864
-0.145965
0.132896
-0.0189578
0.209478
-0.35806
0.251015
0.174298
0.159568
0.0560784
0.0285429
-0.0846213
0.140182
-0.0727931
-0.437383
0.171103
0.26628
-0.00305048
-0.0181633
0.299418
-0.0669765
0.101269
-0.034293
-0.0541637
0.00530193
0.0397752
-0.117869
0.201518
0.00457438
0.0469482
0.127156
-0.2363
-0.420901
-0.0620771
-0.160528
0.0272415
0.0350691
-0.0377448
-0.0587898
0.103078
-0.175913
-0.26147
-0.312208
0.175185
-0.170948
0.491348
-0.113922
0.0576717
-0.0248151
0.216007
-0.191192
0.0169844
0.0107082
-0.0276926
0.0702785
0.0242548
-0.0297646
0.0326866
-0.00292205
0.00147073
-0.00172334
-0.0721104
0.0674635
-0.0567102
-0.0801055
0.0373868
0.0427187
-0.218199
0.369975
-0.151776
-0.158599
0.189337
-0.0307378
0.348772
-0.177379
-0.171393
0.0619325
-0.200504
0.138572
0.0318825
-0.0148981
0.191877
-0.192078
0.378509
-0.186431
0.155667
-0.152562
-0.00310527
0.0777141
0.0122046
0.195157
-0.210653
0.0154954
0.00231463
-0.0210137
-0.0378251
0.0478435
-0.0100183
0.0619426
0.0500408
-0.111983
-0.0981735
-0.0437841
0.385109
-0.225092
-0.160017
0.452177
-0.234106
-0.21807
0.0749065
-0.0659061
-0.00900045
-0.471982
0.186119
-0.193324
0.176045
0.017279
-0.154187
-0.0262804
-0.216737
0.191922
-0.134992
-0.173037
0.295213
-0.288606
-0.00660688
-0.029454
0.0457901
-0.0163361
0.0394969
-0.0309814
-0.00851545
0.112072
-0.264341
-0.19881
0.00763695
-0.0218963
-0.0610726
-0.0250234
0.29409
0.326156
-0.151831
-0.174325
0.37614
0.15165
-0.0768928
-0.0321748
0.00241022
0.0456123
0.0367387
-0.041643
-0.050807
0.09245
-0.00680694
0.00210504
0.279331
-0.114059
-0.165273
0.107645
-0.0602387
-0.0474064
0.145692
-0.271776
0.126084
0.166757
-0.0979642
0.0568545
0.065121
0.0097855
-0.054391
0.00916823
0.272832
-0.161362
-0.11147
-0.0233888
0.0241093
-0.000720504
-0.138244
-0.130146
0.268391
-0.109575
0.158794
-0.142583
0.0447507
0.103178
-0.249971
0.0190323
0.33726
-0.356292
0.0406686
-0.0473534
0.109899
-0.0625452
-0.0603596
0.279311
-0.218951
-0.0667757
0.1075
-0.0407244
-0.0238421
0.0300221
0.0356058
0.0514895
0.0228105
-0.00169373
0.098611
-0.0969172
-0.0850176
-0.22719
0.241112
-0.0185681
-0.222544
-0.317461
0.119289
-0.217021
-0.223056
0.440077
-0.0247715
-0.00755542
0.032327
0.000930613
0.0400418
0.0222027
0.112757
-0.134959
0.158095
-0.28075
-0.0950512
0.0553058
0.206549
-0.422355
0.215806
0.000271119
-0.000445439
0.000174319
0.0295755
0.265637
0.204165
0.180944
-0.0674427
0.0108917
-0.186986
0.364039
-0.177053
0.0706474
-0.138013
0.0673659
-0.0855697
0.02385
0.259522
-0.0889928
-0.170529
0.270619
-0.488676
0.218057
0.158984
0.142983
-0.164846
0.14887
0.0159754
0.0729999
-0.0536492
-0.010849
0.0389438
0.0364031
-0.0141776
-0.0222255
-0.361402
0.24656
0.114842
0.00758353
-0.186512
-0.205463
-0.0464403
-0.0107864
-0.0826467
0.00368537
0.0789613
0.281592
-0.170626
0.174876
-0.1636
-0.0112758
-0.181133
-0.0533267
0.0702616
-0.0622161
-0.0368036
0.0990197
0.276835
-0.0683915
0.00333863
-0.0824772
0.039676
-0.236955
0.539685
-0.0204525
-0.00142342
0.0675337
0.016754
-0.0842877
0.144189
0.124783
-0.268972
-0.0300995
0.420607
-0.214058
0.151885
0.00642363
-0.00351217
0.0130151
0.0519878
0.0316711
-0.176229
0.0403413
0.018936
-0.0592773
0.18141
0.144746
0.0611986
-0.00937685
-0.0518217
0.371597
-0.270457
-0.178851
0.449308
-0.166337
0.337355
0.173738
-0.141921
0.132483
-0.402563
0.109781
0.292782
0.0746246
0.189336
0.0874985
0.0633323
-0.0448241
-0.0584735
-0.0124059
0.098555
-0.0369929
-0.0122182
-0.222615
0.234833
0.00806741
0.058898
-0.100541
-0.0697795
0.104874
-0.0350946
0.183738
-0.170009
0.196443
0.0631494
-0.0609501
-0.00219936
0.251661
0.157591
0.157871
-0.315461
0.0592242
-0.0189659
0.0808669
-0.061901
-0.183813
-0.140324
0.324137
0.101503
-0.154895
0.0533912
-0.232167
0.219949
-0.0566576
-0.0672377
0.123895
0.0153851
0.00290893
-0.0182941
-0.34432
0.204826
0.139494
-0.207942
0.366927
-0.158985
-0.162517
0.340747
-0.178231
0.081367
0.184706
0.185663
-0.370369
0.176224
-0.378891
0.202668
-0.237271
0.413494
0.0959075
-0.023461
-0.0724465
-0.14294
-0.167858
0.310797
-0.0616476
0.235685
-0.174037
-0.319744
-0.0828191
-0.14056
0.0671497
0.0734107
-0.0713091
-0.157761
0.16941
0.0450768
-0.00839813
0.0695967
-0.25907
0.0373319
0.221739
0.00226434
-0.00107425
0.102753
0.0528025
-0.155555
0.077443
0.233922
-0.311365
-0.0107491
0.00189569
-0.00821519
-0.0454095
0.0403728
-0.107149
-0.0233034
0.0291023
-0.00579894
-0.189912
-0.075518
0.00428636
-0.00401524
-0.0230286
0.207027
-0.183998
-0.0486211
-0.0103552
0.0805272
0.0207423
0.229468
0.13935
-0.368818
0.158341
-0.0555885
0.0183954
-0.042645
0.0242495
0.0634473
-0.000297812
-0.00643753
0.0869281
0.118904
0.105866
-0.22477
-0.029057
-0.00839817
0.0374552
-0.203241
0.0803561
0.122885
-0.0512237
0.124246
-0.0730228
-0.0286452
0.0479035
0.100254
-0.0517283
-0.101389
-0.182967
0.422412
-0.261778
-0.160635
-0.157838
-0.0143452
0.172183
0.23321
-0.461966
0.228756
0.182976
0.0581366
0.200582
-0.180052
-0.0205298
-0.0215987
0.0619401
-0.085873
-0.049306
-0.0599331
0.0974582
0.0493319
-0.0575471
-0.0670649
-0.0755179
0.033547
-0.00161359
-0.0319334
-0.0178923
0.0298164
-0.0119242
0.352181
-0.357179
0.00499821
0.0308184
-0.0404429
-0.0485474
0.101533
-0.0529855
-0.0979933
-0.116546
0.21454
0.0581911
0.00290755
0.00847058
-0.0379245
-0.0216308
0.00034053
-0.0446439
0.100756
-0.0561121
0.125307
-0.0546596
-0.19964
0.369163
-0.169523
0.0680568
0.23093
0.0752433
-0.0724859
-0.00275742
0.0270112
0.045356
-0.0723672
-0.136828
-0.442422
0.0489564
-0.105714
0.0567577
0.0208042
0.078105
0.0178025
0.265378
0.0738755
0.223179
-0.246208
0.101946
0.149436
-0.0326231
-0.0535573
-0.0209792
0.0298084
-0.00882922
-0.0231954
-0.195205
0.205767
-0.010562
-0.0887098
0.217196
-0.0598377
-0.0662172
0.115717
0.173759
-0.289476
-0.472497
0.375851
0.0966468
-0.0889177
0.23133
-0.142412
-0.375381
0.183303
-0.0390511
-0.00476043
-0.061128
-0.0950579
0.299958
0.0993626
-0.0215781
-0.0610685
0.198601
-0.174553
-0.0240484
0.0109166
-0.011028
0.000622767
-0.300034
0.168766
-0.0555012
-0.020147
-0.0729923
-0.0460839
0.119076
0.182535
-0.184088
0.001553
-0.205518
-0.266979
0.0436439
-0.088644
0.0450001
-0.280736
-0.212354
0.00218342
0.0288022
-0.0233682
-0.236614
0.174967
0.00682898
-0.0278082
-0.124819
0.0681615
0.0709231
-0.122147
0.00296882
0.502547
-0.20063
-0.301917
-0.365357
0.188068
0.176851
-0.384793
0.0445825
0.0625867
-0.128292
0.0684548
0.0239885
-0.0403049
-0.00591024
0.0462151
-0.0220116
0.14553
-0.123518
-0.223308
0.130492
0.0652599
-0.000138889
-0.0215535
0.149534
-0.12798
-0.0695636
0.0414991
0.285436
-0.125956
-0.15948
0.0244699
0.160039
0.0328519
0.00355123
-0.0516949
-0.0327145
0.140676
-0.0291769
-0.00919682
0.0569573
0.0677505
-0.124708
0.149152
0.00279699
0.0112902
-0.0140872
0.195348
-0.296737
0.00686583
-0.314085
0.146013
0.00241872
0.19021
0.164097
-0.354307
0.0236999
-0.0214734
-0.00222646
-0.126059
0.174863
-0.0232783
-0.00796632
0.0312446
-0.211682
-0.00571483
0.217397
0.00836029
0.0269964
-0.0353567
0.295975
-0.0800702
-0.215905
-0.00178975
0.239239
-0.0936811
-0.371382
0.100073
0.0646861
-0.121346
0.0566598
-0.162634
0.322125
-0.159491
-0.0693862
0.0393353
0.0671216
0.00470767
0.193052
0.155608
-0.34866
-0.0330522
-0.0595418
-0.0280755
-0.26303
0.187592
0.0754385
0.0380644
-0.150383
0.112319
-0.298997
0.182552
0.116445
-0.0143434
-0.0788355
-0.0192476
-0.00238322
-0.281814
0.0676065
0.214208
0.0664335
-0.0653197
-0.00111373
0.006592
-0.0285716
0.0219796
-0.00763371
0.0364036
0.283619
0.156593
-0.440211
-0.0060053
-0.0287978
0.0348031
0.0158915
-0.15959
-0.206675
-0.0668148
0.27349
-0.00893902
-0.0253816
0.0343206
0.0564208
-0.119133
0.0627124
-0.168712
-0.199448
0.36816
-0.0834447
0.031564
0.0518807
0.00448958
0.0619439
0.378788
-0.14932
0.037847
-0.000241639
-0.0376054
-0.00573826
0.010619
-0.00488069
0.116655
-0.0653865
-0.0512683
-0.0828232
0.209979
-0.0597827
0.113902
-0.0541196
0.00108444
0.0344077
-0.0863841
0.0519764
0.0539066
-0.0227089
-0.0657631
0.088472
-0.0366668
-0.156658
-0.0103611
-0.17275
0.183111
0.154651
0.0117291
-0.16638
-0.053035
-0.031854
0.084889
0.264243
0.237491
-0.501735
0.184425
-0.330218
0.145792
0.129933
-0.255678
0.321798
-0.368471
0.0466729
0.209653
0.123516
-0.333169
-0.133658
-0.115
0.0321783
-0.028076
-0.00410233
-0.030593
0.0377448
0.179941
-0.0115798
0.00360174
-0.0719657
-0.0595257
-0.0723098
0.019459
0.227579
0.0683966
0.105746
-0.105658
0.116837
-0.0604166
0.0552313
0.0358038
-0.106036
0.0702325
0.06422
-0.0163018
-0.0479183
-0.0516538
-0.306407
-0.134219
-0.160033
0.0792932
-0.177286
0.405555
-0.263082
-0.142473
-0.255419
0.226895
0.0285242
-0.038643
-0.155281
0.020182
0.0506279
-0.0708098
-0.0769434
0.0581902
0.0187533
-0.0351236
-0.0472845
0.115348
-0.216709
0.198711
0.0179984
0.362433
-0.172816
0.15305
0.252505
0.186287
0.073235
0.000925519
-0.0497414
0.0619216
-0.0121802
0.00349026
0.222012
0.135767
-0.301816
0.166049
0.173278
-0.0188231
-0.154455
0.000302598
-0.00215006
0.00184746
-0.155436
0.133883
-0.00418071
0.278619
-0.130628
-0.147992
-0.0128147
0.0666431
0.0074124
-0.0116399
-0.169518
0.184733
-0.0152148
0.351039
-0.157988
-0.104522
-0.158508
-0.436061
-0.000794172
0.436855
0.104336
-0.0151242
-0.0423939
-0.0505432
0.0929371
-0.0237678
-0.149794
-0.0750561
0.0523472
-0.0750805
0.0623304
0.0694206
-0.00416072
0.102415
-0.0577879
-0.0446267
-0.109258
0.131461
0.0641903
-0.0473175
-0.032788
0.144316
0.134304
0.045239
-0.0512652
0.176024
-0.00594226
-0.170082
0.0815466
-0.110585
0.13519
0.00445686
-0.139647
0.245012
-0.0906751
-0.154337
-0.0342089
0.198972
-0.164763
0.0966588
-0.115227
-0.161362
0.27659
0.0745415
0.0518537
-0.126395
0.121864
0.0299717
-0.00807515
-0.0218965
0.0664493
-0.261121
0.165648
-0.0956298
0.169465
-0.121717
-0.0477478
0.00207525
0.0284823
-0.0305576
0.106632
-0.0406218
-0.00182177
0.00337655
0.256672
-0.0673356
-0.245697
-0.179194
0.424892
-0.0629615
0.181865
0.01032
0.405714
-0.184424
0.275622
-0.131433
-0.153699
0.0877931
0.114802
-0.0528591
0.119278
-0.0572664
-0.0620116
-0.0477882
-0.0513941
-0.0758555
0.0407318
0.0289483
0.00564084
-0.0345891
0.29143
-0.173653
-0.117777
0.0413335
0.310847
-0.280544
0.176185
0.104358
-0.0532552
0.109465
-0.0562094