/*--------------------------------*- C++ -*----------------------------------*\
| =========                 |                                                 |
| \\      /  F ield         | OpenFOAM: The Open Source CFD Toolbox           |
|  \\    /   O peration     | Version:  v2012                                 |
|   \\  /    A nd           | Website:  www.openfoam.com                      |
|    \\/     M anipulation  |                                                 |
\*---------------------------------------------------------------------------*/
FoamFile
{
    version     2.0;
    format      ascii;
    class       surfaceScalarField;
    location    "300";
    object      phi_0;
}
// * * * * * * * * * * * * * * * * * * * * * * * * * * * * * * * * * * * * * //

dimensions      [0 3 -1 0 0 0 0];
oriented        oriented;


internalField   nonuniform List<scalar> 
27668
(
0.0655987
0.0552479
-0.120847
0.0400897
-0.0655404
0.0254507
0.326356
0.149835
-0.0648585
-0.0300504
0.0949088
0.343713
-0.198173
-0.145541
-0.0723566
0.144555
-0.0721986
-0.127387
0.0892104
0.038177
-0.406178
0.403324
0.00285411
-0.0408527
-0.0397633
0.080616
-0.0674027
0.0231588
0.0442439
0.29796
-0.194672
-0.103288
-0.000624298
0.448654
-0.262148
-0.186506
-0.00546375
0.000462819
0.201903
0.199312
-0.401215
-0.11943
0.0830759
0.0363545
-0.0305
0.000931728
0.0295683
-0.145046
0.0726894
-0.172979
0.177242
-0.00426318
-0.00851686
0.0269513
-0.0184345
0.11075
-0.248658
0.137909
0.341885
-0.159994
-0.181891
0.00342928
-0.0383813
0.034952
-0.152448
-0.0915983
0.244047
-0.138576
-0.230739
0.369315
0.0241645
-0.0334883
0.00932373
-0.0882273
0.0452385
0.0429888
-0.099646
0.264262
-0.164616
-0.0483132
-0.0399141
-0.0594723
0.125071
0.0591018
-0.0547917
-0.00431006
0.0423745
-0.448552
-0.205036
0.214547
-0.00951155
-0.0531701
0.103151
-0.0499805
-0.0544058
-0.0729816
-0.0915279
0.0422535
0.0492744
-0.193484
0.39247
-0.198986
0.130258
0.167703
0.231385
0.112328
-0.00781884
0.0109323
-0.00311347
0.0517935
-0.0887311
0.0369375
0.0338614
-0.0585661
0.0247047
0.102669
-0.0617261
-0.0409431
-0.00295681
-0.209522
0.0646498
0.144872
0.0391259
0.164311
-0.203436
0.180224
0.221291
-0.401514
0.0577048
0.00205079
-0.0597556
0.120812
-0.283408
0.162596
-0.396915
0.258339
0.260099
-0.493527
0.233428
-0.0728127
0.0650091
0.00780361
-0.0923731
0.0796642
0.0127089
0.038595
-0.0822671
0.0436721
0.226087
0.115798
0.146196
-0.4207
0.274504
0.417106
-0.27746
-0.139646
0.445224
-0.0116524
-0.433571
-0.319506
0.0308959
-0.0827284
-0.0357351
0.118463
-0.0201263
0.0239395
-0.00381323
0.0760103
-0.0359206
0.149309
-0.248955
0.139642
-0.29209
-0.0934504
0.0325947
0.0608557
0.0353005
-0.0725366
0.0372362
-0.26543
-0.0540768
-0.0289036
0.18476
-0.155856
-0.0661057
0.0013876
0.0647181
-0.370789
-0.106968
0.477757
-0.191128
0.110141
0.0809874
-0.020786
0.0965909
-0.0758049
0.0607515
-0.00304668
-0.0211607
-0.0712124
0.405305
-0.198575
-0.20673
0.105917
-0.0541234
-0.159633
0.399321
-0.239688
0.370827
-0.224632
-0.0514726
-0.0492602
0.100733
-0.120971
-0.0701565
-0.0307391
0.0222222
-0.144957
0.184083
0.275656
-0.122655
-0.153
0.0325854
-0.00842088
-0.190097
-0.0149388
0.06219
-0.00308824
0.0330491
-0.403838
0.0059613
-0.00566009
-0.000301213
-0.287837
0.371385
-0.0835485
-0.139555
0.0780101
0.0615449
-0.0649828
-0.052154
0.117137
0.082926
-0.044331
-0.13355
-0.0759717
0.0453234
0.0239782
-0.0693016
0.0581257
-0.055395
-0.00273074
0.258173
0.0182978
-0.276471
0.0224175
-0.0237469
0.00132945
0.195731
-0.315704
0.119973
-0.0302357
0.0281997
0.00203596
-0.0999434
0.0467733
-0.308607
0.0207697
0.018027
0.427197
-0.173886
0.0887216
0.085164
0.166745
-0.0938537
-0.0728912
0.0485253
-0.0999979
-0.202639
0.208809
-0.00617039
0.0338079
0.0660114
-0.0998194
0.0233587
-0.0235176
0.000158823
-0.123039
-0.148253
0.271292
-0.0608686
-0.0325818
0.0946583
-0.109619
0.014961
0.00293605
-0.0230623
-0.194122
-0.181963
0.376086
-0.10798
-0.065906
0.0392556
0.0436704
0.218025
-0.0599985
-0.158026
-0.0283355
-0.00190013
-0.116616
0.0338874
0.0814323
0.0687932
-0.150226
-0.380698
0.187215
-0.00131415
-0.000996488
-0.0892327
-0.150898
0.240131
-0.30851
0.140811
0.1677
0.00347325
0.0911851
0.0043799
-0.0291576
0.0247777
-0.134175
0.170807
-0.0366329
0.177713
-0.144558
-0.0331548
0.0464816
-0.115304
0.0688227
-0.0564649
-0.035063
0.137645
-0.357594
0.219949
0.447289
-0.470539
0.0232504
0.0418245
0.0393584
-0.0811829
-0.00753742
-0.0248745
0.032412
0.156162
-0.133705
-0.0224564
-0.0166858
-0.0494199
0.378346
-0.118247
0.0446838
-0.1081
0.0634158
0.141223
-0.216692
0.0674516
-0.0256692
-0.0417824
-0.0690619
0.0282092
-0.225848
-0.0364564
0.262305
0.192375
0.224731
-0.0010088
0.000462591
-0.39582
0.148611
0.247209
-0.157092
-0.0181965
0.175289
0.0184946
0.0524476
-0.0709422
0.0861074
-0.0468518
0.348287
-0.195271
-0.153016
-0.0381375
-0.0688101
0.106948
-0.181486
-0.0211531
-0.15771
0.0405203
0.117189
-0.154442
0.301967
-0.147526
-0.00725746
0.0161831
-0.00892568
0.0114637
0.246709
-0.220091
-0.17573
-0.011173
0.0130218
-0.00184884
-0.168376
0.0342017
0.329967
0.118687
-0.171809
0.107962
0.0638466
-0.0364567
0.0944285
-0.0579718
0.0682127
-0.0228894
0.291666
-0.170854
0.130736
-0.305249
0.174513
0.325786
-0.18814
-0.00102887
-0.00678997
-0.0633834
0.0823401
-0.0189567
0.301478
-0.49309
0.191612
0.0522386
0.0481468
-0.100385
0.063356
0.0354373
-0.0987933
0.250211
0.155094
-0.133997
0.0978267
0.0361703
-0.0023354
0.0013266
-0.0295929
0.0804588
-0.0508659
-0.163898
0.157662
0.00623527
-0.340359
0.180366
-0.00127458
0.000650282
0.0925048
0.12552
0.0803335
0.071406
-0.151739
-0.0067316
-0.0110944
0.017826
0.0721658
-0.135182
0.0630159
0.0222341
-0.0708979
0.0486639
0.0859287
-0.0441042
-0.210539
0.0204415
-0.0237432
0.000224116
0.0235191
-0.0483236
0.113254
-0.0649301
-0.0561429
0.0330465
0.0230964
-0.00867643
-0.0143153
0.0229917
-0.413708
0.287012
0.126695
0.0540363
-0.0836292
0.117802
-0.250888
0.133086
0.164702
-0.253934
-0.045784
0.0980227
0.0224198
-0.0247874
0.00236764
0.0796977
-0.150064
0.0703666
0.155121
-0.34387
0.188749
0.0267061
-0.00431811
-0.022388
0.0255895
-0.00223079
-0.107798
0.0713414
0.0530209
0.0496482
0.0396974
-0.00321972
-0.0364776
-0.0323304
0.403158
-0.0811151
-0.0528819
-0.0970403
0.423396
0.0295624
0.10181
-0.131372
-0.0124533
-0.0123929
0.0248461
0.0718509
-0.0127474
-0.0591035
-0.320167
0.165726
-0.143628
0.174314
-0.0306866
0.00243057
0.131477
-0.133908
0.121174
-0.0659264
-0.0011373
0.0274155
-0.0262782
0.176406
0.189616
-0.366023
0.0967178
-0.052034
-0.101884
0.0757051
0.0261792
0.094765
0.0654346
-0.1602
-0.0449038
-0.0569806
0.0869537
-0.22692
0.139966
-0.146324
0.373841
-0.227517
0.0411596
-0.106018
0.111438
-0.40619
0.294752
-0.129486
0.289772
-0.160286
-0.173029
0.0159363
-0.192003
-0.221705
0.0742124
-0.0949984
0.226595
-0.139641
-0.204584
-0.103926
0.373622
-0.21181
-0.161812
-0.00178903
0.286877
-0.156142
0.0287677
-0.0363051
-0.00695927
-0.0101345
0.0170938
-0.0696241
0.265355
0.240447
-0.129698
-0.0368838
0.0835251
-0.0466413
-0.0144801
-0.0163305
0.0308106
-0.184691
-0.0258479
-0.103156
0.054832
-0.116618
0.256259
0.0895774
-0.15456
0.0255424
0.148946
-0.174489
0.0742486
-0.100864
0.0266159
0.0213933
-0.021873
0.000479705
-0.224714
-0.0460638
0.270778
0.0550848
0.0123668
-0.19508
0.0126645
0.182415
-0.131002
0.0498867
0.0836032
-0.309451
-0.0333646
0.12813
0.337125
-0.182004
0.015024
-0.000588256
-0.0144358
-0.069377
0.0324932
0.00225715
0.00370415
-0.0333774
0.0310336
0.0023438
-0.0341945
0.111948
-0.0777531
-0.0287396
0.0321689
0.103627
-0.0562695
-0.0473573
0.0292702
-0.0542485
0.0249783
-0.371056
0.228029
0.143027
-0.0273877
-0.00620901
0.0335967
-0.0470956
0.127429
-0.0551988
-0.0562512
0.11145
0.0612653
-0.0259649
0.0565395
0.00158622
0.0833799
-0.0528386
-0.0305413
0.187913
-0.171646
-0.0162675
0.360904
-0.249465
0.0634543
-0.0482905
-0.0151638
-0.0326761
0.0859197
-0.0532437
0.194188
-0.173562
-0.0206253
-0.198254
-0.187261
0.385516
-0.482979
0.52779
-0.0448115
-0.0236281
0.0862445
-0.0626163
-0.181378
0.333866
-0.152488
0.0215161
-0.00455211
-0.016964
-0.036184
0.0237308
-0.00675142
0.00853088
-0.00177946
0.000786978
-0.031287
-0.0810013
-0.00558576
0.086587
0.0560589
-0.111258
0.114791
-0.0405422
0.00636484
-0.0284215
0.0220566
-0.149858
-0.0231206
0.00694739
0.0145687
0.0297872
-0.00625796
-0.0235292
-0.0228355
-0.0803201
0.0568899
-0.089566
-0.0548898
0.100274
-0.0453839
-0.342161
0.190606
0.151555
-0.0303112
-0.0258317
-0.110678
0.0792106
0.031467
-0.0277201
0.0499541
-0.0212901
-0.0024531
0.067314
-0.0652632
0.0492858
0.0022361
-0.0515219
-0.0700727
-0.0749734
-0.266648
0.0419341
-0.0466693
0.0799218
-0.0332525
0.0719459
0.0316809
0.112745
-0.0662636
0.0280906
-0.0425707
-0.0153164
-0.0520863
-0.0706879
-0.0603139
0.0250594
-0.0206795
-0.010089
-0.153809
-0.0581267
0.0919346
0.0148423
-0.0215739
0.0751162
-0.00355051
-0.0180405
0.021591
-0.0829614
0.0755507
0.00741068
-0.0602514
0.0631524
-0.00290102
0.154865
-0.160728
0.00586318
0.0292181
-0.0758874
-0.0211875
0.017637
-0.0546829
-0.0531151
-0.131491
0.07536
0.0561306
-0.0499064
0.108263
-0.0583564
0.164306
-0.00944111
-0.20136
-0.169696
0.0568922
-0.027622
0.143056
-0.17196
-0.00245795
-0.0309194
-0.206388
0.211629
-0.00524092
0.190405
-0.0725524
-0.117853
-0.128416
-0.0446123
0.00618123
0.0275157
-0.0336969
-0.403329
0.243696
0.0210517
-0.0689912
0.0479396
0.145132
-0.191173
-0.00390691
-0.145777
0.17132
-0.0130697
0.172265
-0.159195
-0.010603
0.00341891
0.00718406
-0.0183518
-0.122778
0.267415
-0.144638
0.0512843
0.000897609
-0.0521819
0.035412
-0.154867
0.119455
0.000193548
0.0211998
-0.0112307
-0.0697706
-0.442422
0.0243744
0.418047
-0.0995292
0.075901
-0.0469368
0.0768999
-0.0299631
-0.0356222
0.0891143
-0.0534921
0.02697
-0.00401382
-0.0229561
-0.188359
0.2416
-0.0532413
0.0145412
-0.00936715
-0.00517404
0.0179294
-0.0248887
0.00241373
0.0372836
0.06817
-0.00207667
-0.0660934
-0.00468436
-0.00797996
0.0126643
0.08807
-0.167508
0.0794381
-0.136178
-0.021532
0.0700184
0.0780136
-0.148032
0.0752625
0.055931
-0.0824136
0.0264826
-0.123121
-0.114609
0.23773
-0.0928552
0.0386359
0.0542193
0.00753325
0.00864989
-0.0367366
-0.073941
-0.161981
-0.181889
-0.24781
0.28322
-0.0354105
0.00244437
0.0274044
-0.0298488
0.269936
0.133538
-0.403474
0.233743
-0.35652
0.366745
0.0805438
-0.144821
-0.195538
-0.010603
-0.0188566
-0.0198698
0.0387265
-0.110221
0.0555381
-0.00192851
0.000653933
-0.12486
0.0653878
-0.0175514
0.0514128
0.11914
0.0101297
-0.00790739
-0.00222233
0.382951
-0.181047
0.0330778
-0.0607979
0.0266673
-0.0386642
0.0119968
-0.175127
0.0467108
-0.40637
0.266346
0.140024
0.00464954
0.00628278
0.0141563
-0.0246854
0.0105291
-0.43136
0.30703
0.12433
-0.145653
0.0755799
0.112654
-0.0404884
0.143458
-0.124646
-0.0188113
-0.00391711
0.0453146
-0.0413974
-0.27105
0.126676
0.144374
0.489758
-0.229122
-0.260637
0.171629
-0.41085
0.239221
-0.0978321
0.0749966
-0.0465885
0.0795448
-0.0329563
-0.162994
0.111828
0.0511662
-0.408127
0.0975464
0.31058
0.284966
-0.152268
-0.132698
-0.00371188
-0.23236
0.221632
0.0107281
0.108453
-0.106023
0.0528947
-0.300704
0.0519258
0.0209083
-0.072834
-0.111849
-0.0569932
0.168842
0.16244
-0.0189826
-0.347867
0.0219142
0.325953
-0.200551
0.356152
-0.155601
0.325859
0.163899
-0.012439
0.00126603
0.00519776
0.00950692
-0.0657924
0.0562855
0.0176205
-0.0262969
0.0204272
-0.0215645
-0.0998418
0.0505816
0.339254
-0.152752
-0.186502
0.0116017
0.214487
0.061169
-0.0877233
-0.0752707
-0.060222
-0.0592085
-0.00374853
-0.0766679
0.0804164
-0.0527244
-0.0634237
0.116148
-0.156186
0.0960139
0.060172
-0.000530232
0.049816
-0.0787053
-0.0398377
0.118543
0.172602
0.015311
-0.0709237
0.286822
-0.215899
-0.416533
0.229517
-0.0205443
-0.0522684
0.0928111
0.0849017
0.0520388
0.142149
-0.0501598
0.142971
0.0492184
0.11986
-0.169079
-0.0939252
0.0597307
-0.048455
0.0579619
-0.257814
0.141196
-0.0347176
0.0691024
-0.0343849
0.0668222
0.145558
-0.21238
0.0794489
-0.0275231
0.0728604
-0.0518087
-0.0452276
0.0561922
-0.0109646
-0.233478
-0.0186164
0.252095
-0.18115
0.0261107
-0.0717971
0.0456864
-0.335753
-0.0723737
0.00517604
0.0579763
-0.0312047
0.00543301
0.0257717
-0.349575
0.391949
-0.23607
0.0296821
0.239685
-0.047439
-0.192247
0.0450721
-0.00250965
-0.0425624
0.0395501
-0.0128828
-0.0115779
0.010549
0.0673889
-0.146929
0.0795406
-0.0280563
-0.0322771
0.0603334
0.0831668
-0.316645
0.0261655
-0.00570118
-0.0204643
-0.0242573
0.179525
0.30273
-0.482255
-0.0569259
0.0469631
0.00996286
0.1294
-0.00943754
-0.119963
0.0664134
-0.178262
0.236386
0.109525
-0.34591
0.14405
-0.148084
0.00403342
-0.0790966
0.315482
-0.0756498
0.0656565
0.00999325
0.0993808
-0.448956
-0.541472
0.354779
0.186693
0.00291855
-0.00484706
0.0544387
-0.0991808
0.0447421
-0.111955
-0.159095
0.0610278
0.00628615
0.0401882
-0.388055
-0.0160869
0.0162854
-0.000198494
0.152909
-0.159259
0.00634974
-0.218304
0.229767
-0.297167
0.0702469
-0.163484
-0.178677
-0.00772621
-0.0403288
0.048055
-0.271308
0.200385
0.136574
0.0738059
0.0341641
-0.10797
8.76368e-05
0.140729
-0.140817
0.0356564
-0.0438007
0.00814435
-0.103918
0.0540117
-0.204517
0.287684
0.00155334
-0.000892019
-0.000661322
-0.0427972
0.0954315
-0.0526343
0.150546
-0.110705
-0.0398412
0.272216
-0.417645
0.145429
0.200267
-0.183374
-0.0168933
0.384159
-0.184848
0.202725
-0.349049
0.156741
-0.0843685
-0.0723722
0.235852
0.112435
-0.190099
0.059017
0.131082
-0.0290397
0.0849707
0.0825762
-0.0863247
-0.0967586
0.0611365
0.0628588
-0.0131075
-0.0497513
0.116344
0.0398174
0.037513
-0.0924028
0.060158
0.0428424
-0.103
-0.0141793
0.351967
-0.557823
0.205856
0.0249784
0.00605522
0.072185
-0.0460742
0.0513267
0.0158634
-0.03472
0.137851
-0.182094
0.0442428
-0.170887
-0.12628
-0.0061618
0.00366411
0.00249769
-0.215832
0.0100104
0.205821
-0.194003
0.232357
-0.0383533
0.0238863
-0.0231466
-0.000739654
0.083306
0.0672398
0.0271796
0.161669
0.0471406
0.210025
0.146127
-0.138249
0.0569562
0.0812926
0.168058
0.111306
-0.279364
0.0836491
0.128487
-0.212136
-0.0212161
0.0110816
0.012262
-0.0170318
0.00476984
0.0264342
-0.197172
0.170738
0.184509
-0.0254011
-0.159108
0.0283472
0.160277
-0.0162267
0.215589
-0.148767
-0.0114342
0.160381
-0.00221501
-0.0545549
0.0567699
-0.171677
0.191062
-0.0193846
-0.131408
-0.164114
0.295522
0.0415204
0.0153557
-0.00648814
-0.0118637
0.265241
-0.0338564
-0.0318882
0.0863269
-0.260446
0.0664424
0.182588
-0.0209194
-0.0479206
0.0832492
-0.0353286
0.0315392
-0.00656087
0.0007629
0.0674071
0.547789
-0.284216
-0.263574
0.103474
0.0656444
-0.0748514
0.00920694
0.0428705
-0.0603593
0.0256417
0.0187814
-0.168072
0.318222
-0.15015
-0.234459
0.18702
-0.00348571
-0.00581195
0.00929766
-0.260664
0.138559
0.122104
-0.0843271
0.0264469
0.0578802
0.511093
-0.212644
-0.298449
0.0457318
-0.0584203
0.0126885
0.0551455
-0.0319867
0.0491122
-0.0568384
0.076507
-0.0565496
-0.0199574
-0.283566
0.0882952
0.0532497
-0.0554647
-0.109144
-0.0911669
0.200311
0.0229328
-0.000515266
0.000368712
0.110966
0.177047
-0.288012
-0.299428
0.478952
0.0459725
-0.0103162
0.0556021
0.0445602
-0.100162
-0.0914661
-0.0480889
-0.0694513
-0.102357
0.0947694
-0.277355
0.182586
0.035074
-0.019645
-0.015429
-0.294252
0.173181
0.12107
-0.0572394
0.053126
0.00411335
0.21602
0.0689467
-0.16508
0.0193028
0.0410952
-0.259399
-0.0221954
0.0945311
-0.0723357
-0.378878
0.137743
0.241135
0.0611135
-0.126056
0.0649424
0.000226163
0.0147979
-0.0270068
0.0374878
-0.010481
-0.373594
0.153504
-0.0290397
0.102846
-0.199336
-0.174258
0.169719
-0.01681
0.0601109
-0.0823063
-0.0669192
-0.0174079
0.00118971
0.00284926
-0.00403897
0.118589
-0.323106
-0.0420979
0.0484628
-0.00639287
0.000231072
0.0278743
-0.242483
0.214608
0.0743082
-0.00200291
-0.0723053
-0.316806
-0.0895643
0.0131236
0.2056
-0.180624
-0.0249752
0.00806718
0.250589
-0.329685
0.0430335
-0.0421358
-0.0201927
-0.00643602
0.0266287
0.0975201
-0.177289
-0.195185
0.372474
-0.41142
0.317749
0.0936704
0.198881
0.0427192
0.157985
-0.083298
-0.074687
0.286571
0.261218
-0.102489
0.181496
-0.0790074
0.198832
-0.222374
0.0235425
0.029014
0.168279
-0.197293
0.018168
-0.00590602
-0.32118
0.251924
0.0692564
-0.0637465
0.181362
-0.48079
-0.213067
0.240941
-0.017167
0.0157623
0.00140473
0.0121357
-0.0168201
-0.0536114
0.0496943
-0.201493
-0.119687
-0.0327537
0.0131087
-0.328506
0.147128
-0.176811
0.016083
-0.207885
0.302654
0.178778
0.0502929
-0.22907
0.00305812
-0.0584531
-0.032684
-0.00742321
0.0401072
-0.315863
0.190735
0.125127
-0.405648
0.207394
0.101762
-0.0461596
-0.169227
0.320228
-0.151002
-0.21663
0.208547
0.00808378
0.0193548
-0.0651088
0.045754
0.214443
0.0930468
-0.30749
-0.428216
0.281057
0.147159
-0.308029
0.138802
0.267338
0.17517
-0.15642
-0.0187499
0.211792
0.16183
0.0333333
0.0222259
-0.275414
0.145928
-0.0449783
-0.0478769
-0.186029
0.0488034
0.137226
-0.0167415
0.0155736
0.00116788
-0.0356787
0.0618763
-0.0261976
0.156169
0.00722064
-0.16339
-0.0666112
0.336547
-0.160479
-0.016332
-0.0524534
0.093613
-0.357475
0.262485
0.0949895
0.0694929
-0.124228
0.0547349
-0.234561
-0.310944
-0.230527
0.0267172
-0.00429745
-0.00267114
0.0306914
-0.0280203
-0.214041
0.221635
-0.00759392
-0.196353
-0.206977
-0.170257
0.193804
-0.0235468
-0.177997
0.354403
0.0159109
-0.00214403
-0.015023
-0.0288406
-0.0026402
0.0314808
-0.0894656
0.0707318
0.0187338
-0.141958
0.0743669
0.0675907
0.0108022
-0.065807
0.0550049
-0.0928156
-0.117375
0.210191
0.0427388
-0.0952797
0.0525408
0.176037
-0.100172
-0.075865
0.0615618
-0.112874
0.0513126
0.107169
-0.0558488
-0.0513206
-0.00380109
0.0242283
0.155414
-0.391976
0.199972
-0.00126758
-0.0154739
0.175957
0.141646
-0.317603
0.374975
-0.109242
-0.265733
0.00865079
-0.0121365
0.208443
-0.17943
-0.0187001
0.0208448
-0.00214469
-0.0280895
-0.162009
-0.0949289
-0.342551
0.43748
0.0697263
0.345799
-0.0952102
0.0808052
-0.0206943
-0.00961221
-0.0265718
0.117198
-0.016904
-0.100294
0.316841
-0.138199
-0.178642
-0.0360684
-0.149961
0.277504
-0.404669
0.127165
0.0442885
-0.0931798
0.0488913
-0.0067988
0.00113872
-0.092818
0.12823
0.0554956
-0.0726157
0.0171201
-0.0898246
0.391303
-0.146793
-0.0959688
0.242762
-0.0625811
0.180383
-0.0715565
-0.160804
-0.203068
-0.20258
0.0363873
0.0614394
-0.140592
-0.120072
-0.0726869
0.0370082
0.0291973
0.0233185
-0.0525158
-0.108452
0.0858127
0.0226389
0.0326251
-0.207435
0.175501
-0.32395
0.148449
0.3204
0.00360416
-0.324004
-0.109751
0.0511691
0.0585814
-0.187198
-0.19168
-0.0158529
-0.000234004
-0.0608565
-0.0773923
0.1561
-0.0182488
-0.0986722
0.0462188
-0.032581
-0.0758706
-0.00751861
0.00076719
-0.405975
0.187651
0.218323
-0.00469962
0.00878186
-0.00408224
-0.199212
-0.179998
0.379211
-0.00885637
-0.00358265
-0.0596267
0.147697
0.051525
-0.0416887
-0.00983639
0.0980224
-0.0616351
0.0481379
0.0731717
0.0835689
-0.107046
-0.261868
0.368913
-0.0665756
-0.0790769
0.158993
-0.0702712
0.167931
-0.278856
0.110925
-0.0240627
0.026507
0.00503097
0.0216751
0.150277
-0.068845
-0.133287
0.162439
-0.0291522
-0.412906
0.209838
-0.0861762
0.0253076
0.191489
-0.221675
0.0301861
0.443895
-0.194978
-0.248918
-0.0128344
-0.193924
0.116696
0.0772285
-0.0568709
-0.0589835
0.010693
-0.234417
-0.171557
0.0290735
-0.287679
-0.123741
-0.137023
-0.184979
0.322001
0.0538427
-0.0670553
0.0132127
-0.0835869
-0.0261637
-0.285863
0.467225
-0.0363566
0.0789762
-0.0426196
0.190037
0.10126
-0.0585209
0.075789
-0.0202933
-0.00422928
0.00789339
0.0240772
-0.0226124
-0.00146481
0.0152416
0.0005207
0.024976
0.00481118
0.108988
0.0577568
0.0511698
-0.0875264
-0.225309
-0.142855
0.0762792
0.0546373
-0.00011116
-0.00869958
0.00881074
0.148118
-0.0187174
0.0212982
0.0958995
0.00652451
0.0291826
-0.0295213
0.000338699
0.00715454
0.0421287
-0.0492833
0.0414133
0.0419665
-0.00602907
0.0445624
-0.0385333
-0.173829
-0.0402121
-0.125745
-0.149669
0.0899189
-0.0170585
-0.131268
-0.177699
0.308967
0.0118343
-0.00841543
0.118656
-0.049163
0.193925
-0.209657
0.0157325
0.0192442
0.0334628
-0.0527071
-0.137839
0.0439858
-0.145965
0.132896
-0.0189578
0.209478
-0.35806
0.251015
0.174298
0.159568
0.0560392
0.0285682
-0.0846075
0.140182
-0.072793
-0.437383
0.171103
0.26628
-0.00305125
-0.0181648
0.299418
-0.0669759
0.101269
-0.0342934
-0.0541621
0.00530039
0.0397717
-0.117869
0.201518
0.00457315
0.0469519
0.127156
-0.2363
-0.420901
-0.0620771
-0.160528
0.0272415
0.0350735
-0.0377446
-0.05879
0.103078
-0.175913
-0.26147
-0.312208
0.175185
-0.170948
0.491348
-0.113922
0.0576707
-0.0248151
0.216007
-0.191192
0.0169796
0.010703
-0.0276825
0.0702765
0.0242546
-0.0297639
0.0326859
-0.00292196
0.00145919
-0.00171379
-0.0721104
0.0674697
-0.0566675
-0.0801287
0.0373916
0.0427371
-0.218199
0.369975
-0.151776
-0.158599
0.189337
-0.0307379
0.348772
-0.177379
-0.171393
0.0619326
-0.200504
0.138572
0.031873
-0.0148934
0.191877
-0.192078
0.378509
-0.186431
0.155667
-0.152562
-0.00310519
0.0777132
0.0122056
0.195157
-0.210653
0.0154953
0.0023151
-0.0210152
-0.0378138
0.047834
-0.0100202
0.0619427
0.0500406
-0.111983
-0.0981736
-0.043784
0.385109
-0.225092
-0.160017
0.452177
-0.234106
-0.21807
0.0749103
-0.0659417
-0.00896862
-0.471982
0.186119
-0.193324
0.176045
0.0172791
-0.154187
-0.0262804
-0.216737
0.191922
-0.134992
-0.173037
0.295213
-0.288606
-0.00660688
-0.0294557
0.0457798
-0.0163241
0.0395063
-0.0309959
-0.00851041
0.112072
-0.264341
-0.19881
0.00763694
-0.0218898
-0.0610715
-0.0250512
0.29409
0.326156
-0.151831
-0.174325
0.37614
0.15165
-0.0768927
-0.0321745
0.00241063
0.0456167
0.0367234
-0.0416443
-0.0508038
0.092448
-0.00680503
0.0021054
0.279331
-0.114059
-0.165273
0.107645
-0.0602381
-0.0474067
0.145692
-0.271776
0.126084
0.166757
-0.0979642
0.0568545
0.065149
0.00976128
-0.0543962
0.00916863
0.272832
-0.161362
-0.11147
-0.0233868
0.024107
-0.000720169
-0.138244
-0.130146
0.268391
-0.109575
0.158794
-0.142583
0.0447509
0.103178
-0.249971
0.0190323
0.33726
-0.356292
0.040669
-0.0473544
0.109899
-0.0625442
-0.0603596
0.279311
-0.218951
-0.0667751
0.107499
-0.0407234
-0.0238373
0.0300185
0.0356045
0.0514871
0.0228211
-0.00170047
0.0986204
-0.0969199
-0.0850176
-0.22719
0.241112
-0.0185681
-0.222544
-0.317461
0.119289
-0.217021
-0.223056
0.440077
-0.0247744
-0.00755168
0.0323261
0.000930602
0.0400518
0.0222028
0.112757
-0.134959
0.158095
-0.28075
-0.095031
0.0552677
0.206549
-0.422355
0.215806
0.000262541
-0.000439494
0.000176954
0.0295755
0.265637
0.204165
0.180944
-0.0674383
0.0108886
-0.186986
0.364039
-0.177053
0.0706472
-0.138013
0.0673661
-0.0855776
0.0238515
0.259522
-0.0889928
-0.170529
0.270618
-0.488676
0.218057
0.158984
0.142983
-0.164846
0.14887
0.0159754
0.0730059
-0.0536511
-0.0108472
0.0389377
0.0363997
-0.0141767
-0.0222231
-0.361402
0.24656
0.114842
0.00758345
-0.186512
-0.205463
-0.0464584
-0.010781
-0.0826451
0.00368469
0.0789604
0.281592
-0.170626
0.174876
-0.1636
-0.0112757
-0.181133
-0.0533267
0.0702617
-0.0622158
-0.0368082
0.0990239
0.276835
-0.0683915
0.00333975
-0.0824742
0.039677
-0.236955
0.539685
-0.02045
-0.00142301
0.0675395
0.0167491
-0.0842886
0.144189
0.124783
-0.268972
-0.0300953
0.420607
-0.214058
0.151885
0.00642912
-0.00351057
0.0130288
0.0519803
0.0316711
-0.176229
0.040338
0.0189338
-0.0592719
0.18141
0.144746
0.0611973
-0.0093787
-0.0518186
0.371597
-0.270457
-0.178851
0.449308
-0.166337
0.337355
0.173738
-0.141921
0.132483
-0.402563
0.109781
0.292782
0.0746244
0.189336
0.0874985
0.0633225
-0.0448279
-0.0584947
-0.0124032
0.0985521
-0.0369903
-0.0122182
-0.222615
0.234833
0.00806707
0.058895
-0.100539
-0.0697848
0.104878
-0.0350937
0.183738
-0.170009
0.196443
0.0631548
-0.0609571
-0.00219773
0.251661
0.157591
0.157871
-0.315461
0.0592233
-0.0189681
0.080873
-0.0619049
-0.183813
-0.140324
0.324137
0.101504
-0.154895
0.0533912
-0.232167
0.219949
-0.0566576
-0.0672383
0.123896
0.0153851
0.00290885
-0.0182939
-0.34432
0.204826
0.139494
-0.207942
0.366927
-0.158985
-0.162517
0.340747
-0.178231
0.0813754
0.184706
0.185663
-0.370369
0.176224
-0.378891
0.202668
-0.237271
0.413494
0.0959096
-0.0234684
-0.0724412
-0.14294
-0.167858
0.310797
-0.0616476
0.235685
-0.174037
-0.319744
-0.0828191
-0.14056
0.0671487
0.0734115
-0.0713092
-0.157761
0.16941
0.0450768
-0.0083978
0.0695951
-0.25907
0.0373319
0.221739
0.00225709
-0.00106738
0.102753
0.0528024
-0.155555
0.077443
0.233922
-0.311365
-0.0107529
0.00189651
-0.00821748
-0.0453939
0.0403721
-0.107147
-0.0233159
0.0291191
-0.00580315
-0.189912
-0.075518
0.00428069
-0.00401815
-0.0230286
0.207027
-0.183998
-0.048627
-0.0103565
0.0805266
0.0207426
0.229468
0.13935
-0.368818
0.158341
-0.0555885
0.0184002
-0.0426479
0.0242476
0.0634572
-0.000302317
-0.00645196
0.0869107
0.118904
0.105866
-0.22477
-0.0290783
-0.00839527
0.0374735
-0.203241
0.080356
0.122885
-0.0512236
0.124247
-0.0730229
-0.0286479
0.0478921
0.100254
-0.0517283
-0.101389
-0.182967
0.422412
-0.261778
-0.160635
-0.157838
-0.0143453
0.172183
0.23321
-0.461966
0.228756
0.182976
0.0581365
0.200582
-0.180052
-0.0205297
-0.0215972
0.0619352
-0.0858731
-0.0493087
-0.0599472
0.0974602
0.0493347
-0.0575522
-0.0670649
-0.0755181
0.0335465
-0.00161306
-0.0319335
-0.0178861
0.0298238
-0.0119378
0.352181
-0.357179
0.00499819
0.0308156
-0.0404278
-0.0485468
0.101532
-0.0529854
-0.0979933
-0.116546
0.21454
0.0581676
0.00290865
0.00846212
-0.0379178
-0.0216305
0.000340363
-0.0446435
0.100756
-0.0561121
0.125307
-0.0546597
-0.19964
0.369162
-0.169523
0.068057
0.23093
0.0752451
-0.072491
-0.00275406
0.0270101
0.0453646
-0.0723747
-0.136828
-0.442422
0.0489539
-0.105713
0.0567586
0.0208041
0.0781001
0.0178096
0.265378
0.0738755
0.223179
-0.246208
0.101946
0.149436
-0.0326183
-0.0535579
-0.0209833
0.0298096
-0.00882633
-0.0231933
-0.195205
0.205767
-0.0105619
-0.0887098
0.217196
-0.0598398
-0.0662161
0.115717
0.173759
-0.289476
-0.472497
0.375851
0.0966468
-0.0889177
0.23133
-0.142412
-0.375381
0.183303
-0.0390449
-0.00475584
-0.0611281
-0.0950578
0.299958
0.0993626
-0.0215773
-0.0610678
0.198601
-0.174553
-0.0240484
0.0109195
-0.0110306
0.000623486
-0.300034
0.168766
-0.0555114
-0.0201384
-0.0729924
-0.0460839
0.119076
0.182535
-0.184088
0.00155296
-0.205518
-0.266979
0.0436445
-0.0886442
0.0449997
-0.280736
-0.212354
0.00218258
0.0287991
-0.0233661
-0.236614
0.174967
0.00682684
-0.0278101
-0.12482
0.068162
0.0709233
-0.122147
0.00296991
0.502547
-0.20063
-0.301917
-0.365357
0.188068
0.176851
-0.384793
0.0445826
0.0625868
-0.128294
0.0684537
0.0239885
-0.0402944
-0.00591266
0.0462071
-0.0220116
0.14553
-0.123518
-0.223308
0.130492
0.0652493
-0.000100278
-0.0215535
0.149534
-0.12798
-0.0695623
0.041506
0.285436
-0.125956
-0.15948
0.0244699
0.160039
0.0328486
0.00355108
-0.051695
-0.0327143
0.140676
-0.0291899
-0.00919135
0.0569571
0.0677509
-0.124708
0.149152
0.0027989
0.0112934
-0.0140923
0.195348
-0.296737
0.00686611
-0.314085
0.146013
0.00241857
0.19021
0.164097
-0.354307
0.0236967
-0.0214705
-0.0022262
-0.126059
0.174863
-0.0232767
-0.00797982
0.0312565
-0.211682
-0.00571484
0.217397
0.00836907
0.0269826
-0.0353516
0.295975
-0.0800702
-0.215905
-0.00179021
0.239239
-0.0936811
-0.371382
0.100073
0.0646854
-0.121346
0.0566604
-0.162634
0.322125
-0.159491
-0.0693857
0.0393353
0.0671638
0.00468711
0.193052
0.155608
-0.34866
-0.0330577
-0.0595424
-0.0280765
-0.26303
0.187592
0.0754385
0.0380645
-0.150383
0.112319
-0.298997
0.182552
0.116445
-0.0143441
-0.0788357
-0.0192475
-0.00238293
-0.281814
0.0676065
0.214208
0.0664409
-0.0653319
-0.00110905
0.00659121
-0.0285652
0.021974
-0.00762954
0.0363972
0.283619
0.156593
-0.440211
-0.00600732
-0.0287894
0.0347968
0.0158914
-0.15959
-0.206675
-0.0668148
0.27349
-0.00893821
-0.0253837
0.0343219
0.0564208
-0.119133
0.0627118
-0.168712
-0.199448
0.36816
-0.0834163
0.0315597
0.0518566
0.00448157
0.0619593
0.378788
-0.14932
0.037847
-0.000241249
-0.0376057
-0.00574036
0.0106224
-0.00488207
0.116655
-0.0653862
-0.0512685
-0.0828232
0.209979
-0.0597837
0.113902
-0.0541187
0.00108431
0.0344078
-0.086389
0.0519812
0.0539054
-0.0227088
-0.0657633
0.0884721
-0.0366668
-0.156658
-0.0103611
-0.17275
0.183111
0.154651
0.0117292
-0.16638
-0.0530676
-0.0318005
0.0848681
0.264243
0.237491
-0.501735
0.184425
-0.330218
0.145792
0.129933
-0.255678
0.321798
-0.368471
0.0466729
0.209653
0.123516
-0.333169
-0.133658
-0.115
0.03217
-0.0280671
-0.00410293
-0.0305926
0.0377472
0.179941
-0.0115829
0.00360296
-0.0719651
-0.0595255
-0.0723116
0.0194731
0.227579
0.0683966
0.105746
-0.105658
0.116837
-0.0604159
0.0552322
0.0358035
-0.106036
0.0702325
0.0642367
-0.0163003
-0.0479363
-0.0516538
-0.306407
-0.134219
-0.160033
0.0792931
-0.177286
0.405555
-0.263082
-0.142473
-0.255419
0.226895
0.0285242
-0.038643
-0.155281
0.0201681
0.0506413
-0.0708094
-0.0768913
0.058136
0.0187554
-0.0351266
-0.047287
0.115348
-0.216709
0.198711
0.0179983
0.362433
-0.172816
0.15305
0.252505
0.186287
0.073235
0.000918389
-0.0497408
0.0619218
-0.012181
0.00348948
0.222012
0.135767
-0.301816
0.166049
0.173278
-0.0188231
-0.154455
0.000293466
-0.00214229
0.00184882
-0.155436
0.133883
-0.00418163
0.278619
-0.130628
-0.147992
-0.0128074
0.06665
0.00740778
-0.0116371
-0.169518
0.184733
-0.0152148
0.351039
-0.157988
-0.104522
-0.158508
-0.436061
-0.000794171
0.436855
0.104335
-0.0151245
-0.0423937
-0.0505435
0.0929372
-0.0237679
-0.149795
-0.0750562
0.0523474
-0.0750907
0.0623433
0.0694294
-0.0041801
0.102411
-0.0577857
-0.0446255
-0.109258
0.131461
0.0641904
-0.0473294
-0.0327993
0.144316
0.134304
0.0452377
-0.0512668
0.176024
-0.00594226
-0.170082
0.081547
-0.110587
0.135191
0.00445696
-0.139648
0.245012
-0.0906751
-0.154337
-0.0342089
0.198972
-0.164763
0.0966582
-0.115227
-0.161362
0.27659
0.0745416
0.0518538
-0.126395
0.121864
0.0299889
-0.00808231
-0.0219065
0.0664494
-0.261121
0.165648
-0.0956295
0.169464
-0.121717
-0.0477478
0.00207693
0.0284828
-0.0305598
0.106637
-0.0406259
-0.00182057
0.00337392
0.256672
-0.0673356
-0.245697
-0.179194
0.424892
-0.0629615
0.181865
0.0103164
0.405714
-0.184424
0.275622
-0.131433
-0.153699
0.0877929
0.114802
-0.0528588
0.119281
-0.0572687
-0.0620126
-0.0477939
-0.0513869
-0.0758608
0.0407342
0.0289523
0.00564017
-0.0345924
0.29143
-0.173653
-0.117777
0.0413336
0.310847
-0.280544
0.176185
0.104358
-0.0532558
0.109466
-0.0562103
0.0287656