/*--------------------------------*- C++ -*----------------------------------*\
| =========                 |                                                 |
| \\      /  F ield         | OpenFOAM: The Open Source CFD Toolbox           |
|  \\    /   O peration     | Version:  v2012                                 |
|   \\  /    A nd           | Website:  www.openfoam.com                      |
|    \\/     M anipulation  |                                                 |
\*---------------------------------------------------------------------------*/
FoamFile
{
    version     2.0;
    format      ascii;
    class       volVectorField;
    location    "300";
    object      U_0;
}
// * * * * * * * * * * * * * * * * * * * * * * * * * * * * * * * * * * * * * //

dimensions      [0 1 -1 0 0 0 0];


internalField   nonuniform List<vector> 
18598
(
(1.07279 -0.00509203 -8.28634e-21)
(1.09998 0.0119335 0)
(1.00001 0.000102874 -2.86528e-21)
(1.0692 0.159882 1.57878e-20)
(1.01938 0.0112758 0)
(1.06635 0.0263599 5.56578e-23)
(1.061 0.0993094 0)
(0.999595 0.00174579 0)
(1.08602 -0.0226173 1.22884e-20)
(0.880263 -0.0285378 9.30715e-21)
(0.989683 0.0103746 1.25385e-20)
(-0.0949457 -0.0240418 1.09724e-19)
(1.01731 0.00498021 -1.5338e-22)
(-0.117555 -0.0232604 -1.07091e-19)
(0.998861 0.00120465 5.51259e-21)
(1.1054 0.0710474 0)
(0.662286 -0.00151441 2.06662e-20)
(1.06528 0.0266821 0)
(1.00603 0.0557116 0)
(0.546613 -0.027752 9.13136e-22)
(0.999617 0.0245705 1.0747e-22)
(1.01433 0.0172095 -5.57437e-22)
(0.752247 -0.0184548 -1.97215e-21)
(1.02005 0.0171464 -5.15935e-24)
(1.01328 0.0058954 -5.18659e-22)
(0.705557 -0.00221391 1.23417e-20)
(1.09955 0.00847917 0)
(0.992957 0.00164697 -6.09807e-21)
(1.09963 0.00865205 -1.80778e-20)
(1.07163 -0.00545536 8.51521e-21)
(0.98592 -0.020008 0)
(0.999661 0.00168261 0)
(1.02737 0.0365784 2.0673e-22)
(1.08252 0.0163624 4.48254e-21)
(1.05894 0.101577 0)
(1.10008 -0.00360709 -1.55946e-20)
(1.01294 0.00768362 -1.92427e-22)
(0.989351 0.0107982 0)
(1.01972 0.0110618 -1.16631e-22)
(0.230977 -0.00417454 -1.8605e-20)
(1.08579 0.00903967 0)
(0.971809 0.485455 -2.07409e-20)
(1.1458 0.137652 -2.91528e-20)
(-0.120026 -0.0195834 0)
(0.92202 0.0155125 -1.36033e-20)
(1.0103 0.038898 2.19827e-21)
(1.01246 0.00542653 0)
(1.07768 0.00531294 -6.33978e-21)
(1.02567 0.00643491 8.29135e-22)
(1.01304 0.00564021 0)
(1.00636 0.00102389 -1.89689e-21)
(1.17517 0.0616466 0)
(1.13408 0.110206 2.53315e-20)
(1.09434 0.0160364 1.29454e-20)
(1.01483 0.017242 6.45098e-22)
(1.00572 0.00535966 3.47483e-21)
(0.999273 0.00616097 6.44826e-21)
(1.00057 0.000304563 -1.47943e-21)
(1.02483 0.00553669 1.19123e-21)
(1.02425 0.102277 0)
(0.560779 0.0148167 1.52128e-21)
(1.09971 0.0121302 2.21151e-21)
(0.992911 0.00142044 6.71086e-21)
(1.01962 0.016857 -4.20189e-23)
(1.09002 0.00800109 -6.02044e-21)
(1.08423 0.00174546 1.27547e-20)
(1.02459 0.00574635 -2.74154e-21)
(1.03959 0.0150187 -4.36834e-21)
(1.10815 0.532387 0)
(1.01237 0.00128826 -1.40574e-21)
(1.05213 0.0132572 -3.17509e-21)
(1.05207 0.0971086 -4.34697e-21)
(1.06916 0.00412432 0)
(1.13138 0.113097 0)
(0.997723 0.00190313 3.76405e-21)
(1.0854 0.00887373 0)
(0.998995 0.00260326 5.83809e-21)
(1.00577 0.00556488 1.78448e-21)
(1.04987 0.143714 4.31977e-21)
(1.05219 0.0139458 3.41912e-21)
(0.618074 -0.0230784 -1.46821e-20)
(1.01023 0.0401166 -1.18789e-21)
(0.985261 -0.00197273 0)
(0.724985 -0.00384719 0)
(1.02646 0.0363813 0)
(0.974766 -0.0210106 -1.53367e-21)
(1.01212 0.00144628 2.03065e-21)
(0.119969 -0.0209967 0)
(0.998205 0.00705327 -7.75399e-21)
(0.998972 0.0951827 0)
(0.953931 0.0565287 -1.6181e-20)
(1.09354 0.0163822 0)
(0.924259 0.0131176 1.38269e-20)
(0.842213 0.266641 0)
(1.13797 0.343461 0)
(1.02555 0.0156095 -6.6677e-22)
(0.576753 0.000591648 -7.91782e-21)
(0.993097 0.0114137 -1.64893e-21)
(0.56652 -0.0307019 0)
(1.08324 0.016352 4.66988e-21)
(0.998069 0.00686607 8.6061e-21)
(1.00064 0.00028406 0)
(1.04257 0.063941 -1.30525e-21)
(1.06181 -0.00100881 9.38521e-21)
(1.04555 0.140718 -8.83134e-21)
(1.03959 0.0247034 -9.4931e-21)
(1.08267 -0.00216609 -1.28935e-20)
(0.6138 0.0127765 2.54636e-20)
(0.992557 0.00227339 -6.33316e-21)
(1.08977 0.00834572 2.08339e-20)
(0.954479 0.110649 0)
(0.573532 0.0152739 2.96511e-21)
(0.998672 0.00167977 0)
(1.04106 0.0650539 7.70234e-21)
(1.09283 0.0155779 -1.41689e-20)
(0.966685 0.0147837 0)
(0.59461 -0.0282531 1.35818e-20)
(1.0221 0.100034 3.05613e-22)
(1.05737 0.0140949 0)
(1.01293 0.0079906 2.11603e-22)
(-0.0286983 -0.0193757 3.67692e-20)
(1.02269 0.0150482 -2.90746e-22)
(1.02705 0.015622 2.09692e-21)
(0.958504 0.112212 0)
(0.641083 -0.00324404 0)
(1.04522 0.0243825 0)
(1.04629 0.0171973 0)
(1.07565 0.00952469 0)
(1.09916 -0.00261853 0)
(1.01742 0.00962653 0)
(1.01499 0.000755127 -4.30486e-23)
(1.03736 0.173064 -1.15729e-21)
(0.695974 -0.00907519 2.09271e-20)
(0.95185 0.0502719 -1.59634e-20)
(1.07471 0.537643 0)
(1.00652 0.00086861 1.83245e-21)
(1.09263 0.0793113 0)
(0.992501 0.00192335 6.54336e-21)
(1.01268 0.00566883 -1.23183e-21)
(0.742207 0.195569 7.55685e-20)
(1.0827 -0.0222926 0)
(1.00426 0.0186298 4.07559e-21)
(0.999228 0.00645818 -9.16581e-21)
(0.0109375 -0.0136468 0)
(0.998376 0.0121112 -2.38761e-21)
(1.00436 0.0513601 4.91107e-21)
(1.17495 0.0648554 0)
(1.09208 0.0159033 1.35455e-20)
(0.995294 0.0119925 -5.11035e-21)
(0.939045 0.0993513 6.49891e-21)
(1.03895 0.0248807 8.76226e-21)
(1.05473 0.00533203 -3.40448e-21)
(1.00023 0.0162125 -5.10915e-21)
(0.351587 0.00265791 -3.08411e-21)
(1.02563 0.0152731 -3.21402e-22)
(0.998326 0.0117185 2.15228e-21)
(0.328851 0.00171179 9.73389e-21)
(1.04559 0.0250915 -1.24887e-21)
(1.01753 0.00489002 -8.5454e-24)
(1.04325 0.0554986 -1.0313e-20)
(1.08741 0.035347 3.2524e-22)
(0.858457 0.269176 2.21008e-20)
(1.02606 0.0064494 1.76837e-21)
(1.01923 0.00884414 1.33549e-22)
(1.01779 0.00986716 -2.66615e-22)
(0.246501 -0.00682719 1.79026e-20)
(1.09635 0.00736807 7.87329e-21)
(0.999125 1.38103e-05 0)
(1.04147 0.156487 0)
(1.0875 0.0542117 -8.38335e-21)
(0.997549 0.00199043 0)
(1.00941 0.13984 -4.98647e-22)
(0.0454719 -0.0163747 3.23442e-20)
(1.13172 0.0949471 -2.71547e-20)
(1.0469 0.037938 5.08504e-21)
(1.01399 0.0166646 3.71983e-23)
(-0.034547 -0.0271254 -7.0266e-20)
(0.965369 0.0157662 -2.53647e-20)
(1.05284 0.0319851 -2.34668e-22)
(0.40034 -0.00468915 -1.80466e-20)
(1.07559 -0.00202564 0)
(1.08365 0.00922568 -1.02351e-20)
(1.03835 0.168151 0)
(1.02569 0.0373686 0)
(0.516126 0.0108126 5.40648e-21)
(0.932484 0.094104 1.13605e-20)
(0.866453 -0.00695694 0)
(0.509849 -0.00396275 0)
(0.998884 0.00518649 0)
(1.13636 0.0962165 1.24454e-20)
(1.03679 0.0070185 3.34184e-21)
(1.02226 0.0147551 1.26701e-21)
(1.0461 0.160438 -2.42208e-21)
(0.632925 0.00651273 2.21786e-21)
(1.04811 0.0577361 0)
(1.01821 0.0135407 -1.90901e-23)
(0.619301 -0.0211728 5.24916e-21)
(0.602769 0.0128963 -2.88812e-20)
(1.0862 0.0358774 2.90562e-20)
(1.14796 0.132445 6.53754e-21)
(0.714964 -0.0036379 0)
(1.00599 0.00574289 -1.88307e-21)
(1.00538 0.13857 1.75724e-21)
(1.00001 0.000194222 1.65161e-21)
(0.960553 0.0564496 1.89895e-20)
(0.538832 -0.0168772 4.74654e-20)
(1.18067 0.134061 2.39543e-20)
(0.999731 0.0162469 5.11169e-21)
(1.04555 0.0229861 0)
(1.01819 0.0569009 -3.1923e-22)
(1.0736 -0.00579257 -1.83634e-20)
(0.621084 0.00155467 0)
(1.00979 0.00647192 4.42628e-21)
(1.09542 0.0788695 0)
(1.11262 0.0584107 7.59597e-21)
(1.05032 0.0602343 -7.59051e-21)
(1.11213 0.0607846 6.99211e-21)
(1.00816 0.0265286 2.17075e-21)
(0.998919 0.00159446 0)
(1.06362 0.157974 -1.46399e-20)
(1.01676 0.00334743 0)
(0.993917 0.0101482 -7.06574e-21)
(1.00283 0.0517063 -6.80937e-21)
(0.998916 0.00492502 0)
(1.0503 0.0956922 -1.12329e-20)
(1.00863 0.0260622 -3.78723e-21)
(1.02676 0.0159384 -7.92602e-23)
(0.999573 0.00905449 9.06164e-22)
(-0.047464 -0.0159228 -3.69567e-20)
(1.01906 0.00863236 1.15008e-22)
(0.738153 -0.00888641 0)
(0.481179 0.00242137 1.16048e-20)
(0.993451 0.0118363 -1.14038e-22)
(0.999267 0.0252137 0)
(1.15928 0.0760021 -8.5206e-21)
(0.651582 -0.0141929 3.63376e-20)
(1.02478 0.0371099 2.4624e-22)
(0.927964 0.0937962 9.15816e-23)
(1.01974 0.0163475 -9.42051e-23)
(0.956299 0.0553892 0)
(1.04641 0.0208876 0)
(1.07552 0.00499906 -3.60478e-21)
(0.568917 0.0158444 1.79037e-21)
(1.02407 0.00597834 0)
(0.736456 0.211343 4.61132e-20)
(1.01044 0.0445737 4.38256e-21)
(1.00131 0.143082 -1.98012e-21)
(1.0042 0.0181012 -4.58565e-21)
(1.05211 0.0603606 8.83282e-21)
(1.01865 0.0138995 -1.92205e-22)
(0.376003 0.00364168 -2.17244e-20)
(1.1619 0.0762473 3.12227e-20)
(0.112549 -0.0231759 0)
(0.654679 -0.0114467 3.3274e-20)
(1.0715 0.0779428 -5.14335e-21)
(0.697777 -0.0195637 -1.46955e-20)
(0.865198 0.103042 -2.66163e-20)
(1.0964 -0.00281703 -3.15805e-20)
(0.992991 0.000334291 0)
(0.734536 -0.00368398 1.63568e-20)
(1.05225 0.031367 -2.05055e-22)
(1.08271 0.0399388 8.93022e-22)
(1.0609 -0.00206083 1.48786e-20)
(1.17643 0.337058 -1.01293e-19)
(1.20428 0.118323 -5.5568e-21)
(0.985525 0.035689 0)
(1.017 0.00348157 0)
(0.928292 -0.0258028 0)
(1.09704 0.0248323 2.79518e-20)
(1.04592 0.0347145 4.08586e-21)
(1.01035 0.00600698 -2.09872e-22)
(1.01572 0.00034441 -2.40609e-22)
(1.07911 0.0232853 0)
(1.00415 0.0134066 3.33881e-21)
(0.378707 0.0212736 -2.0488e-20)
(0.632133 -0.00735497 -2.00443e-20)
(0.211153 -0.00607454 -1.77651e-20)
(0.673813 -0.00211411 -1.55944e-20)
(1.08591 0.00739891 -6.884e-21)
(1.08403 0.0407822 -1.47183e-20)
(1.07488 0.00479714 7.16347e-22)
(0.699586 0.166179 2.43739e-20)
(1.005 0.0543251 1.29417e-21)
(0.440414 0.00726692 0)
(0.642108 -0.00415481 -1.56471e-20)
(0.926828 0.0874539 1.22134e-20)
(1.09636 0.0258164 2.46467e-20)
(1.10241 0.0768791 -7.0117e-21)
(1.01694 0.0139879 -5.28391e-22)
(0.866808 -0.00746805 1.35061e-20)
(1.11097 0.0873582 0)
(1.0736 0.00870147 0)
(0.527521 0.0107217 0)
(1.09151 0.00676139 2.965e-20)
(1.05567 0.650939 7.03705e-20)
(1.06514 0.0281093 6.11745e-21)
(1.02378 0.00607904 -2.82567e-22)
(1.13187 0.0261112 0)
(0.86298 0.10996 -3.21479e-20)
(1.07636 0.00912599 -1.20338e-20)
(0.736939 -0.0053929 -3.26334e-20)
(0.887876 -0.0269432 0)
(0.996891 0.141612 3.41706e-21)
(0.614826 -0.00220101 -1.69715e-20)
(1.04575 0.0382811 0)
(1.0837 -0.00249566 7.66682e-21)
(0.428735 -0.00691631 1.91693e-20)
(0.934426 0.0993284 1.93549e-20)
(0.56141 0.014918 0)
(1.16639 0.175893 1.04277e-20)
(1.15819 0.291073 2.79795e-20)
(1.04386 0.0280843 -7.71651e-21)
(1.13636 0.0236173 1.16906e-20)
(0.579706 0.0133268 5.89511e-21)
(1.08638 0.0376376 0)
(1.07711 0.0270213 0)
(1.09068 0.0393299 3.07798e-20)
(1.04463 0.0277654 9.79619e-21)
(0.993337 0.000268329 0)
(1.10914 -0.00220252 2.13372e-20)
(1.03888 0.0149089 -4.26118e-21)
(0.668869 -0.0103321 -3.40498e-20)
(1.02947 0.0160294 2.85566e-23)
(0.930643 0.0128493 -1.26569e-20)
(1.00177 0.0503274 0)
(0.725516 -0.00502254 0)
(0.998951 0.00245885 4.23692e-23)
(0.989855 0.237798 0)
(1.04983 0.0582911 1.03388e-21)
(1.00967 0.0436706 -2.96384e-21)
(1.04733 0.0209815 0)
(1.03849 0.00631819 -6.39388e-22)
(0.286622 0.00476804 -2.41591e-20)
(0.375205 -0.00161378 1.65682e-20)
(1.01096 0.00671123 1.4532e-21)
(0.81147 0.274943 0)
(0.950505 0.018475 0)
(0.58504 0.0147566 4.1331e-22)
(1.08566 0.00758632 0)
(1.00921 0.000243173 1.19516e-21)
(1.0783 0.0236281 -1.23563e-20)
(1.09875 0.0117204 -1.89443e-20)
(1.12696 0.128457 4.38015e-20)
(0.627352 0.00592988 4.31184e-21)
(0.979674 0.0162334 0)
(0.211257 -0.0180777 0)
(0.501718 0.000999179 -1.71096e-20)
(0.707871 -0.00388271 0)
(1.06309 -0.0269858 6.25922e-23)
(0.31551 -0.00896134 -4.88997e-20)
(0.95024 0.0389365 6.40233e-21)
(1.05466 0.00614579 9.23879e-21)
(1.05577 0.00155249 0)
(0.831459 0.280223 0)
(1.08772 0.00191776 2.18849e-20)
(1.00987 0.0259247 -1.88527e-21)
(0.880784 0.187239 0)
(0.353576 0.00260361 3.74128e-21)
(1.10989 0.090618 1.32311e-20)
(1.01778 0.0136846 4.05829e-22)
(0.991419 0.0022487 1.72461e-21)
(0.68408 0.00150984 1.35354e-20)
(0.999305 0.00368803 1.7429e-22)
(1.01079 0.00655141 4.85118e-22)
(1.01505 0.0008106 0)
(1.01342 0.0166351 -4.26818e-23)
(0.201028 0.00456279 -1.44261e-20)
(0.687176 -0.0185892 -1.5459e-20)
(1.08514 0.0383181 -1.38031e-20)
(0.0148496 -0.0299319 -2.21106e-20)
(1.07095 -0.00450716 -8.76061e-21)
(0.988782 0.499777 2.5473e-20)
(0.9584 0.0574918 1.16323e-22)
(0.225462 -0.00712183 -8.06186e-21)
(0.998724 0.0011505 -9.40592e-23)
(1.05987 0.00866419 5.09926e-23)
(0.804072 -0.00290792 4.21101e-21)
(1.00033 0.0507168 9.62424e-22)
(0.998862 0.0064774 0)
(0.23777 -0.00449058 0)
(0.533536 -0.0264377 -6.32207e-20)
(0.997361 0.00236044 -4.0007e-21)
(1.06402 0.0283617 5.62445e-21)
(1.07636 -0.002736 0)
(1.05204 0.0164393 0)
(0.958392 0.00231245 1.16073e-20)
(0.993369 0.00764508 0)
(1.00001 0.000263268 3.20739e-21)
(1.01631 0.00329114 -1.08079e-22)
(0.922149 0.0873848 2.84214e-20)
(1.12568 0.02622 0)
(0.931922 0.047592 2.10695e-20)
(1.00488 0.00636372 -2.01987e-21)
(0.975434 0.00280496 -7.09864e-21)
(1.11544 0.293701 6.90182e-20)
(1.00838 0.0317126 -2.29977e-21)
(1.01838 0.0579506 -3.48305e-22)
(0.991531 0.00190634 -1.7775e-21)
(1.0924 0.00576217 0)
(0.984447 0.0472418 2.87664e-21)
(1.05159 0.0158795 0)
(0.999997 0.0060116 0)
(1.01908 0.0132674 7.63694e-23)
(1.00002 0.000330418 0)
(0.308465 0.00370963 7.6239e-21)
(0.716716 -0.00318722 -2.25098e-20)
(1.012 -0.0328612 1.42246e-20)
(0.536881 -0.00503083 0)
(0.598318 0.00322931 -9.3544e-21)
(1.04891 0.149058 -7.89198e-21)
(0.996355 0.000675389 -4.65603e-21)
(0.196583 -0.0139485 1.5763e-20)
(0.984602 -0.00175801 -3.16929e-21)
(0.933467 0.0453359 1.59135e-20)
(1.10517 0.0731916 -2.38294e-20)
(1.00723 0.113792 -1.47119e-21)
(1.07137 0.073541 0)
(0.984372 0.0872975 1.63914e-20)
(1.03719 0.589655 1.12202e-19)
(1.00581 0.0882151 -1.84011e-21)
(0.985274 0.0370964 -9.36258e-21)
(1.00047 0.0101036 0)
(0.996802 -0.00252917 -6.32338e-21)
(1.18158 0.0657479 0)
(1.04659 0.0165161 5.1017e-21)
(1.04692 0.0340654 1.63464e-22)
(1.04724 0.0162834 -5.0613e-21)
(0.95272 0.0149691 9.57027e-21)
(1.07312 0.0793147 7.7025e-21)
(0.990979 -0.0330332 0)
(1.01935 0.0159878 3.5504e-23)
(1.08898 0.00837021 0)
(1.02952 0.026772 1.83246e-21)
(1.09199 0.00510088 8.29595e-21)
(0.99335 0.233319 0)
(0.966089 -0.014379 1.16244e-20)
(1.0229 0.00598996 0)
(0.997525 0.00228527 3.71722e-21)
(1.04079 0.269303 1.46207e-21)
(1.00467 0.00632648 2.14422e-21)
(1.10843 0.257524 0)
(0.61329 -0.00264633 0)
(0.999678 0.00181472 -9.79179e-21)
(1.02893 0.0161524 0)
(0.980231 0.0144407 0)
(0.948036 -0.00437134 -1.45508e-20)
(0.832849 -0.00324171 7.12753e-21)
(0.275258 -0.0110081 1.37875e-20)
(1.0164 0.0720137 3.6765e-22)
(1.10744 0.00960371 0)
(1.02263 0.00607814 -1.02699e-22)
(0.570353 -0.000346288 0)
(0.585805 -0.0014933 0)
(1.00001 0.000192307 -5.6954e-21)
(0.905132 0.818575 4.58931e-20)
(1.00566 0.077763 3.14832e-21)
(0.985258 0.046347 5.23386e-21)
(0.996029 -0.00156288 9.26936e-21)
(1.03771 0.0468318 1.99243e-22)
(0.99585 -0.00179378 -7.52933e-21)
(1.09899 0.00884689 0)
(0.999732 0.00174083 1.11834e-20)
(0.999932 7.3591e-06 -1.11198e-20)
(0.0892333 -0.0309782 2.03681e-20)
(1.10288 0.0387812 2.5174e-20)
(0.993591 0.00725234 0)
(1.09421 0.00722571 -1.79181e-20)
(1.00007 0.00585343 0)
(0.417885 0.00870328 -3.79659e-22)
(1.04498 0.00932863 0)
(1.02523 0.0146919 -1.04962e-22)
(1.0074 0.0263949 -2.16868e-21)
(1.0165 0.0141338 0)
(1.0089 0.159612 1.50647e-20)
(1.00022 0.0101543 0)
(1.0191 0.0137653 -1.29261e-22)
(1.08447 0.0539953 1.94552e-21)
(1.04281 0.0428018 4.35082e-21)
(0.898663 -0.00271795 3.62499e-21)
(1.09211 0.0397511 -9.37994e-21)
(1.02238 0.00577835 -1.64454e-21)
(-0.00312383 0.0446151 0)
(1.08692 0.015474 0)
(1.06469 0.000533048 -3.93669e-21)
(0.999796 0.00177784 0)
(1.03814 0.0262207 -4.56134e-21)
(0.998844 0.00134531 -1.18308e-20)
(0.999012 0.00165202 2.98932e-21)
(1.04564 0.0619962 7.11996e-21)
(0.995283 0.0124656 0)
(1.00965 0.0535987 -1.85278e-22)
(1.08727 0.00138958 -2.9191e-20)
(1.0082 0.112155 0)
(1.12108 0.128396 -5.8367e-22)
(0.981134 -0.0180061 2.01802e-20)
(0.950693 0.0523847 2.3218e-20)
(1.1045 0.0780237 1.46078e-20)
(1.10517 0.0616137 3.98113e-20)
(0.580202 -0.0302683 1.62196e-20)
(1.0099 0.000706097 3.02597e-22)
(0.658816 -0.00963142 -3.9698e-21)
(1.04766 0.278954 0)
(0.979404 0.0150892 3.93329e-21)
(0.704603 -0.01745 0)
(1.03987 0.0137678 -2.62599e-21)
(1.00684 0.0260094 4.12308e-21)
(0.151754 -0.0150434 -4.51844e-20)
(0.978223 0.0187609 -9.88949e-21)
(0.988886 0.0157542 -1.49103e-21)
(0.607876 0.0141046 0)
(1.06421 -0.000141962 1.14989e-22)
(1.04591 0.023691 0)
(1.03981 0.0238179 -4.90047e-21)
(1.0195 0.0131343 -3.70563e-23)
(0.878568 0.0605778 0)
(1.00464 0.0173456 0)
(1.03308 0.0214207 3.14476e-21)
(0.461266 0.00483357 5.52887e-23)
(0.448241 0.0148631 -6.41221e-21)
(0.985979 0.033112 -8.17838e-21)
(0.982257 0.0328295 -4.95483e-21)
(0.634883 0.000178114 0)
(1.03896 0.0468728 -1.08618e-21)
(1.03028 0.0272532 2.17431e-21)
(1.04607 0.0201129 0)
(1.10331 0.60804 -1.07344e-19)
(1.02872 0.0355074 -1.47915e-21)
(1.0009 0.0104518 -4.08769e-21)
(0.767996 0.80282 -2.01873e-20)
(0.372033 -0.00205388 -6.08821e-21)
(1.0201 0.0111293 2.85941e-22)
(1.10385 0.0372214 -2.73915e-20)
(0.989498 0.0155036 2.40534e-21)
(1.03956 0.0232267 5.22575e-21)
(1.15638 0.0727151 -1.70623e-20)
(0.683378 -0.0110401 3.9171e-21)
(1.05709 -0.0288042 -5.04015e-22)
(1.01642 0.000300616 1.76841e-22)
(1.00944 0.0264084 -2.20729e-21)
(1.16202 0.0514101 0)
(1.02836 0.036234 2.6666e-21)
(1.09396 0.00851399 1.12487e-20)
(1.03891 0.0260034 5.18489e-21)
(1.003 0.0117542 0)
(0.981236 0.0149072 0)
(0.23096 -0.0166847 0)
(0.977405 0.00520454 -7.5771e-21)
(1.08771 0.0124317 0)
(1.01411 0.000842502 8.12865e-22)
(0.918057 0.500873 0)
(0.852477 -0.0286367 1.12368e-20)
(1.12075 0.198089 -3.02277e-20)
(1.09752 0.00733092 8.90292e-21)
(0.994841 0.0117198 -3.05322e-21)
(1.09991 0.588669 9.73273e-20)
(1.03678 0.0167522 1.6097e-22)
(0.566927 0.00123165 2.12713e-20)
(0.597934 0.0148357 0)
(1.02519 0.00735543 3.39668e-23)
(1.00002 0.000235722 0)
(0.919089 -0.00289428 3.06498e-21)
(1.08242 0.0142385 7.90338e-21)
(0.996107 0.0942132 0)
(1.04197 0.0562785 -2.57477e-21)
(1.00893 0.010409 1.90284e-21)
(0.745824 -0.0283121 1.07941e-20)
(0.990578 0.0125916 1.35814e-20)
(1.00736 0.00234012 7.25819e-21)
(0.974388 0.00293248 1.53043e-20)
(1.04768 0.021743 0)
(1.02481 0.0146947 -3.714e-22)
(1.08809 0.25252 2.87762e-21)
(0.99415 0.00416372 -5.80171e-21)
(1.07068 -0.00271465 8.26525e-21)
(0.364719 0.00489439 1.83648e-20)
(0.767274 -0.0266656 -2.12532e-20)
(0.997905 0.0115275 0)
(1.08331 0.0528313 1.98942e-21)
(0.997878 0.0111209 -4.58159e-21)
(1.04529 0.00890848 2.32555e-23)
(1.09236 0.266276 -8.99826e-21)
(1.08797 0.012836 0)
(0.094784 -0.0140579 1.49725e-20)
(1.02208 0.0058111 1.49059e-21)
(0.908184 0.234977 -9.70751e-20)
(0.141826 -0.0150195 1.38367e-20)
(1.00554 0.0139159 0)
(1.09701 0.00896597 0)
(0.9988 0.00619848 4.92756e-21)
(0.826237 0.850634 0)
(1.09755 0.00705686 0)
(1.03733 0.0275356 3.4276e-21)
(0.729652 -0.0281062 2.25501e-20)
(0.995974 -0.00207032 -3.64997e-21)
(0.798206 0.280824 0)
(0.640525 0.00604694 -9.03555e-21)
(1.0863 0.0530552 2.24597e-21)
(1.0077 0.00662437 -3.30985e-22)
(0.998912 0.000406215 -3.42804e-21)
(0.978875 0.0169013 8.07924e-21)
(0.933064 0.0393997 4.38133e-21)
(1.01674 0.000333538 9.52504e-23)
(1.05148 0.0254637 -3.06942e-21)
(1.01604 0.0330416 0)
(1.02805 0.00898454 -1.3536e-21)
(0.468682 0.0115849 1.29848e-20)
(1.0114 0.01695 0)
(1.07139 -0.00345994 -8.45645e-21)
(1.00001 0.000181778 -1.80619e-22)
(1.00574 0.0137795 0)
(0.438496 0.0109792 -2.52361e-20)
(0.345573 -0.0121336 1.19155e-20)
(0.997762 0.00515723 0)
(1.01098 0.016777 -2.1303e-21)
(0.701736 -0.02773 0)
(1.0042 0.0130088 -3.34097e-21)
(1.04386 0.0292903 -6.98996e-21)
(1.00904 0.0101704 2.42285e-21)
(1.03721 0.00781958 -3.35019e-21)
(1.18163 0.385763 7.12767e-20)
(0.843404 -0.00203444 -3.81926e-21)
(1.00055 0.0176918 2.50716e-21)
(1.01014 0.00571705 1.75172e-21)
(1.08176 0.014175 8.91785e-21)
(1.01941 0.00759203 -4.98511e-22)
(1.03804 0.0072958 -3.99346e-21)
(1.08891 0.00693708 -1.69799e-20)
(0.991196 0.00109733 0)
(0.999013 -0.00130682 0)
(1.01955 0.00787657 3.04608e-22)
(0.991099 0.00148831 1.89645e-21)
(1.04515 0.0104597 0)
(0.999663 0.00937802 3.12759e-21)
(1.12862 0.0247793 -1.26177e-20)
(1.03812 0.0273249 -4.8106e-21)
(0.993564 0.00989308 0)
(0.877079 0.179941 1.01627e-21)
(0.972361 0.0360755 0)
(0.472981 0.0121053 1.38522e-20)
(1.09948 0.00851548 -2.04647e-20)
(0.998696 0.0486971 -3.00341e-21)
(0.999202 0.00382619 -1.53952e-21)
(1.04301 0.0296418 1.01364e-20)
(1.06366 0.151966 0)
(1.00242 0.00893002 -2.94822e-21)
(1.06538 0.0756129 -8.1293e-21)
(1.01653 0.00343517 0)
(0.999961 -1.6545e-06 5.66587e-21)
(0.624127 0.00728944 2.67435e-21)
(0.709695 -0.0128928 2.00314e-21)
(1.0019 0.0264885 -2.01256e-21)
(0.999056 0.00224498 0)
(1.03022 0.034589 -1.69122e-21)
(1.01 0.00672694 -2.67913e-21)
(1.0454 0.0100355 0)
(0.447484 0.00951962 2.83614e-20)
(0.706827 0.00086102 -7.77367e-21)
(1.09164 0.00798618 -2.97499e-20)
(0.945901 0.0738917 1.89521e-20)
(1.13187 0.0748101 1.81529e-22)
(1.03014 0.0246408 -2.10519e-21)
(1.07898 0.0195437 7.40751e-21)
(1.03756 0.0649921 0)
(1.09436 0.0293726 2.42208e-21)
(0.848071 0.0836873 0)
(0.588979 0.00373927 2.18396e-20)
(1.00066 0.0104765 8.93924e-21)
(0.998781 0.00479067 -5.94579e-21)
(0.483549 0.0109973 0)
(1.00211 0.0115 2.97045e-21)
(1.01876 0.00929412 0)
(0.268191 -0.0205381 -1.78586e-20)
(1.02769 0.00886893 -2.38982e-21)
(0.493739 0.00822236 1.53515e-21)
(1.00821 0.0536307 1.95338e-21)
(1.00004 0.00043511 -7.97439e-22)
(1.01912 0.00924294 0)
(0.995789 -0.00232458 -2.40225e-21)
(1.10241 0.270298 0)
(0.666782 -0.00291107 8.06866e-20)
(1.07932 0.0271085 6.96402e-21)
(1.01021 0.0169513 -2.88745e-21)
(0.972995 0.0343708 1.88024e-20)
(0.99975 0.00597702 3.10579e-21)
(1.07426 0.0607284 7.47347e-21)
(0.199357 -0.00974699 0)
(0.948773 0.0177457 2.71742e-20)
(1.17018 0.0620059 0)
(0.999068 0.000116973 -1.55506e-21)
(0.995188 0.0144876 4.25262e-21)
(1.03724 0.00677389 0)
(1.00779 0.0311026 2.94612e-21)
(1.0098 0.00571297 0)
(1.01372 0.1379 9.55916e-22)
(0.978275 0.00468557 0)
(1.09972 0.00846488 2.63405e-20)
(1.08201 -0.00272544 2.23087e-20)
(1.08813 0.0294464 0)
(0.967335 -0.00416546 2.59665e-20)
(1.02157 0.00550127 6.22341e-22)
(1.00001 0.000293371 1.1562e-21)
(1.09161 0.048084 0)
(0.994397 0.00393217 1.03571e-20)
(0.428388 0.007213 -1.25337e-20)
(0.881686 0.0558051 -1.71378e-20)
(1.04035 0.0134577 7.83303e-22)
(1.05891 0.149548 0)
(1.08813 0.0302583 0)
(0.187023 -0.00336519 0)
(1.01229 0.0077492 0)
(0.205084 -0.0156832 0)
(0.998415 0.00120293 -6.39495e-21)
(0.314743 0.00161061 -1.60198e-20)
(0.951834 0.0410003 0)
(0.883879 -0.00613046 2.45681e-20)
(1.01556 0.1344 -1.58795e-22)
(0.919547 -0.0274865 1.93845e-20)
(1.04712 0.0607996 6.52716e-21)
(0.999983 0.000243972 4.49465e-21)
(1.06383 0.0295426 0)
(1.04445 0.0649836 -3.31391e-21)
(0.990896 0.00033634 4.00112e-21)
(0.662861 0.00327245 1.90272e-20)
(0.602794 -0.0196263 0)
(1.05658 0.0138435 0)
(1.03342 0.0410972 0)
(1.00961 0.00543563 0)
(1.09065 0.0085059 -1.5143e-20)
(0.97679 0.0171102 -8.93685e-21)
(1.01149 0.00749248 -1.92763e-21)
(0.934238 0.488257 1.82621e-21)
(0.96853 0.0320193 -1.69728e-20)
(1.09129 0.00806004 2.73135e-20)
(0.909139 -0.0241939 -5.52802e-21)
(1.012 0.00777237 0)
(1.09914 0.0114989 1.76235e-20)
(0.999034 0.000401137 0)
(0.997229 0.00330686 1.31248e-20)
(1.13069 0.0014087 -2.56727e-20)
(1.09213 0.0494515 0)
(1.00002 0.000210133 3.10116e-21)
(1.15678 0.154193 8.68066e-21)
(0.998693 0.00148485 -5.96334e-21)
(1.07818 0.0194678 0)
(1.16814 0.0624752 -1.5423e-20)
(0.184444 -0.0188501 2.27195e-20)
(0.601467 0.0147577 0)
(0.455438 0.0105912 0)
(0.632316 -0.00355892 1.97329e-20)
(1.06135 -0.00181991 -4.80268e-21)
(1.15028 0.155323 0)
(0.997081 -0.00241485 -3.66514e-21)
(1.06271 0.0297536 1.50594e-21)
(1.12265 0.557415 -3.45249e-20)
(0.338838 0.00935377 0)
(1.00707 0.0796135 -1.51092e-21)
(1.07876 0.0265583 3.76932e-21)
(0.626197 0.00792989 -8.47415e-21)
(0.699771 -0.00341056 4.85164e-22)
(0.963028 0.103227 -3.06288e-20)
(1.20362 0.11126 2.92116e-20)
(0.770687 -0.0269654 1.53772e-20)
(1.00167 0.025992 4.26486e-21)
(0.99375 0.00935524 0)
(1.00532 0.227852 1.12948e-21)
(1.0015 0.0115204 -3.10372e-21)
(0.32698 0.00354303 9.62534e-21)
(1.06777 0.0758262 -9.39113e-21)
(1.03379 0.0240271 -4.03494e-22)
(0.956308 0.439515 2.32315e-21)
(1.06127 -0.000351289 -9.3873e-21)
(1.038 0.00639708 7.62193e-22)
(0.999099 0.0497301 7.96509e-21)
(1.01176 0.00746368 -1.00751e-21)
(0.999974 0.000223599 -9.16347e-21)
(1.00447 0.013702 -3.41351e-21)
(1.09509 -0.0131989 0)
(1.01738 0.0703371 -4.82036e-22)
(1.00511 0.00134898 -1.50016e-21)
(0.455577 0.00451164 -1.36309e-20)
(0.999876 0.00610157 -5.15281e-22)
(1.01549 0.17189 -7.85941e-22)
(1.08532 0.0400427 1.53956e-20)
(0.935984 -0.00450042 1.1398e-20)
(1.03383 0.0216068 8.25497e-22)
(0.873748 -0.00605723 -2.85704e-20)
(1.03609 0.016872 1.19619e-22)
(1.01583 0.000481483 1.71169e-22)
(1.03233 0.0410185 0)
(0.757101 -0.0121769 -1.81151e-21)
(1.07322 0.0595286 1.22702e-20)
(1.00491 0.00129871 -1.43394e-21)
(0.997178 0.00306522 3.71376e-23)
(1.00002 0.000367194 -4.29366e-21)
(1.08144 0.0407364 -8.31877e-22)
(0.993444 -0.000739626 7.6886e-21)
(0.626554 0.0147821 3.35018e-20)
(1.09275 0.246453 -1.16968e-20)
(0.729499 -0.00289098 0)
(0.030587 -0.0116734 0)
(1.03671 0.00750059 5.07358e-21)
(1.12256 0.0738159 0)
(1.10424 0.00698357 -1.51251e-20)
(1.00076 0.0070054 -2.96795e-21)
(1.04019 0.0219316 -5.17685e-21)
(0.997497 0.0105023 0)
(0.983603 0.0209791 0)
(0.713003 0.0212319 -7.10611e-20)
(0.998788 0.00174665 0)
(1.01393 0.00753752 0)
(1.03571 0.0481237 2.68287e-21)
(1.01423 0.230729 3.71538e-21)
(1.02771 0.0296119 -1.55402e-21)
(0.502811 0.00693496 0)
(0.926579 -0.00309348 1.97133e-20)
(0.999341 0.111209 -8.13973e-22)
(0.945118 0.0706529 0)
(1.0072 0.0105405 4.84322e-22)
(1.0014 0.00500462 4.94368e-21)
(1.22662 0.162003 0)
(1.00001 0.000152962 -3.20156e-21)
(0.966531 0.0290324 -3.63679e-21)
(1.03826 0.00541875 3.44603e-21)
(0.993397 -0.000885946 0)
(1.01925 0.00811181 7.80854e-23)
(0.995551 0.00163598 1.23125e-20)
(0.897246 0.0446602 0)
(0.756269 -0.0207483 4.08815e-20)
(0.976379 0.0035282 6.66664e-21)
(1.00826 0.0440172 3.01452e-21)
(1.16193 0.181946 0)
(1.09907 -0.00230344 -1.0876e-20)
(1.02188 0.00549814 -7.1184e-22)
(1.01445 0.0139561 0)
(1.01608 0.000404545 2.26889e-22)
(1.04676 0.0589452 0)
(0.737998 -0.0028922 -4.51461e-21)
(1.09626 0.00738317 -3.37281e-20)
(1.10303 0.115828 2.11856e-20)
(0.177007 -0.0114365 -1.23486e-22)
(1.00426 0.0256878 0)
(1.0049 0.176704 0)
(0.98537 -0.00393311 0)
(1.05822 0.0137298 0)
(0.928042 0.0153753 1.43858e-20)
(1.23247 0.157918 0)
(0.949676 -0.0137113 0)
(1.00553 0.0258867 0)
(0.615311 0.011748 3.58939e-20)
(1.0254 0.0130687 0)
(0.951314 0.0137802 -9.54889e-21)
(0.919308 0.0814991 -2.85371e-20)
(0.995554 0.014135 0)
(1.0061 0.0062537 2.04961e-21)
(1.01111 0.177945 0)
(1.07711 0.0183394 0)
(1.0067 0.0131101 0)
(1.08454 0.0270432 7.30623e-21)
(0.693544 -0.00489219 0)
(1.15874 0.0734082 -3.44793e-23)
(1.09646 0.00913502 1.02596e-20)
(1.10175 0.0700929 -1.38906e-20)
(0.997372 0.00283911 0)
(0.995828 0.0219612 -5.16129e-21)
(1.0194 0.0116531 -8.21351e-23)
(1.00163 0.00142657 3.46464e-21)
(0.688716 -0.0152032 -8.62903e-21)
(0.591098 0.0159057 0)
(1.10277 0.074223 2.01049e-20)
(0.966733 0.06175 6.08545e-21)
(0.985506 -0.00256684 -8.54867e-21)
(1.09068 -0.0199262 -2.54031e-22)
(1.00076 0.000947255 0)
(0.0313034 -0.013722 -6.59432e-20)
(0.995413 0.00177432 -1.43806e-20)
(1.00754 0.0106729 1.5654e-21)
(1.09846 0.00718557 0)
(1.01423 0.0091075 7.30202e-22)
(1.05684 0.00768719 0)
(1.14983 0.142532 0)
(1.02565 0.0167645 9.10022e-22)
(0.999984 0.000462334 -4.14625e-21)
(1.0005 0.016709 0)
(1.0481 0.0188017 -8.68753e-21)
(1.08861 0.00666576 -6.94631e-21)
(0.800153 0.000335563 0)
(0.692883 -0.00637856 -2.26199e-20)
(1.01987 0.0124991 0)
(1.03701 0.0482081 0)
(0.998842 0.00448253 0)
(1.01926 0.00253003 -6.47358e-21)
(1.11559 0.231255 8.68055e-22)
(1.0256 0.00738841 -2.54708e-21)
(1.04434 0.012663 7.48168e-21)
(0.98197 0.0142675 -3.65664e-21)
(0.931466 0.0420217 -4.66707e-21)
(1.081 -0.00425744 -7.50041e-21)
(1.02761 0.00846661 -3.95554e-21)
(0.220321 -0.00474097 0)
(1.08653 0.0160238 0)
(1.00002 0.000257895 5.10051e-21)
(0.58152 0.0153099 3.00761e-21)
(1.08549 0.0104507 6.17334e-21)
(0.99128 0.0108551 9.02161e-21)
(0.67247 -0.00468603 -8.05644e-21)
(1.00079 0.000890188 3.71811e-21)
(1.01942 0.00839464 -3.35366e-22)
(0.148889 -0.0301445 1.94431e-20)
(1.17659 0.0615429 1.41204e-20)
(1.04676 0.0178662 2.00164e-21)
(1.1102 0.00970814 0)
(1.01488 0.0139274 -1.04615e-21)
(1.10194 0.00928173 -3.46468e-21)
(0.999752 0.00185553 -2.05549e-21)
(1.00778 0.0011681 3.42127e-21)
(1.03786 0.00775354 1.90457e-21)
(1.01431 0.00084678 2.38928e-22)
(1.0066 0.0755889 -2.58428e-21)
(1.00564 0.00675969 -2.02891e-21)
(1.04595 0.0639184 -7.40323e-21)
(1.02785 0.00823001 1.27561e-21)
(1.17376 0.0609626 2.21559e-20)
(1.08564 0.00890065 1.45914e-20)
(1.09512 0.0281399 0)
(0.997291 0.00629326 6.57994e-22)
(0.971472 -0.0191954 -2.14708e-20)
(1.09837 0.115762 -6.94927e-22)
(1.08459 0.00728245 1.86554e-20)
(0.998557 0.00127937 6.25319e-21)
(0.984652 0.0334526 8.66901e-21)
(1.17669 0.356158 0)
(1.00467 0.0178656 -5.33678e-22)
(1.01357 0.0140072 -1.48986e-21)
(1.07258 0.075664 0)
(1.09085 -0.00179589 1.21567e-20)
(1.01956 0.00710971 0)
(0.921223 0.0227997 0)
(0.997489 0.00636275 -6.67906e-22)
(1.07066 0.0122823 -2.3033e-21)
(0.434418 -0.00297158 1.00438e-20)
(0.996185 -0.0005553 -4.66537e-21)
(1.01386 0.00949413 1.57645e-21)
(1.01669 0.0102881 0)
(1.10384 0.069884 0)
(1.00369 0.00574578 -5.72218e-22)
(0.999921 0.000574934 5.35442e-21)
(0.999912 0.000643203 -5.06818e-21)
(1.10741 0.0404463 -7.28742e-21)
(1.00221 0.0126075 3.32544e-21)
(1.01313 0.0177908 1.95813e-21)
(1.00542 0.00671428 2.1486e-21)
(1.06445 -0.0016857 -1.44655e-20)
(1.03706 0.00840557 -1.84184e-21)
(0.98399 -0.00206098 -3.32515e-21)
(1.10182 0.00954243 9.01574e-21)
(0.988093 0.0145923 2.90522e-21)
(0.0624931 -0.0100648 1.69187e-20)
(1.02693 0.0443919 1.74021e-21)
(0.994643 0.00476832 6.11737e-21)
(0.291863 0.004207 1.42516e-20)
(1.01694 0.00654464 0)