/*--------------------------------*- C++ -*----------------------------------*\
| =========                 |                                                 |
| \\      /  F ield         | OpenFOAM: The Open Source CFD Toolbox           |
|  \\    /   O peration     | Version:  v2012                                 |
|   \\  /    A nd           | Website:  www.openfoam.com                      |
|    \\/     M anipulation  |                                                 |
\*---------------------------------------------------------------------------*/
FoamFile
{
    version     2.0;
    format      ascii;
    class       volScalarField;
    location    "400";
    object      ddt0(k);
}
// * * * * * * * * * * * * * * * * * * * * * * * * * * * * * * * * * * * * * //

dimensions      [0 2 -3 0 0 0 0];


internalField   nonuniform List<scalar> 
18232
(
2.90112e-07
-0.000180105
0.0129042
-4.02666e-06
-4.01346e-07
-0.0145109
0.000615305
2.4975e-08
2.10968e-06
0.000863068
-6.51193e-07
2.13503e-07
0.00140996
-0.00100633
9.19445e-06
-0.000127355
2.83704e-06
3.24129e-05
4.06345e-08
-0.00730085
0.0124214
0.000172386
0.000540988
-3.53321e-07
2.77692e-07
-6.40357e-07
1.57486e-06
0.0024122
-3.47814e-08
-8.91266e-05
-6.84939e-07
-0.00724131
-1.78847e-05
1.51251e-07
-4.55953e-06
2.37008e-08
0.0108287
-4.88296e-05
0.00144959
4.83352e-08
4.07352e-05
-5.80091e-08
0.0127621
-4.44532e-07
6.01216e-05
4.48248e-07
0.00887857
-2.5727e-05
1.20741e-05
-0.00269113
2.21078e-06
8.09324e-06
-3.38935e-08
-3.27624e-05
2.10731e-07
1.36011e-06
-6.11858e-05
0.0107049
1.00048e-07
9.80827e-06
-1.60153e-05
0.00122714
-0.00220349
0.000508663
4.48327e-07
-1.57224e-06
0.00129449
2.42379e-07
2.75946e-06
-1.01507e-07
4.22976e-08
-5.70781e-08
0.00277164
-9.52656e-08
-1.44834e-05
-4.48492e-08
1.17358e-06
0.015358
0.00508626
6.15781e-05
-2.1415e-05
7.33188e-07
-8.35915e-06
-1.1091e-05
-5.95467e-08
0.000284005
-6.64127e-07
4.61483e-08
-0.00298485
0.0275272
-3.29727e-07
3.3177e-08
-1.50231e-05
0.0166794
1.67238e-06
-1.38857e-06
-6.38704e-07
4.8167e-08
-6.84628e-07
-7.53359e-08
-0.0132872
0.000676247
-8.72819e-08
-3.01807e-08
2.65862e-08
0.00284464
1.01225e-07
-0.00207515
-0.000156045
-0.000373545
-0.000619491
5.09618e-07
-1.47322e-05
-0.000236955
-3.49242e-08
6.83243e-07
-4.94169e-07
0.00280937
-0.00105669
-1.58696e-06
-6.4841e-08
0.0017436
-1.58421e-08
0.00103346
-1.45265e-08
1.64765e-08
-1.66225e-06
0.0318123
-1.64856e-05
-1.32434e-05
-3.62433e-06
-1.35904e-05
9.75941e-08
1.46401e-09
-3.54665e-08
-2.68521e-08
2.78013e-07
-4.01807e-06
0.00553758
-0.0189515
-3.31497e-08
0.0265006
-0.000516566
-2.01928e-05
-4.24368e-07
3.13131e-07
-1.92644e-06
-2.59138e-05
-6.836e-07
-8.31783e-07
-1.66936e-05
7.85521e-08
-0.0156974
-1.61396e-06
0.0167512
-1.71382e-05
-0.000503261
-3.90988e-06
-3.02391e-06
0.0203816
-7.93601e-08
0.00141343
0.0174835
0.000411599
-0.000751482
-6.37948e-09
-1.57028e-05
-9.60774e-05
-4.2582e-08
-1.75115e-05
-2.37498e-07
-0.003878
-1.28906e-05
-7.48207e-08
9.25838e-08
-3.87228e-08
0.00170439
6.91783e-07
-1.38342e-09
-4.00289e-08
2.00167e-07
-0.00111755
-1.02705e-06
0.00296941
-4.47239e-09
-5.02582e-09
-1.02193e-08
0.00871733
1.97713e-05
-1.3784e-05
-2.96478e-09
0.00309311
3.20929e-07
1.53386e-07
-1.14514e-07
5.89846e-07
-1.61379e-05
4.65587e-08
-3.60397e-07
-1.07349e-08
1.46947e-06
3.11938e-07
2.60658e-08
9.96427e-08
6.61429e-07
-3.39957e-06
1.96147e-05
1.42533e-06
4.2985e-07
2.53158e-08
-1.29169e-08
-1.09625e-06
3.64949e-08
5.84372e-05
-6.67556e-08
-3.83378e-05
4.32259e-08
-3.49252e-08
0.00244156
-2.33225e-05
-2.82334e-06
3.33958e-05
0.00214549
-0.00586918
-4.36882e-06
2.88259e-07
-1.24113e-06
-1.55867e-07
4.96709e-06
-8.68829e-06
0.00131728
-9.14951e-09
9.16097e-08
-4.80956e-08
2.85348e-06
-8.01565e-09
8.32198e-07
-1.49946e-05
4.12407e-06
1.82723e-06
0.0267344
1.76251e-07
-3.81882e-07
2.86032e-05
0.013911
3.5557e-08
-1.83316e-06
3.36362e-06
-2.48172e-08
1.06827e-07
0.0267672
-3.22484e-06
0.0164446
-1.74745e-06
-2.1065e-05
0.000320858
7.9219e-07
-8.17907e-05
4.13412e-07
-2.1474e-08
0.0013269
5.59061e-08
-0.0400549
-4.64818e-08
-8.32014e-07
-2.15169e-05
-4.70075e-05
2.59721e-06
1.85259e-07
-0.0484278
5.86979e-08
-2.18389e-06
-1.20428e-05
-0.0031833
-5.71337e-05
-2.91168e-08
1.77914e-06
-6.42243e-07
3.47059e-07
-4.39771e-05
0.0181222
-0.000162773
0.00636818
4.79131e-08
0.000130956
-3.87471e-07
7.105e-08
-8.86565e-08
0.0174651
-1.8947e-05
0.0209341
-5.7735e-05
-2.19542e-08
-1.79986e-06
1.41284e-06
-9.0082e-08
3.98339e-07
-8.72293e-09
1.31551e-06
0.00291232
-1.40818e-06
9.73761e-06
0.0162999
-4.7053e-08
5.94552e-08
6.31777e-08
-2.72089e-07
4.71805e-06
-7.52016e-07
-5.78974e-08
-4.34622e-08
-4.28788e-06
-0.0035954
2.12166e-07
-1.29506e-06
-7.1217e-05
-1.65492e-07
-4.56412e-06
2.33925e-05
-7.95557e-08
-6.89009e-07
0.000543633
-1.7096e-05
3.45514e-10
-1.67767e-05
0.000678258
1.88396e-07
-8.90288e-07
-7.50893e-07
4.61844e-08
3.88003e-06
-1.33833e-05
-8.12762e-05
-1.20556e-07
-3.66312e-06
-1.52307e-05
-9.57396e-08
-2.00809e-07
-8.50923e-06
7.93489e-05
-1.17981e-05
-1.7469e-05
1.15785e-06
-1.11374e-05
1.38836e-05
3.75857e-06
-0.0296629
-3.07188e-07
2.03792e-07
4.56895e-08
-3.96257e-08
-3.42596e-06
-7.9143e-06
7.83032e-07
-2.47255e-10
4.15541e-08
-8.7966e-05
-3.15487e-08
1.26458e-06
-2.17917e-07
-9.86856e-07
-7.40867e-05
2.29264e-06
3.89804e-08
-7.50391e-07
2.78506e-08
-2.86015e-08
-1.92582e-07
-1.00434e-05
-4.11336e-07
1.98418e-08
1.63241e-06
-0.00855768
1.13603e-06
-5.00688e-06
-9.26515e-08
0.013127
-9.37316e-08
-3.33455e-07
0.0010238
-0.00597194
-1.65078e-08
4.26022e-07
-5.46106e-07
-2.16203e-08
-2.13507e-08
1.94151e-06
-3.91766e-05
1.21648e-06
-3.9805e-07
-1.63732e-05
0.00155373
1.88529e-09
-8.43507e-08
6.63351e-07
2.01696e-07
0.000213954
-3.38986e-07
0.000517137
-3.76139e-07
-2.44284e-05
-1.03882e-08
7.40694e-07
-3.1312e-07
3.9777e-05
3.03005e-06
1.41241e-06
-6.82417e-05
-1.03639e-05
9.85781e-06
0.0016153
1.20744e-06
0.000616685
-2.55434e-07
1.2677e-06
-7.95191e-08
7.07226e-08
0.000325508
1.13786e-08
2.26889e-07
-1.37161e-07
0.00354626
-0.00033979
3.10331e-05
-1.86633e-06
-4.18386e-05
-1.97984e-05
-6.43862e-08
-2.29218e-07
0.00777143
0.00180395
8.26869e-07
-2.14711e-07
-4.8655e-08
-1.46673e-08
1.96259e-08
-2.68973e-05
-1.90118e-06
-3.08553e-09
7.22353e-06
-1.33114e-06
-4.41092e-07
0.00263923
4.2564e-08
7.1149e-08
1.41034e-07
1.09845e-05
0.00774005
5.13004e-08
4.94826e-09
-0.000161386
-2.30597e-06
-1.9363e-05
-3.76022e-08
-2.60382e-08
-3.79035e-08
-5.39617e-07
0.00100831
5.16575e-06
-1.6405e-08
1.51537e-07
-4.64187e-08
-4.60574e-06
-6.35106e-08
-5.82468e-07
-2.42563e-05
5.47919e-08
0.00150962
-7.33814e-08
-6.17254e-08
0.0191873
7.72121e-07
0.0245037
-0.0145878
0.00570332
2.26203e-08
1.80101e-08
-6.35012e-08
0.000584116
-6.46748e-08
2.9308e-07
-5.87783e-08
-0.0068274
1.64777e-08
2.24483e-07
1.43846e-07
-2.06762e-05
-0.0161416
-1.1431e-05
5.41698e-07
1.98614e-06
0.00727476
-0.0336995
1.36443e-08
0.00237151
-2.23946e-07
-0.0122835
-9.58705e-08
2.25178e-06
-1.23139e-08
-0.000752662
2.73591e-09
1.49097e-07
-9.71058e-08
0.00222683
5.74538e-08
2.47927e-06
5.01641e-07
0.0144066
-1.42006e-06
4.48825e-06
8.29667e-08
-1.66525e-05
-1.00605e-07
0.0112956
9.74107e-07
9.2445e-08
-4.65543e-08
-3.86775e-08
7.66031e-09
-1.66414e-08
3.32227e-08
1.3818e-06
-1.35471e-07
-3.04419e-08
2.13075e-08
-7.69734e-06
-0.0151324
-1.68668e-07
1.24707e-05
7.63595e-08
0.0139177
0.00213366
3.69788e-08
1.23033e-05
1.08733e-06
0.00100903
1.56623e-07
0.00191154
-4.68171e-08
-1.47079e-07
0.00234841
4.03191e-06
1.90416e-06
0.000325045
2.34089e-06
-4.89711e-06
1.49278e-08
0.00430278
5.34527e-08
-1.30961e-05
8.15858e-07
1.3799e-06
-4.73392e-09
-1.71495e-05
1.12274e-05
-6.79172e-08
-1.56363e-08
2.97541e-09
2.80364e-06
-1.04733e-06
-2.83152e-07
-2.61538e-08
0.00205639
-9.461e-05
0.000698664
1.09724e-05
5.90141e-05
-9.54188e-05
0.000129247
1.71501e-07
-0.000649839
-1.32579e-07
-1.82765e-05
1.16034e-07
-4.96057e-08
6.26908e-08
7.75221e-08
3.40971e-07
-0.000198351
-2.1586e-06
1.5061e-08
3.78825e-05
0.00934385
0.0313745
2.5045e-07
-4.75635e-06
-2.09911e-07
-3.00743e-07
-2.91685e-08
2.79416e-06
-1.79146e-08
0.00311056
2.39743e-06
-6.5692e-08
0.0150833
-2.85535e-07
-8.80958e-06
0.000566793
-1.15171e-08
5.02162e-06
-0.00182088
1.04006e-05
-2.6555e-07
-5.28097e-06
-4.47282e-08
-1.24609e-08
-1.35318e-07
0.00733077
-3.04833e-07
0.0310759
-1.95581e-07
8.66179e-07
0.00234431
1.28081e-08
0.0060249
0.00641697
2.87107e-05
-4.97366e-07
-6.95923e-08
2.64532e-08
1.36206e-08
-3.46657e-05
-0.00381314
-5.81633e-06
-1.49842e-05
0.000479199
-4.44647e-06
1.97867e-05
-2.77752e-07
7.09967e-05
2.58321e-07
-6.64671e-08
-4.96179e-05
0.000390836
-2.65395e-06
-1.4334e-05
2.02901e-08
1.3193e-06
-3.93866e-05
0.000366106
9.9816e-05
1.23065e-08
-3.00745e-07
0.00044821
-5.26313e-06
-0.00326938
2.36821e-06
-8.92914e-06
7.98276e-08
-2.72753e-06
-1.73618e-08
-1.82932e-06
-1.56345e-05
-6.13679e-08
-9.2472e-08
-3.30793e-08
0.000167667
-3.84367e-08
1.46651e-06
1.2122e-05
6.99871e-06
1.04103e-07
-1.20297e-07
4.97578e-06
-2.72543e-05
1.69413e-05
7.03363e-08
-7.51611e-08
6.50027e-06
0.0113614
-5.23615e-07
2.16612e-06
8.26474e-05
4.66659e-08
-6.55671e-08
-1.33707e-07
3.30138e-06
1.12112e-07
5.15332e-08
4.17764e-06
1.48665e-08
-1.65116e-05
1.37843e-06
-2.05567e-06
4.41547e-07
0.0192998
-6.37367e-06
-2.29086e-07
-8.57616e-08
2.48575e-05
2.0146e-08
3.25864e-09
-0.0161867
7.67566e-07
-3.65474e-06
2.0818e-08
-3.74119e-08
0.00110156
-2.38703e-07
0.000882603
-5.94814e-07
-2.20152e-07
-1.06165e-05
-2.74424e-05
-1.65107e-06
6.87053e-07
-5.89245e-06
-7.06598e-08
1.06626e-06
-4.0883e-07
-6.32936e-06
-3.79018e-07
-1.01791e-07
0.019151
3.4052e-07
-2.10309e-06
-3.55061e-07
1.34488e-07
-0.00694384
5.47058e-06
0.0152743
-3.87057e-05
-3.0971e-05
-2.28038e-07
-6.01054e-07
1.58642e-07
2.53171e-06
-1.92348e-05
-3.10816e-09
9.50527e-07
-5.51465e-05
5.82593e-07
-1.9476e-07
0.00242731
2.44332e-07
-4.52237e-06
-1.27281e-06
0.000251657
4.68475e-08
-4.374e-06
0.0020698
-3.14995e-06
-0.000101331
0.00377557
-0.0212059
5.32171e-07
-7.81618e-07
1.65296e-05
0.0136762
1.5092e-06
1.43955e-06
-2.09609e-05
-7.49214e-08
0.0269863
0.0186144
-1.93127e-08
-1.54734e-05
-1.39887e-05
-8.01881e-05
5.9463e-08
-9.12103e-08
-1.05979e-05
0.0134469
2.21448e-08
3.40625e-06
-7.57387e-06
-1.56621e-06
-2.60211e-07
0.000347959
-8.63031e-06
-2.67797e-06
0.00104619
6.41281e-08
3.99427e-06
-7.02654e-08
-1.80891e-05
3.39521e-08
-3.07947e-05
8.77509e-09
-2.27558e-05
-8.16676e-07
-1.12717e-05
-9.31275e-07
-9.41743e-08
-0.00369939
5.00828e-07
0.000512354
-4.34438e-08
4.29436e-08
-2.30065e-05
-1.10558e-05
3.02496e-07
-4.76505e-06
1.52757e-06
-2.50262e-07
1.16915e-08
-1.33423e-05
-2.67933e-05
0.000589485
-1.25502e-05
2.2102e-06
-7.94901e-07
-4.38227e-08
-6.15728e-07
2.59734e-05
-5.77228e-07
4.67814e-07
-5.41315e-08
5.62803e-09
0.00929188
1.20111e-06
0.00302904
-0.0050115
-8.32677e-07
-1.78173e-06
9.43396e-07
0.029072
2.35911e-08
-1.14421e-07
-3.80426e-07
2.04908e-07
9.91557e-07
9.92819e-07
2.59057e-07
0.00252381
-7.84842e-08
3.94068e-06
4.20369e-06
7.04489e-08
7.72208e-09
-1.77939e-07
-4.11496e-08
3.74753e-06
5.25963e-08
4.6824e-06
-1.38321e-05
0.00530926
1.23608e-05
-1.79533e-07
0.000501262
5.61295e-08
5.65164e-07
-4.6366e-08
2.5453e-07
-1.26268e-05
0.00275927
0.0133968
0.000705273
-2.28947e-07
4.40097e-07
-1.84131e-07
-8.91291e-08
2.11018e-06
-1.69516e-07
0.0167005
0.000188929
0.0180464
1.19504e-06
7.45189e-07
-4.08371e-05
-1.0465e-06
-0.00442367
-9.2071e-07
0.000173401
-4.2118e-06
-1.28381e-07
0.00143359
-4.51597e-08
-5.74642e-06
5.46354e-07
-4.26953e-05
1.1585e-05
-1.81057e-07
-2.75383e-08
-2.81192e-07
8.46832e-08
-1.19645e-06
0.000440923
-2.9429e-05
-9.64936e-06
-7.68746e-07
-3.77934e-08
-0.00879437
-0.000513156
2.95413e-07
-1.40929e-06
-0.000783635
-0.000247271
-1.39697e-05
5.02976e-07
1.71466e-05
1.08533e-06
-9.15548e-06
1.42162e-06
1.82494e-07
-9.21224e-07
-5.91965e-08
-3.10007e-05
3.52957e-07
2.22847e-06
1.67339e-06
1.70513e-06
0.00037888
7.2398e-07
-3.7251e-08
1.63832e-08
-4.49528e-08
1.46476e-07
1.1851e-07
8.10301e-07
1.5337e-07
5.48428e-06
0.0176457
-0.00154149
-5.81532e-08
0.0142851
-1.36918e-05
0.000496191
1.66122e-08
-0.000351237
-0.00136131
1.25122e-07
6.23451e-07
-2.40137e-06
7.27916e-06
-7.90905e-06
3.57634e-06
-4.20437e-06
-0.00628897
2.08542e-08
-1.36755e-06
7.07924e-07
1.04712e-07
1.86913e-07
1.01476e-07
-0.0025176
-0.00254021
-1.42195e-05
-2.15989e-07
4.10589e-08
9.69588e-07
0.000392316
-2.59944e-08
6.37867e-08
0.000506031
4.07554e-08
0.00122038
-2.31443e-06
3.58625e-08
0.0237107
4.58822e-08
-8.03251e-06
0.0241208
4.73814e-08
-3.04689e-10
-3.37579e-06
-2.45344e-05
0.00191536
0.000125451
0.0258396
1.69325e-06
-7.83577e-09
-4.75325e-08
0.000334768
1.54695e-06
9.71914e-08
-1.06336e-07
3.6795e-06
5.17704e-09
0.00533782
0.0240088
-0.00532084
-5.99627e-08
-0.00635852
-2.55484e-05
-0.00425401
8.74103e-08
1.22383e-05
1.59841e-08
-0.00347552
-6.29562e-09
-2.71984e-07
-0.00017911
-2.91914e-06
8.69759e-08
-1.48949e-05
9.49873e-08
-1.01292e-05
-1.86161e-06
1.09893e-06
3.42121e-07
-3.81448e-07
8.58545e-07
0.0178549
-1.78197e-08
-2.17889e-05
5.6389e-07
7.39162e-09
-3.40677e-08
-4.34835e-08
-2.47718e-08
-1.68988e-05
-9.57078e-08
0.0265303
-4.97087e-07
0.00095295
2.04388e-08
-5.95778e-07
9.82214e-06
-2.91252e-07
8.3002e-08
-3.545e-07
8.58102e-07
2.42073e-06
1.43267e-08
-0.000116523
9.46574e-06
-1.29548e-05
0.0228506
4.03444e-09
-6.20117e-08
2.52352e-08
1.32166e-06
1.17427e-06
6.58959e-07
-0.00413704
8.74873e-08
-3.58219e-07
-7.37867e-07
0.000464966
-0.00237971
-0.000112909
4.2262e-08
-8.08423e-07
9.48647e-08
-7.05593e-06
-6.278e-08
1.25093e-07
0.00216913
-1.71354e-05
-3.98399e-08
3.65082e-06
0.00208619
-1.73112e-07
-1.76147e-07
0.000600785
7.19766e-08
-6.68737e-08
-1.90138e-05
0.000686185
-3.79807e-10
-0.00107355
5.76346e-07
5.21629e-08
2.84755e-06
1.95727e-09
-0.0442813
3.09762e-08
-4.56626e-08
-0.00015277
-8.39308e-08
4.66455e-07
2.43357e-07
2.85544e-08
3.03438e-08
1.7658e-07
5.367e-06
-2.3604e-05
-2.93558e-08
0.000874736
-5.13559e-09
-2.86848e-05
-9.29462e-05
-1.16344e-06
0.00305975
-4.56047e-08
-0.000288105
-3.01588e-08
0.00171941
1.39717e-08
0.0132876
-0.000291012
-0.00275812
-7.02503e-08
0.0207143
-2.55276e-05
0.000136899
-1.03055e-06
-1.19818e-06
3.7938e-05
-0.000323972
0.0330159
-1.39312e-06
-4.58568e-06
3.7078e-06
8.39165e-08
0.00178659
-1.00767e-07
3.16585e-06
1.52123e-05
1.80502e-08
5.39458e-08
-9.53918e-08
-7.60424e-08
-1.49487e-08
0.0079177
5.37935e-08
-2.78564e-05
-8.9793e-08
-0.0236549
0.00129227
5.30961e-08
2.19054e-07
1.11052e-06
6.94324e-07
-0.000227432
3.71658e-06
-0.00425502
3.08158e-06
-0.00696058
-8.25313e-08
1.26946e-06
2.68868e-09
4.61632e-08
-1.93419e-08
0.0208725
1.04974e-07
-1.48185e-07
-3.91529e-08
-0.00606703
-1.55795e-06
2.83999e-07
-0.000160691
-1.57885e-06
-1.12486e-08
-2.75012e-05
1.42359e-08
-3.23769e-08
1.21543e-07
5.70984e-06
-9.27693e-08
0.0179945
1.61581e-08
-3.10978e-08
9.44675e-06
-1.51556e-08
6.47809e-09
0.000494537
-2.13575e-05
0.00021221
0.000694641
9.36566e-07
-3.6818e-08
-5.10265e-07
9.3262e-08
9.9707e-06
0.000692844
4.42068e-05
-6.69799e-08
0.0356758
-0.0433467
2.23669e-07
3.4873e-08
-9.19742e-08
0.000317017
0.00415127
7.62731e-08
6.41578e-08
-4.82121e-08
8.26023e-06
4.64816e-07
-1.22079e-05
-5.97003e-07
1.6573e-06
7.58347e-08
-6.41615e-08
0.00160964
-4.9122e-06
2.25161e-07
-0.00128596
5.67522e-08
0.0117077
4.50371e-08
1.27687e-07
0.00195353
1.56894e-06
8.10537e-08
-0.000259983
3.77746e-08
-8.52397e-07
-1.90455e-08
-1.37098e-06
7.43132e-08
-8.40785e-05
5.58909e-07
1.08271e-06
-7.47082e-06
1.58313e-07
-6.79949e-06
-2.02944e-07
2.12135e-07
5.09583e-07
1.16833e-06
-0.00612395
9.03728e-07
-9.91693e-08
3.67059e-09
0.0029899
2.92325e-08
-2.1539e-05
-1.37609e-06
1.18834e-06
7.14431e-07
1.47287e-08
-2.22007e-06
-1.68483e-05
-4.97901e-05
0.00273026
-0.000490443
-5.35535e-06
-1.14469e-05
-0.000166904
-1.67828e-07
-2.11703e-06
-7.22234e-08
-2.5846e-07
-4.31576e-08
2.45367e-07
0.000247749
-2.94965e-08
-5.98681e-05
1.42768e-06
-2.79095e-08
3.43706e-07
5.93453e-08
0.0187899
1.33366e-07
0.00183122
5.51578e-08
-2.71381e-06
3.56815e-06
-4.05914e-07
-0.00527931
-1.54415e-06
-0.0100065
-4.1619e-09
7.35488e-07
-2.46961e-05
-2.98223e-07
-0.00144665
-3.76021e-08
9.27425e-07
1.34295e-08
1.10539e-07
1.15307e-07
0.0135601
-9.06343e-08
-1.06698e-07
9.83919e-07
-0.000202866
-0.0039024
1.18855e-07
-2.38283e-05
4.41811e-08
2.63842e-08
2.12087e-07
-1.29665e-07
5.3307e-08
-1.20242e-07
1.41094e-07
-7.08262e-08
-1.35387e-05
1.10253e-06
2.45968e-08
-5.26604e-08
-2.10103e-06
0.0245567
0.0137974
3.60714e-05
1.04389e-07
0.000410843
3.30999e-06
-2.45881e-05
-7.5783e-08
-6.72318e-06
0.0211057
-8.31859e-08
-5.4274e-09
-7.40885e-10
-6.84111e-06
4.92116e-05
-4.61672e-07
-4.83469e-08
1.21675e-06
2.86575e-07
0.000402412
0.0139566
-4.83763e-07
-1.88444e-06
2.14136e-06
0.0169472
0.0210195
-2.19179e-08
9.39047e-07
-2.0829e-06
-3.61145e-08
-4.24094e-06
-5.58743e-05
-2.11093e-05
1.53894e-07
0.000248382
-1.14481e-06
5.40199e-06
-2.57969e-05
-6.69042e-08
5.01877e-06
-6.56499e-08
1.08408e-06
-0.00198059
4.41983e-07
-8.18258e-07
9.94885e-06
-0.00570848
1.93725e-08
0.00199874
-1.31386e-07
-3.53221e-05
4.08598e-08
-3.96514e-07
-1.79672e-06
1.03352e-06
2.24451e-05
1.91331e-06
4.89617e-07
0.0191905
6.26891e-07
-9.94235e-06
-6.26546e-07
-3.7789e-07
-4.22893e-08
-0.0199438
-4.31903e-08
-6.58998e-08
0.0198137
-4.343e-08
-0.011438
-8.3711e-08
-2.6224e-05
5.98618e-07
-4.90684e-08
-0.000162966
1.01627e-07
-2.01255e-05
0.0012105
1.86262e-08
0.0247943
0.000420627
-9.70679e-08
-4.84212e-08
-1.28105e-05
-1.50512e-05
1.35037e-06
0.0067613
-2.52322e-06
-1.57505e-07
-0.000146657
-0.00568271
-2.88539e-07
-0.00081095
-0.000100061
-2.89619e-08
-1.26812e-07
-2.17336e-06
-3.76849e-05
3.29276e-07
-1.96823e-05
0.00141355
-0.0011925
2.67064e-08
6.76971e-07
-9.78863e-08
4.80991e-07
6.3684e-09
0.0004109
0.000805517
3.04617e-07
0.0143961
1.83722e-08
2.65948e-08
0.000215847
0.00244015
7.79539e-10
1.26371e-07
-1.83503e-05
-0.000582888
-9.04685e-07
-3.39537e-07
-1.00747e-07
-0.00373901
0.0364209
3.27947e-06
2.51234e-07
-0.000353789
1.03627e-06
0.00760915
-1.29836e-06
8.17395e-08
-1.48801e-07
5.44573e-08
1.984e-08
6.30883e-08
1.1537e-07
-0.00086976
0.0141864
1.30967e-08
0.00677032
-1.25138e-06
-0.00265324
3.76179e-06
-0.0464497
-7.82209e-06
7.00728e-07
1.6543e-07
-5.62855e-08
4.75082e-08
-2.62522e-06
-1.54403e-06
4.40657e-07
-0.000817236
-8.25333e-06
0.0189278
1.05906e-05
0.00141569
1.52306e-07
-7.67969e-06
0.00534468
-2.06002e-05
-1.13864e-06
-8.81109e-07
-1.77885e-07
0.0185241
6.51077e-08
-4.33716e-06
1.7666e-05
3.45945e-07
0.0024893
0.0156096
0.00902716
-1.32085e-05
-0.00349074
-0.00357855
-8.22056e-05
-2.37059e-07
0.000103654
-0.00852245
0.00297925
-0.00277501
-3.96911e-08
8.18275e-05
-4.05153e-08
1.09054e-06
6.71635e-05
-2.53478e-05
0.00410368
-0.0012743
-4.16301e-06
-0.000174324
0.0185417
0.011025
-3.13804e-08
-2.53998e-07
-1.68e-08
-0.00535684
-5.69219e-06
0.000416723
7.35265e-06
-0.00598022
0.00374169
-0.015088
-8.90718e-06
-0.0471116
8.95342e-06
-1.85279e-06
4.01838e-06
-0.000189738
4.08155e-08
-1.70217e-07
-1.33011e-07
-0.00395773
5.27439e-06
-4.98556e-06
2.06382e-07
-0.0183299
-0.0332462
-7.796e-05
0.000298007
0.000135878
-2.24758e-07
-5.89236e-07
-3.49668e-05
-1.20178e-05
0.00103656
0.000104201
-7.2926e-10
0.000584293
3.29966e-06
-1.87472e-07
0.005066
7.56144e-10
-1.50529e-07
-1.27861e-05
-0.000190371
1.49156e-08
0.000357217
0.0346904
-6.69579e-06
3.01843e-06
-0.000673359
0.0158682
-1.73862e-05
-0.00455088
9.28014e-07
-4.29451e-06
-2.24954e-05
2.78864e-06
7.05337e-06
-5.18762e-06
1.48885e-05
3.5374e-06
1.03052e-05
0.00020405
-1.40945e-05
0.000238701
6.07864e-08
2.43858e-06
0.00123169
0.00078798
0.000258506
-2.51274e-06
0.0186038
3.59733e-07
0.00682907
5.32738e-06
-8.85669e-08
-0.000449262
0.00222793
1.49926e-06
-4.06671e-08
1.03597e-06
0.0230107
-2.18802e-06
1.29786e-06
2.52695e-06
-8.47943e-09
-8.10926e-05
0.0140343
2.70278e-06
-1.21521e-08
-0.0133765
-0.0289172
0.0188101
-2.35501e-05
1.28805e-06
3.13458e-06
-1.1629e-07
3.66893e-07
6.03299e-08
-0.00483228
-1.13692e-05
-1.16014e-08
-2.11525e-08
3.88089e-07
3.19076e-06
0.000204771
4.03608e-06
-9.53613e-06
6.63843e-09
4.5078e-06
7.85879e-08
-7.36911e-05
-1.85866e-08
-2.65745e-08
-2.06494e-05
0.000145633
3.00263e-07
1.48889e-06
0.0208812
0.0197651
-1.02115e-05
3.37544e-09
0.0134833
0.0184999
-2.5533e-07
0.000730352
-8.09398e-07
-4.08924e-07
0.0167316
4.12728e-06
0.00361468
-4.07806e-08
-5.60828e-06
6.51229e-06
7.45088e-05
-1.44668e-07
-1.64165e-07
4.38767e-07
5.34004e-06
-7.18337e-06
-1.81592e-05
4.7751e-08
4.55997e-08
1.04348e-07
-5.29879e-06
-2.53151e-08
0.019066
5.20404e-09
1.98158e-05
1.36697e-06
-8.67701e-07
-2.10386e-06
3.25919e-06
-3.04453e-08
1.03544e-06
-2.16476e-05
1.38592e-05
0.0236741
-4.69397e-05
4.69193e-08
0.015041
-2.70796e-06
0.0135768
4.36922e-06
8.05934e-07
0.0239804
8.60547e-08
0.00149708
2.23104e-06
2.54507e-08
5.27342e-07
4.01292e-07
8.25178e-07
-2.07842e-07
-0.000240164
-4.93003e-08
-1.77785e-06
0.00203342
-1.00571e-07
-0.00352446
6.99465e-08
-1.8524e-05
-9.58679e-08
9.4454e-07
-8.15651e-05
9.2573e-06
1.03319e-06
-1.02975e-06
-3.31482e-08
-1.47519e-07
-2.73657e-08
2.43818e-08
0.0111933
0.00138745
9.77482e-07
1.44418e-08
2.57149e-07
0.000111148
-6.3966e-06
0.0220742
-1.82889e-07
4.98442e-07
-0.00123828
-0.000147667
-0.000851818
-1.64898e-06
0.00118477
0.00109972
3.13858e-06
-3.07372e-07
6.44547e-05
1.57887e-05
-6.92059e-07
-8.403e-07
-1.46538e-07
-1.81556e-08
9.03691e-07
2.74229e-06
-6.052e-05
-6.29073e-09
2.29323e-08
-1.34293e-05
1.34782e-06
-0.000167198
-0.000193631
3.66834e-07
8.48219e-06
0.00133739
1.17489e-06
0.0011298
1.27379e-07
-8.36562e-08
1.28645e-06
0.000294084
1.04869e-05
5.07766e-06
5.31072e-06
0.00135756
3.82056e-05
0.00209936
0.0194592
-5.48591e-06
3.32571e-06
6.07777e-07
5.86925e-07
2.56479e-08
-9.33697e-08
0.00415741
-1.65401e-08
-2.25023e-07
0.0221454
-2.24428e-08
-4.53564e-06
0.00197623
-2.57349e-07
-2.10421e-07
0.0120435
0.000102741
0.0200531
0.00172849
-2.07544e-07
1.14001e-06
-2.27257e-05
0.0159044
-1.99114e-07
-1.66729e-05
9.39173e-07
-0.00564527
0.0119383
7.19509e-06
-1.07576e-07
6.82144e-06
-7.17618e-07
-0.000707819
-2.32178e-05
-3.97338e-07
-0.00334609
-2.52904e-07
-4.99834e-05
-1.34737e-07
-1.58191e-05
6.7472e-06
9.78336e-07
-1.3829e-05
-2.60816e-07
-1.49925e-05
1.93396e-08
0.00401889
-0.00379956
-0.000495519
-0.00230282
4.06311e-05
-7.15426e-07
-3.51143e-08
9.2266e-06
-5.74128e-11
3.62797e-07
-1.31847e-05
0.000791577
-7.08803e-09
-7.10279e-08
-2.33657e-07
5.31884e-07
7.27482e-08
-0.00017612
-0.00040449
-4.65518e-08
3.67112e-08
-6.79412e-05
-3.05227e-06
3.92496e-07
0.0175023
-5.48346e-07
-1.12744e-08
6.54351e-08
-1.44959e-05
-0.00023529
1.6364e-05
0.00136274
0.018957
2.29068e-06
0.000479425
0.006443
0.000629343
-9.3494e-07
0.00207129
-3.52133e-09
0.000474489
-3.11054e-05
0.000924804
-8.55434e-09
-2.2313e-07
8.31275e-06
-0.0013078
-0.00445272
-8.17136e-07
5.23346e-08
-2.57697e-08
-1.5174e-07
-0.0524349
-1.57388e-05
6.09963e-08
-6.95011e-09
5.68646e-06
3.61588e-09
0.000357263
-0.00706074
-2.53649e-05
-2.0226e-06
4.38191e-07
3.55935e-06
2.94258e-08
-5.05069e-06
2.49394e-07
1.00887e-08
-1.52393e-07
-0.00626742
-5.63683e-05
-7.6877e-06
-0.000221968
-5.30806e-07
-1.08482e-07
8.72239e-07
-4.6951e-08
-6.20218e-07
0.00304649
3.98172e-07
0.00193183
-5.10218e-08
-1.04713e-05
-4.48257e-05
-8.81468e-07
-3.68311e-05
0.0217972
-1.03352e-05
-0.000632128
1.54167e-06
0.00461895
-8.73212e-07
-5.93307e-05
-0.00185166
0.0155318
8.12008e-08
4.86313e-08
4.36868e-06
3.66018e-07
0.00366792
-2.04423e-05
-3.24183e-07
-6.29195e-08
-4.03202e-06
9.68965e-05
-4.57109e-05
3.10264e-07
-4.43506e-08
-3.09202e-05
-5.31966e-07
0.000437902
-0.0154619
0.00962571
-1.28305e-07
2.74672e-06
-6.14411e-07
2.72201e-05
-5.97028e-05
3.59815e-08
1.82672e-07
-9.23694e-05
-6.77362e-07
-3.48242e-06
-0.00371298
0.000592824
-1.27075e-06
-8.6862e-05
1.11528e-06
1.87016e-07
-1.2457e-05
-4.15488e-08
-0.015096
0.000397413
1.52484e-06
0.0157477
-4.30551e-08
0.00610387
5.60066e-08
3.60704e-06
-3.9119e-07
0.0155522
-1.30797e-06
-0.0556081
-3.42998e-05
-3.75858e-08
-4.77718e-07
4.39681e-05
0.000382841
0.0131419
0.00097268
-1.24353e-08
6.66474e-07
-7.91852e-07
-0.00563089
-1.40432e-07
6.76857e-08
-7.4393e-08
0.00110036
6.70842e-08
-4.96422e-07
3.11197e-07
0.00397891
-1.561e-07
0.0277383
6.53928e-06
3.10083e-06
-6.53236e-09
-2.93352e-05
-3.06292e-06
3.90492e-06
8.89432e-07
8.5174e-08
4.5894e-09
-5.40946e-07
2.8948e-07
-9.66071e-08
0.00295712
3.85969e-09
-1.28185e-06
0.0172499
6.48149e-07
-4.15864e-08
1.2334e-07
5.58719e-08
-0.000100699
-1.08965e-07
2.68793e-07
0.020086
-1.05269e-06
-1.13657e-05
2.76681e-08
5.77799e-06
-4.75762e-08
-3.59475e-07
0.00430351
-2.13205e-05
0.000377914
-2.72982e-05
1.04267e-07
-1.17106e-07
9.25486e-08
-1.87397e-07
5.45288e-07
1.5091e-08
0.0204553
-0.00210901
-2.38427e-07
-3.70914e-08
0.000194706
5.33802e-08
3.89039e-05
1.98303e-06
-3.81339e-06
0.015396
0.000157908
-4.20591e-07
-4.81306e-07
4.08337e-08
1.61841e-06
1.43978e-08
-1.05954e-07
0.0204962
4.7048e-08
1.05164e-06
0.0186535
2.71617e-06
-0.0136197
3.77987e-06
3.03773e-07
0.0192061
2.02416e-05
-4.05267e-07
-0.000465904
0.01612
0.0089749
-5.60968e-08
0.00177564
2.78587e-07
0.0169129
0.0167584
-4.59195e-08
-5.80758e-05
-4.6004e-05
-1.87194e-06
4.50046e-08
0.000326799
-4.10566e-08
-8.18652e-08
2.15846e-08
0.0170993
-6.98068e-08
-6.24219e-06
2.16044e-09
-8.29672e-08
-0.000103888
2.92833e-07
-5.75768e-05
-0.000874064
0.0137056
-3.53714e-07
1.06626e-06
-5.39821e-07
-8.37867e-08
-7.00862e-06
0.000153346
-4.69197e-05
-8.17101e-07
0.00280937
0.000100239
3.63928e-08
-2.22509e-07
-3.91016e-06
0.019436
-4.15942e-07
-6.91334e-05
2.61634e-05
-5.2646e-05
-5.63198e-06
1.14646e-07
3.81881e-05
-4.53144e-07
0.0200864
0.000872985
9.89635e-07
-0.00182276
1.40739e-08
-0.00338732
1.25706e-08
-6.95241e-08
-1.31215e-07
-2.83611e-07
-8.80021e-08
1.91229e-07
5.32294e-09
-1.15465e-07
-2.70826e-06
-7.19063e-07
-3.4918e-06
5.21312e-08
-5.77497e-05
-1.42368e-07
-4.47714e-08
1.32084e-06
-6.33553e-06
2.49805e-07
-1.34513e-07
-5.16298e-07
-5.38724e-05
0.00665752
5.92341e-05
4.61381e-06
-1.10383e-08
-8.22863e-08
-5.40187e-06
-1.89529e-07
-0.000464645
-2.77606e-05
-0.000724034
-0.00047777
-1.46543e-07
0.00160242
-0.00327226
0.00192998
-1.09447e-07
-1.84321e-05
0.00614326
-9.42451e-05
-1.7722e-06
-2.49813e-08
2.36778e-08
5.01416e-07
-2.40245e-05
-3.27542e-05
-1.147e-06
5.89118e-05
-9.91412e-06
-1.37597e-06
-5.05994e-07
-6.89124e-08
8.62033e-08
-7.8938e-07
-3.91084e-06
-2.3559e-05
-3.62691e-08
1.90521e-07
0.000656341
-0.0339905
-8.2928e-07
-2.79359e-08
2.59297e-06
-2.492e-07
-5.09203e-08
-2.39488e-08
-1.22103e-06
-6.27043e-07
1.41568e-07
-1.07086e-07
1.14957e-07
0.00446727
-2.00057e-06
6.21484e-07
-0.000615223
2.57582e-05
1.28526e-05
-4.51516e-07
-2.3761e-06
-1.88659e-07
0.000136873
8.61424e-07
-6.23112e-05
-4.30243e-08
-1.15599e-06
5.84545e-07
3.77676e-07
-4.62744e-06
-0.000752677
0.0143473
-1.01391e-05
0.000192836
1.19143e-09
-2.46807e-06
0.0158463
-4.94555e-06
0.000655128
-3.05313e-05
-1.73237e-05
-2.12555e-09
-5.63051e-08
-1.68715e-07
-0.00649243
0.00227175
-1.24138e-05
-0.000153926
-1.71179e-08
-3.38114e-05
-0.0239397
-1.95076e-06
-1.23554e-07
-5.30461e-05
-1.58354e-06
0.00113877
-4.81111e-05
0.00675588
-1.27466e-07
0.00176298
3.57652e-08
5.57929e-07
-1.63944e-07
-5.66858e-05
-0.000900946
-0.000232574
-2.48134e-05
-1.10749e-07
5.36199e-07
2.36533e-07
0.000426191
0.0103299
-5.19924e-08
0.00218459
2.9815e-07
-7.57165e-06
0.0264934
-3.54507e-08
6.63668e-08
-4.32887e-07
1.1668e-07
-7.88149e-08
6.96358e-07
6.02548e-07
0.0295176
3.70529e-06
0.0137058
2.10839e-08
-2.27169e-05
-5.25794e-08
1.60855e-07
1.1371e-07
2.69343e-07
9.50367e-06
-3.45193e-08
1.61186e-05
3.62791e-05
-1.60401e-05
-1.56875e-07
-8.84878e-08
-2.42024e-05
1.7928e-07
-3.95063e-06
0.0149555
-2.14681e-07
-3.21866e-09
-1.928e-06
-9.00227e-05
9.96459e-06
-1.53074e-07
-2.23818e-06
-1.70334e-07
0.0186606
-0.000494467
6.39637e-05
2.0465e-05
0.000231806
-1.41157e-06
-0.0270939
-1.14759e-07
0.00167032
-1.84418e-08
4.19568e-06
6.084e-07
-2.45509e-05
-1.17315e-07
6.64114e-07
-1.00456e-06
5.06587e-08
4.3952e-08
-1.33386e-08
3.83628e-05
-0.000158527
-2.49864e-08
3.49879e-07
2.61656e-07
4.42954e-07
-8.4315e-07
7.38905e-05
-5.27187e-08
-1.72465e-05
-9.4463e-06
0.00112318
-7.73128e-07
-0.000728139
0.00291514
-7.09388e-05
-5.75227e-07
-3.42355e-08
-9.63662e-09
-2.22051e-05
-7.04407e-06
-1.72488e-06
-2.18133e-07
-4.75432e-09
3.98107e-08
-8.32466e-07
-4.33429e-06
-0.00586845
0.0194858
6.85729e-07
7.92455e-07
7.34425e-08
0.00281497
1.17933e-07
1.45782e-06
-1.18891e-08
-1.12736e-08
0.00142796
-2.56121e-06
-7.10375e-06
0.0156459
-6.62623e-06
-0.00667304
-1.76763e-06
-1.73659e-05
8.43587e-07
1.44594e-07
8.00696e-07
0.0145846
-2.02073e-06
-5.79447e-06
-0.000470492
0.00135393
-7.55461e-07
-1.91536e-07
-0.00094478
-3.89884e-05
-2.1164e-08
-6.022e-05
-2.36662e-05
-4.81549e-07
6.4344e-07
-5.72981e-07
-8.43984e-07
-1.6075e-06
0.0196775
-0.00316911
-0.000160639
-1.27206e-08
-4.52859e-07
3.91344e-07
3.75705e-07
-4.67639e-06
5.22653e-05
3.75511e-06
-6.77613e-06
1.2682e-06
-9.49794e-07
4.79559e-06
1.22725e-07
-7.41033e-06
-2.2906e-07
-8.14777e-07
1.17004e-07
1.09774e-08
8.87087e-06
-0.000709817
0.00212506
-1.35718e-07
0.028539
-3.04051e-07
-0.000401444
5.5283e-07
-8.40909e-08
4.55402e-08
6.0051e-07
0.00945666
-2.2559e-06
7.21257e-08
-2.53836e-08
-2.35511e-08
-4.04087e-07
0.0202926
0.00148563
5.38554e-08
0.00193001
-0.00248166
-5.87647e-08
4.75676e-06
1.49774e-07
5.85121e-07
0.0174017
1.44907e-05
6.82233e-08
-0.00147876
-2.83795e-05
-6.80951e-07
-1.97753e-06
1.23737e-07
-0.0317027
-0.000704222
-1.48386e-06
-1.11144e-05
-1.35267e-06
1.95443e-06
1.06459e-07
-1.33689e-06
-8.54706e-07
0.00169254
-1.18914e-05
0.00165651
-3.24169e-07
9.43864e-07
-1.67386e-06
5.02427e-06
6.76728e-06
4.50022e-06
2.0615e-08
2.25335e-05
-7.56257e-07
0.0236045
8.4156e-08
6.97299e-07
-1.97705e-06
-1.47718e-06
2.18757e-07
0.00171376
-1.33604e-06
2.26771e-06
7.59877e-08
3.26017e-08
-2.05878e-07
0.00316555
-1.53808e-05
1.41211e-06
-1.24105e-06
-1.54574e-06
7.91201e-08
-4.96727e-08
0.00181715
-1.08567e-06
-1.18125e-06
0.000624959
1.88651e-07
1.22391e-07