/*--------------------------------*- C++ -*----------------------------------*\
| =========                 |                                                 |
| \\      /  F ield         | OpenFOAM: The Open Source CFD Toolbox           |
|  \\    /   O peration     | Version:  v2012                                 |
|   \\  /    A nd           | Website:  www.openfoam.com                      |
|    \\/     M anipulation  |                                                 |
\*---------------------------------------------------------------------------*/
FoamFile
{
    version     2.0;
    format      ascii;
    class       volScalarField;
    location    "400";
    object      ddt0(omega);
}
// * * * * * * * * * * * * * * * * * * * * * * * * * * * * * * * * * * * * * //

dimensions      [0 0 -2 0 0 0 0];


internalField   nonuniform List<scalar> 
18232
(
-1.04413e-06
0.315636
0.728241
-0.00417375
-3.20581e-05
-2.03346
0.130973
1.04648e-05
0.000438461
0.100221
-3.61372e-05
1.08382e-05
0.00168307
-0.288376
0.00425242
-0.136461
0.00327483
-0.111018
1.37657e-05
-0.475344
0.26436
-0.0686157
-0.0208112
-4.59648e-05
-1.79253e-06
-5.83701e-05
6.46212e-05
-0.020059
-2.4432e-06
-0.0715127
-5.32068e-05
-0.344073
-0.00818568
0.0001314
-0.00283624
9.39863e-06
0.249648
-0.0465739
-0.00682958
2.6076e-06
0.0270064
-4.40425e-06
0.761822
-4.50423e-05
0.0199901
0.00024726
0.722826
-0.00976389
0.00539825
-2.23509
0.00235926
0.00364062
-1.91516e-06
-0.00272651
5.19358e-06
0.000303674
-0.0607383
1.08466
9.91525e-06
0.00422737
-0.0132675
0.171611
-0.198407
0.153208
0.000182965
-8.54423e-05
0.0817335
0.000159347
0.000181672
-1.52327e-05
3.22584e-06
-3.55392e-06
0.00418997
-6.47815e-06
-0.0112448
-3.51199e-06
7.12504e-05
-0.0289787
-0.14696
0.010638
-0.0243547
0.000729724
-0.0046124
0.00302722
-3.59898e-06
0.365777
-5.57455e-05
1.50814e-05
-0.0452746
1.97378
-4.28134e-05
1.29873e-05
-0.0144838
1.40929
0.000262155
0.00300011
-5.1067e-06
1.10164e-05
-1.04193e-05
0.000149899
0.312828
0.177248
-4.87999e-06
-5.54142e-06
1.85666e-06
-0.00318629
3.90673e-05
-0.437298
0.134609
-0.044926
-0.0282475
-1.9254e-05
-0.0150486
-0.169228
-4.79218e-06
0.00015793
-0.000188665
0.0124013
-0.265355
-8.25756e-05
-4.05141e-06
-0.0338279
9.23011e-07
0.160524
-1.19377e-06
1.87829e-05
-0.00112389
2.36748
-0.0178099
-0.00246904
-0.000434577
-0.020109
3.65973e-07
2.60534e-07
5.39725e-07
-1.77037e-06
0.00120566
-0.0048857
0.297278
-1.23179
-2.28736e-06
2.01509
0.0114802
-0.00431902
3.7111e-05
0.000140825
-0.00122829
-0.0167606
-3.54337e-06
-6.57274e-05
-0.0197702
-1.08555e-07
0.150511
-0.000946765
0.0321032
-0.012723
0.0567404
-0.000582309
-0.000333411
1.51814
-2.73022e-06
0.268754
0.0291357
0.0832616
-0.0550471
-3.66802e-07
-0.00815439
-0.0490032
-2.11805e-06
-0.0113008
-9.59621e-05
-2.03942
-0.0125893
-4.573e-06
5.96475e-06
-2.81387e-06
0.322502
0.000260099
-5.85259e-06
-2.86938e-06
-2.98971e-07
-0.600239
-0.000822817
0.435103
7.38711e-07
-1.85034e-06
-1.13141e-05
0.289928
0.00626121
-0.0138719
5.02247e-06
0.264959
2.99391e-05
-2.36767e-05
-8.03443e-05
-6.66132e-06
-0.00864139
3.77618e-05
-0.000299582
-7.98677e-07
0.000147877
4.86004e-06
-1.94923e-06
6.74593e-06
0.00024022
-0.000405263
0.00696736
0.000375173
3.24451e-05
3.72374e-06
-8.67673e-07
-4.3164e-05
2.52767e-06
0.00762302
-1.50098e-05
-0.00929614
-3.2295e-05
-3.32669e-06
0.228461
-0.0272414
-0.00202645
0.00903975
0.0166043
-0.92338
-0.00130116
4.81903e-06
-0.000136261
-2.97339e-05
0.0021874
-0.011361
0.234062
-6.45052e-07
6.22526e-06
-3.31423e-06
0.000214133
-5.8868e-06
0.000114356
-0.00981446
0.000444107
0.000102327
2.1017
-4.08074e-06
-3.79722e-05
-0.00058647
0.996132
4.61e-06
-0.00174688
0.000356901
-1.5094e-06
7.38626e-06
2.05694
-0.00339967
0.284203
-0.00243199
-0.0250442
0.0896106
0.000414228
-0.0505912
5.45202e-05
-1.33604e-06
0.0901699
3.73835e-06
-0.345004
1.92198e-05
-3.41851e-05
-0.0222438
-0.0202007
0.000168114
-3.28129e-06
-0.304585
-6.3282e-06
-4.63247e-05
-0.0138564
0.204354
-0.0305213
-7.76137e-07
-0.0286601
-4.06903e-05
8.90254e-06
-0.0254281
0.0171389
0.0389333
0.32503
3.12905e-06
-0.00180178
-1.52574e-05
-9.8622e-07
6.22414e-06
1.07611
-0.0261433
1.15773
-0.0846749
-1.41532e-06
-2.11165e-05
7.83065e-05
-0.000699957
1.94351e-05
-4.02124e-07
0.000101383
0.0122412
4.8113e-05
0.00556415
0.309332
-3.26709e-06
3.97065e-06
4.07414e-06
2.41221e-05
0.00364773
-1.31581e-05
-4.36596e-06
-1.2901e-05
-0.00514959
-0.043821
3.15721e-06
-0.000299835
-0.0307227
-1.14592e-05
-0.000549222
0.00241771
-5.00481e-06
-2.16492e-05
0.0638076
-0.0140609
1.56801e-07
-0.0204452
0.461744
1.31563e-05
-3.61914e-05
-1.3134e-05
3.1079e-06
-0.00183719
-0.0163783
-0.0308041
2.98393e-05
-0.00378794
-0.0183183
-5.21868e-06
-3.75931e-05
-0.00228103
0.00898031
-0.0191586
-0.0189735
-2.37879e-05
-0.014323
0.0011295
0.00249936
-0.984228
-7.10179e-06
4.30681e-05
3.64242e-06
2.6501e-06
-0.00318635
-0.00164225
4.46057e-05
6.00666e-05
4.50705e-06
-0.00907249
-3.87362e-06
7.73911e-05
-6.45514e-06
-3.38864e-05
-0.0391904
0.00086041
4.35749e-05
-3.15572e-05
1.04331e-05
-1.91913e-05
8.24282e-06
-0.00172782
-2.12404e-05
6.77054e-06
8.09805e-05
-0.71889
8.24431e-05
-0.000201739
-6.04029e-06
0.6811
-7.51531e-06
7.29683e-06
0.15589
-0.310591
1.80161e-06
9.11895e-05
-0.000772408
-2.10374e-06
-2.09263e-06
0.00056564
-0.00454928
0.000268076
-6.43548e-06
0.00104535
-0.0175103
-2.04665e-06
-7.85465e-06
2.34068e-05
0.000131727
0.0398633
-1.23132e-05
0.0216437
-0.000189684
-0.0327683
-3.9083e-07
7.58173e-05
-6.58252e-05
-0.0888423
0.00172044
0.000243704
-0.0309392
-0.00833204
0.00436236
-0.054817
0.000275144
0.0189898
-1.80855e-05
8.96558e-05
-2.49533e-06
0.000124499
-0.0240043
2.43799e-06
1.87416e-08
0.000537177
0.330624
-0.0247255
0.00730875
-0.00160484
-0.0286571
-0.0101878
-0.00033433
-1.66393e-05
0.39003
0.403571
0.000442202
1.65393e-06
2.92367e-05
-5.47468e-07
-8.46254e-06
-0.0192911
-0.00190449
-1.09647e-06
0.00326572
-6.35862e-05
1.17429e-05
0.00699334
1.26806e-05
4.69389e-06
3.15358e-05
0.00312311
1.24693
3.34807e-06
0.00011995
-0.0290402
-0.000189868
-0.00904708
-2.78047e-06
-1.39074e-06
-1.34713e-06
-1.17477e-05
0.00306267
0.00109141
-1.36332e-06
-2.726e-05
2.24016e-05
-0.00246752
-2.96782e-05
-0.000669251
-0.00127048
3.12831e-06
0.186259
-4.47166e-06
-3.96066e-06
-0.617233
0.000409018
1.53595
-0.207624
0.280533
-1.06472e-05
-1.0558e-05
-4.63235e-06
0.0124867
-3.60028e-06
3.3123e-05
-3.94841e-06
-0.164284
1.92821e-06
1.47537e-06
1.22356e-06
-0.0120317
-0.210071
-0.0054613
-6.90722e-06
0.000144536
0.441056
0.207706
1.21312e-06
0.00688767
-9.99625e-05
-0.126627
-7.30426e-06
-0.00140612
-1.04756e-06
-0.0460741
-3.20176e-06
-1.68506e-05
3.07365e-05
0.305614
4.17133e-06
0.000938788
4.85186e-06
0.551738
-6.95232e-05
0.002121
7.56028e-05
-0.00250186
-5.46861e-06
3.32253
0.000328116
-3.94276e-06
-2.93355e-06
-2.42226e-06
5.55847e-07
-8.72428e-07
4.221e-06
8.88054e-05
-1.38931e-05
2.67323e-06
8.64908e-06
-0.00579163
-1.23206
0.000157218
0.00373975
5.90761e-06
0.906
-0.00178146
-1.23984e-06
0.0185206
0.000547285
0.00307255
-1.32435e-07
0.106732
-2.89013e-06
-5.99114e-06
-0.433502
0.00138798
0.000493931
0.535357
-0.000189823
-0.000327564
1.10211e-06
0.151818
3.68793e-06
-0.0035988
0.000361849
0.00296317
-8.35156e-06
-0.0182142
0.00453518
8.61294e-06
1.36388e-05
6.91377e-06
0.00147958
-0.000396104
-1.18507e-05
2.42794e-06
-0.0287298
0.596886
-0.0285435
0.00482923
0.00128774
-0.0300566
0.0612401
-2.73602e-06
0.294046
-4.79257e-06
-0.011221
-3.0431e-06
-4.9133e-06
3.93315e-06
-1.90247e-05
3.1477e-05
-0.150537
-0.000215439
-2.42953e-06
0.061069
3.60421
0.927485
-7.30657e-07
-0.00182282
1.43457e-05
-0.000204009
-1.97094e-06
0.00031242
-9.2566e-07
0.624561
0.000261244
-3.25471e-06
0.571802
-5.04406e-06
-0.00909084
0.108442
-1.19261e-06
0.00219161
0.00599859
-0.00573243
1.94267e-05
-0.00319789
-2.66058e-06
-2.42207e-06
-8.22936e-06
0.912242
-0.00422115
1.17533
9.27537e-06
0.000275727
-0.150876
-1.81247e-06
0.409143
1.21219
-9.15304e-05
-2.43431e-06
-1.25342e-05
-9.3557e-06
1.01342e-06
-0.00517135
-0.0561664
-0.000861046
0.00639225
0.0419908
-0.00271277
0.00741837
-2.99864e-05
0.0467741
0.000188236
1.29546e-05
0.0381997
0.0173742
-0.00242241
-0.00299303
-5.34825e-06
8.09057e-05
-0.00393468
-0.100066
0.0455679
1.64964e-06
1.30577e-05
0.0361578
-0.000820629
-0.480432
0.000256841
-0.00325003
5.57666e-06
-0.00263479
1.36251e-07
-0.00344045
-0.00949979
-7.96652e-06
4.25704e-06
-1.05489e-05
0.058892
3.02451e-06
0.000170206
0.00479266
0.00294212
-3.95366e-06
2.47412e-06
0.00203667
-0.0167347
0.00693096
1.14392e-05
-4.69324e-06
0.000784678
0.561833
-5.3715e-06
0.000210765
-0.127636
1.16166e-05
-1.13097e-05
0.000181437
0.00130604
-2.74149e-06
4.49757e-05
0.00105644
-1.57761e-05
-0.0163569
-0.000516037
-0.000114645
4.45561e-05
0.788341
-0.000365562
-1.63909e-05
0.000282497
-0.00539482
1.3697e-06
9.06995e-06
-1.7808
0.000376468
0.000512123
1.11035e-06
-2.52273e-06
-0.0325573
-0.000618679
-0.0152882
-5.62145e-05
-5.29337e-05
-0.00302432
-0.00315954
-0.000442958
0.00210794
-0.00417738
-7.48412e-06
0.000447587
0.000403731
-0.000340967
-6.41674e-05
-6.62583e-06
0.327609
0.000347929
-0.000281527
-0.000148172
1.06048e-05
-0.505276
0.0020961
0.661926
-0.0107323
0.00208573
-8.47701e-05
-5.71051e-05
1.603e-06
0.000247311
-0.0178152
-1.88944e-07
7.67131e-05
-0.00904395
5.71445e-05
-1.2512e-05
0.0145593
0.000146067
-0.000768092
-8.39891e-05
0.0808113
0.000191109
-0.00251682
0.0145426
-0.000241218
0.0845475
-1.99132
-0.227365
4.27818e-05
0.0943366
0.00645076
0.833648
0.000571038
9.62506e-05
-0.0034788
-3.80068e-06
-0.209157
0.259288
-1.34431e-06
-0.0120932
0.000178513
-0.139087
3.03066e-05
7.08417e-06
-0.00239656
1.03579
1.01013e-05
0.000446103
-0.0054941
-0.000166628
9.0212e-05
-0.0441202
-0.00861261
-0.00365051
0.15245
8.86934e-06
0.00059948
-5.56279e-06
0.00489487
0.00394117
-0.013925
-1.60745e-05
-0.0631019
-6.34669e-05
-0.00337675
-7.60019e-05
9.66252e-05
-0.364979
0.000120479
-0.0173646
-2.8641e-06
-4.72368e-06
-0.0123874
-0.0109013
2.85218e-05
-0.00065791
0.000218438
-8.97939e-06
2.24211e-06
-0.00306612
-0.00722271
-0.0101051
-0.0109472
0.000842803
-0.000495295
-4.85795e-06
-0.000540505
0.00172579
0.00140039
-4.87015e-05
-3.71131e-06
1.67247e-06
1.27971
0.000357153
0.0932008
-0.6919
-6.24189e-05
-0.0018512
7.70945e-05
-0.20247
-1.94806e-05
-4.03112e-06
-2.68915e-05
-9.62505e-05
3.91622e-05
0.0114288
6.60816e-06
0.0182588
-4.85545e-06
0.000650244
0.000722764
1.82803e-06
-1.09108e-06
-1.10593e-05
-2.84457e-06
0.00204188
-5.26373e-06
0.00214513
-0.0162432
0.0224378
0.0187918
-9.36744e-07
0.400172
0.000233115
3.90432e-05
-0.000245392
8.89437e-05
-0.00312591
0.0188712
0.79519
0.14654
-4.4338e-06
-1.24335e-05
7.30036e-05
-6.6041e-06
0.000953606
1.11727e-05
1.58657
0.0744898
0.0776627
0.00016134
6.34737e-05
-0.0122854
-0.000220528
-0.00230288
-5.98371e-05
-0.0391759
-0.000550943
-6.28465e-06
-9.29094e-05
-3.89488e-06
-0.000957129
6.09307e-05
-0.00932151
0.0167587
2.15879e-05
-1.93102e-05
-1.72825e-05
-6.37513e-05
-0.000138037
0.275537
-0.0325913
-0.0104321
-2.04077e-06
-2.63257e-06
-0.0452437
-1.0348
0.000121031
-0.000933276
-0.0427869
0.058417
-0.00330499
6.77873e-05
-0.0081647
0.000223725
-0.00250995
0.000129154
-1.15856e-06
-9.55781e-05
-3.83668e-06
-0.0368835
3.71258e-05
4.64999e-05
0.000112498
0.000108719
0.101659
4.57479e-05
-2.2129e-06
-2.32095e-07
-2.80633e-06
9.87476e-06
1.03165e-05
0.000593978
-3.72642e-06
0.00892935
0.333988
0.0219147
-4.35937e-06
0.566871
-0.00891925
0.0140978
-5.90048e-06
-0.0253264
0.0272386
2.10766e-05
0.000711682
-0.000190141
-0.00173023
-0.00657833
0.00166221
0.000403148
-0.173382
4.61271e-06
-0.000265508
0.000341034
-3.48499e-06
-1.15813e-06
-2.63585e-06
0.0120048
0.00947769
-0.0158756
-5.20609e-05
1.63012e-05
5.79579e-05
0.140675
-1.48574e-06
1.87686e-05
0.0699451
-5.76929e-07
-0.352897
-0.000235691
-7.32698e-06
-0.196122
-2.6756e-06
-0.00204082
1.11446
-0.000995059
1.16426e-06
7.45602e-05
-0.0247222
0.0334792
0.12133
1.47144
0.00122189
-6.32009e-07
-4.0331e-06
0.0861419
0.000931143
6.26954e-06
-1.02903e-05
0.000122295
9.72836e-07
1.1545
-0.183946
-0.432893
0.000127301
-0.123735
-0.0168717
-0.0996793
-5.12549e-05
0.00397978
-5.66809e-06
-0.0893377
4.40229e-06
-0.000139123
-0.0241864
-0.00269667
7.28023e-06
-0.0041947
6.25209e-06
-0.00201581
-0.000499124
0.000192593
-4.5608e-06
-2.34297e-05
2.16171e-05
0.307878
-9.01422e-07
-0.0115089
0.000113442
1.2244e-05
-2.38207e-06
-3.12061e-06
-9.066e-06
-0.0284374
1.93728e-06
1.95095
-0.000683105
0.00786842
6.5814e-06
-0.000534278
0.00179615
-1.22705e-05
5.58697e-06
-2.20518e-05
0.000193748
0.00109323
-3.78419e-06
-0.0292969
0.00388071
-0.0155092
-0.391143
-6.35491e-06
-2.61351e-05
-5.87571e-06
0.000399148
0.00013251
7.6468e-05
-0.429545
5.63849e-06
-8.54955e-05
-1.60135e-05
0.0368018
0.00405069
0.00232622
4.67633e-06
-0.000113175
6.41267e-06
-0.00749587
3.75022e-06
8.14242e-06
0.0331201
-0.0128845
-2.53871e-06
-0.000661213
0.0323353
-8.77303e-05
3.03157e-05
0.0862065
6.7235e-05
-8.46328e-06
0.00166721
0.0314337
-2.70475e-07
-0.132617
0.000416712
4.48206e-06
0.00186424
1.34415e-06
0.426539
-8.56177e-05
-3.05837e-06
-0.0391872
-3.28227e-06
9.03619e-05
2.53903e-05
1.17826e-05
1.68988e-06
2.13394e-06
0.00133125
-0.0114507
-4.02012e-06
-0.000861198
-4.58667e-07
-0.0111068
-0.0353495
-0.00126453
0.124947
-2.7904e-06
-0.0305431
-1.85263e-06
0.0283273
3.14389e-07
0.74608
0.00267477
-0.113404
0.000163946
0.975657
-0.0435888
0.171441
-0.000590597
-0.000141511
-0.004194
0.0101472
0.266069
-0.000895612
-0.000847053
0.008848
-4.27798e-05
0.327579
1.55257e-06
-0.00234762
-0.0337749
1.39789e-06
-4.99555e-06
-0.000219382
5.63473e-08
-8.8608e-07
1.01124
-4.89232e-06
-0.0151391
-5.94955e-06
-0.0250836
0.0205154
3.37685e-06
-2.35557e-07
5.3976e-05
8.14249e-05
-0.0180341
0.00183937
0.0041817
0.00160335
-0.102233
-3.09357e-06
5.56855e-05
-1.71403e-08
4.21993e-06
-1.08448e-06
1.21605
7.32875e-06
-8.34976e-06
-2.53986e-06
-0.170436
-0.00016568
0.000267944
0.089923
-0.000196704
-5.73842e-07
-0.0350609
2.9834e-07
-1.25527e-06
7.55057e-06
0.00838178
1.67617e-08
0.854544
-1.0115e-05
-2.35901e-06
-0.00509542
-8.73149e-07
-4.28469e-07
0.0267829
-0.00876584
0.0759869
-0.0165902
0.000479158
-1.31187e-05
-2.9784e-05
-5.99683e-06
-0.000157683
0.0369335
0.00564944
-3.10478e-06
0.715318
-2.9996
6.99616e-05
1.88673e-07
5.69558e-06
0.0987836
0.870233
-2.55924e-05
0.000117454
5.77809e-06
0.00248885
5.82122e-05
-0.0119526
-0.000102232
0.00223402
6.05999e-06
-4.20526e-06
0.0240807
-0.000890081
4.68458e-05
-0.128946
3.50932e-06
1.16808
-5.17076e-06
1.23738e-06
-0.0680079
0.000116826
-5.33915e-06
-0.0756043
-7.02336e-06
-8.25319e-05
6.48258e-06
-0.00140089
4.80725e-06
0.126443
4.51744e-05
0.000613361
0.000210343
2.88705e-05
-0.00969433
-1.31333e-05
1.47816e-05
7.40938e-05
6.71925e-05
-0.235122
-2.724e-05
-8.67547e-06
-2.53556e-06
0.0397349
2.14716e-06
-0.0282429
-0.000107506
0.000101036
-2.05234e-05
5.15558e-06
-0.000256349
-0.00342025
-0.00782498
0.036435
-0.0470002
-0.00399704
-0.0128314
-0.0301734
-9.98858e-06
-0.00230019
-3.47545e-06
-8.3011e-05
-2.8574e-06
-5.69092e-05
0.0424468
-2.17142e-06
-0.0648042
0.000129483
2.46095e-05
0.000428421
-2.40745e-06
1.09416
6.56624e-06
0.280862
1.19933e-05
1.98064e-05
0.00195869
-0.000102384
-0.221874
-0.000112209
-0.0830233
-5.54051e-05
0.0004929
-0.0101811
-0.000121982
0.0194015
2.61242e-06
8.36014e-05
-1.07024e-05
1.08292e-05
2.66108e-06
0.403775
-5.60781e-06
-5.50255e-06
8.97643e-06
-0.0277129
-0.00459512
2.92665e-05
-0.0284907
4.77346e-06
4.207e-06
-5.47842e-06
-3.32142e-05
1.37505e-05
-9.08071e-06
1.4898e-05
-9.98772e-06
-0.0179953
0.000759005
-9.68365e-06
-1.74746e-05
-0.000225861
1.65861
0.748459
-0.0126006
-0.000136767
0.183916
0.00142421
-0.00368796
-1.1043e-05
-0.000922911
0.836336
-6.32687e-06
-9.56791e-07
-0.000136538
-0.00304523
-0.147604
-2.77325e-05
-3.82135e-06
8.18218e-05
2.8208e-05
-0.0378723
0.832841
-2.75139e-05
0.00348174
0.00224065
0.974569
0.700361
-0.000149935
-4.44419e-05
-0.00190434
-2.04298e-05
-0.000223052
0.318677
-0.00544734
2.96182e-05
0.0832015
-0.000450169
0.000811599
-0.00712637
0.000178813
0.00271799
4.59795e-05
3.95109e-05
-0.447318
0.00016992
-0.000115545
0.00406545
-0.679493
-8.35892e-06
0.034904
5.59215e-06
-0.017348
3.62515e-06
-8.8232e-05
-0.000269113
0.000202173
0.00035882
0.00122793
0.000211465
1.53588
2.27817e-05
-0.012876
-0.000757454
0.000264459
4.49307e-06
-0.216838
-3.14748e-06
-2.34864e-05
0.559869
-1.31033e-06
-1.25947
-1.143e-05
-0.0307752
0.000220599
-3.92003e-06
-0.00109067
-5.08926e-08
-0.00638878
0.240813
1.49478e-06
0.291547
0.0719561
-0.000355437
-3.03876e-06
-0.00282257
-0.016601
0.00044502
0.131916
-0.000226027
3.01481e-06
-0.0623891
-0.37738
-7.82081e-06
-0.0250841
0.00588976
-3.58942e-06
-7.49588e-06
-0.00117879
-0.0206218
4.78559e-05
-0.0213451
0.00951876
-0.203034
-0.000290025
0.000506331
-0.000330381
-1.16082e-05
5.40672e-07
0.251988
-0.0226689
-6.52528e-05
0.612466
8.06321e-06
-1.35441e-06
-0.0732895
0.0329169
-7.13476e-06
-5.79903e-06
-0.0187019
-0.00483694
-0.000474198
-0.000567779
6.65564e-06
-0.719373
-0.403246
0.00222285
0.000133101
-0.00428516
5.32444e-05
0.270131
-0.000911476
1.50788e-05
2.02823e-05
3.01302e-06
2.77889e-06
4.39376e-06
0.000178748
-0.0821996
0.846517
6.82486e-07
0.712271
0.00185084
-0.0763956
0.000437065
0.881876
-0.001774
0.000180886
9.38272e-06
-5.53404e-06
0.000148001
-0.00240997
-0.000150303
3.18205e-05
-0.221962
-0.000909159
1.46989
0.00426902
0.000407639
-6.36432e-05
-0.0059249
0.229875
-0.00713146
-0.00195449
-3.18169e-05
-1.47466e-05
0.0235096
1.28128e-05
-0.00507707
0.00385037
4.74317e-05
0.0308953
0.924017
2.68796
-0.00118875
-1.33291
-0.129326
0.0172902
1.49354e-05
0.0355021
-0.113644
0.0369769
-0.0963697
1.6928e-06
0.0198383
-5.73929e-06
6.32833e-05
0.166837
-0.0199203
0.82612
-0.14056
-0.000154976
-0.0177418
0.223865
0.384596
-5.32905e-06
1.27067e-05
2.7993e-06
-0.111675
0.00433224
0.115908
-0.000478394
0.54033
0.0470549
-0.672712
-0.00244028
-2.18898
0.000798781
-0.000168021
0.000584424
0.0286163
-6.8824e-06
5.1072e-06
-2.04142e-05
-0.115101
-0.00101448
-0.00376194
-5.80171e-06
-0.421839
-0.299601
-0.0159542
-0.0222409
0.0185137
-5.7552e-05
-0.000370371
-0.017009
-0.0189333
0.471216
0.000754563
-4.32077e-05
0.100743
0.000266626
-4.73779e-05
0.799848
1.50667e-06
3.94895e-06
-0.00318245
-0.00176246
3.98657e-07
0.0804786
0.577466
0.00207021
0.000293549
-0.141077
0.6407
-0.00265284
-0.137549
3.60506e-05
-0.00112244
-0.0198698
0.000730939
0.00145309
-0.00112523
0.00581543
0.000752265
-0.000134754
0.0764428
-0.00382389
0.0365086
1.67695e-05
0.00324438
-0.016937
0.0170421
0.088501
0.000153781
0.348137
-7.81145e-07
0.458805
-0.00126517
-8.84622e-06
-0.106892
0.0308994
0.00031307
-0.000103107
5.76968e-05
-0.104117
0.00833419
0.000440591
0.000299204
2.38084e-06
0.0243426
1.90219
0.00093763
2.53422e-06
-0.191038
-1.54508
0.15093
-0.0178422
5.53212e-05
0.000754446
-1.78024e-05
2.3584e-05
-3.37585e-06
-0.0997404
-0.0100916
9.63993e-06
-1.306e-06
2.24576e-05
0.000673875
-0.105076
0.00182065
-0.00795647
-1.3425e-07
0.00058158
3.6074e-06
-0.0191875
-1.44774e-06
2.31953e-06
-0.0248908
-0.0124248
-2.15565e-05
0.000156492
0.622988
0.634215
-0.012937
-9.14867e-08
2.63316
1.06962
-0.000612269
0.119398
-0.000164505
-3.10485e-05
1.03523
0.00206063
0.0445731
-2.58597e-06
-0.00602534
0.000835477
-0.0520889
-5.17714e-05
-1.5633e-05
0.000510533
0.00080912
-0.00187815
-0.0183247
5.37307e-05
0.000184331
-0.000281095
-0.000138693
-1.73171e-06
0.887953
-1.98329e-07
0.00963874
7.71471e-05
-0.00107119
-0.00152208
0.00133722
-1.8356e-06
0.000277868
0.0182231
0.0186
0.93478
-0.0089131
-7.78187e-07
1.05702
0.000228513
0.535015
6.06105e-05
-2.7506e-05
0.314659
4.87663e-06
-0.0495693
0.000672124
-1.03009e-06
-0.000189394
0.000153865
6.95152e-05
6.62636e-07
-0.0211862
1.09683e-05
-0.000105405
0.0894655
3.34817e-06
-0.114847
5.15945e-06
-0.0227995
-6.36515e-06
9.74849e-05
-0.0368733
-0.00287407
2.8317e-05
-3.81132e-05
-2.2859e-06
-3.85772e-05
-2.0801e-06
1.76419e-05
0.565417
0.018923
4.18163e-05
-8.21435e-06
0.000289071
0.022168
-0.00875934
0.95272
2.07838e-06
4.00762e-05
-0.102571
0.00762287
-0.0632987
-0.000894926
0.0187162
-0.0652083
0.00377553
-1.31326e-05
-0.0192917
0.0317862
1.46978e-05
-2.2392e-05
-3.50115e-05
4.04701e-06
2.95648e-05
-0.000479636
0.00323176
-2.14651e-06
2.41621e-06
0.00190563
7.15311e-05
-0.103126
0.304554
0.00016305
-0.00269037
0.105444
0.000131597
0.0336491
1.21241e-05
-8.63379e-05
0.000672025
0.00703847
0.00107709
-0.000574008
0.00016501
0.173236
0.000951532
-0.00203729
0.88288
-0.00677743
0.000247636
-5.74244e-05
5.31835e-05
-2.06107e-05
-8.11871e-06
0.344405
-7.39087e-07
-2.33043e-05
-0.0992104
-1.36937e-06
-0.00024191
-0.036627
5.75389e-06
-1.79221e-05
0.65813
0.0439685
0.437953
0.15613
-2.03584e-05
4.72267e-05
-0.0125537
0.515694
-0.00226592
-0.030552
0.00930819
-0.130725
0.38509
0.00487336
-1.19126e-06
0.000854052
-0.000114302
-0.101072
-0.0154922
-7.58547e-05
-0.0745416
-8.28997e-05
0.029679
-3.42818e-06
-0.00356679
-0.0742296
3.41448e-05
-0.00739599
1.56451e-05
-0.00435245
7.71806e-07
0.247462
-0.144777
0.0585986
-0.0274809
0.0440649
-0.000351197
-2.26324e-06
0.00104534
-2.13989e-06
0.000137252
-0.0133975
0.0606978
-1.47404e-05
-4.59442e-06
4.23302e-05
0.000108378
5.34671e-06
0.0040162
-0.135655
-3.34054e-06
-3.82755e-05
-0.00660273
-0.00293455
0.0001698
0.0802888
-6.02959e-05
-7.83612e-07
1.83422e-05
-0.0183431
-0.00621353
0.0210528
-0.019441
0.0938487
0.00128108
-0.0369895
0.536279
0.574264
-5.63478e-05
0.0121418
-5.11467e-08
0.0110086
-0.00117391
0.262678
-1.60086e-05
-4.55692e-05
-0.00241271
-0.162302
-0.031203
-0.000749988
-8.7349e-07
-1.54621e-06
-1.81326e-05
-0.274542
0.0358712
4.38531e-06
-9.63158e-06
0.000237362
-1.4641e-06
-0.316626
-0.223556
-0.00956021
-0.000316644
0.000944545
0.00412058
2.04722e-06
-0.00323748
2.89613e-05
6.97039e-07
-4.28043e-05
-0.122598
-0.0216683
-0.00956295
-0.0216174
-3.70597e-05
-1.15702e-05
7.31601e-05
-3.8282e-06
-8.6005e-05
0.0112529
-1.9228e-05
0.369423
-3.22304e-06
-0.00910328
-0.00430931
-2.99555e-05
0.00263417
0.973026
-0.014907
-0.159031
0.00015448
0.601053
-0.000832384
-0.0123411
-1.01669
2.78742
-5.40661e-05
3.39649e-06
0.00149875
2.84805e-05
0.117204
-0.0221854
-3.0605e-05
2.00534e-07
-0.00351851
-0.0533937
-0.0064992
-2.68701e-06
-3.75921e-05
0.0156392
-5.4127e-05
-0.0219256
-0.290752
0.524572
-2.87641e-06
0.000179823
-8.65605e-05
0.00987516
0.0136117
-8.53747e-07
0.000343716
0.00287666
0.000621382
-0.000768245
-0.0423585
-1.16164
-0.00036642
-0.000875415
0.000393578
-1.60109e-05
-0.0151426
-3.01303e-06
-0.21424
0.0345267
9.53387e-05
0.222117
-4.15517e-07
0.500667
3.97995e-06
0.00105983
-1.59453e-05
0.582275
-0.00104056
0.783868
0.0101449
1.0442e-05
-0.000205522
0.0115921
-0.017329
1.51635
-0.192194
-1.16229e-06
0.000148974
-2.36857e-05
-0.664969
-2.01351e-05
-0.000237817
-0.000201837
-0.0137892
3.93247e-06
-5.52051e-05
0.000199942
0.641753
-3.07073e-05
1.50626
1.27167e-05
0.000975323
1.42121e-05
0.00812167
-0.00326184
0.00136625
0.000220021
8.43943e-06
1.60364e-07
-1.63781e-05
-6.52609e-05
1.01392e-05
0.704402
8.37344e-08
-0.00203273
0.992421
0.000367453
-2.80755e-06
-2.49095e-06
3.09263e-06
-0.0235302
-5.57815e-06
7.68481e-05
1.04132
-7.90396e-05
-0.0141011
-9.09464e-06
0.000458177
-4.24559e-06
-0.000565818
0.510187
-0.0247673
0.0618364
-0.0186301
4.27366e-05
-1.69476e-05
3.42267e-05
-0.000403822
0.000108302
7.33579e-06
1.04884
-0.601284
-3.33796e-05
-2.27011e-06
-0.0288164
3.94656e-06
0.00959014
-0.000271182
-0.000898524
0.573241
-0.0134456
-5.00611e-06
-0.000842395
2.56321e-06
9.14738e-05
-1.72469e-05
7.17471e-07
0.531202
2.56717e-06
4.76772e-05
1.25783
0.000189473
-0.355505
0.000210206
1.7307e-05
0.223534
0.00997332
-1.79984e-05
-0.0111703
0.592621
1.80347
-5.15948e-06
0.0211737
0.000101156
0.823301
0.686256
-3.13711e-06
-0.0649489
-0.00498084
-0.000304354
-0.000251095
0.0248
-2.8839e-06
4.37301e-06
0.000679072
0.657
2.16932e-06
-0.00811019
2.3991e-07
-5.24432e-06
-0.0639581
1.86067e-05
-0.0340935
-0.834638
0.206932
2.47494e-05
4.99413e-05
-0.000257168
1.16493e-05
-0.00800491
0.173682
-0.0212308
-0.000123221
0.542104
0.0554138
1.69665e-06
-9.52027e-06
-0.000568616
0.582149
-1.06481e-05
-0.1584
0.00756987
-0.0268853
-0.000167672
-0.000487588
0.0035922
-5.04894e-05
0.539873
0.128751
0.00033999
-0.101918
5.43161e-07
-0.270622
1.0099e-06
6.85999e-07
-3.12228e-05
4.34318e-05
-6.0826e-06
0.000233162
3.98824e-07
-2.46759e-06
-5.90758e-05
-2.20103e-05
-0.000715027
4.15413e-06
-0.0110247
-2.98937e-05
1.00192e-06
0.000176453
-0.00240859
-0.000197846
-2.34133e-05
-4.77259e-05
0.0248109
0.131283
0.0108487
-6.24874e-05
-8.726e-07
-5.42716e-06
-0.00677974
-1.522e-05
-0.0476935
-0.0333835
-0.289382
-0.0327406
-2.14295e-05
0.179432
-0.925503
0.608452
-3.29642e-06
-0.0189202
0.939619
0.0253859
-0.00020523
-5.83671e-06
1.70464e-06
-8.61576e-05
-0.0295819
0.00810304
-0.000119029
-0.0743624
-0.00109057
-0.000170515
-4.84396e-05
-4.75563e-06
1.1257e-05
-0.00107653
-0.0020626
-0.0145517
-0.000100701
0.00304106
0.62999
-0.334791
-0.000595991
-1.95303e-06
0.00089257
-0.00011011
0.000149686
-1.88266e-06
-9.07517e-05
-1.6979e-05
3.25711e-05
-1.32779e-05
7.14313e-06
0.30182
-0.000138964
-0.00025133
0.015833
0.0018941
0.00532731
9.60018e-06
-0.000384166
-3.74788e-05
0.0386421
0.00114178
-0.0039715
-2.77346e-06
-0.00017138
8.75436e-05
1.59756e-05
-0.000734795
-0.0144634
1.02845
-0.00186059
-0.0212886
-2.33923e-07
-0.00231899
0.52556
0.0396921
0.134148
-0.245479
-0.0116725
7.08437e-08
-5.56254e-06
-4.11265e-06
-0.156621
0.158638
-0.0109767
0.00512504
-1.04235e-06
-0.0209808
-0.791849
-0.000217159
-3.59498e-06
0.0461864
-0.000227381
0.0238844
0.00633558
0.855903
-8.3781e-06
0.0400691
2.27577e-06
7.20561e-07
-2.27774e-05
-0.0255373
-0.160008
-0.00943598
0.00054653
-1.7115e-05
0.00100134
-1.57936e-05
0.0190617
0.490788
-4.57595e-06
0.0277194
-4.06304e-05
-0.0012392
-0.123971
1.12882e-06
4.25244e-06
-0.000173972
0.000192723
-4.93375e-06
0.000280783
-1.1314e-05
0.718713
0.00141523
0.530444
-1.45086e-06
-0.024968
-3.16549e-06
1.01952e-05
7.40167e-06
2.27877e-06
0.00123542
-1.7378e-06
-0.00182765
-0.0134363
-0.0170249
-2.52908e-05
-6.03682e-06
-0.0172198
-7.60905e-05
0.00597295
0.911012
-2.59564e-05
-5.07881e-06
-0.000134801
0.0160618
0.00108991
-9.82225e-06
-0.000231213
-1.04469e-05
0.251313
-0.096474
0.026897
-0.0274978
0.0465612
-0.000145014
-0.684125
-1.93785e-05
-0.229308
-5.60303e-06
0.00124578
1.30686e-05
-0.0117712
6.34473e-07
0.000115876
-0.00116055
3.98033e-06
3.64648e-06
-6.43475e-07
-0.000712083
0.0456485
-1.54176e-06
1.14671e-05
2.77992e-05
4.6603e-05
-0.0247765
-0.0902468
-3.34537e-06
-0.0206292
-0.00775921
0.0178739
-0.000292034
-0.11307
0.567418
-0.0544266
-0.000242638
-5.68249e-06
-7.32915e-06
-0.00132742
-0.00183371
-0.000204483
-8.27704e-06
-5.39175e-07
1.4118e-05
-0.000109851
-0.000684589
-0.146142
0.383906
9.44768e-06
1.43469e-05
-4.18504e-06
0.0662187
9.82307e-05
0.000888486
1.01194e-05
-5.55034e-07
0.295565
-0.00235727
-0.000598661
1.5279
-0.000589924
-0.0119802
-9.98802e-05
-0.0120634
0.000552524
8.36658e-06
0.000171514
0.990273
-0.000374773
-0.00113403
0.00640885
0.0182781
-7.0414e-05
-4.35857e-05
-0.053261
-0.0301001
-1.66464e-06
-0.0288017
-0.0263965
-3.6938e-05
7.96046e-05
-9.5327e-05
-5.2979e-05
-0.000229711
0.885942
-0.177299
0.0273698
-1.8936e-07
4.40062e-06
0.000158286
0.000121021
-0.00506014
0.00374664
-0.00156096
-0.00940364
6.5838e-05
-0.000242881
3.99848e-05
-0.000263177
-0.0086463
-5.53324e-06
0.000215534
2.16263e-06
8.90863e-07
0.00273412
-0.0870989
0.0225027
-3.92636e-05
-0.0181481
-7.57787e-06
-0.166204
0.000276533
-5.63797e-06
-9.07715e-06
0.000258503
1.05393
-0.000369422
1.13263e-05
-1.73353e-06
-2.01842e-05
-5.16265e-06
0.306425
0.0202083
3.24884e-06
0.0133996
-0.118655
2.75746e-06
0.00160663
-2.83499e-05
0.000778771
0.97015
0.00590341
-6.2567e-06
-0.0419313
-0.0240054
-0.000447329
-0.00029326
1.44138e-05
0.51014
-0.011739
-0.00162086
-0.00560278
0.000108077
0.0006349
3.95843e-05
-0.00168762
-0.000890245
0.0181134
-0.00781895
0.0246012
-9.70388e-05
0.000545441
-0.000120945
0.00234881
0.00250018
0.00586919
1.38735e-06
0.00570193
0.000110464
-0.133757
5.53163e-06
9.90036e-05
-0.00147883
-0.000198142
0.00015841
0.0171694
-0.000105977
0.00221736
4.61693e-06
6.67977e-06
0.000106807
0.0343102
-0.0188225
0.000510977
-0.000253552
-8.59029e-05
1.06221e-05
-4.04618e-06
0.0159987
-5.56e-05
-0.000667861
0.180398
0.000103957
8.0467e-06
0.5947
-0.0144459
1.44362
-0.00517491
1.7523e-05
0.00453865
0.0248623
0.228988
8.43452e-08
-0.0177839
0.00146211
0.0240602
4.23249e-07
0.000982685
0.81439
0.00378451
-4.87032e-06
-0.00500116
-0.00083393
-0.376908
-1.23795e-06
0.0308431
0.000649143
-7.20982e-07
3.26102e-05
0.016337
0.0530518
0.292607
0.00257074
-0.00104741
1.14063e-05
-0.000174747
0.00199198
-0.000417062
-0.222677
0.139691
7.47806e-06
-2.31971e-06
-0.00269398
2.63736e-05
1.72778e-06
-0.0476643
0.00030187
0.0203607
3.4046e-06
-5.1704e-06
0.0194028
0.00785468
0.0115286
-0.00217915
-0.0762779
-0.179332
0.000432346
-1.92774e-06
1.18091e-05
0.000807198
2.23183e-06
-1.20449
-3.00425e-07
5.34857e-06
2.36001e-05
-0.619454
3.44451e-05
-6.0954e-06
0.0226005
-0.0646556
-0.00898584
2.16839e-07
0.432256
-1.35797e-06
1.83923e-05
-0.129943
-3.45471e-06
0.00369861
3.35195e-05
-0.000774397
-5.82042e-06
-7.99707e-06
-2.52597e-05
2.85599e-05
-2.74176e-06
-1.49878e-05
-1.40523e-06
-0.00465686
0.0146335
-3.98312e-06
0.0614895
0.557572
-9.67716e-06
-4.93821e-05
-7.61308e-05
-4.07433e-06
-2.58671e-06
-0.000544357
0.00289835
0.00647497
0.206436
0.703165
0.148376
6.93705e-06
7.30872e-06
7.21555e-06
-0.0448021
-0.124023
0.00470233
-0.000134959
3.45754e-06
0.00041952
0.00605983
-0.173041
-4.27398e-05
1.09627
-5.83178e-06
0.000372691
0.000235542
0.580183
2.86178e-07
6.92709e-06
-3.4177e-05
0.0107307
-0.00754149
-0.000151974
0.0342778
0.907194
-0.00949476
0.0590378
-0.0197455
-0.00171562
-0.048612
-0.00735621
-0.0051787
-0.0260789
-0.00898771
-0.0331178
-9.39485e-05
-4.09179e-05
-7.03949e-06
-6.98827e-06
5.20093e-05
-3.28974e-05
-0.0473226
-0.148697
0.046441
0.00762604
-0.0226407
0.000100703