/*--------------------------------*- C++ -*----------------------------------*\
| =========                 |                                                 |
| \\      /  F ield         | OpenFOAM: The Open Source CFD Toolbox           |
|  \\    /   O peration     | Version:  v2012                                 |
|   \\  /    A nd           | Website:  www.openfoam.com                      |
|    \\/     M anipulation  |                                                 |
\*---------------------------------------------------------------------------*/
FoamFile
{
    version     2.0;
    format      ascii;
    class       volScalarField;
    location    "400";
    object      omega_0;
}
// * * * * * * * * * * * * * * * * * * * * * * * * * * * * * * * * * * * * * //

dimensions      [0 0 -1 0 0 0 0];


internalField   nonuniform List<scalar> 
18232
(
0.0217728
0.124591
3.88482
0.0862426
0.0258112
2.42212
0.216538
0.0230161
0.0220048
0.232767
0.0258217
0.0229812
0.425207
0.226951
0.0675672
0.271212
0.0550319
0.145663
0.023609
1.09818
2.89264
0.153417
0.412185
0.0239562
0.0218005
0.0228201
0.0288897
0.375939
0.0204493
0.0480844
0.0228241
1.23975
0.0508943
0.0237373
0.0821068
0.0228755
2.97487
0.284475
1.29765
0.0213147
0.072359
0.021611
3.84413
0.0239276
0.0746085
0.0256102
1.96303
0.0490236
0.0664864
2.26953
0.053838
0.0628318
0.020953
0.0961883
0.0215492
0.0218555
0.261642
1.83744
0.022617
0.0596411
0.108708
0.666751
1.23234
0.336521
0.0299317
0.0238905
1.23148
0.0254464
0.026019
0.0225517
0.021656
0.0197878
0.377439
0.0216441
0.106982
0.0216099
0.0297517
1.27478
1.24515
0.0531345
0.153362
0.0814913
0.182737
0.0540995
0.0197614
0.250383
0.026001
0.0232299
0.341576
3.56186
0.036741
0.021815
0.101797
1.94074
0.0301253
0.0526712
0.0233031
0.0217585
0.0233543
0.0305776
4.05701
0.583926
0.0214935
0.0207377
0.0216476
0.374163
0.0236276
0.30663
0.273347
0.627058
0.493012
0.0291902
0.0981648
0.287991
0.0207101
0.0283455
0.0301678
0.379435
0.341366
0.0239835
0.0197857
0.381736
0.0239177
0.283686
0.0215816
0.0239761
0.0327896
3.73767
0.110679
0.0589828
0.027742
0.0812246
0.0212878
0.0212258
0.025307
0.0204307
0.0887365
0.0613405
3.14024
3.29318
0.0204542
3.06579
3.85441
0.188278
0.0236647
0.0235548
0.0327787
0.159597
0.0240066
0.026336
0.145231
0.0212402
4.08522
0.0382771
1.80835
0.132014
3.78295
0.0633461
0.0273635
2.96554
0.0225844
0.748746
1.82916
0.298161
0.627009
0.0212509
0.119302
0.304761
0.0214923
0.133365
0.0231201
0.550804
0.109641
0.0216411
0.0204058
0.0207886
0.182144
0.0236669
0.0208162
0.0207942
0.0214286
0.346545
0.033943
0.271902
0.0205573
0.0210999
0.0231462
3.07603
0.0623462
0.0844212
0.0250289
1.02661
0.0212347
0.0210899
0.0229929
0.0213731
0.118787
0.0234368
0.0340342
0.0215801
0.0250971
0.0217311
0.0223187
0.0203952
0.0235947
0.0276108
0.0573431
0.0221908
0.0253708
0.0205928
0.0204915
0.0236111
0.020991
0.0537287
0.0223093
0.243318
0.0292709
0.0215025
0.450852
0.155375
0.0390623
0.0517804
0.358919
0.471298
0.0357028
0.0216481
0.0269104
0.0250501
0.0549746
0.0832526
0.167225
0.020494
0.0204401
0.0209369
0.0300297
0.0207987
0.030523
0.122406
0.0346702
0.0256566
3.16985
0.0217144
0.025144
0.0300686
2.02998
0.0223907
0.0569733
0.0337495
0.0209787
0.0204268
2.99547
0.0567081
2.61493
0.063126
0.0847978
0.127603
0.0258458
0.251738
0.0212374
0.0212708
0.464061
0.021007
4.17513
0.0246412
0.0237978
0.116776
0.11222
0.0261448
0.0217017
4.1671
0.0226718
0.0295753
0.143562
3.02254
0.220768
0.0216703
0.204398
0.023816
0.0217689
0.213157
1.29181
0.367029
0.845873
0.0204126
0.0511103
0.0221035
0.0242021
0.0219789
3.50802
0.186419
3.88232
0.471735
0.0204345
0.0257003
0.0257669
0.0270349
0.0218944
0.0205202
0.0245724
0.384913
0.0252458
0.163469
2.66156
0.0209626
0.0204508
0.0212831
0.0240442
0.0582202
0.0234653
0.0213005
0.023807
0.10171
0.346386
0.0214823
0.0280122
0.230064
0.0226747
0.0265281
0.0415296
0.019842
0.0238203
0.586633
0.114407
0.0212446
0.102194
0.804989
0.0228701
0.024039
0.0235308
0.0212699
0.0493718
0.114499
0.237841
0.0238595
0.058222
0.115709
0.0214576
0.0235661
0.0423303
0.143874
0.125775
0.182062
0.0289475
0.120631
0.0374033
0.0576448
2.07171
0.0219099
0.0237795
0.0205116
0.0217907
0.0757496
0.05316
0.0233438
0.0260083
0.020554
0.328991
0.0214971
0.0236021
0.0230651
0.0236964
0.215247
0.0729291
0.023532
0.0238477
0.0218068
0.0222376
0.0232841
0.0578622
0.022205
0.0221791
0.0296785
2.20577
0.0240798
0.0298579
0.0214983
3.82671
0.0200082
0.0229748
0.634148
0.505226
0.0217602
0.023775
0.0609546
0.0199315
0.0198208
0.0335559
0.0517743
0.0283819
0.0229975
0.0318329
0.378034
0.0211358
0.0231206
0.025323
0.026985
0.618773
0.0219859
0.561851
0.0318889
0.120834
0.0207093
0.0300408
0.0316612
0.26175
0.0736887
0.0289781
0.20051
0.0901929
0.0314607
0.50278
0.0283828
0.221695
0.0229582
0.0237798
0.0252709
0.0268244
0.265047
0.0208087
0.0254382
0.0272922
0.929953
0.372921
0.0545978
0.0348789
0.0543623
0.128152
0.0239995
0.0227838
3.84739
0.166727
0.0259108
0.0231634
0.0219689
0.0207173
0.0206228
0.134063
0.0475095
0.0210643
0.0582096
0.0238369
0.0241478
0.370385
0.0233441
0.0239071
0.0235133
0.073206
0.381839
0.0210141
0.0241417
0.34645
0.028214
0.128679
0.02149
0.0216203
0.0216217
0.0241538
0.472301
0.0371437
0.0214871
0.0230004
0.0241183
0.0290838
0.0226018
0.033023
0.0317674
0.021299
0.427463
0.0198282
0.0197796
2.52372
0.0322535
3.56085
3.74852
1.04797
0.0220152
0.0220062
0.0217318
0.217251
0.0212466
0.0206975
0.0215079
1.37396
0.0205795
0.0214915
0.0213522
0.12946
1.22773
0.207319
0.0289158
0.029406
3.2997
4.31989
0.0205988
0.360871
0.0238083
3.68735
0.0221373
0.0280152
0.020454
0.319614
0.0222232
0.0210992
0.0239466
3.16674
0.0204799
0.0370818
0.0212645
3.34025
0.0237457
0.0536437
0.0218148
0.0345092
0.0215016
1.20089
0.0294408
0.022106
0.0215085
0.0217148
0.0209366
0.0204128
0.0215331
0.0237786
0.0221396
0.0217416
0.021818
0.0774498
0.64633
0.024383
0.0735183
0.0216643
2.37155
0.360922
0.0211873
0.123821
0.0287867
0.85972
0.0213565
0.48723
0.021431
0.0212718
2.59093
0.0323077
0.033594
0.185607
0.0226339
0.0286387
0.0206147
3.91663
0.0210284
0.0564217
0.0272994
0.0591507
0.0235109
0.118092
0.0495074
0.0209781
0.0219323
0.0217504
0.0371897
0.0353031
0.0217206
0.0216271
0.372106
3.83649
0.35653
0.0520587
0.0479397
0.232426
0.114176
0.0211418
0.567814
0.0212174
0.0354019
0.0210451
0.0217771
0.0204145
0.0284974
0.0206915
0.245989
0.0281413
0.0223063
0.216368
0.848108
1.08798
0.0213411
0.140891
0.0223116
0.0262335
0.0196961
0.0222944
0.0204652
3.759
0.0274907
0.0213666
3.27062
0.0229312
0.0622831
0.378342
0.0204155
0.0434764
0.512395
0.27058
0.0241787
0.028179
0.0209476
0.0213802
0.0213265
1.73507
0.0339944
1.01057
0.0222288
0.0281705
1.27077
0.0215741
3.30847
1.716
0.035346
0.0231325
0.0224948
0.0208263
0.0209558
0.0717068
1.43157
0.0395382
0.185279
0.311452
0.080174
0.054334
0.0287726
0.0907413
0.0237329
0.0227783
0.0839104
0.355682
0.0602564
0.0563582
0.0211092
0.0234786
0.0412528
0.346548
0.101899
0.0205542
0.0239221
0.385347
0.0318549
0.349234
0.0281351
0.0362129
0.0204438
0.0487409
0.020591
0.0739571
0.201994
0.0215011
0.0210433
0.0252143
0.126517
0.0222915
0.0255796
0.0810995
0.0459986
0.0240794
0.0211309
0.0568905
0.155293
0.0807421
0.023737
0.0198156
0.02745
3.82304
0.0231841
0.0267195
0.105947
0.0217998
0.0214173
0.0367616
0.0394515
0.0210243
0.0242469
0.024835
0.0214729
0.152617
0.025993
0.0247278
0.0251577
2.10883
0.0293176
0.0228748
0.0242217
0.0412446
0.0211106
0.0223732
2.5982
0.0347694
0.0272821
0.0219581
0.0216207
0.358737
0.0368711
0.440324
0.0248116
0.0237074
0.0290736
0.182372
0.0264075
0.0585111
0.064003
0.0214708
0.0282946
0.0246547
0.0289864
0.0237759
0.0215155
2.38251
0.0260862
0.0343105
0.0544626
0.0216192
2.1356
0.0410984
3.2938
0.0360961
0.0418042
0.0238297
0.0277183
0.022605
0.0273295
0.172418
0.020524
0.0273615
0.0399416
0.0240399
0.0216392
0.368458
0.026216
0.0313541
0.0246267
0.525664
0.0232642
0.112388
0.355254
0.0287772
0.161582
2.80212
1.20816
0.0256191
0.199039
0.0553905
2.10938
0.0305691
0.0245956
0.0577547
0.0216731
1.93912
2.39025
0.0216034
0.125177
0.0353264
0.307895
0.0236915
0.0210526
0.121532
3.01525
0.0220252
0.0318674
0.116139
0.0268956
0.0221694
0.0670706
0.0833486
0.0417779
0.674748
0.021765
0.0331136
0.0212129
0.0465689
0.0682945
0.207719
0.0224899
0.284104
0.0248886
0.0538752
0.0245845
0.0232702
0.43221
0.0287414
0.327997
0.0205044
0.0215216
0.146511
0.107287
0.0210414
0.0289599
0.0284551
0.0216566
0.0205946
0.0505016
0.0409244
0.390718
0.0940717
0.0269974
0.0364453
0.0214351
0.0353985
0.0353467
0.0484384
0.0366727
0.0211966
0.0206398
0.548128
0.030128
3.97134
0.812229
0.023444
0.0369733
0.0243561
1.97796
0.0228105
0.0234442
0.0222707
0.0254744
0.022778
0.125543
0.0216357
0.392174
0.0198399
0.0325068
0.0332677
0.021975
0.0204921
0.0216193
0.0204911
0.0506108
0.0214967
0.0418407
0.117796
4.36782
0.0882184
0.0216003
0.13767
0.0323063
0.0251778
0.0273847
0.0247072
0.124769
0.390426
2.10537
0.386612
0.0216643
0.0249267
0.0301218
0.0199619
0.0372995
0.0242965
0.656602
0.127993
1.87616
0.0284258
0.0243455
0.0641928
0.0277956
3.00921
0.0234628
0.432167
0.0286942
0.0212732
0.278801
0.0214305
0.055356
0.0254242
0.0523693
0.0853064
0.025294
0.0224407
0.0213641
0.0253485
0.0261014
0.450933
0.129094
0.0764105
0.0241743
0.0204624
0.522078
0.252073
0.0262106
0.0351666
0.57627
0.350547
0.0553415
0.0218091
0.0443137
0.0298611
0.0411655
0.0280485
0.0212543
0.0258127
0.0215944
0.133083
0.0216174
0.0289391
0.0246315
0.0245752
0.533424
0.0236035
0.0209595
0.0214462
0.0205352
0.0215805
0.021714
0.0534928
0.0211558
0.0947807
2.53898
0.539512
0.0215973
3.31687
0.124424
0.330104
0.0242974
0.0803806
0.533168
0.0226578
0.0277625
0.0278051
0.0330062
0.087065
0.0530741
0.0322548
0.581028
0.0217108
0.0273024
0.0272922
0.0210795
0.0212425
0.0210863
0.45873
0.447487
0.0800362
0.023388
0.0217409
0.0233867
0.116141
0.0212161
0.0225677
0.273962
0.0212275
0.128165
0.0272173
0.0206741
2.02414
0.0207262
0.0406675
4.35764
0.0268895
0.0217372
0.025302
0.137102
0.453613
0.395521
0.920216
0.05579
0.0204602
0.0214967
0.477566
0.0353659
0.0203994
0.0218296
0.0307029
0.0213086
0.485739
1.9888
0.355027
0.0297896
0.625644
0.158175
0.367291
0.0244534
0.0390745
0.0211952
0.494419
0.0220279
0.0242883
0.375686
0.0575155
0.0216631
0.0551599
0.0203865
0.0539714
0.0275987
0.0278086
0.0250158
0.0221885
0.0302763
2.49232
0.0211322
0.139854
0.0350504
0.0237364
0.0210887
0.0214833
0.0250453
0.215588
0.0211567
3.00225
0.0334794
0.397939
0.0212208
0.0411507
0.0293182
0.0228682
0.020414
0.0214765
0.0291247
0.0475499
0.0212519
0.0636525
0.0462681
0.10328
2.312
0.0230572
0.0231962
0.0208765
0.0307929
0.0260487
0.0247008
1.64782
0.021333
0.0312688
0.0250768
0.126397
0.522664
0.0673041
0.0216611
0.025174
0.0204212
0.100201
0.0211017
0.0215776
0.411581
0.143108
0.0209623
0.0289554
0.405394
0.0239953
0.0226601
0.562148
0.0270374
0.0218585
0.0688888
0.430224
0.0209182
0.152799
0.0283651
0.0211686
0.0405459
0.020583
4.38155
0.024609
0.0211655
0.631466
0.0219938
0.0254617
0.0226946
0.02287
0.0204088
0.0268629
0.0251858
0.138813
0.0214999
0.184309
0.0208979
0.16252
0.250103
0.0472463
0.499055
0.0205379
0.0931422
0.0211921
0.450315
0.0204492
3.54604
0.0980657
0.422083
0.0311281
2.32808
0.214953
0.130779
0.0295148
0.0254182
0.0445819
0.0925026
1.22806
0.0277098
0.0429831
0.0915727
0.0253456
0.298403
0.021025
0.0321243
0.416292
0.0204542
0.0209268
0.0259079
0.0214145
0.0204413
0.619493
0.0209216
0.186483
0.0215062
4.26417
0.519613
0.0213096
0.0225601
0.0229766
0.0250287
0.209187
0.0336966
0.547825
0.0259813
1.42945
0.0219527
0.0234634
0.0206007
0.0216249
0.0204073
3.90632
0.0204316
0.0217168
0.021188
1.29142
0.0273459
0.0287921
0.142884
0.028383
0.0208917
0.107934
0.0206548
0.0216502
0.0215409
0.0893527
0.0210177
2.12496
0.0206211
0.0209947
0.0864925
0.0208905
0.0206615
0.133431
0.147738
0.216309
0.335308
0.0282042
0.0221778
0.0223402
0.0248519
0.0604037
0.519868
0.434286
0.021403
1.15292
1.43696
0.0237479
0.0207294
0.0265548
0.141291
0.288258
0.023844
0.0238345
0.0210986
0.0320503
0.0234809
0.146654
0.0218828
0.0921263
0.0204549
0.0214935
0.440542
0.0415091
0.0242686
0.228384
0.0204451
0.709023
0.0207002
0.0207779
0.49179
0.0229535
0.0234218
0.183594
0.020702
0.0262161
0.0210498
0.0493518
0.0204108
0.283196
0.0218075
0.0349509
0.0611117
0.021585
0.062896
0.021723
0.0225022
0.0236143
0.0280003
0.460265
0.0448026
0.021798
0.0218837
0.362927
0.0216762
0.134073
0.0246559
0.0250188
0.0267144
0.0213219
0.0275065
0.0592133
0.0708325
0.352358
0.334301
0.0333406
0.0723841
0.377609
0.0217232
0.0313762
0.0213638
0.0236712
0.0197246
0.021506
0.0734789
0.0196934
0.271229
0.0275931
0.021787
0.0318019
0.0224978
3.64114
0.0227786
0.36918
0.022189
0.0266961
0.0502071
0.0281244
0.440761
0.0246448
0.502955
0.0248398
0.0378884
0.145558
0.0242696
0.441993
0.0207986
0.0250528
0.0208168
0.0216636
0.0207799
4.36315
0.0198969
0.0216937
0.0274252
0.196987
0.460859
0.0233917
0.125941
0.0208822
0.0209235
0.024134
0.0229989
0.0223157
0.0217728
0.0225002
0.0230861
0.133618
0.0288149
0.0207607
0.0222317
0.0269999
3.14833
3.77394
0.0925579
0.0256377
0.325311
0.0371101
0.0835758
0.0223796
0.0434676
2.23912
0.0212326
0.0204612
0.0232931
0.0324132
0.308021
0.0227064
0.0214359
0.0237488
0.0210384
0.0691526
3.57068
0.0226109
0.0796296
0.0420306
2.38055
2.26991
0.0256539
0.0283361
0.0683269
0.0222427
0.0268168
0.296326
0.0266183
0.0232824
0.297022
0.0646583
0.027433
0.0662591
0.0232808
0.0419273
0.024292
0.0230395
0.258382
0.0219581
0.0220651
0.0372629
0.463607
0.0216163
0.423964
0.0227548
0.151583
0.0216658
0.023622
0.0279358
0.0286076
0.0338777
0.0355871
0.0221251
0.708409
0.021356
0.0579017
0.0501152
0.0365257
0.0222909
1.22013
0.0211807
0.021403
2.26099
0.0214181
0.613311
0.024155
0.112358
0.0277383
0.0212458
0.341442
0.0221324
0.0624191
0.324665
0.0211343
2.30791
0.349988
0.0283795
0.0197328
0.0525965
0.175468
0.0292561
0.67418
0.0267398
0.0276715
0.240587
0.468289
0.0218214
1.4692
0.297057
0.0214168
0.0220361
0.0969664
0.155574
0.0240283
0.141854
0.426448
0.275807
0.0285217
0.0365278
0.0275754
0.0249561
0.0205506
0.258986
0.428198
0.0214755
3.34053
0.0210093
0.0211833
0.323613
0.33834
0.0213577
0.0224981
0.168983
0.615858
0.0284426
0.0342004
0.0215436
0.28157
2.33991
0.0391951
0.0249359
0.0890214
0.0229383
0.649981
0.0306523
0.022553
0.0253329
0.0216937
0.0222138
0.0215901
0.026154
0.399115
3.62549
0.020936
1.791
0.0680282
0.672639
0.0355918
4.63365
0.0416684
0.0254028
0.0219386
0.0209961
0.0252743
0.0459302
0.0246416
0.0217785
0.19691
0.0614772
3.04083
0.0490564
0.278686
0.025386
0.0645275
3.88203
0.0593509
0.0305498
0.0277546
0.0223749
1.88421
0.0223261
0.0716544
0.0900336
0.021635
0.376216
2.28711
1.0448
0.0284706
0.39775
0.323154
0.273562
0.0213101
0.410726
0.449722
0.377819
0.419737
0.0213669
0.310162
0.0209969
0.0231549
0.0953896
0.210198
0.256326
0.360818
0.0419211
0.422614
2.33924
4.31972
0.0218539
0.0213104
0.0217428
0.63737
0.0609124
0.335781
0.0287862
4.01703
1.6134
1.00043
0.0419074
1.64422
0.0282358
0.0248414
0.0282689
0.441289
0.0225264
0.0259248
0.0245172
0.671442
0.0303644
0.0676325
0.0228591
1.14869
1.14964
0.168094
0.074359
0.468029
0.0232563
0.0267688
0.163801
0.146635
0.141972
0.063607
0.0232137
0.381689
0.0266839
0.0283196
0.998291
0.0208106
0.0216037
0.0515041
0.613996
0.0204957
0.485759
1.13972
0.0615922
0.0272007
0.14414
3.21023
0.0358987
0.502609
0.0230048
0.0361604
0.181537
0.0265947
0.0246761
0.0352244
0.0899915
0.0273739
0.0243895
0.143667
0.0603817
0.25518
0.0234978
0.041401
0.504174
0.358849
0.437089
0.0258264
2.43386
0.0211511
0.530883
0.029862
0.0220216
1.2814
0.393737
0.0289472
0.0268287
0.0239138
2.19339
0.0304907
0.0300872
0.0305851
0.0212744
0.0911495
1.55858
0.0371481
0.0217975
1.25422
2.4045
1.99729
0.160476
0.0242866
0.0250887
0.0220653
0.0226068
0.0222429
0.393203
0.137125
0.0218536
0.020463
0.022476
0.0251068
0.0818418
0.0307899
0.157364
0.0215342
0.0356121
0.0212764
0.175703
0.0216048
0.0222053
0.130121
0.218258
0.0252705
0.0266186
2.17197
2.6142
0.0733752
0.0214241
1.42574
3.12029
0.0444687
0.290405
0.0541431
0.0223846
3.5491
0.038501
1.45738
0.0211592
0.0739018
0.0257739
0.10177
0.023355
0.0223766
0.0307606
0.0257469
0.0385887
0.123692
0.0235381
0.0258006
0.0243965
0.0591254
0.0213883
2.03262
0.0208764
0.101651
0.0235014
0.0415446
0.0368906
0.0401587
0.0211496
0.0271714
0.0616671
0.137672
1.72344
0.0648817
0.0212295
2.935
0.0253064
3.37015
0.0281648
0.0270719
2.30119
0.0212809
0.475502
0.0360213
0.0211806
0.0310103
0.027816
0.0239511
0.0211804
0.0835529
0.0209728
0.0244911
0.0833662
0.0221209
0.480267
0.0223709
0.0805177
0.0215223
0.0272094
0.200344
0.243068
0.0230491
0.0233168
0.0211072
0.0231029
0.0209957
0.0235485
3.54732
0.347625
0.0472253
0.0228038
0.0322347
0.0703121
0.0920205
2.462
0.0211857
0.0236359
0.520327
0.0679356
0.58988
0.0262183
0.334733
4.31375
0.0417512
0.0218062
0.0698086
0.219615
0.0264126
0.0231254
0.0230843
0.0213657
0.0228561
0.0286268
0.0677392
0.0215776
0.0209324
0.0802155
0.0236482
0.104421
0.288269
0.0255626
0.04781
0.420004
0.025158
0.235637
0.0230291
0.0233423
0.0288232
0.0482656
0.0249136
0.0282525
0.0253384
0.372669
0.11553
0.517767
2.19206
0.0562939
0.0265574
0.0259881
0.0217927
0.0264125
0.020016
0.203469
0.0215846
0.0253352
2.19186
0.0211125
0.023637
0.467678
0.0239054
0.0247735
3.57834
0.0849381
2.14866
0.439157
0.021728
0.0232385
0.194078
2.92291
0.0315585
0.203623
0.157904
0.606535
4.31298
0.148389
0.0211623
0.0838966
0.0215501
0.123908
0.161196
0.0280928
0.516563
0.0285
0.114341
0.0212153
0.0577626
0.121537
0.0227837
0.113607
0.0217192
0.0577408
0.0213966
0.457414
1.24939
0.143432
0.367874
0.0823878
0.0281618
0.0212372
0.025846
0.0211365
0.0250354
0.0640462
0.34223
0.0202702
0.0214964
0.0210352
0.025852
0.0204783
0.121263
0.143471
0.0211747
0.0241593
0.0362995
0.0375126
0.0252783
1.85069
0.0236867
0.0208839
0.0222121
0.0771622
0.0748501
0.128094
0.292569
2.00569
0.0254794
0.30508
0.467327
3.7074
0.025063
0.324166
0.0203998
0.362301
0.0277843
0.254863
0.0218117
0.0225451
0.0303573
0.275455
0.358094
0.0389346
0.0234057
0.0212199
0.0219641
4.05224
0.0825172
0.0218409
0.0222802
0.0301466
0.0216186
0.133871
0.577122
0.038634
0.0267338
0.0442511
0.0826095
0.0213148
0.0861596
0.0236639
0.0227207
0.0243631
1.40393
0.247403
0.0734943
0.0957413
0.0224756
0.0219233
0.0267486
0.021008
0.0238511
0.385001
0.0247438
0.252716
0.0212642
0.0358269
0.0334848
0.0228841
0.297739
2.43556
0.094619
0.185315
0.0256194
0.443845
0.0526485
0.0354883
0.318385
1.4089
0.023324
0.021341
0.0376652
0.0247986
1.33422
0.154353
0.0213787
0.0217855
0.0442909
0.0700599
0.0335555
0.0219613
0.0276945
0.0652787
0.0266299
0.299324
0.652638
3.7894
0.0214618
0.0254737
0.0239625
0.0654507
0.0785536
0.0208976
0.0344362
0.045841
0.0328665
0.0262039
2.77546
0.64296
0.0589572
0.0457027
0.0276967
0.0209551
0.0678598
0.0215668
0.680468
0.54802
0.0237467
2.64553
0.020744
0.499146
0.0207821
0.0277886
0.0225393
3.21684
0.0354327
4.55909
0.0424031
0.0211841
0.0292804
0.0411377
0.0537422
0.55129
0.431225
0.0210944
0.0251602
0.0227269
0.453341
0.0234425
0.0235141
0.0229346
0.305154
0.0215379
0.0231855
0.0378083
0.314875
0.0230146
4.2971
0.0256845
0.0271673
0.0229131
0.045792
0.0725828
0.0362414
0.027138
0.0233717
0.021074
0.0239854
0.0284205
0.021064
0.235566
0.0214359
0.0602027
1.99681
0.0277403
0.0211457
0.0210501
0.0215052
0.383252
0.021506
0.0232449
2.15744
0.028316
0.0753395
0.0226917
0.0242963
0.0207986
0.0312871
0.360705
0.132847
0.195756
0.170911
0.0226905
0.0222665
0.0241215
0.0692748
0.025675
0.0217562
3.01424
0.233097
0.0232202
0.0215286
0.0501579
0.0208105
0.0633249
0.025248
0.0339087
0.98525
0.0477063
0.0228008
0.0431848
0.0212874
0.0237336
0.0202892
0.0214734
2.18322
0.0215032
0.0234015
3.41002
0.025549
4.16359
0.0229779
0.0221564
2.24198
0.0664016
0.022622
0.531604
3.15221
1.22047
0.0211288
0.379191
0.0240297
0.953318
3.15982
0.0208172
0.130606
0.0277748
0.027098
0.0288358
0.0531243
0.0215383
0.0214775
0.027681
3.0809
0.0225899
0.0736012
0.0205468
0.0198749
0.107856
0.0222412
0.218753
0.397002
2.80946
0.0215534
0.0232124
0.0279586
0.0210725
0.0422644
0.296638
0.0756096
0.0217115
0.850043
0.0943337
0.0215328
0.022086
0.0273656
2.57248
0.0253546
0.113565
0.256513
0.1834
0.0240151
0.0671272
0.113476
0.0232629
2.4
0.267716
0.0310371
0.351897
0.0214898
0.657493
0.0208939
0.0206894
0.0222081
0.0211457
0.0207008
0.0255625
0.020534
0.0207741
0.0410118
0.0225303
0.0330784
0.0208436
0.133191
0.0221466
0.0208014
0.0271962
0.0987085
0.0221964
0.0220195
0.0230613
0.0871149
1.62573
0.0310226
0.0258501
0.0204761
0.0215092
0.0723386
0.0223074
0.212686
0.0729329
0.285705
0.234596
0.0221059
0.493501
0.241278
0.219876
0.0218466
0.15787
1.3535
0.0743524
0.0248431
0.0226122
0.020263
0.022156
0.130657
0.0384671
0.0247863
0.0858342
0.0378382
0.0256149
0.0219329
0.0214702
0.0202761
0.0483683
0.116467
0.145718
0.0368934
0.102816
0.224306
1.12634
0.0349134
0.0201124
0.0347062
0.0233985
0.0283366
0.0214327
0.024332
0.0223975
0.0231439
0.0254701
0.0217307
3.01458
0.024351
0.0233532
0.478083
0.0300572
0.101456
0.021556
0.0276336
0.0223822
0.127767
0.0421275
0.0361067
0.0201531
0.0253848
0.0251623
0.0245571
0.0300134
0.592422
3.08797
0.0278947
0.227678
0.0215085
0.0601408
2.96951
0.0736973
0.201405
0.184666
0.0297258
0.0201927
0.021035
0.0227077
1.27193
0.154069
0.031478
0.0714117
0.0208056
0.225113
0.894718
0.0249796
0.02331
0.119396
0.0262915
0.459824
0.0327444
1.58128
0.0216147
0.510521
0.0210477
0.0224621
0.0220584
0.183136
0.230778
0.373706
0.0278274
0.0225732
0.0310766
0.0240185
0.059111
3.58532
0.0209952
0.377335
0.0247531
0.0383891
2.15963
0.0207415
0.021382
0.0235889
0.0287413
0.0217459
0.0326949
0.0285505
1.836
0.0287744
3.37656
0.0211466
0.16301
0.0215508
0.0218049
0.0215076
0.0215776
0.0293433
0.0200651
0.108357
0.0697124
0.107129
0.0229135
0.0214863
0.155522
0.0250517
0.0286939
3.53703
0.0221878
0.0213632
0.0241665
0.292304
0.0302322
0.0216109
0.0250774
0.0216466
2.28497
0.283177
0.0650013
0.273582
0.181474
0.0273831
0.942913
0.0219759
0.0989268
0.0207794
0.0351033
0.0221438
0.169374
0.0211202
0.0225467
0.0387261
0.0208129
0.0208451
0.0215887
0.0256625
0.105674
0.0212398
0.0250933
0.0229154
0.0243757
0.214926
0.110118
0.0215588
0.116885
0.0794598
0.351788
0.0560309
0.126252
0.195403
0.244095
0.0273816
0.020736
0.0213464
0.0764388
0.0379238
0.0257545
0.0221288
0.0208896
0.0218204
0.0228883
0.0281416
1.34104
2.0966
0.0225754
0.0227348
0.0209605
4.01879
0.0263936
0.0335241
0.0211321
0.0207883
0.114191
0.055707
0.0315206
1.66096
0.0242687
0.538126
0.0244097
0.133882
0.0493642
0.0214752
0.0219232
3.0827
0.0269671
0.0396405
0.0564283
0.331731
0.0288537
0.023259
0.141671
0.206645
0.0208382
0.189877
0.14587
0.0224856
0.0223511
0.0264293
0.0228084
0.0296348
1.03657
0.538272
0.542831
0.0207616
0.0240275
0.0269299
0.0269805
0.051601
0.107252
0.0282278
0.0670855
0.0232699
0.0227843
0.0239776
0.0338442
0.0577789
0.0225759
0.0406129
0.0216684
0.020238
0.0447251
0.333176
0.337323
0.0236873
2.1835
0.0214578
0.168303
0.0394422
0.0214898
0.0230785
0.0319795
1.54338
0.0280496
0.0203249
0.0212497
0.0225171
0.0223698
1.82981
0.303765
0.0215247
0.317982
0.570803
0.0231033
0.028645
0.0223954
0.0405494
3.76821
0.0543452
0.0222573
1.43849
0.188421
0.028146
0.0290548
0.022766
4.45443
0.139654
0.0520463
0.104128
0.0219958
0.0231081
0.0226155
0.0897948
0.0504804
0.333729
0.118369
0.407401
0.0271014
0.0303159
0.0250619
0.0510861
0.0399296
0.0717747
0.0210678
0.0597162
0.0221379
2.14217
0.0215574
0.0251247
0.0335195
0.0270075
0.0221531
0.316305
0.025574
0.0402813
0.0215223
0.0213197
0.0269703
0.42784
0.105416
0.0307209
0.0654287
0.0242302
0.0224467
0.0206191
0.329426
0.0241692
0.0327828
0.192295
0.0241464
0.0214707
3.2577
0.133366
0.452319
0.0709643
0.0219013
0.0553111
0.427945
0.484219
0.0203151
0.199943
0.0391801
0.272952
0.0216187
0.0364635
0.231733
0.370372
0.0215249
0.0275261
0.0337922
0.191585
0.0212129
0.388096
0.0337905
0.0225867
0.0235769
0.113555
0.515063
0.724291
0.0516915
0.024516
0.0285085
0.0253291
0.0432454
0.0986266
4.25546
0.583305
0.0214386
0.0197029
0.0510071
0.0228746
0.0214034
0.39045
0.0266611
0.315948
0.0224907
0.022449
0.0514107
0.0969726
0.0933158
0.0747335
0.339568
0.126088
0.0232119
0.0201805
0.0204588
0.0460164
0.0221383
0.689646
0.021618
0.0215879
0.022911
0.243793
0.0218927
0.0210742
0.0791379
0.0579373
0.108706
0.0203322
4.36796
0.0215629
0.0217966
0.303535
0.0209255
0.0472457
0.0230265
0.0302414
0.0215162
0.0221282
0.0425401
0.0231483
0.021137
0.0214044
0.0202047
0.0533756
0.328296
0.0209599
2.65048
1.1444
0.0217198
0.0246985
0.0230449
0.0214573
0.0201771
0.0293468
0.0612517
0.0662924
0.130033
0.305955
0.370795
0.0224246
0.0215541
0.0263719
0.199661
0.320821
0.057612
0.0220031
0.0214789
0.0392555
0.0256378
0.136798
0.0246525
1.17344
0.0205516
0.0409982
0.0276231
3.23791
0.021943
0.0224642
0.0235659
1.26896
0.11739
0.0311483
0.424121
1.15523
0.176675
0.257098
0.156659
0.0280397
0.0554618
0.0778465
0.0507143
0.0768571
0.287553
0.0778444
0.027529
0.0222519
0.022238
0.0213483
0.0230364
0.0235616
0.421765
0.129927
0.65491
0.1716
0.10909
0.0227352
0.105928
0.0882604
0.0378868
0.0255803
0.174867
0.293844
0.0212762
1.33193
0.462569
0.035571
0.0413969
0.0216968
0.0253273
0.0385001
0.0248891
0.0209611
0.138078
0.0218805
0.0234825
1.90273
0.0283864
0.0438951
0.226802
0.0222944
0.0419922
0.0250796
0.0232285
0.021625
0.020602
2.36968
0.0321889
0.10465
0.10826
0.0215961
0.300412
0.32265
0.168315
0.0206682
0.021412
0.0245609
0.0226858
0.0210834
0.0325956
0.0233993
0.0215288
0.0244696
0.135605
0.0315287
0.0245372
0.0253946
0.0216598
0.0214644
0.0273961
1.37644
0.0295308
0.0211531
0.175937
0.0238307
0.0272158
0.116974
0.151731
0.280749
0.110316
0.0212367
0.370765
0.137746
0.545229
0.0206611
0.0444567
0.0281895
1.40483
0.0218594
0.0207177
0.0277812
0.0246103
0.0228278
0.0231785
0.0215047
0.0196997
3.92899
0.0218265
0.0231076
0.0212412
0.0664567
0.0231574
2.27643
0.0213739
0.142637
2.34098
0.0414256
3.14487
0.200917
0.0231459
0.0215351
0.0218693
0.267164
0.0252212
0.0213998
0.0233811
0.64002
0.0736689
0.0221845
0.0219194
0.0210713
0.0221439
0.31163
0.0210517
1.42846
0.126857
0.0393678
3.41935
0.19439
0.0209293
0.0202171
0.118284
2.26081
0.0244302
0.0218432
0.0299994
0.108175
0.022915
0.0213953
0.0289696
0.0223005
0.0237451
0.0385804
0.027582
0.559176
3.84026
1.07031
0.0210397
0.0409243
2.15191
0.0236316
3.83162
0.0636395
0.136833
1.37772
0.0201345
4.07775
0.0247137
0.0229289
0.0246925
0.113189
0.0771926
0.0213763
0.0613149
3.85722
0.115937
2.17444
0.116674
2.85252
0.0226873
0.0682498
0.068415
0.0209081
0.0334011
0.0577328
0.0215749
0.123479
1.81882
0.0638779
0.0214619
4.10121
0.573408
0.0215353
0.0266927
0.0395778
0.0233908
0.0203306
0.379667
0.520928
0.0317012
0.0213839
0.0209832
0.0221175
0.0229783
0.28175
0.0887601
0.0254989
0.0985249
0.0211542
0.235204
0.0367294
0.0216583
0.0534245
0.0252694
3.69509
0.0596768
0.405299
0.388262
0.0408563
0.0246816
3.15208
0.0210304
0.123416
0.0223162
0.045625
0.0218696
0.0527782
0.350459
2.42397
1.8673
0.212005
0.0221786
0.0209086
0.0228696
4.3026
4.21806
0.194083
0.0818852
2.32079
1.97821
0.022393
1.24041
0.345834
0.0217202
2.9957
0.0240566
0.0740073
3.33195
0.0200684
0.0613016
2.48128
0.0628153
0.0223339
2.13001
0.0230354
0.378319
4.13672
0.0386712
1.38463
0.370749
0.186018
0.0643272
0.0252801
0.08853
0.0688527
0.0214056
3.38887
0.0227506
0.0214976
2.30756
0.163328
2.22826
0.0613636
2.10414
0.0201323
0.0200885
0.0214517
0.253193
0.0204232
0.119316
1.84594
0.176898
0.0200945
0.0308944
0.0288545
2.16501
0.365761
0.125146
0.103424
0.369147
0.335337
3.28374
0.0321731
0.0225844
0.0409253
0.397624
0.375336
0.387648
0.0215019
2.74205
0.0228002
0.023497
0.121564
0.0244765
0.0281464
0.0288609
0.0288174
0.0201887
0.0211307
0.20314
0.0234503
0.0219997
0.0233318
0.346366
2.45613
0.0270558
0.0282187
0.0645467
2.29632
2.26725
0.0277795
0.289965
0.0687593
0.0658825
0.020685
0.0239278
0.0225614
0.0219388
3.01174
2.15764
2.32701
0.0607908
0.0222237
0.112988
1.66465
1.2024
0.0215464
0.0511472
0.0215963
0.0209252
0.0207469
0.0346815
0.0274106
3.05356
0.0424259
0.226948
0.024595
0.313099
0.0231624
0.0238003
3.35546
0.0324792
0.0227126
3.10055
0.0210686
0.0312024
0.403448
0.0288426
0.0231106
0.0239903
0.0253049
4.03934
0.0281263
0.25484
0.021302
0.020716
0.0274669
0.0216015
0.0873066
4.25455
0.0214627
0.0269921
0.0254852
0.275515
0.029265
2.11175
0.0304088
0.227146
0.0686288
2.28816
0.269676
0.214077
0.028913
0.195345
0.0214071
0.0201509
3.03696
0.0411922
3.33074
0.937378
0.0229123
0.18045
1.22332
2.04222
0.0223991
0.0216645
2.03801
0.021886
0.023615
0.669727
3.06222
0.0209595
0.0211074
0.0221743
0.0421925
0.0226076
0.0398743
0.17297
0.0250525
4.07303
0.210013
0.30879
3.02688
0.0449485
0.0472874
1.31059
0.220112
2.85689
3.47603
0.022958
0.119727
0.022877
1.93179
0.918116
0.0715937
0.273865
0.0215816
0.0254096
0.0263629
0.0225087
3.46021
0.0214923
0.0216422
0.0252348
0.394046
0.186502
0.250244
0.0202005
0.0332204
3.11474
0.0594889
0.0214883
0.0559757
0.0209708
0.111141
0.443985
0.0242644
2.71073
0.0807984
0.249362
0.167311
0.0214307
0.0209241
0.0216406
0.340337
1.53763
0.0231044
2.58609
0.0324978
0.0210733
0.024102
0.0974716
0.0248389
0.0326896
0.0795105
2.11324
0.022941
0.0229572
0.26031
0.0222619
0.0208988
0.022735
0.0215421
0.0303291
0.0213099
0.0228836
1.10069
2.68507
0.0233778
0.0717894
2.91828
0.118746
0.345834
0.183737
0.191727
0.0211707
0.0968821
0.271882
0.0276995
0.12272
0.0229168
0.0226423
0.27167
0.0243107
0.311131
0.0237929
0.0244559
0.0231958
0.0794519
0.0219805
0.020625
0.137621
0.121802
0.0220704
0.114235
0.02515
0.158583
0.089718
0.0313368
0.0209174
0.0228119
2.4574
0.305375
0.0200828
0.0222524
0.0347049
0.0443022
0.0268378
0.231242
0.0220474
2.79237
0.0215373
0.0265294
0.0624983
1.92934
0.295369
0.0227615
0.0214908
0.911671
0.0532027
0.0226992
0.310296
0.0219008
0.261732
0.18756
0.0223635
0.0412098
0.162868
0.299596
0.199716
0.0362995
4.42097
0.0213918
0.0698306
0.158121
0.0228403
0.0201888
0.0334831
0.294923
0.187107
0.024642
0.170776
0.0222765
0.0227249
0.0221767
0.0226543
0.0222212
0.0447792
0.0335985
0.328632
0.106092
2.51435