/*--------------------------------*- C++ -*----------------------------------*\
| =========                 |                                                 |
| \\      /  F ield         | OpenFOAM: The Open Source CFD Toolbox           |
|  \\    /   O peration     | Version:  v2012                                 |
|   \\  /    A nd           | Website:  www.openfoam.com                      |
|    \\/     M anipulation  |                                                 |
\*---------------------------------------------------------------------------*/
FoamFile
{
    version     2.0;
    format      ascii;
    class       volScalarField;
    location    "250";
    object      ddt0(k);
}
// * * * * * * * * * * * * * * * * * * * * * * * * * * * * * * * * * * * * * //

dimensions      [0 2 -3 0 0 0 0];


internalField   nonuniform List<scalar> 
18649
(
0.0262959
8.03817e-08
0.027476
4.19899e-06
-2.82252e-07
-0.00386055
3.18513e-08
-2.06527e-07
0.00273758
-0.00238662
1.3931e-07
-1.02058e-07
6.74558e-07
-1.91951e-07
-4.72656e-05
1.691e-06
2.71029e-07
2.37845e-08
-0.00245445
8.05746e-08
-1.13066e-07
-0.00235776
-0.00989588
3.56317e-06
0.000445152
-0.0104752
-0.00390576
-0.00721886
-7.15635e-08
0.00211174
-6.13877e-06
-1.60872e-05
3.63766e-07
9.44579e-07
-5.35488e-08
-1.64597e-06
0.00131573
-3.49222e-06
1.12836e-07
-2.36214e-07
-0.0246585
2.42091e-07
2.21228e-05
-0.00943659
-0.00129894
-0.00390843
-0.00400681
7.89668e-07
-3.5278e-08
-2.27956e-07
3.23061e-06
-0.0114161
1.50579e-06
-0.0260329
3.27362e-06
9.70701e-06
0.0368484
-2.72729e-08
-5.35553e-06
-0.00431657
-5.74555e-07
-5.21755e-06
-7.76684e-08
0.0238428
0.00354339
-0.0105185
-0.00313303
8.21058e-07
-0.00124
-0.00459619
-0.00444559
6.34393e-07
2.22143e-08
-8.5998e-08
0.000104179
-0.0107139
0.0166005
-5.88591e-08
-0.00200179
-0.000116303
2.2446e-05
-4.17945e-05
-0.0221254
-0.000859479
-4.85815e-08
1.2573e-05
7.41218e-08
-3.59765e-06
-0.00052533
-6.83913e-05
0.000113457
1.98808e-06
4.94896e-06
0.00025096
-4.55236e-07
6.15681e-07
-1.27846e-06
2.96553e-05
-0.00812639
-5.36456e-07
-0.0227633
2.974e-06
-7.24938e-05
-2.9887e-07
0.00347335
0.00176746
-0.0161372
1.17004e-05
1.81918e-06
1.77935e-08
-5.27322e-08
2.30828e-06
-2.6749e-07
1.19923e-07
-4.42758e-07
5.29976e-06
7.85317e-07
3.87276e-07
-3.06803e-08
6.88472e-07
-8.23684e-07
-2.01449e-06
0.0193353
1.15635e-07
-1.4261e-07
3.30601e-07
0.0224846
-4.02835e-07
-7.47234e-07
3.26243e-06
-5.26187e-08
0.0198498
1.20281e-06
-4.58772e-06
-4.38769e-08
0.0767273
4.48918e-06
3.27991e-07
0.00550166
-0.0015035
9.32057e-07
-4.25514e-08
-5.75279e-07
3.43759e-07
-0.00619759
-1.07234e-07
1.69859e-09
-1.08986e-05
0.000548955
-1.71552e-07
0.0112106
-0.00467886
-3.83774e-08
3.24503e-08
6.13498e-07
-5.95799e-06
-1.12473e-07
1.73324e-06
-4.25183e-08
-0.000738884
-0.0111722
0.0127804
-2.26895e-07
0.00879517
0.0004931
-6.68362e-08
-0.00587904
0.00128778
-2.53218e-06
-3.6421e-07
2.16972e-07
6.48907e-08
-2.65292e-07
5.74432e-07
5.2137e-08
-0.000436176
-0.00766741
-6.25688e-08
0.00223746
-0.00658497
-9.66477e-08
-0.00070931
4.57805e-06
2.06917e-06
-1.04535e-06
2.23406e-06
2.66594e-06
5.11782e-07
-5.64106e-07
8.04837e-07
8.12945e-07
0.0121752
-0.0115118
-2.01951e-06
7.34188e-06
-2.6599e-07
1.2974e-05
1.19462e-05
-0.000101047
1.16236e-06
8.77779e-07
2.22016e-08
0.00549891
2.21366e-08
3.76758e-07
7.51846e-08
-3.95252e-06
-0.00740447
3.88671e-07
2.50419e-07
-5.16276e-07
-2.96158e-07
4.01857e-07
9.92412e-07
0.034317
-1.2903e-06
5.69456e-08
9.93205e-07
8.38804e-07
-0.00508796
-0.00250532
0.00205991
0.053459
0.0035469
0.00865088
-0.00636223
0.000252684
0.0107731
-3.96486e-08
-0.00123128
1.38134e-07
5.56188e-05
1.18729e-06
-5.32509e-08
-0.0201147
-9.50337e-08
3.19507e-07
-1.54306e-06
5.3138e-07
4.10131e-08
5.5793e-06
0.00110551
-0.00226615
-0.00284022
0.00500574
-1.39596e-05
-2.00516e-06
-3.84911e-08
-0.00229516
-1.33781e-06
-2.8275e-05
-0.0135997
-1.10744e-06
0.00013837
1.36113e-06
-7.18835e-08
-3.23665e-07
-4.31233e-07
-0.00191935
-9.90603e-07
-2.87292e-06
-2.54083e-07
-2.06653e-06
4.02544e-06
3.08791e-07
0.00151413
-1.00862e-07
-0.00721222
2.90975e-06
6.88033e-06
0.00575423
0.00011765
-8.76092e-08
5.38577e-06
0.000115303
-2.41082e-07
-4.76866e-07
7.42382e-07
6.2652e-06
-7.09045e-06
9.84167e-06
4.12202e-07
-0.00906916
5.53574e-08
3.15622e-06
4.67362e-06
9.61925e-06
-5.62302e-08
-0.00320542
-1.83211e-07
-9.80629e-08
-0.0104531
-5.04157e-09
-5.15871e-07
0.032216
-0.000817925
0.0311276
-0.0014073
4.08868e-07
5.65437e-07
-2.52644e-07
0.00850271
0.00302637
0.000928575
4.49947e-06
-0.00510935
-0.00647953
1.53646e-06
1.68348e-06
2.84215e-06
-1.10253e-07
-0.000269242
-9.45649e-06
7.16407e-06
-4.12624e-07
0.000109747
9.29873e-07
-4.7396e-05
0.0163201
7.16622e-06
-0.00701308
9.50479e-07
-7.07973e-07
-5.12964e-08
-0.0014031
-5.30271e-08
0.0329382
0.00768185
5.04075e-07
-1.52941e-08
-1.13839e-07
-0.0114049
-3.43709e-05
1.19445e-06
0.0265537
-1.06482e-07
-0.000993409
-0.00423212
2.09707e-06
-9.99609e-06
-2.8429e-05
-0.00249347
-0.000260068
-0.00430266
0.00313528
1.41417e-06
6.37363e-07
4.74035e-08
-0.00293731
-0.00453008
2.97601e-07
0.046141
-2.22369e-07
-1.45982e-06
1.42208e-06
-2.02625e-06
5.55248e-07
0.000818673
2.22514e-05
1.76118e-06
-2.03052e-06
0.000459701
-0.00534867
4.30435e-06
-0.0198183
-0.00592268
-4.23456e-07
-1.92e-07
-0.00118352
4.27095e-07
8.89693e-07
-0.0108926
0.00149559
2.80576e-08
-0.000183376
-4.37006e-08
0.0332987
-0.000859106
-0.00012459
-1.694e-06
-9.00586e-06
8.52412e-06
1.25921e-06
8.826e-05
-0.00078373
-5.45892e-07
-5.01132e-05
-4.54069e-08
-1.35109e-07
-3.85275e-08
-2.10987e-05
8.05612e-05
-0.00202629
-4.83895e-07
0.00673114
0.000155058
-0.000122713
4.27474e-06
-2.55674e-07
2.14857e-06
9.25145e-06
-0.00864282
2.20843e-07
-8.45232e-06
1.4439e-05
-1.31129e-07
-3.71185e-08
-0.0106702
6.86217e-06
2.53313e-07
-3.66893e-08
-6.4123e-05
1.35784e-05
-6.29653e-08
7.15676e-06
1.66834e-06
-0.0109949
4.33004e-06
-3.32479e-07
2.68964e-07
1.82803e-06
-0.0010714
2.82058e-06
0.00242051
-0.00422345
9.84776e-08
-0.00166234
-0.00801604
1.05234e-06
0.00448379
0.00579274
-2.98717e-08
2.06476e-06
3.26767e-06
0.0217823
2.05279e-07
-1.98452e-07
-0.0231352
7.41934e-08
-7.63811e-07
1.53419e-08
-3.35859e-08
-5.17033e-09
1.23957e-06
-7.09307e-08
-2.11798e-06
-4.06589e-07
8.1727e-06
0.00600663
1.39489e-06
-2.74765e-07
0.0249448
-2.24572e-07
-0.000314233
1.70628e-06
-3.124e-08
-6.87191e-08
7.71244e-07
-0.00112445
5.18323e-06
-1.00332e-06
-0.000180693
1.76325e-07
-0.00581436
-0.0200962
5.032e-06
-1.81737e-08
-4.2237e-05
-6.26788e-08
-4.73072e-07
4.64821e-05
-1.84077e-06
5.03642e-07
1.02142e-05
0.000733925
9.72313e-06
3.57919e-08
-2.12596e-06
1.65842e-06
-0.00162366
7.27604e-07
-2.55764e-05
2.50263e-07
-4.60727e-07
2.99703e-05
0.00613369
-1.58989e-07
-0.0147022
-0.00855188
1.17938e-08
2.51256e-05
-0.0201008
-9.96039e-05
-0.00636876
-5.21319e-08
-0.00653867
0.000800233
-4.1662e-08
-2.41922e-07
1.5841e-06
-0.000427218
3.09621e-07
-4.00661e-07
1.02234e-06
-0.0117681
-0.0120105
-0.000119039
5.94236e-08
-9.06948e-08
0.000598162
-2.30352e-05
1.0624e-08
4.50545e-08
4.48517e-06
3.95669e-06
1.18114e-06
-0.00729994
-1.26766e-07
7.74274e-06
-1.29625e-07
1.45712e-08
1.27519e-07
-1.69728e-08
-0.00153258
5.85518e-09
0.00125321
0.00117778
-2.16863e-06
-0.000902865
2.28398e-06
1.14289e-07
-5.35598e-05
7.33038e-08
2.83705e-07
8.15498e-06
-4.55874e-07
-8.6348e-07
9.01046e-06
0.000918048
-5.08397e-08
0.050075
-3.04136e-05
-0.00426598
-1.73555e-07
-3.85378e-07
-0.00706923
0.00314812
1.21257e-06
-1.88841e-05
-3.70476e-08
-2.51381e-06
0.0191005
4.17432e-05
1.53985e-06
1.62369e-08
0.0110202
-1.525e-06
-0.00520446
-1.7221e-07
-2.40522e-07
-0.013234
-0.00197213
-9.63874e-06
1.58711e-06
1.10557e-06
6.59023e-06
0.0198966
4.84416e-06
1.5871e-06
1.50758e-06
8.97917e-07
1.14439e-06
-0.000163704
-3.64863e-07
0.014564
-4.37038e-07
-0.00934151
-4.1188e-07
0.0110128
-6.09015e-08
-8.91189e-07
-9.52348e-08
-0.00019702
-0.000219138
-6.37486e-08
2.74643e-07
-2.26513e-08
3.53843e-07
-0.00951658
-1.3327e-07
7.31121e-08
8.02612e-07
-4.88376e-05
-4.01306e-06
-0.0184156
4.98358e-08
-6.66175e-08
-1.02688e-05
1.31619e-08
0.00406652
-1.09092e-05
-0.0014032
-4.7705e-07
1.47975e-06
-1.06441e-07
-0.00162034
-5.16235e-08
-0.00617632
-4.58382e-08
-0.00433949
-6.15505e-08
-0.00866816
-0.00046924
-9.41023e-08
-6.13137e-06
-3.46825e-07
-3.27692e-07
-8.70611e-07
-8.65404e-06
6.06229e-05
2.55543e-08
-0.00828417
-1.79184e-05
-6.23675e-07
2.67649e-05
9.7553e-07
-0.00170238
-0.00464447
-0.000633525
-0.0015946
-5.19779e-08
0.00579372
0.040685
-4.12775e-08
0.00163792
-0.0188221
-2.20036e-06
0.00481127
-3.28349e-08
0.000926151
-4.38671e-08
-5.95833e-06
0.00158526
-2.91093e-07
3.5153e-05
-1.96045e-06
6.12367e-07
8.69579e-08
-4.01523e-07
-0.0135209
-6.78468e-06
1.88014e-06
-0.00541157
-0.0140466
1.40484e-08
-0.00283166
1.7196e-05
-1.19467e-06
0.00519597
-4.86373e-07
-1.8273e-08
-0.0108264
-2.47485e-07
3.17613e-06
-0.00957463
-4.44129e-08
3.40211e-05
8.14955e-06
2.53628e-07
5.49482e-07
-0.00141187
1.23245e-06
5.36183e-08
-3.61758e-07
0.015513
-0.018986
0.000135653
-1.78776e-06
-0.00770412
0.00380162
1.6994e-07
-0.0317412
0.0415259
-3.58536e-09
-8.64452e-06
-3.5586e-07
8.12522e-07
2.06067e-08
-2.3284e-08
-1.69157e-07
-3.22505e-07
-4.93457e-08
-0.0134238
-0.00026805
-0.0162423
-3.90876e-07
-9.3467e-06
-0.00389098
-1.64494e-07
0.00327929
-5.4474e-06
-0.000349063
7.65043e-07
0.000463086
1.80235e-06
-0.000355501
0.000359298
0.00144126
-2.91673e-07
-7.2349e-05
0.00277486
1.76821e-06
0.00380218
-2.72502e-07
-0.0117397
-2.81291e-07
-1.53292e-06
-0.0213186
-3.76553e-07
2.40792e-06
3.94186e-08
4.44393e-07
0.000356944
-9.38148e-05
-2.95075e-08
-0.00288341
-0.0197606
0.00122091
-2.9341e-07
-0.0230451
-4.12463e-07
-2.40574e-08
0.0158463
-0.00827658
1.85469e-06
-2.89361e-05
9.06059e-07
0.0124544
-3.69357e-07
-3.4027e-06
-0.0176439
2.21146e-05
2.20711e-06
-4.69537e-06
1.37273e-05
-4.32242e-08
-4.66761e-07
-4.01076e-07
-0.000155449
1.41539e-06
2.32608e-07
8.40579e-07
0.00826835
0.0143356
-5.19589e-05
1.07576e-05
7.19775e-07
0.00489801
-4.63332e-07
5.4515e-07
1.11231e-06
2.62161e-06
1.88268e-06
-6.95628e-08
1.08132e-07
-3.70611e-07
-0.00187509
-6.45956e-06
0.00214107
0.00337171
1.60611e-07
6.22289e-06
0.00295205
-7.94577e-08
-2.06055e-07
-1.05614e-07
-7.64386e-07
0.00738302
1.18959e-06
-0.00273752
1.89218e-05
3.77655e-05
-2.14937e-07
1.39907e-08
6.6139e-07
3.03429e-07
-0.0075123
0.0271197
-0.025254
-0.0345688
-0.00013552
0.011071
-2.57569e-08
2.50266e-09
0.0113947
1.97684e-06
0.000631535
1.22537e-07
3.84605e-06
-0.00661821
0.0131332
0.00313395
-0.00341809
1.49066e-07
4.84018e-07
2.23638e-07
9.06532e-08
-2.17726e-06
-0.00217192
-1.19761e-06
-5.14596e-08
1.61741e-06
7.12049e-06
0.0476331
-0.00715228
3.46148e-07
-6.02294e-08
4.76538e-06
4.01652e-08
-1.29472e-07
6.98947e-07
3.18468e-06
1.64923e-06
0.000430735
9.72795e-08
-3.54421e-06
-2.11083e-06
-4.97365e-08
-4.23967e-07
7.56214e-05
-0.0130851
8.84425e-05
-2.57639e-06
-4.37995e-05
3.25863e-07
-1.5587e-06
-0.00886137
1.37357e-05
3.29882e-06
3.78322e-07
3.96478e-08
0.00777155
2.42691e-07
-6.88488e-07
-4.45944e-06
-1.06145e-06
-8.95896e-07
0.0437986
4.92151e-06
3.55187e-07
-0.00274677
-6.14887e-09
1.28657e-05
0.000594531
-0.00770591
1.34466e-07
-7.85071e-06
-1.64056e-07
-1.32665e-06
3.17404e-08
-0.000287632
-1.24577e-06
-0.00311894
3.63863e-06
-9.88136e-07
-6.55445e-11
-5.73591e-08
0.000180853
-3.44773e-07
-1.49298e-06
-2.47826e-07
0.025045
0.0032803
-0.00877999
2.18688e-06
-3.95311e-08
8.13213e-08
0.00174344
-7.97255e-07
-0.0111423
-0.00321153
-0.000211189
1.11698e-07
-0.014453
0.00172496
-3.86152e-08
5.73525e-06
0.00276651
-0.00707128
-4.89336e-08
7.35415e-07
5.89967e-08
0.000195911
-0.000304349
-1.61492e-05
4.82206e-05
5.76332e-07
7.85941e-07
2.78904e-06
3.93365e-08
5.17826e-07
-3.14047e-07
-0.0106822
-0.000514236
1.02406e-07
9.50621e-09
-1.52761e-07
1.39477e-06
-1.52038e-07
0.00797757
-0.027659
1.11475e-05
-3.83563e-07
-1.16132e-07
-4.31772e-07
0.01571
-0.000259382
6.04957e-06
0.0453245
1.8123e-06
-0.0244058
-0.0174157
0.000128708
-3.76929e-07
-5.0138e-06
-0.04227
-7.77671e-07
-0.00269729
1.13096e-07
2.39003e-07
-4.05651e-07
2.18215e-06
3.23248e-05
1.43084e-06
-2.63165e-06
-0.00735065
-4.08387e-08
-0.00523169
-0.0187128
0.00374101
6.06919e-06
-0.0022451
-4.78372e-08
3.4194e-06
-0.00054431
1.65786e-07
-3.98958e-08
-0.0079744
-0.00233094
-0.0033162
4.26919e-05
2.04112e-06
-3.32258e-06
4.96512e-06
1.00727e-07
-0.0193694
0.00269489
-7.62821e-08
1.68521e-08
-0.00213577
-1.05187e-07
-0.00391172
3.35359e-07
5.32439e-05
-0.00480546
-7.92906e-06
-0.000850682
-3.26324e-05
-0.000162348
2.45792e-07
-0.00212257
0.0125366
2.58461e-06
0.00421984
-0.00593255
-1.15836e-07
-1.86511e-07
-4.54147e-08
-0.000201835
3.63192e-05
0.0444841
5.95429e-08
-0.00244487
0.0139937
-4.34146e-08
-6.88811e-08
-6.80883e-08
0.00164894
1.14737e-06
0.00614722
-1.79537e-06
-0.00204205
5.2496e-08
-0.0135517
-1.22351e-07
0.000570011
-5.4411e-07
-0.00435961
0.00198463
0.0337445
-0.022659
-4.604e-07
4.19928e-08
-0.00946918
-3.19926e-08
6.10639e-07
0.00386004
0.0339412
5.80063e-07
9.06565e-07
-2.35576e-07
0.00365543
-0.0140167
-0.00555316
-0.0179644
4.7544e-07
-3.1215e-06
3.09768e-07
0.0214791
1.02903e-05
0.0128397
7.59292e-05
4.94925e-06
-0.00230946
-0.00066177
0.0302169
-1.36146e-05
-6.35502e-05
-8.83191e-08
-2.33562e-06
0.0254776
3.7872e-06
9.2644e-05
4.55369e-07
-4.94038e-08
-0.00594474
-3.22636e-07
0.0059222
2.19194e-07
-0.0203
-9.38531e-09
0.00124377
4.31926e-05
-0.0184817
-0.00546275
2.28991e-07
-0.0241566
9.88647e-07
4.52039e-07
0.00549074
0.00960117
-5.49799e-07
2.37276e-07
0.00526722
-4.31714e-05
0.0369001
2.88974e-08
0.020711
1.98848e-06
4.31259e-06
-3.64935e-08
0.000231821
6.4362e-08
-2.15899e-07
7.24103e-07
0.00345033
-0.0108791
4.73107e-09
-9.72183e-08
-3.56666e-07
0.0494395
6.36197e-07
-1.88712e-07
0.0279934
0.0147655
0.0297223
1.83575e-08
-2.34424e-07
-0.000541064
-4.39692e-07
0.000742955
-0.00749032
-3.26121e-08
-5.4336e-07
-9.91094e-08
-0.0234792
0.0451027
-0.0014589
-3.59684e-07
-5.64152e-08
0.00063903
1.65727e-06
-0.00253593
-0.00650706
0.000185047
8.72269e-06
-1.86217e-08
0.0079141
-4.52544e-07
-3.3732e-07
-4.63641e-07
4.79066e-08
0.00100968
8.78153e-07
0.00103442
1.31033e-06
0.105317
0.000225123
-1.20587e-07
-1.22841e-05
0.000185485
0.0336359
-5.82073e-08
2.24173e-07
4.08808e-05
2.51149e-06
0.0138119
-0.00347276
0.00840129
0.0019672
0.00390009
1.95646e-06
-1.02225e-07
1.31148e-08
-7.01458e-07
-1.21065e-05
-5.84609e-07
1.56951e-07
-0.000162224
3.18186e-07
-0.00711988
2.01556e-05
2.92124e-06
-0.0110917
0.00400965
8.96014e-08
1.02422e-07
-0.000158936
2.54943e-06
6.77816e-06
-8.38685e-06
-8.22024e-08
-1.35477e-07
0.0109765
0.00814135
-0.0222267
-2.48295e-08
1.62668e-07
2.28062e-08
4.76885e-06
6.37409e-08
0.0149064
-4.5758e-07
-0.00300614
0.00121317
-1.45509e-07
7.07338e-06
3.36395e-07
0.00423107
3.10879e-06
0.0374563
1.00074e-06
0.00203375
-1.42004e-08
0.000370857
-7.19007e-08
0.000865164
-2.92946e-05
-0.00112165
-4.90457e-06
3.59863e-08
-1.39212e-07
8.56994e-08
-3.48956e-07
-5.02341e-07
-4.09409e-07
-1.26462e-08
0.0256615
0.000227924
-2.44218e-08
-0.0101101
-3.88408e-05
5.16722e-06
-0.00119617
6.08056e-08
-5.84049e-07
-0.000146303
5.43226e-08
-9.44335e-08
0.00325108
-2.24434e-05
-3.9774e-05
2.09911e-07
-5.22967e-08
0.00220447
1.64627e-06
3.09475e-06
-0.000159286
-3.64589e-07
8.54411e-07
6.27465e-08
6.10785e-06
1.44764e-06
-3.40957e-07
-0.0322358
2.30985e-06
-2.75778e-05
-0.000100497
5.47798e-05
1.2644e-06
0.0479308
6.06705e-07
-7.66859e-09
-9.56305e-07
-1.91591e-08
5.95246e-06
-3.41153e-08
8.3178e-08
6.64501e-06
0.00228409
5.50764e-08
-9.61742e-08
8.13345e-07
-1.23264e-07
-6.89645e-07
-0.000923795
-0.00395601
-1.91605e-07
-0.00219081
2.73601e-06
8.66564e-06
0.00157439
0.0276965
-9.26355e-07
-6.70557e-07
-7.38296e-08
1.38373e-06
0.000982436
5.57848e-07
0.002089
6.40441e-08
-0.000352885
1.56865e-07
-6.75168e-08
-0.0120865
-5.50707e-06
0.000841259
-0.0182531
-0.000156482
-6.50936e-08
-1.26469e-07
-7.62698e-06
-0.00013745
8.36416e-07
-0.0112854
0.0274805
-2.04915e-07
-2.86762e-07
2.21647e-06
0.00308201
-4.44465e-07
1.93595e-08
3.28357e-06
-1.72395e-07
-7.5418e-05
-0.000130399
-0.00646743
-0.00821925
-0.0495971
0.00362081
0.0317599
-0.00473301
0.0951094
0.0045547
8.42417e-08
7.53591e-08
-0.000173799
-0.00442743
-3.90627e-07
2.592e-07
0.000897621
-0.0132335
-1.13983e-05
-2.28185e-06
8.80589e-06
-0.0115013
-1.01574e-07
-4.60276e-07
-1.32118e-08
0.00194012
1.7686e-06
-0.00687701
-2.2821e-08
7.26954e-05
4.05855e-06
2.40584e-07
0.000474633
7.22977e-08
-3.43811e-08
-1.35926e-07
-4.03239e-06
7.23504e-06
-0.00704973
-0.0015064
-3.10258e-08
-1.10199e-07
-2.83367e-08
-3.0439e-08
0.00947894
-3.56001e-07
-2.93253e-08
-3.35686e-06
8.44834e-08
-2.86008e-06
7.83436e-08
1.73037e-06
-0.0036112
-0.0189644
-0.0231659
4.9238e-07
-1.59437e-07
-4.48561e-07
-1.38297e-07
5.25776e-05
0.00709742
2.23039e-06
1.33024e-06
6.83903e-07
0.00738187
8.89483e-07
0.00855184
-4.67227e-07
0.00318798
-2.72974e-08
2.65632e-06
0.000522302
-0.000362413
-0.00506742
0.00920874
0.00466321
-8.10521e-08
0.00473352
-3.38987e-06
0.0333103
0.0109819
5.99081e-07
4.11199e-05
6.39216e-07
-7.7014e-07
-0.0127177
6.28143e-07
-4.7953e-08
-0.042864
1.31906e-06
-9.13845e-10
-1.64935e-06
7.82853e-07
-6.86185e-08
0.0129979
-9.879e-08
-2.96586e-06
0.0101071
-3.73101e-08
-9.68392e-05
-8.4527e-07
4.85567e-09
2.17849e-06
6.35676e-08
0.00133262
1.88958e-06
0.0059133
-3.41029e-05
4.55762e-06
-8.03237e-08
1.22393e-07
-1.52279e-07
-0.0222136
1.57745e-06
-6.89784e-09
5.90234e-06
2.36398e-08
-8.58678e-06
-0.0107218
5.79339e-08
-0.0187006
1.44564e-07
-0.000543051
1.16005e-06
3.55519e-08
-3.9456e-05
0.00135405
-7.07804e-08
0.00395358
0.0114194
-0.000582799
1.50395e-08
0.00125713
0.00361875
-7.79647e-08
-0.0190649
-3.92682e-07
-0.000333829
-5.20102e-08
0.00707169
0.007542
1.84289e-06
-1.15322e-07
1.24188e-05
-4.84414e-08
6.46129e-08
2.07538e-06
-0.000140222
4.48199e-08
-0.00629759
0.000765184
-4.97015e-08
-1.14286e-07
3.7195e-06
-6.4798e-06
-2.62437e-06
-1.13864e-07
-5.35219e-06
-1.62489e-08
1.46085e-06
1.94111e-06
4.27345e-05
7.65527e-08
-2.1158e-08
5.13365e-07
-0.0458794
-0.0125809
-1.73705e-07
0.0306907
-0.00929547
0.0382983
0.0364392
-1.62961e-06
-6.91299e-08
3.50078e-07
-1.34746e-07
-6.64159e-08
-0.000371999
2.66364e-07
2.15486e-07
1.90698e-06
5.60138e-09
-0.00289238
-7.26494e-06
-0.00094042
1.44619e-07
0.000555434
3.25463e-07
-0.0231195
5.95289e-07
-1.70199e-07
-9.64876e-07
0.00337312
-4.52902e-07
-1.06043e-07
-0.00106645
6.24247e-07
-5.07963e-08
-8.14281e-07
-0.0198829
-0.00105098
-8.86837e-08
3.51159e-07
-0.00905916
-0.0016403
-0.0190989
1.09015e-07
-1.5032e-08
-0.000235729
-8.96347e-08
-0.00139891
0.0121883
4.44264e-08
-8.30032e-07
0.0125491
4.77991e-09
-4.16492e-08
-4.75748e-07
0.00579692
1.58221e-06
-9.68984e-06
0.00296358
-0.00233333
0.00200598
0.00126323
0.0260488
3.88039e-08
8.2944e-08
-1.06867e-06
2.01072e-06
-1.52084e-07
-0.000223262
-1.72032e-07
-0.0172094
-4.21969e-07
0.0109611
-0.0181005
0.00441738
6.87323e-07
-1.2509e-07
0.00419943
1.39237e-06
-3.86732e-08
3.15391e-06
-0.00464442
-0.0338099
1.79216e-07
6.89382e-08
2.16278e-06
5.65696e-08
6.67586e-08
-2.43442e-06
-0.0222301
-5.21058e-07
0.0125126
1.15878e-06
0.00213016
0.000228871
0.00126452
-0.0211742
1.00242e-06
-0.00023356
2.23598e-06
-8.66825e-08
-1.92164e-07
1.22245e-07
0.000521914
-2.20495e-07
-0.00250706
-1.04613e-06
0.00770285
-1.86285e-07
1.67078e-06
1.23474e-05
0.0179644
-0.0192014
0.000104045
-7.61662e-08
-2.23185e-08
9.05737e-08
-2.84572e-07
-1.32631e-07
0.0157641
-9.58314e-07
-0.00203105
0.00151104
-3.64618e-07
5.8867e-08
1.88757e-08
0.00335062
-0.00379655
-0.0219528
1.22721e-05
-1.4336e-07
-0.00224041
-0.00240688
1.19012e-08
1.53785e-07
-0.00213815
-0.019875
1.91782e-06
-0.0152303
4.02028e-05
8.07845e-07
-0.012543
-1.14585e-06
1.34249e-06
0.00337372
-1.82573e-07
4.78267e-08
7.8453e-07
7.05913e-07
-1.48369e-07
-1.24879e-07
-6.29525e-07
1.24168e-07
2.73863e-07
3.6147e-07
-6.69775e-07
-1.81753e-07
-1.86565e-06
-2.4827e-08
1.60374e-05
5.62847e-07
-0.00336285
-8.45598e-07
0.00247397
-5.42912e-08
0.0112605
5.61917e-07
0.00430578
6.87235e-06
-3.5448e-08
-9.66413e-08
4.74725e-07
3.85617e-06
3.80332e-07
-0.0133272
2.34093e-06
-5.95013e-08
-0.00509652
-1.14809e-06
0.00203604
-0.00538133
-0.0161725
0.0126222
-1.46243e-06
0.00508454
-8.36309e-07
1.31361e-06
1.57112e-08
3.03754e-08
2.85853e-07
1.58509e-06
-0.000389685
0.000439739
4.53115e-07
-1.03649e-07
-8.56042e-06
-0.0184697
-1.86864e-07
8.09889e-08
-2.92548e-06
4.77995e-08
-1.30957e-07
-0.0114694
1.02322e-06
0.0115883
-2.01337e-06
8.97281e-05
0.00450736
4.17597e-05
-6.84416e-07
-0.0117161
0.000576889
0.0213369
-0.00748582
1.69641e-06
1.02938e-07
-5.33256e-07
-1.14327e-06
3.15785e-08
0.0474046
3.00814e-06
0.0128622
2.34625e-06
7.19526e-07
-1.07432e-06
-3.68531e-07
0.00333692
0.00756607
-0.0135298
-1.40386e-07
-2.03941e-07
-0.00834788
0.0269057
6.54459e-08
-0.0132902
-1.72363e-07
1.57029e-06
1.26243e-07
-3.92781e-08
-0.0302411
8.49133e-06
2.63778e-07
-4.72911e-07
0.000246916
4.5489e-07
4.51656e-09
0.000355045
-9.57908e-08
0.004812
0.00443425
-3.552e-08
1.71427e-05
-4.07945e-08
-0.000270211
0.00170065
5.27517e-06
-3.79899e-07
-7.27233e-07
-2.02568e-07
0.0162886
6.1045e-06
0.00216758
1.3046e-06
0.0110248
-0.0147387
1.44695e-06
0.0052827
0.00139325
-7.21019e-07
-0.00751136
0.0285166
2.13801e-06
0.0329151
-3.69249e-06
0.00638163
2.85316e-06
-2.0338e-07
-0.00761238
0.00863711
0.00928303
0.000451644
0.00116292
3.965e-08
-1.6857e-06
-0.00298799
2.12201e-05
0.0123098
2.87616e-06
5.13972e-07
0.0028914
-9.41101e-08
9.06101e-07
0.06299
0.000244828
3.83188e-07
-0.00161196
3.25043e-08
0.00198078
0.102274
1.18249e-06
0.0079045
-3.32192e-06
4.7154e-08
-0.00209606
-3.17841e-06
4.35885e-07
-3.39815e-08
-0.000652065
0.000215857
-6.68884e-07
-3.4512e-08
1.20529e-06
-0.00209311
0.00371719
-0.00562808
1.39429e-06
0.000467794
-8.22102e-07
1.27477e-07
0.000798978
0.00494308
4.39174e-06
0.0276044
0.000920477
-0.0158453
5.64994e-08
-4.12392e-07
-0.0183132
0.00321067
-7.71691e-05
2.68349e-06
-0.00543811
0.00213961
-0.00393686
1.80224e-07
-2.52559e-07
3.31502e-07
-1.41232e-06
4.5583e-07
-3.26985e-06
-5.85004e-07
2.93695e-05
-0.0159931
7.85081e-06
-4.11791e-07
-4.43832e-08
-0.00567511
-1.22589e-05
-1.87213e-05
0.0330463
-1.02546e-07
-1.72004e-05
-0.0566995
-1.75399e-07
-2.95932e-08
0.0015288
2.6139e-07
0.00534915
-5.24595e-08
3.1478e-05
3.07655e-06
-0.0363464
-3.5934e-05
-1.78832e-07
5.29124e-08
-0.00400041
-0.000537232
1.95355e-06
-0.000130311
-0.00627761
0.0371451
-0.00068785
-0.0110205
0.0602696
-8.3111e-06
0.00425091
3.28955e-06
-1.26477e-07
2.08436e-08
-2.5998e-07
-4.74661e-07
5.21718e-07
-4.09826e-07
-0.00121973
-0.00608045
-3.16304e-06
-0.000417211
0.000439783
-0.00643672
0.0312269
-1.32405e-07
0.000544456
0.00138326
3.18666e-06
-9.3459e-07
8.705e-07
-9.45995e-10
-0.000838063
7.86653e-06
0.00888329
-1.09688e-07
8.82835e-06
-0.0365392
2.71297e-06
0.0408439
-3.49985e-07
1.24793e-07
2.32848e-07
3.86525e-07
0.00471637
0.00504935
9.69654e-07
-0.026696
2.33392e-08
-8.95766e-09
-0.0143515
-1.19465e-07
-2.06885e-07
0.00509893
4.31288e-06
2.35902e-06
2.78994e-06
-0.0342296
-1.42074e-07
0.00688161
4.58336e-08
6.74315e-09
0.0126145
0.00813608
-0.000130167
-2.37869e-09
-2.62457e-07
-3.79134e-08
0.013894
0.00131936
2.20214e-06
-4.1015e-07
1.49204e-07
-2.22199e-07
-6.56334e-08
-2.00248e-06
0.00263672
-0.00386841
-0.000139681
4.79944e-05
3.544e-08
0.000895757
0.00309847
-0.00776646
0.00783757
1.50121e-06
2.63377e-05
-7.77124e-09
0.00171532
-0.00704658
-0.00977261
-1.58781e-07
6.96886e-07
1.43416e-07
0.00467582
-0.00173171
-0.000554691
-0.000960809
0.0172295
7.79872e-05
-2.2775e-07
-0.000644929
9.99972e-07
0.0236302
1.39144e-06
-4.3458e-08
6.61413e-06
2.96498e-05
-4.28576e-08
-1.2747e-07
9.34186e-08
-3.05635e-07
-1.09443e-07
-1.06919e-05
0.000792265
0.00019285
-0.0186032
1.12642e-06
-4.86519e-06
-0.0172549
0.00169118
3.23602e-06
1.12213e-06
-0.034196
-3.78283e-06
-0.00106861
0.00575383
-5.65415e-08
-1.73118e-07
-7.2432e-07
0.0199853
-0.0201843
-1.50134e-07
-0.000279003
0.00103629
-0.00682074
-1.5842e-07
1.40797e-08
4.23511e-06
-1.23369e-07
-0.00109065
4.33455e-05
-0.00773783
-0.00918589
2.60723e-06
-3.16438e-07
-0.000433461
-9.11198e-08
0.000734264
-0.00193535
0.000346247
-7.58163e-06
-0.000261991
-3.55976e-07
-2.3359e-05
-2.69978e-07
-0.00894177
0.0181056
-0.00974081
-2.32199e-07
-7.33949e-08
-0.00304816
9.62329e-06
-4.34318e-08
1.46948e-06
-1.19109e-06
9.81259e-07
-8.18224e-06
-3.8591e-05
2.0447e-06
7.29333e-07
0.00116596
0.00243245
-0.0105615
4.55414e-06
5.41462e-06
1.55746e-05
-1.67903e-05
0.0649334
-5.62594e-08
-0.016679
0.00320312
1.62038e-07
-0.0416946
1.25731e-08
1.00328e-06
-8.38566e-08
0.0220659
-0.0301363
1.23457e-06
4.89977e-08
0.00740656
4.54927e-06
5.72996e-07
-0.000681564
9.85152e-07
0.00314047
-0.0242628
-0.0204937
-1.6145e-07
-0.0101641
-2.17424e-06
-5.83532e-06
2.23789e-06
-4.91003e-08
-7.91625e-08
-0.00479816
2.07732e-07
0.00187196
-2.15711e-07
3.96363e-06
-2.51606e-06
1.94475e-06
-7.87694e-08
-1.69128e-08
0.00112197
-7.15001e-09
-0.00167202
-7.4989e-08
1.37744e-05
4.43941e-07
-1.13966e-05
-4.95559e-06
0.00139137
0.000947817
1.77386e-06
6.05378e-06
-0.0169663
6.06632e-07
-1.20757e-06
0.00396233
1.37954e-08
-9.18927e-07
1.24435e-05
-0.0123296
0.0406509
0.0104575
2.0173e-06
2.81814e-06
9.58612e-07
-7.81994e-05
0.021026
0.0828281
2.55981e-07
3.33497e-08
5.2649e-06
0.0374064
1.66688e-07
1.73654e-06
-0.00247353
2.90033e-07
0.000269785
-3.22501e-07
0.00113534
-0.00894828
-0.00150967
1.51562e-06
1.9889e-07
2.91574e-07
-0.00052639
2.31754e-08
6.85498e-07
-0.00639087
-3.80502e-06
4.01174e-08
-1.00741e-05
0.00190646
4.55286e-07
-7.92466e-08
1.88891e-06
4.3675e-06
1.23634e-07
2.31317e-06
-0.0149637
0.000292231
4.66099e-06
-0.00267586
1.2269e-05
-2.35732e-06
-4.95849e-08
-0.00070609
1.27222e-07
-2.33546e-07
0.00158773
4.52138e-06
-4.4268e-07
-4.32369e-08
-3.01813e-07
9.77056e-06
-0.00678803
8.31174e-07
-0.00878687
4.5944e-07
0.00362354
-0.0011193
-0.00231091
-0.00503243
0.00421314
-0.00338972
-0.0161351
-1.03311e-07
5.22151e-08
-0.0114226
3.77219e-07
0.00486493
4.33391e-07
-4.62525e-07
4.67128e-07
6.86907e-07
-6.24765e-07
-0.000104423
-1.65807e-07
3.89757e-06
-0.00266462
-1.24607e-07
-0.00263046
3.29966e-08
-3.45236e-06
0.0012649
0.000869098
-0.0146549
-8.32783e-08
-4.21506e-06
2.27122e-07
-1.99394e-07
1.92887e-06
4.36945e-07
6.80779e-07
-3.26676e-06
-8.51452e-08
2.60989e-07
-1.18951e-07
0.00469576
0.00421414
-6.24538e-06
7.11671e-06
2.69993e-07
4.4442e-05
-1.74185e-08
1.70141e-06
-5.78632e-06
-9.76689e-08
-3.52337e-07
0.0166671
3.61581e-08
0.000240851
-0.0222082
5.42353e-07
0.00738021
0.00401246
6.02473e-06
7.01124e-07
-6.10337e-07
-4.7999e-08
1.93232e-06
-0.0583218
-1.32009e-07
-3.34851e-07
0.00195308
0.0311282
0.00591687
-4.52117e-05
-0.0464038
-0.000140068
0.00204699
-0.0050502
1.48044e-06
-8.07536e-08
4.6793e-07
-0.011749
-0.0122792
3.54803e-07
-1.59253e-07
0.00419018
-0.00360137
-5.20924e-06
7.26391e-07
-1.66932e-07
-1.62318e-07
0.0340557
-8.683e-07
0.00937992
-0.0262796
9.10242e-09
1.47046e-05
-1.90404e-08
6.6288e-07
-3.30253e-06
-0.00441592
0.0230108
1.20194e-05
-2.25175e-06
-0.0173205
-5.43728e-08
3.65712e-07
0.0488846
0.00122082
-0.000283794
0.014027
-5.05075e-05
7.73235e-08
-1.08382e-07
5.69907e-08
0.0133426
-0.00232451
2.88151e-06
6.07088e-07
-2.92038e-08
0.00160141
-0.00629245
2.23007e-07
0.000775661
4.06881e-06
-0.00301688
-9.1079e-05
-1.12971e-07
-0.021092
-2.264e-07
7.56417e-07
-0.0190668
-9.91597e-08
-8.28304e-07
-0.000177345
8.21636e-07
-6.74506e-08
1.43674e-06
-0.0465758
-2.04001e-07
-0.0158599
-7.08237e-08
-0.0107235
0.00210314
0.00332555
-1.05041e-07
-0.00178088
-4.80461e-07
-0.0251506
-0.000721044
-8.22943e-08
0.000183471
1.14692e-06
-2.03046e-08
1.1557e-05
-0.0301096
-1.76807e-06
4.1795e-08
-3.3929e-07
-2.19118e-07
3.32966e-07
0.000946768
9.78952e-07
9.41114e-07
-0.000378941
-0.00537027
0.000834769
1.04951e-06
0.0633621
-0.00655963
-1.833e-06
1.27332e-06
4.54709e-06
1.03241e-08
-0.000174302
3.0591e-08
1.45869e-08
2.12311e-08
-0.000217359
0.00221532
0.00193738
4.32535e-07
0.0120685
0.034186
-0.000891451
0.00455838
-0.00640186
1.44089e-06
1.98247e-07
-0.000173741
1.59926e-06
-1.50237e-08
-3.5687e-07
3.05858e-06
2.12931e-08
1.30023e-07
1.28371e-06
-2.74352e-07
5.49816e-06
-0.0123186
-4.13427e-07
0.00153364
4.223e-06
-1.07198e-06
0.0109813
2.64414e-07
-2.6969e-07
0.00212817
-0.0172463
6.95558e-07
-8.42659e-08
-4.75459e-05
5.14028e-09
0.0100249
-0.00155933
0.0009604
0.0301417
2.39923e-06
-6.29998e-05
0.0216556
-0.0068193
3.54486e-08
1.61105e-05
-0.00112689
-3.26155e-05
-2.2035e-07
-0.00546254
-5.58454e-09
-8.20271e-08
-0.000216089
-0.00105568
-5.13851e-08
2.74695e-07
5.72533e-05
-2.54601e-06
0.000957664
-6.10604e-06
-0.00154093
1.88746e-06
-1.20438e-07
-1.80583e-07
-5.08164e-07
-5.04579e-08
-8.79545e-08
9.84907e-05
0.0472959
1.50617e-08
0.0069955
0.00126103
-0.0199624
5.70174e-08
0.00373471
7.74096e-08
-2.75257e-07
0.0166863
-0.00120756
0.00231368
-1.01553e-06
-9.65022e-08
-1.72926e-08
2.00702e-06
-0.0138583
0.0126277
-2.24435e-07
-0.00273764
-0.00800213
-0.00776005
-1.59967e-07
-1.69529e-07
-2.0712e-07
-2.1814e-08
-0.000231893
0.0217143
-1.54263e-07
-0.00100581
-1.17709e-05
-0.000265387
-0.000850052
-0.00675939
-0.00530449
-4.38769e-08
0.00011486
-7.07195e-07
1.71673e-06
0.00279859
-1.62832e-05
0.00717545
2.29477e-07
-4.3473e-08
-0.00162051
0.000180818
0.000763082
0.0259539
4.1789e-06
3.73599e-07
-5.66772e-09
-7.0871e-08
-0.000624787
0.00178411
7.35817e-07
1.2557e-06
5.45558e-08
0.0418716
-0.000329479
-2.33492e-07
0.00165168
-0.019907
-0.0029735
-1.26884e-05
-1.36931e-08
-1.44255e-07
0.00100874
0.00228818
-5.3718e-06
0.00233471
-2.06683e-07
2.10519e-09
0.000520472
-2.46492e-07
-0.00224386
0.001799
3.298e-07
-1.23151e-07
-0.014299
-1.3349e-07
0.0509107
-5.38663e-07
0.00140131
-2.00251e-07
-1.94373e-07
2.51419e-07
0.000391321
-0.00267435
8.92094e-06
-0.00398991
-4.407e-07
-3.11156e-07
-0.0359281
0.0461516
-0.00128197
-5.32405e-07
2.0076e-08
1.92331e-08
0.0201954
-1.17209e-07
-3.25895e-05
-5.96259e-08
0.0447659
-5.30305e-07
-0.0145663
0.0496426
1.39588e-06
1.14083e-06
0.00198885
-2.1184e-07