/*--------------------------------*- C++ -*----------------------------------*\
| =========                 |                                                 |
| \\      /  F ield         | OpenFOAM: The Open Source CFD Toolbox           |
|  \\    /   O peration     | Version:  v2012                                 |
|   \\  /    A nd           | Website:  www.openfoam.com                      |
|    \\/     M anipulation  |                                                 |
\*---------------------------------------------------------------------------*/
FoamFile
{
    version     2.0;
    format      ascii;
    class       volVectorField;
    location    "250";
    object      ddt0(U);
}
// * * * * * * * * * * * * * * * * * * * * * * * * * * * * * * * * * * * * * //

dimensions      [0 1 -2 0 0 0 0];


internalField   nonuniform List<vector> 
18649
(
(-0.0553038 -0.312625 2.77261e-20)
(-0.000322242 0.000390666 1.6998e-20)
(-0.0569996 -0.308273 -1.25942e-20)
(0.0993564 -0.0305155 -2.96529e-21)
(-8.76049e-05 6.23257e-05 -5.68511e-21)
(-0.00494704 -0.547758 0)
(-0.000641448 -3.05852e-05 0)
(-3.36247e-05 -4.53318e-05 -4.3027e-23)
(0.000262205 -0.128577 -7.58799e-21)
(0.0935898 0.537356 5.40623e-19)
(1.40625e-05 0.000916533 3.40969e-20)
(6.25771e-05 -0.000316901 -5.80343e-21)
(-6.7159e-05 7.61487e-05 5.02905e-21)
(-0.0033418 -0.00317939 -2.31919e-20)
(0.0883091 -0.14074 -2.73284e-21)
(6.35455e-05 9.82332e-06 0)
(0.0101787 0.0056515 1.45054e-20)
(-0.000587112 -0.000131768 0)
(0.101242 0.277288 -8.01955e-21)
(-0.000299823 0.000321491 0)
(6.71989e-05 -0.000297046 1.05186e-20)
(-0.197505 0.563582 1.5176e-20)
(-0.0526095 -0.0675814 -8.59318e-21)
(0.0763621 -0.00808999 0)
(0.0284742 0.620545 -5.6722e-19)
(-0.0532413 -0.058513 9.03076e-21)
(0.010368 -0.0301073 1.78741e-21)
(0.028072 -0.0770432 5.70972e-21)
(0.00301565 0.00808326 3.26619e-20)
(-0.171927 0.207181 7.89524e-20)
(0.00800703 -0.012452 0)
(0.00428488 -0.0116919 0)
(0.0102871 0.00385033 4.22051e-22)
(0.0260727 -0.0229978 1.33138e-20)
(-0.00015588 -2.54668e-05 -1.12385e-20)
(-0.0508168 -0.0126063 0)
(0.0930296 -0.0933616 -2.93853e-20)
(0.0585919 -0.0114645 2.90313e-20)
(4.73849e-05 0.000778386 -3.36297e-20)
(-0.00315641 -0.00349916 4.64323e-21)
(0.103467 -0.0964276 -6.66088e-21)
(0.00119479 -0.00583335 -1.85636e-20)
(0.106352 0.084448 -2.98807e-19)
(0.0416712 -0.00832931 -6.17199e-22)
(-0.0201398 -0.016081 -1.2357e-20)
(-0.202111 0.19588 -1.06471e-18)
(-0.0692338 -0.0415011 -6.23331e-21)
(0.0214427 0.00389363 0)
(-0.000436656 -0.000376511 1.02013e-20)
(0.0621019 -0.0428613 6.69649e-21)
(0.0835647 -0.00602655 0)
(-0.0439047 -0.0861682 1.341e-20)
(0.00065352 0.00317015 -3.43633e-21)
(0.105354 -0.117784 -2.04441e-20)
(0.000467213 0.000152746 -9.15106e-23)
(0.126352 -0.0255165 0)
(-0.0531187 -0.668891 0)
(-0.000395338 -0.000379184 -1.00897e-20)
(0.000443319 -0.00178881 -5.52096e-24)
(-0.0359365 0.0126404 2.34902e-20)
(1.14571e-05 -0.000842392 0)
(0.0127889 0.106412 1.11252e-19)
(-0.000307745 -0.000677395 0)
(-0.0275807 -0.703678 -7.50185e-20)
(-0.161328 0.194702 -1.75086e-21)
(0.0282201 -0.102133 7.04713e-21)
(-0.0510519 0.0444032 -2.27378e-20)
(0.00722281 -0.0101115 0)
(-0.0240456 -0.0175026 5.31762e-21)
(-0.17689 0.590519 6.54694e-20)
(0.00829367 -0.0402374 0)
(0.020717 -0.00816472 -2.56403e-20)
(-0.000573723 -4.08863e-05 0)
(-0.000310712 -0.000722472 0)
(-0.0121859 -0.0368421 0)
(0.0451366 0.0261325 1.02576e-21)
(0.00170187 -0.224204 -8.16111e-21)
(-0.000159418 -2.54782e-05 1.30392e-20)
(-0.154789 0.390963 1.18467e-19)
(0.00433572 -0.00381349 3.13885e-26)
(-0.0130695 -0.0105598 0)
(0.0592876 -0.0237357 -3.51375e-20)
(-0.00645739 -0.429426 0)
(0.0809799 0.265328 1.25346e-20)
(8.82553e-06 -3.17794e-05 2.7921e-23)
(0.133658 -0.0364669 1.08835e-21)
(-0.0279992 0.016894 2.86789e-20)
(-0.0197849 0.0423943 -2.72403e-20)
(0.00277035 -0.00269081 -1.67644e-23)
(-0.0555375 -0.053194 0)
(0.0932449 -0.141778 5.60494e-21)
(0.0999281 0.0472062 0)
(0.0795872 -0.0211365 2.39374e-21)
(-0.210006 -0.0127877 1.14053e-19)
(-0.0040425 -0.00314094 3.15016e-21)
(0.000812318 0.00285496 3.75584e-22)
(-0.0434055 -0.012559 -8.39146e-22)
(0.0863945 -0.00398231 0)
(0.0280746 -0.0922743 7.18565e-21)
(-2.03332e-05 -0.000844922 3.30304e-21)
(-0.0130828 -0.409958 1.00378e-19)
(5.70281e-05 1.61315e-05 3.56423e-21)
(0.0575057 -0.0330947 0)
(-3.63608e-05 -3.03389e-05 4.96634e-23)
(0.00537309 -0.123852 -2.07936e-21)
(0.0117538 -0.109148 3.25481e-21)
(-0.000620369 -0.328329 -6.89648e-20)
(0.168887 -0.0673905 1.30966e-20)
(0.162733 0.000345383 -1.3911e-21)
(-0.000619077 0.000111821 0)
(-0.000124621 -4.96555e-06 1.48841e-22)
(0.0295217 -0.00656203 -2.35383e-21)
(-0.0250277 0.0416856 3.73189e-20)
(-5.06135e-05 0.000339206 3.87282e-21)
(-0.00352004 -0.00268735 0)
(0.0887461 0.00290113 -2.23166e-20)
(0.00713613 -0.0122934 9.4935e-21)
(0.0255522 -0.0130258 -4.74824e-21)
(-0.00015105 -2.11002e-05 -3.63004e-21)
(-0.0246755 0.0112708 8.03299e-21)
(-0.000653413 -0.00122758 -3.43043e-21)
(0.0673841 -0.00719793 1.42518e-22)
(0.0589644 -0.170383 -6.14164e-22)
(-5.43628e-05 0.000303522 -2.5104e-21)
(-4.65977e-05 -1.56839e-05 3.85877e-23)
(0.00211593 -0.00623355 0)
(-0.0848322 -0.605389 0)
(-0.00205809 -0.00815017 0)
(0.00229915 0.00926011 4.31566e-22)
(-0.000608892 0.000698923 -1.40504e-22)
(-0.00115344 -0.000843579 3.44589e-20)
(-0.0505044 -0.68381 8.70591e-20)
(0.0250524 0.0882355 0)
(0.0625312 0.101804 1.0565e-20)
(-0.000197652 -3.89137e-05 -1.9807e-20)
(0.292662 -0.0673788 8.22782e-20)
(0.0192443 -0.098892 5.82004e-21)
(0.171701 -0.0780797 -6.87012e-21)
(0.0197021 -0.149 -5.0041e-21)
(-0.0222782 -0.00962314 7.60942e-22)
(0.01937 0.00704451 -2.4962e-20)
(-3.62893e-05 -2.12757e-05 -6.89679e-22)
(0.000145417 -0.00052972 -1.59241e-23)
(0.00136226 -0.00514722 7.06276e-21)
(0.00801425 -0.0411604 -1.60825e-21)
(-0.000500403 -4.08581e-06 2.56923e-21)
(0.000759374 -0.0031515 -1.11078e-20)
(-0.00650044 0.16949 1.58922e-20)
(0.00349704 -0.0823998 3.69936e-21)
(-0.000912969 -0.00200357 -1.1434e-22)
(0.0360363 -0.163464 1.04194e-20)
(0.0837914 -0.179679 -5.53353e-21)
(-3.09091e-05 -2.13124e-05 -1.48277e-23)
(-0.000566716 1.60273e-05 2.33519e-20)
(0.0530842 -0.00329154 0)
(0.0822436 -0.0106655 2.42057e-20)
(-0.00094732 -0.00215573 1.04358e-20)
(0.00354567 0.000561345 -4.23633e-21)
(0.000142461 -9.6693e-05 4.36715e-22)
(-0.0997824 -0.115836 -1.42278e-20)
(0.0230725 -0.499057 0)
(0.0025075 -0.311431 -2.77214e-20)
(-0.000817679 -0.0019729 -4.10605e-20)
(0.00014138 -0.172094 4.44841e-22)
(0.150396 -0.0865576 1.65298e-20)
(-6.6395e-05 -5.28002e-05 -1.02956e-21)
(-0.0395929 -0.0111859 6.88939e-21)
(-0.00725713 -0.128462 -3.51955e-21)
(-4.90829e-05 3.98875e-07 1.01455e-21)
(-0.000186854 -0.000579356 0)
(-0.0303112 0.0165482 1.72898e-21)
(-9.57627e-05 8.96717e-05 -4.25561e-21)
(0.000542604 -0.000761324 -5.31496e-22)
(0.00709447 -0.000521532 6.24719e-21)
(0.0710618 -0.0599635 -7.19027e-21)
(0.0121503 -0.00348898 3.67425e-21)
(0.0118577 0.0130946 1.59226e-21)
(-0.00107682 -0.00193272 0)
(-0.006522 -0.129122 0)
(-0.0232624 -0.280735 1.84264e-19)
(-0.000196553 -0.000337745 0)
(-0.0263242 -0.0179745 -1.03851e-21)
(0.00247386 0.00509103 0)
(0.00355964 0.000556333 4.46936e-21)
(0.00372759 -0.00231126 1.09502e-20)
(0.00224343 0.00813543 0)
(0.000466274 0.000199906 -8.57066e-23)
(0.0555578 0.00192562 2.15383e-21)
(-0.000480039 -0.000935563 -1.50198e-21)
(-0.000384198 0.000421475 0)
(0.00282948 -0.0144209 0)
(0.0640491 -0.16181 3.41259e-20)
(0.0671897 -0.174459 -5.75343e-20)
(-0.0356511 0.0174733 -2.74025e-20)
(0.0197743 0.0880241 0)
(0.000449932 -0.000682063 6.7892e-22)
(0.00223475 -2.3565e-05 6.49798e-22)
(0.00231916 0.00241135 2.53198e-21)
(0.181213 -0.0837825 -5.04104e-21)
(0.0190323 0.0073552 -1.06264e-21)
(-0.000538669 0.000328614 0)
(-0.000141381 3.29404e-05 -1.19614e-21)
(-0.106289 -0.117293 0)
(-0.000566446 6.27309e-06 4.87126e-21)
(0.00110502 -0.00448634 -1.40624e-20)
(-0.000126081 5.58759e-05 6.01722e-21)
(0.0305194 0.216869 -1.08767e-20)
(-0.00589208 0.00275323 0)
(0.00532757 -0.0040723 -8.72303e-21)
(0.00117235 0.0016027 0)
(-0.000289917 -0.000807644 7.71778e-22)
(-0.0173102 -5.83802e-05 0)
(-3.8044e-05 0.000432591 4.61395e-22)
(-0.0138776 -0.0232837 4.09967e-21)
(-0.360772 0.284392 2.92529e-20)
(-0.0139566 -0.0448538 -6.05267e-20)
(-0.000323055 3.58136e-05 -2.54903e-20)
(0.00165196 -0.0127532 -7.15713e-21)
(0.00328669 -0.0006269 -8.55699e-21)
(-0.0647338 -0.0359897 0)
(-0.0993006 -0.0634397 0)
(0.00980199 0.000835993 -3.31691e-21)
(0.072984 -0.0692551 0)
(-0.145685 -0.00361967 0)
(-0.0248881 -0.317131 1.65882e-19)
(-0.0362042 -0.0147616 -6.44674e-21)
(0.0347117 -0.150666 7.29306e-20)
(0.130694 0.235899 7.27173e-20)
(-0.000199914 -1.97831e-05 0)
(-0.132558 -0.0843173 1.16106e-21)
(-0.00025067 0.000292502 -1.74888e-22)
(-0.00180884 -0.0281529 -9.35478e-21)
(0.0221376 0.00568465 0)
(3.38421e-05 -0.000108447 3.83005e-22)
(0.0506589 -0.159763 0)
(-0.000219947 -0.000288947 -8.47659e-21)
(-0.000514713 -0.00895208 -1.8998e-20)
(0.0039704 -0.00208058 2.00417e-20)
(-7.24165e-05 0.000505717 -4.9937e-22)
(-7.2249e-05 2.59515e-05 -1.01422e-24)
(0.00959314 0.0577442 -1.02516e-20)
(-0.0698092 -0.145528 0)
(-0.0753186 0.356855 0)
(-0.190953 0.485654 0)
(-0.0149211 -0.193649 0)
(-0.0162659 -0.0245792 -1.0922e-20)
(-0.0370833 0.0251731 8.47992e-21)
(-0.000208026 -2.66689e-05 1.30867e-20)
(-0.0745171 0.75092 -1.6642e-19)
(0.0639234 -0.00468743 7.07379e-21)
(-0.0171747 -0.0299811 6.6015e-21)
(0.126331 0.33208 -1.80092e-20)
(-0.00100186 -0.00323601 3.67582e-21)
(-0.00593597 -0.027257 9.96132e-21)
(0.0174635 -0.0108936 -5.12054e-21)
(-4.81981e-05 -3.9462e-05 -2.32822e-22)
(0.00119739 0.00267388 0)
(-9.17005e-05 -0.000680977 3.00499e-21)
(-0.140328 -0.0610538 -4.53293e-21)
(-4.82961e-05 1.33579e-05 0)
(0.102573 -0.091486 4.93887e-20)
(-8.32081e-05 -0.000210447 6.70146e-23)
(-0.000350497 -0.000147961 0)
(0.00714125 0.0477135 3.22448e-20)
(0.000110924 0.000189844 -2.94156e-22)
(0.0404473 -0.170631 -3.50153e-20)
(-3.20982e-05 -7.56082e-06 0)
(-0.0527874 -0.0248112 6.35519e-21)
(-0.000139451 -1.3814e-05 0)
(-0.000415706 0.00296057 -2.49042e-21)
(-0.256655 -0.190785 1.24461e-20)
(0.225454 0.1253 3.50667e-20)
(-0.0119563 -0.0285866 2.10665e-20)
(-0.000115307 0.0043443 0)
(0.0920593 -0.130981 -8.7866e-21)
(0.0628633 0.00504673 4.66621e-21)
(-0.00562861 -0.00139242 -1.53872e-20)
(0.00825997 -0.00352861 2.72371e-20)
(0.0201471 0.0389295 0)
(0.024992 0.0931801 -1.05789e-19)
(0.172332 -0.0212243 1.10756e-20)
(0.00164715 -0.00779754 -2.98896e-20)
(0.0155744 -0.0225325 0)
(-0.000317951 3.84012e-05 9.37933e-22)
(-0.000565227 0.000911621 -8.53826e-22)
(0.152039 -0.0222273 3.83554e-22)
(-0.0954197 -0.0149358 0)
(-0.000190621 -3.00437e-05 0)
(0.0196615 -0.0877776 0)
(-4.81731e-05 -3.3485e-05 -7.56101e-23)
(-0.000117894 -0.000340737 4.1783e-21)
(-0.0498073 -0.229036 -1.28569e-19)
(-0.00146492 -0.000470642 1.46393e-20)
(-0.000116097 -0.00429686 0)
(-0.077638 -0.58366 -6.64567e-21)
(-0.148811 0.674128 0)
(-0.0364341 -0.699411 -8.97107e-20)
(-0.0663306 0.520434 2.67397e-19)
(0.0198839 0.00106532 0)
(0.00413137 -0.000162301 5.19592e-21)
(-0.00332146 -0.00229507 0)
(0.00429393 -0.187701 7.40215e-21)
(-0.132165 0.00546831 0)
(-0.264389 -0.179404 1.59419e-19)
(0.157528 0.0361275 -2.71265e-20)
(-0.0221446 -0.00801113 0)
(-0.0582726 -0.027796 0)
(0.0432408 0.081121 -3.24378e-19)
(0.0182909 -0.00152309 -1.58711e-20)
(0.09334 -0.0585972 -1.00596e-20)
(-0.000102754 -0.000370057 4.49842e-21)
(0.0705163 -0.0302725 9.8141e-21)
(0.000993513 -0.00205139 -1.12584e-23)
(0.000675057 0.000413148 -2.59589e-21)
(-0.00541416 -0.00362183 -3.20677e-20)
(-0.0190363 -0.014178 0)
(0.0021415 -0.0130883 2.14025e-21)
(-0.127149 -0.000569429 9.90881e-20)
(0.00617009 -0.300685 4.84061e-20)
(0.000584937 -0.000243426 1.37973e-22)
(-0.127436 0.409215 -3.37596e-19)
(0.000936401 0.00240139 -5.21341e-21)
(-0.000409855 -0.00105965 1.61136e-21)
(-0.000134996 1.08795e-05 1.28912e-20)
(-0.0377025 0.50067 -3.13621e-19)
(0.0141055 -0.00163965 9.4101e-22)
(-0.0902101 -0.57718 8.85814e-21)
(-0.107146 -0.0928894 9.05585e-21)
(0.00556619 -0.000698007 -8.86872e-21)
(-0.000454753 -0.00019852 1.59322e-20)
(-0.0023422 -0.00460263 1.31241e-20)
(0.0482724 0.056762 -4.26941e-21)
(-0.00081042 0.11471 0)
(-0.00013658 -5.10567e-05 2.92073e-21)
(0.0785892 -0.161527 6.5859e-22)
(-0.000143009 -0.000427529 0)
(0.0694762 -0.0500919 -7.04227e-21)
(-0.0141163 -0.00603682 2.6725e-24)
(0.0562105 -0.0281887 -7.03967e-21)
(-0.00883388 0.0220905 0)
(0.0248042 -0.0460285 1.64243e-20)
(-0.060384 0.0881741 0)
(-0.133033 -0.00437939 -9.14902e-20)
(0.0482702 0.117771 -2.92855e-21)
(-0.0270615 0.559335 -7.18939e-20)
(0.104623 0.00772896 -1.04115e-20)
(0.0485205 0.0240445 -1.59976e-20)
(0.000262197 0.000802082 -7.3506e-21)
(-0.0686675 0.562746 5.10163e-20)
(0.133297 0.235787 0)
(-0.00104327 -0.00856357 2.92333e-20)
(0.120044 0.310376 1.49239e-19)
(-0.000120461 -0.000116077 0)
(-0.0143315 -0.0133779 7.51781e-20)
(0.0156568 -0.00915527 -5.56457e-21)
(0.0695503 -0.0120996 2.22983e-20)
(0.0117728 -0.00670074 0)
(0.003922 0.370772 0)
(-0.0225641 -0.00918189 -9.07793e-21)
(0.000304591 0.00026373 -1.31046e-22)
(-0.0201711 0.033359 2.97728e-20)
(-0.0191363 -0.0136857 4.48419e-21)
(-0.0828642 -0.0430083 2.00618e-21)
(0.00440999 0.00762587 3.84051e-21)
(-0.00599929 -0.0897834 -3.93294e-20)
(-0.0360919 -0.0288309 3.74497e-21)
(-0.00362301 -0.00186092 1.07474e-20)
(7.03805e-06 -2.88573e-05 -2.74637e-23)
(-0.0647172 0.16908 1.03327e-20)
(-6.12276e-05 0.000505178 0)
(0.0495915 -0.00420301 -1.19219e-20)
(-0.170372 -0.050809 2.53855e-19)
(0.00657718 0.00495629 3.26446e-21)
(-2.09907e-05 5.35602e-05 3.73526e-23)
(0.0915581 -0.0989078 -1.32829e-20)
(-0.00142266 -0.000979789 0)
(0.037269 0.40248 0)
(-0.0521779 0.167986 -2.17608e-20)
(0.00770427 0.293265 0)
(-0.0336856 0.157973 1.93176e-20)
(-0.0145758 0.140676 -5.94753e-20)
(0.000716351 -0.000410035 -2.37446e-22)
(-0.0143854 -0.00847247 3.83342e-21)
(0.152074 0.0179123 -6.64486e-20)
(0.0122277 0.350118 4.01738e-20)
(-0.011997 0.00180074 3.11245e-20)
(0.0190576 -0.0550803 0)
(0.000658916 -0.000225919 1.93159e-21)
(-0.00223219 -0.00330483 0)
(-0.000140496 4.66378e-06 -3.33235e-20)
(-0.0197421 0.153346 0)
(-0.00261591 -0.0279032 0)
(-0.0053299 -0.00196698 -2.62156e-24)
(-0.0120627 -0.00691327 -4.51882e-21)
(0.0144462 -0.142388 3.54411e-21)
(0.0620321 -0.0158973 6.37241e-21)
(-0.0180552 0.00801402 -1.35897e-20)
(-0.00085695 0.00107718 2.98156e-22)
(-2.91323e-06 -7.02882e-05 1.29013e-21)
(5.72155e-05 0.00277643 2.06948e-22)
(0.159995 0.0132115 0)
(0.17297 0.175574 0)
(0.0048603 -0.00413911 0)
(0.0627385 -0.138321 0)
(0.0139531 0.00500222 2.77257e-22)
(-3.17477e-05 -4.23848e-06 0)
(0.000600454 -0.000176786 0)
(0.0127709 -0.0547217 0)
(0.000830067 0.000181535 0)
(0.0534482 0.0333638 -5.59928e-20)
(-0.000142941 -1.27639e-05 -1.86686e-21)
(0.0490566 -0.159663 0)
(0.103139 0.0413171 4.6335e-22)
(-0.000884096 -0.00119207 0)
(0.23205 -0.000735141 -1.70127e-20)
(0.0139855 -0.0108832 -1.45234e-20)
(0.0523323 0.0491796 -2.73552e-21)
(-0.0059275 0.0503029 9.06058e-20)
(-0.0042228 -0.00340638 3.72061e-20)
(0.00125842 -0.0069071 2.41436e-20)
(0.0273231 -0.0295414 -2.85103e-20)
(-0.00152014 -0.00137782 -1.56301e-21)
(0.068487 -0.0619659 0)
(0.0142162 0.317646 -6.82254e-20)
(-0.0907346 -0.131219 4.77389e-20)
(-7.72216e-05 5.71731e-05 0)
(-0.0908569 -0.0334668 -3.55753e-21)
(-0.0851644 -0.0778602 6.38076e-21)
(0.0108807 0.00104125 2.4286e-20)
(-0.0895788 0.751687 0)
(-0.125154 0.735586 1.67807e-19)
(-0.000488555 8.27001e-05 -6.62599e-22)
(-0.00184908 0.0246493 3.07678e-20)
(-0.00580932 0.0297364 0)
(0.163811 0.118436 0)
(-0.000166159 0.00108991 2.10563e-20)
(-0.000939567 -0.00105734 9.18753e-21)
(-0.0427775 -0.0544548 -1.6509e-21)
(0.000179283 0.000857769 0)
(-0.0123337 0.010129 -1.18827e-20)
(-0.000519227 0.0001107 5.96324e-22)
(-2.0305e-05 -0.000136993 -3.4299e-23)
(-0.00160839 -0.000528112 1.70217e-20)
(0.0563562 -0.0160853 9.64735e-21)
(-0.00102662 -0.00136256 -7.2884e-21)
(-0.00115025 -0.00457362 0)
(-0.00451217 -0.00366243 0)
(0.12913 0.0789336 -4.61039e-21)
(0.0230778 -0.537065 0)
(-0.0160931 -0.00704341 -6.86338e-21)
(-0.000483137 -0.00222858 2.67176e-21)
(-0.0878963 -0.597847 0)
(-0.000486864 -0.00211475 1.01903e-20)
(0.00526915 -0.010815 -5.25106e-21)
(0.0250599 0.000920698 3.35738e-20)
(-0.00014791 -1.75052e-05 2.2848e-21)
(3.31247e-05 8.51717e-05 6.80942e-21)
(0.000732112 0.0012899 -3.89437e-22)
(0.155626 -0.0976379 -2.44468e-20)
(0.102513 -0.0490768 -2.12882e-20)
(0.00299545 -0.00440578 9.78679e-23)
(0.203717 -0.150887 4.95152e-21)
(-0.000117436 0.00100845 -2.99418e-20)
(0.014938 0.00404564 0)
(0.375449 -0.00898002 -5.32871e-20)
(0.00664033 0.00182474 3.29602e-21)
(-3.71996e-05 -0.00014808 5.08875e-23)
(0.00102006 -0.00278917 -2.87528e-22)
(-0.00307825 -0.00260272 0)
(-0.0119847 -0.000268644 0)
(-0.0233632 -0.0297576 -8.98021e-22)
(-0.000464119 -0.0010816 -5.25231e-22)
(-0.0222545 -0.0453964 0)
(0.0918953 0.00380634 1.04447e-20)
(-0.0272435 -0.149249 2.01966e-20)
(0.0728368 0.0500871 -1.16659e-20)
(-0.000749368 0.000222733 0)
(-0.00124732 -0.00903014 0)
(0.0290115 -0.0449719 5.4707e-21)
(0.175991 -0.0731572 -8.05902e-21)
(0.0368788 -0.0329301 -2.09143e-21)
(-0.158772 0.49945 4.71705e-19)
(-0.0208343 0.0145773 0)
(-9.623e-05 -0.000746309 0)
(0.000873148 -0.000544036 0)
(0.0227593 -0.43673 -3.10451e-20)
(-0.000233126 -0.000269999 -7.55561e-21)
(-0.0693227 -0.132727 0)
(-0.128444 0.463577 0)
(-0.000251212 1.61794e-05 -1.56747e-20)
(-0.022064 -0.0352898 -2.51186e-21)
(-0.0623956 -0.0556033 -2.66276e-21)
(0.00173182 -0.00492465 -1.33759e-22)
(-0.146749 0.10399 0)
(0.000144612 -0.000122235 -4.5782e-22)
(-0.159717 0.115815 -1.97294e-19)
(0.0616487 0.256693 1.81437e-19)
(1.59162e-05 -6.91722e-06 1.29998e-22)
(-5.02346e-06 -0.000281788 3.38654e-22)
(-0.00200846 0.0108396 0)
(-0.0402953 -0.186197 1.15346e-20)
(0.00161986 -0.00778261 2.01749e-20)
(-0.00632629 -0.00288217 -9.97148e-21)
(0.0111632 -0.00817193 6.12008e-21)
(-0.0412474 -0.073304 0)
(0.0196658 -0.106121 -1.54741e-20)
(-0.0247891 0.00956516 -2.92155e-20)
(-9.3483e-05 0.000540795 7.78758e-23)
(0.000723204 -0.000186667 0)
(0.0531479 0.263739 -2.18813e-20)
(-0.014068 -0.0131201 -6.6658e-21)
(-0.00146326 -0.000148887 1.47085e-20)
(-7.89969e-05 2.79519e-05 -5.50838e-23)
(0.107863 0.016965 2.12698e-20)
(0.0225337 0.0336756 -5.69947e-22)
(-0.0297597 0.0353698 -2.10694e-20)
(0.0349741 -0.0519177 -2.67679e-22)
(-9.55618e-06 -0.000291475 0)
(0.0983316 -0.0654448 -2.9846e-20)
(0.000637196 -0.000354925 1.21793e-21)
(9.06181e-05 0.000135129 3.60917e-22)
(-0.0125419 0.0342052 0)
(-0.000319152 -5.36693e-05 -2.61962e-20)
(0.126615 0.189966 -2.60515e-18)
(7.36763e-05 5.62468e-05 -9.05242e-23)
(0.0356681 0.054819 5.79244e-21)
(0.0260684 0.167579 1.43898e-19)
(0.210751 -0.0635911 0)
(0.0346611 0.0311799 -1.59916e-21)
(0.0182145 0.0396697 0)
(3.77544e-05 -6.9973e-05 0)
(0.0648167 0.119386 7.95591e-21)
(-0.000606842 -0.000158911 -5.805e-22)
(4.75268e-05 -7.84282e-05 1.83036e-21)
(0.137412 -0.0280761 8.52384e-21)
(-0.00544709 -0.00199494 -4.74363e-20)
(0.000100232 -0.000525448 8.12364e-23)
(0.000477034 -0.0207005 0)
(0.0354356 -0.0394043 0)
(-0.000311837 -0.000217427 1.66635e-20)
(0.18423 0.351931 -7.7031e-20)
(0.00295215 -0.0225107 0)
(-0.0310576 0.531138 -7.16647e-20)
(-0.00011093 -2.53947e-05 0)
(0.0873879 0.0141372 9.32409e-22)
(-0.275761 -0.161438 8.95201e-21)
(0.0362339 0.296451 1.85147e-20)
(0.0100269 -0.00364064 5.62946e-21)
(-0.0481871 0.06322 3.14993e-20)
(-0.00020717 -8.56597e-06 0)
(0.00794615 -0.018536 0)
(-0.0514563 -0.321111 -3.81129e-20)
(-0.0206157 -0.00729098 -6.04164e-22)
(0.0846476 -0.121552 1.08537e-20)
(-0.00145927 0.000239476 1.7462e-20)
(-0.169308 -0.235964 1.70044e-20)
(0.0127558 0.0046643 0)
(-0.0792037 -0.153304 4.46402e-21)
(0.000214151 -0.000678466 0)
(-0.00283833 -0.00201408 4.86721e-21)
(0.411821 0.0178528 1.0736e-19)
(-0.167162 -0.0649095 4.46279e-21)
(0.146256 0.0176021 0)
(0.0206765 -0.0381532 -3.16207e-20)
(0.000831005 0.00176436 -5.27631e-21)
(0.00586827 0.000970329 1.24161e-21)
(0.184572 0.192814 0)
(0.0859829 -0.0487218 1.39506e-21)
(-0.015166 -0.0562593 -8.68813e-21)
(0.0325127 0.0275688 -2.20786e-21)
(-0.00738933 -0.0229346 0)
(0.0905819 0.0107684 0)
(0.00231133 -0.00471524 1.1584e-22)
(-7.0282e-05 -0.00085621 -4.0132e-21)
(-0.203983 0.508751 7.91822e-20)
(6.02761e-05 -0.000245316 -4.51827e-23)
(0.0308058 -0.040459 2.71452e-22)
(-0.0118894 0.00148009 1.2872e-20)
(-0.144084 0.635977 -8.41384e-20)
(-0.000370936 -0.000609485 0)
(-0.00310333 0.00838464 0)
(-0.000244814 -0.000237664 -4.08136e-21)
(0.323214 -0.184685 -1.25237e-20)
(9.10095e-05 -0.000805941 -5.47406e-21)
(-2.39101e-05 -0.000106253 0)
(0.00211543 -0.00614813 0)
(-0.000472806 -0.000211931 -2.18249e-20)
(0.180333 0.0854983 0)
(0.35185 0.422695 -4.40852e-19)
(9.85322e-06 -0.000359636 5.92479e-21)
(-0.000412629 0.000241774 6.0705e-21)
(-0.00393046 0.00257929 -5.92406e-21)
(0.0502097 0.205807 -2.93991e-21)
(-0.000931632 0.00413465 0)
(-0.0567245 -0.116189 7.95999e-20)
(-0.000211528 3.53533e-05 -3.75118e-21)
(-0.000322512 -0.000293764 0)
(0.170598 0.0306316 3.54413e-20)
(6.64631e-05 1.34735e-05 0)
(-0.0280669 -0.104829 8.23027e-21)
(0.000291138 0.000234397 -2.59312e-21)
(-2.70202e-05 0.561681 0)
(0.000975567 -0.00116368 -6.41024e-22)
(-0.000430018 0.000835671 2.45441e-22)
(0.0001456 -0.000244712 -1.17279e-21)
(-0.211773 -0.0078822 -7.92525e-20)
(-5.3586e-05 4.83721e-06 -1.23173e-24)
(0.0493682 -0.0768654 8.44867e-21)
(-0.000334495 -0.000231938 8.80663e-21)
(0.00360815 -0.0560989 -5.6316e-22)
(-0.00109013 -0.00105609 -7.82339e-21)
(-0.118039 0.481579 1.07796e-19)
(2.68479e-05 -0.00177796 5.5537e-21)
(-0.000166138 -0.000365243 4.45004e-21)
(0.117411 0.0303075 -1.90588e-20)
(-0.00340735 0.00245188 -3.6275e-20)
(-0.000166791 -0.000857704 0)
(7.45255e-05 -1.05892e-05 0)
(0.21258 -0.0108505 1.05118e-20)
(-0.0152838 -0.118847 -9.19848e-21)
(5.32554e-05 9.80338e-05 -3.58406e-22)
(-0.0459357 -0.0260513 -5.39976e-21)
(0.0897476 -0.126344 0)
(-0.00161302 -0.00692297 0)
(-0.0436907 0.0453971 0)
(0.0217369 -0.0139292 2.26533e-20)
(-0.00823496 -0.339528 1.13291e-19)
(0.028467 0.159388 -8.52518e-18)
(-0.0108529 0.0335743 -2.17931e-20)
(0.0210919 -0.0589839 -4.06855e-22)
(-0.00047802 -0.000430741 -1.50396e-20)
(-0.0344088 -0.253088 -6.00364e-20)
(-0.00312827 -0.677448 -2.92109e-20)
(-0.000141333 1.95833e-06 0)
(-0.197787 -0.0166901 -6.04087e-21)
(-0.00630951 -0.409901 0)
(-0.0191837 0.0510351 1.46091e-20)
(-0.280218 -0.184429 0)
(-0.00013955 1.44675e-05 0)
(0.0298835 0.32185 0)
(-0.000330767 -0.000596596 0)
(0.167613 -0.0705957 0)
(-0.00148458 0.0225018 0)
(-0.000974694 -0.000540611 -8.10234e-21)
(0.174833 -0.00622338 -5.29959e-20)
(5.8426e-05 -4.41764e-06 7.34903e-22)
(-0.015016 0.0399041 0)
(-0.000722196 -0.00020104 5.82213e-22)
(-0.0145849 -0.00160602 0)
(0.043166 0.0104212 -4.19975e-20)
(0.000204931 -0.000414387 -2.29503e-21)
(0.167393 0.0240824 2.88976e-20)
(0.0342799 0.134566 0)
(-0.147949 -0.112009 0)
(-0.000890087 -5.20082e-05 0)
(-0.141595 0.349439 0)
(0.063461 -0.0147669 -3.24519e-21)
(-0.000785363 -0.00479722 0)
(0.0297325 -0.502392 1.44179e-20)
(-0.000528717 -0.00402373 -4.53812e-21)
(-1.29491e-06 5.58103e-06 0)
(0.0480527 0.0410167 5.11446e-21)
(-3.21835e-05 6.17177e-07 -3.91738e-23)
(0.0148994 0.055202 -3.35095e-20)
(-0.121095 -0.167111 3.66337e-20)
(9.99649e-05 -7.71372e-05 3.04566e-22)
(-0.0186359 0.0111113 6.74603e-21)
(0.0189127 0.0733981 0)
(0.00401497 -0.00439479 0)
(0.000865402 0.000791543 -8.29616e-23)
(-0.0371504 0.265572 -1.22338e-21)
(0.0227186 -0.0163563 -2.15572e-20)
(-0.000338197 0.000203261 0)
(0.00026241 -0.000860987 0)
(0.12603 0.102949 2.06414e-21)
(-0.0664066 -0.129471 -2.08007e-20)
(-0.0215535 -0.0654397 -2.10718e-20)
(0.15034 -0.0130704 -3.26884e-21)
(0.0483635 0.105204 0)
(-0.0270452 -0.0953765 0)
(-0.000435378 0.0014443 0)
(0.12591 0.419127 1.649e-19)
(-0.0390199 -0.60479 -3.30427e-21)
(-0.000631208 -8.43081e-05 0)
(0.0489018 0.0296268 4.16801e-19)
(8.10482e-05 -0.000942513 3.64458e-21)
(0.0448361 -0.0234862 -2.29146e-20)
(-0.000930144 4.81486e-05 0)
(-0.00015072 -9.53765e-06 -3.99564e-21)
(-2.67778e-05 -0.00177359 2.58782e-20)
(-0.000268158 -0.000692021 0)
(-0.000354941 -0.000346484 -5.27551e-21)
(-0.00235921 -0.388838 -1.66214e-19)
(-0.00646412 -0.21444 -2.05841e-21)
(-0.0355441 -0.14474 4.34032e-22)
(-0.0195553 -0.0155465 5.13814e-20)
(-4.84492e-05 0.00575959 -5.24773e-22)
(0.19448 -0.0679211 3.53768e-21)
(-6.75072e-05 -0.000159608 5.03439e-22)
(-0.0313813 0.139068 -1.20735e-21)
(0.0510281 -0.0219465 -1.0437e-21)
(0.00832323 -0.0075406 0)
(0.005293 -0.009992 -2.70846e-20)
(0.174663 -0.082134 1.29314e-20)
(0.000390119 0.00235406 -1.60959e-21)
(0.0490287 0.270178 4.79875e-20)
(-0.0175445 0.0101561 3.47902e-21)
(-0.0343725 0.1127 -4.40629e-21)
(0.000538402 -0.00353253 0)
(0.302585 0.172778 3.71369e-21)
(-0.00578936 0.402448 -3.7001e-20)
(-0.027433 -0.0323589 -6.84589e-20)
(0.228839 -0.0496552 0)
(9.36806e-06 -8.522e-05 4.50567e-21)
(0.053982 0.329596 0)
(5.06001e-07 2.93343e-05 0)
(-0.0113394 -0.0880646 0)
(0.00250396 -0.316644 7.3786e-22)
(-0.000155325 -0.000603993 -3.30484e-21)
(-0.000799383 0.000773428 -2.10183e-23)
(5.55543e-05 0.000158381 0)
(8.47145e-06 1.06389e-05 -1.98449e-22)
(0.11536 -0.146886 0)
(0.154992 -0.0906064 -1.82713e-20)
(-2.49004e-05 0.000169835 -7.55092e-21)
(-0.0818454 -0.06354 0)
(0.266301 0.0802684 -4.82316e-20)
(0.0244572 0.324449 -3.14936e-21)
(-0.000315112 -0.000710606 0)
(-0.0381564 -0.254053 -1.63783e-21)
(-0.000321378 -0.000703358 -7.51713e-22)
(-6.7561e-05 0.000180012 5.86377e-21)
(0.0420769 -0.228031 0)
(0.0151466 0.027075 1.7822e-21)
(0.0426206 -0.0156535 0)
(0.0306363 -0.123399 -4.73064e-20)
(0.0020798 -0.012938 -8.08789e-21)
(0.042346 -0.232406 -1.14653e-20)
(-7.95601e-05 -4.96408e-05 -2.60885e-21)
(0.00139811 -0.0058307 0)
(0.0185003 -0.0861651 0)
(0.169525 0.0600575 -1.74878e-19)
(-0.000529879 0.00091992 -4.44993e-22)
(-0.109318 0.00496216 -3.28254e-20)
(0.0976844 0.0615695 -5.7293e-22)
(-0.000385403 -0.000251082 -2.84925e-20)
(0.00235384 -0.00524382 -4.72163e-21)
(0.000127156 0.000376085 -1.4438e-22)
(-0.087038 -0.0742126 0)
(0.0516838 0.0108858 0)
(8.50068e-05 0.0001245 -3.49555e-22)
(0.00509692 0.00296283 0)
(-0.00436536 0.631129 -6.29538e-19)
(0.123853 0.085538 0)
(0.039019 -0.109777 -1.81994e-20)
(0.175518 -0.0439594 -1.13361e-20)
(0.00633996 -0.00917462 3.16092e-20)
(-0.04761 0.431085 4.66318e-20)
(-0.00523034 -0.00391555 0)
(-2.49141e-05 0.000573192 0)
(-0.000418992 0.000716395 0)
(0.00784302 0.0346674 -1.78364e-20)
(0.0921271 -0.0228085 4.81897e-22)
(-0.000293798 -0.000276992 0)
(-0.000930065 -0.000425475 -5.359e-22)
(0.000972004 -0.000632751 0)
(-0.250598 0.0985465 7.34378e-21)
(0.00150602 -0.00636527 -4.08414e-21)
(0.00055653 0.282117 1.75294e-21)
(-0.237802 0.600074 0)
(-0.000529623 0.00121399 1.57323e-21)
(-0.0124162 -0.0573605 6.23731e-20)
(-0.0598095 0.502001 1.47034e-20)
(-0.00121464 -0.000553671 6.41904e-21)
(-7.3464e-05 -0.000196727 4.65153e-22)
(-4.78913e-06 -5.46426e-05 0)
(0.000188812 -1.10449e-05 5.00212e-25)
(-0.16304 0.0661704 0)
(-5.18393e-05 -6.92388e-05 -1.19722e-21)
(-0.0941505 0.650319 0)
(0.0399206 -0.0437003 -2.48584e-20)
(0.0426696 -0.0120245 0)
(-3.76604e-05 -4.62371e-06 0)
(-0.000669107 -0.000106379 -2.03439e-20)
(0.00523982 -0.00726105 1.86913e-20)
(-4.08904e-06 1.34643e-05 1.56559e-22)
(-0.0389045 -0.0205067 -4.82629e-21)
(-0.218158 0.136336 7.18119e-20)
(-0.0149467 -0.395466 0)
(-0.101255 -0.487418 -2.29544e-20)
(-0.117104 0.305828 0)
(-0.165762 -0.220516 -1.24155e-20)
(-0.00016329 -2.33875e-05 3.79451e-21)
(-0.000497052 -0.000285064 -1.23969e-20)
(-0.0802132 1.02216 0)
(0.0534875 0.000627908 -1.08234e-20)
(-0.158112 0.138075 -2.12329e-20)
(-0.0265176 -0.0035303 5.77568e-21)
(0.110997 -0.0230613 -2.03608e-21)
(0.0085979 -0.0260156 5.63384e-21)
(0.0401097 -0.0730635 -3.79856e-20)
(-0.0083086 -0.129479 4.01636e-21)
(-0.0587399 -0.0585537 0)
(4.62596e-05 0.000192732 7.09343e-22)
(-9.72738e-05 7.9959e-06 -3.01467e-21)
(-0.00335773 -0.0254185 0)
(-0.00026632 0.000256938 4.94524e-21)
(0.278831 0.0115521 -2.7594e-20)
(-0.228911 -0.190768 3.51354e-20)
(-0.00047126 -0.000942745 0)
(-0.000776709 -0.00103024 -8.34687e-21)
(0.032846 -0.0147627 1.35521e-20)
(-0.0507726 0.05947 8.85594e-21)
(0.021607 -0.644415 9.8276e-20)
(-0.0817269 -0.0546518 1.298e-21)
(0.0232548 -0.171535 -7.27271e-21)
(-0.000133841 -7.99814e-06 2.84481e-21)
(0.188376 -0.0471522 0)
(-0.000170076 0.000247048 -1.27147e-20)
(0.000214063 -0.0028451 0)
(0.0105448 -0.005166 2.43569e-20)
(-0.000869367 0.000397071 -1.1051e-22)
(0.00493952 0.000456844 5.26338e-21)
(-0.0509376 -0.163205 6.74049e-21)
(-0.000328287 0.000364787 0)
(0.0279063 0.0407671 1.47362e-20)
(-0.0603441 -0.0249345 0)
(-0.000123764 2.88848e-06 -4.76816e-21)
(-0.00359251 0.00442154 1.82743e-20)
(0.000194238 -0.00205332 -3.07439e-23)
(-0.0369144 -0.0769832 -5.42276e-20)
(-0.102981 -0.0483217 2.15198e-21)
(-0.0527101 -0.027042 4.38195e-21)
(-0.0175257 0.0614841 4.48255e-20)
(-7.62895e-05 -0.00673193 0)
(0.09777 0.0374784 -4.50621e-22)
(-0.0388846 -0.23953 3.13688e-20)
(0.115084 0.0547434 0)
(0.00471714 0.00942971 0)
(0.00200558 -0.00597055 0)
(-6.77975e-05 -1.27783e-05 0)
(0.127597 0.205518 -1.20993e-20)
(-0.00159941 -0.00906064 -8.68367e-24)
(-8.72203e-05 -2.06762e-05 -2.81142e-21)
(-0.000136343 -0.00161431 -9.81664e-22)
(-0.000549503 -0.000992269 1.92204e-22)
(0.000258528 0.000122659 1.48482e-23)
(-0.0216863 -0.59861 1.58349e-20)
(0.0232323 0.0557253 0)
(-0.0412646 -0.0397719 -7.87187e-21)
(-0.128112 -0.026745 1.66636e-20)
(0.000117032 8.6155e-05 0)
(0.03167 -0.0539049 2.65776e-20)
(-0.0191697 0.0276517 0)
(-0.165778 -0.156799 -4.35878e-20)
(0.000756096 4.49222e-05 0)
(-2.07613e-05 -0.00152222 0)
(0.000225171 -0.00083591 -5.35036e-21)
(0.000744496 -0.000101096 5.24421e-23)
(-0.000141621 3.11044e-05 3.01627e-21)
(0.404927 -0.0151324 0)
(-0.0311048 -0.00612745 -1.29279e-20)
(-0.0626114 -0.078888 1.04327e-20)
(0.000597303 0.000598573 -6.22621e-23)
(-0.0307249 0.0217697 3.69851e-20)