/*--------------------------------*- C++ -*----------------------------------*\
| =========                 |                                                 |
| \\      /  F ield         | OpenFOAM: The Open Source CFD Toolbox           |
|  \\    /   O peration     | Version:  v2012                                 |
|   \\  /    A nd           | Website:  www.openfoam.com                      |
|    \\/     M anipulation  |                                                 |
\*---------------------------------------------------------------------------*/
FoamFile
{
    version     2.0;
    format      ascii;
    class       volScalarField;
    location    "250";
    object      nut;
}
// * * * * * * * * * * * * * * * * * * * * * * * * * * * * * * * * * * * * * //

dimensions      [0 2 -1 0 0 0 0];


internalField   nonuniform List<scalar> 
18649
(
0.0346648
0.00671314
0.0303717
0.000206428
0.0066385
0.0421656
0.00672344
0.00668496
0.0251995
0.0150096
0.00672403
0.00671246
0.00662264
0.00677772
0.000842872
0.00659572
0.00367224
0.00672252
0.0209365
0.00671267
0.00671273
0.00398728
0.0342047
0.000218405
0.0167049
0.0299633
0.0304669
0.0183336
0.00427301
0.00413665
0.00716737
0.00699674
0.00366666
0.000514527
0.00671767
0.000460593
0.000972506
0.0013706
0.00672173
0.00677755
0.0088254
0.00427175
0.000159877
0.0174194
0.0539742
0.00218521
0.039944
0.000552267
0.00672077
0.000269712
0.000237551
0.0337013
0.00680048
0.00970702
0.0068115
0.0002711
0.0210211
0.00672055
0.00774313
0.0258097
0.00672066
0.000139832
0.00672336
0.0255516
0.00385751
0.00576866
0.0258503
0.00145188
0.0540493
0.00389109
0.0288872
0.000571775
0.0067221
0.00672402
0.000647354
0.0219985
0.028581
0.00666716
0.00278823
0.0163879
0.0029396
0.00158297
0.0364934
0.0193462
0.00697796
0.000270661
0.000868142
0.000756498
0.0172057
0.00228377
0.000829294
0.000156679
0.000241468
0.00907607
0.00704524
0.00679489
0.000722301
0.00138122
0.00486254
0.00672417
0.0354844
0.00662264
0.00379508
0.00668649
0.0231749
0.0204755
0.0391079
0.000730565
0.000264763
0.00672144
0.00674463
0.000573942
0.000845033
0.00670656
0.00698576
0.00144826
0.00139111
0.000488113
0.00667137
0.000867334
0.00675854
0.000206784
0.00702158
0.00670662
0.0071692
0.00402889
0.0332116
0.00586893
0.00436731
0.0070813
0.00674835
0.0264836
0.000138132
0.000120855
0.00674354
0.00371256
0.0155565
0.000627891
0.0169507
0.0526247
0.000607997
0.00663385
0.00677068
0.0059898
0.0238883
0.00674718
0.00677927
0.000103189
0.0190161
0.00676984
0.0231893
0.0031466
0.00657605
0.0067203
0.000263369
0.0012278
0.00677106
0.00679959
0.0067033
0.0420361
0.0396002
0.0345961
0.00676856
0.0230389
0.000685729
0.00670494
0.022994
0.020178
0.00681683
0.00672545
0.000954534
0.00671495
0.0067101
0.00697189
0.000224834
0.048673
0.0230681
0.00677061
0.0205726
0.0408805
0.00671529
0.0519461
0.00778206
0.0067902
0.00681527
0.00774533
0.00677641
0.000287134
0.00674136
0.0067278
0.00157158
0.0191061
0.00126921
0.00108091
0.000848117
0.00670995
0.00785842
0.00774597
0.00066631
0.000527302
0.0067301
0.00671936
0.0409291
0.00672098
0.00656198
0.00673011
0.000107125
0.0248659
0.00270668
0.00677701
0.00673392
0.00149293
0.00670238
0.0005203
0.00266681
0.000602388
0.00672543
0.00180244
0.00678715
0.0374055
0.00912384
0.00875509
0.00317022
0.00440573
0.037578
0.0177137
0.000568741
0.021305
0.00231089
0.00954008
0.00670671
0.00304837
0.000636209
0.00671038
0.0121847
0.00671576
0.00320363
0.00682352
0.00671131
0.00669978
0.000803546
0.0214457
0.0218279
0.0030415
0.0388035
0.00293734
0.00058738
0.00666134
0.00400873
0.000267333
0.00264396
0.0217268
0.00685251
0.00296708
0.000746941
0.00672638
0.00677597
0.00672497
0.0102279
0.00684579
0.00101935
0.00669719
0.00681448
0.00103575
0.00669521
0.0006701
0.00735545
0.0274054
0.006683
0.00696391
0.0100565
0.00025623
0.000533973
0.00692119
0.000869701
0.000250344
0.00656096
0.00101172
0.00109138
0.00016567
0.000259988
0.00297835
0.02364
0.0067394
0.00704993
0.00034083
0.000594496
0.00674494
0.0158731
0.0069392
0.00671462
0.0417678
0.00675198
0.00683447
0.0317917
0.00406619
0.0231253
0.00498253
0.000863271
0.00680905
0.00697432
0.0251635
0.00301954
0.00833279
0.000215954
0.0126769
0.0321345
0.000168652
0.000696072
0.00024591
0.00671417
0.00347719
0.00789224
0.0071025
0.00499835
0.000991074
0.00129335
0.00253721
0.0333972
0.00703308
0.00281594
0.00675769
0.00674699
0.00674254
0.0050033
0.00205894
0.0318329
0.0396216
0.00692202
0.00671933
0.00677365
0.0205941
0.000127663
0.0067057
0.00976684
0.00671727
0.000321699
0.0077944
0.000259436
0.000125082
0.0015914
0.0269394
0.00267082
0.0308687
0.0184401
0.000142767
0.0002246
0.00672103
0.00524285
0.0200894
0.00304012
0.0162455
0.00669579
0.00254311
0.000772468
0.00136868
0.0032108
0.030785
0.00260284
0.00673248
0.000798591
0.00324625
0.0353397
0.00694392
0.018332
0.023734
0.00693787
0.00698194
0.028302
0.00670432
0.000308243
0.0133046
0.00813365
0.00673115
0.000891056
0.00675685
0.0189113
0.0290389
0.0304793
0.000112861
0.000132404
0.007078
0.00306715
0.000247392
0.0303144
0.00182328
0.00179698
0.00670584
0.00677396
0.00674033
0.000112823
0.00417403
0.00545856
0.00203805
0.0191907
0.000412036
0.00202005
0.0068686
0.00670472
0.00679921
0.00020623
0.0202558
0.00293965
0.000607942
0.0346245
0.00725535
0.00670542
0.00797094
0.00701076
0.000266531
0.00637074
0.000430415
0.000154983
0.00674709
0.000289761
0.000753788
0.023764
0.000830893
0.00651457
0.0043356
0.000492683
0.00229584
0.000260073
0.0313391
0.0413764
0.00669024
0.0381027
0.0349322
0.00147103
0.00504563
0.0184357
0.00675545
0.00115805
0.00108685
0.00139355
0.00672592
0.00674944
0.0156188
0.00672196
0.00686419
0.00675374
0.00671678
0.00675474
0.00030774
0.00675256
0.00686124
0.00637242
0.00014359
0.0417614
0.00309549
0.00676889
0.033226
0.00676718
0.0496694
0.000553578
0.00651851
0.00671113
0.00672503
0.000873392
0.000222453
0.00684518
0.000473306
0.00672441
0.0202102
0.0115967
0.0070098
0.0067195
0.00519331
0.00687274
0.00198322
0.000789007
0.00678885
0.000515963
0.00129738
0.000246917
0.000205997
0.00672457
0.00507758
0.000403089
0.00134225
0.000376455
0.0019516
0.00122486
0.00672284
0.00696164
0.035221
0.00672444
0.0346318
0.00346526
0.00669365
0.00257345
0.014171
0.00548478
0.0159513
0.00670303
0.0172015
0.0213985
0.00671591
0.00669743
0.00672989
0.000936618
0.00361863
0.0040714
0.0028337
0.0299147
0.00732464
0.00324226
0.00671627
0.0067065
0.0196276
0.00476043
0.00674684
0.00710469
0.000160508
0.000121791
0.00071206
0.0167956
0.00671363
0.000393635
0.0067068
0.00670316
0.000910471
0.00672873
0.00187797
0.00670304
0.0359818
0.000271391
0.000397343
0.0357873
0.000988809
0.00671261
0.000101453
0.00676186
0.00672069
0.000274633
0.00605638
0.00678871
0.00269544
0.00105433
0.00671594
0.014659
0.00603808
0.00532804
0.00672187
0.000219875
0.00461733
0.0322972
0.00309818
0.000986151
0.0064428
0.00657019
0.0389337
0.0016862
0.000357082
0.00674649
0.0103642
0.0329059
0.0423037
0.00672161
0.006841
0.0114957
0.0105151
0.000207808
0.000480646
0.00676629
0.006985
0.00122756
0.000255554
0.000400626
0.00032188
0.000813611
0.00021122
0.0058733
0.00672556
0.0158243
0.00669776
0.0193596
0.0024223
0.0165629
0.006723
0.00696413
0.00671543
0.00040813
0.00496244
0.00670287
0.00360513
0.00671976
0.000235052
0.00260435
0.00671405
0.00671826
0.00701012
0.000105456
0.00775212
0.0275919
0.00667074
0.00671566
0.000187629
0.00657626
0.0355008
0.00673099
0.00443618
0.0067049
0.0068421
0.00670437
0.0122349
0.00743187
0.00390466
0.00671647
0.0207907
0.00674884
0.00323728
0.00370083
0.00671581
0.000185831
0.00679815
0.00672425
0.00669342
0.00134032
0.000462424
0.00670297
0.0209868
0.000664103
0.00674041
0.00108531
0.000611872
0.0410216
0.00197044
0.00376236
0.00117285
0.00672159
0.0368204
0.0246934
0.00671935
0.00692186
0.0299356
0.000730921
0.00490728
0.00667315
0.0264096
0.00672231
0.000512012
0.0358468
0.00675469
0.0015569
0.00666423
0.000847854
0.00675973
0.00196617
0.0219216
0.00678571
0.0014145
0.0290546
0.00806145
0.00673098
0.00273375
0.00129192
0.00587638
0.0403265
0.00683684
0.00664252
0.0198397
0.00724992
0.000848681
0.00650935
0.00670168
0.00141188
0.000889061
0.0036237
0.00670815
0.0205847
0.000533731
0.00671504
0.00671378
0.013692
0.0260898
0.000686617
0.000281685
0.0240724
0.0367149
0.00673008
0.019408
0.0258548
0.00672494
0.000234472
0.00671554
0.000387456
0.0067303
0.0066038
0.00672406
0.00672595
0.00671922
0.0382627
0.000739269
0.0291742
0.000606884
0.00780643
0.00211387
0.00670005
0.0249403
0.00164341
0.0347328
0.00195611
0.000761027
0.00676743
0.0263842
0.00339233
0.0260798
0.00684487
0.000245583
0.0266158
0.000503748
0.000257504
0.00670297
0.00333461
0.00749197
0.000377898
0.0254026
0.00672387
0.00688519
0.00670336
0.00703433
0.000531886
0.000959475
0.00671086
0.00855217
0.0147547
0.021618
0.0067248
0.00791659
0.00673034
0.00671054
0.024461
0.027518
0.000390103
0.000359574
0.00164933
0.026243
0.00670314
0.00703292
0.0137405
0.000161939
0.00694122
0.000482857
0.000154276
0.00671885
0.00687006
0.00668605
0.00265521
0.000328715
0.00669418
0.00636094
0.00266963
0.0102765
0.00037152
0.00171675
0.00176188
0.022806
0.00519257
0.00670655
0.00678302
0.000951647
0.000207935
0.00671544
0.00676822
0.00670158
0.0142476
0.00709232
0.0216211
0.0194734
0.00672857
0.000398546
0.0263825
0.00675063
0.00669728
0.00669607
0.00671511
0.00580725
0.00696606
0.00349637
0.00132728
0.00175657
0.00718522
0.00672393
0.00198265
0.00712563
0.0170447
0.00459121
0.0334805
0.0293937
0.00269982
0.00895555
0.00670908
0.00672217
0.017132
0.000303204
0.00132914
0.000796354
0.000214833
0.0266835
0.0165725
0.0275633
0.00695579
0.00669286
0.00672751
0.000633259
0.00671327
0.000459583
0.0132145
0.00823875
0.00674547
0.000415073
0.0006693
0.0188799
0.0335662
0.000770619
0.00673553
0.000544733
0.00671
0.00677691
0.00133747
0.00682474
0.00685706
0.0207903
0.00671525
0.000187425
0.000554397
0.00673783
0.00608742
0.0146883
0.0295987
0.00248204
0.000445724
0.000711559
0.0040402
0.000135031
0.00440771
0.000159887
0.00699704
0.00439477
0.0066985
0.0185438
0.0031985
0.00671375
0.0067759
0.00778754
0.00672609
0.0234488
0.000860996
0.000489549
0.0102874
0.0067031
0.00127111
0.00248231
0.00917709
0.00669776
0.00672792
0.00672055
0.00673189
0.00667665
0.000362703
0.000955074
0.0225507
0.00685557
0.000825368
0.00670313
0.00670102
0.00175575
0.00668787
0.00673262
0.000194129
0.0207142
0.031697
0.003459
0.000471589
0.00672107
0.00669685
0.00279075
0.00671274
0.0180345
0.0140364
0.000547325
0.00669242
0.0125545
0.0201016
0.0067508
0.00339961
0.0197964
0.00297453
0.0064591
0.000366682
0.00673945
0.00247555
0.00510618
0.00841183
0.00239785
0.00182361
0.00668513
0.00690102
0.00672339
0.00438722
0.00669069
0.00837408
0.00852862
0.00673878
0.0067104
0.00671908
0.00263018
0.00670597
0.00253774
0.0307575
0.000136747
0.00668472
0.00671499
0.00676219
0.00229847
0.00251106
0.000155506
0.0173312
0.00674905
0.0353548
0.03258
0.000807917
0.0066816
0.00676891
0.0109778
0.00117787
0.00430307
0.00671606
0.00692932
0.0066993
0.000283529
0.00122518
0.00682088
0.00144362
0.0143628
0.0066256
0.000101541
0.0259271
0.0287494
0.000192542
0.0208956
0.00672217
0.000231657
0.0021088
0.0070289
0.00656377
0.0283836
0.0177161
0.00372337
0.000700582
0.0056878
0.00679641
0.000947234
0.00192428
0.0130719
0.0114719
0.00670288
0.0071301
0.00160893
0.00676677
0.0110626
0.00568746
0.000872728
0.00346362
0.000131411
0.0306522
0.00740894
0.000431177
0.00687347
0.0297743
0.0157334
0.000810471
0.0370446
0.0369303
0.00671686
0.00669633
0.00672167
0.000958029
0.000427433
0.0221637
0.00669649
0.00975765
0.015394
0.00663982
0.00672724
0.00672296
0.0311288
0.00679991
0.0134929
0.000456234
0.0026166
0.00671371
0.00930655
0.00680512
0.0274666
0.00672643
0.011578
0.0391795
0.0305861
0.0310426
0.00669493
0.00672593
0.00327251
0.00671021
0.00683948
0.00361554
0.0258856
0.00671919
0.00671786
0.00677555
0.031378
0.0129176
0.00587556
0.00458289
0.00106142
0.00200034
0.00358362
0.01269
0.000173792
0.00158446
0.00041263
0.00409057
0.00511106
0.0301702
0.0277625
0.000129381
0.000873941
0.00669553
0.00148661
0.0026616
0.00015418
0.000735174
0.00335862
0.00675416
0.0366449
0.00137174
0.037999
0.00681544
0.0209002
0.00671037
0.0309432
0.00345892
0.0124
0.00105933
0.00414196
0.0105779
0.000285121
0.00670819
0.0258008
0.00157692
0.000447635
0.00475069
0.0261397
0.00529826
0.0271088
0.00670966
0.0173341
0.00360128
0.00719956
0.00673915
0.0302729
0.00676607
0.00669633
0.00671906
0.0319345
0.0272627
0.00671729
0.00671674
0.00151949
0.0175249
0.00105002
0.00677671
0.0322736
0.0329291
0.0020324
0.00663495
0.00669439
0.000264831
0.00668612
0.0357348
0.00263839
0.00675141
0.00673669
0.00677203
0.0143333
0.0189113
0.00288223
0.00668961
0.00675574
0.0410477
0.000314
0.000762012
0.00219175
0.000157931
0.00360721
0.00673732
0.000630192
0.00439811
0.00669238
0.00668477
0.00674531
0.000283333
0.0041804
0.0310033
0.00696253
0.00542246
0.0385161
0.00673054
0.00662805
7.41718e-05
0.0292727
0.00674259
0.000999698
0.00286298
0.00690033
0.00516698
0.000933265
0.0176152
0.0374633
0.0309817
0.000948876
0.00677794
0.00311303
0.0087606
0.0052843
0.00680114
0.00670823
0.0358399
0.000583622
0.0228274
0.000142523
0.00682251
0.0168131
0.0307342
0.00666366
0.00666353
0.000500986
0.000876975
0.000469687
0.0004177
0.00677216
0.00677674
0.0110348
0.0204773
0.0127248
0.00668072
0.0067254
0.00670536
0.000890444
0.00671551
0.0175536
0.00680723
0.010931
0.00138943
0.00107447
0.00718432
0.0067462
0.0419511
0.00708775
0.0288184
0.0012667
0.0252797
0.00671064
0.00179335
0.00671544
0.036117
0.00620625
0.00832841
0.00175946
0.00672387
0.00748396
0.00671384
0.00669479
0.00675438
0.0070654
0.00672172
0.0154776
0.00276555
0.00670314
0.0249412
0.00409966
0.00691304
0.00136822
0.00671447
0.00670065
5.83873e-05
0.00670583
0.000250908
0.0320014
0.00254204
0.0357233
0.000499657
0.0067156
0.00870091
0.00673416
0.000151157
0.000665556
0.00204327
0.00671365
0.0066029
0.00720727
0.00671939
0.00675509
0.0182395
0.00695977
0.0020381
0.000253946
0.00425054
0.000279293
0.0156668
0.00167123
0.00671743
0.00107929
0.00671941
0.00118552
0.00679259
0.00672058
0.00729063
0.0367693
0.00672318
0.0067145
0.00684164
0.0067185
0.000508903
0.0306414
0.0254408
0.00672997
0.011656
0.000264004
0.000197459
0.0403812
0.00354044
0.00685
0.0067613
0.00675004
0.000875404
0.0356433
0.00671604
0.0102129
0.00671384
0.00237352
0.00670824
0.00670788
0.0391585
0.00273771
0.00452428
0.0273785
0.0369077
0.00675203
0.006705
0.000412764
0.0356661
0.00134687
0.0114664
0.018792
0.00670795
0.00681957
0.00695026
0.0201715
0.00573133
0.00671681
0.000268285
0.00680498
0.0352889
0.0428512
0.011118
0.00271595
0.021186
0.0417907
0.0183335
0.029447
0.00839873
0.0264435
0.0067191
0.00671708
0.000348463
0.0257203
0.00678321
0.00225379
0.02652
0.0131261
0.000676734
0.00683088
0.00712003
0.0107098
0.00671698
0.00652978
0.00675283
0.0359815
0.000623083
0.0261728
0.00675617
0.000521067
0.000249775
0.00621907
0.0352355
0.00671198
0.00673849
0.00671991
0.00671435
0.00701334
0.00495218
0.000720037
0.00674607
0.00673734
0.00671646
0.00670253
0.0185749
0.0047843
0.00671449
0.00681624
0.0067171
0.00685885
0.00671384
0.00138515
0.00987636
0.0133721
0.0201263
0.00513635
0.00677857
0.00668299
0.00677333
0.00191138
0.0237148
0.00700573
0.000674737
0.00673174
0.003064
0.00155576
0.0167209
0.00669761
0.00489188
0.00673712
0.00109274
0.0252319
0.0213001
0.00393393
0.00630218
0.0033229
0.00676745
0.0402957
0.00680981
0.0168753
0.00369631
0.0067088
0.000618381
0.0067127
0.00671179
0.022089
0.00672546
0.00671641
0.0073377
0.000335407
0.00674211
0.00689109
0.00751584
0.00670191
0.0218486
0.0067154
0.00680984
0.00356198
0.00671972
0.052552
0.0069398
0.00675107
0.00678617
0.00671176
0.0195113
0.00034001
0.0190137
0.00223695
0.000303676
0.00671364
0.00671261
0.0067065
0.0276343
0.00235756
0.00673568
0.00695932
0.00672559
0.000452826
0.00222799
0.00671612
0.0345491
0.00671418
0.000285841
0.00681442
0.00671996
0.00066048
0.0419881
0.00675661
0.0272724
0.0136172
0.00674455
0.00671316
0.0410217
0.00309195
0.00673585
0.026127
0.00670344
0.00156383
0.00677903
0.0152497
0.0190795
0.000365701
0.00674165
0.000202988
0.00673559
0.00671125
0.000835976
0.000586938
0.00672842
0.0287468
0.027881
0.00671294
0.00671121
0.00227826
0.00720418
0.000162786
0.00671819
0.00330438
0.00675384
0.00675441
0.000489056
0.000526103
0.006717
0.00670812
0.000487274
0.0235092
0.0138076
0.00676494
0.0156666
0.00977722
0.00798505
0.0196539
0.00693326
0.00677716
0.00564879
0.0067051
0.0067237
0.000581767
0.00448213
0.00544934
0.00550945
0.00672581
0.031237
0.00829636
0.000218766
0.00648741
0.00435144
0.00644847
0.0319876
0.00671072
0.000265335
0.000947602
0.0289096
0.00143403
0.00671045
0.018293
0.000853636
0.0067182
0.0067304
0.0215694
0.00200206
0.00671433
0.0069817
0.0233278
0.0532873
0.0276332
0.00669716
0.00673808
0.000779342
0.00677705
0.0308002
0.0172519
0.00674479
0.00230638
0.0265579
0.00671059
0.00671977
0.00670828
0.0274722
0.00039268
0.000177529
0.00725566
0.0166731
0.0201665
0.000709448
0.00358281
0.00670889
0.00671479
0.00565958
0.00180272
0.00670346
0.000816444
0.00670774
0.00840076
0.00250865
0.0144125
0.0166413
0.00758624
0.00671166
0.00677454
0.0376834
0.00678803
0.00673822
0.00710251
0.0330185
0.0107102
0.00671002
0.00671186
0.00174685
0.00668793
0.00671455
0.00747121
0.0345693
0.00122132
0.0171532
0.00024573
0.0057424
0.0354276
0.00469521
0.0159462
0.00730175
0.000608464
0.00674963
0.00670396
0.00669857
0.00671673
0.0367675
0.00674797
0.00233831
0.00112531
0.0190624
0.00677498
0.000403543
0.00733615
0.00504626
0.0312098
0.0461812
0.00631312
0.00671727
0.00671634
0.000968092
0.00670677
0.0171524
0.00225061
0.00942223
0.00452889
0.0028335
0.00671062
0.0067085
0.0168752
0.00361388
0.0341901
0.00754362
0.00670739
0.0164399
0.00483245
0.00675046
0.00671313
0.00225419
0.0195943
0.00689097
0.0035648
0.00170588
0.00671605
0.0119557
0.0067807
0.00696393
0.0297875
0.00676684
0.00671589
0.00038334
0.00107156
0.00211858
0.00669925
0.00670324
0.00465254
0.00338692
0.00570294
0.00672475
0.00682632
0.00615634
0.00671688
0.00086425
0.00114178
0.0215964
0.00671674
0.00488923
0.00674162
0.0173807
0.0022013
0.0380102
0.00731268
0.00658803
0.00671019
0.00670338
0.000133092
0.0014413
0.0102562
0.00677516
0.00671752
0.0122664
0.00105272
0.023358
0.0114462
0.0367395
0.00495047
0.000198651
0.027644
0.00676749
0.000760169
0.00671725
0.00284885
0.00673591
0.00673363
0.00121402
0.0186116
0.00070402
0.00677893
0.00719679
0.0344354
0.00695283
0.0067133
0.00767557
0.00676481
0.00669032
0.0377973
0.00695967
0.0271518
0.000869189
0.00169715
0.0390942
0.00153864
0.00138581
0.0125034
0.00447521
0.0325485
0.0234531
0.00678882
0.00671589
0.00673236
0.00672751
0.00672816
0.00907348
0.00689488
0.0198115
0.00676448
0.000409541
0.00680921
0.0051461
0.0387494
0.00664012
0.00368644
0.00677442
0.00674267
0.025797
0.0269191
0.00671118
0.0027201
0.00668936
0.000832666
0.00091294
0.00672055
0.0274832
0.000297618
0.00691137
0.00536279
8.48684e-05
0.00126138
0.00675134
0.0041468
0.00677539
0.0384475
0.0105764
0.00671415
0.00202793
0.00670451
0.0162772
0.000488091
0.00327164
0.00670654
0.000554543
0.00668383
0.0168078
0.00344791
0.0359699
0.000528924
0.0177258
0.0200741
0.00112481
0.00308201
0.0389808
0.00676757
0.021058
0.0202976
0.000268194
0.0231965
0.00235898
0.0115293
0.00043645
0.000929374
0.0276403
0.0214614
0.0224337
0.0411167
0.0318921
0.00672441
0.00690442
0.00292246
0.00419648
0.0237933
0.000134305
0.000352602
0.0394893
0.00307174
0.000511466
0.0106702
0.0347502
0.00673248
0.00146581
0.00672615
0.0357173
0.00516994
0.00068707
0.0192784
0.000615151
0.00658106
0.00984506
0.00182933
0.00698639
0.00671686
0.0404492
0.00210528
0.0067185
0.00677758
0.00103874
0.00134681
0.0169959
0.00241252
0.000394096
0.00110642
0.00176491
0.00671663
0.0384252
0.000486094
0.00688785
0.0305693
0.0359153
0.0297318
0.00668038
0.00325036
0.0335343
0.0308779
0.000438927
0.00132933
0.0387226
0.00398085
0.0422019
0.00676103
0.00669504
0.00555037
0.00677684
0.00670566
0.0066169
0.00675796
0.00149492
0.0173406
0.000330548
0.00696666
0.00667079
0.0398824
0.00010221
0.00236528
0.023947
0.0067106
0.00267263
0.00758398
0.00733716
0.00677751
0.0423782
0.00679124
0.0247456
0.00674102
0.0449198
0.00254292
0.0264584
0.00357153
0.00159004
0.00671181
0.0252717
0.00109283
0.000208825
0.00617568
0.0296488
0.00163197
0.029915
0.0162305
0.0149948
0.00162923
0.030794
0.00125677
0.00677332
0.00672641
0.00677538
0.00670672
0.00118868
0.00673739
0.00766836
0.00228244
0.00029737
0.000731911
0.000918448
0.00410638
0.0155582
0.00733281
0.0408826
0.00518351
0.0071449
0.00135446
0.00673347
0.00671716
0.00118931
0.00507197
0.00499482
0.0026734
0.000278584
0.0137263
0.00700073
0.00823689
0.0027074
0.000920323
0.00672579
0.00669783
0.0389273
0.0409765
0.00674325
0.0347703
0.00670927
0.00670544
0.0204629
0.00671139
0.00668619
0.0089842
0.000209989
0.00100728
0.000363811
0.00359426
0.00672836
0.0400662
0.00670945
0.00672175
0.0177059
0.0258018
0.000678229
0.00160501
0.00668236
0.00669635
0.0132829
0.0350815
0.000508304
0.000906225
0.00671549
0.00677704
0.00671394
0.00391336
0.0310542
0.00275319
0.0235638
0.00223108
0.00678027
0.0355352
0.00670028
0.0315391
0.0270189
0.00056535
0.00174127
0.00680586
0.0319693
0.00329806
0.00321044
0.00364449
0.00108275
0.00668206
0.00474945
0.00448401
0.000435373
0.000622644
0.0337511
0.00342227
0.00670642
0.0513334
0.00700246
0.00133226
0.00072091
0.00673124
0.000199066
0.000602443
0.00671493
0.00670391
0.00670543
0.000834266
0.00671037
0.00929588
0.00789238
0.00220467
0.0383994
0.00671768
0.00339463
0.00441245
0.0196577
0.00681357
0.00113716
0.0311388
0.000295996
0.00524015
0.0034691
0.00671812
0.00676009
0.00678147
0.0298189
0.0173182
0.00674959
0.00103476
0.00450021
0.037657
0.0067069
0.00669602
0.00758958
0.00671446
0.00482813
0.00176441
0.00196945
0.0030918
0.00686543
0.00673036
2.09531e-05
0.0067459
0.000421308
0.00515992
0.000695231
0.000617619
0.000173561
0.00220274
0.00693046
0.00676535
0.00362283
0.0204961
0.00218798
0.00668416
0.00646505
0.00190379
0.000345897
0.00664105
0.00676016
0.000886608
0.000594478
0.000183274
0.00112255
0.000523033
0.000257653
0.00461481
0.0279582
0.0135297
0.00141935
0.000220024
0.000276715
0.00330347
0.00282586
0.00676305
0.0199473
0.026708
0.00671431
0.0152382
0.00671994
0.00670188
0.00682429
0.00880959
0.011086
0.00676012
0.00674066
0.0264985
0.00228211
0.00125666
0.0359464
0.00167259
0.0278274
0.0164874
0.00421195
0.00683998
0.00376226
0.000555999
0.00336404
0.00680887
0.00670364
0.00670344
0.00291481
0.0068208
0.0387683
0.00676317
0.00018996
0.0043781
0.000313473
0.000494485
0.00671722
0.0392842
0.00671647
0.0449497
0.00671582
0.000418318
0.00030883
0.000135635
0.00124743
0.00512963
0.0267554
0.000697831
0.000328659
0.039323
0.000281119
0.000116278
0.0385018
0.00670572
0.000901193
0.00768706
0.0111108
0.00263495
0.0300247
0.000288955
0.000159442
0.00674258
0.000661348
0.0179578
0.0118241
0.00252687
0.00669567
0.000213018
0.0272558
0.0067162
0.000330878
0.0246294
0.00680048
0.00055045
0.00260419
0.00483443
0.0209646
0.00553739
0.000397679
0.00671509
0.00670283
0.000834478
0.00670133
0.00167685
0.0251579
0.000281197
0.00669678
0.000141519
0.0375475
0.000407131
0.00671507
0.000113179
0.000121629
0.00680764
0.000657672
0.0184218
0.00286831
0.00024349
0.0345164
0.00210158
0.00065444
0.00671509
0.036396
0.00671059
0.00696473
0.036804
0.000424238
0.00678688
0.00671461
0.00676566
0.000355784
0.00373552
0.00673023
0.00213055
0.00259077
0.0394668
0.0200037
0.00180833
0.00379439
0.00828327
0.00455748
0.0391697
0.00102394
0.00673171
0.0190226
0.00278883
0.0258846
0.00669074
0.00226734
0.00142905
0.00195034
0.00191991
0.00075122
0.00670674
0.000224865
0.00201737
0.00674095
0.00980465
0.00635384
0.000133669
0.00168784
0.0303511
0.0152169
0.00679119
0.000612582
0.000720818
0.00726996
0.000291547
0.00221582
0.000526592
0.000309153
0.00671683
0.00668278
0.00678634
0.0274531
0.0381992
0.000485856
0.000358729
0.00672363
0.00042421
0.00676991
0.000628317
0.00059947
0.00679297
0.00729707
0.0386154
0.00670976
0.00530459
0.0168124
0.000333467
0.024757
0.00203835
0.00758885
0.00174104
0.00054439
0.00671436
0.000320395
0.0152843
0.00668545
0.00675855
0.00421864
0.0207419
0.040078
0.00456457
0.00418046
0.00349717
0.0199566
0.021554
0.00677294
0.00675417
0.000558834
0.022747
0.0146564
0.00259275
0.00677622
0.039365
0.00407457
0.002896
0.00159818
0.00670785
0.00668295
0.00649279
0.00114256
0.0326772
0.0023943
0.00668207
0.000714758
0.00659626
0.000873292
0.000823098
0.00384147
0.0163606
0.00739947
0.00061611
0.0383112
0.00677808
0.00369011
0.011362
0.0357807
0.000527516
0.0416516
0.000335381
0.00671251
0.00669823
0.0067379
0.00300896
0.00564072
0.000300965
0.00246063
0.00669566
0.0210184
0.0108061
0.00674951
0.050795
0.000252999
0.0038591
0.0278225
0.00669627
0.0269638
0.00673984
0.000433161
0.0166199
0.00676283
0.00122783
0.0379324
0.00124197
0.00665369
0.000410113
0.0128995
0.00676459
0.0139085
0.00673829
0.0247639
0.0319223
0.044271
0.00670974
0.00509117
0.00029797
0.00202396
0.0522945
0.0067444
0.0060607
0.000407191
0.00674675
0.000691488
0.00500662
0.000710978
0.00671607
0.00677428
0.00723024
0.00670247
0.00647938
0.00167292
0.000646785
0.0469284
0.00124864
0.000916244
0.000740684
0.0148978
0.0266797
0.00213088
0.000351325
0.000306275
0.00673501
0.00847341
0.00671403
0.00640258
0.00665597
0.000458046
0.00281486
0.0434765
0.00348113
0.00328892
0.0134496
0.00427013
0.0276762
0.028247
0.000814857
0.00220258
0.0006303
0.00687837
0.00671619
0.00670306
0.00679825
0.00671667
0.00672178
0.000255097
0.00669691
0.000205218
0.0152462
0.000899896
0.0397053
0.00456029
0.000261923
0.00421557
0.00671591
0.00138213
0.040715
0.0130655
0.00136295
0.00671584
0.00085511
0.00671288
0.021795
0.00526253
0.0402922
0.020874
0.000607274
0.000699848
0.00344176
0.027455
0.00242252
0.000160507
0.00402103
0.00238186
0.00677753
0.0041921
0.00672709
0.00676927
0.000697577
0.0335248
0.00676241
0.00734748
0.00195482
0.0066538
0.0412891
0.00744029
0.0265785
0.00770217
0.00318562
0.006763
0.00696278
0.00671351
0.00671357
0.00157968
0.014709
0.00668358
0.0245454
0.0358128
0.0362297
0.00547025
0.00522737
0.00670454
0.00677417
0.0130237
0.00413361
0.00573018
0.000312744
0.00668999
0.00671561
0.000339198
0.0418421
0.0415048
0.00680076
0.0219232
0.00271408
0.0166262
0.00676037
0.00708853
0.00678085
0.00673291
0.000943727
0.00318242
0.0067767
0.0046248
0.00748478
0.000756294
0.0459774
0.0153677
0.00430351
0.00671524
0.00487271
0.00122258
0.00457612
0.00679557
0.000585557
0.00635464
0.00672884
0.00670837
0.00458146
0.000783648
0.0403774
0.00283913
0.00686096
0.00669936
0.00671444
0.00675065
0.0331791
0.000263969
0.000409289
0.000393732
0.00671055
0.00770201
0.000856934
0.00669694
0.0398698
0.0231502
0.00306439
0.00500582
0.00385645
0.00675985
0.0166124
0.00563848
0.00456107
0.00370999
0.00736346
0.00672682
0.00521458
0.00668147
0.029903
0.0392817
0.00441158
0.00670752
0.00199039
0.00677453
0.0151905
0.000666779
0.0343172
0.00677466
0.0067768
0.0067549
0.0031446
0.00304491
0.00702178
0.036737
0.00678545
0.00668391
0.0294419
0.0107623
0.00168964
0.0035441
0.0067136
0.00638621
0.00265373
0.00670931
0.000630117
0.0067664
0.0114612
0.00319144
0.0304647
0.0110142
0.000259439
0.00700841
0.0337553
0.0067806
0.0214356
0.00045035
0.00669952
0.00671637
0.0182632
0.0168862
0.00373412
0.022593
0.00672014
0.00164769
0.00657208
0.0216826
0.000257073
0.00670899
0.00671236
0.000156039
0.0309958
0.0360848
0.00677854
0.0365655
0.00672334
0.0067099
0.00672101
0.014117
0.00630525
0.000623775
0.00679032
0.00679016
0.0322038
0.00675351
0.000125497
0.00402867
0.00681858
0.00673154
0.00246791
0.00535441
0.00678756
0.000251692
0.000804618
0.00124095
0.00328144
0.00249231
0.00669513
0.00675427
0.0162895
0.00678549
0.000259387
0.00412083
0.00029759
0.0179485
0.00378005
0.0067421
0.00674628
0.00671914
0.00115478
0.00670583
0.00678215
0.034282
0.00781252
0.000795197
0.0059441
0.00673918
0.0205617
0.00671296
0.00673433
0.00677176
0.0110816
0.0104284
0.00671593
0.00671606
0.00733814
0.00674563
0.000500665
0.00186976
0.0067048
0.00139118
0.00677665
0.00672086
0.0138103
0.00672873
0.00672862
0.0392699
0.0067187
0.00523096
0.00671099
0.01212
0.000229313
0.00490438
0.000547505
0.0356071
0.00019084
0.00339501
0.00338244
0.00410148
0.00560056
0.0179679
0.0356676
0.00724229
0.00670998
0.00103436
0.00685912
0.000329092
0.000824251
0.0217578
0.00148162
0.0015509
0.000433753
0.00769999
0.00201399
0.00469867
0.0118221
0.000223293
0.0262947
0.00457687
0.00469309
0.026426
0.00782435
0.0129806
0.00352385
0.0027278
0.00434769
0.00498718
0.027776
0.00680097
0.003158
0.000500382
0.00507825
0.00578503
0.0067158
0.00674716
0.0171295
0.00542403
0.00110317
0.0013659
0.00357983
0.00146413
0.00671641
0.00775027
0.0384374
0.000281923
0.000210168
0.0079598
0.00673787
0.000377663
0.000504739
0.00631398
0.00121914
0.0031192
0.00412389
0.00379278
0.00414057
0.00671113
0.0104022
0.00680907
0.000209659
0.0151712
0.0131101
0.0127753
0.0145976
0.005305
0.00193452
0.000294698
0.000460011
0.00406048
0.00283935
0.00538133
0.00120908
0.0139454
0.0262267
0.0366389
0.00670814
0.029204
0.00679128
0.0205256
0.00694227
0.000248111
0.0155597
0.0324194
0.0226332
0.0299761
0.00677496
0.000303707
0.00207551
0.00671463
0.00672719
0.00337661
0.0356709
0.000606774
0.00983568
0.000547614
0.00114903
0.00655534
0.0171436
9.82323e-05
0.00358986
0.00184206
0.00676629
0.00245446
0.0442365
0.000399288
0.00426558
0.0142736
0.000221001
0.00126441
0.0137903
0.000378479
0.00158847
0.00176949
0.00677604
0.00671529
0.00191527
0.0382168
0.00114058
0.000603905
0.00546002
0.00673575
0.0208058
0.00677687
0.000508785
0.0187738
0.0033053
0.0160431
0.0403233
0.00552106
0.000197419
0.0176702
0.000354961
0.00670388
0.000318675
0.00211647
0.00529318
0.000131623
0.00672315
0.00434624
0.00892751
0.000259814
0.00839308
0.00763153
0.030464
0.00683909
0.00161505
0.000576559
0.00685396
0.00704122
0.00672501
0.0076253
0.00231925
0.00225918
0.00021509
0.00671412
0.00117298
0.0193006
0.00312169
0.0387183
0.000269433
0.01342
0.0381229
0.00782479
0.00170853