/*--------------------------------*- C++ -*----------------------------------*\
| =========                 |                                                 |
| \\      /  F ield         | OpenFOAM: The Open Source CFD Toolbox           |
|  \\    /   O peration     | Version:  v2012                                 |
|   \\  /    A nd           | Website:  www.openfoam.com                      |
|    \\/     M anipulation  |                                                 |
\*---------------------------------------------------------------------------*/
FoamFile
{
    version     2.0;
    format      ascii;
    class       volScalarField;
    location    "250";
    object      omega;
}
// * * * * * * * * * * * * * * * * * * * * * * * * * * * * * * * * * * * * * //

dimensions      [0 0 -1 0 0 0 0];


internalField   nonuniform List<scalar> 
18649
(
0.888919
0.0212453
0.856833
0.0971744
0.0227479
1.18043
0.0213659
0.0195794
0.355775
2.04835
0.0212206
0.0211046
0.0240717
0.0217622
0.581478
0.0244888
0.0223974
0.0213606
1.17075
0.0212427
0.0210994
3.78645
0.537756
0.0780388
2.03073
0.514018
0.463274
0.527645
0.0217406
7.91205
0.0260738
0.0269898
0.0223533
0.0320594
0.0220757
0.0357587
0.515485
0.0429974
0.0212117
0.0217452
0.809378
0.0221581
0.194076
0.537485
0.42907
4.25978
0.551381
0.0315574
0.0213954
0.084803
0.0921895
0.543052
0.0210842
0.865846
0.0204363
0.192502
1.86978
0.0213994
0.0181853
0.723787
0.0204018
0.114826
0.0214486
1.87454
7.32667
0.470589
0.719859
0.023638
0.428707
3.86352
0.460183
0.0315957
0.0213504
0.0214462
0.00839654
0.5835
0.696866
0.0226838
3.85732
0.314038
0.0182149
0.047938
1.18486
1.15224
0.0235538
0.186087
0.0268079
0.0310024
0.322421
0.162183
0.546385
0.142918
0.0798904
1.53567
0.0215265
0.0210615
0.0352344
0.0552225
0.409358
0.0204018
1.12153
0.0234519
0.0417635
0.0200738
0.359143
0.364718
1.20001
0.282236
0.186677
0.0213461
0.0212621
0.0337294
0.0367698
0.0208514
0.0213529
0.0570982
0.0235907
0.0345772
0.0223003
0.0267691
0.0204493
0.0614611
0.646536
0.0208555
0.0245163
0.0222438
1.83201
0.0215957
0.0218131
0.0207801
0.0214569
1.86789
0.158352
0.179822
0.0218057
4.56525
0.467466
0.285827
0.457539
0.420318
0.0299122
0.0229402
0.0198127
0.0215189
0.449485
0.0203933
0.0217423
0.182274
0.378181
0.0215638
0.663388
0.387993
0.0237551
0.0213459
0.0526945
0.0599608
0.0215691
0.021035
0.0207667
0.728781
1.14099
0.710607
0.0215594
0.477493
0.218425
0.0217018
0.456027
0.400139
0.0250356
0.0203812
0.0275573
0.0215432
0.0207447
0.0215198
0.0795483
0.401892
0.466473
0.0215569
0.385034
1.14051
0.0210542
0.415867
0.0235324
0.0210158
0.0214046
0.0229187
0.0203471
0.0553561
0.0204104
0.0198742
0.0232185
0.64087
0.662198
0.0306734
0.0481488
0.0207432
0.0235695
0.0232366
0.22143
0.0314711
0.0199392
0.0213725
0.725041
0.021351
0.0215984
0.0212872
0.191856
0.74293
0.0225296
0.0210098
0.0203986
0.0231909
0.0201738
0.0314003
9.99178
0.0349322
0.0220253
0.0231057
0.0209934
0.538698
0.912214
0.274334
4.50898
0.903048
0.720133
0.423806
0.139774
2.02309
0.0255441
0.968353
0.0198419
0.0196484
0.0320889
0.0211227
1.97906
0.0210468
0.0223502
0.0214168
0.0202079
0.0194502
0.0483137
0.752315
1.13092
3.81461
0.710912
0.0336202
0.0314535
0.0226903
3.92843
0.0573894
0.0380212
2.0356
0.021443
0.0218683
0.0274795
0.0213303
0.0210021
0.0203921
1.02094
0.0251917
0.510858
0.020066
0.0202237
0.0393378
0.0201341
0.145263
0.0275657
0.487428
0.0254255
0.0211755
2.05294
0.363373
0.0298856
0.0210621
0.52415
0.0610209
0.0218012
0.0247889
0.0460461
0.120401
0.217221
0.0223816
0.745827
0.0219352
0.020709
0.182088
0.0655665
0.021366
0.491724
0.022842
0.0210691
1.16401
0.0214461
0.0213881
1.84067
3.81185
1.9012
3.14908
0.0294637
0.0210412
0.0213031
0.483437
0.481953
1.91158
0.23779
0.360058
0.512249
0.0900077
0.0309409
0.0964394
0.0210759
0.04625
0.0168768
0.0209136
0.0218921
0.00952922
0.0235332
0.19901
0.720885
0.0208368
3.83976
0.0206286
0.0204258
0.0214991
3.16643
0.0239566
1.86608
0.712896
0.021345
0.0213875
0.0218213
0.585955
0.24483
0.0243852
0.852529
0.0210608
0.127118
0.297679
0.0547314
0.18946
0.0382585
0.706051
0.175489
0.648152
1.96533
0.102164
0.057087
0.0211903
3.08529
1.17124
0.0222761
1.96473
0.0200699
0.0277451
0.0271156
0.0472152
0.0235349
0.623235
0.0188694
0.0202294
0.0317802
0.103367
0.670298
0.021461
0.750573
0.735219
0.0212078
0.0234592
0.694478
0.0201804
0.0483109
1.97284
0.253069
0.0212205
0.494132
0.0214756
2.06653
0.678612
0.620715
0.246202
0.2278
0.021052
0.0267899
0.369915
0.617792
0.0229191
0.0436403
0.0207728
0.0217927
0.0213764
0.261831
0.0253025
0.201038
0.0229163
0.459848
0.00726027
0.0148219
0.0203213
0.0215824
0.0207498
0.238795
1.18323
0.0224781
0.142989
0.356826
0.0270543
0.0207757
0.525714
0.0209611
0.0545363
0.0274484
0.120343
0.14926
0.0214695
0.227407
0.0263165
0.605852
0.0325653
0.0218615
0.022166
0.0340245
0.134418
0.0867909
0.656098
0.72523
0.0193706
0.683715
0.67417
0.0244505
3.30836
1.94587
0.0204094
0.0259151
0.0268813
4.57983
0.0212433
0.0211045
0.637742
0.0212001
0.0209491
0.0203964
0.0196811
0.0214511
0.0509765
0.0214831
0.0214499
0.0218507
0.149807
1.17377
0.0255763
0.0215799
1.84883
0.0215711
0.410653
0.0336365
0.025052
0.0211187
0.0205463
0.270769
0.198524
0.0210586
0.489515
0.0212331
0.445217
1.96067
0.0217813
0.0196809
0.0177556
0.0215107
0.0227614
0.0222108
0.0201766
0.0321613
0.0605259
0.0764386
0.0875911
0.02135
0.0215938
0.0399264
0.305601
0.0405739
3.96065
0.0260131
0.0203939
0.0138413
1.06109
0.0210718
0.682456
3.94896
0.0222928
0.0388061
0.609022
0.159288
1.11893
0.0207642
1.11842
1.15064
0.0215692
0.020062
0.0217532
0.152217
0.0222179
0.0219475
0.023218
0.517612
0.534982
0.0378441
0.0197895
0.0207675
1.15179
0.0184351
0.0214107
0.0272927
0.182809
0.163906
0.0367248
0.518594
0.0210949
0.124825
0.0207626
0.0208021
0.0283323
0.0214099
4.38688
0.0207957
0.434482
0.638271
0.261264
0.462873
0.037569
0.0208681
0.286722
0.0204119
0.0206703
0.169291
0.0218423
0.0198729
0.0415458
0.625666
0.0214041
1.88787
0.0279639
3.08396
0.0210769
0.0755355
1.50571
0.698282
0.0231823
0.0715598
0.0252719
0.025569
0.922642
0.0140686
0.117809
0.0214051
0.925206
0.35538
0.73354
0.021083
0.0213533
2.03958
1.04435
0.196596
0.0378618
0.0206571
0.0216438
4.14727
0.0987264
0.0351386
0.0546058
0.0268135
0.0794321
0.158212
0.0207336
1.94773
0.0197165
0.548295
0.0226471
1.94495
0.0214366
0.0216091
0.0210433
0.470733
0.0634427
0.0199757
0.0222313
0.0213826
0.259444
4.11441
0.0210905
0.020967
0.0213638
0.293486
0.0222771
0.638377
0.0224728
0.0214155
0.271588
0.0240971
0.420987
0.0209801
3.55093
0.0204117
0.0202142
0.0207489
1.74711
0.0279427
0.327221
0.0214013
0.425622
0.0214643
4.00021
0.0244818
0.0210579
0.175792
0.0215931
0.0207284
0.0217985
0.102388
0.0913421
0.0208102
0.451387
0.169372
0.0214133
0.0579577
0.0305012
1.13803
4.33999
0.0478728
0.687183
0.0214103
0.699102
1.72014
0.022139
1.0724
1.05684
0.03514
1.69193
0.0226602
1.04697
0.0214319
0.254987
0.444855
0.0211205
0.0989098
0.0225942
0.0310172
0.0203978
0.0229991
1.11615
0.0206204
0.0955264
0.654866
1.59583
0.0213749
4.16219
0.0438952
0.0217297
1.13546
0.0213787
0.0226745
0.572058
0.0256853
0.0380817
1.13078
0.0207684
0.00989052
0.0493279
0.0223712
0.0204859
1.14664
0.0298086
0.0209621
0.0207387
1.02015
0.715203
0.0988062
0.164605
1.10404
0.428915
0.0212703
2.04363
1.76277
0.0213804
0.0927157
0.0207358
0.0444969
0.0213693
0.0235174
0.0210775
0.0207229
0.0214114
1.12742
0.719029
0.723845
0.0305156
0.0228178
0.37693
0.0199879
0.732525
0.0458195
0.456438
0.023159
0.213814
0.0206728
1.07458
0.0383104
0.729598
0.0214397
0.400921
1.00983
0.0333194
1.3239
0.0215917
4.54436
0.0279254
0.0680176
1.17876
0.0203847
0.0199932
0.020817
0.0246145
0.15986
0.34974
0.0211447
0.847598
2.14563
1.14134
0.0207183
1.56569
0.0203872
0.0211475
0.671955
0.488124
0.0393301
0.0891053
0.0234657
0.669657
0.0240238
0.0215721
0.670802
0.21601
0.0204324
0.0607176
0.126981
0.0214074
0.0211079
0.0197374
0.157089
0.0499019
0.0201295
0.0217427
4.88732
0.844336
0.094081
0.102316
0.0232862
1.10878
0.0219019
0.0201838
0.020082
0.0361592
0.120796
0.0214198
0.0204144
0.0204085
1.89221
0.0217288
1.13612
1.86756
0.0212703
0.0617628
0.985764
0.0210851
0.0200492
0.0200267
0.0197382
0.796987
0.0266715
3.80131
0.0394354
0.044676
0.0254107
0.0213755
0.0230096
0.0258244
0.41537
12.3966
1.10444
1.9746
5.15666
0.870438
0.021631
0.0213844
1.64108
0.0474779
3.53543
0.0275053
0.1143
0.463102
0.621717
0.360374
0.690025
0.0201182
0.0220263
0.0264108
0.0209405
0.418376
2.09937
0.0199098
0.0214691
0.036892
0.0593148
1.68392
0.662139
0.702562
0.0215895
0.317631
0.0211879
0.0216796
0.0247056
0.0202154
0.0211824
0.744392
0.0209441
0.0825059
0.0386473
0.0213022
0.0216315
0.00831138
0.524574
0.169677
0.0404154
0.136249
0.022143
0.0979328
0.628262
0.163016
0.0216464
0.022191
0.0194476
1.1458
0.0224583
0.0235361
0.020504
0.0208114
0.0197471
1.74548
0.0440567
0.0390441
0.982224
0.0207814
0.0387022
0.230344
0.857694
0.0204364
0.0207519
0.0210971
0.0202697
0.0221589
0.453094
0.027468
0.737458
0.0205281
0.0290004
0.0207881
0.0218064
0.11277
0.0197314
0.0202589
0.0813872
2.02636
0.62951
4.04649
0.0361931
0.021407
0.020431
5.48334
0.0197298
1.14674
2.11752
0.554043
0.0201161
1.98494
1.8643
0.0214596
0.0308675
1.16022
3.88991
0.0250364
0.0429466
0.0213492
0.164626
3.20515
0.0162506
0.159974
0.0228805
0.0219558
0.0213129
0.0212795
0.0218042
0.0197247
0.814387
0.813264
0.0200101
0.0211722
0.0210974
0.0263599
0.0207341
4.80546
1.96276
0.118534
0.019738
0.0197338
0.0197793
4.4549
0.162908
0.290715
2.02995
0.0202651
1.16819
1.07645
0.331368
0.0197427
0.0204696
2.00433
0.0246044
3.46925
0.0209369
0.0258964
0.0209397
0.0541445
0.0456182
0.020161
0.0241062
0.507039
0.0232965
0.257596
1.22073
0.375969
0.0887352
0.417712
0.0214229
0.0776559
0.0483921
0.0251707
0.0241258
0.64219
0.406116
3.57303
0.423141
0.0222029
0.0203593
0.0417786
0.0225401
2.14656
1.75679
0.0199651
0.024994
0.315767
0.0214345
1.04504
0.0218006
0.356006
3.98432
0.160791
0.27845
0.029043
0.0585582
0.0202515
0.64057
1.10648
0.0331922
0.502915
0.683293
0.0210672
0.0200448
0.0214198
0.342703
0.475369
1.70244
0.0204314
0.938929
0.684049
0.0229233
0.0196988
0.0214445
0.635287
0.020123
0.685079
0.389817
4.46257
0.0209615
0.594073
0.0212459
0.741949
0.0197391
1.06234
1.10103
1.79044
1.07309
0.0197279
0.0213555
4.1009
0.0222059
0.0201285
7.93276
1.80182
0.0220047
0.0205044
0.0216585
0.62184
2.04965
0.690675
1.11325
0.0254134
0.0496032
0.0223027
1.02042
0.0955483
4.72063
0.107806
0.0284164
3.23571
0.622956
1.05976
0.245256
0.354986
0.0200352
0.0247459
4.46677
0.133594
0.0748637
0.022371
0.021471
0.520226
0.0248464
1.09468
0.0215525
2.04444
0.0211594
0.66599
0.033021
1.98253
0.25228
0.0221229
0.887391
0.067385
0.0201988
0.937323
4.74797
0.0355424
0.0218709
0.952658
0.01689
1.7365
0.0211838
0.745154
0.0273367
0.0209906
0.0213565
0.672926
0.0204003
0.020064
0.020524
0.673938
1.25708
0.0213629
0.0210556
0.0235053
1.98144
0.0247968
0.0216751
1.80239
1.06418
8.86937
0.02293
0.0200706
0.428142
0.0197625
0.440125
0.392141
0.0210637
0.0197514
0.0215569
0.98968
1.81154
0.343965
0.0197282
0.0211014
0.434038
0.0520574
0.207768
3.84236
0.468763
0.0153014
0.0214478
1.85645
0.0219501
0.0197208
0.0197525
0.0211811
0.659292
0.0258709
0.639321
0.021236
4.70309
0.681879
0.0197001
0.0279708
0.199553
1.74704
0.0214596
0.0400226
0.0429178
0.0256668
11.8506
0.260822
1.76708
0.662743
0.386445
0.334314
0.0216943
0.0222413
0.0229275
0.0176681
0.021622
0.0208204
0.455417
0.0293589
0.735772
0.274488
0.0208106
0.49106
0.599099
0.0234387
0.0235995
0.566301
0.0297944
0.312217
0.29469
0.0215661
0.0204212
0.517187
1.11262
1.92485
0.0223019
0.0212311
0.0207858
0.0306673
0.0209583
1.6747
0.0216591
0.460612
3.27118
0.0247857
0.0217158
0.0197015
0.750864
0.0207419
1.76441
0.0243766
0.908648
0.0211561
0.0391261
0.0210324
0.443439
0.0183746
0.834887
0.023992
0.0213544
0.0287555
0.0212547
0.0197154
0.0204298
0.0215993
0.0213867
1.91649
1.06977
0.0207745
0.623838
0.0228214
0.0213611
0.300107
0.0209566
0.01973
0.209054
0.0207915
0.0793824
0.671983
0.0360587
0.355244
0.456541
0.0210249
0.49763
0.0199139
0.112177
0.572138
0.0231659
0.0199007
0.0239263
0.0217597
0.0201848
0.0204241
1.94624
0.0204949
0.0939933
0.388182
0.0276371
0.0536401
1.75664
0.0233521
0.0213715
0.02532
0.0213953
0.0536634
0.0212018
0.0212009
0.0218948
1.06923
0.0216175
0.0210469
0.0211262
0.021128
0.0350077
0.278872
0.913782
0.0197275
0.573302
0.151584
0.350966
0.418205
9.72678
0.0211293
0.020449
0.0214794
0.0263073
0.444604
0.0202274
0.554592
0.0209563
0.298171
0.0208164
0.0199504
0.710131
0.0236032
0.279141
1.8967
0.66825
0.0214753
0.0207423
0.111223
0.3931
0.0233845
0.622597
1.99831
0.0199108
0.0212846
0.0271774
1.88504
0.0216424
0.0213456
0.0606615
0.0212366
0.451696
0.738831
0.965886
4.15699
1.95101
0.572862
2.03829
0.634871
4.67753
0.819655
0.0209646
0.0209608
0.0675902
0.928914
0.0217217
0.0223393
0.69749
0.550754
0.062182
0.0202251
0.0215182
0.511101
0.0211353
0.0217581
0.0214552
0.460554
0.0296557
0.82872
0.0214671
0.179623
0.0636904
0.0220828
0.457397
0.0212331
0.0216356
0.0211282
0.0262579
0.0212386
0.319097
0.76922
0.0210544
0.0197359
0.0210139
0.0207713
0.652958
0.0218984
0.0210188
0.0265648
0.0212919
0.021131
0.0209462
0.0244916
0.384866
1.98116
1.99086
0.0219148
0.0217279
0.0197438
0.0215583
0.105603
0.767544
0.0215586
0.0286472
0.0205922
4.63042
0.023173
1.11344
0.0197199
9.63119
0.0216025
0.027245
0.909132
0.339326
3.85177
0.454435
5.49852
0.0214443
0.550485
0.0202938
1.95156
1.33138
0.0204826
0.492788
0.0205051
0.0197354
0.792591
0.0205737
0.0210215
1.71706
0.0479876
0.0210412
0.0253006
0.0196248
0.0207616
0.803058
0.0210658
0.020264
8.47908
0.0214089
0.417285
0.0211543
0.0214319
0.0207223
0.0212
1.96272
0.0562238
1.13568
0.100332
0.0815042
0.0210424
0.0203884
0.0207265
1.9034
0.0255631
0.0215105
0.021087
0.0213698
0.238288
4.13044
0.0204274
1.10043
0.0209168
0.0448033
0.0199876
0.0213502
0.0238233
0.433435
0.0210803
0.44098
0.586864
0.509056
0.0214326
0.422313
4.66803
0.0197256
1.90881
0.0208239
0.375409
0.0217187
1.15003
1.9055
0.045064
0.0207126
0.0794254
0.0212661
0.0212181
0.0266137
0.0598779
0.021366
0.651019
0.747932
0.0214034
0.0210957
0.0251211
0.02205
0.084268
0.0211347
0.0247379
0.0213932
0.0206329
0.0348117
0.184667
0.0212957
0.0211573
0.0325427
1.95872
1.99617
0.0215721
0.996475
0.900507
1.30085
1.89359
0.0270553
0.0217493
0.0217547
0.0207402
0.0220113
0.584133
0.0219619
0.0220838
0.0234469
0.0213791
0.653478
0.0186228
0.522194
0.0220855
3.56704
0.0219506
1.08294
0.0202016
0.0656747
0.028255
0.44622
0.0237682
0.0210997
2.00886
0.0267708
0.0214106
0.0197471
0.585519
4.07794
0.0210434
0.0212679
0.817958
0.423854
1.21482
0.0204366
0.0210356
0.857189
0.0217497
0.654196
1.64434
0.020027
0.0224814
0.83543
0.0211689
0.0214172
0.0203961
0.859925
0.036391
0.165208
0.427275
1.64359
1.90164
0.462911
9.04415
0.0211699
0.0209479
0.0219587
0.0243098
0.019778
0.526105
0.020725
0.791367
0.0224868
1.12181
0.72724
0.410019
0.0204814
0.021562
0.495863
0.0207136
0.0211981
0.0234944
0.655343
1.80705
0.0215495
0.021227
0.0240936
0.0226022
0.0206314
0.0227483
0.82416
0.0241309
1.91415
0.0633915
0.240942
0.400221
0.319258
2.15936
0.0222825
0.200045
0.020277
0.0207528
0.0200093
0.0209346
0.478643
0.0204037
0.187533
0.0315573
1.88339
0.0217717
0.0385051
0.0225513
0.701289
0.640546
0.391878
0.0218483
0.0210108
0.0209504
0.0261962
0.0207174
1.89743
0.0225903
0.848811
3.49088
0.0223618
0.0212035
0.0211603
2.00217
4.82084
0.824118
0.0229702
0.0207207
1.66366
0.311166
0.0214246
0.0209066
0.160179
0.562189
0.0203108
0.575915
0.0968138
0.0205038
1.91457
0.0201709
0.0214145
0.446163
0.0215777
0.0206358
0.0406355
0.0248778
0.0229022
0.0199982
0.0197325
0.0220918
0.0223182
0.0219954
0.0197404
0.0214626
0.0216343
0.0213886
0.0592746
0.0246196
2.13983
0.0197344
9.43631
0.0214606
1.69924
0.0227274
0.490189
0.0220935
0.0237583
0.0210959
0.020173
0.105896
0.0257016
0.620569
0.020329
0.0214221
0.471932
0.0261791
1.11445
0.431604
0.670136
11.4641
0.071036
0.444785
0.0201497
0.0273658
0.0213497
0.0222393
0.0203042
0.0202327
2.75131
0.383177
0.0259379
0.0217307
0.0220039
0.660124
0.0235413
0.0209456
0.0260771
0.0203822
0.0196197
0.699934
0.0214737
0.849563
0.0336729
0.0370079
0.503485
0.084898
0.023066
0.985587
3.37944
1.07687
0.823319
0.0206597
0.0206206
0.0204033
0.0251508
0.0213694
1.45532
0.0201979
0.745648
0.0200007
0.0403342
0.0199801
0.021799
0.488524
1.2661
4.6232
0.0215699
0.0197288
0.820565
1.8376
0.0212122
0.636973
0.0196006
0.0279078
0.0259753
0.0213861
1.93033
0.211586
0.0286463
0.0218443
0.239173
0.0263538
0.0213892
0.055036
0.0217711
0.516428
0.613758
0.0210224
0.041904
0.0199767
1.65251
0.444488
0.0292899
0.0213674
0.0349042
0.0197406
0.71505
0.0297425
0.477
0.03181
1.70428
0.794681
0.0401136
6.40894
0.488985
0.0201468
0.573311
1.96217
0.0769441
1.05438
0.0289288
0.643445
0.0373909
0.027467
0.807196
2.13752
0.448263
0.717583
0.646544
0.0213634
0.0251738
4.05181
0.056784
0.502527
0.210935
0.0431205
0.497957
0.0223111
0.0307905
1.79932
0.475454
0.020289
0.445388
0.0201569
0.649873
4.68165
0.0291138
0.47877
0.0647429
0.0234886
0.939077
0.0347392
0.0296877
0.0213969
0.709977
4.27088
0.0201523
0.021723
0.025849
0.370782
1.6758
4.20273
0.0430439
0.431427
0.0229897
0.0206176
0.490065
1.42395
0.0209102
1.7763
0.654505
1.87846
0.0228306
0.0222598
0.653503
0.58861
0.139669
0.0251308
0.550939
3.99862
0.574946
0.0203668
0.02007
0.0220165
0.0201663
0.0204626
0.0255984
0.0201249
0.0399539
0.743302
0.0744011
0.0239223
0.0226717
0.562278
0.170029
0.0337245
1.8615
0.0210887
0.0426915
1.73943
0.0274243
0.0217242
0.441034
0.0214265
0.776177
0.0197789
0.384501
0.0241764
1.94694
0.0464824
0.0238684
0.0211957
0.83053
0.471807
0.0692559
0.020149
0.496136
7.60847
0.627838
1.70786
2.00276
0.081409
0.447503
0.0567001
0.0215668
0.0213688
0.0216539
0.0203974
0.0244129
0.0197481
0.681508
4.4067
0.0883808
0.768555
0.612808
3.67942
1.9982
0.0279867
0.431941
0.142188
0.0208133
0.0242153
0.0205702
0.0210027
0.558723
0.0264552
10.1943
0.0224023
0.297271
2.12764
0.0205607
1.58018
0.0223678
0.0286081
0.0209431
0.0201488
0.509903
0.734498
0.0229821
1.13629
0.0211737
0.0200227
0.471225
0.0210985
0.0197319
0.497439
0.0849579
0.0562045
0.038278
1.13868
0.0197291
0.747052
0.0211857
0.0211813
1.70396
0.811807
0.550726
0.0237976
0.0197371
0.0204136
0.641647
0.454936
0.0320974
0.0247806
0.0206062
0.021672
0.0210348
0.0256576
0.450545
4.39032
0.342766
0.0162219
0.0201295
0.406088
0.394022
0.512589
0.464015
0.0321939
0.0855835
0.0212173
0.455813
0.471788
3.95513
0.021934
0.0251334
0.0197619
0.254743
3.66086
0.506738
0.71336
0.668226
0.0181657
0.0199323
0.41993
0.0256693
5.58344
0.0293499
0.0205525
0.0833468
0.459819
0.0211557
0.0199393
0.0214445
0.037991
0.0210848
0.0217606
0.707866
0.0185533
1.15459
0.0198912
0.024924
0.629921
1.9352
0.02074
0.0240298
2.01513
0.0647717
3.20274
4.56172
0.0214187
0.0215228
0.0212877
1.05151
0.557234
0.0210978
0.418176
3.35996
0.692402
0.0207276
0.0218044
0.0209272
0.0210792
10.0171
0.0919969
0.364245
3.9937
0.0212818
0.0197349
0.312997
0.021498
0.990886
3.20507
0.155368
0.286031
0.45042
0.0226607
0.0303507
0.0212121
6.15879
1.21442
0.873502
0.0196287
0.0250169
4.86681
0.233715
0.0227942
0.0199957
0.026471
0.030317
0.127944
0.0650286
0.0335889
0.0553409
3.30752
0.61866
2.05968
0.0773937
0.119242
0.28347
0.0656845
4.46372
0.0212549
1.09181
0.615515
0.0205781
2.01946
0.0213624
0.0259848
0.0215804
0.762648
1.8756
0.0205866
0.0213716
0.829206
0.0357416
0.0246302
0.39294
0.0303271
0.763082
1.1021
1.04539
0.0215355
6.88661
0.0309773
0.0252294
0.0207105
0.0199826
0.0207562
4.38059
0.0215995
0.465633
0.021535
0.0713928
0.0216818
0.0541395
0.032175
0.021376
0.47803
0.0213628
0.737055
0.0211453
0.289092
0.0518234
0.314536
0.0532879
0.16927
0.451913
0.0276077
0.193932
0.691166
0.149021
0.221591
0.487677
0.0222379
0.0249182
0.0246559
1.90258
8.25365
0.520634
0.0626848
0.169705
0.020588
0.529891
1.1097
4.589
0.0226904
0.0204399
0.0701667
1.72679
0.0206036
0.1963
0.830324
0.021467
0.206161
0.0225218
3.2302
1.04815
3.11972
0.0476929
0.0205761
0.0204474
0.860625
0.0195207
0.0233021
1.26064
0.069393
0.020446
0.13754
0.448119
0.0348801
0.0212533
0.214967
0.186344
0.0214988
0.0296654
0.752735
0.0979173
0.116449
0.468834
0.0850144
0.0279269
0.0214045
0.430635
0.0208966
0.0269181
0.437289
0.16066
0.0217567
0.0210234
0.0212055
0.188777
7.05981
0.0205154
4.27664
0.0226094
0.499865
0.336345
0.301209
3.92231
0.468473
3.40632
0.848695
0.026022
0.0210047
1.04818
0.0225034
0.801186
0.0198088
0.0227296
0.0243272
0.0228458
0.0227917
0.381141
0.0207308
0.0616199
0.446606
0.0197305
1.89045
0.0262767
0.13568
2.15738
0.461031
0.702651
0.0211903
0.257197
0.0309676
0.0276626
0.0568387
0.0240442
0.0371311
0.0949245
0.0211438
0.0219227
0.0212696
0.478271
0.486912
0.229653
0.186104
0.0209174
0.166321
0.0212653
0.0297646
0.272459
0.0211801
0.0285909
0.69606
0.0211897
0.0589908
1.05897
0.0470187
1.26345
0.572094
0.0232599
0.0243474
0.0351794
0.0213913
0.0506574
1.92958
0.0197332
0.0211825
3.93175
2.04277
0.710827
3.54928
1.4029
0.0463675
0.533151
1.18279
0.0209692
0.020058
0.0327783
0.80504
1.02315
0.0225932
0.0215543
0.50173
0.762348
0.0173926
0.0230358
0.0207234
0.0197459
1.56047
0.0350319
0.533063
0.971697
0.0197635
0.501831
0.0234627
0.0265002
0.298132
3.60827
1.89664
0.0224097
0.028565
0.848027
0.0217012
0.0224124
1.65845
0.435134
0.585523
0.916055
0.0263703
0.0212454
0.0203846
0.0206773
6.10293
3.0991
0.0476358
0.0227117
0.0204325
0.550523
1.93808
0.0213128
0.403319
0.0737157
3.9298
0.350943
0.0204057
0.618812
0.0197188
0.0398058
1.74647
0.0215231
0.0246785
0.307787
0.0241057
0.0229585
0.0360832
2.04417
0.0215787
2.09987
0.0207015
0.804417
0.699058
0.918066
0.0210882
0.221451
0.0714796
0.951623
0.42693
0.021492
0.508055
0.0391918
0.0200387
0.249239
1.30329
0.0317207
0.0213191
0.0212405
0.0278711
0.0204739
0.504101
0.0234888
0.030901
0.392515
0.357507
1.89637
0.0288359
1.95653
0.479669
0.0231795
0.0378404
0.294207
0.0210243
0.709539
0.0209709
0.0256686
0.0225722
0.144301
0.194724
0.445393
0.0222795
7.41194
1.93635
3.47951
0.441816
0.816356
0.0267518
0.0225995
0.550672
0.0213176
0.0213689
0.0197406
0.0200334
0.0211785
0.0212861
0.0655837
0.0200656
0.0786534
2.02157
0.0258316
0.426027
0.0252584
0.0678292
0.532787
0.0209554
0.0230893
0.459512
2.08053
0.0264682
0.0210359
0.292001
0.0206485
0.538622
3.26548
0.427762
1.03718
0.0312195
0.200807
15.2683
0.882871
0.0224076
0.142698
4.098
0.141589
0.021577
3.60987
0.0213933
0.0215313
0.743677
0.552418
0.021515
0.0222463
0.0798858
0.0239262
0.49604
0.0228257
1.10676
0.0259908
0.0222269
0.0215527
0.0274415
0.0213943
0.0210468
0.0651888
1.78038
0.0227247
0.754183
0.418064
1.21983
0.0219716
3.36627
0.0208282
0.0216363
1.05127
3.59125
0.212112
0.0834403
0.0196424
0.0213661
0.050874
0.717481
0.924321
0.021443
0.55497
4.34325
2.02495
0.0215417
0.0247844
0.0216703
0.0214604
0.0988131
14.5137
0.0216573
3.3961
0.0230246
0.333256
0.513098
1.91208
3.58172
0.0213965
0.0529588
0.0242923
0.0239145
0.627324
0.0725535
0.421146
0.0209543
0.0211368
3.32384
0.656863
0.440349
13.3695
0.0208556
0.0201579
0.0211669
0.0210771
0.548525
1.13212
0.037291
0.0408475
0.0211976
1.59582
0.0155735
0.0200648
0.44079
1.95443
3.7739
0.0265714
0.0221548
0.0215156
1.61082
3.15307
0.0272811
7.09617
0.0285889
0.0213853
0.0753578
0.0197382
0.638176
0.49157
0.0221007
0.0207122
0.684126
0.0215393
1.67328
0.027426
0.457981
0.0216438
0.0216513
0.0213302
0.153928
0.321145
0.021335
0.510025
0.0217178
0.0197337
1.99249
1.63755
4.51089
0.0221508
0.0209764
0.025907
14.6612
0.0207026
0.0705011
0.0215166
1.69916
0.0221391
0.611454
1.63306
0.0472809
0.0257172
0.452108
0.021642
1.11874
0.034535
0.0204422
0.0209978
1.94977
1.95501
7.15408
0.433805
0.0207351
4.86073
0.0247229
1.99772
0.0458118
0.0211759
0.0210955
0.199396
0.519465
0.625873
0.0217162
1.20965
0.021293
0.0210842
0.0202929
1.99417
0.038648
0.453599
0.0206696
0.0214107
1.85726
0.0211251
0.511664
4.10344
0.0213662
0.0204137
4.6555
3.30235
0.0214959
0.140784
0.0289566
0.0254492
0.0222235
12.8958
0.0197227
0.0214438
1.01864
0.0216818
0.146161
7.88585
0.0507445
1.82956
3.70208
0.0206908
0.0214608
0.0211829
0.0688834
0.020391
0.0216893
0.738955
0.0264306
0.0282071
0.0220265
0.0214902
2.04486
0.0212504
0.0204116
0.0219045
1.76761
0.0197611
0.0211937
0.0209893
0.018716
0.0214468
0.0331763
0.0227756
0.0208357
0.0624185
0.0216451
0.0201252
1.08945
0.0212806
0.020166
0.495265
0.020738
12.4829
0.021106
0.879373
0.0726483
3.35442
0.0325457
0.298904
0.0729773
5.62868
5.09928
0.0220866
3.13484
0.446393
0.415241
0.025417
0.0205387
0.0598645
0.0200925
0.0527271
0.0336751
0.736598
0.0243122
0.0243375
0.213943
0.025015
4.791
3.19856
1.02048
0.064102
1.92332
11.2818
3.24608
0.454186
0.0261661
1.02705
0.0222842
0.310731
3.52519
3.13299
0.631138
0.0214309
3.78182
0.0310389
3.16568
0.0261597
0.0211535
0.0205568
1.9871
3.17499
5.92835
0.0248053
4.11552
0.0656182
0.0213229
0.0250636
0.450222
0.0556373
0.134232
0.665368
0.0210971
3.63317
0.541478
0.0401274
0.0495962
4.21444
4.06008
4.20629
3.61347
0.0211954
0.816305
0.0214548
0.0757615
1.09409
2.09123
0.557396
1.88928
0.0220433
4.50595
0.0615817
0.229461
3.75067
5.12434
3.14157
3.89072
1.89441
0.476399
0.441066
0.0211497
0.350491
0.0215263
2.04536
1.62245
0.0741769
0.649431
1.83606
1.04127
0.451536
0.0219125
0.0802435
8.7432
0.0210359
0.021377
3.66324
0.633618
0.029413
0.343294
0.0422282
0.0348536
0.0242672
2.0392
0.187691
6.10065
0.477564
0.0215458
0.229718
0.905667
0.0384305
3.63339
1.96816
0.1366
0.0510842
2.16362
0.046209
4.8352
4.47085
0.021678
0.0215722
4.37369
0.73231
0.0247728
0.505589
0.781874
0.0213599
0.445577
0.0216703
0.0389541
1.03697
0.0222332
2.21046
0.644921
3.1758
0.0833546
1.19095
0.318539
0.020751
0.302151
0.164724
3.16203
0.279539
0.0204921
3.55837
0.0209442
0.0835927
0.0234451
0.0224417
0.641124
0.0214389
0.027815
0.427666
0.0208215
0.0205536
0.0214365
0.0225984
0.81884
7.67187
0.0587959
0.0211502
0.0237306
0.428009
4.17441
0.428719
2.36917
1.08006
0.703831
1.52107
4.47373
1.632
0.0742214
4.81024
0.0219799
0.0251809
1.61319
0.862277
0.579918
0.476047
0.0582218
2.03412
0.0214359
0.216643
0.0268782
0.0395418
0.0381863
0.204176
0.0282433
4.08396
6.02657
0.0262312
0.181081
0.0377912
0.0220658
4.44744
0.0249054
4.36542
0.208301
1.24529
0.0214728
0.0221851
0.106727
0.103104
0.590576
3.79174
0.450084
0.022432
0.0212288
0.0214176
0.0226211
0.0211773
0.652431
0.215583
3.63133
0.402857
3.58825
0.0447285
0.0764716
0.0267726
0.505394
0.0213476
0.095905
4.33232
0.022116
2.08786
4.37558
0.498712
0.0210914
3.31653
3.60729
0.286438
0.0293584
0.0212708
0.0200279
4.3533
0.0208874
0.0210309
0.0216439
0.021181
0.0687377
0.807433
0.0206646
0.341353
0.0706484
0.188283
1.39754
0.0820686
0.0314489
0.59364
0.0261492
0.020964
0.0226113
0.581517
3.15989
0.0518518
4.52298
0.570487
0.458079
0.526728
0.245911
0.0203029
2.14449
0.4594
0.472279
0.0300572
3.09988
0.0603376
0.0209608
0.0874469
0.483138
0.199097
7.46061
2.0412
1.61847
1.69425
1.04515
4.50359
0.496847
0.0221759
0.866005
0.0483901
0.0255339
1.6877
0.0726552
3.30675
0.290231
0.258607
0.296008
0.0250376
0.0219375
0.0574894
0.0278629
0.119228
0.0214159
0.0459809
0.0220231
0.0215207
0.0197306
0.0214298
1.13317
0.0218744
0.229441
0.317843
0.020466
0.0697375
0.0221091
0.573391
0.0212356
0.0215831
0.172833
0.25538
0.217976
3.67347
0.0622094
0.0214332
0.58816
0.023045
0.319334
0.0563259
0.0507023
0.0205908
0.291973
0.0212754
0.0598189
0.0139875
0.0216452
6.64542
0.462547
0.483571
0.0209341
0.597671
0.734594
0.401663
0.247114
0.409829
0.531302
0.102183
0.0776167
0.0216492
0.153893
0.283613
0.0213975
4.58788
0.278072
7.82274
0.124271
0.0933365
3.23154
0.76468
0.400634
0.023355
0.597814
0.667406
0.0267009
0.133522
4.52328
0.422781
0.222722
3.90523
0.0213685
0.0328116
0.0197302
1.49225
0.418054
0.035822
0.78857
0.0210032
0.0211875
0.503065
0.0211836
1.78069
0.0220507
0.0210151
3.43378
0.0198025
0.0679665
0.0213386
0.0386023
4.72555
1.13555
2.38958
0.273193
0.0225689
0.598248
0.0215247
0.0223495
0.120618
0.0226185
4.33518
0.0938346
0.0202542
0.021542
0.0643997
0.0322834
0.571245
1.0205
0.406292
0.0258313
0.0198906
0.0213022
0.143024
0.0907688
0.0420565
0.0208807
0.0595846
0.0957341
11.3261
0.49804
0.0215606
0.0475417
0.463913
0.0526289
1.20785
0.0214033
0.0218978
0.42169
0.0444508
0.0229912
0.0245161
0.0247666
0.0235794
0.0232659
0.0231265
0.328747
0.0306433
0.0272688
0.0227942
0.169845
0.025521
0.0347274
3.51352
0.734356
0.0203008
0.0212433
0.307117
0.0211094
0.624728
0.0221367
0.529958
0.0259622
0.0308095
3.79256
0.0252027
0.0542217
0.206071
0.0423429
0.388736
0.156053
0.0443018
1.80602
0.0242462
1.91632
5.12917
1.03177
0.314763
0.0364951
0.173007
0.145427
0.0214076
0.1461
0.0215345
0.100583
0.0830552
0.0342443
0.0231935
0.0212202
0.0214222
0.0297119
8.0026
0.0216456
0.0235408
0.687186
0.556531
0.0415372
0.0254182
0.404422
1.04535
0.032817
0.445019
0.0305812
6.93717
0.290321
0.0602453
0.019965
0.447538
0.469024
0.505958
0.191909
3.31328
0.3535
2.03515
0.0550248
0.0333464
0.0263658
0.0208407
0.0280837
0.0203942
0.734044
0.953724
0.790244
0.0264874
0.348559
2.06931
0.784658
0.0215683
0.029605
0.0769431
0.0654626
0.647896
0.0327758
0.0446079
0.0276106
0.0218327
0.356281
0.0570806
1.96842
0.0295251
0.0205725
0.0203863
0.594818
0.0223513
0.0313425
0.0294623
0.137377
0.0215543
0.0330222
0.442249
0.0252021
0.0509618
0.473381
1.94264
0.462665
0.737787
4.14337
3.57945
0.020856
0.649725
0.769211
2.04989
3.10447
0.761107
0.0226111
0.570804
0.0210348
0.20619
0.0221547
0.128369
0.0211914
3.16156
0.0297336
0.401057
0.568957
5.79572
0.497366
0.0328018
0.021557
0.653945
0.513243
0.293233
3.43669
0.0351567
12.9343
0.406547
0.0617382
0.393692
3.19091
1.32926
0.494647
1.7529
0.0197502
1.07847
0.0670149
0.207895
0.0208586
0.0215402
0.0212946
2.03344
0.35787
0.410377
0.157322
0.0110665
3.36291
0.112952
1.72105
0.302223
0.0206363
0.235855
1.99236
0.0492472
1.3193
0.0242587
0.157486
0.0291956
0.520132
0.139759
0.0214076
0.493539
0.720437
0.229497
0.0207958
1.24479
0.458446
2.07333
0.59928
0.46415
0.994034
0.0245612
0.024089
0.980809
0.970548
0.0215802
0.0211325
0.0790368
0.0207083
0.0226961
0.51835