/*--------------------------------*- C++ -*----------------------------------*\
| =========                 |                                                 |
| \\      /  F ield         | OpenFOAM: The Open Source CFD Toolbox           |
|  \\    /   O peration     | Version:  v2012                                 |
|   \\  /    A nd           | Website:  www.openfoam.com                      |
|    \\/     M anipulation  |                                                 |
\*---------------------------------------------------------------------------*/
FoamFile
{
    version     2.0;
    format      ascii;
    class       volScalarField;
    location    "250";
    object      omega_0;
}
// * * * * * * * * * * * * * * * * * * * * * * * * * * * * * * * * * * * * * //

dimensions      [0 0 -1 0 0 0 0];


internalField   nonuniform List<scalar> 
18649
(
0.887229
0.0212453
0.854509
0.0971338
0.0227479
1.18184
0.0213659
0.0195796
0.355738
2.04857
0.0212205
0.0211046
0.0240717
0.0217625
0.579756
0.0244886
0.0223967
0.0213606
1.17095
0.0212427
0.0210995
3.77962
0.538514
0.0778538
2.03062
0.514979
0.463518
0.529094
0.0217409
7.92906
0.0260939
0.0270511
0.0223524
0.0320521
0.0220757
0.0357735
0.51655
0.0430363
0.0212116
0.0217455
0.819779
0.0221585
0.193316
0.53936
0.429279
4.26021
0.551597
0.031553
0.0213954
0.0848435
0.0922633
0.543893
0.0210831
0.874842
0.0204343
0.192434
1.86729
0.0213994
0.0182028
0.723566
0.0204022
0.115183
0.0214486
1.8726
7.34065
0.476967
0.719508
0.0236347
0.428893
3.85869
0.460536
0.0315925
0.0213504
0.0214463
0.00836945
0.585029
0.695917
0.0226839
3.85251
0.314123
0.0182018
0.0481025
1.18636
1.15245
0.0235541
0.185871
0.0268021
0.0310215
0.322533
0.163132
0.544759
0.14285
0.0796398
1.53617
0.021527
0.0210609
0.0352441
0.0551011
0.415839
0.0204022
1.12282
0.0234515
0.0405416
0.0200741
0.35907
0.365102
1.20141
0.281883
0.186857
0.0213461
0.0212621
0.033699
0.0367901
0.0208513
0.0213534
0.0570395
0.0235879
0.0345751
0.0223004
0.0267603
0.02045
0.0615231
0.629954
0.0208554
0.0245151
0.0222438
1.83021
0.0215966
0.0218148
0.0207775
0.0214569
1.86651
0.157953
0.180189
0.0218057
4.55864
0.468244
0.285616
0.457436
0.420526
0.0299022
0.0229402
0.0198131
0.0215184
0.450342
0.0203934
0.0217423
0.182686
0.378778
0.0215639
0.663354
0.407677
0.0237551
0.0213459
0.0526656
0.0599841
0.0215692
0.0210337
0.0207667
0.729021
1.14145
0.710133
0.0215596
0.47667
0.219329
0.0217019
0.456704
0.400347
0.0250354
0.0203814
0.0275505
0.0215431
0.0207449
0.0215198
0.0795803
0.402077
0.467524
0.021557
0.385089
1.14108
0.0210543
0.41598
0.0235317
0.0210142
0.0214054
0.0229232
0.0203454
0.0553514
0.0204109
0.0198718
0.023216
0.639746
0.6906
0.0306905
0.0480812
0.0207434
0.0235491
0.0232243
0.222145
0.0314577
0.0199379
0.0213726
0.724757
0.021351
0.0215977
0.0212872
0.192459
0.743086
0.0225286
0.0210096
0.020399
0.0231913
0.0201735
0.0313834
9.98021
0.0349467
0.0220253
0.0231021
0.0209928
0.538994
0.913794
0.273061
4.50705
0.900372
0.719933
0.424829
0.137947
2.02457
0.0255444
0.969365
0.0198408
0.0194406
0.0320819
0.0211227
1.98685
0.0210469
0.0223499
0.0214182
0.0202076
0.0194502
0.0482178
0.75175
1.1317
3.81068
0.710724
0.0336599
0.0314729
0.0226904
3.93426
0.057441
0.0380612
2.03773
0.0214441
0.0219341
0.0274628
0.0213304
0.0210024
0.0203924
1.02181
0.0251918
0.513373
0.0200661
0.020225
0.0392902
0.0201339
0.143924
0.0275644
0.488116
0.0254253
0.0211707
2.05056
0.3631
0.0298892
0.0210581
0.5236
0.0610519
0.0218017
0.0247816
0.0459602
0.120686
0.21732
0.0223813
0.746271
0.0219351
0.0207062
0.181932
0.0655231
0.0213661
0.492965
0.0228415
0.0210692
1.16533
0.0214461
0.0213885
1.83884
3.81695
1.89897
3.14754
0.0294666
0.0210408
0.0213033
0.482759
0.477995
1.90896
0.237871
0.361534
0.512735
0.0901024
0.030919
0.0964988
0.021076
0.0495682
0.0169039
0.0209093
0.0218926
0.00950377
0.0235295
0.200525
0.720004
0.0208305
3.83319
0.020628
0.0204264
0.0214991
3.164
0.0239577
1.86426
0.71225
0.0213445
0.0213875
0.0218214
0.587707
0.244951
0.0243854
0.839734
0.0210609
0.133385
0.299624
0.0547145
0.18949
0.0383248
0.705691
0.176448
0.648397
1.96595
0.10216
0.0570405
0.0211903
3.08635
1.17176
0.0222758
1.95843
0.0200701
0.0277445
0.0270984
0.0471827
0.0235334
0.623214
0.0188808
0.0202281
0.0318015
0.0990958
0.670783
0.021458
0.753901
0.735256
0.0212081
0.0234589
0.693981
0.0201801
0.0482833
1.97457
0.251976
0.0212204
0.493474
0.0214756
2.06438
0.678221
0.621012
0.247057
0.229319
0.0210429
0.0267845
0.369226
0.618206
0.0229208
0.0437858
0.0207729
0.0217929
0.0213764
0.263423
0.0251885
0.203125
0.0229178
0.459397
0.00652787
0.0148485
0.0203185
0.0215825
0.0207482
0.238409
1.18422
0.0224777
0.143836
0.356806
0.0270551
0.0207757
0.530766
0.0209562
0.0545162
0.0274487
0.120547
0.148953
0.0214696
0.227618
0.0263015
0.607242
0.0325144
0.0218621
0.0221662
0.0340062
0.136492
0.0866933
0.655813
0.725721
0.0193705
0.683867
0.67486
0.0244424
3.32085
1.94686
0.0204094
0.0259001
0.026857
4.5159
0.0212432
0.0211046
0.641693
0.0212
0.0209627
0.0203964
0.0196811
0.0214511
0.0509554
0.0214831
0.0214523
0.0218513
0.149785
1.17446
0.0255708
0.0215802
1.84699
0.0215713
0.410847
0.0336005
0.0250522
0.0211188
0.0205458
0.272254
0.198756
0.0210594
0.491186
0.021233
0.446442
1.97407
0.0217758
0.019681
0.0178041
0.0215109
0.0227628
0.0219705
0.0201778
0.032149
0.0604967
0.0760362
0.08734
0.02135
0.0215962
0.0398956
0.308819
0.0405589
3.95716
0.0260084
0.0203943
0.0139647
1.06192
0.0210719
0.683703
3.94245
0.0222929
0.0387618
0.612979
0.159268
1.12017
0.0207642
1.11953
1.15156
0.0215692
0.0200621
0.0217523
0.155301
0.022218
0.0219481
0.023215
0.518705
0.540314
0.0350751
0.0197876
0.0207676
1.15195
0.0185024
0.0214107
0.0272982
0.182822
0.163423
0.0367158
0.520311
0.021095
0.125247
0.0207626
0.0208021
0.0283303
0.0214099
4.39216
0.0207956
0.434149
0.630773
0.261247
0.462811
0.0375465
0.0208682
0.288484
0.0204119
0.0206703
0.169226
0.0218429
0.0198734
0.0414818
0.619407
0.0214041
1.87759
0.02796
3.08691
0.021077
0.0757048
1.50424
0.697417
0.0231786
0.0716804
0.0252721
0.025576
0.921854
0.0141205
0.118199
0.0214051
0.92185
0.355361
0.734151
0.0210831
0.0213537
2.05049
1.04493
0.197127
0.0378384
0.0206563
0.0216379
4.07653
0.098634
0.0350968
0.0545759
0.0268092
0.0793667
0.158306
0.0207339
1.94836
0.0197168
0.549863
0.0226483
1.94502
0.0214366
0.0216104
0.0210434
0.472709
0.0646614
0.0199759
0.0222315
0.0213826
0.259253
4.11479
0.0210906
0.020967
0.0213634
0.295128
0.0222908
0.640165
0.0224728
0.0214155
0.271531
0.024097
0.420483
0.0210012
3.57568
0.020412
0.020213
0.0207489
1.74776
0.0279455
0.334549
0.0214014
0.426533
0.0214643
3.99368
0.0251756
0.0210579
0.176373
0.0215933
0.0207287
0.0217986
0.102426
0.0910713
0.0208102
0.452473
0.169351
0.021414
0.057775
0.0304945
1.13929
4.34606
0.0516843
0.683378
0.0214103
0.699016
1.71878
0.0221389
1.07211
1.05815
0.0351582
1.68685
0.0226601
1.04585
0.0214319
0.254897
0.44441
0.0211207
0.0988017
0.0225944
0.0310198
0.0203978
0.0230005
1.11672
0.0206327
0.0956034
0.655214
1.60276
0.0213749
4.15806
0.0438567
0.0217321
1.13633
0.021379
0.0226744
0.573854
0.0256835
0.0380547
1.13808
0.0207684
0.00988419
0.0492558
0.0223709
0.0204855
1.14741
0.0297977
0.0209621
0.020739
1.016
0.716757
0.0989606
0.164808
1.10375
0.428452
0.0212702
2.04679
1.76192
0.0213804
0.0931479
0.0207361
0.0445094
0.0213693
0.0235176
0.0210776
0.0207232
0.0214114
1.12796
0.719438
0.724838
0.0305233
0.0228369
0.401378
0.0199881
0.733894
0.0458383
0.456239
0.0231562
0.211777
0.0206715
1.07358
0.0383738
0.731472
0.0214398
0.401275
1.00877
0.033264
1.26691
0.0215918
4.57847
0.0279266
0.0679124
1.18135
0.020385
0.019988
0.020817
0.024616
0.159909
0.350001
0.0211447
0.849625
2.14599
1.14136
0.0207185
1.57975
0.0203875
0.0211475
0.67086
0.488912
0.039298
0.0891532
0.0234623
0.669369
0.0240242
0.021573
0.674847
0.215218
0.0204306
0.0607911
0.126759
0.0214074
0.0211087
0.0197377
0.157546
0.0498519
0.0201294
0.0217412
4.89696
0.837005
0.0941699
0.102437
0.0232839
1.10909
0.0219026
0.0201834
0.0200812
0.0361355
0.120685
0.0214199
0.0204143
0.0204087
1.89294
0.021733
1.13639
1.86958
0.0212702
0.061589
0.984841
0.0210852
0.0200495
0.0200267
0.0197387
0.790577
0.0266645
3.8208
0.0394501
0.0445286
0.0254092
0.0213755
0.0230073
0.0258273
0.416748
12.4016
1.10605
1.97557
5.15452
0.866758
0.0216311
0.0213844
1.63876
0.0474071
3.57901
0.0275024
0.114194
0.46379
0.619355
0.36013
0.692682
0.0201181
0.022026
0.0264104
0.0209404
0.416953
2.09997
0.0199255
0.0214691
0.0368718
0.0592766
1.68261
0.662785
0.701485
0.0215895
0.317234
0.0211878
0.0216798
0.0247018
0.0202117
0.021181
0.743982
0.020944
0.0826317
0.0386596
0.0213022
0.0216319
0.00824688
0.525715
0.17
0.0403822
0.147245
0.0221426
0.0979233
0.643003
0.162425
0.0216444
0.0221908
0.0194476
1.14551
0.0224582
0.0235366
0.0205118
0.0208196
0.0197477
1.74493
0.044007
0.0389822
0.98337
0.0207814
0.0387322
0.229257
0.860219
0.0204363
0.0207662
0.0210972
0.0202711
0.0221589
0.457347
0.0274758
0.737229
0.0205259
0.0290064
0.0207881
0.0218065
0.111955
0.0197317
0.0202592
0.0814396
2.02831
0.628988
4.04366
0.0361675
0.021407
0.0204309
5.47524
0.0197304
1.14891
2.11865
0.554881
0.020116
1.98856
1.86506
0.0214596
0.0308341
1.16095
3.88165
0.0250365
0.0429292
0.0213492
0.163709
3.20081
0.0162947
0.157953
0.0228788
0.0219556
0.0213104
0.0212794
0.0218032
0.0197249
0.818411
0.81369
0.0200101
0.0211722
0.0210975
0.0263542
0.0207342
4.80715
1.96317
0.118446
0.0197383
0.0197326
0.0197796
4.46519
0.163544
0.29025
2.02554
0.020264
1.16975
1.0773
0.331773
0.019743
0.0204774
2.0165
0.0246075
3.47596
0.0209368
0.0258921
0.0209395
0.054126
0.0455424
0.0201599
0.0241204
0.5087
0.0232965
0.261885
1.22376
0.375564
0.0885636
0.418317
0.0214229
0.0777002
0.0498917
0.0251726
0.0241259
0.642956
0.407351
3.58288
0.423593
0.022201
0.0203638
0.0417255
0.0225406
2.1505
1.75687
0.0199654
0.0249961
0.311988
0.0214346
1.04616
0.0218003
0.355857
4.0031
0.161308
0.278624
0.0290291
0.0590592
0.0202528
0.641497
1.10463
0.0331668
0.502155
0.683803
0.0210673
0.020045
0.0214198
0.343577
0.476224
1.7016
0.0204313
0.940091
0.681145
0.0229234
0.0196988
0.0214446
0.635091
0.0201222
0.683452
0.388965
4.45663
0.0209614
0.59865
0.021246
0.744264
0.0197395
1.06343
1.10194
1.78874
1.07466
0.0197282
0.0213554
4.09887
0.022206
0.0201319
7.95377
1.80008
0.0220045
0.0205038
0.0216589
0.621201
2.05272
0.694498
1.13311
0.0254019
0.049611
0.0223029
1.01508
0.0951657
4.70291
0.107963
0.02839
3.23366
0.623468
1.05943
0.245672
0.354633
0.0200353
0.0247577
4.47614
0.133686
0.0745157
0.0223705
0.0214711
0.520379
0.0248467
1.09544
0.0215521
2.04651
0.0211594
0.665393
0.0333303
1.98883
0.245721
0.0221226
0.895059
0.0673844
0.0201985
0.936212
4.74021
0.0355753
0.0218705
0.951562
0.0169359
1.73483
0.0211837
0.741215
0.027319
0.0209875
0.0213566
0.672383
0.0204002
0.0200641
0.0205235
0.673332
1.25949
0.0213629
0.0210557
0.0235059
1.9799
0.0247935
0.0216754
1.80045
1.06476
8.81437
0.0229301
0.0200708
0.4319
0.0197625
0.439834
0.406823
0.0210637
0.0197519
0.021557
0.994957
1.80891
0.335662
0.0197285
0.0211015
0.433957
0.0520251
0.205745
3.83672
0.471736
0.0153224
0.0214478
1.79239
0.0219507
0.0197211
0.0197527
0.021181
0.643107
0.0258622
0.639328
0.0212352
4.70181
0.681896
0.0197001
0.0279717
0.198508
1.74513
0.0214597
0.0400465
0.0429543
0.0256636
11.8558
0.271114
1.7657
0.66256
0.385977
0.332644
0.0216945
0.022242
0.0229383
0.0176715
0.0216225
0.0208203
0.455259
0.0293569
0.736068
0.274181
0.0208085
0.491798
0.59842
0.0234389
0.0235997
0.563015
0.0297722
0.311924
0.294802
0.0215662
0.0204213
0.514012
1.11233
1.93215
0.0223018
0.0212309
0.0207858
0.0306193
0.0209583
1.67124
0.0216597
0.460143
3.40519
0.0247894
0.0217107
0.0197011
0.750831
0.0207407
1.76301
0.0243698
0.90842
0.0211562
0.0388092
0.0210325
0.443171
0.0184146
0.835211
0.0240124
0.0213544
0.0287559
0.0212546
0.0197156
0.0204302
0.0215999
0.0213868
1.91761
1.06517
0.0207745
0.625057
0.0228653
0.0213573
0.299726
0.0209566
0.0197304
0.209041
0.0207914
0.0793641
0.671287
0.0361262
0.355244
0.456605
0.0210249
0.498161
0.019914
0.112153
0.572231
0.0231663
0.0199009
0.0239264
0.0217626
0.0201833
0.0204244
1.95293
0.0204928
0.0940732
0.388833
0.0274554
0.0536037
1.75234
0.0233505
0.0213715
0.0253246
0.0213953
0.0536314
0.0212018
0.0212008
0.0218984
1.07004
0.0216175
0.0210469
0.0211255
0.0211281
0.034991
0.279089
0.914922
0.0197276
0.571954
0.151591
0.350824
0.418047
9.72539
0.0211297
0.0204495
0.0214794
0.0262967
0.444257
0.020227
0.55256
0.0209562
0.301697
0.0208163
0.0199503
0.711154
0.0236264
0.278508
1.89622
0.66828
0.0214754
0.0207424
0.111414
0.393146
0.0233816
0.626205
1.99575
0.0199107
0.021285
0.02717
1.88505
0.0216433
0.0213456
0.0605721
0.0212368
0.451496
0.739095
0.96753
4.15796
1.95359
0.572496
2.03554
0.635404
4.68743
0.818761
0.0209646
0.0209608
0.066981
0.930202
0.0217221
0.0223387
0.698854
0.551379
0.062169
0.0202272
0.0215118
0.512053
0.0211353
0.0217586
0.0214552
0.460056
0.0296323
0.829187
0.0214671
0.179375
0.0636353
0.0220825
0.457094
0.0212331
0.0216355
0.0211283
0.0262655
0.0212333
0.321481
0.77865
0.0210544
0.019736
0.0210139
0.0207714
0.652597
0.0218989
0.0210188
0.0265643
0.0212918
0.0211325
0.0209462
0.0244807
0.386378
1.98726
1.99482
0.021914
0.0217283
0.0197442
0.0215585
0.105331
0.768604
0.0215561
0.0286312
0.0205917
4.64232
0.0231695
1.11269
0.0197202
9.64649
0.0216025
0.0272267
0.90918
0.339432
3.89049
0.444526
5.52512
0.0214443
0.550035
0.0202982
1.94834
1.31769
0.0204822
0.491903
0.0205046
0.019736
0.794112
0.0205732
0.0210216
1.73763
0.0479613
0.0210412
0.0253041
0.0196296
0.0207616
0.802749
0.0210658
0.0202662
8.49971
0.0214089
0.417318
0.0211546
0.0214319
0.0207207
0.0211999
1.96248
0.0562523
1.13575
0.100535
0.0815488
0.0210425
0.0203883
0.0207266
1.90292
0.0255572
0.0215106
0.0210829
0.0213697
0.238549
4.13013
0.0204273
1.10129
0.0209167
0.0459087
0.0199844
0.0213502
0.0235939
0.433252
0.0210803
0.44091
0.583258
0.509643
0.0214327
0.422174
4.68615
0.0197257
1.90828
0.0208232
0.376044
0.0217188
1.14922
1.90726
0.0450455
0.0207127
0.0789898
0.0212661
0.021218
0.0265933
0.0600916
0.021366
0.651584
0.750232
0.0214035
0.0210958
0.0251079
0.0220561
0.0844479
0.0211347
0.0247514
0.0213932
0.0206319
0.0347878
0.184645
0.0212956
0.0211573
0.032558
1.96045
1.99771
0.0215722
0.994419
0.903247
1.27568
1.89091
0.0270555
0.0217494
0.0217531
0.0207403
0.0220113
0.584774
0.0219613
0.0220837
0.0234418
0.0213791
0.653592
0.0186497
0.528249
0.0220859
3.5719
0.0219503
1.08449
0.0202012
0.0657262
0.0282589
0.446176
0.0237693
0.0210997
2.00847
0.0267623
0.0214107
0.0197476
0.588118
4.07346
0.0210434
0.0212674
0.819002
0.424091
1.21755
0.0204366
0.0210356
0.859961
0.0217499
0.654192
1.64128
0.020027
0.0224832
0.833679
0.0211689
0.0214173
0.0203964
0.85913
0.0363546
0.165497
0.424945
1.64643
1.90246
0.456247
9.0536
0.0211699
0.0209478
0.0219607
0.0242989
0.019777
0.52228
0.0207251
0.798471
0.0224878
1.11995
0.730698
0.406078
0.0204808
0.0215621
0.495133
0.0207125
0.0211981
0.0234875
0.655805
1.82324
0.0215494
0.0212269
0.0240823
0.0226021
0.0206313
0.0227484
0.825456
0.024131
1.91542
0.0633346
0.237788
0.400213
0.317358
2.163
0.0222793
0.20088
0.0202752
0.0207529
0.0200094
0.0209345
0.478571
0.0204039
0.19568
0.031567
1.88622
0.0217719
0.0384752
0.02254
0.67721
0.642038
0.392031
0.0218486
0.0210108
0.0209504
0.026196
0.0207175
1.89956
0.0225929
0.849854
3.49728
0.0223626
0.0212035
0.0211603
2.00264
4.86511
0.825471
0.0229608
0.0207208
1.66697
0.311675
0.0214246
0.0209065
0.172251
0.565187
0.0203093
0.589051
0.0962743
0.0205032
1.91857
0.0201716
0.0214134
0.44618
0.0215778
0.0206358
0.0406652
0.0248733
0.0229012
0.0199984
0.0197328
0.0220924
0.0223174
0.0219949
0.0197408
0.0214626
0.0216376
0.0213886
0.0591945
0.0246163
2.14139
0.0197351
9.45177
0.0214606
1.69666
0.022726
0.489481
0.0220884
0.0237584
0.021096
0.0201726
0.10588
0.0256998
0.624758
0.0203275
0.0214221
0.47339
0.0261858
1.11481
0.433458
0.67128
11.475
0.0711407
0.444933
0.0201503
0.0273551
0.0213497
0.0222398
0.020304
0.0202319
2.55651
0.3841
0.0259329
0.021731
0.0220116
0.661602
0.0235415
0.0209456
0.0260838
0.0203822
0.0196199
0.700883
0.0214735
0.847965
0.0337025
0.0366009
0.502813
0.0845
0.0230671
0.988173
3.37598
1.07698
0.824234
0.0206588
0.0206205
0.0204036
0.0251505
0.0213694
1.43021
0.0201928
0.74456
0.0200004
0.0403727
0.0199805
0.0217994
0.488057
1.26223
4.67202
0.0215701
0.019729
0.821158
1.83577
0.0212121
0.675594
0.0196008
0.027887
0.0259685
0.0213861
1.93039
0.211523
0.0286417
0.0218449
0.239697
0.026352
0.0213892
0.0544587
0.0217713
0.515667
0.611997
0.0210225
0.0418525
0.0199766
1.656
0.44418
0.0292743
0.0213679
0.0348867
0.0197407
0.711966
0.0297322
0.476463
0.0317918
1.70299
0.797107
0.0401068
6.40668
0.48879
0.0201473
0.574448
1.95961
0.0770136
1.05517
0.028939
0.641125
0.0373239
0.0274633
0.807473
2.13942
0.447662
0.717688
0.646251
0.0213634
0.0251779
4.05143
0.0558164
0.5011
0.210933
0.0431569
0.497565
0.022311
0.0307827
1.78272
0.47541
0.0202888
0.442602
0.0201577
0.649763
4.6774
0.0290985
0.47815
0.0647172
0.0234886
0.939693
0.0347851
0.0296788
0.0213969
0.710133
4.2732
0.0201538
0.0217232
0.0258372
0.367994
1.67683
4.20356
0.0430373
0.432584
0.0229929
0.0206175
0.489918
1.35266
0.0209071
1.77423
0.654483
1.87802
0.0228306
0.0222608
0.654741
0.587938
0.139974
0.0251132
0.551263
4.00213
0.575107
0.0203667
0.0200702
0.0220159
0.0201672
0.0204622
0.0255987
0.0201253
0.0398625
0.746433
0.0743086
0.0239218
0.0226717
0.562646
0.170622
0.033753
1.85933
0.0210888
0.0427598
1.76174
0.0274263
0.0217243
0.440819
0.0214262
0.777845
0.0197782
0.384642
0.0241642
1.94773
0.0464913
0.0238687
0.0211957
0.830816
0.476388
0.0692506
0.0204583
0.496638
7.55706
0.628436
1.71398
2.00143
0.081672
0.447613
0.0566566
0.021567
0.0213688
0.0216543
0.0203977
0.0244109
0.0197484
0.682692
4.40226
0.0885739
0.769026
0.609779
3.6723
1.99531
0.0279849
0.431882
0.139581
0.0208124
0.0242202
0.0205696
0.0210027
0.554299
0.0264332
10.2071
0.0224023
0.297019
2.13476
0.0205592
1.57529
0.0223686
0.0286049
0.0209429
0.0201486
0.509179
0.734211
0.0229812
1.13784
0.0211737
0.0200228
0.473041
0.0210986
0.019732
0.494196
0.084946
0.0561727
0.0382107
1.18345
0.0197289
0.74701
0.0211856
0.0211813
1.70112
0.810355
0.550819
0.0237953
0.0197373
0.0204137
0.637461
0.454952
0.0320686
0.0247877
0.0206061
0.0216723
0.0210349
0.0256689
0.450537
4.39126
0.342766
0.0161988
0.0201295
0.40595
0.391012
0.513114
0.463926
0.0321709
0.0857817
0.0212173
0.455812
0.485542
3.94644
0.0219345
0.0251274
0.0197617
0.24707
3.67361
0.510384
0.711223
0.666856
0.0181284
0.0199323
0.420148
0.025672
5.51275
0.0293361
0.0205525
0.0832092
0.458488
0.0211557
0.0199392
0.0214445
0.0380187
0.0210849
0.02165
0.707551
0.0182378
1.15563
0.0198906
0.0249427
0.641331
1.9357
0.0207375
0.0240217
2.0165
0.0648188
3.19775
4.57969
0.0214188
0.0215229
0.0212881
1.05191
0.559463
0.0210979
0.421562
3.35765
0.692979
0.0207277
0.0218043
0.0209291
0.0210793
10.0365
0.0916253
0.379862
3.98531
0.02128
0.0197351
0.329734
0.021498
0.940924
3.20115
0.159735
0.285962
0.45029
0.0226617
0.0302862
0.0212123
6.20074
1.21247
0.880551
0.0196293
0.025017
4.87105
0.233212
0.0227942
0.0199932
0.0264797
0.0303058
0.128505
0.064882
0.03355
0.0553471
3.30296
0.618576
2.0625
0.0770984
0.11926
0.283392
0.0652435
4.45545
0.0212549
1.09336
0.615361
0.020578
2.02347
0.0213624
0.0259851
0.0215802
0.747707
1.89017
0.0205859
0.0213715
0.827953
0.0357373
0.0246274
0.39308
0.0303254
0.762973
1.10684
1.06176
0.0215357
6.93177
0.0310112
0.0252505
0.0207091
0.0199824
0.0207562
4.38762
0.021599
0.465387
0.0215352
0.0713177
0.0216864
0.0541286
0.0321834
0.021376
0.477822
0.0213628
0.737597
0.0211454
0.288957
0.0518158
0.315435
0.0533239
0.16662
0.451908
0.0275898
0.193725
0.692589
0.149181
0.221955
0.487099
0.0222378
0.024921
0.0246412
1.91539
8.2202
0.519648
0.0626718
0.169411
0.0205873
0.530526
1.10931
4.59938
0.02269
0.0204399
0.0700795
1.7252
0.0206035
0.19636
0.830588
0.0214667
0.20607
0.0225226
3.22635
1.0488
3.11725
0.0476685
0.0205759
0.0204471
0.859709
0.0195208
0.0232999
1.2624
0.0694899
0.020446
0.138279
0.447872
0.0348816
0.0212533
0.215582
0.18637
0.0214985
0.0296292
0.755208
0.0940691
0.116366
0.468933
0.0850064
0.0279462
0.0214045
0.430838
0.0208965
0.0269222
0.437118
0.16073
0.0217572
0.0210235
0.0212057
0.188605
7.09945
0.0205148
4.28162
0.0226088
0.499367
0.336482
0.30486
3.91776
0.465689
3.40976
0.849657
0.0260208
0.0210047
1.049
0.0225024
0.800133
0.0198085
0.0227305
0.0243249
0.0228438
0.0227932
0.378374
0.0207309
0.0616718
0.453911
0.0197306
1.89982
0.0262769
0.135793
2.21573
0.461014
0.705923
0.0211904
0.257094
0.0309515
0.0276638
0.0568608
0.0240422
0.0371041
0.0949199
0.0211439
0.0219224
0.0212697
0.477559
0.486257
0.229711
0.186005
0.0209172
0.166359
0.0212654
0.0297444
0.272564
0.0211802
0.0285934
0.695039
0.0211897
0.0581869
1.06264
0.0470152
1.26364
0.552119
0.0232535
0.0243436
0.0351971
0.0213913
0.0506058
1.93494
0.0197333
0.0211827
3.94183
2.04502
0.710294
3.56198
1.44137
0.0461379
0.533112
1.18313
0.0209681
0.020058
0.0327763
0.806393
1.02544
0.0225923
0.0215545
0.501134
0.766966
0.0174422
0.0230335
0.0207236
0.019746
1.54801
0.0350586
0.532296
1.01574
0.0197635
0.500986
0.0234625
0.0264972
0.29815
3.60444
1.89857
0.022401
0.0285962
0.849251
0.0217012
0.0224116
1.65723
0.434769
0.585401
0.915773
0.0293224
0.0212453
0.0203847
0.0206773
6.12237
3.10009
0.0475737
0.0227105
0.0204325
0.550414
1.94916
0.0213127
0.403229
0.0736536
3.92491
0.350935
0.0204058
0.620526
0.019719
0.0397867
1.75335
0.0215232
0.0246827
0.307713
0.0241009
0.0229585
0.0360621
2.05214
0.0215788
2.10379
0.0207016
0.805235
0.698238
0.918611
0.0210883
0.223478
0.0714677
0.994731
0.427135
0.021492
0.508212
0.0391868
0.0200388
0.24935
1.33094
0.031739
0.0213191
0.0212408
0.0278693
0.0204736
0.503503
0.0234844
0.0308904
0.392676
0.36923
1.8852
0.0288257
1.94947
0.480305
0.0231881
0.0378299
0.293932
0.0210243
0.709619
0.0209709
0.0256689
0.0225721
0.144286
0.187719
0.445098
0.0222789
7.43127
1.93235
3.49139
0.441768
0.816548
0.026738
0.0225992
0.550982
0.0213166
0.0213689
0.01974
0.0200324
0.0211785
0.021286
0.0656282
0.0200658
0.0785174
2.01859
0.0258289
0.425908
0.0252542
0.0678866
0.51383
0.0209554
0.023089
0.459404
2.0853
0.0264641
0.0210359
0.293142
0.0206485
0.53766
3.27078
0.427688
1.03738
0.0311797
0.203254
15.2787
0.883942
0.0224076
0.142499
4.12882
0.140391
0.0215772
3.60518
0.0213933
0.0215314
0.744642
0.552636
0.021515
0.0222456
0.0790207
0.0239264
0.495815
0.0228272
1.10589
0.0259898
0.0222271
0.0215529
0.0274365
0.0213943
0.0210469
0.0648998
1.77611
0.0227245
0.753717
0.417885
1.22202
0.0219723
3.38306
0.0208282
0.0216367
1.04755
3.60499
0.208704
0.0833376
0.0196424
0.0213661
0.050817
0.718724
0.924085
0.0214431
0.555268
4.34086
2.02682
0.0215418
0.0247834
0.0216706
0.0214604
0.100457
14.5166
0.0216575
3.40108
0.0230544
0.335343
0.513245
1.91025
3.57523
0.0213965
0.0529033
0.0242935
0.0239072
0.625366
0.0725406
0.412734
0.0209541
0.0211369
3.32193
0.656159
0.44033
13.3814
0.0208524
0.0201577
0.0211669
0.0210772
0.548654
1.13609
0.0372838
0.0408575
0.0211975
1.58894
0.0160848
0.0200649
0.4407
1.95411
3.7693
0.026595
0.0221551
0.0215158
1.61239
3.16019
0.0272996
7.10946
0.0285918
0.0213853
0.0740401
0.0197385
0.639117
0.49133
0.0221006
0.0207123
0.724478
0.0215394
1.67199
0.0274397
0.457973
0.0216441
0.0216516
0.02133
0.15256
0.33851
0.0213285
0.510006
0.0217182
0.019734
1.99355
1.62031
4.51825
0.0221518
0.0209764
0.0259073
14.6619
0.0207026
0.070568
0.0215167
1.69335
0.0221403
0.612118
1.62953
0.0472642
0.025721
0.452117
0.0216422
1.12013
0.0345294
0.0204421
0.0209978
1.95364
1.95123
7.17615
0.434302
0.0207354
4.83814
0.024723
1.9962
0.0458091
0.0211759
0.0210956
0.200028
0.51918
0.6264
0.0217165
1.21148
0.0212929
0.0210843
0.0202928
1.99999
0.0383496
0.452357
0.0206677
0.0214106
1.85633
0.0211254
0.545968
4.12683
0.0213659
0.0204142
4.66589
3.31572
0.021496
0.140513
0.0289457
0.0254528
0.0222243
12.8527
0.019723
0.0214438
1.02111
0.0216821
0.145877
7.90197
0.0507199
1.83596
3.69614
0.0206908
0.0214608
0.0211828
0.0689863
0.0203912
0.0216896
0.739528
0.0264127
0.0282038
0.0220271
0.0214903
2.04642
0.0212504
0.020412
0.0219048
1.75018
0.0195579
0.0211936
0.0209893
0.0187471
0.0214468
0.0331595
0.0227751
0.0208356
0.0623754
0.0216452
0.0201246
1.0907
0.0212805
0.0201646
0.495064
0.0207383
12.487
0.0211061
0.885114
0.0727508
3.36163
0.0325162
0.298902
0.07314
5.67127
5.14862
0.0220872
3.13732
0.448626
0.4155
0.0254165
0.0205385
0.0598994
0.0200924
0.0527087
0.0336747
0.735568
0.0243117
0.0243446
0.214002
0.0250083
4.80868
3.20019
1.01681
0.0640133
1.92304
11.3075
3.24598
0.45441
0.0261762
1.02456
0.0222834
0.326483
3.5208
3.13542
0.631962
0.021431
3.77579
0.0310239
3.16964
0.0261606
0.0211535
0.0205559
1.98515
3.17604
5.82764
0.0248017
4.11124
0.0647621
0.0213229
0.0250396
0.449843
0.0556624
0.134207
0.664412
0.0210973
3.5482
0.539786
0.0401075
0.0495601
4.20928
4.07984
4.22188
3.60949
0.0211954
0.823248
0.0214545
0.0755994
1.09273
2.09414
0.554727
1.88439
0.0220432
4.50162
0.061536
0.229779
3.74697
5.13847
3.14601
3.83705
1.89212
0.476406
0.440518
0.0211497
0.35048
0.0215263
2.0461
1.58489
0.0741304
0.647724
1.83527
1.04137
0.451515
0.0219131
0.0802503
8.69198
0.0210359
0.021377
3.6597
0.634209
0.0294284
0.345422
0.0422379
0.0348192
0.0242674
2.04346
0.188084
6.15742
0.496511
0.0215459
0.239388
0.906814
0.0384155
3.66283
1.96725
0.136736
0.0510163
2.16528
0.0461234
4.81988
4.47742
0.021678
0.0215721
4.38017
0.732443
0.0247709
0.506755
0.786747
0.0213599
0.444995
0.0216704
0.0389653
1.03815
0.0222334
2.21415
0.645321
3.18009
0.0833435
1.19178
0.318335
0.0207511
0.314341
0.167829
3.16794
0.279416
0.0204919
3.55152
0.0207962
0.0834553
0.0233553
0.0224467
0.641507
0.0214387
0.0278182
0.426029
0.0208195
0.0205443
0.0214366
0.0226146
0.789173
7.61594
0.0587648
0.0211503
0.0237263
0.428781
4.16913
0.428333
2.31139
1.08136
0.703567
1.5139
4.48113
1.60006
0.0742828
4.86201
0.0219812
0.0251813
1.6083
0.862082
0.579451
0.474797
0.0582167
2.03668
0.0214359
0.216427
0.0268765
0.0388634
0.0382051
0.204077
0.0282518
4.08436
6.07899
0.0262315
0.181455
0.0377739
0.0220659
4.44438
0.0249043
4.37422
0.208163
1.24487
0.0214728
0.0221852
0.106767
0.103233
0.590768
3.81449
0.438811
0.0224321
0.0212289
0.0214176
0.0226293
0.0211776
0.653531
0.207216
3.65265
0.40222
3.58486
0.0447053
0.0764891
0.0267908
0.506
0.0213478
0.0957668
4.33009
0.0221136
2.08556
4.37458
0.498812
0.0210916
3.323
3.60384
0.289122
0.0293612
0.0212707
0.0200274
4.36367
0.0208873
0.0210309
0.0216446
0.0211808
0.0687755
0.815178
0.0206646
0.342209
0.0705213
0.188545
1.34055
0.0819556
0.0313981
0.593982
0.0261496
0.020964
0.0226104
0.58225
3.16555
0.0518282
4.51458
0.571105
0.458082
0.526755
0.244955
0.0203028
2.14384
0.459963
0.471125
0.0300409
3.10214
0.0603128
0.0209608
0.0871448
0.482473
0.199264
7.41245
2.04277
1.61465
1.69264
1.04691
4.53164
0.496694
0.0221758
0.865578
0.0483322
0.0255383
1.6825
0.0725343
3.31155
0.29011
0.258526
0.295967
0.0250508
0.0219374
0.0574384
0.0278719
0.11918
0.0214158
0.0459152
0.022021
0.0215208
0.0197309
0.0214298
1.14836
0.021875
0.229814
0.31773
0.0204658
0.0696313
0.0221086
0.616072
0.0212355
0.0215832
0.172922
0.24305
0.217817
3.66523
0.0624193
0.0214332
0.588342
0.0230452
0.320729
0.0563494
0.0506627
0.0205907
0.290633
0.0212754
0.0593421
0.0140284
0.0216452
6.64924
0.468324
0.486173
0.0209347
0.597777
0.735095
0.401386
0.254211
0.412497
0.563701
0.102251
0.0777333
0.0216493
0.153759
0.28634
0.0213971
4.61047
0.278245
7.8153
0.124101
0.0932782
3.14875
0.764596
0.400348
0.0233551
0.597197
0.668651
0.0267182
0.133817
4.53366
0.422658
0.223144
3.89704
0.0213685
0.0327767
0.0197307
1.48513
0.431227
0.0358017
0.788922
0.0210032
0.0211875
0.535936
0.0211844
1.76202
0.0220508
0.0210151
3.43273
0.0198023
0.067962
0.0213383
0.0383224
4.70493
1.13507
2.33675
0.273396
0.022568
0.598411
0.0215247
0.0223515
0.120451
0.0226185
4.38127
0.0935796
0.0202528
0.0215422
0.064356
0.0322514
0.571431
0.977694
0.406482
0.0258189
0.0198899
0.021302
0.142716
0.091779
0.0419025
0.0208806
0.059596
0.0957398
11.3363
0.497896
0.0215608
0.0471389
0.46405
0.0525687
1.21031
0.0214052
0.0218963
0.421316
0.0444298
0.0229892
0.0245159
0.0247665
0.0235797
0.0232661
0.0231266
0.320889
0.0306528
0.0272499
0.022793
0.170226
0.0255213
0.0347079
3.5388
0.764486
0.0203007
0.0212433
0.307339
0.0211095
0.625347
0.0221363
0.559275
0.0259625
0.0307663
3.78931
0.0251899
0.0542084
0.206147
0.0423325
0.388124
0.156179
0.0442849
1.80541
0.0242426
1.91586
5.11511
1.03212
0.314356
0.036482
0.17284
0.145303
0.0214072
0.146136
0.0215347
0.100615
0.084045
0.0342157
0.0231924
0.0212202
0.0214223
0.0296898
8.02775
0.0216456
0.0235408
0.688802
0.557273
0.0415094
0.0254202
0.386159
1.0474
0.0328103
0.445027
0.0305836
6.8829
0.29186
0.0600434
0.019965
0.447855
0.468417
0.506212
0.191994
3.31573
0.345565
2.03726
0.0549791
0.0333227
0.0263658
0.0208404
0.0280863
0.0203944
0.73391
0.956808
0.788353
0.0264799
0.336083
2.072
0.790854
0.0215684
0.0295988
0.07694
0.0654987
0.655489
0.0327473
0.0445962
0.0276108
0.0218323
0.356299
0.0573311
1.97531
0.029534
0.020566
0.0203866
0.63288
0.0223508
0.03006
0.0294596
0.147185
0.0215545
0.0330104
0.442664
0.0240485
0.0509178
0.474737
1.94269
0.463197
0.73846
4.14349
3.57637
0.0208557
0.650687
0.770019
2.05104
3.10422
0.804332
0.0226107
0.571008
0.0210348
0.206853
0.0221563
0.12683
0.0211914
3.16917
0.0297268
0.401392
0.569182
5.79533
0.497298
0.0327926
0.0215572
0.600061
0.513051
0.294029
3.43664
0.0351172
12.9379
0.406209
0.0617005
0.395985
3.20061
1.3457
0.494907
1.74162
0.0197506
1.12232
0.066836
0.20625
0.020853
0.0215402
0.0212946
2.0345
0.371216
0.411032
0.170488
0.0106574
3.37427
0.112976
1.7206
0.302209
0.0206362
0.235961
2.00393
0.0492695
1.35816
0.0242564
0.157915
0.0291557
0.519728
0.139738
0.0214076
0.492573
0.721536
0.229509
0.0207958
1.28459
0.458635
2.07699
0.599319
0.464
0.996863
0.0245519
0.0240864
1.02673
0.973741
0.02158
0.0211325
0.0791606
0.0207083
0.0226946
0.553441
0.0264365
0.980828
2.11731