/*--------------------------------*- C++ -*----------------------------------*\
| =========                 |                                                 |
| \\      /  F ield         | OpenFOAM: The Open Source CFD Toolbox           |
|  \\    /   O peration     | Version:  v2012                                 |
|   \\  /    A nd           | Website:  www.openfoam.com                      |
|    \\/     M anipulation  |                                                 |
\*---------------------------------------------------------------------------*/
FoamFile
{
    version     2.0;
    format      ascii;
    class       volVectorField;
    location    "250";
    object      U;
}
// * * * * * * * * * * * * * * * * * * * * * * * * * * * * * * * * * * * * * //

dimensions      [0 1 -1 0 0 0 0];


internalField   nonuniform List<vector> 
18649
(
(0.878069 0.266073 9.75528e-21)
(1.02136 0.0036049 9.75704e-21)
(0.890422 0.324562 -1.1928e-20)
(1.00769 -0.211589 3.76865e-21)
(1.03814 0.000430311 8.00623e-21)
(0.843876 0.0867299 0)
(1.01923 0.00598177 0)
(1.05917 -0.000144087 -2.38775e-22)
(0.750043 0.0899332 -7.17533e-21)
(0.243354 0.193515 8.21313e-20)
(1.02375 0.00508727 1.9336e-20)
(1.02422 0.00423852 -4.30636e-21)
(1.03736 0.000570907 -7.07571e-21)
(1.0171 0.0117225 -1.01281e-20)
(0.496076 -0.768257 1.27875e-20)
(1.03908 0.00036432 0)
(1.02722 -0.00745669 6.81619e-21)
(1.01923 0.00587471 0)
(0.522797 0.25178 -1.78465e-20)
(1.02137 0.00345434 0)
(1.02435 0.00437159 8.04081e-21)
(-0.239701 0.648691 -1.59663e-19)
(1.03899 0.0716943 -2.2142e-21)
(1.02413 -0.178567 0)
(0.217969 0.156835 -1.52126e-19)
(1.04244 0.0653898 2.32657e-21)
(0.750214 0.221642 -4.53693e-22)
(0.739741 0.314166 -4.83197e-21)
(1.02987 0.00236384 1.53476e-20)
(1.00541 0.426512 9.33929e-20)
(1.00875 0.00546488 0)
(1.01032 0.00484237 0)
(1.02633 -0.00629841 1.94585e-22)
(1.007 -0.052063 3.94555e-23)
(1.0232 0.000484822 -9.19368e-21)
(0.994161 0.0717308 0)
(0.525168 -0.661158 4.17534e-20)
(0.987421 -0.0823382 1.19809e-20)
(1.02368 0.00492004 -1.91182e-20)
(1.01716 0.0113088 2.02973e-21)
(0.791903 -0.353505 8.63235e-21)
(1.01663 0.00497386 -4.51566e-21)
(1.19204 -0.2945 4.50111e-20)
(0.727983 0.299992 -4.59372e-21)
(0.770374 -0.0752698 2.91837e-21)
(-0.284426 1.05169 -2.84096e-19)
(1.09614 0.10664 -6.07711e-22)
(1.04574 -0.0465317 0)
(1.0179 0.00526563 5.49458e-21)
(0.900028 -0.16923 1.41446e-22)
(1.00649 -0.208075 0)
(1.01202 0.0587419 3.22443e-21)
(1.03789 0.00805209 7.94027e-21)
(0.781847 -0.32892 4.43698e-21)
(1.05381 0.0039185 1.29356e-21)
(0.988314 -0.372975 0)
(0.544882 0.371864 0)
(1.01768 0.00525397 -5.42317e-21)
(1.05939 0.00115356 -1.16682e-24)
(0.989395 0.535097 -2.4967e-20)
(1.04597 0.00502083 0)
(1.25064 -0.056296 -2.5038e-20)
(1.01682 0.00620252 0)
(0.544877 0.20644 2.1944e-20)
(0.958961 0.448751 -3.98688e-21)
(0.89318 -0.0951859 -2.32393e-21)
(1.04418 0.514018 2.36697e-20)
(1.01566 -0.00952931 0)
(0.743013 -0.0703611 -1.77853e-21)
(-0.285028 0.650759 -2.8272e-19)
(0.73641 0.215371 0)
(1.01172 -0.0491899 3.93367e-22)
(1.01948 0.00567274 0)
(1.017 0.00624989 0)
(1.00367 0.0376921 0)
(0.708717 0.299311 2.31858e-21)
(0.815995 0.264451 -3.69808e-21)
(1.02275 0.000450142 1.068e-20)
(0.644112 0.829244 -3.22862e-19)
(1.08435 -0.00515036 -1.13577e-25)
(1.00905 0.0381768 0)
(0.97472 -0.0941326 -1.43156e-20)
(0.792005 -0.120378 0)
(0.529791 0.190539 1.97495e-20)
(1.05542 -0.000410015 1.6666e-22)
(1.01335 -0.353112 3.84564e-20)
(1.0331 0.0455397 1.04781e-20)
(1.06509 0.0325037 -1.09894e-20)
(1.08883 -0.0063847 8.04607e-23)
(0.842689 -0.477606 0)
(0.525266 -0.752196 -1.24033e-20)
(1.18102 -0.227805 0)
(1.01619 -0.180789 -5.06563e-21)
(1.00553 0.268525 3.58937e-20)
(1.03488 0.0158169 -2.85922e-21)
(1.03809 0.00781693 -7.6282e-22)
(0.988495 0.075186 -2.59994e-22)
(1.01681 -0.140893 0)
(0.902845 -0.0715825 -3.87498e-22)
(1.04622 0.00491331 -2.22529e-21)
(0.889335 -0.196779 4.18417e-20)
(1.03967 0.000278952 -3.95002e-21)
(0.965141 -0.114757 0)
(1.05894 -0.000233426 2.74013e-22)
(0.731033 0.118692 -2.16733e-21)
(0.726076 0.13987 1.92944e-21)
(0.796661 -0.0624503 -1.94416e-20)
(0.850931 -0.515035 4.58776e-20)
(0.973358 -0.355067 -5.69867e-21)
(1.01952 0.00554492 0)
(1.02294 0.000723737 2.63547e-23)
(1.03907 -0.0585253 4.97552e-22)
(1.07731 0.0514871 1.06164e-20)
(1.03181 0.00380334 1.39359e-20)
(1.0354 0.0158366 0)
(1.02603 -0.152726 -5.44977e-21)
(1.01421 -0.00884903 2.62667e-21)
(1.04005 -0.0611533 2.68582e-21)
(1.03571 0.000684236 8.30811e-21)
(1.0371 0.0413555 2.9756e-21)
(1.0471 0.00644375 2.2123e-21)
(1.04177 -0.138918 4.7718e-21)
(0.935618 -0.438792 2.30796e-20)
(1.03164 0.00358973 -8.69708e-21)
(1.05579 -0.000440004 2.37864e-22)
(1.0183 0.00296334 0)
(0.768533 0.133766 0)
(1.01962 0.0162915 0)
(1.03084 0.00303429 1.14491e-23)
(1.058 0.00504866 -1.33363e-22)
(1.01934 0.00885471 1.61663e-20)
(0.549962 0.194688 -2.65869e-20)
(1.28368 -0.09841 0)
(1.31223 -0.111284 -9.10961e-20)
(1.02386 0.000533053 -1.72807e-20)
(-0.570821 0.928334 -1.15253e-19)
(0.744422 0.274047 4.81971e-21)
(0.852678 -0.506023 -3.35555e-20)
(0.751901 0.24471 -4.5735e-21)
(0.703756 -0.0701616 -6.04472e-22)
(1.04841 -0.036888 5.3638e-21)
(1.03286 0.000472231 4.35434e-21)
(1.06082 0.00128932 -2.27366e-23)
(1.01712 0.00774502 6.46271e-21)
(0.706618 0.201062 -1.07308e-21)
(1.04852 0.00571284 -2.06663e-21)
(1.01994 0.00885041 -4.14875e-21)
(1.31504 -0.0878223 -6.30264e-20)
(0.715065 0.164931 3.42149e-21)
(1.01888 0.00948763 4.78355e-23)
(0.846999 0.300336 3.36245e-21)
(0.655568 -0.0598173 -1.44931e-21)
(1.03202 0.000507354 1.36721e-22)
(1.01933 0.00519836 1.27982e-20)
(1.04255 -0.114554 0)
(1.05262 -0.167012 9.01648e-22)
(1.01882 0.00956985 4.53488e-21)
(1.03703 0.00342255 5.67454e-21)
(1.03399 0.00358492 -4.57898e-21)
(1.06031 0.167375 -1.64128e-21)
(0.865072 -0.0722377 0)
(0.839647 0.155997 -2.90602e-20)
(1.01875 0.00937434 -1.5551e-20)
(0.755069 0.177771 3.97492e-22)
(0.71477 -0.371569 -6.92634e-21)
(1.03444 0.000958888 4.48488e-21)
(1.10272 0.0371956 -3.61026e-22)
(0.712085 0.139511 -3.01287e-21)
(1.04592 2.52077e-05 -1.49643e-21)
(1.04704 0.00482219 0)
(1.03052 0.0491782 2.99525e-22)
(1.02971 0.000986957 -8.16425e-21)
(1.03509 0.00581921 2.98018e-21)
(1.03686 -0.000628049 -6.09857e-21)
(0.903609 -0.144426 -1.51901e-22)
(0.940882 -0.0810262 1.1363e-21)
(0.716112 0.194447 3.85126e-22)
(1.01886 0.00963623 0)
(0.711377 0.133778 0)
(0.86596 -0.0227357 -2.63591e-20)
(1.02559 0.0048578 0)
(0.697447 -0.0589791 1.74127e-21)
(1.057 0.00317123 0)
(1.03713 0.00408409 -5.97167e-21)
(1.02043 0.00208016 6.72075e-21)
(1.05682 0.00460413 0)
(1.05371 0.00384177 9.53563e-24)
(1.04514 -0.125562 -4.91185e-22)
(1.04715 0.00577145 1.02422e-21)
(1.0614 0.00272812 0)
(1.00747 -0.00198964 0)
(0.832473 0.330953 8.85537e-21)
(0.651752 -0.0390246 -1.35956e-20)
(1.03992 0.0568675 -9.37213e-21)
(1.12301 -0.0146651 0)
(1.03508 0.00576947 -2.47721e-21)
(1.05612 0.00172576 2.82343e-23)
(1.05621 0.00250028 2.89369e-21)
(0.714553 -0.359724 4.00369e-21)
(1.05108 -0.0421717 2.8963e-22)
(1.06123 0.00281193 0)
(1.03821 0.000853371 1.87826e-21)
(1.07513 0.220464 0)
(1.01928 0.00533869 2.64228e-21)
(1.01604 0.00886964 -1.18116e-20)
(1.02955 0.000873262 1.18089e-20)
(1.31524 -0.12491 6.53859e-20)
(0.906869 0.542886 0)
(1.02429 0.00100514 -2.00712e-21)
(1.03741 0.00683934 0)
(1.047 0.00525466 -5.33926e-22)
(1.0163 0.026788 0)
(1.05183 0.00288717 -8.00498e-22)
(0.956737 0.0204977 4.02322e-23)
(1.41206 -0.103367 -2.63803e-19)
(0.946205 0.0203 -2.33907e-20)
(1.01867 0.000676339 -1.53423e-20)
(1.00656 -0.000127739 -2.28519e-21)
(1.03647 0.00365112 1.0596e-20)
(1.09959 0.0954725 0)
(0.941069 0.144611 0)
(1.06639 0.0027662 -1.17063e-21)
(-0.523151 0.981372 0)
(1.04569 0.240919 0)
(0.841335 0.0880372 1.65582e-20)
(1.08477 0.0285128 2.92768e-22)
(0.706153 -0.0607031 2.04614e-20)
(1.23387 -0.588428 1.53895e-19)
(1.0193 0.000161315 0)
(0.942087 0.182428 -2.78314e-21)
(1.06124 0.00239344 -6.36061e-22)
(1.00527 0.0259516 4.90985e-21)
(1.04535 -0.0484193 0)
(1.02381 0.00369681 2.67325e-22)
(0.694811 0.991547 0)
(1.02584 0.0049102 -7.93124e-21)
(1.01163 0.00543905 -6.38697e-21)
(1.02002 0.00318312 1.29936e-20)
(1.05182 0.00354994 8.093e-22)
(1.06066 2.97781e-05 -1.1958e-23)
(1.12212 0.0107975 -2.01097e-21)
(0.985132 0.496803 0)
(1.38339 0.163773 0)
(0.635191 0.791462 0)
(0.85653 0.0149999 0)
(0.989854 0.0411334 -1.01886e-20)
(1.04327 0.0559272 2.72962e-21)
(1.0236 0.000598415 1.15178e-20)
(-0.451442 0.193918 -2.42144e-19)
(1.04207 -0.129101 -9.50547e-21)
(0.983673 0.0457874 1.12966e-20)
(1.25009 -0.561899 -4.77865e-20)
(1.01872 0.0119178 3.91093e-21)
(0.999638 0.0301848 -5.23329e-21)
(1.01746 -0.0333844 -3.34084e-22)
(1.03436 0.000839845 1.251e-21)
(1.03745 0.00709813 0)
(1.04666 0.00489349 -2.16397e-21)
(0.993059 0.198771 6.61179e-21)
(1.04643 -4.49639e-05 0)
(0.518807 -0.678296 -7.18587e-20)
(1.05356 0.00227907 -6.4075e-22)
(1.05536 0.00484503 0)
(1.09757 0.00924636 8.22071e-21)
(1.0523 0.00262284 7.67267e-22)
(0.70393 -0.0473941 -5.971e-21)
(1.04932 -0.000464402 0)
(1.09621 0.0572199 5.55617e-22)
(1.04168 0.000328285 0)
(1.04919 0.00841084 1.04207e-21)
(0.77073 0.402658 8.63559e-22)
(1.30481 -0.427449 1.30767e-19)
(0.962979 0.0165149 1.72592e-22)
(1.04929 0.00784464 0)
(0.51387 -0.719425 1.37661e-20)
(1.04915 -0.143211 -1.71543e-20)
(1.0182 0.0140458 -4.82371e-21)
(1.03536 -0.0127755 6.6431e-22)
(1.1157 0.00621367 0)
(1.25178 -0.0683694 2.43778e-20)
(1.00714 -0.40318 2.49933e-20)
(1.01507 0.00266422 -9.4992e-21)
(0.865569 0.546236 0)
(1.01881 0.000538918 5.67276e-22)
(1.05816 0.00477159 -8.50506e-22)
(1.01411 -0.351317 -2.80717e-20)
(1.01535 0.130169 0)
(1.02438 0.000758936 0)
(0.745785 0.299444 0)
(1.05709 -0.000433066 -4.40033e-22)
(1.02518 0.00467107 3.48164e-21)
(0.84729 0.017978 2.73338e-20)
(1.01996 0.00908765 6.88896e-21)
(1.01897 0.0100923 0)
(0.83633 0.226634 3.92905e-20)
(-0.434543 0.101505 0)
(0.540076 0.294683 1.58845e-20)
(0.228019 0.243579 -5.27981e-19)
(1.04987 -0.033219 0)
(1.03619 0.00294829 -6.20299e-21)
(1.03685 0.0153398 0)
(0.758256 0.160867 4.3481e-21)
(1.04541 0.22255 0)
(0.794867 0.449841 2.55531e-20)
(1.16454 -0.367841 -4.23549e-20)
(1.07428 0.0192668 0)
(1.10497 0.0691382 0)
(1.14884 -0.151646 -4.4479e-20)
(1.05131 -0.0402384 4.28863e-21)
(0.905845 -0.189493 4.13431e-21)
(1.02494 0.00460733 3.6228e-21)
(0.934533 -0.117544 -2.03616e-21)
(1.05924 0.000468071 -3.16368e-24)
(1.05445 0.00386506 2.39168e-21)
(1.01631 0.0138997 -1.35153e-20)
(1.01473 0.0362384 0)
(1.00359 -0.00195165 7.30856e-22)
(0.787423 -0.38149 4.08839e-20)
(0.823035 0.198729 2.09565e-20)
(1.05434 0.00379804 -3.09594e-21)
(0.344093 0.937086 1.4617e-19)
(1.04676 0.0052268 3.12501e-21)
(1.04694 0.00587529 -1.0988e-21)
(1.02239 0.000638834 9.15259e-21)
(0.273492 0.286056 6.75605e-19)
(1.01195 -0.0126259 -5.86625e-23)
(0.855072 0.228946 -5.07016e-20)
(1.10734 0.236044 -1.41122e-21)
(1.03742 0.000681209 8.66438e-21)
(1.01786 0.00480702 8.66718e-21)
(1.0165 0.00986935 5.43084e-21)
(0.721488 0.250295 4.35422e-21)
(1.36906 -0.0198637 0)
(1.04267 0.000287538 -2.86445e-21)
(0.960807 -0.450307 -2.34167e-20)
(1.0255 0.00541298 0)
(0.921007 -0.116126 2.56591e-21)
(1.0624 0.0141368 3.44726e-25)
(0.968577 -0.115827 5.07281e-22)
(1.32312 -0.0997238 0)
(0.953266 -0.0173714 5.39394e-21)
(1.06306 0.508845 0)
(0.769735 -0.398012 -3.84799e-20)
(0.669533 0.200161 2.48518e-21)
(0.227285 0.0191366 -1.30016e-20)
(1.01887 -0.22424 1.02879e-20)
(1.10143 -0.0973877 3.26545e-21)
(1.0239 0.00474403 -5.68377e-21)
(0.292335 0.169156 -3.21006e-19)
(0.543058 0.302029 0)
(1.01174 0.00592239 9.96559e-21)
(1.43339 -0.0635642 -3.08096e-20)
(1.05342 0.0020814 0)
(1.00181 0.0412908 1.49856e-20)
(1.01558 -0.0309424 -6.39458e-22)
(1.00941 -0.109848 7.11586e-21)
(1.01189 -0.0116891 0)
(0.833436 0.0782145 0)
(1.0259 0.0479155 4.86804e-21)
(1.05361 0.00370646 1.49255e-21)
(1.06571 0.0440043 1.20141e-20)
(0.862646 -0.467058 2.35369e-20)
(1.11385 0.114496 7.47554e-22)
(1.04078 0.00347311 -5.63416e-21)
(0.892923 -0.011218 3.44237e-21)
(0.977371 0.535819 -1.66281e-20)
(1.03741 0.015483 -9.06059e-21)
(1.05502 -0.000383254 -1.63933e-22)
(1.04167 0.466074 6.42386e-22)
(1.05186 0.00309771 0)
(1.04341 -0.103256 9.13111e-21)
(0.889501 0.984006 -1.13473e-19)
(1.06566 0.00472926 1.13022e-21)
(1.03116 0.000783986 -8.60524e-25)
(0.530471 -0.702234 1.54216e-20)
(1.01951 0.00935933 0)
(1.45366 -0.0136346 0)
(1.05419 0.449298 -5.24194e-20)
(0.83073 0.00221519 0)
(1.34619 -0.0291085 -2.26242e-20)
(1.34316 -0.0122212 7.2013e-20)
(1.05441 0.00366112 1.56092e-21)
(1.00419 0.0384369 -1.14872e-20)
(1.28661 -0.431037 -1.56901e-19)
(0.893123 -0.0224937 2.72769e-20)
(1.01383 0.0254502 1.0666e-20)
(0.94023 -0.00924047 0)
(1.03455 0.00529625 -6.04287e-21)
(1.01689 0.0100898 0)
(1.02224 0.000743274 -2.36182e-20)
(1.37267 -0.0330441 0)
(1.00221 0.0195456 0)
(1.05973 0.0105726 -3.38011e-25)
(1.01196 0.0247895 -1.48105e-22)
(0.752207 0.225958 -1.39457e-21)
(0.956007 -0.116038 -2.45373e-21)
(1.03649 0.0412948 6.52106e-21)
(1.06094 0.00389368 6.59643e-22)
(1.04405 0.000515304 -1.23282e-21)
(1.04719 0.00645847 -1.10425e-22)
(1.15217 -0.387628 0)
(0.57361 0.394001 0)
(1.02453 0.00245565 0)
(0.743672 -0.047833 0)
(1.13943 -0.0224126 -3.50225e-22)
(1.04844 -0.000446511 0)
(1.03445 0.00528662 0)
(0.914285 -0.00442269 0)
(1.05438 0.00366966 0)
(1.1031 -0.0918049 1.37485e-20)
(1.02963 -3.32825e-06 4.46776e-21)
(0.754076 -0.058841 0)
(1.17633 -0.237629 3.29297e-20)
(1.01891 0.00880034 0)
(1.00584 -0.426747 -5.43525e-20)
(1.0259 -0.0266294 -2.02305e-23)
(0.706077 0.279408 4.2578e-21)
(1.07606 0.0206207 2.68179e-20)
(1.01589 0.0123954 1.47292e-20)
(1.01715 0.00401891 8.02193e-21)
(1.00263 -0.0604227 2.36697e-22)
(1.05663 0.0102782 -2.97483e-22)
(0.907543 -0.167995 0)
(0.673778 0.0777001 -4.8771e-20)
(1.03073 0.147437 4.67718e-21)
(1.06071 -1.46056e-05 0)
(1.14484 0.144815 -8.06127e-22)
(1.07502 0.114781 -8.48568e-22)
(1.03381 -0.0117636 1.24755e-21)
(0.82314 -0.489164 0)
(0.252053 -0.0999394 1.09635e-19)
(1.04868 0.00609026 5.35517e-22)
(1.05486 0.0104262 1.00276e-20)
(1.05722 0.0165791 0)
(0.402778 -1.16264 0)
(1.02352 0.00535906 1.16518e-20)
(1.0251 0.00980055 9.69988e-21)
(0.791319 -0.422867 -1.14125e-20)
(1.02387 0.00481027 0)
(1.04141 0.0341415 6.60879e-21)
(1.04902 0.00574958 -4.81966e-22)
(1.06087 0.000881433 -6.79106e-23)
(1.02009 0.00935586 7.86428e-21)
(0.993669 -0.110307 -3.7116e-21)
(1.01902 0.00906011 -3.34507e-21)
(1.01948 0.012647 0)
(1.01615 0.0126977 0)
(1.15115 -0.256764 -5.87098e-20)
(0.858292 0.152469 0)
(1.01179 0.0380459 1.84454e-20)
(1.01867 0.0092744 1.18367e-21)
(0.793409 0.146169 0)
(1.01864 0.00928074 4.5229e-21)
(0.917755 -0.0790115 -1.47181e-21)
(1.00649 -0.057854 -1.08769e-21)
(1.0331 0.000289647 -5.4927e-21)
(1.02394 0.00405889 4.79253e-21)
(1.0456 0.00480406 -1.56286e-23)
(0.679797 -0.38039 1.0553e-20)
(1.02737 -0.379736 -4.46042e-20)
(1.03173 0.00556412 1.5304e-23)
(0.947722 -0.79872 -6.46272e-20)
(1.02356 0.00529089 -1.66072e-20)
(0.731916 0.188309 0)
(0.496057 0.756514 -4.34139e-20)
(1.04129 -0.000711036 -3.44426e-21)
(1.06094 0.000882796 9.58431e-23)
(1.05801 -2.76969e-05 3.33801e-23)
(1.02064 0.0162608 0)
(1.01763 0.0237177 0)
(0.971357 0.0606127 1.39249e-22)
(1.05514 0.00454307 -6.80467e-22)
(0.956795 0.0235075 0)
(1.04072 -0.15663 2.39218e-21)
(0.78586 0.058174 1.94301e-20)
(1.15628 -0.136456 -4.09511e-20)
(1.01993 0.00625481 0)
(1.01894 0.0142939 0)
(0.955958 -0.0579957 1.12294e-21)
(0.663466 -0.403669 6.70314e-21)
(0.990886 -0.0794485 2.09153e-22)
(0.619333 0.872179 2.49487e-19)
(1.0389 0.0394767 0)
(1.04642 0.00496049 0)
(1.05524 0.00807591 0)
(0.971607 0.214282 1.10613e-20)
(1.02515 0.00685044 -4.64783e-21)
(0.993835 0.0720262 0)
(0.00256778 0.871914 0)
(1.02528 0.000559622 5.60177e-21)
(0.973961 0.0531767 -7.54779e-21)
(0.789629 -0.423458 1.10912e-20)
(1.05871 -0.00102932 -1.13354e-22)
(1.24588 0.284426 0)
(1.03401 0.00334712 4.80066e-21)
(1.27226 0.317773 9.19348e-21)
(1.36871 -0.0301279 -1.0543e-20)
(1.03266 0.000787317 5.13351e-21)
(1.05355 0.00187072 -1.56852e-21)
(1.04021 0.0143443 0)
(0.778245 0.0679693 1.82834e-20)
(1.01583 0.00405711 7.30062e-21)
(1.01663 0.0151976 -4.62986e-21)
(1.01076 -0.00923752 3.27714e-21)
(1.01879 0.0537661 0)
(0.898948 -0.0553382 2.5091e-21)
(0.866526 -0.461333 -2.45828e-20)
(1.06133 0.00237899 2.99347e-22)
(1.03464 0.0054612 0)
(0.516666 0.133587 -1.74509e-20)
(1.0486 0.0332584 4.11121e-21)
(1.02065 0.0087129 6.96115e-21)
(1.04716 -0.000410747 -6.52872e-22)
(1.16518 -0.316414 -3.36906e-20)
(1.29116 -0.105428 -2.7347e-20)
(1.07572 0.0503301 -5.99276e-21)
(0.728495 0.30429 -2.68335e-21)
(1.02444 0.00459887 0)
(0.799451 -0.174411 -3.63361e-21)
(1.03479 0.00549069 -3.10007e-21)
(1.03304 0.00339249 5.65455e-21)
(1.05781 0.025276 0)
(1.01673 0.0011424 -1.50084e-20)
(-0.51859 1.01642 -3.02049e-19)
(1.03324 0.00321086 -2.98657e-23)
(0.769734 0.20529 -6.55376e-21)
(1.51401 -0.226141 1.41861e-19)
(0.858964 -0.480545 0)
(0.718885 0.209191 3.65407e-21)
(1.09131 -0.0181258 0)
(1.04402 0.000853472 0)
(1.40984 -0.150222 -1.30785e-19)
(1.04919 0.00614902 4.98708e-22)
(1.04409 0.000810085 -1.79784e-21)
(0.971757 -0.341088 4.93229e-20)
(1.01766 0.0142379 -1.50852e-20)
(1.06082 0.00132658 3.91766e-23)
(0.94632 0.00827119 0)
(0.381948 -0.615282 0)
(1.01669 0.00320243 9.27719e-21)
(1.4187 -0.168355 1.6905e-20)
(1.00564 0.0109845 0)
(0.267179 0.0990885 3.06112e-19)
(1.02494 0.00624606 0)
(1.04685 -0.167414 1.65223e-20)
(0.800845 0.553027 6.61423e-22)
(0.717258 0.296764 -2.23877e-20)
(1.00999 -0.00737828 3.29185e-21)
(1.14368 0.0924232 5.9845e-21)
(1.02105 0.000170494 0)
(1.01165 0.00115436 0)
(0.872641 0.198871 -7.96068e-21)
(1.02125 0.0512491 -4.66623e-21)
(0.801416 -0.154721 4.3673e-21)
(1.02079 0.00870026 8.4469e-21)
(0.923542 0.431758 -2.25978e-21)
(1.135 -0.0183536 0)
(0.992956 0.126915 5.72694e-22)
(1.02472 0.00612548 0)
(1.0219 0.0146188 9.4474e-21)
(0.463756 0.727333 8.46933e-20)
(1.01631 0.242354 -5.21657e-21)
(1.1298 -0.341728 0)
(0.956901 -0.0519415 -8.24334e-21)
(1.04676 0.00560122 3.20708e-21)
(1.04129 0.000611797 -1.65428e-21)
(0.364458 -1.12184 0)
(0.912608 -0.197028 -6.30022e-21)
(0.944538 0.0233484 -2.32965e-22)
(1.128 -0.0612495 -1.33994e-20)
(0.976761 0.0137836 0)
(1.03802 -0.175448 0)
(1.05977 -0.00212881 -1.82697e-22)
(1.03624 0.00725272 4.80149e-21)
(0.307376 -0.241825 6.30513e-20)
(1.06023 0.000922092 -2.1329e-22)
(0.729835 0.317721 2.54521e-21)
(1.01932 0.0240472 5.11941e-21)
(0.254967 -0.139923 -5.38745e-20)
(1.01708 0.00606124 0)
(1.03881 0.0165368 0)
(1.02595 0.00478716 -3.92453e-21)
(0.95874 -0.864998 4.82379e-20)
(1.0562 0.00882432 -1.20273e-21)
(1.05261 0.00104995 0)
(1.01752 0.00370127 0)
(1.0181 0.00497707 -1.18611e-20)
(1.14019 -0.41755 0)
(-0.107782 0.998086 -8.12556e-20)
(1.02461 0.00466987 4.68558e-21)
(1.02896 0.00587878 9.67405e-21)
(1.04197 0.0154137 4.24085e-21)
(1.39689 -0.172097 5.50469e-20)
(1.05679 0.0075536 0)
(0.983364 0.0286296 3.15881e-21)
(1.02723 0.000528441 -5.19911e-21)
(1.01637 0.00329231 0)
(1.1607 -0.438164 4.98765e-20)
(1.03943 0.000270287 0)
(0.733866 -0.0901102 4.12737e-21)
(1.05428 0.00446626 -9.99167e-22)
(0.857334 -0.62837 0)
(1.04521 0.00413064 1.46467e-21)
(1.0584 0.00384317 3.13814e-22)
(1.03456 0.00397071 5.51828e-21)
(1.02316 0.305625 -2.47053e-20)
(1.04783 -0.000492512 1.85414e-23)
(0.900498 -0.107496 -4.16736e-21)
(1.01682 0.00329438 4.87938e-21)
(0.709466 0.191055 -2.04927e-21)
(1.01918 0.00891706 -3.68813e-21)
(0.0359215 0.912546 -2.08183e-19)
(1.05523 0.00890564 1.21396e-21)
(1.02551 0.00500949 4.03317e-21)
(1.12724 -0.307866 -2.79403e-20)
(1.02455 0.0114231 -1.5975e-20)
(1.03638 0.00722164 0)
(1.04212 0.000593635 0)
(1.16138 -0.345199 -9.39331e-21)
(0.812106 0.049567 -1.02071e-20)
(1.03285 0.00305691 -2.97888e-21)
(1.07733 0.0416221 -4.72083e-22)
(0.727392 -0.212183 0)
(1.02089 0.0143306 0)
(1.10922 0.084484 0)
(1.01274 -0.0470034 2.09685e-22)
(0.881029 0.106075 -1.29358e-20)
(-0.458843 1.02698 6.60579e-19)
(0.864131 -0.470245 -2.32981e-20)
(0.386245 -0.638591 2.12894e-22)
(1.01753 0.00553188 -7.96979e-21)
(0.860671 0.0471474 8.57881e-22)
(0.671904 0.455426 3.73377e-20)
(1.02131 0.00042043 0)
(1.01717 0.251828 -1.69816e-21)
(1.01341 -0.16058 0)
(1.0765 0.0377275 5.4308e-21)
(0.784551 0.497263 0)
(1.02082 0.000409914 0)
(0.747895 0.613351 0)
(1.0171 0.00594521 0)
(0.841232 -0.457597 0)
(0.924571 0.234602 0)
(1.02458 0.0100787 -1.00242e-20)
(1.16631 -0.281196 2.19025e-20)
(1.04131 0.000438239 -7.72554e-22)
(1.06688 0.0305315 0)
(1.04958 0.0058394 -5.01133e-22)
(1.0184 0.0274334 0)
(0.763463 0.725069 3.50601e-20)
(1.05431 0.00441287 -2.28094e-21)
(1.18249 -0.263812 -1.13027e-20)
(0.704443 0.140674 0)
(0.816081 0.222163 0)
(1.02 0.00726498 0)
(1.03401 0.507566 0)
(0.995453 -0.0919266 -9.37293e-22)
(1.01504 0.0127569 0)
(0.892444 0.170539 -1.3297e-20)
(1.01936 0.0109875 -4.61399e-21)
(1.03076 0.000525791 0)
(0.718507 0.266383 -7.29275e-21)
(1.05308 -0.000412295 -2.41696e-22)
(1.09353 -0.0113506 -8.34646e-21)
(0.83917 0.214992 -1.84654e-20)
(1.03387 0.00294642 -5.3691e-21)
(1.03238 0.0452486 -4.48162e-21)
(1.12539 -0.000146765 0)
(1.0236 0.00266511 0)
(1.04536 0.0042154 -1.57736e-23)
(1.3719 0.115952 -8.77277e-21)
(1.01019 -0.0431399 -1.99507e-22)
(1.02878 0.00482963 0)
(1.03529 0.00625596 0)
(1.25277 -0.096091 3.02792e-21)
(0.823479 -0.36489 1.07865e-20)
(0.821535 0.055014 -1.70056e-20)
(0.960077 -0.323083 -1.65547e-21)
(0.751948 0.710282 0)
(0.734525 -0.105937 0)
(1.02332 0.00589636 0)
(1.34124 -0.427428 -1.71721e-20)
(0.843642 0.440726 1.03523e-20)
(1.01896 0.00630059 0)
(1.14894 -0.159541 4.8053e-20)
(1.03555 0.00628135 -5.98875e-21)
(0.984771 -0.0879875 1.5526e-21)
(1.02008 0.00727734 0)
(1.03458 0.000461966 9.28619e-21)
(1.02494 0.0066325 -5.04778e-21)
(1.03678 0.00719978 0)
(1.01712 0.0049151 -2.76448e-21)
(0.888377 -0.121938 -4.56875e-20)
(0.366936 -0.84825 3.76184e-20)
(0.847272 -0.336091 1.49084e-21)
(0.96373 0.0280928 1.45567e-20)
(1.05735 0.00630206 -8.76269e-22)
(0.604853 -0.430517 -2.28301e-21)
(1.05309 0.00106568 -1.81581e-21)
(0.658828 -0.376357 -1.59795e-20)
(0.964977 -0.0780676 -2.02301e-22)
(0.836254 0.23856 0)
(1.0146 -0.00566829 -6.77966e-21)
(0.625727 -0.431312 -8.73198e-21)
(1.04613 0.00623524 8.67106e-22)
(0.699355 0.609702 -4.04468e-20)
(1.03199 0.0485001 -2.17633e-21)
(0.698956 -0.391232 -1.40981e-20)
(1.01797 0.00945986 0)
(1.28467 -0.479482 2.22157e-20)
(0.757389 0.520401 5.26447e-20)
(0.953178 0.0325054 -1.29627e-20)
(1.15858 -0.936681 0)
(1.04377 0.000569569 -4.35048e-21)
(1.31543 -0.213061 0)
(1.04734 -0.000412206 0)
(0.862073 0.0380165 0)
(0.74554 -0.084028 2.64253e-21)
(1.04681 0.00484156 2.37988e-21)
(1.06189 0.00377195 3.69102e-22)
(1.03264 0.00322513 0)
(1.05305 -0.000341434 -1.33117e-21)
(0.734407 -0.196315 0)
(0.710477 -0.600114 4.15826e-20)
(1.02348 0.00385515 -5.01227e-21)
(0.909145 0.136127 0)
(0.4738 0.917904 3.90292e-20)
(0.491125 0.104798 6.6635e-21)
(1.03693 0.00708325 0)
(0.68718 0.120976 -6.06674e-22)
(1.04716 0.00516845 5.70085e-22)
(1.02339 0.00370854 3.95337e-21)
(0.822284 0.300371 0)
(0.708473 0.183044 2.5469e-21)
(0.998531 -0.0777403 0)
(0.817548 -0.0347954 -1.54374e-20)
(1.00237 -0.00208526 -2.82353e-21)
(0.842635 0.257425 4.01815e-21)
(1.04238 0.000299228 2.55949e-21)
(1.02762 0.00798404 0)
(0.891852 -0.0264728 0)
(1.19505 -0.334501 -1.11795e-20)
(1.05845 0.00415087 -5.49382e-22)
(1.02445 0.164054 -1.08085e-20)
(1.15435 -0.221069 1.35774e-20)
(1.01714 0.00469983 -1.55568e-20)
(1.03139 0.00624731 4.15306e-21)
(1.06029 0.00126724 -3.55722e-22)
(0.819746 -0.47986 0)
(1.04889 -0.107136 0)
(1.05224 0.00254436 8.04168e-22)
(1.02853 -0.000570792 0)
(-0.594108 -0.288286 -5.0879e-19)
(1.21648 -0.0681934 0)
(0.811007 -0.056751 -7.62222e-21)
(1.12897 -0.340877 9.95279e-21)
(1.01413 -0.00702585 9.4495e-21)
(0.49133 -0.0760083 4.42258e-20)
(1.01582 0.0133345 0)
(1.05217 0.00335874 0)
(1.05833 0.00350786 0)
(1.09005 0.00210156 -4.66739e-21)
(1.01054 -0.251968 -4.70117e-20)
(1.01621 0.00313549 0)
(1.04981 0.00637386 5.01828e-22)
(1.04524 0.00394617 0)
(1.08619 0.32376 -3.85941e-21)
(1.02657 0.00968753 3.9053e-21)
(0.488852 0.0440723 -6.61081e-21)
(0.378958 -0.350916 0)
(1.02314 0.00593487 8.43545e-22)
(0.873476 0.0471188 3.64115e-20)
(0.813317 0.490496 -3.14575e-21)
(1.02652 0.0104948 8.89921e-21)
(1.0534 0.00158945 -2.54078e-21)
(1.05265 0.00109614 0)
(1.06064 0.00118246 8.00141e-23)
(1.11167 0.21771 0)
(1.04474 4.69748e-06 2.9597e-21)
(1.26455 -0.133816 0)
(0.956593 -0.0452109 -8.661e-21)
(0.959573 -0.0709737 0)
(1.05282 -0.000457954 0)
(1.01897 0.00618661 -1.05916e-20)
(1.01761 -0.00431036 4.63329e-21)
(1.0512 -0.000370647 1.06882e-21)
(1.07377 0.0336245 -8.74187e-22)
(0.920537 0.213579 -1.00125e-19)
(0.907406 -0.224494 0)
(0.643582 -0.289955 -4.77612e-20)
(1.05536 0.513569 0)
(0.935575 0.466363 6.75163e-21)
(1.03651 0.00101094 -8.68203e-21)
(1.0184 0.00572155 -6.61202e-21)
(0.770644 0.313306 0)
(1.03725 -0.0994204 7.8866e-21)
(1.37946 0.0938421 4.28643e-20)
(1.00792 0.0502509 2.27591e-21)
(1.00203 -0.251753 2.25895e-20)
(0.7076 0.207745 4.02794e-21)
(0.84166 0.345857 -1.01014e-20)
(0.758745 0.0628654 3.81331e-21)
(0.924074 0.116967 0)
(1.05238 0.00240337 -2.37235e-21)
(1.04839 0.000337055 3.80192e-21)
(0.979651 0.00886456 0)
(1.02932 0.00418196 8.00531e-21)
(1.05194 -0.642495 -6.21316e-20)
(0.789011 0.356713 7.79449e-21)
(1.05688 0.00584558 0)
(1.01879 0.00860862 -3.93648e-21)
(0.998313 -0.0692358 -1.13062e-21)
(1.11489 0.090101 1.8394e-21)
(0.691139 0.627084 -6.42029e-20)
(1.09153 0.108766 -4.41571e-24)
(0.377848 -0.815968 6.667e-20)
(1.02265 0.00069358 2.07678e-21)
(0.870867 -0.569812 0)
(1.02248 0.00332137 -8.12542e-21)
(1.0192 0.00895241 0)
(1.01523 -0.0172672 4.08851e-21)
(1.06114 0.00366581 -3.82364e-22)
(1.03775 0.00211574 -6.05358e-21)
(0.949349 0.491151 -1.42922e-20)
(1.02956 0.00522241 0)
(1.17283 -0.0925349 3.20194e-20)
(0.996326 0.0908091 0)
(1.02273 0.000836425 -3.53351e-21)
(1.02557 0.0111872 8.31299e-21)
(1.05497 0.00766907 -7.824e-24)
(0.997424 0.0392585 -9.12345e-21)
(0.827937 -0.449724 1.64257e-21)
(0.95971 0.0665168 3.77993e-21)
(0.873147 -0.469801 2.35773e-20)
(1.01458 0.00642599 0)
(1.14058 -0.165335 -2.0474e-22)
(0.732582 0.0955265 2.1312e-20)
(1.16148 -0.279513 0)
(1.04219 0.00409129 0)
(1.01899 0.00372028 0)
(1.06058 8.20777e-05 0)
(1.31454 -0.0617053 7.24787e-21)
(1.0095 0.00678619 5.28719e-23)
(1.04305 0.000221772 2.74198e-21)
(1.05461 0.0044375 -9.613e-22)
(1.05695 0.00576943 -4.49372e-22)
(1.06073 0.00110187 -6.464e-23)
(0.839543 0.511418 -4.171e-20)
(1.11164 -0.0187982 0)
(0.966075 0.0726444 -3.56623e-21)
(1.02663 0.185999 -8.95061e-21)
(1.03362 0.00336444 0)
(0.952256 -0.0394629 8.84413e-21)
(1.07181 0.0542549 0)
(0.978548 0.538435 2.15608e-20)
(1.04506 0.00373262 0)
(1.05458 0.00437631 0)
(1.02439 0.00568103 -4.80071e-21)
(1.0539 0.00350122 -1.09615e-23)
(1.03758 0.000802024 -4.90517e-21)
(1.07114 -0.769438 0)
(1.00983 0.0517908 -4.55902e-21)
(1.00393 0.51829 2.39171e-21)
(1.05385 0.00392951 3.89026e-22)
(1.03836 0.0528518 1.29143e-20)
(1.03343 0.00350131 -5.72844e-21)
(1.03393 0.000749591 0)
(1.07058 0.040323 -3.32823e-21)
(1.06017 0.00111656 1.27936e-22)
(1.05393 0.00367197 1.3939e-21)
(1.16282 -0.108304 -4.23229e-20)
(1.15395 -0.64869 -1.04459e-19)
(0.654056 0.0510283 3.37823e-22)
(-0.392465 0.737343 7.22376e-19)
(1.0022 -0.0670487 1.1495e-21)
(1.01751 0.00540061 3.02999e-21)
(1.04498 0.0036118 -4.38413e-21)
(0.996026 0.550433 -9.2831e-20)
(1.06072 0.00113758 0)
(0.606524 0.384983 0)
(0.7707 0.314549 9.82462e-21)
(0.749825 -0.934713 -6.43508e-20)
(1.05238 0.00227632 0)
(0.869214 0.969426 0)
(0.292914 0.104585 0)
(1.01949 0.00906476 -1.07552e-20)
(1.04348 0.0456841 -9.17978e-21)
(1.34402 -0.020167 -6.26635e-21)
(0.31545 0.935992 -7.9708e-20)
(1.02082 0.000165629 0)
(0.992025 -0.0882627 -1.33662e-21)
(1.01897 0.00102559 1.17659e-20)
(0.845082 -0.468026 -2.47116e-20)
(0.673873 0.235563 0)
(1.05651 0.00599745 -2.80094e-22)
(0.862042 -0.470398 2.68113e-20)
(1.01685 -0.0037137 -2.16574e-21)
(1.04132 0.000514065 -4.65046e-21)
(1.03878 0.00162849 -6.17792e-21)
(1.03086 0.000928124 0)
(1.02874 -0.000980396 -1.93892e-21)
(1.06011 0.000945435 2.66655e-22)
(0.92052 0.60384 6.66171e-21)
(0.926209 0.546965 0)
(1.05718 0.00307091 3.90814e-22)
(1.0229 0.0035966 -9.51176e-21)
(1.0244 0.0055416 -2.42447e-21)
(1.00866 0.037634 -6.68431e-21)
(1.03504 0.00379385 5.57438e-21)
(-0.62487 -0.226397 6.66604e-20)
(0.65547 -0.24818 0)
(1.14689 -0.210522 -1.64894e-20)
(1.06022 0.00133829 -1.37302e-22)
(1.0612 0.00195423 1.48045e-22)
(1.06088 0.0012374 4.02673e-23)
(-0.789321 0.806954 1.05481e-19)
(0.813751 -0.445246 0)
(1.30868 -0.331361 -1.54858e-19)
(1.44424 -0.11563 1.53843e-20)
(1.05343 0.0038219 1.44701e-21)
(0.801536 -0.176077 1.45615e-20)
(0.984946 -0.147532 5.58875e-20)
(0.71873 -0.575667 -4.36912e-20)
(1.06027 0.00153358 0)
(1.05488 0.00471352 0)
(0.565799 -0.0242149 -5.60081e-21)
(1.01077 0.0376534 6.60604e-21)
(1.06586 0.0284335 -2.37745e-19)
(1.02994 0.00558553 7.74909e-21)
(1.04628 -5.69328e-05 -3.40577e-21)
(1.05041 0.000364949 0)
(0.962133 -0.111345 -9.90822e-22)
(1.00019 -0.0996248 3.05107e-21)
(1.05843 0.00373444 0)
(1.04381 -0.00213436 2.33816e-21)
(1.03714 0.041973 -3.28779e-22)
(1.03735 0.000508262 2.30096e-21)
(0.887845 0.182077 0)
(0.740903 -0.0180887 0)
(0.738263 0.0209103 0)
(1.15881 -0.136496 4.8176e-20)
(0.71036 0.175732 4.43179e-21)
(1.01733 0.0058642 0)
(1.18343 -0.0709158 6.61711e-20)
(0.8996 0.00916357 1.50243e-20)
(1.05231 -0.000290766 -7.7136e-22)
(1.03358 0.000546655 -4.66547e-21)
(0.688028 0.230493 0)
(0.74239 0.190117 3.15891e-21)
(1.18044 0.0374393 3.52081e-19)
(0.580025 -0.613164 0)
(1.04259 0.0150955 0)
(1.05485 0.00475188 9.63989e-22)
(1.10577 0.000201093 0)
(1.00875 0.00640339 3.71673e-21)
(0.507693 0.919656 3.3395e-20)
(1.06521 0.287844 0)
(1.05277 0.000926949 -2.6258e-21)
(1.05236 -0.00038991 4.01358e-22)
(0.637003 -0.409749 7.61816e-21)
(1.02231 0.00943879 -3.83399e-21)
(1.06426 0.274947 -7.53871e-21)
(1.02749 -0.00183603 1.7228e-21)
(0.745437 -0.619787 -5.98566e-21)
(1.25455 -0.0643868 -5.12758e-19)