/*--------------------------------*- C++ -*----------------------------------*\
| =========                 |                                                 |
| \\      /  F ield         | OpenFOAM: The Open Source CFD Toolbox           |
|  \\    /   O peration     | Version:  v2012                                 |
|   \\  /    A nd           | Website:  www.openfoam.com                      |
|    \\/     M anipulation  |                                                 |
\*---------------------------------------------------------------------------*/
FoamFile
{
    version     2.0;
    format      ascii;
    class       volVectorField;
    location    "250";
    object      U_0;
}
// * * * * * * * * * * * * * * * * * * * * * * * * * * * * * * * * * * * * * //

dimensions      [0 1 -1 0 0 0 0];


internalField   nonuniform List<vector> 
18649
(
(0.878675 0.269522 9.87414e-21)
(1.02136 0.0036006 9.71598e-21)
(0.891049 0.327963 -1.20663e-20)
(1.00661 -0.211241 3.75949e-21)
(1.03814 0.000429625 7.98355e-21)
(0.843931 0.0926556 0)
(1.01924 0.0059821 0)
(1.05917 -0.000143588 -2.37334e-22)
(0.750045 0.0913483 -7.15527e-21)
(0.242302 0.187602 8.2495e-20)
(1.02375 0.00507713 1.92698e-20)
(1.02422 0.00424202 -4.29254e-21)
(1.03736 0.000570065 -7.05572e-21)
(1.01714 0.0117577 -1.00706e-20)
(0.495112 -0.766702 1.27494e-20)
(1.03908 0.000364211 0)
(1.02711 -0.00751928 6.80534e-21)
(1.01924 0.00587614 0)
(0.521672 0.248732 -1.79176e-20)
(1.02137 0.00345079 0)
(1.02435 0.00437489 8.01589e-21)
(-0.237486 0.642473 -1.60147e-19)
(1.03957 0.0724397 -2.1613e-21)
(1.02328 -0.178488 0)
(0.217632 0.150007 -1.52737e-19)
(1.04303 0.0660337 2.27097e-21)
(0.7501 0.221977 -4.97031e-22)
(0.739488 0.314899 -5.05383e-21)
(1.02984 0.00227456 1.53102e-20)
(1.00798 0.424376 9.49844e-20)
(1.00867 0.00560318 0)
(1.01027 0.00497014 0)
(1.02621 -0.00634281 1.94247e-22)
(1.00672 -0.0518174 3.80915e-24)
(1.0232 0.000485109 -9.16204e-21)
(0.994719 0.0718554 0)
(0.524131 -0.660135 4.17652e-20)
(0.986774 -0.0822125 1.20266e-20)
(1.02368 0.00491149 -1.90524e-20)
(1.0172 0.0113473 2.01868e-21)
(0.790758 -0.352459 8.6223e-21)
(1.01661 0.00503811 -4.47283e-21)
(1.19085 -0.295353 4.50455e-20)
(0.727527 0.300089 -4.55997e-21)
(0.770595 -0.0750945 2.89023e-21)
(-0.282256 1.0496 -2.86166e-19)
(1.0969 0.107099 -5.55301e-22)
(1.0455 -0.0465717 0)
(1.0179 0.00526979 5.46637e-21)
(0.899341 -0.168769 1.48581e-22)
(1.00558 -0.208012 0)
(1.0125 0.059687 3.12972e-21)
(1.03789 0.00801708 7.925e-21)
(0.780685 -0.327644 4.46093e-21)
(1.05381 0.00391674 1.28845e-21)
(0.986937 -0.372663 0)
(0.545465 0.379245 0)
(1.01769 0.00525813 -5.39487e-21)
(1.05939 0.00117329 -1.22983e-24)
(0.989791 0.534972 -2.52344e-20)
(1.04597 0.0050301 0)
(1.25051 -0.0574177 -2.5152e-20)
(1.01682 0.00620997 0)
(0.545189 0.214182 2.19153e-20)
(0.961009 0.447341 -3.9975e-21)
(0.892866 -0.0940642 -2.23966e-21)
(1.04474 0.513551 2.39271e-20)
(1.01558 -0.00941857 0)
(0.743277 -0.07017 -1.75932e-21)
(-0.283063 0.644248 -2.83702e-19)
(0.736321 0.21582 0)
(1.01149 -0.0490999 4.7286e-22)
(1.01949 0.0056732 0)
(1.017 0.00625786 0)
(1.0038 0.0380992 0)
(0.70822 0.299027 2.30146e-21)
(0.815977 0.26694 -3.68763e-21)
(1.02275 0.000450427 1.06433e-20)
(0.645797 0.825026 -3.25146e-19)
(1.0843 -0.00510849 -1.1403e-25)
(1.00919 0.0382959 0)
(0.974064 -0.0938721 -1.43748e-20)
(0.79206 -0.115665 0)
(0.528893 0.187622 1.98353e-20)
(1.05542 -0.000409665 1.65752e-22)
(1.0119 -0.352692 3.71619e-20)
(1.03341 0.0453537 1.04522e-20)
(1.06531 0.0320384 -1.09658e-20)
(1.0888 -0.00635528 8.06534e-23)
(0.84331 -0.477024 0)
(0.524238 -0.750628 -1.23833e-20)
(1.17988 -0.228331 0)
(1.01531 -0.180558 -5.06969e-21)
(1.00785 0.268668 3.56606e-20)
(1.03493 0.0158515 -2.84868e-21)
(1.03808 0.00778533 -7.61379e-22)
(0.988972 0.0753165 -2.64647e-22)
(1.01586 -0.140852 0)
(0.902536 -0.0705686 -4.01203e-22)
(1.04622 0.00492263 -2.21884e-21)
(0.889477 -0.192275 4.19103e-20)
(1.03966 0.000278773 -3.93881e-21)
(0.964508 -0.114392 0)
(1.05895 -0.000233093 2.72331e-22)
(0.730975 0.120063 -2.17169e-21)
(0.725946 0.141078 1.91429e-21)
(0.796671 -0.0588037 -1.93673e-20)
(0.849056 -0.5143 4.57954e-20)
(0.971573 -0.35506 -5.68938e-21)
(1.01952 0.00554372 0)
(1.02294 0.000723787 2.60801e-23)
(1.03874 -0.0584601 5.05551e-22)
(1.07759 0.0510329 1.05833e-20)
(1.03181 0.00379962 1.38998e-20)
(1.03544 0.0158661 0)
(1.02505 -0.152758 -5.52986e-21)
(1.01413 -0.00871342 2.58926e-21)
(1.03976 -0.061015 2.72262e-21)
(1.03572 0.000684469 8.28512e-21)
(1.03737 0.0412315 2.96885e-21)
(1.04711 0.00645733 2.20574e-21)
(1.04103 -0.138843 4.79279e-21)
(0.934968 -0.436908 2.28312e-20)
(1.03164 0.00358639 -8.67448e-21)
(1.05579 -0.000439832 2.36445e-22)
(1.01828 0.003032 0)
(0.769486 0.140412 0)
(1.01965 0.0163825 0)
(1.03081 0.00293347 1.14807e-23)
(1.05801 0.00504105 -1.3269e-22)
(1.01935 0.00886403 1.60753e-20)
(0.550469 0.202154 -2.66645e-20)
(1.28337 -0.0994988 0)
(1.31159 -0.11228 -9.14492e-20)
(1.02387 0.000533485 -1.7223e-20)
(-0.573902 0.929035 -1.16695e-19)
(0.744203 0.275143 4.97977e-21)
(0.850784 -0.505162 -3.34942e-20)
(0.751708 0.246356 -4.67372e-21)
(0.704 -0.0700574 -5.99418e-22)
(1.0482 -0.036967 5.50221e-21)
(1.03286 0.000472466 4.34246e-21)
(1.06082 0.00129517 -2.20929e-23)
(1.0171 0.00780184 6.45532e-21)
(0.706531 0.201521 -1.08067e-21)
(1.04853 0.00571295 -2.06024e-21)
(1.01993 0.0088848 -4.10969e-21)
(1.31506 -0.0897861 -6.3451e-20)
(0.715026 0.165845 3.41034e-21)
(1.01889 0.00950967 4.79591e-23)
(0.846616 0.30212 3.33528e-21)
(0.654638 -0.0578443 -1.47445e-21)
(1.03202 0.000507589 1.36349e-22)
(1.01933 0.00519821 1.27363e-20)
(1.04196 -0.114524 0)
(1.05171 -0.166899 9.58847e-22)
(1.01883 0.00959348 4.50505e-21)
(1.03699 0.00341591 5.66347e-21)
(1.03399 0.00358597 -4.56683e-21)
(1.06141 0.168654 -1.57214e-21)
(0.86483 -0.0667576 0)
(0.839624 0.159431 -2.90032e-20)
(1.01875 0.00939606 -1.54496e-20)
(0.755075 0.179676 4.0095e-22)
(0.713099 -0.370624 -6.90971e-21)
(1.03444 0.00095947 4.4727e-21)
(1.10316 0.0373195 -3.94386e-22)
(0.712166 0.140933 -3.00269e-21)
(1.04592 2.52081e-05 -1.49126e-21)
(1.04704 0.00482857 0)
(1.03086 0.0489995 2.95287e-22)
(1.02971 0.00098597 -8.14128e-21)
(1.03508 0.00582754 2.97209e-21)
(1.03678 -0.000622269 -6.08561e-21)
(0.902825 -0.143774 -1.59564e-22)
(0.940747 -0.0809892 1.12109e-21)
(0.715981 0.194308 3.8655e-22)
(1.01888 0.00965755 0)
(0.71145 0.135207 0)
(0.866205 -0.0195818 -2.63726e-20)
(1.0256 0.00486155 0)
(0.697736 -0.0587826 1.72997e-21)
(1.05697 0.00311404 0)
(1.03709 0.00407802 -5.96017e-21)
(1.02039 0.00210512 6.70616e-21)
(1.0568 0.00451343 0)
(1.05371 0.00383951 9.71743e-24)
(1.04453 -0.125586 -4.9977e-22)
(1.04715 0.00578178 1.02118e-21)
(1.06141 0.00272351 0)
(1.00744 -0.00183166 0)
(0.831757 0.332778 8.82144e-21)
(0.651002 -0.0370835 -1.37892e-20)
(1.04031 0.0566763 -9.34769e-21)
(1.1228 -0.0156423 0)
(1.03507 0.00577697 -2.47038e-21)
(1.05609 0.00172518 2.69229e-23)
(1.05618 0.00247296 2.88555e-21)
(0.712555 -0.358808 3.96325e-21)
(1.05087 -0.0422486 2.95347e-22)
(1.06123 0.00280831 0)
(1.03822 0.000853009 1.87297e-21)
(1.0763 0.221761 0)
(1.01929 0.00533865 2.62934e-21)
(1.01602 0.00891925 -1.17955e-20)
(1.02955 0.000872648 1.17757e-20)
(1.31486 -0.127299 6.56695e-20)
(0.906931 0.542865 0)
(1.02423 0.00104954 -1.97242e-21)
(1.03739 0.00682174 0)
(1.047 0.00526356 -5.32358e-22)
(1.01649 0.0267872 0)
(1.05183 0.00288239 -7.97674e-22)
(0.956887 0.0207557 3.27242e-23)
(1.41597 -0.106529 -2.65025e-19)
(0.946358 0.02079 -2.33724e-20)
(1.01867 0.000675956 -1.52733e-20)
(1.00654 1.38601e-05 -2.26699e-21)
(1.03644 0.00365787 1.05685e-20)
(1.1003 0.0958706 0)
(0.942162 0.145312 0)
(1.06628 0.00275606 -1.17309e-21)
(-0.523891 0.982225 0)
(1.0473 0.240973 0)
(0.841615 0.0915184 1.6521e-20)
(1.08517 0.0286758 3.23581e-22)
(0.705763 -0.0590355 2.06673e-20)
(1.23244 -0.591098 1.52412e-19)
(1.0193 0.000161533 0)
(0.943543 0.183358 -2.7863e-21)
(1.06124 0.00239026 -6.30196e-22)
(1.00529 0.026262 4.88899e-21)
(1.0451 -0.0484921 0)
(1.02381 0.00369803 2.66417e-22)
(0.69424 0.993335 0)
(1.02584 0.00491342 -7.90876e-21)
(1.01163 0.00553749 -6.3381e-21)
(1.01997 0.00320581 1.29617e-20)
(1.05182 0.00354438 8.06555e-22)
(1.06066 2.94995e-05 -1.1873e-23)
(1.12202 0.0101478 -2.00134e-21)
(0.985903 0.498425 0)
(1.38423 0.159817 0)
(0.637439 0.78627 0)
(0.856695 0.0171468 0)
(0.990038 0.0413966 -1.02346e-20)
(1.04368 0.0556517 2.72019e-21)
(1.0236 0.000598712 1.14794e-20)
(-0.450638 0.185807 -2.42824e-19)
(1.04136 -0.129052 -9.55281e-21)
(0.983853 0.0461096 1.12105e-20)
(1.24871 -0.565593 -4.7336e-20)
(1.01873 0.0119535 3.90696e-21)
(0.999702 0.0304853 -5.211e-21)
(1.01726 -0.033266 -3.13022e-22)
(1.03436 0.00084028 1.24762e-21)
(1.03744 0.00706937 0)
(1.04666 0.004901 -2.15761e-21)
(0.994604 0.199448 6.61674e-21)
(1.04643 -4.51142e-05 0)
(0.517678 -0.677288 -7.18611e-20)
(1.05356 0.00228136 -6.38166e-22)
(1.05536 0.00484685 0)
(1.09749 0.00872062 8.20893e-21)
(1.0523 0.00262073 7.6442e-22)
(0.70348 -0.0455199 -6.03583e-21)
(1.04932 -0.000464321 0)
(1.09679 0.0574936 5.34497e-22)
(1.04168 0.000328438 0)
(1.0492 0.00837772 1.03876e-21)
(0.773552 0.404773 8.74784e-22)
(1.30226 -0.428942 1.30616e-19)
(0.963109 0.0168365 1.73586e-22)
(1.04929 0.00779691 0)
(0.512855 -0.717976 1.37437e-20)
(1.04846 -0.143272 -1.72246e-20)
(1.01826 0.0140613 -4.80214e-21)
(1.03527 -0.0127378 5.47185e-22)
(1.11548 0.00578559 0)
(1.2515 -0.0694382 2.44889e-20)
(1.0053 -0.402873 2.49583e-20)
(1.01505 0.0027503 -9.40703e-21)
(0.8654 0.546493 0)
(1.01881 0.000538496 5.64744e-22)
(1.05817 0.00476159 -8.46165e-22)
(1.01242 -0.351134 -2.69633e-20)
(1.0164 0.130334 0)
(1.02439 0.00075927 0)
(0.745517 0.300558 0)
(1.05709 -0.000432697 -4.37187e-22)
(1.02518 0.00467485 3.47136e-21)
(0.847812 0.0205721 2.73505e-20)
(1.01998 0.00909287 6.85244e-21)
(1.01897 0.0101396 0)
(0.837192 0.233061 3.93634e-20)
(-0.432916 0.0940347 0)
(0.540481 0.302395 1.58542e-20)
(0.228844 0.237759 -5.29329e-19)
(1.04965 -0.0332281 0)
(1.03614 0.00295016 -6.18687e-21)
(1.03689 0.0153651 0)
(0.758214 0.162944 4.34357e-21)
(1.04686 0.22251 0)
(0.797782 0.451831 2.54748e-20)
(1.16281 -0.368282 -4.23243e-20)
(1.07452 0.0193552 0)
(1.10561 0.069445 0)
(1.14835 -0.152519 -4.46407e-20)
(1.05111 -0.0402214 4.37737e-21)
(0.904818 -0.188854 4.08718e-21)
(1.02495 0.00461144 3.61173e-21)
(0.933758 -0.117217 -2.00457e-21)
(1.05923 0.000490629 -3.25072e-24)
(1.05444 0.00386075 2.38336e-21)
(1.01636 0.0139399 -1.34522e-20)
(1.01494 0.036393 0)
(1.00356 -0.00180722 7.24955e-22)
(0.788826 -0.381489 4.0642e-20)
(0.82297 0.202055 2.09121e-20)
(1.05434 0.00380083 -3.08503e-21)
(0.345627 0.932653 1.48615e-19)
(1.04675 0.00520043 3.1162e-21)
(1.04694 0.00588696 -1.09554e-21)
(1.02239 0.000638716 9.11813e-21)
(0.27402 0.280443 6.76953e-19)
(1.0118 -0.0126072 -5.85277e-23)
(0.856068 0.235302 -5.07987e-20)
(1.10852 0.237073 -1.46974e-21)
(1.03736 0.000688573 8.64447e-21)
(1.01787 0.00480923 8.62306e-21)
(1.01652 0.00991982 5.39655e-21)
(0.720957 0.249674 4.31441e-21)
(1.36908 -0.021156 0)
(1.04267 0.000288103 -2.85592e-21)
(0.959934 -0.448534 -2.31653e-20)
(1.0255 0.00541772 0)
(0.920241 -0.115581 2.51929e-21)
(1.06255 0.0142024 3.32856e-25)
(0.967957 -0.115522 5.13162e-22)
(1.32323 -0.100045 0)
(0.952991 -0.0168624 5.40522e-21)
(1.06372 0.507895 0)
(0.771207 -0.397959 -3.82437e-20)
(0.669001 0.198869 2.483e-21)
(0.227566 0.0129805 -1.30365e-20)
(1.01772 -0.224331 1.02876e-20)
(1.1009 -0.0976731 3.28541e-21)
(1.02389 0.00473517 -5.66539e-21)
(0.293103 0.162969 -3.21602e-19)
(0.541583 0.299444 0)
(1.01175 0.00601676 9.8913e-21)
(1.4321 -0.0670248 -3.06156e-20)
(1.05342 0.00208267 0)
(1.00197 0.0414409 1.50511e-20)
(1.01541 -0.030843 -6.19256e-22)
(1.00864 -0.109717 7.15832e-21)
(1.01176 -0.011616 0)
(0.833391 0.0741302 0)
(1.02615 0.0480211 4.84476e-21)
(1.0536 0.00370354 1.48681e-21)
(1.06593 0.0436429 1.19861e-20)
(0.862897 -0.466907 2.34422e-20)
(1.11477 0.114973 7.65938e-22)
(1.04073 0.00338861 -5.62393e-21)
(0.892971 -0.0100076 3.27205e-21)
(0.977768 0.53615 -1.68506e-20)
(1.03745 0.0155037 -9.03233e-21)
(1.05502 -0.000382937 -1.6304e-22)
(1.04239 0.464216 6.56332e-22)
(1.05186 0.00309214 0)
(1.04287 -0.103216 9.20492e-21)
(0.891372 0.984601 -1.14829e-19)
(1.06558 0.00467421 1.13275e-21)
(1.03116 0.000783396 -8.99631e-25)
(0.529458 -0.70114 1.54193e-20)
(1.01952 0.00937011 0)
(1.45329 -0.0180944 0)
(1.05476 0.44747 -5.27056e-20)
(0.830641 -0.00102909 0)
(1.34653 -0.0308902 -2.28022e-20)
(1.34332 -0.013646 7.2521e-20)
(1.0544 0.00366554 1.55501e-21)
(1.00434 0.0385312 -1.15242e-20)
(1.28491 -0.431263 -1.56669e-19)
(0.892999 -0.0263399 2.72407e-20)
(1.01396 0.0254322 1.06292e-20)
(0.940017 -0.00863111 0)
(1.03454 0.00529871 -6.02718e-21)
(1.01691 0.0101266 0)
(1.02224 0.00074322 -2.3529e-20)
(1.37288 -0.0346757 0)
(1.00224 0.0198527 0)
(1.05979 0.0105941 -3.26344e-25)
(1.01209 0.0248638 -1.5421e-22)
(0.752055 0.22754 -1.33815e-21)
(0.955326 -0.115863 -2.42517e-21)
(1.03669 0.0412041 6.4914e-21)
(1.06095 0.00388179 6.5442e-22)
(1.04405 0.00051608 -1.22922e-21)
(1.04719 0.00642787 -1.10131e-22)
(1.15039 -0.387763 0)
(0.571698 0.392082 0)
(1.02448 0.0025008 0)
(0.742976 -0.046309 0)
(1.13928 -0.022468 -3.50027e-22)
(1.04844 -0.000446466 0)
(1.03445 0.00528853 0)
(0.914142 -0.00383085 0)
(1.05437 0.00366744 0)
(1.10252 -0.0921563 1.3789e-20)
(1.02963 -3.18752e-06 4.45542e-21)
(0.753538 -0.057085 0)
(1.17523 -0.238094 3.28408e-20)
(1.01891 0.00881348 0)
(1.00328 -0.426759 -5.43457e-20)
(1.02575 -0.0265095 5.66121e-23)
(0.705502 0.278871 4.23383e-21)
(1.07612 0.0200633 2.67602e-20)
(1.01594 0.0124331 1.465e-20)
(1.01713 0.00409496 7.94237e-21)
(1.00233 -0.0601091 3.41091e-22)
(1.05665 0.0102934 -2.92465e-22)
(0.90678 -0.167312 0)
(0.673619 0.0741919 -4.88458e-20)
(1.03173 0.148885 4.56709e-21)
(1.06071 -1.5229e-05 0)
(1.14584 0.145188 -8.32411e-22)
(1.07596 0.115641 -8.16002e-22)
(1.03369 -0.0117811 1.14829e-21)
(0.824196 -0.497457 0)
(0.253408 -0.108055 1.09527e-19)
(1.04869 0.00608936 5.33842e-22)
(1.05488 0.0101538 1.00054e-20)
(1.05728 0.0162512 0)
(0.401384 -1.16385 0)
(1.02352 0.00534703 1.16102e-20)
(1.02511 0.00981173 9.67001e-21)
(0.791783 -0.422296 -1.13777e-20)
(1.02387 0.00480087 0)
(1.04154 0.0340298 6.57897e-21)
(1.04902 0.00574834 -4.8046e-22)
(1.06087 0.000882957 -6.72333e-23)
(1.02011 0.00936175 7.82241e-21)
(0.993047 -0.110131 -3.74006e-21)
(1.01903 0.00907513 -3.32506e-21)
(1.01949 0.0126968 0)
(1.0162 0.012738 0)
(1.14977 -0.257604 -5.85242e-20)
(0.858019 0.15835 0)
(1.01197 0.038125 1.84702e-20)
(1.01868 0.00929875 1.17752e-21)
(0.794371 0.152734 0)
(1.01865 0.00930399 4.49883e-21)
(0.917695 -0.0788939 -1.45151e-21)
(1.00621 -0.0578624 -1.2001e-21)
(1.0331 0.00028984 -5.47753e-21)
(1.02394 0.00405797 4.77678e-21)
(1.04559 0.00478984 -1.56396e-23)
(0.678091 -0.379303 1.05203e-20)
(1.02622 -0.379259 -4.4495e-20)
(1.0317 0.00561257 1.52646e-23)
(0.945494 -0.797015 -6.43402e-20)
(1.02356 0.00527978 -1.65483e-20)
(0.731751 0.18827 0)
(0.49194 0.75662 -4.37086e-20)
(1.04122 -0.000719771 -3.40239e-21)
(1.06094 0.000884437 9.4885e-23)
(1.058 2.98254e-06 3.41096e-23)
(1.02067 0.016291 0)
(1.01776 0.0237208 0)
(0.971614 0.060946 1.3278e-22)
(1.05514 0.00455519 -6.77004e-22)
(0.957037 0.0239984 0)
(1.03971 -0.156668 2.43546e-21)
(0.786157 0.0597966 1.94378e-20)
(1.15549 -0.137022 -4.10492e-20)
(1.01994 0.00625239 0)
(1.01895 0.0143927 0)
(0.955635 -0.0574994 1.11328e-21)
(0.661524 -0.402873 6.68865e-21)
(0.990476 -0.0790903 2.15857e-22)
(0.621334 0.866941 2.52961e-19)
(1.03913 0.0393162 0)
(1.04643 0.00496873 0)
(1.05523 0.00808221 0)
(0.971365 0.219099 1.1094e-20)
(1.02515 0.00685376 -4.6372e-21)
(0.994597 0.0734882 0)
(0.0041411 0.866825 0)
(1.02529 0.000559441 5.5845e-21)
(0.974201 0.053569 -7.51064e-21)
(0.790317 -0.422854 1.10526e-20)
(1.05869 -0.000975017 -1.14264e-22)
(1.2475 0.28329 0)
(1.03401 0.00334847 4.78793e-21)
(1.27403 0.316502 9.33798e-21)
(1.36804 -0.0329637 -1.04564e-20)
(1.03266 0.000787392 5.1196e-21)
(1.05355 0.00187384 -1.56235e-21)
(1.04023 0.0142244 0)
(0.77868 0.0700104 1.82751e-20)
(1.01581 0.00414268 7.23165e-21)
(1.0167 0.0152294 -4.60934e-21)
(1.01064 -0.00914726 3.27386e-21)
(1.01924 0.0545669 0)
(0.89874 -0.0541854 2.42752e-21)
(0.866808 -0.46146 -2.44847e-20)
(1.06133 0.00237311 2.96356e-22)
(1.03463 0.00546324 0)
(0.516072 0.130692 -1.75758e-20)
(1.04875 0.0334017 4.09409e-21)
(1.02067 0.0087146 6.92595e-21)
(1.04716 -0.000411053 -6.49845e-22)
(1.16396 -0.316632 -3.37191e-20)
(1.29092 -0.105793 -2.7425e-20)
(1.07605 0.0499418 -5.96992e-21)
(0.728095 0.304856 -2.58636e-21)
(1.02444 0.0046021 0)
(0.79837 -0.173697 -3.70138e-21)
(1.03479 0.00549454 -3.09189e-21)
(1.03304 0.00339101 5.6397e-21)
(1.05795 0.0248989 0)
(1.01673 0.00114299 -1.49345e-20)
(-0.520166 1.01442 -3.06652e-19)
(1.03324 0.00321024 -2.9836e-23)
(0.769341 0.204691 -6.6346e-21)
(1.51367 -0.228054 1.41306e-19)
(0.856628 -0.47986 0)
(0.718504 0.208851 3.70045e-21)
(1.09111 -0.0185701 0)
(1.04402 0.00085424 0)
(1.40908 -0.151531 -1.31225e-19)
(1.0492 0.00615073 4.97118e-22)
(1.04409 0.000810948 -1.79253e-21)
(0.970245 -0.340761 4.92703e-20)
(1.01772 0.0142602 -1.50148e-20)
(1.06082 0.0013324 3.82099e-23)
(0.946312 0.00850043 0)
(0.381551 -0.614852 0)
(1.01669 0.00320482 9.22993e-21)
(1.41667 -0.172221 1.6769e-20)
(1.0056 0.0112304 0)
(0.267489 0.093286 3.06944e-19)
(1.02494 0.00624649 0)
(1.0459 -0.167563 1.65597e-20)
(0.803887 0.554822 6.52234e-22)
(0.716857 0.293507 -2.24992e-20)
(1.00988 -0.00733717 3.28789e-21)
(1.1442 0.0917263 5.9624e-21)
(1.02106 0.000170593 0)
(1.01157 0.00136074 0)
(0.873204 0.20241 -8.07481e-21)
(1.02148 0.0513326 -4.6413e-21)
(0.800486 -0.15339 4.42742e-21)
(1.02081 0.00869769 8.40645e-21)
(0.925405 0.434371 -2.28576e-21)
(1.13486 -0.0184053 0)
(0.993827 0.128605 5.64203e-22)
(1.02472 0.0061331 0)
(1.02193 0.014642 9.43732e-21)
(0.459225 0.72716 8.5322e-20)
(1.01815 0.24308 -5.21955e-21)
(1.12818 -0.341907 0)
(0.956671 -0.0515245 -8.1966e-21)
(1.04675 0.00558189 3.19832e-21)
(1.04123 0.000588954 -1.63896e-21)
(0.362387 -1.12392 0)
(0.911664 -0.1965 -6.26563e-21)
(0.944705 0.0239744 -2.33478e-22)
(1.12765 -0.0615541 -1.35135e-20)
(0.976841 0.0140377 0)
(1.03702 -0.175578 0)
(1.05974 -0.00207696 -1.84287e-22)
(1.03624 0.00726215 4.78782e-21)
(0.309616 -0.24747 6.28329e-20)
(1.06023 0.00092479 -2.11401e-22)
(0.729483 0.318186 2.45299e-21)
(1.01946 0.0240311 5.10241e-21)
(0.256519 -0.146957 -5.37672e-20)
(1.01709 0.00606797 0)
(1.03884 0.0164456 0)
(1.02595 0.00478982 -3.91316e-21)
(0.955031 -0.86297 4.80458e-20)
(1.0562 0.00883326 -1.1845e-21)
(1.05261 0.00105111 0)
(1.01749 0.00376868 0)
(1.01811 0.00497943 -1.18007e-20)
(1.1382 -0.418448 0)
(-0.110996 0.993796 -8.17312e-20)
(1.02461 0.00467382 4.67154e-21)
(1.02896 0.00587617 9.65001e-21)
(1.04201 0.0153851 4.22652e-21)
(1.3963 -0.174304 5.525e-20)
(1.05681 0.00750809 0)
(0.983984 0.0299036 3.1418e-21)
(1.02723 0.000528056 -5.18401e-21)
(1.01638 0.00329553 0)
(1.1588 -0.438521 4.97984e-20)
(1.03943 0.00027014 0)
(0.734175 -0.0889574 4.12491e-21)
(1.05428 0.00446369 -9.92767e-22)
(0.857355 -0.634626 0)
(1.0452 0.0041434 1.4608e-21)
(1.0584 0.00383395 3.12118e-22)
(1.03456 0.00397339 5.5036e-21)
(1.0255 0.305709 -2.4527e-20)
(1.04784 -0.000492563 1.85533e-23)
(0.89995 -0.106655 -4.05553e-21)
(1.01682 0.00329693 4.85433e-21)
(0.709427 0.191678 -2.06281e-21)
(1.01919 0.00892869 -3.66717e-21)
(0.0373469 0.907084 -2.10119e-19)
(1.05523 0.00892548 1.19555e-21)
(1.02551 0.00501355 4.02203e-21)
(1.12597 -0.308199 -2.79186e-20)
(1.02459 0.0113964 -1.59178e-20)
(1.03638 0.00723109 0)
(1.04212 0.00059375 0)
(1.15904 -0.345093 -9.3063e-21)
(0.812276 0.0508828 -1.02078e-20)
(1.03285 0.00305583 -2.97101e-21)
(1.07784 0.0419092 -4.54133e-22)
(0.726405 -0.210795 0)
(1.02091 0.0144074 0)
(1.10971 0.0839776 0)
(1.0125 -0.0468503 1.31804e-22)
(0.881109 0.109812 -1.29324e-20)
(-0.458812 1.02525 6.70925e-19)
(0.864246 -0.470615 -2.33487e-20)
(0.386027 -0.637939 2.18792e-22)
(1.01754 0.00553661 -7.92764e-21)
(0.861044 0.0499147 8.14102e-22)
(0.671946 0.4629 3.73356e-20)
(1.02131 0.000420409 0)
(1.01935 0.252013 -1.68771e-21)
(1.01348 -0.15602 0)
(1.07671 0.037168 5.41609e-21)
(0.787643 0.499311 0)
(1.02082 0.000409752 0)
(0.747565 0.609841 0)
(1.0171 0.00595177 0)
(0.839364 -0.456843 0)
(0.924589 0.234361 0)
(1.02459 0.0100851 -1.00069e-20)
(1.16438 -0.281124 2.17131e-20)
(1.04131 0.000438286 -7.7035e-22)
(1.06705 0.0300924 0)
(1.04959 0.00584159 -4.99535e-22)
(1.01856 0.0274511 0)
(0.762989 0.724972 3.53071e-20)
(1.05431 0.00441716 -2.26857e-21)
(1.18064 -0.264103 -1.12217e-20)
(0.704067 0.139191 0)
(0.817707 0.223393 0)
(1.02001 0.00726558 0)
(1.03493 0.503533 0)
(0.994754 -0.0917638 -9.43665e-22)
(1.01504 0.0128092 0)
(0.892135 0.176026 -1.33022e-20)
(1.01936 0.0110321 -4.60823e-21)
(1.03076 0.000525731 0)
(0.717978 0.265935 -7.22156e-21)
(1.05308 -0.000412304 -2.40254e-22)
(1.09337 -0.0119629 -8.33583e-21)
(0.840505 0.216789 -1.84358e-20)
(1.03387 0.00294728 -5.35483e-21)
(1.03259 0.0451297 -4.45931e-21)
(1.12518 -0.000944723 0)
(1.02356 0.00271336 0)
(1.04535 0.00420663 -1.57244e-23)
(1.37233 0.112996 -8.80983e-21)
(1.00994 -0.0429612 -1.2541e-22)
(1.02878 0.00482742 0)
(1.03529 0.00626543 0)
(1.25138 -0.0972463 3.01638e-21)
(0.824215 -0.363472 1.08163e-20)
(0.821764 0.0557277 -1.70328e-20)
(0.958426 -0.322937 -1.65599e-21)
(0.751409 0.70915 0)
(0.734823 -0.104888 0)
(1.02332 0.00588052 0)
(1.33983 -0.43207 -1.70254e-20)
(0.844078 0.447394 1.03404e-20)
(1.01896 0.00630149 0)
(1.14842 -0.159879 4.82665e-20)
(1.03555 0.00629172 -5.97282e-21)
(0.984279 -0.0877224 1.60277e-21)
(1.02009 0.00727683 0)
(1.03459 0.000462071 9.2605e-21)
(1.02494 0.00665179 -5.03526e-21)
(1.03678 0.0072074 0)
(1.01712 0.00491894 -2.74999e-21)
(0.888406 -0.11765 -4.5756e-20)
(0.367014 -0.84586 3.7388e-20)
(0.847665 -0.334543 1.48867e-21)
(0.963945 0.0282728 1.45467e-20)
(1.05735 0.00624021 -8.72882e-22)
(0.602713 -0.429767 -2.28735e-21)
(1.05309 0.00106744 -1.80872e-21)
(0.659175 -0.377903 -1.59057e-20)
(0.964412 -0.0778254 -1.99597e-22)
(0.836164 0.238646 0)
(1.01454 -0.00555798 -6.68725e-21)
(0.6238 -0.430407 -8.73462e-21)
(1.04612 0.00620924 8.64801e-22)
(0.698817 0.606741 -4.06601e-20)
(1.03219 0.0483874 -2.16755e-21)
(0.699336 -0.392489 -1.40068e-20)
(1.01796 0.00949856 0)
(1.28134 -0.481387 2.22016e-20)
(0.75745 0.515996 5.28746e-20)
(0.953482 0.0328674 -1.2708e-20)
(1.1561 -0.936132 0)
(1.04377 0.000570508 -4.33788e-21)
(1.31503 -0.216394 0)
(1.04734 -0.000412528 0)
(0.862194 0.0390037 0)
(0.745515 -0.0805464 2.66801e-21)
(1.04681 0.00484823 2.37288e-21)
(1.0619 0.00376349 3.65597e-22)
(1.03264 0.00322338 0)
(1.05305 -0.00034155 -1.32437e-21)
(0.733143 -0.194714 0)
(0.708781 -0.599106 4.15029e-20)
(1.02348 0.00385328 -4.99507e-21)
(0.910037 0.136825 0)
(0.470879 0.917093 3.94276e-20)
(0.490863 0.10122 6.71888e-21)
(1.03693 0.00709108 0)
(0.687593 0.123779 -6.06396e-22)
(1.04717 0.00517621 5.68365e-22)
(1.02339 0.00370657 3.9399e-21)
(0.821823 0.302892 0)
(0.708308 0.182748 2.52255e-21)
(0.99806 -0.0775745 0)
(0.817202 -0.0334364 -1.54953e-20)
(1.00235 -0.00194285 -2.80292e-21)
(0.842175 0.259998 4.01402e-21)
(1.04238 0.000299777 2.55202e-21)
(1.0276 0.00804771 0)
(0.891672 -0.0255115 0)
(1.19317 -0.335161 -1.11849e-20)
(1.05846 0.00414073 -5.46394e-22)
(1.02565 0.16401 -1.078e-20)
(1.1533 -0.221733 1.35737e-20)
(1.01714 0.00470258 -1.54761e-20)
(1.03137 0.00630553 4.14169e-21)
(1.06029 0.00126309 -3.52509e-22)
(0.820708 -0.479012 0)
(1.04831 -0.107258 0)
(1.05224 0.00254298 8.01225e-22)
(1.02847 -0.000603347 0)
(-0.595207 -0.293492 -4.90424e-19)
(1.21511 -0.069155 0)
(0.810578 -0.0555554 -7.65866e-21)
(1.12702 -0.340399 9.86262e-21)
(1.01406 -0.00692455 9.32312e-21)
(0.491865 -0.0807253 4.38696e-20)
(1.01588 0.0133777 0)
(1.05217 0.00335242 0)
(1.05833 0.00349999 0)
(1.08996 0.00172175 -4.66153e-21)
(1.00952 -0.251716 -4.69348e-20)
(1.01621 0.00313852 0)
(1.04982 0.00637859 5.00193e-22)
(1.04523 0.00395313 0)
(1.08893 0.322738 -3.79801e-21)
(1.02655 0.00975788 3.85313e-21)
(0.488821 0.0409316 -6.66714e-21)
(0.381566 -0.357571 0)
(1.02314 0.00592158 8.40239e-22)
(0.873606 0.0477763 3.64293e-20)
(0.813966 0.485003 -3.1283e-21)
(1.02653 0.010501 8.8823e-21)
(1.0534 0.00159164 -2.53033e-21)
(1.05265 0.00109673 0)
(1.06063 0.00118263 7.91608e-23)
(1.11345 0.217021 0)
(1.04474 5.48203e-06 2.94861e-21)
(1.26565 -0.141076 0)
(0.956152 -0.0447371 -8.68431e-21)
(0.959101 -0.0708423 0)
(1.05282 -0.000457906 0)
(1.01898 0.00618783 -1.0534e-20)
(1.01755 -0.0042313 4.56313e-21)
(1.0512 -0.000370794 1.06341e-21)
(1.0742 0.0338512 -8.57512e-22)
(0.923013 0.212045 -1.01336e-19)
(0.907567 -0.22015 0)
(0.644703 -0.284598 -4.81703e-20)
(1.05535 0.515775 0)
(0.9374 0.468806 6.78291e-21)
(1.03651 0.0010112 -8.65801e-21)
(1.0184 0.0057247 -6.57819e-21)
(0.771583 0.302026 0)
(1.03666 -0.0994234 7.9523e-21)
(1.38122 0.0923694 4.33306e-20)
(1.00822 0.0502914 2.27295e-21)
(1.0008 -0.251526 2.25596e-20)
(0.707507 0.208037 4.05351e-21)
(0.841224 0.346673 -1.0028e-20)
(0.758838 0.0642985 3.80202e-21)
(0.924715 0.117615 0)
(1.05238 0.00240124 -2.3636e-21)
(1.04839 0.000336965 3.78927e-21)
(0.979685 0.00914468 0)
(1.02933 0.00417916 7.98405e-21)
(1.04887 -0.642555 -6.18999e-20)
(0.791526 0.358826 7.77375e-21)
(1.05688 0.00585605 0)
(1.0188 0.00861996 -3.91311e-21)
(0.997953 -0.0690751 -1.2012e-21)
(1.11544 0.0894583 1.82985e-21)
(0.690912 0.634199 -6.40995e-20)
(1.09243 0.109371 1.52902e-24)
(0.377586 -0.814062 6.63508e-20)
(1.02265 0.000693664 2.06917e-21)
(0.868811 -0.56926 0)
(1.02249 0.00331864 -8.0945e-21)
(1.0192 0.00898365 0)
(1.01511 -0.0172113 3.99655e-21)
(1.06115 0.00366133 -3.79225e-22)
(1.03769 0.00211048 -6.03935e-21)
(0.949913 0.492965 -1.45096e-20)
(1.02956 0.00521841 0)
(1.17252 -0.0929699 3.21782e-20)
(0.996989 0.0910996 0)
(1.02273 0.000836393 -3.52062e-21)
(1.02561 0.0111385 8.28351e-21)
(1.05497 0.00769203 -7.75003e-24)
(0.997835 0.0400563 -8.83059e-21)
(0.829037 -0.449158 1.62104e-21)
(0.960294 0.0668146 3.77312e-21)
(0.873343 -0.470479 2.36298e-20)
(1.01458 0.00650013 0)
(1.13948 -0.165796 -2.05227e-22)
(0.733004 0.098155 2.13269e-20)
(1.16017 -0.280187 0)
(1.04214 0.00398766 0)
(1.01896 0.0037859 0)
(1.06058 8.22235e-05 0)
(1.31314 -0.0639634 7.2178e-21)
(1.00952 0.00688635 5.27736e-23)
(1.04305 0.000221999 2.7339e-21)
(1.05461 0.00445509 -9.5609e-22)
(1.05696 0.0057804 -4.46984e-22)
(1.06072 0.00110053 -6.38801e-23)
(0.839789 0.518023 -4.16189e-20)
(1.11139 -0.0194197 0)
(0.966529 0.0730888 -3.55989e-21)
(1.02805 0.1863 -8.91112e-21)
(1.03362 0.00336347 0)
(0.951904 -0.0388737 8.85801e-21)
(1.07202 0.0539509 0)
(0.980371 0.540177 2.17169e-20)
(1.04505 0.00373208 0)
(1.05458 0.00439281 0)
(1.02438 0.0056903 -4.78806e-21)
(1.0539 0.00350217 -1.08982e-23)
(1.03758 0.000801682 -4.89139e-21)
(1.06669 -0.769293 0)
(1.01017 0.0518597 -4.55072e-21)
(1.00462 0.519176 2.39255e-21)
(1.05384 0.00392273 3.87525e-22)
(1.03869 0.0526145 1.28835e-20)
(1.03343 0.00349977 -5.71342e-21)
(1.03393 0.000750228 0)
(1.07071 0.0399901 -3.31215e-21)
(1.06017 0.00111372 1.2686e-22)
(1.05392 0.00368055 1.38834e-21)
(1.16258 -0.108716 -4.25337e-20)
(1.153 -0.650255 -1.03448e-19)
(0.653664 0.0493629 3.38624e-22)
(-0.390086 0.730852 7.25072e-19)
(1.00186 -0.0669575 1.22127e-21)
(1.01752 0.0054041 3.01434e-21)
(1.04498 0.00361282 -4.37187e-21)
(0.997657 0.545451 -9.26885e-20)
(1.06071 0.00114151 0)
(0.604592 0.383441 0)
(0.773029 0.316607 9.8221e-21)
(0.747189 -0.93299 -6.29377e-20)
(1.05238 0.00227499 0)
(0.871221 0.970247 0)
(0.293266 0.0957197 0)
(1.01951 0.00907381 -1.06945e-20)
(1.04369 0.0456112 -9.19463e-21)
(1.34289 -0.0220778 -6.24734e-21)
(0.315933 0.932877 -8.10088e-20)
(1.02082 0.000165753 0)
(0.991642 -0.0878723 -1.37259e-21)
(1.01898 0.00102557 1.17121e-20)
(0.845839 -0.467436 -2.42715e-20)
(0.675694 0.229883 0)
(1.05652 0.00601063 -2.78628e-22)
(0.862258 -0.470007 2.64158e-20)
(1.0168 -0.00360746 -2.13393e-21)
(1.04132 0.000513835 -4.63723e-21)
(1.03872 0.00162202 -6.16828e-21)
(1.03086 0.000927454 0)
(1.02867 -0.00100692 -1.93504e-21)
(1.06011 0.000944333 2.64425e-22)
(0.921942 0.605868 6.69722e-21)
(0.927834 0.549153 0)
(1.05718 0.00306979 3.88881e-22)
(1.02291 0.00359514 -9.47692e-21)
(1.0244 0.0055492 -2.41789e-21)
(1.00884 0.0377219 -6.69665e-21)
(1.03504 0.003797 5.55936e-21)
(-0.623478 -0.237677 6.38541e-20)
(0.656435 -0.242851 0)
(1.14592 -0.211302 -1.6479e-20)
(1.06022 0.001335 -1.36132e-22)
(1.06119 0.00194539 1.4651e-22)
(1.06088 0.00124181 3.96082e-23)
(-0.790719 0.804255 1.05827e-19)
(0.81501 -0.444777 0)
(1.30713 -0.332282 -1.5502e-19)
(1.44268 -0.118788 1.53193e-20)
(1.05343 0.00381764 1.4417e-21)
(0.801445 -0.171933 1.45635e-20)
(0.984645 -0.143891 5.58942e-20)
(0.716775 -0.574769 -4.36117e-20)
(1.06027 0.00153326 0)
(1.05488 0.00473608 0)
(0.565187 -0.0214463 -5.70365e-21)
(1.01101 0.0377245 6.57864e-21)
(1.06676 0.0231519 -2.38193e-19)
(1.02995 0.00558095 7.72996e-21)
(1.04628 -5.60407e-05 -3.39301e-21)
(1.05041 0.000364825 0)
(0.961547 -0.110909 -9.95689e-22)
(0.999472 -0.0994604 3.0602e-21)
(1.05843 0.00372565 0)
(1.04376 -0.00241058 2.33389e-21)
(1.03756 0.0423457 -3.26695e-22)
(1.03735 0.000507663 2.29448e-21)
(0.889029 0.182952 0)
(0.740827 -0.0159681 0)
(0.73841 0.0225098 0)
(1.1582 -0.136826 4.8291e-20)
(0.710393 0.176617 4.43806e-21)
(1.01734 0.00587072 0)
(1.18317 -0.0715635 6.65196e-20)
(0.899529 0.00971005 1.50374e-20)
(1.05231 -0.000291218 -7.67716e-22)
(1.03358 0.000546875 -4.65261e-21)
(0.687469 0.22951 0)
(0.742193 0.190442 3.1214e-21)
(1.18197 0.0312876 3.52996e-19)
(0.578465 -0.612203 0)
(1.04262 0.0149557 0)
(1.05485 0.00477468 9.58886e-22)
(1.10563 -0.000333055 0)
(1.00877 0.00651521 3.68985e-21)
(0.505138 0.920044 3.36884e-20)
(1.06736 0.288114 0)
(1.05277 0.0009282 -2.61588e-21)
(1.05236 -0.000389784 3.99141e-22)
(0.635092 -0.408769 7.6215e-21)
(1.02233 0.00942681 -3.81593e-21)
(1.06636 0.275243 -7.46921e-21)
(1.02743 -0.00187119 1.71937e-21)
(0.742833 -0.618847 -5.96385e-21)
(1.25553 -0.0682519 -5.17318e-19)
(1.28488 -0.0861306 -3.44626e-20)