/*--------------------------------*- C++ -*----------------------------------*\
| =========                 |                                                 |
| \\      /  F ield         | OpenFOAM: The Open Source CFD Toolbox           |
|  \\    /   O peration     | Version:  v2012                                 |
|   \\  /    A nd           | Website:  www.openfoam.com                      |
|    \\/     M anipulation  |                                                 |
\*---------------------------------------------------------------------------*/
FoamFile
{
    version     2.0;
    format      ascii;
    class       surfaceScalarField;
    location    "50";
    object      ddtCorrDdt0(phi);
}
// * * * * * * * * * * * * * * * * * * * * * * * * * * * * * * * * * * * * * //

dimensions      [0 3 -2 0 0 0 0];
oriented        oriented;


internalField   nonuniform List<scalar> 
27551
(
0.00346705
-9.58709e-05
-0.00337116
-0.00283744
0.00113854
0.0016989
0.000140878
-5.04088e-05
-9.04752e-05
-0.0189553
-0.00134453
0.0202999
0.000348453
-0.000970053
0.000621655
0.000789949
0.000204705
-0.000994652
0.00070549
-0.000419153
-0.00028633
-0.0143022
0.0433271
-0.0290249
0.000273636
-0.000299524
2.5887e-05
0.00198395
4.24283e-05
-0.00202638
-0.00126158
0.00143038
-0.000168836
0.0200644
-0.0563138
0.0362494
-0.029701
0.0137844
0.0159166
-0.0579564
0.175534
-0.117577
-0.000585113
-0.000121837
0.000707018
0.000312015
-3.83753e-05
0.0127571
-0.00215263
-0.0106045
0.000116255
-7.61498e-05
-4.01068e-05
0.000412399
-0.000180695
-0.000231702
0.00061467
9.08207e-05
-0.0071516
0.00429427
0.00285736
0.000588491
-0.000164697
-0.000423791
0.00126472
-0.000638987
-0.000625731
-0.00154492
0.000931204
0.00061375
0.000335482
-0.000223204
-0.000112277
0.000319858
-0.000904927
-0.000471755
0.000109441
0.000362343
-0.0247332
-0.0115584
0.0158149
-0.00425653
-0.229884
0.171927
-0.00274402
-0.0348113
0.0375553
0.000739802
-2.66714e-06
-0.000737134
-0.000625704
-0.000260176
0.000885911
-0.000986297
-0.00231914
0.00330544
0.000772548
-0.000424083
-0.00383468
0.00109122
0.00274347
-0.00504845
0.0393795
-0.0343311
0.000306392
-0.000628817
0.000322404
-0.00259591
0.00120803
0.00138788
0.00508054
-0.00424152
-0.000838982
0.000829504
0.00413881
-0.00496828
-0.00244915
-0.000388292
-4.58303e-05
-1.9176e-05
6.50341e-05
0.000285109
0.000279765
-0.000564867
0.00146011
0.000825514
-0.00228563
-4.21778e-05
-0.000185091
0.000227267
-0.00493718
-0.00878022
0.0137174
0.00692501
-0.00127906
-0.00564597
-0.000339376
-0.00115277
0.00149214
-0.0266547
0.0137891
0.0128656
-0.0450888
0.0400404
-0.000263756
0.000270066
-6.30657e-06
-0.000435817
-2.98066e-05
0.000465622
-0.000794926
-0.00289079
0.00368577
-0.0138077
0.0157267
-0.00191901
0.0392122
-0.0419562
0.00268739
0.00239316
-2.53262e-06
-0.0010955
0.00109802
0.000967011
0.0025
-0.00289828
-0.00425327
-0.000720764
4.45262e-05
0.000676229
0.000111883
-0.000148617
3.67084e-05
-8.11417e-06
0.000224877
-0.000216764
0.000108504
-0.000302169
0.000193672
9.64449e-05
0.000315956
0.000121163
-0.000182286
6.11248e-05
-0.000858728
-0.00510437
0.00596308
-0.0189509
0.00514324
0.0426684
-0.0226041
-0.000189276
0.00029777
-0.000103189
0.000100613
2.58011e-06
-0.0179076
0.00634924
0.00289259
0.00401125
-0.00690385
-0.000493801
0.000197976
0.000295836
-0.00202058
0.00168121
-0.0061292
-0.0111275
-0.0216719
-0.0080291
-0.00119764
0.00107582
-0.000125452
2.22631e-05
0.0116875
-0.0399698
0.0282823
-0.000481509
0.00194163
0.000299163
-2.52322e-05
-0.000273949
0.00058544
3.05271e-06
0.000531404
-0.000698679
0.000167279
-0.00161582
0.000354234
7.19723e-05
-0.000112026
4.00544e-05
0.015517
-0.0120611
-0.00345581
0.000602998
0.000136804
0.000305935
-0.000101789
-0.000204139
-0.0190384
-0.00761633
-0.0778553
0.0371367
0.0407186
-0.0141597
0.0241479
-0.00998816
0.0167677
0.00810132
-0.024869
0.000110298
-0.000178883
6.85758e-05
-4.62433e-05
-0.000206524
0.000252767
0.00150404
-0.000231057
-0.00127299
0.00376464
0.0117524
6.09694e-05
-5.0628e-05
-1.03447e-05
-0.00161069
0.00157082
3.98689e-05
-0.000600465
0.000181308
-0.000184447
-1.52055e-06
0.000185971
0.00879406
-0.00832861
-0.000465496
-0.000380486
-0.000219972
-0.000216158
5.57541e-06
0.000210586
-9.63567e-05
0.000241177
-0.000144813
-0.000230691
0.000655817
-4.11421e-05
-0.0171227
0.0174501
-0.000327502
0.00150699
0.00213523
-0.00364225
-0.000165997
0.000135455
3.05674e-05
-0.00306752
0.00166336
0.00140415
-0.000205603
-0.000288194
0.000208901
9.70264e-05
4.63769e-05
-9.21779e-05
0.000184721
-0.000186242
5.95446e-06
0.00017877
0.00121215
-0.00174468
0.000532515
5.39261e-05
-6.87421e-05
1.4798e-05
0.000347066
0.000216735
-0.00056378
4.88894e-05
9.19656e-05
2.41494e-05
3.67844e-05
0.014063
-0.0282227
0.0130116
-0.0205051
0.00749342
-0.000137349
1.20473e-05
0.000125311
0.0033696
-0.00031594
-0.00305367
0.00657506
0.00221899
0.000647814
7.99855e-06
-0.0252475
-0.0526078
0.0003726
-0.000276145
-0.000928447
7.25505e-05
0.0194624
-0.0344975
0.0150351
0.000632187
-0.000273505
9.59369e-05
0.000177564
-0.00892999
0.0219416
-0.000595985
0.00030022
0.000295771
-0.000650182
0.00026771
-0.000194903
-7.28077e-05
-0.00188146
-0.00118608
4.23009e-06
-0.000277743
-0.000210202
-0.000170445
0.000960394
0.000156895
0.000110814
-5.67025e-05
-0.000109285
5.15922e-05
-0.000772367
-0.00557683
0.0193659
0.0091415
-0.000857129
-0.00828438
-0.0245322
0.0474548
-0.0357673
0.000163532
-3.63036e-05
-0.00012723
-5.74496e-05
0.000148664
-9.12155e-05
-0.00646689
-0.00065711
0.00712405
0.0047786
-0.00490045
0.000121849
-0.00036938
0.000730293
-0.00036091
0.000488558
-0.00018216
0.000669403
-0.000137995
-0.000394195
0.000401445
-7.24975e-06
0.00888666
-0.0281635
0.0192768
-0.000607877
0.000210782
0.00039709
0.000138649
-0.000106787
-3.18766e-05
0.0133188
-0.0323242
0.0190055
0.0185267
-0.0415708
0.023044
-0.0015964
0.014852
-0.0132557
0.00610402
0.0030375
0.00734201
-0.0324548
0.0251128
0.000291115
0.0083271
-0.00861823
-0.000304927
-0.000302954
0.000962094
0.000956897
-0.001919
4.04773e-06
-0.00014139
-0.000131523
9.95035e-05
3.2008e-05
0.000780146
0.00258945
-0.00907913
0.00457807
0.00450104
-5.34776e-05
0.00248286
-0.0035814
0.00109851
-0.0147729
0.0217388
-0.00696579
-0.0898872
0.0309765
0.0589107
0.0260465
-0.0171598
-0.000499777
6.39593e-05
-0.014694
0.0360008
-0.0213068
-0.000190109
0.000197945
-7.8374e-06
0.000110509
2.81387e-05
-0.0112128
0.00961643
0.00370431
-0.00219733
-6.9387e-05
-0.000140731
0.000210126
-0.000335704
-5.84894e-05
0.000526055
-0.000280461
-0.000245584
-0.00190395
0.00286601
0.0403928
-0.0187716
-0.0216212
-0.00170728
0.00122658
0.000480694
0.0215227
0.0211457
0.00444226
0.00114241
-0.00558466
-0.00689791
0.00252686
0.00437104
0.0600311
-0.0526891
1.80136e-05
-0.000230905
0.000212862
0.0333877
-0.0476899
0.000336624
0.00112832
-0.00146493
-1.64378e-05
0.000128314
0.00988159
-0.0333996
0.023518
-0.0135929
0.0178472
-0.0042543
-7.68895e-05
0.000140214
-6.3327e-05
-0.00861873
0.00890985
-0.000172823
0.000155095
1.77226e-05
0.013711
0.0266818
0.000201493
0.00181128
-0.00201278
-0.00069443
0.000738967
0.000764593
-0.000466782
-0.000297809
0.000384799
-0.000129067
-0.000255732
-0.111834
0.0679538
0.0438801
-0.0111657
0.0129502
-0.00178447
-0.0319119
-0.079922
0.204241
-0.111484
-0.0927572
-8.5098e-05
5.00368e-05
3.50679e-05
0.000145561
-9.19717e-05
-9.06447e-05
0.000182638
-0.000322713
0.000370091
-4.73849e-05
0.0058277
-0.00784934
0.00202168
0.0411959
0.0402431
-0.0814391
-0.0017095
-0.000886404
0.0054425
0.0014825
-0.0181486
-0.0381653
0.0436788
-0.03036
-0.0131896
0.0089837
0.00420581
-4.67698e-05
-0.000842614
0.000889386
0.000204752
0.00659944
-0.00981045
0.00321104
0.000200508
-0.00160174
0.00140121
9.84791e-05
-4.4554e-05
-0.0219335
0.010826
0.0046964
-0.0155223
0.028189
-0.0137407
-0.0144482
0.000952574
-0.00266643
0.00171384
0.00290275
-0.00388905
0.000642355
-0.000321767
-0.000320624
-0.00718784
0.0826145
-0.0754268
-0.00117755
0.00700526
0.0131411
0.00362666
0.00451581
-0.00368629
0.000864514
0.00573528
-0.00659984
0.00151318
-0.000771373
-0.000741795
-0.000986715
0.000939947
-5.96398e-05
0.000169945
0.00362081
0.00913633
0.00747219
0.00153117
-0.00900338
-0.00121923
0.000103401
0.00111589
-1.55017e-06
-0.000262208
0.000240784
-0.000119622
-0.000255477
0.000247355
0.00849991
-0.0105158
0.00201592
0.000376571
0.00117472
-0.00155132
-9.14031e-06
-0.00121009
0.0118558
-0.0115252
-0.000330577
-0.000281127
0.000560905
0.0636272
0.140614
-0.000469405
-0.000259722
0.000729121
-1.49474e-05
7.88181e-05
-6.38697e-05
-0.108745
0.0369306
0.0718148
-0.00434591
-0.00884366
-0.0182819
-0.0196108
0.018959
0.000651816
0.0144563
-0.0334948
0.011785
0.0318938
-0.0096629
-0.0107216
0.0203845
-0.0217758
0.0317882
-0.0100124
-0.106022
-0.0027231
0.00176682
-0.00524968
0.00348286
-0.000384497
0.000290258
9.42322e-05
0.0131413
-0.0180785
7.82986e-05
-0.000195624
0.000117324
0.00068847
-4.0649e-05
-0.0115851
-0.00200777
1.137e-05
-6.60222e-05
5.46709e-05
0.000551723
-0.000465943
-8.57757e-05
0.000690048
-0.000732603
0.000556368
0.000176233
4.39001e-05
-0.000140253
0.000118382
-0.000307666
0.000205025
-0.000126723
0.000717402
-2.89243e-05
-0.00491425
-0.000303522
0.00521774
-0.0266689
0.0170061
0.00782679
-0.00782101
-5.80478e-06
-6.08317e-05
-3.60451e-05
9.68742e-05
-5.30356e-05
-0.000119778
0.0109724
-0.0120871
0.00111462
-0.000107511
4.51895e-05
6.23289e-05
0.00761562
0.000884322
-0.0392364
0.00915453
0.0300819
0.000119713
-3.4556e-06
0.000360456
0.00015658
-0.000517034
-0.00250408
-0.00943447
-0.0195482
0.0289826
-0.00022369
-0.000160811
0.00264974
-0.00200313
-0.000646635
-0.00503991
0.0158659
0.00223068
-0.00127378
0.000120948
-0.000142427
2.14868e-05
-2.28145e-06
4.86608e-05
0.00579534
-0.000111722
3.48369e-05
0.000746237
0.000766935
-0.001893
0.0116654
-0.00977246
0.000193465
-0.000301575
0.000108109
-0.00242076
-0.00910442
-6.05037e-05
-4.70108e-05
0.0248066
-0.0342411
0.00530675
6.72792e-05
-8.22245e-05
-0.0187665
0.00164382
1.07795e-05
8.98341e-05
-0.0649152
0.0396676
0.00031926
-0.000125796
0.000312876
-1.369e-05
0.00169709
-0.00149656
-0.000154723
2.5063e-05
0.000129659
0.000180834
0.000203968
0.00372892
-0.00452384
-5.83067e-05
2.9915e-05
-0.00140285
0.000756633
0.000646215
0.00195526
0.000456355
-0.00241168
8.4099e-05
-0.000346555
0.000262457
0.0210234
0.00716552
-0.000166312
0.000109983
5.63309e-05
-0.000506702
3.49342e-05
-0.000312701
0.000206195
0.000106504
1.88466e-05
-0.000614457
0.000595612
-0.00969785
0.0345044
-2.16617e-05
0.000273452
-0.000251792
0.00145469
-0.00125319
0.000755371
0.00992237
-0.0106778
-7.02102e-05
-4.75527e-05
0.000117764
0.00200464
-0.00583931
0.000551374
-5.02779e-05
-0.000501113
0.000574585
-0.000555741
-0.000501325
-0.000116201
0.000617524
-3.99072e-05
-0.000209309
-1.81773e-05
0.000227486
-0.00212332
0.00290347
0.0261715
-0.0330689
0.00689744
-0.000210426
-0.000155873
0.000366297
-0.0022692
-0.00726779
0.00953701
0.000112606
0.000200269
0.00213095
-0.00017572
-0.000117195
0.000102161
1.50313e-05
0.000539399
1.19681e-05
-0.000101966
0.000126872
-2.48931e-05
9.17063e-05
-0.0312923
0.0527373
-0.021445
-0.00238256
0.000478593
0.0377169
-0.0438461
-0.000154723
-0.000355478
0.00071594
4.39979e-05
-0.000101447
0.000683842
0.000580875
0.00194708
3.68554e-05
-0.0231974
-0.0417178
0.00789564
-0.00311704
0.000338044
-0.00149032
0.00025828
-0.000240253
0.000231632
-0.000442054
-0.00628635
0.0456659
-0.000108983
0.000106693
1.72183e-05
-0.000158269
0.000141051
0.00172745
-0.00385076
0.000401437
0.0110223
-0.0114237
-0.00116119
0.00689644
0.00387648
-0.00614566
-2.52985e-05
9.48562e-07
2.43482e-05
-0.000168283
0.00032112
-0.000152813
6.95382e-05
-6.38974e-06
-6.31496e-05
-0.000816949
0.000492829
0.00032412
0.017861
-0.00178822
-0.0160728
0.000112286
-0.00061362
-0.000946701
-0.000760578
-0.00150107
0.0030051
0.0742285
-0.047151
-0.0270775
-0.0710888
0.0538828
0.0172059
-0.0121046
0.0198522
-0.00774755
-0.000308902
0.00041836
0.00637306
-0.00432397
-0.00204907
-0.000743059
-0.000185317
6.77687e-05
-7.66642e-05
8.87909e-06
-0.114026
0.106838
-0.000217534
8.22463e-06
0.00102029
-0.00192878
0.000908453
-4.10394e-05
-2.77134e-05
-0.000538604
0.00730443
-0.00676584
-0.00145609
-0.000159757
-0.00118415
4.16726e-05
0.00114248
-0.000371744
0.000203455
-0.0148729
0.00880286
-0.0146823
0.00587954
-0.000576303
-0.000607849
-0.00426453
0.00112903
0.00313553
-0.000287745
0.000602959
-0.000315208
0.0178784
-0.0275763
0.0233307
-0.0188092
-0.00452156
-0.0140437
0.00198261
-0.000299014
9.24889e-05
-0.000216026
0.000481141
-0.000265098
-0.0476821
0.0163898
-0.000169482
0.000100096
0.000781689
-0.000333278
-0.00044841
0.057263
0.0169654
-6.52729e-05
-0.00669545
0.00676072
-0.00331339
-0.00158959
0.00490297
0.000146091
0.000189393
-0.00128895
0.0012864
6.79697e-05
-5.96348e-05
-8.33989e-06
0.0218858
-3.67006e-05
4.38018e-05
-7.101e-06
0.0027744
0.00155419
-0.00432859
0.0287452
-0.0147627
-0.0139825
0.000284831
0.000151469
-0.000436292
-1.06035e-06
6.90361e-05
-2.86197e-05
0.000149569
-0.00531339
0.00466117
0.00065221
-0.0016214
0.000674704
-0.000375097
0.00048018
-0.000105072
-0.00720227
0.00666367
-9.62284e-05
-3.52858e-05
0.0113952
-0.0528161
0.0414209
-0.0776493
0.0304984
-5.38503e-05
4.98698e-05
3.97647e-06
0.000343305
0.000438385
-0.000162662
0.0069155
-0.00675285
0.00825638
-0.00785495
-0.000269083
-0.000124764
0.000393844
0.000222623
-0.000244286
-0.00138383
0.0289467
-0.0511476
0.0222009
0.000117574
-0.00013401
-0.00164
3.8254e-05
0.000627642
-0.000576037
-0.0007726
0.000422321
0.000350279
-0.000139111
0.000580147
-0.000441044
6.06233e-05
-0.000283828
-0.000429296
0.000376564
-3.96516e-06
0.0329085
-0.0221023
-0.0108062
-2.12146e-05
-0.000759484
0.000780694
-0.00281769
0.00156581
0.00125188
-0.0445313
-0.0331181
0.0208285
0.01208
-0.0157625
-0.023474
-0.00073282
0.00350722
-4.59175e-05
-0.000263694
0.000309612
-0.00040868
0.000294508
0.000114158
-4.12704e-05
-1.2596e-05
0.00406318
-0.00431545
0.000252272
0.000471724
0.000460834
-0.000932555
0.000382504
-2.9286e-05
-0.000353202
0.000211797
-0.00447634
-0.000587274
0.000299526
-0.00014527
-0.000450714
-0.00408037
0.00106127
0.0030191
-0.000629758
0.000465063
-0.00424304
0.0308779
0.0503376
-0.0812155
0.000233582
-0.00322351
-0.00208989
0.000117016
-0.000140358
2.3344e-05
6.52692e-06
-4.75869e-05
-0.000228608
0.000136629
0.0268564
0.0286295
-0.0554859
0.000186057
0.000396496
-0.000582557
-0.0389151
0.0801111
0.0172179
-0.0159569
-0.00126106
-0.000118422
0.0299657
-0.00913912
-0.0208266
0.000435118
-0.000150281
-0.000379374
-0.000803087
0.00118246
-0.00700344
0.0061447
-0.0293937
0.0562501
0.000117735
9.54141e-06
-0.000127271
-4.12024e-05
-0.000126422
0.000167634
0.000149561
-6.52515e-05
-8.43122e-05
-2.82028e-05
-0.00120047
-0.000410213
8.25432e-06
0.000964029
-0.000972282
-0.00915607
-0.000207979
-0.000101957
0.000309937
0.0155088
-0.0149247
-0.000584114
0.000100937
4.86238e-05
-0.00172189
0.0102974
-0.00857557
-0.000798986
-0.000822418
0.000129621
-1.1991e-05
-0.000215816
0.000227805
0.0122514
-0.00344858
-0.000798667
0.00640098
0.0259024
-0.0323034
3.52766e-05
-7.19774e-05
-0.0132327
-0.000811058
0.000348995
-8.58482e-05
-0.000263149
-0.0498656
0.0242223
0.0256433
-0.00274518
0.00546654
-0.00272136
0.0570333
-0.0182592
-0.0387741
-0.00916512
0.0106485
-0.00148337
-0.00643474
0.00651587
-8.1061e-05
0.00012972
0.000219274
0.000134974
-7.15173e-05
-6.34578e-05
0.000586051
0.000329932
-0.000915981
-0.0352447
0.0197226
0.0155221
-8.7309e-05
-2.73516e-05
0.000114659
0.02582
-0.0616342
0.0358142
0.000726511
1.46047e-06
-0.000727968
-0.00129036
0.000910984
5.17836e-05
2.04387e-06
-5.38271e-05
0.000310768
0.000142205
-0.000452959
5.23199e-05
4.58727e-06
-5.69295e-05
0.000128736
6.22513e-06
-2.33605e-05
0.000145125
-0.000121757
0.000338128
-0.00818967
0.0340097
-0.00520513
0.00245994
-0.0168456
0.00451584
0.0123298
0.00240124
-0.00307357
0.000672314
-0.00418882
-0.00366053
-0.00164821
0.000915388
-9.84911e-06
-1.54482e-05
0.00805281
-0.000492324
-0.000324624
-9.79185e-05
-0.00041638
0.000277261
0.000502199
-0.000191436
-0.00836927
0.0278317
-0.0174772
0.0226929
-0.00521565
-0.0239852
0.020694
0.00329119
4.6197e-05
-0.000133787
8.75825e-05
-0.000364131
-7.16858e-05
0.000435817
-0.000300001
-0.000515508
0.000815514
0.00931609
0.0206496
-0.000208671
0.000166494
0.0309677
0.0123594
-0.00144321
-1.28916e-05
0.000392718
0.000430167
-0.000822883
-0.000298356
0.000484413
-0.000348301
0.000111274
0.000237024
-2.01064e-05
-3.60989e-05
5.61949e-05
-0.000577462
0.000213334
-7.16465e-05
0.000226742
-0.00769284
0.00475107
0.00294173
-0.0290538
0.0130811
0.0159726
0.00390146
-0.00150022
0.0451727
-9.3519e-05
6.20078e-06
-0.000364251
8.06229e-05
0.00028363
-0.0202748
-0.0220157
0.0422905
0.00212028
-0.00330065
-0.000139554
0.000182712
-4.31594e-05
-0.0577287
0.0145682
0.0431605
-0.000162932
0.00389187
0.000333472
0.000301065
0.000592104
-0.000893173
-0.00602739
-0.0135834
0.00621361
0.00443489
-0.000660057
-0.000378303
0.00103836
-0.00488156
-0.00201636
0.0223188
-0.0130027
-0.000121129
-0.000227176
0.00327849
0.00986284
-0.000378042
0.00159019
-0.000579795
0.000497168
8.26161e-05
-0.0261716
-0.00907308
0.000277006
0.000487589
-0.0372136
-0.0145771
0.000180492
6.0295e-05
0.00184839
-0.000895831
0.000109719
-0.00054839
0.000438682
-0.000410438
-0.000203176
0.000613644
-0.000954096
0.0052484
0.00041864
-0.000308933
0.0291988
-0.0373886
0.0640501
0.00143532
0.000413072
0.00262752
0.0105136
0.00431663
0.00893066
-0.0306025
0.006745
-0.000145547
0.00013278
-0.000614741
0.000481959
0.0348969
-0.0743306
0.0394337
-0.0532584
0.030061
-0.000109722
0.000128915
-1.91941e-05
-0.000132696
0.000109357
0.0110384
-6.59337e-05
-0.000202955
1.78645e-05
0.000289833
-0.000301825
-5.50428e-05
9.29589e-05
-3.79135e-05
-2.42651e-05
4.7638e-05
-2.33904e-05
0.000285036
-0.000180484
-0.000104563
0.000144784
0.000119578
-0.000264348
-4.04124e-05
0.00562542
-0.0033882
-0.00223723
0.000181267
0.000366339
-0.000547598
4.19987e-06
-0.000332918
0.000328717
6.71444e-05
0.000315354
0.0421757
-0.013229
-0.00132977
-0.000414904
-5.67425e-05
-6.04521e-05
7.20232e-05
-0.0291258
-9.65917e-05
-0.000490679
6.80761e-05
-0.000113964
4.58896e-05
-0.0401773
-9.7482e-05
-6.88314e-05
-0.00128357
0.000934773
0.000348793
-0.000866466
-0.000417103
0.0326392
-0.0241394
-0.00849971
0.000664562
-0.000696185
3.16229e-05
0.00293921
-0.000276788
6.88084e-05
0.000567636
9.69269e-05
-0.000348476
0.000934527
0.00668005
-0.000466447
0.00518139
-0.00649202
0.00131062
0.0139235
0.012248
0.000527292
-0.000262718
-0.000264565
0.000511409
-3.97194e-05
-0.000471694
8.83095e-05
-0.000101647
1.33263e-05
-0.00215931
6.20546e-05
0.00209718
5.85179e-05
0.000102223
-0.000114985
1.27305e-05
0.000319176
0.000188712
-0.000507896
5.62818e-06
-0.000307688
0.000302057
-0.00212822
0.00167276
0.00045547
-1.37953e-05
-0.000337736
0.000351532
-0.00577982
0.00246641
-0.00170122
0.00148802
0.000213209
-4.56925e-05
5.7079e-05
-0.0124516
0.0140686
-0.001617
0.00014914
-0.000103176
-4.59649e-05
-7.10567e-05
1.35389e-05
5.75037e-05
0.000242746
-0.000130142
0.000516241
-0.000858814
0.000342575
0.000109778
-9.25578e-05
0.00244873
-0.00128585
-0.00116288
-0.00114949
-0.00379626
-0.00271788
0.00651412
0.0002
0.0300232
-0.00899981
-0.0252097
0.00122455
-2.37916e-06
9.06865e-05
0.000551725
-0.00701863
-0.000644019
0.00038385
9.98896e-06
0.000108866
-0.000118842
-4.49297e-05
-0.0106301
0.0106751
-0.0145529
-0.022392
0.0369449
0.00662803
-0.0104236
0.00379572
0.000159786
3.7459e-06
-0.0231422
0.000312344
-0.000308139
-0.000740433
-0.00138778
0.00108676
0.00453865
0.0231825
-0.0377354
-0.000641854
0.00036682
0.000275033
0.00094418
0.000486213
0.00322885
0.00345119
2.69652e-06
0.000624933
-9.66236e-05
0.00011602
-1.93975e-05
-0.00532777
0.00229478
0.00303298
-0.000163639
0.00109487
0.000153043
0.000131991
5.61443e-05
-4.36205e-06
0.00920476
0.0195404
3.22124e-05
9.67523e-05
-0.00133632
-0.000106904
-6.50057e-06
-2.95961e-05
0.000792049
-0.000399331
0.00295432
-0.00675058
-0.00499143
-7.30841e-05
7.76784e-05
0.000562795
-0.000560091
0.000116472
-0.000252942
0.000136472
3.41006e-05
-0.000107193
0.00801822
-0.000546014
0.000585783
-0.000473516
0.000493641
8.09454e-05
-0.000188284
-2.18849e-05
0.000210173
0.00060627
-0.0223821
-0.00554586
-0.00214696
-0.000168662
-2.1447e-05
0.00136066
-0.00121174
-0.000148905
-0.00155886
0.00046335
1.88624e-05
0.000566919
-0.00367183
0.0140968
-0.0104249
0.00010295
-0.000125183
2.22335e-05
0.00521918
-0.00108037
0.0309521
-0.00232263
0.000438994
-0.000535582
0.000529273
-0.000504701
-0.000137152
-0.0713748
-0.000775733
0.0721505
0.000336756
-0.000321953
-1.48036e-05
5.79859e-05
0.000278771
-8.34756e-05
0.000303697
-0.000220222
-0.013538
-0.0033076
-0.0125072
0.022367
-0.00985978
-0.0556522
-0.00784945
0.0125458
-0.000313121
0.000829362
0.000183998
-8.97518e-05
-9.42384e-05
-0.0114043
0.00968238
-0.000299129
-0.000183808
-0.00252735
0.00232505
0.000202269
-0.00128489
-5.14459e-05
-0.0182511
0.0108527
0.00739847
-0.0624304
0.0330366
-0.000132681
9.16425e-05
4.10603e-05
0.00435288
0.0197292
-0.00227913
0.000808668
-0.000829888
-0.000128677
6.57367e-05
6.29382e-05
-9.45764e-05
-0.000317332
0.000411892
0.000120477
-0.000110486
0.00610443
-0.00578568
-0.000318743
-0.00159453
0.000628892
0.000965662
-0.000299888
0.000216411
-0.0018773
-0.00345047
0.000969326
0.0016804
0.000406455
-0.0130823
0.0111893
0.00437272
-0.00727099
0.000118634
-7.06942e-05
-4.7922e-05
-0.0148055
0.00235388
2.71473e-05
9.05914e-05
0.0233859
-0.0605554
0.0371694
0.000210826
-0.000257307
4.64819e-05
0.00590101
-0.000190776
-0.00571023
-0.0390444
0.000116645
-0.000438852
0.000322204
-0.000604811
-0.00123686
0.00184169
0.00342085
-0.00253737
-0.000883492
-0.000396012
0.000401635
0.0225551
-0.00716904
-0.015386
0.00197466
-0.00162502
-0.000349658
5.37838e-05
0.000130213
-0.00900211
-2.23536e-05
-3.59428e-05
-0.000784322
-2.09293e-05
0.000805251
-0.000607726
0.000140946
-1.18521e-05
0.000122245
-0.000110389
-0.0092391
-0.00951799
0.0187571
0.0286532
-0.00389669
0.000813185
0.00308351
0.000538427
-0.000738935
0.000200512
-0.00169286
0.00108807
0.00010055
-7.87645e-05
-2.17522e-05
-0.000246998
-2.14636e-05
0.000268461
-0.000317603
-0.00220977
-0.00261208
-0.00031229
7.23572e-05
0.000239933
0.00137876
0.000595913
0.000143654
2.43367e-05
-0.000167988
-0.0100874
0.00454154
0.000331945
-0.000153484
-0.000178474
-0.000759084
0.000144623
-0.0931327
0.0346138
0.0585189
0.0346413
0.0153035
-0.0245426
0.00397336
0.0286658
-7.96876e-05
-0.000202966
0.000282656
0.0100438
-0.0119345
0.00189069
-0.000351365
-1.28915e-05
0.052854
-0.0520787
-0.000775212
-5.72652e-05
-7.1415e-05
-0.000438719
9.0983e-05
0.000347736
-0.00275811
-0.00727929
0.0100374
0.0155146
0.0145086
-0.00414064
-0.0141104
0.00377146
0.000612618
-0.000745013
0.000132401
0.000978668
-0.000773963
0.00785201
-0.00902956
4.58233e-05
0.000465574
-0.00831026
-0.000127538
0.00843782
0.00433012
-0.00260266
-0.023219
0.0247898
-0.00157078
0.0137349
0.00564031
-0.00408612
-3.59361e-05
0.000104098
-6.81645e-05
0.0193927
-0.00532414
0.00214363
-0.00131812
-0.0422738
-0.029101
7.97313e-05
-1.19814e-05
0.00435252
0.00347426
-0.00379769
0.0120541
-0.000118246
0.000136425
-1.81996e-05
-0.000932658
0.000426629
0.000506004
0.00139609
-0.00670091
0.00530481
-0.000256169
0.000322144
-6.5991e-05
-0.0112677
0.0141341
-0.00286642
5.61637e-05
-9.87263e-05
4.25657e-05
0.000191952
0.000139986
-0.000361254
7.47926e-05
0.000286462
-0.000140532
-0.00136054
-0.000315709
0.000652318
-4.483e-05
0.000657444
0.0250639
-0.0158591
6.94715e-05
-9.95249e-05
3.00677e-05
0.000644273
-0.000199544
-0.00044472
-0.00508217
-0.00016751
0.0343799
-0.0228311
-0.0115488
0.000741968
0.00358815
0.000342333
-1.80386e-05
-0.000324292
0.00168533
-0.00822833
0.00654302
-0.0337792
0.0332506
0.000528563
0.000147538
0.000138668
-0.000286207
0.000112068
-7.91442e-05
-3.29179e-05
-0.0314279
0.0167339
0.0139589
-0.00130795
0.000107478
0.000694819
0.000208759
-0.000903581
-0.0442014
0.0180298
-0.000430548
-0.000293586
-6.76683e-05
-0.000220984
6.83575e-05
0.000152628
0.00673972
-0.00567845
6.88791e-05
-0.000325055
-0.00865095
0.0079939
-0.000421516
0.00111633
8.51395e-05
-0.000121075
0.0116171
0.00777568
-0.0123285
0.0269767
-0.0146483
-7.86679e-05
0.000146739
-0.0012707
-0.00154699
0.000614589
-0.00039656
-0.000218031
0.0341335
0.00988853
-0.044022
-0.000565555
0.000214193
-0.0132373
0.00686545
0.00637181
0.0423747
-0.0547031
-0.0315223
0.0708779
-0.0393556
2.96297e-05
-0.000107342
7.77159e-05
0.023937
0.000503461
0.00164017
-0.0525531
-0.00908114
0.000381363
-0.000320736
0.000179367
0.00034793
9.17464e-05
2.16811e-06
-9.39123e-05
-0.00413947
-0.00366505
0.00780452
-0.000385499
-0.000347105
0.0425561
-0.02846
-0.0140961
0.00165809
0.00303947
-0.00469753
0.00460298
0.00177009
-0.000393043
-0.000172508
-0.0042002
-0.000212245
-0.000161264
0.000805549
-0.011527
0.00227613
0.000102065
-0.000138369
0.000324678
0.000165067
-0.000489741
-0.028343
-0.000156675
-0.000156026
0.00832595
-0.0143253
0.00599939
-0.0011334
-0.00186791
0.00300127
-0.000272137
8.38548e-05
0.000443409
8.64474e-05
-0.000529848
-1.79456e-05
0.000342626
0.000103926
-0.00300091
0.00219386
0.000807038
0.000994122
-0.00173417
0.000740026
-0.00103516
0.000357245
0.000677947
-0.00726755
0.00187812
-0.00278003
0.000901919
-0.000952109
-0.000522204
0.000492398
0.000112498
-0.000129014
7.5063e-05
5.3948e-05
-0.0412772
-0.00640499
0.0183194
-0.0233805
0.00506113
5.86898e-05
-4.36447e-05
-1.5072e-05
0.00102339
0.00183078
-0.00285416
-0.000284475
0.000368575
0.00137917
-0.00150048
0.000121279
-0.00182392
-0.000489198
0.0023131
-0.000132162
0.000575564
-0.00169495
-0.00142677
0.00312171
-1.6278e-06
0.000101121
0.00121518
0.000481899
0.000311075
0.000303508
-0.000940871
-0.000461978
0.0012221
-0.000465463
5.89968e-05
9.61735e-05
0.000803203
-0.000899377
0.0177246
0.00483051
0.0217115
0.0126684
5.94084e-05
-1.68436e-05
-4.25747e-05
-0.125821
0.0136243
-0.000107667
-2.05682e-06
0.0217559
0.00330797
-0.000912381
-0.000236684
0.00024226
3.55323e-05
2.38713e-05
0.000230176
-0.00106316
0.000832975
-0.000533806
-0.00146933
0.0537698
-0.000789253
-0.000245907
-0.000542272
-0.000238671
0.000780944
0.000127105
0.0169767
-0.0143492
-0.00914567
0.00818544
0.000960236
5.95704e-05
-0.000403761
0.000344191
2.32697e-05
-0.000162824
9.42832e-05
-0.000203712
-2.48779e-05
-0.000385347
0.00033943
0.0882481
-0.093117
0.00486893
0.000219478
-0.000133151
3.56675e-05
2.38537e-05
-0.000130635
-0.000534965
0.00197028
2.90918e-05
-0.000120722
9.16367e-05
0.000280541
0.00012821
-0.000408755
-0.000117483
0.000398024
6.25584e-05
-0.000243254
0.00137229
-0.000197593
-6.60947e-06
0.00590282
-0.0100423
8.65779e-05
-7.09879e-05
-1.55887e-05
7.01968e-05
-0.00985268
0.00276331
0.00708936
-0.00107825
-0.00723199
0.00815116
-0.00662002
-6.0638e-05
9.83098e-05
-0.000564252
-0.0368059
-0.0890156
8.79909e-05
1.41626e-05
0.00166493
-0.00109705
-0.00056797
-6.29173e-05
-3.10397e-06
-1.3886e-05
8.33436e-05
0.00029028
-0.00023071
-0.00279313
0.00212557
0.000667505
-0.069138
0.0783556
-0.00921766
0.094928
0.012174
-0.0396746
0.0275007
0.0172293
5.83711e-05
-0.0256585
-2.90565e-05
0.000418597
-0.000138251
-0.000280342
0.000159046
-1.53886e-05
0.0112208
-0.00117691
6.23567e-05
-2.24225e-05
-3.99499e-05
-0.00356132
0.000670575
0.00723599
0.00306147
-0.0154296
-0.0168946
9.06578e-05
0.000327974
-0.000610834
5.80274e-05
0.000552806
0.0128844
-0.0458227
0.0329383
0.000105921
5.1929e-07
-0.000106427
-0.000776818
0.000234553
0.0563362
-0.0395928
-0.00168436
-0.0155296
-0.0189679
-0.000365972
0.000241206
0.000276
0.00562503
-2.91882e-05
-4.66543e-05
7.58497e-05
0.00335057
0.00512721
-0.00847782
-6.55475e-05
0.000111735
0.0386786
-0.000376765
0.000654236
-0.000277436
0.000261226
2.78492e-05
-0.000289065
-0.00775296
0.00395527
0.00119184
0.000168833
-0.01382
-0.055318
8.5022e-05
-5.53908e-05
-0.0295055
8.0253e-05
-0.000114102
3.38587e-05
-0.00334412
0.00164917
-0.00651242
-0.00390983
-0.000331702
-0.0059606
0.00304702
0.00291359
-3.86315e-05
0.000132212
-9.35859e-05
0.000262357
-0.000658373
0.000304929
0.000793237
-0.000437395
-0.000355841
-0.00565658
0.00535302
-0.0234365
0.0356105
-0.0362338
0.0186598
0.017574
-0.000238771
-0.0118658
-0.000619843
-0.001886
0.00250582
0.0138248
-0.00700791
-0.0042598
-0.00428316
-0.0287858
-0.00385383
0.00365563
0.000198204
0.00639107
-0.00794536
0.0015543
-0.00451417
2.10883e-05
6.10896e-05
-0.000308084
-0.000196079
0.000140421
5.56542e-05
0.000300704
-0.000192534
-0.000108165
0.000141351
0.000300854
-0.000156066
0.000356054
-0.000385342
-0.000422596
-0.00127862
-5.36765e-06
4.3907e-05
-3.85444e-05
-0.000387091
-0.00248573
-0.0013681
6.10079e-05
-0.000484765
0.000423758
0.0194787
-0.014537
-0.00494175
0.00479796
0.000383429
-0.00600667
-0.00659609
0.0126027
-0.000586096
0.000514414
0.00314398
0.00569963
-0.00884364
-0.0016072
0.00164962
0.0014319
-0.000216712
0.000113796
-0.000137067
2.32818e-05
-0.00737119
-0.0264079
0.000115413
-0.000168448
0.00116502
0.00174551
-0.00291053
-0.000135312
9.60012e-05
3.93077e-05
-0.0152817
-0.0119832
0.0272649
-0.000127592
8.89595e-05
-0.00797488
-0.00117075
-0.00399518
8.53547e-05
7.27211e-05
7.64228e-05
-0.0649247
0.0260479
0.0388768
0.00135206
-0.000167831
-0.00118426
-7.163e-05
0.000634411
-0.00337061
0.00138695
0.00198366
1.11236e-05
0.000279157
0.000573429
-0.000720633
0.00174092
-0.00244377
-0.00676693
0.0289706
-0.0222036
-0.000666972
0.000366995
-0.00398942
-0.00139153
0.00538096
-0.000965066
0.000316526
0.000648553
0.000550233
6.86066e-05
-0.000618841
0.0279772
-0.0216898
-0.00628736
0.000384566
-0.000203289
-0.071569
0.000480154
-0.000131475
9.59231e-06
0.000121881
-4.21914e-06
4.20899e-05
0.000131669
-0.000173745
-0.000266714
-1.68651e-05
0.000283579
-0.00166762
0.0064187
0.000829443
-0.000559002
-0.000270449
0.00110567
0.000465147
-0.000144372
1.29047e-05
3.35484e-05
5.30148e-05
-3.96464e-05
-0.000156439
0.000401932
-2.05653e-05
0.000525963
-0.000597564
5.48577e-05
0.000331519
-7.02869e-05
0.00820697
-0.0118788
0.0010426
-0.00259725
0.00155466
-0.002328
0.00870052
-2.64827e-05
7.28641e-05
-4.63745e-05