/*--------------------------------*- C++ -*----------------------------------*\
| =========                 |                                                 |
| \\      /  F ield         | OpenFOAM: The Open Source CFD Toolbox           |
|  \\    /   O peration     | Version:  v2012                                 |
|   \\  /    A nd           | Website:  www.openfoam.com                      |
|    \\/     M anipulation  |                                                 |
\*---------------------------------------------------------------------------*/
FoamFile
{
    version     2.0;
    format      ascii;
    class       surfaceScalarField;
    location    "150";
    object      phi;
}
// * * * * * * * * * * * * * * * * * * * * * * * * * * * * * * * * * * * * * //

dimensions      [0 3 -1 0 0 0 0];
oriented        oriented;


internalField   nonuniform List<scalar> 
27551
(
-0.111676
-0.051669
0.163345
0.108005
-0.454387
0.346381
-0.512237
0.268603
0.243634
0.107507
-0.213459
0.105952
-0.292192
0.131051
0.161141
0.12919
0.352903
-0.482094
0.34789
-0.187529
-0.160361
-0.420941
0.120057
0.300884
0.360856
0.0683057
-0.429162
0.142533
-0.223255
0.0807223
0.0559049
-0.171076
0.115171
-0.0880296
-0.106046
0.194076
0.173732
-0.105226
-0.0685059
0.234064
-0.0823912
-0.151673
-0.169203
0.26332
-0.0941176
-0.1258
0.486656
-0.495629
0.338908
0.156721
0.0310278
-0.286424
0.255397
-0.532501
0.267631
0.26487
0.185226
0.162664
0.0880673
0.030746
-0.118813
0.487298
-0.120993
-0.366305
0.357196
-0.535799
0.178603
0.209661
-0.147175
-0.0624866
-0.599183
0.43964
0.159543
-0.26103
0.0918277
0.182621
0.0151498
-0.19777
-0.00592765
0.230034
-0.0767952
-0.153239
0.0991653
0.134899
0.0636993
0.0569344
-0.120634
0.47514
0.0123267
-0.487467
-0.304761
0.197717
0.107043
0.581815
-0.246479
-0.335336
-0.158934
-0.133258
0.49133
-0.338199
-0.153131
0.366532
-0.0358941
-0.330638
-0.147985
-0.0948384
0.242823
0.150437
-0.442908
0.292471
-0.103955
0.162608
-0.0586533
-0.141058
0.0724703
0.068588
-0.316878
0.424883
0.335581
-0.235309
-0.100272
0.143027
-0.35181
0.208783
-0.125319
-0.231302
0.35662
0.0205311
-0.43236
0.411829
0.236653
-0.414848
0.178195
-0.508128
0.341608
0.16652
0.487327
-0.204478
-0.282849
-0.0959076
-0.107702
0.20361
-0.0245414
0.391073
0.480386
-0.472797
-0.00758979
-0.448827
0.0417341
0.407093
0.141747
-0.0834669
-0.0582803
0.0494706
0.129305
-0.178776
-0.0713676
0.135067
0.0259424
-0.129897
0.119032
-0.255266
0.136234
0.0259695
-0.137645
-0.0625388
0.150606
0.129923
0.0577141
-0.187637
-0.450102
0.306963
0.143139
-0.274944
-0.12602
0.400964
-0.40003
0.491171
-0.0911412
-0.196218
-0.336283
0.334211
0.107649
-0.44186
-0.35216
0.496409
-0.144249
-0.128373
0.177843
0.107441
-0.195471
-0.0151727
-0.384857
0.263683
-0.437688
0.174005
0.0667874
0.163246
-0.534296
0.244887
0.28941
0.516923
-0.379598
-0.137325
0.282465
0.204862
-0.407683
0.318625
0.0889557
0.084776
0.124672
0.138649
0.47601
-0.212328
0.392307
-0.11528
-0.277027
0.375266
-0.500584
0.215071
0.0441944
-0.259265
0.478569
0.00872908
-0.345982
0.483979
-0.137997
0.172535
-0.11663
-0.276734
0.468284
-0.19155
-0.0678147
0.137502
-0.069687
0.408926
0.0662145
0.195965
-0.341962
0.145997
0.099127
-0.195035
0.405749
-0.34815
-0.0575987
-0.00155502
0.0012038
0.000351222
-0.135223
-0.0402275
0.175451
-0.210618
0.247448
-0.0368301
0.507473
-0.385225
-0.122248
-0.369256
0.537603
-0.168348
0.0787417
-0.146556
-0.0950686
-0.197556
0.292625
-0.235043
-0.210693
0.445736
-0.343872
0.156343
-0.362729
0.508669
-0.14594
0.41247
-0.217789
-0.194681
-0.179916
-0.163956
-0.360339
0.542918
-0.182578
-0.416381
-0.0965642
0.512946
0.144744
0.339407
-0.15418
-0.249453
0.0988924
0.150561
0.356217
-0.171082
-0.185136
0.338786
-0.0440984
-0.294688
0.197864
-0.123778
-0.0740851
0.103243
0.41368
0.369739
-0.173774
0.229452
0.106129
0.353776
0.154893
0.515931
-0.162155
-0.322266
0.465458
-0.143192
-0.218801
-0.0986874
0.317489
-0.312613
0.122738
0.189875
-0.303633
-0.208604
-0.321409
0.226341
-0.00203647
0.000481456
-0.129687
0.0530544
0.0766322
0.0284361
0.287331
-0.315767
0.29037
-0.188051
-0.102319
0.190843
0.221627
0.179375
0.160031
0.0331019
0.372647
-0.504407
0.308189
0.111853
0.0925366
-0.149362
0.0864209
0.0629414
-0.169586
0.473681
-0.339475
-0.134207
-0.098077
-0.0316096
-0.379188
0.544997
-0.165808
-0.129979
-0.519347
0.371777
0.147571
0.126018
0.0718454
0.239342
0.23434
0.155592
-0.319792
0.448982
-0.306382
-0.212965
0.371948
-0.0331619
-0.0685069
0.19843
-0.203501
0.0957988
0.237594
-0.0802967
-0.157297
-0.0959937
0.0870059
0.305301
-0.530077
0.366195
0.163882
-0.526375
0.375861
0.150515
0.0257002
-0.10783
0.0821302
-0.293977
-0.0845151
0.378492
0.323886
-0.483234
0.159348
0.150736
-0.298721
-0.441703
0.0957212
-0.494251
0.512727
-0.0184762
0.07226
-0.17977
0.10751
0.250503
-0.392357
0.141854
-0.285605
0.417538
-0.131933
0.414799
-0.182682
-0.232117
0.108119
-0.219347
0.111228
-0.0924018
0.0565202
0.0358816
0.168841
0.0687526
0.351316
-0.197213
-0.154103
0.117203
0.0857887
-0.202991
0.390354
-0.139852
0.296787
-0.224546
-0.0722407
-0.264064
0.2925
0.264033
-0.399518
0.135485
0.177553
0.112817
-0.360929
0.147469
0.213459
0.199276
-0.33041
0.224343
0.106067
0.147011
-0.042459
-0.104552
0.14961
0.237462
-0.387072
0.1772
-0.10494
-0.498154
0.0493266
0.000755105
0.00455529
-0.00531039
0.469244
-0.470974
0.00172977
-0.416418
0.130813
-0.0557868
-0.036615
0.239137
0.11708
-0.350208
0.198436
0.151772
-0.459197
-0.0350539
0.348124
-0.178213
-0.169911
0.18046
0.116327
0.00639391
-0.00526708
-0.00112683
-0.312905
-0.123262
0.436167
0.200735
-0.0932939
0.0566286
-0.126429
0.0698
0.172774
-0.272956
0.100181
0.234953
0.116363
-0.323706
0.158165
0.16554
-0.293337
-0.127605
-0.095518
0.239789
-0.144271
-0.233674
-0.216428
0.0757792
-0.19423
0.118451
-0.0129881
0.0772128
-0.0642248
0.254642
-0.505018
0.250376
-0.0944846
0.211687
-0.296646
0.135942
0.160704
-0.000512855
0.00690676
0.297784
-0.518383
0.220599
0.180473
-0.122759
0.525066
-0.294581
-0.230485
-0.556532
0.203956
0.352576
0.141427
-0.40728
0.265853
0.384634
-0.0677907
-0.316843
0.44052
-0.299093
-0.168948
-0.137535
0.306483
0.40424
-0.134497
-0.269743
0.168207
-0.206369
0.287632
-0.081263
0.254008
-0.393739
0.139731
0.079601
0.0222525
-0.101853
0.0640611
-0.120584
0.0565225
0.440194
-0.289756
-0.192756
-0.315372
-0.186798
0.080752
0.143268
0.271531
0.0244691
0.132758
-0.157227
-0.391127
-0.114695
0.505822
0.426011
-0.146003
-0.166897
0.3129
-0.215882
0.0904997
0.125382
0.0825441
-0.301345
-0.25767
-0.0819401
-0.0673991
0.149339
0.264786
-0.0991572
-0.165629
0.345048
-0.248225
-0.0968225
0.257093
0.324722
-0.247685
0.106456
0.141229
0.173101
-0.0567238
-0.116377
0.130519
-0.0509183
-0.12497
-0.0102535
-0.0743001
-0.0667583
-0.125614
0.0580541
0.0675596
-0.19643
0.0916961
0.104734
-0.46446
0.0733331
-3.66005e-05
-0.210582
-0.192427
-0.303202
-0.206519
0.120983
0.085536
0.192607
-0.109491
-0.0831161
0.0575233
0.422863
-0.121747
0.455958
0.205452
-0.480396
-0.17802
-0.159891
0.337911
-0.0869638
0.232923
-0.145959
0.0892172
0.103389
0.0213541
0.393071
-0.414425
-0.166996
-0.184814
-0.2763
0.107352
0.244408
0.211568
-0.455976
0.151575
-0.382239
0.230664
0.128025
-0.397523
0.269498
0.151836
-0.127367
-0.103991
-0.184928
0.448251
-0.263323
0.198834
-0.0997069
0.438378
-0.29511
0.367189
0.163378
-0.530567
-0.44514
0.187525
0.257616
-0.251062
0.379087
-0.477778
0.196805
0.280973
0.260557
-0.388249
0.127693
0.411812
-0.175159
0.119184
0.292817
-0.412001
0.350589
-0.171214
-0.0740256
0.0610375
-0.211359
0.344639
-0.13328
0.344708
0.122737
-0.467445
0.405988
-0.522262
0.363726
0.158536
-0.42685
0.0104686
-0.319539
0.304366
-0.281778
0.400962
0.153939
0.19665
-0.066158
0.12821
-0.0620525
0.534175
-0.166986
-0.371385
0.513746
-0.142361
-0.00366235
0.436003
-0.43234
-0.129714
-0.166932
0.0877733
-0.00163839
-0.0861349
0.432163
-0.292152
-0.140011
0.150847
-0.328867
-0.0352916
0.000412826
0.0348788
0.227137
-0.196109
0.318688
-0.226137
-0.0925512
-0.170085
0.0624834
-0.182384
0.119901
0.394922
-0.134365
-0.221836
0.322605
-0.100769
0.0614438
-0.143384
0.0195711
-0.244117
0.124407
0.209042
-0.333449
0.310275
-0.0808223
-0.277204
0.393221
-0.138579
-0.10665
-0.0897801
-0.0914586
-0.0693769
0.160836
0.337374
0.127211
-0.464584
0.371028
0.0220432
0.323156
0.109007
0.199699
-0.137216
-0.0689851
-0.234285
0.38586
-0.120239
-0.129215
-0.0436235
-0.394065
0.387391
-0.354289
-0.103848
0.441222
0.315738
-0.100667
-0.0905235
-0.125359
0.49203
-0.070612
-0.421418
-0.268568
-0.287964
0.0651845
0.0765628
0.328544
0.154031
-0.264875
-0.215771
0.480646
-0.32917
0.142094
0.187076
-0.149017
0.476978
-0.327961
0.158355
0.106431
0.279761
0.0811563
-0.360917
0.247551
-0.0649309
0.49804
-0.225539
-0.272501
0.478676
-0.333447
-0.14523
0.0659357
0.133763
0.047413
-0.425418
0.378005
-0.159445
0.45723
-0.103336
0.230856
-0.12752
-0.0843584
-0.213605
0.297963
0.325647
0.165683
-0.0481179
-0.135656
0.183774
0.351457
0.127219
0.493175
-0.318039
-0.175135
0.112088
0.430983
0.0150765
-0.446059
-0.00397079
0.181524
-0.491638
0.179247
0.31239
0.354812
0.0584875
-0.413299
-0.139716
-0.09541
0.235126
0.188306
0.127432
-0.122367
-0.206803
0.316934
-0.0291432
-0.287791
-0.20425
0.156132
0.452893
-0.276894
-0.175999
-0.150822
0.247329
-0.237108
-0.0102215
-0.0896003
0.27006
-0.32695
-0.0807338
0.49203
0.218571
0.100116
-0.297682
-0.228694
0.4888
-0.131604
-0.0707828
0.213316
0.0314353
0.355956
0.022379
-0.316356
-0.387727
0.190284
-0.127974
-0.195732
-0.0748509
0.429663
-0.280506
0.244612
0.0959829
0.214292
-0.0250701
0.464216
-0.439146
0.163136
-0.167107
0.152507
0.0813844
-0.233891
0.122639
-0.0645848
0.0330404
-0.172756
0.376132
-0.267663
-0.108469
0.292218
-0.181207
-0.111011
0.0962891
0.208231
-0.30452
-0.536395
0.349176
0.187219
0.250152
-0.0969061
-0.153246
0.307721
0.185454
0.207258
-0.520163
-0.465618
0.0963621
0.349537
-0.199664
-0.149873
0.0849967
0.104111
-0.189108
-0.425318
0.132103
0.293214
0.151991
-0.136841
0.236346
-0.16515
-0.0711968
0.195112
-0.0832585
-0.350521
0.215349
0.135172
0.0792156
0.0938852
0.395196
0.0357868
-0.106537
0.197452
-0.0909146
0.224359
-0.323047
-0.317294
0.122999
0.194296
0.0541615
0.118373
-0.133237
-0.25839
0.391626
0.126777
0.165441
-0.086111
-0.126823
0.0533124
0.0735106
0.270658
-0.403894
0.0196407
-0.0787255
0.0590848
0.323129
-0.448173
0.125044
0.175452
-0.109516
0.442437
-0.20105
-0.241387
0.0744519
0.0630498
0.114453
-0.499678
0.336124
-0.133814
-0.20231
0.235469
0.0118606
-0.177243
-0.172965
0.36574
-0.534675
0.168935
0.184594
0.164943
0.295542
-0.158176
-0.137367
0.192787
0.0893735
-0.282161
-0.284279
-0.314904
-0.151077
0.270109
-0.252427
0.382594
-0.130167
-0.145453
0.439421
0.021645
-0.461066
-0.448734
0.169701
0.279032
0.142646
-0.445149
0.302503
-0.325176
-0.0973037
0.422479
0.12549
-0.377917
0.330918
-0.20651
0.312655
-0.280982
-0.0316737
-0.284222
0.49148
0.132384
-0.445655
0.313271
-0.143763
-0.173531
0.399755
-0.135721
-0.418953
0.275647
0.143306
-0.345788
0.146125
0.393388
-0.242536
-0.150852
0.505599
-0.139859
0.475417
-0.19239
-0.283027
0.212726
-0.0602194
0.098383
-0.257485
0.159102
-0.333561
0.380974
0.333125
-0.275361
0.348569
-0.0732082
-0.470713
0.237039
-0.122454
0.212954
-0.190354
0.121847
-0.315147
0.493269
-0.178121
-0.277526
0.200591
0.076935
-0.0440801
0.48372
0.190452
-0.311086
-0.193321
0.136406
-0.404094
0.267687
-0.330589
0.500168
-0.169579
0.114852
0.0606736
-0.175525
-0.25989
-0.0858986
-0.26667
0.403076
-0.00951632
-0.0257753
-0.182095
-0.266638
0.144809
0.280364
-0.425173
0.256171
-0.393452
0.137281
0.231051
0.162338
-0.446498
0.29636
0.150138
0.539687
-0.211558
-0.328129
-0.489506
0.187244
0.302262
0.0919901
-0.0723494
0.454781
-0.131653
-0.486254
0.107066
-0.312556
0.49518
-0.182624
-0.42153
0.300537
0.162861
0.166484
-0.226711
0.0602261
-0.124287
0.265683
0.046972
0.134832
0.204752
-0.339584
0.331072
-0.106713
-0.00119203
-0.205177
0.310794
-0.496592
0.185798
-0.487417
0.305477
0.18194
0.127958
-0.0638965
-0.265159
-0.127813
0.392973
-0.132079
-0.443222
0.146879
0.296343
-0.462833
0.137657
-0.52896
0.309331
0.219628
0.109054
-0.461215
0.534745
-0.22395
-0.448569
0.228975
0.219593
0.372106
-0.188304
-0.183802
-0.536591
0.240658
0.295933
-0.139444
0.207162
-0.442205
0.33857
0.125672
-0.464242
0.447963
0.290271
0.163372
-0.453644
-0.0730785
0.140842
-0.0677633
-0.313448
-0.223143
0.0746528
-0.160068
0.085415
0.206852
-0.491074
-0.183383
-0.0015075
-0.38263
0.384137
-0.0592235
-0.0675994
0.103011
-0.120556
-0.297434
0.41799
0.385393
0.0540275
0.137874
-0.063422
-0.125157
0.444081
-0.318924
-0.105395
-0.0992404
0.204635
0.097849
-0.164959
0.0671098
0.0390379
-0.376703
0.337665
-0.140331
-0.251575
0.391906
0.140664
-0.0882404
-0.052424
-0.433021
0.307863
0.301123
-0.246195
-0.0549281
0.457801
0.0392346
-0.497036
0.164892
-0.0834837
-0.0814084
0.400884
0.0320097
-0.432894
-0.111154
0.178967
-0.067813
0.487623
0.00185178
-0.489475
-0.29459
-0.234369
0.00558916
-0.417764
0.412175
-0.083039
-0.292793
0.375832
-0.269856
0.375781
-0.105924
0.327764
-0.0266411
0.368951
-0.249965
-0.118986
0.303653
-0.00244631
-0.108708
0.152048
-0.0541995
-0.18348
-0.220504
0.403984
0.181819
-0.489356
0.307537
0.0880608
-0.0658083
0.275498
-0.457593
0.153867
0.222265
-0.40549
-0.300252
-0.236143
0.18883
-0.146931
-0.130595
-0.437416
0.354377
-0.0825781
-0.0667842
-0.113002
0.244799
-0.131797
-0.457841
0.185782
0.272059
0.0606447
0.24813
-0.308775
0.48872
-0.0810923
-0.407627
-0.121226
0.288311
-0.167084
-0.132769
-0.310453
-0.395618
0.416149
-0.289923
0.40998
0.160997
-0.106836
0.117559
0.36162
-0.47918
-0.298145
-0.189272
0.12552
-0.442431
0.316911
-0.0887561
-0.283501
0.372257
0.415915
0.0728046
-0.172093
0.308035
0.0807778
-0.181372
0.100594
0.354157
-0.00354819
-0.350609
0.480753
-0.298933
0.145041
0.357652
0.0432319
0.31974
0.107064
-0.426805
0.0608886
0.0925567
-0.153445
0.0641708
0.0809924
0.349768
-0.49015
0.140382
0.131263
0.0871874
-0.21845
0.13295
-0.0677658
-0.0956939
-0.478862
0.322594
0.156267
0.317589
-0.502518
0.133248
-0.384824
-0.489142
0.175668
0.313474
0.277378
-0.104604
-0.446664
0.313895
0.440555
-0.315035
0.263172
0.148639
0.106865
-0.429132
0.0710472
-0.212468
0.141421
0.0827143
0.0821778
0.146613
0.378453
0.0143122
-0.0159428
0.353042
-0.474789
0.234883
0.110165
-0.25409
0.0958607
0.158229
-0.143167
0.324199
-0.181033
0.105428
-0.0746822
-0.118126
-0.135964
-0.106242
0.103796
-0.219926
0.354582
-0.119699
-0.0546844
-0.0702856
0.014187
-0.0818783
0.170834
0.15565
-0.301653
-0.542104
0.192102
0.350002
-0.492053
0.245453
0.2466
0.388945
-0.357509
0.436102
-0.499632
0.0635295
0.244453
0.124498
-0.0146743
0.102448
-0.468523
0.0361632
0.332726
-0.334234
-0.38522
0.261975
0.123246
-0.193957
-0.122053
0.31601
-0.238098
0.152882
0.0852168
-0.153796
-0.0923886
0.246184
-0.133202
0.173804
-0.274027
0.100223
0.31708
-0.201181
-0.1159
-0.363214
0.169511
0.193704
-0.197286
-0.292221
-0.269645
-0.0057161
0.143117
0.322341
-0.0794103
0.396344
-0.0510747
0.405232
0.296162
0.158619
-0.298047
0.48281
-0.184763
0.385396
-0.0622947
0.342055
-0.337307
0.514943
-0.177635
-0.506917
0.16961
0.243774
-0.136878
-0.106896
0.403536
-0.452959
0.049423
-0.188316
0.400144
-0.109873
0.384178
0.0193575
-0.0799531
0.537754
-0.261149
0.394397
-0.0385079
-0.0352666
0.0737745
-0.362351
-0.129286
-0.292003
-0.107752
0.399755
-0.479493
0.279028
0.200465
-0.377731
0.207696
0.170035
-0.115074
0.199
-0.0839254
0.243406
-0.468978
0.333245
0.135733
-0.132891
-0.0849574
0.217848
0.111936
0.278431
-0.390368
0.0649953
0.253471
-0.318466
0.141898
0.295724
-0.437623
0.28556
-0.0927723
-0.339577
-0.101607
0.441184
0.0373168
-0.248676
-0.263935
0.40582
-0.141885
-0.539016
0.379554
0.159462
0.149649
0.202579
-0.352228
0.307878
-0.119572
0.524525
-0.334569
-0.189956
-0.327962
0.302892
-0.320212
0.215276
0.104936
0.0787026
0.430094
-0.270668
-0.159426
-0.197295
0.253554
-0.0951991
-0.227311
-0.23053
-0.183244
-0.194487
0.087127
-0.0614269
-0.0736847
0.271402
-0.145102
-0.281665
0.426767
-0.0871596
0.156372
-0.0692122
0.509677
-0.330296
-0.179381
-0.0460973
0.153624
-0.107527
-0.302636
-0.227441
0.0644324
-0.190071
-0.173143
0.311295
-0.2463
-0.107815
0.281619
0.241456
0.268221
0.24202
-0.39342
0.151399
-0.175059
0.00398297
-0.420532
0.159383
-0.0664312
-0.123923
0.44086
-0.465542
0.0246825
0.295668
-0.258894
-0.0367741
0.0043518
-0.151526
-0.141325
-0.0967734
-0.43262
0.438209
0.432009
-0.289363
-0.358613
0.0660926
0.0466568
0.11434
0.0773694
-0.360871
0.424522
-0.306963
0.249795
0.1803
-0.105845
0.246524
0.129257
-0.191962
0.125531
-0.347509
0.488774
-0.141265
0.38576
-0.139236
-0.126904
-0.0796153
0.0463103
0.26141
-0.133505
0.484962
0.332728
0.116459
-0.449187
-0.277006
-0.168135
0.186463
-0.105686
0.395807
0.0734363
-0.121395
-0.094493
0.215888
-0.146685
-0.108581
0.290504
-0.244194
-0.340484
0.195263
0.145222
-0.467641
0.293193
0.174448
-0.0539533
0.126424
-0.178272
-0.31832
-0.14831
0.444473
-0.236627
0.391598
-0.149577
0.232179
-0.231192
-0.000987049
-0.089202
-0.302856
0.392058
-0.377661
0.288459
0.114472
-0.355024
0.240551
-0.397653
0.214173
0.0214676
0.0683461
-0.0898136
0.00334958
0.0868037
-0.154203
0.198385
0.32614
0.0366153
0.174335
-0.21095
0.153873
-0.0792202
-0.307783
-0.17822
0.100119
-0.152909
0.0527897
0.158916
-0.112259
0.0670922
-0.157412
0.0903199
0.224397
0.310348
0.254023
-0.395566
0.141543
0.0586503
0.247515
-0.148622
-0.458362
0.127773
0.183394
0.0935248
-0.276919
0.0820373
0.142377
-0.224415
-0.423181
0.278079
-0.0455072
-0.162459
0.207967
0.195539
-0.104846
-0.0906932
0.3656
-0.251128
0.257079
0.0385896
0.0766235
-0.29846
-0.141546
0.0721177
-0.163576
-0.131617
0.0690778
-0.25203
0.374599
-0.122569
-0.405797
0.141863
-0.299871
-0.148698
-0.505758
0.230919
0.274839
-0.443925
0.291019
0.152906
-0.0245979
0.0871317
-0.0625338
-0.281361
-0.519041
0.212176
0.306865
-0.0603584
0.146396
-0.0860379
-0.183511
0.0915151
0.0919955
0.363459
-0.251522
0.0515855
0.0337183
-0.0853038
-0.181208
0.0896961
0.0915122
-0.187168
0.223783
-0.405203
-0.0796252
0.40817
-0.232261
-0.259175
0.491436
-0.430608
0.136027
0.157123
-0.433105
0.275982
0.200932
-0.155072
-0.0458595
-0.165362
0.462886
-0.32636
-0.136526
0.398624
-0.493777
0.0951534
0.0848127
-0.145171
-0.285077
0.353523
-0.0684459
0.473241
-0.246282
-0.226959
-0.0370627
0.137182
0.300967
0.459868
-0.0774824
-0.382385
-0.096496
-0.0847123
0.12901
-0.339535
0.210525
0.0981271
0.0883362
-0.509543
0.233886
0.275657
0.179088
-0.512535
0.0921806
0.174195
-0.266375
-0.291258
0.128546
0.072386
0.121754
0.12202
0.126422
0.318665
-0.445087
0.09377
-0.017439
-0.076331
0.443023
-0.123283
-0.225905
0.0828234
0.143082
-0.103161
0.286555
0.503773
-0.192891
-0.310882
-0.0889464
0.171062
-0.0821158
0.132534
0.12102
-0.0849132
0.152005
-0.152132
-0.465855
0.375175
0.0906802
0.544499
-0.191596
0.0655414
0.0649779
-0.303914
-0.175579
0.0673219
-0.121978
0.0546562
0.274355
-0.111219
-0.102362
0.236821
-0.13446
-0.0478192
-0.258924
0.428625
-0.247446
-0.039141
0.286587
0.263341
0.142479
-0.45219
0.220888
-0.0493987
0.281578
-0.201596
-0.148925
0.00108789
-0.372473
0.104489
0.108237
0.411351
-0.275386
-0.135966
-0.272251
0.15043
0.12182
-0.27539
0.168085
0.107305
-0.34729
0.226228
0.121062
-0.361652
0.130861
0.230791
-0.268556
0.437272
-0.168716
-0.203023
-0.30652
0.427715
-0.145799
-0.281916
-0.329271
-0.136347
-0.233421
0.137903
-0.130496
-0.335359
0.138327
0.293682
0.244886
0.0995806
-0.344466
0.389337
-0.255119
-0.134218
-0.261992
0.458797
0.311947
-0.264074
-0.0478735
0.116678
0.157677
-0.327054
-0.121287
0.448341
0.065948
-0.224094
0.158146
-0.0267861
0.0119041
0.014882
-0.204613
-0.289656
0.494269
-0.470189
0.301721
0.168468
-0.0123985
0.0131536
-0.0849131
-0.242344
0.449506
0.43848
-0.299165
-0.139316
0.166991
-0.0842769
0.0931038
0.304219
0.123496
0.444568
0.00713452
-0.451702
0.332784
0.162396
-0.140535
-0.206755
-0.0817402
-0.0260902
0.399834
0.0386461
-0.418398
0.170952
-0.139655
0.402996
0.437728
-0.1902
-0.247527
0.178935
-0.476982
-0.0864667
0.201318
-0.545659
0.209845
0.335814
-0.339542
0.212474
0.127069
0.314516
0.128507
-0.14167
-0.0627205
0.204391
0.173667
0.264061
0.474065
-0.259043
-0.215022
-0.213164
0.434672
-0.221508
0.165431
-0.155968
-0.296222
0.0799174
0.0990498
-0.470321
0.426241
0.123
-0.415004
0.510037
-0.221841
-0.288196
0.281094
0.0876342
-0.368728
-0.297241
-0.225021
-0.184083
-0.0540911
0.238174
0.0584049
-0.127828
0.0694231
0.164089
0.0722577
0.44565
-0.131133
0.321319
-0.185857
0.264949
0.124387
-0.142625
0.0647954
-0.101138
0.467333
-0.130395
-0.35258
0.482975
0.0953402
0.16484
0.3332
-0.0476716
-0.151831
0.199502
-0.132335
0.193989
-0.061654
0.457683
-0.124956
-0.0803564
-0.261912
0.342268
0.348631
-0.479026
0.12214
-0.455888
0.137143
0.318745
-0.21335
0.318087
-0.104737
0.173129
-0.0482169
-0.124912
0.151779
0.0595087
0.0736307
-0.133139
-0.337414
-0.410366
0.4521
-0.238666
0.496168
-0.312674
-0.183494
0.143407
0.0920624
-0.141493
0.435734
-0.29424
-0.345289
0.255838
0.089451
-0.471639
0.177285
0.294355
0.352423
-0.50144
-0.0261736
0.128438
-0.102264
0.0613621
-0.207869
0.146507
0.253043
-0.3334
0.29445
-0.168176
-0.126274
-0.238764
-0.160754
0.114987
-0.205511
-0.339605
-0.206054
-0.528309
0.263434
0.240041
-0.455812
0.130564
0.341697
0.143134
-0.484831
-0.0295075
0.081093
0.042171
0.269776
-0.289859
0.292808
-0.00294868
0.102441
-0.19695
0.43523
0.000872468
-0.289869
0.428196
-0.238041
0.250914
0.292004
-0.280904
-0.00895579
-0.100706
-0.130821
0.231527
0.120025
0.20258
-0.245286
0.151781
0.0213486
0.403599
-0.172896
-0.230703
-0.305032
-0.138462
0.0837777
-0.0752518
0.0153766
0.0598752
-0.55113
0.22057
0.33056
-0.075289
0.425057
0.132743
0.171974
-0.173166
0.443213
-0.298405
-0.201491
-0.122717
0.324207
0.249119
0.350801
-0.413095
0.150857
0.266681
0.1071
0.247481
0.110031
0.209894
-0.319925
0.103257
-0.373308
0.27005
0.366853
-0.263596
-0.0867855
0.354416
0.18646
0.0464626
-0.190135
-0.0869337
0.368028
-0.016987
0.188714
-0.171727
0.13063
-0.208805
0.0706388
0.138166
0.117145
-0.049823
-0.0693349
0.190318
0.0888138
0.47745
-0.354713
0.20581
-0.103368
-0.258316
0.229173
-0.0862259
0.147159
-0.060933
0.228941
0.115698
0.29453
-0.0496443
-0.254726
-0.296404
-0.127012
-0.0784072
0.205419
-0.274504
0.0305224
0.243981
-0.0534419
0.00569033
-0.276627
0.270936
-0.000711795
0.337941
-0.261133
0.31166
-0.520826
0.207952
0.312873
-0.202646
0.331656
-0.00173219
0.0955022
-0.423105
0.273428
0.149677
0.0145935
-0.0980604
-0.0749097
-0.0851582
0.222052
-0.404734
-0.258947
0.14082
-0.380857
-0.0104863
0.391344
-0.424073
0.229678
0.194395
-0.422221
0.169466
0.252755
0.252926
0.150674
0.23903
0.220818
-0.0774111
-0.0498439
0.136265
-0.167902
-0.0895838
-0.0875165
0.0629186
0.271143
0.115597
-0.38674
-0.124277
0.0593313
0.0649453
0.240306
-0.179661
0.0995936
-0.209343
0.163408
0.045935
-0.447358
0.211351
0.236007
-0.0917254
0.196215
0.096689
-0.218084
-0.255751
-0.0187531
-0.389046
0.175882
-0.184119
-0.103308
0.438802
-0.335494
0.165171
0.129279
-0.198746
0.0841099
0.0784983
0.346413
0.204027
-0.55044
-0.124934
-0.278138
0.403072
0.0360051
0.327453
-0.120111
0.495786
-0.201861
-0.293924
0.0669241
0.0612864
-0.271783
0.277473
-0.0165307
0.0155099
0.00102082
-0.373808
-0.0515091
-0.194256
0.0339711
0.160284
0.449693
-0.175173
-0.186479
-0.355903
0.53515
0.48013
-0.341718
-0.138412
0.242464
-0.169818
-0.0726455
-0.0595046
-0.192054
0.190472
0.282769
0.371588
-0.293961
-0.0776267
-0.517892
0.353561
0.164331
-0.204703
-0.247952
0.0941561
-0.313514
0.500758
-0.443919
0.104342
-0.231075
0.365637
-0.134562
0.205118
0.359305
0.120825
0.0445906
-0.423775
0.379185
-0.0749925
0.13629
-0.0612977
0.0362834
-0.0747913
-0.0940185
0.183761
-0.0897421
0.361079
-0.442171
-0.122292
0.0639378
0.0583544
-0.118643
-0.104613
-0.107122
0.222109
-0.413368
0.27557
0.137798
-0.0114539
-0.0153322
0.148158
-0.277873
-0.171177
-0.226894
0.398072
0.277847
-0.400756
0.122909
-0.0702092
0.122756
-0.0525469
0.276573
-0.401507
-0.0383378
-0.036914
0.151942
-0.0678319
-0.26998
-0.269036
-0.320813
0.167097
0.153716
-0.194005
0.102761
0.0912438
-0.067305
-0.124657
0.487397
-0.342735
-0.144662
-0.571841
0.317115
-0.3036
0.0886219
-0.195159
-0.132893
0.0950781
-0.183438
0.08836
0.181777
-0.303003
0.47609
-0.193498
-0.282592
-0.298554
0.128865
0.169689
0.437684
0.0180213
-0.455705
0.0840025
-0.235283
0.151281
0.0740373
0.243043
-0.0987391
0.183736
0.264769
0.227512
-0.492281
-0.116348
-0.370354
0.181483
0.188871
-0.328674
-0.125152
0.453827
-0.103191
-0.0781812
-0.486147
0.339276
0.14687
0.214752
-0.425446
0.546062
-0.281292
0.172021
-0.189008
0.0717119
0.299876
-0.482864
0.0125426
-0.196544
0.129239
-0.24776
-0.267249
-0.180109
-0.169184
-0.171301
-0.340294
0.501435
-0.161141
0.147103
-0.152391
-0.203939
-0.122714
0.326654
0.0816904
-0.00447754
0.392889
-0.138865
-0.0339259
-0.20861
0.321779
0.158973
-0.227283
-0.112259
-0.0771898
0.1472
-0.0700102
-0.320927
-0.299821
0.0746443
-0.217856
0.143211
-0.317195
0.488521
-0.171326
0.409577
0.208203
-0.164009
0.036504
-0.417361
0.158243
0.0892719
0.0617171
-0.129696
0.067979
-0.329245
-0.129117
0.361212
-0.256779
-0.104433
0.259144
0.135778
-0.0639557
0.0562832
0.00767253
0.481153
-0.139455
0.280631
0.13072
-0.134109
-0.142857
0.48561
-0.0213932
-0.323416
-0.123082
-0.299914
0.132006
0.167909
0.038594
0.146678
-0.185272
-0.263562
-0.132004
0.475125
-0.330244
-0.14488
-0.488569
0.189949
0.29862
-0.263996
0.0329211
0.169128
0.109004
-0.447203
0.232206
-0.371423
0.139217
0.208945
0.122126
0.180926
0.315242
0.285105
-0.455013
0.169908
-0.189342
0.0893821
0.0512823
-0.27697
0.392351
-0.115381
0.324495
-0.139901
-0.109455
-0.217264
0.133316
0.0839478
0.165312
0.159183
-0.143403
-0.345739
-0.0931147
-0.209509
-0.225628
0.435136
0.278432
-0.388327
0.109894
0.332889
0.142236
0.318187
-0.147564
-0.170623
0.146265
0.084591
0.19655
-0.0125704
-0.18398
-0.0319842
0.40866
0.301501
0.0597109
0.0172853
0.0324563
-0.0497416
-0.071528
-0.0673859
0.138914
-0.0945228
0.372955
-0.0564366
0.162167
-0.104788
0.141755
0.250293
-0.392048
-0.137824
-0.0161179
-0.327396
0.481392
-0.153997
-0.210653
0.0777626
0.142534
-0.0808173
-0.0347443
-0.140314
0.300413
-0.0405632
-0.259849
0.292341
-0.396442
0.104101
0.197117
-0.000566879
-0.462037
0.219693
0.158363
0.127196
0.321521
-0.171872
-0.302712
0.428412
-0.1257
0.2884
0.257661
0.324684
-0.0802306
-0.337856
0.208656
0.1292
0.376462
-0.491157
0.122223
0.341613
-0.463837
0.42359
0.0243898
-0.44798
0.172746
0.318425
0.138075
0.339909
-0.477984
-0.327145
-0.329074
0.399242
-0.118611
-0.0940343
0.469895
-0.318963
-0.170393
0.249404
0.224661
-0.103499
0.467225
-0.157287
0.389494
0.279133
-0.313058
-0.143252
0.269713
-0.126461
-0.231644
0.330785
-0.0991411
0.300173
-0.326815
0.127095
-0.0709249
-0.0561696
0.474263
-0.202574
-0.271689
-0.408366
0.198857
-0.162701
0.367453
-0.488886
0.0296886
0.24733
-0.176663
-0.0706664
0.103887
-0.297843
-0.143355
0.225392
0.324412
-0.487768
0.163356
0.0647205
0.062374
0.104197
0.459738
-0.122618
-0.176243
0.184227
-0.00798333
0.508561
-0.184149
-0.53313
0.219234
0.313896
-0.241466
0.323891
-0.476261
0.15237
0.324741
0.108426
-0.433167
-0.12589
-0.318641
0.464465
-0.145823
0.174922
-0.0798437
-0.373975
0.237551
0.136424
-0.458145
0.155433
0.387301
0.0572671
-0.0130841
0.439325
0.467495
-0.0901257
0.461902
0.400971
-0.275217
-0.125754
0.00443906
-0.114929
0.11049
0.123524
-0.413393
0.298243
-0.0308792
-0.267363
-0.059751
0.338779
-0.285519
0.432398
-0.201614
0.362398
-0.36606
0.127932
-0.435714
-0.300027
-0.233103
-0.481658
0.296608
0.18505
-0.48869
-0.0884801
0.186607
-0.317867
0.443539
-0.072409
-0.111101
-0.17935
-0.20587
-0.458061
0.256152
0.201909
0.242556
-0.575882
0.333326
0.174811
0.299452
0.140731
-0.354335
0.0745092
0.120603
-0.141749
-0.0994997
0.241248
0.199055
-0.160461
-0.0709131
0.157717
-0.195583
-0.262478
-0.344869
0.222152
-0.0769815
0.169538
-0.121081
0.220246
-0.239939
-0.236858
0.476796
0.284995
0.115976
-0.13217
0.159659
0.198607
0.11958
-0.198302
-0.0739481
0.278479
0.0197633
0.0326394
0.217842
-0.250482
-0.0981299
-0.139184
0.209823
0.187925
-0.516599
-0.0110419
-0.0625819
0.0736238
-0.309355
0.0874913
-0.386584
0.0521903
0.247983
0.318281
-0.14499
-0.0822558
0.227246
0.127821
0.25302
-0.38084
-0.0930155
0.454095
0.44243
-0.334781
-0.316115
-0.130549
-0.292119
0.469403
-0.332282
-0.137121
0.0837636
-0.170949
0.0871851
-0.0635596
-0.0587326
-0.317796
0.421814
-0.104018
-0.269182
0.397758
-0.128576
-0.198942
-0.138914
0.298349
0.171054
0.260732
0.0396806
0.26679
-0.326541
0.139823
0.0692131
-0.209036
-0.423096
0.105301
0.187385
0.305883
-0.308335
0.456449
-0.148114
0.0675182
-0.140245
0.0727264
-0.200187
-0.20146
-0.0078837
0.418577
0.0584013
0.155269
-0.0658872
-0.231104
0.143674
0.0874291
-0.133212
-0.129642
0.0546493
0.117949
-0.405433
0.287484
0.0431202
-0.175455
-0.165464
0.171034
-0.00557043
0.42446
-0.015534
-0.00184324
0.0771485
-0.0753053
-0.168968
-0.309894
0.129914
0.200225
0.268059
0.0384256
0.319887
-0.358313
-0.0390179
0.307621
0.00439925
-0.15623
-0.11659
-0.261739
0.378329
-0.226476
0.354297
-0.129497
0.478128
0.501682
0.426923
-0.285025
-0.209908
0.00134506
-0.177588
-0.0588467
-0.047186
0.106033
-0.0826875
0.22136
-0.133664
-0.0876958
-0.32758
-0.14614
0.47372
-0.454382
-0.0494616
0.1086
-0.0591379
0.0514424
-0.121876
0.0704333
0.149802
-0.211048
0.0612461
0.307134
-0.518692
-0.286145
-0.0902383
-0.0562324
0.146471
0.425338
-0.505291
-0.178057
0.0849076
0.0931492
0.247549
-0.372846
0.125297
0.288918
0.159334
0.439727
-0.00372399
-0.474677
0.122097
-0.426513
0.151296
-0.157348
0.240428
-0.0830806
-0.0921644
-0.138939
-0.238935
-0.319312
0.558247
0.12714
0.385587
-0.364537
0.211236
0.153301
0.118512
0.102847
-0.138575
-0.0609822
0.199557
-0.316133
-0.204692
0.256609
-0.324399
-0.184187
0.0876911
-0.228209
0.0797326
0.148476
0.255046
-0.159546
-0.0954994
-0.24009
0.147926
-0.179454
0.0854351
0.257145
-0.224506
-0.266058
0.234966
-0.436016
0.0621224
0.0550225
-0.0014078
-0.179799
0.110705
-0.106266
0.0805361
0.073337
0.166117
-0.420673
0.47916
-0.184082
0.204938
0.310005
-0.089557
-0.0905429
0.1801
0.145266
0.265969
-0.411235