/*--------------------------------*- C++ -*----------------------------------*\
| =========                 |                                                 |
| \\      /  F ield         | OpenFOAM: The Open Source CFD Toolbox           |
|  \\    /   O peration     | Version:  v2012                                 |
|   \\  /    A nd           | Website:  www.openfoam.com                      |
|    \\/     M anipulation  |                                                 |
\*---------------------------------------------------------------------------*/
FoamFile
{
    version     2.0;
    format      ascii;
    class       volScalarField;
    location    "350";
    object      k;
}
// * * * * * * * * * * * * * * * * * * * * * * * * * * * * * * * * * * * * * //

dimensions      [0 2 -2 0 0 0 0];


internalField   nonuniform List<scalar> 
18618
(
0.00115214
0.0422673
0.000131941
0.0248959
0.000143946
0.000452585
0.000163067
0.0444193
0.000157715
0.000144175
0.000157608
0.000132049
0.0243801
0.00014298
0.000143783
0.000134515
0.000143631
0.0564249
0.000141179
0.000158501
1.86137e-05
0.000135699
0.000134336
0.000191089
0.000146399
0.000204238
0.00090573
0.000141991
0.000137094
0.000141832
0.000142979
0.000161099
0.000145765
0.000218655
0.00755915
0.000149898
0.000146994
0.00127113
0.000157852
0.000141686
0.000357163
0.00065463
0.000137329
0.000496383
0.000166548
0.000151653
0.0437945
0.000134245
0.000336882
0.0436074
0.000142326
0.000149423
0.00695341
0.000363347
0.000144417
0.0401986
0.000143377
0.000157863
0.000210549
0.000157729
0.000142089
0.000144039
0.000157032
0.000144178
0.000256608
0.0237439
0.000139363
0.000163092
0.000135087
0.00996082
0.00015714
0.000403144
0.000180589
0.0728698
0.000144287
0.000161472
0.000255547
0.0478449
0.000134919
0.0116256
0.102289
0.0494725
0.0677093
0.000148311
0.000145719
0.000137245
0.000200508
0.000144141
0.000178768
0.054331
0.000180875
0.000368238
0.000439016
0.000253398
0.0033246
0.000161761
0.00014818
0.00764179
0.00014314
0.000132577
0.00278152
0.000144057
0.000278157
0.000161474
0.000165146
0.00121825
0.000143795
0.000133549
0.000253563
0.000135645
0.0102109
0.000139893
0.000150224
0.000141309
0.000146305
0.000132847
0.000140511
0.000995283
0.000142805
0.000224612
0.00791513
0.000150171
0.0385482
0.0509835
0.00155827
0.000284975
0.000394502
0.0707466
0.000159813
0.00018751
0.00019577
0.000139751
0.049701
0.000304181
0.000145991
0.000141174
0.000152491
0.000144879
0.0379173
0.000142494
0.000151506
0.0001433
0.000143952
0.000147781
0.000136154
0.000198711
0.000147287
0.000142247
0.00102687
0.000163995
0.000142982
0.00211037
0.0411155
0.000133842
0.000137429
0.00526327
0.000372058
0.0424599
0.000198052
0.000134493
0.000135896
0.00862868
0.000144771
0.000319642
0.000136187
0.00706486
0.00013741
0.000142667
0.101031
0.000149958
0.000144751
0.000133474
0.000197459
0.000181065
0.0405118
0.000162236
0.000369165
0.0668516
0.000133254
0.000135342
0.000174056
0.000182028
0.000149822
0.000148815
0.000390344
0.000148132
0.000153449
0.00017271
0.000392933
0.000535921
0.000152072
0.000180583
0.0397488
0.00014255
0.000253175
0.000237626
0.000174665
0.00801213
0.000150926
0.0410624
0.000273188
0.000410554
0.00015819
0.000155118
0.0976634
0.0599557
0.0140073
0.00211698
0.000151636
0.0107637
0.000279287
0.000148896
0.00175624
0.000440572
0.00014877
0.000149324
0.000286597
0.0989962
0.000150069
0.00522712
0.000152502
0.000153942
0.000148282
0.000227073
0.000170421
0.000167071
0.000152067
0.000136144
0.00750724
0.000194266
0.0048351
0.000320282
0.000155028
0.000163164
0.000142382
0.000185962
0.000157909
0.000199602
0.000149277
0.00267434
0.000171389
0.000159948
0.000147413
0.000178293
0.00234991
0.000149798
0.000193689
0.0583093
0.000149789
0.000159402
0.00539058
0.000351688
0.000155078
0.00698997
0.00015187
0.000137239
0.000152162
0.000201681
0.000143762
0.000188295
0.000227507
0.000151992
0.000288738
0.0523573
0.000378386
0.000151377
0.000168113
0.000307379
0.000152101
0.000156306
0.000162386
0.000134141
0.000142048
0.00014208
0.000134337
0.00517299
0.000159807
0.000134427
0.0929544
0.000141887
0.000153821
0.000133927
0.00450418
0.0612694
0.000167243
0.010654
0.000149376
0.000194071
0.000135274
0.00022583
0.000141556
0.000158367
0.000145104
0.000149481
0.000342643
0.000136125
0.000143536
0.000150328
0.00613936
0.00094861
0.0118257
0.0103466
0.0546087
0.000187805
0.000199011
0.0469589
0.00767296
0.000149751
0.000150383
0.000181472
0.000145183
0.000163395
0.000154125
0.000142231
0.000163329
0.00771717
0.0140712
0.000138955
0.0001511
0.000152284
0.000162953
0.000269032
0.000171703
0.00779162
0.000151251
0.000260946
0.0111588
0.000134507
0.000187389
0.000146366
0.000143885
0.000141226
0.000178504
0.000144909
0.000172804
0.000151326
0.000350266
0.000181997
0.0148994
0.0379294
0.000141493
0.0874388
0.000165696
0.000131289
0.000135466
0.000162753
0.000260671
0.000154695
0.0130267
0.000151832
0.00939314
0.000200561
0.000154189
0.000143813
0.0416671
0.000227358
0.000138679
0.000295975
0.000134266
0.000184508
0.00744457
0.0342504
0.000240137
0.00025989
0.0366913
0.0155484
0.000145547
0.000156727
0.000135474
0.000136091
0.000145688
0.00014468
0.0135196
0.00939428
0.000135975
0.000150046
0.0132556
0.000142639
0.000317693
0.000173519
0.000176137
0.000160442
0.0896699
0.00333271
0.000141121
0.000150631
0.000137229
0.000281749
0.000136573
0.000143735
0.000135506
0.000275848
0.000151434
0.000135453
0.0943895
0.0165182
0.000221692
0.0137892
0.000135912
0.0001589
0.000150415
0.0144702
0.000358163
0.000617661
0.000137
0.0925946
0.000151882
0.000165471
0.000143752
0.00018093
0.000145747
0.0853198
0.000766117
0.00133775
0.000151626
0.000244134
0.00014089
0.000162927
0.000145571
0.0116227
0.000144583
0.000152245
0.000161992
0.00757576
0.00056807
0.00013448
0.000158878
0.000131865
0.00014357
0.000157592
0.000142342
0.000141953
0.000151547
0.000326693
0.000178855
0.000145715
0.00019542
0.000145432
0.000359451
0.000152516
0.000801868
0.000632912
0.000158154
0.000156433
0.0760804
0.000162707
0.00770441
0.000632195
0.00015078
0.000170193
0.000153079
0.00233969
0.0416359
0.000152585
0.000227127
0.0125361
0.000144987
0.0091155
0.000137126
0.0496926
0.0443689
0.000154691
0.0335674
0.000140094
5.60248e-05
0.00018903
0.000453016
0.000151435
0.0135192
0.000149805
0.000135028
0.000141525
0.000738023
0.000187287
0.000143196
0.000135623
0.000135879
0.02473
0.000806123
0.000153421
0.0574164
0.000138574
0.000154746
0.000142422
0.000140603
0.00884511
0.000146612
0.000163643
0.0003085
0.0419056
0.000259717
0.00013494
0.000227962
0.000170899
0.0165075
0.000144359
0.059176
0.000142205
0.000141823
0.000169395
0.00240744
0.0001557
0.00714788
0.000144912
0.00014441
0.000169791
0.000143423
0.000154013
0.00014309
0.00839432
0.0109121
0.000259809
0.000288989
0.000150716
0.000135594
0.000170657
0.045303
0.000161361
0.0119181
0.000145044
0.033738
0.000163367
0.000145935
0.000205828
0.0189516
0.000189551
0.000134182
0.000170804
0.0102234
0.00915434
0.000141182
0.000188795
0.000149164
0.0001402
0.000142561
0.0140768
0.000248544
0.000147401
0.069132
0.0857236
0.0441766
0.0080066
0.000165354
0.000430607
0.000178576
0.000152329
0.043291
0.040167
0.000162815
0.000193047
0.000180535
0.000150123
0.000149966
0.000214565
0.000212468
0.000145301
0.000144325
0.000245608
0.000166512
0.000171359
0.00015481
0.00805814
0.000150094
0.00708727
0.000154029
0.000146431
0.000255047
0.000144797
0.00015164
0.00222677
0.000144488
0.0895077
0.000323255
0.014818
0.00018903
0.000171599
0.0575173
0.00015244
0.000147319
0.000197469
0.000211584
0.000135703
0.00044714
0.00463353
0.000151645
0.000153051
0.000152372
0.000190935
0.000136625
0.000190181
0.000164393
0.0491339
0.000166308
0.00745425
0.000160552
0.0677637
0.000143744
0.000152682
0.0159766
0.000164388
0.00877203
0.000139757
0.000280775
0.000176428
0.000152535
0.000154368
0.00360073
0.000143581
0.000146467
0.000135718
0.000140115
0.034741
0.000258276
0.000140363
0.00133411
0.000436894
0.000162365
0.000917462
0.000154329
0.000147657
0.000186772
0.000151231
0.000159661
0.00427653
0.000151732
0.000235442
0.000156489
0.00129335
0.000447449
0.00013573
0.000135357
0.000142563
0.00473175
0.00016413
0.0390197
0.000151365
0.000137025
0.000144051
0.000142877
0.000138932
0.00014266
0.000160726
0.000271955
0.0184893
0.000141451
0.000162265
0.0214102
0.000151141
0.000144607
0.00432393
0.000183615
0.000155851
0.000142659
0.000145743
0.00561128
0.000150478
0.0100081
0.000166056
0.000147049
0.000171757
0.000321266
0.000150115
0.0334267
0.0118653
0.0922469
0.000233463
0.000143841
0.000185093
0.00146741
0.000142311
0.0001917
0.000133813
0.000170133
0.000384436
0.00838879
0.000135295
0.0512707
0.000151059
0.0123596
0.000145458
0.00018616
0.000189576
0.000392872
0.0568524
0.000663228
0.000133108
0.0280724
0.000141262
0.0888475
0.000150587
0.000199057
0.000150807
0.000151855
0.000155639
0.000162773
0.000151042
0.000164019
0.000144544
0.000138664
0.000140584
0.000152004
0.000168524
0.000132905
0.000133599
0.00568455
0.000143093
0.00244538
0.000151979
0.000157841
0.000141026
0.000209828
0.000132329
0.0052426
0.000207514
0.0124628
0.000215127
0.000147295
0.000140981
0.000142543
0.000138315
0.000150916
0.000143745
0.000145186
0.000390512
0.00014386
0.0417527
0.0182173
0.000278279
0.000132291
0.00014239
0.000377503
0.0186009
0.0096297
0.000323843
0.00729896
0.0611723
0.0143872
0.000170424
0.041015
0.000142896
0.000153397
0.000134336
0.000284635
0.000151459
0.000150606
0.00018707
0.000152557
0.00655251
0.000146816
0.000809954
0.000216528
0.00895199
0.000273453
0.000241558
0.00810003
0.000168776
0.000142817
0.00014344
0.000175745
0.081332
0.000400184
0.000146643
0.000140797
0.0097694
0.000179409
0.00802807
0.00014935
7.87711e-05
0.000155714
0.00535935
0.000149945
0.000142332
0.000135906
0.000142516
0.000149975
0.000143478
0.000149783
0.0718579
0.0836614
0.000142164
0.0565672
0.000143854
0.0583153
0.0002722
0.0125864
0.000136066
0.000183485
0.0257475
0.000134424
0.0182773
0.000144052
0.000141271
0.00016194
0.00014641
0.000656197
0.000146143
0.000141087
0.000278131
0.000143966
0.000169585
0.000143408
0.0497081
0.000136117
0.000152198
0.000167847
0.000150527
0.000164732
0.000157149
0.000154502
0.00015319
0.011622
0.000160772
0.000131742
0.000151998
0.000140755
0.000147181
0.000232503
0.000181299
0.0960005
0.000147126
0.000149956
0.0118683
0.000142326
0.0519481
0.000205202
0.000131873
0.000150081
0.000408327
0.00015403
0.000159054
0.000143699
0.000145441
0.00015036
0.000156845
0.000671193
0.000163264
0.000175809
0.00015088
0.00180415
0.000222201
0.000196457
0.000146124
0.00816399
0.000163369
0.00730269
0.000144714
0.0001472
0.0114754
0.000150379
0.000777373
0.000176795
0.00233677
0.00014685
0.000140281
0.000143307
0.000160007
0.000149582
0.000146731
0.0160258
0.0510349
0.000152588
0.000368279
0.00144424
0.0278735
0.0216635
0.000188264
0.00269829
0.000133566
0.0182231
0.000141784
0.000233857
0.000177003
0.0165105
0.000134537
0.000147418
0.000143028
0.000144397
0.00850661
0.000165331
0.0125775
0.000139061
0.000178052
0.000500658
0.000158233
0.00014254
0.00015693
0.0128059
0.00776742
0.0194058
0.000225549
0.00014649
0.00083206
0.000150551
1.35867e-05
0.000144661
0.000293257
0.000214213
0.000292102
0.00807208
0.00385987
0.000144396
0.000209409
0.0868543
0.0188816
0.0495198
0.0299896
0.0231001
0.000279213
0.0022476
0.00590383
0.000157503
0.000156768
0.000152606
0.0169186
0.0151369
0.00977408
0.000152577
0.00208128
0.000142987
0.000151914
0.000144483
0.00016114
0.000146642
0.000265758
0.000152664
0.00286453
0.000144918
0.000145502
0.000152274
0.00195161
0.00220738
0.000156262
0.00551413
0.000152427
0.0113969
0.000147722
6.03805e-05
0.000156792
0.000145826
0.000140693
0.000161822
0.00300333
0.000133747
0.000140468
0.0430623
0.0533156
8.94592e-05
0.000150683
0.000152394
0.0363444
0.000140273
0.00015143
0.0390454
0.000152098
0.0290404
0.000138712
0.00015339
0.000218813
0.0391478
0.000150625
0.000149448
0.000106306
0.0315582
0.000150625
0.000139059
0.00016257
0.000146948
0.00476556
0.000140467
0.0664013
0.000146209
0.000212505
0.00016915
0.000159982
0.000147876
0.000142443
0.000142146
0.00017002
0.00409016
0.0589488
0.000228822
0.000178167
0.000142905
0.00016302
0.000146851
0.00015222
0.000224431
0.000138254
0.0614957
0.000144483
0.000138272
0.00235682
0.00014047
0.000144651
0.00049554
0.00014428
0.000148257
0.000151716
0.000142436
0.000164842
0.000148551
0.000156226
0.000237546
0.000143981
0.000266796
0.00788052
0.00985277
0.000148508
0.0166375
0.000167559
0.000143636
0.000317153
0.00880413
0.000198662
0.000185321
0.00014684
0.000141227
0.000164778
0.00013107
0.000145973
0.000152583
0.000155234
0.000243833
0.00628968
0.000154554
0.000136778
0.000166637
0.000266013
0.000143749
0.00352724
0.000163475
0.000242198
0.000144294
0.000147045
0.000219544
0.000256454
0.000152316
0.000140213
0.000141965
0.000149262
0.00110481
0.000143336
0.000156736
0.000162768
0.000140914
0.000222095
0.000150711
0.000141841
0.000156049
0.00013751
0.0484941
0.000229825
0.000141092
0.00777698
0.000149584
0.000229916
0.000211011
0.000151649
0.000152315
0.00632716
0.000139431
0.000139277
0.000169144
0.000153664
0.000733572
0.000141316
0.000272124
0.000152361
0.000155586
0.000146906
0.0847036
0.0112438
0.000136599
0.000378871
0.000155432
0.000242002
0.00377173
0.000607189
0.0398431
0.0175458
0.0828638
0.000141523
0.0129725
0.00269269
0.0113374
0.000156563
0.0168377
0.00806123
0.000143686
0.000160896
0.0145592
0.000142366
0.0420835
0.000160711
0.000739351
0.0170866
0.0129942
0.000153098
0.0002963
0.000243235
0.000152438
0.012788
0.000157019
0.000152467
0.000171079
0.000157583
0.00402692
0.0129446
0.000149629
0.000141397
0.000142829
0.00039061
0.000445347
0.000218641
0.000142426
0.000364405
0.000161151
0.000135865
0.00014271
0.000141467
0.000152226
0.000139204
0.00118165
0.00185511
0.000134718
0.000181418
0.000138783
0.00396637
0.000147023
0.000143596
0.000163334
0.006518
0.000159418
0.0473776
0.000170224
0.00846566
0.000152012
0.000135857
0.000143171
0.000141639
0.000190981
0.000140158
0.000135503
0.000146204
0.00776063
0.000264683
0.000135352
0.00015652
0.000155847
0.000169532
0.000446839
0.00014505
0.000160482
0.00931698
0.000160536
0.0117734
0.00304843
0.000169689
0.0108742
0.0299369
0.0110415
0.000280914
0.0062805
0.000146598
0.000151139
0.000146961
0.000143922
0.00048276
0.00016074
0.000150037
0.000148013
0.000148138
0.000215693
0.000145293
0.0557282
0.00015102
0.00017047
0.000145034
0.000141942
0.000152843
0.00019292
0.000151462
0.000146937
0.000152334
0.000139425
0.000179406
0.000162756
0.000140279
0.000155521
0.000168059
0.000136462
0.00517476
0.0139768
0.000263086
0.000150507
0.000142641
0.000228757
0.0749888
0.000389957
0.000175571
0.000165157
0.000806697
0.000183309
0.000151445
0.000150598
0.0062802
0.000141022
0.021562
0.000145126
0.000150823
0.000173923
0.000140094
0.000141422
0.000132111
0.00342408
0.000307272
0.0976023
0.000154128
0.00185737
0.000190917
0.000143397
0.00014132
0.000211588
0.000145181
0.00546277
0.000189308
0.000305221
0.000180447
0.00020295
0.000182996
0.000147494
0.0149109
0.000153391
0.0105259
0.00160889
0.000143842
0.00098045
0.000275866
0.00086818
0.044198
0.00015115
0.0011652
0.000141649
0.0521349
0.000177404
0.0284542
0.000181044
0.000141938
0.000142784
0.00522622
0.000224787
0.039332
0.00121257
0.000131973
0.000140684
0.000164985
0.000160198
0.000145484
0.00465215
0.000147394
0.0739426
0.000146071
0.000195046
0.000155635
0.00022431
0.000134538
0.00206463
0.000134357
0.000178543
0.000131916
0.000166642
0.000145662
0.000173181
0.000149675
0.000144239
0.0113946
0.00014177
0.000138895
0.0041462
0.000144151
0.000200243
0.0560451
0.0033989
0.000143525
0.000137722
0.000225921
0.0118308
0.000158621
0.000187225
0.000215243
0.00854096
0.000134118
0.00178931
0.000158821
0.000871385
0.00017873
0.000145344
0.000162445
0.000151669
0.00338409
0.000475006
0.0033317
0.000163727
0.000495717
0.0196315
0.0142991
0.000141981
0.000149403
0.000161683
0.000140208
0.000142012
0.000135006
0.000145111
0.000154565
0.00014044
0.000135371
0.000140166
0.000135247
0.000140664
0.000161702
0.000147206
0.0788808
0.000151852
0.000133987
0.0130222
0.000161317
0.0119151
0.0127839
0.000223685
0.0568676
0.000146129
0.000360775
0.000149244
0.01018
0.00014554
0.000363763
0.000207871
0.0419336
0.000144946
0.000150411
0.000517002
0.00019715
0.000194107
0.000138178
0.000144036
0.00858816
0.000180158
0.00016772
0.000146841
0.00014593
0.0587367
0.000145174
0.000155097
0.00350597
0.00567691
0.0449753
0.000153197
0.000138761
0.000150845
0.000135414
0.000163496
0.00876764
0.0145883
0.00013129
0.000143297
0.0136932
0.000158155
0.000151261
0.000145563
0.000176931
0.000141771
0.000131796
0.000140739
0.000157895
0.000148443
0.000159323
0.00287674
0.0178599
0.000174074
0.000169348
0.000144094
0.0419994
0.000250171
0.000171139
0.000146849
0.000231964
0.000199788
0.000145837
0.000140258
0.000140486
0.000237871
0.000172222
0.00741988
0.00395122
0.0121374
0.000142402
0.000199837
0.00706833
0.019777
0.00730097
0.000467841
0.000145367
0.000557348
0.000162226
0.00020582
0.000143868
0.00756871
0.000146212
0.00016244
0.000149769
0.00757931
0.000145369
0.016603
3.61515e-05
0.000151679
0.000135173
0.00016469
0.000150243
0.000147511
0.000161183
0.00309179
0.000144934
0.000155771
0.000143612
0.0152588
0.000155138
0.00015335
0.000149305
0.000145279
0.000155268
0.0906257
0.000182179
0.000149091
0.000318536
0.0164378
0.000139648
0.00531213
0.000140138
0.000144372
0.00794944
0.000147252
0.00014848
0.000144726
0.000142955
0.000164417
0.000154217
0.000171354
0.0414261
0.000156167
0.000140796
0.000179631
0.00422223
0.000141905
0.000223817
0.000136013
0.00672123
0.0001442
0.000156009
0.00929741
0.000139204
0.000154113
0.000145112
0.0168942
0.037314
0.000141408
0.00936444
0.000132205
0.000135805
0.0433898
0.00014258
0.00017599
0.000170803
0.000178361
0.000188766
0.000208287
0.000140447
0.000158498
0.00013568
0.000226688
0.00971211
0.000154595
0.000171896
0.000140698
0.0030562
0.000145459
0.00399403
0.0113811
0.000149648
0.000139498
0.000206633
0.00021933
0.000276814
0.000139597
0.000132388
0.000191138
0.000147148
0.000138452
0.0001617
0.0337321
0.000159854
0.029331
0.00014277
0.0103072
0.000132099
0.000164417
0.00027933
0.000189606
0.003836
0.000146629
0.000139514
0.000217524
0.000144319
0.00014472
0.000366343
0.00968037
0.000189535
0.000144052
0.00626361
0.0118574
0.00893432
0.000154969
0.000146118
0.000143959
0.0001582
0.013577
0.000172729
0.000138887
0.0601567
0.0140166
0.00293138
0.000169154
0.000147426
0.000216162
0.0212321
0.0720265
0.00970027
0.000140519
0.00019097
0.000168215
0.00172204
0.0137992
0.0611502
0.000177613
0.0221482
0.000137687
0.000141292
0.000144324
0.0456858
0.000142083
0.000153139
0.00385157
0.00016217
0.000165476
0.000140911
0.000149518
0.000169031
0.00188054
0.000233189
0.000142546
0.000143891
0.00015952
0.000200874
0.000144021
0.000164593
0.000563809
0.000144081
0.00529841
0.018234
0.0124492
0.000144407
0.000161639
0.0352438
0.00871206
0.000144488
0.0658662
0.0680172
0.00015003
0.0127174
0.000152853
0.000161434
0.000173241
0.000151272
0.0526445
0.00038374
0.000145451
0.000150158
0.000608989
0.00105978
0.000152252
0.00016126
0.000602878
0.0440806
0.000145664
0.00804719
0.00814088
0.000138646
0.000141066
0.000160223
0.00029183
0.000154033
0.000192776
0.0895774
0.000140199
0.000196564
0.0049075
0.000262118
0.0411817
0.00013881
0.00019444
0.0469887
0.00174799
0.000161525
0.000158508
0.0738382
0.00470892
0.000159797
0.000142804
0.0131328
0.000189098
0.000171039
0.00015531
0.00832716
0.000139091
0.000145226
0.000417132
0.000455624
0.000184577
0.00569944
0.000310174
0.000153243
0.000146626
0.00025851
0.000145133
0.000249471
0.0159921
0.0138955
0.000152421
0.000149605
0.0099374
0.000144702
0.00013469
0.00395285
0.000141958
0.000147781
0.0590048
0.000153462
0.000145099
0.00019628
0.000179535
0.000160493
0.000228349
0.0124644
0.00236533
0.000229435
0.0230619
0.000332785
0.000444874
0.000155548
0.000156424
0.000184145
0.012753
0.0110228
0.000157887
0.000138955
0.000127866
0.000166567
0.00230496
0.000196935
0.000160764
0.000154234
0.00015803
0.000251393
0.000136269
0.000156389
0.00015278
0.000167241
0.0533288
0.000155475
0.000196376
0.000144158
0.0035499
0.00851458
0.000160564
0.000157005
0.00015871
0.000249767
0.0647275
0.000187627
0.000142812
0.000150343
0.00225327
0.000143291
0.000155752
0.0241893
0.000156746
0.000158786
0.0890861
0.00014357
0.000140925
0.00603149
0.000262642
0.000154955
0.00778787
0.00600283
0.000140928
0.000162282
0.0721644
0.000160989
0.000160869
0.000144744
0.000152433
0.000395338
0.000172458
0.00018342
0.000131552
0.000155338
0.000161046
0.000134585
0.0205408
0.000156482
0.00647269
0.000221724
0.000141148
0.000152577
0.00899241
0.00316213
0.000143665
0.00015143
0.0376688
0.000166924
0.0644824
0.035506
0.000160825
0.0091435
0.0839886
0.000315581
0.000145239
0.000157898
0.000292647
0.000152218
0.00728514
0.00017151
0.000140818
0.00565336
0.000162393
0.000177274
0.000159408
0.000883204
0.0508125
0.000145105
0.000150513
0.000173069
0.000183183
0.00015564
0.00014161
0.00455395
0.00554099
0.00600151
0.0080873
0.000215074
0.000155629
0.000230607
0.000138136
0.000131085
0.011231
0.000150279
0.000159576
0.000170746
0.000154844
0.0354209
0.000150786
0.0453322
0.0276563
0.000173448
0.000326705
0.000448602
0.000147575
0.000156263
0.000722699
0.000137637
0.00019887
0.00195321
0.000235205
0.000308508
0.00014238
0.00295461
0.00716597
0.00369575
0.00289592
0.000132725
0.00534372
0.0141321
0.000269959
0.00261699
0.000151411
0.0246202
0.00611591
0.00355974
0.00677623
0.000145306
0.00434655
0.00867401
0.0676138
0.000489969
0.00395928
0.0597167
0.0611036
0.000153605
0.000156371
0.0685498
0.000140477
0.000145537
0.000135041
0.0228623
0.000182728
0.000159774
0.00782572
0.000142814
0.0143288
0.00532718
0.000169468
0.000139158
0.000137507
0.0053267
0.0737148
0.000144439
0.000148846
0.000291123
0.000470109
0.000164286
0.000144081
0.000150431
0.000147126
0.000139942
0.00853144
0.000172019
0.00874022
0.00301485
0.000152333
0.0630984
0.000142543
0.000144404
0.000145963
0.000144606
0.000194296
0.000147401
0.000153432
0.00248848
0.000149553
0.000163311
0.000148617
0.000142912
0.000249376
0.000146016
0.000132532
0.000144292
0.000152727
0.000176408
0.000150108
0.00013819
0.000196162
0.0463635
0.000188045
0.000153912
0.000146429
0.000144209
0.0146172
0.000151766
0.0076084
0.000143609
0.00030817
0.000137416
0.000157603
0.000139063
0.000161114
0.00895569
0.100133
0.00995549
0.000160262
0.00673611
0.000216539
0.00754113
0.00014204
0.00581557
0.00110652
0.000137707
0.000402823
0.0559307
0.0382153
0.000188192
0.000146041
0.000184909
0.000252106
0.0001475
0.0433287
6.86755e-06
0.000149083
0.00995604
0.000150442
0.000146798
0.000381691
0.000152588
0.000152101
0.0760009
0.00745489
0.000208235
0.000155272
0.000148044
0.00129027
0.00014693
0.00593955
0.000222134
0.00013891
0.000186209
0.000145789
0.00469687
0.00223415
0.000159556
0.000308798
0.000158032
0.0007111
0.000559733
0.000227258
0.0102907
0.000152328
0.0301276
0.000154907
0.000158312
0.000159728
0.000218276
0.00953777
0.000144873
0.000193463
0.000148156
0.00117483
0.00029077
0.0230799
0.00013248
0.000149891
0.000151129
0.0435054
0.0143256
0.000147111
0.000385632
0.056587
0.000220253
0.000797068
0.00650299
0.000194148
0.000211224
0.000203969
0.0399172
0.0510588
0.00022948
0.000151051
0.000149169
0.0525861
0.000150431
0.000143623
0.000668604
0.00523726
0.000174765
0.000156965
0.000202595
0.00176405
0.000137997
0.000150229
0.000140037
0.0126046
0.000161566
0.000193001
0.000148662
0.00498546
0.0693097
0.000219277
0.0176449
0.000159596
0.000153955
0.000208155
0.00436756
0.000234782
0.000180517
0.00713572
0.00960594
0.000139673
0.000173571
0.00015086
0.000293811
0.00020426
0.00241421
0.000154473
0.000166013
0.000177473
0.000979585
0.000227252
0.0351292
0.000323046
0.000280944
0.00662235
0.000149839
0.0344261
0.000169133
0.000168181
0.0903474
0.000175864
0.000320695
0.000136752
0.000144988
0.000150742
0.00120956
0.0689839
0.000241699
0.0688498
0.000141379
0.0156458
0.00014153
0.00580933
0.0001543
0.000143372
0.000145083
0.000155724
0.00628649
0.000169993
0.00016091
0.0770938
0.0469024
0.000974691
0.000139024
0.000143669
0.000162168
0.000195113
0.000238599
0.000145777
0.000151182
0.00627436
0.0425675
0.0600348
0.01235
0.000173106
0.000450306
0.000984403
0.000148354
0.000145308
0.00858131
0.000183033
0.0123299
0.000140027
0.00042412
0.000154563
0.000145273
0.000231553
0.0268424
0.000154372
0.0359899
0.000191197
0.000144701
0.0344943
0.000154707
0.000168154
0.000142935
0.000143998
0.000188761
3.58019e-05
0.0369705
0.000160319
0.000155325
0.067659
0.00263618
0.00238997
0.000156604
0.0105325
0.000147607
0.000177833
0.0073363
0.0540161
0.000162093
0.00595256
0.00956243
0.000145036
0.0816483
0.000180894
0.000139413
0.000234038
0.000250137
0.00042383
0.000184319
0.000143627
0.000663164
0.000144484
0.000137964
0.000142963
0.000169203
0.0169434
0.000178779
0.000236553
0.000158948
0.00342119
0.000157733
0.000252225
0.0105972
0.000143478
0.00610304
0.0554178
0.00425028
0.0976785
0.000153443
0.000145954
0.000245686
0.000329513
0.000143693
0.000149799
0.000180188
0.000235946
0.0338047
0.000145295
0.000159091
0.000346905
0.000145502
0.00119479
0.000144972
0.000147174
0.000158659
0.000146841
0.00578047
0.000152356
0.000144787
0.000138441
0.000195604
0.000136492
0.000216259
0.000151006
0.000145357
0.0204148
0.00025444
0.000183776
0.000150792
0.000155893
0.000187784
0.000173025
0.0176082
0.000138555
0.0027712
0.000152849
0.0104982
0.000157364
0.000146952
0.00014517
0.00017825
0.000279478
0.000146786
0.000192726
0.000151902
9.07017e-05
0.000145327
0.00014532
0.000145985
0.000171414
0.040556
0.0060149
0.0297299
0.0278052
0.000153102
0.000176222
0.000152518
0.00556263
0.00136002
0.000169292
0.00577711
0.000561833
0.0252635
0.00645895
0.000139543
0.000430873
0.000148572
0.000162226
0.00728077
0.000138247
0.000143222
0.0251212
0.0327078
0.000155036
0.00016405
0.000176339
0.00015502
0.00553982
0.000210404
0.000142614
0.0668746
0.0171556
0.0153097
0.0060135
0.011689
0.000167061
0.0112036
0.00813962
0.0449867
0.000150326
0.0878638
0.000145583
0.000152569
0.00491179
0.000223615
0.000268372
0.000144982
0.000407259
0.00916078
0.000144917
0.000138481
0.000154531
0.000192011
0.000167517
0.000222939
0.0113513
0.00924159
0.00930827
0.0316492
0.000154272
0.000149092
0.00231618
0.0117513
0.000151502
0.000161994
0.000191061
0.000303507
0.000159329
0.000139591
0.0145708
0.0733708
0.0422459
0.000139251
0.00075712
0.000146421
0.000134995
0.000161952
0.00910738
0.000252682
0.000193258
0.000132447
0.00962338
0.000134801
0.000144898
0.0763867
0.00466727
0.000150529
0.000160846
0.000155759
0.000159861
0.000177989
0.00015573
0.000139964
0.0106116
0.000151024
0.000149808
0.0001554
0.000115945
0.000149417
0.000709064
0.00311927
0.000153797
0.000576222
0.000248279
0.0025596
0.0619312
0.000153635
0.000511166
0.000140247
0.000160788
0.0372878
0.0309441
0.000153127
0.0613657
0.000726685
0.00774144
0.0214531
0.0960823
0.0906875
0.00015161
0.00995621
0.000153721
0.00435563
0.000136094
0.000157533
0.000193534
0.000630632
0.000142835
0.000155258
0.000199911
0.00015007
0.0855482
0.000160167
0.0572325
0.000156396
0.000139201
0.00322705
0.000144635
0.0394259
0.000147456
0.000237438
0.000509119
0.00014956
0.0308227
0.000144848
0.00863202
0.0822316
0.0470208
0.000142692
0.00032615
0.000155896
0.000164132
0.000138537
0.00015005
0.00958388
0.000284417
0.00970243
0.000268709
0.000165754
0.0001475
0.00492624
0.0200673
0.0073893
0.00301137
0.000161072
0.000496163
0.00030969
0.000161842
0.0326313
0.000165102
0.00702282
0.000158136
0.000148675
0.00835674
0.000147285
0.000177389
0.000159101
0.0387144
0.000131287
0.000146252
0.000131031
0.000155304
0.000146282
0.00579878
0.0635778
0.000180832
0.0107468
0.000198933
0.000977099
0.000156842
0.000197557
0.0555069
0.00690254
0.000143693
0.000140529
0.0134799
0.000138064
0.000318427
0.00014333
0.000142638
0.00014364
0.082759
0.00796422
0.000153268
0.00999234
0.0924558
0.000152338
0.000157333
0.000144707
0.000167875
0.0101357
0.0772247
0.0309546
0.080492
0.000190102
0.000189499
0.000154374
0.0550991
0.0728025
0.000151425
0.000144136
0.00923534
0.000160375
0.000159802
0.000173959
0.00597255
0.0312898
0.000742312
0.000149881
0.000183979
0.00735467
0.000154974
0.000136183
0.0680524
0.000153273
7.49158e-05
0.000156323
0.000148105
0.000143733
0.0095632
0.000256488
0.000155156
0.000219002
0.0843431
0.0200946
0.000155018
0.07304
0.000150764
0.000144318
0.000264768
0.000155683
0.000143767
0.000353739
0.000146107
0.000164905
0.000180975
0.000195779
0.000165355
0.000146665
0.000147698
0.00567248
0.000167888
0.000143629
0.000149849
0.0675985
0.000193316
0.000150263
0.000171128
0.000155624
0.00429269
0.000173374
0.00543393
0.000241078
0.000262023
0.0762104
0.000159925
0.000199533
0.000152953
0.00859134
0.000187193
0.000521433
0.0322488
0.00336343
0.000166836
0.000142723
0.00013985
0.0317787
0.0715828
0.0243969
0.000147411
0.000186189
0.000146544
0.0369316
0.0195623
0.0197851
0.000142337
0.0747152
0.00457906
0.000145011
0.0941391
0.0385742
0.0202873
0.000144314
0.000177835
0.000222729
0.000137564
0.000242891
0.00613944
0.00856063
0.000174741
0.00731741
0.0562671
0.000319845
0.000157848
0.0595601
0.000176509
0.000153335
0.0371524
0.000322825
0.000164225
0.0560558
0.00850124
0.00780619
0.00031378
0.0441226
0.000153141
0.000274333
0.000150738
0.000140219
0.0734547
0.000170606
0.000139613
0.00020139
0.000148466
0.000153487
0.000169408
0.0122139
0.000156829
0.000195798
0.0343128
0.000145478
0.000178957
0.000156705
0.000163987
0.0476502
0.0130591
0.000154011
0.000183351
0.000144143
0.000229495
0.0117802
0.000338175
0.000160228
0.000143393
0.052955
0.000137028
0.00796328
0.000143945
0.000412165
0.000228925
0.000215521
0.000151634
0.00185145
0.000216036
0.000153931
0.00623945
0.000134604
0.000149043
0.000146347
0.0105219
0.000154175
0.000200416
0.000109479
0.00748188
0.000143782
0.000232573
0.00032665
0.0862019
0.0327392
0.000173381
0.000156246
0.000156041
0.000167582
0.00168303
0.000146569
0.000178501
0.0420122