/*--------------------------------*- C++ -*----------------------------------*\
| =========                 |                                                 |
| \\      /  F ield         | OpenFOAM: The Open Source CFD Toolbox           |
|  \\    /   O peration     | Version:  v2012                                 |
|   \\  /    A nd           | Website:  www.openfoam.com                      |
|    \\/     M anipulation  |                                                 |
\*---------------------------------------------------------------------------*/
FoamFile
{
    version     2.0;
    format      ascii;
    class       volScalarField;
    location    "350";
    object      p;
}
// * * * * * * * * * * * * * * * * * * * * * * * * * * * * * * * * * * * * * //

dimensions      [0 2 -2 0 0 0 0];


internalField   nonuniform List<scalar> 
18618
(
0.00336825
-0.123187
0.000756034
-0.10116
0.00476319
0.00643999
-0.0601199
-0.136302
0.00371546
-0.0112545
-0.0340395
0.000789006
-0.0977101
0.00178891
0.00473405
0.00197275
0.00493384
-0.272881
0.00452083
0.00684785
0.00654659
0.000258127
0.00192987
0.000934131
-0.00228028
0.00744444
0.00406071
0.00464644
0.00191597
0.0043357
-0.00329527
-0.00422543
-0.0115636
0.0226988
-0.00318533
0.00503681
-0.00283696
0.0164811
0.00720536
0.0042965
-0.014177
0.00428278
0.00221218
-0.0918312
0.00355082
-0.0281625
-0.117054
0.00165632
0.00798125
0.0181024
0.00471171
0.00560889
-0.0229623
-0.00883144
0.003525
-0.136264
0.00177487
0.00686842
0.0211377
0.00707396
0.00420684
0.00386351
0.00672425
-0.00742875
0.0334043
0.0318764
0.00101534
-0.0413898
0.00279817
-0.0051214
-0.0342328
0.00220578
-0.0424277
-0.301541
-0.00914326
-0.0468258
0.00392745
0.0139645
0.0028177
-0.135875
-0.306002
-0.221617
-0.299324
-0.0110125
-0.0112415
0.00216779
0.00797287
-0.0113526
0.0081188
-0.256125
-0.0467654
0.0132467
-0.107438
0.00210068
-0.00198363
-0.049039
-0.00269447
0.00762038
0.00180158
0.000766301
0.000104709
-0.00732878
0.0112724
-0.00401687
-0.0106546
-0.147134
0.00354419
0.0020157
0.0337541
0.00123238
0.0071355
0.00369573
-0.0205237
0.00454839
0.00381931
0.00080053
0.001043
-0.201996
-0.00142859
-0.0457812
0.00850029
-0.0197403
-0.135831
-0.234094
0.00171098
0.0152435
-0.00726884
-0.321033
-0.031144
-0.112781
-0.0922111
0.00367297
-0.194845
0.00713641
0.00370225
0.00410646
0.00335321
-0.0127925
-0.118888
0.00154428
-0.00494308
0.00171204
0.00388024
-0.0027594
0.00215825
0.00703639
-0.00248313
0.00471008
-0.150569
-0.0551754
0.00168529
-0.209246
-0.130355
0.00200985
0.00408328
0.00588271
-0.115105
0.0397505
0.0119354
0.00133731
0.00022468
-0.0308634
-0.0125677
0.0154432
0.00309783
0.0130278
0.00407936
0.00140525
-0.310372
-0.0205606
-0.00941056
0.00112382
-0.091182
-0.0819087
0.0328077
-0.0443567
0.00683743
-0.312888
0.00110585
0.00282207
-0.0712482
-0.0813382
0.00513054
0.0048817
-0.0120401
0.00394017
0.00660579
-0.0673325
0.00627545
0.00732825
0.00245836
-0.0842128
0.0368875
0.00148595
0.0340711
0.00447917
-0.0713054
-0.054181
-0.011056
-0.29316
0.013113
-0.0874344
0.00719967
-0.0275604
-0.313708
-0.287459
-0.110767
-0.219905
-0.0230688
-0.0980381
0.00717044
0.00397935
-0.192071
-0.0635294
0.00495864
0.00497315
0.00669847
-0.310808
-0.0208593
-0.221266
-7.86683e-05
-0.0141578
0.00390918
-0.174736
0.00386914
0.0019374
-0.000267243
0.00305899
-0.00523538
0.00847121
-0.087176
0.0163595
-0.00525325
-0.0437866
-0.00353562
-0.108826
0.00717076
0.00326428
0.00503163
-0.00292002
-0.0782228
-0.00527445
-0.0176736
0.00838751
-0.000165854
0.00577636
0.00389
-0.287327
0.00398509
-0.0303457
-0.0185083
0.00908504
-0.0266671
-0.188745
-0.0223364
0.0020538
-0.0217449
0.0148175
0.00492319
-0.0181508
-0.171532
-0.0224647
0.0116536
-0.0394913
0.00756971
-0.00988138
-0.0744824
0.00755407
-0.0207807
-0.0330611
-0.0464702
0.00126826
0.00428182
0.00465937
0.00158656
-0.0576484
0.00477219
0.00163364
-0.318276
0.00424706
-0.0133244
0.00125309
-0.157135
-0.276522
0.00206284
-0.027959
0.00331313
0.00727366
0.000236749
0.00176896
0.00413682
0.00742377
-0.00298129
0.00330515
-0.125818
0.00188129
0.00490424
-0.0190779
-0.0530887
-0.202779
-0.0117478
-0.060657
-0.0520102
-0.0693898
0.011105
-0.302881
-0.0228079
0.00595019
-0.0196053
-0.0849221
0.00374932
-0.0105444
-0.0121442
0.00424013
-0.0546521
-0.029334
-0.0993781
0.00571753
-0.00977387
0.0034405
-0.0110656
0.0359573
-0.0675413
-0.0216814
-0.01081
0.00472324
-0.0541789
0.00157021
-0.0650225
0.00322051
0.00143311
0.00452321
-0.0864786
0.00365497
0.00334458
-0.0113949
0.0161116
0.00314498
-0.0439031
-0.138547
0.00395483
-0.321592
0.00344899
0.000123762
0.00280072
-0.0107627
0.00613052
0.00367971
-0.0367849
-0.023135
-0.0249035
0.0155894
-0.0127281
-0.0108724
0.029025
-0.0821524
0.00202664
-0.159124
0.00132641
0.000813384
-0.0260036
-0.11592
-0.164115
0.00629983
-0.116063
-0.0557131
0.0032154
-0.0327792
0.00464506
0.00210995
0.00371011
-0.0124566
-0.0286183
-0.0221238
0.000212924
0.00610247
-0.00541316
0.00473393
0.00867082
0.0145452
0.00801862
-0.0051682
-0.331959
-0.0202269
0.00453258
-0.0177594
0.00312825
-0.154583
0.000276991
-0.0109108
0.00148997
0.00865681
-0.0278757
0.00152182
-0.311734
-0.0615068
-0.0488388
-0.134369
0.00303634
0.00300072
-0.0173196
-0.0416189
0.00937478
-0.218011
0.00310484
-0.323465
1.25174e-05
-0.023852
0.00315157
0.00757619
0.00378432
-0.337246
-0.0570354
0.0166728
0.00637425
-0.172864
0.00452043
-0.0157775
-0.0141459
-0.0329888
-0.0122431
-0.0184497
0.00464647
-0.00354888
-0.0163705
0.00121477
0.00341209
0.0162882
0.00362056
-0.0291212
0.00416073
0.00460885
-0.000150412
0.0116391
0.00727258
-0.0145372
-0.0964451
0.00367839
-0.128823
0.000944973
0.0155806
-0.0624355
0.00210986
0.00211707
-0.323914
-0.0146572
-0.0553133
-0.165797
-0.0091199
-0.00690872
0.000769197
-0.123799
-0.114433
-0.0163697
-0.0757354
-0.0590136
-0.00250425
-0.0346441
0.000535308
-0.210196
-0.117698
-0.0278472
-0.189919
0.00368755
-0.238864
-0.0599205
-0.0353915
-0.0257771
-0.00565953
0.00611886
0.00183221
0.00458264
0.0167131
-0.0335679
-0.00293359
0.00297697
0.0030009
-0.225287
-0.165627
0.00658243
-0.280017
-0.228993
-0.029254
-0.00127478
0.00161306
-0.0428425
-0.0028246
-0.0606629
0.00310973
-0.134505
-0.116709
0.00179281
0.00431381
-0.000624429
-0.0482353
0.00196379
-0.287055
-0.00100506
0.00160885
0.00789101
-0.0823362
0.00222756
0.0122842
-0.00814948
-0.0118876
0.00325707
0.0035879
0.00338775
0.00318006
-0.0391435
0.00744189
-0.106752
0.00668276
-0.0118587
0.00294233
0.00495021
-0.113602
-0.0110347
0.00878693
0.00506571
0.0360744
0.00813236
0.00309005
0.0176557
-0.117186
0.0069567
0.00237762
0.00809759
0.0118794
-0.00693802
0.00455023
-0.102708
-0.00572097
0.000222643
-0.00128687
-0.152688
0.0154597
0.00368497
-0.321059
-0.334659
-0.1082
-0.025606
0.00719334
-0.0938375
-0.0962738
-0.0199503
-0.0135767
-0.132032
0.016034
-0.0951413
-0.087049
0.00625106
-0.022013
-0.0999997
-0.0998074
0.000416438
0.00196702
0.03198
-0.0241937
-0.00644828
0.00342778
-0.027476
-0.0118422
0.00533363
-0.0311674
-0.0106527
-0.0287498
-0.00797819
-0.0252849
-0.0680745
-0.0120913
-0.330079
-0.0102859
-0.0269431
-0.063595
0.000654092
-0.321769
0.00260487
0.00556219
0.00492717
0.00402194
0.00198825
-0.143287
-0.00377898
-0.0259609
-0.00975287
-0.0205743
0.00336996
0.000584937
-0.0158804
0.00650313
-0.187478
0.00859043
-0.00385821
0.00786957
-0.314653
0.00199317
0.00038507
-0.0407471
0.00836245
-0.0350585
0.00112792
0.0159337
0.00721652
-0.0188447
-0.0300641
-0.00548644
0.00322219
0.00534451
0.00275632
0.000169203
-0.289286
0.000983791
0.00366628
-0.225077
-0.0776636
0.0082918
-0.174264
-0.0312252
-0.00244448
-0.0266722
-0.0282299
-0.034814
-0.14527
-0.0174365
0.00500092
-0.0344414
-0.0410043
-0.0881263
0.0020297
0.00292009
-0.00303401
-0.0181609
0.00840195
-0.127948
0.00016569
0.00195171
0.0032361
0.00326573
0.00216759
0.00323035
-0.0111071
0.01041
-0.0662268
0.00238743
0.00820335
0.0273447
0.00524026
0.00308683
-0.0381203
-0.0020919
-0.00981569
-0.00151087
0.0012337
0.00976458
-0.0184452
-0.0368998
0.00773716
-0.0159503
-0.0754561
-0.00525382
-0.0222417
-0.289016
0.00335344
-0.33187
-0.0647421
-0.00219584
-0.0291307
-0.176856
0.00274603
-0.0254236
0.00119751
0.00353275
0.0139072
-0.237024
0.00288259
-0.306443
-0.0092257
0.00901714
-0.00874501
-0.106084
-0.0274506
0.0162293
-0.286995
-0.0115085
0.00104996
-0.0943084
0.00203501
-0.317715
-0.0158568
0.00953328
-0.0268501
-0.0254619
-0.0238593
0.00505752
2.76161e-05
-0.0108568
0.00223098
8.10214e-05
0.00156877
0.00314722
0.00292246
0.00103788
0.00118115
0.0136059
0.00176992
-0.000108804
0.0032662
-0.0284705
0.00452499
0.00737743
0.000930407
0.0126666
0.00488331
-0.0517022
0.0148953
-0.016291
1.77742e-05
0.00399296
7.90671e-05
-0.0121691
-0.00238796
-0.0113546
-0.127627
0.00495064
-0.195958
-0.250602
0.0200518
0.000871447
0.00400434
-0.114933
-0.0626556
-0.033329
-0.0152792
-0.0288325
-0.129126
-0.0365751
-0.00304362
-0.202385
-0.00197091
0.00371937
0.00235832
0.00187519
0.00541265
-0.0255017
-0.0369938
0.00646744
-0.0287043
0.00543491
0.0166751
-0.0458792
-0.0508694
-0.157965
0.0141498
-0.0315968
0.00296975
-0.00181288
0.00318353
0.00483918
-0.343906
-0.131255
0.00190461
0.00447387
0.000858028
-0.00846988
-0.0187105
-0.0126127
0.015756
-0.0249586
-0.014701
-0.022513
0.00282443
0.00148866
0.00474701
0.00592842
-0.00241311
-0.0222347
-0.3201
-0.343825
0.00287242
-0.284179
0.00187114
-0.314728
-0.168808
-0.0555884
0.00153127
0.00832094
-0.0998783
0.00152613
-0.0424731
-0.010974
0.00152404
-0.00456825
0.00185389
-0.0790735
-0.00852861
0.00392901
0.00402793
-0.0111056
-0.0650754
-0.00262161
-0.0877827
0.00202885
0.00308042
0.0049344
-0.0189922
-0.05646
-0.0419882
-0.0302032
-0.0188766
-0.0102915
-0.0313773
0.000365602
0.00420229
0.00445138
-0.00625945
0.0220252
-0.0301277
-0.319527
-0.00418377
-0.0106411
0.0073226
-0.00102802
-0.303268
-0.0224484
0.000340624
0.00030068
-0.0588808
0.00713011
-0.034257
0.00350305
-0.00209203
-0.0122151
0.00292418
-0.0751122
-0.0136312
0.00838148
0.000314926
-0.0567317
-0.145647
0.00650282
-0.00250797
-0.0157026
0.00480689
-0.0730462
0.00317562
-0.00445044
-0.00370741
-0.0166929
-0.0432199
-0.0245813
-0.142022
-0.00885354
0.00204752
0.00485569
-0.0327879
0.0039661
-0.0153177
-0.0587352
-0.101328
-0.00260231
0.00167909
-0.0252319
0.0161541
-0.100993
-0.106111
-0.00156632
0.000804051
-0.0871206
0.00154531
-0.0455271
-0.0214752
-0.0358761
0.00150638
-0.00603932
0.00316686
0.00492626
-0.0111103
0.00700257
-0.018023
0.00405402
-0.00818414
-0.0209436
0.00331342
0.00472743
0.00685247
-0.0192468
-0.00434409
-0.0684056
-0.02432
-0.00249509
-0.0284001
0.000182743
0.00555649
0.014464
0.00815029
-0.0505731
0.0141715
0.00178572
0.00438962
0.00170022
-0.0197131
-0.341491
-0.103589
-0.326242
-0.42302
-0.0981984
0.0144888
0.0191026
-0.0649031
0.0028909
-0.0383386
-0.00108602
-0.0644434
-0.0326402
-0.150056
-0.0327928
-0.00146793
0.00222852
0.00265393
0.00495947
-0.017939
-0.00448855
-0.017895
-0.00282997
-0.0801732
-0.0127752
0.00139193
0.00348485
-0.135066
-0.00173575
-0.0344618
-0.0718632
-0.000781609
0.00519153
0.000543388
0.00910311
0.00328438
0.00526559
0.00436301
0.00164673
-0.0379442
0.000778125
0.000147969
-0.285954
-0.155586
0.00908361
-0.0183469
0.00442808
-0.155463
0.00220192
-0.0285583
0.0321048
0.0035692
-0.374453
0.00352729
-0.0309993
0.00646886
0.0162006
-0.0165036
-0.0112906
0.0047612
-0.439935
-0.0102858
0.00354981
0.00188129
-0.0119536
-0.0388497
0.00433108
-0.151637
0.00533545
0.013505
0.039295
0.00789462
0.002161
0.00473132
0.00472802
0.00371331
-0.108659
-0.145623
0.0234028
0.00760138
-0.00158385
-0.0127004
-0.00482269
-0.00185078
-0.029654
0.00321022
-0.304788
-0.00298233
0.00324976
0.0186812
0.00360064
-0.00275377
0.0371685
-0.00400591
0.000342823
0.00636905
0.00420255
0.00109041
0.00215752
0.00325887
-0.068042
0.00359927
-0.0991859
-0.0339102
0.0111062
0.00379999
-0.0590383
0.00446129
-0.010643
0.0158813
-0.00720306
0.00404951
-0.0324655
0.0032422
0.00146659
0.00479528
0.000143782
-0.00871397
-0.0171725
-0.0103934
-0.0179687
-0.00213658
0.00317548
0.00312499
0.00854914
-0.105691
-0.0108136
-0.120317
-0.010428
0.0152941
-0.00204548
-0.00517298
-0.155216
-0.169665
0.00323682
0.00109142
0.00164548
-0.00609866
-0.0267521
0.00489598
-0.0454413
-0.010711
0.000179271
-0.140949
0.00612827
0.00465589
-0.0383208
0.00310699
-0.298162
-0.0493518
0.0020544
0.00030829
0.00579239
-0.0312618
0.00470618
-0.0274267
-0.0159638
0.00312541
0.00408145
0.00405739
0.00338698
-0.0320151
0.00524633
0.00243583
-0.0162859
0.00393275
0.00297807
-0.0122473
-0.3422
0.00091337
0.00310554
-0.0297123
-0.0253338
0.021521
-0.0585128
0.00636442
-0.163194
-0.0598773
-0.321011
0.00460942
-0.0190219
-0.0283119
-0.116863
-0.0440623
-0.0572495
0.00136573
0.00277054
0.00610378
-0.0438414
0.00467412
-0.227377
0.00717495
-0.0536788
-0.0627707
-0.047203
0.00369975
0.00361309
0.00366908
-0.00151506
-0.015714
-0.043294
0.00648862
-0.00167579
-0.0309501
-0.00312306
-0.021382
-0.0223612
0.00271371
0.00186626
-0.0776188
-0.0233488
0.0231467
4.34186e-05
-0.0552896
-0.0164347
0.000135897
0.00182705
0.000174924
0.00400021
0.00407677
-0.227873
-0.0411492
0.000222788
-0.0335269
-0.214583
-0.0221181
0.00402368
0.0020525
0.00830543
-0.00221639
0.00788414
-0.130376
-0.0777328
0.00617542
-0.017113
0.00273701
-0.00377754
0.000257607
-0.0551454
0.00134471
0.00273394
0.00505532
-0.000883812
-0.173508
0.00185698
0.00683841
-0.00429466
0.00894822
-0.0022137
0.00482894
0.00684373
0.00793785
0.00692982
-0.0903141
-0.03641
-0.0675473
0.00170386
-0.289436
-0.048995
0.00663867
0.00225865
-0.00899234
0.00406007
-0.0156528
0.00486085
0.00653162
-0.00366581
-0.00463441
-0.0033108
-0.00357964
-0.0930544
-0.0112939
-0.288512
-0.0272579
-0.0647392
0.00488973
0.00412515
-0.0338893
-0.0493318
0.00421356
0.00545037
0.00644232
0.000963303
0.00717884
-0.00204661
0.00209466
-0.0262999
0.00660401
0.000245117
0.0174594
-0.0246475
-0.0249557
0.00364852
0.00479417
-0.0364316
-0.298303
-0.00852314
0.00766054
0.00497257
-0.0471256
0.00748093
-0.0104074
-0.025978
-0.0023755
0.00454005
-0.0281793
-0.0117287
-0.0258108
0.00669925
0.00129164
0.00459075
0.00082645
-0.00640145
-0.0102871
-0.316399
0.00210911
-0.0146124
-0.0590425
0.00477038
0.00376413
0.00269711
-0.00802076
-0.152183
-0.0914926
0.00801843
0.0100032
-0.00544346
-0.0278873
0.00559672
-0.055817
0.00495929
0.00940231
-0.0208664
0.00482958
0.0161026
0.00820206
-0.0173325
-0.0197551
-0.0131204
-0.063393
0.00417826
-0.170166
0.00685851
-0.0296318
-0.221433
0.00466474
-0.00741347
0.014984
0.00532982
-0.173079
0.00403993
0.000815184
0.0027171
0.00795531
-0.03066
-0.0139858
-0.00119469
-0.0120724
-0.315185
0.00499109
0.00749755
-0.0090763
-0.0842379
0.000137523
0.00401274
0.00170558
0.00905818
0.000261898
0.00431665
0.00493738
-0.0761634
-0.0129717
-0.0115407
-0.043671
0.00454631
0.00212
-0.00529225
-0.0022571
-0.00821457
-0.282931
-0.00672213
-0.0102082
0.00313027
0.0115045
-0.0371551
-0.0325729
0.0053102
0.012716
0.00156367
0.00092811
0.00143617
-0.030818
-0.0288899
-0.0932229
-0.00828787
0.00795692
0.003999
0.000446378
-0.0423842
-0.00450332
0.00833531
-0.0110343
-0.0870096
-0.0781604
0.00468899
0.00608829
-0.0109402
0.00332835
0.00467683
0.00285785
0.0028731
0.00665413
0.00274026
0.00275394
0.00338201
0.0026091
0.00138313
0.00662869
0.00556911
-0.317662
-0.00553848
0.000878257
-0.00138646
-0.00342932
0.00223591
-0.041985
-0.0395079
-0.263007
0.0052412
-0.0889065
0.00604535
-0.0388115
0.00487902
-0.0791931
-0.103873
-0.244591
0.00502855
0.000431211
-0.0114912
-0.129166
-0.108101
0.00119552
-0.00607647
-0.00180113
0.00791197
0.00686476
0.00253603
0.00121798
-0.293559
-0.0123798
0.00731203
0.0160874
0.00866546
-0.0503387
-0.0197496
0.00336223
0.00379232
0.00190271
0.000278686
-0.0630917
-0.0399602
8.18439e-05
0.00473562
-0.0238905
-0.0349018
0.00484106
0.0038555
0.00759546
0.00460767
0.00028883
0.00245339
0.00696594
0.00213514
-0.0373942
-0.0163673
-0.0637133
0.00819213
0.00478428
0.0019883
-0.12291
-0.0272321
-0.0350343
0.00215282
-0.0208994
0.00494199
0.005172
0.00207032
0.00441418
-0.0219282
0.00496298
-0.0811817
-0.0167083
-0.0747507
0.00134968
0.0153816
-0.00649218
0.0301985
-0.0158805
-0.0145572
-0.0126793
-0.0220607
0.00756924
-0.100362
0.00209914
0.00487611
0.00125326
-0.00365442
-0.0226786
-0.048051
0.0030276
-0.0322551
-0.226727
0.00397625
0.00256889
-0.0306849
-0.0100733
-0.0125117
0.00779767
-0.0182668
0.00493182
-0.0368623
0.00210956
-0.0807558
-0.0367085
0.00657916
-0.0121346
0.00320034
-0.0111146
-0.326592
0.00991548
-0.0110569
0.00489559
-0.0572195
0.00400625
0.00523481
0.00437605
0.0020163
-0.0469925
0.00524404
-0.0110713
0.00328102
0.00210967
-0.0342366
0.00664472
0.00814604
-0.296075
-0.0221419
0.00254929
0.0096257
-0.00943096
0.00219776
-0.0919863
0.00128278
0.012694
0.00327395
0.00671644
-0.00867422
0.00422716
0.00292904
0.002274
-0.0763885
-0.127505
0.00405146
0.00740768
0.000489646
0.00280008
-0.222594
-0.00394868
0.00956254
-0.069832
0.00680198
0.000241876
0.00698884
0.00305326
-0.037515
0.00282111
-0.163495
-0.0125747
-0.0220982
0.00827145
0.00143252
0.0068397
-0.0110688
-0.00178062
-0.161272
-0.0227641
0.00122164
0.0134019
-0.0950314
-0.0986178
0.00127576
0.000128078
-0.103642
-0.00491523
0.00334147
-0.0141108
-0.298522
-0.0150331
0.00927018
0.00109875
-0.0475408
0.000440928
-0.0323234
-0.0892871
-0.0141282
-0.0209657
0.00511618
0.00397958
0.0060534
0.00318828
0.00486299
-0.0461631
0.00575774
-0.0954498
0.00199548
-0.0513317
-0.0771003
-0.0785353
-0.0216385
0.00402705
-0.00730759
-0.0363977
-0.0206504
0.00798399
0.00204579
-0.291196
-0.0128873
-0.0306558
-0.0749102
0.00516601
-0.144602
-0.292506
-0.33595
-0.014881
0.00299514
-0.0913993
0.00513603
0.0069357
-0.0164906
-0.307269
-0.0894927
-0.34259
0.00224995
0.00400979
-0.0117285
-0.00931424
-3.88723e-05
0.00487917
-0.00765145
-0.00241976
-0.0302203
0.00362244
-0.0118878
0.00882613
-0.02784
-0.162399
0.00216362
-0.00601926
-0.036172
-0.0295725
-0.0112103
0.00773101
-0.00614982
-0.00394319
-0.00570329
-0.0645593
0.0031901
0.00320564
0.00815526
-0.123326
0.00272586
0.00469937
-0.30288
-0.330233
0.00479137
-0.0958062
-0.0184291
0.00591834
-0.0735496
-0.0158171
-0.302669
0.0030791
0.00513838
-0.00501256
0.00508467
-0.0704644
-0.0176052
-0.00479341
-0.0730582
-0.242937
0.00395993
-0.00616331
-0.0201536
0.00261687
0.00406358
0.000839892
0.0357874
0.00323589
-0.0534147
-0.326264
0.00362028
0.00888992
-0.0322003
0.0139597
0.020493
0.00418086
-0.104204
-0.0239092
-0.0647365
-0.00171665
-0.0292682
-0.327138
-0.0721856
0.00475258
0.00483291
-0.0124157
0.00751492
0.00484931
-0.0200763
-0.0336152
0.00202514
0.00356813
0.045
0.00595405
0.00717398
-0.00783616
0.0093864
0.000543611
0.00317564
0.0196912
0.00484056
0.0351787
-0.0614563
-0.0432078
0.00480879
0.00247223
0.0057299
-0.0107534
0.00177443
0.0375246
-3.52857e-05
-0.018414
-0.297356
-0.0280215
0.000639156
-0.132998
0.00933691
-0.0151868
-0.204502
-0.0392869
0.00488461
0.014302
-0.367751
0.0181765
-0.00399015
0.0067647
-0.0357029
0.0135247
-0.00900096
-0.089038
-0.0327037
0.00420324
-2.75055e-05
-0.0547771
0.00605546
-0.00860193
0.00418604
-0.021475
-0.0271559
0.0137276
0.00273434
0.00682439
0.000381108
-0.00574653
-0.30205
-0.0404563
0.00769053
-0.00863227
0.0166652
0.00482988
-0.0163442
0.0144452
0.00462903
0.0245695
-0.324939
-0.0211707
-0.00218643
0.00594524
-0.043331
0.00420129
-0.0216427
-0.0970236
0.00472232
-0.00766167
-0.313917
-0.0104522
0.0042902
-0.00933811
0.0136692
-0.020561
-0.0352878
0.00707174
0.00373984
-0.00772703
-0.337016
0.00103541
-0.00304757
0.00115446
-0.00660134
-0.0149909
0.00574199
0.00173309
0.00012838
-0.0400822
-0.0141395
0.00172965
-0.187767
0.00685262
-0.00885338
-0.151363
0.00273833
-0.00913412
-0.0258778
0.0353007
-0.00995893
-0.0109487
-0.300469
0.00789296
-0.08726
-0.291618
0.00531889
-0.0181628
-0.315452
0.0109353
-0.0117051
0.00767357
-0.0796053
-0.00451007
-0.104204
0.00158844
0.00425646
0.0174658
0.0173338
-0.0470245
-0.0061002
-0.0354703
0.0220817
0.00187916
0.00611677
0.00543283
-0.10433
-0.00973888
0.0039972
-0.0108103
0.00914825
-0.0183403
-0.0270101
0.0144221
0.00454651
0.0118224
0.00414448
2.77515e-05
-0.0405787
0.00515753
-0.0341236
-0.0458044
-0.00177354
-0.362101
-0.0156689
-0.343044
-0.361594
-0.0586212
0.018739
0.0470609
0.00562353
-0.00373154
-0.0738811
0.00112288
-0.0282976
-0.00664081
0.00594916
-0.0125687
0.00165983
-0.0308697
-0.0115875
-0.00669446
-0.0369076
0.000983091
-0.0145497
-0.0218618
0.0359949
0.0103919
-0.0128033
-0.250911
-0.00923229
-2.27517e-05
-0.0178589
0.00205947
0.00405091
-0.0443528
-0.109562
-0.00603129
0.00377085
-0.308477
-0.283222
-0.0103776
0.0048246
-0.0713057
0.00422823
-0.0138928
0.00106718
-0.286266
-0.0348063
0.00742762
-0.08268
-0.000987196
-0.022234
0.016971
-0.0465511
0.0041221
0.00107014
-0.0143773
-0.337074
0.00478672
-0.0113025
0.00786894
0.0137142
-0.0377638
0.00465525
0.00400746
0.00550762
0.00412058
0.00753339
-0.0703407
-0.0199274
-0.00279773
0.00561002
-0.310984
0.00045188
-0.0118369
0.00389036
0.00474478
0.0142848
0.00537559
0.0064882
-0.0319799
0.00554524
-0.0408706
-0.00988607
-0.00116988
0.0119703
-0.0118626
0.000976117
0.0049651
-0.00194991
0.00510858
0.00477486
0.00352298
-0.0428235
-0.164656
0.0082947
-0.0217842
-0.0146546
-0.00816898
-0.0943836
0.00448303
-0.0108644
-0.0103999
0.0164621
0.00211259
0.00693423
0.00420336
0.00654586
0.00545198
-0.315079
-0.0588493
0.00408688
0.00464558
0.0119981
0.00496608
0.00376898
-0.00292564
-0.12019
0.00351464
-0.013586
-0.303744
-0.0875813
0.00785887
-0.0142348
0.00539718
0.0327829
-0.00313347
-0.137687
-0.225799
0.00379029
-4.31019e-05
0.00492032
0.000260904
-0.0611913
-0.00970297
0.00465675
-0.340428
-0.055692
0.016029
0.00648108
0.00399922
0.00939302
0.00375657
0.000305132
0.00754553
0.00259383
0.00979286
-0.014785
0.00622341
-0.000140216
0.00642672
-0.139593
0.00459909
-0.015097
-0.0252691
0.0170778
-0.0422621
-0.0311577
-0.294222
-0.0387696
-0.00767359
-0.0138776
0.00431683
-0.0135263
-0.0123406
0.00284283
0.0032759
-0.0174243
-0.0872977
-0.0791019
0.00282226
0.00323212
-0.00676781
-0.30722
-0.0584013
-0.00318727
0.00632857
-0.276678
-0.173023
-0.231044
-0.0124117
-0.0855241
0.0085808
0.00368031
-0.125252
-0.248997
0.0203264
0.00629746
0.00395799
-0.249095
-0.00349864
0.00114646
-0.0457677
-0.0635399
-0.0675567
-0.0393284
0.019896
0.00240863
0.0035399
0.00337169
0.00430582
0.0535084
-0.00221203
-0.0996081
-0.010346
-0.00703369
-0.101697
-0.132618
-0.0709162
-0.0523196
-0.0109267
0.00591204
-0.0149968
0.00434291
0.00333436
-0.018043
-0.0102519
0.00431912
0.00798325
-0.0127925
0.00516488
0.0184378
-0.023437
-0.0022331
-0.0531622
0.00848518
0.0120846
-0.18259
0.0434659
0.0331762
0.00458714
-0.015271
-0.0120979
-0.130186
-0.00856483
-0.0088299
-0.320445
0.00981601
0.0383437
0.000209724
-0.0110297
-0.00859375
0.00408326
-0.333348
0.0144962
-0.320695
0.000235007
-0.037134
0.00138327
-0.0129315
0.00608096
0.00460706
0.00324202
0.00662961
-0.0055482
0.000664335
-0.054457
-0.32145
-0.302299
-0.0110182
0.0041552
-0.0106051
-0.0119521
-0.0114547
0.0223343
-0.0095608
-0.00723495
-0.0149739
-0.0688737
-0.303688
0.00714349
0.00968129
-0.0743677
0.00606983
-0.0105686
0.000846679
-0.0195358
0.00713212
0.00260741
0.00415581
-0.124047
0.00630342
0.00326546
-0.166544
0.0172372
-0.0109544
-0.301373
-0.0998949
-0.0104325
-0.126974
-0.0384077
0.00321528
-0.00239519
-0.00845692
0.0100962
0.0136875
-0.275972
-0.0524439
0.00463783
-0.163103
0.0537515
0.0515312
0.00682484
0.00791134
0.00523488
-0.0827955
-0.0105613
-0.306795
-0.0408207
-0.0402087
-0.00785651
-0.0126205
-0.324206
-0.0398594
0.00412416
0.00745096
-0.0207816
-0.0968903
-0.107947
0.00426396
0.00261448
0.00322275
0.00412737
0.00480973
0.00377338
-0.0545817
-0.0806554
0.0252764
0.00235674
-0.0130941
-0.00214699
0.0146313
0.00370753
-0.00426313
-0.0181069
-0.272107
-0.0391081
-0.319215
-0.0269931
-0.0139353
0.00924778
0.00962039
0.000909794
0.00478501
0.0497988
-0.217564
-0.0976142
0.00363895
-0.050405
-0.0221799
-0.0139767
-0.0549312
0.00134833
0.00530727
-0.0279463
0.00548493
-0.00687772
-0.0107511
-0.0120819
0.00415693
0.013977
0.00217534
-0.167257
-0.0160713
-0.0135836
-0.217195
-0.176217
-0.0675504
-0.00346638
-0.041751
-0.0583554
-0.0184629
-0.0244277
0.00396207
0.00017562
-0.0299116
-0.049435
-0.0057577
0.00511285
-0.00744702
0.00922407
0.015413
0.00517642
-0.00596372
0.0042893
0.0104064
-0.0137094
0.00236622
-0.00311556
-0.0263072
-0.108104
-0.0751226
-0.279102
-0.264327
-0.030852
0.00743
0.00434365
-0.0621609
-0.0704551
-0.00214706
-0.00710872
0.00962129
-0.00870413
-0.0112846
0.00361778
0.00490067
0.0033972
-0.0068722
-0.0145411
0.00413762
-0.00391039
-0.371808
-0.29153
-0.0379227
-0.00923793
0.0052769
0.00678988
-0.0111939
0.0157651
0.000887012
-0.0903814
-0.250174
-0.0389209
-0.00460393
-0.018582
0.00213178
-0.0379468
-0.029055
-0.0334677
-0.0154148
-0.330007
-0.0141404
-0.0321186
-0.00847477
0.00616791
-0.192578
-0.00472132
-0.0208265
-0.00173703
-0.010644
0.000278146
-0.00493423
0.0121797
-0.00477429
-0.182645
-0.0232834
-0.0332109
-0.0112936
-0.295568
0.0048208
-0.0207893
-0.0125988
-0.0295016
-0.0169709
0.00563417
-0.0473714
-0.000979498
-0.0171372
0.00408687
-0.0354608
-0.333205
0.0149471
0.00415519
-0.00772047
0.000715694
0.00157814
-0.053559
-0.0349732
-0.0984013
0.0221875
0.000179275
-0.0127141
0.00159903
0.00202713
-0.00122778
0.00223477
0.00480906
-0.0019858
0.00502103
0.00675775
0.00995671
0.00691702
0.00434651
0.000883921
-0.0266758
0.00336255
0.00510598
0.00150583
0.00472119
-0.0487933
0.0117553
-0.00926094
-0.0506153
-0.217063
-0.00871919
-0.156048
0.00674002
0.00369653
0.00210041
-0.045224
-0.26651
-0.0904244
-0.0262153
-0.272176
-0.000497232
-0.0100533
-0.263098
-0.323497
-0.311131
0.00492004
-0.0158622
0.00673698
-0.0111423
0.00275601
0.00504385
0.0148718
0.00746526
0.00260615
-0.0190681
0.012404
-0.0180713
-0.321339
-0.011912
-0.306841
-0.00473309
0.00359501
-0.0676219
-0.0118259
-0.30021
0.00531084
0.0166046
-0.0193882
0.00474395
-0.260898
0.00483151
-0.00638051
-0.318133
-0.31401
0.00475255
-0.0835206
0.00669384
0.0068102
0.00403038
0.00394352
-0.00396949
-0.073625
-0.0174053
0.0156272
0.00137858
0.00562326
-0.00612051
-0.220683
-0.00677508
-0.0329236
0.00486158
-0.0491009
-0.178937
-0.0150565
-0.0802044
-0.00887156
-0.0192363
0.00549036
0.00326915
-0.068863
0.00173389
-0.0433073
0.00577991
-0.0162523
5.47064e-05
-0.014599
5.19282e-05
-0.0222418
0.00400061
-0.02892
-0.319563
0.00659485
0.0299594
0.00471196
0.00615389
-0.00705416
0.00508443
-0.296657
-0.0107297
0.0014685
0.00408299
-0.045276
0.00114416
-0.0230974
0.00311322
0.00165011
-0.00969434
-0.330811
-0.0250392
0.00555236
-0.0601514
-0.326028
-0.0324086
-0.0107437
0.00503278
-0.00431842
-0.0265844
-0.335621
-0.322646
-0.298865
0.0120897
-0.0064701
-0.00966849
-0.0826707
-0.32417
0.00388753
0.0034897
0.0107804
0.005489
-0.0235454
-0.0297307
-0.0144862
-0.256286
0.0108841
-0.0151512
0.0108814
-0.00462838
-0.00490512
0.00269352
-0.317051
0.00387577
0.0532987
0.00683726
0.00556753
-0.0101927
-0.0131625
0.0107994
0.00649043
0.0155484
-0.32904
-0.282761
0.00701458
-0.0776459
-0.0150159
0.00474069
0.0338703
0.00725094
-0.00718475
0.00181564
-0.00172855
0.00117624
0.000562903
0.0167971
0.000611473
0.00541521
0.00183652
0.00668955
0.00257971
-0.00613264
-0.0175821
-0.153784
0.00929484
-0.0179758
0.00497763
-0.0185492
0.00626719
-0.0560239
-0.108239
-0.15679
-0.0932791
-0.340278
-0.0173934
0.016024
0.00609718
-0.0403626
0.00993293
-0.0361844
-0.279808
-0.00715315
0.00845359
0.00318194
0.00419011
-0.130826
-0.114402
-0.0786799
0.0046158
-0.0172964
0.00542494
-0.296913
-0.0939431
-0.23441
0.00329854
-0.0727332
-0.11625
0.00479344
-0.32227
-0.129013
-0.203814
-0.0116513
0.00824326
0.0178989
0.00215057
0.00764845
0.0085872
-0.00859775
0.00633852
-0.036488
-0.301215
0.0418369
-0.010831
-0.308686
-0.00661635
0.00594438
-0.301607
0.00696222
0.0033237
-0.278175
-0.0152892
-0.020608
-0.107146
-0.131307
-0.0281361
-0.00553624
0.00480137
0.00422795
-0.104971
-0.0303005
0.00224053
0.00614245
0.0056867
-0.0150635
0.0011557
-0.0392179
-0.0369848
-0.0469363
-0.419869
-0.000564487
0.00232421
-0.0406711
0.00165842
-0.310267
-0.0552773
-0.024852
-0.101456
0.00492794
0.00926128
0.00699945
0.0402629
-0.0128826
-0.00397787
-0.25461
0.00209494
-0.0187825
0.004119
0.00970742
0.0215827
-0.136325
0.0063839
0.0511514
-0.164367
-0.0102771
-0.00943257
0.00138044
0.00399129
-0.00314828
0.00745645
-0.0176858
0.0121882
0.00983096
-0.0181448
0.00465237
0.0160169
-0.0379254
-0.327316
-0.294865
-0.0361885
0.00689528
0.00172285
-0.011769
0.0548917
0.00540879
-0.0412243
-0.268325
0.00429685
0.0034367
0.00238081
0.0345464
0.0079173
-0.165186
-0.0375494
-0.156436
-0.0386016
-0.287106
0.0326907
-0.264413
0.00731435
-0.163935
-0.271084
0.0295546
-0.0104791
-0.016391
-0.0101672
-0.252579
0.00458038
-0.308032
0.0339976
0.00236848
-0.00438596
0.00661473
-0.138516
-0.0183706
-0.0461981
-0.14007
0.00419418
-0.0130338
0.00534154
-0.0611173
-0.310911
-0.0168298
-0.164701
-0.0930323
-0.0414538
-0.31618
0.00324135
-0.0896329
-0.14836
-0.00870291
-0.193375
0.016908
0.00787098
0.0062475
-0.0103193
-0.0191526
-0.198406
-0.0131987
0.0028993
0.00336328
0.00771326
-0.276957
0.00709743
0.00899156
0.00581562
0.00571535
-0.13761
0.00509108
-0.00715322
-0.0895353
-0.174188
-0.0147537
0.00879318
0.00279814
-0.011355
-0.00748483
-0.120746
-0.289138
0.0119913
-0.0207866
0.00143326
-0.0688689
0.00532853
-0.247807
-0.00162851
-0.0675445
0.00023458
-0.32393
0.00352863
-0.0123743
0.0155475
-0.226907
0.0161499
-0.00850778
0.00346889
-0.00120913
-0.0237484
-0.0423296
0.00627839
-0.0722161
-0.00369261
-0.00410023
0.00431358
-0.0114572
0.0116
0.00267669
0.00860829
-0.185984
-0.308341
-0.129321
-0.0102228
-0.306638
-0.311789
-0.0958552
0.00456702
-0.0555589
-0.31059
-0.00430103
0.00135292
-0.00291583
-0.0851525
0.00537679
-0.0380646
-0.0143552
-0.0134567
-0.00808265
0.00028002
0.00266268
0.00908186
0.0219398
-0.0342761
-0.0383867
0.00688433
-0.275364
-0.157603
-0.0551857
-0.0146905
0.00789862
-0.0470482
0.00784007
-0.112103
-0.0488513
-0.100216
0.00335706
-0.0161404
-0.291819
-0.0245094
0.014039
-0.0273154
0.00181704
0.0125097
-0.100749
-0.0204665
-0.0100371