/*--------------------------------*- C++ -*----------------------------------*\
| =========                 |                                                 |
| \\      /  F ield         | OpenFOAM: The Open Source CFD Toolbox           |
|  \\    /   O peration     | Version:  v2012                                 |
|   \\  /    A nd           | Website:  www.openfoam.com                      |
|    \\/     M anipulation  |                                                 |
\*---------------------------------------------------------------------------*/
FoamFile
{
    version     2.0;
    format      ascii;
    class       surfaceScalarField;
    location    "350";
    object      phi;
}
// * * * * * * * * * * * * * * * * * * * * * * * * * * * * * * * * * * * * * //

dimensions      [0 3 -1 0 0 0 0];
oriented        oriented;


internalField   nonuniform List<scalar> 
27663
(
0.466967
-0.162209
-0.304757
0.164964
-0.108893
-0.0560712
-0.478694
0.52328
-0.0445861
-0.165115
-0.15854
0.323655
0.379717
-0.418648
0.0389315
-0.274505
-0.16683
0.441335
0.22097
0.0605833
0.0835831
0.0813813
0.258126
0.176246
-0.434371
-0.356101
0.491935
-0.135833
-0.166828
-0.0652283
0.232056
-0.000374284
-0.47832
0.0984532
-0.263569
0.316604
-0.525387
0.208783
0.425214
-0.0454974
0.556656
-0.392177
-0.164479
0.551769
-0.364638
-0.187131
0.00688601
0.0140677
-0.0209537
0.505597
-0.245777
-0.25982
0.441431
-0.38921
-0.0522207
0.160397
-0.434902
0.121146
0.348658
-0.469805
0.39834
0.158316
0.155699
0.0454162
-0.201115
-0.473427
0.477185
-0.00375753
-0.256788
-0.0199214
0.276709
0.137123
0.329844
0.308268
-0.55097
0.242702
0.400263
-0.582289
0.182026
0.588216
-0.163805
-0.424411
-0.469211
0.4945
-0.0252892
-0.178587
-0.159898
0.338485
0.452129
-0.214653
-0.237476
0.300413
-0.0934785
-0.206934
0.441713
-0.269458
0.471815
-0.254747
-0.217068
0.255772
0.132059
-0.387831
-0.357676
0.124835
0.232841
0.437421
-0.285683
-0.151739
0.394891
0.193325
0.327399
-0.307664
-0.0197356
0.448638
-0.311516
0.616911
-0.326457
-0.290453
-0.162168
0.00890029
0.153268
0.459901
-0.201776
-0.221127
0.315835
-0.0947085
-0.087098
0.323099
-0.486007
0.162908
0.163305
-0.44995
0.286644
-0.0854257
0.0595426
0.0258832
0.510996
-0.202727
0.239843
-0.440446
0.200604
0.317443
-0.366963
0.0495204
0.282286
0.0451131
-0.444459
0.463039
-0.0185798
-0.184166
-0.0392462
0.223412
0.511306
-0.194702
0.145039
0.296392
0.174844
0.125568
-0.25155
0.454924
-0.203374
-0.561391
0.362906
0.198485
-0.545286
0.28974
0.255546
-0.0938104
-0.2954
0.0810133
0.273161
-0.354174
0.22511
-0.188364
-0.0367459
-0.0627904
0.14935
-0.0865599
-0.370508
0.540955
-0.170447
-0.289591
0.23462
0.0549709
-0.288843
-0.205249
0.494092
0.26735
-0.383702
0.116352
0.0985609
-0.265389
-0.620815
0.349569
0.271246
-0.244879
0.193818
0.0510607
-0.0134308
-0.000682027
0.0141128
-0.541691
0.270941
0.27075
-0.272049
0.213056
0.0589928
-0.308323
0.228706
0.0796179
-0.0813911
-0.00403456
-0.494803
0.205961
0.0627843
-0.133938
0.0711541
0.0414188
-0.0181648
-0.00447663
-0.00936906
0.0138457
-0.00581815
-0.00761263
-0.499047
0.0586571
0.44039
0.256416
0.195713
0.320188
0.296722
-0.155281
0.224954
-0.0696736
0.00367717
-0.359779
0.340043
-0.270795
-0.069248
0.0169719
-0.0100859
-0.187468
-0.0574109
-0.441489
0.334699
0.106789
-0.193898
0.0317295
-0.283663
-0.0246601
0.439068
0.000181106
-0.439249
-0.20292
-0.0691282
0.119588
-0.3799
0.260312
0.386456
-0.160971
-0.225486
-0.189572
-0.335815
-0.444455
0.444081
0.430656
0.00841108
-0.280838
0.361851
0.280589
-0.298551
0.0179615
-0.276005
0.0974179
0.430753
-0.430753
-0.140212
0.14835
-0.00813807
-0.380838
-0.063621
0.0586033
0.365623
-0.424226
0.150857
0.0742528
0.188829
-0.479077
0.290248
0.261947
-0.0778133
-0.184134
0.132997
0.279794
-0.412791
0.3575
-0.321032
-0.0364681
0.522439
-0.314304
-0.208135
0.0913272
0.275766
-0.367093
-0.484051
0.0395958
-0.464501
0.093993
-0.148093
0.0144222
0.133671
0.170159
-0.452686
0.282527
-0.172092
-0.0087554
0.180847
0.147281
0.239175
0.28708
0.0704199
0.0321534
-0.216319
0.00347028
-0.00794691
0.245569
-0.407778
0.383899
-0.142818
-0.241081
-0.271658
0.254799
0.0168589
-0.0110769
-0.00882881
0.0199057
0.126089
-0.273786
0.147697
0.0746604
0.127898
0.124289
-0.191885
0.0675953
-0.290467
0.423464
0.0113639
-0.00614787
-0.00521606
0.198653
0.184301
-0.382954
0.338438
-0.247111
-0.206556
0.477441
-0.270885
0.285585
-0.530251
0.244666
0.129818
-0.411396
0.281577
-0.0265788
0.100452
-0.073873
0.601423
-0.257359
-0.344064
-0.468003
0.0558753
0.412128
-0.527694
0.233777
0.293918
-0.341741
-0.203545
0.382846
-0.263258
0.510739
-0.246696
-0.264042
0.0634611
-0.320249
-0.131314
0.387086
0.244589
0.266407
-0.0170006
-0.123212
-0.169821
-0.0389037
0.208725
0.1725
0.338806
-0.135282
-0.0128109
-0.119279
0.0926999
-0.333574
-0.452533
0.504506
-0.0519733
0.346085
0.0860224
-0.432108
-0.152792
0.154529
-0.00173689
0.106937
0.0410275
-0.147965
0.132664
-0.224559
0.0918948
0.173762
-0.472494
0.298733
-0.464938
0.0627373
0.4022
-0.154101
0.373708
-0.219607
0.416411
-0.286593
0.296056
-0.0328144
-0.263242
0.612315
-0.314557
-0.297759
0.349629
-0.202348
-0.429638
-0.0228949
-0.299833
0.525648
-0.225815
0.0133363
0.0280825
0.173985
0.16983
-0.343815
-0.379206
-0.162485
0.12445
-0.437626
0.313176
0.178945
-0.0546554
0.134289
-0.200626
0.0663372
0.192731
-0.130306
-0.0624244
0.213342
-0.294135
0.0807924
-0.493815
0.175881
0.317934
0.000558889
-0.0116358
0.41053
-0.28608
0.307486
-0.512735
0.0709852
0.151301
-0.222286
-0.0604664
0.194755
0.227478
0.244337
0.504325
-0.278491
-0.225834
0.0106283
0.537869
-0.312546
-0.225323
0.473803
-0.215848
-0.257955
-0.1491
0.220085
-0.339638
-0.154177
-0.439115
0.272285
-0.229906
0.45514
-0.225234
0.129222
-0.199733
0.0705114
-0.0629398
0.169877
0.299643
0.30178
-0.216652
0.13587
0.0807823
-0.162555
-0.29326
0.455815
0.216893
-0.0655921
-0.277686
0.349792
-0.0721054
-0.0188026
-0.480245
-0.109027
0.00630913
0.102718
0.367045
-0.284195
-0.0828492
-0.0291104
0.188825
0.185872
0.324426
-0.237631
-0.0867955
-0.0342802
0.0103358
0.0239443
0.014839
-0.0336456
0.0188066
-0.0610723
-0.0390682
0.10014
0.158443
-0.158196
-0.000246939
0.202791
-0.313836
0.111045
0.22382
0.0100806
-0.2339
0.343881
-0.145228
-0.488307
0.46565
0.0226575
-0.00776758
0.14677
-0.139002
-0.133717
0.00665358
0.127064
0.226639
0.277687
0.52758
-0.300102
0.499234
-0.230843
-0.268391
-0.0209439
-0.147047
-0.141575
0.133807
0.112486
0.24725
-0.359737
0.330854
-0.302634
-0.0282203
0.318591
0.219278
0.172171
-0.106826
-0.0653447
0.120189
-0.326362
0.206174
0.323279
-0.0794614
-0.243817
0.361146
-0.248659
0.334877
0.277438
0.0884631
0.13592
-0.223609
0.0876888
-0.0353024
0.259122
0.0800354
0.216021
-0.492419
0.0244165
-0.0762485
-0.391908
-0.0773027
0.189671
-0.11501
0.215559
0.239365
0.164396
-0.440802
0.276406
0.249089
-0.211666
0.525462
-0.313796
0.222677
-0.155266
-0.0674104
-0.121555
-0.175908
0.297463
0.325231
0.103277
0.236767
0.195046
0.23561
0.413107
-0.173264
-0.0490014
0.2047
0.0212031
-0.031893
0.0106899
-0.498197
0.00988963
-0.096834
0.222923
-0.0597916
0.377234
-0.501627
0.244747
0.25688
0.215556
0.108871
0.167401
-0.123254
-0.0441468
0.17251
-0.303732
0.131223
0.241161
0.255503
-0.496664
-0.312218
0.352597
-0.0403787
0.222933
-0.0902689
-0.487669
0.22519
0.262479
0.115993
-0.216144
0.100151
0.0833796
0.0887915
-0.139709
0.00698826
0.273601
0.119585
-0.0711685
-0.048416
-0.31876
-0.182867
0.114644
-0.351824
0.237179
0.145891
0.0768254
-0.27581
0.2696
0.082997
0.204586
-0.280178
0.0755924
-0.0810788
0.138336
-0.424293
0.285957
0.572707
-0.177816
-0.200992
-0.349979
-0.510716
0.319508
0.191208
0.363182
-0.285481
-0.0777006
-0.467914
0.311
0.156914
-0.187618
-0.0274135
0.00444034
0.0229732
0.398276
0.174431
0.245088
0.085766
0.433912
-0.295576
0.0557835
0.111618
-0.00957503
0.0307781
0.258178
0.065101
0.207241
-0.333964
0.126723
0.527973
-0.098172
-0.429801
-0.220949
0.28441
-0.315641
0.436788
-0.255615
-0.0255021
0.281117
0.237434
-0.44399
-0.308509
0.0228261
-0.0233715
0.418468
-0.395096
0.129232
0.398741
-0.0113524
-0.14144
-0.0776736
0.477937
0.306738
0.245031
-0.398358
0.294137
0.104221
0.0854952
0.0231609
0.389435
-0.122085
0.232646
-0.0413308
-0.191315
0.0702224
0.0493621
0.235212
-0.0529719
-0.18224
-0.0886387
-0.109443
0.000416059
-0.17886
0.357024
-0.178164
0.277971
-0.438901
0.16093
-0.111277
-0.0714041
0.0705634
-0.343485
0.272921
0.429625
0.00112822
-0.328781
0.088925
0.239856
-0.163115
0.0803963
-0.250217
-0.373136
0.194276
0.202999
-0.192918
0.450487
-0.29009
0.354997
-0.240353
-0.324537
0.527574
-0.203037
0.487677
-0.487677
-0.0657949
0.0670932
-0.216193
0.201854
0.15517
-0.354127
0.261888
0.0922396
0.284857
-0.447412
0.110169
0.239623
0.476699
-0.157191
0.168371
0.0668414
0.114648
-0.396478
0.28183
-0.420502
0.120669
0.266438
0.256001
0.129472
-0.20331
0.0738381
-0.259109
0.329672
-0.27677
-0.180526
0.457296
-0.287033
-0.0670942
-0.060214
-0.208569
0.268783
-0.265397
0.429793
-0.0246443
0.0746307
-0.0499864
-0.00952073
-0.0227792
0.0322999
0.188675
-0.474441
0.285765
-0.0232212
0.00112874
0.0220925
0.183131
-0.171212
0.499792
-0.32858
0.476192
-0.168706
-0.481407
0.050653
0.50813
-0.228513
-0.279617
0.457175
-0.0308086
-0.426366
-0.232958
-0.110997
0.343954
-0.100941
0.123919
-0.317984
0.194065
0.133283
0.0896498
-0.0836927
0.163245
-0.416064
0.25282
0.101076
0.0916544
0.160903
-0.122663
-0.0382399
-0.25418
0.495341
-0.0711976
0.132894
-0.061696
-0.250532
-0.222133
0.240264
-0.0181304
0.125669
-0.316962
0.191293
-0.0491963
-0.0700824
-0.0382395
-0.109032
0.147272
0.219334
0.288796
-0.117691
0.0684946
-0.36508
0.233334
0.131746
0.449785
-0.335137
0.303147
-0.165113
-0.283466
0.448578
0.291555
0.219184
-0.425593
0.424884
0.00070868
0.138618
0.277793
-0.359567
0.12661
-0.204136
0.328055
-0.187689
0.536347
0.420132
-0.142161
-0.321541
0.144039
0.177501
0.49533
-0.330385
-0.164945
0.354797
-0.0109156
0.257925
0.109119
0.334063
-0.230786
-0.281453
0.0511584
-0.0621259
0.0109675
0.37065
-0.0636224
-0.307027
0.1625
0.343097
0.136268
-0.37876
0.242491
0.270177
0.179699
-0.449876
-0.136957
0.0657591
0.0122551
-0.477193
0.409151
-0.245906
-0.46837
0.0855817
0.382789
0.309362
-0.436209
0.126847
-0.315081
0.0939545
-0.469961
0.00159097
-0.0170777
-0.399641
0.247695
0.151945
-0.0123196
-0.159772
0.10179
-0.039006
0.604326
-0.269449
0.442895
-0.197144
-0.245751
0.35947
-0.223201
-0.153448
-0.225407
0.378856
0.0257223
0.329075
0.108183
-0.14235
0.0341672
-0.182844
0.453021
-0.0269127
0.0605942
-0.0336815
0.126039
0.235107
-0.0719194
-0.161366
0.233286
-0.453749
0.474195
-0.020446
-0.151141
0.278331
-0.12719
0.0620439
0.276394
-0.0629276
0.0685888
-0.00566116
-0.0436651
-0.102478
0.146144
-0.415293
0.186729
0.228565
-0.468546
0.314675
0.153871
0.103611
-0.14185
0.300576
-0.495969
0.195393
0.325128
-0.0767955
-0.248333
-0.113239
0.405007
-0.291767
-0.12536
-0.257409
0.382769
0.423688
-0.285069
-0.107196
0.327781
-0.220584
-0.192216
-0.275698
-0.280072
0.368535
0.255036
-0.2617
0.00666409
-0.264186
0.453016
0.25781
0.185085
0.270034
0.113865
0.520151
-0.331674
-0.188477
0.237916
-0.327232
0.0893159
-0.521165
0.238991
0.282174
-0.0920235
-0.396087
0.488111
0.365437
-0.239399
-0.179827
-0.261661
-0.291102
0.139962
-0.387148
0.273908
-0.124929
-0.0669552
-0.281441
-0.15639
0.139389
-0.519389
0.30499
0.214399
-0.099751
0.0813291
-0.124994
0.360578
0.0299122
-0.39049
0.412968
-0.0523895
-0.00485352
-0.0144466
0.0193002
0.230781
0.0943467
0.185656
0.0469897
0.13501
-0.14556
0.0105501
-0.118715
0.356258
-0.237543
-0.0958847
-0.148511
0.244396
-0.228557
-0.290831
-0.0963854
-0.0423013
0.138687
0.214424
0.000176022
-0.2146
-0.32874
0.110441
0.218299
0.0478619
0.113041
-0.0912014
0.0665571
-0.402011
-0.0714163
0.169122
-0.314702
0.14558
-0.45188
0.454559
-0.00267828
0.00199487
-0.0345409
0.248964
-0.321223
0.0835922
0.118947
-0.070664
-0.0482833
0.302339
0.13289
-0.435229
0.0372236
-0.119121
0.0818975
-0.223848
0.161993
0.0618555
0.135854
-0.0216275
-0.114227
0.206027
0.110238
-0.316265
-0.111691
-0.20985
0.261106
0.159026
0.494672
-0.220605
-0.274067
0.23996
-0.485737
-0.246272
0.371107
-0.215656
0.073955
0.141701
-0.357301
0.33393
-0.310332
0.596957
-0.286625
0.293994
0.0598655
0.0590818
0.146675
-0.011665
0.21438
0.259424
-0.0219832
0.0360509
-0.0837408
0.120964
-0.281241
-0.0399825
-0.148128
0.399247
-0.251119
0.530421
-0.343609
-0.186811
-0.150728
0.31985
0.393156
-0.261097
0.0207302
0.20024
-0.304107
-0.316708
-0.19857
0.230723
0.181925
-0.0362023
-0.145723
0.223024
0.271648
0.156577
-0.449838
0.111559
-0.225526
0.113968
-0.359433
0.205984
-0.428834
0.476198
-0.0473642
-0.00423147
0.0190704
-0.147157
-0.260223
0.407379
0.532069
-0.200507
-0.331562
0.383247
-0.138316
-0.244931
0.204016
-0.239319
-0.440986
0.450238
-0.00925188
0.16235
0.187279
0.277036
0.145042
-0.422078
-0.145216
0.426971
-0.281755
0.301452
-0.181263
0.321709
0.198442
0.430678
-0.145094
-0.394649
-0.0591001
-0.216251
0.363904
0.0856396
0.176308
0.142675
0.0392507
0.270722
-0.200116
-0.208309
0.408425
0.312829
0.284127
0.545456
-0.385049
-0.160407
-0.266404
0.231864
0.468875
0.378154
-0.15138
-0.226773
0.519359
-0.263837
-0.255523
-0.12573
-0.215653
0.440046
-0.224393
0.0180623
-0.389999
0.371936
-0.0862426
0.219526
0.0315814
-0.0926537
-0.27754
0.0565912
0.267857
0.174269
-0.442126
0.147794
0.235453
-0.2505
0.179714
0.0707857
-0.195966
0.383937
-0.187971
0.49163
-0.191054
-0.190608
0.131857
0.0587505
-0.394125
0.271545
0.12258
0.488543
-0.501442
0.0128993
-0.387619
0.239492
-0.0489882
-0.0849502
0.0280252
-0.148222
0.120197
-0.485408
0.0598147
0.00995086
-0.0390843
0.0291335
-0.0423013
-0.0206263
-0.0384942
-0.22791
0.108069
-0.312206
0.204137
0.125451
-0.292884
0.167434
0.17887
-0.20798
0.201004
-0.34674
0.117035
0.229704
0.252233
-0.149811
-0.102422
-0.198394
-0.389091
0.0611538
-0.186083
-0.0702613
-0.151098
0.412204
0.205966
-0.325108
0.119142
-0.107723
0.155337
-0.047614
-0.154021
0.0462978
0.434947
-0.0186734
-0.416274
0.552411
-0.417074
-0.135337
-0.139418
-0.048946
-0.225729
0.15381
0.138503
-0.234388
0.106141
-0.209915
-0.136493
-0.216697
0.35319
-0.137167
0.483252
0.181448
0.0902224
-0.27167
-0.170048
-0.203883
0.373931
0.118697
0.0362594
-0.154956
-0.0611784
0.338214
-0.318445
0.201443
0.117002
-0.260463
0.0297271
0.230736
0.278472
0.00885712
0.176614
0.064383
-0.240997
0.113621
0.18772
-0.301341
-0.0554774
0.222684
-0.111126
-0.022255
0.0240022
-0.00174718
-0.324563
0.0946563
0.0871485
0.311578
-0.398727
-0.204282
0.162484
-0.450497
0.288013
-0.518961
0.183268
0.335693
0.135323
-0.363243
-0.108903
0.472147
-0.112418
-0.232988
0.426032
-0.193044
-0.0771396
-0.278318
-0.0583202
-0.39356
0.183685
-0.0676924
0.199391
-0.32123
0.121839
-0.0110727
0.00492485
-0.42014
0.155236
0.264904
0.105213
-0.139125
0.334084
-0.19496
0.0338369
-0.0238861
-0.382224
-0.0466099
0.111154
0.358093
-0.469247
0.068641
-0.230374
0.161733
-0.286205
0.0705528
-0.370351
0.395211
-0.533081
0.13787
0.147337
-0.114656
-0.0326817
0.183478
-0.278085
0.0946064
0.225269
-0.332466
-0.272902
0.149284
0.123618
-0.466733
0.255067
-0.195978
0.476662
-0.280684
-0.159976
0.414958
-0.254982
0.295219
0.191865
-0.487084
0.041372
0.447171
0.118726
-0.352634
0.454552
-0.101918
0.467435
-0.165096
-0.0500129
0.00456103
-0.138279
0.21696
0.111042
-0.328002
0.13375
0.0130197
-0.0914544
0.251532
-0.149342
-0.0662447
0.215587
0.229279
0.0792869
-0.308566
0.0231909
-0.200333
0.177142
0.0424422
-0.138828
0.21968
0.0987769
-0.318457
0.0493724
-0.304987
-0.184431
-0.0957467
0.119598
-0.056082
-0.063516
0.18777
-0.381475
-0.137486
0.550909
-0.238079
0.137199
0.144586
-0.343503
0.198917
-0.110402
0.327362
0.00746243
-0.0169832
0.122567
0.24287
-0.299823
-0.282466
-0.479093
0.283115
0.51422
-0.197659
-0.316561
-0.360591
0.573143
-0.212552
0.322796
0.191423
-0.0197316
-0.175845
-0.122706
0.364872
-0.230463
-0.13441
-0.523887
0.253194
0.270692
-0.358172
0.219048
0.120411
0.0289398
0.220357
0.124997
-0.345354
-0.329835
0.347897
0.0842732
0.0353248
-0.196471
-0.025662
-0.377316
0.144328
-0.21746
0.531385
-0.356325
-0.175059
-0.409695
0.209426
0.200269
-0.399781
0.280424
0.119357
-0.10746
0.263653
-0.138202
-0.0278624
0.311195
-0.283332
0.144805
0.0778715
-0.130056
0.30667
-0.117438
0.323404
0.0524008
0.0663248
0.0880312
0.249408
-0.337439
-0.0350236
-0.0271024
-0.0358762
-0.111602
0.147478
-0.374445
-0.0611904
0.435635
-0.22351
0.0741674
-0.01181
-0.270784
-0.210802
0.481586
-0.144702
0.201053
-0.0563507
0.140304
0.293608
0.102213
0.199239
-0.0448769
0.379576
-0.0141156
-0.127459
0.214868
0.336041
-0.0121468
0.0190508
-0.00690399
0.236282
0.212543
0.165611
-0.295133
-0.164559
0.459692
0.123907
0.0657638
-0.210947
-0.271073
0.210859
-0.00235373
0.0193986
-0.0170448
0.018807
0.236229
0.103598
0.306932
0.0440867
-0.116025
0.0719381
-0.393574
0.474997
-0.081423
-0.0187809
-0.363484
0.247167
0.116317
0.0831871
0.141767
0.229302
0.125975
-0.108084
0.309527
-0.298682
0.104253
0.194429
-0.498922
0.31445
0.184472
0.364641
-0.242074
-0.481407
0.0881975
-0.449394
0.361196
0.0180778
0.33861
-0.356687
0.273062
-0.430022
0.302587
0.127434
0.342858
-0.0846803
0.42252
-0.318921
-0.297322
-0.220324
-0.18937
-0.17932
-0.348374
0.372029
-0.176983
-0.172228
-0.358022
-0.0386384
0.276554
0.177325
0.250241
-0.270163
0.547669
-0.365331
-0.182338
-0.404156
0.239354
0.164802
0.482054
-0.263459
-0.218595
-0.239143
0.0561819
0.182961
-0.179606
-0.186449
0.366055
-0.264496
0.236633
-0.30329
-0.174266
-0.4561
0.113269
0.342831
0.341927
-0.323849
-0.339598
0.139482
0.0381834
-0.412628
0.215694
-0.411249
0.195556
0.0463285
0.102022
-0.180932
0.00448437
0.0291971
-0.0336815
0.232184
-0.14327
0.127132
0.0202056
0.351168
0.196501
-0.0558958
-0.400204
0.0204395
0.134089
0.243583
-0.356744
0.11316
0.190701
-0.353669
0.162968
-0.243281
-0.186537
0.0243091
-0.00472555
-0.0195835
-0.350767
0.152094
0.0771545
-0.229248
-0.0383954
0.0428798
0.451055
-0.316236
-0.134819
0.457175
0.4536
-0.185743
-0.0295075
-0.163569
0.193077
-0.108251
0.328608
-0.334333
0.226391
0.107942
-0.0530807
-0.162575
0.482544
-0.268164
0.337002
-0.192416
-0.408894
0.248919
-0.14526
-0.179395
0.167076
-0.0813649
-0.157778
-0.134552
-0.00240526
-0.13398
0.162005
0.22562
0.148088
0.253577
0.0892809
0.294121
0.156934
0.192755
0.283907
-0.333404
0.48076
-0.147356
-0.0605757
0.014463
0.0461127
-0.13595
0.581712
-0.213453
-0.368259
0.525841
-0.259402
0.318033
-0.190965
-0.127067
0.0801489
0.102436
-0.182585
-0.143459
0.345312
-0.130493
0.367413
-0.23692
0.177604
-0.35721
-0.216808
-0.0818739
0.395725
-0.352661
-0.220523
-0.104585
-0.524357
0.261909
0.262448
-0.368895
0.454477
0.482221
-0.227829
-0.254393
-0.24626
-0.192641
-0.339219
0.377403
-0.332049
0.111526
-0.0136823
-0.0355158
-0.0250598
-0.346945
-0.177412
-0.0222567
0.019903
0.362839
-0.0277985
0.00554349
-0.137269
0.00271756
-0.254911
0.0252736
-0.394168
0.396373
-0.245549
-0.150824
-0.0736042
0.301218
0.175481
-0.162215
0.218397
-0.425425
0.00936027
-0.226324
0.509172
-0.282848
0.183592
0.101914
-0.285506
0.361055
0.220656
-0.0262422
0.108533
-0.0822904
-0.311293
0.386765
-0.0754718
0.457332
-0.268657
0.204457
-0.233965
-0.0979503
-0.327474
-0.224187
0.148035
0.0761525
-0.398373
0.0591542
0.00554785
0.0646746
0.464302
-0.208799
-0.300664
-0.129358
0.353239
-0.105644
-0.154483
0.115579
-0.242246
0.0787882
0.163457
-0.131957
-0.313485
0.0993144
0.214171
0.0677939
-0.190842
0.123049
0.0757296
0.168214
-0.243944
0.308246
0.16399
-0.472235
-0.134409
0.383396
-0.248986
0.350603
0.175238
0.248467
0.125729
-0.374195
-0.265012
0.164373
0.100638
-0.210826
0.143889
0.0669369
-0.0515879
0.0246752
-0.417871
0.147473
0.270398
-0.485482
0.315434
-0.260725
-0.118066
0.378791
0.25209
-0.0199474
0.00780064
0.119551
-0.175787
0.0562354
0.458936
-0.15069
-0.136186
0.376304
-0.240119
-0.131627
0.138281
-0.185786
0.398723
-0.212937
0.210606
-0.187415
-0.0349497
-0.31061
0.34556
0.344964
0.132221
-0.344803
-0.258171
0.420487
-0.162316
0.085376
-0.111618
0.308594
-0.0778123
0.119598
0.214464
0.126482
0.238159
0.0186208
-0.263338
0.244717
0.163171
-0.0949121
-0.0682584
-0.480876
0.242347
0.238529
-0.132231
-0.25738
0.389611
0.230944
-0.374403
-0.161577
0.472578
-0.0462664
-0.144179
0.190445
-0.158305
-0.297804
0.456109
-0.282422
-0.135449
-0.125289
0.193083
0.238033
0.121436
0.0179844
-0.271204
0.25322
0.238691
-0.172107
-0.0665843
0.135579
-0.0892505
-0.404344
0.109211
-0.491789
0.237609
-0.260292
0.485482
-0.191948
-0.0818375
0.484975
-0.0193255
-0.106564
-0.234061
0.340625
0.400604
-0.14306
-0.257544
0.078084
-0.0725362
-0.323257
0.0147259
0.308531
0.460128
-0.110559
-0.208494
0.302415
-0.093921
0.0886135
-0.0808255
-0.00778801
0.119845
-0.272913
0.153068
-0.066701
-0.37357
-0.0792029
0.452773
0.307992
0.181661
-0.489653
0.118386
0.152155
-0.270541
0.305745
-0.140769
-0.0285937
0.169362
0.0732218
0.16547
0.038067
-0.200282
-0.161199
0.462417
0.348743
-0.100276
-0.267285
0.46004
-0.523655
0.245784
0.277871
-0.139956
0.370901
-0.0934935
0.142739
0.121996
-0.264735
-0.176634
-0.236962
0.413597
-0.11039
0.190539
-0.0496982
-0.0697226
0.119421
-0.0219511
0.279761
0.294338
0.454248
-0.323958
-0.13029
0.133044
0.141778
-0.274823
0.2057
-0.158875
-0.0468255
-0.0985317
0.342115
-0.174847
0.128379
0.0464685
0.260926
0.0729374
-0.122636
0.363919
-0.237437
0.285374
0.179237
-0.365685
0.335084
-0.0608049
-0.11859
0.0819572
0.209359
-0.291316
-0.336302
0.390221
-0.0539192
-0.371993
0.458016
0.374941
-0.141164
-0.0520586
0.17161
0.0523944
-0.0346463
-0.0177481
0.236316
-0.017286
-0.21903
0.0168265
-0.0392127
0.0223862
-0.120298
0.150655
-0.030357
0.28166
-0.161815
-0.198885
0.280842
0.254767
-0.020427
-0.23434
0.129372
-0.175638
-0.280122
-0.16074
-0.101194
0.261934
0.362492
-0.314685
-0.0478068
0.219453
0.18115
0.201685
-0.134449
0.0854612
-0.0762813
0.279564
-0.203283
-0.469264
0.0956939
0.370026
-0.281828
0.154477
-0.244113
-0.279542
0.293734
-0.143404
-0.150329
-0.0042894
-0.438403
0.442693
0.097791
-0.157057
0.0592661
-0.315427
-0.00782923
-0.137415
0.0258454
0.111569
0.280112
0.145677
0.271741
0.259644
0.431759
-0.129172
0.0988367
0.0367423
0.399367
0.126096
-0.286435
0.102004
-0.241843
0.0981417
0.26435
0.349592
-0.261561
0.476333
-0.0413858
0.365956
-0.334199
-0.031757
0.258887
0.1616
-0.181344
0.399704
-0.218359
0.299605
-0.486241
0.186636
-0.131252
-0.185961
0.317213
-0.271979
0.0634855
-0.167524
0.475516
-0.361257
0.402629
-0.0874937
-0.00326181
0.0907555
-0.0152442
0.0166545
-0.00141034
0.334981
0.0309751
-0.0983361
-0.383319
0.24891
-0.110622
0.0399579
0.0466936
-0.407284
-0.0858028
0.0395708
0.294326
0.137433
0.0342134
-0.0356004
0.00138701
-0.154258
-0.259317
0.413575
-0.0970518
-0.181517
0.278569
-0.333292
-0.147584
0.0672814
0.021332
-0.125451
0.1346
-0.372475
0.237876
-0.449482
0.166017
0.0035038
-0.123801
0.526877
-0.407028
-0.119849
-0.418184
0.263927
-0.314807
0.183555
-0.414478
0.0671398
0.347338
-0.0863233
-0.0607598
0.360365
0.00949815
0.016796
-0.0262942
0.207047
-0.388391
0.387796
-0.208559
0.207524
-0.122438
-0.0850863
0.396887
-0.156975
-0.239913
0.293009
0.113751
-0.40676
0.24647
0.235751
-0.0986329
-0.356329
0.454962
-0.0727852
-0.0473719
-0.0900428
0.00906491
-0.0901673
-0.107624
-0.158565
0.103028
0.205566
-0.378876
0.0964534
0.149588
0.177337
-0.326925
-0.042216
-0.132631
-0.466644
0.139703
0.326941
-0.00891693
-0.00582015
0.0147371
0.244503
0.144654
-0.389157
-0.132678
-0.333966
0.0176178
0.237149
-0.160476
-0.304639
0.465116
-0.122726
0.367229
0.116142
0.091382
0.194645
-0.395796
0.201151
0.406807
-0.295653
-0.199812
-0.268733
-0.158259
0.0711954
-0.423829
-0.0848744
0.377884
0.0143629
0.244524
-0.156556
0.120679
-0.296867
0.261917
-0.159756
0.124297
0.0354594
-0.147516
-0.16486
0.233201
0.24937
-0.482571
-0.180187
0.508119
-0.291853
-0.216267
-0.486544
0.327292
0.159252
-0.289394
0.0808245
-0.335922
-0.29392
-0.149555
0.0811433
-0.477621
0.20833
0.300842
0.0286828
-0.413732
0.301021
-0.472233
0.0563494
-0.367643
-0.221644
-0.107096
-0.325682
0.224765
0.100917
-0.129572
-0.0357607
0.165332
0.140912
0.064788
-0.12281
-0.260223
0.383033
0.282776
-0.46562
-0.282602
-0.137539
-0.0170816
-0.0773935
-0.163618
0.116246
0.0856498
-0.271294
0.185644
0.114496
0.19371
-0.308206
-0.313674
0.423646
-0.109972
-0.0355407
-0.343335
0.165011
-0.0673337
-0.097677
0.0926222
-0.139775
0.0471527
0.272052
-0.394862
-0.06929
0.12402
-0.467629
-0.287121
-0.107004
0.215639
0.0867761
0.046029
-0.410667
0.260875
-0.0351624
-0.185958
0.271607
0.156073
-0.517331
0.0963403
0.0668302
-0.283069
0.441346
-0.158277
0.484549
0.10086
-0.2616
-0.33794
0.517639
-0.0017227
-0.085771
-0.149524
-0.0320419
-0.361532
-0.0278355
0.340077
-0.312241
0.166847
-0.17717
0.134954
0.216877
0.265176
0.0964275
0.219408
0.331073
-0.220632
0.398653
-0.205496
-0.193157
0.132555
0.273037
-0.405592
0.396519
-0.263964
0.295263
-0.19305
0.182605
-0.279657
0.451921
-0.310387
-0.141535
-0.354836
-0.169051
0.153024
-0.0552332
0.411362
-0.117036
-0.289409
0.303772
-0.0819299
-0.332548
0.0168786
-0.203102
-0.148821
0.431597
0.0142764
-0.281848
0.267571
-0.308754
0.0919456
-0.265936
0.159662
0.106275
-0.245354
0.305484
0.146437
0.00478899
-0.0275682
0.132151
0.232721
-0.0178494
0.0189782
0.526957
-0.258579
-0.268378
0.414493
-0.188689
-0.225803
-0.331001
0.0137788
0.317222
0.0627221
0.0823751
0.1785
-0.0911861
0.32452
-0.364138
-0.39673
0.125946
0.247179
-0.385059
0.13788
-0.335046
0.21092
0.124126
-0.422409
-0.00622713
-0.0529966
0.0592237
-0.126643
-0.226636
0.353279
0.0604723
-0.162951
-0.116226
0.363921
0.212744
-0.362146
0.149402
0.427987
-0.458795
-0.155793
-0.215121
0.370914
-0.337218
0.181425
-0.165097
-0.0727189
0.214497
-0.165134
-0.077112
0.282731
-0.0734327
-0.123545
-0.203687
-0.442446
0.173897
0.240596
0.217595
-0.330848
0.113253
-0.354622
0.476244
-0.121622
0.527797
-0.256809
-0.270988
0.179415
0.13448
0.00137402
-0.101563
0.12604
-0.42933
0.138351
-0.023498
-0.114853
0.105638
0.188096
-0.00936161
-0.416421
0.425783
0.191982
-0.336767
0.492841
0.256643
0.154719
0.219884
-0.11135
-0.0310002
-0.256928
0.355407
-0.292669
-0.0767494
-0.134077
-0.0358716
0.134339
-0.0984675
0.310678
0.0599712
0.443719
-0.454479
0.0107602
-0.498617
0.339657
0.158959
0.157445
0.204465
0.194188
0.146549
0.250338
-0.0325378
0.0807694
0.308466
-0.445632
-0.106137
0.325817
-0.169522
0.464741
-0.388424
-0.00348368
0.0956198
-0.432387
-0.212212
0.145977
0.0662354
0.540538
-0.228012
-0.312526
-0.301347
0.493212
0.445498
-0.177106
-0.268392
-0.0145486
0.354626
-0.0446469
-0.506116
0.285511
0.28446
0.169788
0.20807
0.115421
-0.323491
-0.413653
0.276114
-0.25167
0.225899
0.0257709
0.444956
-0.353902
-0.0910544
-0.417703
0.269172
0.148531
-0.0571308
0.236845
-0.135905
-0.281797
0.0361678
0.0639726
0.335624
-0.0115055
-0.324119
-0.0900094
-0.134178
-0.377764
0.200099
0.177665
-0.0411854
-0.0730189
0.114204
0.338742
-0.393654
0.0549122
-0.0150777
0.219535
0.426455
-0.22199
-0.133403
-0.161301
-0.208754
0.370056
0.204631
0.518012
-0.272228
0.449367
-0.143884
-0.12587
0.316927
-0.191057
-0.36937
0.106103
0.263267
-0.38323
0.252256
0.130974
-0.277894
-0.105336
0.0808833
0.0744536
-0.160465
0.376159
-0.0139442
0.0187457
-0.00480151
0.308589
0.215128
0.115053
0.329903
0.476426
0.197736
-0.1908
0.056624
0.134176
0.219111
-0.380412
-0.321746
-0.0958258
0.410501
0.287293
0.253662
0.306446
0.142922
0.0964138
0.205357
-0.301771
0.428525
0.0219677
-0.450493
-0.0931982
0.325789
-0.217266
-0.108523
0.298757
-0.486446
-0.141025
0.355752
-0.214727
0.0706696
0.00396113
-0.0383602
-0.163685
-0.231546
0.39523
0.386673
-0.485306
-0.137078
-0.0400924
0.00932444
0.000577055
0.254222
0.110544
0.16877
-0.279314
-0.18203
-0.316892
-0.0534102
0.113883
0.268794
0.00953682
-0.089936
-0.208358
0.211741
0.214714
-0.238884
-0.257085
0.192605
-0.154538
0.269121
0.132987
-0.402108
-0.0832873
0.309678
-0.166325
0.276869
0.218802
0.321736
0.288073
0.0430119
0.308156
-0.393135
0.0881674
0.304967
0.228005
-0.248787
0.0207823
-0.0237386
-0.0278492
-0.351334
-0.0896522
-0.217003
0.328586
-0.111583
-0.0502195
-0.24817
0.498063
-0.249892
0.181532
0.273392
-0.454924
-0.192366
0.482762
-0.290395
-0.297835
0.442878
-0.107835
-0.183797
0.127534
0.0562622
-0.143504
-0.164366
0.269452
-0.105085
-0.15645
0.20556
-0.0491108
0.218057
-0.457824
0.188807
0.269017
0.359093
-0.14635
0.491477
-0.245973
-0.245503
0.122621
-0.383346
-0.316672
0.0996696
0.269842
0.364332
-0.190923
-0.101034
0.163657
0.0885761
0.216509
0.12544
-0.341949
0.0380863
-0.252236
0.214149
-0.245505
0.0055818
-0.25615
0.182291
0.0738597
0.231598
-0.0389934
-0.134221
0.0228712
-0.503931
0.245352
0.164234
-0.455801
0.291567
-0.194731
-0.217394
0.266767
0.0339861
0.43696
-0.352969
-0.0839918
-0.34909
0.392102
-0.336896
-0.0841644
0.42106
-0.420082
0.20983
0.210252
0.223426
0.125256
0.279751
0.230175
-0.0921385
-0.138036
-0.299485
0.366625
0.00609437
-0.0149726
0.00887822
0.177045
0.268452
-0.140422
-0.321879
0.102717
0.219162
-0.155697
0.0330341
-0.406247
0.396885
-0.0194157
0.456376
-0.197189
-0.288818
-0.267924
0.103558
-0.276106
-0.184088
0.460194
0.243306
0.264813
0.44555
-0.268504
0.234497
-0.0896919
-0.36104
0.230547
-0.140951
-0.288602
0.429552
-0.171445
-0.0730343
-0.323053
0.292555
0.280588
0.109901
-0.3816
0.2717
-0.374865
0.0243415
-0.180791
-0.0211141
0.00716987
0.301579
-0.400389
0.0988095
-0.468691
0.154579
0.314112
0.0305237
-0.368464
-0.128501
-0.242973
0.371474
-0.197488
0.425821
-0.228332
0.319118
-0.108511
-0.30857
0.457321
-0.148751
-0.136509
0.329032
-0.192523
-0.255975
0.0950041
0.480546
-0.170439
-0.310107
0.481179
0.222284
-0.0114944
-0.270354
0.0666049
0.134399
-0.339152
0.0413161
-0.236437
0.324695
-0.088258
-0.286468
0.392636
-0.106168
0.116459
0.113716
0.0810009
-0.102628
0.39305
-0.0914709
-0.249783
0.405019
-0.00736851
-0.115453
0.122821
-0.154527
-0.0550336
-0.369228
0.0128994
0.402744
-0.148566
-0.254178
-0.0125316
-0.468875
0.449982
-0.283039
-0.166943
-0.257461
-0.279935
0.0534104
-0.312604
0.259194
0.313064
-0.528912
-0.456452
0.119557
0.174844
0.342784
0.107198
0.497959
-0.181928
-0.316031
-0.52311
0.295097
0.355153
-0.107975
0.160542
0.242012
-0.402554
-0.0117551
-0.36915
-0.123269
0.175256
0.30529
-0.19033