/*--------------------------------*- C++ -*----------------------------------*\
| =========                 |                                                 |
| \\      /  F ield         | OpenFOAM: The Open Source CFD Toolbox           |
|  \\    /   O peration     | Version:  v2012                                 |
|   \\  /    A nd           | Website:  www.openfoam.com                      |
|    \\/     M anipulation  |                                                 |
\*---------------------------------------------------------------------------*/
FoamFile
{
    version     2.0;
    format      ascii;
    class       volScalarField;
    location    "250";
    object      k;
}
// * * * * * * * * * * * * * * * * * * * * * * * * * * * * * * * * * * * * * //

dimensions      [0 2 -2 0 0 0 0];


internalField   nonuniform List<scalar> 
18355
(
0.00130549
0.000137017
0.000239353
0.000140643
0.000215186
0.000786407
0.000146998
0.000203844
0.00015035
0.00326154
0.000160064
0.000200836
0.00020215
0.0125279
0.000141752
0.00013542
0.000140616
0.000156033
0.000220213
0.000151194
0.000285275
0.000149302
0.000136941
0.000747888
0.000136978
0.000150424
0.000147246
0.000141034
0.000152787
0.00016164
0.00655694
0.000183207
0.000137664
0.000134338
0.000145934
0.000150493
0.000158761
0.000150863
0.00016262
0.000148812
0.000150469
0.000161233
0.000134482
0.000136845
0.000136949
0.000249575
0.000141221
0.000141095
0.00709673
0.000144894
0.000141731
0.000380602
0.000145226
0.000205336
0.000143172
0.000151724
0.000145596
0.0144103
0.000151044
0.000253694
0.000134439
0.00018878
0.00020339
0.000146384
0.0001912
0.000139665
0.000154867
0.000158917
0.000134041
0.00277429
0.000142534
0.000143209
0.00017643
0.000158018
0.000273825
0.000134209
0.0143758
0.000134326
0.000142209
0.0002944
0.000154892
0.00021781
0.000134155
0.000157284
0.000177399
0.00014892
0.00015137
0.000169364
0.000140506
0.000169958
0.0137968
0.000262261
0.000190889
0.00014497
0.0036795
0.000150407
0.000140091
0.00014281
0.000180423
0.000149017
0.000176139
0.000141848
0.000144651
0.000130119
0.000155467
0.000135544
0.00019215
0.00421212
0.000164033
0.000135057
0.00014232
0.000147409
0.000169591
0.000156754
0.000269324
0.000162601
0.000141567
0.000389788
0.000153072
0.00015443
0.00449667
0.000241856
0.0109025
0.000173409
0.000385417
0.00022464
0.000147419
0.000140732
0.00325576
0.000147806
0.000140157
0.000338095
0.000143554
0.000183969
0.000199212
0.000140552
0.000223368
0.00283469
0.00014184
0.000274422
0.000156558
0.000218696
0.00014099
0.00807645
0.000200537
0.000146115
0.000164104
0.000131481
0.000169344
0.00355117
0.00014096
0.000154233
0.000145608
0.000187674
0.000134596
0.000137576
0.000140827
0.000148985
0.000141085
0.000138459
0.000157117
0.000143674
0.000135099
0.000200366
0.000159206
0.00214207
0.000281827
0.00479886
0.000482933
0.00015665
0.000146741
0.000182496
0.000148302
0.00618369
0.000146279
0.000148932
0.000146267
0.000130328
0.000151341
0.000163225
0.000149589
0.00196153
0.000148645
0.000141299
0.000521842
0.000144625
0.000148932
0.000170114
0.000143325
0.000148198
0.00021196
0.00018062
0.000137289
0.000134855
0.000143569
0.000258004
0.000139005
0.0242808
0.000137125
0.0096367
0.000144309
0.000152697
0.000162971
0.000148328
0.00711931
0.000146973
0.00040388
0.000141263
0.000137137
0.000145417
0.00014702
0.000244511
0.000154476
0.000155059
0.00013167
0.00604081
0.000163377
0.000156081
0.000147205
0.000141364
0.000163337
0.000134008
0.000167825
0.000185304
0.000298236
0.000163163
0.000134211
0.00349978
0.000275147
0.000171337
0.000145336
0.000155457
0.00306771
0.000134183
0.000199772
8.3009e-05
0.000149191
0.000207109
0.000155139
0.00015356
0.000137354
0.000151149
0.00014734
0.00016976
0.000146984
0.00014316
0.000141012
0.000201401
0.000527346
0.000143234
0.000146219
0.000337326
0.000211404
0.000182737
0.000130328
0.000216542
0.000155176
0.000146294
0.000164867
0.000139659
0.00360154
0.00104318
0.000178168
0.000160681
0.000163997
0.000194461
0.000221431
0.000182685
0.000139614
0.000143209
0.000149248
0.00013513
0.000152647
0.000156339
0.000140706
0.000147067
0.000168372
0.000140386
0.000188075
0.000978738
0.00016516
0.000147277
0.000164087
0.000135002
0.000169253
0.000146304
0.000164893
0.000147711
0.00016413
0.00390019
0.000137391
0.000170448
0.000152436
0.000170076
0.000215774
0.00014417
0.000134641
0.000186385
0.000147055
0.000219081
0.000158728
0.00946992
0.000169292
0.000179263
0.000154179
0.000171189
0.000144362
0.00015382
0.000160315
0.000170431
0.00155091
0.000298025
0.000142317
0.00015906
0.000197418
0.000164988
0.000142219
0.000141043
0.000141002
0.000173351
0.000306173
0.0477915
0.00216013
0.000168293
0.00015605
0.000488708
0.000131351
0.000146738
0.000156084
0.000144226
0.000171174
0.00014472
0.00226829
0.000135842
0.000305829
0.000143205
0.000148568
0.000155032
0.000208105
0.0108297
0.00016958
0.00182311
0.000149364
0.000140644
0.000144103
0.000159946
0.00339306
0.000140887
0.000145174
0.000167071
0.000149015
0.000140993
0.000213612
0.00015985
0.000141007
0.000144656
0.000165933
0.000150086
0.000165914
0.000135572
0.000144084
0.00014877
0.000273997
0.000189115
0.000135264
0.000140799
0.000208988
0.000141059
0.000147146
0.00178222
0.000236577
0.000172724
0.000143953
0.000149368
0.000202767
0.00015032
0.000209124
0.000153975
0.00013658
0.00022912
0.000206999
0.000148279
0.000143524
0.00015617
0.000145724
0.000156909
0.000143572
0.000205841
0.000146414
0.000153689
0.000142367
0.000141056
0.000151976
0.000151198
0.000180525
0.0174853
0.00037035
0.000157684
0.000210511
0.000178946
0.000143419
0.000144679
0.000168906
0.000143336
0.000174855
0.000146153
0.000161875
0.000337121
0.00129183
0.00536102
0.000179259
0.000130222
0.0407115
0.000148993
0.000140645
0.000294242
0.000142882
0.000187671
0.000137726
0.000195811
0.000142831
0.000181539
0.000573756
0.000176575
0.000144185
0.00013753
0.0001774
0.000152994
0.000142912
0.00299847
0.000531906
0.00014058
0.000169604
0.000180477
0.000137441
0.000150164
0.0001676
0.00698036
0.000167233
0.000149032
0.000144629
0.000166239
0.000143514
0.000136091
0.000143953
0.000466446
0.0116799
0.000136361
0.000152058
0.000144562
0.000211471
0.000204222
0.000134797
0.000185817
0.000168188
0.000145278
0.000268042
0.000188881
0.000148861
0.000144462
0.000166583
0.000211253
0.0146048
0.000136152
0.0456638
0.000142288
0.000136363
0.000171231
0.00015328
0.00021024
0.000176089
0.000154008
0.000159195
0.000149302
0.000212138
0.00015352
0.000159535
0.000149283
0.000135925
0.000147984
0.000136127
0.000187863
0.0176464
0.000196376
0.000156985
0.000147179
0.000149294
0.000147346
0.000154341
0.000144223
0.000135575
0.000143728
0.000169541
0.000137458
0.000142899
0.0319605
0.0323976
0.000199442
0.000147625
0.00015098
0.000167386
0.000149117
0.00258549
0.000295977
0.000157732
0.00015748
0.000158537
0.00015065
0.000154331
0.0082093
0.00016632
0.000149509
0.00487573
0.000146058
0.013654
0.0364768
0.000155751
0.000149864
0.0112597
0.000140773
0.000180098
0.00018451
0.00340117
0.000153554
0.000147856
0.000145173
0.00455876
0.0162491
0.00316878
0.0014464
0.000153377
0.000145027
0.000157143
0.000143207
0.000155844
0.000276388
0.0047441
0.0247509
0.00441373
0.00016965
0.000180145
0.000171537
0.000141274
0.000142266
0.000172603
0.000154853
0.000146506
0.000143158
0.00032312
0.000139979
0.00738306
0.000161224
0.000185714
0.000204569
0.000142312
0.000156835
0.0125706
0.000143688
0.0423624
0.000142726
0.000248144
0.000166409
0.000148105
0.000171238
0.000182452
0.000179971
0.000150173
0.000134043
0.00016521
0.000156043
0.000185999
0.000143503
0.000189676
0.000139929
0.00027702
0.000147038
0.00014375
0.000228509
0.000169718
0.000136309
0.000144917
0.000158415
0.000160279
0.00229857
0.0480833
0.000155175
0.000194777
0.000145426
0.000163679
0.00014849
0.000154871
0.0320004
0.000136787
0.000511806
0.000146974
0.000145871
0.000155424
0.00251532
0.000152616
0.000194188
0.000148065
0.000165679
0.00140289
0.000131498
0.000141061
0.0400164
0.000169457
0.0350036
0.000177091
0.000147999
0.00014316
0.000142963
0.000158013
0.000149849
0.000136275
0.000219301
0.000443501
0.000143506
0.00353768
0.00524219
0.000158092
0.000242421
0.000136309
6.00776e-05
0.00313085
0.000132556
0.00189238
0.000167697
0.000266193
0.00212976
0.000143399
0.000142923
0.000147673
0.00103665
0.000172776
0.000144593
0.000149009
0.000214343
0.000148696
0.000168418
0.000143757
0.000166712
0.0582305
0.00452883
0.000213038
0.00418598
0.000171528
0.0137637
0.000157372
0.00014066
0.000161091
0.00222041
0.000187695
0.000171908
0.000144369
0.000244962
0.000144448
0.000148332
0.0591279
0.000149009
0.000161949
0.000194258
0.000190716
0.000144628
0.000142892
0.000155379
0.000159173
0.000134108
0.000147565
0.000173812
0.000209381
0.00015352
0.000144281
0.000171972
0.000817447
0.000143789
0.00369962
0.000270861
0.000145176
0.0449486
0.000134719
0.000249526
0.000143698
0.000138662
0.000224967
0.000154102
0.00875054
0.000153196
0.00014292
0.0438005
0.000143671
0.0001349
0.000145243
0.000140779
0.000162714
0.000168328
0.00340229
0.000151605
0.0379887
0.000153927
0.00336236
0.00125008
0.000150316
0.000144072
0.000158253
0.000136627
0.000197115
0.000142554
0.000134796
0.000135723
0.000144396
0.000143608
0.000256086
0.000158089
0.000171399
0.000151951
0.000158248
0.000156218
0.000166326
0.000807649
0.000137382
0.000187517
0.000174324
0.000134393
0.00413267
0.0579268
0.000141468
0.00127497
0.000145863
0.00249016
0.000165466
0.000132376
0.000165614
0.000160307
0.00250706
0.000142697
0.000154543
0.00452741
0.000201758
0.000348176
0.000143579
0.00344781
0.000185385
0.000116001
0.000143508
0.000152183
0.000142933
0.000146307
0.000142079
0.000144754
0.000136791
0.00196988
0.000168124
0.000140486
0.00013428
0.000140412
0.000148768
0.000198341
0.000184601
0.000137391
0.000159338
0.000146802
0.000146985
0.000146156
0.000140918
0.0001994
0.000134297
0.000140309
0.000149019
0.000147404
0.000151943
0.000146611
0.000260427
0.000258075
0.000155434
0.000140146
0.000208865
0.00013468
0.000134352
0.000149384
0.00033488
0.000157041
0.000147296
0.000135977
0.000137167
0.000159192
0.000133979
0.00016135
0.000142462
0.000148486
0.000141967
0.000151965
0.00728358
0.000140612
0.000148986
0.000142448
0.00023122
0.00347163
0.000158378
0.000149875
0.000178937
0.0001622
0.000207817
0.00317041
0.000148727
0.00306413
0.000149096
0.00181779
0.000150049
0.000136862
0.00013603
0.00305679
0.000135531
0.000158648
0.00018894
0.000217313
0.000178609
0.000152457
0.000141686
0.0001438
0.00014361
0.00016003
0.000193798
0.00257821
0.000169873
0.000145498
0.000133998
0.000154101
0.000141888
0.00014099
0.000148518
0.000171318
0.000162173
0.00128913
0.00014541
0.000144389
0.000173978
0.000143204
0.00021282
0.00017042
0.000172172
0.000206141
0.000271203
0.000166136
0.000141264
0.000134059
0.000147626
0.000142505
0.00239592
0.000172592
0.000195634
0.000136839
0.000147205
0.000155154
0.000141259
0.00184469
0.000211532
0.000134375
0.000135902
0.000142684
0.000142086
0.000140956
0.000144602
0.0002276
0.000134948
0.000149806
0.000136857
0.000137975
0.000142209
0.000146072
0.000159753
0.000137924
0.000170879
0.000135963
0.000225626
0.000237192
0.000154955
0.00286651
0.000152436
0.000148781
0.000181755
0.00315225
0.000143855
0.000139269
0.000137055
0.000193385
0.000150635
0.000166058
0.000393219
0.000146529
0.000150075
0.000144691
0.00425648
0.00228014
0.000151583
0.000139098
0.000155491
0.000168765
0.000142323
0.000179993
0.000139524
0.000133968
0.000155671
0.00025702
0.00145237
0.00284728
0.000237824
0.000134705
0.000262906
0.000203604
0.000157595
0.000143588
0.000201933
0.000158215
0.000258137
0.000263038
0.00014205
0.000134762
0.000144729
0.00014913
0.000134895
0.00275126
0.00271016
0.000134605
0.000146762
0.000149502
0.000166893
0.000144112
0.000141839
0.000241434
0.00014925
0.000142381
0.00179592
0.000189713
0.00018714
0.000142446
0.000135878
0.000134791
0.000148099
0.000162395
0.000193534
0.000140594
0.00013821
0.000155184
0.00342037
0.000137067
0.000143957
0.000179283
0.000141029
0.000139214
0.000143625
0.000440536
0.000135692
0.000144492
0.000137121
0.000159879
0.000135707
0.000157985
0.000209232
0.000143987
0.000229365
0.000161275
0.000225955
0.000175049
0.000140875
0.000159051
0.000140468
0.000139092
0.000140879
0.00249221
0.00516158
0.000209607
0.000158952
0.00668089
0.000182768
0.000150829
0.000192218
0.000202829
0.000153473
0.000135564
0.00239292
0.000150021
0.000139789
0.000137527
0.00027873
0.000402408
0.00929512
0.000138915
0.000190967
0.0032059
0.000165812
0.000169307
0.000156711
0.000155247
0.000164618
0.00152631
0.000152868
0.000150182
0.000158668
0.032975
0.000253507
0.000144045
0.000147288
0.000143354
0.000226988
0.00015425
0.000149192
0.00575364
0.000157818
0.000176988
0.000156604
0.00405023
0.000138633
0.00306287
0.000149883
0.000135904
0.000141345
0.000136104
0.000135918
0.000140813
0.000148261
0.000271599
0.000137255
0.0060237
0.000158304
0.000147503
0.000140542
0.000188712
0.000143377
0.000146619
0.000159744
0.00708597
0.000232747
0.000154048
0.000146525
0.00780277
0.000138605
0.000170583
0.000146307
0.00666009
0.000171171
0.00301844
0.000159575
0.000142906
0.000206716
0.0115659
0.000202701
0.000137745
0.00014356
0.000166657
0.0317588
0.000131033
0.000171589
0.000141094
0.000160399
0.00014045
0.000134818
0.000149843
0.0001501
0.000135251
0.0001767
0.000173343
0.000160549
0.000205025
0.00153166
0.000150482
0.00330075
0.000136375
0.000196361
0.000256148
0.000215246
0.000134587
0.000148539
0.000146095
0.0128653
0.000144916
0.000139537
0.00018958
0.000146546
0.000146308
0.000149983
0.00014968
0.000143018
0.0387668
0.00309266
0.000178794
0.000139179
0.000144859
0.000220249
0.000136233
0.00025263
0.000147154
0.000145882
0.000149206
0.000156776
0.000235266
0.000141182
0.000145136
0.045175
0.000147226
0.000148544
0.000166921
0.000294583
0.00109836
0.000144401
0.000143657
0.0409322
0.00227281
0.00031403
0.000146678
0.000164384
0.000224904
0.000137651
0.000188946
0.000153002
0.00258865
0.000155325
0.000144971
0.000150889
0.000135589
0.0263658
0.000145009
0.00013955
0.00338159
0.000184798
0.00152842
0.00013542
0.000152218
0.000135541
0.000132118
0.000136095
0.00014939
0.000146667
0.000149033
0.000135709
0.000148494
0.000170922
0.000162291
0.000177284
0.000140269
0.000155338
0.00014199
0.00439041
0.000147358
0.000150053
0.000147269
0.000135938
0.000148782
0.000144555
0.000144023
0.000143399
0.000141272
0.000136129
0.00635453
0.00127521
0.000144632
0.0192186
0.000165384
0.000148666
0.000147793
0.000150315
0.00772039
0.000147311
0.000136318
0.000134563
0.000134616
0.0124767
0.000144561
0.000136847
0.000255441
0.000134101
0.00013345
0.000168273
0.000169503
0.000210329
0.000207776
0.0344663
0.000135569
0.000275107
0.000157336
0.000143183
0.000136838
0.000165826
0.000143215
0.000163166
0.000176126
0.000153662
0.000150579
0.0599632
9.28679e-05
0.0406636
0.00606259
0.00296819
0.00021861
0.000139339
0.000307985
0.000411744
0.00013504
0.000465381
0.000138895
0.000150935
0.000206355
0.00014042
0.000251907
0.000158875
0.000152855
0.00014943
0.000244504
0.000143875
0.00715022
0.000142919
0.000136216
0.00828956
0.000133866
0.000147984
0.000148578
0.000173933
0.000142205
0.000143861
0.000153409
0.00285088
0.000144333
0.000144478
0.000136803
0.000154657
0.000142414
0.000150894
0.0014418
0.000141519
0.000157289
0.000148199
0.00015646
0.000182816
0.000140476
0.000148929
0.00019289
0.000147009
0.000147978
0.000160872
0.00344647
0.000150931
0.000141785
0.000143983
0.000159861
0.000212715
0.000151532
0.000140945
0.0001414
0.000137793
0.000131962
0.000135591
0.000159746
0.000191918
0.000174809
0.000146831
0.016184
0.000139606
0.000151898
0.0231458
0.000172316
0.000134146
0.000181583
0.000153071
0.000140914
0.00222946
0.000148661
0.000170847
0.000132564
0.000211143
0.000140355
0.000134749
0.000135979
0.00121662
0.000222688
0.000146824
0.000229694
0.0001358
0.00014215
0.000139057
0.000206255
0.0001454
0.000138518
0.000148884
0.000152453
0.000143017
0.000145854
0.000140526
0.000147959
0.000146743
0.000140348
0.000154893
0.000135396
0.00372347
0.000179747
0.000136494
0.000238858
0.000157599
0.000140827
0.000139816
0.000150158
0.000140668
0.000160735
0.000155608
0.000194156
0.000195519
0.000147744
0.000184427
0.000212555
0.000143081
0.000148105
0.000188382
0.000152424
0.00376971
0.000135567
0.000148922
0.000150205
0.000148217
0.000139801
0.000157066
0.000140535
0.000144827
0.000144022
0.000152879
0.000139506
0.000200691
0.000143793
0.000154427
0.000185059
0.00014307
0.00271068
0.00489064
0.000155006
0.000159492
0.000161755
0.000134497
0.000192225
0.000145636
0.000164743
0.00527177
0.000442841
0.000206613
0.000143952
0.000161246
0.000142841
0.000163889
0.00013818
0.0030038
0.000182788
0.000147656
0.000140747
0.000233587
0.000174771
0.000142862
0.000143234
0.000280824
0.00014677
0.000138433
0.00128183
0.000175963
0.000134911
0.0002408
0.00013611
0.000241799
0.000177031
0.000143055
0.00014432
0.000159257
0.000295928
0.000140177
0.00015841
0.000144302
0.00014308
0.000139819
0.0108988
0.000147128
0.000145385
0.000143991
0.000217335
0.000158781
0.00014036
0.000133021
0.0001963
0.000142256
0.00013677
0.000243582
0.000381944
0.000148872
0.000243151
0.000159169
0.000173063
0.000148048
0.000177103
0.00287505
0.000147665
0.000150721
0.000137077
0.00015558
0.00014283
0.00722435
0.00235796
0.000137483
0.00015082
0.000136437
0.000135691
0.0591338
0.000142936
0.000151902
0.000152288
0.000232445
0.000144524
0.000148037
0.000155629
0.00309081
0.000145598
0.000145521
0.000136524
0.000137484
0.000155015
0.000172337
0.000146915
0.000142167
0.000145035
0.000143413
0.000137103
0.0388091
0.000148061
0.0001436
0.000141905
0.000178379
0.000135782
0.000136775
0.000165688
0.000142199
0.000181422
0.000144264
0.00014449
0.00314066
0.0253587
0.000371175
0.000246338
0.000163133
0.000148562
0.0598024
0.000139715
0.000155546
0.000135217
0.0022929
0.00013004
0.00015551
0.000144626
0.00359076
0.000177756
0.00026023
0.0536791
0.000151732
0.000194857
0.000148115
0.000149647
0.0515634
0.000164963
0.000142153
0.000136056
0.000154246
0.000162514
0.000144007
0.000145071
0.000139653
0.000135295
0.000227253
0.00468236
0.000148206
0.000174335
0.000278065
0.00168381
0.000152248
0.000147844
0.000152886
0.000154793
0.000142256
0.000150841
0.00053008
0.000140327
0.000136307
0.000146304
0.000433369
0.000232809
0.000157221
0.000146861
0.000147434
0.000159922
0.000143721
0.000159621
0.000173265
0.000175035
0.000154272
0.000969938
0.000134711
0.000142898
0.000148411
0.000135738
0.0001461
0.000140101
0.000268368
0.000140952
0.000318124
0.000146042
0.000138359
0.000136711
4.83022e-05
0.00015147
0.000171683
0.000179659
0.000136104
0.056644
0.00016134
0.000137167
0.000133448
0.00342151
0.000127421
0.000133689
0.000140548
0.000141254
0.000151334
0.000217268
0.000141845
0.000149867
0.000149276
0.000207931
0.0523532
0.000149675
0.000142077
0.00057413
0.000154341
0.000586277
0.000154202
0.000142364
0.000178552
8.88807e-05
0.026642
6.6617e-05
0.00104439
0.000136083
0.000142127
0.000149004
0.000144987
0.000154432
0.000148017
0.000146224
0.00013951
0.000147925
0.00014726
0.000142083
0.000148018
0.000152714
0.0001494
0.000143655
0.000142062
0.000170901
0.000165484
0.000140416
0.000145292
0.000228553
0.000148918
0.000150673
0.000149287
0.00388821
0.000136679
0.000167752
0.000151544
0.000136059
0.000143588
0.0355146
0.000226322
0.000149618
0.000152302
0.000154894
0.000168735
0.000140082
0.000161841
0.000181043
0.000141211
0.00019267
0.000140993
0.000143227
0.000141328
0.000148216
0.000160412
0.00021474
0.0365363
0.000196906
0.000136273
0.000144509
0.000143446
0.000199393
0.000149125
0.00271277
0.000139769
0.000143853
0.000143506
0.000184156
0.000142484
0.000146659
0.00014428
0.000207911
0.000136661
0.0348538
0.000136217
0.000193787
0.000145059
0.000161007
0.000140825
0.000153874
0.000619296
0.000215861
0.000136319
0.000179262
0.000145284
0.000146773
0.0362906
0.00187019
0.000136228
0.000142786
0.000153129
0.00013587
0.000143906
0.000148514
0.000147698
0.000171432
0.00017489
0.000150362
0.000157989
0.000227768
0.000147904
0.000140686
0.000142142
0.000157964
0.000161095
0.000143789
0.0297085
0.000140737
0.0585499
0.000167061
0.000136618
0.000140233
0.000139964
0.000483637
0.000146653
0.000154452
0.000146419
0.000142745
0.00314135
0.000151929
0.00016842
0.000147339
0.000145684
0.000151523
0.000143313
0.000151621
0.000143441
0.00015704
0.000149447
0.000148998
0.00509467
0.00016656
0.00483394
0.000140929
0.000143794
0.000151887
0.00299305
0.000177784
0.000735143
0.000151275
0.000134914
0.000169484
0.000142026
0.0042974
0.000149727
0.000185803
0.000151433
0.0377191
0.0289735
0.000154586
0.000169797
0.000139409
0.000137523
0.000148657
0.000134862
0.000148044
0.000153061
0.000139468
0.000163532
0.000202171
0.0027893
0.000140688
0.000215206
0.000134633
0.000142467
0.00014374
0.000192503
0.000147934
0.000244857
0.000147262
0.000143383
0.0504638
0.000140261
0.000154096
0.000142365
0.000157147
0.000732012
0.000165996
0.0282386
0.000151324
0.000177377
0.000152629
0.000141749
0.00014381
0.000189606
0.000164572
0.000143161
0.000151693
0.000143184
0.00535414
0.000138383
0.000267346
9.05359e-05
0.000179163
0.000158746
0.0002196
0.000189817
0.000134904
0.0122857
0.00014242
0.00432956
0.000149003
0.000152048
0.00323629
0.00371234
0.000160733
0.011128
0.000143557
0.00270006
0.000130622
0.000352746
0.000135167
0.000149563
0.000185201
0.000146057
0.000139144
0.000149628
0.000144531
0.000171646
0.00305994
0.000166573
0.00284786
0.000141314
0.0140368
0.000144359
0.000146725
0.000142933
0.000145303
0.00489433
0.000147165
0.000138029
0.000166718
0.000148232
0.00431078
0.000194393
0.000143028
0.000200104
0.000165266
0.000140504
0.000144868
0.000156137
0.000136544
0.000177134
0.000162148
0.000151799
0.000151337
0.000137224
0.000146479
0.000177861
0.000149639
0.000145013
0.000150359
0.0001352
0.000135682
0.0480585
0.000162281
0.0293227
0.000158926
0.000175488
0.00016088
0.000142056
0.000166192
0.000139629
0.000140794
0.00213379
0.000163243
0.000190443
0.000171189
0.000149421
0.000254133
0.000738394
0.000143479
0.000161511
0.000124008
0.0536277
0.000136409
0.000137655
0.000147917
0.000193341
0.00305099
0.000170492
0.000154201
0.000148679
0.000142066
0.000135232
0.000218401
0.000154569
0.000147395
0.00386889
0.000146839
0.000154378
0.000157136
0.000144917
0.000142862
0.000143081
0.000176144
0.000192497
0.000148972
0.000151921
0.000208179
0.000142204
0.00014845
0.00015466
0.000146873
0.00387323
0.00341567
0.000197958
0.00019568
0.0103276
0.000153148
0.000139829
0.000281485
0.000169525
0.00016183
0.000143195
0.000135294
0.00419562
0.0026515
0.00014142
0.000139576
0.000162358
0.000249049
0.000154413
0.00013497
0.0451985
0.000152473
0.000166473
0.000134937
0.000160902
0.000131164
0.000150825
0.000159969
0.000142072
0.031649
0.000149231
0.000166169
0.000193325
0.0026913
0.000188095
0.000142235
0.00017934
0.000155175
0.000168357
0.000149334
0.00015179
0.000145482
0.000152793
0.00223135
0.000151791
0.00256556
0.00014001
0.000216162
0.000135947
0.000148929
0.000148312
0.000155481
0.000218185
0.000172909
0.000149598
0.0230686
0.0474234
0.000140077
0.0485497
0.000173953
0.000138896
0.000134032
0.00292545
0.0448692
0.000138908
0.000136127
0.000146827
0.000136811
0.0598748
0.000289442
0.000130206
0.000133234
0.000139986
0.000235672
0.000173088
0.00415778
0.000135897
0.000253674
0.000146963
0.000180968
0.0294977
0.000161171
0.000138696
0.000138723
0.00377811
0.000136657
0.000141078
0.000136526
0.0001619
0.000152028
0.0354045
0.000163384
0.000148735
0.000142432
0.000157844
0.00022351
0.000185493
0.000141712
0.000141835
0.000213079
0.000174002
0.00014967
0.000700173
0.000164278
0.00015331
0.0599074
0.000151787
0.000160185
0.000148442
0.00118385
0.000145431
0.000148792
0.0311547
0.000159168
0.000141163
0.000143319
0.000131204
0.000181583
0.000194694
0.000141123
0.000136006
0.000150176
0.000182497
0.000173777
0.000135052
0.00014286
0.00013848
0.000172869
0.000170128
0.000146185
0.000142811
0.0422033
0.000142013
0.0090166
0.000162868
0.000167442
0.000153365
0.000150342
0.000145058
0.0261909
0.000187175
0.000183241
0.0350135
0.000162371
0.000140137
0.0217979
0.000136338
0.000185073
0.056551
0.000168905
0.000141806
0.000154542
0.000183884
0.000142726
0.0001432
0.0460484
0.000142926
0.000153884
0.000142304
0.000146652
0.000137333
0.000192184
0.000201843
0.000135883
0.000141089
0.00100867
0.000142624
0.000135636
0.000140897
0.000140768
0.000302816
0.000137217
0.00015366
0.000153366
0.000149272
0.000137337
0.000174125
0.000197055
0.000158262
0.000301888
0.00015685
0.000155174
0.0356116
0.000140158
0.000136296
0.000143501
0.000140561
0.0001488
0.00013277
0.00014956
0.0553602
0.00014344
0.000141839
0.000153394
0.00014075
0.00287997
0.000147796
0.0367279
0.000229919
0.000100091
0.000161326
0.00306686
0.000166519
0.000143165
0.000154244
0.000140521
0.000151959
0.000163138
0.000148229
0.0183953
0.000135887
0.000143864
0.000168928
0.000234877
0.000147962
0.000139795
0.000218197
0.000151915
6.5148e-05
0.000143075
0.000139925
0.000144435
0.0464772
0.000146592
0.000288382
0.000173748
0.000150927
0.000139709
0.000143326
0.000159546
0.00311543
0.000135931
0.000180385
0.000141825
0.0346429
0.000239139
0.000149127
0.00021644
0.000146231
0.000153727
0.000153668
0.000271635
0.000135682
0.000159388
0.000160123
0.00299896
0.000147688
0.000179555
0.000144573
0.000204227
0.000210011
0.000221599
0.000142938
0.000165443
0.00278011
0.00805043
0.000155409
0.000154895
0.0034397
0.0034872
0.000140375
0.000176964
0.000143361
0.000156732
0.000146174
0.000150667
0.000150102
0.0332782
0.000147438
0.000148198
0.000176159
0.00296458
0.00783734
0.000202709
0.00489252
0.000139891
0.00323152
0.000178447
0.000142328
0.000141775
0.00590469
0.000163201
0.000145175
0.000142313
0.000171433
0.00013868
0.000142874
0.000152853
0.000145683
0.000148383
0.000141083
0.000143864
0.00015135
0.000139759
0.0545566
7.84622e-05
0.000153077
0.00013927
0.000165855
0.00952748
0.000142537
0.000148268
0.00312954
0.000226188
0.000143477
0.000154743
0.000138687
0.000140454
0.000193606
0.000215672
0.000140487
0.000143223
0.00309114
0.000267684
0.00147321
0.000176052
0.000150811
0.00339234
0.000140621
0.00015568
0.000154708
0.00013964
0.0558684
0.00113367
0.000166972
0.000185484
0.000419223
0.00013402
0.000133225
0.000152334
0.000166973
0.000896314
0.000136483
0.000170926
0.00145082
0.000143047
0.000147138
0.000151185
0.000261901
0.00014273
0.000155624
0.00126975
0.000140923
0.000142568
0.000139354
0.000263499
0.000141949
0.000162599
0.000149257
0.00021701
0.000163745
0.00378336
0.000143176
0.000142208
0.000164691
0.000147679
0.000192988
0.000149196
0.00019511
0.00020155
0.000140832
0.000144512
0.0417846
0.000282704
0.00687532
0.000139096
0.000143382
0.000155321
0.00014512
0.000143193
0.000144036
0.000143594
0.000147767
0.000139553
0.000139714
0.000175717
0.000152615
0.000169975
0.00403925
0.000179359
0.000173541
0.00015774
0.000197616
0.000209927
0.000161682
0.000161455
0.000160709
0.000141757
0.0184098
0.000135749
0.000135786
0.000140661
0.00385485
0.000142626
0.00339588
0.000148426
0.000134964
0.00018463
0.000143
0.000142288
0.00014298
0.000208467
0.000119695
0.000147163
0.000139702
0.00015168
0.00424979
0.000173367
0.00390332
0.00014313
0.000169796
0.000146658
0.000145699
0.00013622
0.00013893
0.000143388
0.000170346
0.0005004
0.000150273
0.000152766
0.000201189
0.000960117
0.000203703
0.00014221
0.000190951
0.000163803
0.00271564
0.000137284
0.000142694
0.000150947
0.000273707
0.000132502
0.000144722
0.000138873
0.000136597
0.000203564
0.000151413
0.000182787
0.000143373
0.000132301
7.8447e-05
0.000144008
0.00162672
0.000143243
0.000150702
0.000148038
0.000158654
0.000149399
0.00017792
0.00388057
0.000142312
0.00018476
0.00222404
0.000141699
0.000146779
0.000169955
0.000131968
0.0586035
0.000185306
0.000142757
0.000177404
0.000134287
0.000152788
0.000148467
0.000142121
0.000136542
0.000150002
0.000140613
0.000138814
0.000145079
0.000148751
0.000172897
0.000135949
0.000207993
0.00013843
0.000140426
0.000159067
0.000170692
0.000150014
0.000132065
0.000142475
0.000153747
0.000170125
0.00018556
0.000164169
0.000149209
0.000149115
0.000139501
0.000161132
0.000140752
0.000151694
0.000259162
0.000227502
0.000172926
0.000141125
0.000148433
0.000149958
0.000132184
0.000198244
0.000134829
0.000221423
0.000149414
0.000239021
0.000158144
0.000291123
0.000146919
0.00017772
0.0437467
0.00417079
0.00260938
0.0001577
0.0046363
0.000143844
0.000148767
0.000165158
0.00786759
0.000141891
0.000139062
0.000143998
0.00015607
0.00110136
0.000146053
0.000159214
0.00284294
0.000130173
0.000144591
0.000273824
0.0190957
0.000195923
0.00291292
0.00511604
0.000150148
0.000187459
0.000152548
0.000153333
0.00488385
0.000154024
0.0406949
0.000266857
0.000153749
0.00014623
0.000151864
0.000160821
0.000140114
0.0318308
0.000132415
0.000142911
0.000142947
0.00386151
0.0350021
0.000201573
0.000144944
0.0001508
0.000138828
0.0587668
0.00014326
0.00014998
0.000154035
6.99867e-05
0.000138453
0.000183344
0.0312674
0.00334356
0.000147152
0.00187325
0.000139678
0.00486071
0.000132801
0.000230772
0.000151194
0.000181969
0.000158866
0.0010533
0.000201556
0.000152848
0.000151825
0.000115889
0.000155939
0.000141883
0.000138757
0.000158268
0.000148692
0.00312733
0.000131057
0.000142947
0.000144215
0.000143779
0.00284924
0.000139292
0.000134465
0.000147003
0.000356867
0.000162405
0.000176175
0.000152754
0.000151242
0.000185755
0.000139027
0.000143208
0.00018026
0.000171536
0.000134424
0.000170481
0.000152423
0.00316829
0.000142753
0.000216864
0.000151322
0.000143194
0.000135182
0.00013489
0.000142317
0.000141371
0.000119344
0.000176785
0.000146998
0.000143119
0.000142317
0.000151552
0.000158172
0.0434216
0.000146669
0.00019639
0.000163391
0.00324007
0.000147398
0.000169568
0.000143082
0.000142775
0.000164707
0.000142629
0.000145824
0.000140445
0.000135709
0.00963936
0.00014356
0.000139252
0.000219221
0.00430445
0.000190022
0.0001478
0.000134587
0.000155156
0.0331008
0.000153379
0.000147981
0.000146744
0.000415098
0.000148548
0.000144149
0.0331318
0.00014146
0.000155972
0.000157554