/*--------------------------------*- C++ -*----------------------------------*\
| =========                 |                                                 |
| \\      /  F ield         | OpenFOAM: The Open Source CFD Toolbox           |
|  \\    /   O peration     | Version:  v2012                                 |
|   \\  /    A nd           | Website:  www.openfoam.com                      |
|    \\/     M anipulation  |                                                 |
\*---------------------------------------------------------------------------*/
FoamFile
{
    version     2.0;
    format      ascii;
    class       volScalarField;
    location    "250";
    object      p;
}
// * * * * * * * * * * * * * * * * * * * * * * * * * * * * * * * * * * * * * //

dimensions      [0 2 -2 0 0 0 0];


internalField   nonuniform List<scalar> 
18355
(
-0.0305414
0.00175229
0.0173786
-0.00353438
0.00196383
0.0054236
0.00274765
0.00187641
0.000935817
0.000662801
0.000588202
-0.0691357
-0.0690222
-0.0317041
0.00077082
0.00173154
-0.00339416
0.0023184
0.0243425
0.00291184
-0.00574479
-0.0135571
0.00150247
0.00712537
0.00147631
0.00302914
0.00274285
-0.00327135
0.000952884
0.00174976
-0.0216473
0.00134364
0.00185401
0.00159356
0.000117057
0.00246623
-0.031108
0.00264002
0.0023519
-0.00404889
-0.0100608
0.00127513
0.00161911
0.00172229
0.00172968
-0.0901493
-0.00140378
-0.00139876
-0.023161
0.0023852
0.00142482
-0.0331029
0.00243315
0.00611286
-0.0095737
0.00293453
0.000731582
-0.0485229
0.00307974
-0.0899133
0.00160898
-0.0450336
0.00353976
0.00218702
0.00010359
0.00137972
-0.0145607
-0.0301817
0.00152468
0.00203577
0.00211773
-0.00959378
0.000622782
0.0039108
0.00431828
0.00155292
-0.0357909
0.00156936
0.00208747
0.00522759
-0.0138015
0.00524862
0.00154143
-0.0114752
-0.00609862
0.00164756
-0.00155993
-0.0108811
0.000553668
-0.0102879
-0.0668786
-0.00105031
0.00611618
0.00238107
-0.018182
0.00184481
-0.000227249
0.0020048
-0.0040222
-0.0120413
-0.0065854
0.00202219
0.00234673
9.82897e-05
-0.0129089
0.00174944
0.000947653
-0.0250052
-0.0181001
0.0016991
0.000730472
0.00132267
0.00162827
-0.0113313
-0.0457795
-0.00356253
0.00198411
0.00320954
-0.011322
-0.0153511
0.00356577
0.0162514
-0.0578482
-0.00868528
0.00365998
-0.0785528
0.00278301
-0.00348784
-0.0321216
-0.0129966
-0.000136233
-0.0292339
-0.00668287
-0.0151165
-0.00582987
0.000829108
0.0261445
-0.000219669
-0.00630415
-0.00256699
-0.0247965
0.00385127
-0.000705017
-0.0698992
-0.0060273
-0.00976359
-0.071747
0.000110763
0.00215989
0.00108604
-0.00322918
-0.0155148
0.00240651
0.00396765
0.00163453
0.00142652
-0.00338435
0.00159056
-0.00071854
0.00141912
0.00175042
-0.0065906
0.00170941
0.00392829
0.00367165
0.00334869
-0.078722
-0.0400929
-0.00816216
-0.0240439
0.00114638
-0.0169097
0.00162616
-0.0205207
0.000562611
-0.00973926
0.00130095
6.6692e-05
-0.0296877
-0.00833514
0.00162087
0.00454986
-0.0132759
-0.00327869
0.00399667
0.00239448
0.00150697
-0.0093745
-0.010889
0.00282913
-0.0803697
-0.00557616
0.001759
0.00151533
-0.0106722
-0.0284177
0.00142428
-0.0563122
0.00176316
-0.0313879
0.00233522
0.00206159
0.00289148
0.00160252
-0.0384211
-0.0137802
-0.00693816
-0.00311284
0.00182303
0.00234813
-0.00849542
0.00746652
0.00254953
0.00244623
0.00010089
-0.0284444
-0.0075803
-0.0336137
-0.0132885
-0.000951275
-0.0185264
0.00138815
-0.0124875
0.00226676
0.00489123
0.0027262
0.00142499
-0.000924805
-0.0157084
-0.00156406
0.0025114
-0.0134218
0.00453359
0.00140914
0.00417197
0.00485586
-0.0244694
-0.0869117
-0.0418488
0.00251785
0.00179523
-0.0293037
0.00245254
-0.00271646
-0.0133291
-0.00980025
-0.00180322
0.00712336
0.00742211
0.00228118
0.00214621
0.00754303
-0.0143537
0.00217147
8.51151e-05
0.00310387
-0.0408153
-0.00851202
0.00260136
0.000168837
0.00242647
-0.000526077
-0.0100397
-0.0479926
0.00352318
0.00617512
0.00374099
-0.000106044
0.000251268
-0.00982116
0.00286605
0.00169886
0.00231973
-0.0344374
-0.00279248
-0.00963122
0.00718418
0.000790784
-0.00359399
-0.0250472
0.00656782
-0.0086468
-0.00232749
0.00168252
-0.0117239
-0.0138849
-0.00648828
-0.0101795
-0.00685655
-0.00108874
0.00184263
-0.0336141
-0.0129101
0.00246014
0.00359089
0.000743326
0.00149553
-0.00385677
-0.00927012
0.00400302
-0.0332335
-0.0574188
-0.0125925
-0.00829991
0.00229933
0.00762038
0.00227546
-0.0389598
-0.0472841
-0.0317733
0.00332655
0.0332289
-0.00109218
0.00384746
0.0018978
-0.00192132
-0.00120876
-0.00126348
-0.00232276
-0.0564226
0.0282072
0.0550706
0.00286643
0.00716248
-0.0260451
0.00545592
0.000165072
-0.0138269
-0.0250422
-0.0110206
-0.00227666
7.47471e-05
0.00138572
0.00177547
0.00354017
-0.00965967
-0.00440117
0.00300308
-0.0546077
-0.057273
-0.00345723
0.00128163
-0.00835776
0.000578899
-0.0108038
0.00369447
2.74541e-05
0.0005464
-0.00541279
0.000965229
-0.00961021
0.000728569
-0.029646
0.00370297
-0.00206974
0.00249627
-0.00583613
-0.0075694
-0.00510313
0.00138596
-0.00528195
-0.0117296
-0.0894014
0.00344372
0.00137315
-0.000825172
0.00464697
-0.00248309
0.00161785
0.00586384
0.00313821
0.0071895
-0.0102968
-0.0247526
-0.0658359
0.00225326
0.00274959
-0.0399247
0.00180785
0.00467849
0.00352895
-0.0116776
-0.00500888
0.00200697
-0.000219425
0.00411564
-0.010666
0.00822956
0.00244824
-0.0164438
0.00137711
-0.00220026
0.00210826
0.00299438
-0.0384179
0.0121382
0.00344758
0.00275359
-0.0120933
0.00348019
-0.00972244
2.51717e-05
-0.0354472
-0.0109474
0.0083672
0.00268408
0.00538736
0.00520931
0.00455689
-0.0554375
-0.00397084
7.23389e-05
0.0163534
-0.0125448
-0.0026142
-0.00486684
-0.00976574
0.00395722
0.000149071
0.00104606
-0.00972111
-0.019973
0.000731631
-0.0135413
-0.00347585
0.00185198
-0.0121173
-0.0118634
0.00235798
0.00278338
0.000281347
-0.00256025
-0.035507
-0.0353615
0.00182996
-0.00433535
-0.00412886
-0.0254441
-0.0176974
-0.00913351
0.00233169
-0.0384329
-3.9023e-05
0.0017305
0.00246254
0.00549896
0.00869575
0.00179323
0.00162606
-0.00882147
-0.053553
0.00378228
0.00146974
0.00376907
-0.0125318
-0.0150732
-0.0339264
-0.0415967
-0.013617
-0.000166766
-0.0183307
-0.0608468
-0.0804625
0.0017728
-0.0560882
-0.00617217
0.00178809
-0.0109575
-0.0128933
0.00811805
-1.50283e-05
-0.0162752
0.00452473
-0.0141809
-0.026963
-0.011028
-0.0477219
-0.0103404
0.00175211
-0.0192646
0.00176662
-0.0370267
0.018894
0.00190179
0.00282686
-0.00389594
-0.00985345
0.00240661
0.00206534
0.0020355
0.00125764
-0.0121774
-0.011804
0.00181766
0.00195705
-0.0162681
-0.0551723
0.00350229
-0.0131452
0.00162673
-0.00449729
-0.0133428
0.0032765
0.0317364
0.00378829
-0.00957755
0.00490735
-0.0184131
-0.0216129
-0.109062
-0.010675
0.00213536
-0.00688539
-0.00155089
-0.0538576
0.0125091
-0.0427216
-0.00433552
-0.107024
-0.00284753
-0.02155
0.00238093
-0.00856939
-0.0103837
-0.0190691
-0.0143726
-0.0138361
-0.0827177
-0.00732188
-0.00278577
0.00224435
-0.014071
-0.0121271
-0.0100373
0.00350091
-0.00473007
-0.0226871
0.02166
0.0149532
0.00450949
0.00116218
0.00320691
-0.00154963
-0.00489359
0.00473749
0.00382945
-0.0142598
-0.0100082
0.00267839
-2.62544e-05
0.0130395
0.00413081
-0.0264551
-0.0657015
-0.0050837
-0.0106246
-0.0393839
-0.012048
0.0261587
-0.00479024
0.000470655
-0.0100191
-0.00995945
0.00340255
-0.00161774
-0.00259162
0.00161155
0.00149073
-0.0375485
-0.0436404
-0.0236591
-0.0112088
-0.0479008
6.77577e-05
0.0320995
3.15211e-05
-0.00030985
-0.00443836
0.00369149
0.00501532
0.000595931
-0.00840244
0.00220601
0.00359241
0.0498856
-0.0277204
0.00243221
0.00104963
-0.0030249
-0.0105406
-0.0277186
-0.059204
0.0016725
0.00392327
-0.00729213
0.0011266
-0.0218035
0.00335823
0.00228961
-0.00427774
0.0024564
-0.0500674
0.000447293
0.000154105
-0.00194223
-0.0427257
-0.0100929
-0.015246
-0.000912847
-0.00475816
-0.0102034
0.00218773
0.00368507
-0.00753763
0.000184792
-0.00761941
-0.0224248
-0.000469
-0.0181783
-0.0170372
-0.000484944
0.00325582
0.00174919
-0.018963
-0.0112542
0.000103133
-0.00185863
-0.0375847
-0.0315944
0.00348711
0.00238679
0.00221903
0.00162197
0.00406258
-0.0546042
-0.00288235
-0.0258115
-0.00741156
-0.0127507
-0.0374065
0.00233332
-0.0397748
0.0362491
-0.011616
0.00229962
-0.00882302
-0.00871281
-0.0290207
-0.0101056
-0.000471283
-0.00553912
0.00256018
0.00402464
-0.0606005
-0.00330987
-0.0118416
-0.00892429
-0.00525766
0.0435718
0.00160664
-0.00557313
0.00511796
-0.0045233
-0.0151594
-0.00974704
-0.0203231
-0.00786918
0.0013586
0.00204684
0.00466206
0.00780009
-0.0172403
0.00104765
-0.00908575
-0.000246471
-0.00285555
-0.00392704
-0.040886
-0.0146765
-0.074362
0.00137383
0.0227787
-0.0114589
9.23221e-05
-0.00993832
-0.00939154
-0.0249293
-0.0174653
-0.00986071
-0.0697105
-0.011211
0.00167453
-0.00756955
-0.000446859
-0.00509918
-0.0116752
-0.0576106
0.00137315
0.0233205
0.00378326
-0.0037276
-0.0213436
-0.00471046
-0.0105016
-0.00909702
0.00134495
-0.033065
-0.00646376
0.00165449
0.00163608
-0.00306269
-0.0118043
0.0111809
0.00317323
-0.0308504
0.00292184
0.00382084
0.00117752
0.00317254
-0.00051578
0.001783
-0.039973
-0.00797796
0.00144587
-0.0246188
0.0361476
0.00118146
-0.00167254
0.000940302
0.00433958
-0.0483485
7.66416e-05
-0.0388086
-0.00610328
-0.00391853
0.00120937
-0.0414763
-0.012212
-0.00339337
0.0069229
-0.0116983
-0.00143312
-0.0600228
-0.0183259
-0.0112897
-0.0262448
0.00233587
-0.00875733
-0.00153461
0.00015159
0.00170343
-0.00212167
0.00411487
0.00112358
0.00158181
0.000651754
-0.00845049
-0.0039889
-0.0576531
0.00183902
-0.00719746
-0.00477667
-0.00416318
0.00259054
-0.000834438
0.00636031
0.0015758
-0.000449683
0.00144409
-0.0127446
0.00295669
0.00215315
-0.0446255
0.00088944
-0.0267325
-0.000332507
-0.0640145
0.00163953
0.00158852
0.00218167
0.00701124
0.00226002
0.00209694
0.00166945
0.00174941
0.00400077
0.00151084
0.00523001
-0.00629263
-0.0119286
-0.00184781
-0.0260536
-0.0332059
-0.000364976
-0.0146106
8.06459e-05
0.0297081
-0.0089556
-0.0415795
-0.00704846
0.00342825
0.00418726
0.00620745
-0.104265
0.00161741
-0.0102665
-0.0146373
0.0162294
0.00225889
0.00181172
0.00122478
-0.0133763
0.00123837
-0.0422492
0.00252929
-0.0282031
0.00134153
-0.000547579
0.00105268
0.000273425
-0.00281363
-0.048311
-0.000446855
0.00292922
-0.0209417
-0.0177166
0.00150132
-0.00169592
-0.00216018
0.00182599
-0.016762
-0.0292114
0.00405539
0.00554239
-0.0173459
-0.0142583
0.00375454
-0.0102197
-0.0561887
-0.0218651
-0.00855877
-0.0129337
-0.0815856
0.00556895
-0.00112066
0.0015155
-0.0192393
-0.0086704
0.00154998
-0.0508184
-0.0308712
0.0018427
-0.0128175
0.00391645
0.00188764
-0.107074
0.00153193
0.00158159
0.00129233
0.00155856
-0.00172114
0.000475786
0.00248173
-0.0346436
0.00114881
0.00224812
0.00184824
0.00121946
-0.00140604
-0.00852799
0.00522998
0.00124616
0.00369263
0.00165721
0.00119396
-0.00179912
0.00282337
0.00467272
0.00244232
-0.0239481
-0.034043
0.000887907
-0.00862688
0.00154963
0.00146673
0.00183793
0.0015054
0.00592279
0.00363828
-0.00813882
0.00260442
-0.0153401
0.0160787
0.00159433
0.00140434
0.00156078
0.00409789
-0.0135737
-0.00417731
-0.00304992
0.000758065
0.00137125
-0.0268025
0.00157821
-0.00364484
0.00235359
-0.03899
0.00152597
0.00292786
0.00318758
0.00434419
-0.00254994
0.0026177
0.00385412
0.0284421
0.00148404
0.000635423
0.00154176
-0.0154945
0.00161242
0.00153062
0.00399797
0.00245648
0.00164468
-0.0079179
-0.0081053
-0.0430746
-0.00236888
0.0022176
0.00403625
0.00289385
0.00191623
0.00276719
-0.00247052
-0.0183622
-0.0086635
0.00178417
0.00166213
0.00175299
0.00331462
0.0037223
0.000756311
0.00159164
0.00274076
-0.00310658
0.0016139
-0.0127414
-0.0028307
0.000660887
0.000296785
-0.0114915
-0.0114463
0.00175887
-0.0145872
0.0016362
0.00227288
0.00177501
-0.0216169
-0.0286015
-0.0128929
0.0252035
-0.0232228
-0.052431
-0.0165841
-0.0027566
0.00457053
0.00102841
0.00037744
-0.00330063
-0.00144688
-0.00714262
0.00394306
-0.0321849
-0.0127046
-0.0343088
0.00297528
-0.00260828
0.0100014
0.00340541
0.00140408
-0.0128296
-0.0306795
0.00164218
0.00140378
0.0136488
-0.0203313
-0.0669113
0.000716187
-0.0374792
-0.0114065
0.00345169
0.0074501
-0.00421378
0.00398318
-0.0474978
0.00397903
-0.000394739
-0.0314237
-0.00056634
-0.00290783
0.00621989
-0.00223572
0.00102648
0.00241104
-0.00421723
0.00270418
-0.00401125
-0.0129011
-0.0224569
0.00608392
-0.00374832
-6.04542e-05
0.000848413
0.0163878
-0.018995
0.00134773
-0.000800502
0.000772268
0.00136195
0.000693374
-0.0111952
0.027357
0.0016215
0.015761
-0.0332833
-0.0202957
0.00156472
-0.00470834
-0.00254221
-0.0053402
0.0028712
-0.0247775
0.00969423
-0.00998346
-0.012998
0.044904
0.000899078
-0.011818
-0.0126644
-0.0630503
0.00775341
-7.71584e-05
-0.0127227
0.00235699
0.00424664
-0.0108311
0.0014857
0.00134932
-0.0112497
-0.0503778
-0.0523774
7.52206e-05
-0.0180549
5.5479e-05
0.00480229
0.000645014
0.00148563
0.00288943
-0.018813
0.00135982
0.00536317
-0.00105119
0.00407913
-0.0343142
-0.0134428
-0.0180361
-7.26749e-06
0.00135754
-0.0369817
-0.0257486
-0.0142877
0.00144871
0.00241598
-0.0119809
-0.0743823
0.000527657
0.00116507
-0.0359059
-0.00855102
-0.0134902
-0.00853986
-0.0185197
-0.00807006
0.0183348
-0.0117674
-0.0251854
0.000363653
-0.00513202
-0.0105235
0.00130784
0.00219778
-0.0035589
-0.0120732
-0.0261194
0.00358535
-0.0880645
0.000142362
-0.0152281
-0.0452147
-0.0074432
-0.0164207
-0.0523972
-0.0114327
0.00410721
-0.0140201
0.00232978
-0.0175726
0.00175129
-0.033137
0.000640108
-0.0481484
-0.051319
0.00185934
0.00614463
-0.000539987
-0.000986698
-0.00731782
-0.00362292
0.00288417
0.0010896
0.0500329
-0.0148897
0.00167556
-0.00682725
0.00369502
0.0024098
0.00110708
-0.0133881
0.0013549
8.83751e-05
0.00174646
0.00127505
-0.0205776
-0.00818977
0.0011159
-0.0110016
-0.0177778
0.00574622
0.0021194
0.00191148
0.00141142
-0.00202982
0.00125244
-0.00331146
0.00283298
0.00162735
0.00125152
-0.00892161
0.00138059
0.00147451
-0.00489273
0.00191967
0.00175367
-0.0295221
-0.000934738
0.00167882
0.0472477
-0.035983
0.00162248
-0.0194376
-0.0191938
-0.0155943
0.00278328
0.00134929
0.00163706
0.00148057
-0.045662
-0.00237548
0.00181741
0.0277592
0.0015063
4.37663e-05
0.00120392
0.00124244
0.0029507
-0.0151378
-0.0372032
9.53815e-05
-0.00781251
-0.0228129
-0.00581639
0.00169109
0.00340963
-0.00941572
-0.0134499
-0.0153937
0.000549313
0.00141552
0.0480131
0.0105756
-0.0646446
0.0114998
-0.00665888
0.00532199
0.00160758
0.0364347
-0.00999877
0.00167551
-0.00699758
0.00078402
-0.0214799
-0.0590703
0.00204975
0.000629788
-0.00645404
-0.0132325
0.0028326
0.00657733
-0.0123443
0.0146161
-0.0078902
0.00168984
-0.0196767
5.24563e-05
0.00192647
-0.0237192
-0.0198287
-0.00791207
-0.0107876
-0.0122609
-0.000281828
0.00153289
-0.0022553
0.00172088
-0.0214333
-0.0064121
-0.0208213
0.00383584
0.000195773
-0.0436346
-0.0141665
0.00359746
0.0020876
-0.00214209
-0.0246553
-0.0358528
-0.00453038
0.000984744
0.00409961
0.00287841
0.00288627
-0.00594336
-0.0126623
0.00447056
0.00388157
-0.0036937
-0.00401144
0.000132173
0.0013292
6.07358e-05
0.00137118
-0.000152742
0.00397463
-0.0186585
-0.00983155
-0.0314075
0.00199428
0.000655991
-0.0579815
-0.0583865
0.00137583
-0.000858311
0.000668043
-0.00383435
-0.000296856
-0.00487593
-0.0110653
0.000592959
-0.00552903
0.00171336
0.00138942
0.00179819
0.00332874
0.00481636
-0.00512448
-0.0132453
0.00178343
0.00225973
0.000430733
-0.0688375
0.00115762
0.00103198
0.00217261
-0.0121877
-0.00930547
-0.0086952
0.00162443
-4.35286e-05
-0.00751493
0.000862247
0.00109796
0.00113384
-0.0120897
-0.0241348
0.00172297
0.00529097
-0.0322427
-0.00055261
0.00202115
0.0013896
0.00208355
-0.0386202
-0.040777
0.00345081
0.00357927
-0.0047008
-0.0530433
-0.00177155
-0.00567269
0.0028079
-0.0191215
0.00317642
0.00297112
0.00175929
0.00158209
0.00219984
0.00219058
0.00140659
-0.0430765
-0.00229186
0.000308899
-0.00264124
0.00319882
0.00164115
-0.0731665
-0.00111317
-0.0402495
0.00421336
0.00233656
-0.00446986
-0.0152701
0.00341976
0.00501618
-0.0144878
0.000643545
0.00528661
-0.00849816
-0.0221633
-0.0179423
-0.0273621
0.00652749
0.000398097
0.00467194
0.0018421
-0.0128942
0.00155289
0.0402825
0.00411406
0.00128466
0.00172576
0.00526172
-0.00148704
-0.00706137
-0.00483797
-0.0356198
-0.000529468
0.00102995
-0.00335874
-0.0515871
0.00166016
-0.0128373
0.00177497
0.00682939
-0.0442385
-0.0089429
-0.0141047
0.00253321
0.00222156
0.00134485
-0.0198712
-0.0140847
-0.00928436
7.47149e-05
-0.0373628
-0.00910395
0.00255947
0.00219529
-0.009815
-0.0203005
0.00136696
0.000689395
-0.0273775
-0.00521901
0.00149913
-0.000951979
-0.0669587
-0.0250861
-0.0321718
0.00259492
-0.0525859
0.00247808
-0.028904
-0.00882859
0.00214945
0.000617557
0.00184646
-0.0209466
-0.00569707
-0.0237398
0.00533843
0.00135665
0.00279951
0.00181118
0.00118881
0.0328724
-0.00582426
-0.00353651
-0.0192994
0.0115653
-0.0147539
-0.0138394
-0.0397961
-0.0138605
-9.80357e-05
0.00258718
0.0016414
0.00155095
-0.0220427
-0.06312
-0.00206188
-0.00390063
0.00151477
0.00239677
0.00185164
0.0109442
-0.00516628
0.00228198
-0.00357069
-0.0412134
0.00164355
0.00148074
-0.0202921
0.00225051
0.00513114
-0.00190549
-0.014155
0.000665733
-0.106127
-0.00336849
0.000815429
0.00326779
0.00259242
0.0488948
0.00202115
-0.0426731
0.00118028
-0.00543533
9.25569e-05
-0.0195372
-0.0150887
-0.0320381
-2.48621e-05
0.00432547
0.0555254
0.00309205
0.00532356
-0.0171613
-0.00680918
0.0338946
-0.0348378
-0.00713787
0.0017768
-0.0224344
0.0046357
-0.0128262
0.00143368
0.00201675
0.000743777
0.0302636
-0.0023353
-0.0146571
0.00188345
-0.0119517
-0.0105184
0.00305954
0.00230986
-0.0243779
-0.042106
-0.00808159
0.00237747
0.000750221
-0.00137405
0.00179928
-0.0122637
0.000790367
0.0325373
-0.0236599
-0.0102623
0.00202545
-0.0130116
-0.0111724
-0.00588752
-0.0081831
0.00146866
0.003347
-0.000747666
0.00165708
-0.00731297
-0.0252652
0.000739368
-0.000724783
-3.5447e-05
0.00294096
-0.00336253
0.00364972
0.00236262
0.000652635
0.00159173
0.000978212
-0.00748931
-0.0510786
-0.00509455
0.00160541
0.0432099
0.00199964
0.00164628
0.000645928
-0.00555809
0.0393968
0.000682589
0.00149796
0.00191275
0.00244612
-0.0110571
0.00169128
0.00215645
0.00179616
-0.0326664
0.0501973
-0.0128641
-0.00652445
0.0441224
-0.0285571
0.0034018
-0.000421565
-0.00439669
-0.0277225
0.00112718
-0.113156
0.000942465
-0.00298463
0.00164751
0.00226307
0.00163222
-0.00372056
-0.0238664
-0.0132928
-0.0168752
0.000258165
-0.000230246
0.00210632
0.00144311
0.00218666
-0.0184134
-0.00888599
-0.0111146
0.00190555
0.00726775
0.00207782
-0.00140351
-0.016985
0.0273659
0.00214443
0.00217772
0.00274105
-0.0241659
0.00147903
-0.0428599
0.00267462
0.00172258
0.0020851
0.0573762
0.00246554
0.00225551
0.00189446
-0.00714048
-0.0127298
-0.000639261
-0.00941868
0.0071424
-0.00460136
0.00450851
0.00179039
-0.010638
0.00141254
0.0010576
-0.0398052
0.0112597
-0.0180693
0.00172219
0.00172256
-0.0104662
0.00127081
0.0121173
-0.0222663
-0.00341316
0.000161941
-0.0121778
-0.0114761
-0.0282393
0.0023018
-0.0165169
-0.00203467
-0.00838721
0.00146158
-0.0288031
0.00162198
0.00201884
0.00236435
-0.0474405
-0.00313216
-0.0293471
-0.00320113
0.00334249
0.00173235
0.00518555
-0.0168712
0.00127087
0.0160582
-0.00298077
0.00178574
-0.00868631
0.00334541
0.00179132
0.00216457
-0.0263045
-0.0205073
0.00252413
-0.0454999
-0.0170886
-0.032212
0.00362056
0.00220959
-0.00352775
-0.00722088
0.00219205
-0.0226245
-0.0104892
-0.0627376
0.00190992
0.0509417
-0.0610553
0.00135379
0.00200511
0.00197624
0.00889352
0.00238015
0.0012645
-0.0059164
0.00145035
-0.00355956
0.00281333
0.00284415
-0.0197507
-0.0117838
-0.0334875
-0.00527956
0.00276389
-0.0110442
0.00224452
-0.0185899
-0.00680598
-0.0295629
0.00344025
-0.0164272
-0.00293476
0.000988246
0.00317308
-0.00617813
-0.00463832
-0.00763433
-0.00111353
0.00112626
-0.0510031
0.00152344
-0.0238852
-0.0291132
0.00424718
-0.00798339
0.0563824
-0.0129385
-0.00901034
0.00308837
0.00096033
0.00133598
-0.0269671
0.000711524
-0.0190036
-0.0182383
0.000335224
0.00446539
0.00341606
-0.00713258
0.000501704
0.00225378
0.0016431
-0.00666623
0.00133315
-0.0424707
0.00151192
0.00557284
-0.00106247
0.00224376
0.0377944
-0.000340044
0.000685548
0.000105359
0.00404473
-0.0053373
0.00459438
-0.00117678
0.00173492
-0.00535876
-0.0237905
-0.0056449
0.00225058
0.00396638
-0.00576164
-0.00915117
-0.0310157
-0.0105298
-0.0261993
0.000485344
-0.0682521
0.041711
-0.00465171
-0.00708655
-0.00310149
0.00143013
0.000673886
-0.0152817
-0.0067639
0.0158519
-0.010571
-0.0188012
0.00110163
0.000446766
-0.0107564
0.0104873
-0.0112082
-0.00747537
8.6704e-05
-0.00221076
0.00170852
0.00212618
0.00497784
0.00181019
0.000998671
-0.0133345
-0.00155015
0.0070735
-0.00249009
-0.0130913
-0.00299493
0.000376796
-0.0590622
-0.0142605
0.00276384
0.00232846
0.000913878
-0.0317624
-0.000913601
0.00159138
-0.0595493
-0.0249205
-0.0203416
-0.00415628
-0.00899117
0.00405386
-0.0216213
0.000961793
-0.0134964
-0.00625374
0.00184597
-0.0511063
-0.0148453
-0.00100707
0.00169273
0.00178696
0.000243164
-0.0438134
-0.00641643
-0.0138083
-0.0287352
0.00025533
0.00162254
-0.0542547
-0.00422557
0.0247466
-0.0292039
-0.0539431
0.00555812
-0.00384449
0.00467198
0.00137615
-0.00271311
0.000584748
-0.0055868
0.00146661
-0.0163085
0.00204376
-0.0639133
-0.00811656
0.00222672
0.00298876
0.00125677
0.0268612
0.00183484
0.0013391
0.00230101
0.00270226
-0.00541981
0.00348608
-0.0293878
-0.00618394
-0.00716062
4.86555e-05
0.00114152
0.00171797
0.0021875
-0.0201925
-0.0210969
0.00356179
-0.00324129
-0.0102303
-0.007961
0.00221685
-0.0624121
0.00792495
-0.00629098
0.00232115
-0.0823305
0.00223972
-0.00928728
-0.00838119
-0.016943
-0.0129513
-0.0158961
0.00522644
-0.00479211
-0.0577715
0.00345815
-0.000480873
0.00294203
0.00189227
-0.00357387
0.00196724
0.00172264
-0.0219434
0.00781983
-0.00491077
0.00116437
-0.00908662
0.00215261
0.00297694
7.34458e-05
0.0292716
-0.0251947
-0.0415264
0.00168178
0.00539281
9.60983e-05
0.00148635
-0.00403265
-0.00708618
-0.149926
-0.0232627
-0.0196467
0.00175879
-0.00644792
0.000819771
-0.00773695
-0.0410585
-0.0353574
0.00358109
0.00219093
0.00200405
-0.0111309
0.00335976
0.000965656
-0.0338744
0.00131961
0.00127851
-0.0789615
0.00176646
-0.0221395
0.040247
-0.0327963
-0.0786375
0.00217783
-0.0283457
-0.0490364
0.0329523
-0.000427643
0.0438352
-0.000555781
0.000419074
0.000646144
-0.04789
0.0406099
0.00190432
0.00181206
0.00165817
0.00173107
0.051903
-0.0727532
6.5505e-05
0.000684721
-0.000618437
-0.0297995
-0.0585336
0.00260756
0.00174486
-0.00705338
-0.00227156
-0.00448461
0.00503862
-0.00983656
0.00164418
0.0015536
4.33742e-05
0.0018516
-0.00463612
0.00169842
0.00275717
0.00293721
-0.103637
0.00436766
-0.0103182
-0.00708387
-0.0418945
-0.0409252
0.00866622
-0.00581464
0.00222167
-0.00651989
-0.0459952
0.00201478
-0.00156643
0.00483515
-0.00834259
0.040522
-0.0305127
-0.00669582
-0.0230761
0.00327369
-0.00865666
-0.0150379
-0.0458631
-0.0408718
-0.00442854
-0.0107736
0.000136309
0.00967326
0.00905089
-0.00112027
0.00180313
-0.00521854
-0.072289
0.00205176
0.00169129
-0.0082858
0.000702958
0.00154848
-0.0529082
0.00257001
0.00220256
0.020155
-0.00363111
-0.0175349
-0.0196019
-0.00915814
0.00206368
0.00220906
-0.0156202
0.0278131
-0.000852396
-0.0538711
-0.121197
-0.0200345
-0.000540828
0.056661
0.00175632
-0.0548056
0.0560585
0.00156458
-0.00585941
-0.0230561
-0.0314929
-0.00581851
0.00221095
0.0326172
-0.00909476
0.00216176
0.00142641
0.0027475
0.00185569
-0.00373188
-0.0629335
0.00161461
-0.00344159
-0.0101605
-0.00566882
0.000689136
-0.00306217
0.0015715
0.00088381
0.00149333
-0.00916762
0.000612708
-0.0227995
0.000685591
0.00752687
-0.0761778
-0.0311394
0.0183792
0.00206407
-0.00794629
-0.114727
-0.000982155
0.00165898
0.00205039
0.00133991
-0.0141622
0.000622593
0.00174125
0.0565135
0.00134113
-0.0037142
-0.006297
0.00168828
-0.00286445
-0.0158178
0.0199893
0.0135424
0.00120306
-0.0362551
0.000948168
0.00334614
-0.00233721
-0.000777859
-0.00239895
-0.00661131
0.00161562
-0.0044109
0.0565834
0.00175484
-0.00942651
-0.0219038
0.0280568
-0.0167399
-0.000570892
-0.0381474
0.00336239
0.00119155
-0.0102278
-0.000501945
0.000280151
-0.0691543
0.00144767
0.0323355
-0.0218036
0.000640426
-0.000546144
0.00225882
0.00274468
-0.00116469
0.00162913
0.00634959
-0.00405368
0.0153318
-0.0262057
0.0011288
-0.0441639
-0.0165952
-0.0085533
0.0035542
-0.0169949
0.00143907
0.00476688
0.00561939
-0.00752219
-0.00432017
0.00922559
-0.0147446
0.00315028
-0.000473876
0.0267966
0.00220878
-0.00117261
-0.00848476
-0.0181285
0.00386966
-0.0206086
-0.0157091
-0.0156402
0.00131663
-0.06452
-0.0023415
-0.00587357
-0.00578775
-0.00576927
-0.00611155
0.0325901
-0.00432521
-0.0252156
-0.0277144
-0.00668495
0.0107351
-0.0153396
0.00386671
0.00113959
-0.0128922
-0.0213486
0.000197345
-0.00555497
-0.0283195
0.00321649
-0.0159721
-0.00847579
-0.00925325
0.000525755
-0.00886025
-0.0603126
-0.0114171
-0.0148639
-0.00431589
-0.0125444
-0.0273784
0.00165035
0.0388807
0.00122057
0.000143946
0.00190332
5.19367e-05
0.010086
0.002199
0.00160727
-0.00251789
0.0145209
-0.0114208
-0.0352943
0.000342225
-0.00188942
0.0044835
-0.021201
-0.00178395
0.00226831
-0.00435523
0.00160362
-0.0191468
0.00182992
0.00239153
0.0018357
0.00209476
-0.0368494
-0.0285974
0.00191073
-0.00125407
-0.00891442
-0.0334065
0.00219385
0.000807693
0.000682332
0.000648826
-0.00146253
-0.0131359
0.000180143
0.00182612
-0.00653058
-0.0232549
-0.0226747
-0.01955
-0.0266411
-0.012275
0.00225329
-0.0115542
0.00291896
-0.00125678
-0.00638639
0.0015855
-0.0727546
0.00190977
-0.00630087
-0.00703629
0.00327717
-0.000348202
-0.0172186
-0.00275165
-0.00412096
0.00628097
-0.00190285
0.00145769
0.00129156
-0.0257717
-0.0390831
-0.0030231
-0.00704552
-0.0105041
0.00309619
-0.0450978
3.46754e-05
-0.0109417
0.000444037
-0.0105136
-0.00875211
-0.0127096
0.000281332
-0.0105929
0.00187889
0.00117822
-0.00718637
0.00272164
0.00500784
-0.0398005
-0.0200434
-0.0421209
-0.00293853
0.011472
0.00187012
-0.0373495
0.00228547
-0.0041491
-0.00278482
-0.0809196
0.000141535
0.0017456
0.00192207
-0.022824
0.00220278
-0.0178988
-0.00650507
0.00167619
0.00328488
-0.00273295
-0.0045519
-0.00252568
0.0016785
0.0030328
-0.00107082
0.00190321
-0.0263161
-0.0243279
-0.0442301
-0.0245797
0.00192989
0.00666072
-0.000128493
-0.0178118
0.0017008
0.000480595
-0.0110095
0.0010336
0.00214423
0.00214771
0.00231821
-0.0138243
-0.0149707
-0.038446
0.00219185
0.00329062
-0.0568041
-0.0122646
0.0014449
0.00190094
0.000634988
0.00224158
0.000980186
-0.00717781
0.000549459
0.00183866
-0.0320336
0.000560987
-0.00418614
0.00157421
0.00095629
0.00129239
-0.0125581
-0.0123401
0.00164319
0.000687954
-0.024828
-0.0277834
-0.0280349
-0.0238923
-0.0247291
-0.0084851
0.00801184
-0.0662872
-0.00589863
-0.00872346
-0.0492852
0.000767312
0.0340282
0.00295155
0.00227768
-0.0350689
0.00147267
0.00181375
0.000954602
0.000607151
0.00173347
-0.024518
0.00205299
0.00043738
-0.010628
0.00274966
-0.0405363
0.000770977
0.018507
0.00193199
-0.000461585
-0.0420152
-0.0160611
-0.0121845
0.00070293
-0.00699984
0.000506296
-0.01909
-0.00685637
-0.058409
-0.0191583
-0.0249462
0.00103033
-0.0340276
-0.000688318
-0.00984399
-0.0611574
-0.0619541
-0.0642989
-0.00489314
0.00248917
-0.0247194
0.000700942
0.0109861
0.00166248
-0.00441219
-0.0191534
0.0293032
-0.0289151
-0.0707352
-0.00136672
-0.00678474
-0.0142549
-0.00925035
-0.00377144
-0.0141817
-0.000354402
0.00639022
-0.0215418
-0.0575491
0.0240119
0.000604879
0.000182206
-0.00962444
-0.011872
0.00612663
-0.00813065
0.00411712
0.00102386
8.21309e-05
-0.0150431
-0.0143332
-0.0755392
-0.0734561
-0.00503119
-0.0340453
-0.0219831
-0.00430403
0.00287887
0.00339408
0.00475512
0.000269001
-0.0552157
0.00643809
-0.0373368
0.0013799
-0.00144999
0.00171127
0.00173549
-0.0241795
0.000980323
-0.00821858
-0.00882782
-0.0153761
-0.110424
0.00227807
0.00176018
-0.00155619
0.00193027
0.050481
0.00144661
0.00250797
-0.0209928
0.00799785
0.000456063
-0.0110139
0.00229895
-0.000129017
0.00283844
0.0007523
0.00165269
0.00224212
0.00105474
0.00238653
0.00161287
-0.0692177
0.00510543
-0.0187046
0.0109544
-0.00871411
0.00274974
0.00118664
-0.00688891
-0.00392305
0.000510035
9.33404e-05
0.00283724
-0.00280529
6.60974e-05
0.000898466
-0.0137851
-0.0121421
-0.000423154
0.000950709
0.00163894
0.00173909
0.00336776
0.0041653
-0.0360331
-0.0105096
-0.0279744
-0.00724
0.00158069
-0.0103979
-0.0018896
-0.0472024
0.00163566
-0.00704791
-0.025905
-0.00614661
-0.00873426
0.000776191
0.00165253
-0.00458496
0.00168809
0.00168215
-0.0054409
-0.00473861
-0.0020907
-0.00697818
-0.00809341
-0.0103472
-0.00337499
0.000331925
-0.0384336
0.0583549
0.00188636
0.00348285
-0.0052354
-0.00548715
-0.00396279
-0.0186857
-0.00999041
-0.00898401
-0.000465781
-0.00770636
-0.00794319
0.00209302
8.58968e-05
0.0184744
-0.0112895
0.00100906
0.000698316
-0.0198592
0.00465969
0.0016443
7.2313e-05
-0.0186868
0.016804
-0.0234913
-0.0162443
-0.000854429
-0.00226107
-0.025949
0.00238212
0.0234319
0.00191779
-0.0318591
0.000266238
-0.013436
0.0016208
-0.0287747
-0.00334744
0.00193587
-0.00891157
0.00236608
-0.00100677
0.00560014
0.000499311
-0.0124347
0.000960814
-0.0118818
0.00169154
-0.00552984
-0.0440659
0.00195779
-0.0059385
-0.00652282
-0.0667978
0.000597668
-0.0129262
-0.0383309
-0.0286447
0.025745
0.00229059
4.95248e-05
-8.8574e-05
-0.0120215
0.00113683
-0.00414633
-0.009146
-0.00806201
0.00446022
-0.0663289
-0.0670826
-0.0133601
-0.0102835
-0.0636798
-0.00511696
0.00120666
-0.00377252
0.00249851
-0.00120842
0.00168396
-0.0110584
0.0015014
0.00544339
0.00568952
-0.00151886
-0.015242
-0.0158549
-0.00414405
0.00138416
0.0263545
0.00331545
-0.0499911
-0.0319395
-0.0064872
0.00586634
-0.0103711
-0.00130687
0.00284142
-0.00164622
-0.0241272
0.00100035
0.000633815
-0.0108545
0.00142235
0.00120823
-0.0120492
-0.0431597
0.0015512
0.042237
0.00193704
-0.00385273
-0.010284
0.00166859
-0.00993569
-0.0164388
0.00221325
0.0107145
0.00130961
-0.0082623
0.0571935
0.00139582
0.020776
-0.0395262
0.000517535
-0.013764
0.00157156
-0.0192049
0.0557819
-9.88506e-06
0.00314342
0.00451182
-0.00246562
0.00162661
-0.00204713
0.00587375
-0.00901798
-0.00568423
0.00116423
0.000407238
0.00304807
-0.056448
-0.0516071
-0.00273867
0.00165432
-0.0757648
-6.73197e-05
-0.00235795
-0.00685588
-0.0333357
-0.0911128
0.0546276
-0.101301
0.00164109
-0.0159898