/*--------------------------------*- C++ -*----------------------------------*\
| =========                 |                                                 |
| \\      /  F ield         | OpenFOAM: The Open Source CFD Toolbox           |
|  \\    /   O peration     | Version:  v2012                                 |
|   \\  /    A nd           | Website:  www.openfoam.com                      |
|    \\/     M anipulation  |                                                 |
\*---------------------------------------------------------------------------*/
FoamFile
{
    version     2.0;
    format      ascii;
    class       surfaceScalarField;
    location    "250";
    object      phi_0;
}
// * * * * * * * * * * * * * * * * * * * * * * * * * * * * * * * * * * * * * //

dimensions      [0 3 -1 0 0 0 0];
oriented        oriented;


internalField   nonuniform List<scalar> 
27284
(
-0.161191
-0.0605723
0.221763
-0.1304
-0.337875
0.468275
-0.110547
0.119756
-0.00920948
0.45048
-0.0638774
-0.386603
-0.526131
0.329038
0.197093
0.350809
-0.317282
-0.0335269
-0.399011
0.0651642
0.333847
-0.253945
-0.272186
0.356849
0.111014
-0.467864
-0.348312
-0.0805712
0.428883
0.0775511
-0.271125
0.193574
0.0277864
-0.106887
0.0791005
0.0982495
-0.0704631
0.381992
-0.279527
-0.102466
-0.194768
-0.270285
0.465053
-0.44473
-0.033485
0.478215
0.0318649
0.418615
-0.323051
0.139635
0.183416
-0.140578
0.137277
0.00330069
0.411502
-0.408677
-0.00282546
0.203697
-0.0613551
-0.142342
-0.337394
0.200595
0.1368
-0.530313
0.0592275
0.471086
0.313425
0.0373839
-0.461737
-0.0685758
-0.306371
-0.0992438
0.405614
0.452868
-0.329647
-0.123221
0.262914
-0.451246
0.188333
-0.0622258
0.419075
0.0792743
-0.242185
0.162911
0.31539
-0.254102
-0.0612884
0.231132
-0.0812008
-0.149931
0.317715
-0.47237
0.154655
-0.371928
0.552343
-0.180415
0.479545
-0.493417
0.0138716
0.291407
0.0102237
-0.301631
0.185082
-0.15695
-0.0281325
0.355467
-0.0640599
0.229165
-0.149891
-0.171586
-0.131572
0.303157
-0.469001
0.480382
-0.0113801
-0.164634
0.506319
-0.347644
-0.158675
-0.32324
-0.12682
0.450061
-0.45364
0.0822565
-0.00722762
-0.0750289
0.24569
-0.444686
0.198996
0.441254
-0.195564
0.254937
-0.292101
0.430656
-0.138555
0.0126297
-0.395361
0.382731
0.232408
-0.0658886
-0.16652
0.135913
-0.428014
0.184665
-0.0722575
-0.112407
0.0976837
-0.385578
0.287894
0.408002
0.00350047
0.0143861
-0.402262
0.387876
-0.0848868
0.0169814
-0.323352
-0.037731
0.0798504
-0.0421194
0.134391
0.14565
-0.1257
-0.0199497
0.0140096
0.170655
0.147936
-0.443075
0.295139
0.288118
-0.122765
-0.165353
-0.155472
-0.313737
0.469209
0.29457
-0.200564
-0.0940059
0.171427
0.0136546
-0.345638
0.525652
-0.180014
0.0107562
-0.339303
0.328547
0.311003
0.103242
-0.414245
0.316231
-0.218547
-0.264114
0.123525
0.140589
0.125954
-0.311973
0.186019
0.507102
-0.224443
-0.28266
-0.382749
0.50723
-0.124481
0.0938303
-0.178717
-0.554371
0.171622
-0.117137
0.42814
0.306081
0.201021
0.149905
0.144665
0.403658
-0.00637829
-0.397279
0.161592
0.128168
-0.242711
0.114543
-0.0188556
-0.134874
0.153729
0.435571
-0.485724
0.0501529
0.0472651
-0.442475
0.39521
0.202324
-0.0584436
-0.143881
-0.345236
0.478955
-0.133719
0.12603
0.0762941
0.355811
-0.259858
0.0852116
0.136559
-0.221771
0.382327
0.0213311
0.288993
0.141663
0.0776477
-0.401509
0.323861
-0.142817
0.452082
-0.309265
0.164524
-0.464615
0.300091
-0.460182
0.317365
-0.202978
0.0727845
0.130193
0.18341
-0.299246
0.115836
0.136954
-0.155809
0.323342
-0.44048
0.431541
-0.142548
0.403062
0.0694735
-0.472536
-0.259708
0.128395
0.131313
0.0990689
-0.543799
0.148983
0.139135
0.397682
-0.320035
-0.0166015
0.155471
-0.13887
-0.622806
0.2255
0.397306
-0.36614
0.380526
0.459241
0.00685711
-0.466098
0.330354
-0.136456
-0.193898
0.253041
-0.124873
0.0707703
0.00827325
-0.0790436
0.0893037
-0.237211
0.147907
-0.0961823
0.419525
0.514092
-0.208011
-0.279979
0.128399
0.15158
-0.0448161
-0.155748
0.321105
-0.310349
-0.0989949
-0.0115516
0.14307
-0.059276
0.203567
-0.144291
0.270614
0.243478
-0.0641576
-0.0262638
0.0904214
0.0538568
0.478445
-0.44658
0.0374543
-0.198645
-0.12486
-0.141926
0.266786
0.451593
-0.287069
0.103445
0.128963
0.121637
0.221413
-0.34305
0.0048824
-0.107198
0.102316
0.210971
-0.0927194
-0.118251
0.302348
-0.477557
0.175209
-0.0437945
-0.0967833
0.360563
-0.371001
0.0104376
0.378784
-0.524785
0.146001
-0.148009
0.233221
0.231574
-0.122389
-0.109185
-0.487163
0.318904
0.16826
-0.324379
-0.111035
0.435415
-0.223696
0.0695018
0.130493
0.0804776
-0.0438226
-0.280755
0.324578
-0.0718306
0.0700536
0.00177705
0.130152
-0.486755
0.356603
0.181384
0.14897
0.380897
0.00448014
-0.385377
-0.196716
0.45963
-0.190863
0.146047
0.151512
-0.451138
0.299626
0.466887
-0.331547
-0.13534
0.126861
-0.474505
-0.00715107
0.344821
-0.33767
0.479891
-0.0014459
0.404587
0.0309842
-0.343315
0.0189359
-0.409455
0.402304
-0.133018
0.308068
-0.17505
0.320485
-0.198848
-0.296626
-0.32618
0.433087
-0.313389
-0.119698
-0.135229
0.30925
-0.174021
0.316872
0.064174
-0.381046
-0.0752289
0.00339826
-0.243999
0.0758644
0.168134
0.156414
-0.183618
0.027204
0.0895095
0.142065
0.522848
-0.49783
-0.0250181
-0.123089
0.127972
0.529714
-0.516574
-0.0131395
0.352094
-0.097157
-0.468869
0.470948
-0.00207872
-0.402119
0.358297
0.396713
0.062528
-0.332046
0.454447
-0.122401
-0.0135632
-0.178102
0.191665
0.28193
-0.185588
-0.0963417
-0.478101
0.463487
0.0146142
-0.109243
0.426115
-0.193653
0.312059
-0.118407
0.482883
-0.225864
-0.257018
0.127301
0.305574
-0.432875
0.262703
0.168838
-0.521084
0.347077
0.174007
-0.213565
0.0872181
0.126347
0.165195
-0.414962
0.249767
0.137384
-0.467031
-0.0891957
0.025038
-0.102336
-0.100642
0.131655
0.320675
-0.45233
0.345738
-0.534443
0.188705
0.455455
-0.0106615
-0.444793
-0.0814588
-0.0186778
0.100137
-0.383767
0.396397
-0.183264
-0.0112844
0.194549
-0.461139
0.123265
0.136967
0.245025
0.444803
-0.182101
0.314445
-0.219031
-0.0954139
0.0543515
0.174814
0.370366
-0.517239
0.146873
-0.0489589
-0.19504
0.283785
-0.107815
-0.17597
0.227144
-0.0707301
0.314521
0.168362
-0.326038
-0.123929
0.449966
0.146761
-0.446602
0.299841
-0.190522
-0.124727
0.315249
0.33261
0.00278473
-0.335394
-0.145231
0.448543
-0.303312
-0.4461
0.300869
-0.379845
0.509997
0.253579
0.0985148
0.183625
0.0983046
-0.118502
-0.0589616
0.177463
-0.114399
0.275305
-0.160906
-0.154041
0.433959
-0.279918
-0.169091
0.15249
-0.347037
0.516849
-0.169813
-0.157996
0.205647
-0.0476511
-0.518769
0.262827
0.255941
-0.213886
-0.142556
0.356443
0.530299
-0.211288
-0.319011
0.503679
-0.367075
-0.136605
0.346499
0.0140639
-0.199713
0.0380485
0.161665
-0.250267
0.121201
0.129067
-0.27071
-0.170045
0.440754
-0.109803
-0.47794
0.343981
0.133959
0.156642
0.324974
0.108113
0.170826
-0.384712
0.0794781
-0.253648
0.174169
-0.00693915
0.208218
-0.0734637
-0.134755
-0.157412
-0.288688
0.0886385
-0.428865
0.340226
0.159467
-0.17303
-0.447648
0.290236
0.138391
-0.281168
0.142776
0.169386
0.159933
-0.397356
0.237423
-0.461758
0.198538
0.26322
0.0105721
0.322038
0.321205
-0.0653415
-0.255863
-0.180234
-0.239176
0.419411
0.457235
-0.309299
0.32399
0.103941
-0.00653475
-0.0974066
-0.296991
-0.221778
0.201994
-0.53404
-0.595942
0.298042
0.2979
0.108486
0.0997325
-0.294318
-0.13616
0.430478
0.325654
0.204644
0.443224
-0.301573
-0.141652
-0.0872298
0.468127
-0.151098
0.435724
-0.284626
-0.0244462
-0.105416
0.129862
0.00903226
0.105329
-0.114361
-0.162898
0.217249
0.400297
-0.273839
-0.126459
-0.485351
0.193973
0.291378
-0.185414
0.151985
0.0334285
0.311703
0.131521
-0.225644
-0.461174
0.198332
0.262842
0.331352
-0.501355
0.170004
0.21171
0.102735
0.0467805
-0.165282
0.453383
-0.311064
-0.142319
0.329845
-0.148923
-0.180922
0.0700181
-0.271163
0.201145
0.458295
-0.155947
-0.0112994
-0.142288
0.153588
0.00973212
0.309974
0.0610881
-0.288601
0.227513
-0.31731
0.126788
0.0593117
-0.225613
0.166301
-0.149935
0.481287
-0.0163862
-0.184668
0.201054
-0.193057
0.307881
-0.114825
-0.013513
0.181928
-0.168415
-0.129523
-0.339479
0.170112
0.243525
-0.493399
0.461518
-0.143802
0.190652
-0.0994837
-0.0911686
-0.184334
-0.0930292
0.277363
-0.166996
0.462872
-0.295876
-0.264671
-0.220679
-0.471099
0.27633
0.498543
-0.152805
-0.156883
0.145584
0.124549
0.205296
-0.293191
0.182123
-0.0464548
-0.135668
-0.0107073
-0.197497
0.0600304
0.137467
-0.126782
-0.331479
0.137494
0.193985
0.26271
-0.192692
-0.309739
-0.117216
0.426956
-0.144785
0.189675
-0.0448895
-0.131619
0.140651
0.072397
0.118255
0.49392
-0.364512
-0.129408
-0.100072
0.067921
0.0321508
-0.0429243
-0.234487
0.277411
0.237656
-0.363801
0.126145
-0.158904
-0.00265662
0.161561
0.19389
-0.134578
-0.341889
0.298964
0.182888
0.258366
-0.482225
0.229639
0.252586
0.112103
-0.133774
0.0216717
-0.0324827
-0.0675892
-0.0624294
0.0672144
-0.004785
0.348548
0.145371
-0.210075
0.248304
-0.158853
-0.0894509
-0.444862
0.196811
0.248051
0.159074
0.313928
-0.473002
0.189347
-0.297162
0.125915
0.210174
-0.354459
0.144285
-0.111876
0.371149
0.108397
0.246219
-0.37231
0.126091
-0.494248
0.344534
0.149714
-0.064152
0.334766
-0.330865
-0.121239
0.452104
-0.324458
0.152873
-0.333257
0.22802
0.105237
0.0391578
-0.114431
0.0752737
0.174659
-0.243583
0.0689236
-0.144329
-0.136839
0.508655
-0.160107
0.171566
0.139197
-0.310763
0.118562
-0.463798
0.355021
-0.144847
-0.256431
-0.164091
0.420522
-0.481341
0.133029
-0.46878
0.215032
0.253748
0.422968
0.0193721
-0.44234
-0.150014
0.496903
-0.346889
0.310504
-0.197926
-0.112578
-0.468606
0.320641
0.147965
0.0779371
0.0171611
-0.0950982
0.0994204
-0.355851
-0.464431
0.220094
0.244337
-0.186794
0.454529
-0.267735
0.287141
-0.105213
-0.0268896
0.391439
-0.36455
0.150643
0.136498
0.31716
-0.491264
0.174104
0.383705
0.0392631
-0.120065
0.303475
-0.0687863
0.0310553
-0.537584
0.242892
0.294692
0.520023
-0.202864
-0.32074
0.472949
-0.152209
-0.260361
-0.180868
0.441229
-0.320744
-0.161481
0.355675
0.138203
-0.493878
-0.407881
0.175627
0.232254
-0.281505
-0.256079
0.0249942
0.237716
-0.213602
-0.142603
0.356204
0.226249
-0.146771
0.0213416
0.0769079
0.157372
-0.468682
0.31131
-0.248984
-0.346958
0.0331728
-0.177958
0.354385
0.119091
-0.473476
0.0981961
-0.358557
0.391809
-0.0716783
-0.320131
-0.203769
0.316035
-0.112266
0.498512
-0.307207
-0.191305
-0.183831
-0.139221
0.424761
0.0214345
-0.446196
0.259083
-0.394507
0.135424
0.405664
0.0497904
-0.130684
-0.0945476
0.225232
-0.296136
0.0577475
-0.205479
0.147732
-0.466645
0.311173
-0.234792
-0.0993456
0.311056
-0.455013
0.313604
0.141409
0.170771
-0.0912044
-0.0795666
-0.070272
0.060153
0.0101189
0.555317
-0.312426
0.49489
-0.350566
-0.144324
-0.00894906
0.11289
-0.441762
0.16653
0.275232
-0.405479
0.0746138
-0.323302
-0.156041
-0.0242082
-0.105835
0.130043
0.416715
-0.25152
0.22722
-0.202226
-0.268779
0.333943
-0.141549
0.327734
-0.186185
-0.295111
-0.149751
-0.269842
-0.104829
0.374671
0.239658
-0.0649989
0.162334
-0.147836
-0.0144977
-0.0996412
0.502703
0.0343691
-0.0378435
0.00347441
-0.105836
-0.19341
0.297749
0.155635
0.0731966
0.1305
0.337129
-0.458369
0.46204
-0.363844
-0.131595
0.433658
-0.302062
0.269703
-0.12072
-0.0256699
0.362799
-0.0154006
-0.107689
0.153327
0.228873
-0.382199
-0.00695436
-0.123241
0.130195
0.115235
0.213814
-0.329049
-0.0626879
-0.303177
0.365865
-0.112371
-0.148308
-0.131672
-0.309714
0.451129
-0.141415
-0.417994
0.337423
0.29114
-0.442238
0.453648
-0.155899
-0.123692
0.0819495
0.0888215
-0.408725
0.346037
0.126145
-0.279381
0.153236
-0.286127
0.141797
0.168875
-0.201044
0.0321694
-0.0129923
-0.131387
0.14438
0.207915
0.102589
0.0566777
-0.366417
-0.123641
-0.0150707
0.138712
0.504727
-0.288871
-0.215856
-0.343674
0.482761
-0.139087
0.315542
-0.502336
-0.412398
-0.010725
-0.059547
0.486746
-0.132361
-0.0132383
0.387972
-0.374733
-0.379276
0.388487
-0.00921108
-0.0589188
0.0980765
0.356789
0.0350194
-0.492384
0.342455
0.14993
0.0916627
0.370378
-0.174382
0.262766
0.00840485
-0.271171
-0.0851763
0.00371749
0.103129
0.0425207
0.0803053
-0.273958
0.374231
0.0505299
-0.148623
0.135631
-0.0871451
0.107936
-0.0207906
0.270923
-0.271074
0.000150824
-0.356114
0.510362
-0.154248
-0.133698
0.189657
-0.0559592
-0.0566268
0.435411
0.130632
-0.189964
0.15942
0.0305431
-0.136748
0.275518
-0.13877
-0.217807
0.0871231
-0.14076
-0.123354
-0.133116
-0.157722
0.283675
-0.217692
-0.119702
-0.0199594
0.0978965
0.277933
-0.149534
0.0179375
-0.144714
0.126777
0.321106
-0.145059
-0.176047
-0.329412
0.492888
-0.163476
-0.0667099
0.224266
-0.157556
0.180949
-0.123837
0.028952
0.0948851
0.0626205
-0.00246747
0.144541
0.125162
-0.166886
0.30652
-0.0975745
0.2883
-0.190726
0.12318
0.454118
-0.307356
-0.121192
-0.210286
0.447698
-0.288367
-0.159331
0.489343
-0.33768
-0.151662
0.42906
-0.217934
-0.211126
0.00406883
-0.188737
-0.320086
0.304619
0.14308
0.0264797
-0.0996468
0.0731671
-0.0183974
-0.164867
-0.144894
0.139009
-0.26387
0.318706
-0.331944
-0.135483
0.2809
0.360514
-0.447744
0.0954885
-0.116588
0.0210996
0.388603
-0.150947
-0.248694
0.113389
0.135305
-0.201514
0.296769
-0.0952549
0.166285
-0.257717
0.0914321
0.0956805
-0.229752
0.134072
0.0675879
-0.00983982
-0.0577481
0.233175
-0.151279
-0.0818963
-0.307849
-0.096222
0.404071
-0.341915
0.426474
-0.0845594
-0.327421
0.374686
-0.167718
0.0400427
-0.00567363
-0.0521389
-0.095872
0.148011
-0.133045
0.25919
0.00124631
0.0663416
0.161324
-0.472388
-0.127281
0.11188
0.199928
0.0312041
0.338136
-0.514293
0.176158
0.105834
0.172099
-0.259821
0.193111
0.219722
-0.344942
0.12522
0.317123
0.137239
-0.454362
0.210426
0.531388
-0.193253
0.16858
0.248408
-0.416988
0.0968405
-0.315872
0.338436
-0.118715
-0.129578
-0.113133
-0.158837
-0.238519
-0.236175
0.357385
-0.12121
-0.209364
0.288272
-0.0346927
0.0702003
-0.00757977
0.18686
-0.195844
0.00898455
0.0848562
-0.301473
0.216617
0.16019
-0.241391
0.313688
-0.132304
-0.267508
-0.177177
-0.446742
0.176934
0.269808
0.308541
-0.223685
-0.218029
-0.0893802
0.30741
0.122177
-0.315234
-0.399269
0.240432
0.251149
-0.315301
0.445587
-0.287336
-0.158251
-0.0227142
0.209574
-0.240547
0.326352
-0.0858045
0.13205
-0.0352457
-0.0968043
-0.0676117
0.0889533
-0.216927
-0.229814
0.107586
0.145454
0.206324
-0.16887
0.268898
0.160162
-0.0634044
0.0323893
0.0310151
0.163196
0.335315
0.0969107
-0.220174
0.123263
0.143013
0.0901617
0.388958
0.0914236
0.172466
0.141222
-0.112629
0.140813
0.0215209
-0.0630753
0.433441
-0.529295
0.218593
0.310702
-0.134502
0.156287
-0.0217848
-0.162709
0.11057
0.109375
0.022675
0.163915
0.254443
-0.418358
-0.101562
-0.0241383
0.307886
0.137701
0.110774
-0.0152857
-0.44964
0.126338
-0.180941
0.39599
-0.215049
-0.12522
0.0389646
0.0862554
-0.458464
0.326684
0.13178
-0.201299
0.372125
-0.160468
-0.308401
0.109495
-0.251609
0.142115
0.165512
-0.479642
0.31413
0.393166
-0.146947
-0.0170034
-0.045426
-0.0480818
0.166959
-0.118877
0.53098
-0.268153
0.341707
0.154878
-0.496585
-0.136309
-0.312258
0.128528
0.18373
-0.184164
0.136082
0.0389264
-0.0516027
0.0126763
0.151099
-0.449336
0.298237
0.210732
0.344586
-0.185476
-0.124004
0.30948
0.11492
0.407927
0.222402
-0.0908414
-0.131561
0.46238
-0.101867
0.445728
-0.288355
-0.0795616
-0.126895
0.206456
0.438428
-0.29312
-0.145308
0.150996
-0.00924709
-0.141749
0.133378
-0.364367
0.230989
-0.327681
-0.241664
-0.00869124
0.160646
-0.151954
-0.0875345
-0.0759927
0.102472
-0.113326
0.249326
-0.136001
0.176206
-0.308309
0.132102
0.150652
-0.394544
0.243892
0.435998
-0.332756
-0.191995
-0.119978
0.295552
-0.0779599
-0.217592
0.355206
-0.486801
-0.229528
0.0783245
0.151203
-0.083711
-0.117196
0.200907
0.189794
-0.370735
-0.210299
0.187452
0.0228475
-0.0414241
-0.187535
0.250197
-0.0626618
-0.110333
0.0317907
0.078542
-0.525858
0.182184
0.172444
-0.233016
-0.535578
0.24137
0.294208
0.402414
-0.42979
0.0273759
-0.222907
0.356285
-6.79093e-05
0.130324
-0.130257
0.0904707
-0.0754571
-0.0150136
0.300584
0.0925827
0.299854
-0.451478
0.151624
0.255764
0.136499
0.393215
0.439533
-0.312232
0.13797
-0.0258676
-0.085777
-0.214012
0.299789
0.0968578
0.158199
-0.255057
-0.154154
-0.075374
0.206223
-0.105903
0.43349
-0.297204
-0.136286
-0.136007
0.0123664
0.0508803
-0.0345266
-0.0163537
-0.13424
0.451363
-0.306415
0.450651
-0.144236
0.337401
-0.471641
-0.104672
0.19189
-0.0798186
0.173649
-0.141108
-0.313227
0.436533
-0.123306
-0.123678
-0.112871
0.236549
0.411516
-0.110933
0.160817
0.30607
0.135725
-0.120315
-0.0154097
0.309186
-0.19395
-0.0255141
-0.174199
-0.431267
0.0519913
0.103727
0.194066
-0.297793
-0.0865982
0.0868045
-0.000206388
-0.0715437
0.427218
0.115989
-0.239667
-0.382167
0.127494
-0.207056
-0.20338
0.362853
-0.159473
-0.364243
0.277226
0.0870168
-0.158889
0.209485
-0.0505959
0.249054
-0.13956
-0.504356
0.204137
0.300219
0.496426
-0.354304
-0.142123
-0.30669
0.161635
0.145055
-0.125286
0.0530288
-0.0769222
-0.128557
-0.0734706
0.408154
-0.334684
0.132694
-0.19197
-0.21104
0.318981
0.0380978
-0.357079
0.486902
-0.149501
-0.0144059
-0.0821763
-0.0858179
-0.0643236
0.150141
-0.494141
0.195392
0.298749
0.0280731
0.0916829
0.429086
-0.146777
-0.282309
-0.0665027
0.500161
-0.0743987
-0.0508212
-0.256336
0.104628
0.151708
-0.0505461
-0.150498
-0.21756
0.140638
-0.0832731
-0.28097
0.0455912
-0.131409
0.279719
0.149367
0.373338
-0.523273
0.328441
-0.355331
-0.467821
0.154594
0.247406
-0.131417
0.147203
0.0672312
0.172427
0.457853
-0.00622745
-0.451625
-0.0283627
-0.0350418
-0.259995
0.3842
-0.124205
0.335834
0.151068
0.265218
-0.255486
-0.222208
-0.0571731
0.141419
-0.13822
0.367652
-0.523597
0.155944
0.0844078
-0.112019
0.0276116
0.254135
0.0779217
-0.332057
0.375626
0.113865
-0.489491
-0.327983
0.49415
-0.166167
0.223409
0.42426
-0.155361
0.0243871
-0.0990773
0.0746903
-0.302115
0.165143
-0.0927456
-0.21807
-0.190607
-0.105123
-0.258678
0.147474
-0.280492
-0.460109
0.335338
0.124771
0.139402
0.296322
-0.29721
-0.020708
0.0224992
0.181068
0.139333
-0.506408
0.0199532
0.268319
0.0263296
0.0245507
-0.379712
0.000754928
0.378957
-0.299673
-0.150528
0.450201
0.510404
-0.211634
-0.29877
-0.187986
-0.289953
0.037552
0.113444
-0.10066
0.503074
-0.149573
0.123121
-0.235992
0.478555
-0.142721
-0.434133
0.0544206
0.175137
-0.0106605
-0.164476
0.165387
0.268974
-0.434361
-0.0125177
0.155115
-0.142597
0.324998
-0.314426
0.288141
0.136118
0.505681
-0.187369
-0.318312
0.0940265
0.0229722
-0.116999
0.210492
-0.247961
0.411877
0.0326707
0.140154
-0.172825
-0.157617
0.457471
0.201271
0.107899
-0.309169
-0.351786
0.078436
0.27335
-0.162066
-0.331351
-0.428445
0.301625
0.178882
-0.263397
0.35506
0.43009
0.0320898
-0.462179
0.263131
0.289212
0.292843
0.170543
-0.463386
0.140556
-0.319149
0.178593
-0.175218
0.162701
0.115098
-0.0210719
0.13548
0.142428
0.106626
0.109908
-0.301441
0.191533
-0.293036
0.195461
0.14468
-0.415389
-0.431775
0.280383
0.119914
-0.584432
0.256773
0.327659
0.442829
-0.303253
-0.139575
-0.297539
-0.223545
-0.12617
0.265179
-0.215769
0.331233
-0.115464
0.474529
-0.334153
-0.140375
0.07781
-0.0695367
0.23347
0.0169781
0.149981
-0.309719
-0.154896
0.00589523
-0.0930403
0.502486
-0.321302
0.341407
0.133122
-0.0634512
0.388449
0.124237
0.495008
-0.153601
0.47387
-0.338169
-0.135701
-0.140464
0.117255
0.234879
0.290773
-0.234391
0.328495
-0.0941042
-0.142545
0.39668
-0.323834
0.101972
-0.363975
0.262003
-0.143837
0.176507
-0.376189
0.201814
0.174374
0.30172
0.134812
0.0485359
0.179039
-0.227575
0.124122
0.380605
-0.106067
0.0622729
-0.174329
-0.339965
-0.0661544
-0.095638
0.161792
0.198224
0.0973285
-0.132152
-0.30961
0.0934516
-0.333999
-0.382937
0.26822
0.114716
-0.0743603
0.0645205
-0.139714
-0.338387
0.195555
0.335834
-0.169156
0.257465
-0.0681676
-0.189298
-0.282691
0.373724
-0.0910328
-0.453285
0.329356
-0.516951
0.359278
0.157673
-0.391879
-0.00963023
0.154525
0.334818
0.0873481
-0.153503
0.281997
-0.0762922
0.0934533
0.283715
0.0224182
0.373577
-0.395995
0.274633
-0.348103
0.361873
-0.511431
0.149558
0.436474
-0.117493
-0.113681
-0.036269
0.119038
-0.0827695
-0.133076
-0.239233
-0.149935
-0.0183018
0.168237
0.0122477
0.217801
-0.230049
-0.559199
0.220909
0.33829
0.00808981
-0.450565
0.128843
-0.383918
0.255075
0.120255
-0.409193
0.288938
0.2272
-0.0164013
-0.210799
0.0924113
0.0727313
-0.427488
-0.21107
0.233545
-0.221297
-0.210758
-0.15054
0.361298
-0.134224
-0.248617
0.0490169
-0.0184891
-0.131446
0.104316
-0.208988
-0.100335
0.11742
-0.0170846
0.0450671
0.0347833
0.269901
-0.115214
-0.154687
0.318413
-0.472454
-0.32432
0.0985396
-0.271376
0.172836
0.0672632
-0.36367
0.296407
0.024142
-0.363445
-0.113722
-0.0204805
0.134203
0.115106
-0.0306982
-0.473789
0.173966
0.299823
0.149135
0.388856
-0.129773
0.393479
-0.273224
-0.0613457
-0.0130146
-0.437426
0.131011
-0.297598
0.149292
-0.486972
-0.0920192
0.419527
-0.327507
-0.249814
-0.303616
-0.165164
0.284485
-0.0714418
0.0866275
-0.0151858
-0.355125
0.513526
-0.158401
-0.297626
-0.291989
-0.1818
0.484437
-0.326323
-0.158114
-0.263453
-0.117366
0.318637
-0.275194
0.0736803
0.179082
0.305356
-0.137036
-0.321428
0.145887
-0.474593
0.324579
-0.0713681
-0.195763
0.382911
0.00373787
-0.386648
-0.452676
0.28568
-0.104772
-0.159091
0.263862
-0.0404819
0.122431
0.338529
-0.475305
0.136777
0.0941687
-0.319724
0.477892
-0.158167
-0.246443
-0.215294
0.44932
-0.15793
-0.29139
-0.11659
0.463667
0.155451
0.11445
-0.126893
0.432468
0.116785
-0.313954
0.197169
0.123929
-0.36204
0.238111
0.154198
0.228878
0.168067
0.0893982
0.149404
0.359252
0.4319
-0.426853
-0.00504613
0.444853
0.0336213
-0.478474
0.0945253
-0.312555
-0.112054
-0.0854432
-0.404783
0.26178
0.143003
-0.00485779
-0.142978
-0.447115
0.17683
0.193436
0.323413
-0.141875
-0.0565553
-0.205223
0.261779
0.391879
-0.223299
-0.105106
0.449087
0.0135814
-0.0850232
-0.553757
0.232343
0.321415
-0.360135
0.459435
-0.0992997
-0.273
0.134535
0.138465
0.0872085
-0.303582
0.216373
0.257778
0.178696
-0.128459
0.142584
0.246019
-0.139304
0.0142329
0.125071
-0.258583
0.202028
0.400023
-0.107181
-0.309671
-0.244087
-0.364564
0.161184
0.297093
-0.0137356
-0.283357
-0.3021
0.278081
-0.35382
0.483392
-0.332205
-0.151187
0.314861
-0.198076
0.222986
-0.0514198
0.0179501
0.122129
-0.140079
0.380862
-0.0384364
-0.342426
-0.328343
0.4762
-0.147857
-0.276989
-0.135661
0.412651
-0.309112
-0.152062
-0.134266
-0.28762
0.421886
-0.469617
-0.0533734
-0.0875428
0.140916
-0.101699
-0.019233
0.120932
0.373399
-0.306136
-0.283441
-0.210807
-0.134651
0.507989
0.499427
-0.343421
-0.156006
-0.320268
-0.139841
0.0874369
-0.418984
-0.186411
-0.291146
-0.306705
0.481334
-0.174629
0.283601
0.160492
0.345189
0.124744
0.317024
-0.441768
0.157933
-0.391969
0.234036
-0.0166987
0.157511
-0.253574
0.471011
-0.167095
-0.303916
0.317679
-0.338011
0.0203318
-0.103675
0.221369
-0.117693
0.443603
-0.356142
0.145383
-0.314448
0.439192
-0.498111
0.350889
0.147222
-0.025209
0.403005
-0.377796
-0.21047
0.074682
0.135788
-0.101369
0.0814096
0.385807
-0.227874
0.00779786
0.129479
0.150834
-0.168329
0.0174946
0.0188394
-0.0810596
0.0622201
0.00913541
-0.12663
0.117494
-0.451291
0.290103
0.161188
0.29404
-0.206831
-0.444032
0.281215
0.162816
-0.332836
0.402132
-0.0692967
-0.308924
0.45637
-0.147446
0.33138
-0.412358
0.0809778
-0.358841
0.111231
-0.424621
0.025173
0.415397
-0.282332
-0.133065
0.0723326
-0.112815
-0.256681
-0.0896424
-0.149837
0.314039
-0.164202
0.225638
-0.33842
0.112782
-0.316724
-0.17454
0.221676
-0.034224
-0.124333
-0.0847676
0.209101
0.445478
0.0351834
-0.480662
0.158639
-0.472376
0.0998831
-0.0754961
-0.208548
0.124837
0.227188
-0.159957
0.409694
-0.0408395
-0.368854
0.0868672
0.0394042
-0.126271
-0.340023
0.45802
-0.131336
-0.187541
0.274481
-0.08694
0.271053
-0.183642
-0.087411
0.128861
-0.114338
0.15189
-0.489911
0.301925
-0.305745
0.207249
0.0984956
0.0914474
0.0402088
-0.227744
0.00742291
-0.0672867
0.174403
0.206459
0.432216
-0.090509
0.122756
-0.43247
-0.074303
-0.0137947
0.0880978
0.324861
-0.259116
0.127544
0.214761
0.200636
-0.0966734
-0.113796
-0.299782
0.135761
0.16402
0.173824
0.0972288
-0.31414
0.318621
0.405568
-0.374838
-0.0307303
0.244313
-0.0762458
0.106334
0.151718
-0.258052
-0.559264
0.231416
0.327848
0.373653
0.0603058
0.327593
0.137553
-0.465147
-0.229137
-0.330127
0.439203
0.146763
0.169272
-0.0885149
-0.307416
0.481947
-0.174531
0.165852
0.0784611
0.128765
-0.17522
0.102323
0.176323
-0.278646
0.281827
-0.373846
0.0236078
-0.111151
0.386457
-0.128679
0.115598
-0.303563
0.187965
0.0951648
-0.445731
-0.171155
-0.0829465
0.153458
-0.303295
-0.150502
0.185108
-0.308627
0.123519
0.0248292
-0.0949791
0.0701499
0.0311393
0.374429
-0.129933
0.314251
-0.129143
0.155617
0.0715704
-0.251766
0.0642247
-0.255557
-0.173835
-0.141199
0.205014
-0.0638148
0.135936
0.315193
0.430135
-0.125174
0.191679
-0.0665052
-0.311169
-0.126257
-0.472328
0.375444
0.0968843
0.412555
-0.0948762
-0.151971
0.142724
0.048797
-0.00987062
-0.302601
-0.177659
0.48026
0.123799
0.0367634
-0.160563
-0.419298
0.0198536
0.399445
-0.29927
0.292544
-0.1465
-0.345885
0.450988
-0.117957
0.224291
0.193293
0.32673
-0.138147
-0.129415
0.250616
0.385544
-0.24296
0.0219975
-0.102212
0.0802147
0.0158446
0.205831
0.24006
-0.0737753
-0.532745
0.345377
0.547047
-0.315631
-0.0341202
-0.0778992
0.0529799
0.0374908
0.0707237
-0.0772584
0.481788
0.287721
0.150707
-0.123581
-0.189118
0.312699
-0.0820826
0.0711049
0.399843
0.374049
0.0560408
0.115819
-0.206055
0.11928
0.188601
-0.44883
0.31267
-0.0958265
0.247544
0.249386
-0.328685
0.0792985
0.00680376
0.0332389
-0.431039
0.315826
0.018042
-0.127542
0.1095
0.138176
0.0764978
0.0768443
-0.233627
0.156783
0.516944
-0.473303
0.31775
0.155553
0.0979832
0.190317
0.192897
-0.316478
-0.152643
0.2495
-0.343131
0.106956
-0.0636561
0.0564285
-0.485801
0.183774
0.0949787
-0.278752
-0.142389
0.121317
-0.306793
0.0164839
0.210716
-0.0938394
-0.0581317
-0.00572951
-0.0685735
-0.27918
0.140592
0.211461
-0.352053
0.194314
-0.045147
0.034545
0.010602
0.108398
0.303118
0.172804
-0.326971
-0.137027
0.463998
-0.15099
0.0366524
0.0893245
-0.070485
-0.164207
-0.308163
-0.102554
-0.225062
-0.0806832
0.434573
-0.103192
0.159431
-0.241837
0.0824065
-0.352002
-0.0170725
0.369074
0.0369399
-0.291223
0.254283
-0.509346
0.303548
0.205797
-0.0832552
0.0586971
0.0245582
-0.105661
0.289435
-0.306808
0.487422
-0.180615
-0.523759
0.349431
-0.243692
0.410222
-0.455193
0.147795
0.307398
0.199357
-0.535812
0.336455
0.0132356
-0.197569
-0.526409
0.297272
0.350628
-0.451287
-0.498859
0.205915
0.292944
0.195448
0.119009
-0.314458
-0.173255
-0.121277
0.294532
0.279753
-0.309989
-0.165495
0.156314
-0.0325149
0.0933431
-0.275003
0.440515
-0.317168
-0.134803
0.451972
0.128386
-0.267606
-0.235132
0.425418
-0.244486
-0.180932
-0.18672
0.284703
0.303414
-0.266474
-0.403765
-0.112809
-0.362426
-0.111234
-0.5036
0.169638
0.333962
-0.271104
-0.126788
0.397892
0.245609
-0.394548
0.148939
0.297297
-0.177235
-0.321623
-0.418413
0.111682
0.306731
0.452274
-0.312873
-0.1162
-0.287308
0.403507
-0.058426
0.13063
0.0256571
0.0952091
0.368278
-0.161282
0.125195
-0.243152
0.445779
-0.316745
-0.129034
-0.138981
0.370304
-0.231323
0.226932
0.320115
0.144708
0.338684
0.352043
0.339255
-0.24163
-0.0976257
-0.334194
-0.131506
-0.308386
0.0131896
0.339552
-0.352742
-0.343582
0.498756
-0.155174
-0.509808
0.166226
0.254631
-0.120096
-0.109284
-0.0681099
0.114283
0.512449
-0.160186
-0.352264
-0.318085
0.241601
0.0764846
-0.222174
0.125501
0.332651
-0.368945
0.0362944
-0.277346
-0.300537
0.440901
-0.140364
0.360474
-0.0442435
0.0547083
0.132556
-0.187264
-0.114105
-0.205494
-0.0257067
0.231201
0.3792
0.0526991
-0.0634266
-0.0231716
-0.312758
0.185351
0.127407
0.17126
0.297494
-0.0862124
-0.211281
0.34225
-0.482483
0.140232
-0.133293
0.229241
-0.0959477
-0.318339
0.489109
-0.170771
0.0149661
0.095808
0.0988695
-0.202545
0.349709
-0.496082
0.146372
-0.238616
-0.0794691
0.373931
0.0357621
0.231023
-0.180184
-0.050839
-0.0195829
-0.0948485
0.131789
0.259003
-0.390792
-0.45364
0.14247
0.117824
-0.256389
0.138564
-0.229777
-0.345699
0.246455
-0.0661743
-0.295615
0.36179
0.383961
-0.15761
-0.226351
-0.246077
0.0679669
0.17811
-0.136584
0.38597
0.122452
-0.46062
0.317556
0.128222
0.340089
-0.326899
0.484543
-0.335207
-0.149336
0.161891
-0.266663
0.0154237
-0.121543
0.106119
-0.471993
0.29097
0.181023
0.00179548
0.399652
0.12721
0.476345
-0.137816
-0.387304
0.300819
-0.507357
0.354357
0.153
-0.11847
0.21415
-0.388924
0.246379
0.0336587
0.197364
0.33029
0.0486167
0.246417
-0.295034
0.0260331
0.0994523
-0.125485
0.145799
-0.249996
0.104198
0.252262
-0.48921
0.340227
0.148983
-0.451866
0.162272
0.289594
-0.259447
0.100357
-0.0807624
0.120167
-0.183127
-0.218341
-0.0998804
0.318221
0.153342
0.232202
0.473597
-0.180503
-0.293094
-0.359705
0.121047
0.238658
0.266212
0.14595
-0.412162
0.171038
-0.401578
0.23054
0.0784818
0.215558
0.106595
0.148036
-0.0491248
0.223354
-0.174229
0.405908
-0.130444
-0.275463
0.290634
-0.242017
-0.146738
-0.32559
-0.0557235
0.406351
-0.333116
-0.230916
0.412411
-0.111206
-0.331536
0.182613
-0.0436623
-0.235864
0.129061
0.267455
-0.396516
-0.345523
-0.123619
0.469142
0.059457
-0.0491519
-0.0103051
0.0212823
0.114443
-0.31092
0.147128
0.135231
-0.480754
0.32823
0.0776775
-0.30396
-0.220731
0.163489
-0.325803
-0.140673
0.466476
0.112523
-0.0264447
-0.0860786
-0.465831
0.159024
-0.207798
-0.286343
-0.156204
-0.280109
0.436313
-0.124903
-0.229299
0.0960057
-0.185843
-0.22797
0.0671381
0.160832
-0.30865
-0.452707
0.124364
0.357671
0.0444614
-0.0962695
0.0286578
-0.404946
-0.0928838
0.267202
0.109861
-0.377063
-0.503397
0.20919
0.294206
0.145691
0.153137
0.242427
-0.395564
0.20062
-0.317986
0.133799
0.275865
-0.409664
-0.32506
0.207391
0.117669
0.190857
0.153476
0.304819
0.229367
-0.100982
-0.202497
-0.333315
0.236719
-0.362404
0.125685
-0.109239
0.204098
0.317598
-0.521696
0.211736
0.141601
-0.353337
0.0555059
0.116173
-0.171679
-0.170871
-0.29695
0.36987
-0.240809
0.0309992
-0.25441
0.386199
-0.16643
0.135827
0.0306023
0.201022
-0.0925364
0.383235
-0.172325
-0.210911
0.231274
0.151961
0.287638
-0.111432
-0.0219245
-0.0940163
0.115941
0.0894367
0.0230866
-0.0635744
0.396225
-0.204189
-0.123084
0.0213848
-0.32272
0.10695
0.159456
-0.140794
-0.480514
0.169545
0.31097
0.460997
-0.152389
-0.308608
0.128711
-0.462864
0.195065
-0.492983
0.297918
0.160837
-0.134804
-0.164501
-0.287365
-0.400439
-0.1138
0.51424
-0.304328
-0.11475