/*--------------------------------*- C++ -*----------------------------------*\
| =========                 |                                                 |
| \\      /  F ield         | OpenFOAM: The Open Source CFD Toolbox           |
|  \\    /   O peration     | Version:  v2012                                 |
|   \\  /    A nd           | Website:  www.openfoam.com                      |
|    \\/     M anipulation  |                                                 |
\*---------------------------------------------------------------------------*/
FoamFile
{
    version     2.0;
    format      ascii;
    class       volVectorField;
    location    "100";
    object      ddtCorrDdt0(U);
}
// * * * * * * * * * * * * * * * * * * * * * * * * * * * * * * * * * * * * * //

dimensions      [0 1 -2 0 0 0 0];


internalField   nonuniform List<vector> 
18540
(
(-0.0203458 0.0574862 0)
(2.3479e-05 0.000150532 -8.63299e-21)
(-0.000214379 -0.000379848 1.45556e-20)
(-0.0267893 0.0272527 0)
(0.00113585 -0.00571513 -7.94588e-21)
(0.00292767 -0.00200756 1.31668e-20)
(0.00248416 -0.00150102 2.21213e-20)
(-0.0016524 -0.00563185 0)
(-0.0160904 -0.00126924 -2.677e-19)
(-0.00154515 0.00167872 -1.10525e-22)
(-0.00202276 -0.00571654 1.5835e-21)
(-0.000194678 0.000825317 -5.6482e-21)
(0.022318 0.0226077 -1.56217e-20)
(-0.000279394 0.000373372 6.49407e-21)
(-0.0169566 0.0554604 -1.13018e-22)
(-0.0232692 0.0375702 0)
(-0.0317344 0.104179 0)
(-0.00573451 0.0054815 0)
(0.0268722 8.38251e-05 0)
(0.000751456 0.0127799 2.15512e-20)
(0.0101883 0.000597443 -3.00746e-20)
(0.00854043 0.000528518 0)
(-0.000181189 0.000119524 -2.77179e-21)
(0.183547 0.0477569 0)
(-0.00527429 -0.0120515 0)
(0.000258331 0.00804356 0)
(0.0564144 -0.0277113 -1.95371e-20)
(-0.00895567 -0.00823624 1.5379e-20)
(0.00104794 0.00102444 -2.60208e-20)
(0.0669906 0.0397378 1.59144e-20)
(-3.27584e-05 0.000191853 1.00751e-20)
(-0.000247796 9.64865e-05 0)
(-0.0317862 0.00407782 -1.6957e-20)
(-0.0268049 0.051062 -8.77043e-21)
(-0.00180322 0.00428162 0)
(-0.0266822 0.025134 0)
(0.00615493 -0.0166598 5.91391e-20)
(-0.00016837 8.63585e-06 -7.07179e-21)
(0.000122415 -7.62336e-05 -1.0338e-20)
(-0.0318448 -0.249998 0)
(-6.43347e-05 0.000149689 -4.39237e-21)
(-0.000574861 0.000531255 -1.72734e-20)
(0.00645089 0.00230941 0)
(-0.0372569 0.00574449 1.43234e-21)
(-0.0105381 -0.00739614 -1.40654e-20)
(-0.00526205 -0.0167656 0)
(0.016001 0.0352914 -1.3554e-18)
(-0.00029383 -0.000245348 -8.62969e-21)
(-0.0135805 -0.0252872 -6.35908e-20)
(0.00122957 -0.00159232 -1.58604e-20)
(-0.000290596 0.000357992 5.30379e-21)
(0.0129047 0.0113573 0)
(-0.00712105 0.0102599 0)
(-3.64655e-05 0.000135504 0)
(-0.0120615 0.00478116 6.26345e-21)
(0.00432769 -0.00940731 0)
(0.021356 0.0206226 1.50463e-20)
(0.00221616 -0.00943325 -5.44663e-20)
(-0.0552058 -0.00659571 0)
(0.000329152 -0.000334287 0)
(-0.0191993 0.00424807 2.10116e-20)
(0.000185935 -0.00230207 0)
(0.000390918 0.0154179 2.5655e-20)
(-0.0305304 0.0236825 0)
(-0.0102237 0.0561398 3.44507e-20)
(-0.000380593 -0.000622055 1.53576e-20)
(-0.0890404 -0.0167824 -9.38656e-20)
(-0.00012218 4.32432e-05 -9.23566e-21)
(-0.0487741 -0.00745385 -2.12826e-20)
(0.000171118 -0.000214856 1.31802e-20)
(0.00604061 -0.0102539 0)
(-0.00247627 0.00779017 5.3473e-21)
(-0.0297619 0.0084228 0)
(0.00239858 -0.00963801 8.6286e-20)
(0.0017386 -0.0115374 2.15862e-20)
(-0.0544334 -0.000931668 2.57363e-20)
(-0.00515777 0.0439273 0)
(-0.000142783 2.34751e-05 -2.24095e-21)
(0.00394363 0.0115073 9.13136e-22)
(0.0157355 -0.0818668 6.65655e-21)
(-0.00471472 -0.00350552 3.59901e-21)
(-0.0900659 -0.00966204 0)
(-0.00017115 -1.62621e-05 0)
(-0.0417967 -0.0510475 2.54654e-21)
(-0.0216864 0.00474996 0)
(-0.0372662 0.00380131 6.87164e-22)
(-0.000588348 0.00136541 0)
(-0.000155916 0.00024287 0)
(0.00339806 -0.00781584 0)
(-0.0367417 -0.000882643 -7.06526e-22)
(-0.0085351 -0.097323 1.02703e-20)
(0.00674437 0.00419508 -1.03332e-19)
(-0.0278524 0.0265259 -2.31749e-20)
(9.32076e-05 -2.49537e-05 -3.7317e-22)
(-0.000572291 -0.00039578 4.20754e-22)
(-0.00143239 0.000169954 -1.39531e-20)
(-0.00508007 0.00139893 5.19084e-20)
(-0.001409 -0.00599044 8.96921e-20)
(-0.295907 0.0545974 4.76602e-20)
(-0.00800411 -0.000317401 -4.07054e-21)
(8.86248e-05 -0.000450151 9.47095e-21)
(-0.000122502 1.51477e-06 1.04696e-20)
(-0.0303629 -0.0565808 -7.20707e-20)
(-0.0178757 0.0413753 0)
(0.0327074 0.0105925 -4.26346e-21)
(-0.0320643 0.00509798 0)
(5.55631e-05 -0.000967528 2.24759e-20)
(0.00370898 0.000333948 1.57916e-19)
(-0.00110011 0.00765752 -2.49396e-20)
(-0.000938728 -0.0064448 0)
(-0.00907119 0.00563754 -9.22309e-21)
(0.13449 0.00222863 6.36945e-21)
(-0.000133958 1.8524e-05 0)
(-0.00234469 -0.0136944 -1.75691e-20)
(-0.023258 -0.0291165 -3.54088e-20)
(-0.0100858 -0.024395 1.3513e-20)
(-0.0079271 0.0184961 3.97901e-20)
(-0.000477877 -0.00193667 3.84694e-22)
(-0.00371673 -0.00104393 0)
(0.00485537 -0.00264377 1.21154e-20)
(-0.00268084 -0.00219331 -8.62445e-23)
(-0.0868346 -0.0145318 1.90534e-20)
(-0.0470724 -0.000295678 2.6631e-20)
(-0.0432966 -0.0364009 -1.43058e-20)
(-0.000225392 -0.000122542 -2.46247e-20)
(0.00100225 -0.00404695 2.67218e-20)
(0.00154626 -0.0115163 1.68919e-20)
(0.00613375 -0.0332603 -4.94781e-20)
(0.00560942 0.00211122 0)
(-0.0491957 0.00106044 -4.47383e-19)
(0.0484365 0.0323825 3.66453e-19)
(-0.00225103 0.0143639 7.83851e-21)
(0.00270774 -0.0200232 0)
(-0.029336 -0.00445434 -9.65775e-22)
(-0.000284112 -0.000201142 0)
(-8.519e-05 -4.86386e-05 -2.42029e-20)
(-0.00227019 0.000930616 -4.75767e-21)
(0.00243575 -0.0178924 0)
(-0.000115506 0.00187912 -1.50492e-21)
(-0.00017777 -0.000639161 -7.73076e-21)
(-0.00788913 0.0549929 1.23097e-20)
(-0.00596461 0.0130033 -2.45148e-20)
(-0.000595457 -0.00551732 -1.95304e-20)
(-0.00759816 -0.000289581 -3.8256e-21)
(-8.72757e-05 -0.000516184 1.61866e-20)
(-0.000129049 -0.000316376 3.37912e-20)
(0.0012989 -0.0129007 1.51396e-20)
(-0.0325206 -0.00536101 0)
(-0.00138109 -0.00597012 0)
(-0.0844603 -0.0135798 -2.14284e-20)
(-0.000189717 -5.21401e-05 0)
(-0.000406528 0.0111938 8.27314e-23)
(-0.000202577 -0.000477092 5.79811e-21)
(-0.0217808 -0.029496 -7.34325e-20)
(-0.0976921 -0.023494 0)
(-0.0109618 0.0231743 0)
(-0.0791494 -0.0137646 0)
(-9.79783e-05 -0.000535982 5.8407e-21)
(-0.000482271 0.000564863 2.05178e-20)
(0.00195752 0.000114177 -1.54075e-19)
(-0.0104001 -0.0238375 0)
(0.00432432 -0.0152677 -3.00044e-21)
(0.000222703 0.000102837 -6.93445e-21)
(-0.000297496 -0.00018168 0)
(0.0104471 -0.00890783 0)
(-0.000289031 0.000743411 4.67257e-21)
(-0.0245928 0.0143843 2.22829e-20)
(0.00359894 -0.0291473 3.16265e-20)
(-0.0185439 0.0557045 -6.65773e-21)
(-0.000210307 -0.00110151 0)
(-0.000171229 0.000276328 0)
(0.00240311 -0.00376159 0)
(-0.00330493 -0.000664881 0)
(-0.00230785 -0.0100323 -2.09974e-20)
(-0.000926576 -0.00417403 7.30438e-21)
(-0.0422852 -0.0351638 3.44871e-20)
(-0.00191361 0.000186763 0)
(-0.0599283 0.0152067 0)
(0.340123 0.368432 0)
(-0.0571662 0.0910082 3.51046e-19)
(-0.00273103 0.000950118 0)
(-0.00127752 -0.008435 -5.74444e-20)
(0.00164673 -0.0111364 -5.20538e-21)
(0.0073779 0.00835722 6.28867e-20)
(-0.00300511 0.00543627 -3.49445e-21)
(0.10397 0.00685445 0)
(-0.0010122 0.00131352 0)
(0.000399521 -0.00236912 -1.15394e-20)
(0.0274104 -0.00539707 5.93317e-20)
(-0.00306045 0.000480115 -6.08339e-20)
(0.00264383 -0.00498713 -1.29552e-20)
(-0.00356523 -0.00529873 -1.78225e-20)
(0.0229137 0.0284985 0)
(-0.000190698 -6.1291e-05 1.98257e-20)
(-0.0267745 -0.0973507 0)
(-0.000315757 -9.36155e-05 0)
(0.00349052 -0.0038988 -1.59772e-20)
(0.0173578 0.0385869 3.27196e-20)
(-0.0517958 -0.0585987 -1.9945e-20)
(0.00118264 0.00262121 1.13073e-20)
(-0.00451683 -0.0559107 -1.27334e-20)
(0.0207314 0.00399615 -2.49604e-18)
(-0.00789523 -0.0118206 1.22414e-20)
(0.00161034 0.00157287 7.98446e-21)
(-0.0416124 0.0108228 -1.6996e-21)
(0.118246 0.00553263 1.10034e-20)
(-5.88632e-05 0.00106512 2.29338e-21)
(-0.0288558 0.0233046 0)
(-0.0479025 -0.022638 -1.62282e-20)
(0.00222203 -0.00674533 6.07397e-21)
(-0.000179232 -5.63808e-05 0)
(-0.0187678 -0.00732963 -5.58693e-20)
(-0.0603446 0.013626 2.81439e-22)
(-0.000209993 0.000441805 0)
(-0.0141039 0.0227865 0)
(-0.000875355 -2.43223e-05 0)
(-0.0422855 -0.0369643 1.48425e-20)
(0.00518182 -0.0537179 0)
(0.226892 0.0397154 -1.27132e-19)
(-0.00983997 -0.0147908 -9.46183e-21)
(-0.0198716 -0.00620929 1.17621e-19)
(0.000700764 -0.016107 2.5237e-20)
(0.0324447 0.037831 0)
(-0.0128817 -0.00828395 1.05954e-19)
(-0.0523669 0.0364352 2.07152e-18)
(0.00711571 0.00190607 -1.31743e-21)
(-0.00160416 -0.0192475 0)
(0.00168097 -0.00705524 -2.23614e-20)
(-0.0480558 -0.00771871 -2.51434e-20)
(-0.00200329 -0.0204621 0)
(-0.00264241 0.00140691 -1.31282e-20)
(0.0169342 0.0342482 -4.40428e-20)
(-0.0327561 0.00910805 4.96273e-22)
(-0.00599816 0.00342783 -2.30407e-20)
(-8.21171e-06 0.000872611 0)
(0.000962587 -0.00118697 -1.75649e-20)
(-0.000202955 8.06327e-05 0)
(0.000282538 0.00781047 0)
(-0.00939587 -0.0220609 0)
(0.000854416 -0.0310575 -7.39471e-23)
(-0.00277631 0.00547417 0)
(-0.017713 -0.0499888 -1.30227e-18)
(-0.00835738 -0.0930307 -5.88759e-20)
(0.000452517 -0.020111 -3.52935e-20)
(-0.0416153 0.012293 2.8743e-21)
(-0.0324025 -0.0220338 5.02976e-20)
(-0.00010306 0.000253492 -1.03435e-20)
(-0.00017212 -0.0002894 0)
(-0.00268129 -0.00448646 0)
(-0.000847317 0.000726935 -7.70851e-21)
(0.00155927 0.0168564 -5.04557e-20)
(-0.0503915 -0.0210761 4.60216e-20)
(0.00833661 0.000258243 5.22906e-20)
(-0.00109303 0.00349064 -3.20615e-22)
(0.000962501 0.00550791 0)
(-0.0580985 -0.216117 -3.84819e-19)
(0.0148675 -0.00254789 0)
(-0.000803938 0.0184274 1.03563e-19)
(-0.000320355 0.000644626 -5.1518e-23)
(0.00797044 0.297006 0)
(0.0562657 -0.0189874 -2.43554e-19)
(-0.0529941 0.0243947 -9.06582e-21)
(-0.000276616 0.00181447 5.93457e-21)
(0.112908 -0.199079 -1.47417e-20)
(0.00689702 0.00625768 0)
(0.00383222 -0.00139924 2.37575e-20)
(-0.0371135 -0.0173222 -7.80999e-20)
(-0.03156 -0.0232812 0)
(-0.000165139 3.23598e-05 -6.42245e-21)
(-0.000197352 0.000407741 5.37017e-21)
(0.00480548 -0.000998029 5.87578e-20)
(0.103068 0.0097419 0)
(0.093248 -0.109754 2.32129e-20)
(-0.00318315 0.00193025 -3.1551e-20)
(-0.0126353 0.025507 -5.07836e-20)
(-0.0128274 0.053778 0)
(-0.000142119 -0.000490948 2.04863e-20)
(3.93765e-05 0.00616313 1.97762e-19)
(-0.00983871 -0.130158 5.79127e-20)
(-0.000391215 0.00100725 -2.67281e-20)
(-0.000226361 0.000452226 -9.00751e-21)
(-0.0187808 0.0543212 7.62731e-21)
(-0.00180608 0.000431286 -3.64697e-21)
(-0.000254599 0.000167312 7.68557e-21)
(-0.342497 -0.0220623 -2.62285e-19)
(0.000158073 -0.000103779 -2.99869e-20)
(0.115301 0.0411621 -4.78352e-19)
(-0.00461545 -0.00159684 1.6445e-20)
(-0.0367414 0.0232586 0)
(-0.0260511 -0.00232002 0)
(-0.0201709 -0.0289839 0)
(-0.00888641 -0.0332835 4.50425e-19)
(-0.0149901 0.0169826 3.97878e-20)
(-0.000162936 -9.98587e-06 0)
(-0.0773787 -0.0149229 8.30757e-20)
(0.00934811 -0.00348355 -1.07662e-20)
(0.0112763 0.023209 -3.38552e-20)
(-0.0058643 -0.0522441 2.61868e-20)
(-0.0761048 -0.0112486 -4.70485e-20)
(0.0153333 -0.00214942 0)
(-0.000569561 0.00149161 0)
(-0.062035 -0.00693294 0)
(-0.0426834 -0.124543 -2.75432e-20)
(-0.0053874 0.00261079 2.86073e-20)
(-0.0429018 -0.118168 1.50061e-20)
(-0.000364639 6.26949e-05 0)
(-0.0025344 0.0115814 0)
(-0.000194027 -4.55363e-05 -8.20857e-21)
(-0.0673667 -0.074383 9.54791e-20)
(-0.000166622 -0.000158618 0)
(-0.0237879 0.288369 -7.09734e-20)
(0.00026015 -0.00106139 0)
(-0.00929898 0.0525285 0)
(0.00184315 0.00396549 0)
(-0.0146954 -0.00940422 5.83074e-20)
(0.0230598 0.0604587 -9.99276e-20)
(-0.012796 0.0541194 -2.93855e-21)
(-6.03962e-05 0.000199296 3.48702e-21)
(0.0433605 0.0339423 0)
(0.00845039 0.000535558 -1.17644e-19)
(-0.0438801 0.00245533 -1.11238e-20)
(-0.0457675 0.130282 -1.25233e-19)
(-0.000901765 0.00161438 0)
(-0.0562636 -0.00503939 0)
(-0.0014376 -0.00240914 6.35456e-21)
(0.00054892 -0.000392976 9.35094e-21)
(0.00216745 -0.00191166 0)
(-0.0115921 -0.00810096 0)
(-0.000354865 -0.000328248 -1.33816e-20)
(-0.000244192 3.58526e-05 6.9898e-21)
(-0.000165775 -0.000315878 -1.74898e-20)
(-0.00437756 0.0177409 1.86019e-20)
(-0.0548246 0.0252068 -3.05826e-20)
(-0.00102228 0.0154535 -3.42939e-20)
(-0.00211722 0.0305602 -1.13228e-19)
(-0.0390109 0.141146 6.39094e-20)
(-0.000341934 -0.000966564 -2.09074e-20)
(-0.000103064 0.000367288 4.8335e-21)
(0.0587814 0.0124606 4.6027e-21)
(-0.00585498 0.00726028 0)
(-0.000382643 0.000830023 0)
(-0.00474612 -0.00131204 -2.31042e-20)
(0.000422031 -0.00223443 2.64153e-20)
(-0.0319878 -0.0252965 0)
(0.0200405 -0.00563691 4.39402e-20)
(-0.00501312 0.0310735 -3.39795e-20)
(-0.00052507 8.21458e-06 1.12552e-20)
(0.0272851 -0.00715752 -6.09492e-20)
(5.28913e-05 -0.00128607 -2.58329e-20)
(-0.00537203 0.465922 0)
(0.0726341 0.257316 5.87239e-20)
(-4.35418e-05 0.000259794 5.09132e-21)
(-0.0843548 -0.0148396 -1.41638e-19)
(-0.00162174 0.000531892 3.40676e-21)
(-0.000140455 -0.000342883 6.30756e-22)
(-0.0386842 -0.0377063 2.82551e-20)
(-5.44763e-05 0.00025874 -1.04558e-20)
(-0.000179186 -0.000498529 0)
(-0.00171515 -0.00102451 0)
(-0.00752402 0.278091 6.69174e-21)
(0.00392319 -0.0191651 3.61145e-20)
(-0.000298817 -0.000125372 -1.80109e-20)
(-0.000259788 3.8798e-05 -1.3274e-20)
(-0.00156771 -0.00845932 0)
(-0.0221531 -0.0281015 0)
(-0.00762356 -0.0601375 1.02538e-20)
(0.000291569 -0.000303072 -5.97209e-23)
(-0.00026101 0.000351219 5.03027e-21)
(-0.000256082 -0.0011687 -1.07175e-20)
(-0.000191495 -9.28017e-05 1.9982e-20)
(0.0137179 0.0307358 -5.40856e-22)
(-0.000175114 -0.000245872 -2.49244e-20)
(0.00610487 0.00103798 0)
(-0.00175944 -0.000165177 -2.3768e-20)
(-0.000121473 0.000326742 5.20142e-21)
(-0.0440629 -0.117651 0)
(-0.000166621 -0.000100551 0)
(-0.0522629 -0.122861 0)
(0.000953315 -0.000665855 2.89745e-21)
(0.0624329 0.324123 5.20017e-20)
(-0.0495766 0.0053745 -4.96299e-20)
(-0.000208966 -1.32358e-05 -1.66107e-20)
(-0.00283542 -0.0951338 -2.69772e-20)
(0.020997 0.0317456 2.56962e-20)
(-0.00426771 0.00283894 1.05109e-21)
(-0.000121785 -0.000322106 -1.90894e-20)
(-0.0132116 0.0247975 -1.17077e-20)
(0.0664576 0.039929 2.80492e-20)
(-6.28698e-05 5.24261e-05 2.18605e-20)
(-0.0750179 -0.0183434 -7.47952e-20)
(-0.0411947 -0.037225 -7.97167e-20)
(-0.000212047 -4.07076e-05 9.02498e-21)
(-0.000378529 -0.00277519 1.77923e-20)
(-0.0610058 -0.00777737 -6.61781e-20)
(0.0166683 0.0302126 -2.00738e-20)
(-0.000353714 0.000171211 -8.07687e-21)
(-0.01724 -0.0218721 0)
(-0.0312745 0.0236721 0)
(-5.19901e-05 3.64056e-05 -2.2661e-20)
(0.11732 -0.0993029 1.7238e-19)
(-0.00251099 0.0200018 0)
(-0.0285773 0.00885009 5.24182e-23)
(-0.000551983 -0.000750825 2.63418e-20)
(-2.9532e-05 0.00102099 7.78128e-21)
(-0.00312813 -0.00653452 5.89292e-21)
(-0.000178365 -0.000502995 5.25042e-21)
(-0.068572 -0.072121 1.76542e-22)
(-0.0458715 -0.00127109 0)
(-0.00100569 -0.000931282 0)
(0.00545707 -0.0223383 1.48838e-20)
(0.0854035 0.265652 -4.88946e-21)
(0.00841422 0.000318497 -1.05924e-19)
(0.00971488 0.000553762 -2.01268e-20)
(-0.000288095 -0.000141515 1.80337e-20)
(-0.00271592 -0.00744604 2.34011e-20)
(-0.0154627 0.00804966 0)
(-0.000193274 0.000446011 -9.84515e-21)
(0.00500429 -0.00416641 0)
(-0.00687703 -0.0561001 -6.38297e-20)
(0.0833695 0.0540572 0)
(0.080477 0.22921 1.69477e-19)
(-0.0196919 0.0568394 -1.07773e-20)
(-0.000196166 -6.23386e-05 -1.28211e-20)
(-0.000627926 0.0133947 0)
(-0.000113005 -0.000136107 -7.02529e-21)
(-0.00201857 -0.0075272 4.44236e-20)
(-5.19241e-05 -0.000161653 -2.46153e-22)
(0.0097291 0.235095 4.89479e-19)
(-0.00622309 0.000842454 2.34846e-20)
(-0.00153417 0.00240404 4.81163e-21)
(-0.000187498 -3.82286e-05 0)
(-0.0490319 0.0297026 -2.61966e-20)
(-0.00572375 -0.00712387 -2.21733e-20)
(-0.0327259 -0.0252915 0)
(-0.00497012 0.00144053 5.8192e-21)
(0.0649103 0.410743 0)
(-0.000171406 0.000150869 2.58874e-21)
(3.16627e-05 -0.000195278 7.1618e-21)
(-0.0736374 -0.0158765 0)
(-0.000303098 0.000585387 -2.73092e-21)
(-0.0151376 0.00322606 -1.07572e-20)
(-0.00161344 0.00613854 0)
(0.00131085 0.00874132 -1.35595e-19)
(-0.0163648 0.0107184 -1.50508e-20)
(-0.000298788 0.00049794 1.37083e-22)
(2.51753e-05 -0.000897839 -3.36272e-20)
(-0.000619829 0.00178869 0)
(-0.0147297 0.00855921 1.85384e-20)
(-0.000182519 0.000594071 -4.39228e-21)
(0.000239612 -0.0002217 1.48586e-20)
(-0.0540329 -0.0191959 0)
(-0.0185151 -0.0223676 -5.18426e-20)
(-8.58013e-05 -2.17746e-05 4.70881e-24)
(1.19338e-05 -0.000225409 -7.93534e-21)
(0.000554503 -0.000613629 0)
(-0.000154144 0.00112615 -9.17077e-22)
(0.00722129 -0.00879254 9.22156e-21)
(-0.000323848 0.000459219 -5.60619e-21)
(-0.00708362 0.00610901 0)
(0.0181782 -0.0266976 2.18092e-20)
(0.00245536 -0.001221 -1.59161e-22)
(-0.00187642 0.000708341 0)
(0.00156198 -0.00910523 -2.11193e-20)
(0.000213721 -0.00929095 4.35561e-20)
(-0.000103841 0.000339548 5.90022e-24)
(-0.00301408 -0.00981181 7.21002e-20)
(-0.0415148 -0.0352669 0)
(0.00259574 -0.000147614 2.33838e-20)
(-0.00459759 0.00845767 4.81332e-20)
(-0.0202518 0.0328845 3.79645e-20)
(0.00579116 0.0391794 0)
(0.00793101 -0.0390351 7.23044e-21)
(0.00561117 -0.00335256 -4.22267e-20)
(0.00295133 -0.00198873 0)
(-0.0128012 -0.00728037 0)
(0.000178196 -0.000200229 1.89059e-20)
(-0.0494402 0.0284407 4.30021e-20)
(-0.000130683 -7.56265e-06 -1.98453e-20)
(0.0361089 0.034416 0)
(8.61869e-05 -2.45055e-05 6.20997e-21)
(0.00397243 0.0179225 -6.1506e-20)
(0.000162394 -7.19631e-05 -8.7076e-21)
(-0.0359228 -0.0217085 7.24396e-20)
(-0.0006759 0.00202239 0)
(0.00198477 -0.00546385 -2.40136e-20)
(-0.00145519 -0.0100522 3.58015e-21)
(0.00160316 -0.0196751 0)
(0.00845327 0.000508788 -8.19559e-20)
(-0.000213497 0.000588862 0)
(-0.000963937 -0.00128143 0)
(-0.0457324 0.164031 0)
(-0.0114394 -0.00274543 5.29805e-20)
(-0.0628586 -0.128417 0)
(-0.0310475 0.00176479 0)
(0.13568 0.0461999 1.05365e-20)
(0.261593 0.0142214 -1.89432e-19)
(-0.0108846 0.00550894 3.59009e-20)
(-0.0512215 0.025066 2.15346e-20)
(0.00688357 0.017746 0)
(-0.0035954 0.000649498 1.05776e-21)
(0.118318 0.0603157 0)
(0.0260834 0.127381 4.35072e-21)
(0.000288927 -0.000311867 1.76834e-20)
(-0.0584779 0.118789 0)
(2.42463e-05 7.89061e-05 5.36841e-21)
(-0.00139319 0.000957585 -8.61571e-21)
(0.0188126 0.0522196 -2.84949e-20)
(0.000774453 -0.000789105 -1.32378e-20)
(0.0514743 0.0755754 0)
(-0.0576855 0.0185738 0)
(-0.000606932 0.0015316 -1.8e-20)
(-0.000100919 0.00125141 3.37049e-21)
(-0.000367663 0.000460439 8.32059e-21)
(0.00784467 -0.0249825 -1.40785e-20)
(-0.0536456 -0.0574206 0)
(-0.00281827 0.00213995 1.3978e-20)
(-0.000486982 0.00148201 -1.58721e-20)
(-0.000147422 7.89785e-05 1.0001e-21)
(0.0996064 0.0176559 9.52066e-22)
(-0.000134829 1.9707e-05 -1.12002e-20)
(0.0601607 -0.0647421 5.51495e-21)
(-0.0001044 0.000327966 0)
(-0.000602333 0.0908486 0)
(-0.0655911 -0.0291263 0)
(0.00701033 -0.0174117 -1.63127e-20)
(0.00021022 -0.000344001 4.92942e-23)
(-0.000243874 0.000255648 0)
(-0.0348852 0.0212367 0)
(-0.000155643 4.77678e-05 0)
(-0.000860536 0.000515251 -8.93026e-21)
(-0.0314383 -0.0246198 4.63042e-20)
(-0.104294 0.0956631 2.79339e-19)
(-0.0509059 0.118952 0)
(-0.00016818 0.000182296 0)
(-3.03208e-05 9.46552e-05 -1.20032e-22)
(0.000141301 -0.000243503 -5.88175e-21)
(-0.0333224 -0.00588143 -1.22621e-20)
(0.0461446 0.112761 2.80173e-19)
(-0.010162 -0.00115405 -7.21686e-22)
(-0.000750858 0.000845142 7.74357e-21)
(-0.000235656 0.000581336 0)
(-0.00433399 -0.0329177 -7.37411e-21)
(-0.0143905 -0.0240152 -7.83193e-20)
(-0.00874607 0.00277355 -4.82394e-20)
(0.00483525 -0.00225474 0)
(0.000213448 -0.00016839 0)
(0.00557503 -0.00416988 0)
(-0.0292857 -0.00372781 0)
(-0.00191336 0.00481237 -1.48935e-21)
(-0.00216725 -0.00360832 0)
(-0.00483866 -0.00185277 1.87969e-20)
(-0.000265679 -4.08739e-05 0)
(-0.0282844 0.0057395 0)
(-0.0317659 -0.023251 0)
(0.000127918 -2.40786e-05 0)
(0.00527343 -0.00933142 -2.38022e-20)
(0.00235233 0.021105 2.83488e-20)
(-0.0648749 0.00943092 9.80831e-20)
(-0.0204812 0.015016 0)
(-9.97224e-05 -5.82837e-07 -2.03033e-20)
(-0.0017274 0.000225929 1.45156e-20)
(0.00256877 0.0126318 -2.90613e-20)
(5.72264e-06 -0.000202889 -7.38836e-21)
(-0.000731635 -0.00586686 -1.01955e-20)
(-0.00178582 -0.00103423 9.48336e-23)
(0.00704056 0.030991 -1.22516e-20)
(-0.000247452 -4.0013e-05 0)
(-0.0408476 -0.134695 1.23918e-20)
(0.00233179 0.00487219 0)
(0.00404711 -0.0059172 1.23265e-19)
(0.000161319 -9.80808e-05 1.91161e-20)
(-0.000148348 0.00075253 0)
(0.0253868 0.0182456 4.28297e-19)
(0.000803286 -0.000627402 -7.14168e-21)
(-0.181492 0.0396685 -5.88055e-21)
(0.00512379 -0.00177833 -7.30452e-20)
(0.000313634 -0.000387987 -6.9987e-21)
(0.00224336 -0.000206757 -3.33785e-20)
(0.000454064 -0.000488663 -7.96144e-21)
(-0.000419431 -0.000307538 3.0902e-20)
(0.00029196 0.0274632 -5.55901e-20)
(-0.000181575 0.000418817 1.05765e-20)
(-0.0381945 -0.0239652 -4.28232e-20)
(0.163103 0.188273 1.81787e-20)
(-0.0507856 -0.0118563 1.03442e-22)
(0.0090731 0.00721495 1.87457e-20)
(-0.000533836 0.000542654 3.91598e-21)
(-0.000302621 0.000852812 -3.01573e-21)
(0.0024693 -0.00170728 -1.00591e-20)
(0.00670346 -0.0490864 0)
(0.00117428 -0.0099596 2.75591e-20)
(0.000168982 -6.41186e-05 -1.3487e-21)
(-0.000112528 0.000235115 0)
(-0.000827024 0.00155586 0)
(0.0070932 -0.00028418 0)
(-5.53675e-05 0.000281475 -7.90015e-22)
(0.00022275 -0.000634705 0)
(-0.0354393 -0.00662912 7.25703e-21)
(0.00148635 -0.00536569 0)
(9.48288e-05 -0.000228609 0)
(-0.0877204 -0.0128838 -1.39713e-19)
(-0.0125156 -0.00334225 3.31876e-20)
(0.000411032 -0.000271678 0)
(-0.00753616 0.0299348 0)
(0.0021508 0.000373812 0)
(-0.016923 -0.000104826 -1.14248e-20)
(-0.0172599 -0.0118492 -3.80517e-20)
(-2.84103e-05 0.000955024 5.20776e-21)
(-0.000110629 0.000403901 5.5501e-21)
(-0.0150758 0.00637916 8.37331e-21)
(0.00277251 -0.000601984 2.02795e-20)
(0.10592 0.0117898 2.04145e-21)
(-0.000469355 0.000127911 0)
(-0.0368455 -0.0071836 5.82241e-20)
(-0.00136047 9.63472e-06 0)
(-0.0677171 -0.00471585 0)
(-0.000664113 -0.000849374 0)
(-3.90442e-05 0.000184574 4.79502e-21)
(-0.0789911 -0.103106 -2.97514e-23)
(0.00067604 -0.000624487 0)
(-0.0390177 0.0385205 2.21868e-20)
(0.0137116 0.0163621 -8.01552e-21)
(-0.000102609 -1.85074e-05 0)
(-0.0498988 -0.0132082 1.40283e-19)
(-0.0257392 -0.037687 0)
(0.130803 0.0397603 -6.77444e-21)
(0.00536939 -0.0465783 0)
(0.00125488 -0.000557943 -2.39606e-20)
(-0.00131566 -0.00603647 2.10695e-21)
(-0.0408957 0.00621406 0)
(0.000637375 -0.00228607 0)
(-0.0259431 0.197825 -1.62633e-20)
(-0.0013121 -0.00456643 -1.72061e-20)
(-0.0309654 -0.0231307 -7.40303e-20)
(-1.45811e-05 5.29006e-05 9.64681e-21)
(0.000349705 -0.000459678 1.11567e-20)
(-9.46119e-05 0.00231174 0)
(0.0484292 0.0234765 -1.08397e-20)
(0.000183334 -0.00010615 -2.21633e-21)
(0.00246693 -0.00736684 0)
(-0.0353502 0.0392526 0)
(0.0317525 0.0350615 -1.62059e-21)
(-0.000677521 0.00234982 2.58279e-21)
(0.00676184 -0.0123879 -2.64597e-20)
(-0.00308669 0.0162237 -4.63687e-20)
(-0.0305686 0.0874994 2.36879e-19)
(-0.00444063 -0.00134527 -2.2418e-20)
(-0.0113198 -0.0111676 -2.70992e-20)
(-0.000128117 0.000149152 1.09286e-20)
(-0.00309322 -0.000812232 -7.94355e-20)
(-0.0688176 -0.00249723 3.66727e-20)
(-0.000265283 -0.000183051 -1.69772e-20)
(-0.000118294 0.000351141 0)
(0.000306385 -0.000751084 -1.97917e-20)
(0.00397614 0.00652684 0)
(-0.0372834 -0.00039596 -4.87225e-21)
(0.000425128 -0.000349175 0)
(-0.0059364 0.0263659 2.20358e-21)
(0.00052708 -0.000609564 -9.70262e-21)
(-0.0507837 0.0055324 -2.90233e-20)
(-0.000282578 -0.000182778 2.39793e-20)
(0.0956566 0.0120705 0)
(0.0231226 -0.041851 0)
(-0.000138472 -0.000138962 2.56051e-20)
(0.00311793 -0.00892961 1.52619e-20)
(-0.00463106 0.00457412 4.60825e-20)
(-0.000207993 0.00143255 -1.68682e-20)
(-0.094354 -0.107439 4.60428e-21)
(-0.0615937 -0.0724814 0)
(0.00433223 0.00269667 0)
(-0.00590249 -0.00112754 -2.63983e-20)
(-0.0928066 0.0212623 -4.60782e-20)
(0.00663537 0.214974 5.03824e-21)
(-0.07264 0.00948011 0)
(0.0604383 -0.0296991 0)
(-0.000824008 0.000475018 1.65934e-21)
(0.0588411 0.0150799 -4.74618e-21)
(0.0922494 0.0208544 2.53754e-21)
(-0.000292912 -0.00093831 0)
(-0.000638584 0.00106607 -2.29514e-23)
(-0.00133819 0.000452589 5.49943e-21)
(-0.000390829 -0.000416705 -2.23325e-20)
(-0.0201993 0.262465 8.69036e-20)
(0.000204337 -0.00114522 0)
(-0.00399179 0.00036719 -1.23684e-20)
(-0.000504819 0.000595777 0)
(-0.0633547 -0.0141943 7.40013e-20)
(-0.00529591 0.0156847 2.87922e-20)
(-1.78801e-05 -0.000218197 -4.96966e-20)
(-0.00135693 0.00503007 2.19538e-21)
(-0.000109217 -2.46532e-05 2.84004e-20)
(0.0176061 0.117493 0)
(0.173401 -0.0879923 0)
(0.0026966 -0.00918252 0)
(-0.000392975 -0.00292815 4.25642e-20)
(0.00987015 0.0284569 0)
(8.96409e-05 -0.000240156 -1.51671e-20)
(-0.00342429 -0.0340451 0)
(-0.000295165 -0.000963994 2.10756e-20)
(0.00516848 -0.00073578 0)
(-0.00109175 0.0118384 0)
(0.000137862 -0.000398927 -1.48218e-21)
(0.00159665 -0.00388941 0)
(-0.000339154 -0.00111525 0)
(4.7698e-05 -0.000219782 -1.61603e-20)
(-1.68934e-05 -0.000191033 7.94602e-21)
(-0.0345113 0.00917893 1.98737e-19)
(-0.00455365 0.00666347 -3.28203e-21)
(-0.00339018 0.00169406 0)
(-0.0660641 -0.00504646 0)
(3.30944e-05 -0.000306339 5.51365e-21)
(0.000340922 -0.000373105 -5.81373e-23)
(0.107837 0.00898387 -2.86587e-20)
(-0.0670871 -0.00475969 -3.57573e-20)
(-0.0534468 -0.0635983 2.02416e-21)
(-0.000174707 0.000890317 0)
(-0.000197959 0.000423953 -3.41641e-20)
(0.00727846 -0.0207886 2.17858e-20)
(-0.000151599 -1.44407e-05 1.5587e-20)
(-0.0107602 0.0340961 0)
(0.0190825 0.0833677 8.53517e-19)
(0.00393428 0.00552876 0)
(-2.90031e-06 1.73372e-05 -2.20519e-20)
(-0.00014721 0.000334603 1.09052e-20)
(-0.000831527 0.0135961 0)
(-0.00589252 0.0118026 -1.08667e-20)
(-0.000433926 0.0454432 -2.6885e-21)
(-5.16398e-05 -3.06969e-05 -2.45286e-21)
(-3.42519e-06 0.000355076 -7.67577e-21)
(-0.00291302 -0.019221 0)
(0.070035 -0.0407205 -3.67016e-19)
(-0.00180969 0.00512175 7.82175e-21)
(-3.13226e-05 -0.00171638 0)
(-0.0145231 0.0143554 0)
(-0.0508153 0.00684376 3.50875e-20)
(-0.000208856 0.000349241 -5.1865e-21)
(3.70261e-05 -3.46177e-05 9.51551e-21)
(0.0247017 0.239774 1.64369e-21)
(0.0109841 0.0194775 -2.47013e-18)
(0.0105599 -0.0185351 1.08281e-20)
(-9.59188e-05 4.63857e-06 1.88238e-20)
(0.00212509 -0.0157155 1.90444e-18)
(-0.000251087 0.000301194 1.04552e-19)
(-0.0189188 -0.00648929 2.9202e-20)
(-0.000886224 -0.00404526 5.30515e-20)
(-0.00109064 -0.00399763 -1.37589e-20)
(-0.00881785 -0.0134689 0)
(-0.000149636 -0.000774384 0)
(-0.0262516 0.0134392 -5.05417e-20)
(-0.0261543 0.004818 -1.01515e-19)
(0.016814 0.0140106 0)
(-0.000200971 8.27902e-05 2.30727e-20)
(-0.000167446 -0.00011711 3.70121e-21)
(3.25427e-05 -2.52975e-05 -9.50763e-21)
(-0.000156333 6.81993e-05 -8.49159e-21)
(0.00437763 -0.00370769 7.87919e-20)
(0.000562689 -0.0028751 -3.43698e-20)
(0.00399112 0.0235853 0)
(-0.000113465 -0.000187419 0)
(1.12366e-05 -0.00101029 -1.46397e-20)
(0.0315097 0.0133781 -4.39051e-21)
(-0.000166553 0.00041597 2.27263e-20)
(-0.000174595 -0.000212464 1.72487e-20)
(-0.000262053 4.66596e-05 -1.89299e-20)
(-0.0922921 -0.0774635 4.94016e-19)
(0.0452207 0.0211548 0)
(-9.47561e-05 -0.000314924 -9.58044e-21)
(-0.00589895 -0.0307602 -1.44365e-21)
(0.00517385 0.00629809 -6.27422e-22)
(-0.00190161 -0.00291961 0)
(0.0229834 0.0162643 4.23226e-20)
(0.0165675 0.00728173 0)
(-0.0381641 -0.018828 1.73202e-21)
(-0.0784038 -0.0039345 -1.09974e-20)
(-0.00127717 -0.00546055 2.70108e-20)
(0.00199896 0.0154416 1.20437e-19)
(-0.00018991 -5.95008e-05 0)
(-0.0161174 0.226395 -2.32247e-19)
(-0.0017204 0.00645514 6.30128e-20)
(-0.000150865 -1.05324e-05 -1.57327e-20)
(-0.00113739 -0.0458743 -2.83744e-20)
(-0.0260331 0.0360106 4.75525e-21)
(-0.000641352 0.000568158 5.21436e-21)
(0.00504524 -0.00879065 -1.13153e-19)
(0.029025 -0.0274152 8.52816e-20)
(-0.0209997 0.0308603 -1.76413e-20)
(-0.00144944 0.000868375 -2.99056e-21)
(-0.00619287 -0.00489028 5.33828e-21)
(0.00220698 0.00281676 -1.7968e-20)
(0.00772834 0.0091813 -1.52097e-21)
(-0.00066672 0.002051 6.81077e-21)
(0.00508056 -0.00700767 3.72424e-20)
(-0.0135801 -0.00290624 -2.77493e-21)
(-0.000322836 0.000261744 0)
(0.000540475 -0.000671309 0)
(-0.0626573 -0.0149311 -3.64235e-20)
(0.000524921 -0.00141683 -1.08276e-20)
(-0.0122757 0.00086406 -4.90546e-21)
(-0.157571 -0.147847 -2.9851e-19)
(-0.00100682 -0.00145223 0)
(0.0011416 0.000723861 -3.4941e-21)
(-0.000602546 8.13068e-05 1.72777e-20)
(-0.0539185 -0.0722788 4.73847e-21)
(-0.00153257 -0.00106478 1.17673e-21)
(-0.000954146 -0.000272744 0)
(-0.00737223 -0.00110229 1.56908e-20)
(-0.00476368 0.00128797 0)
(-0.00017486 -0.000191996 -1.75748e-20)
(0.00249976 0.00423847 5.12112e-20)
(-0.000150001 6.46755e-05 2.19317e-20)
(-0.00822346 -0.00103361 4.45596e-20)
(-0.000254002 4.27654e-05 -2.34657e-20)
(-0.0130743 0.0240661 0)
(0.00835797 0.000794441 0)
(0.000657929 -0.000458033 -1.72296e-20)
(0.000602924 -0.00220318 1.86142e-20)
(0.0072397 0.000681983 0)
(-0.000239986 1.75797e-05 1.74577e-20)
(-0.0642644 -0.00424453 3.59551e-20)
(-0.000633848 0.000819182 4.84211e-23)
(-0.071758 0.194772 1.55098e-21)
(-0.000125204 -8.59182e-06 5.46835e-21)
(-0.000607622 -0.000377506 0)
(0.00182537 -0.000817121 -3.04255e-20)
(-0.0582819 0.0168144 0)
(-0.00413525 0.0148385 -2.8797e-20)
(-0.000367175 -0.00327653 0)
(-0.00477447 -0.00240804 -7.60666e-20)
(1.48571e-05 0.0192708 -1.18121e-20)
(-0.000179031 -0.000430431 9.78679e-21)
(-0.00170578 0.000903179 -8.02383e-21)
(-0.0087313 0.0532604 -3.81245e-21)
(0.0243745 -0.0119074 -9.30067e-20)
(-0.00116452 0.00173707 9.70085e-21)
(0.0176467 -0.0202195 -2.71062e-20)
(-0.0251549 0.00346696 -2.50284e-21)
(-0.00126215 0.0010394 0)
(0.0628126 0.0173095 2.33748e-22)
(-0.000270802 0.000586447 0)
(0.000659107 -0.000456512 1.75724e-20)
(-0.000224531 0.000833872 4.568e-21)
(-0.0146435 0.00703802 0)
(0.00325675 0.00924761 0)
(-0.000251701 8.72915e-05 4.22833e-21)
(0.00011786 -6.33939e-05 0)
(-0.000338332 -0.000367599 1.15869e-20)
(0.0813123 0.015003 2.36963e-20)
(-0.00296846 0.00897319 1.41495e-20)
(-0.000399653 -0.00103219 1.52708e-20)
(-0.0478032 0.0342635 -3.24756e-21)
(4.77589e-05 0.00109122 -4.54284e-23)
(-0.000571579 -0.00115637 0)
(0.019563 -0.0104317 -8.46169e-20)