/*--------------------------------*- C++ -*----------------------------------*\
| =========                 |                                                 |
| \\      /  F ield         | OpenFOAM: The Open Source CFD Toolbox           |
|  \\    /   O peration     | Version:  v2012                                 |
|   \\  /    A nd           | Website:  www.openfoam.com                      |
|    \\/     M anipulation  |                                                 |
\*---------------------------------------------------------------------------*/
FoamFile
{
    version     2.0;
    format      ascii;
    class       volVectorField;
    location    "250";
    object      ddtCorrDdt0(U);
}
// * * * * * * * * * * * * * * * * * * * * * * * * * * * * * * * * * * * * * //

dimensions      [0 1 -2 0 0 0 0];


internalField   nonuniform List<vector> 
18232
(
(-0.00978306 -0.00230619 2.59614e-21)
(-0.00144934 -0.0014964 -3.71102e-21)
(0.000190434 -5.34709e-05 2.0269e-20)
(0.000381027 0.000486865 1.20666e-21)
(0.00249341 0.000680799 0)
(0.00346189 -7.16783e-05 5.85763e-21)
(0.000302647 0.000439606 -4.614e-21)
(5.38164e-05 0.00023431 0)
(0.00235659 0.000768769 0)
(0.00243585 0.000668256 -5.06116e-21)
(0.000430103 0.000490821 -1.03147e-20)
(0.00590368 -0.00422607 -3.55602e-21)
(0.00232152 0.000536711 8.75333e-21)
(0.00557281 0.00124932 2.17187e-20)
(0.000777274 0.00162861 0)
(0.00638788 0.00497155 1.45745e-20)
(7.7859e-05 8.6801e-06 0)
(7.9607e-06 5.49298e-05 3.87707e-21)
(0.000334858 0.00024983 -6.77176e-23)
(0.00292483 -0.000369201 1.01364e-20)
(0.00372304 -0.000172894 -9.58756e-24)
(0.000702435 0.00035034 -3.43432e-21)
(0.000432135 0.000472785 1.00541e-20)
(0.000942525 -5.23556e-05 0)
(0.000105263 0.00159736 -3.63271e-21)
(0.000114607 0.00162698 3.80902e-21)
(0.000317849 -4.88256e-06 0)
(0.00342075 -0.000115188 6.09884e-21)
(8.31632e-06 5.46293e-05 3.54353e-21)
(0.000193632 -4.00181e-05 -1.31984e-20)
(8.10831e-07 1.85933e-05 -6.68077e-21)
(0.0184758 0.0269822 0)
(2.27481e-05 0.000429105 0)
(-0.00537811 0.0729526 -7.83435e-21)
(0.00467094 6.20026e-05 -1.26137e-20)
(0.00309261 -0.000391218 -3.13782e-21)
(0.00660502 0.00114576 0)
(6.00037e-05 0.000293368 1.97876e-21)
(0.0069445 0.00122452 0)
(-1.13058e-07 3.26965e-05 4.88702e-21)
(-0.00719516 0.000380791 -8.93995e-22)
(0.00480143 -0.00530601 1.50862e-20)
(0.00281987 0.000462423 0)
(0.00679935 0.00119869 7.75684e-21)
(9.90578e-05 -4.9327e-05 0)
(0.00589766 0.000756544 1.15031e-20)
(-0.000867476 -0.000542133 -8.15505e-21)
(0.00499528 -0.00537759 -3.47119e-20)
(0.00308094 -0.000295532 -2.3808e-20)
(-0.000370175 -0.000630351 -9.8651e-22)
(0.000128362 0.000157752 -2.4915e-21)
(1.4843e-05 1.86508e-05 0)
(-0.0132007 -0.00416369 4.13606e-21)
(0.0035702 -0.00276795 0)
(0.00282228 -0.000541826 6.94023e-21)
(0.00373289 -0.000104233 2.09353e-22)
(0.000131786 0.000200855 -9.43517e-21)
(3.05236e-06 0.000347449 6.08031e-21)
(-0.00577029 -0.0016667 1.00499e-20)
(-0.00039693 -0.00102613 5.38242e-21)
(0.000716043 0.00161444 0)
(9.99204e-05 -5.09299e-05 5.33308e-21)
(0.00161314 3.47231e-05 1.0774e-20)
(0.000366635 0.000469738 -1.14348e-21)
(0.00555374 -0.000998859 4.61941e-21)
(0.000728498 -0.00142862 -9.86184e-21)
(0.00207976 0.0102979 3.69433e-21)
(0.0194011 0.0303842 0)
(0.00030513 -1.49175e-05 0)
(0.00160805 0.000103569 0)
(0.000129604 0.000203816 -3.33473e-22)
(0.000112928 -5.81237e-06 1.76521e-20)
(0.0202524 0.0251526 -6.83844e-21)
(0.00294398 -0.000356368 0)
(0.00819573 -0.00307377 0)
(0.00370109 0.000271696 -7.40785e-22)
(0.000979357 0.000643328 0)
(0.000280192 0.000757427 -1.1895e-20)
(0.00311935 0.000526906 -4.0622e-21)
(0.000604265 0.000491052 -6.90924e-21)
(0.0213694 0.0328723 1.27786e-21)
(0.00493783 -0.00141806 -1.98297e-20)
(0.00401778 -0.0031263 1.4246e-20)
(0.00102467 -0.000478739 1.15861e-20)
(0.00500719 0.000401032 -4.6284e-23)
(0.00377506 -0.000101539 -1.65184e-20)
(0.000184552 -8.0279e-06 6.69895e-21)
(0.000322632 0.00023343 0)
(0.00501876 -0.00152112 2.07849e-20)
(0.00377002 -0.0012399 -3.08522e-20)
(0.000318078 0.00024098 2.0425e-21)
(0.000329031 -3.60289e-05 0)
(2.51357e-06 2.74463e-05 -9.87052e-22)
(0.00392362 -0.000133828 0)
(0.000303748 0.000225495 -1.91441e-21)
(0.00159769 0.000139312 0)
(0.000221104 1.2465e-05 -7.24083e-21)
(0.000614292 0.00040124 0)
(0.00579827 0.00228901 0)
(0.000332818 -0.000414731 0)
(0.000511244 0.00195575 1.17076e-20)
(0.00353806 -0.0028867 5.87809e-21)
(0.00358207 0.000202201 -6.5297e-21)
(0.00127718 0.00185487 5.66984e-21)
(0.00310765 -0.000369373 0)
(0.00078056 0.00127936 0)
(0.000205224 -3.64455e-05 -8.08466e-21)
(0.00570843 0.000220315 -2.7045e-20)
(1.20026e-05 2.46916e-06 1.28521e-20)
(0.00157517 2.18804e-05 -8.10829e-21)
(0.000701927 -0.00139597 2.96423e-20)
(0.0039492 0.000407735 0)
(-0.000255586 -0.000702146 0)
(0.000297993 0.000409023 -2.31076e-21)
(0.000128522 0.000169782 -2.85363e-21)
(0.0019289 -0.00116047 0)
(0.00527937 -0.00160522 0)
(0.00609022 0.00082781 -1.07642e-20)
(0.00307407 -0.000878995 0)
(0.00196872 -0.00126076 -2.15171e-20)
(0.000145776 0.000118473 -4.79139e-21)
(6.52652e-05 0.000296582 2.32193e-21)
(0.000347086 0.00485267 6.02083e-23)
(0.00323858 -0.000406013 1.41423e-20)
(0.00162035 0.00165693 5.05131e-21)
(0.00275991 0.000466009 0)
(0.0150093 0.00234974 -3.11478e-20)
(-5.44055e-05 -0.000163125 1.20802e-20)
(0.0036594 -0.000182562 -1.14971e-23)
(0.00394822 0.000422469 0)
(0.000229715 -8.51177e-05 0)
(0.000686029 0.000402849 1.41935e-20)
(0.00310116 -0.00091408 0)
(-0.000155466 -0.000326414 0)
(-0.0105954 -0.00391115 0)
(0.00371726 0.000272968 7.47489e-23)
(0.00305802 -0.000295057 1.34768e-20)
(1.8914e-06 0.00010716 8.02566e-21)
(-0.000496977 -0.00104097 1.08702e-20)
(0.00680807 0.00114318 0)
(0.00280392 -0.000569034 -1.86774e-20)
(0.00073554 0.00129928 0)
(0.0142404 0.083518 6.51394e-22)
(0.000214493 2.25562e-05 7.02814e-21)
(0.00252558 -0.000458816 1.98238e-20)
(0.0021336 0.000173689 0)
(0.000733709 0.00155384 4.88067e-22)
(6.36551e-07 7.22146e-06 -7.94696e-21)
(0.00561023 0.000587961 0)
(0.00302618 0.000293168 -9.63386e-21)
(-0.0006784 0.0045054 0)
(0.00446115 -0.00481113 -1.40782e-20)
(0.00490351 -0.00118987 0)
(0.000990742 0.000620121 -7.24852e-21)
(0.0036994 -0.00126187 3.02241e-20)
(-0.000605665 0.00439518 3.07463e-21)
(0.0062105 0.00228361 0)
(0.00544136 -0.00109594 -2.34139e-21)
(0.00035362 0.00332807 -1.01267e-20)
(-0.000435999 -0.00107194 -1.11751e-20)
(-0.00132946 -0.00155545 4.16878e-21)
(-0.00016466 -0.000312119 0)
(0.000330694 -1.36748e-05 0)
(0.00319618 0.0103807 0)
(0.00269534 -0.00104296 0)
(-1.80603e-05 0.000202746 -6.88664e-21)
(0.00146446 0.00222934 0)
(0.0142799 0.082158 -1.27276e-21)
(4.61991e-05 0.00115605 -1.16178e-20)
(0.00347499 -0.000780817 -8.49101e-21)
(0.000349752 -0.000133683 1.03313e-20)
(4.72121e-05 0.00022889 -8.10834e-21)
(0.000226758 -7.25512e-05 -6.53485e-21)
(0.000710233 0.000377874 -3.0934e-21)
(0.000560147 0.000723778 -5.83313e-21)
(0.00374806 0.000655379 8.58327e-21)
(0.00106167 -0.000502912 -3.12777e-21)
(1.5326e-06 1.18876e-05 -3.55049e-21)
(0.00466723 3.18231e-05 1.35421e-20)
(9.18713e-05 0.00022667 -1.5233e-20)
(0.00297405 -0.0003016 0)
(0.00685338 0.0012051 -1.39928e-20)
(0.000114988 -1.04178e-05 -2.37711e-20)
(0.00360436 0.000211923 1.48627e-21)
(-0.00770426 -0.00124908 2.9955e-21)
(1.51292e-07 7.49237e-07 0)
(0.000798101 -0.000724762 0)
(0.00467817 0.000112766 6.76612e-21)
(7.22044e-08 5.53898e-05 0)
(0.00411694 0.000546653 3.88839e-21)
(0.000239592 0.00127556 -4.87713e-21)
(0.000323363 0.000130491 0)
(0.00236862 0.000720784 -4.72493e-21)
(0.00591813 0.000714882 0)
(0.000209973 2.10023e-05 3.73143e-21)
(0.000618085 0.000241939 0)
(-0.000267705 -0.000663423 0)
(0.000341609 0.00059147 4.4841e-21)
(3.67271e-05 -8.15017e-06 -2.05841e-20)
(0.000100574 -0.000239972 0)
(1.72616e-08 9.14364e-06 6.61087e-21)
(0.00218289 -0.000869861 -2.44127e-20)
(0.000161958 0.00202322 -8.7171e-21)
(0.00118684 0.00410337 -6.98857e-21)
(0.00580997 0.000102724 1.103e-20)
(-0.000794192 0.0043975 0)
(0.00446689 0.00144788 -2.63008e-22)
(0.0341786 0.0185041 0)
(0.00306476 0.000432165 -1.49892e-20)
(0.00304095 -0.00128782 8.24981e-21)
(0.000347196 -8.4122e-05 -9.49738e-21)
(0.000721295 0.00163042 -2.53464e-21)
(0.000526537 0.00191626 -9.76509e-21)
(0.00571766 0.00223795 -5.07604e-21)
(0.00660089 0.00642909 -1.93021e-20)
(0.00213171 -0.000821676 2.00237e-20)
(0.00492669 -0.00108164 0)
(0.000341194 -4.6566e-05 5.44589e-21)
(0.000206822 -2.28419e-05 2.09745e-20)
(0.000590507 0.000410494 6.28454e-21)
(0.00552928 0.000524715 0)
(-0.000342279 -0.00104985 -5.54968e-21)
(-0.000636468 0.00533114 1.66894e-21)
(0.00140175 0.000116999 1.62035e-20)
(3.31789e-05 -6.9703e-06 1.43432e-20)
(0.000334834 -0.00012917 1.44524e-20)
(0.00305322 0.000347471 1.51264e-20)
(0.000943404 -9.78119e-05 0)
(9.32748e-05 0.000233778 5.52359e-21)
(1.02976e-08 0.000432408 -6.3293e-21)
(0.000161795 0.00020306 -6.98341e-21)
(5.95176e-05 0.00112449 7.158e-21)
(0.0105772 0.0862722 -1.23637e-21)
(0.00653204 0.0023369 0)
(2.41844e-05 0.000426587 3.07921e-21)
(0.00623461 0.000887556 0)
(9.13872e-05 0.000770937 -1.80543e-21)
(0.0117904 0.00392204 0)
(-0.000403605 -0.000651573 0)
(2.3312e-05 1.84588e-05 -5.96096e-21)
(0.000168797 0.0002192 6.75656e-23)
(0.00659738 0.00145982 1.38107e-20)
(0.0124613 0.00435647 -2.04216e-20)
(0.00127697 0.00167232 0)
(0.00643528 0.00111399 8.27955e-21)
(0.00341419 -0.000798766 7.12367e-21)
(1.01909e-06 3.72919e-06 7.26645e-21)
(-0.00489039 -0.00140029 1.10615e-20)
(4.65831e-05 -0.000362235 -3.09055e-21)
(0.00116251 0.000720827 -6.71374e-21)
(0.00405058 3.25068e-05 4.0439e-23)
(0.00368351 -7.14334e-05 8.40595e-21)
(0.000224991 -0.000506382 -3.71336e-23)
(0.00301638 0.000454484 1.11717e-20)
(0.000598485 0.000245231 -1.07462e-20)
(1.63569e-05 0.00161187 -7.00413e-21)
(0.00312867 -0.0005486 -3.43849e-24)
(-0.000547782 0.0052338 -1.47519e-21)
(0.00520047 0.0005358 5.11762e-23)
(0.00298452 -0.000293455 -1.0212e-20)
(0.00135603 -0.000368172 -2.09202e-20)
(0.00351262 -0.00264699 0)
(0.00305827 0.000107943 0)
(1.16082e-06 1.80477e-05 0)
(6.41572e-05 -0.000571991 1.29792e-20)
(2.34482e-06 1.82007e-05 0)
(0.00644551 0.00110877 7.28351e-21)
(0.000295071 0.00328181 1.02618e-20)
(0.00370306 -6.55575e-05 1.57661e-20)
(0.00287332 -0.000305626 0)
(0.000692965 0.000424143 8.11567e-21)
(-0.00253085 0.0734485 3.38132e-21)
(0.00330257 0.00116219 -4.07594e-21)
(4.6252e-05 -5.4449e-06 1.30767e-22)
(0.000206247 -0.000515747 0)
(0.00356852 0.000424279 1.96578e-21)
(0.00384923 -0.00320558 0)
(0.000221141 0.000696584 -6.19231e-21)
(2.47847e-05 2.18882e-05 7.60186e-21)
(-0.00148518 0.000822211 0)
(0.0062667 0.00101839 0)
(0.00197942 -0.00120715 1.35005e-20)
(-0.000354935 -0.00139678 1.35665e-20)
(0.00538182 0.000835562 7.38159e-21)
(0.00309327 -0.000277677 1.32478e-20)
(7.67601e-05 0.000757564 4.40243e-21)
(0.00254344 -0.000532568 -6.47197e-21)
(0.00669193 0.00113361 1.59971e-21)
(0.00160635 0.000225362 -9.84296e-21)
(0.00521327 -0.0017535 1.69411e-20)
(0.000333135 0.000135286 -2.48388e-23)
(0.0038242 -0.00192972 3.44603e-21)
(0.00427123 0.000525262 -7.71844e-21)
(0.00619773 -0.0043514 1.51431e-20)
(0.00472664 -0.00492655 1.51906e-20)
(0.0028886 -0.000301427 -3.51097e-21)
(0.00547795 0.000846496 -8.59456e-21)
(-0.000564821 -0.0012025 0)
(9.95084e-05 -5.02807e-05 1.33123e-20)
(0.0015071 0.000295413 4.97568e-22)
(0.00121808 -0.00255637 -6.3652e-22)
(1.55302e-05 7.4825e-06 0)
(0.00444006 -0.000102278 -5.00016e-21)
(0.00393752 -3.79362e-07 0)
(1.22902e-05 8.17122e-06 6.84959e-21)
(1.58125e-06 0.000331087 2.51392e-21)
(0.0127609 -0.00611564 3.63213e-20)
(0.00270403 -0.00290062 9.95204e-21)
(7.58971e-05 1.09134e-05 0)
(0.00578512 0.000650035 -3.85196e-23)
(0.00133154 0.00165881 6.39615e-21)
(0.000161413 7.56714e-05 0)
(0.00792904 7.46165e-05 -2.3027e-20)
(0.000904992 0.000590033 1.13655e-20)
(-0.000315962 -0.0014676 8.80924e-24)
(0.00253745 -0.000483669 -1.20185e-20)
(0.00513846 0.000726352 0)
(-0.000108592 -0.000331513 2.61717e-20)
(0.00602057 0.000829207 1.17196e-20)
(0.000114925 0.000212858 1.09718e-21)
(0.00636483 0.0012741 4.85824e-21)
(0.00194076 -0.0011074 9.10534e-22)
(0.0081051 -0.00229747 -4.57189e-21)
(-0.00332604 0.00592058 -6.39669e-21)
(0.000211261 0.00189933 0)
(0.000701608 -0.00130189 -3.8966e-21)
(0.0160461 -0.00108252 1.55794e-20)
(0.00189117 -0.00106788 -2.45459e-20)
(0.0028859 -0.0056831 0)
(0.00162758 0.000193192 9.29342e-21)
(0.00340785 -0.00262246 0)
(0.00026812 9.41244e-05 0)
(0.00428701 -0.000914318 0)
(-0.000306283 0.00571094 -4.40572e-21)
(0.00294652 -0.000369215 0)
(-0.00677388 -0.00268456 0)
(0.00289751 -0.00042392 5.81435e-21)
(0.00385683 -0.00013123 0)
(0.000293789 -4.5036e-06 4.59838e-21)
(0.00299761 -0.00133311 2.76268e-21)
(-9.33576e-07 0.000427352 -1.65773e-21)
(0.00428448 0.00132255 2.84843e-22)
(3.61066e-07 2.2789e-06 -1.55463e-20)
(-7.35612e-05 -1.9296e-05 0)
(-0.000100093 -0.00032074 -2.77447e-20)
(0.00479577 -0.000114956 3.24549e-21)
(-0.0106852 -0.00139211 0)
(0.00250088 -0.000544117 4.6177e-21)
(0.0125777 -0.0053788 -5.09275e-20)
(4.29492e-05 0.000776406 -8.85576e-21)
(0.0052348 0.00143517 -1.01195e-20)
(0.000390106 0.00187977 -4.59822e-21)
(0.00025348 0.00189752 -4.80558e-21)
(0.000112304 -0.000584004 2.73209e-20)
(0.00361124 -0.00179315 0)
(0.00244977 -0.000386532 -3.02246e-22)
(0.00391443 -0.000102328 0)
(-0.00964495 -0.00135419 0)
(7.69581e-05 0.000273988 4.11849e-21)
(0.000155227 0.000104552 0)
(0.00466641 0.00140071 0)
(0.00275245 0.00040072 0)
(-0.00596537 -0.00155379 -9.86631e-21)
(6.05909e-05 0.000789072 3.21711e-21)
(-0.0131776 -0.00332719 0)
(0.000254924 0.00130035 6.05983e-21)
(0.00166199 0.00211089 8.82532e-21)
(-0.0102216 -0.00152741 3.00431e-21)
(0.000798194 0.00123824 7.0529e-21)
(0.0037562 -0.00022168 -7.17598e-21)
(0.00305911 -0.000460006 -3.6371e-21)
(0.00295299 -0.000401333 0)
(-0.00126492 -0.00166709 0)
(0.011106 0.105381 -8.81829e-22)
(0.000109068 -0.000244244 -9.74683e-21)
(0.000337937 -0.000380881 0)
(-0.000262965 -0.00102614 -1.54181e-20)
(5.68035e-05 -8.28271e-06 -9.05105e-21)
(0.0064735 0.00465079 -2.21502e-20)
(0.00365291 0.0134879 6.92245e-21)
(0.00219923 0.000282601 0)
(0.00373945 -0.00193682 0)
(8.10082e-07 2.34657e-05 -9.68636e-21)
(0.000596886 0.000550466 1.21717e-20)
(0.000322769 -0.000426566 0)
(0.00263181 -0.00580648 0)
(0.000115698 0.00035163 0)
(5.76021e-05 -7.22086e-06 0)
(0.000142142 0.000190106 6.6734e-21)
(0.00201377 -0.000210078 0)
(0.00293125 -0.000580409 4.01133e-21)
(0.000109421 0.00271004 -6.14914e-21)
(0.00557673 0.000597071 4.25201e-21)
(0.00279096 -0.00619057 0)
(0.00693641 0.0012695 -8.16332e-21)
(0.00119656 0.000735131 0)
(0.00033462 0.00456161 0)
(0.000110824 -1.45647e-05 1.56072e-20)
(0.0011936 0.004181 4.05238e-21)
(5.71313e-05 -1.21614e-05 0)
(0.0029429 -0.000405707 0)
(0.00700703 0.00659959 1.52081e-20)
(0.0142547 -0.00304962 1.74565e-20)
(-0.000495018 0.00581456 -1.48294e-21)
(0.00363877 -0.00185824 0)
(7.17121e-05 0.000272893 -8.60928e-21)
(0.00254719 -0.000389992 0)
(1.75472e-05 2.29167e-05 -8.35942e-22)
(6.75307e-06 0.000226613 -4.82932e-21)
(0.00328918 -0.000202228 0)
(0.0062751 0.00124337 -9.85817e-21)
(0.0157895 0.0857956 -8.64871e-21)
(0.00261311 -0.0028551 0)
(0.00190046 -0.00102188 2.791e-20)
(0.0060342 0.00135432 -9.27387e-21)
(0.00298872 -0.000340295 -3.65988e-22)
(0.000157161 -2.88717e-05 -1.00409e-20)
(3.75631e-06 4.83719e-05 -4.16325e-21)
(0.00690086 0.00118266 0)
(0.000329636 0.000599487 1.13081e-20)
(0.00212883 -0.00023368 -8.30053e-21)
(0.000862122 0.00250206 1.30702e-20)
(0.00751297 -0.00741 -2.87475e-20)
(0.000173053 -0.000306903 0)
(0.0066133 0.00144546 0)
(0.00408193 -0.00044415 -1.1891e-20)
(0.00830828 -0.00328711 -4.21722e-20)
(0.00656615 -0.00527908 1.45676e-20)
(0.00158484 0.0021343 -1.67352e-20)
(0.00293182 -0.00037013 0)
(-7.02363e-05 -0.000319409 -1.73915e-20)
(0.0030526 -0.000303411 -1.55775e-20)
(-0.00967041 -0.00133231 0)
(0.000226273 0.000669777 -3.52542e-23)
(0.00421054 -0.000939185 0)
(0.00015166 0.000109007 9.47072e-21)
(0.000119068 0.000193387 -1.37446e-21)
(-1.29948e-06 0.000432988 8.56684e-21)
(0.000144445 -0.0037236 -2.06378e-20)
(0.000351692 0.000481955 0)
(0.000167493 0.00197678 1.41757e-20)
(0.00408364 -7.9279e-05 1.3127e-20)
(0.00458357 2.29756e-06 1.30768e-20)
(0.00276398 5.30064e-05 -3.4e-21)
(0.0007663 -0.000696216 1.50038e-22)
(0.00273294 7.28046e-05 -5.79444e-21)
(0.000793166 0.00109344 -3.00323e-21)
(0.000588787 0.000505114 1.90396e-21)
(0.0070818 -0.0028328 1.66874e-20)
(0.00142234 0.00215621 0)
(0.00499041 0.000225754 6.20523e-21)
(0.000715927 0.000686587 0)
(-7.10451e-05 -0.000187845 -7.38548e-21)
(0.000157557 8.10308e-05 0)
(0.00308911 -0.000527859 -1.6229e-20)
(0.000279094 9.29884e-05 0)
(-0.00531205 0.0599993 -8.35787e-21)
(3.08299e-06 3.88799e-05 1.46093e-20)
(0.00323465 0.00110954 1.10112e-20)
(0.00216701 0.000195828 -8.76005e-21)
(0.000186082 -0.0003136 6.71398e-21)
(0.00355113 0.000467437 2.14743e-21)
(0.000823416 0.0010614 0)
(0.00420215 0.000611008 1.7101e-20)
(0.000232157 -0.000274051 0)
(-1.83579e-05 0.000210982 1.86946e-21)
(0.000132057 -0.000232282 9.71713e-21)
(0.00148829 0.000735186 1.85144e-20)
(0.00226877 0.000558279 -6.52318e-23)
(0.00215736 0.000252151 -7.40009e-21)
(0.000155122 -2.02401e-05 5.00508e-21)
(0.00483688 0.000132622 0)
(0.00385404 -0.000413897 -2.23844e-20)
(0.00930509 0.00241969 -6.33128e-23)
(0.000149758 0.00275768 1.19059e-20)
(0.00248633 0.00150578 6.82364e-22)
(-0.000130387 -0.00135622 1.29909e-20)
(0.00300379 -0.000192641 0)
(-0.00813999 -0.00309207 -2.10894e-21)
(0.00136721 -0.000416418 2.11906e-20)
(0.0030568 0.000196613 2.05514e-20)
(0.000631827 -0.00375865 -1.67777e-20)
(0.000147529 0.000104648 1.72473e-20)
(0.00789506 -0.00766018 3.37572e-20)
(1.90629e-06 9.30588e-05 6.63355e-22)
(0.00248185 0.000918911 0)
(0.00150704 -0.000858652 0)
(0.00132083 -0.000355386 1.91379e-20)
(0.00666846 0.00110729 -8.70114e-21)
(0.00256106 -0.00636331 0)
(0.000128722 0.000140465 0)
(0.00330874 -0.000216253 -6.81845e-21)
(0.000295837 8.82643e-05 0)
(0.00185038 -0.00098066 -2.4959e-20)
(0.00275301 0.000963104 -9.18372e-21)
(0.00402985 -0.000474592 0)
(8.02935e-05 -0.000133757 9.19945e-21)
(0.00303422 -0.000450278 0)
(0.00333797 0.000120055 0)
(7.35901e-05 1.14623e-05 0)
(0.000334773 0.00045755 -9.04996e-21)
(0.00120577 -0.00173945 2.96461e-20)
(9.21814e-05 0.00112405 0)
(0.00344957 0.000284938 2.22071e-21)
(-0.0100349 -0.0013134 -1.2696e-20)
(0.00299294 -0.000269118 6.10156e-21)
(0.000180123 7.92398e-05 -5.91918e-21)
(0.000925898 0.000243418 1.46677e-21)
(9.86135e-05 -3.14089e-05 1.50223e-20)
(0.000554439 -0.000572428 0)
(0.00615803 0.000851546 0)
(0.000738107 0.000705029 -1.21409e-21)
(0.00186354 -0.000941091 2.81219e-20)
(0.0069424 0.00119339 0)
(-4.05672e-05 -0.000187849 -7.73084e-21)
(0.000186135 7.88365e-05 0)
(0.00011602 0.00033532 -2.38487e-21)
(0.00292439 -0.00044628 2.48299e-21)
(0.00102536 -0.000644574 4.69718e-23)
(0.000276941 -0.000534243 0)
(0.000105334 0.00109475 0)
(0.000729116 -0.00133888 0)
(-0.00013896 0.00141575 -5.75863e-21)
(-0.00346147 -0.0012733 9.3375e-21)
(0.00115407 0.0140984 0)
(0.000536732 -0.000646357 0)
(8.20075e-05 -0.000591427 -1.34414e-20)
(0.000200475 -6.14076e-06 -6.734e-21)
(0.00137337 9.35774e-05 0)
(-0.00995469 -0.00135726 1.22066e-20)
(0.000125523 0.000166113 5.35391e-21)
(0.0147169 0.00158278 2.50724e-20)
(0.00354095 0.000375579 -2.57682e-21)
(0.00274331 0.000913126 1.12264e-20)
(0.017009 0.0151491 4.24145e-21)
(0.000111869 -1.95911e-05 -1.70135e-20)
(0.00399731 0.000477143 1.81672e-20)
(0.000206916 -4.0368e-06 0)
(0.00417039 -0.000121591 8.51482e-21)
(0.00404578 7.93689e-05 0)
(0.000280662 0.000789297 1.76722e-20)
(0.00290873 -0.000591686 1.12949e-20)
(9.47293e-05 -2.76284e-05 -1.75688e-20)
(-6.38058e-05 -0.000169867 6.042e-21)
(7.08375e-05 1.39469e-05 -6.59967e-21)
(0.00289711 0.00177642 -8.14158e-21)
(0.00602605 0.000991324 3.27299e-22)
(0.00302348 -0.000881831 -2.74551e-20)
(0.000285743 8.98405e-05 -1.37019e-20)
(0.00294362 -0.000362663 -6.37022e-21)
(0.0027017 0.000358168 -1.17484e-20)
(8.67436e-05 -0.000255508 9.37946e-21)
(0.00105854 -0.000679872 -1.52532e-21)
(0.000126038 0.000146527 0)
(0.00546635 0.000853633 -8.24998e-21)
(-0.00997787 -0.0027772 5.98688e-22)
(0.00045154 -0.000927442 -1.50551e-20)
(0.000282801 -0.00260979 -1.26057e-20)
(8.34019e-06 0.000213375 -1.57063e-21)
(0.00404723 0.000497208 -1.11309e-20)
(0.00345454 -0.000805071 2.55151e-21)
(1.51548e-07 2.71016e-06 -3.87053e-21)
(0.0011004 0.00301157 0)
(1.72563e-05 0.000122327 0)
(0.00420215 0.000505379 -2.01684e-20)
(7.79184e-05 -9.33592e-07 9.22008e-21)
(7.55725e-05 -0.000131201 9.4177e-21)
(0.00534549 0.00156742 -1.19216e-20)
(0.00163127 0.00209866 6.01612e-21)
(0.00307868 0.000238602 -1.82152e-20)
(0.00010488 0.00024799 -6.76778e-21)
(0.000389873 0.000274333 4.94601e-21)
(0.00668832 0.00120696 -2.80989e-20)
(0.00147992 -0.000828098 -9.965e-21)
(0.000292512 -0.000533812 -1.8861e-20)
(-7.02386e-05 -0.00137368 -1.79545e-20)
(-0.00104156 -0.000972773 2.43416e-22)
(0.000557853 0.00162221 -5.0974e-21)
(0.00431867 -0.000482314 -1.83631e-21)
(0.000294231 1.18138e-05 -8.99318e-21)
(0.00373631 0.00040226 7.89284e-21)
(0.000202757 5.65683e-06 0)
(0.00346103 -0.000818084 5.71137e-21)
(0.0044327 -0.000895756 5.46425e-21)
(5.7344e-05 -1.33464e-05 0)
(0.00293099 -0.000431215 -2.57864e-21)
(0.000202145 1.8877e-06 0)
(0.00480468 -0.00585758 4.69151e-20)
(0.00729804 0.020169 1.05251e-22)
(0.00266654 0.0020612 0)
(7.89423e-05 -0.00024886 9.05169e-21)
(8.0371e-05 7.73648e-05 -1.09242e-20)
(0.0035685 0.000526298 -1.18809e-21)
(0.000184603 -2.08084e-06 -7.00463e-21)
(-0.000708322 0.00544932 -7.7763e-21)
(0.000737448 0.000215809 -2.42567e-21)
(0.000316481 -0.00368227 2.77342e-20)
(-0.00332046 0.058019 1.75724e-21)
(0.00555237 0.000524464 0)
(0.0014931 0.000341292 -4.14459e-21)
(0.000747012 0.000208139 0)
(5.47695e-05 -7.8052e-05 5.53556e-21)
(0.0099258 0.0806253 1.0771e-21)
(0.00438116 -0.000939799 0)
(-0.000227807 -0.000282386 0)
(0.00156661 0.00144607 0)
(0.000123538 0.000183944 0)
(0.00444698 0.000755904 2.07338e-23)
(7.70597e-05 8.27259e-05 1.10718e-21)
(0.00249059 0.000885493 0)
(-0.000283207 -0.000728036 0)
(0.000541474 -0.000551652 -7.64453e-23)
(0.0030036 -0.00084276 3.1132e-20)
(0.00121336 0.00237924 -1.09011e-20)
(0.00140188 0.00144341 2.05755e-20)
(9.67054e-05 2.63628e-05 -4.74881e-21)
(0.000282759 1.76991e-05 0)
(0.00548757 0.000638469 6.14901e-21)
(9.47056e-05 2.31363e-05 4.77681e-21)
(0.000149636 0.000208037 1.45878e-20)
(0.000482331 9.26854e-05 -3.57426e-21)
(1.40842e-05 0.000110006 4.53137e-21)
(0.000540867 0.00511975 -4.78411e-21)
(0.00704431 0.00123235 -5.26474e-21)
(0.00301767 -0.00122927 0)
(0.00292617 -0.000356986 -2.00962e-20)
(0.00302339 0.000541744 0)
(0.0171556 0.0257082 0)
(0.00117203 0.000240477 7.04104e-21)
(0.00077723 -0.000631995 5.09321e-21)
(0.000166279 8.8747e-05 0)
(0.000375441 0.000276666 1.13225e-20)
(-1.36551e-05 0.000425528 -6.69402e-21)
(4.89239e-05 -6.61712e-06 2.25293e-21)
(0.00699818 0.00123756 -4.21742e-21)
(0.00467603 0.000472822 -4.31053e-21)
(0.00253477 -0.00106967 0)
(0.00617977 0.00105855 -2.1536e-20)
(0.00360516 -0.000634583 0)
(0.00430484 -0.00438588 -4.31209e-20)
(0.00391155 -1.54217e-05 9.16234e-21)
(0.00319791 3.31082e-05 0)
(3.3154e-07 3.83796e-06 0)
(0.00323731 8.69644e-06 0)
(0.000556358 -0.000610384 0)
(0.00269949 0.000149309 -2.46541e-20)
(0.0051745 -0.00148971 0)
(0.0161057 0.0245833 0)
(0.00171712 -0.00186712 0)
(0.00057691 0.000553266 1.76498e-20)
(0.00475522 0.000491811 -9.15205e-21)
(-0.000549897 -0.00142052 0)
(0.00179259 -0.000817816 0)
(0.00025363 -0.00254308 1.42868e-22)
(0.00699363 0.00130402 2.01752e-21)
(0.00306256 2.1245e-05 -5.03255e-23)
(0.000489663 0.000107583 -9.14083e-21)
(0.00414277 0.00142789 -1.60532e-22)
(0.00796953 -0.00833613 -4.47528e-21)
(0.00305397 -8.43241e-05 1.95566e-20)
(0.00125447 -0.00179303 -3.58987e-20)
(0.000372483 -4.4438e-05 -5.14466e-21)
(0.00113856 -0.00209004 3.2233e-20)
(0.00704981 -0.0059459 1.71354e-20)
(0.000511097 -0.000478813 3.89798e-21)
(0.0117411 -0.00517756 2.84803e-20)
(0.000929375 0.00252991 -7.56828e-21)
(0.000212841 -7.67437e-05 2.35561e-21)
(0.000748611 -0.000607534 0)
(-0.000237272 -0.000988004 1.75287e-20)
(6.92047e-05 -2.78259e-05 9.6728e-21)
(0.00122829 -0.000100187 -1.43492e-20)
(0.00703843 0.00126586 1.65173e-20)
(0.000591838 0.000292836 -1.11068e-20)
(0.00686959 0.00125202 3.32404e-20)
(0.00288769 0.000829752 1.24294e-20)
(0.00705738 0.00124835 -5.30398e-22)
(0.0084363 -0.000547622 2.07406e-20)
(7.90063e-05 0.000286739 -5.41141e-22)
(0.0196982 0.0417698 0)
(0.00147141 0.000708767 -8.76454e-21)
(0.000603957 0.00161791 5.20416e-21)
(-0.00863134 -0.00171216 1.07525e-20)
(-8.92638e-06 0.000430382 4.44368e-21)
(0.00167446 -0.00182442 -7.77392e-22)
(0.00604216 0.00176392 -7.25645e-21)
(0.000332762 0.00346987 2.50361e-23)
(0.000376728 0.00028924 -1.1531e-20)
(0.0019677 -0.00013117 0)
(-0.000699096 0.00460651 7.01365e-21)
(0.000539751 0.000646657 1.36967e-20)
(0.000173423 -2.20994e-05 1.88557e-20)
(0.0042647 0.000452828 -6.45176e-22)
(0.00609651 0.000839031 7.42987e-21)
(-0.000208638 0.00210707 -1.1475e-21)
(0.00298103 0.000565778 -8.88418e-22)
(0.00503875 0.000749329 0)
(0.000593262 0.00172344 0)
(0.00429664 -0.0063425 1.26153e-20)
(-0.00350612 -0.00143752 7.39625e-21)
(0.00432941 -0.000312471 0)
(-0.00854521 -0.00175005 -1.17422e-20)
(0.00364112 -0.00119971 -1.06511e-21)
(-0.00498087 -0.00148248 0)
(0.00401319 -0.00296766 -1.4718e-20)
(0.000219892 7.01921e-06 7.12567e-21)
(0.00103389 0.00695042 0)
(2.32599e-05 8.3513e-06 0)
(9.44114e-05 1.15036e-05 -8.84047e-21)
(0.000153571 1.63293e-06 0)
(0.0111452 0.0807439 -1.00228e-21)
(0.00156369 0.00318658 1.13928e-20)
(0.000109441 0.000258942 8.68508e-21)
(0.00609745 0.00182129 1.22725e-20)
(1.2307e-06 3.2595e-05 4.80478e-21)
(0.00460812 -0.00375344 -1.52472e-20)
(0.00243198 -0.000808798 -1.19744e-20)
(-0.000262279 0.0150826 4.37199e-21)
(0.0057739 -0.00391171 0)
(0.00282086 0.00083533 -5.72821e-21)
(0.000275974 0.000354255 -1.26107e-20)
(0.000128545 -0.000416915 6.29176e-21)
(0.000276769 0.000112228 -4.12803e-21)
(-0.00182481 -0.000107599 -5.04072e-21)
(0.00495348 -3.82899e-05 0)
(0.00540563 0.000445753 0)
(2.69912e-07 1.28135e-05 -1.67206e-21)
(0.00299977 -0.000165499 0)
(1.63343e-05 3.95954e-06 -6.8435e-21)
(2.30571e-05 4.35639e-06 -7.09308e-21)
(0.002009 -0.000155597 0)
(0.000191057 -1.62168e-05 0)
(0.00114647 0.000232194 0)
(0.000359077 0.00138225 -2.37891e-21)
(0.00104846 0.00165579 -4.33495e-23)
(5.23358e-07 3.34038e-05 9.85988e-21)
(0.00665163 0.0183044 -1.06159e-20)
(5.76767e-05 -1.12004e-05 -1.65267e-22)
(0.000535832 0.00198319 0)
(-0.0113068 -0.0017651 0)
(0.00453259 -0.00453752 4.52193e-20)
(-0.0095497 -0.0027038 0)
(9.72067e-05 -0.000407391 0)
(0.00291695 -0.000421125 -4.57795e-21)
(0.0265119 0.0743891 7.22512e-22)
(-7.97419e-05 -0.000326896 1.72442e-20)
(-0.00380673 -0.00113573 5.07268e-21)
(0.00265252 0.00105062 -5.05067e-21)
(-0.00449352 -0.00143263 -9.66123e-21)
(0.00462442 0.00071971 0)
(0.00656341 0.00119424 -1.4412e-20)
(6.69053e-05 -2.51987e-05 4.65942e-21)
(0.0015033 -0.000922084 -2.47025e-21)
(-0.000429438 -0.001383 -1.38705e-20)
(0.00294883 -0.000345446 -3.07603e-21)
(0.0034641 -0.00062646 0)
(0.00320653 -0.000408136 0)
(-0.000217573 -0.00141015 2.06438e-20)
(1.73058e-05 0.000221207 -1.4337e-20)
(0.00460445 0.000686986 1.97173e-20)
(0.00958148 0.0501776 -4.22017e-21)
(0.00328358 -0.000414607 -1.63529e-20)
(5.4855e-05 -9.63232e-06 -1.85416e-20)
(0.00166603 0.00324187 6.40878e-23)
(0.000208257 -6.31615e-05 0)
(0.00311934 -0.00147224 0)
(-0.000843445 0.00141706 0)
(0.000427027 0.00190848 0)
(0.00810624 0.0824222 1.05541e-21)
(0.0008829 0.000497812 1.00504e-20)
(0.00173766 -0.00076371 1.92561e-22)
(0.0365555 0.0228878 3.20665e-21)
(-0.000633328 0.00446462 1.07649e-20)
(0.00153153 -0.000945708 0)
(0.000165309 -3.59436e-05 2.90083e-21)
(0.00357279 -0.00121638 2.29942e-22)
(0.00584435 0.0018573 -1.31777e-20)
(0.00241265 -0.000779877 2.31962e-20)
(5.54436e-05 -0.000256234 8.68698e-21)
(0.00693733 -0.00540261 -2.88704e-20)
(0.00895844 0.00213903 -6.94597e-21)
(0.00235065 0.00214995 0)
(0.000316732 -0.00242223 -1.05402e-20)
(0.00470104 -8.44067e-05 2.81568e-24)
(2.06941e-05 0.000140005 3.98806e-23)
(9.60879e-07 1.94871e-05 1.01109e-20)
(-0.000418313 0.00547566 0)
(0.00239484 0.00151071 -3.2835e-22)
(0.00463245 0.000636239 -1.52409e-20)
(-0.000406649 0.004751 0)
(0.00303439 -0.000447357 2.9481e-20)
(0.00293889 -0.000355619 -1.05621e-20)
(0.00699308 0.00120868 0)
(0.000581867 0.000330607 -1.21099e-20)
(0.00180856 -1.50048e-05 -1.35323e-20)
(0.00240755 0.000821123 0)
(0.0066629 0.00125195 -3.13844e-21)
(0.000715827 -0.00147865 2.3049e-20)
(0.00436593 -0.00606579 -2.70688e-20)
(0.00553581 0.00063905 6.97593e-21)
(0.00106574 0.00159878 -1.16451e-20)
(0.00521336 0.00193958 -7.6707e-21)
(0.000176624 -2.66854e-05 -1.76876e-20)
(1.72166e-05 0.000126422 0)
(0.000608645 0.000280521 0)
(0.000400113 0.00212411 -5.32232e-21)
(2.04252e-06 0.000223575 0)
(-0.000530774 0.00549902 5.70943e-21)
(0.0027302 -0.000532185 7.55777e-21)
(0.00121532 -0.00106454 -8.46251e-21)
(0.00477792 0.00146464 1.05698e-21)
(0.00462668 -0.00284929 -4.31898e-21)
(-0.00558623 -0.000324459 7.10974e-21)
(0.00404497 0.00392237 8.01898e-21)
(0.0018465 0.00307629 5.91644e-21)
(0.00396692 0.000359231 1.30192e-21)
(0.00289604 -0.000306458 -3.89884e-21)
(0.000258775 0.000732642 5.60367e-21)
(6.21914e-05 -2.07947e-05 7.50384e-21)
(0.00295077 -0.000361249 0)
(0.00236082 0.0235473 0)
(0.00208156 0.00100774 2.09486e-21)
(0.00301999 -0.00139878 -1.21879e-20)
(0.000457302 0.00495185 -5.23343e-21)
(0.000396213 -0.00242136 2.28779e-20)
(0.00153201 -0.0010498 9.74535e-21)
(0.000526878 0.000501936 0)
(0.0106031 0.00986304 -8.73592e-21)
(0.000598623 0.000198918 9.87792e-21)
(0.00301912 -0.00032121 0)
(0.00381089 -0.00044268 2.13372e-20)
(0.000213913 8.4095e-06 -1.79275e-20)
(0.00762077 0.0169986 0)
(-0.000198658 0.00216436 -3.24549e-21)
(-0.0021138 -0.000884956 3.05305e-21)
(-0.000156882 -0.00142072 0)
(0.00034638 -0.000440955 0)
(0.000159939 5.17904e-06 0)