/*--------------------------------*- C++ -*----------------------------------*\
| =========                 |                                                 |
| \\      /  F ield         | OpenFOAM: The Open Source CFD Toolbox           |
|  \\    /   O peration     | Version:  v2012                                 |
|   \\  /    A nd           | Website:  www.openfoam.com                      |
|    \\/     M anipulation  |                                                 |
\*---------------------------------------------------------------------------*/
FoamFile
{
    version     2.0;
    format      ascii;
    class       volScalarField;
    location    "250";
    object      k_0;
}
// * * * * * * * * * * * * * * * * * * * * * * * * * * * * * * * * * * * * * //

dimensions      [0 2 -2 0 0 0 0];


internalField   nonuniform List<scalar> 
18232
(
0.011923
9.08741e-05
0.000103135
0.000109655
0.000115503
0.000257633
0.000110839
0.000134425
0.000114194
0.000114467
0.000108677
0.000105702
0.00011092
0.0108899
0.000109154
0.00263454
0.000124455
0.00014127
0.0001109
0.000150992
0.000486354
0.000104733
0.000108792
0.000101506
0.000108187
0.000108392
0.000104168
0.000256505
0.000141781
0.000103517
0.000147552
0.0417139
0.000130584
0.0489703
0.0306857
0.000266319
0.0119563
0.000133712
0.0166852
0.000147191
0.0292154
0.000101655
0.000125004
0.0167631
0.000115603
0.019976
9.03166e-05
0.000101775
0.000166779
9.24076e-05
0.000121686
0.000138775
0.0248678
0.000101134
0.00011253
0.000171609
0.000125284
0.000126074
0.0905866
9.26996e-05
0.000108988
0.000114843
0.000101888
0.00010985
0.000120257
9.57737e-05
0.0198392
0.0435056
0.000103962
0.000102197
0.00012483
0.000109022
0.0414152
0.00303647
0.000116179
0.000909988
0.000104109
0.000109231
0.0134444
0.000106173
0.0452975
0.00011343
0.000101882
9.95297e-05
0.0227929
0.000170944
0.000104541
0.000111042
0.000112629
0.00010917
0.000111421
0.000103488
0.00014604
0.000163796
0.000111682
0.000102225
0.000115195
0.000105839
0.0129782
9.90883e-05
0.000112982
0.000100763
0.00350687
0.000114911
0.000240537
0.000106281
0.000103685
0.000150322
0.000138188
0.000101752
9.59275e-05
0.00124942
9.32057e-05
0.000111093
0.000122117
9.90972e-05
0.000113057
0.0208757
0.000108754
9.89641e-05
0.00012314
0.000133206
0.00442565
0.00036992
0.0102878
0.000123152
0.000182548
9.45134e-05
0.000447195
0.00125354
0.000102569
0.000105087
0.000108731
9.32072e-05
0.0283566
0.000730441
0.000172491
0.000143873
9.23479e-05
0.01803
0.000111525
0.000106398
0.0643084
0.000115962
0.000106865
0.000105683
0.000108378
0.000147905
0.0288742
0.000138805
0.0114483
0.000101432
0.00011551
0.000103983
0.000108556
0.0331405
0.000317038
0.000118887
0.000238025
9.25508e-05
9.10932e-05
9.29574e-05
0.000103879
0.0224616
0.0385342
0.000116853
0.00013076
0.0640384
0.000107867
0.0225261
0.0001018
0.00013535
0.000102857
0.000104796
0.000106935
0.0117431
9.94272e-05
0.000147689
0.0291636
0.000123237
0.00015605
0.0163165
0.000109603
0.00347746
0.0107822
0.000149294
9.82373e-05
0.0257489
0.00014619
0.0249981
0.000107242
0.000109114
0.000114413
0.0260503
0.00011649
0.000104476
9.30831e-05
0.000109526
0.000100341
9.88922e-05
0.000147608
0.000100987
0.000113936
0.0007897
0.000145431
0.0319375
0.000662033
0.0451629
0.000138541
0.000104146
0.00010249
0.000108444
0.000112286
0.0077623
0.00397816
0.000100982
0.0001167
0.000103257
0.000104074
0.000106123
0.0282956
9.28983e-05
0.0514803
0.000101735
0.000100096
0.000102053
0.000141681
0.000101308
0.000123699
0.000132888
0.000114911
0.000107958
0.0651729
0.000286752
0.000130263
0.020787
0.000109794
0.000216664
9.21089e-05
0.000136413
0.000114763
0.0134152
0.000215466
0.000111984
0.0150193
0.0243315
0.000145839
0.0702523
0.0398317
0.000103899
0.00018254
0.000182386
9.79872e-05
0.000138047
0.000104806
0.00222955
0.00204996
0.052629
0.0165919
0.000160391
9.99894e-05
0.000100971
0.000142268
0.000147037
9.62934e-05
0.000144466
0.0177212
0.000233498
0.00018107
0.000481927
0.000105158
0.0534166
0.000177356
0.000109254
9.78273e-05
0.0255241
0.000101188
0.000109877
0.000135254
0.0103247
0.0186104
9.9082e-05
9.28423e-05
0.0223082
0.000177092
0.000109951
0.000106142
0.0188233
0.000102584
0.000111779
0.000108764
0.000104355
0.0268618
0.000106192
0.000101691
0.000466199
0.0226985
9.21968e-05
0.000114681
0.000102628
9.54416e-05
0.000138498
0.0284518
0.00018067
0.0001396
0.000125837
0.00012317
9.82836e-05
0.000125432
0.0248224
0.000112227
0.000121617
0.000140573
0.00010425
9.28814e-05
0.000106873
0.0235068
9.3795e-05
0.0191752
0.000123577
0.0108156
9.92221e-05
0.000118472
0.000577928
0.00011144
9.61596e-05
0.000151884
9.92351e-05
9.81635e-05
0.000102553
0.000100831
0.000112797
0.000117134
0.0751571
0.000154985
0.0339067
0.000523449
0.038105
0.000104283
0.000103569
0.00013345
0.000503058
0.000146728
9.14397e-05
9.42538e-05
0.000143918
0.0232702
0.000105625
0.000123119
0.000109864
0.00282202
0.000111114
0.000111188
9.66476e-05
0.000104199
0.000106195
0.000171926
0.0212226
0.000131888
0.000122559
0.000942924
0.000122288
0.0818276
0.000109732
0.0170396
0.000107211
0.000128942
0.0204489
0.000106151
0.0374458
0.000402499
0.000296173
9.12122e-05
0.0469415
9.89685e-05
9.93745e-05
9.32376e-05
0.000109456
0.001873
0.0101346
0.000106981
0.000104119
0.000147651
0.000106554
0.0434098
9.7737e-05
0.000113378
0.000108786
0.000115652
0.000102701
0.000113898
0.000148351
0.0292196
9.80366e-05
0.0123929
0.000103858
0.00237882
0.000109955
0.000953668
0.000110367
0.000320419
0.003437
0.000136828
0.0886861
0.000104014
0.000132365
0.000107842
0.000137647
0.000121934
0.000220636
0.0108186
0.054803
9.81825e-05
9.93469e-05
0.0108774
0.000181935
0.000118748
0.000144147
0.0180251
0.000109294
0.000103447
0.000133889
0.000107209
9.91484e-05
0.0133259
0.000130658
0.000116301
0.000106392
0.000128982
0.000149511
9.4784e-05
0.000166706
0.0236803
0.000110045
0.000116141
0.000122767
0.00012309
0.000132426
9.38367e-05
0.000109999
0.000112926
0.00016242
0.0299846
0.000119865
9.85051e-05
0.000118345
0.000105748
0.000106549
0.000113788
0.0001259
0.0298191
0.000105617
9.38429e-05
0.000121874
0.00155708
0.000108638
0.0401706
0.000144866
0.000170112
0.000106345
9.91146e-05
0.000201776
0.000105578
0.000916341
9.99687e-05
0.000116685
9.91954e-05
0.00010441
0.000110315
0.000106498
0.00011909
0.0270361
0.000133104
0.00018376
0.000150151
0.000131945
9.34218e-05
0.000295501
0.0314703
9.99626e-05
0.00014082
9.44414e-05
0.000123009
0.000107462
0.000144704
0.000119902
9.87686e-05
0.000100098
0.0197823
9.77012e-05
0.000125462
0.000240308
0.000108188
9.93561e-05
0.00013037
0.000128608
9.9878e-05
0.000371528
0.00223801
0.000125921
0.000110317
9.62626e-05
0.000107875
0.000208126
0.0236152
0.000156527
0.000117349
0.000102877
0.000111332
9.85251e-05
0.021222
0.000105406
9.9515e-05
0.0126625
9.52894e-05
0.000117163
0.00011358
0.000124376
9.89149e-05
9.79382e-05
0.000107959
9.6119e-05
0.000107985
0.0733902
0.0168987
9.81829e-05
9.6335e-05
0.000116221
0.000101801
0.0212323
0.000126238
0.000168922
0.000216331
0.000130623
0.0361137
0.000110464
0.00109561
0.000115846
0.0323691
0.000193489
0.000108995
0.000113359
0.000111015
9.41752e-05
0.000126901
0.000165228
0.016215
0.000108481
0.000108168
0.000151558
0.000120247
9.85003e-05
9.87972e-05
0.0001249
0.0200461
0.0246738
9.67511e-05
9.37838e-05
0.000116476
0.00102663
0.0231877
0.000147622
0.000193384
0.000139897
0.000617611
0.00012004
9.97929e-05
0.00276895
0.0016749
0.000143301
0.000124426
0.000109328
0.0132387
9.879e-05
9.7837e-05
9.37197e-05
0.0822745
0.000108209
0.0205882
0.000104656
0.0274331
0.000116417
0.0205179
0.000118225
0.000112428
0.000126828
0.000116599
0.000101761
0.00948416
0.0178863
9.83986e-05
0.00012795
0.000214421
0.000104988
0.0599035
0.000103737
9.39905e-05
0.0429708
0.0278061
0.000102763
0.000103571
0.00010007
0.0616052
0.00011703
9.20402e-05
0.000111316
0.000126787
0.0152327
0.00012841
0.000119567
9.29926e-05
9.8911e-05
0.000108769
0.00013434
0.000109736
0.000123493
0.00010496
0.0291597
0.00012356
0.000115346
0.000104597
0.000140326
0.00586488
0.0154307
0.000104436
0.000147474
0.000137725
0.0515139
0.000102145
9.8725e-05
0.000118282
0.000109803
0.000130198
0.000109836
0.016566
0.0312097
0.0404781
0.016212
0.0274068
0.000101239
0.000178272
0.000682001
0.000147254
0.000478726
9.85083e-05
0.000117512
0.000113811
0.0523618
9.70678e-05
0.000106762
0.0311364
9.22934e-05
9.96933e-05
9.38267e-05
0.0128361
0.000144519
0.000104803
0.000422063
0.000107919
0.00265722
9.62587e-05
0.000103097
9.56676e-05
0.000106968
9.92837e-05
0.000121503
0.000135675
0.000102751
9.88691e-05
9.3387e-05
0.000114061
0.0337397
0.0138594
0.000105219
0.0136033
0.000133691
0.0159722
0.000132664
0.000125004
0.056608
0.000104271
0.000108106
0.0229382
0.000130496
9.70635e-05
0.0126591
0.000297394
0.000109656
0.000102691
0.0334609
0.000107222
0.000111706
0.0053753
0.020531
0.000116786
0.000135751
0.0205309
0.000109611
0.000100738
0.0953495
0.000137327
0.0256859
0.00010887
0.0771431
0.000102255
0.000114956
0.0119409
0.000136595
0.000122645
0.000109043
0.06117
0.000240271
0.000125261
0.0126591
0.000146464
0.000102691
0.00010293
0.0153138
0.000105857
0.000130565
0.000111759
9.7608e-05
0.000112514
0.0416322
0.000146605
0.0260648
0.000147016
0.000349049
0.000138182
0.000136552
0.000102884
0.000104276
0.00010229
0.000107086
0.00010997
0.000147034
0.0094047
0.000109992
0.000113752
0.011649
0.000101614
0.0258736
9.76128e-05
0.000415484
0.0542599
9.45428e-05
0.0638587
0.000126769
0.076252
0.000422769
0.0119474
0.000113827
9.85993e-05
9.25834e-05
0.000171019
0.034024
0.000345346
9.31558e-05
0.000139562
0.0218944
0.0506864
0.000420621
0.000113137
0.000245349
0.000102962
0.000103463
0.0452421
0.000111473
0.0648183
0.000104046
9.96553e-05
0.0468834
0.0336822
9.85078e-05
0.000112685
0.000108174
0.0124739
0.000102957
9.78987e-05
0.000106947
0.000182669
0.000154449
9.40023e-05
0.000148015
0.000139466
0.000146571
0.0638989
0.00012909
0.0251302
0.00914901
0.000129352
0.000152865
0.0126984
0.000105734
0.000102362
0.000116082
0.0137628
9.5765e-05
0.00010107
0.0291873
0.000109775
0.0116666
0.000112163
0.000139857
0.000105126
0.000116858
0.00011616
0.0683688
0.000110086
9.77956e-05
0.01059
0.000104452
0.108681
0.021333
0.0002256
0.00416887
0.000385204
0.00010944
0.000112154
0.000165223
0.0281975
0.00011197
0.000103324
0.00481458
9.40803e-05
9.82829e-05
0.000107491
0.0304162
0.000104398
0.00362434
0.000130799
0.000115627
0.00886604
0.000118143
0.0546426
9.34195e-05
9.87846e-05
0.000108412
0.000611594
0.000106909
0.00010097
0.000118062
0.0551646
0.000107136
0.00255575
0.0001226
9.69215e-05
0.000112991
0.000100621
0.000146363
0.00010331
0.000107491
0.025815
0.0653799
0.000109235
0.00466795
0.00013403
0.000106511
9.95375e-05
0.000139166
9.95401e-05
0.000118966
0.000114899
9.82303e-05
0.000146955
0.000110503
0.000115877
0.000145342
0.098294
0.000154606
0.000140532
0.00011364
0.0034919
0.0330534
9.81614e-05
0.0113093
0.00751571
0.000105353
0.00012718
0.0117216
0.0104555
0.000156203
0.00013556
0.000419603
0.000111113
0.0160501
0.0934906
0.0129661
9.86069e-05
9.6673e-05
0.000872929
0.000130889
0.00014723
0.000114909
0.000137014
0.000325702
0.000100153
0.000128906
9.78984e-05
0.000108177
0.000147689
0.0125661
0.000331588
0.000106637
9.79939e-05
0.0609199
9.85018e-05
0.050728
0.000123914
0.000126722
0.00885618
9.54781e-05
0.000109537
0.00011343
0.000100456
0.000118554
0.000136142
0.0299936
0.000126933
0.000133951
9.98665e-05
0.000113679
0.0316776
9.94493e-05
9.83582e-05
9.32638e-05
0.000146685
0.000251053
0.000113248
0.00700527
0.00875837
0.000109391
0.000140096
9.65324e-05
0.000103199
0.000118848
9.18579e-05
0.000147899
0.000174667
0.000108982
9.68961e-05
0.000127081
0.000128984
0.000139483
0.000117836
0.0130999
0.00633366
0.000285241
0.00011294
0.000375686
0.000107146
0.000133634
0.0652499
0.0652261
0.000102861
0.000115316
0.000343454
0.0364003
0.000113079
0.000112593
0.0522785
0.0127509
9.79273e-05
0.000114467
9.25807e-05
0.0105542
0.000138239
0.000149399
0.000378718
0.024776
0.0191143
0.000134916
0.000187151
9.3123e-05
9.96129e-05
0.000120676
9.60886e-05
0.000676879
0.000116007
0.0426643
0.000101166
0.00115621
0.0143147
0.00010567
0.000392726
9.25362e-05
0.000107398
0.000119867
0.00013472
0.000145638
0.000113851
0.000102491
0.0116835
0.000101413
0.027532
0.000129471
0.000109786
0.000110972
0.00012825
0.000108965
0.0100515
0.000117626
0.000161541
0.00011118
0.014117
0.016329
0.000645339
0.00017143
0.0118762
0.000128894
0.0416306
0.000100864
9.37143e-05
0.000216884
0.0221669
0.0346401
9.71404e-05
9.68927e-05
0.000445831
0.000146297
0.000560723
0.000102849
0.0135312
9.43412e-05
0.000128471
0.000105562
0.00135444
0.000145864
0.000102621
0.000144831
0.000113591
0.000254976
0.0340096
0.000115063
0.000104412
9.93945e-05
9.61357e-05
0.000105183
9.23515e-05
0.000102746
0.000194608
0.000104124
0.0129084
0.000106581
0.000129498
0.000101094
9.81132e-05
0.0551968
0.000102089
0.000109882
0.00568763
0.0328656
0.0433749
0.082927
0.0737722
0.000103764
0.000112381
0.000146958
0.000104013
0.000112477
0.00032116
0.0204374
0.000213463
0.00011786
0.000111856
0.0388315
0.0213627
0.000122677
9.58162e-05
0.017288
0.000713667
0.000103915
0.000109704
9.20121e-05
0.000113669
0.00010291
0.011848
0.000100587
0.0444954
9.32416e-05
0.000105507
0.0315456
0.00110934
0.000103918
0.000103987
0.000101087
0.000109982
0.000111007
0.000141408
9.3213e-05
9.49123e-05
0.000109337
0.0151454
0.000126256
0.000112139
0.00197783
0.00010141
0.000111089
9.11814e-05
0.000116748
0.000275008
0.000104771
9.79372e-05
0.000104033
0.000143953
0.000105892
0.000107183
0.000101551
0.000106092
0.000119323
0.000115834
0.00133642
9.54768e-05
9.8446e-05
0.000125761
9.53093e-05
0.000112133
0.0133337
0.000101793
0.0581868
0.000110511
9.80896e-05
0.000128916
0.000134115
0.0489528
9.967e-05
0.000147697
0.0367146
0.0163808
9.83454e-05
0.000110785
0.000102952
0.0518904
0.000342361
9.47603e-05
9.2202e-05
0.000103989
0.0575429
9.63474e-05
0.0100675
0.02193
9.30084e-05
0.000110617
0.000148486
0.0577107
0.000108237
0.000117205
0.000131356
0.000163883
0.0317812
0.000111485
0.000253287
0.0324576
0.0430238
0.000124809
0.000147319
0.000902153
0.0901967
0.000118303
0.000167399
9.23235e-05
0.000142294
0.000114259
0.000114402
0.000107734
0.0405206
0.000147854
0.000107685
0.000100942
0.000118243
0.00212475
9.80833e-05
0.000172317
9.86906e-05
9.87889e-05
0.00370205
0.000146235
0.000104113
0.000109618
0.000117213
9.54773e-05
0.000110136
0.0137021
0.000173787
0.000135948
0.000106048
0.000310783
9.07831e-05
0.000100991
0.0295324
0.0125272
0.000114961
0.000101313
0.000117592
0.00010675
0.000110757
0.000107521
0.000143451
0.000115078
0.000103396
9.14802e-05
0.000108273
0.00063085
0.108028
0.000145283
0.00157986
9.96891e-05
0.000139001
9.80391e-05
0.000119354
0.00010387
0.000106031
0.0401547
0.000128123
0.000104397
0.000355901
0.000119663
9.47842e-05
0.000107014
0.0692052
0.000111369
0.000108311
9.80199e-05
0.000163772
9.13209e-05
0.000104084
0.00110588
9.92839e-05
0.000139739
9.90973e-05
0.000103304
0.000104144
9.70793e-05
0.000102836
0.0163668
0.000123817
0.000135636
9.48343e-05
0.000101342
9.23519e-05
0.000105948
0.000110171
0.000108633
9.3372e-05
0.000177167
0.0273993
0.0142878
9.67074e-05
0.000130804
0.000107728
0.0326179
0.000103882
0.000114126
0.000105804
0.000202753
0.000148693
0.0222165
0.000110464
0.0646569
0.042638
0.0119035
0.102311
0.0735503
0.000112985
0.000114343
0.000110863
0.000121767
9.64406e-05
0.000114483
0.000135834
0.00143138
0.000887646
0.000101089
0.000101034
0.000124982
0.000582103
9.06234e-05
0.000104395
0.0314327
0.000411144
0.0314084
0.000140085
0.000116929
0.0248296
0.0934017
9.41735e-05
0.000101651
0.00211668
0.000286318
0.000162488
9.97845e-05
9.64843e-05
0.000112675
0.000146303
0.00010039
0.0923197
0.000127814
0.000136994
0.0522694
0.000147805
0.000102257
0.000118317
0.000124575
9.66121e-05
0.000319568
0.000107217
0.000103592
0.000100664
0.0235549
0.000102875
0.000101658
9.37741e-05
0.000155586
0.00117422
0.000109404
0.000106552
0.000105963
0.000274153
0.0166529
0.000100717
0.000111719
0.000147786
0.019329
9.94762e-05
0.000112646
0.000100066
0.000149359
0.000103898
9.49539e-05
0.000114056
0.0304112
0.00443757
0.00230002
0.000109837
0.0162188
0.000129492
0.0204562
0.000124928
0.00013083
9.46429e-05
0.000110324
9.32646e-05
0.0499938
9.60899e-05
9.4437e-05
0.000100239
0.000116116
0.0280497
0.000109726
0.000142886
0.000102617
0.000236007
0.000141478
0.000501741
0.000107525
9.63463e-05
0.000158174
0.00046447
0.0191001
0.0490558
0.000112255
0.0278102
9.57316e-05
0.000111692
0.000120005
0.0017745
9.14006e-05
0.0999268
0.00205389
0.000124019
0.0602047
0.000102277
0.000101949
0.000103568
0.000174213
0.00012051
0.000136188
0.000106498
0.000125872
9.95828e-05
0.00010054
0.000102814
0.000130462
0.000110331
0.0373415
0.01755
9.55459e-05
0.00830438
0.000843412
0.0638714
0.000104271
0.000122383
0.000112787
9.80289e-05
0.000118247
0.00013674
0.000102947
9.42524e-05
0.000147106
0.000104499
0.000117911
0.00012982
9.41563e-05
0.000103357
0.000100461
0.000107337
0.000146209
9.94852e-05
0.000101007
0.0141789
0.00012908
0.000105295
0.0053505
0.000101926
0.0157958
0.0527699
0.0188046
0.000107783
0.000101877
0.000111445
9.92342e-05
0.000114797
0.00011384
0.0001069
0.000109821
0.0589275
0.000111632
9.36103e-05
0.0322615
0.0309834
0.000105727
0.000555695
0.000163786
0.000100548
0.000139126
0.000302521
0.000108653
0.000101409
0.000129263
0.000114496
0.000107082
0.0154996
9.66568e-05
0.000148801
0.000119022
9.05434e-05
0.0463881
0.000109387
0.000118492
0.000111652
0.0173838
0.000114628
0.000102856
0.0870887
0.000113562
0.000104399
0.0278962
0.00012292
0.00234009
0.000141795
0.000107816
0.000120959
0.000449999
0.110104
0.000132408
0.000146259
9.18742e-05
0.000127407
0.0280978
0.000106414
0.000107458
0.000654341
0.0186442
9.53909e-05
0.000270415
0.000100831
0.000117547
0.000104379
0.010676
0.0267362
0.000122786
0.00132144
0.0119186
9.92025e-05
0.0136013
0.000103419
0.0349612
0.0564111
0.000113232
0.000120514
0.0403781
0.0167448
0.000107465
0.045689
0.00147792
0.00601257
0.000114929
0.000115368
0.000109084
0.000846034
0.000147723
9.3485e-05
0.000110176
0.0518674
9.36045e-05
0.0568862
0.000109647
0.000101677
0.000115808
0.0108669
0.0193684
0.000106983
9.91111e-05
0.000892006
0.000103675
0.000104441
9.35446e-05
0.000104372
0.0412776
0.000106768
0.000112365
0.000135902
0.000113161
0.000100654
0.000261831
0.000162868
0.000106058
0.000140578
0.000114462
9.90238e-05
0.000105784
9.95583e-05
0.000110552
9.14634e-05
0.000139871
0.0307961
0.000288807
0.000101157
0.000111513
0.000653484
0.000101504
0.00180545
0.000110038
0.000175702
0.000157206
0.000100153
0.00010701
0.000131192
0.000106059
0.000107037
0.0107905
0.0205916
0.000106332
9.17511e-05
0.000107664
0.000110039
0.000106877
0.000107873
0.000274735
0.0390949
9.31831e-05
0.022799
0.000112774
0.000106337
0.000252078
0.000103454
0.000126694
0.000101155
0.000105817
0.000141039
0.00026543
0.00011469
0.0139071
0.000128444
9.62255e-05
0.0347423
9.75273e-05
0.0261524
0.0730348
0.0013597
9.15299e-05
0.000133424
0.000107832
0.0402204
0.000100553
0.000484796
0.0598525
0.00032737
0.00290624
0.000111645
0.000103787
0.000115435
9.92269e-05
9.11842e-05
0.000132127
0.000107241
0.000133616
0.000100574
0.000146295
0.032227
0.000111579
0.000122386
0.000108126
0.000100888
0.00758232
0.0278991
0.000107971
9.62883e-05
0.000117539
0.00086587
0.000100622
0.0657253
0.00010694
0.000131906
0.000114367
0.0156323
0.000100691
0.000116799
0.000143472
0.000113382
0.00352327
9.68258e-05
0.000103388
9.80591e-05
0.000147796
0.000125545
0.000108151
0.000190427
0.000223014
0.000589839
0.000143482
0.000130111
9.66334e-05
0.000135153
0.000105834
0.000118419
0.000116723
0.0223004
0.0615105
0.000103788
0.00710299
0.0111255
0.00011116
0.00012726
0.000110681
0.000123139
0.0392918
0.000138689
0.000108225
0.000290389
0.000125904
0.00429347
0.000159078
0.00011419
9.76512e-05
0.000134043
0.0483714
0.000105635
0.0135078
0.000157226
0.0259232
0.0362977
0.000103251
0.0243138
0.000148233
0.00510274
9.32206e-05
0.000681296
0.0587875
9.30447e-05
0.000110243
0.000102986
0.016041
0.000138561
0.000103933
0.000111073
0.000339327
0.000167233
0.000125281
9.93262e-05
9.30925e-05
0.0670255
0.000345627
0.000106808
0.0109361
0.00014589
0.0126693
0.000291185
0.000100861
0.000157543
0.000125835
0.000113795
0.00375029
0.000112293
9.18359e-05
0.000111033
0.000118798
0.000117852
0.000130181
9.89283e-05
9.89533e-05
0.000134053
0.000118773
0.000287528
0.000135114
0.000114287
0.00107604
0.000145669
9.6312e-05
9.76274e-05
0.00032045
9.67029e-05
0.000113855
0.0089124
0.00025237
0.000869716
0.00261239
0.000129486
0.000125225
0.0111321
0.000107389
9.79689e-05
0.000385729
0.000100288
9.61388e-05
0.000135286
0.000137789
9.76225e-05
0.000101887
0.000302021
0.000112845
0.000105608
0.00010773
0.0114
0.000103999
0.000100876
0.0371328
0.000116496
0.000254007
9.11549e-05
0.000526111
0.00178631
0.0175258
0.000117146
0.000102907
0.000190661
9.65022e-05
0.000100849
0.0729438
0.000102319
0.00016848
0.000108062
0.00011553
0.000613925
0.000100726
0.000101653
0.0465294
0.000100543
0.000138121
0.000106483
0.0325458
0.0357082
0.000117181
0.000145692
0.000119124
0.000118147
0.000101152
0.000153319
0.0330985
0.00014138
0.00011432
0.000342026
0.000100135
9.37359e-05
0.000507096
0.0684544
0.0399579
0.000101239
0.000123066
0.000101182
9.19502e-05
9.80792e-05
0.000131319
0.000415664
0.00010873
0.0166751
0.0142597
0.000123174
0.042576
0.000109849
0.000102177
0.000107173
0.000514053
0.000111211
0.000100828
0.000840649
0.00178544
0.000149015
0.00010319
0.000337339
0.000100006
0.0108301
0.000102864
0.000108168
0.0512245
0.000103122
0.00024223
0.000102816
0.000147357
0.044601
0.000457192
0.0132673
0.0125283
0.000105866
9.22448e-05
0.000119705
9.71394e-05
0.00010748
0.0190812
0.000167908
9.57108e-05
0.000106827
0.000121186
0.000101484
0.0003863
0.000180623
9.76046e-05
0.000100489
9.62395e-05
9.99426e-05
0.000431851
0.000106579
0.000457733
0.0161323
0.000107588
0.000188366
0.00012345
0.000316374
0.0503168
0.0002845
0.0366776
0.00029748
9.17371e-05
0.0778743
9.74026e-05
0.0378831
0.000278624
0.000106983
0.000120691
0.00010433
0.0229831
0.000110829
9.15193e-05
0.000109934
0.000103945
0.000110428
0.000111214
0.000119184
9.77447e-05
9.76821e-05
0.0476437
0.0333853
0.00231637
0.000130027
0.006189
0.0118621
0.017935
0.000119154
0.0813308
0.000391715
0.0117515
0.000111915
0.000103879
0.00033969
0.000133594
0.0301494
0.000120574
0.0595833
0.00010996
0.00010267
0.000110257
0.000115808
9.72296e-05
0.000129212
0.000114461
0.0244761
0.000120566
0.000103119
0.000113464
0.000117132
0.000421742
0.000389223
0.000189882
0.0117469
0.000444886
0.00011872
0.0386568
0.0071008
0.0398238
0.000126123
0.000104249
0.000102526
0.000147257
0.000125399
0.000101145
0.000307857
9.59803e-05
0.00014028
0.0249122
0.00012714
0.000131126
0.000180915
0.00010822
0.000107296
0.000549904
0.000113896
0.000110959
9.67521e-05
0.000122729
0.00012857
0.0683466
0.0841926
0.000157206
0.000135416
0.0121407
0.0591718
0.000110564
0.0431857
0.0022653
0.000141572
0.000186343
0.000144438
0.0457614
0.000115318
0.000132501
0.0241073
0.0120954
9.23338e-05
0.0135213
0.000142429
9.89261e-05
0.00474829
0.000101402
0.0462411
0.000104467
0.000276178
9.56664e-05
0.000147621
0.000111339
0.000144648
0.000131837
0.00327434
0.000118259
0.102778
0.000118767
0.0160489
0.000487343
0.000140071
9.55524e-05
0.0253345
0.000109559
0.0113055
0.000110562
0.0198487
0.000188157
0.00170637
0.000161819
0.0144648
0.000110952
0.0138237
0.000304877
0.000138222
0.000341916
0.000108777
0.000230428
0.103899
9.13518e-05
0.000107591
0.000109607
0.000112951
0.00049023
0.033139
0.000146175
0.000192227
0.000105274
0.054033
0.000114985
0.000121128
9.59312e-05
9.49951e-05
0.0216929
0.000401559
0.00519353
0.000107813
0.000122273
0.00818918
0.000138668
0.00010161
0.00013469
0.000116011
0.000124105
0.000100035
9.02018e-05
9.00984e-05
0.000104657
0.0563029
0.000362977
0.000114218
0.0351723
0.000108616
0.00011949
0.00010029
9.83275e-05
0.0172662
0.000106766
0.057206
9.94908e-05
0.000178174
0.000136265
9.43294e-05
0.000104866
0.000520797
0.000116314
0.000133682
0.000100738
0.000120663
0.000116496
0.000141367
0.0155756
0.000164886
0.00998853
0.064197
0.000108214
0.0153515
0.000176203
0.000100264
9.64201e-05
0.000110671
0.00951238
9.24699e-05
0.000119311
0.000105507
0.000101604
0.000116335
0.00748527
0.000110406
9.62939e-05
0.000129538
0.000108114
0.00010915
0.000107321
0.0001143
9.14609e-05
9.05115e-05
0.00011774
0.000105827
0.000101145
0.0204331
0.000103718
0.000480008
0.000140668
0.000119576
0.000103766
0.000101781
9.81814e-05
0.000138136
0.03555
0.000126143
0.000107258
0.000175819
0.0377251
0.000985139
0.000107442
0.000158509
0.000115184
0.0134012
0.0538982
0.000695429
0.000114767
0.0636414
0.00011194
9.82839e-05
0.000200515
0.000108403
0.0461286
0.000120219
0.00010227
0.000104409
0.000103493
0.0249191
0.0199481
0.000103978
9.50981e-05
0.00053445
0.010187
0.0555904
0.000119603
0.000412705
0.000110697
0.0017707
0.000103119
0.0138732
0.000161619
9.94982e-05
9.07924e-05
0.000167919
0.102147
0.000120416
0.000134269
0.039724
9.83121e-05
0.000107796
0.000112346
0.000107364
0.000110818
0.0137993
9.16305e-05
0.000108104
0.000116013
0.000111415
0.00130262
0.000118168
0.00208406
0.0208755
0.000135591
0.0431171
9.49633e-05
0.0384898
0.000109528
0.000101561
9.63835e-05
0.0605625
9.99096e-05
0.000100413
0.000107463
0.080296
0.000107198
0.000106736
0.00017655
9.80214e-05
0.00011081
9.02471e-05
9.92232e-05
0.0295263
0.000116284
0.000129406
0.024099
0.000107041
0.0183187
9.91103e-05
0.000101234
0.0107639
0.000113756
0.000140195
0.000118967
9.64537e-05
0.000147624
0.00010188
0.0208926
9.77335e-05
0.000128307
0.000143349
0.057996
0.00010483
0.000107851
9.13773e-05
9.58793e-05
0.000111228
0.000112634
0.000107923
0.00051339
0.000141679
0.0581139
0.000167742
9.61783e-05
0.000115275
0.0229474
0.0001024
0.000464556
0.000109194
0.000131307
0.000124082
0.0213601
0.0655287
0.0225213
0.000119951
0.000131649
9.79772e-05
0.01218
0.000133875
0.000325511
0.000107264
0.000207871
0.000151755
0.0123641
9.56041e-05
0.000102881
0.0186544
0.000109518
0.022463
0.000173279
0.000122074
0.000109255
0.000102875
0.00011149
0.0234702
0.000109344
0.000133964
0.000130855
0.0292402
0.0160388
0.00011078
0.000101653
0.0382026
0.000111344
0.000104895
0.0122862
0.0167371
0.000142737
0.0172936
9.82237e-05
9.39569e-05
0.0111231
0.000258636
0.000192567
9.68931e-05
0.000105977
0.00062499
0.000106522
9.15294e-05
0.000107221
9.2471e-05
0.000142324
0.000101942
0.000977371
0.000115254
0.0662223
0.000143628
0.000117975
0.000124306
0.0181033
0.000166809
0.000129939
0.000133923
0.000106783
9.30469e-05
9.64874e-05
0.000131459
0.0195308
0.00441216
9.2648e-05
0.0111375
0.000112056
0.000153799
0.0491146
0.014014
9.31995e-05
0.000124934
0.0520773
0.0106205
0.00886976
9.22421e-05
0.000107596
0.000482225
9.9631e-05
0.00012717
0.000107372
0.0157586
0.0017233
0.0015852
9.86744e-05
0.00010544
0.000115952
0.0022781
9.22397e-05
0.000118395
0.0105382
0.00993474
0.000127544
9.72118e-05
9.46628e-05
0.000117491
0.000100405
0.000453618
0.000109605
0.011154
0.000103469
0.031297
0.000147683
0.000425569
9.74194e-05
0.000110274
0.000162455
0.000110358
0.000115254
9.89707e-05
0.000176337
0.0422716
0.0267868
0.00116979
0.00012523
0.0954415
0.000134463
0.0411275
0.000132126
0.000176555
0.000114607
0.000359616
0.092175
0.00018622
9.98222e-05
0.00655442
0.0508413
0.000116387
0.00011725
9.07564e-05
0.000101769
0.000540637
0.00010335
0.000102972
0.000103466
0.000176636
0.000101619
0.00014183
0.0001348
0.000105327
0.000139976
0.000263875
9.27853e-05
0.000110323
0.00011225
0.000131141
0.023185
0.000109046
0.000124116
9.352e-05
0.000310227
9.72065e-05
0.000344829
0.0649219
0.000100055
0.0139684
0.000106781
0.00011293
0.000144034
0.000110461
0.0111399
0.000179604
0.000108563
0.000164295
0.0180561
9.60601e-05
0.00689245
0.000157236
0.000111296
0.000631411
0.0121771
9.80248e-05
0.000100134
0.000121313
0.000133595
0.0378523
0.000130559
0.000103111
0.000169368
0.027629
0.0137819
0.0577331
0.000104285
9.41785e-05
0.0197137
0.00114173
0.060792
0.0151228
0.0155436
9.99171e-05
0.000279776
0.000110227
0.000108816
0.0116479
0.093948
0.0305214
0.0501716
0.000196035
0.00758711
9.43052e-05
0.000119526
0.0108467
0.000107279
0.000115687
0.000118204
0.000125874
0.0306756
0.000109879
9.9018e-05
0.000115371
0.0237704
0.000106533
0.000101187
0.000133269
0.000100914
0.0547548
9.18117e-05
9.63878e-05
0.000103469
0.000129779
0.000104121
0.000108022
0.0149643
0.000644663
0.000409866
0.0344806
0.0662711
0.00983048
0.00020362
0.0819247
0.00011842
0.0122746
0.0172084
0.000153143
9.31353e-05
9.2303e-05
0.000111874
0.000153553
0.000100688
0.000114978
0.000108738
0.000409392
0.00021445
0.0226629
0.000106492
0.000362505
0.0089392
0.000125753
9.05474e-05
0.000101483
0.000224662
0.0253639
0.000110572
0.0620672
0.000109684
0.000113852
0.0287191
0.0160304
0.00023764
0.000100596
9.57829e-05
9.66721e-05
0.000264387
0.000141423
0.000109938
0.00013786
0.000104022
0.000112729
0.00014993
0.000108037
9.54615e-05
0.0452704
0.000115913
0.000112839
0.000107145
0.0112419
0.000151612
0.0225463
0.000107812
0.000115813
0.000101263
9.67864e-05
0.000115645
9.64549e-05
0.000101134
0.000145717
0.000111736
0.00012071
9.85846e-05
0.000106916
0.000140352
0.000312506
0.000105859
0.0182054
0.000206398
0.0166651
0.000261407
0.000352538
0.00014251
0.000158451
0.0372189
0.000112143
0.000104221
0.00260135
0.0574106
0.0131245
0.00971128
0.0219827
9.75562e-05
0.000124528
0.000133326
0.000102858
0.00017313
0.000160711
0.000121307
0.0167487
0.000128836
0.0397557
0.00020018
0.0200115
9.35527e-05
0.000103093
0.000112017
9.48104e-05
0.000126618
9.94236e-05
0.0885734
0.0126641
0.0132189
9.3884e-05
0.00349869
0.042393
0.022219
0.000108279
0.0182705
9.09344e-05
0.000131163
0.000171115
0.000114903
0.046014
0.000113134
0.0002943
0.000118377
0.0173028
0.000124287
0.000115395
0.000108113
0.0159144
0.000118593
0.018739
0.000279979
0.000116641
0.022801
0.0482045
0.00012146
0.00917173
0.00012565
0.000121352
0.000100874
0.0730451
0.000113167
0.000106588
0.000101181
0.000796703
0.000121692