/*--------------------------------*- C++ -*----------------------------------*\
| =========                 |                                                 |
| \\      /  F ield         | OpenFOAM: The Open Source CFD Toolbox           |
|  \\    /   O peration     | Version:  v2012                                 |
|   \\  /    A nd           | Website:  www.openfoam.com                      |
|    \\/     M anipulation  |                                                 |
\*---------------------------------------------------------------------------*/
FoamFile
{
    version     2.0;
    format      ascii;
    class       surfaceScalarField;
    location    "250";
    object      phi_0;
}
// * * * * * * * * * * * * * * * * * * * * * * * * * * * * * * * * * * * * * //

dimensions      [0 3 -1 0 0 0 0];
oriented        oriented;


internalField   nonuniform List<scalar> 
27055
(
-0.00699783
0.00699783
-0.26139
-0.461071
0.336561
0.12451
-0.358378
0.164435
0.193942
-0.0286202
-0.0576408
0.086261
0.0824285
-0.0374804
-0.0449481
-0.184603
-0.081219
0.265822
-0.433951
0.373403
0.0605472
0.11191
-0.0237741
-0.0881359
-0.0934183
0.0647981
0.0185808
0.199762
-0.218343
0.129493
-0.147873
0.0183804
-0.112285
0.00766465
0.104621
-0.0438393
0.0427429
0.00109639
-0.106393
0.120521
-0.0141279
-0.0705399
0.0937495
-0.0232095
-0.479218
0.477244
0.00197306
0.082655
0.324356
-0.407011
-0.36642
0.223162
0.143258
0.0955905
-0.0827873
-0.0128032
0.0376899
-0.0663837
0.0286937
-0.0617229
0.231759
-0.170036
-0.208888
0.227469
0.243249
-0.231044
-0.0122048
0.128333
-0.0531648
-0.0751677
0.0540686
0.074264
0.085881
0.248371
-0.334252
0.0506739
0.0317546
-0.345431
0.428087
-0.169157
-0.291913
0.341785
0.205793
-0.547578
-0.00614776
0.00660619
-0.000458433
0.264015
0.138543
-0.402557
-0.00205312
-0.000161637
0.00221476
0.0389673
-0.0388429
-0.000124384
-0.0503853
0.075209
-0.0248237
0.0350611
-0.0351821
0.000121004
0.481887
-0.179398
-0.302489
0.0201769
0.0237559
-0.0439328
0.548219
-0.285283
-0.262936
-0.00700175
-5.31984e-06
0.00700707
0.131317
-0.141554
0.0102372
0.00799099
-0.0798276
0.0718366
0.0253553
0.00841947
-0.0337747
0.275009
0.161923
-0.436932
0.0262042
-0.0481773
0.0219731
-0.259485
-0.104371
0.13767
-0.00635309
-0.0887768
0.0665899
0.0221868
0.188895
-0.291294
0.102399
-0.371835
0.326182
0.0456527
0.391757
0.0666109
-0.458368
0.00484475
-0.00628799
0.00144323
0.117758
-0.124483
0.00672563
0.0392069
0.0574419
-0.0966488
0.0953908
-0.0455742
-0.0498167
0.00638951
-0.314216
0.307827
0.395359
-0.225809
-0.16955
-0.00730437
-0.000897158
0.00820153
0.18754
-0.286646
0.0991056
-0.127344
0.0209516
0.446842
-0.171833
-0.0899548
-0.0327591
0.122714
-0.163904
-0.194473
-0.0893579
-0.0245761
0.113934
-0.124871
0.205842
-0.0809714
0.00669054
-0.00758628
0.000895743
-0.00477283
-0.00137493
-0.234988
0.320869
-0.210776
0.120821
-0.278161
0.28455
-0.448399
0.341486
0.106913
0.00617748
0.000428708
0.0294838
0.0279583
-0.0574421
0.139481
-0.0518478
-0.0876329
0.0605364
-0.001123
-0.0594134
0.111645
0.0560332
-0.167678
0.188986
-0.238239
0.0492529
-0.0221027
0.0221027
-0.177626
0.2442
-0.0665735
-0.00639951
0.00162668
0.103193
-0.00995796
-0.0932354
0.0125387
-0.126296
0.113758
0.141543
0.0994151
-0.240958
0.0492359
0.0121042
-0.0613401
0.0540795
0.0413114
-0.432383
0.330265
0.102118
-0.173653
-0.192767
0.0978592
0.0053342
-0.0901546
-0.0236752
0.11383
-0.378714
0.205061
-0.329924
0.23218
0.0977438
-0.0742938
0.416078
-0.036678
0.0905481
-0.0538701
-0.174913
-0.2038
-0.0807241
-0.130051
0.0998593
-0.336758
0.236899
-0.290101
0.192124
0.097976
0.00633056
0.0468735
-0.053204
-0.333977
0.179521
0.154456
-0.081719
0.105699
-0.02398
-0.00815193
0.12591
0.0657869
-0.0384596
-0.0273273
-0.0978019
0.0181641
0.0796378
-0.070577
0.0201917
-0.111434
-0.0120665
0.123501
-0.383697
0.214539
0.0348749
0.0484048
-0.0832797
-0.513623
0.513623
0.129627
-0.162387
-0.228
0.103129
0.0675114
-0.048665
-0.0188464
0.103126
0.179725
-0.282851
-0.273602
0.0889989
-0.320828
-0.0510073
0.140884
-0.155541
0.014657
0.0141895
-0.10989
0.0957002
0.0432489
-0.0170447
0.118973
-0.101899
-0.0170739
-0.150465
0.14588
0.00458521
0.132492
0.254843
-0.387335
0.262677
0.21921
-0.0326211
0.026994
0.0056271
0.0718111
-0.0261773
-0.0456338
-0.00410329
0.0357553
-0.031652
0.0928548
-0.0848638
-0.0358569
-0.0649247
0.100782
0.289999
-0.467016
0.177016
-0.0232485
0.0609385
0.0126571
0.0548543
-0.368343
0.318446
0.0498974
0.247547
-0.0647592
-0.182788
0.0173714
0.101601
0.349938
-0.0368686
-0.31307
-0.00186293
0.00670768
0.0493366
0.0111998
-0.0839043
-0.00487245
-0.257037
0.507065
-0.250028
-0.283088
0.194328
0.0887598
0.0218999
0.0227471
-0.044647
-0.0718627
0.11107
-0.15252
0.0410864
0.00790785
0.00246368
-0.0103715
-0.172247
0.348072
-0.175825
0.137168
-0.0555871
-0.0815804
-0.0127763
-0.101942
0.114719
-0.127294
-5.02284e-05
-0.238635
0.497989
-0.259354
0.00469831
-0.0301634
0.0254651
-0.0953277
0.0808892
0.0144385
-0.00864241
0.0121028
0.121722
-0.132906
0.0111839
-0.0132499
0.101567
-0.088317
-0.0499824
0.161628
-0.109892
0.0197372
-0.00636918
-0.000632568
0.100692
-0.0744199
-0.0262725
-0.10676
0.0174018
-0.0492934
0.0552263
-0.00593285
-0.0955479
-0.149437
-0.111953
0.319087
0.0308508
-0.0815528
0.00666598
2.45582e-05
-0.0479673
0.014774
0.0331933
0.334833
-0.194453
-0.14038
-0.0781681
0.095259
-0.0170909
0.010267
-0.00235914
-0.170366
0.0190845
0.151282
-0.0555188
0.00992457
0.0455942
-0.0282856
-0.192629
0.220914
-0.334107
-0.0998438
-0.0289234
-0.33942
0.185824
-0.160363
-0.0345975
0.194961
-0.0245285
0.0245285
0.213238
-0.0716949
0.367079
0.049941
-0.41702
0.0366991
0.00226817
-0.237375
-0.0944375
0.331812
-0.0863045
0.0668354
0.0194691
-0.0287681
0.048945
-0.375267
-0.0731312
0.0260303
0.0397566
0.0111763
-0.0111763
0.237555
-0.158918
0.24369
-0.0847713
0.000918588
0.0483173
0.376194
0.172025
0.0247845
-0.0262483
0.00146378
0.166298
-0.0601653
-0.106133
0.350844
-0.155979
-0.194865
0.0184917
0.0065319
-0.0357145
0.0291826
0.144349
-0.316595
0.00942548
-0.205246
0.19582
-0.195032
0.298158
-0.0189034
-0.188744
0.207647
0.429169
-0.018669
-0.4105
-0.101896
0.331083
-0.229186
0.254709
0.222587
-0.477296
-0.134596
0.153207
-0.0186111
-0.106627
0.0287873
0.0778394
0.057158
-0.0312166
-0.0259414
-0.0683116
0.103186
-0.00371233
0.000154178
0.00355815
0.0178499
0.0546997
-0.0725495
-0.00500336
-0.00293388
0.00793724
0.0834216
-0.062859
-0.0205626
0.0260018
-0.131488
0.105486
-0.199776
0.349539
-0.149764
0.00412379
-0.131418
-0.105458
0.0237394
0.0604345
-0.0541039
0.0647965
0.00471522
-0.0695117
-0.149896
0.0153004
-0.0955386
0.0822887
0.316936
-0.0847561
-0.285283
-0.098414
-0.16221
-0.12789
0.0386223
-0.033924
-0.0831421
-0.203504
-0.00678858
0.0152259
-0.00843733
-0.00533976
-0.13547
0.14081
-0.0333371
0.462506
0.238447
-0.266732
-0.011906
0.201711
0.041538
0.137177
-0.374552
-0.401795
0.342229
0.0595655
0.338746
-0.149596
-0.189151
0.00956193
-0.179928
0.0109213
0.0243607
0.0763318
-0.169064
0.433079
0.0152468
-0.046465
0.0312183
-0.145681
-0.031876
0.177557
0.116175
-0.0500408
-0.0661346
0.300618
-0.111723
0.138418
-0.514391
0.375973
0.207453
0.131294
0.0185251
-0.0485232
0.0299981
0.0915405
0.0246349
0.118892
-0.0288417
-0.0900502
0.0312013
-0.00584602
-0.0437104
-0.0118084
-0.514503
0.204167
0.310336
-0.0109944
0.00979582
0.00119859
0.0201455
0.000329469
-0.020475
0.14301
0.0172341
-0.160244
-0.00721915
0.0694032
-0.0621841
0.0864476
-0.0524182
-0.0340293
0.320429
-0.167874
-0.152555
-0.0877539
0.0248949
0.225076
-0.215651
-0.0244419
0.0238036
0.000638323
0.0302032
-0.0555902
0.025387
-0.015097
0.00830846
-0.0440727
0.0561769
-0.0855851
-0.000719451
0.196157
-0.144918
-0.051239
-0.0902739
-0.0342094
0.0701556
-0.0862369
0.0160813
-0.0571307
0.424209
-0.0776201
0.282545
-0.204925
-0.522274
0.40313
0.119144
0.027519
-0.0330376
0.00551865
-0.0486932
-0.000600195
0.0408734
0.0672181
-0.0636876
-0.00353052
0.149609
-0.214368
0.000395369
-0.00244849
0.0364394
-0.0720679
0.0356285
-0.449753
0.452145
-0.00239188
0.214947
0.105482
0.0241428
-0.0228376
-0.00130523
0.134558
-0.122019
-0.156623
-0.0682931
0.224917
-0.272536
0.410954
-0.0259108
0.0218075
0.0205131
0.00789343
-0.0284065
-0.00958057
-0.096505
0.25761
-0.161105
0.0322184
-0.0190691
-0.0131493
0.0848866
-0.0182967
0.0738789
-0.21956
-0.0714928
-0.0142754
0.0857682
-0.0314665
-0.00345073
0.0349172
0.196753
-0.123009
-0.0737436
0.106755
-0.0925658
0.152738
0.198106
-0.0802129
0.120466
-0.0402529
0.00466837
0.0201161
0.0067032
0.12279
-0.0198318
-0.00386918
0.0710873
0.0118525
0.0203658
0.278938
-0.19542
-0.0835176
0.290359
0.156483
-0.180983
0.164993
0.0159901
-0.183913
0.196646
-0.0127326
-0.484639
0.0602774
0.424362
0.0267682
-0.0448919
0.0181236
-0.0843966
0.0165193
0.0678773
-0.431505
-0.0531341
0.143758
0.251601
-0.128284
0.0130908
-0.1033
0.147334
-0.0440343
-0.402391
-0.0768262
0.042631
-0.0360991
0.0655158
0.0533761
-0.115445
-0.248364
0.363809
0.00231469
-0.0838855
0.0815708
0.0909178
0.115779
-0.206697
-0.262774
0.166269
0.0656747
0.0222634
-0.0270078
0.00474436
-0.211075
-0.112934
0.324009
0.0468977
-0.0316509
0.41385
-0.146416
-0.267434
-0.0415247
0.013822
0.0277027
-0.15112
-0.00442178
-0.105514
0.12818
-0.0226658
-0.00861617
-0.032731
-0.0611327
0.0938636
0.144045
-0.223554
0.0795084
-0.083077
-0.16916
0.0180403
0.143429
-0.159378
0.015949
0.116029
-0.131197
0.0409231
0.237251
0.0572742
-0.294526
-0.0728323
0.0936094
-0.0207771
0.0184825
-0.0265612
0.00807874
-0.0771187
-0.00503186
0.0821506
-0.00536112
-0.00247963
0.00784075
-0.0581665
0.0735656
-0.0153991
0.065049
-0.0340196
-0.0310295
-0.333146
0.098158
0.126646
-0.100645
-0.154981
-0.246814
-0.0516814
0.0695312
-0.0883597
-0.426143
-0.348582
0.511599
-0.163017
-0.327973
0.116897
-0.0801905
0.0767218
0.00346875
-0.00898792
-0.00258722
0.0115751
-0.117221
0.102946
-0.111327
-0.0169569
0.109026
0.089932
-0.198958
0.0760599
-0.0427308
-0.0333291
0.11878
-0.0489733
-0.069807
0.0705279
-0.103259
0.288752
-0.296664
0.00791204
0.112597
-0.121213
0.00861628
0.105777
-0.120464
0.0146866
0.0230349
-0.0597128
-0.00988558
0.00968456
0.000201023
-0.457673
0.059992
0.397681
-0.0818753
0.369276
-0.2874
0.0692481
-0.0145484
0.0221858
0.070669
0.00095653
-0.0082609
0.182904
-0.00609053
-0.000907307
0.0883954
0.077903
-0.101808
0.0704513
0.0313562
-0.0103894
0.00140153
-0.1366
0.124533
0.0356361
0.0294129
0.0684557
-0.0216069
-0.0468488
0.046595
-0.0688817
0.0222867
0.0423253
-0.191762
-0.00416927
-0.00145036
0.00561963
-0.311738
0.209842
-0.224487
-0.10949
-0.221638
0.298754
-0.0771166
0.27334
-0.454095
0.180755
-0.0786127
0.00807279
0.083222
-0.0327753
-0.0504466
0.000626942
0.0979476
-0.0985746
-0.122976
0.042763
0.297353
-0.480044
0.18269
-0.310585
0.162765
0.14782
0.0176523
0.00249321
0.14676
-0.00333044
-0.219296
0.00823384
0.211062
0.423261
-0.149921
0.345004
-0.197248
-0.147756
-0.137574
0.127084
0.0104906
-0.0486458
0.090264
-0.0416182
0.0720821
-0.00405511
-0.068027
-0.0328553
0.00269185
0.157436
-0.0106766
-0.0333977
-0.00499265
0.0383903
0.16614
-0.0231305
-0.0191322
-0.0134889
-0.433725
0.0584573
0.0201821
0.0369759
0.323692
-0.447461
0.123769
0.0629423
-0.0163472
0.0869277
-0.0221312
-0.0431718
0.129102
-0.0859302
-0.0140577
0.0325402
-0.0103793
-0.373235
-0.0844382
0.132171
-0.109395
-0.0227765
0.525278
-0.133521
0.327386
-0.0926151
-0.234771
-0.00713615
-0.0552697
0.0624059
-0.0182703
-0.0232544
4.83838e-05
-0.00421765
-0.1475
0.0442005
-0.149431
-0.0197294
-0.0133351
-0.0305043
0.0765571
-0.0646176
-0.0119395
-0.478986
0.118742
0.360244
-0.467766
0.447601
0.0201654
0.039851
-0.0179511
-0.13983
0.120926
0.140494
-0.123222
-0.0172719
0.100328
-0.0776339
-0.0226938
0.118437
0.024104
-0.142541
-0.091632
-0.198662
0.290294
0.0411953
-0.0226702
-0.088808
0.0948787
-0.00607069
0.0749105
0.0645702
0.113843
-0.13424
0.0203964
-0.031176
-0.0706315
0.0435952
0.0519953
0.226674
0.104361
-0.331035
-0.0371178
-0.0467865
-0.00153656
-0.00834902
-0.223213
0.0665898
-0.0960429
0.0232106
-0.342246
0.260371
0.20864
0.20521
0.243912
0.0983175
-0.197147
0.0442618
0.152885
-0.301358
0.137454
-0.0914587
-0.0151681
0.0132458
-0.0782121
0.0649663
-0.0120747
-0.0728056
0.102013
-0.0292072
-0.249594
0.0906758
-0.100517
0.0277114
0.0720127
0.089643
-0.161656
-0.248992
0.071366
0.108867
-0.116392
0.00752491
-0.0927399
0.0145717
0.00918399
-0.0401625
0.0309785
0.167639
-0.228933
0.0612936
-0.255283
0.392927
-0.137644
0.253831
-0.0321572
0.0623604
-0.0172059
0.278541
-0.261335
0.00442138
0.000478603
-0.00489998
-0.39254
-0.0752265
0.0828668
-0.0464274
-0.10491
0.0921341
-0.276412
0.18478
0.0690624
-0.0730166
0.00395424
0.180256
-0.108243
-0.0351532
0.0604604
-0.0253072
0.0293946
-0.296934
0.26754
0.135407
0.199426
0.0461007
0.252266
-0.298367
0.0615165
-0.138977
0.0774609
-0.114346
0.00206072
-0.104283
-0.111737
-0.367249
0.0435279
-0.0343439
-0.0659654
-0.0195369
0.0855023
-0.105062
0.0847217
0.0203403
0.0235711
0.0485111
-0.0720257
-0.0124807
0.0845064
-0.248062
0.190892
0.0571692
0.0448282
0.0164622
-0.0612904
-0.00778955
0.00242843
0.146823
0.0493347
-0.0978211
0.078566
0.0192551
-0.149145
0.159818
-0.0106726
-0.229875
0.362368
0.138821
-0.020384
0.268961
-0.525998
0.0976176
-0.0682231
-0.0293945
-0.148038
0.164263
-0.016225
0.0420167
-0.186935
-0.0352482
0.00378179
0.142879
0.014557
-0.0168699
-0.342712
0.359582
-0.0587007
0.0515645
-0.234816
0.217611
-0.156741
0.00731065
0.0854846
-0.0863499
0.000865282
-0.016345
-0.072463
0.133693
0.218991
-0.352684
0.0420967
0.026359
0.024624
-0.0630836
-0.423865
0.0214732
-0.0987887
-0.202569
0.125672
0.056542
-0.182214
-0.137133
0.146695
-0.0791951
0.05687
0.022325
0.00992453
-0.000239971
-0.0361056
-0.0494795
0.373442
-0.165554
-0.207888
0.205953
-0.21738
0.0114274
0.312331
0.0799169
-0.392248
-0.0869347
0.21449
-0.127555
0.0426459
0.000603005
-0.0167368
0.184376
-0.163976
0.00723496
0.00986441
0.0251967
0.408186
-0.281913
-0.126273
0.174828
0.198614
-0.252415
0.0331189
-0.0219878
0.0859112
-0.0639235
0.178037
-0.243944
0.0659074
-0.147738
-0.163318
0.311056
-0.165994
0.0288613
-0.0839543
0.00795919
-0.00198085
-0.01338
0.0153609
0.00696975
-0.0090948
0.00212505
-0.255627
0.199147
0.0564801
0.211132
0.244382
-0.340986
0.0966038
-0.16499
0.15965
-0.000464913
-0.406473
0.205612
0.20086
0.0565035
-0.0923604
-0.0101327
0.0878173
-0.00233271
0.00411149
-0.00692999
0.0028185
-0.114065
-0.319659
0.0772744
-0.0449788
-0.0322956
-0.0874036
0.331786
0.0365547
-0.0620461
0.0548269
0.192018
-0.00303248
-0.0920982
0.0434523
-0.084814
0.397145
-0.15832
0.448319
-0.0460953
-0.377769
0.0898969
-0.0672151
-0.0226818
0.0252107
-0.00469765
-0.101241
-0.000657635
-0.0827207
-0.224066
0.306787
-0.0123218
-0.0647969
-0.0728849
0.0950707
0.109185
0.221897
0.207324
-0.0292876
0.26439
-0.28126
-0.0276353
0.0289275
-0.00129216
0.00891321
-0.00154959
-0.00736362
0.13566
0.113583
-0.249243
-0.0617058
0.16501
-0.103304
0.241401
0.0468384
-0.288239
0.0482268
0.0290476
0.0482643
-0.048077
-0.00018734
0.350367
-0.447055
0.0966884
0.00418344
-0.0616419
0.0574584
-0.475226
0.0408859
0.434341
-0.0611496
0.0259964
-0.495014
0.28314
0.211875
0.344162
-0.210469
0.0483743
0.0276856
0.00264014
-0.027082
-0.0169319
0.398688
-0.297789
-0.100899
-0.0696551
-0.20615
0.275805
0.0268543
0.00447168
-0.031326
-0.15637
0.00833219
-0.228054
0.0803161
-0.222135
-0.025927
-0.00610361
-0.0296131
0.0357167
-0.024823
-0.0710182
0.0958411
-0.0500197
0.00246124
0.0475585
-0.237781
-0.095365
0.00335366
0.0207892
0.0321155
0.24153
-0.273646
0.00455391
-0.0602973
0.0943751
-0.0340778
0.425586
-0.304662
-0.120924
0.0605902
-0.082578
0.344794
-0.312679
0.0375446
0.100125
-0.107968
0.00166593
-0.00625727
0.00459134
0.337751
-0.228566
-0.528667
0.248995
0.279672
-0.0735881
0.000571499
-0.247186
-0.185197
0.0097117
-0.015135
0.00542333
0.171647
0.016975
-0.188622
-0.00890104
-0.188246
0.00544901
-0.00102764
0.00942257
0.0291997
-0.152503
-0.0284796
-0.0223177
0.193965
-0.343171
-0.0624151
0.405586
0.00450854
0.003062
-0.00757054
0.0333121
-0.322035
0.228586
0.0934498
-0.00531205
-0.0984842
0.103796
-0.145243
-0.261229
-0.00825015
-0.0138525
-0.210917
-0.317749
0.0315824
0.0660352
-0.104246
0.283971
-0.208601
0.121666
-0.104213
0.00297135
0.00344366
0.0718405
-0.0752841
0.113236
0.00328277
-0.116519
0.0734738
0.302822
-0.376296
-0.339553
0.101772
0.0378495
-0.0132367
-0.0246128
0.377889
-0.304415
0.195409
-0.314396
0.136448
0.177948
-0.368558
-0.106668
0.0382922
-0.0224183
-0.0158738
0.00320079
-0.0338265
0.0306257
-0.0129565
-0.118532
-0.0201012
-0.0626861
-0.07228
-0.0154739
0.00635974
0.00158683
-0.00794658
-0.096215
-0.0787934
0.175008
-0.166137
-0.0834568
0.377774
-0.11693
-0.260844
-0.0413647
0.257362
-0.215997
-0.336663
0.29285
-0.409454
-0.0402992
-0.016507
0.0402629
0.0275524
-0.0172286
-0.0103238
-0.00809473
-0.0398726
0.0300178
-0.00249879
-0.0554147
0.0306225
0.0247922
0.115716
-0.135842
0.0201262
-0.0613618
0.00947608
-0.060186
0.05071
-0.138729
0.489096
0.0648855
-0.0554094
-0.0411375
0.0799284
-0.0988944
0.018966
-0.0120305
-0.0019118
0.00827155
-0.150357
0.162095
-0.0117376
-0.114478
-0.196107
0.0130529
0.0144995
-0.257343
0.18343
0.0739128
-0.12923
0.149241
-0.0200114
-0.178855
0.117149
0.00974279
-0.0431405
-0.0850777
0.0700502
0.0150275
-0.106829
-0.207567
-0.0667861
0.0151047
0.00952955
0.0370695
-0.0591343
0.0220648
0.185559
-0.0598874
0.347226
-0.239807
-0.107419
-0.205754
0.144061
0.0616932
-0.132768
0.0629344
0.0698339
-0.21201
-0.0293117
0.241322
-0.10335
-0.00797688
0.0607403
0.0395874
-0.342978
0.314055
-0.252134
0.0859968
0.0305999
-0.252237
0.129106
0.311294
-0.440399
0.0210232
-0.00106102
-0.0199621
-0.00959143
0.034474
-0.0248825
0.339312
-0.148716
-0.190596
0.0300551
-0.0491406
0.0852139
-0.0360732
0.00638156
-0.0402081
-0.0178976
0.0955969
-0.0776993
-0.297394
0.390544
-0.0931506
0.00792361
-0.00812735
-0.0891133
0.15063
-0.100503
0.0756799
-0.00928819
0.000197997
0.00909019
-0.322122
-0.0145413
-0.157351
0.00699456
-0.0180541
0.045568
-0.0275139
-0.0395632
-0.00763457
0.0471978
0.210848
-0.252213
0.120295
-0.132296
0.0120008
-0.00367581
-3.65209e-05
0.173501
-0.243323
0.0698226
-0.431284
0.329898
0.101386
-0.0401394
-0.0209906
0.06113
0.0377761
0.0048698
0.101913
-0.0689444
-0.0829355
0.0106555
0.0251685
-0.00290512
0.0111237
-0.106145
0.0950218
-0.158095
0.146395
0.0116996
-0.00316806
0.026962
-0.023794
0.0242089
-0.0885888
0.0643799
-0.00854361
-0.000744579
-0.0914336
-0.0184583
-0.00637381
-0.0046206
-0.0136635
-0.112633
0.340751
-0.240892
0.00696975
-0.0985718
0.474453
-0.375881
-0.102484
-0.306379
0.408862
0.248001
-0.357626
0.109625
-0.00277236
0.0072809
0.0818562
-0.0338436
-0.0480126
0.306539
-0.405722
0.0991831
-0.0521156
0.0340615
-0.21376
0.511114
0.130455
-0.117534
-0.0129211
-0.136461
0.0627233
0.0737377
-0.00253179
-0.00656301
-0.0836281
-0.0642453
0.0386767
0.197056
0.0767356
-0.273791
0.0719824
0.211391
-0.283374
-0.059369
0.29662
0.00715365
0.000865564
-0.00801921
-0.0936718
0.0266214
0.0670504
-0.0328044
0.042227
0.519274
-0.264565
0.0669171
-0.0220889
-0.453346
0.415051
-0.0172793
-0.0482015
0.378466
0.093657
-0.189872
0.122157
-0.00741682
-0.11474
-0.000265306
0.0820936
-0.0818283
0.526909
-0.269602
-0.257307
-0.0487945
-0.0591733
-0.130403
0.0315917
0.0741073
0.00781873
0.00335762
-0.0171903
0.00348144
0.00543177
0.28206
-0.210078
-0.00117798
-0.0569885
-0.00049799
-0.00497837
0.00547636
-0.101299
-0.00992071
0.00793985
0.0392866
-0.0930287
0.0537421
0.0108474
-0.00105153
-0.0781664
0.0146747
0.0634917
0.0361504
-0.0365494
0.000398995
-0.326741
0.455846
0.134579
0.0296832
0.167836
0.0897745
-0.068118
0.0856539
-0.0175359
0.0480606
-0.0381415
-0.00991909
0.0523532
0.0194579
-0.264868
0.188352
0.0765163
0.410687
-0.00906615
-0.40162
-0.0181417
0.0208896
-0.00274789
-0.00706601
0.00495665
0.00210936
0.0236311
-0.0498084
0.382805
0.0692862
-0.452091
0.0471092
0.034747
-0.010045
-0.332933
-0.123104
0.102749
0.0203547
0.00060086
0.0263622
0.0924181
0.0119647
-0.0112858
-0.00067889
0.243371
-0.0925918
-0.150779
0.0138512
-0.143081
0.000641136
-0.0056445
0.00248241
0.0013859
-0.00386831
0.172821
-0.038242
0.324893
-0.402329
0.0774364
0.0110212
-0.102455
-0.0519274
0.0153438
0.0365836
-0.0611587
-0.0753023
-0.232526
-0.114738
0.347264
-0.0189252
-0.041384
-0.063678
-0.0767158
0.00235137
0.0743644
-0.208945
0.03009
-0.0804678
0.000277205
-0.478083
0.157673
0.32041
0.445734
-0.0530788
-0.392655
-0.0180795
-0.00848169
0.0144347
-0.0864604
0.00999988
-0.0281416
-0.00429618
-0.012979
0.0172752
-0.092369
0.0655552
0.0268138
-0.0853666
0.0605072
0.0248594
-0.0277556
-0.00742647
0.301375
-0.191438
-0.109936
0.116851
0.0188716
-0.135722
0.0867131
-0.110487
0.0278002
-0.0517863
0.0239861
0.019011
0.186831
-0.12055
0.00859513
0.0292544
-0.0945876
0.0943223
-0.0110617
0.0455929
-0.0345312
-0.106391
-0.437197
0.134066
0.0996832
-0.0894466
-0.0102365
0.00228002
0.239121
-0.0129763
0.022688
0.0726642
0.0300125
-0.102677
-0.169176
0.148085
0.0210911
-0.0417942
0.00982692
0.0319673
-0.017072
0.111365
-0.0942928
-0.0260489
0.0196723
0.00637662
0.00583766
-0.00417173
0.00158347
0.0560053
-0.0575888
-0.0575716
0.0174323
0.0412119
-0.0631184
0.0219065
-0.0761601
-0.162079
0.309008
-0.451633
0.142625
-0.0731498
0.00852166
-0.00473498
-0.00378668
-0.00195383
0.0924157
-0.0904619
0.104008
0.022638
0.003808
0.023186
-0.180106
-0.0288392
-0.166975
0.150961
0.0160147
-0.265079
0.214397
0.0506814
-0.00409739
0.00646091
-0.00236352
-0.0535059
0.238837
-0.185331
0.0497318
-0.020248
-0.0925524
0.0265869
-0.257391
-0.0793674
-0.109661
0.060867
0.032898
-0.0112663
-0.00141296
0.0126793
-0.0739756
-0.127385
0.306907
0.314083
-0.0660818
0.0234684
0.0400084
-0.0634768
0.402517
0.0450024
-0.44752
-0.136697
0.122259
0.0144385
0.111552
0.245314
-0.356866
0.00874913
-0.000825513
0.043243
-0.203607
0.0574183
0.0363312
-0.107548
0.00419732
0.130903
0.0311916
-0.335854
-0.0778989
0.413753
0.169144
-0.189631
0.0204868
-0.0149221
0.357955
-0.152791
-0.205164
0.0744022
-0.179242
0.10484
0.0012455
-0.0390995
0.037854
0.0132969
-0.00307021
-0.0102267
0.0406675
0.0798533
0.0537211
-0.00398932
0.0162021
0.40912
-0.425323
-0.386842
0.256782
0.13006
-0.11997
-0.0440065
0.116521
0.294166
0.0292715
-0.0205886
-0.101492
0.00368993
-0.12753
-0.0199703
-0.406424
0.332131
0.104043
0.00919307
-0.106124
0.0371797
-0.479654
0.0234253
0.456229
0.0117257
-0.0148938
-0.0815763
0.0668356
0.0147407
-0.32252
0.414164
-0.0916442
0.351086
-0.46835
0.117265
0.0490215
0.00469963
-0.0352452
0.00209126
0.033154
0.117656
-0.350182
0.0142083
-0.0447187
0.0305104
0.0338134
-0.0588927
0.0250793
-0.249777
-0.0897764
0.509394
-0.2604
-0.00609053
0.0185336
0.0197586
0.0767354
-0.0634896
-0.0890485
0.0711509
-0.0608115
-0.0173549
-0.0793684
-0.182294
0.261663
-0.0473801
0.018612
0.0208584
-0.0172505
-0.00727799
0.00833728
-0.133125
0.124787
-0.154857
0.150542
0.00431475
0.0241845
-0.0563418
-0.0779048
-0.0144642
-0.275512
-0.188127
0.46364
-0.00669954
0.115566
-0.0867338
0.0617643
0.233119
-0.380694
0.147575
-0.251069
-0.0971857
0.348255
-0.175004
0.00582868
0.19582
0.0755542
-0.481979
-0.0309015
0.0213101
0.0350545
-0.0627343
0.0276798
0.424659
-0.0221418
0.223013
0.0109143
0.00345498
-0.0143693
0.00584598
0.00513651
-0.000528349
-0.00460816
0.252272
0.132418
-0.358228
-0.0237771
0.0575905
0.133797
-0.17678
0.0429834
0.046216
0.0596611
-0.105877
0.264078
-0.255844
-0.416178
0.0730071
-0.378355
0.447447
-0.0690916
0.381388
0.0930643
-0.00621383
-0.00015535
0.320341
0.189053
0.389606
0.366464
-0.133346
-0.362703
0.238076
0.124627
-0.00572466
-0.00206489
0.0647449
-0.276755
-0.144544
0.0170144
-0.288498
0.0934653
-0.0732829
-0.0102029
0.0834858
0.0745928
-0.05127
-0.0233228
0.0762449
0.187833
-0.0228649
0.048758
-0.0258931
-0.0638251
-0.0458363
-0.276147
-0.0814798
0.423598
-0.00700663
-0.416592
-0.160995
0.0256477
0.135348
0.224414
0.13354
-0.382703
0.00434789
0.0996921
-0.448275
-0.464674
0.189162
-0.0670394
-0.0106336
0.0776731
-0.0587434
0.104959
0.17053
-0.0396269
0.0567142
-0.0882069
0.0314927
0.0705426
-0.0917611
0.0212184
0.414532
0.21222
-0.000301163
-0.00623172
0.00653288
0.0367476
-0.104606
0.0678583
0.0156631
0.0875668
-0.0895206
-0.0683718
0.0195851
0.0487867
0.254396
-0.177808
-0.0765886
0.0945654
0.314555
-0.000842596
0.0107431
0.00791502
-0.0440155
0.147589
-0.103573
-0.128003
0.310466
-0.182463
0.0514566
-0.00948265
-0.041974
0.00308853
0.0179346
-0.0836688
-0.318661
-0.050815
0.116464
-0.0656491
-0.00328922
-0.00377679
-0.00905967
0.029753
-0.0206934
0.124759
-0.149865
0.0251064
-0.0876225
0.105787
0.109387
0.0860195
-0.195407
0.000916947
0.0140769
-0.0149939
0.46591
-0.399299
0.298646
0.177545
0.0627981
-0.0277437
0.00564881
-0.00528274
0.00682988
-0.000163897
-0.070025
-0.0187486
0.0887736
-0.0509361
0.061966
-0.0110298
-0.0744227
-0.328926
0.258135
0.0707906
-0.359844
-0.13517
-0.122897
0.140832
-0.0179348
-0.0411345
0.065319
0.199832
-0.327835
-0.00791818
0.00494022
0.00297796
-0.168504
0.0232819
0.145222
0.0254261
0.0366288
-0.0620549
0.00544825
-0.349765
0.0999887
0.0315233
0.0199333
-0.089507
-0.0868648
0.161267
-0.0995634
0.0686628
-0.0811434
-0.191524
-0.33075
-0.253013
-0.109691
0.132913
-0.0160618
-0.0381015
0.0523099
-0.0070396
-0.123085
0.130125
-0.0193044
-0.0361103
0.492592
-0.344175
-0.148417
0.079708
-0.196458
0.11675
0.0980028
-0.0253386
-0.0848073
0.00690247
-0.10781
0.111093
-0.00531284
0.0410682
0.0299166
0.0697666
0.0725189
0.0180292
-0.268949
0.18958
0.0272075
-0.0407436
0.0135361
-0.0431994
0.0409205
0.00227892
0.0680067
-0.0509189
-0.0170878
-0.0653336
0.0143975
-0.0388359
-0.00674589
0.0455818
0.281674
-0.00668405
-0.00123413
0.11991
0.014648
0.094271
0.193959
-0.28823
0.0150049
0.057759
-0.0727639
-0.0312582
-0.00647365
0.0377319
-0.000441796
-0.00577203
0.120398
0.0763234
-0.196721
0.0156729
-0.0224757
0.439611
-0.217024
0.0337059
0.0190689
-0.0527748
0.117161
0.00491802
0.0171847
-0.413603
0.0860705
-0.0293563
0.112641
0.0171294
-0.12977
-0.0474155
0.00243671
0.0531942
0.196636
0.00931713
-0.00767091
-0.0354116
-0.177139
0.21255
0.0407492
-0.00262263
0.00673412
0.469771
-0.328309
-0.141462
0.17157
-0.265637
-0.147598
0.0247005
0.0899754
-0.107047
-0.132862
0.173733
0.00435272
-0.178086
-0.0383513
0.0425347
-0.130705
0.221623
-0.0583428
0.01427
-0.00476669
0.110544
0.0637768
-0.0823457
0.0185689
0.175601
-0.0236723
-0.151929
0.106835
0.0933365
-0.200171
-0.00575076
0.00525277
0.137989
-0.037864
-0.386956
0.11081
0.0265777
-0.0494426
-0.0353696
0.00249659
-0.00543047
0.00109976
-0.00749602
0.00639626
-0.0394713
0.0098582
0.104334
-0.121695
0.0173611
-0.126706
0.509511
-0.306186
0.511979
-0.0794045
0.195184
0.241427
0.069199
-0.310626
-0.00236058
0.0641249
0.00532829
0.00150159
-0.0113549
-0.052016
0.0633709
-0.355529
0.341436
0.0140933
-0.0697986
0.0774632
0.00450794
0.00211335
-0.00662129
0.029535
-0.0448267
0.0152917
0.275405
-0.102219
-0.103535
-0.0333022
0.00996833
0.0233338
0.0550833
-0.0213774
0.0951725
-0.116925
0.0217524
0.0952033
0.0113274
-0.106531
0.109271
0.169667
-0.191818
0.156407
-0.0150504
-0.117245
0.0191788
0.00534975
-0.0437135
-0.231407
0.275121
0.00936883
-0.00442861
-0.232186
0.262786
0.152659
0.00609217
0.000155558
-0.00624773
-0.0290815
-0.0497844
0.078866
0.116657
0.126715
-0.555554
0.235244
0.320311
-0.125422
-0.0244741
-0.0806726
0.0967148
-0.0160423
0.0965581
0.0101972
-0.105333
0.0621613
0.277505
-0.190573
-0.0869325
0.296586
-0.209598
-0.0869874
0.187707
0.0312707
0.00849284
-0.0397635
-0.0758
0.0902347
0.0895116
-0.0948237
0.0157473
-0.0348795
-0.156014
-0.0124896
0.397696
-0.283329
-0.114367
-0.226479
-0.038009
0.264488
-0.103251
0.0817141
0.0215369
0.0286156
-0.0961963
0.0675807
0.107703
-0.308035
0.200331
0.138559
-0.141874
0.00331406
0.0400424
-0.129156
0.0450858
0.358044
-0.451385
0.240558
0.210828
-0.398588
0.28073
0.117859
0.362191
-0.124452
-0.237739
-0.278384
-0.173001
-0.0832749
-0.0234847
0.0340401
0.314032
-0.0420131
0.0408901
-0.0466533
-0.13726
-0.116246
0.134676
-0.0184297
0.0165202
0.0705619
-0.0870821
0.0564313
0.140214
0.311788
-0.070361
-0.022903
0.0541737
-0.0159174
0.172356
-0.156439
-0.00256431
-0.00719765
0.00976196
0.162397
-0.222199
0.0598014
-0.163426
0.0120306
0.151396
-0.0573975
0.0822551
-0.0248576
0.238237
-0.4261
0.187863
-0.0131656
0.00189932
0.193987
-0.164592
0.0904831
-0.0204328
-0.00242205
-0.0220085
-0.021191
0.0143458
-0.130592
0.131134
-0.0880045
-0.0431298
-0.28617
-0.142711
0.428881
-0.0067249
0.00813048
-0.0102952
0.061294
-0.0509988
0.136951
0.159634
-0.0639004
0.258229
-0.0664192
0.252868
-0.186449
-0.00734854
0.000667329
0.00668121
0.133729
0.0102472
-0.143977
0.0628892
0.0203328
-0.00640298
-0.0212324
0.194363
-0.184729
-0.063892
0.248621
0.0107984
0.317497
-0.328296
0.00840222
-0.000179553
-0.00822267
-0.12133
0.129351
-0.00802193
-0.112214
-0.0220097
0.0347842
0.0551127
0.00145745
0.00102496
-0.0765465
-0.0534212
-0.0171558
-0.00672002
-0.0261605
-0.00217743
0.0283379
-0.0666949
0.373234
-0.44042
0.38329
-0.0311905
0.0566165
-0.00445889
-0.0183577
0.0228166
0.0763325
0.0123978
-0.0794372
-0.259321
0.0077378
-0.0810207
-0.363831
0.334464
0.0293674
-0.292778
-0.0710525
0.0765844
-0.00493949
-0.000885749
0.00582523
-0.316929
0.327727
-0.297446
-0.101142
0.239376
-0.283089
-0.00600569
-0.349524
0.00477291
0.0436014
0.35001
-0.232354
0.0256855
0.0592011
-0.344568
0.122832
0.221736
-0.104867
0.113204
-0.0140942
-0.0482813
0.0623755
0.183586
0.343322
0.299187
-0.191483
0.0124161
-0.0930886
-0.283003
0.0885498
0.15988
-0.0260835
-0.0966941
0.112114
-0.0154199
-0.00299888
-0.00817746
0.0082604
-0.0699023
0.414203
-0.207289
-0.206914
0.0769243
0.0265555
-0.10348
0.0671028
-0.042202
-0.0249008
0.252969
0.0831003
-0.33607
-0.143707
0.0182847
-0.0436011
0.0343157
0.00928543
-0.00635939
0.091609
-0.0167873
-0.0213264
-0.0819246
-0.0418873
-0.115142
0.157029
-0.00999455
-0.0896963
0.0996909
-0.141988
0.347868
-0.20588
0.351538
0.155527
0.110826
0.317349
-0.428174
0.0964785
0.144943
0.0966453
-0.241588
-0.112736
0.00492605
-0.0512763
0.0200597
-0.0075039
-0.018545
-0.158966
0.363133
-0.0444515
-0.0416
0.0860515
0.19095
-0.286972
0.0960222
0.21076