/*--------------------------------*- C++ -*----------------------------------*\
| =========                 |                                                 |
| \\      /  F ield         | OpenFOAM: The Open Source CFD Toolbox           |
|  \\    /   O peration     | Version:  v2012                                 |
|   \\  /    A nd           | Website:  www.openfoam.com                      |
|    \\/     M anipulation  |                                                 |
\*---------------------------------------------------------------------------*/
FoamFile
{
    version     2.0;
    format      ascii;
    class       volScalarField;
    location    "250";
    object      ddt0(k);
}
// * * * * * * * * * * * * * * * * * * * * * * * * * * * * * * * * * * * * * //

dimensions      [0 2 -3 0 0 0 0];


internalField   nonuniform List<scalar> 
33474
(
4.50046e-08
-0.00264556
9.21213e-08
-8.54882e-09
-5.90702e-08
-1.84601e-08
9.5134e-09
1.09576e-08
-3.77467e-11
-2.41915e-05
1.39083e-08
4.91404e-08
1.22932e-08
-1.15233e-08
-1.92279e-08
-7.26712e-09
-1.76022e-08
1.72791e-07
-2.98628e-09
-5.13297e-09
4.8004e-09
-2.46161e-05
-8.64312e-09
4.44829e-08
-3.92468e-09
4.66042e-09
2.69433e-09
-4.24023e-08
-1.01625e-05
-4.83522e-09
-5.43941e-08
5.41759e-08
1.99201e-05
2.67465e-07
1.26165e-09
3.21338e-08
7.60693e-05
0.000517563
-8.73681e-09
5.1001e-10
-1.87015e-08
-7.43315e-09
0.000493775
3.04493e-08
5.95186e-05
0.000238995
-0.00105981
2.54522e-09
7.19079e-05
4.89965e-11
5.47574e-09
8.56647e-10
2.93733e-07
2.47288e-09
-1.24959e-08
-4.05297e-08
8.2988e-09
1.68104e-07
7.13972e-09
6.34444e-09
5.97402e-09
0.000479957
0.000105331
0.000558484
4.49393e-06
2.61023e-08
-4.64998e-09
0.00526532
4.52212e-09
-7.59597e-09
0.000557697
0.000451706
0.00056269
-2.01584e-06
-0.000522027
4.33634e-05
0.00016202
-1.30254e-08
-9.36033e-09
-9.1106e-08
0.000567969
3.83103e-08
-0.00171703
-9.15346e-09
2.83794e-09
-6.38038e-09
1.34214e-08
-0.000975862
-0.000638645
-6.95046e-09
1.17612e-08
-7.49047e-09
3.17898e-07
-1.4627e-08
7.99718e-09
1.74505e-08
-7.60204e-09
-1.12939e-08
5.62727e-09
-0.000503262
7.26934e-09
-0.000794244
-2.59806e-09
0.00103074
-1.48863e-06
2.22502e-09
-1.56623e-08
-5.67294e-09
1.43698e-08
6.48374e-09
3.25156e-08
-3.26539e-10
2.64883e-05
5.24448e-09
-4.47248e-08
-4.70812e-08
1.39398e-08
3.22663e-07
1.28912e-08
1.3787e-08
8.35481e-08
-1.47659e-05
-1.84337e-08
-3.33213e-09
-1.41565e-08
-3.88395e-09
1.85924e-09
1.42506e-07
1.48366e-07
6.43077e-09
7.12539e-10
-8.84437e-09
8.08133e-05
0.00089237
-3.0641e-08
0.000500123
-0.000380394
0.00270016
-0.000822566
1.76447e-07
-1.93453e-08
2.72807e-05
3.64765e-09
8.76509e-09
-1.48252e-09
-3.19772e-08
0.00560197
0.000173843
-0.00178369
-0.0017142
0.000361402
1.25654e-08
6.04399e-09
1.78781e-08
-5.08757e-08
-5.64315e-09
-1.39967e-08
-1.9904e-08
-1.14629e-08
3.18435e-05
7.62555e-07
2.3134e-05
-1.13956e-05
0.0025168
2.98869e-08
-0.00356795
1.91608e-09
0.000398969
1.36157e-08
-1.37737e-08
-6.48072e-07
-4.39812e-09
-0.0003955
5.95318e-09
-4.91891e-08
0.000496275
6.50666e-08
-0.00331366
-0.00784583
1.54431e-09
5.53035e-09
2.29426e-08
-2.84496e-10
-3.76853e-07
-9.58855e-11
-0.000641192
-0.0189217
1.5996e-08
-7.10426e-09
-1.29864e-09
4.59068e-08
2.69264e-08
-0.00117501
0.000224183
-0.00258561
-8.07335e-09
0.00221963
2.55733e-08
-0.00108213
-2.87091e-09
-1.45956e-08
-4.84626e-07
-0.000723451
2.38703e-07
-1.86554e-08
-4.77522e-09
7.82183e-09
-1.20837e-09
7.04278e-10
-0.00140174
-0.00172704
1.51918e-08
6.92808e-08
-5.62135e-08
1.88546e-08
-5.86544e-07
1.79999e-09
-0.00568033
0.00162125
-6.9064e-09
5.22259e-09
-2.08803e-08
-1.88652e-08
-2.06812e-08
8.1829e-11
-2.76637e-08
0.000163091
-9.70752e-08
4.98129e-09
-2.83192e-08
0.00197221
2.76192e-09
-1.42819e-08
3.01309e-10
-4.68503e-09
0.00484594
2.31722e-08
-1.07587e-08
5.28408e-09
-4.60675e-09
-1.7985e-08
1.26777e-08
0.000100013
7.98404e-08
-1.46121e-08
2.38499e-10
2.23208e-08
-1.9e-08
1.13973e-07
1.4043e-07
4.39722e-08
-5.45788e-08
-4.84842e-08
-4.32396e-09
-1.73413e-08
2.06006e-09
0.00244178
1.26009e-08
2.92091e-08
-0.000336272
0.000503781
9.41702e-05
1.43968e-09
0.00382749
4.14757e-11
8.60481e-10
-0.00370358
0.00012565
9.24227e-05
-2.47024e-08
3.9929e-08
1.87194e-08
1.44983e-08
-7.28874e-09
9.48634e-09
-3.64879e-10
-1.89322e-09
-3.28536e-09
-5.62003e-09
7.51363e-09
1.16113e-08
-7.15425e-09
-1.97881e-08
-2.4338e-08
1.57143e-09
2.34784e-08
1.10653e-08
-1.63997e-10
-3.4407e-08
0.00224384
0.00143443
-5.25194e-09
0.00437867
5.39916e-08
2.68975e-09
-0.00242124
0.000496516
-2.02334e-08
1.99512e-08
-9.3901e-09
2.32664e-09
0.000180585
0.000697879
-4.3896e-09
4.21255e-08
-6.0531e-09
1.06721e-08
-3.1022e-08
2.54669e-08
0.000964157
2.53007e-08
1.46333e-08
-6.21455e-09
0.000421673
0.00242491
-0.0221012
0.000863168
-3.94267e-08
5.1865e-08
0.000520946
-4.18317e-05
2.32834e-10
0.00165591
2.49932e-09
2.25058e-08
-2.08504e-09
-0.0147175
2.41042e-07
2.58785e-08
-3.76318e-06
1.22254e-09
1.96132e-07
6.29668e-09
-0.00170013
-1.17909e-06
2.56252e-09
-8.16216e-05
-7.51584e-09
3.08072e-08
2.30914e-05
-1.7621e-08
7.95039e-08
-0.000532043
-0.000910589
-7.14865e-07
-7.79123e-09
-3.67563e-09
1.14196e-07
4.0678e-07
3.68448e-08
1.80856e-08
-7.37142e-09
-6.48831e-08
-5.81778e-09
-1.88213e-08
3.64849e-10
-1.68965e-08
2.36096e-09
1.75746e-10
-0.00354131
2.63325e-09
-0.00357268
6.08649e-09
-1.75002e-08
1.87041e-09
1.54019e-07
1.44303e-09
-1.8543e-08
-1.26108e-08
-0.000583124
-1.15673e-08
-8.8936e-09
3.97522e-09
-3.71409e-06
5.591e-08
7.08449e-09
4.81653e-09
9.98583e-09
-3.56818e-09
0.000264349
-1.4506e-08
0.000248337
-3.45559e-09
3.75427e-09
-4.72212e-08
5.09601e-08
-1.14486e-08
3.15685e-09
8.03292e-08
-1.21417e-08
7.5082e-09
-0.000830603
-9.87543e-07
5.37696e-06
-2.30394e-08
-2.73954e-07
-2.48563e-08
2.11941e-09
-3.13612e-09
3.15801e-08
4.67418e-10
1.64017e-07
-4.03529e-09
1.15095e-08
3.03344e-08
2.36101e-09
4.58145e-08
-0.0013963
0.00272091
0.00020032
7.37162e-09
-1.91536e-10
1.5084e-08
2.09043e-09
3.81537e-08
2.35581e-09
0.000606895
3.27036e-05
-1.76745e-09
1.42861e-08
4.11183e-09
6.11154e-09
-1.07395e-08
4.37698e-05
1.02458e-08
2.12575e-08
0.000159433
3.11721e-08
6.71526e-09
-8.44073e-10
-1.08045e-08
0.00167234
-5.54625e-09
0.000186313
-8.40476e-09
-1.02667e-07
-7.94861e-09
4.03456e-07
-3.95895e-06
6.85823e-10
7.71193e-10
-0.000596286
8.86736e-10
-4.46243e-05
-4.38272e-10
-7.09151e-09
6.17549e-08
4.01402e-08
4.90031e-09
0.000232473
0.00225005
-5.7419e-08
1.32636e-07
1.76771e-08
8.17911e-05
0.000255258
0.000115445
2.08404e-05
1.3297e-08
1.59189e-08
8.4648e-08
-1.02633e-08
1.29408e-09
-1.26955e-08
0.000408825
1.17457e-08
-1.20081e-08
-1.84099e-08
-2.10971e-07
-5.92539e-09
0.00213705
-1.14219e-09
-1.83103e-08
-3.27827e-09
-8.25481e-09
6.68927e-10
-2.75943e-09
-6.7905e-09
0.0067875
-5.43727e-08
-6.35241e-07
0.000446244
0.000647132
-3.26087e-09
-8.5999e-08
-1.71301e-09
4.46612e-05
-7.9512e-09
3.94486e-09
-1.06933e-06
0.000835799
0.00058275
-3.19866e-08
0.000589512
5.51238e-05
-3.9837e-09
2.75775e-05
-4.91138e-09
-1.20062e-08
-8.08096e-09
1.18946e-08
1.18075e-07
2.32157e-09
-0.000619003
6.39836e-09
1.1378e-08
-9.03108e-09
-0.00379916
5.15505e-06
-3.99477e-08
3.74851e-08
-6.46222e-10
-3.06071e-08
7.14661e-07
1.34853e-05
-3.27522e-09
-5.39898e-09
2.49116e-08
2.81305e-08
0.00137651
1.08065e-07
-2.61889e-08
5.59426e-09
-0.000113681
-8.59603e-08
-1.6608e-08
4.39092e-09
-0.00033063
-0.00368753
1.53391e-08
1.11731e-08
-0.000376182
1.32405e-08
-1.90738e-08
-0.000358724
-0.000750322
-1.58175e-07
-4.97198e-09
-1.01849e-07
3.40461e-09
-3.62998e-09
0.000158805
-5.10605e-09
-1.7687e-08
2.07331e-09
1.11479e-08
-7.35357e-08
0.00107271
-5.53378e-09
1.0906e-07
0.00166121
-2.71841e-06
-6.92012e-09
-4.00408e-09
0.00083454
0.00417944
1.48884e-09
-2.13435e-07
3.37224e-08
-2.11955e-08
-0.000345324
1.06412e-08
-3.38615e-09
-0.000358791
2.48871e-08
7.0579e-08
5.53585e-08
-0.000579193
-8.76363e-09
-1.97123e-06
1.8972e-08
-0.000723793
2.48664e-08
-7.01002e-07
-3.68509e-08
-7.3837e-09
2.29252e-09
1.11704e-09
-2.78531e-08
0.00109514
-0.000227068
9.5272e-05
-1.72053e-09
3.42218e-08
0.00526819
-0.000422925
-1.15506e-08
-5.87133e-09
-2.24392e-09
1.68574e-08
-7.69413e-07
0.000672201
2.63072e-07
-3.79833e-10
3.32555e-10
-6.54185e-09
0.000620668
6.55431e-08
-6.15459e-06
-1.88048e-08
6.84338e-08
2.06154e-08
-7.23234e-08
7.48929e-09
-0.0020018
-0.000493088
-1.25206e-08
6.19255e-10
1.00368e-08
5.92094e-05
-1.42545e-08
9.25837e-10
0.000552783
-3.24554e-05
-0.00372677
-2.00486e-05
-4.94295e-08
7.48063e-09
6.23874e-09
-2.15493e-08
-5.68474e-10
6.49868e-09
-4.69641e-06
3.1135e-05
-6.85448e-09
1.7372e-09
1.32235e-08
-0.000628053
0.00155677
-3.55506e-09
7.035e-08
-1.65389e-08
6.74385e-09
-0.00318568
-0.000554012
-6.89495e-07
-0.000570462
-1.07787e-10
-1.96187e-09
0.0017836
4.55332e-09
-3.55388e-07
5.95029e-09
3.67999e-09
-8.4689e-10
-7.55358e-06
6.65711e-06
-2.31492e-09
-0.000991239
-2.26586e-09
-2.02432e-06
0.00531864
-0.00485137
1.62625e-05
-4.3513e-09
-3.27388e-09
6.31509e-09
3.16481e-09
-0.000364517
4.50793e-08
3.04545e-05
-0.00156687
-4.14532e-09
-6.54326e-09
-8.42868e-09
-0.000105305
-9.51111e-05
-2.58192e-08
-3.03089e-07
-0.00255951
4.20895e-05
-2.41661e-09
-8.16499e-08
-9.18948e-09
4.66624e-09
2.31353e-09
0.00425921
9.39695e-07
-6.60899e-09
-4.75752e-08
-3.30479e-05
-0.00551379
-0.000172477
-0.001162
-6.08557e-11
-4.41441e-07
-6.3396e-09
-1.358e-09
7.11071e-05
-7.81879e-09
-0.00147731
4.60406e-09
3.21138e-09
1.54691e-08
7.35458e-09
0.00117249
-1.87478e-08
0.00511724
1.59708e-05
1.04795e-08
2.04628e-09
0.000875539
-9.45813e-09
-1.10548e-10
6.91256e-10
-6.75585e-05
0.000139202
2.63904e-07
0.000819829
-3.39795e-09
0.00143777
0.000649256
0.00527527
5.4845e-09
-8.46116e-07
1.28715e-08
0.000737718
1.52174e-08
1.06655e-08
-5.30625e-09
0.00530987
0.00119565
5.20511e-09
4.776e-08
0.000581402
6.547e-09
6.46318e-09
7.6531e-09
-1.21663e-08
-1.66146e-07
1.17497e-07
2.73803e-09
-3.15162e-10
6.86546e-09
-1.15831e-08
-6.01654e-07
-0.000307467
4.63604e-09
3.4223e-09
-0.000165337
4.12487e-09
-0.00261678
1.20776e-08
-0.000432613
-0.000957997
5.70319e-09
-9.51325e-10
3.73506e-08
-4.39802e-09
-0.000201929
-7.05183e-05
-6.34381e-05
-9.11177e-05
1.87883e-09
4.04211e-09
0.000160535
-2.29118e-08
-3.77237e-05
0.000156641
-7.73558e-09
0.00698026
-1.73989e-08
-1.3454e-07
-1.0298e-09
-5.57141e-10
1.38773e-09
0.00141797
-1.41845e-08
0.00114954
-8.77982e-09
-4.07339e-10
-1.7977e-08
0.000639677
6.50826e-09
1.79019e-09
2.40727e-07
1.37784e-08
4.2117e-09
-0.000869383
-1.8576e-10
-1.71087e-09
-4.29894e-09
-3.66866e-09
0.0046224
-1.15171e-08
-0.00727584
-1.03423e-08
-1.0043e-08
9.41472e-12
-1.554e-08
-3.6511e-08
-1.80456e-08
-0.00374561
-2.2645e-07
2.09237e-08
0.000401735
2.27584e-08
4.89222e-06
-1.06122e-09
0.00489158
-5.26821e-09
7.1543e-07
-0.00621783
1.49984e-08
-6.91993e-09
9.59405e-10
-7.26813e-12
-8.955e-09
-3.74064e-09
1.79581e-07
-6.88607e-07
-8.87919e-09
-4.05644e-10
0.000858906
0.000857561
-2.67441e-08
7.68134e-06
1.88604e-11
5.7265e-09
-2.50495e-09
-3.88438e-09
8.43745e-09
-6.352e-05
1.87934e-08
-1.26142e-05
1.24526e-08
1.82269e-05
-9.69409e-09
1.92118e-09
-1.1428e-09
0.000439727
2.7532e-09
-1.00644e-07
-5.25023e-08
0.00053887
-3.04741e-09
3.19521e-08
3.90212e-05
3.23647e-08
-0.00273272
-1.67361e-09
7.39473e-09
-3.80689e-09
1.22764e-08
1.01951e-07
-7.51127e-07
0.000312255
-1.56205e-08
-0.00088638
-3.41384e-08
-3.34005e-09
-8.20463e-09
8.18076e-07
-2.79389e-09
-5.11289e-09
-7.85518e-09
0.00517918
-5.5473e-09
-4.20534e-08
-3.2893e-05
0.00060148
-3.5896e-08
1.01735e-07
6.71239e-09
-5.85917e-08
3.44179e-08
-1.46694e-08
-6.58925e-09
3.04137e-09
0.000162141
-4.33753e-08
-7.01825e-07
-3.97161e-09
4.6376e-07
0.0012874
1.20039e-09
2.96304e-08
-1.18002e-08
4.84043e-09
-2.6978e-08
2.40498e-09
9.43795e-08
9.95128e-09
-5.56945e-08
-1.31824e-05
5.13575e-10
8.08605e-09
-1.60805e-08
8.90871e-10
4.44527e-09
-1.54877e-07
4.44637e-07
0.000511936
-3.2241e-07
3.10373e-08
-0.00823803
-0.00222431
0.00108227
1.78086e-08
2.9001e-08
-2.12131e-06
9.20258e-09
-7.12155e-09
-6.07878e-12
-0.000147516
1.27821e-08
-0.0012497
5.92306e-09
-1.51727e-08
1.09224e-08
-8.76413e-09
1.0416e-08
8.85452e-09
3.40342e-09
4.60031e-10
-1.30454e-08
0.000568194
1.27564e-08
-7.6281e-07
-3.24689e-09
0.00164926
-4.78572e-09
-7.98765e-05
-6.74094e-09
-9.37359e-09
1.59099e-07
-0.00010671
1.25998e-08
-1.86132e-08
-1.29316e-08
4.31892e-09
4.61943e-08
6.28271e-09
2.11946e-08
2.77151e-08
1.65762e-08
7.10195e-08
9.25381e-10
-0.000944207
-9.3519e-10
-1.46755e-08
-1.90717e-08
-4.56769e-10
0.00648676
0.00225282
0.00544761
0.000960158
3.56501e-07
0.00233681
9.81224e-09
-9.20405e-09
-0.000801379
4.64411e-08
4.9725e-09
-4.79827e-09
6.01381e-09
-2.56506e-09
-6.08186e-09
4.64792e-09
8.83708e-09
-4.10339e-08
0.00132373
8.52091e-07
0.000141818
-9.03824e-09
-4.90968e-09
5.68514e-09
0.000393291
-1.1376e-08
-1.10964e-09
-1.46108e-05
-3.70591e-07
-3.59734e-08
0.00140399
-0.00317706
3.59449e-09
3.17073e-08
-4.46206e-09
-3.72954e-08
-3.77395e-08
5.64402e-09
-7.17424e-08
9.66092e-07
-7.28278e-09
-1.52958e-08
8.53154e-10
-1.05967e-08
9.74497e-09
1.22533e-07
-7.65229e-09
1.7176e-10
1.07738e-08
-2.56524e-08
-7.81487e-08
8.45555e-09
-1.57021e-08
5.93417e-09
-3.0895e-09
9.55146e-10
-1.27004e-08
-3.86728e-09
5.38894e-05
1.69879e-06
4.2842e-08
1.40618e-09
-1.65452e-09
0.000781912
6.50199e-09
6.51427e-09
-7.76633e-08
-0.0133552
4.42324e-09
-1.23398e-08
3.17396e-09
-0.000645743
-6.08599e-09
1.1311e-08
-5.42822e-09
0.000658617
-1.36535e-07
3.64403e-09
6.57927e-08
-1.55082e-09
1.12761e-07
4.71972e-05
3.88954e-09
2.54567e-09
1.61011e-08
-8.70346e-09
3.6097e-09
2.57161e-09
-9.04896e-09
1.61387e-05
-4.97719e-08
2.39206e-09
-8.19789e-09
-1.03166e-08
-0.0057172
3.30455e-09
-4.39935e-09
1.05382e-08
-1.59066e-10
7.18651e-10
-5.19454e-09
2.01169e-05
1.81164e-08
-1.35257e-08
-5.26038e-09
-2.3464e-08
0.000103023
-5.69457e-09
3.43343e-08
-2.37374e-09
-1.21338e-09
-4.10701e-09
0.000533817
-4.09127e-08
1.89912e-09
-3.70061e-08
1.18789e-09
-8.06523e-07
-4.56664e-10
2.60188e-09
8.74285e-09
2.93653e-09
-1.62491e-08
-2.68589e-08
1.77102e-08
-1.15952e-08
-2.81157e-09
-1.80506e-08
-1.39215e-09
7.91024e-07
-3.84999e-09
-3.84413e-08
-4.7127e-08
-5.57016e-09
0.00162987
5.90119e-09
-2.35096e-09
0.00508612
1.44011e-08
-3.37039e-09
-2.94189e-08
-9.82867e-09
6.06516e-09
-2.63562e-08
-5.65345e-07
0.00230752
1.84926e-09
-6.12975e-09
-6.51439e-09
2.18534e-08
-8.12979e-08
0.000965572
-0.000352431
-1.76818e-08
3.15837e-08
-1.95879e-08
3.45929e-09
7.00444e-10
0.000460928
-4.13963e-08
3.14346e-08
0.00105615
8.27864e-09
0.000309138
-3.94321e-09
5.87615e-09
0.000812395
-0.00426708
-0.00835946
4.49854e-07
-1.05523e-08
2.89643e-09
2.76431e-07
-7.72969e-09
-4.33104e-09
8.13212e-09
-6.36775e-06
-2.86143e-09
-3.36806e-08
-0.00164113
3.69477e-08
-3.15646e-09
-7.64378e-09
1.33457e-08
0.000649242
0.000643577
-6.88487e-07
-1.39178e-08
-2.45311e-08
0.000223098
5.59401e-09
-6.04785e-07
6.18671e-10
1.75055e-08
1.92817e-07
-0.000541835
2.00598e-05
3.37335e-08
-2.21217e-08
-7.22072e-09
-2.90291e-08
-0.000611294
7.88337e-05
-4.05693e-09
-9.24215e-08
5.32112e-09
1.04692e-08
-0.00140309
2.34279e-09
-4.68545e-09
-6.01197e-07
3.88316e-09
0.00493884
2.38132e-08
-1.18009e-08
-6.43738e-10
-4.1337e-08
-2.13623e-06
-1.06805e-09
-2.30074e-09
-2.37267e-08
-6.3433e-08
-5.16396e-09
-0.00155388
-1.45273e-08
-1.96503e-07
0.00062371
7.73568e-09
8.73391e-09
-4.11564e-09
-6.41478e-09
-6.18669e-07
-1.94446e-08
-0.000984906
5.03538e-08
0.0021586
5.89181e-10
3.06724e-09
0.00089905
2.85707e-09
8.96469e-08
1.32446e-10
-0.000506088
-3.97013e-09
2.70744e-08
-2.34413e-07
-1.38591e-08
-2.04012e-06
3.07996e-08
2.77593e-09
-3.51062e-08
0.00159964
0.00106585
1.34448e-09
-7.29719e-09
-2.3549e-09
4.37196e-10
-3.08011e-09
4.82321e-07
2.55526e-08
0.00263423
-8.35415e-09
8.41255e-10
-1.83879e-08
1.29883e-08
-0.000798882
4.29136e-09
-2.66514e-05
0.00180921
-1.78159e-05
-2.19013e-08
1.60002e-08
6.18192e-05
1.56699e-08
0.00403257
-3.53799e-11
6.75442e-09
-1.11996e-07
1.76231e-05
-0.00192601
0.000734801
-4.38494e-08
-4.13933e-10
-2.87418e-06
-5.52964e-09
0.000404455
1.00596e-06
5.25644e-10
7.65917e-09
-4.02506e-09
1.60113e-09
0.00414884
-3.87576e-09
3.48672e-06
-5.29414e-09
1.68219e-09
0.00144287
3.18586e-09
4.83362e-09
-1.72923e-08
3.02227e-09
3.01812e-09
1.85159e-08
0.000158105
0.000419747
-2.32182e-08
4.08064e-09
0.000141714
6.27165e-08
-1.40777e-07
-0.00316131
-7.71085e-09
-5.52341e-09
-1.0516e-08
3.18381e-09
-5.55649e-07
0.000574883
3.13259e-08
1.70693e-08
1.20098e-08
-8.74777e-09
0.000319721
-3.98761e-07
3.58265e-10
-7.35653e-09
-1.66251e-08
-1.31133e-06
0.000424109
-1.67019e-08
-3.33182e-08
-0.00838012
-1.25583e-10
2.88952e-10
-5.86155e-10
-2.39631e-08
-4.47947e-08
3.61151e-08
1.64214e-09
-6.91359e-09
1.91892e-08
-5.47178e-09
-4.60517e-09
5.95435e-09
7.22427e-09
1.10612e-08
-0.000738106
0.00123881
0.00121247
0.000401623
-7.87437e-09
2.70013e-09
1.40693e-09
0.000218917
0.000177146
-1.69748e-07
-5.42776e-07
-6.0152e-09
7.64873e-05
-1.64459e-08
6.67253e-09
7.72993e-09
-1.13414e-08
2.66746e-08
-1.84895e-09
-8.34224e-09
-5.30628e-10
0.000278487
-0.00749385
4.19907e-05
0.0010072
-4.74328e-07
-5.09183e-09
0.00084735
-0.00168197
-1.56041e-08
-2.48962e-08
5.79543e-09
3.00882e-08
0.00132884
1.82382e-07
1.66949e-08
8.84142e-06
-2.16498e-07
-2.01896e-09
-2.33221e-07
0.000654822
6.36427e-09
1.65083e-08
1.12737e-09
-9.48878e-09
-9.98438e-09
-8.95232e-09
-0.00153407
-2.13231e-08
-9.88951e-09
3.40404e-08
-0.000165062
-0.000388968
-0.000587032
-1.30497e-08
-4.84739e-09
8.55463e-09
-2.46208e-09
-0.000351231
1.88839e-08
3.61865e-09
9.25995e-09
-6.08353e-09
8.7078e-09
0.000722253
-6.0756e-09
4.23049e-10
1.83216e-07
-5.61702e-09
1.36492e-08
-1.64494e-08
1.74371e-07
1.91403e-09
-1.14735e-08
1.37775e-08
-0.00701867
3.19468e-09
4.17563e-09
-1.93878e-08
5.51455e-06
0.000465537
-1.46779e-09
3.06611e-09
-0.002839
-0.00661835
-7.66186e-09
-8.31305e-09
-2.60268e-07
-0.000125217
-1.65801e-08
-5.32978e-09
8.66119e-09
0.00459013
-7.20774e-06
-3.20619e-07
1.20579e-08
-6.52498e-09
-1.12527e-10
-1.82782e-08
-7.56483e-09
1.45436e-08
-7.83437e-09
-0.00138783
-1.13813e-08
-3.09953e-11
0.00114725
-2.64766e-05
-2.51746e-08
-2.98766e-08
4.31559e-10
-2.00208e-05
-6.52614e-09
-2.34007e-08
0.00497256
7.86147e-10
2.37769e-08
-3.11407e-08
1.38566e-09
1.08442e-08
5.34975e-09
0.000941116
0.000202785
-5.03452e-09
7.7361e-10
0.000363114
-1.19387e-08
-7.6514e-09
-3.75419e-09
0.00140634
-9.10379e-10
3.12188e-08
3.32099e-09
1.41102e-09
-2.07989e-08
8.50488e-05
-4.61808e-08
-4.11781e-09
-1.3436e-07
0.00107226
5.16605e-10
3.01327e-08
6.66424e-09
-7.5587e-09
5.13512e-09
1.79226e-09
0.00511146
-1.74152e-08
-1.07873e-09
-3.58064e-09
-2.60569e-09
1.15989e-08
2.01686e-08
-4.07929e-08
3.54943e-09
2.63101e-08
-5.39669e-07
5.67318e-05
1.08667e-09
-6.87053e-09
-0.00055978
1.41726e-07
-2.38519e-08
-1.85331e-10
-9.62587e-07
-9.39474e-08
-0.00238478
2.56523e-09
-2.5178e-08
1.02798e-08
-9.96248e-09
0.00698052
1.51012e-10
1.15532e-08
-1.03669e-08
1.56986e-09
-4.26362e-06
3.08471e-08
1.27109e-09
7.30832e-07
-1.72887e-08
-3.86732e-09
0.000673426
4.82701e-05
6.68425e-06
0.0039154
4.57972e-08
-2.77459e-09
0.000621313
0.000595331
-1.6782e-08
3.36709e-08
-9.28231e-09
-0.00238671
8.79896e-11
-0.000240323
-1.83193e-08
2.32018e-09
-1.53925e-07
-4.37851e-09
9.51991e-09
7.79794e-09
-5.84827e-09
-3.76292e-09
1.46172e-08
1.19581e-09
8.40595e-09
4.78525e-08
9.56332e-09
7.48309e-06
-3.27454e-09
-1.18074e-08
-0.00201773
8.57258e-09
-1.17641e-08
-4.19526e-09
1.19094e-08
1.04432e-09
-3.78709e-09
7.63851e-09
2.20241e-08
1.39169e-05
-5.74208e-09
-6.6713e-08
0.000124304
-1.73167e-08
-9.14902e-10
-2.76442e-08
2.16009e-08
-6.1685e-07
2.02209e-08
0.000987304
-5.48195e-10
4.48588e-08
-2.12996e-08
-1.20802e-08
0.0013897
1.77636e-08
5.17412e-09
-3.52509e-08
-4.04151e-09
1.59832e-08
3.56705e-08
1.24116e-08
2.07971e-08
-1.55283e-08
7.32382e-08
1.13616e-05
-2.68244e-09
-4.11461e-08
-2.02468e-09
9.85737e-09
5.91528e-08
-2.39324e-09
0.000200596
-6.69148e-09
-2.98159e-07
3.77845e-05
6.05532e-10
-2.08604e-09
2.09779e-09
0.000149543
-2.25139e-09
-8.59082e-09
4.82232e-09
-0.00291072
-4.7629e-09
-2.54639e-06
7.86792e-09
0.00118018
-1.73367e-08
1.63629e-07
-5.47232e-10
2.97943e-10
-5.31907e-08
1.01485e-08
1.22452e-08
2.87689e-06
-2.814e-09
-5.89791e-09
8.05467e-09
-2.88716e-08
-5.70414e-10
-3.83778e-09
-0.00721775
-1.4781e-08
-0.000450915
1.16304e-08
1.54331e-08
1.50343e-08
-1.11098e-08
-1.98891e-08
-8.36617e-08
0.000516423
3.1676e-08
3.99155e-09
4.63741e-08
0.000213522
3.62947e-07
-5.32864e-09
-6.40452e-09
1.58094e-08
-1.44164e-09
1.24925e-08
-9.41128e-09
-5.60582e-09
-9.64262e-10
0.000283237
-0.00416159
0.000590148
-9.05667e-09
0.00294834
1.24801e-06
6.72554e-09
1.56289e-08
2.16529e-08
-0.000423822
4.01763e-06
2.47454e-06
3.77654e-09
-6.03651e-09
2.10881e-08
0.000218804
1.00322e-08
-3.16863e-09
-0.000740859
-5.28557e-09
2.58163e-08
1.47387e-07
-5.70856e-10
-4.13289e-08
-5.09647e-05
-1.97091e-08
2.11049e-09
0.000971566
2.54442e-08
1.09779e-09
-1.23296e-08
-2.87082e-08
1.5269e-08
5.23779e-09
1.44351e-08
-5.80484e-09
8.64363e-08
1.23092e-08
1.80314e-08
-8.64234e-10
-0.00907806
-6.10678e-09
5.88134e-11
-3.2297e-08
-0.000753878
-2.08256e-09
-5.00662e-06
-7.7643e-08
-0.00322173
2.66858e-08
1.32214e-09
5.65679e-09
-7.1826e-10
0.000815095
3.40817e-09
3.02362e-06
-0.00114137
1.98591e-08
9.69407e-09
7.81594e-10
7.83084e-09
-6.49697e-09
3.88624e-08
-8.79351e-09
0.000139849
1.25361e-07
-1.96278e-08
-0.00033213
-1.04401e-08
4.53637e-09
1.6548e-09
-2.24872e-09
-4.04636e-08
2.55849e-08
9.57209e-09
-3.39938e-07
2.59214e-09
-4.68887e-09
4.48823e-09
4.51328e-08
1.05047e-08
1.59345e-08
-0.011799
-1.13625e-08
2.10973e-08
1.94444e-09
8.04377e-07
0.000997917
-0.000210395
4.15413e-09
-4.30583e-09
1.35209e-08
-5.6512e-08
-5.23338e-07
1.7868e-06
3.46752e-08
0.000149961
5.42467e-09
0.000802551
-9.55696e-09
7.02902e-08
-6.01826e-07
-2.39904e-08
-0.000707252
6.39056e-08
-1.57788e-09
-2.52096e-08
1.1723e-08
-0.000335179
3.03044e-07
0.00113444
0.000861727
3.99981e-05
-9.67413e-09
2.85846e-08
-3.18485e-09
7.21818e-09
-1.83037e-07
4.72655e-07
-0.000220691
5.10196e-06
1.79122e-08
-1.01532e-08
-7.55846e-09
0.000742785
1.48077e-08
-1.11743e-08
4.26881e-06
-4.7155e-09
-1.2584e-09
3.37973e-09
0.00114031
-8.10713e-09
-0.00825006
-7.45341e-09
-3.19393e-09
-4.19559e-09
0.00275081
-2.75131e-09
-3.44649e-09
3.38217e-08
-0.00015847
7.97271e-09
-1.07154e-08
-3.89225e-08
4.24864e-05
1.75872e-08
8.89302e-05
3.19383e-08
1.57026e-08
1.39318e-08
-6.01984e-09
-0.000644407
1.0427e-07
-3.16634e-08
4.91272e-09
0.000179562
6.64521e-09
1.32584e-08
9.24851e-09
-5.67883e-07
1.37827e-08
-4.88373e-08
1.21307e-07
1.76797e-08
-9.64771e-09
4.88155e-05
-1.28311e-08
5.88554e-10
-4.12242e-09
-0.000251383
2.34e-05
9.01773e-09
6.44691e-08
1.82102e-08
3.92532e-10
4.88051e-09
-3.20774e-09
6.99408e-09
-7.90621e-06
1.15027e-08
0.000643287
-3.77679e-09
4.86788e-09
-2.13239e-09
2.82712e-08
0.000639005
-1.59548e-07
-1.26671e-07
-3.46078e-05
-0.000168889
-1.30255e-08
4.57998e-08
0.00044073
-1.53761e-08
-6.58394e-09
6.45669e-10
-1.36973e-09
-2.39677e-08
0.000541037
0.00133338
5.86127e-08
-8.64078e-09
-6.47995e-09
1.30419e-09
0.000109071
2.04662e-09
-1.02068e-08
-0.000579158
6.65383e-08
1.40879e-08
-9.60956e-08
-4.70414e-09
-0.00113526
9.7011e-10
9.92911e-09
4.95401e-06
-2.93634e-09
-1.7197e-08
-0.00312114
0.00136633
-1.13044e-08
1.75259e-08
1.06001e-08
1.55056e-09
-2.8146e-08
-3.07819e-09
2.93551e-08
-3.74914e-09
1.30875e-08
-8.08162e-09
-1.7808e-08
-5.63758e-09
-1.64658e-08
-1.64519e-09
-6.47753e-10
-5.85598e-09
-7.00923e-10
-4.8365e-09
0.0026425
1.04992e-05
4.12521e-09
2.66922e-09
0.000596545
8.55472e-10
4.17671e-09
0.000354353
4.3138e-09
-1.17703e-08
2.78082e-07
-5.63723e-09
6.27848e-09
1.63171e-08
-6.0816e-09
0.000501294
-7.62942e-09
-3.10095e-09
0.00125521
-3.39512e-09
2.95139e-10
-3.42727e-08
0.000128904
-2.15964e-08
-1.68752e-05
-2.11831e-08
0.00132271
-0.00451247
4.80967e-09
1.14625e-08
7.5821e-09
-7.44551e-10
-3.19844e-05
-3.10624e-09
0.00128367
2.66671e-09
9.10701e-09
-6.96948e-09
0.00171249
-1.25316e-08
0.000320204
-1.2618e-07
-9.65028e-09
0.000159011
-2.1833e-08
6.93683e-05
4.91305e-09
-2.88754e-05
-6.81319e-06
-0.00118204
-3.84208e-06
-1.78107e-09
0.000179309
-2.28444e-08
-0.00574127
-7.16325e-09
-9.84287e-09
3.82765e-10
-6.28252e-09
5.85906e-09
-0.000974714
8.91445e-08
1.47844e-07
-9.19518e-08
-6.21317e-06
-8.81455e-09
1.42156e-08
-5.92902e-09
1.03206e-08
-6.98789e-07
-6.82999e-09
-0.000843552
2.74367e-08
-0.000317292
-2.41285e-11
-1.92043e-09
2.79678e-08
-9.43295e-09
1.25561e-08
1.29386e-07
1.31767e-08
-0.000284743
-8.73848e-09
0.000346511
-0.00374077
0.000396758
0.0031459
2.95317e-10
-3.04566e-08
4.89611e-10
1.0144e-08
-1.69296e-08
-3.26842e-09
-0.000111793
-0.000200715
7.41961e-09
-5.27087e-08
-2.02665e-07
5.0546e-09
2.01208e-09
0.00314853
-0.000152853
3.3656e-09
-2.45058e-08
1.19365e-08
1.01013e-08
-3.38054e-09
0.000635591
-2.85686e-06
4.48367e-08
-3.44681e-09
4.19298e-09
3.54954e-10
1.3724e-07
-6.84029e-09
0.00085112
0.00161638
-1.10315e-05
1.43656e-08
-2.29505e-08
2.74795e-09
7.2527e-08
-7.22276e-06
3.84415e-08
3.92534e-09
-4.94543e-06
2.66634e-05
0.00174073
-1.17343e-08
-6.39892e-09
-1.07788e-08
-2.28681e-09
-0.00135606
2.11363e-08
1.25854e-08
2.63952e-09
0.00272363
-1.74082e-07
-0.0149663
-7.33963e-05
1.11112e-08
-3.73438e-08
-7.40818e-09
2.42332e-08
-3.07457e-06
1.72306e-08
1.73783e-08
5.59814e-09
0.000101458
-5.1463e-09
-1.9607e-08
3.67285e-06
-1.4588e-08
2.26596e-09
-3.22073e-08
9.2566e-09
1.56031e-08
1.45701e-08
-0.000914117
-1.68676e-08
-6.32988e-09
1.59052e-08
-2.28377e-09
2.09866e-08
1.03515e-08
2.39448e-09
-1.04696e-08
-4.50421e-09
-8.01779e-06
-0.0137537
-1.24125e-08
3.43454e-08
-4.86624e-09
-1.25389e-08
-7.54019e-09
2.71665e-09
2.57152e-08
-6.95952e-09
1.7739e-09
4.73429e-09
3.68284e-09
-1.41216e-08
-1.22182e-08
-3.23698e-05
-0.00267922
0.000200767
5.51768e-09
1.70012e-08
2.07363e-09
-1.25114e-07
-1.39027e-08
-1.07927e-08
7.93032e-09
-6.82933e-08
3.10325e-09
-6.64392e-09
8.96955e-09
2.07161e-09
1.75181e-08
-7.70605e-09
0.00135966
1.85367e-08
-1.73859e-08
-2.69148e-09
0.00185266
-7.93065e-09
-7.43114e-10
2.10279e-09
3.03112e-09
-2.89925e-07
5.96955e-09
-9.62372e-09
-5.12534e-09
-4.71879e-06
-6.87592e-09
-1.6188e-08
7.07052e-07
2.74961e-07
6.45169e-10
0.000843105
-3.07233e-08
-1.91391e-07
8.40189e-07
-1.22349e-08
-2.40721e-08
-9.79748e-09
5.41104e-09
-0.00568824
6.79789e-05
2.85473e-09
9.28989e-08
5.9309e-08
-1.29721e-07
-7.04893e-09
-8.24793e-08
-1.86807e-08
-3.56508e-05
-4.83748e-10
-1.86477e-08
-2.51343e-05
-7.89767e-10
2.73987e-08
0.000658489
-1.74098e-09
1.12613e-08
1.69807e-07
1.04039e-08
2.35324e-08
-4.98197e-09
-2.40847e-09
-0.0010694
-6.16236e-09
-5.3248e-07
2.6632e-08
-7.24125e-09
6.15532e-09
-9.19684e-09
-5.91006e-09
0.000751664
0.00322821
-2.29906e-08
-1.40608e-08
-1.32677e-08
-4.14218e-09
4.785e-08
3.02021e-10
-2.55379e-08
-1.59247e-09
3.44563e-09
3.18921e-08
-2.88804e-11
-1.32822e-08
-1.46469e-08
2.20257e-08
-1.70793e-09
-7.61679e-08
1.95197e-08
2.54083e-07
0.000844307
7.29785e-09
1.15303e-08
0.00119395
-7.80225e-09
7.58169e-09
4.74151e-09
2.77942e-09
5.95525e-08
-0.000342176
4.65829e-09
-2.15693e-05
-1.10152e-08
-2.98815e-08
1.74548e-07
-7.40747e-10
-4.2357e-10
-6.22471e-09
3.31491e-08
-0.000425732
4.15466e-07
-6.61261e-09
-2.31331e-08
8.77291e-09
4.53155e-08
1.83217e-09
-1.75024e-08
-1.49723e-09
2.26064e-08
-2.1873e-09
3.31025e-07
7.69711e-05
-1.2498e-07
0.000301668
-1.68016e-08
-4.84211e-09
-4.35142e-08
-0.0147444
7.76156e-09
0.000368608
-2.54559e-08
-4.06567e-08
2.23018e-08
-3.51501e-09
7.71155e-09
-1.12102e-09
1.65783e-07
2.65319e-08
-4.06163e-08
1.52546e-09
-0.00887021
-4.78343e-09
9.4125e-08
-8.50358e-08
-1.78511e-08
-1.04322e-10
-1.06833e-07
-6.44948e-09
1.2864e-08
-2.94451e-05
-7.9717e-09
2.97178e-08
0.00301124
-3.8511e-08
-4.79518e-08
4.6816e-09
-1.83658e-08
-0.00049451
-6.38229e-09
0.00138969
-2.67282e-09
6.86416e-09
2.75164e-09
8.82044e-08
-2.84544e-07
6.58702e-05
-1.14968e-09
-1.41921e-06
2.8678e-08
-5.81302e-07
0.000122931
-2.57281e-08
-2.12348e-05
-2.44172e-06
2.02519e-08
-1.98827e-09
-3.03233e-08
1.14417e-10
2.64722e-07
2.48817e-08
-6.28789e-09
7.74488e-09
-5.50643e-08
-1.36176e-06
1.31498e-09
-4.60359e-09
0.00318715
-1.25278e-08
-0.000404699
-1.97232e-06
-1.87795e-06
-2.82289e-08
-1.3469e-07
3.30873e-10
-2.69867e-08
1.25634e-09
-0.000270027
4.26643e-05
-2.17109e-08
-7.5477e-07
-0.00186585
1.83865e-06
-0.0134068
-1.44905e-09
2.25838e-09
6.28911e-09
0.00044178
-4.82456e-07
-1.05215e-08
0.000660641
-3.9058e-06
-1.54837e-08
-2.95506e-09
-0.0132965
0.000135989
2.37903e-08
-7.14647e-09
-7.5347e-09
-1.41544e-09
-4.60485e-09
-0.00115689
1.97712e-08
7.45609e-09
-2.528e-08
2.96705e-08
-2.34362e-08
-2.41791e-08
-6.12388e-09
2.12456e-07
-2.0077e-08
-5.09931e-08
8.92973e-09
0.000199168
7.48652e-07
8.62191e-09
-7.76901e-09
-2.22024e-08
8.14503e-10
0.000517678
3.05986e-07
-0.000192355
-1.92138e-09
-9.32374e-09
-2.84721e-06
3.20242e-08
1.78916e-08
2.45951e-09
-2.42966e-06
2.50372e-08
4.61901e-09
-4.68578e-08
-6.02604e-09
7.27537e-07
-1.92983e-08
2.73289e-07
-1.38614e-08
-6.96716e-07
0.000877249
7.2128e-06
-0.00105766
1.59158e-06
3.31172e-09
6.18473e-09
5.44673e-08
8.34022e-09
-3.25148e-09
-1.86584e-05
0.000139249
-2.2474e-08
0.000479359
-2.0987e-09
3.91891e-08
1.35862e-08
-0.000152056
-2.80655e-09
7.29774e-09
-8.17505e-07
3.81352e-09
0.000501052
3.74661e-08
0.00120968
-3.96985e-09
2.23219e-08
4.98812e-08
0.000317677
0.000828153
5.71567e-09
-2.65133e-06
-1.05772e-08
-1.58789e-08
-2.86074e-07
-5.16965e-08
0.000231244
0.0003847
-5.75583e-09
-4.36854e-09
-1.20122e-08
1.04729e-08
-2.84953e-06
-8.02425e-10
-1.39819e-07
-8.90974e-09
-6.0397e-07
1.34614e-08
5.09236e-08
4.5461e-11
5.82674e-08
-2.69114e-06
1.61896e-08
-2.3609e-08
1.23847e-09
-0.00558078
0.000116966
1.57688e-08
-5.77676e-10
-6.41201e-08
-1.05297e-08
-3.00541e-08
2.63107e-08
5.71111e-05
1.60832e-08
0.00111717
-3.38597e-08
6.50508e-09
-4.88651e-08
1.5784e-07
9.28122e-06
-5.27281e-09
8.89711e-09
-6.84204e-10
1.63706e-07
3.145e-08
1.06399e-07
-0.00169798
2.20013e-08
-1.69725e-08
-3.37312e-08
-2.21522e-08
-7.18649e-09
2.33534e-09
1.52829e-09
-2.46377e-08
1.07716e-09
1.15582e-08
-5.08079e-09
3.40042e-08