/*--------------------------------*- C++ -*----------------------------------*\
| =========                 |                                                 |
| \\      /  F ield         | OpenFOAM: The Open Source CFD Toolbox           |
|  \\    /   O peration     | Version:  v2012                                 |
|   \\  /    A nd           | Website:  www.openfoam.com                      |
|    \\/     M anipulation  |                                                 |
\*---------------------------------------------------------------------------*/
FoamFile
{
    version     2.0;
    format      ascii;
    class       surfaceScalarField;
    location    "250";
    object      ddtCorrDdt0(phi);
}
// * * * * * * * * * * * * * * * * * * * * * * * * * * * * * * * * * * * * * //

dimensions      [0 3 -2 0 0 0 0];
oriented        oriented;


internalField   nonuniform List<scalar> 
49868
(
-1.60071e-06
-4.05017e-06
5.65019e-06
0.00407993
-0.0037657
-0.000314431
-0.000541094
0.000275234
0.000265853
6.22599e-07
8.79374e-07
-1.50229e-06
2.53911e-05
2.20422e-05
-4.74327e-05
-1.01216e-05
7.59518e-06
2.52639e-06
-7.81247e-07
-7.58851e-07
1.54025e-06
3.48639e-06
-1.01933e-06
-2.46356e-06
-1.70222e-06
1.8198e-06
-1.17677e-07
-0.00101798
-0.000162411
0.00118039
0.00013111
-0.000177819
4.67116e-05
-8.09982e-06
-3.5279e-06
1.16271e-05
6.06446e-07
-1.3876e-06
-3.91714e-05
2.68039e-05
1.23679e-05
-7.60645e-06
2.38091e-05
-6.58102e-06
-1.72253e-05
-7.50553e-06
-2.57465e-06
1.00802e-05
-0.000384966
0.000194721
0.000190245
1.78496e-06
-4.72992e-06
2.94497e-06
5.10294e-06
-2.02149e-06
-3.08122e-06
-1.38578e-05
8.80108e-05
-7.41523e-05
-0.000642552
0.00565425
-0.00501163
-1.67261e-06
1.6226e-06
4.74625e-08
-5.78669e-06
4.18524e-06
1.81123e-06
-1.26721e-06
-5.43329e-07
-1.20558e-05
3.95608e-06
3.53687e-05
0.000142289
-0.000177659
-8.23119e-05
7.20043e-05
1.03132e-05
-0.00476816
0.00412558
-1.25279e-05
7.82891e-06
4.69911e-06
-0.000153977
0.0001116
4.2377e-05
8.2282e-08
-1.0458e-06
9.64031e-07
0.0023602
-0.00124549
-0.00111457
-0.000218515
-0.000166456
-4.03391e-05
6.86392e-05
-2.82999e-05
-5.30776e-05
5.78579e-05
-4.78003e-06
-0.00204339
-0.000755721
0.00279912
-0.00309952
0.00277949
0.000320142
-7.89098e-06
1.12046e-05
-3.31323e-06
7.85461e-06
-1.74746e-05
9.61958e-06
4.30476e-05
-1.19388e-05
-3.11071e-05
-5.9866e-06
-6.54117e-06
-0.00280464
-0.00029497
-5.80609e-06
5.80584e-06
0.000432708
-0.00107523
0.000642528
-0.00117336
-0.000279576
0.00145292
0.000508525
-0.00355981
0.00305132
-6.69961e-06
2.65288e-05
-1.98266e-05
-0.00169708
0.000622041
0.00107505
7.82919e-05
-6.8351e-05
-9.94096e-06
-1.9072e-06
4.60895e-06
-2.70308e-06
0.00033071
-0.000299263
-3.1449e-05
-0.0011069
0.000712285
0.000394614
1.43435e-06
-6.25215e-07
-8.08942e-07
-8.26866e-07
-1.03892e-06
1.86527e-06
-8.21741e-05
-1.36759e-07
1.23153e-06
-2.06025e-06
-0.000125753
0.000200671
-7.48735e-05
1.80284e-05
-1.01736e-05
5.54583e-06
-3.76151e-06
7.6639e-07
-2.75903e-06
1.99286e-06
0.00081517
-0.00234916
0.00153399
-0.0031463
0.00110291
0.00406938
-0.00128981
-8.41775e-05
-0.000401812
0.000485982
-1.60171e-06
-3.05011e-06
4.65188e-06
-1.7464e-05
2.8308e-05
-1.08438e-05
-0.00279002
0.000143081
0.002647
-4.15912e-05
0.000372303
-4.27513e-06
-4.2862e-06
8.55952e-06
0.000819874
-0.00360395
0.00278407
0.00166936
-0.000854185
0.00302529
0.00104409
-0.000584219
0.000500017
0.00331012
-0.00109398
-0.00221613
0.000622175
-0.000855242
0.000233067
-0.00104974
0.00670399
-1.62711e-06
4.4357e-06
-2.80885e-06
-5.52796e-06
-3.36431e-05
-0.000189347
0.000252495
-6.31521e-05
-0.00480666
0.00166036
1.04683e-05
-6.95635e-06
-3.50969e-06
-0.00690602
0.00534384
0.00156217
3.79529e-05
-2.74877e-05
2.07889e-05
-1.01753e-05
5.58458e-05
-4.56699e-05
-9.26687e-06
8.88573e-05
-7.95893e-05
-0.000906255
-0.00022858
0.00113488
-1.75028e-05
0.000166887
-3.16928e-06
-2.27121e-05
2.58824e-05
9.37593e-07
-8.55145e-07
-0.000122187
3.23969e-05
8.97903e-05
-0.000473681
-0.000633208
4.70303e-06
6.01831e-06
-1.07201e-05
6.75575e-07
-7.84098e-06
-1.96471e-05
4.33309e-05
-3.23672e-05
-1.09631e-05
7.4186e-06
-1.16938e-05
0.00023048
-0.000272068
-0.00194729
0.00202416
-7.68709e-05
8.03523e-05
-8.96191e-05
-0.00629041
-0.000615584
-4.48836e-07
-3.14014e-06
3.588e-06
-0.00486254
-0.00122985
0.00609235
0.000264666
-0.000104632
-0.000160034
-1.15781e-06
2.71226e-05
-2.59649e-05
2.44372e-06
-4.07109e-06
-2.60021e-06
2.50495e-06
9.70695e-08
-0.00011035
0.00034083
-9.1894e-06
1.62914e-06
7.55996e-06
-1.50004e-06
-4.28654e-06
7.83767e-06
-2.53014e-05
0.000363544
0.00199667
1.13976e-05
-8.99908e-06
-2.39632e-06
-2.01944e-06
6.68816e-05
-6.48626e-05
-2.25115e-05
-2.27626e-05
4.52711e-05
2.58466e-06
-1.81858e-06
0.000652396
-0.000245373
-0.000407032
-5.6741e-06
0.000205697
-0.000200023
1.52048e-06
-9.13988e-07
0.000128681
8.10256e-05
-0.000209692
0.00190046
-0.00158504
-0.000315265
6.67578e-07
-1.70694e-06
-7.28429e-05
6.26679e-05
6.0393e-06
2.0492e-05
1.25744e-06
3.84575e-06
-1.61052e-06
2.39487e-07
1.37116e-06
-0.000206693
8.09372e-05
0.000362575
0.000289817
-1.76948e-05
-8.13049e-06
2.58262e-05
-8.31389e-05
0.000149694
-6.65542e-05
7.55798e-06
-1.18455e-05
0.000829175
0.00107133
-0.00325559
-0.00155106
-7.82114e-06
2.16729e-07
-0.000862338
0.00388763
-0.000575328
0.00306242
-0.00248697
0.00583991
-0.00510659
-0.000733335
9.79693e-05
-0.000644865
0.000546936
-0.000178524
-2.33997e-06
5.26847e-06
-2.92854e-06
0.0008361
-1.85548e-05
-0.000817536
1.74898e-05
-3.87617e-05
2.12718e-05
9.29342e-06
2.10546e-06
-3.75211e-07
-2.22332e-06
2.59835e-06
1.58885e-06
2.36045e-06
-3.94762e-06
0.00282265
0.00333139
-0.006154
0.0006382
-0.000755717
0.000117514
0.00603168
-0.00142864
-0.00460294
0.000743909
0.00528782
0.00716414
-0.00255795
-0.00460613
0.00015535
-2.42335e-05
0.000234996
-0.000240671
-0.000481473
0.000257145
0.000224319
1.89369e-05
-4.14489e-05
-1.69013e-05
9.03507e-06
7.86636e-06
-1.55585e-05
-9.0676e-07
1.57458e-06
1.18707e-06
3.96201e-06
-5.14992e-06
0.00573549
0.000419046
-0.000165934
-0.000253135
-8.26802e-05
0.000918773
-0.0016981
0.000452589
0.00232105
-0.00129233
-0.0010287
2.06049e-05
1.44185e-06
-2.20463e-05
0.00368439
-0.00259561
-0.00108865
-5.57896e-06
-3.91136e-05
4.46928e-05
-0.000260455
-0.00143661
-4.22464e-06
2.31699e-06
-1.03546e-05
1.63939e-05
-9.80758e-05
-3.13416e-05
0.000129418
1.59624e-06
-5.04171e-06
3.44895e-06
4.70469e-05
1.69971e-06
-1.08889e-05
-1.3691e-06
4.57908e-06
-3.20971e-06
0.00097999
-0.00109372
0.000113839
8.76201e-07
-3.8218e-06
2.94496e-06
7.82205e-05
0.00400178
0.00588678
-0.00167324
-0.00421354
-6.70956e-05
-6.39805e-05
0.000131076
4.35099e-05
-0.000110606
-5.45165e-06
3.9513e-06
-1.77274e-05
-5.06239e-05
-0.00100715
-0.00084628
0.00185344
1.82472e-06
-2.20016e-06
0.000137267
-0.00104351
0.0158511
-0.011288
-0.00456293
2.34631e-06
-1.11492e-06
-2.12996e-06
-4.69866e-07
1.01532e-05
-1.58681e-06
-8.56738e-06
1.45882e-06
-3.05293e-06
1.59608e-06
-4.26417e-06
0.00300667
-0.00226278
-0.000599969
0.000508431
9.15269e-05
-0.00428518
-0.000429178
0.00471429
5.24952e-07
9.94198e-07
-1.51891e-06
0.00152358
0.000797467
0.000243953
-0.000333748
8.97956e-05
0.00279631
0.000210265
-6.39844e-06
1.04872e-05
-4.09047e-06
-3.6968e-05
-3.2568e-06
4.02296e-05
-0.000653767
-0.000840042
0.00149382
-0.00443891
-0.00214116
0.00658011
0.0015868
-0.000806839
-0.000779965
-1.30178e-05
-7.72735e-05
9.02919e-05
-9.40908e-05
0.00012946
3.00902e-05
-3.56688e-05
7.49998e-05
3.96233e-06
-6.85754e-06
2.895e-06
-0.000803537
0.000574956
0.0026941
-0.00713304
-5.79498e-05
7.36354e-05
-1.56851e-05
-0.000106327
0.000235024
2.25542e-05
-4.45019e-05
5.36939e-06
-6.33187e-05
5.60488e-05
-0.000154125
-7.41613e-06
-7.11916e-06
1.45358e-05
0.00127428
0.00461246
0.00320603
0.00199885
2.84687e-06
4.01991e-05
-5.03663e-06
-3.65702e-05
-3.95802e-07
1.91856e-05
-3.67424e-05
1.75562e-05
5.2057e-05
-6.50755e-05
3.41349e-05
-2.05434e-05
-1.35914e-05
-2.7702e-05
9.0854e-06
1.86163e-05
0.000646969
-8.76906e-06
-0.000209535
2.01843e-05
-0.00038205
0.000174054
0.000207991
-1.70128e-05
-1.06907e-05
0.00644467
-0.00323861
-1.01256e-05
7.99411e-06
2.13802e-06
-1.23943e-06
6.14289e-07
-1.0819e-07
4.65813e-06
-4.55145e-06
-4.47192e-05
7.37806e-05
-2.90604e-05
0.00351989
0.000848751
-0.00436867
2.83824e-06
1.77666e-05
-1.72758e-06
1.71169e-06
1.59392e-08
-3.9186e-08
1.24299e-06
-1.20373e-06
-1.25075e-05
9.48716e-06
3.02104e-06
1.21793e-05
-8.80262e-06
-3.37736e-06
-0.000174519
8.78601e-05
8.66598e-05
0.000542293
0.000238403
-0.000780696
0.000136035
-0.000242343
-6.39367e-05
-2.85026e-06
6.67874e-05
6.01343e-06
1.77949e-05
-5.8091e-05
5.01377e-06
2.09812e-07
-2.13861e-06
1.92904e-06
0.000594657
-0.000405196
-0.000189451
0.000397482
0.000197162
-1.17776e-05
3.10759e-05
-1.92981e-05
2.71213e-06
-4.08139e-06
5.1482e-05
1.25638e-05
-6.40446e-05
-4.1037e-05
-1.5755e-05
5.67921e-05
-2.32358e-06
3.90882e-06
-0.00020592
-0.000176131
0.00286211
0.00297782
0.00014909
-0.000259442
-9.04216e-05
-8.40947e-05
-0.00110653
8.85405e-05
0.00286774
-0.00204787
0.000727639
-0.000185347
-1.93242e-06
2.7399e-06
-8.08061e-07
0.000205564
-0.000687967
0.000482381
3.34186e-07
9.01442e-07
-1.23539e-06
-5.67502e-05
1.2031e-05
-0.00301088
-0.00241959
0.00200632
0.000413265
-0.000155029
-0.00226456
-2.02237e-05
3.94096e-05
-0.000389821
0.000206921
0.000182899
-5.84865e-05
3.29624e-05
2.5523e-05
-2.63284e-05
8.63395e-06
8.64987e-07
9.45667e-07
-4.43665e-05
-1.23835e-05
2.92654e-06
-5.75298e-06
2.82633e-06
-4.38256e-05
2.91292e-05
1.46976e-05
0.000197502
-8.21703e-05
-0.000115338
-1.23215e-06
5.18955e-06
-1.77623e-06
-9.38938e-07
2.71543e-06
-1.2763e-05
9.57148e-06
3.19222e-06
-4.96576e-08
6.02292e-06
-5.97335e-06
-9.75553e-06
-2.75212e-06
-1.38167e-06
4.7515e-07
-2.22582e-06
-0.000119961
-8.02647e-06
1.38731e-05
-5.83944e-06
0.000323141
-1.44326e-05
1.67954e-05
-2.36308e-06
-7.09181e-05
4.09349e-05
2.99852e-05
-0.00660651
0.000102559
0.00650394
0.00102344
-0.000312034
-0.000711446
-4.21481e-06
4.36927e-06
-1.5418e-07
-0.000179044
0.00369888
-0.000177972
-0.000211845
1.869e-06
-3.08185e-06
1.21005e-06
0.00140505
-0.00250716
0.0011021
2.43134e-05
0.000955794
6.29229e-05
-1.86646e-05
-4.42619e-05
-2.69626e-07
2.28195e-07
4.10846e-08
-3.27582e-06
-3.24713e-05
-1.13551e-05
0.000115559
-0.00086146
0.000745914
-0.000578626
0.00160208
4.3962e-05
0.000153538
-2.56548e-05
2.4412e-05
1.24194e-06
-1.15189e-05
5.12235e-06
-2.14353e-05
-4.22031e-06
4.01601e-05
-1.57775e-05
0.000259731
-0.000646655
0.000581534
6.51193e-05
-2.15706e-05
-3.69165e-05
-4.63415e-07
1.92228e-07
2.12778e-05
-2.44466e-05
-0.0015352
0.000361829
0.00107828
-0.00132064
0.000242385
0.0112764
0.00457481
-0.000429812
-0.000216847
-1.94357e-05
-1.74821e-06
3.20436e-06
0.00150658
-0.00138109
-0.000125482
0.000650732
-0.000187844
-0.000462888
1.30406e-05
-7.24799e-06
-5.79112e-06
-0.00134417
0.0012823
6.1862e-05
-0.00014712
-2.49145e-06
-2.30044e-06
4.79164e-06
1.19891e-06
2.58641e-06
-3.78333e-06
0.0101239
-0.0047801
-0.00161106
0.000957297
2.233e-07
3.26419e-06
0.000638069
-0.000914276
0.000276211
1.79861e-06
-3.13842e-06
1.34009e-06
0.000787617
-0.000299591
-0.000488028
2.85031e-05
1.48277e-05
-0.00203365
0.00343863
0.000991059
-0.000352973
1.16635e-05
-2.36967e-06
0.00362478
-0.0099152
-3.67946e-07
1.68892e-05
-1.65213e-05
-1.16882e-05
1.13199e-05
0.00085504
-7.96159e-05
-0.000775401
1.27763e-06
3.58198e-09
-1.27885e-06
-6.26524e-05
0.000301278
-0.000238633
-0.000841155
0.00102039
-0.000179325
0.00336689
-0.00285837
2.61905e-05
-6.39007e-05
3.77057e-05
3.06933e-07
-4.63826e-06
4.3314e-06
8.57674e-05
-0.000143547
5.77817e-05
-0.000196106
-0.00033693
0.000533045
-0.00122478
0.00075109
2.00218e-05
-3.17995e-05
-6.2146e-05
0.000101149
-3.90095e-05
4.1716e-06
-3.86471e-06
4.14898e-05
-6.33717e-05
4.47066e-05
-7.35043e-06
-2.77085e-06
2.62853e-05
-1.39341e-05
-1.23519e-05
1.21985e-05
-2.9854e-05
1.76558e-05
-8.01502e-05
-3.24939e-05
1.71157e-07
3.23227e-05
-0.00846379
0.00602396
0.00243982
-2.50139e-07
-2.50875e-06
-0.0027663
-0.00569749
-2.12438e-06
4.28047e-06
-2.16278e-06
-1.22716e-05
4.28182e-06
7.98993e-06
1.26099e-05
-2.45595e-06
-0.000764984
0.000359794
4.91363e-06
-5.02227e-06
-6.80491e-05
-0.000157523
0.000225571
-1.17264e-05
7.98389e-06
3.74186e-06
-0.000250326
-0.000590956
1.69134e-05
6.45818e-06
-2.33713e-05
1.27926e-07
1.67857e-05
-8.64925e-07
1.58013e-07
7.09033e-07
-0.000981763
0.000900295
8.14941e-05
1.41268e-06
-3.1652e-06
-1.97551e-05
-4.36183e-05
-1.07416e-05
-4.35733e-06
1.51003e-05
-6.92134e-06
-2.55517e-05
-3.93105e-06
-0.000519809
0.000952522
1.76221e-06
-4.75763e-07
-1.28643e-06
-0.000224123
-0.00037585
6.08826e-08
-9.24998e-07
1.55401e-06
-2.75098e-07
-8.50979e-05
2.92543e-06
-1.67507e-05
9.82329e-06
6.92759e-06
1.20303e-06
5.11236e-06
-6.31514e-06
9.8161e-07
1.06818e-05
9.99763e-05
-0.000477162
0.000377186
-2.1815e-06
5.64656e-06
-3.46527e-06
-1.16773e-05
-2.59258e-06
1.42794e-05
0.00310911
0.000361363
-0.000246959
-0.000114402
2.48831e-06
0.000358875
-7.26177e-06
-5.00945e-06
0.000235309
-0.000353899
0.000118595
3.57808e-06
-7.52338e-07
-2.82652e-06
-3.63026e-06
-6.49324e-06
5.49201e-06
-3.89601e-06
-8.73134e-07
-1.55308e-06
2.42654e-06
-5.97461e-06
9.15828e-07
5.05908e-06
-0.000465595
-0.000299387
-9.3787e-06
-2.14725e-06
-8.30576e-07
1.45317e-06
-0.000402347
0.000183822
3.44156e-05
-1.69258e-05
-0.000241802
-9.19462e-05
-0.000336447
0.000320272
1.61908e-05
0.00385302
-0.00485458
0.0010015
0.000892834
-0.000777271
3.46087e-05
-3.27986e-05
-1.81012e-06
-1.4659e-06
7.42632e-07
7.23959e-07
-2.77914e-06
1.47033e-06
1.3093e-06
1.11297e-06
-1.15693e-05
1.04573e-05
2.73935e-06
-1.32819e-06
-3.70151e-07
-3.82002e-06
4.19092e-06
0.000214541
-6.10152e-05
-0.000372187
0.000356509
1.56744e-05
-3.25174e-06
3.32629e-06
-7.47158e-08
-2.70604e-05
1.92185e-05
3.09973e-06
-3.471e-06
-3.67545e-05
2.98356e-05
8.84381e-05
-5.48379e-05
-3.35986e-05
-4.69238e-05
-0.000325264
-1.47334e-06
-1.30567e-06
2.11689e-06
-0.000282971
0.000238488
4.44835e-05
-0.000155713
-3.55168e-05
0.000191221
-8.79818e-07
1.59388e-06
-7.14506e-07
-1.06135e-05
1.16741e-06
-2.03482e-06
8.67163e-07
0.000946795
-0.0019134
0.000966607
4.72731e-05
4.11656e-05
-0.000455354
0.000172386
2.51948e-06
1.40336e-06
-3.92238e-06
0.000523911
-0.000768815
0.000244901
6.33256e-07
2.93962e-06
-0.000638534
-0.000586241
-0.000932278
-0.000765793
1.49034e-06
2.14611e-05
-2.29512e-05
6.76379e-05
-9.15851e-05
2.39487e-05
-0.000979614
-0.00299287
0.00397248
2.01958e-06
-8.52216e-07
0.00241472
-0.00276541
0.000350692
-1.77129e-05
1.92034e-05
3.36442e-06
1.32929e-05
-8.22043e-06
-5.07198e-06
-1.14189e-05
5.29042e-06
-4.62679e-06
-6.63597e-07
-0.000192842
-0.000262527
0.00434685
-0.000493852
-0.000583833
0.000621056
-3.72231e-05
-8.47462e-06
-8.27589e-06
-1.63915e-06
7.593e-07
0.000230263
-0.00174468
0.00151446
-0.000646496
0.000453651
0.00047606
0.000193876
-0.000669932
0.00054083
-6.47659e-05
1.88699e-05
-2.1751e-05
2.88231e-06
2.91335e-05
-4.59e-06
-2.4543e-05
-0.000208266
0.000119564
8.86576e-05
-2.96347e-06
4.16693e-06
-3.6296e-06
7.57504e-06
-3.94601e-06
3.49188e-06
-2.10416e-06
-1.38782e-06
0.000381859
0.0012875
-1.83331e-06
1.59032e-06
2.42742e-07
1.25138e-05
1.662e-05
-6.05137e-06
9.79745e-06
-3.74526e-06
0.0010341
0.000409135
-0.0014433
1.28349e-05
-8.13103e-06
-0.000123251
-0.00122092
3.99648e-06
3.81578e-06
-7.81235e-06
6.03343e-06
-3.90947e-06
-2.1235e-06
1.21077e-06
3.4449e-07
-1.58354e-05
1.40283e-06
-1.55387e-06
-2.73884e-06
4.29305e-06
-1.1591e-05
1.57258e-05
-4.13337e-06
-6.66718e-05
4.89445e-05
-0.00539633
0.00191138
0.00348483
-7.11271e-05
-0.000512704
0.000959149
-0.000323846
-0.000635248
-0.000177404
0.00357589
-0.00339849
-0.00399457
0.00381717
-7.57446e-05
1.11599e-05
6.45854e-05
0.000730429
-0.000206517
-1.86949e-07
-1.42359e-06
0.000178799
-0.000107755
-7.1005e-05
-2.03609e-07
2.72364e-06
2.22831e-06
-7.50076e-07
-1.47846e-06
0.000180237
-0.000197175
0.00459149
-6.74557e-06
-1.23126e-05
1.90612e-05
0.000928935
8.32798e-05
-0.00101221
-0.000296211
0.00115116
1.82277e-06
-6.11138e-07
-0.00108128
0.000249796
0.000831587
3.38118e-06
4.06127e-06
-7.44252e-06
-0.000108975
-2.06939e-05
0.000129663
-2.11986e-06
5.50099e-06
6.1022e-07
3.12884e-06
-3.73883e-06
3.72017e-05
-8.91604e-05
5.19578e-05
-8.14814e-06
-0.000135959
0.000144105
-0.00131058
-0.000984587
0.00229521
-1.2671e-05
1.10426e-06
-5.44945e-05
-0.000297258
0.000351749
2.3066e-05
-2.99367e-05
6.87054e-06
-0.000118754
-0.000995796
-0.00132164
0.00505995
-0.00373831
-8.54253e-05
3.27367e-07
-9.44661e-06
4.24184e-06
5.20549e-06
1.55007e-06
1.94193e-06
3.9828e-05
-1.44366e-05
0.000210523
-0.000445574
0.000234999
-0.000456259
-0.000625007
6.61386e-06
-7.12823e-06
5.13988e-07
-1.68346e-06
8.45961e-07
8.37307e-07
-9.73555e-05
0.000177032
-7.97199e-05
-6.94089e-06
2.6509e-06
4.28924e-06
0.000385711
-0.000865581
0.000479869
8.13364e-05
-4.41344e-05
-9.90799e-06
8.94737e-06
9.6039e-07
-8.10521e-05
8.54974e-06
7.25017e-05
-0.00254404
0.00179926
0.000744767
0.000485774
-0.00069158
0.000205812
-1.57847e-05
-5.99595e-05
2.20657e-05
5.89999e-05
-8.10541e-05
-0.000876587
-0.00107069
0.00102478
-0.00114365
-8.1864e-06
7.34622e-06
8.40822e-07
-1.08337e-06
-7.10246e-06
0.00164748
-0.00230888
0.000661403
-4.5256e-06
-4.9203e-06
5.23319e-06
3.35536e-06
-8.58831e-06
0.00338783
-0.00436738
0.000741101
-0.000643123
-7.13742e-05
-0.000250672
0.000322037
-8.71702e-06
1.21152e-06
-0.000283039
2.6376e-05
-9.14015e-06
-1.72377e-05
-2.14469e-06
-3.03491e-05
-0.0054526
0.00413099
1.30864e-05
-0.000220119
0.000207031
-7.21366e-06
-9.68754e-06
-1.82713e-05
6.16801e-07
1.76543e-05
9.99489e-06
1.63802e-05
0.0008159
-0.000490372
-0.000325526
0.000710718
-0.000129186
5.92746e-06
-1.19787e-05
-8.63952e-05
-6.75822e-05
0.00573278
-0.0018472
5.6537e-05
-3.2577e-05
-2.396e-05
3.15165e-05
7.46485e-06
-3.89818e-05
0.000246038
0.000428132
-0.000674182
-0.000739934
0.000945473
4.92772e-06
2.65885e-05
-0.00165581
0.00184809
-0.000192424
2.78322e-06
-3.23101e-06
2.97876e-06
-4.99859e-06
2.02015e-06
-0.000434837
0.0038227
5.04607e-06
5.79104e-06
-0.000114768
-0.000664597
0.00231208
9.05466e-06
-4.81218e-06
-8.00539e-05
-0.000128228
0.000196347
-0.000115342
0.000111193
-0.00142176
-2.16867e-08
1.06429e-05
-1.06219e-05
0.000990895
1.90001e-07
0.000141836
-0.00014998
0.00140324
0.00144841
-0.00285162
-3.76929e-07
-1.45649e-06
0.000110671
-0.000142012
-2.89427e-05
5.09855e-05
3.06399e-06
-2.84056e-06
5.52989e-06
6.64922e-06
-1.35975e-07
1.23708e-06
-1.10105e-06
1.82945e-05
-2.91383e-05
1.08436e-05
0.00145039
-0.0063129
0.00190952
-0.00312974
0.00122022
-0.00115388
0.000857516
-1.37206e-06
9.549e-07
4.16418e-07
5.10628e-06
5.36429e-06
-0.00215763
0.00498028
-5.53779e-05
0.000266747
-0.000211365
6.24352e-06
1.56718e-06
-7.81032e-06
5.89053e-07
3.79227e-07
-9.68213e-07
-9.4815e-07
-5.17818e-07
-7.26094e-07
1.95963e-05
-6.04381e-06
0.000116714
0.00103013
-0.00238638
0.00135626
-0.00103977
0.00111238
-7.25922e-05
-1.14886e-06
-2.67067e-06
1.35578e-06
-6.12894e-07
2.5847e-06
3.02709e-06
-5.6115e-06
-0.00104514
0.00207526
-0.000278841
0.000216189
0.000811064
0.000179835
4.84043e-06
-1.86162e-06
0.00146225
-0.000319516
-0.0011427
-0.00016649
-0.000370972
0.000537462
0.000555896
0.000260001
3.20395e-05
0.000125441
-0.000157486
0.00686556
-0.00456628
-0.00229929
0.00139255
-5.51073e-05
-0.00133745
1.67129e-06
-1.46138e-06
-1.56581e-06
-1.36563e-07
-5.589e-07
1.55792e-06
-9.99789e-07
0.000209186
-1.89773e-05
-0.00019021
6.60167e-06
-1.93066e-06
-4.67061e-06
-5.06377e-06
2.9163e-06
2.14758e-06
-0.00480371
0.00423767
0.000566048
0.000379059
-5.64056e-05
-0.000322654
-0.00132485
-0.00757534
0.00890033
-6.27221e-07
0.000379687
3.69874e-07
-2.14592e-06
-1.03428e-05
1.2478e-05
-2.13525e-06
2.16367e-05
-6.10418e-06
-1.5537e-05
8.44205e-06
-0.000147521
0.000139079
2.9478e-05
-3.06357e-05
-2.64908e-07
-1.96038e-07
0.00091472
-0.000103645
-6.65077e-05
0.000275693
0.000166946
-2.2919e-05
-0.000183004
2.08131e-06
-4.42107e-06
0.00123005
0.000794103
0.00060202
-0.0038576
-7.80662e-07
-5.91598e-07
0.000136585
0.00132565
2.57241e-06
4.0291e-06
1.959e-05
8.00304e-06
-2.75934e-05
-0.00092567
-0.000324275
0.00124977
-0.000318503
0.000263103
0.000524636
5.0845e-05
-0.000575436
0.0023713
-0.0026084
0.000237094
1.50086e-05
7.75233e-05
-9.2532e-05
5.14112e-07
1.02923e-06
-1.54326e-06
0.00346414
1.8769e-05
-2.20683e-06
-1.65621e-05
-0.000126125
0.000361432
1.71897e-05
1.57945e-06
8.012e-06
-6.38305e-06
-6.46232e-07
3.79809e-07
0.000330629
0.000584091
0.00128331
-0.000914235
-0.000369072
-7.4714e-05
8.97235e-05
0.001704
-0.00405322
0.00234904
-6.74877e-06
2.63385e-05
0.000119893
5.89676e-05
0.00351409
-0.00567171
-0.00875214
0.0074274
0.000931646
0.000351689
8.98486e-09
1.14577e-06
-1.15529e-06
-4.12093e-06
1.19729e-05
-7.85127e-06
-6.19913e-05
8.40625e-05
-0.000237935
0.000215014
-0.00124079
0.0019819
3.65971e-06
-0.000812227
-0.000263004
0.000883222
0.0024269
-1.11232e-06
1.12112e-06
-7.9525e-07
1.30947e-06
0.000142095
-0.000169554
2.74593e-05
0.00133243
-0.000771722
-0.000560711
0.000368793
0.000963638
3.55929e-06
-1.25505e-06
-4.55122e-06
0.00428726
-0.00389077
-0.000396436
0.000693252
-7.10776e-05
3.35868e-05
2.29501e-05
-6.56071e-05
3.66125e-05
2.89951e-05
2.82536e-05
-4.59047e-05
1.76501e-05
5.11155e-05
-3.84671e-05
-1.26476e-05
4.05371e-05
1.05769e-05
6.61737e-05
-0.000754133
-0.000376219
0.000453121
-7.69023e-05
6.61982e-07
5.58176e-06
1.02277e-06
-4.42186e-06
3.39953e-06
0.00113889
-0.0010016
-0.00167758
0.00596487
-0.00474626
0.000971832
0.00377443
0.00316734
-0.00216605
-0.0010013
1.89797e-06
-1.35666e-06
-5.41442e-07
0.000649109
-0.000124462
-1.24264e-05
8.3058e-06
9.48391e-07
-2.11986e-06
1.17149e-06
-0.00137568
-6.25665e-05
0.00143823
-5.02291e-06
3.78629e-06
0.00158338
0.00158403
1.79827e-06
-8.49918e-07
-1.75896e-06
3.99314e-06
-2.23363e-06
-5.35753e-07
2.40069e-06
9.61009e-07
-1.57473e-06
6.13537e-07
0.00072892
-1.81958e-05
-4.61392e-06
3.01227e-06
0.00177134
-0.00351861
0.00174726
0.000354598
0.000694815
-0.00104942
1.56261e-06
-6.01814e-07
1.22593e-06
-8.91614e-07
0.00504774
3.96818e-05
-0.0050874
-5.6534e-07
-1.53138e-06
2.09682e-06
1.90578e-05
-1.799e-05
-1.06709e-06
1.31203e-06
-1.35109e-06
0.000427469
0.000223264
0.00107776
-0.000396273
-0.0006815
-0.00149871
0.000860161
0.00440047
0.000647276
5.06189e-06
-1.30847e-05
-0.000102611
0.00196251
-0.00185991
0.000973234
-0.00314182
0.00216856
-0.00012251
-0.00286544
0.00298796
-2.26717e-05
1.12054e-05
1.14664e-05
0.0016397
-0.000755707
-0.00088397
2.61833e-07
1.9664e-06
-0.00493478
0.00497445
-6.66422e-05
0.000113609
-4.69658e-05
-4.22308e-05
-1.03484e-05
5.25791e-05
1.26263e-06
-1.28528e-05
-0.00291253
-0.00243077
0.00232816
-8.09027e-05
1.3019e-05
6.78833e-05
0.000244132
0.000292544
-0.000536675
0.00302194
-0.00204874
-8.25966e-07
1.7083e-06
-8.82394e-07
5.13644e-07
-1.30883e-06
1.03971e-06
-5.26022e-07
-8.11168e-07
1.68981e-06
-0.000254073
-0.000148287
-0.00051915
0.00139172
-0.000872565
-8.04168e-07
1.7376e-06
-9.33395e-07
0.000328127
-6.06039e-06
-0.000322059
-0.000299045
6.11082e-05
-5.99221e-05
3.24342e-05
2.74865e-05
0.00112058
-0.00233529
0.0010945
9.72418e-07
-4.75178e-05
7.3517e-05
-2.59976e-05
9.48936e-05
-7.31204e-05
0.000135702
-4.99344e-05
0.00267563
-0.00259731
1.36654e-05
-5.58995e-05
0.00135152
0.00316957
-0.00452116
0.00317256
-0.00030854
-0.00286403
0.000327665
-0.00038216
2.20943e-06
-3.35773e-06
4.67094e-06
1.49529e-05
-1.16984e-05
-3.25452e-06
-8.91497e-05
-7.0529e-05
0.00015963
-0.000492299
0.000861091
-0.000548705
-9.84099e-05
0.00142027
-0.00132186
7.66459e-07
-5.65873e-06
4.89208e-06
-2.8139e-05
2.80556e-05
8.3034e-08
0.00138504
-0.000367141
-0.00101789
0.00105532
0.000336405
0.00175359
0.00217747
-0.00393108
0.000550452
0.000527298
-2.92592e-06
8.97097e-07
2.02905e-06
-0.00455891
-0.000837503
1.94621e-06
4.08753e-06
0.000218032
-0.000289409
1.85908e-06
6.26597e-07
-2.48577e-06
-4.7974e-06
9.84753e-06
-5.04984e-06
5.73278e-07
6.04051e-06
-0.000519316
0.000905028
1.42442e-06
-8.9919e-07
0.000160223
0.000195311
-0.000355564
4.87637e-06
9.34587e-06
-1.42205e-05
1.30403e-06
-3.09888e-07
3.21252e-07
2.74351e-06
0.000182124
3.60415e-06
-2.05404e-06
-0.000232161
-6.68844e-05
-0.00079162
-0.000707099
-6.56187e-06
2.81953e-05
-3.43445e-05
1.97798e-06
-0.00239729
0.000179468
0.00221781
7.46648e-06
-1.20479e-07
1.32732e-05
2.08617e-05
-7.83663e-05
-2.53725e-06
-5.48201e-06
2.15185e-06
3.32842e-06
0.00254646
-0.000775141
-0.000145313
0.000151102
-0.00118107
0.00175198
-0.00057083
-2.97975e-06
2.42469e-06
5.55025e-07
-2.10169e-07
-5.76485e-06
-1.33432e-06
-5.36392e-06
6.6987e-06
3.39057e-07
0.000111261
-4.06223e-06
9.99022e-06
1.87612e-06
-7.56432e-05
7.37662e-05
0.00409927
-0.00122543
-0.000839537
0.00206492
0.000220508
-8.83087e-05
-0.0001322
-0.000236776
0.00131009
-0.0010733
-1.60907e-05
-8.30271e-06
2.43927e-05
-0.000373731
1.79089e-06
0.00436285
-2.3365e-05
-0.000121949
0.000149958
0.000269076
-0.00133229
0.000648551
0.000683591
-9.30713e-07
-4.3436e-05
-3.92232e-05
2.76547e-05
1.15682e-05
-4.02486e-06
-2.61701e-06
6.64255e-06
-3.57873e-05
7.6489e-06
-2.18119e-06
-7.9848e-07
-3.67577e-07
-1.9608e-07
5.63839e-07
-0.000115561
-9.10821e-05
-0.000480609
-9.38112e-05
0.000574446
-6.73839e-07
8.26882e-06
-2.18677e-05
2.8919e-05
-7.05127e-06
7.52552e-05
-0.00501004
-0.000422913
0.000668944
2.3182e-06
-4.07704e-06
0.000600896
-0.000424187
-0.000176693
-1.07282e-05
-2.45748e-06
3.93987e-06
-1.48242e-06
1.08471e-05
-1.34217e-05
2.53841e-06
3.84548e-06
-6.38383e-06
-4e-06
1.54237e-06
0.000675136
-0.000722062
-2.13287e-05
-1.1352e-05
3.268e-05
0.000944203
-0.00092365
-2.05415e-05
2.46884e-06
-6.70108e-07
-0.000307027
-0.00446116
-0.000154128
7.94107e-05
8.14932e-06
-3.64467e-06
-4.50551e-06
4.77887e-05
6.20314e-05
-0.00010982
-0.00308154
0.00221924
8.12667e-07
9.49585e-07
-0.000814492
0.00110432
-0.000289796
-6.57848e-06
5.43851e-06
1.14014e-06
-0.00040649
0.00157628
-0.00116979
7.42279e-06
4.3617e-08
6.39899e-06
6.8939e-06
-0.00874921
0.00769941
-3.67534e-06
-0.00114499
0.000219428
-7.52403e-06
-8.0763e-07
8.3314e-06
9.46997e-05
-8.16803e-05
2.13734e-06
1.46694e-06
-3.40952e-07
-8.14117e-07
1.15599e-06
0.000186562
0.000127358
-0.000313903
-0.000108422
0.000102379
-0.00182589
0.000266473
5.52096e-06
-2.93605e-06
0.000120315
0.000260537
-0.000380888
-2.12334e-07
-5.27007e-06
8.14075e-05
-0.000119214
3.78085e-05
-1.13217e-05
1.13e-05
0.000390521
-0.000179998
-9.80459e-06
4.26127e-07
-5.65528e-05
-0.000232159
0.000288711
3.35205e-06
-0.00220948
0.00235256
-1.09699e-05
6.52142e-05
-6.72338e-05
-0.000700895
0.00280345
-0.00210255
-0.000403258
-3.59092e-06
-0.000511658
0.000315551
3.37312e-05
-2.15327e-05
3.02543e-06
-3.53092e-05
-2.7143e-05
6.24505e-05
7.771e-07
-1.15705e-06
3.80855e-07
-3.47461e-07
1.09907e-05
-5.9292e-06
1.09949e-05
-0.000350354
2.05878e-06
2.09711e-05
-0.000129393
-3.90311e-07
-1.28311e-06
1.85707e-06
3.94861e-06
0.000476061
-0.00031585
-2.84366e-05
6.56897e-06
3.42334e-05
-6.95436e-05
-5.74587e-06
1.47804e-05
-1.7418e-06
1.42266e-06
3.18928e-07
-6.31719e-07
-1.50388e-06
2.13383e-06
2.30533e-06
-6.32995e-06
-0.000411681
4.90985e-05
-3.83193e-06
-4.52673e-05
4.96145e-05
-0.000799701
0.000750118
-9.34936e-05
-4.6234e-05
0.00013973
-3.67499e-07
2.32954e-06
-1.96187e-06
-1.85625e-05
6.8907e-06
-0.000109835
-4.4295e-05
3.73897e-05
3.6393e-05
-1.85098e-05
-5.16031e-07
1.90258e-05
-0.000270261
1.9583e-05
0.000540275
0.000418899
-0.00146834
0.00240513
-0.000936791
-0.000121241
-0.000232657
-3.40511e-06
6.85185e-07
2.72052e-06
-0.000387209
-0.000793741
0.00139542
-0.00168183
0.000286206
-0.00392043
0.00349032
0.000430105
4.48139e-06
-3.56803e-06
-9.13323e-07
-0.000546077
0.000379589
0.000819906
-0.000146526
-0.000673384
-0.000258074
-0.000223412
-6.202e-06
7.12512e-06
-9.21747e-07
1.7585e-05
1.47267e-06
-0.00015604
0.000831173
-2.34932e-06
2.7606e-06
-4.12415e-07
0.000316625
-1.01103e-06
5.29831e-07
4.81336e-07
6.38445e-06
-1.04466e-05
0.000260314
6.78099e-05
-5.1659e-06
4.62903e-06
5.37147e-07
1.4318e-07
-3.39489e-06
-0.000108521
4.18802e-05
1.00877e-07
-1.86108e-05
-1.27376e-05
1.36646e-05
-9.26445e-07
9.83898e-05
1.90479e-05
-0.000117442
0.00327468
-0.00183292
-0.00144177
7.38015e-05
-6.26421e-05
-2.7689e-05
5.38769e-05
2.96493e-05
0.00306882
-0.00420145
0.00113262
2.2594e-05
-2.28574e-05
2.63057e-07
-0.000140087
5.08901e-05
-4.12366e-06
3.81142e-06
3.12127e-07
-4.14214e-06
1.85487e-08
0.000110018
-0.000225558
0.0021741
0.0018429
-0.0040169
-4.0976e-06
1.89964e-06
2.19768e-06
-2.35157e-06
8.73628e-06
8.38082e-07
-2.72324e-06
5.48362e-06
-2.76046e-06
5.28608e-05
3.50663e-05
-8.79281e-05
2.26757e-05
-0.000139318
0.000116641
2.00745e-05
2.50414e-05
-4.51159e-05
7.30997e-05
7.01731e-07
0.000114892
-9.22183e-05
-0.00014576
-0.000171966
0.000317732
-7.07517e-05
-1.74345e-05
8.81867e-05
0.00039066
0.000747017
-0.00113757
-2.41458e-06
-2.49419e-07
2.66429e-06
-1.79501e-06
-8.1131e-06
9.13015e-06
-6.18118e-06
-2.94786e-06
0.000120994
5.08252e-05
-0.000171818
0.00513992
0.00108627
0.00182126
-0.000742951
0.000172377
-0.00303783
0.00201029
0.0014015
-0.00341178
0.000795178
0.000142399
0.0016789
-7.56326e-05
-0.000240204
0.000315836
6.81278e-06
-4.0817e-05
3.40032e-05
-0.000198187
0.000289009
-0.000364642
-4.94881e-05
0.000147877
-4.45038e-06
1.71168e-06
7.14761e-07
1.10501e-06
-2.28158e-06
1.91408e-06
-1.76751e-06
1.42083e-06
3.48789e-07
0.000162465
-4.14685e-05
-1.10553e-06
-5.51087e-06
6.61676e-06
0.00466228
-0.00290871
0.000193416
0.000287664
-0.000481132
-0.000942405
0.000546134
-2.29979e-06
-2.20869e-06
4.50867e-06
1.19648e-06
4.2563e-07
0.000126595
-9.45573e-05
0.000689709
-0.000926474
3.90338e-05
-7.96088e-05
4.05739e-05
-3.21667e-06
3.04786e-06
1.69336e-07
2.10529e-05
-0.000114546
-8.07037e-06
8.48519e-06
-4.1469e-07
-7.3033e-06
2.58655e-08
7.27898e-06
0.00301161
0.00296633
-0.00597795
-0.00377781
0.00118219
-9.97304e-05
2.8979e-05
-4.50989e-06
-6.55251e-07
6.37674e-06
-4.6536e-06
-1.72324e-06
1.47663e-05
-2.56561e-05
1.089e-05
1.36332e-05
-2.03755e-05
1.96024e-06
-4.89487e-06
2.93356e-06
0.000104259
3.5939e-05
-0.000140198
0.00051431
-0.000307219
-0.000207068
-8.67651e-06
2.24161e-05
-1.37397e-05