/*--------------------------------*- C++ -*----------------------------------*\
| =========                 |                                                 |
| \\      /  F ield         | OpenFOAM: The Open Source CFD Toolbox           |
|  \\    /   O peration     | Version:  v2012                                 |
|   \\  /    A nd           | Website:  www.openfoam.com                      |
|    \\/     M anipulation  |                                                 |
\*---------------------------------------------------------------------------*/
FoamFile
{
    version     2.0;
    format      ascii;
    class       volScalarField;
    location    "250";
    object      nut;
}
// * * * * * * * * * * * * * * * * * * * * * * * * * * * * * * * * * * * * * //

dimensions      [0 2 -1 0 0 0 0];


internalField   nonuniform List<scalar> 
33474
(
0.000451125
0.0289767
0.000528233
0.000446359
0.000461645
0.000447113
0.000438297
0.000449556
0.000449255
0.00741895
0.000446236
0.000448059
0.000438222
0.000459332
0.000452272
0.000437434
0.000423421
0.000645485
0.000451371
0.000444625
0.000514847
2.40368e-05
0.000448132
0.000451161
0.000449547
0.000448103
0.000439611
0.000477627
2.66249e-05
0.000433625
0.000428311
0.000446144
0.000676245
0.000638066
0.000436043
0.000444752
0.0391427
0.0144598
0.000447777
0.000456839
0.000446162
0.000433585
0.00854757
0.000450122
0.0105212
0.00226833
0.0403755
0.000460713
0.00168549
0.000436036
0.000450848
0.000442705
0.00049039
0.000438134
0.000446686
0.000477104
0.000446715
0.000506967
0.00045666
0.00045107
0.000447102
0.0661552
0.0411869
0.00908366
0.000336282
0.000449037
0.000430605
0.0221705
0.000442679
0.000454806
0.0430802
0.0672697
0.0128247
0.000321096
0.000318121
0.161585
1.83544e-05
0.000449592
0.000459814
0.000476013
0.044166
0.000448032
2.5473e-05
0.000436141
0.000461369
0.000436283
0.000517507
0.0209888
0.00263778
0.000429139
0.000446436
0.000436258
0.000489368
0.000445306
0.000438274
0.000461114
0.000463517
0.000454876
0.000442424
0.020988
0.000520725
1.22416e-05
0.000449986
0.335357
0.000236182
0.00043022
0.000449521
0.000455122
0.000442421
0.000433319
0.000451036
0.00043058
0.000813752
0.000445903
0.000505525
0.000478472
0.000447067
0.000548981
0.000456475
0.000438243
0.000464364
0.00100087
0.000446609
0.000436325
0.000461004
0.00044469
0.000449556
0.000505826
0.000542681
0.000458767
0.00043901
0.000454965
0.00182455
0.0438227
0.000452231
0.00861997
0.000494219
0.052374
0.00265368
0.000533872
0.000449424
0.000377031
0.000426425
0.000445794
0.000448852
0.000450638
0.0822615
0.0296699
0.00848585
0.017966
0.00164364
0.000446249
0.00045605
0.000451083
0.000478084
0.000447129
0.00045557
0.000446519
0.000451009
0.001487
0.000568104
0.000362678
0.000563522
0.17138
0.00045912
0.015669
0.000438938
0.00262105
0.000450924
0.00046044
0.000673608
0.000436931
0.00232981
0.000433229
0.000449465
0.00772829
0.000450358
0.0235608
0.0540773
0.000439008
0.000439134
0.000451132
0.000436058
0.000505299
0.000448651
0.0211837
0.00196494
0.000446905
0.000455286
0.000445535
0.000449588
0.000451026
0.0357983
0.0508226
0.079412
0.000447787
0.183451
0.000508202
0.0447341
0.000440106
0.000445027
0.000442725
0.0158928
0.000507279
0.000520325
0.000439661
0.000438865
0.000518376
0.000445911
0.0198154
0.0175873
0.000428048
0.000466065
0.000476905
0.000427956
0.000667274
0.000445211
0.0636647
0.0631957
0.000446165
0.0004459
0.000444973
0.000445587
0.000516106
0.00042635
0.000458176
0.0297881
0.00047587
0.000441888
0.000458197
0.0759259
0.00043965
0.000438163
0.00043661
0.00043728
0.105537
0.000459325
0.000454762
0.000447231
0.000453864
0.000447111
0.00052601
0.144758
0.000465879
0.000510112
0.00043728
0.0004446
0.00044568
0.000469034
0.000469877
0.000461921
0.000449514
0.000500315
0.000439118
0.000450684
0.000441849
0.052375
0.000442125
0.000523208
0.00869898
0.0453592
0.146237
0.000451399
0.00809718
0.00044752
0.000437375
0.0772934
0.0239658
0.0235958
0.000445597
0.000474934
0.000451257
0.000459448
0.000450818
0.000437319
0.000445969
0.00045069
0.000442143
0.000451086
0.000448557
0.000453723
0.000442427
0.000453845
0.000446473
0.000436257
0.000443807
0.000442115
0.000434028
0.000502338
0.0179875
0.00298973
0.000445317
0.11898
0.00047368
0.00045037
0.0383957
0.00781731
0.00047883
0.000445851
0.000453671
0.000450626
0.0520854
0.00167594
0.000442184
0.000428256
0.00044001
0.000428518
0.000479868
0.000508059
0.0129375
0.000451201
0.000445749
0.00042913
0.00309472
0.121209
0.00435985
0.0125602
0.000500665
0.000449702
0.004921
0.060592
0.000439439
0.0231376
0.000439127
0.000450917
0.000450655
0.000352334
0.000446713
0.000449715
0.000570808
0.000448595
0.000474233
0.000463631
0.0414885
0.000504125
0.00044581
2.1614e-06
0.000428349
0.000428418
0.000596145
0.000446652
0.000508848
0.0744203
0.043113
0.000725571
0.000435205
0.000442855
0.000466731
0.000495561
0.00046268
0.000445435
0.000435186
0.000477668
0.000480893
0.000447099
0.000426918
0.000445636
0.000439031
0.000430218
0.0288555
0.000447059
0.0251427
0.000450588
0.000451925
0.000445438
0.000471713
0.000436511
0.000454756
0.000442439
0.0707882
0.00042873
0.000428493
0.00044161
0.000560179
0.000449475
0.000480029
0.000445499
0.000450765
0.000445994
0.00999906
0.000431178
0.0468449
0.000441459
0.000446637
0.000478537
0.000434559
0.00045348
0.000445743
0.000463835
0.000451051
0.000442873
0.0011909
0.000424678
0.000458107
0.000451765
0.000488966
0.000450052
0.000439543
0.000436864
0.000447038
0.000448058
0.000471458
0.000439958
0.000446258
0.000655242
0.000426468
0.000513191
0.00664227
0.038492
0.0399547
0.000449409
0.000451363
0.000448676
0.000442608
0.000449539
0.000437209
0.00835198
0.000396419
0.000430485
0.000461731
0.000437241
0.000451079
0.000443641
0.000264371
0.000448543
0.000450942
0.0932686
0.000465824
0.000446221
0.000442454
0.000438778
0.0058101
0.000443592
0.0933746
0.00045296
0.000458038
0.000450128
0.000493924
0.000566706
0.000430666
0.000438572
0.150425
0.000438746
0.000231687
0.000430671
0.000450959
0.000431686
0.000447825
0.000444819
0.0827983
0.0393348
0.000457081
0.000435186
0.000446187
0.00061773
0.0818513
0.0930132
0.0962663
0.000448952
0.000428693
0.00046136
0.000453303
0.000447896
0.000443082
0.071742
0.000444293
0.000428698
0.000449298
0.000465595
0.000445391
0.0237909
0.000434095
0.000450292
0.000446806
0.00043488
0.000449468
0.000438106
0.000436082
0.016316
0.000457291
0.000539153
0.0340393
0.0322385
0.000445952
0.000457553
0.00045096
0.0151568
0.000452921
0.000440915
0.000317425
0.0285146
0.0306237
0.000457523
0.0209166
0.00087474
0.000446835
0.00062899
0.000434864
0.000445593
0.000434825
0.000450984
0.000493593
0.000468135
0.000193828
0.000442624
0.000450308
0.000449033
0.0153893
3.27626e-05
0.000478063
0.000453529
0.000443126
0.00046129
0.000569182
0.000518401
0.00044713
0.000446532
0.000463345
0.000447963
0.0134339
0.000491916
0.000446522
0.000437677
0.0650942
0.00045818
0.000445814
0.000437233
0.0405017
0.0155379
0.000453422
0.000453646
0.0760132
0.00045355
0.000451488
0.178095
0.0050452
0.000483293
0.000422969
0.000458271
0.000443002
0.000430103
1.96433e-05
0.000446084
0.000447132
0.000430261
0.00044293
0.00045671
0.0130848
0.000449225
0.000427411
0.028334
0.000474192
0.000426707
0.000432453
0.0108525
0.00912362
0.000432377
0.000470571
0.000450059
0.000448945
0.175171
0.000453644
0.000445615
0.0752908
0.000453412
0.000460557
0.000464534
0.000268146
0.000432932
0.000433116
0.00046843
0.0658347
0.000444216
0.000655665
0.000461726
0.000449803
0.000447108
0.000445485
0.000459334
0.324376
0.000158627
0.0013509
0.000445892
0.000448083
0.0924939
0.00798437
0.000451346
0.000438132
0.000449645
0.000449032
0.000665357
0.0326319
0.000591862
0.00043719
0.00044637
0.00045052
0.0309932
0.000508484
0.000330794
0.000448953
0.000450182
0.00045148
0.000456404
0.000442646
0.0154779
0.00984354
0.00044563
0.000445371
0.000446577
0.129132
0.000450336
0.000434968
0.333358
0.13829
0.0431827
0.137833
0.000448403
0.000446559
0.000437154
0.000436289
0.000430198
0.000445632
0.00035233
0.128345
0.000455216
0.000441643
0.000449336
0.0100296
0.0461762
0.000445945
0.000449756
0.000450369
0.000457899
0.0156509
0.00708194
0.000524481
0.0626212
0.000443729
0.000441311
0.0494176
0.000433078
0.000492984
0.000433147
0.000433353
0.000445574
0.000314051
0.000365582
0.000443681
0.129048
0.000457527
0.0151154
0.0932878
0.0399254
0.000363149
0.000445323
0.000436212
0.000437154
0.000441631
0.00136129
0.000450211
0.0101301
0.000585735
0.000445355
0.000441358
0.000436405
0.113669
0.120186
0.000450699
0.00043486
0.00169985
0.157664
0.000426606
0.000463177
0.000449237
0.000432113
0.00043204
0.00883023
0.00048541
0.000451374
0.000448934
0.0224567
0.00387244
0.0719903
0.136953
0.000442276
0.000527901
0.000436182
0.000437139
0.000302761
0.000451038
0.128651
0.000437195
0.000449351
0.000450292
0.000445816
0.0133359
0.000448981
0.0442775
0.000721821
0.000445863
0.000451519
0.358431
0.000447779
0.000427176
0.000442407
0.0373882
0.0398163
0.000502135
0.358529
0.000443772
0.0174616
0.291397
0.0210341
0.000452064
0.000457056
0.000440963
0.343992
0.000431881
0.000448155
0.000438182
0.0218817
0.0151817
0.000438255
0.00045044
0.259562
0.000437368
0.000441399
0.000441479
0.000446388
0.000648883
0.000446731
0.000438394
0.000444708
0.000441458
0.000449407
0.000449913
0.0018178
0.000437301
0.000437981
0.0152312
0.000442782
0.0473338
0.000448259
0.176106
0.0435674
0.000450054
0.000437165
0.000447968
0.000433455
0.0140021
0.128144
0.132591
0.00281564
0.000434368
0.000438246
0.00106721
0.000446399
0.000282467
0.0387604
0.000440696
0.0140318
0.000450335
0.000480855
0.000439623
0.000440218
0.000447046
0.0134912
0.000446068
0.00963583
0.000436637
0.000449074
0.000449881
0.00954494
0.000443135
0.000441351
0.000501938
0.000437027
0.000463959
0.00872977
0.000453372
0.000426308
0.000438396
0.000450116
0.0473617
0.000445628
0.0226071
0.000436903
0.000448097
0.000436777
0.000428265
0.000449146
0.000514601
0.017921
0.000472044
0.000445766
0.056398
0.000439463
0.00042125
0.000449005
0.105109
0.000445694
0.000562117
0.0674044
0.000437469
0.000449181
0.000436007
0.000438351
0.000436933
0.000446235
0.000509182
0.000775779
0.000447064
0.000430421
0.343788
0.0110913
0.000449393
0.000811354
0.000438424
0.000435835
0.000430032
0.000434382
0.000435821
0.000378659
0.000461914
0.000413101
0.00044868
6.71453e-05
0.000443812
0.000440181
0.000431134
0.00630736
0.000430034
0.00060825
0.000451632
0.0412011
0.000453225
0.000432306
3.43034e-06
0.000451295
0.0148955
0.000452714
0.00043836
0.000443158
0.000445923
0.000469253
0.000654532
0.0383697
0.000450476
0.00520429
0.000450112
0.000437685
0.000432922
0.000572728
0.000439878
0.000454584
0.000440221
0.0226651
0.000449288
0.000507366
0.153316
0.341344
0.000448917
0.000465232
0.000445711
0.00044945
0.000453962
0.000441449
0.000432982
0.000443695
0.038222
0.000449428
0.00064967
0.000447104
0.000437178
0.00931013
0.000430345
0.000453779
0.000447108
0.000445767
0.000450617
0.000435909
0.000465167
0.000444824
0.000592215
0.00106239
0.000448403
0.000442876
0.000443767
0.000437321
0.00043024
0.000482899
0.000547676
0.0271083
0.000488468
0.000449954
0.0196398
0.110883
0.0412443
0.000444272
0.000451225
0.000542037
0.000450812
0.000451026
0.000427106
0.000135738
0.000449809
0.00452073
0.000450316
0.000449116
0.000444662
0.000450706
0.000430288
0.000432122
0.00043022
0.000432647
0.000441412
0.0190324
0.000446006
0.000726822
0.000430205
0.024774
0.000432535
0.0143586
0.00043533
0.000435338
0.00050808
0.157798
0.000451149
0.000449042
0.000441501
0.000436179
0.000454346
0.000431851
0.000453028
0.000446376
0.0004317
0.000471002
0.00043515
0.013949
0.000440777
0.000446489
0.000447693
0.000443686
0.0135234
0.12278
0.020885
0.319279
0.000509247
0.103982
0.000479707
0.000438613
0.00623384
0.00047981
0.000441463
0.000450611
0.000447063
0.000446518
0.000448363
0.000444644
0.000443712
0.000451659
0.00433592
0.000576462
0.0231077
0.000445857
0.000447674
0.000442572
0.0584139
0.000449583
0.000434814
0.00106445
0.000444277
0.000448296
0.121995
0.0155298
0.000435259
0.000450681
0.000442289
0.000445459
0.000457679
0.00045038
0.000575004
0.000591675
0.000450407
0.000448472
0.00044058
0.000450476
0.000444102
0.000440589
0.000454482
0.000444705
0.000431436
0.000445488
0.000456869
0.000450408
0.000429543
0.000445424
0.000449715
0.000449472
0.000451634
0.000438911
0.163514
0.000583577
0.000454645
0.000433071
0.000441201
0.0145718
0.000437512
0.000437463
0.000464656
0.00178057
0.000440659
0.000456422
0.000440138
0.152617
0.000440658
0.000452166
0.000451442
0.163474
0.000436783
0.000445838
0.000465538
0.00044494
0.000427759
0.00134171
0.00043622
0.000449003
0.00042827
0.000437081
0.000436251
0.000447842
0.000428932
0.000711196
0.000448302
0.000439585
0.000432875
0.000445417
0.0256259
0.000438357
0.000438547
0.000438216
0.000447369
0.00044624
0.000442789
0.00124191
0.000447657
0.000445963
0.000445283
0.000428758
0.0256314
0.000428581
0.000453429
0.000440267
0.000451082
0.000445757
0.0433756
0.000479603
0.000439069
0.000450618
0.000444515
0.000702788
0.000430305
0.000441102
0.000529142
0.000436681
0.000428768
0.000459132
0.000448089
0.000447731
0.00044992
0.000447744
0.00043784
0.000580694
0.00044522
0.000451631
0.000469393
0.00044471
0.0239086
0.000429219
0.00045007
0.022832
0.00042847
0.000429209
0.000451642
0.000445272
0.00044564
0.000450226
0.000786514
0.102982
0.00044638
0.000465788
0.000443006
0.000445951
0.000456981
0.0647017
0.0671984
0.000445571
0.000526332
0.000445331
0.000437408
0.000437801
0.00310819
0.000460707
0.000446855
0.0593794
0.000443647
0.0710545
0.00043408
0.000434225
0.0242019
0.0327599
0.0357604
0.000503935
0.000444793
0.000447311
0.000481925
0.000444918
0.000445473
0.000434888
0.0801999
0.000454299
0.000447179
0.0321548
0.00048119
0.000466785
0.000444637
0.000450958
0.00930094
0.00182722
0.000723805
0.000432641
0.000429761
6.0068e-06
0.000436056
0.000667864
0.000443712
0.000451138
0.000474286
0.000210158
0.00131394
0.000449809
0.000516303
0.000442645
0.000479116
0.0110604
0.0806784
0.000448194
0.000579866
0.000450226
0.000446032
0.0998922
0.000423912
0.000442821
0.000787314
0.00044368
0.0231162
0.000455166
0.000451454
0.000442884
0.000470411
0.000558855
0.000441605
0.000435785
0.000445472
0.000572284
0.00044776
0.0186357
0.000445734
0.000468448
0.0284762
0.000446083
0.000444544
0.000449593
0.000446761
0.000442633
0.000451014
0.044537
0.000446834
0.019314
0.00042698
0.000449078
0.0932032
0.000430857
0.000427688
0.000449508
0.0148369
0.000450904
0.000444885
0.000465088
0.000454033
0.000821532
0.000472349
0.000441723
0.000433471
0.000781592
0.0109216
0.000430233
0.000449711
0.000440231
0.000462827
0.000426758
0.000441333
0.000462228
0.175944
0.000448506
0.000449324
0.000451024
0.000431065
0.0160319
0.000442405
0.000370495
0.0151339
0.000422842
0.000444788
0.000442542
0.000729097
0.000439474
0.0208092
0.000437463
0.000445114
0.000476226
3.33868e-05
0.0629647
0.00991282
0.000505628
0.000429704
0.000762617
0.00045314
0.00441675
0.000432488
0.000436229
0.000461262
0.000450087
0.000442778
0.0242124
0.000444996
0.000820141
0.000445437
0.000436191
6.19845e-05
0.000438403
0.000444438
0.000450179
0.000436676
0.000448285
0.000449819
0.0492211
0.0604678
0.000445685
0.000436583
0.00647342
0.00045003
0.00042786
0.0163931
0.000449835
0.000454258
0.000449058
0.000434175
0.000628902
0.00362594
0.0004722
0.000447997
0.000440935
0.000450321
0.0700728
0.000625868
0.000433239
0.000456661
0.00044302
0.000596409
0.0141421
0.000509825
0.000445773
0.0326164
0.000432321
0.000429715
0.000447931
0.000450976
0.000451606
0.00042808
0.000446396
0.000426692
0.000446398
0.000435914
0.000430094
0.000455903
0.000445579
0.000440951
0.029533
0.000387717
0.0337679
0.0127064
0.000437336
0.000454368
0.000434055
0.0605423
0.0483529
0.000467963
0.000443683
0.000430207
0.00124752
0.000507497
0.000433986
0.000443888
0.000438189
0.000462476
0.000437962
0.000436351
0.000428114
0.0622676
0.046697
0.000862716
0.0119872
0.000448096
0.00043885
0.0141819
0.0376681
0.000451956
0.000617041
0.000435911
0.000450539
0.0311079
0.000509119
0.000450955
0.000540017
0.000483566
0.000442342
0.000660102
0.0158701
0.000438476
0.000445312
0.000432525
0.000453167
0.000450946
0.000479332
0.0256388
0.000430668
0.000445614
0.000446182
0.023995
0.108017
0.0224024
0.000433269
0.000438855
0.000444752
0.000432966
0.00848413
0.000444317
0.000444989
0.000571961
0.000436845
0.000430313
0.00781343
0.000433411
0.000438424
0.000508953
0.000433413
0.000450615
0.00044825
0.000471893
0.00043086
0.000445709
0.000445811
0.037348
0.000451641
0.000445169
0.00042838
0.00119928
0.011046
0.000436758
0.000448033
0.0916246
0.0159962
0.000439728
0.000449834
0.000484401
0.0873526
0.000448835
0.000428539
0.000445386
0.0230077
0.000808434
0.000469083
0.000441975
0.000434284
0.000452666
0.00045016
0.000426738
0.000445944
0.000466635
0.0062629
0.000451898
0.000436705
0.220303
0.000955511
0.000458698
0.000434344
0.000434487
0.000521347
0.00043849
0.000449758
0.0645799
0.000436814
0.000447882
0.000509724
0.000430611
0.000439944
0.000445136
0.0142148
0.0233882
0.000449684
0.00043669
0.0638292
0.000444851
0.000454127
0.000448553
0.0231703
0.00043633
0.000450611
0.000449642
0.000446015
0.000458711
0.000547947
0.000494373
0.000454701
0.000481282
0.212517
0.000442824
0.000468727
0.000451307
0.000439699
0.000444059
0.000436492
0.066593
0.000451727
0.000430601
0.000451687
0.000451378
0.000441876
0.000452085
0.000449665
0.000444124
0.000453346
0.000606312
0.015058
0.000438199
0.000434878
0.0622332
0.000469116
0.000449449
0.000460015
0.000573522
0.000441474
0.107558
0.000433129
0.000430681
0.00044695
0.000442758
0.0146103
0.000434411
0.000447729
0.000443638
0.000449648
0.000448888
0.000464671
0.000428688
0.000561926
0.000469036
0.000434818
0.013648
0.00063735
0.000384955
0.0242633
0.000446727
0.000442796
0.156219
0.0215875
0.000448269
0.000428539
0.000450997
0.0465812
0.000435991
0.0495737
0.000468832
0.000436986
0.00046944
0.000434879
0.000439966
0.000448486
0.000434279
0.000433843
0.0004381
0.000426328
0.000481879
0.000482289
0.000436955
0.000582097
0.000445421
0.000430729
0.0515862
0.000449302
0.000451801
0.000436213
0.000428863
0.00043661
0.00044046
0.000440003
0.000449704
0.00051483
0.000436405
0.000456542
0.000871149
0.000450199
0.000433836
0.000437651
0.000461412
0.000639628
0.000453336
0.0110286
0.000451027
0.000450728
0.000436318
0.000449372
0.0274869
0.000451337
0.000444854
0.000428097
0.000440568
0.000466275
0.000445188
0.000447801
0.000451751
0.000445884
0.000467412
0.000517561
0.000450234
0.000555136
0.000436879
0.000459795
0.000529751
0.000446533
0.0432029
0.000430168
0.000582983
0.000886262
0.00045996
0.000437853
0.000465211
0.000116644
0.000439425
0.000451056
0.000450895
0.0155828
0.000443629
0.000551396
0.000444747
0.038024
0.000445926
0.000473609
0.000444751
0.000434036
0.0004554
0.000445889
0.000445984
0.000458559
0.000440446
0.000445912
0.000434862
0.000459134
0.000434791
0.000452794
0.0128228
0.000446514
0.0133323
0.000446437
0.000449063
0.000428514
0.000450804
0.00045649
0.000561007
0.0435624
0.000470833
0.00045033
0.000465727
0.0388621
0.000492629
0.000440176
0.000438104
0.00044738
0.000428965
0.000445521
0.000430145
0.00042857
0.000448659
0.0118549
0.0798948
0.00524242
0.000437489
0.00225845
0.000592356
0.000450703
0.000447634
0.000445985
0.0242429
0.0004007
0.00231434
0.000435025
0.000437178
0.000451187
0.0409486
0.000449356
0.000439711
0.0505493
0.000445983
0.000445038
0.000475749
0.000443684
0.000469377
0.00122142
0.000438696
0.000434562
0.012322
0.000445688
0.000434574
0.000438248
0.000456409
0.000450416
0.000432455
0.000445877
0.000439783
0.000469214
0.000448167
0.000444853
0.000440507
0.043846
0.000444401
0.000444014
0.000445409
0.00249676
0.000434784
0.00054936
0.000573097
0.0880191
0.00048286
0.000443667
0.000448962
0.000440253
0.0145649
0.000480188
0.00041136
0.00406664
0.000451834
0.0004344
0.00044415
0.000446
0.000435906
0.000453473
0.000439941
1.79159e-05
0.000496992
0.000460033
0.0868339
0.000450328
0.000435046
0.000445675
0.000435569
0.000503748
0.00044834
0.000441156
0.0005921
0.00043972
0.000452857
0.000435872
0.0004542
0.000438431
0.000463312
0.0252032
0.000437427
0.000430683
0.000446083
0.000841007
0.011803
0.000235843
0.000449528
0.000449836
0.000452006
0.000468434
0.000434459
0.000472901
0.000452432
0.112942
0.00043542
0.00528118
0.000449478
0.000474961
0.00063804
0.000454717
0.153935
0.000450093
0.000446147
0.000459673
0.000432802
0.0904765
0.000496001
0.341846
0.0125965
0.00094528
0.000453231
0.000452734
0.000436957
0.000436419
0.000475174
0.000492381
0.0959356
0.000330032
0.000452468
0.000445712
0.000443515
0.0314219
0.000435239
0.000449127
0.000855312
0.000460243
0.000434374
0.000438029
0.00287706
0.00043938
0.0169593
0.000429163
0.000451889
0.000451764
0.00778789
0.000429017
0.000440177
0.000458097
0.0658357
0.000448241
0.000450771
0.000450755
0.000741806
0.000462205
0.103075
0.00023304
0.000451904
0.000444806
0.000456819
0.00287075
0.000581458
0.000454846
0.000464243
0.015065
0.000435413
0.000476945
0.000438032
0.000453248
0.000428962
0.000481372
0.000471259
0.000447976
0.000445473
0.00048504
0.000448868
0.000431054
0.000434159
0.0919346
0.000913092
0.00043223
0.000450187
0.000442482
0.000432157
0.000451122
0.00044687
0.000428674
0.00138067
0.000459261
0.0140405
0.000433863
0.000432315
0.000454845
0.000447051
0.0138573
0.000471254
0.000490582
0.000323511
0.0749659
0.000437384
0.000454285
0.014703
0.000440126
0.000437022
0.000426726
0.000434866
0.000436441
0.0892569
0.0137987
0.000434023
0.0004567
0.000444161
0.000451939
0.0193226
0.000432131
0.000448631
0.149222
0.000484033
0.000455028
0.000476502
0.000437854
0.0392867
0.00045482
0.000462324
0.000503615
0.000434015
0.000448634
0.0012836
0.339154
0.000460217
0.000448106
0.000461132
0.000435683
0.000430818
0.000431856
0.000431558
0.000441255
0.000452544
0.000431079
0.000445795
0.00042666
0.000444494
0.000435764
0.000451483
0.000444555
0.000460776
0.000452198
0.0474192
0.00048661
0.000449964
0.000434662
0.0708762
0.000429211
0.000449487
0.0145855
0.000449405
0.000451967
0.000451381
0.000444433
0.000450847
0.000443996
0.000440306
0.0477124
0.000447244
0.00043568
0.119289
0.000442267
0.000428427
0.000464328
0.00111793
0.000451676
0.000404845
0.000451042
0.0134679
0.0104477
0.000436324
0.000465523
0.000439299
0.000465964
0.00265636
0.000436845
0.0134634
0.000423717
0.000448887
0.000443591
0.0060981
0.000445718
0.0468092
0.000477795
0.000449345
0.125209
0.000448433
0.000586101
0.000446025
0.0118635
0.000828749
0.0139296
0.000788322
0.000442613
0.00457582
0.000550509
0.0688935
0.00044887
0.000453257
0.000449625
0.000446301
0.00044184
0.13853
0.000471028
0.000527193
0.000463753
0.000473943
0.000445748
0.000454146
0.000436411
0.000447563
0.000704056
0.000434134
0.00479601
0.000446074
0.000440322
0.000446546
0.000450719
0.000446951
0.000448881
0.000431386
0.000498535
0.000445994
0.000521654
0.000431939
0.0416378
0.0943402
0.0266666
0.0218557
0.000441265
0.000463114
0.000431082
0.000442693
0.000449204
0.000432614
0.134281
0.150173
0.000441059
0.000455253
0.000434986
0.000436686
0.000447591
0.0248023
0.000233279
0.000454553
0.000456712
0.000445641
0.000444999
0.000438391
0.00677676
0.000356208
0.000451253
0.000451049
0.000436514
0.000441168
0.000468077
0.000430074
0.0132793
0.0133223
0.000456029
0.000441799
0.000431015
0.000434996
0.000439015
0.000799729
0.000461775
0.00045714
0.000484533
0.000420573
0.00847241
0.000442834
0.000439278
0.00044726
0.000457382
0.00601487
0.000532321
0.000453267
0.000433036
0.0353328
0.000502524
0.00194113
0.00125847
0.000443789
0.000451136
0.000432827
0.000450941
0.000442851
0.0004279
0.000451076
0.00043455
0.00107047
0.000432675
0.000443669
0.000848194
0.000447678
0.000545383
0.000449578
0.000439098
0.000446022
0.000437558
0.0128824
0.000451818
0.000440532
0.00044784
0.000437567
0.000431568
0.000434996
0.000452355
0.000444657
0.000449244
0.000557677
0.0199158
0.000439171
0.000453659
0.000446268
0.000443667
0.000437018
0.000437812
0.00044664
0.00044283
0.000450404
0.000451037
0.000438751
0.00043887
0.000454394
0.132421
0.00173699
0.0398983
0.00043595
0.000449534
0.00044102
0.000485129
0.00044525
0.00044455
0.00043839
0.000465131
0.000432589
0.000467393
0.000447107
0.000433717
0.000477141
0.000447354
4.73382e-05
0.000446017
0.000448301
0.000435998
0.0223379
0.000445216
0.000440375
0.000435994
0.000439259
0.000666339
0.000438324
0.000438684
0.000432501
0.000362846
0.000443093
0.000449473
0.00046369
0.000491939
0.000433687
0.332978
0.000447483
0.000466266
0.000579924
0.000464579
0.00045424
0.000438726
0.000447738
0.00204358
0.221126
0.00044281
0.000498477
0.000485732
0.000484629
0.000432615
0.000432318
0.000512273
0.211544
0.000441003
0.000451064
4.72887e-05
0.000450506
0.000454053
0.0118793
0.000432482
0.000445681
0.000476301
0.000446638
0.000446953
0.000438569
0.000451141
0.129892
0.000448313
0.000439196
0.000450265
0.00045492
0.00044485
0.000445772
0.000449195
0.013053
0.0226744
0.000457685
0.000448247
0.000555927
0.00043255
0.000487357
0.000427732
0.000449468
0.000445145
0.000447163
0.000447776
0.000426309
0.00045221
0.000454294
0.000449598
0.000448919
0.000449515
0.000450494
0.000485258
0.0125299
0.000433146
0.000430983
0.10885
0.00043911
0.000449435
0.00044268
0.000450085
0.000488752
0.0138322
0.000437175
0.00128317
0.000443479
0.000451
0.000476227
0.000445579
0.00043501
0.000451131
0.000449483
0.149911
0.000487197
0.000435882
0.000445556
0.000446831
0.000450287
0.000448192
0.000514743
0.000450544
0.000445047
0.000433001
0.00048748
0.000514832
0.000704867
0.0546962
0.00043634
0.000443166
0.000454128
0.0216384
0.000442785
0.00394778
0.000482272
0.000453959
0.000606662
0.000449846
0.000443622
0.000435671
0.000451728
0.000441464
0.000461397
0.000434703
0.0377544
0.000466117
0.000499676
0.000476956
0.000452999
0.000446763
0.000472684
0.000449099
0.000439125
4.22711e-05
0.000444949
0.000450923
0.00702098
0.000449653
0.000450805
0.000450141
0.00044374
0.00226829
0.00045066
0.126939
0.000446552
0.000439205
0.000426401
0.000483398
0.000451577
3.98884e-06
0.000430675
0.000561339
0.000449771
0.000443875
0.116186
0.000454793
0.000473678
0.000793659
0.000447526
0.000432887
0.000445928
0.000438907
0.000520704
0.000445329
0.000457361
0.000446055
0.000450764
0.000534534
0.000445855
0.000446689
0.024335
0.0004486
0.175345
0.000820708
0.000501044
0.000447542
0.000483459
0.000445054
0.000463029
0.000440316
0.00511566
0.000837915
0.000460633
0.000446465
0.107586
0.000605368
0.0146249
0.000440872
0.00043978
0.000445761
0.0073042
0.000681494
0.000449075
0.322543
0.000790248
0.000470825
0.000449563
0.0229629
0.0361585
0.000458229
0.000435856
0.000452814
0.000438556
0.000437581
0.118131
0.000451153
0.000446109
0.000473313
0.000461499
0.000443935
0.000467716
0.000445305
0.000441088
0.000451615
0.000467157
0.000445817
0.0116877
0.000565039
0.000445522
0.000440601
0.000449579
0.000438651
0.0684455
0.000441433
0.195428
0.000432592
0.000443581
0.000792521
0.000453742
0.000451075
0.000444947
0.000466557
0.000451725
0.000446473
0.000449535
0.000444199
0.000562149
0.000480731
0.000479407
0.00045364
0.000648471
0.0111573
0.000850462
0.0421805
0.000449134
0.000437686
0.000447509
0.000453415
0.000430395
0.000433661
0.0151877
0.00100578
0.000458481
0.0673667
0.000438586
0.000450092
0.000448747
0.0151948
0.000429632
0.000451673
0.000433749
0.000449332
0.3264
0.000535169
0.0330508
0.000432817
0.000446619
0.000440406
0.00529461
0.0121676
0.000436398
0.000364504
0.000446913
0.000471303
0.000435538
0.000455947
0.0039336
0.02824
0.00044767
0.000436814
0.000453684
0.000444495
0.00083029
0.000435585
0.000437965
0.000446909
0.000688178
0.000441543
0.000457505
0.000436208
0.000483487
0.000368072
0.000449653
0.000449582
0.000439815
0.067533
0.000332603
0.000452321
0.00043366
0.000490657
0.000449354
0.000447464
0.000446474
0.105982
0.000440366
0.263221
0.0004517
0.000445848
0.000454205
0.000491966
0.000157786
0.000443365
0.000448212
0.000440598
0.000639256
0.000451039
0.000533516
0.0143724
0.000454215
0.000449968
0.000457911
0.000448122
0.000465378
0.000440824
0.000435741
0.000448574
0.000447436
0.000452519
0.000436805
0.000452234
0.00043078
0.000446891
0.027646
0.000540387
0.000448629
0.000438797
0.000449459
0.038689
0.153135
0.000454196
0.000136404
0.000450227
0.024523
0.000439563
0.000445458
0.00048167
0.0355442
0.000444374
0.000444807
0.000449029
0.000654565
0.000447174
0.000449006
0.000452169
0.00028477
0.000436081
0.000571281
0.000437665
0.00032292
0.019732
0.000440772
0.000450257
0.0402873
0.000457134
0.00196607
0.000430698
0.000452976
0.000432837
0.000454919
0.000451541
0.0004532
0.216765
0.000447657
0.000496212
0.0139364
0.000448096
0.000443967
0.000443134
0.000430695
0.000458026
0.000430573
0.000430136
0.000434973
0.000448249
0.00203374
0.16918
0.000493869
0.000446259
0.000449255
0.000450732
0.000434176
0.000610423
0.000478148
0.000439883
0.000444892
0.000519968
0.119067
0.000450749
0.000443328
0.000535665
0.000444481
0.000433379
0.0867328
0.00044126
0.0126735
0.000493585
0.000443144
0.00761759
0.000473356
0.000440164
0.000452848
0.000472333
0.000479143
0.0184305
0.00371401
0.0715608
0.000431873
0.000453047
0.0791359
0.000244264
0.000451737
0.137517
0.000434168
0.000442462
0.0661232
0.000496764
0.0004725
0.000472622
0.000432711
0.000452482
0.000479269
0.00614143
0.0561397
0.000539593
0.000432217
0.000440502
0.00118954
0.000215113
0.000479005
0.000433822
0.000447969
0.000493003
0.000457714
0.000433312
0.000446391
0.000516463
0.000444159
0.000457489
0.000448582
0.000428139
0.000442868
0.000438296
0.0137426
0.0427972
0.000430552
0.0282935
0.00048357
0.0003409
0.0198535
0.000491023
0.000878038
0.000428175
0.000448353
0.000477183
0.000456944
0.0144477
0.00044568
0.000459105
0.0626744
0.000443882
0.000430475
0.000451594
0.000448033
0.00026702
0.000447019
0.000450835
0.000450937
0.10254
0.000439643
0.000432815
0.000453115
0.000451152
0.000432295
0.000443658
0.000443658
0.000446877
0.000628693
0.000442579
0.000453214
0.000449569
0.000440501
0.00043918
0.000442996
0.000437356
0.000436069
0.00044491
0.000468729
0.0004458