/*--------------------------------*- C++ -*----------------------------------*\
| =========                 |                                                 |
| \\      /  F ield         | OpenFOAM: The Open Source CFD Toolbox           |
|  \\    /   O peration     | Version:  v2012                                 |
|   \\  /    A nd           | Website:  www.openfoam.com                      |
|    \\/     M anipulation  |                                                 |
\*---------------------------------------------------------------------------*/
FoamFile
{
    version     2.0;
    format      ascii;
    class       volVectorField;
    location    "250";
    object      ddtCorrDdt0(U);
}
// * * * * * * * * * * * * * * * * * * * * * * * * * * * * * * * * * * * * * //

dimensions      [0 1 -2 0 0 0 0];


internalField   nonuniform List<vector> 
18598
(
(-0.0642935 0.0654317 0)
(0.0449371 0.0571602 3.56984e-20)
(-0.0118322 -0.0289971 2.05269e-21)
(0.0502868 0.0234731 4.0075e-20)
(-0.010539 -0.0140971 -4.9165e-23)
(-0.000249428 5.39139e-06 0)
(0.209949 0.0569558 0)
(-2.22889e-06 -2.85378e-06 2.59239e-24)
(-6.86983e-05 -0.00010108 3.49617e-21)
(0.0125392 -0.0176683 7.74141e-21)
(-9.98694e-06 3.00187e-05 -4.80799e-23)
(0.0119468 -0.00376865 1.00032e-21)
(-0.00027168 -1.20469e-05 -1.22003e-21)
(0.269734 0.0610956 0)
(-0.100556 0.0739269 0)
(0.009441 -0.00190472 -2.58411e-21)
(-0.00460671 0.00754785 2.69354e-21)
(0.0218133 0.085094 0)
(0.00692021 0.110405 4.20326e-20)
(-0.00688116 0.0740384 -6.26895e-22)
(0.02423 0.0989545 -2.39399e-21)
(4.69512e-05 4.08372e-05 5.06645e-22)
(-0.0508057 0.0175462 1.94357e-20)
(-6.821e-05 -9.02315e-05 1.2092e-21)
(-0.000269604 -4.89398e-05 -2.28724e-21)
(0.0018632 0.14942 -4.06509e-20)
(-2.97388e-05 -2.32825e-06 -2.15665e-22)
(0.0401893 -0.0527371 -5.70713e-21)
(-0.000394079 -2.39032e-05 1.12579e-20)
(5.22668e-05 9.63968e-05 -2.13999e-22)
(-0.0843637 0.0684994 0)
(-6.89901e-05 -0.000112058 -3.0767e-23)
(0.0492479 0.0699203 -9.67271e-21)
(-1.34226e-05 1.94214e-05 -5.4691e-23)
(-0.012689 -0.0117237 1.65368e-20)
(-0.000145881 -8.14488e-05 0)
(0.00648894 0.00157759 -2.9949e-22)
(-0.000269159 -4.54781e-05 2.12126e-21)
(-0.0146902 -0.00870847 -2.93834e-22)
(0.0139415 0.0498493 0)
(0.0308508 -0.051312 6.50759e-21)
(-3.83898e-06 3.85668e-05 7.36704e-23)
(-0.000205704 -0.000166701 -1.84377e-21)
(-0.0131279 -0.00745612 0)
(-8.53857e-05 -9.15483e-05 6.42377e-23)
(0.250212 0.0804598 2.4715e-20)
(-3.09412e-05 7.25646e-07 0)
(0.0127384 0.044371 0)
(0.00339206 -0.0129438 -1.10149e-20)
(-0.000453913 -4.0954e-05 4.96751e-21)
(-0.0829373 0.00424421 0)
(-0.000518124 -8.0751e-05 1.42416e-21)
(0.00154911 0.000292428 -2.46185e-21)
(-0.0234988 0.0346751 0)
(-0.00101716 0.000526168 4.05796e-21)
(-0.000133687 -0.000100193 4.74895e-23)
(0.0232141 -0.0538105 5.31592e-21)
(0.0222987 -0.135797 2.98977e-21)
(0.073209 0.0501712 -2.37343e-20)
(0.0130139 -0.0357759 0)
(-0.000457103 0.000115354 -9.00309e-22)
(-8.73764e-05 -8.49686e-06 3.35834e-21)
(0.00121372 0.0012502 -1.38433e-21)
(0.01871 0.0818249 -1.65476e-20)
(0.00481142 -0.0137462 6.39268e-22)
(-0.00221625 0.00110688 2.44258e-21)
(-0.00063107 -0.00721555 -1.19558e-20)
(-0.00167761 0.00094739 -5.0907e-21)
(-0.000125178 -3.83157e-06 0)
(-0.0765173 0.0699816 -1.99743e-20)
(-0.00272424 -0.000680947 0)
(-0.000253651 -2.22252e-06 2.89068e-21)
(-0.000681186 0.000852832 6.66307e-21)
(-0.000407508 -6.79702e-05 -5.79695e-21)
(-0.000108398 -6.94463e-06 -2.76128e-23)
(-4.93136e-05 -1.5039e-05 6.78534e-22)
(-0.000567499 0.000770549 0)
(0.00118263 -0.000114823 -9.63478e-24)
(0.00122696 0.000307615 6.25446e-21)
(-0.00626743 0.00180853 -7.64893e-21)
(-0.000444314 -6.00689e-05 -7.72129e-21)
(-0.0004902 -5.88205e-06 0)
(-2.54035e-05 -1.90699e-06 9.12286e-22)
(-0.000136204 -6.17697e-06 -3.96675e-21)
(-0.000238488 0.000180819 2.61636e-21)
(-0.000791736 0.000789496 -6.5041e-21)
(-2.93961e-05 2.67203e-06 0)
(0.0232967 0.132867 6.56386e-20)
(0.00299385 -0.0100001 -6.76978e-21)
(0.245553 0.103343 9.99112e-21)
(0.00620941 0.00170845 -3.21695e-21)
(0.00171741 -0.000345433 0)
(-0.000253855 -4.20572e-05 5.33758e-21)
(2.56658e-05 -0.00154127 -1.61614e-20)
(-0.000415741 -6.26631e-07 0)
(-0.00117055 0.000753014 0)
(9.79506e-05 -0.011021 -2.62501e-20)
(-0.068326 0.0884884 2.17977e-20)
(0.0127856 -0.00711369 -2.70316e-21)
(0.00508431 -0.00275197 0)
(0.0265718 -0.0316822 4.4134e-20)
(0.00752437 -0.0530085 1.29856e-20)
(0.054405 0.0173611 4.65967e-21)
(0.0263053 0.142641 7.94468e-21)
(0.135416 -0.0692461 0)
(0.0280285 -0.00957157 -1.13451e-20)
(-0.0378033 0.0529295 9.20093e-21)
(0.0100907 0.0470234 -5.36508e-20)
(-2.5869e-05 -2.85009e-05 1.14056e-22)
(-0.07953 0.342205 0)
(0.00900207 -0.00268256 1.36694e-21)
(-0.000402431 -2.47267e-05 -2.86547e-21)
(-0.0520376 0.0112946 0)
(0.0492818 0.00549645 -2.91221e-20)
(-6.63343e-05 -0.000116508 -2.31189e-21)
(0.00400935 0.121035 4.60268e-21)
(-0.00508816 0.0011854 1.13334e-20)
(-5.64188e-06 9.92267e-07 -1.08906e-22)
(0.00786539 0.00201401 4.18321e-22)
(-0.000218578 -0.000169352 0)
(-0.00536956 0.113756 0)
(-0.00653482 0.00576565 9.64392e-24)
(-0.00526012 0.0788143 1.33409e-20)
(-0.000198819 -0.000170345 1.83321e-21)
(-0.000255971 2.22312e-05 0)
(0.176349 -0.0239223 9.01738e-21)
(-0.0329228 -0.190531 0)
(-0.000218268 -0.0001682 -1.99663e-21)
(-1.2767e-05 2.48611e-05 9.24414e-23)
(0.139367 0.0159005 -1.79772e-20)
(-0.00580729 0.00692929 -1.53986e-21)
(0.0212035 0.124027 -1.8658e-21)
(0.0436853 -0.0365323 1.10545e-21)
(-0.00468287 0.00432869 0)
(-0.0135164 -0.00701841 7.33869e-21)
(0.0338703 0.00871786 0)
(-3.30721e-05 -4.65592e-06 0)
(-0.000114231 -1.66545e-06 -5.68381e-22)
(-0.000158117 -1.89593e-05 5.0229e-22)
(-0.0371133 0.307068 1.10915e-20)
(-0.0019214 0.00149515 0)
(8.79663e-05 0.000155838 -2.26918e-22)
(-0.00200025 0.00518806 -6.05807e-21)
(0.0351969 0.104174 -4.30049e-20)
(-0.0535605 -0.0165898 -1.31274e-21)
(0.000213638 0.000862708 -2.46123e-21)
(0.0573933 -0.143987 6.66109e-21)
(-7.78574e-05 -3.10317e-06 0)
(-0.00943684 0.00840092 -5.99638e-21)
(5.4976e-05 0.000142279 0)
(-6.6793e-05 -0.00012143 2.3212e-21)
(-0.213653 -0.0430307 3.9811e-21)
(0.00317228 0.00239685 5.51934e-21)
(0.0691154 0.0812953 -2.05225e-20)
(-0.00153427 1.01675e-05 1.37969e-21)
(-0.000354694 -0.000966256 8.03549e-21)
(0.00302656 0.00205788 1.9484e-21)
(0.0131796 0.00289315 6.46849e-22)
(-0.000344845 -6.77684e-05 0)
(-0.000203323 -0.00012979 0)
(0.0332284 -0.00557373 -2.69259e-21)
(-0.103786 0.0736529 -3.64799e-21)
(-0.0470063 0.0510818 -8.12567e-21)
(-0.000267047 3.89805e-06 0)
(-0.0333523 -0.144184 0)
(0.0731363 0.0247083 0)
(-0.0782829 -0.00415939 -7.2578e-21)
(-0.000619197 0.000490225 0)
(-3.68484e-05 -4.62642e-06 3.14054e-22)
(-0.000357031 -4.10329e-05 0)
(-0.000262476 5.67034e-06 0)
(0.0397167 -0.0312049 -1.03157e-21)
(-0.0203716 0.100381 0)
(0.078281 0.0209579 4.75184e-20)
(-0.0127828 0.0909416 0)
(0.00470691 0.0811306 -2.53663e-20)
(-0.00837108 -0.027737 0)
(0.000909511 0.0701963 3.277e-20)
(-0.000210304 -0.000183821 3.43087e-23)
(-0.000204343 -0.000187476 -2.0829e-21)
(0.0321872 0.0424153 3.16068e-21)
(-1.30028e-05 7.85044e-06 3.91493e-23)
(-0.000198456 -0.00230479 1.14788e-20)
(0.135015 0.115129 2.55177e-20)
(-0.000222429 0.000194646 -2.87383e-21)
(0.00167091 -0.000664956 0)
(-0.0638642 0.370533 0)
(-0.000137975 -1.38831e-05 -1.4508e-21)
(-0.040329 -0.0068028 0)
(0.0813143 0.0350924 -4.33751e-21)
(-0.0549474 -0.014112 1.01586e-20)
(-0.00498449 0.000670025 7.62097e-21)
(-0.000231516 -0.000156018 2.04584e-21)
(0.0409875 -0.0132957 -1.82609e-20)
(-0.0160432 -0.0502367 0)
(-0.0738518 -0.0138516 3.06955e-20)
(5.2401e-06 1.94062e-05 4.129e-22)
(0.0162245 0.000744739 0)
(0.000134458 0.000194485 0)
(0.157162 0.0164992 3.50162e-21)
(-0.0395306 -0.0111946 0)
(-0.00201297 0.00161154 0)
(-0.00263837 -0.00478804 0)
(0.0337562 0.0016722 -5.99844e-21)
(-0.0870677 0.00998205 0)
(-0.000537805 0.00010747 5.32095e-21)
(2.46619e-05 2.41858e-05 4.71513e-22)
(0.00554466 0.00530266 3.39367e-21)
(-0.00232294 -0.00486382 0)
(-0.0327076 -0.181682 -3.38475e-21)
(-0.000622388 0.00019223 -2.43654e-21)
(-1.5058e-05 2.0557e-05 3.87852e-23)
(0.000880283 -0.000625311 -3.80141e-21)
(0.00952832 0.0266799 -1.35769e-22)
(0.0123186 -0.00833631 1.9906e-21)
(-0.0050134 0.00383387 8.22814e-21)
(-0.230398 -0.0722215 1.06765e-22)
(-0.0270758 0.0665562 -1.34595e-21)
(-0.0502085 -0.0276441 3.82943e-21)
(-2.9047e-06 -1.91046e-06 3.81823e-22)
(-0.00543013 0.0670051 -2.85517e-21)
(-0.0494713 0.0411123 -7.66209e-21)
(0.239969 0.118858 -5.33919e-21)
(-2.36966e-07 1.65819e-05 -4.46329e-22)
(0.000838614 -0.000649227 -3.07769e-21)
(0.0137867 0.000589393 5.13444e-21)
(0.00128709 -0.0103342 2.62302e-20)
(0.191155 0.19639 7.40127e-21)
(0.00471663 -0.00260597 -1.17265e-20)
(0.00014934 0.000248309 0)
(-0.0271415 0.0199663 0)
(0.0283693 0.0986964 3.62209e-21)
(-0.000236903 1.92023e-05 2.633e-21)
(0.00858125 -0.0157085 -4.05312e-21)
(6.62312e-05 0.000103901 -1.14757e-22)
(-0.000651193 0.00044372 0)
(0.000279894 0.000384427 6.15696e-22)
(0.0561126 0.0126262 -3.46931e-20)
(-1.17219e-05 -2.19498e-06 4.73733e-25)
(0.030036 -0.00791841 4.21895e-21)
(-0.000184052 -9.15571e-05 1.62525e-21)
(-0.000210924 0.0001794 2.8958e-21)
(-0.0419431 -0.0170221 0)
(-4.68842e-05 -0.00189311 -9.30815e-21)
(-0.000191671 -0.000172451 0)
(-0.00105044 0.000464624 0)
(-0.000253793 -1.78716e-05 0)
(-0.00229431 -0.000862083 9.6637e-21)
(-0.000172415 -0.00018994 -2.21669e-21)
(-9.38504e-06 -3.61877e-05 1.57484e-23)
(0.0260615 -0.133464 0)
(6.08309e-05 0.0017837 1.45082e-21)
(0.158584 0.0304069 5.54272e-22)
(0.00341774 0.05676 0)
(-0.000261501 -3.63097e-06 -2.53176e-21)
(-0.00126581 -0.000379887 4.78108e-21)
(-0.000214674 -0.000120366 -3.30284e-21)
(-0.000335626 0.0626762 -6.59231e-21)
(-6.04111e-05 -0.000118172 0)
(0.105825 0.201055 0)
(-0.000241366 0.000289114 1.55446e-22)
(-4.27902e-06 -1.21499e-06 -5.18625e-22)
(0.00620575 0.071455 0)
(-0.000452562 0.0015798 -2.69357e-21)
(-0.000211981 -0.000120011 -1.90615e-21)
(-0.0371428 -0.0150798 1.29563e-21)
(-0.000533751 0.000168015 -1.89479e-22)
(-0.000186499 -0.000162394 5.33369e-21)
(-9.26399e-05 -0.00011448 9.33844e-23)
(-0.0369961 -0.0363606 -1.04647e-23)
(-0.000371675 6.13902e-05 -5.07345e-22)
(-0.00252497 -0.000687354 -4.62458e-21)
(-0.0281381 0.0248635 -1.35266e-20)
(-0.000279366 0.000168604 5.24837e-22)
(-0.00712904 9.91548e-06 0)
(0.027757 -0.0863742 1.83786e-20)
(-0.000143202 -2.16995e-06 0)
(0.0297139 0.12624 -4.39939e-20)
(-0.0340224 0.0667378 0)
(0.0774937 0.0741326 -3.67632e-20)
(0.00904629 0.044489 -1.02306e-20)
(0.0699106 0.0642008 0)
(0.000935753 0.00136337 4.17586e-21)
(0.036401 -0.00628655 0)
(-0.0126592 -0.106923 0)
(0.0242748 0.080951 -2.46447e-20)
(-0.0387821 0.0721798 1.07763e-20)
(-0.000480322 0.000407221 -1.47906e-21)
(-0.0494343 -0.266199 9.75355e-22)
(-0.0765833 -0.0453366 0)
(-4.70381e-05 -0.00013709 -2.6367e-22)
(-0.0364811 0.0130324 0)
(-9.38767e-06 3.03325e-05 5.18786e-23)
(0.0125791 0.00585374 0)
(0.127045 0.00382146 1.56732e-20)
(-0.00501386 0.000883754 7.22694e-21)
(-0.0194883 0.0584709 0)
(0.0135312 0.00691068 2.95758e-21)
(-6.19771e-06 -4.34492e-05 3.94177e-24)
(0.0194566 0.152338 -1.86507e-20)
(-0.00015182 -9.11063e-06 1.29204e-21)
(-0.000167011 -1.47033e-05 0)
(0.00363423 0.088705 0)
(-0.00150179 -0.0077349 -6.96835e-22)
(-8.17984e-05 -0.000122766 0)
(-0.0125914 0.0797824 -2.04447e-21)
(-0.000318338 -3.62348e-05 -5.12846e-21)
(0.00017373 -0.000287305 0)
(-0.00170408 0.000207931 0)
(-7.41135e-05 -0.000125987 1.16284e-22)
(-0.00208001 -0.000979478 -4.54629e-21)
(-0.000243962 -9.65752e-05 1.69576e-21)
(0.0690143 0.0959042 3.61951e-20)
(-0.000321956 0.000172798 2.57214e-23)
(0.000750885 -0.000310215 6.28713e-21)
(-0.056462 -0.261428 -9.11204e-22)
(0.005388 -0.00624245 3.9449e-21)
(-3.38304e-05 -4.59929e-06 -6.09158e-22)
(-0.00313025 -0.0669793 0)
(-0.000236029 -0.000112143 3.03715e-24)
(0.0104859 0.0019621 1.84069e-21)
(-0.000144213 -9.71725e-07 -1.24961e-21)
(2.68738e-06 -1.54945e-05 1.48977e-23)
(-0.00022893 -0.000123856 -1.26419e-22)
(-0.00316852 0.0834716 -1.95509e-21)
(0.0815257 0.0804795 0)
(-0.0109689 0.00045927 -8.96951e-22)
(0.0415871 0.00702178 5.98539e-21)
(0.000706061 -0.000167144 2.97622e-21)
(-0.00703472 0.0870531 -2.14869e-20)
(-2.70499e-05 -3.65669e-05 -9.88844e-23)
(0.204575 0.174953 0)
(-6.70889e-05 -1.35381e-06 0)
(0.0419696 -0.107174 -4.06371e-21)
(-6.74242e-05 -8.99732e-05 -6.43024e-22)
(0.0924172 0.215803 -1.39762e-19)
(-0.000221178 3.5511e-05 -1.56931e-21)
(-0.00371103 0.00235966 -1.33327e-21)
(0.0768825 -0.114924 -4.70217e-20)
(-6.06622e-05 -0.000149728 -2.32871e-22)
(-0.0145271 -0.0109998 1.46944e-20)
(-8.76803e-05 -3.40746e-05 -6.5841e-23)
(0.0117791 0.0492538 -7.5223e-21)
(-0.0020739 0.00119819 3.09843e-21)
(0.00437583 0.00240099 -5.89875e-21)
(-4.64493e-05 -6.51155e-06 0)
(-0.000501515 0.000249939 -2.12892e-21)
(0.00667717 -0.0508279 -7.17386e-20)
(0.00565903 0.0493845 8.91027e-21)
(0.223636 0.0821737 -2.35307e-20)
(0.000611773 -0.00323193 0)
(0.00828788 0.0259618 1.40806e-22)
(-0.00120656 0.000178664 0)
(-0.0507793 0.0281307 1.41573e-20)
(0.0397954 0.0973673 0)
(-0.00235699 0.000720563 -6.42345e-21)
(0.0612435 0.0265478 0)
(0.0681159 0.0937418 -1.10606e-21)
(-0.113264 0.0114413 0)
(0.00135691 0.000179488 2.96624e-21)
(-0.0314791 0.0132456 3.50696e-21)
(0.083617 0.0485716 0)
(0.00539423 0.00253553 -2.61361e-21)
(-0.0017592 0.00177002 5.14383e-21)
(-0.199045 0.435571 -4.23881e-20)
(-0.000323128 -3.70059e-05 6.04739e-21)
(0.143842 -0.0342938 -1.07818e-20)
(-0.000201253 -0.000183979 2.20558e-21)
(0.0465808 -0.102011 0)
(-0.000224293 -0.000147792 -1.97029e-21)
(-0.00136587 0.000258232 0)
(-0.00363807 0.00646152 0)
(-0.000182795 -0.000102092 1.35647e-21)
(-0.000136077 3.46382e-05 5.20214e-22)
(0.0348402 0.11651 4.42689e-20)
(-0.000194516 -0.000122779 3.95861e-21)
(-0.00011634 -6.01855e-06 1.85496e-21)
(-0.000199446 -0.00019915 1.86503e-21)
(-0.00031689 -5.62976e-06 5.11583e-21)
(-0.00442106 0.000444852 0)
(-0.00228959 0.00133694 -1.04489e-21)
(0.0448934 0.0482495 -1.0721e-20)
(-0.104633 -0.00471841 0)
(-0.000249901 0.000188494 -1.32238e-21)
(-0.00465797 0.00542116 2.84356e-21)
(-0.058607 0.0282726 8.59024e-21)
(0.00179954 -0.000186298 5.8051e-21)
(-0.00011784 -6.2779e-06 4.27093e-21)
(0.0414566 -0.00584306 -1.80771e-20)
(0.00133296 0.00125307 0)
(-0.000200376 -0.000183512 0)
(-0.0693685 0.311501 5.51254e-21)
(0.000841134 0.00254316 -3.30802e-21)
(-0.0274337 0.0425453 3.10263e-21)
(0.0832892 0.00725096 9.39767e-21)
(-0.000632693 0.000403905 -7.38747e-21)
(-0.000392377 0.000289363 0)
(-0.00610714 -0.104179 0)
(-0.0833651 0.0649494 0)
(-7.92587e-05 -0.000112775 -2.12698e-22)
(-0.000650287 0.000254787 -3.13116e-22)
(0.000829788 -0.00143459 -4.27778e-22)
(2.98994e-06 -3.4934e-06 0)
(0.00112976 0.00270149 1.06073e-21)
(0.0133826 -0.000853581 -1.03475e-23)
(0.0859999 0.0520845 0)
(0.000963585 -0.00115103 9.44129e-22)
(0.0585529 0.0340878 7.78624e-21)
(-0.000344801 0.000195258 6.03004e-21)
(-0.0308662 -0.142894 0)
(0.0172242 0.000725201 2.7458e-21)
(-0.000246929 -1.99528e-05 1.39459e-21)
(0.13606 0.0443907 4.22705e-20)
(0.15131 -0.0575488 -8.10312e-21)
(-0.0725413 -0.0169945 6.53197e-20)
(-0.00023889 5.84095e-06 0)
(-0.0371389 -0.000193497 0)
(0.016547 -0.0029216 -3.30949e-20)
(-0.00342407 -0.0435267 1.16517e-20)
(0.0371565 0.00772871 1.61701e-20)
(-3.03045e-07 4.07486e-05 3.66978e-22)
(-0.00040201 -7.46304e-05 -1.03362e-20)
(-0.000228771 -0.000132901 0)
(-0.000101745 -8.13499e-05 -7.53815e-23)
(0.0623777 -0.162181 5.48758e-20)
(0.0463623 0.0608975 -3.89835e-20)
(0.0395995 0.0480262 -5.37695e-21)
(-0.000192882 9.92921e-05 -8.95737e-22)
(-0.00042058 -4.94886e-05 4.99999e-21)
(-0.00145105 0.000629583 7.02593e-21)
(-0.000183499 -0.00185917 0)
(-0.000891425 0.000574695 0)
(-0.000182127 -0.00011178 -1.28698e-21)
(-0.000183199 2.58403e-05 1.2878e-21)
(-0.0363391 0.00707723 0)
(-0.00213898 0.00112986 7.39765e-21)
(-0.000160316 -6.85207e-05 -2.26729e-21)
(-8.07188e-05 -8.90623e-05 9.25007e-23)
(-6.79854e-05 -6.97956e-05 3.32521e-21)
(-5.37732e-07 -3.22247e-07 -2.11392e-22)
(-0.000107404 -9.46061e-06 1.14645e-21)
(-1.69397e-05 -1.52474e-05 2.22127e-22)
(0.0829496 -0.173053 0)
(0.0297383 -0.026354 -1.91028e-21)
(-0.00152548 -0.000221965 5.16091e-21)
(-0.00625051 -0.000765761 5.0099e-21)
(-0.000130775 -0.00255223 0)
(-0.000195569 -0.00016494 0)
(0.00290917 -0.0327615 0)
(-0.027681 -0.0806887 5.6286e-20)
(-0.000238926 4.36056e-05 4.90038e-23)
(-3.49032e-05 -2.50334e-05 -4.29983e-22)
(-0.000464409 0.000463122 0)
(-0.0179102 -0.0787363 -1.27216e-20)
(-0.00038508 -0.000142897 -4.22688e-21)
(-0.000196764 0.000100479 0)
(-0.000883254 0.000437297 9.99486e-21)
(-6.1706e-05 -0.000118334 2.43283e-21)
(-0.00227636 0.000938377 -5.40564e-21)
(-5.00959e-05 -1.52939e-05 0)
(0.21891 0.0466945 -1.08822e-21)
(-2.20552e-06 -5.54124e-06 -4.00013e-22)
(-0.000420943 0.000433879 0)
(-6.41157e-05 -6.93262e-05 -1.11179e-21)
(-3.68144e-05 -1.55321e-05 0)
(-0.000403456 0.000357033 -2.19699e-23)
(-0.00202458 0.000756741 0)
(-0.192729 0.480852 2.45636e-19)
(-0.000184368 0.000146024 0)
(-1.47818e-05 2.77069e-06 3.32385e-23)
(-5.73125e-05 -2.08725e-05 4.01223e-22)
(-0.000156747 3.80458e-05 0)
(-8.56295e-05 -9.1345e-06 7.61337e-23)
(-0.00218888 0.00572555 -9.64115e-21)
(0.064945 0.074926 0)
(-0.000390997 -0.000159586 4.34176e-21)
(0.00100856 -0.00273914 0)
(-1.62461e-06 -1.1007e-06 3.68739e-22)
(-0.00091216 0.000481263 -4.35354e-21)
(-0.000291421 -0.000327573 -6.04714e-21)
(-0.0295258 0.0197707 8.05115e-21)
(-0.000205002 -8.63279e-06 -1.06669e-23)
(-0.00561817 0.00131341 3.41765e-22)
(-0.000200484 -0.000189502 2.12102e-21)
(5.26449e-06 -5.40965e-06 -5.7386e-24)
(0.0719095 0.0291729 5.27328e-21)
(-0.0473161 0.00628839 -4.19849e-21)
(4.34079e-06 -7.28471e-06 -1.90961e-23)
(0.0339096 0.00321943 -5.66349e-21)
(0.069267 0.05595 5.58525e-20)
(0.00270935 -0.134221 -4.9879e-20)
(0.188919 0.179245 -9.81373e-21)
(-0.0415275 -7.95359e-05 0)
(-0.000249874 1.12919e-05 -5.60443e-22)
(0.194012 0.165782 3.82828e-21)
(0.0733321 0.0602347 -1.96407e-19)
(-0.000183039 7.49589e-05 3.53558e-22)
(-0.000270051 -4.81121e-06 0)
(-0.045863 -0.0423332 0)
(-0.0506366 -0.0208653 7.95901e-21)
(-0.0959322 -0.127051 -1.07498e-20)
(0.0161887 0.0717698 1.70495e-20)
(0.0013557 -0.000506644 -2.90853e-21)
(0.0302119 -0.0422016 9.85035e-21)
(-0.000429248 0.000354856 -1.51968e-21)
(-7.87588e-05 -8.45359e-06 1.60167e-21)
(8.3712e-05 0.00018025 3.84979e-22)
(-6.83004e-05 -9.49118e-05 -1.94194e-21)
(0.0458152 0.0846441 8.90345e-21)
(-0.000167756 2.05902e-05 -1.34364e-21)
(-0.00677848 0.0691215 0)
(-0.00141476 0.00596445 1.25592e-20)
(-0.000290665 0.00016987 0)
(-0.0346327 0.329726 0)
(-0.00945496 -0.0158792 -2.32099e-20)
(0.0588532 0.0369406 -1.45425e-20)
(-0.0935768 -0.131968 1.24808e-21)
(-0.0976838 -0.238286 -9.50149e-21)
(1.35456e-06 -9.22366e-06 0)
(1.60786e-06 -7.83359e-06 1.55094e-23)
(0.0652401 0.0253051 -1.41888e-21)
(-0.0118101 0.00102026 8.44461e-21)
(0.0523373 0.0110041 -2.90677e-21)
(0.0125056 -0.0109414 -3.07275e-21)
(-0.00206462 0.00101821 -1.73747e-20)
(-6.208e-05 -0.000224915 -2.70961e-21)
(-0.0662027 0.0133413 1.6154e-21)
(0.00886801 -0.00267567 2.13156e-21)
(-0.0462682 -0.0247336 0)
(-0.000477078 0.000217815 -8.82235e-22)
(-0.000478073 -0.000338617 0)
(-2.57647e-06 -1.00057e-05 -2.85369e-23)
(-0.000187513 -0.000109657 0)
(-0.000633183 0.000272094 -2.5512e-21)
(0.00132364 0.000278387 -1.95674e-21)
(-3.73278e-05 -2.57522e-05 0)
(-0.00729183 0.034789 -4.82627e-21)
(-0.000316445 -2.7146e-05 4.16669e-21)
(-6.54061e-05 6.21391e-06 -1.28906e-21)
(-0.0179404 -0.169881 -2.53383e-20)
(-0.00491064 0.0350253 -1.36971e-20)
(0.057502 0.0649022 -2.12677e-20)
(-0.000596598 0.000281554 5.06919e-21)
(-0.0588902 -0.0162146 2.76792e-21)
(-0.0313928 0.0117609 0)
(-0.00532303 0.0121387 2.58831e-21)
(-0.000256739 1.42712e-05 1.5855e-21)
(0.0638136 0.0135139 0)
(0.0308454 -0.126873 1.48706e-22)
(0.0407076 0.0454423 -1.2605e-20)
(-0.0790431 0.0284878 -4.95694e-23)
(-7.22389e-05 9.18926e-06 5.75369e-22)
(-0.000930469 0.000495134 0)
(-0.000379696 -9.48982e-05 4.1659e-21)
(-0.0176472 -0.0685515 0)
(-4.07119e-05 -4.37643e-05 3.65558e-22)
(-0.0147977 0.000948881 1.69143e-21)
(-4.65844e-05 -1.98436e-05 0)
(-4.78731e-06 -8.95435e-06 8.2963e-23)
(-1.22276e-05 -3.97451e-06 -6.45401e-23)
(-9.86654e-06 -7.42493e-06 0)
(0.0112453 -0.139713 6.96831e-21)
(0.0428474 0.0397745 -1.75472e-20)
(-0.0123469 -0.0157666 0)
(-0.0447808 -0.267848 -2.16411e-20)
(0.0905962 0.148857 -9.05596e-22)
(-0.000229695 0.000182734 1.79321e-21)
(-0.0867053 0.0708986 3.89466e-21)
(-0.000228212 0.000172707 0)
(1.0525e-05 5.51152e-05 -2.54208e-22)
(0.0351858 -0.00428955 -1.68238e-21)
(-0.194355 0.357185 -1.6037e-20)
(-0.0002863 7.2165e-05 0)
(0.00692699 0.00197619 -6.53303e-21)
(-0.000254925 -1.40553e-05 2.5438e-21)
(-2.00938e-05 3.24891e-05 0)
(-0.000312975 -3.45662e-06 -1.71918e-21)
(0.0389721 0.33852 0)
(-0.000235236 -1.30303e-05 0)
(-0.000104485 -1.3154e-05 -2.35226e-21)
(-7.01386e-05 1.18494e-05 1.81003e-21)
(0.178006 0.0442778 -1.03135e-20)
(-0.0253356 0.0573515 -1.58014e-21)
(0.18993 0.191908 4.37262e-21)
(0.00804069 0.000361188 6.58353e-21)
(-0.00028948 0.000135833 9.00863e-22)
(-3.92758e-05 -5.89394e-06 -1.39518e-21)
(-0.0447094 -0.177965 -2.308e-20)
(-0.0331626 -0.0248609 1.25738e-22)
(-0.000371005 -8.55703e-05 3.62445e-21)
(0.000108001 2.63635e-05 0)
(3.79963e-07 -1.3609e-05 -2.36628e-23)
(-9.74532e-05 -7.95426e-05 2.54412e-22)
(-0.00173495 -0.00736753 0)
(-8.77246e-05 -6.24798e-07 1.60695e-21)
(-0.00156839 0.00736544 5.98375e-21)
(-0.00504646 0.0356144 1.41432e-20)
(-7.60096e-05 -8.44945e-05 -1.7232e-21)
(-0.0241503 -0.170677 -1.36209e-20)
(-4.4426e-05 -0.00130744 -1.04532e-21)
(0.0129866 0.0202776 -2.01569e-21)
(-0.000248628 -0.000402146 6.08338e-21)
(9.40945e-05 4.64514e-05 1.19264e-22)
(-0.00167253 -5.34036e-05 -6.84573e-22)
(-7.91668e-05 -8.94979e-05 2.27669e-21)
(-0.000184931 -0.000156581 -3.45796e-21)
(-0.0342313 -0.0300016 -1.07778e-21)
(-0.00284813 -0.0101608 -2.62341e-21)
(0.0477612 0.0744722 5.23609e-22)
(-0.000943857 0.00128761 2.54452e-21)
(0.0262299 -0.00529083 1.12402e-20)
(-0.000929448 0.00140408 2.59034e-21)
(-0.030499 -0.0389301 2.12532e-22)
(-0.0300911 -0.0415467 8.99004e-20)
(-3.70112e-05 -2.75602e-05 0)
(-8.91698e-05 -8.33365e-05 2.04735e-21)
(-1.06539e-05 -0.00110878 0)
(-0.0797146 -0.140441 1.00085e-20)
(-0.000164113 -0.000174594 5.5967e-21)
(-0.00507501 0.000774635 -7.75123e-21)
(-8.73154e-05 -8.79632e-05 -4.637e-21)
(0.034763 0.00498573 0)
(0.0309678 0.0330193 1.52167e-20)
(-7.11516e-05 -2.17717e-06 1.73091e-21)
(0.091117 0.108671 -2.35503e-20)
(-0.000918933 0.000483735 -5.68418e-22)
(-0.0199098 -0.051611 0)
(0.00724591 -0.0912904 -1.0733e-20)
(-0.00454113 0.00515288 0)
(-6.89047e-05 1.58102e-05 -6.52185e-22)
(0.00015134 0.00228901 0)
(-0.000213081 -0.000138784 0)
(0.011119 0.0203119 0)
(0.011416 -0.00502223 6.23156e-21)
(-0.00125267 0.000366847 0)
(0.00960426 -0.0794075 -1.21169e-20)
(0.00770611 0.000530911 0)
(-0.0017246 0.0012857 0)
(-0.0396593 0.0337074 5.44547e-22)
(-0.00223662 0.00153064 -5.70793e-21)
(0.0130879 -0.00213074 0)
(-0.000189378 7.28172e-05 0)
(-0.00412238 -0.0206538 2.25274e-22)
(-0.0191072 -0.0585684 -2.37735e-20)
(-0.00480858 0.112448 1.40598e-20)
(0.000151279 -0.000198476 -4.88845e-21)
(0.000443813 0.00164405 0)
(0.0722016 0.0328163 -3.31947e-20)
(-0.000329564 -4.24779e-05 2.938e-21)
(-0.000246721 4.90094e-06 0)
(0.00105311 -0.00185744 -1.14737e-20)
(-0.000345338 -8.35969e-05 -9.31705e-21)
(-0.0212977 -0.0973911 5.80221e-20)
(0.0102088 -0.00754144 -2.25865e-21)
(0.070995 0.0829372 3.97543e-20)
(-0.028649 0.0638778 3.32814e-21)
(-0.0523082 0.0634784 8.67016e-21)
(-9.73701e-05 -8.06587e-05 0)
(-0.0307179 -0.012246 4.52716e-21)
(-0.000188742 -0.000159958 3.6997e-21)
(-0.000180658 0.00012332 0)
(2.18505e-05 7.34678e-05 0)
(0.0031401 0.117931 0)
(-0.000255665 -6.23309e-05 0)
(-0.00024133 -8.17238e-05 2.14144e-21)
(-0.00026828 9.35092e-07 0)
(-0.000150543 -9.63669e-06 3.80862e-21)
(-0.00476282 -0.0130311 1.43276e-20)
(-0.00218836 0.000510073 5.31235e-21)
(-0.0135944 -0.0124438 -1.51524e-21)
(-7.01411e-05 1.37354e-05 -6.14301e-22)
(-2.59691e-05 7.76361e-06 4.81796e-22)
(9.99919e-06 -5.07063e-06 0)
(0.0173008 0.0933157 2.62112e-20)
(-0.00160079 -0.14384 0)
(-0.00019327 0.000156482 -8.02981e-22)
(3.98441e-06 -1.12291e-06 3.36285e-23)
(-0.0367485 0.0840703 0)
(-0.0354358 -0.00999581 -2.69233e-21)
(-0.0190225 -0.124593 0)
(-0.00333287 0.00943966 2.92266e-21)
(-0.173032 0.314932 -6.99385e-21)
(-0.000619154 -0.000570385 0)
(0.0121295 -0.104906 -5.3041e-21)
(0.055233 -0.25523 0)
(-0.000153636 -7.8122e-06 -5.4983e-21)
(-6.54362e-06 -8.39489e-06 0)
(0.0516786 0.074411 3.96072e-20)
(0.00428709 -0.0214856 -3.64082e-21)
(-3.12831e-05 -2.92477e-05 0)
(0.132364 0.0289536 -1.40119e-21)
(0.219484 0.149416 0)
(0.010426 -0.0296597 0)
(-0.00231702 0.00030785 -1.26577e-20)
(-0.0040057 -0.000176793 5.68012e-21)
(-0.000239959 -7.27458e-05 0)
(-0.0476569 0.0138344 -1.44857e-20)
(0.0344884 0.0768631 1.16416e-21)
(4.70265e-05 0.0522217 0)
(-0.000116974 -0.000188851 6.38053e-21)
(0.0142546 -0.0186147 -1.57058e-20)
(-0.027281 0.0630738 2.33779e-21)
(4.0892e-06 -1.47731e-05 0)
(0.171179 0.0610206 -3.22911e-20)
(0.000242569 0.00157412 -7.25235e-21)
(-6.37321e-05 2.56714e-05 -2.7245e-21)
(-0.0970698 0.306193 -6.07465e-21)
(-0.000121498 3.75046e-05 -6.77771e-22)
(0.0520875 0.0598625 1.30235e-20)
(-0.000350579 -9.83667e-05 0)
(-0.000252008 -2.85042e-05 4.12842e-21)
(-0.000262499 -8.88329e-05 -1.83776e-21)
(-0.00023653 -8.70697e-06 -3.98999e-22)
(0.0619541 0.0259963 -3.12913e-20)
(-0.0125422 0.10227 0)
(-0.000448871 0.000570568 -3.63181e-21)
(0.0220808 -0.134192 0)
(-6.76735e-05 -0.000120714 0)
(5.71485e-05 5.43753e-05 -8.62938e-22)
(-0.000882476 0.000464378 -6.24026e-21)
(0.0135078 -0.024246 0)
(-0.000204058 0.000190209 -1.90554e-21)
(0.00626329 0.0683868 0)
(0.0242879 -0.130498 1.07302e-21)
(-0.000153526 1.53892e-05 0)
(-0.000256143 -2.52602e-05 5.36282e-22)
(-0.000160178 -0.0001463 3.1572e-21)
(0.130714 -0.0615603 2.23354e-20)
(-0.012887 -0.0122428 -1.10236e-20)
(0.012809 -0.0144555 -4.29447e-22)
(-0.0118065 0.117408 3.65259e-20)
(-0.00083089 0.000272045 -2.66141e-21)
(-0.00221333 0.000449772 7.39364e-21)
(0.0042728 0.0925297 -1.73649e-20)
(0.0757648 0.0719005 0)
(-0.00116553 -0.00236283 0)
(-0.0171299 -0.112539 0)
(-0.0118735 -0.0127123 1.21297e-20)
(0.00105825 -0.00033235 0)
(0.00420795 0.00437981 -1.26527e-20)
(-0.00251201 0.000484523 -7.27908e-21)
(1.1032e-06 -1.05538e-06 -2.47548e-22)
(-0.0191755 0.00408351 3.85636e-20)
(-0.0010883 0.000417163 0)
(0.000980922 -0.000209232 8.40926e-22)
(-0.000156744 -1.76945e-05 -2.26559e-21)
(-0.036993 -0.153281 -5.65715e-21)
(-0.056538 -0.114303 4.51822e-21)
(0.144821 0.015467 -1.83054e-20)
(0.167895 0.0253887 2.41162e-20)
(-0.00588239 0.00135346 8.74017e-21)
(0.039542 0.00331858 0)
(-6.98236e-06 -7.16908e-06 -2.04584e-22)
(-0.022707 -0.0214679 -1.2036e-20)
(0.00302895 -0.0161114 4.02269e-21)
(-0.0139152 -0.00548618 -3.93304e-20)
(-0.000140142 -8.98543e-07 -2.3861e-23)
(-7.80587e-05 -0.000119077 -2.82837e-21)
(0.0423712 -0.0191513 7.28678e-22)
(0.00357407 -0.0332233 -6.93456e-21)
(-0.0034999 0.00115793 -1.36804e-21)
(0.00459223 0.00379824 0)
(0.0410817 0.0803525 0)
(-0.00057498 -0.000418018 0)
(0.0927742 0.0703523 6.17211e-20)
(-2.87972e-05 -3.94399e-05 0)
(-0.00620622 -0.105092 1.5975e-20)
(-0.0357517 0.0664172 1.3117e-20)
(-2.23441e-05 -3.95018e-05 6.98196e-23)
(0.00092705 0.00230301 -4.36292e-21)
(-0.00516419 -0.000516459 -5.11778e-21)
(-0.000326748 0.000234845 0)
(-0.000214211 -0.000116709 0)
(0.00028559 2.67709e-05 0)
(-6.374e-05 -5.37848e-05 0)
(-5.69829e-05 4.42721e-05 0)
(-0.022548 -0.0868982 1.2398e-20)
(-5.20941e-06 1.44303e-05 -2.41969e-22)
(-6.27661e-05 -1.73502e-05 -4.25177e-22)
(-7.30737e-06 -7.91499e-06 2.31631e-22)
(0.0100166 -0.00117053 -3.02007e-21)
(-0.267276 0.545638 -7.45732e-20)
(-0.000133966 -0.000325732 3.06517e-21)
(-3.57789e-07 -6.74076e-06 0)
(-0.000568098 -0.000487423 -1.47791e-21)
(-7.69572e-05 -0.000119015 0)
(0.0306955 -0.11779 0)
(-0.0317514 0.0131167 0)
(-0.0373859 0.0334057 4.37699e-21)
(-7.07235e-06 4.43486e-05 -2.372e-22)
(-0.000933771 0.000412043 6.90726e-21)
(0.0193383 -0.0941875 5.02346e-21)
(-0.000146023 -5.86667e-05 1.43032e-21)
(-0.00757117 -0.00194766 2.21591e-21)
(-0.000171943 -0.000164821 3.97984e-21)
(-0.000227947 0.000176803 -1.97627e-21)
(0.00110037 -0.00205937 -5.42778e-21)
(-7.35374e-05 -8.02454e-06 1.12411e-21)
(-0.00283571 0.000607608 3.65246e-21)
(0.0393774 0.0703185 0)
(0.00287843 0.0121224 2.63547e-21)
(-2.67578e-05 -6.19202e-05 -2.39305e-22)
(-7.60136e-05 -0.000111169 2.65507e-21)
(-0.000411345 9.61844e-05 -1.83262e-21)
(0.00137437 -0.00250856 5.46503e-21)
(-0.0191548 0.020397 0)
(-0.00457558 0.028923 3.58671e-21)
(-0.000210559 -9.35477e-05 4.02847e-21)
(-6.94927e-05 -6.20281e-05 0)
(7.80326e-06 -2.52016e-06 -5.45675e-22)
(-0.00090438 0.000472426 0)
(-0.00176557 -0.00173315 0)
(-0.000647781 0.000476746 2.38566e-21)
(-0.00110437 0.000466326 3.46186e-21)
(-0.0152424 0.0546899 0)
(-0.000218267 -3.22438e-05 -2.86986e-21)
(-0.000660808 0.000255011 0)
(0.0770095 0.066541 -1.44357e-20)
(-0.254442 0.469116 6.52683e-20)
(0.279155 0.0479896 -1.09138e-20)
(0.123153 0.0493112 0)
(-0.197387 0.403285 1.56454e-20)
(-0.000199684 0.000183809 0)
(0.041052 -0.0214995 0)
(2.11064e-05 6.78028e-05 0)
(-2.7231e-05 6.22666e-06 5.21141e-22)
(-0.000348191 -7.96521e-05 3.16205e-21)
(-5.61008e-05 4.79027e-05 -8.78116e-22)
(-0.00184552 0.00392883 0)
(-0.000145811 -8.57997e-07 -3.64225e-23)
(-0.0135531 -0.186963 -2.61069e-21)
(-0.000254161 -1.10159e-05 1.14634e-21)
(-0.00622976 -0.000602265 1.28615e-21)
(1.86573e-05 -1.91445e-06 3.80798e-22)
(-0.000382781 -2.85242e-06 -1.70391e-21)
(-0.00461164 0.00769782 0)
(0.000276875 0.00187376 1.47803e-20)
(0.148669 0.0058039 2.10572e-20)
(0.110663 -0.0536419 1.33136e-20)
(0.00235079 0.00346454 2.07036e-21)
(-0.000218447 -0.000136736 0)
(-0.000553321 -0.000806327 3.15059e-22)
(0.203975 0.0227938 1.13744e-21)
(-0.000207266 -0.000136959 2.13529e-21)