/*--------------------------------*- C++ -*----------------------------------*\
| =========                 |                                                 |
| \\      /  F ield         | OpenFOAM: The Open Source CFD Toolbox           |
|  \\    /   O peration     | Version:  v2012                                 |
|   \\  /    A nd           | Website:  www.openfoam.com                      |
|    \\/     M anipulation  |                                                 |
\*---------------------------------------------------------------------------*/
FoamFile
{
    version     2.0;
    format      ascii;
    class       volScalarField;
    location    "250";
    object      k_0;
}
// * * * * * * * * * * * * * * * * * * * * * * * * * * * * * * * * * * * * * //

dimensions      [0 2 -2 0 0 0 0];


internalField   nonuniform List<scalar> 
18598
(
0.00818246
0.00029535
0.000166807
0.000242984
0.00022027
0.000161897
0.00428581
0.000147304
0.000140758
0.000208131
0.000131192
0.000221205
0.000150478
0.0381477
0.00116612
0.000206891
0.00016622
0.0054236
0.00529884
0.00494301
0.0059971
0.000140856
0.000190567
0.000137178
0.00014281
0.00561543
0.000135308
0.0458712
0.000146879
0.000135543
0.00207393
0.000140612
0.000297773
0.000131267
0.00356938
0.000137985
0.000167427
0.00014261
0.000170267
0.00340794
0.0464765
0.000136196
0.000142885
0.000169323
0.000137044
0.0498991
0.000143528
0.00361005
0.000171153
0.000147286
0.000214872
0.000147828
0.000150766
0.000224571
0.000151464
0.000137681
0.00233315
0.0398391
0.0422721
0.00242861
0.000151179
0.000149542
0.000149703
0.000250452
0.000171966
0.000153205
0.000164635
0.000152551
0.000151282
0.000283717
0.000154091
0.000141724
0.000150186
0.000147149
0.000151356
0.000143275
0.000150771
0.000149397
0.000149723
0.000161586
0.000147096
0.000147658
0.000146992
0.000150521
0.000144524
0.000150167
0.000142699
0.00644871
0.00182425
0.0685019
0.000167632
0.000155031
0.00014223
0.000152849
0.000146769
0.000151732
0.000169326
0.000200126
0.00020559
0.000163998
0.00216652
0.00237624
0.00035825
0.00657823
0.000586477
0.000195247
0.000210392
0.00021276
0.000131576
0.0306109
0.000193757
0.000146503
0.000191276
0.000318872
0.000140781
0.00492529
0.000159629
0.000146687
0.000187873
0.000142338
0.00448337
0.000148963
0.00343803
0.000142608
0.000141782
0.0201481
0.00996362
0.000142448
0.00013605
0.0418084
0.000146997
0.000587338
0.000263144
0.00016255
0.000168783
0.000202127
0.000135241
0.000136293
0.000136505
0.03057
0.000154329
0.000136439
0.000162354
0.000612946
0.000189501
0.000141767
0.000549502
0.000149248
0.00330436
0.000136143
0.000140668
0.0624313
0.000156306
0.000164079
0.000150106
0.00015284
0.000155158
0.000710214
0.000146366
0.00014455
0.00019849
7.20541e-05
0.000207868
0.000153577
0.0340534
0.000512939
0.000203648
0.00014871
0.000146661
0.000146801
0.000160373
0.000256928
0.00322583
0.000295711
0.00341193
0.00616948
0.000197751
0.00561002
0.000142372
0.00014241
0.0267984
0.000130565
0.000158637
0.00466999
0.000144516
0.000154163
0.0286974
0.000151097
0.000182215
0.000623135
0.000189432
0.000160286
0.000142437
0.00257427
0.000206847
0.000200109
0.000140364
0.000223487
0.00013707
0.00502132
0.00018268
0.000157068
0.000166732
0.000232621
0.000223584
0.000148893
0.00014077
0.000166182
0.000165588
0.00831258
0.000149107
0.000131194
0.000151635
0.000194005
0.00108545
0.000162924
0.0604177
0.00544656
0.000187404
0.000143122
0.00593539
0.000207287
0.0706132
0.000140278
0.000151072
0.000207709
0.000169222
0.0743048
0.000164926
0.000137342
0.000186801
0.0568901
0.000149397
0.000201053
0.000135853
0.000149283
0.000141367
0.000248333
0.000131067
0.000232195
0.000140504
0.000144402
0.000182069
0.000158784
0.000144451
0.000151063
0.000150896
0.00015315
0.000145567
0.000130648
0.0397803
0.000150737
0.00678103
0.000170927
0.000142063
0.000150559
0.000141121
0.00532583
0.000140855
0.079663
0.000136545
0.000145977
0.000389486
0.00014946
0.000141065
0.00426746
0.000138541
0.000142078
0.00013713
0.00431595
0.000137833
0.000153465
0.0315909
0.000137677
0.000162667
0.0422594
0.000145894
0.00636022
0.00276506
0.000293002
0.000210547
0.000312693
0.000149475
0.00024318
0.0061263
0.000248666
0.00252862
0.000147583
0.011844
0.00174041
0.000137134
0.00402622
0.000131255
0.000188201
0.0439754
0.000159486
0.0102848
0.000194846
0.000130671
0.00613794
0.000144407
0.000153669
0.0538094
0.000165329
0.000137201
0.0108712
0.000144843
0.000145073
0.000150711
0.00013704
0.000152663
0.000141092
0.000449619
0.000136621
0.000150857
0.0113631
0.00016602
0.000146697
0.0024292
0.000141125
0.000190338
0.000147879
0.00013311
0.000142279
0.00519735
0.00629834
0.000166462
0.000245695
0.000150437
0.00384915
0.000131635
0.0743879
0.000148759
0.0411993
0.00013702
0.0797238
0.000143034
0.00016478
0.00119369
0.000137279
0.000170866
0.000133457
0.00140745
0.000152866
0.000159105
0.000148086
0.000148179
0.00219499
0.000797064
0.00773379
0.000159176
0.000195779
0.000150341
0.036705
0.000164913
0.000154248
0.0422842
0.00694128
0.000233089
0.000160243
0.000192629
0.00260975
0.000158443
0.000153974
0.021524
0.000146437
0.00230857
0.000142968
0.0418042
0.000142293
0.000151565
0.000161088
0.000140334
0.000143506
0.0012232
0.000140805
0.000153435
0.000142908
0.00014439
0.000158979
0.000153716
0.000342482
0.000221543
0.000144644
0.000164054
0.000210014
0.000150934
0.000154404
0.000252338
0.000156134
0.000142847
0.0316472
0.000156707
0.000151262
0.000284654
0.000149029
0.000138309
0.00275087
0.000228272
0.000136958
0.000148906
0.000142656
0.000141624
0.000159947
0.000206579
0.00458411
0.000142474
0.000661582
0.000148123
0.0337536
0.000223207
0.000141738
0.0352418
0.0230127
0.00351137
0.000155021
0.00401375
0.000181214
0.00340703
0.000256428
0.000131508
0.000148929
0.000142397
0.000137345
0.00495428
0.000272358
0.00406947
0.000143781
0.000148733
0.000151332
0.000146084
0.00015039
0.00014076
0.000152156
0.000147765
0.000154589
0.000140419
0.000136871
0.000138236
0.000147797
0.000152185
0.000134779
0.00457672
0.000222461
0.000151562
0.000159687
0.000145643
0.000144927
0.000208198
0.0382692
0.000142936
0.000134185
0.000147661
0.0391266
0.000145774
0.000143727
0.000150169
0.000140739
0.000154274
0.000143112
0.0104052
0.000143767
0.000137225
0.000138263
0.000134943
0.000137089
0.000154078
0.0240834
0.000144423
0.000130465
0.000140135
0.000143331
0.000133708
0.00016536
0.000291278
0.000145657
0.000158471
0.000146207
0.000150202
0.000148169
0.000187344
0.000152903
0.00016081
0.000142817
0.000140366
0.000174823
0.000187529
0.000138997
0.000220245
0.000283559
0.00432871
0.0790849
0.000182975
0.000137156
0.0776182
0.000217684
0.000137
0.000162302
0.00244836
0.000185316
0.0333011
0.000248282
0.00015015
0.0475081
0.000147577
0.000149871
0.000136792
0.000137236
0.0453587
0.000155165
0.00477391
0.000163685
0.000143879
0.0380666
0.00342695
0.000451238
0.0336794
0.0199993
0.000136778
0.000137892
0.00163394
0.000167256
0.00103063
0.000845074
0.000156816
0.000147255
0.00245871
0.000313203
0.000183602
0.000147817
0.000148462
0.000133323
0.0001406
0.000148992
0.000149322
0.00013474
0.00336034
0.000144665
0.000139543
0.00423698
0.000195632
0.000351476
0.00014923
0.00019269
0.00341312
0.000165761
0.00015237
0.000319519
0.0395212
0.0287123
0.00251577
0.000136618
0.000150465
0.000146415
0.00019987
0.000134732
0.000177482
0.000139459
0.000133297
0.000130932
0.000131888
0.0389404
0.00171673
0.000171893
0.0111908
0.00708455
0.000144554
0.000233205
0.000144477
0.000135524
0.000200185
0.0176635
0.000143066
0.000168414
0.00014188
0.00013561
0.000143086
0.0391683
0.000154191
0.000151816
0.000136498
0.0339874
0.00552666
0.0768082
0.000171623
0.000143932
0.000147775
0.0072833
0.00364821
0.000146289
0.000141857
0.000133947
0.000138584
0.000163725
0.000150738
0.000166788
0.00019603
0.000138512
0.00699377
0.000144272
0.000202708
0.000148457
0.000141609
0.000148275
0.000138472
0.000141851
0.00296623
0.000205426
0.000296668
0.000150028
0.000191875
0.00014952
0.00257027
0.00331752
0.000134675
0.000138521
0.000144306
0.035609
0.000146977
0.000158931
0.000138555
0.000271452
0.00105716
0.000139793
0.00230438
0.000145218
0.0084147
0.0406863
0.000164648
0.000136921
0.000156523
0.000144145
0.000202216
0.00018365
0.000151352
0.00310444
0.000171132
0.000153987
0.00314426
0.000161636
0.000183058
0.000143941
0.00180055
0.000196412
0.00554192
0.000144743
0.000156888
0.000305758
0.000145097
0.000141222
0.000158423
0.00014595
0.00745128
0.000194468
0.000129632
0.00428622
0.0126973
0.000138613
0.00170552
0.000142218
0.000143857
0.000135418
0.00483329
0.000142613
0.000141041
0.000156411
0.000144697
0.00486194
0.000154312
0.000170696
0.000136839
0.000135427
0.00013969
0.00605161
0.00652745
0.000144185
0.000144084
0.0142263
0.00218781
0.00260143
0.000162513
0.016179
0.000151101
0.00648938
0.0274419
0.000146871
0.000131854
0.0388823
0.000234111
0.000131882
0.0395348
0.0756161
0.00141501
0.000154713
0.000158441
0.000140996
0.000189243
0.00491039
0.0205956
0.00014695
0.00018462
0.0026731
0.000134926
0.0170578
0.000151188
0.000137313
0.0166758
0.00014401
0.0245665
0.00014564
0.000141667
0.000142566
0.000158331
0.000922677
0.0637946
0.000148509
0.0389383
0.000140447
0.000141219
0.000150559
0.000184436
0.000144364
0.0037813
0.0388597
0.000150177
0.00014248
0.000145701
0.0234938
0.000171243
0.00293064
0.00428916
0.000150655
0.000154616
0.0350767
0.0231752
0.000152893
0.00339548
0.00017136
0.000143246
0.00016463
0.000154988
0.000144962
0.000182864
0.000150764
0.000143189
0.000152704
0.00734853
0.00537136
0.00187907
0.0139788
0.000161615
0.000272086
0.000139025
0.00469531
0.0033675
0.000169042
0.000152998
0.000140124
0.000217462
0.0028697
0.000158889
0.000164551
0.00448067
0.000149096
0.037035
0.000134116
0.0040479
0.000184383
0.000133811
0.000150594
0.000159025
0.000145113
0.000142255
0.000145068
0.000138971
0.000138161
0.00585543
0.000135055
0.00014167
0.0001402
0.0003987
0.0250532
0.00014801
0.000141561
0.000150116
0.000139961
0.0392434
0.000181776
0.000305744
0.000131445
0.000150622
0.00614959
0.00014012
0.000163564
0.000145174
0.000144667
0.000157787
0.000145215
0.000155539
0.00111096
0.000234931
0.000134029
0.000140002
0.00014784
0.000157744
0.00211503
0.000192673
0.000142187
0.000139128
0.000135337
0.000150836
0.0001525
0.000149088
0.000150808
0.00155291
0.000145379
0.000149257
0.022448
0.0262786
0.049965
0.00118786
0.0195522
0.000144443
0.000212313
0.00013567
0.000137887
0.000146089
0.000138246
0.000155876
0.000134685
0.0150415
0.00015095
0.000168866
0.000133149
0.00014623
0.000168054
0.000156905
0.000990009
0.000446005
0.000189389
0.000143125
0.00014053
0.0141583
0.000140909
0.00381634
0.000134206
0.000211601
0.00122555
0.00016775
0.000164965
0.0110341
0.00724312
0.000157029
0.00462858
0.000194952
0.0341273
0.0334167
0.000151865
0.00768746
0.000144265
0.00014033
0.000145292
0.000141374
0.000139643
0.000134756
0.000555981
0.000145521
0.00015927
0.000139838
0.00320511
0.000144735
0.00272652
0.000154535
0.000153922
0.000144473
0.00014987
0.000143022
0.000131977
0.000145926
0.000142601
0.000162474
0.000139436
0.00020619
0.0226654
0.000143691
0.00191562
0.000163621
0.000132285
0.00120217
0.000159777
0.000142472
0.00266884
0.00346703
0.000186237
0.0550633
0.00014008
0.000213089
0.000141134
0.000145068
0.000150942
0.000143186
0.000152732
0.000149037
0.00019901
0.000151051
0.000142983
0.000180391
0.000150274
0.000144925
0.000210901
0.0164246
0.000136911
0.000151637
0.000189375
0.000181772
0.000144944
0.000146851
0.00018674
0.00014229
0.00116418
0.000158982
0.0286245
0.000144354
0.000142493
0.000149875
0.000155214
0.000137258
0.000184471
0.000458941
0.00168766
0.000137426
0.00388336
0.00136153
0.000141065
0.000143925
0.000140846
0.000142368
0.00159708
0.000152532
0.00648636
0.000266791
0.000151463
0.000302432
0.00247484
0.000145893
0.000152299
0.0472392
0.00741324
0.000195815
0.00308685
0.000155426
0.000839273
0.000142155
0.000136501
0.000533154
0.00014065
0.0030445
0.0174361
0.000143847
0.000134086
0.000204756
0.00013984
0.00248569
0.0524348
0.00600016
0.000187424
0.000150768
0.0447489
0.00038432
0.00818444
0.000150752
0.000855161
0.0308871
0.000151319
0.0337001
0.000149496
0.000186582
0.000141912
0.000169914
0.000140156
0.000206433
0.000161062
0.0271897
6.72064e-05
0.000141376
0.000135052
0.00013392
0.000150169
0.00759321
0.00744062
0.00694465
0.000162412
0.00858684
0.000182558
0.000163352
0.000190427
0.000162046
0.00013326
0.00014813
0.00016285
0.000144372
0.000148044
0.00015526
0.000241425
0.000133806
0.000153729
0.00410927
0.0395476
0.0052368
0.000193543
0.0427825
0.000200479
0.000191217
0.000151135
0.00758976
0.000159149
0.000160998
0.000196468
0.00328086
0.00444144
0.000126859
0.0466564
0.000159844
0.043658
0.00014295
0.000195762
0.000186601
0.000136592
0.000148279
0.000134385
0.000141181
0.0356421
0.000143587
0.000239234
0.000152198
0.000150669
0.000145159
0.000139684
0.000235113
0.000131642
0.000513881
0.000151324
0.000145083
0.000131266
0.00761322
0.000143001
0.00633858
0.000139084
0.000215554
0.000137116
0.00327253
0.000170128
0.000141956
0.000198605
0.000159378
0.00589508
0.000202027
0.000146177
0.00020496
0.0397813
0.000174212
0.000233108
0.000266087
0.000141477
0.000217568
0.000149534
0.000168621
0.000157027
0.00140665
0.0147094
0.000182071
0.0362134
0.000137874
0.000152162
0.000587878
0.000147901
0.00340691
0.000438966
0.000249949
0.000193574
0.000143029
0.000153916
0.0482674
0.000139937
0.000144261
0.000172017
0.00014243
0.000137815
0.000146216
0.000151107
0.000140028
0.00355649
0.000153604
0.00402145
0.000142781
0.00746015
0.000151376
0.000225028
0.000149648
0.00556707
0.0561669
0.000137476
0.000190205
0.006723
0.000145436
0.0070705
0.000136812
0.000139404
0.000147771
0.000183585
0.000162787
0.000157304
0.000150075
0.0469387
0.000141249
0.000210951
0.00886596
0.000143119
0.000148701
0.000141852
0.00692748
0.000280902
0.000145179
0.0368082
0.000197249
0.000213461
0.000136774
0.00382651
0.000149831
0.00015094
0.000144337
0.00950143
0.000161676
0.000151616
0.000134853
0.000145341
0.000155934
0.000148651
0.0112102
0.000135657
0.000146475
0.000149337
0.00571692
0.00387469
0.000167312
0.000144699
0.000197534
0.000134454
0.000145344
0.000135109
0.000150152
0.00595685
0.000145493
0.000135727
0.000159928
0.000150337
0.000148642
0.000138769
0.000138718
0.000141595
0.000134658
0.00464469
0.00522843
0.000150392
0.000141732
0.000155339
0.00251143
0.000194866
0.000135293
0.000146421
0.000198749
0.000196419
0.00658602
0.000151353
0.000202533
0.000212686
0.00675295
0.000136237
0.00317249
0.000140031
6.1636e-05
0.000134275
0.000147317
0.000257058
0.000143884
0.00666969
0.0170184
0.000145671
0.000141528
0.000151575
0.000134879
0.0559635
0.000141589
0.000150252
0.00113119
0.000211753
0.000138735
0.0458853
0.000168313
0.000157081
0.000151225
0.000139351
0.000226754
0.000142583
0.000155612
0.00120598
0.0151049
0.000149546
0.00753037
0.00955186
0.000212181
0.000148134
0.000144188
0.000214628
0.000158364
0.0471855
0.0469298
0.0110189
0.000145797
0.000176737
0.000143714
0.00268914
0.0052009
0.000143809
0.000185626
0.000157728
0.000165538
0.000140637
0.000193948
0.000159034
0.000150249
0.00493746
0.000134221
0.000143198
0.0285772
0.00015192
0.000147332
0.000147282
0.000143994
0.0407863
0.000141498
0.000145263
0.000142457
0.000148593
0.000150497
0.000151685
0.000181136
0.0751747
0.00015915
0.000150704
0.000262726
0.000221133
0.000143662
0.0466797
0.00766282
0.0454253
0.00013733
7.7798e-05
0.000148618
0.000135488
0.000153995
0.00017226
0.000193839
0.000163099
0.000587877
0.000156058
0.000150664
0.00627094
0.00428531
0.000145557
0.000132539
0.070442
0.000153251
0.01058
0.000143612
0.00013453
0.000139933
0.000137647
0.000152118
0.000155767
0.000153636
0.000135914
0.000142204
0.000146047
0.0056543
0.000143627
0.00161548
0.041253
0.00427629
0.000150908
0.00446487
0.000172433
0.00523465
0.012329
0.000147242
0.000184782
0.000173115
0.000148263
0.000719861
0.00365176
0.000143904
0.000160658
0.000145365
0.000181803
0.000244779
0.000943775
0.00019306
0.000141191
0.0461433
0.00014019
0.000150621
0.000173001
0.00950887
0.000145558
0.000151274
0.000149215
0.000224114
0.00816815
0.000171266
0.000148071
0.061159
0.000143612
0.000148254
0.000136902
0.000194656
0.000145443
0.000578695
0.000132627
0.0114078
0.000250148
0.000206493
0.000158983
0.00408724
0.000194933
0.000136527
0.000140253
0.0150804
0.000173458
0.000148211
0.000159472
0.000137505
0.000184789
0.0001367
0.00014998
0.000139202
0.000242365
0.000142982
0.00560144
0.00017882
0.000137364
0.000143675
0.000163265
0.000147303
0.00570403
0.00516716
0.0199329
0.00801113
0.000141771
0.000217215
0.0108058
0.000133747
0.000169326
0.00124995
0.00013741
0.00015457
0.000181511
0.00039684
0.000236818
0.000178908
0.000148827
0.037264
0.000141625
0.000141293
0.0484101
0.00388667
0.000151288
0.000146637
0.000337184
0.000139002
0.000189469
0.000152428
0.000187216
0.000133917
0.000142977
0.000148678
0.0206903
0.000151846
0.032646
0.00020118
0.0128977
0.000144247
0.000132899
0.0123428
0.00528072
0.000187112
0.000357997
0.00347277
0.000150509
0.000746371
0.000209622
0.00015104
0.00429275
0.000136241
0.00481598
0.000182471
0.000140631
0.000143596
0.000192823
0.026944
0.000149057
0.000190325
0.00014823
0.0140435
0.000144013
0.000142031
0.000299163
0.000158857
0.000156152
0.000926031
0.00506945
0.000141731
0.000209105
0.000238671
0.000160906
0.0138535
0.0352901
0.000145991
0.000141537
0.00158326
0.000145474
0.0526415
0.000156589
0.00569067
0.000158889
0.000149638
0.000148608
0.000137387
0.000237716
0.0590108
0.0185297
0.000130936
0.000184057
0.000191567
0.0110172
0.000152794
0.000241187
0.000163046
0.000237772
0.00227593
0.00591367
0.000143023
0.00354588
0.046638
0.000140074
0.000158063
0.000232052
0.000133608
0.000137725
0.00717773
0.000130775
0.00675186
0.00156604
0.000133922
0.0048919
0.000140799
0.000337968
0.00362214
0.000134662
0.000139418
0.000134723
0.0036782
0.000145293
0.000137521
0.000304959
0.00681713
0.000509533
0.000453688
0.00021467
0.0568104
0.000141525
0.00791643
0.000142171
0.000193446
0.00702468
0.0556819
0.000730527
0.000170607
0.00157528
0.000153409
0.000160402
0.000172948
0.000140187
0.000603151
0.000151076
0.00372451
0.000138857
0.00456721
0.000137507
0.000145501
0.0345553
0.000232304
0.00181144
0.0454133
0.000149447
0.000138013
0.0164671
0.000136039
0.000159544
0.00390655
0.000157862
0.000148415
0.000138606
0.0271669
0.000146904
0.000159946
0.00367271
0.000181175
0.000130651
0.0548742
0.000148791
0.0477346
0.0134997
0.000148487
0.000143956
0.000144219
0.0140392
0.000423323
0.00021638
0.000158957
0.000150813
0.000144625
0.000185905
0.00224417
0.000145523
0.0265499
0.000144522
0.000149452
0.000154733
0.0339996
0.000171726
0.000259081
0.000200616
0.000208476
0.00778303
0.000143391
0.000140266
0.000138658
0.000211573
0.000148802
0.000143653
0.0331142
0.000145333
0.000143358
0.000143544
0.000138964
0.000133933
0.00876485
0.000131905
0.0393539
0.000141761
0.00272166
0.000139942
0.000153071
0.000149205
0.000158353
0.000140695
0.000141756
0.000151117
0.000151081
0.0128245
0.000167302
0.00020736
0.00114471
0.000156119
0.00013796
0.000257505
0.00308225
0.000133975
0.000142012
0.0179037
0.000202973
0.000137624
0.000205929
0.0041576
0.000172562
0.00025073
0.00724171
0.00070617
0.000146431
0.000142103
0.000137186
0.000199725
0.000143891
0.00014113
0.000137008
0.000135456
0.00555148
0.00014817
0.000159526
0.000155462
0.0462659
0.000143456
0.000157256
0.000182691
0.000131404
0.00014432
0.000180357
0.00074467
0.000167856
0.00341032
0.000160624
0.000131166
0.000143132
0.000138716
0.000149262
0.00481652
0.00144622
0.00015121
0.0175085
0.008693
0.000143127
0.000160601
0.000180084
0.00123164
0.000160033
0.000190166
0.000180641
0.000154045
0.000136325
0.000176596
0.00017216
0.000174377
0.000160933
0.000152023
0.00597499
0.00023804
0.00367216
0.000266645
0.0400497
0.000143087
0.00015571
0.0151119
0.00113327
0.000154529
0.000139755
0.0096249
0.0083377
0.00788321
0.000152149
0.000131431
0.000137551
0.000147617
0.000135901
0.000241501
0.0325726
0.000160589
0.00014256
0.000147829
0.0499858
0.000256457
0.000152883
0.00013851
0.0274949
0.00014056
0.000143286
0.0100082
0.00444329
0.0389391
0.00634656
0.0341703
0.000105141
0.000153584
0.000151245
0.000169945
0.0540512
0.00014845
0.00195242
0.00013769
0.000146695
0.0153208
0.000138678
0.00270427
0.000163889
0.0408746
0.00642091
0.000143571
0.000191984
0.000145616
0.0034863
0.000144762
0.000242273
0.000165409
0.00027768
0.00015182
0.000156943
0.0115122
0.000146424
0.000151569
0.0359703
0.000156422
0.000136988
0.000174235
0.00021184
0.000141264
0.000144646
0.000141722
0.0001323
0.000144214
0.000193068
0.000143625
0.023488
0.0156275
0.000177959
0.000145023
0.00365567
0.000144197
0.000137337
0.000145539
0.00014129
0.000134984
0.00451345
0.000210067
0.00746521
0.000158161
0.000206868
0.000132243
0.0428069
0.000190318
0.0331761
0.000189368
0.000138752
0.000149917
0.037911
0.000150673
0.000160928
0.000183522
0.00014005
0.00765851
0.000696794
0.0269552
0.000156449
0.000172527
0.0395509
0.00558204
0.000233357
0.000143405
0.000155642
0.000158035
0.0546671
0.000139839
0.000143466
0.000187426
0.0581839
0.000148575
0.000150309
0.000148197
0.000143441
0.000142244
0.00017335
0.000141206
0.000140019
0.000229861
0.0140955
0.000143022
0.000143551
0.000130531
0.000148449
0.0326973
0.00014753
0.000148755
0.00623948
0.00761255
0.00534439
0.000151481
0.047468
0.000145688
0.000158973
0.000150487
0.00023062
0.0165048
0.000146929
0.000138788
0.0398612
0.0604769
0.000178537
0.000250066
0.000150448
0.000155845
0.000148133
0.00587838
0.00485204
0.00017382
0.000151496
0.000221004
0.000164657
0.00478556
0.000147237
0.00167943
0.00164933
0.000134497
0.00013873
0.000147854
0.000194882
0.0160632
0.000180618
0.000152518
0.000241798
0.000145207
0.000146305
0.00340924
0.0122859
0.000182545
0.000155972
0.000142919
0.000163018
0.0344659
0.000143209
0.000147714
0.000153417
0.000138599
0.000148758
0.000193932
0.000150849
0.000167285
0.00908682
0.000139855
0.000178054
0.000287255
0.0001425
0.000198719
0.0572666
0.000149809
0.00228836
0.000142997
0.000159185
0.000145236
0.000142154
0.000156294
0.000159169
0.0001371
0.0086921
0.00300813
0.000696241
0.000151186
0.00688255
0.000145502
0.000158765
0.000906211
0.000135164
0.000188924
0.000156015
0.000848806
0.0145589
0.000143806
0.000190802
0.00015804
0.000156539
0.0375402
0.000147455
0.000131163
0.00707939
0.000181895
0.000159764
0.000147213
0.000224921
0.000140202
0.000145486
0.000175725
0.00188826
0.000305415
0.000152714
0.000615978
0.0081543
0.000180519
0.0074407
0.00358986
0.000136948
0.0064376
0.00014381
0.000146567
0.000160436
0.00012912
0.000145164
0.000133689
0.000176565
0.0184185
0.00015646
0.000161215
0.0136454
0.000150247
0.000143139
0.0427266
0.000147199
0.000169404
0.000150462
0.000159921
0.000151799
0.000211864
0.000166684
0.000145583
0.000147768
0.00388329
0.00161936
0.000146656
0.000714424
0.000151993
0.0170685
0.000141737
0.000136605
0.0129819
0.000201788
0.000177689
0.000136813
0.000139488
0.000143252
0.000141678
0.00528463
0.000146403
0.0537133
0.000162307
0.000171652
0.000147321
0.00757551
0.00446045
0.000158381
0.00140396
0.000143984
0.000147896
0.000159846
0.000164674
0.00475585
0.00559847
0.0001454
0.000172828
0.000157403
0.000145628
0.000150971
0.000188407
0.023745
0.000159293
0.000407575
0.000159714
0.00301357
0.0022531
0.000158233
0.000142525
0.000173937
0.00359823
0.000158569
0.000132496
0.000157175
0.00924967
0.0003645
0.000575746
0.000375778
0.000162868
0.000303914
0.000139381
0.000150125
0.000151879
0.0407544
0.000167625
0.000143051
0.000150035
0.000141129
0.000153471
0.00391277
0.000140562
0.0002354
0.000172338
0.000157582
0.00015717
0.00840384
0.000176252
0.000147475
0.000144057
0.00836905
0.000205595
0.00753176
0.000151761
0.000150932
0.000146298
0.0153418
0.000137205
0.000140685
0.000150062
0.0417426
0.00199787
0.000143341
0.0107422
0.000136876
0.00014491
0.000271548
0.0215871
0.000156417
0.00286626
0.000156477
0.0190163
0.000133456
0.000146235
0.00305022
0.0717279
0.000142652
0.00018818
0.000141428
0.000143279
0.000148214
0.000161711
0.000154898
0.0559319
0.00610101
0.00014639
0.000143092
0.000176961
0.00423981
0.000150713
0.000146562
0.000135875
0.00017613
0.000141625
0.00377179
0.000153263
0.000143074
0.000150506
0.000174964
0.000285357
0.0469562
0.00334059
0.0368799
0.000209019
0.00234141
0.0465427
0.000185037
0.000318045
0.000158377
0.000184342
0.000145072
0.000179996
0.000191264
0.000141478
0.00322645
0.00925737
0.00299667
0.0075945
0.000339155
0.000830464
0.000138561
0.000163902
0.000163222
0.000148337
0.00628457
0.000140483
0.0450527
0.0001501
0.000158986
0.000157184
0.00628979
0.000279133
0.00020531
0.000141397
0.00620463
0.000243908
0.00013676
0.000151594
0.000472911
0.000202377
0.000241907
0.00014558
0.00020809
0.0147591
0.000242584
0.00389947
0.00129078
0.00135294
0.00018623
0.00104919
0.000185012
0.000133714
0.000155836
0.000133599
0.000140344
0.00274131
0.000141754
0.000167997
0.000149806
0.00543008
0.00221004
0.000136538
0.000149734
0.00015464
0.00018708
0.00014802
0.000142067
0.000171619
0.00727341
0.0284854
0.000183968
0.000200567
0.000176091
0.00469025
0.000146493
0.000136728
0.000172918
0.000157288
0.00017354
0.000146548
0.000208121
0.000266729
0.000156693
0.000182037
0.000194102
0.000185836
0.0121099
0.000158799
0.00013844
0.000152964
0.000364174
0.000179014
0.000192909
0.0413768
0.000137743
0.00446528
0.000157616
0.0547869
0.00724541
0.000364226
0.000146893
0.000151792
0.000147962
0.000147773
0.000139016
0.000212158
0.000262503
0.000187672
0.00478998
0.000184067
0.000137277
0.000145949
0.000158503
0.000681443
0.00264459
0.0024888
0.000126805
0.00725548
0.00014354
0.000139626
0.000206662
8.15751e-05
0.00528017
0.000157407
0.000207522
0.000315275
0.000142082
0.0474998
0.0450682
0.0188145
0.0404583
0.000164042
0.000179822
0.000146329
0.000141247
0.000150711
0.000248629
0.0175321
0.000143684
0.00529585
0.000145971
0.000162146
0.00696697
0.000147104
0.000133952
0.000147311
0.000145749
0.0047341
0.000144905
0.000146414
0.000167174
0.000145896
0.000161291
0.00540318
0.0165982
0.00313766
0.0237061
0.000180909
0.000156294
0.0140358
0.00332616
0.000152424
0.0250053
0.000181545
0.00023482
0.000192684
0.0457069
0.000147152
0.03521
0.0053641
0.00317405
0.00822402
0.000210701
0.000144975
0.000142687
0.00019288
0.00014557
0.00014678
0.00016282
0.0346292
0.00710503
0.000145361
0.000149003
0.000131793
0.000153359
0.000178067
0.00554922
0.0752103
0.000149606
0.000185822
0.000310551
0.0409798
0.000147147
0.0125805
0.0116219
0.000196158
0.000248356
0.00632368
0.000136216
0.000163925
0.000139768
0.000142647
0.000150455
0.000135703
0.000138975
7.72767e-05
0.00537376
0.00729995
0.000181855
0.000184135
0.0459077
0.000136481
0.000433472
0.000149507
0.000155681
0.00567827
0.000149074
0.000144184
0.000434743
0.000150994
0.000150734
0.0552501
0.000140235
0.000173334
0.00381011
0.000148914
0.00499253
0.0361581
0.034845
0.000143128
0.000206016
0.000141576
0.000134431
0.000148051
0.00345164
0.000137983
0.000181564
0.000153032
0.000175424
0.0410142
0.000333633
0.000242497
0.000162474
0.000151232
0.000135734
0.000166907
0.000139014
0.000211067
0.000146045
0.0759856
0.00346971
0.0194572
0.000152007
0.000329595
0.014267
0.00189342
0.000195887
0.000148333
0.000146786
0.0032218
0.00864158
0.0680632
0.000144112
0.00015864
0.00125018
0.000144134
0.000135678
0.0001504
0.000146874
0.000139784
0.000148181
0.000159146
0.000139446
0.00127871
0.00171067
0.00377065
0.000155361
0.000179503
0.0123671
0.000180612
0.000291916
0.000145295
0.000317425
0.000131027
0.000150515
0.00015704
0.037772
0.000177285
0.0130374
0.0169093
0.000176812
0.00121319
0.000169312
0.000387067
0.000113689
0.000167723
0.000143622
0.0734837
0.0380416
0.000146614
0.0154794
0.000144953
0.0269842
0.000147146
0.000154645
0.0565952
0.0358927
0.000143413
0.00217601
0.00455745
0.00016663
0.0509931
0.000162684
0.0434009
0.000161456
0.000164394
0.000192163
0.00592206
0.00354989
0.000582636
0.000147096
0.000151084
0.0270904
0.000143521
0.000133089
0.0711006
0.000143832
0.000189529
0.00517352
0.000151383
0.000167955
0.0679979
0.00775374
0.00015202
0.000443029
0.000166813
0.00168543
1.12119e-05
0.000186531
0.000143698
0.000141781
0.000148177
0.000147592
0.00014332
0.000154778
0.000186343
0.000155918
0.000145901
0.000144208
0.000136348
0.000160934
0.0566482
0.000149936
0.000165982
0.0576432
0.0295895
0.00014611
0.000142565
0.000175004
0.000152672
0.000136807
0.000149946
0.000162265
0.0235139
0.0425212
0.000157003
0.000141869
0.000630803
0.000141143
0.000129093
0.00481767
0.000142033
0.000147606
0.000183778
0.000138578
0.0424903
0.000153452
0.00295395
0.000133563
0.000445448
0.00016833
0.0185826
0.000193734
0.000133363
0.000147239
0.000163381
0.00016727
0.000139926
0.00013337
0.000263838
0.000154296
0.000145818
0.00837035
0.000153725
0.0513535
0.00013136
0.000143936
0.000186953
0.000138854
0.000212436
0.0658689
0.0461467
0.00384296
0.00437528
0.000275111
0.000186215
0.00014771
0.000161577
0.000227724
0.000152921
0.0251955
0.0361989
0.000132787
0.000154991
0.000221227
0.00435212
0.000159691
0.000192974
0.000229806
0.000144836
0.0039042
0.000228637
0.00981963
0.000147755
0.013092
0.00015754
0.000139537
0.000143078
0.00279564
0.000144464
0.00279695
0.000181258
0.000165555
0.00779341
0.000153549
0.000145826
0.00015507
0.000140863
0.0358664
0.000149883
0.000163043
0.0297615
0.000148512
0.000145086
0.00958544
0.000136292
0.00287387
0.0405885
0.00422972
0.000175193
0.000161196
0.000177163
0.000139782
0.000147668
0.00357963
0.000138718
0.000192843
0.000151174
0.000143603
0.000136428
0.000187555
0.000151374
0.000247763
0.000147147
0.000145734
0.00393973
0.0511906
0.000216977
0.00136089
0.00013131
0.000143526
0.000180783
0.0567849
0.00450775
0.0531284
0.000163078
0.0272101
0.0011291
0.000199573
0.000155132
0.000175733
0.0325863
0.000312231
0.00023603
0.00449455
0.0434075
0.000196063
0.000153388
0.000144949
0.000143775
0.000140251
0.00735148
0.00014881
0.000185377
0.000142362
0.000212872
0.000144877
0.000182671
0.000144488
0.000143226
0.00319421
0.000136644
0.000188328
0.000178622
0.0656457