/*--------------------------------*- C++ -*----------------------------------*\
| =========                 |                                                 |
| \\      /  F ield         | OpenFOAM: The Open Source CFD Toolbox           |
|  \\    /   O peration     | Version:  v2012                                 |
|   \\  /    A nd           | Website:  www.openfoam.com                      |
|    \\/     M anipulation  |                                                 |
\*---------------------------------------------------------------------------*/
FoamFile
{
    version     2.0;
    format      ascii;
    class       surfaceScalarField;
    location    "150";
    object      phi_0;
}
// * * * * * * * * * * * * * * * * * * * * * * * * * * * * * * * * * * * * * //

dimensions      [0 3 -1 0 0 0 0];
oriented        oriented;


internalField   nonuniform List<scalar> 
27642
(
-0.142541
0.0265063
0.116035
-0.103356
0.0312231
0.0721331
0.344197
-0.376165
0.0319682
-0.0998829
-0.166424
0.266307
0.395505
-0.0513085
0.466612
-0.0314784
-0.435134
-0.0955986
0.182789
-0.0871905
-0.557429
0.557429
0.493755
-0.396463
-0.097292
0.439421
-0.387079
-0.0523422
0.339131
-0.576419
0.237288
0.0475489
0.31001
-0.357559
-0.351281
0.491795
-0.140515
0.115794
-0.0395051
-0.0762891
0.0213224
-0.145622
0.124299
0.359596
-0.312047
-0.236167
0.313601
-0.0774342
0.381456
-0.408142
0.0266859
-0.214212
-0.118663
0.332874
-0.476895
0.287959
0.188936
0.407774
-0.026318
0.527922
-0.246175
-0.281747
0.181632
-0.0630828
-0.118549
0.187943
0.271395
-0.459337
0.149916
0.248038
-0.397954
0.125739
-0.339951
0.55406
-0.313617
-0.240442
-0.0253957
0.00887896
0.0165167
-0.195723
0.414788
-0.219065
-0.223952
0.528491
-0.304539
-0.121219
0.357166
0.136589
-0.000504902
-0.102851
0.515614
-0.176483
-0.416604
0.186888
0.229716
0.291731
0.167608
-0.459339
0.337951
-0.210626
-0.127325
-0.25846
0.408376
-0.0133993
0.210906
-0.197507
0.382868
-0.0441045
-0.338763
-0.0152938
-0.0101018
0.368768
0.131599
-0.500367
0.138974
-0.416139
0.277165
-0.210386
0.196986
-0.236163
0.539938
-0.303774
0.102459
0.013335
-0.47909
-0.0267099
0.5058
0.0511737
0.331694
0.266045
-0.0747073
-0.191338
0.263359
0.0860222
-0.349381
-0.0417219
0.169334
-0.127612
0.292126
-0.403145
0.11102
0.148237
-0.470902
0.322666
0.318205
-0.139994
-0.178211
-0.0557213
0.276496
-0.220775
-0.229588
0.521319
0.0866594
-0.428219
0.34156
-0.00505912
0.00411191
0.000947208
-0.003381
0.035803
-0.032422
-0.49022
0.373418
0.116802
0.140737
0.186659
-0.327396
0.532978
-0.347025
-0.185953
0.466914
-0.318677
0.109125
-0.12433
0.0152049
0.250625
0.0154209
-0.284598
-0.0921106
0.376709
-0.0741194
-0.181707
0.255826
0.0685041
-0.353102
-0.535674
0.266222
0.269452
-0.131951
0.125796
0.00615512
0.0870756
-0.314203
0.227128
-0.496497
0.171187
0.32531
0.315853
-0.0509848
0.154943
-0.350666
0.247307
-0.529186
0.281879
-0.556013
0.264993
0.29102
-0.207237
0.347974
-0.43383
0.341899
0.0919309
-0.417753
-0.0160765
0.0680184
-0.249272
0.181253
-0.118956
0.382315
0.378148
-0.536736
0.279925
0.256812
-0.375254
-0.16042
-0.106316
-0.272904
0.37922
0.0521786
0.263675
-0.453989
-0.0251007
0.451563
-0.0437894
-0.217479
-0.0727092
0.290189
0.0621879
0.0150935
-0.0772814
0.180069
0.157882
-0.164561
-0.218243
0.382803
0.23434
0.189468
-0.423808
0.324187
-0.163207
-0.16098
0.219118
-0.338074
-0.253507
0.197786
0.238519
-0.255686
0.0171666
-0.133169
0.00121784
0.1079
0.331522
-0.0988502
0.264105
-0.165255
0.414184
-0.327525
-0.308236
-0.119983
0.00461488
-0.289973
0.285359
0.388499
0.063064
0.0559217
0.105075
-0.160997
0.260324
-0.0471516
-0.213173
0.130445
-0.143537
0.0130929
-0.112293
0.142287
-0.0299943
0.408
0.0559151
-0.463916
0.0126285
-0.0462101
0.0335817
0.0376765
0.321919
-0.199978
0.419095
0.170566
0.0110661
0.289968
-0.285353
0.496426
-0.13926
0.24489
0.0905506
-0.335441
-0.0719856
0.244666
-0.17268
-0.480962
0.0764074
0.404554
-0.302244
0.339921
0.271024
-0.416123
0.145099
-0.13103
0.375921
-0.331476
0.435032
-0.103556
-0.19694
0.446946
-0.250006
0.421416
-0.282442
-0.348113
-0.148384
0.0628326
-0.162503
0.0996702
0.258923
-0.399028
0.140105
0.395992
-0.124968
0.501391
-0.132623
-0.00471141
-0.0465259
0.0512373
0.205898
-0.537374
-0.0934949
0.109825
-0.01633
0.450085
-0.229606
-0.220478
-0.174581
0.202698
-0.0281163
-0.213484
0.00309871
-0.299899
0.28311
0.016789
0.225815
0.328245
0.391327
-0.448321
0.0569947
-0.0786385
0.469965
0.0202538
-0.0480139
0.0277601
-0.229078
0.301726
-0.0726485
0.238195
0.222161
-0.460357
-0.126955
0.33479
-0.207835
-0.122571
0.0465049
0.0760663
0.153219
-0.00224026
-0.150978
-0.265682
-0.190377
0.456059
0.1403
-0.0843782
-0.453026
0.473318
-0.0202925
-0.261393
-0.155211
-0.24966
0.487855
0.31384
0.182586
0.175376
-0.105794
-0.0695824
0.596064
-0.357236
-0.238828
-0.0118808
-0.0866634
0.0985441
-0.448579
0.306098
0.142481
0.129161
0.195026
0.247665
0.348399
-0.539197
0.205261
0.333936
0.150833
-0.397476
0.246643
0.408068
-0.165889
-0.242179
-0.253886
-0.0460124
-0.0236105
-0.122011
0.15161
-0.0211652
-0.451759
0.100478
0.00384179
-0.00267858
-0.00116321
0.343385
-0.34594
0.00255428
0.163453
-0.0285579
-0.134895
0.218429
-0.322198
0.103769
-0.355473
-0.181264
0.132484
0.282305
0.466612
0.227867
0.222217
-0.393247
0.344091
0.0491562
-0.0601181
0.259332
-0.199214
-0.34908
-0.0441666
0.0454642
-0.276256
0.230792
-0.132807
-0.211453
0.34426
0.318353
-0.272889
0.228344
0.167647
-0.139596
0.36794
0.0670311
-0.0152507
0.535915
-0.236891
-0.299024
-0.27852
0.226737
0.0517833
-0.114133
0.0927751
0.0213579
0.130808
0.272326
-0.403134
0.231384
-0.395945
0.0451362
-0.0248824
-0.343063
0.506784
-0.163721
0.166911
-0.170472
0.00356087
0.35112
-0.00773477
-0.0908108
0.158176
-0.0673654
0.164335
-0.236321
-0.253934
-0.162188
0.329885
0.0842988
0.188971
-0.321778
0.0274846
0.135969
-0.233421
0.532354
-0.298932
0.13499
-0.434036
0.299046
0.114774
0.260472
-0.375246
0.141047
0.0829325
-0.22398
0.180315
-0.179562
-0.000753336
-0.245739
0.214856
0.0308827
0.46527
-0.210841
-0.254429
0.475458
-0.218252
-0.257206
0.0875877
-0.12931
0.21933
-0.321325
0.101995
0.2945
0.366849
-0.18678
0.258502
0.206767
0.353396
-0.0944727
-0.0939741
0.313304
0.186717
0.328897
0.0393377
-0.284866
0.245529
0.0164466
-0.13102
0.114573
0.0810386
-0.298518
-0.209369
0.034788
0.106242
0.0691346
0.114117
-0.325004
0.210888
-0.207556
0.116745
0.457075
-0.419159
-0.0379166
0.0924398
0.225913
-0.128781
0.141593
-0.0128125
0.0894861
-0.0272982
0.259671
0.272683
0.338877
-0.299539
0.447254
-0.312264
0.222056
0.0164633
-0.0439702
-0.0137336
0.0577038
0.157209
-0.25606
-0.300137
0.414911
0.154119
-0.0280455
-0.126073
0.097899
-0.110635
0.0127358
0.234971
-0.459314
0.224343
-0.221004
-0.166076
-0.473611
-0.223414
0.312474
-0.0890592
-0.455503
0.189821
0.119995
-0.219878
0.504814
-0.217099
-0.287715
0.227218
0.24824
0.445262
-0.164727
-0.280535
-0.262981
0.39379
-0.00196492
0.168876
-0.256976
-0.0215434
0.168858
0.23921
-0.0813835
-0.225388
0.306771
-0.51681
0.237023
0.279787
-0.306348
0.0852149
0.221133
-0.395106
0.131469
0.263637
0.438962
-0.42451
-0.0144516
-0.00188248
-0.00317664
0.166022
-0.466387
0.300365
-0.0912345
0.232282
0.230815
0.00580759
-0.236623
-0.262253
0.496593
-0.23886
-0.100239
0.339099
0.460303
-0.417401
-0.0429026
-0.233578
0.326017
0.467567
-0.153727
0.00214308
-0.0623394
0.0601963
0.411361
0.108536
-0.519897
-0.137903
-0.419526
-0.0364337
0.267249
0.489851
-0.323829
0.106617
0.353686
0.370587
-0.0992094
-0.271378
-0.382221
-0.0897907
0.472012
0.149666
0.270083
-0.419749
0.552497
-0.383933
-0.168564
0.189299
0.181288
-0.42293
-0.015691
0.438621
-0.219272
0.102134
-0.040731
-0.0614028
-0.00491521
-0.418015
0.219416
-0.232236
0.0128209
0.018757
-0.00228628
-0.0164707
-0.363771
-0.129847
0.493618
0.379595
0.00890428
0.415601
-0.0715107
0.313764
-0.108682
-0.205082
0.000278412
-0.112571
0.0943663
-0.0927546
-0.00161169
0.304805
0.162109
0.476739
-0.248872
0.280294
0.0731021
0.00722927
0.101896
0.113815
0.301786
-0.332908
0.245412
0.0874961
0.373686
-0.289791
-0.083895
-0.231993
0.0895563
0.142437
-0.556489
0.169643
0.386846
0.524608
-0.279351
-0.245256
-0.21115
-0.365269
0.158425
-0.34287
0.184445
0.0305302
-0.0352416
0.0884539
0.156212
-0.231671
-0.0427323
0.274403
0.347373
-0.188948
-0.0664316
0.505393
0.366843
0.0127524
-0.506707
0.287389
0.219318
-0.435685
0.0926225
0.108273
-0.0103744
-0.24779
0.173671
0.577322
-0.398646
-0.178676
0.0223394
-0.25401
-0.227907
-0.152918
0.380825
0.136885
-0.406947
0.270062
-0.151067
-0.297512
0.401294
0.176027
-0.231036
0.316251
0.204149
0.19071
-0.394859
0.0978745
0.21589
0.0225281
0.388833
0.0934375
0.245439
0.228003
0.145682
0.160375
0.206474
-0.30879
0.491645
-0.182855
0.1769
-0.508741
0.331841
-0.213252
-0.448945
0.324209
0.124736
-0.435579
0.0718087
-0.222098
-0.22484
0.446938
0.273743
0.138125
-0.411869
-0.194047
-0.282847
0.327406
-0.327543
0.000137334
0.00343751
0.172139
-0.175577
0.258488
-0.25207
0.345507
-0.403233
0.206293
-0.0939905
0.501991
-0.0767858
0.0328156
-0.368308
-0.0847177
-0.00833686
-0.00277577
0.0111126
0.467055
-0.279113
0.0729342
-0.0707911
0.528191
-0.353202
-0.17499
-0.341776
0.105609
-0.0701896
0.23289
-0.1627
-0.155195
0.19612
0.0147859
-0.345331
0.481393
-0.136062
-0.217521
-0.0575779
0.275099
-0.310164
0.448203
-0.138039
0.0206908
-0.377927
-0.440282
0.131492
0.333482
-0.1204
-0.213081
-0.31332
0.0145487
-0.23207
-0.109909
0.0885408
0.0213683
0.0956695
-0.293018
0.197348
0.126897
-0.110451
0.097421
-0.336281
0.0368294
0.0653044
-0.0677419
-0.0548293
0.191078
-0.26663
0.0755515
0.0281341
-0.0315151
0.270375
0.0570307
0.074071
0.0613923
-0.135463
0.335665
-0.102885
-0.232781
-0.134162
0.329526
-0.195364
0.226673
0.124447
-0.297247
0.317937
0.175436
-0.249181
0.0737453
-0.0456411
0.0054916
0.0401495
-0.246084
0.378568
-0.151322
0.0557234
0.437834
-0.318832
-0.119002
-0.00972744
0.00139058
-0.403359
0.149424
0.0860787
-0.281526
0.195447
-0.114588
-0.210639
0.325226
-0.18257
0.472646
-0.290075
0.358265
0.201399
0.0135139
-0.107009
-0.429317
0.330545
0.0987718
0.595468
-0.177819
-0.417649
0.502501
-0.141445
-0.361055
-0.143218
-0.242725
0.385943
0.244444
-0.15599
0.257354
0.183469
-0.440823
-0.246083
0.0809765
0.165107
0.161659
0.268455
-0.374771
-0.166239
-0.0329324
0.199172
0.022829
-0.29939
-0.171512
0.363403
0.232065
-0.294584
0.398849
-0.104265
0.199459
-0.292898
0.0934388
0.280396
0.157438
-0.0312371
0.0438656
0.294101
-0.0946414
0.184043
-0.255876
0.195758
0.204317
-0.307148
0.102831
-0.397912
-0.200677
-0.308064
0.152285
-0.1422
-0.0100841
0.153852
-0.102896
0.473833
-0.179474
-0.294359
0.558698
-0.430484
-0.128214
0.207687
0.127978
0.293464
0.15379
-0.10087
0.189804
0.284029
0.0871152
0.131455
-0.21857
0.120461
0.21302
0.0024607
0.00138109
-0.134491
-0.299546
-0.146949
0.459786
-0.312837
0.00865331
0.0507972
-0.0594506
-0.089589
0.152422
-0.111307
-0.120686
-0.209807
0.444779
0.425398
0.249282
-0.0416628
-0.20762
-0.220354
0.401383
-0.351556
0.0569719
0.586985
-0.31801
-0.268975
-0.210914
-0.106272
0.317187
-0.129615
-0.465752
0.0902565
-0.160446
0.0832162
-0.0519932
0.397712
-0.0639555
-0.333757
0.147586
-0.455069
0.307483
-0.311483
0.100569
0.280699
-0.194621
0.485372
-0.175917
-0.309455
-0.31292
0.245339
0.0675811
-0.465862
0.181391
0.284471
-0.283514
-0.153501
0.437015
0.149411
0.180115
0.253925
-0.0628463
0.262691
0.156005
0.261286
0.156358
-0.417645
-0.480962
-0.133814
0.381122
-0.187577
0.492379
-0.304802
-0.215925
0.186397
0.0295271
0.436105
-0.208888
0.0988366
-0.328344
0.229507
-0.286668
0.337866
-0.0511985
0.193109
0.292263
0.285172
-0.451061
-0.221457
-0.108021
0.329478
-0.0156331
0.0191921
-0.00355899
0.296451
0.231741
0.520798
-0.233257
-0.287541
-0.252418
-0.0804894
-0.0193719
0.00373878
0.390143
-0.357636
-0.0325062
0.454799
-0.307213
-0.29116
0.229333
0.0618264
0.174369
0.293199
-0.0911939
-0.18569
-0.370323
0.116238
0.0665516
-0.0132509
0.470326
0.439145
0.028432
-0.467577
0.421828
-0.160542
-0.219496
0.499712
-0.280216
0.461673
0.0767308
-0.254604
0.177873
-0.0067977
-0.0388434
0.278053
0.119532
-0.397586
0.226287
0.309627
-0.352619
0.48671
-0.13409
0.166437
-0.479364
0.312927
0.204254
-0.549585
-0.168514
-0.173262
0.0824855
0.0256813
0.364461
0.287686
-0.192016
0.128865
0.428564
-0.256951
-0.0342094
0.252219
-0.392214
0.139994
0.137866
0.0162535
0.4296
-0.0362659
-0.393335
0.232353
0.183668
0.0192023
-0.338502
0.3193
-0.195273
-0.150667
-0.0543374
-0.311603
0.330805
0.183614
0.252491
-0.0146476
-0.078107
0.451576
-0.224174
-0.227401
-0.0492497
-0.0215073
0.070757
0.0098429
-0.456182
0.451267
0.0217611
-0.0710108
-0.062822
0.0481744
-0.534821
0.0917346
-0.475719
0.383985
-0.435532
0.178424
0.257108
-0.0928385
0.209584
0.00529881
-0.049929
-0.0744012
0.464992
-0.123092
0.00469518
-0.019989
-0.152626
0.377951
-0.225325
0.307162
0.225816
0.482634
-0.190502
0.461897
-0.0267389
-0.0838959
-0.380089
0.0965749
-0.0612527
0.349211
-0.295469
0.258091
0.129848
-0.387938
-0.0469706
0.000760482
0.175616
-0.395971
-0.319715
0.124442
0.00466908
0.000629731
-0.179787
0.290699
-0.110912
0.0204828
-0.34109
0.320607
-0.29112
-0.182318
0.272276
0.166687
-0.16325
0.0790814
-0.261399
-0.180508
-0.358689
-0.0993712
-0.146368
-0.0975665
-0.260307
0.357873
-0.406572
0.290405
0.116168
-0.215782
0.477847
-0.262065
-0.147603
0.0547646
0.168634
-0.32126
0.217524
-0.337924
-0.528003
0.265924
0.262079
0.269695
-0.434422
0.333556
0.156295
-0.29318
-0.124574
0.498588
-0.223459
-0.275129
0.185554
-0.371124
-0.181537
-0.26069
0.442227
0.498903
-0.239966
0.113679
-0.129668
0.0159893
-0.0899322
0.0883205
-0.112834
0.31715
0.166927
-0.169168
0.139198
-0.303
0.163802
0.218646
0.094955
0.403662
-0.435141
0.0501838
-0.340157
0.00274354
0.00156073
-0.00430427
0.0515654
0.0154657
-0.35454
-0.0520317
-0.277819
-0.193376
0.471195
-0.0835866
0.391457
-0.288524
-0.102933
-0.00491809
0.175514
-0.170595
-0.494537
0.182338
0.312199
0.211451
-0.321202
0.109751
-0.301503
-0.116341
0.417844
-0.208456
-0.319547
0.224182
0.280631
0.552549
-0.328366
0.00049137
0.00362054
-0.206718
0.2858
-0.178343
0.206562
-0.028219
-0.171025
0.277086
-0.305912
0.0288266
0.391152
-0.118826
0.128674
0.118248
-0.522307
0.3846
0.137707
0.00643806
0.0472082
-0.0239736
-0.0232346
0.265187
-0.408423
0.143235
-0.213941
0.00331584
-0.184913
0.482881
-0.297968
-0.523828
0.207449
0.316378
-0.135884
0.401071
-0.0615928
0.0181113
0.0434815
-0.263755
-0.183663
0.447418
0.111554
-0.458579
0.194431
-0.47225
-0.0583628
0.0732065
-0.0148437
0.337356
-0.223239
-0.0601281
0.0463946
0.405281
-0.31418
-0.0911012
-0.123087
0.381178
-0.160358
-0.403582
0.255805
0.147777
0.457372
-0.189185
-0.268187
0.287408
0.104049
0.310106
-0.406572
0.0964662
-0.334404
0.112306
0.272751
-0.434354
0.161603
0.0868486
-0.268556
-0.439402
-0.00796313
0.447365
-0.307789
0.134527
0.131149
-0.0174707
-0.234734
-0.189304
0.424038
0.195585
-0.436827
0.241241
0.486294
-0.257729
-0.228565
0.403708
-0.0563352
0.402806
-0.150586
-0.176371
0.486477
-0.167972
-0.261641
0.429614
-0.411568
0.176834
0.425275
-0.275609
0.174874
-0.471793
0.296919
-0.309873
0.0884158
-0.0743943
-0.171689
0.486961
-0.153405
0.189449
-0.236601
0.352711
0.13425
-0.287076
0.46195
-0.103442
0.298121
0.209619
0.288969
0.259582
-0.430389
0.170807
0.294715
0.191579
-0.000698288
0.00121617
-0.000517886
-0.125438
0.382281
-0.256842
0.0771487
0.167295
-0.151986
-0.32775
0.0893582
0.238392
-0.264296
0.262681
-0.444218
-0.0676282
-0.29679
-0.192428
0.489218
-0.125668
-0.000614917
-0.191951
0.0257116
0.464421
-0.182386
-0.282035
0.18902
0.10508
-0.222264
0.391122
0.282111
0.121597
0.382392
-0.0931538
-0.289238
0.199316
0.143339
0.265702
0.13958
-0.00386799
-0.22521
0.446406
-0.173326
-0.27308
0.227364
0.107426
0.0395213
-0.423971
0.341041
0.0829305
0.171489
-0.48231
0.31082
-0.163315
0.158396
-0.201241
0.32698
0.382032
-0.245147
0.275158
-0.0861373
0.24672
0.0126125
-0.351681
0.198763
0.492891
-0.176658
-0.316234
0.094335
0.193351
0.10554
-0.354451
0.248912
-0.234387
-0.169195
-0.341045
0.0210516
-0.107715
-0.301859
0.259127
-0.262611
0.111781
0.15083
-0.157638
-0.182518
0.478449
-0.295931
-0.143256
0.413339
-0.45916
0.332458
0.126702
0.348539
0.179952
-0.214071
0.304622
0.395395
-0.412923
0.0175286
-0.148659
0.372526
-0.223866
-0.262027
0.353761
-0.338948
-0.16776
-0.207956
0.443164
-0.235207
0.117189
0.184537
0.217127
-0.0210073
0.271045
-0.465572
0.151954
0.521
-0.367793
-0.153207
0.0335041
-0.30976
0.449224
-0.253638
-0.125643
0.397284
-0.27164
0.49293
-0.347107
-0.145823
0.266727
-0.0464599
-0.220268
-0.469594
0.359358
-0.27426
-0.332973
0.218385
0.0419275
0.00528071
0.318623
-0.134154
-0.18447
0.172815
0.276408
0.0840534
-0.108497
-0.14819
0.344093
0.0406259
-0.00482293
0.322288
-0.442415
0.120127
0.393504
-0.487495
-0.0378726
-0.0461697
-0.0306161
0.503556
-0.349819
-0.153738
0.147855
0.115561
-0.263417
0.251314
-0.174165
-0.366369
0.21771
-0.0976585
0.0345758
0.059444
0.338268
-0.0990845
0.125591
-0.317277
0.21971
-0.291154
0.116654
0.1745
-0.0684295
-0.23343
0.29126
0.17688
-0.46814
-0.225115
0.013561
0.211554
-0.297988
-0.168399
0.319744
-0.487442
0.167698
0.100504
-0.0560074
-0.380358
-0.0436133
0.065891
-0.0143256
0.334751
-0.229212
0.327498
-0.474447
0.394546
0.000848451
-0.380955
0.117199
-0.053748
0.189819
-0.136072
0.102681
0.00559214
0.21701
0.0979173
-0.00311726
0.00123478
0.487707
-0.313338
-0.422546
-0.328621
0.230743
0.0978783
-0.126568
-0.164586
-0.390787
0.127806
0.318746
-0.0265026
-0.292243
-0.000373716
0.50554
-0.184489
-0.321051
0.275637
0.134806
-0.410444
-0.322584
-0.0725217
-0.0674188
0.157869
-0.0904497
0.211322
0.00580561
-0.0414865
0.414905
-0.179977
-0.223256
0.214371
0.0923317
-0.306703
0.173128
0.0807968
0.0215895
0.0190365
-0.0154489
-0.0524566
0.0679056
0.483189
-0.277714
-0.205474
0.0329788
0.504059
-0.208964
-0.295095
0.352861
-0.192486
-0.0882583
0.261386
-0.42724
-0.0258533
0.453093
0.137409
0.0167053
-0.154114
-0.311941
0.0865531
0.303195
0.200864
-0.169463
-0.24553
0.387331
-0.141801
0.439216
-0.216303
-0.222913
-0.287373
0.196139
-0.0321845
-0.19293
-0.157078
-0.0921941
0.0710993
0.180986
0.266165
-0.447151
0.291895
-0.152697
-0.381957
0.392225
-0.142256
-0.0712282
-0.0170312
-0.374794
0.391825
-0.291242
0.465034
-0.173791
-0.233976
0.214271
0.0197051
-0.423444
-0.280868
-0.0850441
0.365912
0.156163
0.196697
-0.198317
-0.0361216
0.234439
0.397572
-0.248692
-0.14888
-0.0282393
-0.0684674
0.0967067
-0.491886
0.191457
0.300429
-0.074088
0.354382
-0.187011
0.251854
-0.0648435
0.314008
-0.503676
0.189668
0.461135
-0.15633
0.0485423
-0.33521
-0.394494
0.131534
0.26296
0.454037
-0.111356
-0.342681
0.135867
0.258562
-0.394429
0.277426
0.151799
-0.429225
0.272511
0.147599
-0.42011
0.196166
-0.418018
0.221853
0.280611
-0.468188
0.103616
-0.456235
0.411271
-0.230285
0.255268
-0.47105
-0.033186
0.0595469
-0.0263609
-0.410286
0.178086
0.2322
0.520437
-0.34808
-0.172357
0.212466
0.093545
-0.306011
-0.46817
0.176927
0.00548062
-0.00324498
-0.00223564
0.355216
-0.205806
0.0502097
-0.23722
0.375835
-0.0832818
0.458988
-0.286173
0.184287
-0.473133
0.288846
0.25338
-0.129128
-0.124252
0.416641
-0.421581
0.302755
0.28696
-0.192625
-0.259004
-0.169399
0.428403
0.146326
-0.255976
0.109651
0.027699
-0.226016
-0.351951
0.11523
0.23672
-0.174532
0.4761
-0.301568
0.304333
0.160701
-0.230506
0.350968
0.0932812
0.193679
-0.215449
-0.255475
0.470924
0.097194
-0.336744
0.23955
0.156606
0.297431
0.395924
-0.118498
0.292453
0.156367
-0.44882
0.292488
-0.0781167
0.381347
-0.28001
-0.101336
0.0824335
-0.305848
-0.0811982
-0.0988914
-0.204109
-0.315113
0.486149
-0.171036
0.0824959
0.229978
0.0600857
-0.0883249
-0.0492413
0.0160553
0.0188478
0.0599357
-0.0787835
-0.0945282
-0.192845
0.00096172
0.0391271
-0.0400888
-0.112733
-0.0330347
-0.200941
-0.173768
0.184714
0.249676
-0.43439
-0.203618
0.39938
-0.126869
0.154374
0.0878128
0.443477
-0.0854802
-0.357997
0.297874
-0.01454
-0.283334
-0.139688
-0.377121
0.30782
0.130768
-0.438588
-0.345369
0.425605
-0.0802356
0.166749
-0.366726
-0.159127
-0.0211762
0.180304
0.110459
0.164699
-0.159799
0.0914043
0.0683943
-0.222545
0.22052
0.00202497
0.354246
-0.118224
-0.236022
0.436889
-0.161998
-0.274891
-0.498678
0.350299
0.148379
-0.0462653
-0.37363
-0.0556865
-0.0244366
-0.0854725
-0.305575
-0.186311
0.140776
0.291861
-0.50731
-0.0687996
0.376619
-0.164075
-0.0269572
0.191032
-0.0433281
0.341202
0.122442
0.169453
0.0848348
0.252001
-0.336836
-0.413714
0.205758
0.143291
0.210955
0.037894
-0.0163046
0.0465168
-0.0274804
0.110066
-0.420229
-0.151362
0.157133
-0.00577117
0.111736
-0.335673
0.223938
0.181987
0.305719
-0.112431
-0.235971
0.348402
-0.45984
0.15771
0.302131
0.131935
-0.433438
0.00956891
0.433908
-0.188269
0.134521
0.53778
-0.334187
-0.203593
-0.0662814
-0.103398
-0.269754
0.373153
0.169855
0.276551
-0.336418
-0.0851635
0.106289
0.218344
-0.0704884
0.152056
-0.440023
0.287967
0.342296
-0.23056
0.165602
0.482412
-0.30178
-0.180632
0.512141
-0.118637
0.37186
-0.205112
-0.0625586
0.365754
0.0278119
0.191604
0.286759
-0.390158
0.210075
-0.308997
0.0989224
-0.145869
0.160146
-0.0142769
0.478373
-0.136671
-0.341702
0.0537389
-0.343487
0.289749
0.109246
0.144133
0.231987
-0.456826
-0.472164
0.135014
0.33715
0.212161
0.139605
-0.351766
0.278159
-0.39735
-0.303699
0.137133
0.000732519
-0.0480952
0.066943
0.192355
0.281858
-0.474213
0.393873
-0.210258
-0.304442
-0.13631
0.440752
-0.368591
0.29483
0.0737611
-0.331463
0.231224
0.277056
0.134463
-0.41152
-0.230915
0.316978
-0.086063
0.1572
0.240372
-0.0997978
0.220821
0.0859497
0.175359
0.307053
0.161772
0.193444
-0.303691
0.185882
0.117808
-0.147403
0.412397
-0.43954
0.153376
0.286165
-0.0767673
0.0613184
0.150928
0.316127
0.447105
-0.29505
0.123876
-0.356861
0.232984
-0.0047771
0.142186
0.357173
-0.280765
-0.374625
0.115621
-0.0479222
-0.153537
0.201459
-0.243788
0.436143
-0.263022
0.316761
-0.14315
0.35531
-0.0507325
0.0467714
0.0039611
-0.306426
0.472862
-0.399074
0.140614
0.229769
0.261887
-0.485355
0.296078
0.189277
-0.210452
0.16253
-0.114975
0.106979
0.00799628
-0.0231803
-0.128181
0.50788
-0.172824
-0.335056
0.170354
-0.449705
-0.300674
0.243763
0.249129
-0.118119
-0.135317
-0.364752
0.51034
-0.145588
0.0853883
0.276965
0.104382
0.274123
-0.00374815
0.368203
-0.278844
0.210641
0.272548
-0.251877
0.257685
0.300408
-0.354003
0.053595
-0.135895
0.372656
-0.236761
-0.507992
0.279332
0.22866
-0.0131946
0.0168754
-0.00368073
0.2273
0.034
-0.2613
-0.0771694
-0.0524986
-0.107866
-0.295999
0.403866
0.358081
-0.273246
0.455739
-0.320725
0.305528
-0.368086
0.461259
-0.266828
-0.143329
0.241204
-0.0777592
-0.318704
0.199571
-0.307438
0.0968211
-0.276608
-0.122611
0.215224
-0.241631
0.338825
0.279486
0.241514
-0.145127
0.0381099
-0.0613669
0.023257
0.00648382
0.267639
-0.269411
0.350444
-0.0810335
0.162806
0.284299
0.0191782
-0.0102993
-0.126265
-0.033534
-0.159153
0.0817079
0.0774451
0.134757
0.15773
0.23573
-0.148615
0.0394538
0.007063
-0.297021
0.205968
0.091053
-0.00333494
0.000656364
0.452216
-0.28941
0.14051
-0.00337722
-0.451164
0.148813
0.302352
-0.487663
0.276822
0.459591
-0.155258
-0.0870304
0.122257
-0.0352263
-0.48058
0.237858
0.242722
0.15251
-0.0572499
-0.0952597
0.131779
-0.271774
0.40384
-0.028886
-0.374954
0.277814
-0.49731
0.487851
-0.173843
0.268894
0.236646
-0.287023
0.270379
0.016644
0.13266
-0.37819
0.0877682
-0.388411
-0.0900162
-0.14222
0.296666
-0.174224
-0.3219
0.0524893
0.329035
-0.172871
-0.32611
0.114657
0.334162
-0.128268
-0.205894
0.0427054
-0.388075
0.0995322
-0.414645
0.141689
-0.424192
0.282503
-0.374587
-0.0526526
-0.16175
-0.248537
-0.0327413
0.462342
0.0886695
0.0323154
-0.120985
0.309225
0.138841
-0.448067
0.2436
-0.166869
-0.395938
0.331982
-0.0136625
0.0417965
0.134829
-0.456462
0.321633
-0.449671
0.304094
0.145577
0.0316945
-0.0629316
-0.0104756
0.167957
-0.157482
0.0192966
0.116841
-0.232626
-0.357435
0.380932
-0.326648
0.112042
0.214606
0.0524163
-0.209494
-0.129338
0.0521685
-0.296279
-0.17411
0.47039
0.447403
-0.312573
-0.0247751
-0.197769
-0.0234829
0.439017
-0.181663
-0.017287
0.0489815
-0.147194
0.395231
0.127236
-0.0186888
-0.108547
0.0389306
0.10158
0.17429
-0.464139
0.289849
-0.553177
0.256387
0.283859
-0.517117
-0.0247723
0.428613
0.00165999
-0.00235828
-0.442298
0.160451
0.281847
-0.237857
0.445569
-0.310679
-0.134891
-0.17902
-0.350166
-0.0585367
-0.310054
0.278089
-0.449868
0.171779
-0.354808
0.247704
0.107104
0.148292
-0.466302
0.460528
-0.0761999
0.280051
-0.192735
0.508528
-0.315792
-0.375017
0.331689
0.258493
-0.401613
0.143119
0.2849
-0.115803
-0.169097
-0.459597
0.342144
0.117453
-0.146077
-0.465715
0.283328
-0.0660525
0.147349
-0.447166
-0.138677
0.462886
-0.38821
0.0109046
0.377306
0.298824
0.160165
0.159362
-0.0193566
-0.140006
-0.38198
0.0196979
-0.106728
0.00251891
0.00296171
0.24052
-0.258139
0.0176185
0.0615539
-0.227978
-0.0287947
0.189652
-0.160857
0.284946
0.17484
-0.0151739
-0.127026
-0.309089
0.399829
-0.0907405
-0.186336
0.0272084
0.0143233
0.200533
-0.0868744
0.360562
-0.273687
-0.00721324
0.0491408
0.160893
-0.143308
-0.0175846
0.0040752
-0.062438
0.411873
-0.413153
0.00128074
-0.368332
-0.13966
0.213094
-0.0816388
0.314274
0.00408921
-0.318363
0.346647
-0.0462386
-0.0848653
-0.0123272
0.0971925
-0.0516198
-0.200258
-0.2158
-0.11031
0.18116
0.255729
0.0810544
-0.456308
-0.0424543
0.0503797
-0.0079254
-0.267886
-0.194306
0.462192
-0.393429
0.267786
0.205986
0.0446383
-0.165445
0.394742
-0.229297
0.432622
-0.0207491
-0.333677
0.0451522
0.190275
0.128349
0.299183
0.160408
-0.0975529
0.416299
0.236917
-0.240785
-0.212123
-0.201591
0.222268
-0.387713
-0.00993703
0.205817
0.0706792
-0.25149
-0.100461
0.51677
-0.244921
-0.271848
-0.393219
0.335622
0.0575979
0.0332417
-0.0227643
-0.0104774
-0.280427
0.471516
-0.191089
-0.0643903
0.25384
-0.383095
0.0233619
0.359733
0.228561
-0.340992
0.369685
-0.281917
-0.176425
-0.291268
0.467693
-0.107243
-0.352353
-0.0370286
0.351303
-0.325657
0.109856
-0.203141
-0.0126924
0.215834
0.257322
-0.146863
-0.431917
0.263945
0.0436777
0.0165841
-0.0602619
0.282559
0.146838
-0.429397
0.128935
-0.0309778
-0.0979568
0.00378325
0.266595
-0.133634
0.392127
0.40649
-0.249289
0.104185
0.258739
-0.362924
-0.225795
-0.172123
0.397918
-0.108106
0.430395
-0.0996646
0.0524175
0.020789
0.153981
-0.164457
0.271872
0.122001
-0.294801
0.445729
-0.0677488
0.0941907
-0.334968
0.240778
0.287397
-0.15264
-0.273897
-0.0505829
-0.324434
0.231278
0.404955
-0.217456
-0.187499
-0.32393
-0.170607
0.13267
0.213607
-0.346277
0.383764
-0.14674
-0.316112
0.229103
0.0870091
-0.246016
-0.0437751
-0.147693
0.354678
-0.206985
-0.110068
-0.314128
0.0050386
-0.0133028
0.101844
-0.30302
0.276518
0.0733861
-0.361332
0.287946
0.373467
-0.2376
-0.263142
0.226207
0.0369351
-0.293232
0.47557
-0.270379
0.370682
-0.100303
0.503629
0.163147
-0.157639
0.241326
-0.378722
0.137396
-0.139228
0.376006
-0.35865
-0.0173557
-0.0912245
0.340853
0.291285
0.141566
-0.432851
0.271021
-0.44625
0.175229
0.0227354
0.35327
0.168449
-0.251818
-0.156324
-0.432136
0.238089
0.210369
-0.331831
0.121462
0.327169
0.155712
0.206398
0.0933315
-0.29973
0.401846
-0.317547
-0.100109
-0.163033
0.488061
-0.312581
-0.0210954
0.024467
-0.00210223
-0.389668
0.163873
0.509016
-0.32288
-0.186136
0.213741
0.0693682
0.218554
-0.237035
0.0184815
-0.349019
0.283591
0.0654276
-0.475558
0.399638
0.0759205
0.0680893
-0.26632
0.450606
0.115083
0.22165
-0.336733
-0.467764
-0.120978
0.349441
-0.228463
0.273951
-0.153956
0.187798
-0.410063
0.11002
0.17488
0.287728
-0.133253
-0.154475
0.384263
-0.142936
-0.145446
-0.27609
0.421536
0.0845746
-0.291839
0.207265
0.276253
0.0534939
-0.0397234
-0.0137705
0.367158
-0.262973
-0.384445
-0.0549572
-0.27143
0.128667
0.142764
-0.431249
0.303482
0.127767
0.443168
-0.172147
0.0110396
-0.345191
-0.142472
-0.199015
0.292297
0.203444
0.305572
0.278742
0.157652
-0.436395
0.0272292
0.0956848
-0.122914
-0.123437
-0.289037
-0.150986
0.323048
0.115237
0.140416
-0.255654
-0.219937
-0.0621816
-0.252086
0.314267
-0.17706
0.240385
-0.0633254
0.0835533
0.0453812
0.361512
-0.378543
0.140045
0.248767
-0.388813
-0.35443
0.149361
0.205069
0.179417
0.0718968
0.0616028
-0.0179251
-0.0407877
0.0268668
0.0139209
0.178878
0.117788
0.127626
0.24503
-0.000573176
0.140772
-0.140199
-0.287173
0.406457
-0.119283
0.469405
-0.29955
-0.41852
0.144965
0.273555
-0.124752
-0.262882
0.387634
-0.114206
-0.385026
0.104158
-0.188737
0.0246617
0.451086
-0.192658
0.234518
-0.339257
0.104739
0.232061
0.0947105
-0.326772
0.310443
-0.346574
0.036131
0.466069
-0.17481
0.4171
-0.140044
0.0570934
0.0954162
-0.386663
0.101797
0.250523
-0.375961
-0.148881
0.428008
-0.279127
0.29977
0.19316
0.0553125
0.220196
-0.336599
0.0662199
0.15709
-0.439532
-0.123177
0.293474
-0.170297
-0.13072
0.316602
0.381272
-0.0554361
-0.325836
-0.175082
0.189476
-0.0143939
0.0433163
-0.246521
-0.443361
0.155971
0.287391
0.0674498
0.206501
-0.166998
0.143818
0.294133
0.160666
-0.019124
-0.0278466
0.193005
-0.260719
0.0677138
0.0208065
-0.0488704
0.0280639
-0.16561
0.201792
-0.349485
0.136247
0.270243
-0.0476011
-0.0673738
0.0538711
-0.237378
0.183507
0.287825
-0.315953
0.0281281
-0.292262
-0.157409
-0.246412
0.0432702
-0.247133
0.192793
0.0543395
-0.275828
-0.0439903
0.319819
0.329138
-0.118769
-0.184911
0.380439
-0.195528
0.103162
0.23848
-0.341641
-0.189914
-0.354281
-0.00662471
0.360906
-0.0401915
0.055285
0.441576
-0.305589
-0.135987
0.171519
-0.412429
0.12574
0.286689
0.45703
-0.164576
-0.171846
0.455841
-0.283996
-0.497086
0.199711
0.297375
0.297136
-0.0121856
-0.263643
-0.177047
0.230918
-0.218381
0.445437
-0.227056
-0.262658
0.447268
-0.27666
-0.170608
-0.269098
0.315131
0.163242
0.00486442
-0.0228306
0.0179661
-0.348348
-0.248449
0.238156
-0.418133
0.152097
0.0544644
0.419647
-0.294645
-0.125003
-0.241027
0.208843
0.454351
-0.439882
-0.0144688
-0.159458
0.285793
-0.126335
0.154522
-0.101877
-0.0526454
-0.0894005
0.277337
-0.187936
-0.0309425
0.262187
-0.435513
-0.389793
0.26504
-0.269624
-0.210956
-0.167049
-0.363427
0.530476
0.236522
0.0127602
0.204137
0.0268339
-0.230971
-0.213406
0.241105
0.133218
-0.42273
0.28682
0.13591
-0.0100178
0.0265345
0.457215
-0.158032
-0.378571
0.261539
0.117031
-0.143804
-0.00398345
0.147787