/*--------------------------------*- C++ -*----------------------------------*\
| =========                 |                                                 |
| \\      /  F ield         | OpenFOAM: The Open Source CFD Toolbox           |
|  \\    /   O peration     | Version:  v2012                                 |
|   \\  /    A nd           | Website:  www.openfoam.com                      |
|    \\/     M anipulation  |                                                 |
\*---------------------------------------------------------------------------*/
FoamFile
{
    version     2.0;
    format      ascii;
    class       volScalarField;
    location    "100";
    object      omega_0;
}
// * * * * * * * * * * * * * * * * * * * * * * * * * * * * * * * * * * * * * //

dimensions      [0 0 -1 0 0 0 0];


internalField   nonuniform List<scalar> 
18649
(
3.26625
0.0257262
0.022839
1.81158
0.252322
0.0281703
2.69934
0.226923
0.0702651
0.0232457
0.206334
3.53225
3.98841
0.0227606
0.0220558
0.0473108
0.021855
0.0476507
0.196584
2.57475
7.88696
0.0228829
4.86791
0.235199
0.0219124
2.37669
0.0223946
3.333
0.515653
0.0216253
0.0225029
0.0859525
0.0220391
0.0254568
0.0228247
5.8604
0.0301118
0.0221748
0.0218099
0.224035
0.0734448
0.230477
0.0826133
2.06429
0.026011
0.0216195
2.66163
1.77126
11.8841
0.021877
2.71476
0.0336636
10.5144
4.10072
0.0220446
12.2269
2.41259
0.0887563
2.64318
0.0228147
2.85562
0.0220365
0.080122
1.7191
0.0221804
1.75961
0.0222137
2.47234
1.67986
0.266693
2.44091
0.0220295
0.091766
0.0264008
0.0245648
7.26905
0.0398713
0.0316307
0.0260331
0.32531
0.0218681
2.32704
1.88135
10.703
0.0605103
0.0218004
0.0321903
0.0321449
0.0457232
0.027253
0.0335058
0.0224133
0.0221108
2.68259
0.0227993
0.188152
0.0228548
0.21355
1.70975
0.0223442
4.65888
0.0480211
0.0218275
2.6852
1.68396
0.0341297
0.0221952
0.0227504
0.0486492
0.0243775
4.4332
0.0950859
0.022117
0.0243604
0.164326
0.0234229
0.0220534
2.48986
2.10447
0.0219004
2.41957
0.0225199
0.0855982
0.0220311
1.97169
0.0219098
0.0222942
2.40767
0.0224478
2.49133
0.0220921
1.86264
0.021987
3.44611
0.0303082
0.0222216
2.32172
2.41668
0.0333151
0.0305456
1.28649
0.0221307
0.0218383
0.0219913
0.0221721
3.78624
0.0218324
0.0220659
5.84471
1.67727
0.318881
0.0222345
2.14586
0.0222146
0.0223189
0.0219934
0.138255
0.273209
0.0220408
0.022164
0.0220933
0.560806
2.62395
0.0222283
1.99905
0.163015
0.0221905
0.0220226
0.0223636
0.0232894
0.0220979
3.03937
0.0847475
0.252436
0.0221626
3.13782
6.83433
0.0259385
0.0220472
0.290899
0.420246
0.0217129
0.0222641
4.50256
0.0284624
0.0493108
0.0221779
0.0221027
0.0425061
0.0365537
4.01888
0.0222245
2.28531
0.0220814
0.0218369
0.0222085
0.0317025
0.0592425
0.0247394
0.0222695
0.0220717
0.131998
2.52177
0.0291978
0.0477157
0.0736228
0.479935
2.95101
0.0225819
3.94044
0.0222043
0.024037
0.0224352
2.64347
1.89118
0.0220116
0.0542215
0.0219685
1.98926
0.0221729
0.111375
0.0220419
3.95964
2.20136
2.94369
2.64595
0.0220368
0.0221641
9.69974
3.24849
0.042701
0.0219616
7.21639
0.045133
2.7756
0.527325
0.135083
0.249977
0.0219794
1.1148
0.0217915
2.31494
0.0425739
0.0217166
0.024424
0.0369094
7.42778
0.0221693
27.3372
0.0582111
10.0813
2.67762
0.0483438
0.0228771
0.0287746
2.0833
0.0220392
0.0222055
0.0244912
0.0243667
0.0219213
0.0875916
3.13452
0.0221696
0.0218453
2.13282
2.97689
0.0222105
4.20448
0.0218312
3.99259
0.103489
9.58798
28.2932
0.226735
0.0220684
0.0218472
4.12111
2.62385
2.04675
0.0221727
0.0219622
2.04984
0.0290326
9.44737
6.64035
0.0222889
0.040915
0.022238
0.0217033
0.106047
8.38823
2.86277
0.866621
0.632382
0.0230128
0.40658
0.587475
0.0218339
3.03718
0.0220205
0.0256514
0.0227208
0.0220012
0.0218834
0.239911
0.0222256
0.0571894
0.286623
0.0251301
2.27287
0.0228776
10.1618
0.0220529
0.0222903
0.0219738
0.0227232
0.0222752
1.90814
1.99936
0.0222077
0.022097
0.0754025
0.0222403
0.0220053
0.022154
0.0221776
0.0334136
2.41943
0.0721702
2.62951
0.0220255
0.0221144
0.0811144
0.0220276
0.0215361
3.99233
0.0294693
2.09712
0.0296169
0.580126
0.022032
0.0245098
0.0224574
0.0240641
0.0220555
0.0222226
0.0217966
0.0333924
0.0451743
0.0220492
3.92801
0.0220486
0.0221298
2.95585
5.01234
0.0227911
2.32865
0.480666
2.03141
2.7857
0.0239545
2.74223
0.0220498
4.81047
7.11619
0.022832
0.026591
0.0291966
0.0225096
0.0222335
0.0218346
0.0220571
2.20659
0.0343334
2.71278
2.8243
0.436289
6.76593
0.0238047
0.0222896
0.042504
0.0219749
5.12003
0.0222714
0.0222384
2.51248
2.89592
0.0229691
0.0218892
0.680047
0.0515108
0.02218
3.24007
0.0226008
0.0262897
5.31601
0.0250615
0.0222404
3.67693
2.1862
0.0477489
0.0220417
0.0221203
2.30826
3.83076
0.0219795
0.953817
0.0218276
0.0220362
2.69067
0.0218043
2.44017
0.0251992
0.209381
6.16623
3.90339
3.08684
0.0219682
14.8504
0.0220502
4.1734
0.0796982
4.08054
4.21512
0.0218312
0.0217199
1.07437
2.14219
0.0246585
26.8628
0.0229343
0.0240884
0.0218561
2.4896
3.86021
8.58414
0.0225165
0.0224286
3.1019
2.08363
0.0258862
0.0229176
0.0218962
0.0218237
2.09642
2.35533
0.0220568
0.021979
4.51145
0.0218632
5.63392
0.0218839
12.2963
0.0497705
4.4289
0.0294657
4.16577
3.82803
0.0270322
0.0679762
0.0238875
0.0605244
0.0237221
0.022123
0.0293223
2.53147
0.0217113
0.0232271
2.12002
0.0218399
0.0222218
4.16621
0.0219265
2.03214
0.0223732
0.0226833
0.0219322
0.0285076
0.0225431
0.0222918
0.981069
0.022082
0.0408984
0.0221066
0.0302162
2.08091
0.0222827
4.178
0.0271037
2.70862
3.67446
3.67077
4.21315
0.0291698
0.0878999
0.043174
4.41647
0.0222286
0.128956
0.0241689
0.164261
0.140687
0.0612591
0.0222349
0.753608
0.173686
2.71709
0.0221422
4.00598
0.0246717
0.110751
0.0220942
0.0886202
2.04242
0.022216
0.0219512
3.77815
0.0218901
0.188667
0.0218826
0.0288619
0.0224417
0.0408318
0.0219276
0.289854
0.0222749
2.71126
0.0221668
3.73791
2.3644
2.70486
2.02738
0.0231614
5.18313
0.0595302
2.54226
3.53408
0.0218844
0.0416453
0.197945
0.0228959
0.394936
0.0224106
0.0222023
0.0228697
0.0220829
0.0222802
0.0224255
18.3431
0.0218323
0.021974
0.0276576
0.0245332
0.947228
2.69405
0.0222508
0.0821445
0.291267
0.0612909
0.0221075
4.81597
3.30484
9.17979
0.367889
0.0430074
0.023922
0.0299611
0.0338647
0.0224466
0.613291
0.0220376
0.0224391
0.0217645
2.92681
4.30951
3.77171
0.0301132
0.0220359
2.29335
1.83476
4.99023
0.0308918
0.0460302
2.97826
0.022057
3.78187
0.0245502
0.0235933
0.0227838
1.10898
1.75144
0.0223747
0.247618
0.0298685
0.0229124
3.1971
0.74489
0.022068
2.55847
0.033166
2.66695
0.0223138
13.4026
0.0405633
0.0301475
0.0224188
4.62975
0.0555646
0.067301
0.0884466
1.93274
0.0246371
3.59991
0.0223778
0.0306963
2.73426
0.0280556
0.0220341
0.0493415
0.0229026
0.0793528
0.0219676
0.022086
1.32991
0.970528
2.00927
0.0222659
2.03793
0.0218741
0.467193
0.0491969
0.0217718
0.0221608
0.0229093
3.14676
0.022664
0.0941489
0.113772
0.0431183
0.0220794
0.0219562
0.0241728
3.15633
0.0220359
0.0318976
0.021821
2.68129
0.0222719
0.0236879
0.0225076
0.0218393
6.30971
0.167103
2.22324
0.0259566
12.2469
0.0328008
0.0218137
0.0320117
1.71153
0.024976
0.0222003
3.31225
3.25881
0.0220644
1.99852
12.245
0.0224193
0.0224403
0.0638994
0.0227093
0.0220674
4.54986
2.43456
3.5764
3.47283
0.0220554
20.9474
0.0220237
0.0220036
0.0218073
1.71845
0.0222068
0.0221797
2.94543
2.11203
0.0234601
0.523582
0.0318917
0.0220579
2.80731
0.0266687
0.771226
0.0227887
0.580156
0.0215712
0.0248193
0.0222857
0.274475
0.0220933
1.80757
8.80361
0.156017
2.2726
2.06049
0.0286656
2.37831
3.38185
0.11353
0.0228327
0.0221319
2.81741
3.08226
0.734769
0.17005
0.0657037
0.0220582
0.0265364
2.7721
3.98207
0.0220352
0.0244245
2.40251
2.71275
3.68137
0.12763
0.0222689
0.0235542
2.0902
3.72552
0.0218824
0.0289572
0.0218548
5.43934
0.0220996
3.93537
0.0674576
0.0220636
0.0221628
2.04243
0.0220487
0.0264131
0.0220845
0.0221075
0.0220627
3.0479
0.108041
0.445273
2.80625
2.07363
3.13379
0.0222841
2.49269
0.0267711
0.0265091
0.605142
0.0220545
0.0221382
0.0218739
4.93375
2.61625
4.38683
0.0220576
0.0290812
0.0217973
0.0218126
0.0215403
0.0239039
0.0410363
2.65411
0.0314482
0.0220069
0.26835
12.3696
0.0523698
0.0220084
2.57976
1.9399
0.0220334
1.67202
0.62368
0.0507343
0.0285942
0.0221576
0.023834
0.117532
1.88282
3.85069
0.0221934
2.68852
3.37125
4.11219
0.0224353
2.2232
0.223789
2.768
0.059224
10.7267
0.0219182
2.15285
3.67076
4.07988
0.0222112
0.0219603
0.0282566
0.333356
0.0223309
0.153938
0.0228447
0.525508
0.0296531
2.68841
2.97497
0.0218784
0.657948
0.0577794
0.121401
0.0924751
2.60066
0.0220494
0.149923
0.10082
0.407107
3.99362
0.0221548
6.74782
2.70501
0.0220902
3.20244
0.216786
0.0218902
2.70315
3.82299
0.0226936
0.0422665
2.16148
0.0220819
3.24892
0.0221719
0.0220654
0.0221187
0.0339815
0.0220117
0.021605
3.1967
0.0222925
0.0252273
0.0223586
3.16785
0.0420302
0.0220499
0.0218839
3.38024
0.022374
1.42378
3.14517
0.030565
4.2895
0.0238129
0.0296821
11.4303
0.177107
0.0289996
0.0220401
0.0300417
0.0298486
0.477912
0.0227186
0.0220277
0.0569556
0.0222233
3.10545
0.0527726
0.0223134
0.0220752
0.0282356
0.0282915
2.27727
0.022117
0.0218499
3.4674
0.022071
0.569766
13.2066
0.0274404
2.5725
0.0221616
2.00023
0.0221285
0.0950419
1.32228
0.490881
0.0418742
0.0219895
0.0929591
0.0227451
1.83604
3.82988
10.2211
0.449458
0.0547731
0.0230323
0.0243948
2.13454
2.56277
0.0220414
2.83316
3.80577
0.0218504
0.0757723
0.444672
3.23924
0.0218923
2.36066
2.75676
2.07222
4.11199
2.86836
6.81956
0.0555398
0.022055
0.026315
0.0407308
0.0220499
0.0227208
1.95045
0.0225588
0.0682092
3.44162
0.955177
3.00175
0.0402846
8.85469
0.181001
0.0900888
0.0222816
1.66791
0.0220578
4.56395
20.8731
0.022203
0.104189
0.0221879
9.28705
3.71215
0.653762
5.24615
0.0216889
0.0224589
2.05148
0.090012
4.21744
0.0216815
0.0220277
0.0220785
0.0242452
0.0553003
0.0219698
0.0219253
0.0271176
0.0249365
0.0221341
0.211377
0.0220577
0.0293742
0.0220748
0.0224999
0.215861
4.53883
7.37219
2.21047
8.29947
0.768024
0.513896
0.02452
0.0588872
1.9803
0.0226529
0.0220176
0.0220677
0.0225863
1.22525
0.0923711
5.9123
0.0584518
0.0261765
2.05545
3.26915
14.4977
0.0984434
2.50585
0.0230197
0.022058
0.0220574
0.0222945
0.0219829
0.161051
2.17788
0.0943629
0.403156
4.80196
2.96898
0.0276707
0.0220535
0.101094
0.0281162
0.0779284
1.84722
0.0300248
2.77086
14.7686
0.267977
2.15595
0.0215986
0.0219215
0.0277697
2.85633
0.0239833
0.0221287
0.0225261
0.0266998
0.0220538
2.77902
0.0234747
0.0222808
0.0219698
0.258756
0.024428
0.026371
1.80419
0.0218398
0.386991
0.0300095
0.0558794
0.021984
4.4356
0.022217
0.129709
1.82024
2.73116
0.0218633
2.77847
0.0346631
0.0237975
0.0344947
0.0228946
0.0700683
0.024237
0.0219078
2.32782
0.37134
0.023393
2.49843
3.12245
0.0220904
0.0220892
0.0386271
0.0223751
0.0226692
3.86035
0.0215457
0.0220491
0.0221673
4.19296
3.6421
0.0330007
2.8977
0.0409036
0.583293
2.96007
0.0233029
0.0221871
0.208682
0.0234018
2.73253
8.06441
2.82582
0.0220445
0.0572895
2.26391
0.0220621
7.33626
2.31639
2.9645
0.0221549
0.022077
4.11361
0.0278958
0.0217697
0.0305051
0.0223499
0.0223739
0.0234987
0.0221266
2.02165
0.0581057
0.0220527
0.481244
0.022069
12.64
0.0538665
4.86925
0.0225541
3.00343
0.196358
0.0220569
0.325907
0.0220292
3.51021
2.74959
0.0232983
2.85328
0.021952
0.0220454
5.97395
0.0220033
11.4973
0.0419106
0.0221924
2.74774
0.0218709
0.0712266
0.0220977
0.0229539
0.0231239
0.0315999
0.0221052
0.0219744
0.0218761
0.0219868
0.0224742
2.69068
0.0220744
3.14227
2.14275
0.0237152
3.24078
0.0219652
0.0219532
3.84283
2.43841
0.497158
3.71135
0.0247424
0.0229867
0.0453864
0.0220683
0.0295308
0.0222017
0.0834048
2.70547
0.147759
0.0279284
0.0246848
8.77346
1.92422
0.0347448
2.88349
0.0315883
0.170364
3.24964
17.6843
2.61996
3.32875
0.0547857
1.95591
4.39169
0.0452096
0.022064
0.0220205
4.61973
0.02461
0.50387
2.64226
0.0408968
0.0245203
0.0220545
21.1986
2.59181
0.0397657
1.99196
0.0228306
0.0231381
2.02092
0.0219574
0.0220531
3.55335
0.022749
0.064845
2.092
2.82105
0.0227567
0.0222811
2.50767
0.111573
1.97966
0.0219741
8.01029
0.34772
1.73951
0.0221784
4.4236
0.0218057
0.0238029
0.0224188
0.0220652
0.11159
0.0219795
0.0221924
0.0222883
0.023
2.78893
4.20908
0.0221753
2.71695
0.096542
3.29936
2.93927
2.5343
0.0218384
0.0218983
0.464633
0.0229605
0.0222891
0.021948
0.0245961
0.158346
0.0221512
2.2269
1.87233
0.022275
0.0241013
0.0220411
0.0220762
0.208673
3.89016
0.0220539
3.11348
2.37479
0.0220396
3.11059
0.0220199
2.47219
0.0220485
0.0215813
2.00109
8.73341
0.0221395
1.95976
0.0235196
2.6056
0.0230321
0.0560312
2.09306
0.028163
0.781753
2.36404
0.0227699
0.182001
0.0321085
2.90221
2.96686
0.0229305
2.97684
0.0227268
0.0273214
0.0220986
0.0676254
1.9445
0.0243002
3.27125
2.14704
0.0419814
3.24174
0.0221922
1.93109
0.0220779
0.185633
0.0226921
0.0217946
0.0907718
2.16791
4.36907
0.0300935
0.107671
2.86567
0.0241219
0.101715
2.74307
0.678852
2.46885
2.43424
0.149958
0.0580893
0.0218756
0.0220581
5.17059
2.17259
0.0220167
0.232878
2.61246
0.0466306
4.11775
0.236441
2.99387
2.91303
0.0259702
2.1018
0.0303015
0.0947216
2.38794
2.65306
5.25633
0.102318
1.94006
2.72738
0.0248811
0.0219691
0.0223269
0.0271778
0.0219929
0.0218412
0.658796
17.8235
1.6749
0.0220623
3.2495
2.3182
0.0954758
0.430347
0.032204
2.87978
1.97545
0.0220518
3.73428
0.116007
0.0220161
0.021599
2.07523
0.0219147
13.1727
0.0229112
0.0219496
0.0224319
1.99202
0.970927
0.0530478
0.498957
4.8772
3.71031
2.7295
0.0219758
0.229254
3.13686
9.15998
0.0221842
0.0919512
2.07585
9.50051
0.0220377
0.0222744
2.35997
0.438951
0.0530579
12.5149
2.72797
2.10421
0.0220546
0.0220409
0.0220929
0.105042
0.846335
0.0227743
0.0221692
0.216162
0.108795
0.0602394
0.0220872
0.0225321
0.0220412
0.062351
0.0216242
0.0996088
0.0222734
0.0221049
8.97474
4.14104
2.71822
0.0219853
0.0345991
3.14185
0.0229353
0.0224666
0.0217722
0.0225297
8.88532
0.0220138
0.0220583
0.0222568
0.0221896
0.0219898
3.4653
0.0217685
0.0889262
0.308204
0.0220335
0.0222945
0.0224291
0.175359
0.147768
0.0222773
0.0220911
0.0533315
0.588893
0.0222954
0.0692553
0.0273762
7.80696
0.023834
0.0613424
0.0218758
3.36209
7.53507
0.185284
0.0222718
3.45909
0.0389286
0.0221
0.088448
0.0222786
0.0220101
0.10871
0.0518617
0.0420021
0.0221705
0.0221363
0.021985
0.0694327
0.0216012
0.73545
2.32899
0.0322497
0.0291233
0.0223955
0.178139
0.0222304
0.0221498
0.0222397
0.0556871
0.0270385
0.0248897
3.19432
0.0221038
0.0929773
0.0216173
0.0228819
0.023707
0.0948356
0.0220541
0.0219857
0.02573
0.0281047
0.0220971
5.93665
0.0221122
2.17583
0.355951
0.0220926
2.27643
2.52746
2.8111
1.67053
0.0286611
0.022028
1.04694
0.147091
0.026109
0.0219368
0.0369517
0.213995
0.0220598
0.0219916
0.022235
0.0222786
0.25299
0.0220545
0.02348
0.0220875
0.0219488
0.0291892
0.0433114
0.0256853
0.622516
0.0968172
0.0220494
0.0229427
0.0220515
0.0522916
0.0225225
1.7906
0.0220172
0.0220584
2.30949
0.108434
0.0219766
0.0220566
0.0218281
0.0220201
0.0285232
0.0216355
0.0221454
1.87718
0.0653191
3.75308
0.181052
0.0220636
0.0220333
0.060916
0.0243382
0.250442
0.022057
3.41634
0.021985
0.0219966
0.0282836
0.213976
2.7225
1.68681
2.64159
0.0220136
0.0234585
4.72574
3.20214
2.24907
8.50548
0.0216052
0.083294
0.0233908
0.0230513
0.0220833
0.0260236
0.0219582
0.0226707
2.45207
0.0217811
0.0218834
2.48921
0.0249717
0.0220311
0.022062
16.0481
0.111366
0.0218009
0.0774728
0.030249
0.139659
0.752619
0.0222776
0.076106
0.0219368
0.0928774
0.0437546
3.54772
0.0220746
5.27555
0.022063
0.0226965
0.0220005
0.0222812
0.0220973
0.0219624
2.3117
2.64466
0.0222747
3.28338
4.81225
0.0217736
0.0219343
2.72634
0.238279
0.095913
1.83659
0.0435327
0.0219538
0.0220269
2.56596
0.0221236
0.104968
4.18883
3.53481
0.0225871
0.024586
0.354379
0.0848697
0.0413726
0.0581593
0.0307782
7.96374
0.0222712
10.2956
1.78103
2.72368
0.0220697
0.54185
0.022973
0.26279
0.0221694
0.100122
0.0219323
0.525218
0.486888
0.0225143
3.41963
2.26993
0.0220196
4.42291
0.0219521
0.0231024
0.0221116
0.318741
0.0220382
3.43306
0.541809
13.5471
0.0222754
0.0221036
0.0306796
8.26497
0.0296914
0.0851655
0.0220632
4.72868
0.0239902
0.105517
1.97181
0.02214
4.84871
0.057409
0.116532
0.0220698
0.0260443
0.0337404
0.0229551
0.0550095
0.0220915
0.0219711
0.234741
0.0219126
4.84163
0.159962
0.0605284
2.0635
0.0277531
2.05337
1.98258
2.73675
2.47427
0.0225762
0.557788
2.62056
0.0271934
0.0222178
0.0229753
0.0222364
0.0247819
0.225525
0.0384478
0.0649557
0.10745
7.3152
0.0217136
0.0746433
2.79162
3.20469
2.16149
0.0219756
0.0221051
0.0217182
3.06797
0.124585
0.133596
7.6826
0.0458859
0.0321591
0.0219415
0.0425845
0.0232332
2.69134
0.0400198
0.0217965
15.2681
0.0349732
0.107732
0.0357525
3.5742
0.023655
0.0216671
0.0220824
0.0246779
3.37935
0.0218329
0.0220337
0.793268
0.0380275
0.0219149
0.0216518
0.0382125
0.126669
0.0461971
0.154473
0.0227062
0.0218623
0.0380444
0.101352
3.64396
0.111736
0.816817
0.0219998
0.0216471
2.45444
0.022155
0.0218145
0.021889
0.0235816
0.0360247
0.030926
5.18831
0.436137
0.0937486
12.9413
2.89749
0.0220562
1.94279
0.139508
0.474739
0.0220276
0.0217549
4.03642
0.0264626
0.0242393
3.94069
0.0219949
0.0220519
2.64258
0.1559
0.0696546
0.0220957
0.0216863
9.33211
0.282959
0.0221061
0.0271294
0.0220533
2.95033
0.214773
0.0436807
0.0220857
0.0221496
4.02709
2.84215
0.0244202
0.0219753
0.0227856
0.0228335
0.0404106
4.80536
3.15521
0.0219015
0.0220726
4.80519
0.0362325
0.0229934
0.0280959
0.0233904
0.0223569
1.92799
0.0221602
0.155193
2.76304
0.0220703
0.0220711
0.0221397
2.64147
0.0217943
2.272
2.3183
0.314179
0.022283
0.424414
3.60776
0.0215703
4.16173
1.81455
3.65176
0.0221755
0.0221155
0.420048
0.0221577
2.82157
0.274561
5.75147
0.0220608
0.0299526
3.51195
2.56412
0.0299099
0.022111
0.057967
0.0221193
2.18153
2.54027
8.53259
0.0615284
0.0247089
0.022277
4.00313
8.77154
0.0220757
2.58558
0.135315
6.02729
0.025794
0.0220549
3.48813
1.93762
0.038911
0.789248
0.0238324
0.0975354
0.0407756
0.0411261
0.0222427
0.0220582
0.0270218
2.35669
2.84551
6.52151
0.0284136
2.8511
0.0222888
2.46016
0.0220504
2.16927
7.15922
0.0220637
0.0271789
0.0219361
0.0220584
0.022066
0.541858
1.84348
0.0219585
3.31796
0.0220608
0.0291977
6.23227
0.656876
0.0402776
0.0605569
1.80205
4.61998
0.533954
0.021988
0.0221504
0.0220328
0.0219787
0.02204
11.2501
0.021604
0.0227211
0.0216063
0.0254114
0.0236221
0.063708
0.0304731
0.0221113
1.79111
0.0220425
0.0249217
0.0313152
2.03648
0.0217101
0.0221776
0.0231311
0.0227873
2.57312
0.077472
0.0220979
0.0220805
0.190341
0.0218945
0.0220798
2.73763
0.247076
10.1394
0.0245445
1.92145
2.72449
0.0282618
0.0227539
3.37627
0.0215826
0.0220682
0.0221109
0.533772
4.60863
0.0235344
0.0821166
3.26238
0.0281499
0.0219952
0.0237493
6.68413
0.0220311
6.28488
0.0222786
0.0677981
3.84985
0.0245053
1.92162
0.140371
0.858672
0.0515534
0.021957
0.0229714
0.0454088
0.0220802
5.75055
33.964
0.0223601
0.0222891
0.0393243
0.0257598
0.29827
0.593233
2.33096
0.0221047
0.0221754
3.45084
0.0221952
0.0448104
0.0303561
0.891689
3.01302
0.252495
0.0269529
0.111862
2.19465
0.0696627
0.0707831
0.0222818
0.0389161
0.022363
2.48162
0.0238369
8.14161
0.0652886
0.0219909
1.3449
0.0230471
0.0221544
0.0424108
0.0277612
6.00636
0.0220174
0.0224745
0.0220832
2.87335
0.0217013
2.29761
2.12813
0.0220675
0.021705
1.99492
0.0233295
10.5667
3.42521
2.59195
0.0703863
1.92686
0.414934
0.0219954
0.0220307
0.0563984
0.0220766
4.11676
0.0222809
0.111605
0.0369084
0.0536314
3.15721
0.0573746
0.0220738
0.0219783
3.34674
4.09815
2.96347
6.03219
0.0296628
2.10892
0.0221342
2.1371
4.09633
0.237491
0.0962434
0.486341
1.73074
5.8424
0.0220723
0.066857
0.02358
0.0220034
0.0230675
0.0218444
0.0226922
9.49635
0.0219935
0.269056
0.374468
4.35165
0.639712
0.0351769
0.0316101
0.0234616
0.0220532
4.59858
3.02831
0.112581
0.0221675
5.02871
0.301859
0.0306615
3.16863
2.71761
0.0220562
0.0222636
7.96339
2.7556
0.0220347
0.0219118
0.0500395
0.0217644
2.85192
0.294361
0.039224
0.022053
2.72284
0.0218987
0.0238485
0.0263376
2.58384
0.0927106
0.0485841
0.0264048
0.0591825
0.106964
0.0226905
1.99621
0.126352
2.38581
0.0589391
3.24553
1.74412
13.7161
2.69781
0.0240035
0.0292015
8.53025
9.41084
3.63234
0.0496772
0.0220869
0.022628
0.0793183
0.022092
1.78529
3.35415
6.67382
0.0228707
0.023231
0.0222025
0.0241742
2.04474
2.70146
0.0218134
2.71289
3.00057
6.064
0.0462306
2.71102
0.0226322
0.022068
2.99978
0.0219548
0.0225506
0.0225987
2.6507
1.6878
0.027086
0.0645463
2.856
0.0222734
0.0473528
0.0325617
0.0242446
4.18062
2.46266
0.022068
4.63961
11.6393
0.0221974
2.28893
2.64061
0.109268
0.0270899
0.0259623
2.56213
0.0238326
0.0219438
0.0220906
0.104562
0.0407914
2.10699
6.40703
0.0222469
0.0231987
3.32854
2.72834
3.19038
0.0221904
0.0981618
0.0218866
2.98218
2.72979
8.62627
0.037939
0.0222699
0.0216744
0.022084
2.53446
0.0226936
0.0220175
7.18392
0.0221494
0.0218427
0.0322911
2.54109
3.62156
0.410359
0.022131
5.28014
0.0216976
0.0215099
0.236189
3.00029
3.52553
19.1236
0.025366
2.22915
2.60329
0.0219886
0.514272
0.0221991
0.0220659
0.0219643
0.0220777
0.0221095
0.0218556
0.038059
4.75902
0.0219817
0.0219783
0.0233273
0.039126
0.098531
0.0220817
0.0221157
0.0220473
2.6861
0.0219372
0.0219554
0.024551
0.0222377
0.323248
0.0220962
3.42621
2.77162
0.0310868
3.72891
0.0219034
0.106953
2.4434
0.0220591
1.73351
0.264637
0.107952
0.0222673
0.0217547
2.56499
2.70034
0.0613939
0.0217665
0.023909
2.10773
0.0222372
2.86137
0.02201
0.0221261
0.0221377
1.88589
0.0239611
0.0219525
0.0220455
0.0647716
0.0774595
0.0289531
0.207455
8.00968
0.02218
5.59463
0.0220578
0.079138
3.98806
0.0281605
2.76546
2.69546
0.0325794
0.0222225
0.0220407
2.47009
6.81315
0.0239822
6.49854
4.58862
0.0221089
0.0219864
0.317445
0.256183
4.39937
1.84565
0.0221215
5.16141
0.0222784
0.0220489
0.0223803
0.0260747
0.0220501
0.0229194
0.0221475
0.0221708
0.0239512
0.0220293
2.42861
0.0221236
0.112888
0.0220299
0.0222273
3.78884
2.36508
3.4404
0.0266404
0.0797734
0.039227
0.0221542
0.022248
0.0287202
0.0689148
0.0827937
6.11279
3.73583
0.112091
19.3012
0.0224797
4.4899
0.0220747
0.0261467
4.80309
0.0271669
3.04711
0.0221019
8.78555
2.56794
0.0748219
2.77786
0.0602644
9.08299
0.0217948
0.0215677
0.0220288
12.4257
0.191391
0.0312701
0.0220602
0.0233319
0.0220715
0.0223128
3.72375
0.628866
0.0225306
0.260546
0.0220236
0.091517
0.460597
2.64424
0.0216749
1.79283
0.02188
2.65251
2.39194
0.0452621
0.0687986
0.0246451
0.104487
3.29059
2.97194
0.0242373
0.026598
0.0239752
0.0318148
0.0276044
1.93514
0.0346819
0.090251
0.0220473
0.0223245
0.0421942
0.0222418
0.0219452
0.0538258
1.91817
0.0216249
0.0696924
0.0844407
1.48241
0.174241
5.50501
0.117573
0.0347288
0.022038
4.76212
0.0218481
0.022283
0.022127
0.0222129
0.0324082
0.0305236
0.0222229
0.145861
0.0276964
0.188248
3.96383
0.054501
1.96462
0.0220512
2.25548
0.0749522
0.0269813
0.0222147
0.097682
2.6829
0.0219141
0.0287421
7.23509
0.0387864
0.023105
0.148865
3.2918
0.0220575
0.021896
2.63066
5.55347
2.67681
0.0346662
0.0220296
4.99627
0.0217839
0.0220613
0.0221616
0.0232025
0.0550246
0.0221143
2.77007
0.0273701
0.0787402
0.0219314
0.0221655
0.0233607
2.56168
1.80404
2.72384
0.0224582
1.84462
0.474961
2.4846
0.022072
0.0240739
2.27057
0.0221715
2.48683
1.96572
1.99337
0.0226032
0.0215903
0.0219505
0.0224247
0.022399
2.02179
3.999
0.031748
2.66044
0.0226437
2.14516
0.021965
0.0220785
2.48386
2.69138
0.0216593
0.0273807
0.375971
0.0221868
5.1258
0.0304081
9.85069
0.0221107
6.40136
25.9485
0.0240497
4.54849
2.04122
12.6826
0.378889
0.0726252
0.0834569
1.79547
0.0220622
0.0220039
0.0220623
3.16443
0.0220577
0.0223985
0.0222043
0.065171
0.0220692
0.0216042
2.65669
5.81293
0.191373
3.30602
3.81022
0.0222854
0.357399
6.46404
0.0376769
0.0219571
0.0219132
0.0286723
4.4237
21.0233
3.42781
0.0219483
4.05433
2.51491
2.91124
5.47037
0.0222611
0.179303
0.0217973
0.0219796
6.32277
0.208201
0.059343
0.0220507
0.0221254
0.0372428
2.20998
2.06571
3.04715
0.0221658
4.78874
0.0220305
0.6503
2.25883
2.32701
0.0219367
0.0221126
7.33852
0.0219526
2.02298
0.0219449
4.23635
0.0221536
0.0731416
2.47893
0.0240035
3.67756
0.0409028
3.31791
0.0220585
2.526
0.0225565
2.35867
6.27229
14.7583
2.11192
0.0221321
1.74781
0.292749
0.0423509
0.142935
3.98435
0.0249063
0.0219557
2.50871
0.0227886
0.0228128
2.08623
0.0222793
0.0222797
9.05568
3.81542
2.6915
0.0220836
5.39882
0.0220786
0.0260637
5.11572
0.0243806
0.0222298
2.14785
2.00748
0.227594
10.7563
0.0220254
0.103341
0.975607
2.19816
0.0384333
0.114502
2.59448
9.07329
3.16361
0.0217525
0.0236319
0.0297017
0.0227819
0.021976
0.0277499
0.0221028
3.19681
2.16674
0.0334435
0.021781
0.0223991
0.0342383
0.0220756
4.11226
0.223804
0.682999
0.187414
0.0220275
0.0220023
0.367343
0.0223434
6.98205
0.0220705
6.33748
0.180848
4.47679
0.070731
0.0222403
0.0587992
5.18706
0.0788556
0.0220451
3.22217
0.0218636
0.0260365
0.0396663
0.0450205
8.19557
2.18623
0.0465389
3.70835
2.80808
0.0324849
2.59202
0.0969746
2.88682
0.0572376
0.0215751
2.72311
7.09874
0.0266431
6.35438
0.0509466
0.0442903
0.0483453
0.0285779
1.84376
0.0221349
0.0216846
0.0221026
0.162417
1.93443
5.75551
0.0219292
2.66803
0.159884
2.99662
1.88332
0.599046
0.0221232
2.98562
2.55368
0.0221949
0.0534248
0.0221608
0.0231759
0.0221574
0.0343277
7.24394
0.0327981
10.419
0.0219278
0.022074
0.177833
0.240147
2.85751
0.0263844
0.0225889
2.80097
2.72097
3.31296
1.89832
1.92483
6.74407
0.0607522
0.0222928
3.62768
0.0220242
3.44694
2.0721
0.765164
5.69077
8.70652
0.0220232
0.0221693
9.36467
0.238943
0.088981
0.0222139
0.0222479
1.97629
2.71101
4.06065
0.047585
0.0294161
0.0219396
0.0220328
0.0219564
0.0221739
0.0412663
0.0220188
1.7649
11.0058
0.0222117
0.0220684
0.0219498
0.751264
0.0488937
3.46957
0.022086
0.0224625
0.319
0.0220099
0.278417
0.0787104
0.0757955
0.139536
7.04638
0.0220298
3.09898
0.0408518
0.0220605
0.0387862
0.0223684
2.70954
0.0238713
1.82717
5.56398
0.0220266
2.69123
0.0238398
0.163366
0.0738068
0.226295
0.075063
2.11135
0.0216918
1.97787
0.028707
2.83102
0.0238518
10.8713
0.0975188
0.0288205
1.89129
0.284149
0.0219878
0.0254595
5.79333
0.0499686
3.42889
0.0453858
3.16301
11.1588
3.51821
3.53489
1.76319
0.0221417
0.0220222
2.09072
4.00782
3.8852
0.0220718
0.0219808
0.0711842
5.03147
2.7228
3.35625
2.0323
2.8372
0.0475082
0.0218082
0.0225524
0.0377607
0.0463067
0.0216697
4.35021
0.184304
0.429478
3.61895
0.0219819
0.0217723
3.4585
0.0730336
0.0220951
2.57049
2.03685
0.592852
0.0235379
2.23764
2.16798
2.54843
2.55858
0.0220899
0.033602
2.31897
0.0327657
0.0276813
0.286182
0.451112
0.0380167
0.0663791
0.0217552
2.45487
3.03655
4.95119
0.0220594
0.0465915
2.28303
0.279797
3.81283
2.60548
11.3704
0.0220494
0.0365577
0.112862
4.33015
0.0244952
0.0331808
0.0222607
0.022024
0.0221718
1.93984
3.00951
3.7295
0.0711384
2.09579
0.0221336
0.0243116
0.0234871
0.0366843
0.0228269
0.0775368
0.027463
0.0283816
0.0221935
0.0238303
1.25238
5.39138
0.0220882
0.0222322
2.85196
6.09739
0.0231521
0.0376255
0.0250927
0.0218415
0.0222361
3.82003
5.91114
0.438457
0.23123
7.56789
0.0635148
1.83147
7.10444
7.77442
2.69712
0.0221209
0.401863
2.67006
0.0221547
2.59938
0.0220279
2.61284
0.0221404
2.90097
3.72275
0.0218617
2.36916
0.0519164
5.47581
0.0378966
0.022124
25.3114
0.0220306
0.0219682
1.85696
4.40754
0.0217695
0.58234
0.0571854
0.0227723
0.0227029
0.029496
2.10911
0.0237899
1.88818
0.130406
0.0221013
2.4806
2.71225
2.07359
0.024453
0.0221091
0.0222331
2.9455
0.0229777
0.0270169
7.83391
3.05976
0.0246528
5.20754
0.0289445
0.0235614
2.53824
0.0220599
0.740535
1.955
13.1975
3.99647
0.319229
0.0221813
0.0223547
2.21701
0.0291704
0.0232356
3.63961
7.80231
2.15121
0.0219574
0.0221089
0.0292931
0.430318
0.0282495
0.024113
0.0283811
0.0220439
0.0456328
3.84544
2.58025
3.80001
0.0221887
0.0389965
0.0220564
6.72473
0.35369
0.0222471
0.022482
0.028841
2.90046
0.0599894
0.0227008
0.0302907
6.16782
0.0303398
2.67508
0.0329024
0.0221389
0.0217928
2.79701
0.0646515
3.03338
3.59288
2.15013
3.81776
0.0299597
2.17939
2.74388
2.03237
3.31554
15.0857
2.00196
0.756983
0.022465
0.0227609
2.97057
0.0217368
0.0813404
2.92586
2.66481
0.0222307
3.34564
0.0832426
0.0281726
0.232461
0.120804
4.30127
0.0221748
3.08299
6.83589
2.64984
2.66215
0.0227005
0.0222404
2.32036
0.0753531
4.28604
3.1132
0.0220546
0.0221503
3.32071
1.96787
3.24656
4.06054
2.0591
2.82296
0.0221066
3.23104
0.03153
0.0219533
0.0234031
3.14845
0.0220822
2.73762
0.0262837
2.85172
2.67238
0.224237
3.33625
0.211217
1.74006
3.04426
2.02983
0.157542
0.528879
0.0291799
0.0222906
10.9384
5.88464
2.13702
0.0220687
2.16435
0.0233026
2.29666
2.23763
0.0216705
2.91245
0.0233028
3.84268
4.18252
5.68395
5.30498
2.79613
0.0811887
2.63483
0.0234537
0.0270086
0.231389
0.0220603
0.0221456
0.137098
0.0222742
2.85477
0.178614
3.54225
2.12056
3.40758
0.033042
3.0846
0.69899
0.100653
2.56862
0.0219285
0.405241
3.20653
2.70119
0.102504
0.0215741
0.0898537
0.0222509
0.0434252
0.235775
2.77289
0.0217542
3.41428
3.17124
8.2935
6.1359
0.0261346
0.665415
3.02059
0.0318656
0.023671
0.0221565
2.37474
0.0580623
2.57293
0.0260192
2.77008
0.0254912
3.02656
2.67204
0.0385533
3.32104
2.06769
0.0303509
0.0220528
14.4217
4.84774
3.97199
0.0259756
2.91803
0.0221528
0.0221994
2.59888
5.67979
2.00877
2.64345
0.290315
0.244894
0.0220639
0.130776
3.08476
2.548
0.022074
0.0305379
0.0939636
4.46146
3.55649
2.38131
0.0429302
4.46156
2.81415
0.0220292
0.023409
9.76755
3.57868
0.0243
0.0229009
2.74386
0.0219225
0.0220472
0.0418839
2.86609
0.0221055
2.82034
0.0219854
0.0220701
0.0221153
0.0222086
0.0221177
1.78622
0.0269886
1.53364
2.06488
2.51341
2.78941
0.0229283
3.74959
0.0218769
0.0459049
12.579
0.0394675
0.0225675
0.0261345
0.0217761
0.108796
0.022057
0.027655
2.70771
3.94341
2.77203
0.0534811
2.97948
0.583973
2.86064
0.022061
3.23619
0.0220584
0.328647
0.255872
0.145644
0.0219975
0.347441
0.0412544
0.0221823
0.351992
0.0219718
0.0485396
0.0222284
0.151811
9.83047
0.022392
0.0271875
0.46941
1.12023
0.0912445
4.65693
0.0263007
10.8366
2.6236
0.0226852
0.021855
0.0332989
2.64265
0.438718
0.150535
0.0221656
0.0221648
0.0699163
3.00217
1.81074
2.83257
2.70485
0.0220741
4.99638
0.0221797
0.0261937
0.0219965
0.0376647
0.0295071
0.0282706
0.0308776
0.292868
0.0219251
0.0241539
2.45843
0.0220553
2.68958
2.64941
4.52984
0.0378802
2.05388
0.0217915
0.0220323
0.0220517
0.0520818
3.46692
3.55161
3.43144
0.0296637
0.0222953
3.81262
0.0220693
2.80878
0.0261668
0.0219816
0.0221519
0.355265
3.9264
0.732852
0.0270238
0.0221656
0.0223958
0.0215541
2.22344