/*--------------------------------*- C++ -*----------------------------------*\
| =========                 |                                                 |
| \\      /  F ield         | OpenFOAM: The Open Source CFD Toolbox           |
|  \\    /   O peration     | Version:  v2012                                 |
|   \\  /    A nd           | Website:  www.openfoam.com                      |
|    \\/     M anipulation  |                                                 |
\*---------------------------------------------------------------------------*/
FoamFile
{
    version     2.0;
    format      ascii;
    class       volScalarField;
    location    "50";
    object      ddt0(k);
}
// * * * * * * * * * * * * * * * * * * * * * * * * * * * * * * * * * * * * * //

dimensions      [0 2 -3 0 0 0 0];


internalField   nonuniform List<scalar> 
18649
(
-0.000765619
3.48638e-07
-0.000471217
3.49757e-07
-1.31223e-06
-1.32201e-05
3.17034e-07
-1.4064e-07
0.00236544
0.0270788
4.51895e-08
-8.97473e-08
-5.53388e-07
-1.27048e-07
0.00327743
-2.37065e-06
-2.29418e-06
3.41542e-07
-0.0027505
3.14299e-07
-1.06865e-07
0.00538987
7.30666e-05
1.14724e-06
0.0271325
4.17649e-05
0.00103265
-0.00596926
-6.42085e-07
-0.00100937
5.04246e-05
6.74365e-06
-2.88454e-06
-2.18623e-06
3.57053e-07
6.10882e-07
0.00338891
-4.52464e-06
5.04072e-08
-8.73746e-08
0.000603918
-2.09523e-07
-4.14617e-06
-0.00892218
1.35567e-05
0.00355443
-5.79903e-06
-1.36439e-06
3.2774e-07
-2.0679e-06
-1.0251e-06
0.000129485
-3.04329e-06
3.00178e-05
2.61886e-06
7.0282e-06
0.0340808
3.11392e-07
7.72005e-07
-0.000181463
6.41584e-07
-2.25013e-06
2.18592e-07
0.0771031
-0.000678762
0.00137113
0.000318301
-1.97112e-07
1.48294e-05
0.00511708
0.00121932
-2.34826e-06
3.38959e-07
3.0993e-07
9.0684e-05
-0.00856683
0.000246177
4.67031e-07
0.00151825
4.05505e-06
3.10049e-05
-2.68859e-06
1.41371e-05
-0.00214652
-8.97001e-08
3.73786e-06
7.69571e-08
-3.95078e-06
4.16448e-06
-0.0247723
0.00166463
-3.3486e-07
-1.89864e-06
-4.79508e-06
8.02103e-06
-3.37752e-06
5.02247e-07
3.922e-06
0.00176862
7.3637e-07
0.000836588
-5.14975e-07
-0.00717835
8.08687e-08
0.0023346
0.00202198
1.97974e-05
-0.0339959
0.000195836
3.23998e-07
1.4539e-07
-6.53319e-07
-4.30515e-06
-7.88215e-07
7.63365e-06
5.74638e-06
-6.02501e-08
-1.04097e-06
-1.07363e-06
1.08455e-07
1.90563e-06
-8.78266e-07
0.000351962
-6.95138e-07
1.80082e-06
3.54066e-08
0.0263212
-8.76714e-07
-5.88615e-07
-1.4155e-06
1.79086e-07
0.0618276
-9.79679e-07
8.68034e-06
3.04691e-07
-0.00196347
-0.00152807
-0.0261035
0.000855968
1.83928e-05
-1.79951e-06
-1.03232e-06
1.39411e-06
-2.12731e-07
0.00156172
1.75438e-06
2.15256e-07
-1.26126e-05
0.00203208
9.92561e-08
0.000114425
-2.94573e-06
-9.56714e-07
3.26444e-07
-1.68653e-06
-2.2749e-05
1.1828e-07
-4.11916e-06
-9.14058e-07
0.00140791
-1.42421e-05
-5.82796e-05
9.789e-08
0.00164835
0.0032765
-9.60259e-07
-5.75915e-07
0.00161264
1.10321e-06
1.05895e-06
1.70127e-07
5.43583e-08
-1.32737e-06
-2.28583e-06
-1.81572e-06
9.86749e-06
0.000468774
3.70136e-08
0.00211596
-4.12596e-05
-1.14478e-07
1.73555e-05
4.8473e-06
-4.03159e-06
-1.30828e-06
4.06608e-06
2.34549e-06
-1.46961e-06
1.78124e-06
3.0174e-07
-3.38693e-07
0.0001898
-2.84903e-06
8.37041e-07
-6.90204e-06
-1.51078e-06
5.72211e-06
4.98188e-06
0.00976534
-1.72507e-06
1.8653e-07
-3.2091e-07
9.54811e-05
3.53638e-07
-1.21654e-06
2.50539e-08
5.17168e-06
-0.000558526
2.18624e-07
-8.63108e-07
1.49572e-06
-4.00192e-07
-1.59088e-07
-5.80099e-07
-0.00269991
-1.18157e-06
6.41983e-07
-2.49678e-07
-3.2793e-06
-5.92771e-06
-1.51915e-05
-1.43992e-05
-0.000762979
-3.12725e-06
-7.3602e-05
-2.45391e-06
-2.37404e-06
-0.007709
8.2712e-07
-3.30702e-05
4.73653e-07
-2.44586e-05
-1.0074e-06
-6.573e-08
-0.0524349
-1.33978e-07
-1.65606e-07
-2.60943e-06
3.25986e-07
2.46238e-07
-8.23729e-06
-0.00098648
-0.00202513
0.000534174
-0.000122002
-4.8888e-06
1.07039e-06
4.31743e-07
0.00783347
-1.37343e-06
-4.13366e-06
-0.00851681
-2.45561e-06
0.000168007
-1.26958e-06
-9.66642e-07
1.37559e-06
9.48164e-07
-2.53256e-05
1.78007e-06
0.000298159
6.54738e-07
3.9554e-07
-6.56444e-06
-5.9041e-07
-2.20663e-06
3.30375e-06
-2.63637e-06
2.54517e-06
2.47848e-06
-1.47364e-06
0.000171827
-6.58561e-07
1.90995e-06
-0.000321798
-1.14643e-06
-1.00822e-07
-1.11798e-06
-7.19131e-06
-1.65452e-06
-0.000171597
-2.10515e-07
0.000457335
6.32206e-07
-1.7082e-06
-1.11409e-05
1.25981e-06
1.63172e-07
-0.00333963
9.65504e-07
-1.7345e-07
-4.88683e-05
2.38548e-07
-1.48931e-06
0.00284742
0.00877262
0.0655471
0.00870403
-1.72408e-06
-2.35611e-06
9.48865e-06
0.000900601
1.35615e-06
7.171e-08
7.39462e-06
-2.60661e-06
-5.02632e-06
-3.97538e-06
-2.008e-06
-3.00443e-06
-1.93173e-07
-0.00543127
7.24146e-07
3.64762e-06
2.0188e-07
-7.06911e-05
-4.46046e-07
-0.0101358
0.000108504
3.55131e-06
0.00354605
1.40548e-06
1.7431e-06
2.53871e-07
0.00787537
-1.25704e-06
-0.00838341
-0.000487845
-2.55689e-06
3.21127e-07
-7.00551e-08
-0.00890729
6.589e-06
1.40203e-06
0.000432229
-2.58255e-07
-0.00292273
-4.90112e-07
-3.27223e-06
-4.99448e-06
-4.98317e-06
5.8228e-05
-0.00761797
-0.00101544
0.026188
1.10064e-06
-4.09261e-07
-1.60862e-07
0.00968292
-0.00315588
-8.16947e-08
-0.00931781
4.31261e-07
-3.7929e-06
-1.29709e-06
-4.72508e-06
-2.01449e-06
-0.00346614
-2.19778e-05
1.52833e-06
-3.91704e-06
-0.0323994
2.94062e-05
-2.81167e-06
0.00216678
-0.000632579
9.41147e-06
-4.37517e-08
-0.000274872
-2.94024e-08
-1.94473e-06
-0.0520907
-1.73617e-05
-2.77039e-07
-0.000776181
2.01178e-07
-0.0072259
-0.000603637
-0.00282888
1.679e-05
1.87299e-05
3.69034e-06
-3.95217e-06
-0.00113467
-0.00236314
-2.62479e-07
-3.88872e-06
-3.34324e-07
-8.15172e-08
2.18742e-07
1.26077e-05
7.19344e-05
-9.60756e-07
1.12503e-07
0.00103667
-0.0066022
1.35172e-05
2.61319e-07
5.45649e-07
7.13515e-07
1.34723e-05
-0.00286222
9.12314e-08
-1.21076e-06
6.33999e-06
2.78269e-06
-9.41467e-07
0.00212527
3.40536e-06
-2.0084e-07
-1.26231e-06
-4.96413e-06
-3.42193e-06
8.22874e-08
-4.37312e-05
-4.58082e-07
-0.00806351
-4.69017e-06
-9.05942e-08
-1.3765e-07
-1.98326e-06
9.52222e-07
-3.41825e-06
-0.00543556
0.00151681
-3.18514e-07
1.44754e-05
0.000162469
-9.94996e-07
0.0164388
0.0227147
1.63661e-06
-2.59301e-06
-2.76045e-06
0.0214076
-7.96504e-08
-6.84643e-07
0.00280377
2.82849e-09
1.07197e-05
1.20543e-06
4.11651e-07
1.97815e-07
-3.53717e-06
1.07397e-07
-2.08293e-06
-1.61596e-07
-2.70624e-06
0.000127928
-2.97596e-06
6.08251e-08
0.00865913
8.49276e-08
9.41546e-06
-1.99043e-06
-1.19748e-06
-7.1185e-08
2.24083e-07
-0.000381165
1.77011e-05
-3.11994e-08
0.00227734
-6.26495e-08
0.000339352
-0.00718891
-3.42802e-06
4.99156e-07
1.62829e-06
-7.76871e-07
-4.33337e-07
-5.38696e-06
4.02111e-07
2.94563e-07
1.79632e-06
3.99076e-06
6.40951e-06
2.66004e-07
-2.05926e-06
-1.73038e-06
-0.00612482
-2.55251e-06
0.00176802
-1.4894e-07
7.69085e-07
-1.14759e-06
-0.000559654
-7.86202e-07
0.00126975
0.00473896
3.42696e-07
-5.05773e-06
0.00499379
3.36248e-06
8.92159e-05
-9.16882e-07
0.000537552
-0.00136449
-6.77865e-07
3.54655e-07
-5.22913e-06
4.42921e-06
-2.08735e-07
-1.40833e-08
-5.70135e-07
8.1943e-05
0.00279294
-0.03107
5.63889e-07
-7.58817e-07
-0.00144662
3.31646e-05
8.43885e-08
1.89634e-06
-2.50843e-06
2.74615e-06
-3.19666e-06
-0.00733407
-1.45573e-07
1.33001e-06
-7.64832e-07
-7.51927e-07
-3.40069e-06
4.13249e-07
0.00110507
-8.40872e-07
-0.000296208
-0.00109141
-0.0330683
0.000607163
-7.82705e-06
3.77544e-07
6.91471e-05
8.34879e-07
3.89031e-07
5.71815e-05
7.86211e-08
1.45522e-06
-3.07457e-06
-0.000455654
3.20747e-07
-0.0173445
5.01985e-05
0.0105636
-5.02263e-07
-5.96638e-08
-4.21936e-05
-0.00556172
-7.47643e-07
-4.32468e-06
7.96253e-07
1.71591e-05
-0.000731117
1.77048e-05
-2.93187e-06
3.98041e-07
4.74715e-05
5.78131e-06
0.00171835
-3.92009e-07
-1.16588e-06
-0.00119456
2.50347e-05
-3.38999e-06
-2.07185e-06
1.13646e-06
-3.31377e-06
0.0220364
-4.34182e-06
-6.45001e-07
2.49429e-06
-1.11183e-07
1.5096e-06
3.59929e-06
8.5137e-07
-0.0096652
1.55058e-07
-0.00794956
-3.50859e-07
0.0126357
2.93903e-07
-4.64103e-06
-1.33002e-07
0.00492663
-1.40369e-07
-3.85671e-07
-1.06613e-07
3.21265e-07
0.000159528
0.004419
-1.50653e-07
-3.97821e-07
1.12345e-05
5.74817e-05
2.50581e-06
0.0010332
2.98615e-07
3.7894e-07
0.000277017
-1.97808e-06
0.00154629
6.01135e-07
0.0169205
2.06845e-06
-1.24878e-06
-1.21948e-06
-2.37342e-05
2.24252e-06
-0.000417823
2.67802e-07
0.00177121
1.24998e-07
0.00470499
5.06309e-07
-1.62886e-07
9.82076e-06
-1.97852e-07
7.99355e-07
-1.49349e-06
0.00234958
2.44738e-06
-8.75087e-07
4.27213e-06
-5.68031e-05
-1.24157e-06
-4.28755e-06
-2.32889e-06
9.07457e-05
0.00189938
-0.00588074
-0.000678227
2.50494e-07
-9.26979e-05
0.0407766
4.81087e-07
-4.42323e-06
0.0482187
-4.84318e-06
1.12442e-05
5.69662e-07
-0.00187268
2.52379e-07
-0.0303016
-4.79397e-05
-8.2029e-07
0.00509217
-1.46745e-06
-4.05315e-06
3.74234e-07
-3.13526e-07
-0.0067273
3.90823e-07
0.00329878
-0.00114621
1.15506e-06
2.1741e-07
-0.00650614
-5.24324e-06
-2.54547e-06
9.69865e-05
-2.02195e-06
-5.63011e-07
-0.0090912
2.48134e-06
-7.56639e-06
2.66121e-06
-1.03762e-06
-4.76818e-05
-8.68266e-06
9.01e-08
3.55961e-07
-0.0013029
-2.03833e-06
-3.66282e-07
-8.94816e-07
-0.0010439
0.00276197
3.07752e-06
3.04264e-05
-0.00478058
0.0012418
2.5025e-07
-0.0118493
0.0177111
3.67436e-07
-4.35724e-06
-5.66976e-07
-2.61129e-06
1.84978e-07
-1.10273e-06
-7.07842e-07
6.10939e-07
2.34665e-07
-1.98921e-05
0.00587248
0.00259803
3.49754e-07
3.45338e-06
-0.0113181
-2.97836e-07
-0.00118713
-6.49372e-07
0.000430079
-2.34272e-07
-0.0125024
3.59696e-07
-0.00248727
7.12972e-05
-0.000577143
-1.47327e-06
-0.00201105
-0.00100241
1.68311e-08
-0.00441045
3.34408e-07
-0.0309737
3.08076e-06
3.1521e-08
-1.06627e-05
8.99288e-07
2.8945e-07
-1.04177e-06
6.55098e-07
-5.21535e-05
-0.0168228
-2.97726e-08
-2.64865e-06
-0.0207788
-0.00123361
3.73513e-07
1.38813e-06
1.33552e-06
4.88342e-08
0.000248275
0.000221187
-2.69665e-06
-2.43281e-06
-3.19208e-07
7.29751e-05
1.70998e-06
2.85892e-06
0.00284102
2.15357e-06
-1.75395e-06
1.39525e-06
-5.76911e-06
3.16239e-07
3.22043e-07
-1.96187e-07
-0.0222172
-2.05845e-06
-7.32065e-07
-1.13103e-06
0.0188888
-0.00107439
-3.39736e-06
0.00787646
-2.291e-07
0.000154831
6.90254e-08
2.2965e-07
-5.09745e-07
-5.59334e-06
6.68871e-06
3.07262e-07
-1.02917e-08
2.04797e-06
-1.08383e-06
4.15295e-06
-0.000890076
0.00165337
1.48432e-07
9.69343e-07
-0.000773981
-7.73823e-07
5.45899e-08
-4.51712e-07
5.49134e-07
-2.97604e-06
3.30722e-06
-0.0245759
-3.91815e-06
2.83048e-07
2.38243e-06
3.34705e-07
-5.2876e-07
1.21467e-06
3.70393e-06
0.0029626
0.0439264
-0.0683177
-0.00377113
4.29698e-05
-9.20155e-07
3.42228e-07
-0.0107312
-2.5354e-06
-0.00160496
8.04925e-07
3.97917e-06
0.00154264
0.000187536
0.00257442
-1.18794e-05
-7.82256e-07
-5.45929e-08
-4.09568e-07
-3.11227e-07
-0.0548113
2.62776e-06
-2.15669e-06
1.12219e-07
-2.16088e-06
-5.10443e-06
0.0276684
6.06853e-05
0.00416627
2.48584e-07
-0.0245484
1.42133e-07
5.83475e-08
-4.05807e-07
2.79189e-07
-3.40989e-06
-0.000724497
-4.50919e-07
-2.00928e-06
1.03552e-06
1.49328e-07
-3.17402e-07
-7.38315e-07
0.000119021
-0.0246441
1.26246e-06
-0.00106056
-3.4294e-07
-2.79323e-06
2.75455e-06
-4.68611e-06
-2.44736e-06
2.12449e-07
4.1349e-07
-0.00113613
-1.32247e-07
2.86582e-07
2.28605e-07
-1.922e-06
4.59585e-07
0.0081152
-7.02394e-06
1.13726e-06
1.8156e-05
-1.26203e-06
-4.87397e-06
0.000104873
-0.000321282
9.60322e-07
2.84221e-07
-4.46246e-07
7.02147e-07
-3.75824e-07
-0.0249094
6.17534e-07
-0.000854596
2.92708e-06
7.52603e-07
-1.22514e-06
-1.02391e-06
5.31759e-05
-1.17356e-07
5.5963e-07
1.99471e-06
-0.00795032
0.00318403
0.004239
-2.3474e-06
2.7076e-07
9.82609e-07
-0.00288303
6.69651e-07
-0.00315627
-1.24735e-06
0.0114876
-8.50134e-07
-0.04462
0.0153731
2.90681e-07
-7.77707e-06
-0.00138878
0.00414279
7.85997e-07
-3.13502e-06
5.24804e-07
-0.039442
0.00201755
-1.89492e-06
-0.0401851
-3.09488e-07
-1.34927e-06
-3.38366e-06
-4.01636e-07
-1.04133e-06
6.87836e-08
-0.00036085
-0.000305906
-1.36191e-06
-5.30254e-08
-3.62211e-07
-2.91413e-06
-1.05623e-06
0.0180686
-0.0539839
-4.01003e-06
-4.04253e-07
5.43819e-07
1.3001e-06
0.000432017
-0.0188978
0.000168793
-0.017899
2.09411e-06
1.65771e-05
0.0225769
-0.0173725
-3.5688e-07
2.36755e-07
6.63834e-08
1.8088e-07
-0.0123642
-4.41667e-07
1.93026e-06
2.01797e-07
-3.1728e-06
-4.45615e-06
-1.14516e-06
-2.52312e-06
-1.6868e-05
-3.41352e-08
3.22851e-06
-3.34958e-05
0.00264188
-7.09304e-08
0.00179534
2.22178e-07
-2.95575e-06
-3.7552e-06
7.51121e-07
-1.14405e-06
-0.00420575
0.000618682
-0.0199696
-0.0571514
-5.41642e-06
3.10162e-07
-7.11122e-06
-1.84304e-07
-0.024231
3.21724e-05
-3.5628e-07
7.01469e-07
-0.0101792
-4.74523e-08
3.41761e-05
-1.20807e-06
-0.00872141
-0.0247621
4.48701e-06
1.24023e-05
2.98814e-05
3.81418e-06
8.97277e-07
-0.000801516
-0.00116079
-4.83793e-06
-0.000900637
0.000154295
-3.04236e-07
-1.15161e-07
2.14072e-07
-0.0216303
-0.0391105
0.0347672
8.68873e-07
-1.89381e-05
-0.00046332
-1.09657e-06
7.47074e-07
2.22075e-07
-0.00420244
-5.80375e-07
0.000323769
-0.0529708
-0.00572391
-2.22477e-07
0.00252318
-6.26913e-07
-0.000300864
1.93593e-08
-6.53431e-05
0.000238885
0.0273072
0.0648404
4.92046e-07
3.47518e-07
0.00376987
3.7083e-07
7.65531e-07
-0.0563253
0.055773
-5.03949e-08
1.44143e-06
2.08018e-07
0.00314337
-0.0481982
0.000292499
-3.68268e-07
-1.25453e-07
-6.80605e-07
-2.9506e-07
-1.43597e-05
1.87581e-06
0.0260478
-2.4617e-06
-7.64344e-06
0.000367574
-0.00176985
0.000692495
-3.11585e-05
-0.0108169
-4.92059e-07
-2.68292e-06
-0.000682645
-6.3506e-06
4.20041e-06
-3.31901e-07
1.8916e-07
-0.00068289
-5.10418e-07
-0.000222757
-7.04469e-07
-0.0102785
1.39535e-07
-0.00200417
0.000234677
-0.053605
6.92776e-06
-2.71038e-07
-0.0020256
-2.69551e-07
2.86754e-07
0.000227582
0.0259019
-1.56709e-06
-1.31142e-06
0.000181736
2.61549e-05
0.0355161
9.85041e-08
-0.000875893
-7.67357e-06
-1.66354e-06
1.53948e-07
-0.00101992
-2.453e-07
1.68573e-07
2.61128e-07
-0.00595427
8.48884e-06
3.51569e-07
-1.90627e-07
-2.95094e-07
-0.00776215
-4.3617e-07
1.69426e-07
0.0369006
2.95648e-05
-0.00242421
4.15448e-07
4.70019e-07
-0.0280014
4.40778e-07
0.000103806
0.0226756
-1.95409e-06
-4.45785e-08
1.38915e-08
-0.00512487
0.0149922
-0.0125879
1.09239e-07
-1.55943e-06
-0.000570434
-2.91319e-06
0.0213122
0.00299316
-0.00106942
-1.45695e-05
3.93426e-07
-0.0140037
1.25805e-07
1.26468e-07
1.46372e-07
5.71112e-07
-0.000561071
-7.16739e-06
-0.00448514
9.19908e-06
-0.00413042
-1.83053e-05
7.70246e-07
-5.68459e-06
0.00934712
0.0224122
7.66172e-08
-8.55312e-06
-3.09458e-06
4.34453e-06
0.00314262
2.92638e-06
-0.0324034
-4.75482e-05
0.00242235
-0.0269517
-3.61814e-08
-9.82134e-08
2.50176e-05
4.52583e-06
-2.52784e-07
-1.61097e-06
0.000447523
-6.89977e-07
-0.000826847
4.42264e-05
7.11493e-07
7.36311e-05
0.00286175
5.87942e-07
5.98556e-07
0.0141255
-3.61497e-06
-0.0228001
-0.0424421
-2.44507e-08
-5.51201e-07
0.000149379
2.33262e-05
-5.04816e-05
-6.58199e-07
-8.86186e-09
-1.86508e-06
-4.04897e-06
-5.02417e-07
-0.0173937
-3.60637e-07
-5.12348e-05
-0.00145929
-1.02126e-06
3.27777e-06
3.79013e-07
-6.96138e-05
-2.23172e-06
0.0279503
-9.16457e-07
0.000922799
1.35911e-07
-3.54462e-06
-6.4651e-08
-7.05722e-05
1.17977e-06
-0.000173431
-5.68406e-06
3.31195e-07
3.00936e-06
3.57263e-07
-4.28997e-08
2.11212e-06
5.66035e-06
3.42738e-07
-0.0408946
-0.000114282
-1.04223e-06
-0.00630039
1.48426e-06
-2.72208e-06
-0.00916092
-3.74148e-07
6.46505e-07
6.51906e-05
-2.05748e-06
-2.04226e-06
-0.00568301
-4.94031e-06
6.45773e-06
-0.0377253
-8.84154e-08
0.000107282
-1.86604e-07
3.53864e-06
0.00643515
-2.71e-07
3.08827e-08
7.10061e-07
4.12704e-06
1.08023e-06
2.04699e-06
-0.00832077
-1.64221e-06
0.0301837
-0.00132837
0.000162547
-2.81617e-06
0.0036561
-2.50515e-07
3.70444e-07
-3.51021e-07
3.17968e-07
-6.24927e-07
-1.74734e-06
8.01282e-08
4.43239e-06
-0.000208915
1.72096e-07
-8.89588e-08
-2.75177e-06
-3.03342e-07
1.42236e-06
1.09946e-05
0.00107537
3.44602e-07
-0.00103941
8.8551e-07
0.000360042
-0.000351963
-0.00376073
-6.20203e-07
2.17246e-06
1.25112e-07
-7.88432e-07
5.56731e-05
5.1674e-07
-0.00133369
-2.81488e-07
3.16906e-06
-2.35763e-06
-4.66486e-07
0.00228561
-5.43374e-06
0.000194501
-0.00576762
-2.75125e-05
1.55225e-07
-1.21438e-06
-5.24498e-06
-0.000954087
-5.56332e-07
0.000476441
-0.000361474
-5.43304e-07
-6.96218e-07
6.26822e-06
0.0148415
-5.40188e-07
3.4331e-07
-1.62642e-06
-1.6376e-06
0.000572027
0.00146221
-0.000144176
0.00430121
-0.0418742
0.00101839
-0.00243448
-4.20265e-05
-0.00525135
5.22443e-05
-5.34827e-07
-5.27352e-07
3.95792e-05
0.000966747
-1.32303e-07
-3.55956e-07
-0.00180523
-0.00155426
1.57523e-06
4.37163e-07
3.23074e-06
-0.0015163
-1.76064e-07
3.41119e-08
2.11625e-07
-0.000149276
-1.30927e-06
-4.62628e-05
1.91293e-07
0.0111999
-2.29242e-06
4.08847e-10
0.000181374
2.62039e-07
3.34367e-07
-4.04828e-07
-3.04387e-06
3.44914e-06
-8.50508e-06
0.00354236
-2.28855e-06
6.10399e-07
-2.40776e-07
-1.09021e-06
0.000123749
-1.97745e-07
-1.03099e-07
-2.11099e-06
1.32476e-07
-5.5777e-07
-3.71184e-07
-2.11851e-06
-2.84467e-05
-0.00251707
-0.00794345
-2.63063e-06
-2.18933e-07
-2.87176e-07
1.28572e-07
0.00774399
-0.000455791
2.11062e-06
-1.91963e-06
6.23976e-08
0.0191766
-3.34965e-07
0.000157022
3.61662e-07
0.00117211
2.25821e-07
-2.81711e-06
0.000783354
4.3403e-06
0.0134729
-0.000220426
0.0169257
7.4842e-08
0.000825072
3.79269e-07
-0.000711322
0.000100651
7.14655e-07
-0.00501441
1.5042e-07
6.96523e-07
-0.000382199
-1.48015e-07
-1.66267e-07
-1.16407e-05
-3.55762e-06
-1.63342e-06
-1.23494e-06
8.43841e-07
-9.3593e-07
-0.000640358
-1.98082e-07
4.52291e-07
-0.0343005
2.50568e-07
1.5346e-05
7.74344e-06
1.62418e-07
3.41746e-07
1.91023e-07
0.0226599
-9.17934e-07
-9.53044e-05
0.0223895
-4.64585e-06
-8.78719e-08
-1.82739e-06
-8.85035e-07
0.0466831
-8.21111e-07
2.04401e-07
3.57668e-06
3.10294e-07
-0.0230515
0.00464268
-1.81102e-06
0.00846983
-4.27544e-07
-1.68707e-05
2.38777e-07
3.64891e-07
-3.53495e-06
-0.000704375
-2.65521e-06
-1.04363e-05
0.000160289
-2.23284e-05
-4.31663e-07
-0.000428831
0.0183287
7.86663e-07
-0.0123499
3.09226e-07
-0.0123684
4.85574e-10
2.26755e-05
0.00682048
-2.30451e-06
9.06861e-07
-2.18592e-06
-6.65273e-07
1.59543e-07
-4.5976e-07
2.77416e-06
3.59918e-07
-0.00196923
-0.00032592
3.07456e-07
-7.55171e-08
-1.77696e-06
5.40609e-06
-6.18222e-06
-2.83142e-07
-7.67868e-06
4.37792e-08
6.18074e-07
-1.32931e-06
0.00376643
2.34242e-07
5.49377e-08
-4.33101e-07
-0.0395055
-0.0474094
1.90743e-07
-0.00749286
-0.000263868
-0.00190277
-0.0047959
-2.69415e-06
-7.08922e-08
-2.9881e-06
-1.13202e-06
3.61938e-07
0.0125367
-2.10397e-06
9.22036e-08
-9.25999e-06
3.32778e-07
5.8236e-05
-1.71557e-06
-0.00148117
5.71058e-08
0.00886517
-1.04306e-07
0.0556311
4.1148e-07
-4.18934e-06
4.9877e-07
-2.77211e-05
-1.09498e-07
-6.26364e-08
0.0250673
-1.68844e-07
3.62254e-07
2.2613e-07
0.00167516
0.00262006
-1.05038e-07
9.36698e-06
-0.000202173
1.69255e-05
-2.99834e-05
9.1867e-07
-1.85138e-06
0.00328967
1.80884e-07
0.00100756
-0.0191221
-1.31564e-06
-2.84832e-07
-0.000542573
6.28868e-08
2.88862e-07
6.38987e-07
-0.000233434
-1.45253e-06
2.29101e-06
0.00012673
-0.00393542
0.0196645
-0.000962673
-0.0129556
6.04112e-08
-4.76909e-07
-5.19526e-06
-2.1409e-06
6.42371e-07
-0.000260755
-8.52647e-07
0.000522935
-3.61948e-07
5.95469e-06
0.00171487
6.37799e-05
1.71019e-06
-1.76343e-08
-0.00044943
1.20534e-06
-6.95012e-07
-1.047e-05
-2.0011e-05
-0.0526189
-1.43246e-06
2.1559e-07
-1.96975e-06
5.82073e-07
-1.76231e-07
7.21489e-06
0.00078488
-4.19959e-08
-0.012419
-1.46924e-06
5.09137e-05
-0.00102441
9.47233e-05
-0.00129284
8.25016e-06
0.0101025
1.79816e-06
-1.0572e-06
-2.048e-07
-5.89106e-07
-8.71102e-06
1.91518e-06
2.10113e-08
-2.95691e-06
-0.0106701
-1.98527e-07
-2.3906e-06
1.02193e-05
-0.000711608
-0.00102602
8.34351e-06
1.0107e-07
-3.02086e-07
-5.88545e-07
7.51946e-07
-8.78675e-07
-0.0308076
-4.76613e-07
3.86678e-06
0.00947866
-2.50299e-07
8.70308e-08
4.47686e-08
0.0261116
0.0162132
-1.86667e-06
5.94104e-06
-8.54196e-07
-0.00365816
-5.16018e-05
-1.31365e-07
-3.23611e-07
0.00120813
0.00191858
-1.60904e-06
0.0290872
0.0144077
8.73857e-07
-8.99588e-08
2.05135e-07
1.87664e-06
-2.47473e-05
1.33834e-07
-1.55657e-07
-1.82362e-06
-1.85217e-07
-7.13258e-08
-3.01181e-07
5.76933e-07
-3.71391e-08
-3.2294e-07
-1.21645e-07
1.01955e-07
-1.43637e-06
-2.80444e-06
3.6424e-07
1.60391e-06
-2.96568e-07
-0.0117132
7.35869e-07
0.00226906
1.55894e-07
-0.0268879
-2.21017e-07
-0.000259554
4.00936e-06
-1.12798e-06
-6.54619e-08
-3.11366e-08
4.73051e-06
-6.46964e-07
0.00185768
2.41519e-06
2.89685e-07
-2.814e-05
-6.62112e-08
-0.000438226
-1.54189e-05
-0.00104548
0.0034926
-5.81257e-07
-1.86962e-05
6.1152e-08
-1.06486e-06
3.25003e-07
-3.32927e-07
4.09037e-07
1.73859e-06
-0.00117439
0.000513395
-2.44755e-07
-2.50285e-07
5.4293e-06
-0.000263207
2.56787e-07
-2.82319e-07
1.83755e-05
-2.75962e-07
-1.94776e-07
0.00156951
-1.42817e-06
-0.000618018
-6.90084e-06
-2.934e-06
-0.000227193
0.014541
-6.22425e-08
-0.00029746
0.00775397
0.000465506
-0.000238105
3.28231e-06
-4.16807e-08
1.25553e-06
-2.0115e-06
3.20984e-07
-0.00847093
3.46426e-07
-0.00050814
-2.38578e-08
-2.22915e-06
1.43673e-06
-2.85805e-07
6.04696e-06
1.00647e-06
0.0127474
7.04291e-08
1.08485e-06
-1.04595e-05
0.0573392
1.08421e-07
0.0363109
2.7213e-08
-1.8876e-06
3.27377e-07
3.30031e-07
-0.00768013
-0.000326223
2.78572e-06
2.17178e-07
7.29647e-05
-3.90477e-06
3.73183e-08
-0.00639133
-2.60368e-07
-0.000722816
0.000297607
-4.98772e-08
-1.25052e-06
-4.05509e-07
-0.00602896
-0.0117732
-6.77316e-06
-3.65353e-07
1.35682e-06
-4.2844e-07
-0.000470211
-5.35877e-06
-0.000399492
-2.01449e-06
-0.00239227
0.0014492
-8.04803e-06
-0.00175042
3.12401e-05
-8.42067e-08
-2.87616e-05
0.00126945
-6.55167e-06
0.000165873
-5.28317e-06
0.000141149
-2.13409e-06
8.01352e-09
0.000883243
-0.00896786
3.09502e-06
0.000388093
0.00245916
3.45628e-07
-1.67886e-06
-0.00890402
0.000367013
0.00340534
-6.04134e-07
-1.97675e-06
2.44999e-06
-8.86598e-08
-6.78015e-07
-0.00949077
-1.75587e-05
4.49664e-07
-0.0662241
6.3246e-07
1.7664e-05
-0.00322146
-4.80758e-07
0.001964
2.46069e-06
3.62491e-07
6.16879e-05
-3.7926e-06
3.65875e-06
3.03121e-07
0.000276756
0.00277727
4.74316e-07
-1.64827e-07
-8.08225e-07
-0.0623009
-0.00100039
0.00394684
-1.59218e-06
-0.0353138
9.63676e-08
-2.50957e-10
3.61233e-06
0.0184151
3.85355e-06
0.0193746
-1.77693e-06
0.0383813
6.82444e-07
-2.82249e-07
-0.00145543
0.002595
1.14618e-07
-2.21638e-06
9.00829e-07
0.0108444
4.91874e-05
-9.65222e-08
5.24274e-07
-1.26824e-07
3.10227e-07
1.50424e-06
-1.74563e-06
-2.83163e-07
-2.45984e-06
0.00151898
-3.89885e-06
4.78515e-07
4.53088e-07
3.16278e-05
1.99117e-06
-4.73289e-06
0.0679988
-8.10801e-08
-3.45413e-06
0.00503142
2.18448e-06
-3.23603e-08
-0.000804694
-4.08826e-07
-0.000363878
4.46154e-07
8.07255e-06
-2.59068e-06
-0.0258164
0.000173158
-5.88642e-07
1.3703e-07
-0.000201978
-0.00330199
-2.0254e-06
-3.47409e-06
-1.80919e-06
-0.00445027
-0.00142346
-0.0060279
-0.00948375
0.021393
-2.70405e-05
-1.46889e-07
8.55435e-08
3.27967e-07
1.62816e-07
6.89369e-07
-4.48868e-07
5.41131e-08
-2.9061e-05
0.00262024
-6.26697e-06
0.00468218
-0.000781194
0.00372768
4.38129e-05
3.01994e-06
-0.000433461
0.000105171
-2.34419e-06
-5.52033e-07
4.99018e-07
-3.14497e-07
-0.00052958
-1.10686e-05
0.00277904
-8.87645e-08
-0.000435217
0.000755785
-1.89703e-06
-0.00161622
-3.01225e-07
5.58972e-07
-1.18354e-06
-4.48558e-07
-0.000355059
-7.64264e-05
3.96081e-07
0.000126218
7.37849e-08
-1.88606e-07
8.18739e-05
-7.47557e-08
-3.58851e-07
6.0269e-05
6.53149e-06
-6.17205e-06
-1.72483e-06
-0.00578945
3.93207e-07
-8.21674e-05
7.05817e-08
-4.35635e-07
-0.0249614
-0.000672707
0.00555074
2.58435e-08
-8.55007e-07
-1.20812e-09
-0.000826659
-2.70143e-05
-1.16127e-06
-2.40293e-07
6.82501e-08
-8.70804e-08
-5.39717e-08
-7.44194e-06
-3.19962e-05
-0.00745152
4.49574e-06
-4.84313e-05
-4.90637e-07
-0.00124112
2.72215e-05
-1.35952e-06
-3.53078e-06
-9.75341e-07
0.0258752
-9.83894e-07
-1.44902e-05
0.0125139
0.00460731
-8.69199e-07
-2.5061e-07
-8.99963e-07
-0.000421008
0.0107378
0.0146537
0.00490547
0.00237777
-4.47071e-05
-4.57132e-07
1.02681e-05
1.74145e-06
-0.00448539
-5.48272e-07
5.59225e-07
7.32065e-06
-0.00664675
-1.55884e-07
-4.89685e-07
-9.77828e-07
-8.59558e-06
-7.77168e-08
-4.60214e-06
-1.14878e-05
5.11772e-05
7.53978e-06
-1.1549e-06
-7.17791e-06
0.0155617
0.0229472
3.7878e-06
-1.62828e-07
-0.0779846
-3.80518e-06
0.00505965
0.0184228
3.46814e-07
1.69183e-07
2.58151e-07
0.000463729
-0.00145282
-1.52057e-06
-0.0597204
0.00813805
0.000315738
-9.05746e-07
-2.43666e-07
-1.92031e-06
-2.0571e-07
0.00313497
0.016902
0.000472155
0.00466922
-2.94399e-06
1.61883e-07
-0.054762
1.16685e-07
0.0177367
0.00352334
-1.26327e-06
-0.0217298
-0.000959203
-2.62901e-07
9.167e-05
-9.28885e-07
-0.0485479
-2.25729e-05
0.000197789
-1.7474e-07
8.32574e-07
0.00923902
-0.0301393
-8.42532e-07
1.81815e-07
-1.41952e-07
-9.61314e-07
1.73444e-06
0.0178454
-7.4043e-07
-2.24847e-06
0.00794083
2.31048e-05
2.96702e-07
0.0132415
1.14305e-06
0.000564236
6.91146e-07
-0.00185238
-6.941e-07
-0.00786344
6.06065e-06
3.01396e-07
-0.00307847
3.52539e-07
3.86478e-07
-8.79222e-07
0.000590903
-0.0536835
3.03122e-06
3.69065e-08
-0.000723765
-4.83954e-06
-7.15071e-07
-0.000812638
-6.18448e-06
-0.00260572
-0.0100149
0.000708971
-3.39668e-06
-0.0581406
3.14277e-07
-7.87332e-06
3.71992e-06
-4.59774e-07
-8.82598e-07
-0.00974761
-8.73869e-07
-0.00153539
1.69944e-07
3.65806e-07
-2.75746e-06
-2.53648e-06
-4.73884e-07
4.22033e-07
-0.00141588
3.76243e-07
-0.00111811
-1.58144e-07
-0.040356
-2.0512e-06
0.00015277
-3.15932e-06
5.29924e-05
-2.92995e-06
-8.54508e-07
-0.000218315
-0.000465511
-1.39561e-05
-9.17068e-07
-6.74174e-05
5.53635e-07
2.20341e-07
6.92631e-06
0.0039867
-0.00418038
0.00176415
-3.01878e-06
-2.56334e-06
1.0559e-06
0.0095432
0.00163471
-0.00576911
6.71599e-08
-7.82096e-07
-2.79967e-06
0.0309476
1.85778e-07
-0.00141042
-0.000169951
-3.8982e-07
0.00875038
-2.65311e-07
0.00860574
-0.00147965
0.00783236
-3.5824e-06
5.18269e-07
1.77759e-06
0.00124854
6.73131e-07
-3.18933e-07
6.11289e-06
-3.78876e-06
-8.92845e-07
9.54172e-07
-0.00154616
-2.1935e-06
-8.75171e-07
-6.29369e-06
2.24943e-06
-6.01941e-07
-1.12117e-06
7.16989e-06
0.0219527
3.6418e-06
0.0012206
0.0169488
4.88876e-07
3.3657e-07
-0.000427123
-3.03589e-07
2.05099e-06
-0.00139755
-0.00025955
-2.3116e-07
-5.84382e-08
-1.09718e-06
0.000105345
-0.0458442
2.77343e-06
0.00232155
-2.32422e-07
-4.38441e-05
4.76893e-06
0.00353541
0.0051138
8.02769e-05
-0.00937645
-0.00191969
-4.84834e-07
-9.06424e-07
-0.000164443
2.77752e-07
-0.000364095
-2.10982e-07
-3.20597e-07
-3.2106e-07
-4.95653e-07
-3.77655e-07
-0.0578192
-9.73059e-07
-3.05129e-06
-8.19785e-06
1.03387e-06
0.0190176
6.29538e-07
9.81301e-07
-0.000858497
-4.4732e-06
0.000480743
-1.86141e-06
-0.0237326
9.97126e-07
2.32716e-06
-1.61447e-07
-3.3569e-06
1.07655e-06
-4.44164e-06
-1.67533e-07
-9.11483e-08
-1.32378e-06
-0.000772449
-0.00016437
-0.0195664
0.000519668
-9.22938e-07
-1.43712e-05
-1.04995e-06
-5.41091e-07
-0.0212667
-1.82424e-06
2.14188e-06
0.00173008
8.68426e-08
4.07772e-05
-0.00778829
-1.07855e-06
3.15793e-05
-0.0488309
7.87551e-06
-2.28878e-06
-1.62167e-06
3.51065e-07
2.11563e-06
-0.0659687
-3.59901e-07
-1.27737e-06
0.0119086
-0.00799525
-0.000409137
0.0116797
-0.00391786
3.62033e-06
0.00185969
-0.0026567
-4.42547e-06
-1.0766e-06
-7.392e-07
-0.000425874
5.3999e-05
8.08258e-08
-2.30487e-08
-0.000148546
3.41849e-06
3.4821e-05
-2.41569e-07
-8.28485e-07
-5.1536e-07
-0.00947275
-7.27377e-06
0.00164054
0.0480779
-1.06966e-06
0.00726705
-3.49776e-07
-6.25329e-07
-0.0163842
-0.0034807
-0.0354747
4.2494e-06
5.50264e-07
-0.00437518
-6.43541e-08
2.71937e-08
0.00487202
-0.000110379
0.0115742
-0.00415786
-7.6142e-07
2.77068e-07
1.22151e-06
1.81286e-06
0.0218125
0.00793606
2.58109e-06
-5.58329e-07
-7.15074e-08
0.00192797
0.00931829
2.25442e-08
1.4355e-05
-2.37679e-06
0.00538283
5.00798e-06
1.16171e-06
-0.00145352
1.00069e-06
-2.45259e-06
-0.00475441
1.35895e-07
8.8993e-08
1.13078e-05
-6.70649e-07
5.50293e-07
-1.70306e-06
0.0411352
1.97628e-07
3.33555e-06
9.79204e-07
-5.67301e-05
-0.00471242
-0.00582196
-5.57131e-08
-7.01384e-06
-2.10977e-06
0.0524071
9.86786e-06
9.62824e-08
-1.15618e-05
-1.80082e-06
-1.02592e-06
-0.021557
-1.1823e-06
8.31388e-07
3.10636e-07
-8.94615e-07
2.5567e-06
5.9582e-07
-6.46829e-06
-4.16024e-07
-1.17718e-06
9.16228e-06
-0.0275408
-0.00124905
-1.19462e-06
-0.0187531
-1.24805e-06
-1.89632e-06
-1.87603e-06
-0.000331962
-1.23723e-06
1.13455e-06
-1.98377e-07
7.45262e-07
-1.41017e-07
-1.30069e-05
0.00037499
-0.000805978
-4.59153e-07
-0.0521854
0.000115693
-0.0101933
-1.35201e-05
0.00107912
-9.2592e-07
-3.25395e-07
0.00929212
-4.40376e-06
3.0872e-07
4.16025e-07
-1.00298e-07
-8.07167e-09
3.91088e-07
-4.21997e-06
6.97437e-07
-3.93007e-06
-0.0355829
5.73409e-07
-0.000304779
-8.13283e-06
-6.75708e-06
-0.00212323
2.48388e-07
-1.44894e-07
-0.000683106
2.31143e-06
-3.59421e-06
-1.22013e-07
-0.0163421
-4.1918e-07
0.00360604
0.000852442
-0.000241663
-0.000716261
-3.78226e-07
0.00107171
0.00107713
0.00102552
-2.12822e-07
-5.59674e-06
0.0165855
0.0058272
8.74816e-08
0.00213736
3.86363e-07
4.49285e-08
0.00607812
0.000561321
6.6312e-08
5.06259e-06
0.0248197
-2.43317e-06
-0.00143928
9.14994e-06
-0.00306778
1.45683e-05
-1.83845e-07
1.67621e-07
2.41569e-06
2.96562e-07
-7.26568e-08
4.45779e-05
-0.0014366
6.51681e-07
-0.00317316
-0.00135482
5.22966e-06
-1.54375e-07
0.0189574
-9.76745e-07
1.25634e-07
-5.02783e-05
-0.0138463
0.000120536
-3.44034e-06
1.05343e-07
3.09746e-07
-2.25056e-06
0.000274033
-0.00253251
-6.76305e-07
-4.39033e-05
0.00358896
6.42738e-06
1.39132e-07
3.39407e-07
1.82714e-08
2.95561e-07
-1.33592e-06
0.0016154
-7.86596e-08
-0.00934088
1.41119e-06
-0.0300749
-0.00081251
-0.0499604
0.0032559
3.85993e-07
-0.00560664
-1.39379e-07
-3.5011e-06
-8.04664e-05
1.77953e-06
-0.000987716
-1.12652e-06
-2.66322e-09
0.00722072
0.00322252
-0.000125475
-0.00197476
3.81725e-06
-4.25279e-07
1.19113e-08
-7.26738e-07
0.000768506
-0.00117405
-1.82745e-06
-1.71525e-06
1.34386e-07
0.00118668
-5.73941e-06
4.33488e-07
-0.000282159
-0.00976953
-0.000604506
0.000203739
-3.38564e-07
1.86919e-07
-0.00823425
0.0120168
0.000192286
-0.00262057
3.23288e-06
3.79929e-07
6.52468e-05
-5.92021e-07
-0.00103733
3.59741e-05
-1.23177e-08
-8.7167e-07