/*--------------------------------*- C++ -*----------------------------------*\
| =========                 |                                                 |
| \\      /  F ield         | OpenFOAM: The Open Source CFD Toolbox           |
|  \\    /   O peration     | Version:  v2012                                 |
|   \\  /    A nd           | Website:  www.openfoam.com                      |
|    \\/     M anipulation  |                                                 |
\*---------------------------------------------------------------------------*/
FoamFile
{
    version     2.0;
    format      ascii;
    class       volScalarField;
    location    "50";
    object      k;
}
// * * * * * * * * * * * * * * * * * * * * * * * * * * * * * * * * * * * * * //

dimensions      [0 2 -2 0 0 0 0];


internalField   nonuniform List<scalar> 
18649
(
0.0106842
0.000142956
0.0109802
0.00018407
0.000155337
0.000347553
0.000145088
0.000142322
0.00248873
0.0198638
0.00014569
0.000142478
0.000162977
0.000150432
0.00136186
0.000171141
0.000157209
0.000144943
0.0240363
0.000142847
0.000142408
0.0444433
0.000216165
0.000178489
0.0229802
0.000213912
0.0027174
0.00264952
0.000152405
0.0459922
0.000269031
0.000282766
0.000157452
0.000163406
0.000147616
0.000162845
0.000881394
0.000199949
0.000145324
0.000150291
0.000327666
0.000151762
0.000203314
0.0042225
0.00017237
0.0414502
0.000196686
0.000162649
0.000145182
0.000183866
0.000182556
0.000245488
0.00017387
0.000289221
0.00015179
0.000221483
0.00375906
0.000145231
0.000148319
0.0116358
0.000152154
0.000189704
0.000146174
0.022115
0.0456437
0.0116865
0.0114576
0.000155555
0.000174543
0.0446317
0.00278654
0.000163084
0.000144792
0.000146174
0.000349484
0.00681023
0.00126278
0.00015071
0.0475023
0.000154394
0.00025817
0.000204662
0.000312273
0.0251307
0.000171454
0.00022408
0.00015726
0.000158744
0.000155437
0.0671889
0.000932528
0.000192264
0.000179153
0.00018365
0.000203669
0.00017515
0.00016297
0.000217336
0.0118825
0.000152002
0.000371914
0.000163403
0.0068007
0.000145815
0.00276821
0.00212364
0.000311143
0.060146
0.000191814
0.000144655
0.000143141
0.000164113
0.000160286
0.000141664
0.000198077
0.00021735
0.000155502
0.000164511
0.000151212
0.000157206
0.000152095
0.000174307
0.00186098
0.000141299
0.000180055
0.00015197
0.0535975
0.000160013
0.000152749
0.000150018
0.000147745
0.0276612
0.000195783
0.000200044
0.000146112
0.0433293
0.000759778
0.0716028
0.000622133
0.000181748
0.000161526
0.000151268
0.000145533
0.000156445
0.00180692
0.000148648
0.000149556
0.000202801
0.0024319
0.000148583
0.00112195
0.000217638
0.000154577
0.000144505
0.000171593
0.000219623
0.000148643
0.000185809
0.00014403
0.00107511
0.000335883
0.00122222
0.000148519
0.00100026
0.0660877
0.000146667
0.000161517
0.00349103
0.000180922
0.000149717
0.000157806
0.000142909
0.000157746
0.000207659
0.000182391
0.00016578
0.000668706
0.000148605
0.00329723
0.000337461
0.00014198
0.000178967
0.000163916
0.000181957
0.000153417
0.000162759
0.00015067
0.000172617
0.000150909
0.000151436
0.000155028
0.00109222
0.000217085
0.000158627
0.00017168
0.000156125
0.000163382
0.000162364
0.0508347
0.00016268
0.000151681
0.000148318
0.00269822
0.000144649
0.000157284
0.000141814
0.000201655
0.008018
0.000152612
0.000174122
0.000150766
0.000154674
0.000142803
0.000163476
0.00712771
0.000165425
0.00015019
0.000154819
0.000187089
0.000201023
0.000238363
0.000179625
0.041252
0.000181649
0.00119248
0.000157598
0.000208339
0.0610903
0.000163421
0.000246304
0.000150468
0.000150868
0.000163101
0.000142271
0.0256297
0.000141933
0.000152972
0.000153829
0.000144015
0.000141511
0.0001674
0.011241
0.000755142
0.048114
0.00107104
0.000190453
0.000158615
0.000150124
0.0552236
0.000173235
0.00019274
0.0604617
0.000157666
0.000634662
0.000159951
0.000144876
0.000174151
0.000150851
0.000257197
0.000180837
0.00107629
0.000142339
0.000145658
0.000164916
0.000143201
0.000207074
0.000202641
0.000180869
0.000179755
0.000171496
0.000220827
3.14144e-05
0.000162638
0.000170816
0.000796354
0.000174749
0.00015069
0.000156522
0.00016815
0.000190618
0.000206818
0.000152624
0.00580836
0.000149821
0.000150267
0.00020903
0.000168853
0.000143376
0.0013109
0.000165531
0.000142122
0.000335269
0.000147821
0.000155859
0.0602372
0.0546234
0.0100306
0.0515313
0.000161162
0.000191584
0.000194658
0.00101347
0.000178584
0.000225817
0.000230093
0.00015287
0.000189057
0.000182318
0.000162213
0.000186486
0.000142147
0.01039
0.000148929
0.000154355
0.00015115
0.000202106
0.000155828
0.0569761
0.00128442
0.000154191
0.0475855
0.000165024
0.000151857
0.000144877
0.0521118
0.000165738
0.0611979
0.00229573
0.000202309
0.000144912
0.000150536
0.00845175
0.000129462
0.000172129
0.00189543
0.000142627
0.0115692
0.000150919
0.000173591
0.000203709
0.000195526
0.0116317
0.0571105
0.0118382
0.0230123
0.000185429
0.000173571
0.000145434
0.0533636
0.0239851
0.000152705
0.00232756
0.000142286
0.000186421
0.000159552
0.000201864
0.000164646
0.00952044
0.000259398
0.000148913
0.000158982
0.0816504
0.000270423
0.000190288
0.0095879
0.0110969
0.000190336
0.00017101
0.0113029
0.000143234
0.000169819
0.0148749
0.000173204
0.000141738
0.000863296
0.000148075
0.00374233
0.01183
0.0102906
0.000225226
0.000194815
0.000155333
0.000183433
3.56044e-05
0.0112942
0.000154232
0.000199542
0.00015556
0.000150374
0.000144031
0.000115917
0.000312954
0.000149786
0.000154286
0.000674483
0.00877958
0.000286771
0.000154738
0.000154729
0.000167112
0.000234524
0.0223162
0.000152428
0.000200034
0.000161059
0.000196809
0.000154344
0.010834
0.000155063
0.000173014
0.000174362
0.00019875
0.000194025
0.000147715
0.000162289
0.000158533
0.0085457
0.000160924
0.000150993
0.000151735
0.000164767
0.000149589
0.000183998
0.00716244
0.00196855
0.000141319
0.000182297
0.000289433
0.000156134
0.0673013
0.0198467
0.000148837
0.000158067
0.000158441
0.0265124
0.000145631
0.000149629
0.00191873
0.000145526
0.000264482
0.00014834
0.000143965
0.000147927
0.000171878
0.00014796
0.000158122
0.000150958
0.000195775
0.000344929
0.000182027
0.000148582
0.0597097
0.000148502
0.000164053
0.000164431
0.000163603
0.000142388
0.000160775
0.0745992
0.000225812
0.000197179
0.0747024
0.000145509
0.000590954
0.0491338
0.000204441
0.00014392
0.000149986
0.000158934
0.000153843
0.000202049
0.000145429
0.0001637
0.000224634
0.000191429
0.000181916
0.000145057
0.000159674
0.000168581
0.0783496
0.000167979
0.0466462
0.000156745
0.000151088
0.000148799
0.000433159
0.000144972
0.00194285
0.0448797
0.000147494
0.000199316
0.00289622
0.000151466
0.000335665
0.000143807
0.000211999
0.00199837
0.000144368
0.000141445
0.000179633
0.000192628
0.000152013
0.000151366
0.000163953
0.000234109
0.011241
0.0844805
0.000150213
0.000156859
0.0250484
0.000258936
0.000147483
0.000203465
0.000201601
0.000196885
0.000159872
0.00289826
0.000142554
0.00019992
0.000156939
0.000142459
0.000158273
0.00014558
0.0406858
0.000142478
0.00200729
0.00106125
0.0460752
0.00176697
0.000167871
0.000151017
6.42081e-05
0.000148615
0.000149946
0.000200465
0.000150854
0.000145455
0.000199264
0.00136421
0.00014485
0.0117652
0.000245198
0.0523834
0.000144389
0.000177878
0.000239736
0.00371265
0.000163922
0.000170457
0.000162123
0.000290983
0.0112804
0.000282332
0.000197003
0.000147432
0.000290185
0.000159241
0.00393584
0.000144515
0.000156502
0.0489164
0.000263189
0.000205335
0.000167584
0.000165368
0.000198954
0.0231982
0.000186745
0.000165448
0.000173631
0.000160016
0.000178806
0.00015225
0.000161401
0.0109927
0.00014497
0.00393794
0.000153527
0.0115112
0.000145949
0.000176554
0.000141746
0.0748807
0.000149296
0.000140295
0.000151962
0.000144895
0.000194492
0.0432186
0.000142515
0.000142562
0.000186738
0.000110249
0.000163107
0.00160827
0.000147416
0.000145023
0.000164297
0.000168445
0.00583189
0.000147794
0.0684661
0.000156377
0.000147444
0.000145628
0.000191737
0.00020049
0.0118291
0.000144859
0.00221807
0.000147776
0.0447059
0.000149364
0.000142189
0.000202882
0.000149923
0.000159786
0.000156006
0.0386713
0.000188012
0.000142016
0.000174755
0.000195466
0.000157527
0.000165382
0.000162294
0.000361782
0.0406097
0.0870409
0.0013431
0.00014546
0.00109631
0.014568
0.000149269
0.000182143
0.00477346
0.000160006
0.000232361
0.000152112
0.0083494
0.000145795
0.0479901
0.00167627
0.000150377
0.0194681
0.000160361
0.000159278
0.000148333
0.000154325
0.00642663
0.000147704
0.0108648
0.0128133
0.000195055
0.000145972
0.0485169
0.000199242
0.000161312
0.000331924
0.000156157
0.000148216
0.00711326
0.000188345
0.000166826
0.000191221
0.000142942
0.000255306
0.000170704
0.000152116
0.000158903
0.000569124
0.000161863
0.000141459
0.000158435
0.00172725
0.00162802
0.000185677
0.000196501
0.00737618
0.00607648
0.000145905
0.0584764
0.0391425
0.000145391
0.000183078
0.000158463
0.000169749
0.000145857
0.000156775
0.000144959
0.000159333
0.000145254
0.000336151
0.00235215
0.00147669
0.000162957
0.000164264
0.0650631
0.000140527
0.0114124
0.000201023
0.0022585
0.000154728
0.0691775
0.000164324
0.00945023
0.000312263
0.011505
0.000156287
0.00056673
0.00831427
0.000164344
0.0804711
0.000154988
0.0583968
0.000196362
0.000178943
0.000272009
0.000150033
0.000155037
0.000141949
0.000179355
0.000203321
0.0498798
0.000142587
0.00023481
0.0487377
0.0237032
0.000158032
0.000209039
0.000149881
0.000142487
0.00120485
0.000593361
0.00016739
0.000186849
0.000155794
0.0011839
0.00016998
0.000218065
0.0103571
0.000206131
0.000149574
0.00017047
0.000190336
0.000145145
0.000199505
0.000146253
0.064531
0.000170696
0.000142844
0.000153385
0.052787
0.00139496
0.000188791
0.035504
0.000155045
0.0213318
0.000151229
0.000144176
0.000145814
0.00016405
0.00018917
0.000145111
0.000148835
0.000156191
0.00018618
0.000223654
0.0234544
0.0273784
0.000145729
0.000177204
0.00751653
0.000150461
0.000141123
0.000140572
0.000145598
0.000176416
0.00019744
0.0610431
0.000195768
0.000201345
0.000185868
0.00014523
0.00015413
0.000189886
0.00016622
0.0247422
0.00314047
0.0468513
0.0468162
0.000267164
0.000148512
0.000145146
0.0560868
0.00016962
0.00770107
0.000158801
0.000188157
0.0017653
0.00103008
0.0030957
0.000230193
0.000142926
0.000154151
0.000159632
0.000141056
0.0487913
0.000212594
0.000151467
0.000147634
0.000166332
0.000166325
0.00600505
0.000251957
0.00181354
0.000145219
0.074687
0.000142403
0.000149295
0.000157289
0.00015422
0.000193467
0.0112428
0.000142095
0.000181695
0.000163645
0.000143324
0.000150228
0.000148515
0.000268091
0.0636989
0.000165418
0.0887312
0.000151882
0.000183922
0.000200446
0.000198234
0.000193182
0.000151786
0.000141619
0.00185373
0.000153345
0.000165804
0.000147442
0.000150895
0.000145815
0.0297869
0.000170341
0.000164901
0.000254027
0.000143227
0.000196926
0.000308358
0.000331384
0.00015549
0.000147535
0.000144629
0.000148846
0.000152021
0.0753251
0.000158616
0.0116497
0.000152826
0.000158162
0.000143089
0.000146638
0.00027739
0.000145841
0.000148615
0.000181303
0.0614912
0.0107756
0.0440866
0.000165852
0.000145366
0.000154518
0.0452865
0.000146654
0.0230938
0.000210378
0.0361003
0.000142606
0.0088658
0.0405832
0.000147835
0.00020572
0.00156166
0.0471629
0.000161367
0.00016897
0.000144782
0.0718622
0.0594638
0.000153599
0.0763345
0.000153844
0.00015544
0.000196584
0.000141938
0.000153798
0.000145316
0.000390934
0.000308747
0.000142802
0.000142546
0.000144283
0.000184269
0.000145532
0.0550305
0.0542499
0.000189224
0.000146242
0.000149137
0.000145177
0.0639943
0.0615049
0.000211238
0.0109699
0.000149279
0.000316307
0.00167947
0.0543132
0.000146541
0.000147268
0.000233974
0.000156485
0.0622835
0.000142722
0.000188363
0.000145964
0.000173655
0.000202638
0.000147072
0.000158407
0.000194074
0.000158106
0.000183842
0.000272578
0.00402638
0.000182183
0.00305258
0.000145675
0.000181587
0.000212876
0.000183753
0.000158723
0.0113651
0.000742419
0.0585906
0.0105504
0.000185517
0.000147086
0.000166839
0.000153583
0.0468113
0.000188904
0.000140285
0.00018371
0.0757489
0.000148361
0.000257009
0.000154233
0.062503
0.0574047
0.00019603
0.000167015
0.000202331
0.000170539
0.000148404
0.0116665
0.00147922
0.000160265
0.00103838
0.000274822
0.000142667
0.000141008
0.000145592
0.0524259
0.0664451
0.010094
0.000152892
0.000256004
0.0116243
0.000152907
0.000144205
0.000146045
0.00832282
0.000146185
0.000468978
0.049918
0.0473138
0.000140731
0.0105874
0.000154384
0.011364
0.000145216
0.000256766
0.000344593
0.0458011
0.00689253
0.000145847
0.000145226
0.0449496
0.000147874
0.000148167
0.0269017
0.0217533
0.000153722
0.000162044
0.000149152
0.0107518
0.0323052
0.000402212
0.000205604
0.000157618
0.00020524
0.000152317
0.000287595
0.000183536
0.0300311
0.000192353
0.000202709
0.0592848
0.0117355
0.000284694
0.000230701
0.0544358
0.000140563
0.000159343
0.061347
0.000190599
0.000171581
0.000152672
0.000147984
0.00077577
0.000155984
0.000326007
0.000150771
0.0593638
0.000142526
0.00860577
0.000411475
0.0210163
0.000175781
0.000151848
0.000372855
0.000175881
0.000143398
0.00661669
0.0329764
0.000165869
0.00015455
0.00727949
0.000265764
0.0186449
0.000142291
0.0115549
0.000204446
0.000150818
0.000142977
0.00988254
0.000148737
0.00014139
0.000160564
0.00547977
0.000276737
0.00014428
0.000142378
0.000155124
0.0621852
0.000157452
0.000149275
0.0430718
0.000460417
0.0068357
0.000150162
0.000143252
0.0736217
0.000147914
0.00208477
0.0862507
0.000151479
0.000145471
0.000148716
0.0008616
0.00167826
0.0484232
0.000145781
0.000151205
0.00359545
0.000172629
0.00701962
0.0481722
0.000583544
0.000269073
0.000146486
0.0795146
0.000151403
0.000145219
0.000147402
0.000143347
0.000984893
0.000201508
0.00852711
0.000182484
0.0524732
0.000193485
0.00014411
0.00019839
0.00285668
0.0176461
0.00014743
0.0001713
0.000199359
0.000186255
0.0347666
0.000198225
0.0472285
0.000202778
0.00451957
0.046405
0.000149381
0.000152516
0.000260036
0.000277507
0.000150112
0.000151136
0.00188505
0.000160864
0.0101658
0.000251315
0.000168169
0.000478951
0.00956677
0.000160891
0.000162237
0.0431792
0.000159041
0.0770178
0.0479173
0.000148728
0.000149442
0.000946268
0.0221904
6.75875e-05
0.000146793
0.000145777
0.000153337
0.000160509
0.00014173
0.0554813
0.000150433
0.000438133
0.00730125
0.000156479
0.000169793
0.000150658
0.00123548
0.000152068
0.0348986
0.000156203
0.00613966
0.000142588
0.000206181
0.000141501
0.0018991
0.000149258
0.000283117
0.000166472
0.000145027
0.000201204
0.000143114
0.000144806
0.000150648
0.00020668
0.000145131
0.0270789
0.000274555
0.000143888
0.0105536
0.000150355
0.000191092
0.0772105
0.000141247
0.000145992
1.47776e-05
0.000153194
0.000182238
0.00541604
0.000192589
0.000160858
0.067004
0.000141423
0.000924202
0.000151039
0.000187806
0.0173816
0.000154644
0.0001509
0.000162191
0.000155025
0.000148393
0.00015006
0.0599727
0.000149242
0.0283393
0.000263765
0.000775048
0.000172901
0.000569291
0.000155231
0.000144427
0.000156347
0.000145036
0.000209127
0.000154197
0.000145207
0.000155882
0.000336076
0.000143515
0.000141586
0.000194591
0.000144818
0.000163617
0.000164564
0.00511828
0.000144935
0.0117702
0.000198402
0.000132843
0.0038557
0.00957897
0.000201492
0.000151544
0.000147873
0.000158554
0.00195412
0.00014436
0.0121002
0.000140872
0.000185168
0.000152172
0.000139885
0.00290748
0.000165479
0.000355241
0.0299288
0.000264287
0.000147935
0.000145825
0.000193752
0.00321024
0.00015554
0.000882749
0.000196833
0.000140048
0.000155191
0.000200775
0.0427891
0.000151963
0.000144018
0.000174197
0.000154709
0.00212564
0.0029908
0.000263925
0.0427393
0.0546523
0.0031582
0.00111394
0.000252833
0.0547357
0.00888365
0.000142977
0.000142273
0.000263244
0.00468748
0.000150323
0.000152887
0.0110333
0.0124175
0.00016913
0.000146153
0.00016892
0.0130921
0.000144494
0.000150504
0.000147876
0.00148491
0.000161403
0.00087625
0.00014803
0.00109056
0.000175205
0.000151169
0.00198143
0.000142702
0.000145923
0.000145219
0.000188517
0.000168305
0.000335217
0.00127308
0.00015022
0.000145094
0.000141544
0.000143204
0.00100748
0.000151127
0.000141017
0.000194063
0.000143682
0.00020225
0.000141244
0.000156964
0.000193948
0.00048496
0.060609
0.000155532
0.000149633
0.000146598
0.000148804
0.0418543
0.0115397
0.000217119
0.000161018
0.000157574
0.0503761
0.000154622
0.0240231
0.000145261
0.0444569
0.000144469
0.000158048
0.00557126
0.000155999
0.0739972
0.00215511
0.0401705
0.000148397
0.00229141
0.000146819
0.000246087
0.000257654
0.000159869
0.0779114
0.000159177
0.000145859
0.000709945
0.000156507
0.000141576
0.00022862
0.000170821
0.000149627
0.000183068
0.000147939
0.00014313
0.0114762
0.000142236
0.000146441
0.0180421
0.000145268
0.000174237
0.000176727
0.000147707
0.000165807
0.00014282
0.0343479
0.000173762
0.0237623
0.040602
0.000184111
0.000141211
0.000146716
0.000144914
0.0322987
0.000173149
0.000143591
0.000167314
0.000145348
0.0270727
0.0440638
0.000147236
0.000630491
0.000142811
0.000171537
0.000153618
0.000144497
0.00020985
0.00341018
0.000152046
0.000241182
0.00093344
0.000237607
0.000148551
0.00372941
0.0526949
0.000144824
0.0326427
0.000144976
0.0484675
0.000149487
0.00025353
0.0222333
0.000168729
0.000161117
0.00018155
0.000143271
0.000142572
0.00015892
0.000168523
0.000145602
0.0123758
0.0115484
0.000144888
0.000141939
0.000172532
0.000218304
0.000181403
0.000144817
0.000200032
0.000147786
0.000164052
0.000165575
0.00476892
0.000143633
0.000141924
0.000163197
0.0562184
0.0127494
0.000148457
0.000721214
0.000308025
0.00121611
0.00105759
0.000200979
0.000149782
0.000160775
0.000145338
0.000147534
0.0180257
0.000155248
0.000151173
0.000244159
0.000145436
0.0122821
0.000152686
0.000858155
0.00015108
0.052008
0.000150855
0.00598198
0.000144354
0.000178864
0.000158836
0.000226256
0.000155516
0.000141838
0.0313191
0.000159856
0.000145141
0.000145624
0.0038281
0.0462994
0.000141443
0.000179973
0.000745895
0.000179343
0.000276274
0.000153574
0.000148513
0.00162532
0.000149778
0.012607
0.0552087
0.000143076
0.000153352
0.0102221
0.000142642
0.00014542
0.000152151
0.00840893
0.000166383
0.000200273
0.00032625
0.0556054
0.0343618
0.00146021
0.0102477
0.0001421
0.00014177
0.00018205
0.000159766
0.000149397
0.00145383
0.000146503
0.00014921
0.000153119
0.000250603
0.00966953
0.000347692
0.000161595
0.000148904
0.00086083
0.000166975
0.000142696
0.000241151
0.000270274
0.0251722
0.000153006
0.000142688
0.000159798
0.0001535
0.000147984
0.000172823
0.00142929
0.000156009
0.0153196
0.000175009
0.000283687
0.00317273
0.000307015
0.000105919
0.000175123
0.018004
0.000149839
0.000144882
0.000140708
0.000143183
0.000209111
0.000149257
0.000225344
0.000158495
0.0275633
0.000150277
0.000166463
0.000177454
0.00128732
0.0140527
0.000161698
0.000150609
0.000141741
0.00014232
0.000158195
0.000144771
0.0230629
0.000153676
0.000249869
0.0512673
0.000152802
0.000142492
0.000142008
0.0192586
0.0412213
0.00111062
0.000170574
0.000145095
0.0556301
0.000335656
0.000147688
0.000142811
0.000355045
0.00439577
0.000148835
0.0862397
0.0387272
0.000161362
0.00020064
0.000144498
0.000211502
0.000239733
0.000148514
0.00014849
0.000167316
0.000158259
0.000154342
0.000140562
0.000146419
0.000151114
0.000152925
0.000151019
0.000145309
0.000153859
0.000160384
0.000144698
0.000165417
0.000156698
0.0023697
0.000146333
0.0396223
0.000147372
0.0514696
0.000153493
0.000656471
0.000170402
0.000157165
0.000141713
0.000143633
0.000186337
0.000157998
0.0103844
0.000150536
0.000145315
0.00019321
0.000157305
0.0217931
0.000191082
0.0143654
0.0267419
0.000176495
0.000276951
0.000143898
0.000160192
0.000144118
0.000152529
0.000146115
0.000148682
0.00619595
0.000684072
0.000159159
0.000149581
0.000219557
0.014322
0.000169906
0.000140854
0.000174531
0.000148655
0.000142365
0.00126217
0.000208473
0.00948117
0.000167219
0.000203972
0.0005233
0.00937629
0.000154833
0.000358307
0.047287
0.000479793
0.000730654
0.000163804
0.000149029
0.000151392
0.000178858
0.000145608
0.0066114
0.00015547
0.0115524
0.000151952
0.000167142
0.000146055
0.000150705
0.000285212
0.000178564
0.0757012
0.000148914
0.000144632
0.000846915
0.0267139
0.000142585
0.0604501
0.000142237
0.000160558
0.000158153
0.000145017
0.0584604
0.000161321
0.000213271
0.000150896
7.15171e-05
0.000159752
0.000147674
0.00522345
0.000150322
0.000793613
0.000413902
0.000140954
0.000197935
0.000139833
0.0571974
0.00151933
0.000198071
0.000149216
0.000163554
0.000143964
0.0115561
0.000196403
0.00146444
0.000163294
0.0539581
0.00928364
0.000170173
0.0457088
0.000209035
0.000143724
0.000215998
0.000371176
0.000182276
0.000282236
0.000185986
0.000394609
0.00016589
0.000157828
0.000789895
0.00275732
0.00032109
0.000256122
0.0118535
0.000145168
0.000180695
0.0503292
0.00202108
0.00206411
0.000219902
0.000168026
0.000253079
0.000152979
0.000163056
0.0634633
0.00019988
0.000145846
0.0125223
0.000148779
0.00026762
0.0486868
0.000160674
0.00134296
0.000167209
0.000151605
0.000268802
0.000194214
0.000225165
0.000144826
0.00033803
0.0455302
0.000148553
0.000149855
0.000157953
0.028809
0.0538216
0.0419537
0.000168572
0.0026527
0.000154812
0.000149686
0.000203597
0.0185209
0.0001666
0.0217372
0.000258361
0.0275298
0.000155426
0.000152525
0.0136003
0.00973612
0.000205403
0.000157331
0.000198526
0.0564351
0.000176894
0.000148462
0.000142956
0.000151008
0.000144751
0.000160307
0.000179591
0.000143266
0.000198516
0.00966204
0.000182186
0.000173269
0.000150408
0.000194163
0.000197337
0.000192048
0.0137395
0.000141652
0.000197342
0.0481267
0.000196264
0.000149838
0.00316107
0.000149831
0.0114406
0.000150944
0.000161255
0.000169442
0.0585017
0.0019658
0.000155222
0.000142882
0.000823019
0.000388409
0.000178304
0.000176732
0.000178758
0.00770413
0.0115212
0.0575445
0.0624062
0.0107524
0.000275011
0.000214216
0.000148833
0.00014542
0.000149123
0.000152437
0.000156864
0.000145395
0.000242919
0.0543401
0.000186647
0.00177618
0.00133498
0.048933
0.000287982
0.000200154
0.00375395
0.000262006
0.000151783
0.000155571
0.000162198
0.000141729
0.00133103
0.000228758
0.0371618
0.000153262
0.000153805
0.000175545
0.000151098
0.000463939
0.000152825
0.000158253
0.000148466
0.000143161
0.00065107
0.00116089
0.000160794
0.000341446
0.000142189
0.000139994
0.000288703
0.00014209
0.000143382
0.000361131
0.000181878
0.000166773
0.000166073
0.0540164
0.000149753
0.00127701
0.000142189
0.000145763
0.0527201
0.009682
0.0268286
0.000155553
0.000145712
0.000148227
0.0116161
0.000217301
0.000163881
0.000157913
0.000149621
0.000149695
0.000141146
0.000203623
0.000220396
0.0489336
0.000155723
0.000240344
0.000143883
0.00286151
0.000294931
0.000191682
0.000326136
0.00016377
0.0215845
0.00015623
0.000206062
0.0879041
0.0461838
0.000153267
0.000158547
0.000144375
0.00195444
0.0526933
0.0596955
0.00227767
0.0116413
0.000233687
0.000140251
0.000165957
0.000190009
0.0070346
0.000160921
0.0001495
0.00018107
0.0777816
0.000144018
0.000140067
0.000149306
0.00017046
0.000141539
0.00017012
0.000247262
0.000307231
0.000329119
0.00014637
0.000200457
0.0877362
0.0311053
0.000166102
0.00015669
0.0298059
0.000178285
0.0561355
0.0500333
0.000145289
0.000148232
0.000151939
0.000479569
0.0134875
0.000149769
0.0162468
0.0475867
0.000334386
0.000145277
0.000144222
0.000151834
0.000142303
0.0292721
0.0188757
0.000298426
0.0453849
0.000173157
0.000145075
0.0356238
0.000147746
0.0149469
0.0570956
0.000214392
0.0759867
0.000464775
0.000153549
0.000176773
0.00015078
0.0538736
0.000260795
0.000380411
0.000142488
0.000162244
0.0678805
0.000847371
0.000150118
0.000152563
0.000157289
0.000162021
0.000192565
0.00589522
0.000164753
0.000172313
0.0482129
0.000237745
0.000204924
0.0056004
0.00018989
3.20547e-05
0.000178822
0.0444943
0.000150424
0.00418964
0.000234551
0.000150755
0.0555593
0.000144628
0.000184279
0.000151359
0.00191204
0.0215947
0.000163118
0.000146851
0.00917938
0.00019671
0.000156677
0.00342298
0.000176573
0.000594514
0.012431
0.000134799
0.000154916
0.0419281
0.000162926
0.000202867
0.000164767
0.000139904
0.000143957
0.0505271
0.000151211
0.00197184
0.000148315
0.000176795
0.000160871
0.00017213
0.000164069
0.000144482
0.0015647
0.000144226
0.0149428
0.000144253
0.0482773
0.00017145
0.000118871
0.000208735
0.000270765
0.000185058
0.000160355
0.00029237
0.0144219
0.000206156
0.000225955
0.000377044
0.000150479
0.000156944
0.000167318
0.0480027
0.00807429
0.00171755
0.000175041
0.000200941
0.000163516
0.0481733
0.00298758
0.0598789
0.00015312
0.000148071
0.000176645
0.0157101
0.000150317
0.000226826
0.000783952
0.000150127
0.032584
0.00015321
0.0495805
0.000226593
0.0593858
0.0001716
0.000151357
0.000159867
0.000847922
0.000142094
0.000155122
0.000271308
0.000179908
0.000147951
0.0001937
0.00227298
0.000164525
0.000148598
0.000220096
0.000200468
0.000150482
0.000162499
0.000657422
0.0682895
0.000189342
0.001953
0.00628507
0.000160397
0.000144781
0.00354381
0.000141689
0.000198878
0.00266463
0.000136163
0.000150561
0.000141136
0.000150993
0.000201874
0.0611586
0.000162686
0.0409379
0.000153222
0.000323031
0.000158709
0.00284802
0.0467818
0.000321028
0.0613711
0.0015278
0.000156767
0.000147127
0.000155117
0.000152549
0.00918273
0.000143872
0.000153788
0.000156283
0.000153852
0.000154095
0.0288036
0.000146332
0.000174747
0.00136166
0.000144858
0.0400747
0.000163274
0.000193021
0.00657748
0.000193452
0.000760613
0.000154628
0.0631614
0.000161866
0.00020803
0.000174039
0.000168261
0.000163873
0.000188362
0.00014457
0.000150676
0.00015206
0.00307287
0.000503576
0.0250091
0.000224993
0.000149948
0.000202929
0.000151302
0.000161126
0.0757787
0.000155263
0.000200006
0.0119598
0.000142286
0.000220707
0.00268039
0.000170112
0.000267926
0.0144809
0.000172183
0.000157257
0.000164804
0.000144518
0.000172447
0.0447315
0.000143222
0.000150575
0.0549045
0.0602225
0.00146152
0.0514097
0.0498227
0.000177435
0.00374537
0.0221346
0.000180182
0.000143251
0.000164056
0.000770853
0.000388982
0.000152802
0.00014899
0.000411193
0.000184729
0.00026124
0.000154362
0.000145998
0.000143673
0.0473434
0.000167933
0.00200058
0.0516924
0.000143287
0.0489037
0.000151455
0.000159234
0.072844
0.0518767
0.0326201
0.000169796
0.00016119
0.00261321
0.000149351
0.000152325
0.00219504
0.00199375
0.0253207
0.00887169
0.000221497
0.000142767
0.000147558
0.000158562
0.0551535
0.061731
0.000171456
0.00015361
0.000148323
0.00551208
0.0460492
0.000147952
0.00017195
0.000179311
0.0483775
0.00015708
0.000147712
0.0131941
0.000144348
0.00016784
0.0554656
0.000148273
0.000156395
0.000165447
0.000155812
0.000152523
0.000166316
0.0594415
0.000148481
0.000216827
0.000159701
0.000894352
0.00389567
0.00666447
0.000141485
0.000183898
0.000180271
0.0206915
0.000164496
0.000147669
0.000242542
0.000166796
0.000142866
0.0631339
0.000221411
0.000159374
0.0001436
0.000151275
0.000208758
0.000154532
0.000245819
0.000155283
0.000162911
0.000164243
0.0835393
0.00403627
0.000160343
0.0220457
0.000172347
0.000156783
0.000167538
3.97121e-05
0.000147875
0.000248074
0.000140762
0.000162119
0.000147351
0.000209228
0.000190666
0.00286268
0.000152496
0.0585579
0.000276162
0.0695286
0.000252574
0.000628013
0.000159462
0.000153776
0.0373217
0.0001727
0.000144291
0.000148403
0.000152103
0.000144453
0.000144585
0.00017881
0.00014267
0.000179667
0.0432671
0.000157615
0.00390399
0.000224457
0.00017819
0.000344481
0.000151657
0.000154693
0.00365544
0.00021954
0.000159234
0.000141693
0.0747068
0.000146961
0.00456665
0.0681863
0.00384242
0.000196345
0.000163198
0.00025033
0.0178179
0.00838997
0.000153272
0.000193459
0.0452607
0.07223
0.000149167
0.0505133
0.000145735
0.000148573
0.00240849
0.000550276
0.000148254
0.000171534
0.0103889
0.000168859
0.00152854
0.000174836
0.0126065
0.000170642
0.000152661
0.000148381
0.000204922
0.000144532
0.000141322
0.000280848
0.000211821
0.000153892
0.00106905
0.00271572
0.000298919
0.000151083
0.0548941
0.000141781
0.000149003
0.000275881
0.066091
0.000279657
0.00018422
0.000142644
0.000144168
0.000172457
0.013441
0.0105742
0.000150307
0.00516391
0.0536714
0.000190186
0.000148298
0.000181405
0.000149917
0.000146642
0.00018183
0.0128724
0.000149506
0.0653142
0.00016596
0.0473398
0.00375786
0.0308195
0.0501466
0.000144635
0.0043955
0.000155943
0.000219115
0.00029612
0.000180814
0.0013504
0.000149291
0.000141779
0.0480631
0.00146424
0.00371025
0.00911202
0.000166922
0.000142784
0.000143867
0.000150555
0.00082213
0.00196101
0.000165741
0.000167435
0.000142516
0.00140004
0.000178666
0.000141733
0.00373638
0.0434482
0.0484332
0.000301677
0.000152285
0.000148202
0.0568059
0.047007
0.000416805
0.0474544
0.000209136
0.000145616
0.00023054
0.0001461
0.0132637
0.000214998
0.000151454
0.000144928
0.0379092
0.000148851
0.00342334
0.000161035
0.000213409
0.00014905
0.00014952
0.000148259
0.000272765
0.0459415
0.000172442
0.000459527
0.000150353
0.000145788
0.0364623
0.00249531
0.0627094
0.000152329
0.000140652
0.000162821
0.0130074
0.000145614
0.000172224
0.000148447
0.000252016
0.000152156
0.00902301
0.00169621
0.000170701
0.000188832
0.000224945
0.000149704
0.000399815
0.000165425
0.000146868
0.00014151
0.0480508
0.046946
0.0461566
0.00317655
0.000160328
0.0291037
0.000171198
0.00273117
0.000170853
0.000142099
0.000142217
0.00020831
0.00677095
0.00889822
0.000150123
0.000300627
0.000144834
0.000141394
0.000144866
0.0002119
0.000199039
0.0735731
0.000165075
0.000149906
0.030276
0.000150282
0.00191903
0.0482835
0.000153863
0.000152564
0.064423
0.0633809
0.000149275
0.000196992
0.000160568
0.000156409
0.000152642
0.0102114
0.000145419
0.000147902
0.000198934
0.000150143
0.000202899
0.0448093
0.00017121
0.0558839
0.0502924
0.000160013
0.000147663
0.000145054
0.000169902
0.000150159
0.000150103
0.0010653
0.000166317
0.000158386
0.00015134
0.000147383
0.014692
0.000142899
0.000152157
0.00015048
0.0232296
0.000170697
0.000144173
0.000141488
0.000148105
0.000147557
0.000163686
0.000154032
0.000141634
0.000219492
0.00014936
0.000148431
0.000337587
0.000145649
0.000148788
0.000209618
0.000160383
0.0389794
0.000142153
0.0773627
0.000179645
0.0702928
0.00016395
0.000166428
0.000179543
0.0540069
0.0713401
0.000151991
0.0641618
0.000303704
0.00359589
0.000185483
0.000150902
0.00182243
0.000146083
0.000172949
0.000168114
0.000732708
0.000155696
0.000155855
0.00492831
0.000169063
0.0661601
0.0480954