/*--------------------------------*- C++ -*----------------------------------*\
| =========                 |                                                 |
| \\      /  F ield         | OpenFOAM: The Open Source CFD Toolbox           |
|  \\    /   O peration     | Version:  v2012                                 |
|   \\  /    A nd           | Website:  www.openfoam.com                      |
|    \\/     M anipulation  |                                                 |
\*---------------------------------------------------------------------------*/
FoamFile
{
    version     2.0;
    format      ascii;
    class       volScalarField;
    location    "50";
    object      k_0;
}
// * * * * * * * * * * * * * * * * * * * * * * * * * * * * * * * * * * * * * //

dimensions      [0 2 -2 0 0 0 0];


internalField   nonuniform List<scalar> 
18649
(
0.0106927
0.000142952
0.0109854
0.000184066
0.000155351
0.000347728
0.000145084
0.000142324
0.00246272
0.0195662
0.00014569
0.000142479
0.000162984
0.000150433
0.00132573
0.000171167
0.000157233
0.000144939
0.0240666
0.000142844
0.00014241
0.0443838
0.000215359
0.000178474
0.0226821
0.000213452
0.00270615
0.00271445
0.000152412
0.046003
0.00026847
0.000282688
0.000157483
0.00016343
0.000147612
0.000162839
0.000844948
0.000199999
0.000145323
0.000150292
0.00032034
0.000151764
0.00020335
0.00432008
0.000172221
0.0414109
0.000196746
0.000162664
0.000145179
0.00018389
0.000182567
0.000244068
0.000173903
0.000288882
0.000151762
0.000221721
0.00336844
0.000145228
0.000148311
0.0116379
0.000152147
0.000189727
0.000146171
0.021271
0.0456506
0.0116718
0.0114541
0.000155557
0.00017438
0.0445752
0.00277322
0.00016311
0.000144788
0.000146171
0.000348524
0.00690435
0.00126011
0.000150705
0.0474856
0.000154349
0.000257828
0.000204692
0.000312108
0.0251545
0.000171455
0.000224032
0.000157259
0.000158788
0.000155391
0.0674557
0.000912388
0.000192263
0.000179171
0.000183694
0.000203582
0.000175187
0.000162965
0.000217292
0.0118634
0.000151994
0.000358852
0.000163408
0.00687939
0.000145814
0.00274257
0.00210138
0.000310923
0.060522
0.000189551
0.000144651
0.00014314
0.00016412
0.000160332
0.000141673
0.000197993
0.000217287
0.000155502
0.000164522
0.000151224
0.000157205
0.000152074
0.000174316
0.00185709
0.000141307
0.000180035
0.000151969
0.0533113
0.000160023
0.000152755
0.000150033
0.000147743
0.0269867
0.00019579
0.000199957
0.000146108
0.0433507
0.000775799
0.0718899
0.000612328
0.000181545
0.000161546
0.000151279
0.000145518
0.000156447
0.00178974
0.000148629
0.000149554
0.000202944
0.00240957
0.000148581
0.00112072
0.000217669
0.000154587
0.000144502
0.000171612
0.000219878
0.000148642
0.000185854
0.00014404
0.00105952
0.000336031
0.00122287
0.000148518
0.000982272
0.0660554
0.000146677
0.000161524
0.00347341
0.00018091
0.000149706
0.000157804
0.000142909
0.000157761
0.000207685
0.00018241
0.000165672
0.000663507
0.000148604
0.00327405
0.000337899
0.000141982
0.000178777
0.000163863
0.000182001
0.000153431
0.000162714
0.000150644
0.000172633
0.000150889
0.000151433
0.000155032
0.00109015
0.000217116
0.000158618
0.000171756
0.000156141
0.00016332
0.000162309
0.0507321
0.000162699
0.000151679
0.000148322
0.00269702
0.000144645
0.000157297
0.000141814
0.000201589
0.0080241
0.000152609
0.000174133
0.00015075
0.000154679
0.000142805
0.000163483
0.0071573
0.000165439
0.000150183
0.000154821
0.000187125
0.000201085
0.000238525
0.000179784
0.0412601
0.000181687
0.00119329
0.000157625
0.000208364
0.0611753
0.000163412
0.000246665
0.000150463
0.000151128
0.000163113
0.000142271
0.0262057
0.000141934
0.000152974
0.000153857
0.000144012
0.000141508
0.00016749
0.0112519
0.00077725
0.0481082
0.00107238
0.000190507
0.000158603
0.000150119
0.0551377
0.00017325
0.000192786
0.0605555
0.000157693
0.000632847
0.000159965
0.000144887
0.000174135
0.000150841
0.00025748
0.000180818
0.0010752
0.000142332
0.000145654
0.000164988
0.000143208
0.000207098
0.000202604
0.000180898
0.000179727
0.000171469
0.000220841
2.62119e-05
0.000162645
0.000170796
0.000799592
0.000174762
0.000150691
0.000156534
0.000168229
0.000190639
0.000208455
0.000152627
0.00580324
0.000149814
0.000150286
0.000209161
0.000168839
0.000143374
0.0013467
0.00016552
0.000142123
0.000335799
0.000147818
0.000155875
0.0602085
0.0545273
0.00930415
0.0514355
0.000161181
0.00019161
0.000194554
0.0010035
0.00017857
0.000225821
0.000230019
0.000152898
0.000189111
0.000182357
0.000162235
0.000186519
0.000142149
0.01045
0.000148921
0.000154315
0.000151148
0.000202883
0.000155833
0.0570831
0.00128327
0.000154152
0.0475466
0.000165009
0.000151838
0.000144874
0.0520251
0.000165752
0.0612934
0.00230093
0.000202337
0.000144909
0.000150537
0.00854979
0.000129374
0.000172114
0.00189066
0.00014263
0.0116019
0.000150924
0.000173627
0.000203784
0.000195581
0.0116311
0.0571941
0.01185
0.0227248
0.000185416
0.000173575
0.000145435
0.053257
0.0240198
0.000152706
0.00242778
0.000142282
0.000186463
0.000159566
0.000201916
0.000164668
0.00955851
0.000259638
0.000148897
0.000159024
0.0820102
0.000270093
0.000190318
0.00956392
0.011104
0.000190233
0.000171011
0.0113058
0.000143234
0.00016984
0.0154437
0.000173395
0.000141741
0.000872258
0.000148073
0.00382082
0.0118366
0.0103217
0.000225041
0.000194574
0.000155292
0.000183477
4.64112e-05
0.0113202
0.000154235
0.000199585
0.000155564
0.000150375
0.000144028
0.000115784
0.000312161
0.000149796
0.000154285
0.000662966
0.00885219
0.000286623
0.000154735
0.000154723
0.000167104
0.000234406
0.0223476
0.000152427
0.00020005
0.000160989
0.000196778
0.000154354
0.0108106
0.000155026
0.000173016
0.000174376
0.000198806
0.000194058
0.000147714
0.000162517
0.000158538
0.00863454
0.000160976
0.000150994
0.000151736
0.000164788
0.000149578
0.000184037
0.00722217
0.00195188
0.000141323
0.000182126
0.000287662
0.000156145
0.0671204
0.0195947
0.000148818
0.000158095
0.000158472
0.026277
0.000145632
0.000149636
0.00188758
0.000145526
0.000264368
0.000148326
0.00014396
0.000147925
0.000171917
0.000147959
0.000158145
0.000150959
0.00019581
0.000343552
0.00018206
0.000148581
0.0596178
0.000148502
0.00016395
0.000164453
0.000163616
0.000142389
0.000160772
0.0746065
0.000225583
0.00019718
0.0746776
0.00014551
0.000587185
0.0492148
0.000204478
0.000143915
0.000149968
0.000158942
0.000153848
0.000202108
0.000145424
0.000163697
0.000224619
0.000191387
0.00018184
0.000145054
0.000159697
0.0001686
0.0784179
0.000168008
0.0466268
0.000156747
0.00015108
0.000148811
0.000439388
0.00014498
0.00192894
0.0448274
0.00014749
0.000199371
0.00284099
0.000151429
0.000334751
0.000143817
0.000206116
0.00201344
0.000144375
0.000141441
0.00017969
0.000192578
0.000152015
0.000151366
0.000163959
0.000233209
0.0112106
0.0848274
0.000150207
0.000156867
0.0250644
0.000258574
0.000147483
0.000203445
0.000201625
0.000196865
0.000159907
0.00297818
0.000142556
0.000199904
0.000156947
0.000142467
0.000158311
0.000145575
0.0406732
0.000142487
0.00201042
0.00107265
0.0464393
0.00176015
0.000167957
0.000151013
6.32783e-05
0.000148606
0.000149942
0.000199811
0.000150854
0.000145439
0.000199297
0.00136934
0.000144847
0.0119558
0.000244646
0.0522672
0.000144395
0.00017788
0.000240189
0.00377349
0.00016393
0.000170505
0.000162114
0.000290795
0.0112886
0.000282127
0.000197034
0.000147428
0.000289681
0.000159178
0.00391691
0.000144519
0.000156515
0.0489313
0.000262926
0.000205384
0.000167606
0.000165355
0.000198991
0.0229562
0.000186793
0.000165456
0.000173602
0.000160018
0.00017879
0.00015221
0.000161391
0.0110985
0.000144969
0.00402486
0.000153531
0.0113515
0.000145945
0.000176605
0.000141747
0.0748263
0.000149297
0.000140299
0.000151963
0.000144892
0.000192693
0.0431698
0.000142517
0.000142566
0.000186614
0.000109731
0.000163079
0.00159695
0.000147412
0.000145018
0.000161225
0.000168467
0.00581507
0.000147788
0.0682802
0.000156354
0.000147458
0.000145642
0.000192003
0.000200465
0.0118342
0.000144857
0.00219861
0.000147775
0.044654
0.000149358
0.00014219
0.000202782
0.000149925
0.000159777
0.000156023
0.0386473
0.000187986
0.000142025
0.000174706
0.00019604
0.000157541
0.000165428
0.00016232
0.000360746
0.0405884
0.0871174
0.0013505
0.000145457
0.00109733
0.0141204
0.000149263
0.000182189
0.00422288
0.000160059
0.000232229
0.000152106
0.00837015
0.000145792
0.0483242
0.00167676
0.000150386
0.0194141
0.000160377
0.000159322
0.000148329
0.000154328
0.0065009
0.0001477
0.0108298
0.0128264
0.000195041
0.000145969
0.0485884
0.0001993
0.00016134
0.000330782
0.000156179
0.000148222
0.00721314
0.000188318
0.000166908
0.000191191
0.000142953
0.000255833
0.000170799
0.000152115
0.000158899
0.000583304
0.000161886
0.000141463
0.000158445
0.00173875
0.00159722
0.000185643
0.000196159
0.00742911
0.00606302
0.000145902
0.0586072
0.0389441
0.000145387
0.000183126
0.000158469
0.000169778
0.000145855
0.000156787
0.000144966
0.000159326
0.000145252
0.000336328
0.00228671
0.00144763
0.000162953
0.000164227
0.0651894
0.00014053
0.0114255
0.000201031
0.00225383
0.000154731
0.0693173
0.00016432
0.00947778
0.000311473
0.0115113
0.000156303
0.000588685
0.0083255
0.000164344
0.0805217
0.000154984
0.0587397
0.000196329
0.000178944
0.000272117
0.000150023
0.000155034
0.00014196
0.000179348
0.000203896
0.0500624
0.000142588
0.000234839
0.0489678
0.0237168
0.000158028
0.000209026
0.000149866
0.000142486
0.00120215
0.000590872
0.00016742
0.000186879
0.000155797
0.00118313
0.000169961
0.000218034
0.0103259
0.0002061
0.000149593
0.000170455
0.000190403
0.000145141
0.000199502
0.000146255
0.064775
0.000170719
0.000142852
0.000153398
0.0525806
0.00140676
0.000188832
0.0354198
0.000155047
0.0213303
0.000151228
0.000144173
0.000145819
0.000164111
0.000189095
0.000145108
0.000148835
0.000156168
0.00018617
0.000223608
0.0234642
0.0273559
0.000145728
0.000177195
0.00752524
0.00015047
0.000141122
0.000140577
0.000145592
0.000176443
0.000197404
0.0613151
0.00019581
0.000201342
0.000185842
0.000145226
0.000154136
0.000189873
0.000166178
0.0247094
0.00263322
0.0476058
0.0468568
0.000266648
0.000148522
0.000145143
0.0562066
0.000169647
0.00772088
0.000158792
0.00018811
0.00174834
0.00102802
0.00306744
0.000230324
0.000142934
0.000154151
0.000159637
0.000141059
0.0493951
0.000212568
0.000151491
0.000147632
0.000166356
0.000166381
0.00569703
0.000251291
0.00176686
0.000145216
0.0749576
0.000142401
0.000149294
0.000157294
0.000154216
0.000193504
0.0112507
0.0001421
0.000181721
0.000163634
0.000143322
0.000150232
0.000148523
0.000266787
0.0639644
0.000165404
0.0887502
0.000151886
0.000183956
0.000200415
0.000198284
0.000193208
0.000151784
0.000141615
0.00186628
0.000153346
0.0001658
0.00014744
0.000150916
0.00014581
0.0296922
0.000170418
0.000164888
0.000253838
0.00014324
0.000196979
0.000307194
0.000334907
0.000155479
0.000147532
0.000144634
0.000148839
0.000152026
0.0756005
0.000158609
0.0116591
0.000152794
0.000158154
0.000143103
0.000146649
0.000276804
0.000145842
0.000148609
0.000181287
0.0615786
0.0107408
0.0440398
0.000165878
0.000145363
0.000154507
0.0453176
0.000146647
0.0231285
0.000210392
0.0359721
0.000142616
0.00934906
0.0404145
0.000147832
0.000205805
0.00157695
0.0471174
0.000161359
0.000169004
0.000144776
0.0722886
0.0594424
0.00015362
0.0767744
0.000153847
0.000155455
0.000196621
0.000141943
0.000153809
0.000145315
0.000394929
0.000312047
0.000142817
0.000142546
0.000144287
0.000184301
0.000145544
0.0548334
0.0548481
0.000189271
0.000146246
0.000149131
0.000145163
0.0639899
0.0617091
0.000209376
0.0111658
0.000149256
0.000316128
0.00140975
0.0545024
0.000146545
0.000147266
0.000233983
0.000156483
0.0624208
0.000142727
0.000188342
0.000145962
0.00017369
0.000202687
0.000147085
0.000158434
0.000194257
0.000158106
0.000183807
0.000272947
0.00399745
0.000182179
0.00303292
0.000145672
0.000181618
0.000212917
0.000183745
0.000158736
0.0114119
0.000735574
0.058812
0.0111687
0.000185576
0.000147082
0.000166917
0.000153585
0.0470794
0.000188565
0.000140289
0.000183702
0.0758657
0.000148361
0.000256632
0.000154246
0.0625972
0.0576787
0.000195968
0.000166879
0.000202001
0.000170497
0.000148394
0.0116754
0.00149199
0.000160318
0.00104834
0.000273122
0.00014267
0.00014101
0.00014559
0.0526623
0.0668772
0.00971023
0.000152883
0.000256214
0.0116294
0.000152919
0.000144197
0.000146043
0.00836898
0.000146191
0.000465374
0.0505017
0.0473766
0.000140734
0.0105596
0.00015439
0.0113673
0.000145215
0.000257444
0.000342003
0.045502
0.0061566
0.000145842
0.000145222
0.0449079
0.00014787
0.000148158
0.0275137
0.0211414
0.000153723
0.000162028
0.00014915
0.0107174
0.0328356
0.000399045
0.000205609
0.00015762
0.000205248
0.00015232
0.000287783
0.000183521
0.0297455
0.000192382
0.000202793
0.0592814
0.011755
0.000277105
0.000231032
0.0545524
0.000140569
0.000159373
0.0613547
0.000190664
0.000171535
0.000152675
0.000147982
0.000783199
0.00015599
0.000328194
0.000150779
0.0594772
0.000142525
0.00862765
0.000408874
0.0216039
0.000175705
0.000151851
0.000394151
0.000175885
0.000143395
0.00661439
0.0326925
0.000165886
0.000154564
0.00727769
0.00026548
0.0182582
0.00014229
0.0115644
0.00020453
0.000150836
0.000142976
0.00989364
0.00014874
0.000141388
0.000160561
0.00554508
0.00027666
0.000144276
0.000142381
0.000155128
0.0622705
0.000157457
0.000149274
0.0426665
0.000460133
0.00686234
0.000150158
0.000143247
0.0739316
0.000147909
0.00208355
0.0860088
0.000151501
0.000145472
0.000148716
0.000916929
0.00150472
0.0485626
0.00014578
0.000151222
0.00360173
0.000172661
0.00678542
0.0481394
0.000595048
0.000269239
0.000146482
0.07967
0.000151402
0.000145218
0.000147401
0.000143341
0.000990603
0.000201586
0.00857643
0.000182383
0.0525184
0.00019368
0.000144102
0.000198455
0.00275108
0.0174034
0.000147429
0.000171394
0.000199393
0.000186207
0.0347323
0.000198192
0.0475856
0.0002033
0.00449309
0.0466998
0.000149381
0.000152517
0.000259765
0.000277461
0.000150114
0.000151154
0.00188008
0.000160872
0.0101749
0.000250807
0.000168162
0.000478177
0.00953529
0.000160884
0.00016223
0.0430223
0.000159081
0.07727
0.0483842
0.000148728
0.000149448
0.000944625
0.0221903
6.75616e-05
0.0001468
0.000145777
0.000153358
0.000160554
0.000141735
0.0556735
0.000150437
0.000438717
0.0073167
0.00015649
0.000169757
0.000150654
0.00123624
0.000152093
0.0345888
0.000156213
0.00612968
0.000142586
0.00020622
0.000141501
0.00189966
0.000149245
0.000284943
0.000166535
0.000145024
0.000201171
0.00014311
0.000144807
0.000150625
0.000206618
0.000145127
0.0275232
0.000275863
0.000143899
0.0106233
0.000150339
0.000191122
0.077313
0.000141251
0.000145985
1.40369e-05
0.000153216
0.00018226
0.00547837
0.000192644
0.000160788
0.0674206
0.000141424
0.000923017
0.000151041
0.00018777
0.017307
0.000154647
0.0001509
0.000162183
0.000154979
0.000148381
0.000150038
0.0600644
0.00014926
0.0280112
0.000278567
0.000773289
0.000172932
0.000525563
0.000155234
0.000144423
0.000156351
0.000145032
0.000209132
0.000154216
0.000145207
0.000155833
0.000338214
0.000143514
0.000141587
0.000194621
0.000144822
0.000163601
0.000164444
0.00510656
0.000144931
0.0117816
0.000198379
0.000128851
0.00385956
0.00961981
0.000201499
0.00015152
0.000147872
0.000158562
0.00195346
0.000144354
0.0121148
0.000140876
0.000185134
0.000152198
0.00013989
0.00288244
0.000165539
0.000353085
0.0299817
0.000264591
0.000147933
0.000145839
0.000193811
0.00322073
0.000155546
0.000877549
0.000200198
0.000140054
0.000155199
0.000200706
0.042627
0.000151969
0.000144014
0.000174214
0.000154726
0.00211927
0.00297462
0.000265441
0.0426918
0.0551188
0.00314708
0.00114116
0.000253293
0.0547933
0.00888327
0.000142983
0.000142279
0.000262809
0.00467693
0.000150325
0.000152891
0.0110532
0.0124345
0.000169112
0.000146148
0.000168885
0.0131088
0.000144496
0.000150504
0.000147874
0.0014866
0.000161418
0.000876857
0.000148028
0.00112442
0.000175229
0.000151169
0.00197948
0.000142699
0.00014592
0.000145223
0.000188551
0.000168267
0.000335328
0.00123304
0.000150245
0.000145087
0.000141547
0.000143216
0.00100614
0.000151129
0.000141018
0.000194087
0.000143681
0.000202256
0.000141248
0.000156987
0.000194259
0.000512089
0.0606964
0.000155561
0.000149635
0.000146601
0.000148802
0.0417715
0.0115447
0.000217096
0.000161039
0.000157573
0.0501662
0.000154626
0.0240214
0.000145257
0.0444441
0.000144466
0.000158079
0.00556278
0.000155951
0.0738503
0.00215763
0.0399835
0.000148396
0.0022824
0.000146815
0.000253934
0.000256571
0.000159861
0.0779671
0.000159175
0.000145851
0.000714077
0.000156509
0.000141578
0.000228755
0.00017086
0.000149646
0.000183081
0.00014793
0.00014314
0.0114832
0.000142238
0.000146436
0.0184095
0.000145266
0.000174068
0.000176642
0.000147705
0.000165803
0.000142818
0.0340997
0.000173771
0.0237635
0.04036
0.00018416
0.000141212
0.000146736
0.000144924
0.0317801
0.000173158
0.000143589
0.000167275
0.000145344
0.0273269
0.0440125
0.000147256
0.000520083
0.000142816
0.000171724
0.000153615
0.000144493
0.000209889
0.00341793
0.000152075
0.000241296
0.000931689
0.000237852
0.000148555
0.00373413
0.0524945
0.000144816
0.032776
0.000144973
0.0486044
0.000149487
0.000253289
0.0221507
0.000168754
0.000161107
0.000181573
0.000143279
0.00014257
0.000158925
0.000168492
0.000145598
0.0123981
0.011552
0.000144885
0.00014194
0.000172551
0.000218245
0.00018147
0.00014482
0.000200116
0.000147785
0.000164045
0.000165589
0.00472928
0.00014363
0.000141923
0.000163202
0.0566596
0.0132653
0.000148455
0.000800892
0.000310869
0.00123726
0.00111478
0.000201009
0.000149782
0.000160808
0.000145351
0.00014753
0.0178871
0.000155271
0.000151172
0.00024426
0.000145432
0.0122819
0.000152705
0.000874402
0.000151079
0.0519106
0.000150856
0.00535082
0.000144349
0.000178909
0.000158831
0.000226562
0.000155517
0.000141839
0.0310444
0.000159858
0.000145137
0.000145621
0.0038097
0.0462706
0.000141444
0.000179871
0.000748058
0.000179157
0.000276603
0.000153564
0.000148534
0.00158876
0.000149775
0.0125964
0.0554205
0.00014309
0.000153355
0.0102281
0.000142642
0.000145417
0.000152144
0.00841159
0.000166398
0.000200256
0.00032485
0.0556493
0.0341455
0.00147044
0.0103878
0.000142099
0.000141776
0.000182107
0.000159789
0.00014939
0.00145695
0.000146512
0.000143169
0.000153123
0.00025052
0.00965051
0.000347021
0.000161577
0.000148905
0.000865827
0.000166962
0.000142704
0.000241266
0.00027049
0.0257503
0.000153021
0.000142686
0.00015982
0.000153494
0.000147986
0.000172743
0.00142069
0.00015601
0.0154441
0.000175025
0.000283135
0.00318401
0.000305967
0.000120612
0.000175032
0.0178975
0.000149819
0.000144894
0.000140711
0.00014319
0.000209206
0.000149236
0.000225343
0.000158527
0.0276715
0.000150279
0.000166489
0.000177342
0.001296
0.014064
0.000161606
0.000150608
0.000141744
0.000142326
0.000158187
0.00014478
0.0233932
0.000153681
0.000249831
0.0511637
0.000152805
0.000142491
0.000142008
0.0189713
0.0410429
0.00111036
0.000170508
0.000145105
0.0556702
0.00033624
0.000147689
0.000142815
0.000337756
0.00437472
0.000148852
0.0859308
0.0385718
0.000161352
0.000200643
0.000144496
0.000211482
0.000240011
0.000148513
0.000148492
0.000167336
0.000158261
0.000154343
0.000140565
0.000146413
0.000151114
0.000152928
0.000151021
0.000145308
0.000153875
0.000160415
0.000144694
0.000165399
0.000156701
0.00249667
0.000146325
0.0395964
0.00014737
0.0517663
0.000153496
0.000659322
0.000170358
0.000157177
0.000141714
0.000143633
0.000186287
0.000158005
0.0103639
0.000150509
0.000145312
0.000193515
0.000157306
0.0217981
0.000191248
0.0143769
0.0267032
0.000176501
0.000277158
0.000143897
0.000160204
0.000144115
0.000152533
0.000146111
0.000148663
0.00620987
0.000678382
0.000159162
0.000149584
0.000219498
0.014325
0.000169903
0.000140857
0.000174329
0.000148658
0.000142367
0.00124503
0.000208489
0.00948786
0.000167295
0.000204004
0.000525801
0.00921772
0.000154833
0.000361584
0.0472016
0.000474768
0.000733211
0.000163768
0.000149029
0.000151378
0.00017888
0.000145605
0.00670447
0.000155466
0.011558
0.000151952
0.000167166
0.000146039
0.000150708
0.000285151
0.00017854
0.0755624
0.000148913
0.00014462
0.000847172
0.0260882
0.000142584
0.0600574
0.000142237
0.000160578
0.00015815
0.000145013
0.058557
0.000165539
0.000213241
0.000150894
7.06929e-05
0.000159795
0.000147674
0.00529332
0.000150325
0.0008016
0.0004106
0.000140955
0.000197949
0.000139838
0.0572638
0.00164172
0.000198145
0.00014922
0.00016354
0.000143969
0.0115613
0.000196462
0.00146892
0.000163316
0.0539854
0.00926771
0.000170261
0.045728
0.000208695
0.000143725
0.00021631
0.000364161
0.000182345
0.000279819
0.000186045
0.000393024
0.000165913
0.000157828
0.000780444
0.00285654
0.000321057
0.000251777
0.0118268
0.000145164
0.000180713
0.0504265
0.00201708
0.00202677
0.000219908
0.000168048
0.000253056
0.00015298
0.000163063
0.0635674
0.000200072
0.000145841
0.0132413
0.000148772
0.000267428
0.0487221
0.000160679
0.00132102
0.000167182
0.000151601
0.000268106
0.000194256
0.000225125
0.000144822
0.000334948
0.0454997
0.000148548
0.000149857
0.000157962
0.0294938
0.0538332
0.04191
0.00016859
0.0030287
0.000154811
0.000149686
0.000203556
0.0183179
0.000166558
0.0215315
0.000258385
0.0270886
0.000155419
0.000152528
0.0136163
0.00970755
0.000205404
0.000157355
0.000198509
0.0563166
0.000176336
0.000148463
0.000142951
0.00015101
0.000144748
0.000160291
0.000179611
0.000143269
0.000198542
0.00964539
0.00018223
0.000173263
0.000150403
0.000193803
0.000197308
0.000192101
0.0129829
0.000141653
0.000197381
0.0480771
0.00019624
0.000149839
0.00316992
0.000149835
0.0114446
0.000150939
0.000161166
0.000169471
0.0587946
0.00196392
0.000155228
0.00014288
0.000825285
0.000420824
0.000178319
0.000176771
0.000178778
0.00775217
0.0115369
0.0576106
0.0625102
0.0105177
0.000275309
0.000214216
0.000148832
0.000145416
0.000149121
0.000152429
0.000156869
0.000145394
0.000243239
0.0543114
0.000186715
0.00172443
0.00134363
0.0488921
0.000287575
0.00020012
0.00375874
0.000260849
0.000151809
0.000155577
0.000162192
0.000141732
0.00133679
0.000228879
0.037131
0.000153263
0.00015896
0.000165471
0.000151119
0.000475198
0.000152828
0.000158247
0.000148479
0.000143166
0.000655014
0.00116173
0.000160789
0.000339753
0.000142188
0.000139996
0.00028781
0.000142091
0.000143386
0.000360475
0.000181811
0.000166841
0.000166091
0.0540831
0.000149749
0.00127791
0.000142188
0.000145767
0.0529956
0.00968938
0.0267652
0.000155553
0.000145722
0.000148228
0.0116252
0.000217594
0.000163894
0.000157916
0.00014962
0.000149695
0.000141147
0.000203704
0.000220746
0.0490145
0.000155674
0.000240877
0.000143889
0.00287516
0.000294624
0.000191695
0.000326177
0.000163781
0.0213027
0.000156241
0.000206217
0.0877757
0.0461331
0.000153277
0.00015855
0.000144385
0.00195913
0.0525766
0.0595341
0.00222249
0.0116154
0.000234178
0.000140256
0.000165845
0.00018999
0.00708429
0.000160927
0.000149494
0.00018099
0.0778553
0.00014402
0.000140072
0.000149316
0.000170554
0.000141539
0.000170171
0.000247378
0.000306634
0.000329027
0.000146382
0.000200535
0.0875731
0.0308532
0.00016606
0.000156691
0.0306615
0.000178327
0.0560804
0.0498318
0.000145285
0.00014823
0.000151936
0.000474663
0.0135035
0.000149785
0.016898
0.0474971
0.000330926
0.000145287
0.000144224
0.000151855
0.000142306
0.0292374
0.0186923
0.00029225
0.0453335
0.00017319
0.000145074
0.0362277
0.000147744
0.0147512
0.0570576
0.000214405
0.0762253
0.000475569
0.000153552
0.000175758
0.00015079
0.0544107
0.000261015
0.000378559
0.00014249
0.000162235
0.0677797
0.00116572
0.000150127
0.000152561
0.000157291
0.000162032
0.000192545
0.00569761
0.000164761
0.000172337
0.0481255
0.000237488
0.00020492
0.00545488
0.000189878
2.60837e-05
0.000178816
0.0445145
0.000150431
0.00427609
0.00023448
0.000150752
0.055594
0.000144624
0.000184275
0.000151368
0.0019055
0.0221834
0.000163084
0.00014685
0.00918731
0.000196763
0.000156686
0.00343193
0.00017664
0.000622749
0.0125413
0.000126697
0.000154953
0.0425673
0.000162922
0.000202953
0.000164726
0.000139909
0.000143967
0.0506339
0.000151221
0.00198866
0.000148313
0.000176788
0.000160902
0.000172158
0.000164074
0.000144478
0.00158017
0.000144222
0.0149551
0.000144254
0.0487218
0.000171472
0.000117229
0.00020877
0.000270188
0.000185092
0.000160364
0.000294945
0.014427
0.000206303
0.000225964
0.000377795
0.000150473
0.000156942
0.000167241
0.047961
0.00812006
0.00169817
0.000175072
0.000200974
0.000163505
0.0480669
0.00296958
0.0599423
0.000153119
0.00014808
0.000176675
0.0153723
0.000150315
0.000233519
0.000785858
0.000150131
0.0324926
0.000153213
0.0494858
0.000242458
0.0593008
0.000171638
0.000151351
0.000159848
0.000834179
0.000142087
0.000155125
0.000271255
0.000179949
0.000147961
0.000193688
0.00228995
0.000164549
0.000148608
0.000220161
0.000200448
0.000150488
0.000162511
0.000657247
0.068055
0.000189304
0.00193954
0.00609777
0.000160391
0.000144777
0.00354853
0.000141692
0.000198855
0.00268
0.000138629
0.000150563
0.000141137
0.000151005
0.00020317
0.0616671
0.000162656
0.040912
0.000153225
0.000323519
0.000158657
0.00280894
0.0467254
0.000320133
0.0614752
0.00154846
0.000156772
0.000147137
0.000156555
0.000152546
0.00918686
0.000143874
0.000153791
0.000156286
0.000153857
0.000154099
0.0294388
0.000146343
0.00017478
0.00136149
0.000144847
0.0398678
0.000163267
0.000193011
0.00658719
0.000193504
0.000755307
0.000154649
0.0634236
0.000161855
0.000208004
0.000174039
0.000168298
0.000163861
0.000188411
0.000144572
0.000150677
0.000152075
0.00308145
0.000505387
0.0252258
0.000219511
0.000149958
0.000203327
0.000151313
0.000161132
0.076014
0.000155283
0.000199982
0.0119411
0.000142285
0.000220259
0.00276547
0.000170124
0.000267578
0.0150143
0.000172096
0.000157282
0.000164822
0.000144514
0.000172424
0.0454602
0.000143226
0.000150589
0.0547738
0.0603107
0.00146591
0.0512819
0.0498708
0.000177396
0.00372447
0.0221638
0.000180231
0.000143262
0.000164064
0.000775496
0.000388531
0.000152801
0.00014899
0.000412831
0.000184692
0.000260859
0.000154365
0.000146007
0.000143678
0.0474462
0.000168013
0.00198255
0.0511706
0.000143299
0.0488221
0.000151459
0.000159241
0.0730236
0.0519153
0.0330059
0.000169749
0.000161184
0.00266081
0.000149352
0.000152324
0.00213699
0.00199488
0.0251916
0.00891758
0.000221505
0.000142764
0.000147545
0.000158542
0.0549129
0.061644
0.000171428
0.000153616
0.000148323
0.00549051
0.0459491
0.000147951
0.000171792
0.000179332
0.0483182
0.000157025
0.0001477
0.01321
0.000144337
0.000167867
0.0555172
0.000148272
0.000156394
0.000165323
0.000155819
0.000152517
0.000166334
0.0589975
0.000148478
0.00021679
0.00015969
0.000895143
0.00394716
0.00672843
0.000141486
0.000183972
0.000180292
0.0201152
0.000164387
0.000147668
0.000242673
0.000166816
0.000142877
0.0633726
0.000221425
0.000159365
0.000143597
0.000151285
0.00020873
0.000154526
0.000245886
0.000155288
0.000162924
0.000164142
0.0838411
0.00405008
0.000160355
0.0222524
0.000172361
0.000156804
0.000167559
4.27791e-05
0.000147889
0.000248063
0.000140764
0.000162111
0.000147353
0.000209367
0.000187019
0.00287154
0.000152501
0.0591361
0.000274879
0.0696426
0.000252723
0.000616273
0.000159472
0.00015378
0.0372175
0.000172749
0.000144287
0.000148399
0.000152104
0.000144453
0.000144581
0.000178856
0.000142662
0.000179709
0.0436596
0.000157608
0.00390733
0.000224546
0.000178262
0.00036749
0.000151654
0.000154694
0.0036629
0.000219516
0.000159273
0.000141694
0.0748864
0.000146966
0.00452687
0.0681783
0.00384506
0.000204254
0.000163202
0.000237085
0.017806
0.0083786
0.000153275
0.00019352
0.0450789
0.0721703
0.000149166
0.05049
0.000145731
0.000148572
0.002341
0.000544102
0.000148253
0.000171478
0.0101154
0.000168886
0.00154428
0.000174735
0.0126404
0.000170481
0.000152663
0.00014838
0.000204896
0.000144529
0.000141323
0.000280357
0.000224598
0.000153885
0.00110359
0.00273061
0.000298873
0.000151084
0.0546849
0.000141791
0.000149001
0.000276443
0.0662456
0.000278337
0.000184257
0.000142643
0.000144164
0.000172481
0.0134379
0.0106024
0.000150314
0.00516388
0.0536321
0.000190087
0.000148297
0.000181401
0.000149916
0.000146639
0.000181844
0.0128547
0.000149507
0.0654185
0.000165945
0.0476707
0.0037668
0.0313688
0.050111
0.000144631
0.00445672
0.000155945
0.000219153
0.00029701
0.000180794
0.00136125
0.000149303
0.000141779
0.0479836
0.00142818
0.00371161
0.0091317
0.00016688
0.000142789
0.000143866
0.000150563
0.000813686
0.00197404
0.000165761
0.000167454
0.000142514
0.00138205
0.00017873
0.000141729
0.00373943
0.0435576
0.04844
0.000299447
0.000152289
0.0001482
0.0568973
0.0468745
0.000414701
0.0474834
0.0002091
0.000145612
0.000229822
0.000146106
0.0132752
0.000214613
0.000151455
0.000144938
0.0385269
0.000148849
0.0032179
0.000161035
0.000213523
0.000149048
0.000149521
0.00014826
0.000272194
0.0461522
0.000172401
0.000458625
0.000150355
0.000145796
0.0373208
0.00255536
0.062696
0.00015233
0.000140654
0.000162812
0.0129968
0.000145623
0.000172201
0.000148447
0.000260002
0.000152159
0.00902103
0.00156655
0.000170736
0.000188812
0.000225277
0.000149704
0.000414529
0.000165441
0.000146881
0.000141512
0.048742
0.0472823
0.0461789
0.00316217
0.000160326
0.0288207
0.000171207
0.0021596
0.000170885
0.000142099
0.000142218
0.000208473
0.00676606
0.00889269
0.000150124
0.000300709
0.00014483
0.000141394
0.000144852
0.000207685
0.000198676
0.0735803
0.000165033
0.000149912
0.0295424
0.000150289
0.00192906
0.0481011
0.000153886
0.000152556
0.0643052
0.0631931
0.000149276
0.000196906
0.000160584
0.000156418
0.000152642
0.0102049
0.000145415
0.000147899
0.000190238
0.000150143
0.000202853
0.04482
0.000171238
0.0559517
0.0502936
0.00015999
0.000147662
0.000145056
0.00016995
0.000150152
0.000150104
0.00105661
0.000166216
0.000158385
0.000151343
0.000147381
0.0138194
0.000142896
0.000152145
0.000150481
0.0234018
0.000170745
0.000144173
0.00014149
0.000148087
0.000147553
0.000163706
0.000154034
0.000141643
0.000219901
0.000149361
0.000148424
0.000338542
0.000145646
0.000148777
0.000209447
0.000160384
0.0389681
0.000142153
0.0766063
0.000179703
0.0703075
0.000163968
0.000166295
0.000179617
0.0537709
0.0715632
0.000151995
0.0641004
0.000302849
0.00360143
0.000185461
0.000150903
0.00174574
0.000146068
0.000172932
0.000168179
0.000759432
0.000155707
0.00015587
0.0049979
0.000168953
0.0660345