/*--------------------------------*- C++ -*----------------------------------*\
| =========                 |                                                 |
| \\      /  F ield         | OpenFOAM: The Open Source CFD Toolbox           |
|  \\    /   O peration     | Version:  v2012                                 |
|   \\  /    A nd           | Website:  www.openfoam.com                      |
|    \\/     M anipulation  |                                                 |
\*---------------------------------------------------------------------------*/
FoamFile
{
    version     2.0;
    format      ascii;
    class       volScalarField;
    location    "50";
    object      omega_0;
}
// * * * * * * * * * * * * * * * * * * * * * * * * * * * * * * * * * * * * * //

dimensions      [0 0 -1 0 0 0 0];


internalField   nonuniform List<scalar> 
18649
(
0.723246
0.0212699
0.732018
0.0561764
0.0232399
0.105609
0.0214633
0.0209949
0.336709
0.997528
0.0214231
0.0211589
0.0249597
0.0222864
1.37506
0.0268849
0.0238992
0.0214521
0.808081
0.0212618
0.021151
2.44735
0.0230529
0.0468888
1.00552
0.0252583
0.356634
0.36632
0.0225784
8.47865
0.0609736
0.0351401
0.0239592
0.0289602
0.0224524
0.0273363
0.761092
0.0438589
0.0213962
0.0222514
0.150779
0.0227855
0.128062
0.405923
0.0240058
2.0063
0.0215457
0.0288682
0.0214893
0.0518892
0.0534535
0.0250452
0.0246837
0.092497
0.0224344
0.149739
1.23214
0.021495
0.0216596
0.730073
0.021501
0.0858922
0.0215803
2.51436
7.5087
0.72697
0.740391
0.0243821
0.0242115
2.56303
0.357377
0.028778
0.021437
0.0215788
0.174581
0.450751
0.166097
0.0232272
3.40177
0.0218927
0.097812
0.0465828
0.0984383
0.781093
0.0247915
0.152657
0.0246518
0.0254956
0.0219636
1.49762
1.29042
0.0830735
0.0477872
0.0440938
0.0276487
0.0248021
0.0274241
0.0553319
0.73514
0.0214798
0.258641
0.0252535
0.651213
0.0214632
0.350694
0.308729
0.0965139
3.65551
0.120967
0.0214265
0.0213749
0.0299439
0.0264998
0.0209654
0.026764
0.055606
0.0243437
0.0302516
0.0223983
0.0246496
0.0214785
0.0411536
0.251471
0.0209438
0.0249146
0.0228766
2.09896
0.0236463
0.0226837
0.0215758
0.0216745
2.46122
0.113691
0.144783
0.0220674
2.38443
0.270085
3.38785
0.251251
0.0246645
0.0280956
0.0226174
0.0211593
0.0231492
0.272294
0.0212173
0.0220997
0.155073
0.327296
0.0218416
0.149043
0.104689
0.0233097
0.021418
0.0375767
0.0597581
0.021855
0.0264227
0.0210742
0.378002
0.104309
0.159887
0.0218287
0.268982
3.13792
0.0216761
0.0231622
0.386158
0.0292111
0.021306
0.0249003
0.021365
0.0219393
0.0314315
0.0492008
0.0229567
0.123003
0.0218434
0.376252
0.107572
0.0210926
0.0244985
0.0230827
0.0256527
0.0225741
0.0229894
0.0223131
0.0388998
0.0213897
0.0220091
0.0240424
0.149214
0.101546
0.0254548
0.0316212
0.0218295
0.0230423
0.0229655
3.13499
0.0289613
0.0220896
0.0216818
0.448986
0.0214295
0.0233529
0.0211693
0.151122
0.659296
0.0231621
0.0244579
0.0213795
0.0235582
0.0209485
0.0281356
4.24634
0.0293302
0.0227506
0.0239419
0.026502
0.0229939
0.0517054
0.0248996
2.19231
0.0399307
0.157552
0.0228592
0.088412
1.19743
0.0264082
0.0539899
0.0218927
0.0984638
0.0291901
0.021159
1.1577
0.0210843
0.0231766
0.0226593
0.0209916
0.0207806
0.0296368
0.736543
0.277136
3.52127
0.147358
0.0337924
0.0255215
0.0230486
3.42286
0.039722
0.0347831
1.18687
0.0232511
0.219505
0.026781
0.0213436
0.0244592
0.021384
0.056312
0.029107
0.86667
0.0214295
0.0216369
0.0281469
0.0211699
0.0838016
0.0275112
0.02432
0.0290721
0.0237383
0.0857991
0.268109
0.0276698
0.0236892
1.0412
0.0417097
0.0223249
0.0250273
0.0299214
0.0884986
0.189826
0.0230961
0.617646
0.0226342
0.0215571
0.132377
0.0307552
0.0214666
0.319502
0.0235581
0.0211116
0.105638
0.0216779
0.0228875
1.98385
3.41846
2.05769
2.54671
0.0278508
0.0274181
0.0262556
0.279001
0.0378332
0.0884559
0.192403
0.0223713
0.0245808
0.0551713
0.0286043
0.0578392
0.0211179
0.724423
0.021759
0.0224503
0.0224638
0.0670336
0.0243783
1.45941
0.167457
0.0224924
2.67675
0.0231002
0.0214618
0.0217602
2.52247
0.0266964
1.96294
0.454238
0.0301978
0.0214688
0.0223311
0.476423
0.213987
0.0274449
0.25866
0.0211356
0.740793
0.0221492
0.0381663
0.16291
0.0389368
0.746855
1.4573
0.48555
1.00795
0.0592257
0.0402726
0.021392
2.61899
0.827023
0.0230753
0.654228
0.0213743
0.0318749
0.0265524
0.0459343
0.0262898
0.499229
0.0601447
0.022063
0.0257195
1.62584
0.0472004
0.0277459
0.660613
0.729134
0.0256579
0.0247941
0.708603
0.0209853
0.0354846
1.07713
0.0244601
0.0211073
0.97826
0.0217231
0.563761
0.706839
0.497689
0.185932
0.188063
0.0226001
0.0308028
0.26018
0.514264
0.0234094
0.0407373
0.0218169
0.0222854
0.0215677
0.161936
0.141176
0.0219514
0.0234455
0.225821
0.698895
0.0619444
0.0226254
0.022921
0.0231996
0.196413
0.886462
0.0230935
0.0725632
0.0221733
0.0272577
0.0217347
0.70563
0.0226157
0.0395529
0.0275079
0.0718593
0.0876418
0.0216785
0.143138
0.0260488
0.473456
0.0262598
0.0224398
0.0227833
0.0299425
0.0219122
0.0528438
0.479853
0.39773
0.0207794
0.0700875
0.102112
0.024823
3.09479
1.00893
0.0212194
0.0247255
0.0249294
3.13443
0.0214296
0.0216621
0.268723
0.0214036
0.0382415
0.0211821
0.0211191
0.0216945
0.0366463
0.0217108
0.0232897
0.022423
0.0908132
0.0976457
0.0299688
0.0218492
2.04793
0.0218314
0.022907
0.0297357
0.0250907
0.0211634
0.0225783
2.9332
0.165225
0.0274099
3.0015
0.0214169
0.112986
1.14351
0.0313095
0.0210946
0.0218267
0.0233631
0.023264
0.0384856
0.0216174
0.0281801
0.0605266
0.0555807
0.0551789
0.0214511
0.023644
0.0325675
2.81692
0.0326075
3.54723
0.0244406
0.0214045
0.0217313
0.140604
0.0212838
0.369639
2.13087
0.0223592
0.0373893
0.371378
0.0217907
0.0694153
0.0210588
0.0407083
0.454281
0.0214244
0.0212314
0.0266481
0.0566335
0.0228723
0.022515
0.0259957
0.026534
0.71303
1.66509
0.0218431
0.0219026
0.769516
0.0381482
0.0216314
0.0310083
0.11848
0.118592
0.0263893
0.366373
0.0211565
0.0822327
0.0219066
0.020993
0.0250204
0.0215515
2.17889
0.0209904
0.288476
1.73937
3.6417
0.259636
0.0293396
0.0218925
0.163182
0.0211945
0.021604
0.118244
0.0223696
0.0211646
0.0394199
0.704961
0.0214779
1.02691
0.0885923
2.65989
0.0212526
0.0462542
0.102994
0.435343
0.0259604
0.0320601
0.0260834
0.0434786
0.730815
0.105801
0.0740774
0.021624
0.0692646
0.0220613
0.482051
0.0212652
0.0228105
1.13304
0.0562905
0.134342
0.0316834
0.0230885
0.0297771
3.05559
0.0593408
0.029312
0.0408341
0.0262467
0.0476711
0.0219032
0.0221948
1.01485
0.021256
0.401984
0.0231542
0.941253
0.0215594
0.0259642
0.0210704
3.05341
0.0218477
0.0206685
0.0228646
0.0214645
0.180052
2.02813
0.0211508
0.0210732
0.0254044
0.173452
0.0229843
0.33634
0.0222568
0.0214965
0.146524
0.0263046
0.448226
0.0218841
3.14827
0.0220608
0.0212515
0.021165
0.0476509
0.0267314
0.735509
0.0214763
0.308258
0.0216822
2.10885
0.0218726
0.0211076
0.116457
0.0220788
0.022065
0.0231241
1.27318
0.0512193
0.0209695
0.0242162
0.107417
0.0230524
0.0290521
0.0282348
0.102637
2.14347
1.70085
0.704972
0.0215146
0.147687
2.30091
0.0228087
0.0414761
0.776097
0.02623
0.0991284
0.0235652
0.649688
0.0215477
3.64284
0.305486
0.0217537
1.13382
0.0242151
0.0256251
0.021179
0.0234281
0.661144
0.0218608
0.987549
0.501785
0.0564587
0.0215168
5.8283
0.0438667
0.0242468
0.0964468
0.0229137
0.022227
0.456476
0.025854
0.0289278
0.0519913
0.0210079
0.0475798
0.0311704
0.0229669
0.0224175
0.205653
0.0279446
0.0210041
0.0219846
0.426521
0.23996
0.0480804
0.121319
0.665913
0.452327
0.021459
1.17842
1.87437
0.0214894
0.0567169
0.0219774
0.0341215
0.021507
0.0235852
0.0212876
0.0220197
0.0215046
0.104992
1.66835
0.222721
0.0277254
0.0230855
2.32411
0.0208731
0.514416
0.0439282
0.343721
0.0239849
2.39682
0.0228174
0.682163
0.0793334
0.507053
0.0230198
1.25902
0.627804
0.0285578
3.66026
0.0229369
6.48904
0.0255232
0.0407601
0.0782232
0.0213252
0.0224387
0.0209687
0.0262968
0.104409
2.17768
0.0211918
0.0509577
1.14523
0.781972
0.0219231
0.0786697
0.0213181
0.0211872
0.161505
0.103964
0.0321637
0.0517878
0.0243434
0.155609
0.0267939
0.0314736
0.686829
0.155675
0.0214458
0.0317899
0.0741275
0.0214956
0.0277939
0.0214357
1.48772
0.0364727
0.0211176
0.0227905
3.49404
0.372393
0.054664
1.28389
0.024115
0.791653
0.0224961
0.0211162
0.0211534
0.027648
0.0678976
0.0215048
0.0212204
0.0220511
0.0486754
0.0329077
0.77646
1.10595
0.0214469
0.0389794
0.607606
0.0217015
0.021124
0.0207596
0.0213768
0.0371103
0.0322354
5.92418
0.0399626
0.043784
0.0257352
0.0214774
0.0237466
0.0277486
0.0235517
10.7139
0.735484
2.07125
6.49145
0.0654008
0.0218203
0.021479
1.14133
0.0351301
3.42401
0.0253205
0.0656201
0.264694
0.142785
0.366906
0.0491929
0.0211798
0.0238137
0.0260612
0.0209684
4.36334
0.0752657
0.0221638
0.0216708
0.0311938
0.02956
1.74867
0.0568718
1.51247
0.0218726
3.33538
0.0212055
0.0220282
0.0252613
0.0225216
0.0282064
0.735045
0.0210341
0.0550764
0.0277269
0.0214299
0.0221458
0.0217525
0.0296262
1.49716
0.0289279
1.72848
0.0228071
0.0585076
0.0668893
0.100354
0.0285621
0.0228159
0.0207924
0.437588
0.0232906
0.0258376
0.0218481
0.0220571
0.0214049
1.78944
0.0308625
0.0285987
0.0538269
0.0210311
0.0403025
0.0660296
0.092048
0.0220682
0.0218537
0.021282
0.0220451
0.0224956
3.91728
0.0252277
0.747831
0.0225036
0.0251632
0.0210259
0.0217182
0.0496683
0.0214043
0.0220032
0.0540576
1.21109
0.462362
2.5691
0.0308604
0.0215074
0.0219743
6.23791
0.0215
0.882184
0.0737096
2.57511
0.0211175
0.95166
1.07864
0.0216855
0.0361533
0.389796
2.51147
0.0259921
0.0335074
0.0214848
1.54547
3.23359
0.0224288
1.57154
0.023619
0.0232288
0.0290527
0.0211575
0.0228994
0.021354
0.102828
0.0869555
0.0211367
0.0212055
0.021263
0.0307905
0.0211485
3.52705
2.09438
0.0706623
0.0214312
0.021723
0.0211247
3.67221
1.4829
0.183833
0.944698
0.0220881
0.100684
0.493274
2.21404
0.0214558
0.0218504
0.128856
0.024287
5.08999
0.0210696
0.030301
0.0220432
0.037983
0.0459144
0.0212117
0.0245773
0.0277873
0.0238748
0.0438876
0.0753082
0.40576
0.0552021
0.368077
0.0215349
0.056025
0.0458429
0.0279179
0.0240498
0.490506
0.150872
5.94281
1.74287
0.0281191
0.0218424
0.0291315
0.0233745
1.15223
0.0459616
0.0207014
0.0261081
2.58571
0.0217505
0.0560591
0.0229923
2.42831
6.44267
0.117604
0.0231272
0.047637
0.0318709
0.021988
0.501762
0.382057
0.0260976
0.226062
0.0820243
0.0211428
0.0210536
0.0215284
2.14484
4.19658
2.1208
0.0218278
0.0547161
0.513364
0.0228243
0.0211015
0.0215702
0.487765
0.0211626
0.1214
4.29783
5.77804
0.0209592
0.692738
0.0223796
0.495289
0.0212866
0.0578525
0.0953978
2.02557
0.953731
0.0213974
0.0214635
2.68822
0.0224896
0.0219484
6.93518
2.39077
0.0237632
0.0228229
0.0219899
0.46458
1.17039
0.0477922
0.0750186
0.0248124
0.0466147
0.022986
0.0701536
0.0574517
3.27628
0.0597985
0.0350205
3.49678
0.512551
0.057335
0.196778
2.28654
0.0207313
0.0249315
3.58534
0.0773609
0.0324959
0.0231036
0.0217079
0.11233
0.0240582
0.105795
0.0222109
1.18425
0.0211969
0.550709
0.144312
1.1326
0.0355011
0.0227925
0.157525
0.04304
0.0209401
0.562265
3.33144
0.0296669
0.0230841
0.576937
0.0394856
2.34794
0.0211962
0.506846
0.0353629
0.0217051
0.0214041
0.601563
0.0212299
0.0211857
0.0225818
0.459873
0.0745013
0.0214159
0.0211172
0.0237271
1.22582
0.0253326
0.0220221
2.1084
0.139001
3.655
0.0229383
0.0215919
4.0671
0.0216117
0.311373
1.74497
0.0217483
0.0212916
0.0218635
0.312871
0.888045
1.26856
0.021396
0.021787
0.369682
0.0371508
1.58047
2.76677
1.28342
0.039471
0.0216582
3.95951
0.0225344
0.0213278
0.0215521
0.0211752
1.56892
0.0343195
0.490068
0.024817
3.03552
0.0531705
0.0210736
0.0323777
1.10942
2.35252
0.0216509
0.0311677
0.0390857
0.0305787
11.7256
0.0645175
1.17987
0.0461304
0.418233
2.06098
0.0220513
0.022992
0.0374658
0.0473545
0.0221243
0.0215493
0.278291
0.0276063
0.709716
0.217182
0.0233064
0.0720083
0.451391
0.0251691
0.0254869
2.5895
0.0254024
3.24257
3.84405
0.0218697
0.0213014
0.137314
0.775461
0.0972312
0.0219239
0.0214344
0.0216762
0.0259763
0.0210185
1.1504
0.0221948
0.0662097
3.52381
0.0250199
0.0241927
0.0218371
0.163133
0.0216984
1.98908
0.0248466
0.52491
0.0211986
0.0425137
0.0210479
0.270235
0.0217414
0.0751636
0.0266791
0.0214525
0.026131
0.0212847
0.0212412
0.0213629
0.0282278
0.0214798
1.24362
0.140943
0.0210699
0.491871
0.0219096
0.0277752
2.64945
0.0209882
0.0214184
0.292407
0.0216668
0.0484074
0.461354
0.0350071
0.0221202
4.11285
0.0210381
0.139052
0.0221212
0.0660713
2.65942
0.0235562
0.0220506
0.025917
0.0223559
0.0219632
0.0213143
1.17371
0.0214264
1.3127
0.954767
0.27122
0.0377132
0.419424
0.0241876
0.0214304
0.0242206
0.0214811
0.05184
0.0222705
0.021383
0.0224231
0.107935
0.0214899
0.0210635
0.0282231
0.0213171
0.0278921
0.0228977
0.47864
0.0212074
0.513659
0.105058
0.114461
0.379078
5.30179
0.0290616
0.0214294
0.0216988
0.0260479
0.324424
0.0209761
0.526045
0.0209651
0.0454655
0.0216168
0.0205
0.443129
0.0263646
0.0858523
2.34772
0.0367473
0.0217035
0.0211733
0.0624394
0.336766
0.0242626
0.14268
0.112648
0.0207245
0.0225445
0.0338277
1.07677
0.0224672
0.0213901
0.0403227
0.0223943
0.322964
0.47303
0.0677826
2.03708
2.12308
0.401435
0.338742
0.0337954
3.14924
0.664999
0.0210971
0.0210526
0.0439408
0.472039
0.0222313
0.023108
0.512888
0.536707
0.030959
0.0217162
0.0241182
0.556188
0.0213026
0.0222786
0.0216887
0.289263
0.0279584
0.152673
0.0217128
0.822137
0.0415998
0.0226102
0.32536
0.0212477
0.0219908
0.021343
0.0313274
0.0239664
0.0414745
1.3601
0.0216299
0.0211907
0.0210383
0.0210248
0.136649
0.0224462
0.0210103
0.0317873
0.0213381
0.0290099
0.0209829
0.0242436
0.0267452
0.119672
1.18347
0.0233444
0.0221203
0.0214635
0.0218788
1.29853
0.505509
0.0315619
0.0274203
0.0219697
3.43901
0.0239596
0.753971
0.0213128
9.8803
0.0217153
0.0248264
0.514716
0.0219543
3.42222
0.467084
3.07729
0.0217606
0.359108
0.0218192
0.138208
0.133743
0.0225448
3.21929
0.022433
0.0214103
0.162592
0.0218948
0.0210449
0.122701
0.0354488
0.0215721
0.0293375
0.0216236
0.0210159
0.502342
0.021116
0.0217789
6.40391
0.0215035
0.0242107
0.0241361
0.0216628
0.0229679
0.0212373
1.04724
0.0407422
0.762851
1.35085
0.0504645
0.0210377
0.0212436
0.0211036
2.27972
0.0287519
0.0215233
0.0238397
0.0214798
3.13022
2.06553
0.0213131
0.384902
0.0210664
0.0331561
0.022262
0.0214203
0.0445847
0.361232
0.021822
0.028563
0.130503
0.0486498
0.0217481
0.375213
3.47106
0.0211493
2.36619
0.0218487
1.29877
0.0220814
0.0606224
1.06824
0.0341138
0.0221602
0.0567484
0.0212002
0.0212318
0.0262724
0.0306901
0.0214907
0.498074
0.5002
0.0214663
0.0211203
0.0284475
0.0309469
0.0529966
0.0213227
0.0327303
0.0216585
0.022861
0.0300617
1.65043
0.021337
0.0211591
0.0292277
2.13234
1.03755
0.021823
0.332965
0.0819857
0.394173
0.365622
0.0329231
0.0221535
0.0241836
0.0211408
0.022428
2.74733
0.023277
0.0226131
0.0412729
0.0214904
0.48836
0.0222991
1.56915
0.0225879
3.33049
0.0224877
0.837269
0.0210688
0.042984
0.025346
0.0275628
0.0238844
0.021117
1.03785
0.0261113
0.0214984
0.0213651
0.44997
3.35036
0.0210523
0.0245969
0.155265
0.0245034
0.0783642
0.0218893
0.0214853
1.47215
0.0221534
0.49294
1.15753
0.0211802
0.0231701
0.687585
0.0212097
0.021521
0.0215488
0.644798
0.0307189
0.105703
0.0704005
1.13491
1.05827
0.744529
5.42366
0.0211765
0.021016
0.0273168
0.0249693
0.0217576
0.748047
0.0212024
0.0400078
0.0230233
0.0606223
0.662535
0.0590033
0.0227671
0.0218977
0.199109
0.0232645
0.0211327
0.0411821
0.0361026
1.16017
0.0226432
0.0212436
0.0249542
0.023707
0.0212331
0.0247241
0.186124
0.0240957
1.07218
0.0418383
0.0467074
0.332336
0.0638225
0.252321
0.024743
2.46114
0.0222129
0.0211201
0.0209746
0.0210969
0.0258548
0.0212629
0.0544551
0.0255827
1.15287
0.0222582
0.0318009
0.0250008
0.228221
0.590223
0.0224918
0.0223591
0.021048
0.0210505
0.0250373
0.0210898
1.18673
0.0232944
0.052078
3.32496
0.0229145
0.0212194
0.0211654
0.991127
3.0956
0.224524
0.0246825
0.0211105
1.14084
0.0426718
0.0216565
0.0210618
0.205748
0.464653
0.0213698
1.7672
1.31694
0.0227212
0.0620937
0.0214298
0.030202
0.0283054
0.0218359
0.021267
0.0327232
0.0253784
0.0234926
0.0208274
0.0214661
0.0225979
0.0231072
0.0225466
0.0213139
0.0226966
0.0239491
0.0214582
0.0289402
0.0250785
0.627075
0.0214701
10.252
0.0216474
1.1723
0.0234677
0.164193
0.0243569
0.0236961
0.0211071
0.0210761
0.0628272
0.025844
0.68914
0.0222626
0.0215171
0.0271348
0.0246427
0.792817
0.0270723
0.601853
10.9354
0.0442576
0.0310902
0.0213277
0.0267527
0.0213983
0.0229844
0.0210497
0.0220096
3.20427
0.145694
0.0257252
0.0221079
0.0312498
0.610489
0.0258963
0.0209585
0.0261301
0.0212702
0.0209982
0.336448
0.0313006
0.658612
0.0286801
0.0417224
0.127731
0.907501
0.023746
0.0861171
2.62927
0.13642
0.153838
0.02317
0.021287
0.0214254
0.0291217
0.0214933
0.730525
0.0225587
0.513246
0.022282
0.0324423
0.021246
0.0223242
0.0593948
0.0399592
3.50117
0.0219039
0.0210942
0.15536
2.41862
0.0212295
2.94703
0.0209861
0.0271284
0.0250327
0.0214734
2.17441
0.109243
0.0340206
0.0223896
0.285836
0.025304
0.0216436
0.604073
0.0222675
0.182024
0.107069
0.0210092
0.0416277
0.0204906
1.14799
1.06886
0.0343105
0.0226186
0.0278289
0.021257
0.507144
0.0339211
0.278107
0.0288128
1.12309
0.647697
0.0306743
6.71565
0.0242282
0.0212772
0.0303784
0.960971
0.0476687
0.0496257
0.03203
0.094218
0.0313484
0.0248903
0.166935
0.447496
0.0357434
0.272033
0.477445
0.0214659
0.0287377
6.40512
0.415634
0.338456
0.174996
0.0334537
0.0445679
0.0230969
0.0281209
1.26864
0.0257687
0.0210334
1.7811
0.0220224
0.0344328
2.79683
0.027448
0.313665
0.0298372
0.0230961
0.0622505
0.036873
0.0358108
0.0214713
0.219139
3.4135
0.0219783
0.022167
0.0258322
1.92623
1.12574
2.03376
0.0342888
1.47584
0.0237524
0.0213236
0.024725
2.96823
0.0236687
2.39295
0.0351538
2.34539
0.0241249
0.022808
0.572636
0.456917
0.0912047
0.0244158
0.0230329
3.47511
0.0195886
0.0212752
0.0215329
0.0225486
0.0215051
0.0226052
0.0286774
0.0212182
0.0417242
0.661366
0.0456117
0.0264301
0.0231251
0.0227171
0.134096
0.0361081
2.25583
0.0210982
0.0388852
2.05363
0.0265462
0.0221624
0.344357
0.02199
0.499721
0.0218784
0.0223895
0.0273738
2.14851
0.426299
0.0237324
0.0212389
0.157197
0.82758
0.049271
0.0248632
0.0243621
3.55812
0.503897
1.15659
1.24855
0.971746
0.0312086
0.0558231
0.0218886
0.0214828
0.021981
0.0215914
0.0250346
0.0212586
0.0506596
3.317
0.0542311
1.52305
0.733384
2.51369
0.180635
0.0272804
0.374488
0.0392949
0.0216714
0.0238735
0.0227244
0.0210426
0.734194
0.0396102
10.4473
0.0232019
0.418933
0.515816
0.0215934
0.658748
0.02291
0.0251287
0.0214296
0.0210991
0.154285
0.155333
0.0253726
0.171323
0.021184
0.0205479
0.0329178
0.0211315
0.0211938
0.0668325
0.0554604
0.029677
0.031604
2.13364
0.0217589
0.166802
0.0211906
0.0214092
1.16576
0.669479
2.51036
0.0239066
0.0213638
0.0213979
0.508852
0.0259846
0.0288474
0.0251128
0.0213089
0.022106
0.0210286
0.0346338
0.0270122
6.56477
0.0218992
0.0369762
0.0212667
0.314767
0.0564723
0.0244003
0.0376698
0.0290296
1.24064
0.0225297
0.0261517
1.76403
2.23543
0.0228193
0.0254303
0.0211902
0.453288
3.38995
2.68752
1.61655
0.546913
0.0468903
0.0208217
0.0232099
0.0306124
3.25682
0.0275301
0.0214378
0.0537496
3.16448
0.0212866
0.0206823
0.0218131
0.0305576
0.0210888
0.024018
0.0511513
0.249147
0.104569
0.021496
0.0334984
1.78408
1.04205
0.0234736
0.0246131
1.95235
0.0410293
2.80022
3.41477
0.0215126
0.0217657
0.0222354
0.0848381
0.5698
0.021659
1.85187
2.75616
0.142712
0.0211267
0.0215467
0.0219872
0.0211297
9.82555
1.18214
0.141705
2.16059
0.0249227
0.0212342
1.94932
0.0216931
2.84312
2.97592
0.10032
3.18657
1.19399
0.0231526
0.153074
0.0219467
6.78112
0.0673691
0.165244
0.0209712
0.0263385
3.73851
0.506668
0.0224381
0.0222222
0.0246369
0.0283619
0.0974471
0.754107
0.0294814
0.0382057
2.5322
0.0311283
0.0678039
0.762118
0.0699702
0.15825
0.0246108
2.53102
0.0219831
0.590528
0.030725
0.0213591
2.44132
0.0214356
0.0302184
0.0223364
0.255205
1.13913
0.0230343
0.0215657
0.654655
0.0367122
0.0250906
0.347169
0.0317269
0.260748
0.816108
0.15459
0.0229939
7.27864
0.0276656
0.0338142
0.0233376
0.0205138
0.0210634
7.17766
0.022314
0.249893
0.0217836
0.0442981
0.0239868
0.0376952
0.0287932
0.0214366
0.216398
0.0214153
0.623613
0.0212945
3.8393
0.0372645
0.157612
0.050835
0.0429252
0.0250146
0.0268905
0.299346
0.620337
0.110044
0.186632
0.0899598
0.0230442
0.0244885
0.0245393
1.13572
4.35389
0.355661
0.0423864
0.110985
0.0229336
2.49399
0.319029
3.43492
0.0233597
0.0214149
0.0437576
2.33917
0.021346
0.175496
0.155533
0.0220588
3.15207
0.0230343
2.56907
0.149731
2.87438
0.0354302
0.0213954
0.0225449
1.09079
0.0208309
0.0241227
0.0717391
0.0428629
0.0214095
0.101576
0.273558
0.0301497
0.0216091
0.177067
0.121329
0.0221382
0.0279754
0.158116
1.52772
0.0680141
0.283997
0.790445
0.026267
0.0214768
0.359877
0.0209875
0.0320071
0.300931
0.0696068
0.022284
0.0210201
0.021963
0.0913901
5.91114
0.0229402
2.19536
0.0233552
0.0655726
0.0221382
0.35244
2.85528
0.0661876
4.70898
0.321111
0.0244625
0.0213712
0.0702049
0.0231314
0.665326
0.0212306
0.023256
0.0248529
0.023606
0.0234346
1.9168
0.0211963
0.0418748
0.674071
0.0211287
1.11812
0.0255592
0.0970338
3.19063
0.025634
0.141113
0.0222984
3.43382
0.0269298
0.0303484
0.0413203
0.0270194
0.0279117
0.0572982
0.0213132
0.0224284
0.0221982
0.36637
0.128272
3.25667
0.0836084
0.0215225
0.124941
0.0221484
0.0277069
3.18896
0.0223487
0.0269892
0.54989
0.0211989
0.0345447
0.492563
0.0358853
0.0691317
1.14021
0.0248493
0.0243156
0.0304713
0.0214501
0.0391172
2.07198
0.0211668
0.0218837
3.44452
1.20225
0.380029
3.37126
2.05203
0.0243692
0.394858
0.854852
0.025233
0.0212347
0.0285044
0.160293
0.0802805
0.023227
0.0219073
0.0937087
0.0442919
0.0395767
0.0238147
0.021169
0.0212188
1.51191
0.0291597
0.354675
2.9408
0.0210858
2.43949
0.0228203
0.0262656
2.57234
4.0865
1.25619
0.0244582
0.0267061
0.435492
0.0220451
0.0230433
0.92177
0.315194
2.72472
0.677524
0.0526375
0.021258
0.021276
0.0219471
2.87335
3.00492
0.0378527
0.0234971
0.0214281
0.434886
1.12727
0.0216589
0.0240286
0.0515606
3.00487
0.0219523
0.0213208
0.560707
0.0210662
0.0323764
1.1613
0.021772
0.0242382
0.0232236
0.0246371
0.023683
0.0305328
2.75607
0.0218294
0.0870128
0.0220433
0.18276
0.448302
0.614869
0.0210881
0.0257334
0.0449221
2.57159
0.0231695
0.0216849
0.0489467
0.0325216
0.0211941
3.40829
0.107426
0.0257205
0.0213493
0.0220393
0.030677
0.021952
0.0496999
0.0242661
0.0284557
0.0227011
1.7307
2.90048
0.0273576
1.15029
0.0239055
0.0240007
0.0315516
0.154507
0.0214335
0.0507895
0.0209663
0.0257073
0.0221352
0.100557
0.0547027
0.32176
0.0230251
5.89389
0.16947
4.59861
0.0293053
0.140591
0.0263284
0.0234247
2.48295
0.0249099
0.0214242
0.0216505
0.0223361
0.0213261
0.0213883
0.0426141
0.0215062
0.0485549
1.16505
0.0247734
0.370587
0.0381146
0.0483557
0.0437129
0.0219982
0.0236256
0.349706
0.0920407
0.0251549
0.0210619
2.5846
0.0211841
0.414378
3.82853
0.371449
0.128908
0.0284189
0.305044
11.6624
0.615566
0.0232213
0.0839462
3.30707
1.51644
0.021949
2.87533
0.0215163
0.0218278
1.6669
0.14389
0.0217653
0.0244387
0.969882
0.0261634
0.207948
0.0249233
0.784639
0.025387
0.022995
0.0218017
0.033104
0.0214509
0.0210475
0.0500599
0.133903
0.0238787
0.302429
0.303883
0.0888139
0.0225411
2.86001
0.0209626
0.0219499
0.0672015
5.06104
0.0434022
0.0512461
0.0210669
0.0214146
0.0364141
0.627426
0.714195
0.0220835
0.425786
3.29561
0.0545337
0.0217838
0.0260709
0.0221361
0.0216523
0.0254316
9.33511
0.0220644
4.67393
0.0230562
2.02377
0.357868
1.17121
2.65761
0.0214631
0.579114
0.0240524
0.0356323
0.0611966
0.0425982
0.365751
0.0214887
0.0211375
2.44629
1.43929
0.355508
7.00372
0.0236243
0.0210007
0.0212839
0.0216942
0.190536
2.3436
0.0316538
0.0331038
0.0212177
0.533743
0.0251225
0.0212864
0.355172
2.42292
3.80572
0.080238
0.0228847
0.0217573
1.1418
3.03025
0.128933
8.29302
0.0286241
0.0215044
0.0347904
0.0214038
0.538463
0.0257126
0.0226912
0.0210962
1.97285
0.0218761
1.35636
0.0268329
0.0260997
0.021963
0.0220629
0.0217027
0.0478124
1.22591
0.0239325
0.0598811
0.0222334
0.0213822
2.02047
0.358632
3.62778
0.0228427
0.0209631
0.025748
8.82776
0.0211311
0.0333701
0.0218002
0.165126
0.0227015
0.512982
0.843666
0.0351156
0.0302631
0.0266827
0.0220792
0.181967
0.0298808
0.0212944
0.0210265
2.08956
1.15983
9.07735
0.374675
0.0221126
3.22542
0.0265351
1.65142
0.0347491
0.0211797
0.0211367
0.141818
0.440807
0.51429
0.0222042
0.0907338
0.0214065
0.0210792
0.0210379
0.0883761
0.0309701
2.91077
0.0233331
0.0219956
2.37481
0.0217565
0.643926
3.3603
0.022598
0.0215265
3.65445
2.97643
0.0219224
0.0859628
0.027491
0.024288
0.0229519
6.8721
0.0213443
0.0216879
0.0376108
0.0221783
0.0981182
9.2924
0.0365132
1.17764
3.44278
0.0220678
0.0216691
0.0213649
0.0314363
0.021413
0.0221781
0.165358
0.0254204
0.0251542
0.0226245
0.0216667
2.36218
0.021269
0.0214889
0.0223685
1.18895
0.0241424
0.0213175
0.0210206
0.0215828
0.0216538
0.0294441
0.0233994
0.0209569
0.0620777
0.0220285
0.0219574
0.0718552
0.0214472
0.0220316
0.0256359
0.0221265
11.8155
0.0211407
1.82648
0.0502989
4.03478
0.0292175
0.023251
0.0505317
2.87081
5.05947
0.022782
3.27021
0.0352166
0.359677
0.0254242
0.0214207
0.37942
0.0212781
0.0396688
0.0290026
0.258229
0.0239274
0.0239617
1.39052
0.0249346
3.7005
2.91145
0.0660868
0.0423711
2.22729
9.24197
2.77172
0.0325646
0.0249982
0.756205
0.022995
1.23146
2.604
2.92545
0.483032
0.0220918
2.52934
0.0267661
3.05372
0.0591251
0.0213032
0.0230565
1.21426
3.44863
3.4955
0.0240785
3.1505
0.110666
0.0213578
0.0244985
0.370512
0.039685
0.0768834
0.0579971
0.0215232
2.91323
2.62637
0.0565802
0.0479772
3.14867
3.3852
3.416
3.39449
0.021226
1.81805
0.0221838
0.0503812
0.759086
1.16657
0.144146
0.0375102
0.0226224
3.46574
0.0410636
2.54238
3.01471
8.12087
3.04967
3.01428
1.29175
0.0454006
0.380735
0.0211492
0.0218983
0.0219694
1.69802
1.26394
0.0466034
0.497129
2.39987
0.306243
0.0265125
0.0223781
0.0477197
3.74798
0.0210427
0.0214843
5.05862
0.519211
0.0278393
0.023296
0.0278908
0.0303545
0.0240647
1.19425
0.181347
4.67642
1.65049
0.0218054
1.70776
0.584675
0.0321814
2.98815
1.1494
0.0796416
0.0521745
1.12109
0.0373488
3.16957
3.49647
0.0219996
0.021362
2.33282
0.142352
0.0245307
2.76303
0.0461898
0.0215284
0.0375222
0.0220366
0.0275021
0.074871
0.0229984
0.1471
0.518699
3.43921
0.0528506
0.0644817
2.33344
0.0210925
1.73832
0.0233847
3.14545
0.154641
0.0228301
3.09435
0.0232335
0.0499659
0.0233712
0.0227809
0.0347753
0.0229513
0.0294436
3.40323
0.0235035
0.0228254
0.0215636
0.0231327
1.10568
5.23647
0.0405811
0.0212657
0.0244021
0.0226079
2.9809
0.457808
2.86674
0.0693921
0.140199
0.451992
3.34713
1.29712
0.0482215
3.25162
0.0225704
0.0286411
0.205275
0.662811
0.491479
2.54262
0.0395623
2.49285
0.0217723
0.667082
0.0311102
0.0978136
0.0386496
0.148677
0.0261776
2.10613
5.21927
0.0260843
0.0438745
0.0315073
0.0228128
3.68819
0.0250588
2.34125
0.438086
0.0670134
0.0221877
0.0230883
0.0630333
0.0622503
0.0304719
4.84361
0.360914
0.0232542
0.0225184
0.0214948
0.0230596
0.0218993
0.498443
1.25887
4.35521
0.390716
4.47881
0.0361172
0.0476517
0.0270787
0.0872358
0.0228403
1.19206
3.19728
0.0227546
1.12682
2.50504
0.0580831
0.0215225
3.74265
2.7215
0.0236588
0.0307012
0.0214241
0.0211501
3.56338
0.020983
0.021019
0.0224546
0.0238615
0.0442776
1.79747
0.0216011
0.17025
0.0476981
0.13871
1.2451
0.0467502
0.0294813
0.451751
0.0262082
0.0210357
0.0247939
0.126066
3.25056
0.0282816
2.7441
0.422442
0.344663
0.447415
0.410673
0.0210606
1.11101
0.328869
0.0505335
0.027772
2.90206
0.0406174
0.0209767
0.0548485
2.7226
0.149848
4.5656
0.0631078
0.819784
1.38488
0.0580314
3.3141
0.454933
0.0230258
0.657873
0.0356686
0.0272822
0.272989
0.0449586
4.09193
0.634542
0.193871
0.187905
0.0241687
0.0224263
0.0387824
0.025126
0.0848786
0.0217387
0.0344969
0.0226524
0.0218408
0.021423
0.0215276
0.135823
0.0223295
0.186325
2.97067
0.0218793
0.0483958
0.0226935
2.16521
0.0212444
0.0223738
0.115582
0.198183
0.302734
2.37414
0.0314115
0.0215294
0.0361082
0.0232627
0.154057
0.0387775
0.037237
0.0213295
0.164989
0.0221142
0.189913
0.044397
0.0221433
5.34193
0.722785
3.56898
0.0259228
0.0288218
0.712666
0.314491
0.0494217
0.0412431
1.22044
0.0620094
0.0527171
0.0220036
0.094325
0.462333
0.0231869
3.38479
2.96439
6.30856
0.0880781
0.0554897
2.76033
1.16122
0.375472
0.0231607
0.0336211
0.502825
0.0259317
0.0788972
3.61622
0.316534
0.158087
4.64903
0.0215457
0.0292683
0.0213832
0.212982
0.807079
0.0306092
0.642611
0.0213179
0.0212979
1.21536
0.0218511
1.2424
0.0228246
0.0214321
3.03219
0.0210752
0.0475811
0.0216737
0.0240354
4.29049
0.777466
2.70102
0.18808
0.0232181
0.0294404
0.0229814
0.0230543
0.0732402
0.0238588
3.04548
0.0580622
0.0225614
0.0217928
0.042083
0.0291047
0.469347
1.32108
0.353699
0.0257473
0.0214134
0.0214631
0.102171
0.0422835
0.414488
0.0209621
0.0402092
1.33176
5.27047
0.189921
0.0217977
0.0536853
0.335363
0.0381059
0.0843448
0.0226075
0.0225599
0.316173
0.0355364
0.0237827
0.0263859
0.0264862
0.0254231
0.0247745
0.0244746
1.19672
0.0270641
0.0263998
0.023438
0.115536
0.0259539
0.0302049
2.89364
0.721668
0.0210401
0.0241978
2.77557
0.0212998
0.53928
0.0227394
0.801675
0.0256097
0.0285124
3.15671
0.0254874
0.0395998
0.143906
0.0276714
0.39327
0.10673
0.0338986
1.10221
0.0245754
2.14156
4.23403
0.408334
1.56609
0.0309219
0.129914
0.0883202
0.0220983
0.087164
0.0217771
0.0588608
0.0397846
0.0299985
0.0240907
0.0212271
0.0214983
0.0265064
9.50563
0.0221112
0.0230073
0.617613
0.412072
0.032981
0.0275459
0.214062
0.406924
0.0269028
0.0296746
0.0282941
3.41797
0.318808
0.0555527
0.020557
0.357837
0.246012
0.348569
0.575925
4.09269
0.721786
0.0574548
0.0383139
0.0258092
0.0253759
0.0224284
0.0316417
0.0214876
0.607354
0.0898436
0.962376
0.0260125
0.0413232
1.19346
0.0532065
0.0219234
0.0278106
0.0501719
0.0462416
0.0532097
0.0270974
0.0350607
0.0272202
0.0228577
0.0222801
0.0822054
1.17307
0.0252517
0.0227719
0.0213557
1.30338
0.0229592
0.0268956
0.0255803
0.0737019
0.0217957
0.0294424
0.0229041
0.03922
0.0370424
0.288347
2.44914
0.0230406
0.629547
3.28792
3.6819
0.0226075
0.498143
0.528124
0.0598454
2.70606
1.86379
0.0233643
0.0782764
0.0210195
2.80845
0.0228323
0.0406115
0.021193
3.12659
0.0279048
0.361599
0.459237
3.01193
0.364882
0.0256656
0.0220231
1.26297
0.444373
0.0453838
2.88543
0.0309417
11.8284
0.309931
0.0301381
1.89563
3.00778
0.129197
0.428134
1.33379
0.0215112
1.51624
0.0372009
2.82317
0.0229753
0.0218335
0.021328
2.58541
0.071034
0.0223305
1.63318
0.0230159
3.30159
0.0780143
1.53456
2.96624
0.021207