/*--------------------------------*- C++ -*----------------------------------*\
| =========                 |                                                 |
| \\      /  F ield         | OpenFOAM: The Open Source CFD Toolbox           |
|  \\    /   O peration     | Version:  v2012                                 |
|   \\  /    A nd           | Website:  www.openfoam.com                      |
|    \\/     M anipulation  |                                                 |
\*---------------------------------------------------------------------------*/
FoamFile
{
    version     2.0;
    format      ascii;
    class       volVectorField;
    location    "50";
    object      U;
}
// * * * * * * * * * * * * * * * * * * * * * * * * * * * * * * * * * * * * * //

dimensions      [0 1 -1 0 0 0 0];


internalField   nonuniform List<vector> 
18649
(
(0.581461 0.211752 1.6893e-20)
(1.0278 0.00111879 8.62129e-21)
(0.567733 0.209466 -1.73174e-20)
(1.04567 0.0664079 -1.85247e-21)
(1.04889 0.00159653 5.20949e-21)
(1.01221 -0.538681 0)
(1.02813 0.00756834 0)
(1.04374 -0.00535948 4.39438e-23)
(0.896783 0.0223713 -2.62766e-22)
(1.14223 0.274869 4.3744e-20)
(1.03121 -0.00457146 1.6713e-20)
(1.02506 -0.00419568 -4.07605e-21)
(1.04889 0.00153649 -4.60781e-21)
(1.04401 0.0149545 -6.88475e-21)
(0.561674 0.450363 -2.03675e-21)
(1.0545 0.00128796 0)
(1.03692 -0.0248129 6.01487e-21)
(1.02792 0.00693447 0)
(0.403405 -0.426505 -7.86003e-20)
(1.02764 0.000915133 0)
(1.02487 -0.00408076 7.66684e-21)
(-0.340825 -0.179296 -3.12042e-20)
(1.05782 -0.00871613 5.11069e-22)
(1.05133 0.0561613 0)
(1.12686 0.266862 -7.03253e-20)
(1.05967 -0.00825158 -5.35462e-22)
(0.981423 0.0137307 5.36019e-23)
(0.874486 0.193052 -2.10967e-21)
(1.03821 -0.0148104 1.21892e-20)
(0.203348 -0.0803187 6.39445e-20)
(1.05418 0.109311 0)
(1.05941 0.102004 0)
(1.03632 -0.0267111 1.75066e-22)
(1.06337 0.0389629 9.33717e-22)
(1.02446 -0.000205102 -8.66699e-21)
(1.05782 -0.0092475 0)
(0.592545 0.414064 -5.5922e-21)
(1.06716 -0.0674038 1.71881e-20)
(1.03077 -0.00451079 -1.64754e-20)
(1.04326 0.0152514 1.29979e-21)
(1.18744 -0.295986 -2.84086e-21)
(1.04609 0.0276344 -3.16068e-21)
(0.99416 0.00905172 -5.7438e-21)
(0.856541 0.177504 -2.19572e-21)
(1.01052 -0.0463978 7.46222e-23)
(-0.347202 -0.24385 -7.97242e-20)
(1.06314 0.00471171 5.39043e-22)
(1.05966 0.0458322 0)
(1.02543 0.00819804 4.75653e-21)
(1.08641 0.0678615 1.50408e-21)
(1.0476 0.0625593 0)
(1.05377 -0.0140522 -4.296e-22)
(0.996755 0.022569 1.00017e-20)
(1.16883 -0.2753 -2.55259e-21)
(1.07513 -0.00534208 -3.31362e-22)
(0.987415 0.109152 0)
(1.09709 -0.376667 0)
(1.02511 0.00850507 -4.70187e-21)
(1.03251 -0.0231875 -4.76415e-25)
(0.58978 0.0886913 -7.56023e-21)
(1.0699 0.00777422 0)
(1.10299 0.0137009 -1.225e-20)
(1.024 0.0125245 0)
(1.06737 -0.367859 2.08278e-20)
(0.111424 -0.0498321 -2.7828e-21)
(0.760429 0.351643 2.98761e-21)
(0.584231 0.0480523 7.1485e-21)
(1.05376 0.0334746 0)
(1.00921 -0.0481531 -6.51182e-23)
(-0.318712 -0.167935 -6.17368e-20)
(0.972674 0.0189859 0)
(1.06272 0.0399504 -1.90866e-21)
(1.02814 0.00646662 0)
(1.02447 0.0124557 0)
(1.10545 0.0845245 0)
(0.844643 0.187037 1.16759e-21)
(0.75585 0.245122 -2.72037e-21)
(1.02432 -0.000234333 1.00693e-20)
(-0.343477 -0.112952 -1.00478e-19)
(1.02952 -0.0323124 -8.23363e-27)
(1.09872 0.0684538 0)
(1.07192 -0.0706505 -2.1163e-20)
(1.10068 -0.434073 0)
(0.410548 -0.398852 9.156e-20)
(1.04364 -0.00285836 -3.46956e-23)
(0.988301 0.0996217 -1.94537e-20)
(1.05081 -0.00711179 3.58742e-21)
(1.04889 -0.011053 -4.60905e-21)
(1.03018 -0.0322954 6.06417e-24)
(1.34298 0.210027 0)
(0.557249 0.451744 2.31786e-21)
(1.0278 0.0121758 0)
(1.05129 0.0572842 1.80747e-21)
(1.03785 -0.0453955 1.23552e-21)
(1.06098 0.04354 -1.28783e-21)
(0.99782 0.0235963 -9.65345e-22)
(1.05902 -0.0088618 1.23448e-22)
(1.09997 -0.0536416 0)
(0.814461 0.359375 -1.35101e-21)
(1.07026 0.00760485 -2.42775e-22)
(1.12507 -0.624359 2.35221e-20)
(1.05468 0.00112655 -2.0499e-21)
(0.812967 0.248605 0)
(1.04298 -0.00459751 -6.32497e-23)
(0.89962 0.0126165 -8.94447e-23)
(0.908069 0.0288038 3.27583e-23)
(1.07504 -0.448573 1.52174e-21)
(0.696382 0.152854 -3.44509e-20)
(0.997475 0.117191 3.6892e-21)
(1.02801 0.00588963 0)
(1.02556 -0.00028653 1.07634e-23)
(1.06077 0.0444382 1.15049e-23)
(1.04813 -0.0112818 4.01367e-21)
(1.02413 0.00627461 1.40238e-20)
(1.05904 0.0416441 0)
(1.10047 -0.0522471 -1.27907e-20)
(1.05371 0.0334306 1.73492e-21)
(1.06131 0.0443698 6.11207e-23)
(1.0418 0.00243467 6.53939e-21)
(1.0503 -0.00840533 1.0919e-21)
(1.07274 0.00607324 6.83015e-23)
(1.05607 0.0475652 -1.24183e-22)
(0.636078 0.132453 3.40418e-21)
(1.02434 0.00565892 -8.73368e-21)
(1.03817 -0.00254764 -7.11791e-23)
(1.04601 0.0303841 0)
(0.450935 0.0502886 0)
(1.00375 -0.020292 0)
(1.03897 -0.0152172 -1.4373e-23)
(1.06543 -0.0186464 6.97824e-23)
(1.03295 0.0132264 1.30013e-20)
(1.0167 -0.339105 -2.65204e-20)
(1.09132 -0.0148251 0)
(1.09062 -0.0335843 -3.28104e-20)
(1.02452 -0.000222317 -1.64147e-20)
(-0.288887 -0.261666 -5.0881e-20)
(0.879152 0.171688 1.6468e-21)
(0.641068 0.159546 2.48637e-20)
(0.884021 0.164611 -2.24205e-21)
(1.00768 -0.0512084 -1.05874e-23)
(1.05867 0.0468062 2.25042e-22)
(1.03484 0.00159674 3.76703e-21)
(1.03492 -0.0171221 8.78558e-25)
(1.01558 -0.0252913 7.15183e-21)
(0.943441 0.03462 5.13193e-23)
(1.0723 0.00397035 -7.1569e-23)
(1.036 0.0291665 -3.40847e-21)
(1.1091 -0.0265537 -2.92793e-20)
(0.916314 0.0201651 1.05644e-22)
(1.03506 0.0191679 7.88524e-23)
(0.789218 0.251515 2.66695e-21)
(1.18538 -0.0135231 8.07923e-22)
(1.03381 0.00172824 1.21207e-22)
(1.02737 0.00565079 1.10727e-20)
(1.05929 0.0467753 0)
(1.10803 -0.0415448 6.26954e-21)
(1.03564 0.0187709 3.64461e-21)
(1.00257 0.0397301 6.96039e-21)
(1.03025 0.0109643 -4.34488e-21)
(1.08 0.0495388 1.5975e-21)
(1.08858 -0.578661 0)
(0.750582 0.268317 -2.199e-20)
(1.03446 0.0193353 -1.23962e-20)
(0.891474 0.158425 1.8759e-22)
(0.932643 0.243454 -4.36064e-22)
(1.03702 0.00272898 3.85816e-21)
(1.07745 -0.00526024 -1.37766e-21)
(0.923845 -0.00161141 1.5777e-22)
(1.06274 -0.000744304 -9.63825e-23)
(1.07021 0.00563097 0)
(1.05134 -0.00784503 -1.68799e-22)
(1.02606 0.001103 -7.9806e-21)
(1.03133 0.0239762 2.8017e-21)
(0.997082 0.0603982 -7.76854e-21)
(1.08805 0.0605874 -1.61966e-21)
(1.01578 -0.0430544 3.15404e-23)
(0.940422 0.0629233 -1.8662e-22)
(1.03574 0.0182518 0)
(0.914751 0.00709163 0)
(1.05311 -0.586779 -7.63793e-21)
(1.02271 -0.00301774 0)
(1.00639 -0.049064 2.69735e-23)
(1.08003 -0.00671508 0)
(1.00217 0.036459 -7.32353e-21)
(1.02505 -0.022916 6.69755e-21)
(1.08003 -0.00622788 0)
(1.07473 -0.00491518 1.79381e-23)
(1.05792 0.0456586 -5.6614e-22)
(1.07173 0.00576939 6.62148e-23)
(1.05201 -0.0227702 0)
(1.05426 0.0261908 0)
(0.791836 0.245131 7.38786e-21)
(1.17616 -0.0333116 5.49002e-21)
(1.05051 -0.0101448 -2.9782e-21)
(1.05494 -0.0102738 0)
(1.03217 0.0232441 -2.33119e-21)
(1.0793 -0.00815093 -2.28518e-23)
(1.07931 -0.00726639 -1.21235e-21)
(1.00117 0.232513 -2.81532e-21)
(1.05966 0.0466079 3.6925e-23)
(1.05286 -0.0229674 0)
(1.04707 0.00267395 1.31623e-21)
(1.07551 0.0556912 0)
(1.02754 0.00628615 2.27732e-21)
(1.01467 -0.0267477 -1.3175e-20)
(1.02577 0.000973813 1.15232e-20)
(1.08393 -0.0322654 2.32215e-20)
(0.631887 0.135094 0)
(1.04519 0.0372802 -1.73745e-21)
(1.00024 0.0266328 0)
(1.07113 0.0060738 -5.04991e-23)
(1.05116 0.00128832 0)
(1.0705 -0.00184302 3.6096e-23)
(1.06889 0.00882668 -4.04171e-23)
(0.883607 -0.255131 -6.9374e-20)
(1.07169 0.00713517 -5.20559e-21)
(1.02415 0.00062918 -1.36788e-20)
(1.05393 0.0247962 -1.28737e-21)
(1.00594 0.0419089 1.27488e-20)
(1.06593 0.00198128 0)
(0.930809 -0.108115 0)
(1.07571 -0.0282087 1.09689e-21)
(-0.303604 -0.274125 0)
(1.03697 -0.0343983 0)
(0.746805 0.272549 1.32688e-20)
(1.07592 -0.00574967 1.28041e-21)
(1.16755 -0.00126183 -3.8253e-21)
(0.945382 0.178717 1.65664e-20)
(1.02057 -0.000184103 0)
(0.926926 -0.114852 -4.89486e-21)
(1.05132 -0.0219441 2.70805e-22)
(1.08708 0.0981559 -2.00094e-22)
(1.06025 0.0457948 0)
(1.0262 -0.00313104 2.47539e-22)
(0.8556 -0.153538 0)
(1.02242 -0.00283902 -7.83577e-21)
(1.0498 0.0230468 -3.95192e-21)
(1.02385 -0.0221315 1.33863e-20)
(1.0713 -0.00165285 -3.99183e-23)
(1.03653 -0.00622552 5.33168e-24)
(1.04987 -0.00882579 -1.08496e-21)
(0.52958 0.132311 0)
(0.808946 -0.0547142 0)
(-0.351129 -0.120259 0)
(0.738633 0.294551 0)
(0.9824 -0.0551008 -1.31389e-20)
(1.04999 -0.0100802 7.58836e-22)
(1.02403 -0.00021416 1.09502e-20)
(-0.0515816 0.0500125 -4.98508e-20)
(1.05722 0.0480743 7.8091e-22)
(0.983268 -0.0608304 1.41075e-20)
(0.928713 0.166281 -4.73323e-21)
(1.00884 -0.0223267 4.44668e-21)
(1.10519 0.0875405 2.1308e-22)
(1.05941 0.0389164 -5.47019e-22)
(1.03639 0.00268206 1.09881e-21)
(1.00139 0.0270069 0)
(1.07024 0.00661054 -2.68748e-22)
(0.913943 -0.111059 1.23324e-20)
(1.06314 -0.000703596 0)
(0.587164 0.427905 1.0134e-20)
(1.06818 -0.00464295 7.65148e-23)
(1.06936 -0.0100578 0)
(1.05047 -0.0129941 4.76591e-21)
(1.07033 -0.00266713 -7.03396e-23)
(1.15886 -0.00112929 1.34256e-21)
(1.03472 -0.00151244 0)
(1.07191 -0.00160155 -6.75925e-22)
(1.06097 0.000427258 0)
(1.06742 0.020906 2.03684e-22)
(1.04987 -0.0990114 -3.4078e-22)
(0.942828 -0.0494001 -1.30251e-20)
(1.06757 0.0100537 -7.31222e-23)
(1.06723 0.0203451 0)
(0.577708 0.43694 -2.52261e-21)
(1.05525 0.0480996 1.79721e-21)
(1.04466 0.00836852 -3.00679e-21)
(1.05188 0.0449665 1.93744e-21)
(1.0515 -0.0107916 0)
(1.0988 0.0110432 1.1902e-20)
(0.96615 0.106791 -1.37053e-20)
(1.04853 0.0276064 -6.51267e-21)
(0.664471 0.15371 0)
(1.02426 0.000512915 5.06831e-22)
(1.06476 -0.0188336 4.5219e-22)
(0.99347 0.0893901 1.43843e-20)
(1.05059 -0.0207303 0)
(1.02481 -0.000321641 0)
(0.875958 0.185052 0)
(1.03927 -0.00294537 1.31624e-22)
(1.02337 -0.00351058 3.38327e-21)
(1.04233 -0.53542 8.05563e-21)
(1.03449 0.0110465 5.46337e-21)
(1.01235 -0.0226377 0)
(0.511467 0.0304134 2.37778e-21)
(-0.0438364 0.0641391 0)
(1.12619 -0.363926 1.6338e-20)
(-0.382565 -0.172776 -7.94924e-20)
(1.05826 0.0477408 0)
(1.0059 0.0470173 -7.57051e-21)
(1.0603 0.0393278 0)
(0.893918 0.155729 1.37053e-21)
(1.03772 -0.0301532 0)
(1.04134 -0.0934379 -3.47868e-21)
(0.95862 0.0189779 9.21852e-21)
(1.07632 -0.00694773 0)
(1.07102 3.13803e-05 0)
(1.05356 0.0285428 -6.4796e-21)
(1.05933 0.0469211 6.41381e-22)
(1.08302 0.0786281 -9.91944e-21)
(1.02375 -0.00363292 3.47511e-21)
(0.792326 0.295399 -9.92084e-22)
(1.03291 -0.0235509 -7.88229e-25)
(1.07604 -0.00735339 -8.22976e-22)
(1.04586 0.0111581 -8.01673e-21)
(1.09829 0.0648439 0)
(1.05596 0.0250268 3.88488e-22)
(1.41247 0.321723 1.96949e-19)
(0.750912 0.250379 1.5716e-20)
(1.07613 -0.00679441 1.04258e-21)
(-0.375062 -0.15464 3.96537e-20)
(1.06634 0.0172756 7.67699e-22)
(1.07212 0.00653988 -7.10336e-23)
(1.02548 -0.000192806 8.44675e-21)
(-0.396645 -0.181243 9.50298e-20)
(1.03194 -0.0410007 -1.40198e-22)
(0.534401 0.0493088 -3.11854e-21)
(1.0838 0.0638118 -1.3617e-21)
(0.997453 0.0541672 1.09313e-20)
(1.02494 0.00731017 7.52996e-21)
(1.04378 0.0187328 3.66473e-21)
(0.82557 0.15558 3.26725e-21)
(1.15329 -0.0387935 0)
(1.0619 0.000409752 -8.00254e-22)
(0.638796 0.124512 -3.46434e-21)
(1.02223 -0.0039626 0)
(0.801463 0.321232 1.70478e-22)
(1.07519 -0.00738051 -5.91568e-25)
(1.07071 0.050053 -1.92782e-21)
(1.10094 -0.0263342 0)
(1.02392 -0.0804127 6.92352e-21)
(0.611243 0.0378101 0)
(1.40477 0.358963 -1.79515e-19)
(0.792785 0.170068 2.22356e-21)
(1.12412 0.291399 -1.04557e-20)
(1.03997 0.0625849 -3.86161e-21)
(1.06098 0.0420186 6.85051e-22)
(1.02993 -0.00602269 -5.04754e-21)
(-0.375755 -0.171393 -4.1175e-20)
(0.422551 -0.477991 0)
(1.04921 0.0218739 6.12495e-21)
(1.01367 0.0469429 7.58268e-22)
(1.06815 -0.00453149 0)
(0.98192 -0.0476856 1.9444e-20)
(1.05921 0.0377027 -6.75122e-22)
(1.08011 -0.0570824 1.1328e-20)
(1.03086 -0.0403567 0)
(0.747292 0.109764 0)
(1.10121 0.0509876 -8.91083e-22)
(1.07388 -0.0051132 -3.44915e-22)
(1.04883 -0.0113196 5.13919e-21)
(1.32181 0.0655456 3.03991e-20)
(1.09698 0.0331002 1.21486e-21)
(0.98915 0.0361616 -7.61218e-21)
(0.788447 0.353663 -1.50755e-20)
(0.570952 0.109296 -8.92132e-21)
(1.05947 0.0369891 -4.53209e-21)
(1.04363 -0.00317377 3.4157e-23)
(0.631576 0.0457818 -9.96229e-23)
(1.07079 -0.00185537 0)
(1.06036 0.0456449 -5.15537e-23)
(0.882272 -0.118025 -9.23313e-21)
(1.07559 -0.0260715 -1.06327e-21)
(1.02802 0.00161498 -1.79134e-24)
(0.576556 0.43815 -2.12598e-21)
(1.03469 0.0130138 0)
(1.00351 0.0352445 0)
(0.656669 0.0438877 -6.81692e-21)
(0.746238 0.113152 0)
(1.14681 -0.0254188 -1.40181e-20)
(1.15371 -0.0217256 4.63632e-20)
(1.07667 -0.00617472 -5.42198e-22)
(0.982981 -0.0438197 -1.51349e-20)
(0.931228 -0.0396408 2.29036e-20)
(0.747773 0.115548 9.43594e-22)
(1.05129 0.00349522 4.82909e-21)
(1.02052 -0.0910398 0)
(1.0247 0.0216916 -6.25015e-21)
(1.04325 0.0182525 0)
(1.02555 -0.000205452 -2.18072e-20)
(1.14821 -0.0466411 0)
(1.08678 0.0985109 0)
(1.07537 -0.00832098 5.8118e-25)
(1.05184 0.00446664 -3.80219e-23)
(0.888388 0.163715 1.02242e-22)
(0.826176 0.280297 -1.8379e-21)
(1.09855 0.0227054 -2.68244e-21)
(1.0561 -0.0247964 -3.21535e-22)
(1.06247 0.00130753 -4.03418e-22)
(1.06581 0.0188638 -2.72458e-23)
(0.954397 0.0263334 0)
(0.452 -0.544292 0)
(1.044 0.0380713 0)
(1.14579 0.00172065 0)
(1.02588 -0.0378392 -1.98767e-23)
(1.03435 -0.00168113 0)
(1.02492 0.0208723 0)
(0.979493 0.313615 0)
(1.07654 -0.00579919 0)
(1.06209 0.0422616 3.38896e-21)
(1.03565 0.000327792 3.53861e-21)
(1.14419 0.00960625 0)
(1.0218 0.0185495 -1.09209e-21)
(1.03195 0.0147231 0)
(0.955084 0.106414 3.13815e-20)
(1.05667 0.0401547 -1.2976e-21)
(0.834328 0.179947 2.68879e-21)
(1.04977 -0.0125382 1.3581e-20)
(1.04541 0.0133543 9.03441e-21)
(1.04575 0.0282917 5.87217e-21)
(1.06488 0.0397914 -3.29765e-21)
(1.07466 -0.00843769 2.92142e-22)
(1.0836 0.0696801 0)
(0.777487 0.106601 -2.94555e-21)
(1.07434 0.041068 -2.57235e-21)
(1.03583 -0.00579234 0)
(1.1047 0.0326305 -1.72839e-21)
(1.09329 0.0356394 1.2232e-21)
(1.05133 0.0436757 2.08849e-21)
(-0.264234 -0.186356 0)
(1.14645 0.328036 5.10373e-20)
(1.07277 0.00347423 3.22908e-24)
(1.04827 -0.0140148 5.8169e-21)
(1.04872 -0.0131827 0)
(0.257105 0.328583 0)
(1.0318 -0.00305783 9.8348e-21)
(1.01372 -0.00915481 1.04581e-20)
(0.578817 0.315696 -1.68099e-20)
(1.03042 -0.00589355 0)
(1.08712 0.0326645 -4.60573e-22)
(1.07277 0.0033001 -2.91039e-24)
(1.03606 -0.0126582 1.8193e-23)
(1.03512 0.0105109 6.14023e-21)
(1.06602 0.0469551 2.00039e-21)
(1.03294 0.0151261 -2.69458e-21)
(1.00756 -0.0207811 0)
(1.04543 0.0132329 0)
(1.01442 0.027702 4.14882e-21)
(0.991477 -0.548159 0)
(0.980192 -0.0381364 2.43994e-20)
(1.03377 0.0216694 9.59207e-22)
(0.480467 0.0636449 0)
(1.03313 0.0217536 3.75883e-21)
(1.01451 -0.0415851 -4.41829e-23)
(1.06401 0.0404558 3.20503e-21)
(1.03911 0.00121299 -4.32503e-21)
(1.02583 -0.00354904 4.472e-21)
(1.06475 0.0156724 -7.53337e-23)
(0.893998 0.268665 -9.52016e-22)
(0.972141 0.0915777 2.38739e-20)
(1.02964 0.0519879 -2.51229e-23)
(0.287076 0.0497977 1.73484e-20)
(1.03145 -0.00340283 -1.41885e-20)
(0.93298 0.0642405 0)
(0.899007 -0.0631558 -1.38095e-20)
(0.984926 0.0481847 -4.88506e-21)
(1.03567 -0.0126298 -2.6928e-23)
(1.03207 -0.02522 7.2018e-24)
(1.00366 -0.0189935 0)
(1.04992 0.00177219 0)
(0.976477 -0.0725323 -1.18636e-22)
(1.06918 -0.00984937 2.19897e-22)
(1.06866 0.00571051 0)
(1.10783 -0.0411298 6.5342e-21)
(1.10881 -0.030555 -2.11151e-22)
(1.0575 0.0270176 -8.10488e-21)
(1.02931 0.00623275 0)
(1.00499 -0.0227321 0)
(1.07436 0.0338526 7.73938e-22)
(0.836092 0.285712 -9.7962e-22)
(1.06717 0.0420472 -3.50494e-22)
(-0.319913 -0.0949315 8.09975e-20)
(1.04978 -0.00785019 0)
(1.07002 0.00677958 0)
(1.07418 -0.0104899 0)
(0.922597 -0.706584 1.251e-20)
(1.02018 -0.00666348 -4.8454e-21)
(1.07629 0.0318481 0)
(-0.387926 -0.207205 0)
(1.02387 -6.8998e-05 5.47621e-21)
(0.978071 -0.0689174 -9.93435e-21)
(0.569077 0.328274 1.59724e-20)
(1.03042 -0.027899 9.17251e-25)
(0.856639 -0.0857384 0)
(1.03083 0.0104421 4.55528e-21)
(0.850878 -0.0899226 -1.87393e-20)
(0.79046 -0.0190892 7.56812e-21)
(1.03199 0.00233662 4.72644e-21)
(1.06725 -0.00420206 1.37942e-22)
(0.982193 0.0127884 0)
(1.10655 -0.033722 -5.80062e-22)
(1.04707 0.0268468 5.18901e-21)
(1.04659 0.00916506 -2.64512e-21)
(1.02968 -0.0392105 3.36556e-21)
(1.05641 -0.010906 0)
(0.830661 0.364907 -4.34264e-21)
(1.3391 -0.000161315 -3.1213e-20)
(1.05057 -0.0217051 -1.27901e-22)
(1.02574 0.0225628 0)
(0.397362 -0.317417 -1.24198e-19)
(1.08279 0.0219419 -6.11099e-22)
(1.0344 0.00786397 5.52072e-21)
(1.04723 -0.002015 8.02206e-23)
(0.992176 0.0134749 4.40808e-21)
(1.08697 -0.0160046 -8.88184e-21)
(1.04804 -0.0110879 -2.41368e-21)
(0.864138 0.183238 -1.22744e-21)
(1.02445 -0.0043783 0)
(1.13791 0.0753855 -2.03619e-21)
(1.02678 0.0232168 -3.07471e-21)
(1.02756 0.00857878 5.54134e-21)
(1.04901 -0.0116969 0)
(1.02185 0.00190665 -1.32687e-20)
(-0.314745 -0.248141 -9.7366e-20)
(1.02828 0.00859133 -6.93726e-23)
(1.01703 0.0694038 -6.06837e-22)
(1.0436 -0.13963 2.73606e-20)
(0.775945 0.168559 0)
(0.993822 0.0702252 2.8376e-22)
(1.05403 -0.0150378 0)
(1.06193 0.0021579 0)
(1.08117 -0.0929542 -3.70086e-20)
(1.07321 0.00286791 -1.15123e-23)
(1.06193 0.00215689 -6.96708e-22)
(1.00826 0.11244 -3.14397e-20)
(1.04522 0.00956333 -9.22219e-21)
(1.03428 -0.0175721 -5.08396e-24)
(1.00506 -0.0848538 0)
(0.652531 0.443243 0)
(1.02223 0.00551227 8.16651e-21)
(1.01916 0.062841 -3.11136e-22)
(1.0697 0.104246 0)
(-0.355216 -0.156906 3.9066e-20)
(1.02132 -0.00654966 0)
(1.05074 0.0507444 -2.36552e-21)
(1.02648 -0.106843 -3.46945e-22)
(0.772139 0.12053 -1.90128e-21)
(1.02769 -0.0401919 3.50464e-21)
(1.03888 -0.00916449 2.08526e-21)
(1.02194 -0.000105402 0)
(1.04764 0.107215 0)
(0.576656 0.220143 -1.73606e-20)
(1.11043 0.0562256 2.38795e-21)
(1.13273 0.0665474 1.93079e-21)
(1.03442 0.00775301 6.76107e-21)
(0.906218 -0.207103 1.04205e-20)
(1.02634 -0.0363989 0)
(1.0588 0.0340035 -2.07408e-22)
(1.02161 -0.00701318 0)
(1.00616 -0.0165078 1.07622e-20)
(0.919663 -0.0369075 2.71382e-20)
(0.906479 -0.114195 -9.86137e-21)
(0.980938 0.0298062 0)
(1.07381 0.0322759 -4.31051e-21)
(1.06588 0.0175674 8.60495e-22)
(0.986325 0.042173 -2.31442e-21)
(0.315402 0.376609 0)
(1.07941 0.0780183 1.05604e-20)
(1.07188 0.00669461 1.12259e-22)
(1.07006 0.0441955 -5.81806e-21)
(1.06378 0.0133812 0)
(1.04981 0.0514821 0)
(1.03105 -0.0289932 -1.31364e-23)
(1.04087 0.0261569 3.97491e-21)
(1.19888 0.408389 4.38232e-20)
(1.04362 -0.0136921 5.87983e-23)
(0.867386 0.196366 1.15537e-21)
(1.04918 0.00136537 2.58653e-21)
(1.18035 0.374665 -2.05831e-20)
(1.0245 0.0115535 0)
(0.984566 0.00994894 0)
(1.02252 -0.00246254 -3.85899e-21)
(0.253924 0.0258046 -1.35229e-20)
(1.07469 -0.00898539 1.12456e-21)
(1.06723 -0.00256585 0)
(1.04624 0.0296259 0)
(1.02546 0.00711488 -1.03154e-20)
(0.941707 0.0367864 0)
(-0.364773 -0.225353 -1.90293e-20)
(1.02425 -0.00444218 4.48657e-21)
(1.01924 0.00117077 1.0086e-20)
(1.06572 0.0317821 1.25319e-21)
(1.07218 -0.091331 1.78795e-20)
(1.08099 -0.00462192 0)
(1.07918 0.0306198 -1.27731e-21)
(1.02432 0.000315415 -5.06727e-21)
(1.02159 0.00598314 0)
(0.931907 0.030349 -1.43839e-20)
(1.05493 0.000994182 0)
(0.834804 -0.0387969 3.21457e-22)
(1.07253 -0.00907898 4.46233e-22)
(-0.231665 -0.180726 0)
(1.06945 0.0114769 2.18201e-22)
(1.06236 -0.0173621 -1.23498e-22)
(1.03176 0.0130684 5.18508e-21)
(1.03032 -0.0415623 -8.96205e-22)
(1.02967 -0.00118767 -3.06895e-25)
(0.761006 0.330065 2.52256e-21)
(1.02248 0.00579784 4.27414e-21)
(0.935643 0.0257967 1.28343e-22)
(1.03276 0.0137711 -2.97845e-21)
(-0.383447 -0.207753 -4.56876e-20)
(1.0742 -0.00907092 -1.11955e-21)
(1.02264 -0.00338097 4.00754e-21)
(0.994633 0.0384043 6.61556e-21)
(1.04091 -0.000785037 -1.10907e-20)
(1.04114 0.0254726 0)
(1.05826 0.00201893 0)
(1.09216 0.0893637 2.80734e-22)
(1.1038 -0.0246318 2.8458e-22)
(1.02754 0.00744959 -2.91234e-21)
(1.07081 -0.00381664 5.72405e-22)
(1.18194 0.0915203 0)
(1.00631 -0.0174797 0)
(1.04302 -0.0115913 0)
(1.06226 0.0389405 1.98188e-21)
(0.98939 -0.602309 -5.38346e-21)
(-0.322922 -0.244386 2.13148e-19)
(1.32876 -0.0808504 -3.54986e-20)
(0.63703 0.444943 -6.08829e-22)
(1.02499 0.00942024 -6.88316e-21)
(0.746767 0.291169 5.01001e-22)
(0.724565 -0.411141 2.13745e-20)
(1.025 -6.36317e-05 0)
(1.03852 -0.0368934 -7.52522e-23)
(1.03657 -0.825356 0)
(1.04841 -0.0115793 2.32843e-21)
(1.0377 -0.113333 0)
(1.02471 -1.82931e-05 0)
(0.612402 -0.292383 0)
(1.02441 0.0109829 0)
(0.800597 0.180953 0)
(1.03245 0.0417342 0)
(1.01364 -0.0101809 -1.11172e-20)
(1.11639 0.0599889 -5.07885e-21)
(1.05715 0.00145799 -3.72199e-22)
(1.04907 -0.0121766 0)
(1.07319 0.00273046 1.15676e-23)
(1.05026 0.000400991 0)
(0.678116 -0.361436 -2.12221e-21)
(1.07227 -0.00892591 9.00859e-22)
(1.1164 0.0461253 2.67761e-21)
(0.774154 0.123403 0)
(1.06982 -0.0597037 0)
(1.0309 0.00798969 0)
(-0.168145 -0.127084 0)
(1.07141 -0.0591987 -1.97728e-21)
(1.00675 -0.0273549 0)
(0.971172 -0.607583 -5.59698e-21)
(1.01116 -0.0206692 -5.14828e-21)
(1.02911 0.00146959 0)
(0.833059 0.170073 -5.58885e-21)
(1.03664 -0.00220702 7.35472e-23)
(1.05352 -0.0147764 -5.21819e-21)
(1.06626 -0.0524616 1.93027e-22)
(1.03112 0.00882875 -5.07681e-21)
(1.10036 0.0427656 1.01811e-21)
(1.05331 -0.00779496 0)
(1.04353 0.0364095 0)
(1.06526 0.0142819 -6.36786e-23)
(0.81923 -0.0430244 8.25636e-21)
(1.06219 0.0382309 -1.79766e-21)
(1.02119 0.000993354 0)
(1.03448 0.0248294 0)
(0.813515 0.0171651 -7.56263e-21)
(0.615241 0.344438 1.48211e-20)
(1.0987 -0.0215027 -4.24851e-22)
(1.01691 0.11531 -3.92215e-22)
(0.661358 -0.336661 0)
(0.82879 -0.0451389 0)
(1.03251 -0.00185534 0)
(0.906335 0.121374 -1.36645e-21)
(0.530379 -0.106347 8.17473e-22)
(1.02808 0.00845306 0)
(1.05149 0.0278423 6.91312e-21)
(1.0357 0.0244285 -5.29078e-21)
(1.06887 0.0438019 -3.60713e-21)
(1.03081 0.00750443 0)
(1.04086 0.00167698 7.31937e-21)
(1.02051 -0.00694845 -5.19797e-21)
(1.04268 0.0242907 0)
(1.02372 0.00840498 -2.38627e-21)
(1.09048 -0.634594 -2.70655e-20)
(0.573482 0.523173 7.66649e-22)
(0.638236 0.357451 2.06106e-21)
(1.06702 0.0058377 3.63636e-21)
(1.08102 -0.00501067 3.86537e-22)
(0.746779 0.368057 -1.03901e-21)
(1.0668 -0.00321236 1.14412e-22)
(0.753108 0.113431 -1.75169e-21)
(1.06121 -0.0760912 -2.91495e-23)
(1.01213 0.0399643 0)
(1.05212 0.0320589 -4.67494e-21)
(0.749288 0.356518 -2.72002e-21)
(1.0646 0.0180758 1.76788e-22)
(0.60028 -0.318596 -1.08653e-21)
(1.10281 0.0316777 8.34605e-22)
(0.732092 0.12464 -1.61794e-21)
(1.01311 -0.0237636 0)
(0.889565 -0.0417593 -4.39958e-21)
(0.595183 -0.26079 2.62876e-21)
(1.06966 0.00373584 -2.69801e-21)
(0.189133 -0.0948186 0)
(1.06202 0.00150665 -1.56312e-21)
(-0.0427038 -0.321108 0)
(1.02378 -0.00121979 0)
(1.0926 -0.0082963 0)
(1.05711 -0.276401 5.3976e-22)
(1.07 0.0058478 2.95555e-22)
(1.05357 -0.0255867 -1.81415e-22)
(1.02676 0.00730409 0)
(1.04637 -0.00282134 2.76995e-22)
(1.17523 0.0797238 0)
(0.492053 0.297713 -1.68094e-20)
(1.02707 -0.00313549 -4.58552e-21)
(0.943686 -0.115968 0)
(0.867867 -0.084165 6.18537e-21)
(0.368523 -0.283648 2.00992e-20)
(1.04287 0.0237247 0)
(1.1163 -0.0633984 1.0621e-22)
(1.0708 0.00538914 5.34232e-23)
(1.02713 -0.00280756 3.62796e-21)
(0.770699 0.240396 0)
(0.943579 0.065494 1.03605e-21)
(1.06597 0.0420963 0)
(1.11529 0.0156151 -1.10774e-21)
(1.05586 0.0247139 -1.47121e-21)
(0.774665 0.257065 3.08565e-21)
(1.06139 0.000597737 8.25401e-22)
(1.04339 0.06205 0)
(0.781273 0.358503 0)
(0.986049 -0.00227427 1.21938e-21)
(1.06307 -0.0186743 2.45013e-22)
(1.04689 -0.0228071 -1.21364e-21)
(1.03014 0.0222967 -3.63387e-23)
(1.02376 0.00792228 -1.34877e-20)
(1.03155 0.0524928 3.87572e-21)
(1.04729 -0.0158561 1.14665e-22)
(1.3598 0.257931 0)
(1.05971 0.0456002 0)
(1.07005 -0.00258504 -5.38816e-23)
(1.0367 -0.0186577 0)
(0.317237 0.340961 -1.35671e-19)
(0.826576 0.0293342 0)
(1.12118 0.0160296 -8.89682e-22)
(1.11738 0.0752502 -2.95917e-22)
(1.05339 0.0318382 6.45107e-21)
(0.338307 -0.109015 8.96466e-20)
(1.04606 0.0115863 0)
(1.07137 -0.0022064 0)
(1.06128 -0.0159503 0)
(1.0513 -0.0138043 -2.54756e-21)
(1.03337 0.0713625 2.02603e-20)
(1.0214 0.00583354 0)
(1.0736 0.00203526 -2.73889e-23)
(1.06882 0.0115373 0)
(1.02209 -0.0338724 -1.45952e-22)
(1.04564 0.0658881 2.90523e-21)
(0.361931 -0.210126 -1.99875e-20)
(1.11594 0.345755 0)
(1.03252 -0.00146458 6.95374e-22)
(1.08845 -0.00613098 3.48894e-21)
(0.609157 -0.23846 4.97014e-22)
(1.01152 -0.00654995 9.89209e-21)
(1.06702 -0.0037812 1.98413e-22)
(1.06754 -0.00282092 0)
(1.04211 -0.0160254 -2.64459e-23)
(1.02977 -0.0235758 0)
(1.0583 -0.000893882 -6.84466e-23)
(-0.121255 -0.312209 0)
(1.03994 -0.0840033 -1.14294e-20)
(1.05651 -0.0858435 0)
(1.03678 -0.0023734 0)
(1.0279 0.00789061 -9.08014e-21)
(1.05068 0.0333274 3.46109e-21)
(1.0455 -0.00251798 -2.26766e-22)
(1.07261 -0.0042794 6.53891e-22)
(0.746835 -0.109542 -9.70563e-20)
(1.12974 -0.653925 0)
(0.512972 0.279118 -7.56186e-21)
(-0.0595724 -0.0899904 0)
(0.900859 -0.215244 -1.03811e-20)
(1.04278 0.00291416 -6.81838e-21)
(1.02655 0.00812696 -5.687e-21)
(0.880555 0.03672 0)
(1.06082 0.0459489 -8.12606e-22)
(1.1172 -0.085031 3.56417e-20)
(1.05527 -0.00451225 6.34607e-22)
(1.03814 0.0715717 -1.01266e-20)
(0.952366 0.0265855 -4.95967e-23)
(0.805029 0.238505 -8.06417e-21)
(0.887194 0.012438 1.47758e-22)
(0.948716 -0.103831 0)
(1.06989 -0.00280769 1.75738e-22)
(1.06611 -0.000578208 3.77689e-22)
(1.06324 0.0144536 0)
(1.02217 0.00203637 8.07864e-21)
(0.558804 0.00169334 2.77289e-20)
(1.05477 -0.0785047 -6.58703e-22)
(1.07015 -0.0169929 0)
(1.0314 0.0150083 -3.23605e-21)
(1.06625 0.041038 2.46176e-21)
(1.04272 -0.0114771 5.35871e-22)
(0.75148 -0.414865 -2.01554e-20)
(1.09602 0.0316411 3.79258e-22)
(0.565624 0.524422 -3.87072e-21)
(1.0252 -0.000250005 1.93296e-21)
(0.563403 0.126335 0)
(1.02757 -0.000847936 -7.29989e-21)
(1.03552 0.0258592 0)
(1.05661 0.0352987 3.30547e-21)
(1.05511 -0.0246032 1.91675e-22)
(0.998034 0.046201 -7.82809e-21)
(0.539231 0.154357 -9.46607e-21)
(1.02037 0.00251935 0)
(1.07043 0.0294457 1.01775e-20)
(1.05659 -0.0118147 0)
(1.02556 -0.000290111 -3.23077e-21)
(1.04107 -0.00231992 5.70734e-21)
(1.07379 -0.00990715 3.55694e-24)
(1.05276 -0.0143312 1.28491e-21)
(1.39411 0.212699 3.49118e-21)
(1.06585 -0.00683161 6.1374e-22)
(1.33458 -0.160068 3.59391e-20)
(1.04708 0.0246904 0)
(1.04714 0.0298489 -2.32268e-23)
(1.11237 -0.0469804 -1.71522e-21)
(1.00881 0.0158221 0)
(0.986176 0.0366974 0)
(1.0452 0.0307486 0)
(1.03714 -0.00642461 0)
(0.800685 0.00194869 -7.41672e-21)
(1.05103 0.0213164 9.62952e-23)
(1.06214 0.000435719 8.0387e-22)
(1.07166 -0.00921455 3.62292e-22)
(1.06961 -0.0167185 2.93839e-22)
(1.04145 -0.0169459 2.07695e-23)
(0.553904 -0.153025 -3.23248e-21)
(1.05539 -0.0103828 0)
(1.06382 -0.0081794 -6.26223e-22)
(0.905794 -0.0955059 -1.78074e-20)
(1.02908 0.00978715 0)
(1.03421 -0.0834667 1.12737e-20)
(1.0793 0.00531405 0)
(0.873447 -0.211179 -2.77364e-20)
(1.0655 0.0122231 0)
(1.07195 -0.00941676 0)
(1.02282 -0.00736681 -4.71032e-21)
(1.07307 -0.00712378 -1.8698e-23)
(1.04671 0.00250485 -3.47744e-21)
(0.351749 -0.0489891 0)
(1.05451 -0.00479233 -1.38476e-21)
(0.539177 0.108568 -2.31307e-21)
(1.07561 -0.00451536 -1.09804e-22)
(1.05052 -0.00961054 4.49958e-21)
(1.02837 0.00966036 -5.61154e-21)
(1.03571 0.00234769 0)
(1.07699 0.00850356 1.30376e-21)
(1.04692 -0.0152057 -3.7895e-23)
(1.07283 -0.0074007 -4.61433e-22)
(1.06785 0.0286202 -1.32222e-20)
(0.964696 0.209788 -1.18575e-20)
(0.739527 0.110762 1.08287e-21)
(-0.308169 -0.175326 1.60644e-19)
(1.06519 0.0411314 -2.54821e-21)
(1.02486 0.0090134 2.62581e-21)
(1.06545 0.0117486 -1.25761e-21)
(-0.0584674 -0.0714291 -4.88546e-20)
(1.04378 -0.0176274 0)
(0.464902 -0.587172 0)
(1.06262 -0.0815441 -6.48595e-22)
(0.260817 0.198403 1.43528e-20)
(1.06959 -0.00272488 0)
(0.889504 -0.130596 0)
(1.01402 0.185499 0)
(1.03362 0.0127223 -8.65556e-21)
(0.947092 -0.0236051 -1.46552e-20)
(0.803482 -0.00889414 7.95479e-21)
(-0.37521 -0.165192 -2.08315e-20)
(1.02221 -0.000101103 0)
(1.06696 0.043103 2.20361e-21)
(1.02465 0.00100178 1.0469e-20)
(1.34883 0.175117 -3.93645e-20)
(-0.401752 -0.215208 0)
(1.07106 -0.0182051 2.36353e-22)
(1.32155 0.137302 2.54008e-20)
(1.05032 0.0319709 -1.65486e-21)
(1.05622 0.00190332 -2.4587e-21)
(0.993591 0.0476726 -8.20067e-21)
(1.02731 0.00184601 0)
(1.03707 -0.0190762 -1.66468e-21)
(1.04595 -0.0142565 -7.77632e-23)
(0.857787 -0.253812 -4.27875e-21)
(0.87847 -0.242484 0)
(1.06221 -0.0115118 -1.05001e-22)
(1.02772 -0.0017317 -8.64654e-21)
(1.02326 -0.00715502 -2.37636e-21)
(0.980509 -0.0400172 -8.85929e-21)
(1.03428 0.0123311 5.03253e-21)
(0.310819 0.32857 1.54486e-20)
(0.494516 0.263297 0)
(1.03356 0.0263214 4.33317e-23)
(1.04798 -0.0161635 4.25462e-23)
(1.0492 -0.0208349 -6.27973e-23)
(1.03488 -0.0163571 5.00222e-24)
(-0.0707501 -0.0552696 4.14509e-20)
(1.39537 0.262195 0)
(0.984946 -0.0455916 1.53162e-21)
(1.00717 0.0510534 -4.8595e-22)
(1.07418 -0.00430521 -3.29492e-22)
(1.11255 -0.4658 1.02913e-21)
(1.06652 -0.7644 7.48509e-20)
(0.509366 0.300874 1.75458e-20)
(1.04913 -0.016986 0)
(1.07128 -0.00977161 0)
(1.19236 -0.0724135 4.59418e-21)
(1.0538 -0.000256548 2.60835e-21)
(-0.253335 -0.270355 -3.64584e-20)
(1.01942 0.00319394 8.1024e-21)
(1.06017 -0.000895916 7.83816e-23)
(1.06661 -0.00116677 0)
(1.07241 0.0473919 1.4627e-21)
(1.07663 -0.0621029 4.28784e-21)
(1.06185 -0.016933 0)
(1.04543 -0.0194961 1.70432e-21)
(1.09038 0.0218988 3.044e-22)
(1.04803 0.00173032 1.55015e-21)
(1.0657 -0.041757 0)
(1.02452 -0.265414 0)
(0.876491 -0.00171145 0)
(1.05645 0.0257298 9.49392e-21)
(0.934163 0.0185616 -1.46592e-22)
(1.02478 0.0105209 0)
(1.07726 0.0311656 2.70484e-20)
(1.00254 -0.112563 2.02672e-20)
(1.05195 -0.00241227 1.11466e-22)
(1.03874 0.00187497 -3.77414e-21)
(0.807296 0.170556 0)
(0.929018 0.0588349 3.61265e-22)
(-0.165296 -0.286264 5.86174e-20)
(0.567071 0.402019 0)
(0.976421 0.0135038 0)
(1.07099 -0.00956271 -3.55604e-22)
(1.05181 -0.0120853 0)
(1.05181 0.0205982 2.18742e-21)
(0.862277 -0.101384 6.44736e-21)
(1.0279 -0.0375886 0)
(1.06705 -0.00279423 1.14662e-22)
(1.0403 -0.00259735 -1.1211e-22)
(0.806838 0.323793 2.42122e-21)
(1.03744 0.00369962 -2.92349e-21)
(0.89482 -0.11456 -2.12192e-20)
(1.03613 -0.0208448 1.465e-21)