/*--------------------------------*- C++ -*----------------------------------*\
| =========                 |                                                 |
| \\      /  F ield         | OpenFOAM: The Open Source CFD Toolbox           |
|  \\    /   O peration     | Version:  v2012                                 |
|   \\  /    A nd           | Website:  www.openfoam.com                      |
|    \\/     M anipulation  |                                                 |
\*---------------------------------------------------------------------------*/
FoamFile
{
    version     2.0;
    format      ascii;
    class       volScalarField;
    location    "150";
    object      ddt0(epsilon);
}
// * * * * * * * * * * * * * * * * * * * * * * * * * * * * * * * * * * * * * //

dimensions      [0 2 -4 0 0 0 0];


internalField   nonuniform List<scalar> 
18166
(
1.60011e-06
-5.21843e-11
-4.79709e-06
-9.64757e-09
-0.000102755
1.43544e-08
-4.98904e-11
1.7654e-11
1.04738e-10
5.91373e-07
-7.28976e-11
-8.38759e-09
1.98242e-10
5.81108e-10
-4.71256e-11
9.78506e-11
0.000769596
5.62904e-11
-1.26343e-10
7.68913e-09
1.10122e-10
9.48409e-10
5.3512e-10
-2.50988e-11
-3.45013e-07
-6.32193e-06
6.74925e-11
-5.94915e-06
4.49259e-10
1.32075e-10
4.09522e-11
-1.68928e-06
4.70327e-10
-3.36533e-07
-2.42786e-05
-2.14984e-10
-1.02597e-12
5.77319e-11
-8.58522e-11
-8.97946e-09
1.02422e-10
-2.64297e-12
2.07914e-10
-2.67927e-10
-0.00013288
3.28606e-11
-1.55363e-11
2.83542e-06
4.32694e-11
-1.04865e-07
-4.0774e-07
0.000850294
4.02382e-11
2.8086e-12
1.98003e-11
-2.05367e-11
1.78628e-05
7.73922e-12
-1.19566e-05
-1.22226e-10
3.32409e-12
-8.31489e-12
1.55795e-11
2.43604e-10
3.23708e-11
1.80881e-11
-3.06818e-11
7.72119e-11
-0.000256165
4.28347e-13
7.95585e-11
-1.41545e-08
-7.06335e-09
-2.13063e-11
-3.69423e-12
-5.91605e-10
-7.70671e-05
0.00022447
0.000219666
-1.0053e-10
2.97388e-10
1.37871e-12
-0.000127608
2.47543e-11
1.17639e-11
1.06246e-11
1.73005e-11
2.02428e-10
-4.60688e-11
-7.22809e-05
1.75965e-11
2.93376e-11
1.9836e-10
1.15126e-11
-2.75758e-11
1.37023e-10
1.16216e-05
-4.01778e-12
-9.76166e-06
-5.13301e-05
7.70318e-11
-1.36719e-11
7.03671e-11
-1.14295e-05
2.14252e-12
1.2277e-05
1.73858e-11
8.88382e-14
-5.35259e-11
-5.1848e-10
0.000802177
-0.000415189
0.000765111
-0.000300574
-1.23419e-10
-7.29232e-06
0.000315542
-1.79601e-11
-3.79087e-11
1.73747e-11
3.52826e-11
2.03332e-11
5.0897e-11
1.15718e-11
-5.97808e-11
1.13307e-10
1.00706e-10
1.72086e-11
1.28804e-11
-2.61096e-10
8.28952e-14
8.1744e-11
1.52744e-10
1.31402e-10
-2.17244e-10
-3.12317e-06
-6.93144e-11
0.00017818
1.44996e-11
-1.49949e-05
1.32484e-10
2.63114e-11
-5.51632e-11
6.90612e-06
5.4552e-11
-0.000129167
5.64641e-06
2.69472e-11
4.51727e-11
-0.000116347
-8.34803e-12
4.38771e-11
-1.24257e-05
0.000485709
-2.93075e-07
4.57271e-11
1.08763e-11
1.7548e-11
-2.99564e-07
-4.78252e-11
-6.97067e-11
8.81772e-12
7.50541e-05
4.44406e-10
1.91992e-10
-1.42101e-12
1.32133e-10
-1.97705e-11
0.000512077
-3.7682e-11
9.87539e-12
1.40187e-05
-5.08642e-11
-2.39617e-05
2.97933e-10
2.3512e-05
1.41091e-11
-2.53261e-07
-8.53478e-11
-2.50599e-11
5.35246e-12
2.08219e-11
-1.70233e-07
-0.000181825
-9.80909e-11
7.04306e-12
8.65477e-11
-8.33347e-11
-2.48585e-11
7.27552e-11
-1.50002e-10
-8.23841e-11
-0.000281406
-6.62597e-12
1.41088e-11
0.00019084
7.26992e-05
-5.66878e-09
5.08804e-11
-2.415e-11
-2.89332e-11
-0.000244451
0.000681455
-1.3386e-10
4.02624e-11
1.63103e-07
8.1879e-11
1.7243e-08
-4.61213e-08
2.48361e-11
-6.44166e-11
1.20368e-07
-1.93364e-07
2.22588e-11
-6.53507e-12
2.308e-10
-1.16874e-06
-1.19365e-11
-1.61051e-10
-1.67727e-10
-8.19981e-12
1.04088e-05
5.69417e-10
2.17307e-11
-1.09372e-11
1.29241e-05
-1.05743e-11
4.99605e-11
9.52776e-10
9.49651e-12
1.04517e-10
1.19374e-11
-2.17969e-06
1.43618e-11
0.000679023
6.29175e-06
5.20383e-06
1.86592e-10
2.87007e-11
8.61419e-09
1.37177e-11
4.75421e-10
1.0253e-10
1.3024e-05
1.84687e-11
1.6612e-11
-0.000426262
2.15681e-11
-1.00969e-10
1.44208e-08
1.14273e-05
-1.50285e-10
-7.97794e-11
2.74871e-09
-3.43774e-11
2.29774e-11
2.0702e-10
-5.8723e-11
-7.53914e-11
2.93048e-10
-3.24427e-10
-4.73915e-10
-4.70367e-10
1.41923e-11
2.21608e-11
-6.95409e-11
-2.85847e-06
-5.56459e-11
1.23109e-11
-1.76706e-08
-7.52963e-14
1.4551e-11
3.00727e-09
1.59662e-06
1.88753e-11
4.10375e-12
-1.01815e-06
1.89323e-11
3.23896e-11
8.73539e-06
-2.12013e-11
1.93622e-11
2.13837e-09
-4.12956e-11
6.91673e-11
1.6291e-11
-2.51742e-06
1.4042e-09
3.24584e-11
7.47308e-11
9.29663e-11
6.50405e-09
-4.2721e-10
6.64592e-11
1.46082e-11
6.87524e-10
2.54504e-10
1.30722e-05
7.11562e-12
-2.42464e-06
-1.17612e-10
2.71115e-09
-0.000244016
-8.06869e-11
6.98602e-11
-3.25465e-11
8.87198e-10
9.85597e-11
-6.10786e-11
7.97474e-11
3.14338e-10
-5.62454e-11
-1.02635e-10
1.2957e-11
-3.23341e-11
2.75069e-10
2.15177e-12
1.16734e-06
-2.61326e-06
1.82267e-11
0.000150067
-2.83717e-11
0.000501186
-6.12229e-11
1.43674e-11
4.33924e-12
1.88987e-10
-1.57367e-06
-3.42447e-11
2.97601e-08
1.67184e-11
1.9214e-10
-2.87408e-12
1.36093e-10
1.96382e-09
-8.5861e-12
1.03128e-07
-3.8189e-10
2.06658e-11
1.5449e-11
1.0373e-09
3.70686e-11
1.09655e-06
-5.30234e-11
5.29255e-11
-3.52054e-10
0.00023731
3.50501e-10
-4.84053e-11
1.86648e-12
1.49766e-09
6.73332e-10
6.4981e-09
-2.69192e-10
1.80508e-05
7.30507e-10
-8.63775e-11
9.56794e-12
1.90761e-10
1.20259e-09
-3.12609e-11
6.79128e-11
1.21337e-11
1.20489e-10
2.24471e-09
2.12244e-11
3.28069e-11
-8.99289e-12
7.70795e-11
-9.31446e-11
1.61485e-11
2.53129e-11
-7.38468e-11
0.00149827
-8.76532e-12
4.32175e-10
5.02177e-11
2.22236e-11
1.24276e-11
9.64595e-10
2.29141e-11
1.36859e-10
1.51963e-09
7.64465e-06
1.82454e-11
7.57816e-11
1.18297e-10
-2.85687e-09
1.39813e-10
0.000281429
1.9676e-11
3.58094e-07
-3.60346e-11
1.11023e-10
-3.48844e-07
-6.60932e-09
-6.34007e-12
1.13538e-11
1.8013e-11
-3.0908e-08
2.61333e-11
3.04058e-11
2.15006e-10
2.4864e-11
7.2573e-11
-1.07164e-11
8.29827e-11
5.83099e-09
-7.35804e-07
1.23329e-11
3.09121e-11
2.05769e-07
2.7756e-10
4.78329e-10
3.60592e-11
0.0015649
5.28973e-11
7.41969e-12
4.21152e-12
7.23138e-11
-2.29446e-12
3.63403e-11
-4.69272e-08
6.34599e-08
-8.86865e-12
-5.72733e-11
5.28352e-10
3.67543e-11
4.44668e-11
-3.95335e-10
6.0124e-11
7.12414e-11
4.47941e-12
-1.89514e-10
2.58913e-11
-5.6268e-11
4.37386e-11
6.70931e-09
-0.000134608
1.66171e-08
0.00077678
-1.77295e-05
4.8596e-09
1.01787e-09
-1.45364e-10
-1.97254e-11
0.000139587
2.8607e-11
5.5208e-11
1.41772e-09
-1.77126e-10
-2.58785e-11
7.95745e-11
6.51945e-11
3.42019e-10
5.48966e-11
1.29091e-11
-5.63777e-11
8.23459e-12
2.40014e-11
2.469e-10
8.36793e-12
3.42481e-12
4.81384e-10
-4.9549e-11
1.63928e-11
3.99002e-11
3.21265e-11
2.54961e-09
-3.63515e-12
-9.25448e-11
6.06075e-11
-2.68118e-11
1.54379e-11
-0.00018377
-4.12409e-11
1.8596e-11
3.04612e-10
6.15493e-12
-6.15187e-06
8.76182e-12
1.19266e-11
1.62352e-05
3.39849e-11
-3.00478e-10
2.29726e-12
1.80531e-08
1.32453e-11
1.09453e-11
8.40605e-11
4.99714e-11
5.69712e-11
-3.36642e-11
2.34731e-09
1.39746e-05
1.28736e-11
2.61872e-11
2.76793e-10
-2.05587e-11
-2.11205e-10
-6.13155e-11
1.51143e-10
-8.08066e-11
-0.000267878
1.02364e-11
2.21982e-10
3.48321e-11
7.58635e-12
3.60394e-11
-1.99748e-08
6.21487e-11
3.26662e-13
-1.06354e-11
6.60792e-10
-1.21756e-06
-1.19027e-06
-1.60507e-10
-2.11178e-10
-0.000189917
-1.28727e-11
-1.9553e-10
-9.81861e-05
-2.44249e-10
2.51418e-09
0.000639682
2.70416e-11
3.93864e-11
6.02239e-11
4.98302e-11
1.1598e-11
-1.88056e-08
-1.5709e-11
-0.000108016
8.0498e-08
6.63138e-11
-0.000175223
6.91268e-11
1.14522e-10
-3.23679e-12
1.10344e-10
7.7812e-12
4.27931e-08
2.85539e-11
-2.33765e-06
-1.73563e-10
6.64102e-12
8.74295e-10
2.79837e-11
-3.9382e-08
4.67972e-11
-3.91359e-11
3.95334e-11
5.52638e-12
-2.53267e-10
5.69788e-11
1.36539e-11
-3.85976e-09
-2.98602e-08
1.67973e-10
3.12632e-06
-2.16995e-10
-2.17552e-10
1.09519e-09
2.00528e-11
1.45742e-11
6.24771e-05
7.12407e-11
9.79005e-12
2.16117e-11
1.46418e-10
-3.14277e-11
2.93451e-11
-2.05701e-06
-1.88013e-11
-2.20886e-06
8.35725e-08
-9.63046e-11
1.61272e-10
1.85279e-10
6.86621e-13
1.4281e-11
-1.292e-06
-2.34443e-11
2.15327e-11
-3.4522e-08
2.44961e-10
-2.90636e-11
2.54521e-11
3.22179e-10
1.24027e-11
-4.19869e-05
2.11688e-11
3.5401e-09
2.41098e-10
-4.40746e-10
-5.46802e-11
-4.57669e-11
-6.38519e-06
-2.0324e-05
-0.000229164
3.64648e-12
5.53126e-11
1.13256e-11
-3.8829e-11
-2.65497e-10
2.23097e-11
6.84754e-10
1.14474e-05
3.17273e-08
2.98042e-11
1.30272e-11
-1.61405e-10
7.72582e-11
1.59431e-11
1.5228e-11
-2.1688e-11
2.44323e-10
5.52534e-11
-4.86504e-12
-4.36686e-07
-8.46557e-10
8.78573e-12
9.58215e-06
0.00141001
-5.95879e-11
2.54961e-10
5.54476e-12
-1.90948e-11
-2.36212e-05
-2.61302e-11
1.15353e-11
-4.1482e-11
1.40297e-11
-0.000113965
-9.63611e-10
-4.59717e-11
-2.61624e-12
-1.60918e-11
8.69578e-12
-8.08092e-11
6.13252e-11
5.51749e-11
-2.40894e-08
5.27423e-11
7.48033e-11
2.66562e-11
9.80034e-06
3.16475e-12
3.06286e-11
6.97919e-11
4.16296e-10
2.78631e-10
-1.06036e-11
-4.09685e-07
-3.59576e-13
0.000838651
2.23688e-10
-2.28307e-10
8.90951e-13
2.3903e-11
4.06118e-11
2.68261e-11
-6.4507e-10
7.47448e-11
4.20164e-10
1.39381e-09
6.55469e-11
-3.88612e-07
-2.81106e-11
3.5384e-07
2.85278e-10
-8.33222e-11
8.47138e-11
1.052e-05
-1.64683e-07
2.03284e-05
1.26117e-09
-3.06276e-12
-5.65186e-11
-1.90403e-11
5.47189e-12
-3.61123e-11
1.16451e-11
1.96076e-06
1.34231e-08
1.68217e-05
-4.52465e-07
-1.64672e-05
-1.04649e-06
-4.68354e-11
2.11313e-11
1.84682e-12
-7.74509e-12
2.71709e-09
3.51886e-05
3.71084e-07
6.90543e-10
1.93e-09
-1.90696e-11
1.27313e-11
-4.34004e-10
-2.73397e-09
-5.36462e-12
-5.0704e-05
-7.53181e-12
-7.56279e-11
-3.20454e-11
7.82865e-11
3.3486e-10
-1.01531e-10
-1.52372e-05
1.21362e-05
-1.15301e-09
9.03178e-09
1.38883e-05
2.03678e-10
8.03895e-11
-2.81125e-10
-4.29233e-11
2.55864e-10
-5.35425e-08
8.29883e-11
-4.13535e-05
-6.04848e-11
-1.32955e-12
3.83738e-11
2.66352e-08
1.1222e-10
1.87045e-10
2.58827e-06
-5.6091e-09
-2.27542e-11
1.39166e-10
2.35266e-08
1.10457e-12
-3.07781e-12
1.2646e-10
7.48032e-06
-3.12332e-11
5.20941e-09
9.36055e-07
1.24289e-05
1.48611e-10
-3.65475e-11
2.85502e-11
-5.1983e-11
2.57532e-10
-2.96742e-10
5.68096e-11
-3.06498e-10
6.91819e-11
-2.32162e-11
3.17895e-11
3.197e-11
-0.000213552
-2.99848e-10
5.64306e-07
1.54178e-12
3.72862e-11
-5.3319e-10
7.90377e-11
8.69837e-11
4.84118e-10
2.70828e-09
-2.58703e-11
-4.29589e-11
-7.34265e-12
-4.76758e-11
0.00102552
-1.21625e-10
-9.44973e-11
2.76694e-11
-3.81813e-11
4.58295e-11
5.25502e-11
-1.8584e-08
-5.66274e-08
2.72203e-07
3.34659e-11
-9.25415e-09
0.000775663
-2.28668e-10
1.89902e-07
5.76578e-09
-4.07412e-08
-1.74123e-10
-1.80706e-12
5.62791e-11
-1.01083e-10
-1.38822e-06
3.27704e-11
2.97724e-10
-2.83757e-10
3.0208e-11
0.00120823
-1.28147e-11
-1.12346e-10
2.21865e-10
-3.86617e-11
-5.77165e-11
5.77411e-11
-1.20726e-10
4.134e-13
1.07311e-06
-1.99256e-11
-4.05939e-11
-1.6975e-10
-2.92886e-10
-3.13997e-11
-2.20134e-06
-1.69535e-10
-1.98576e-08
1.54437e-11
3.0611e-10
-5.56562e-06
1.06891e-10
5.40625e-06
-1.62066e-05
1.87417e-09
3.68559e-12
-1.07385e-10
1.29086e-11
6.23442e-12
5.63871e-11
-1.67143e-12
0.000964522
-9.00408e-12
-2.06413e-10
7.60546e-12
1.28868e-09
-2.43121e-12
4.18881e-10
-1.19376e-11
4.84034e-11
-1.05757e-11
3.66417e-11
3.60407e-10
-5.13108e-11
3.60358e-12
-7.18735e-10
3.54041e-06
-1.30879e-10
1.58116e-05
-1.06611e-08
6.32575e-11
-5.13874e-14
4.42765e-10
4.70237e-11
1.42348e-11
-7.39919e-11
9.53365e-10
-6.13969e-11
1.01754e-09
1.25714e-10
-8.71933e-09
1.73236e-11
-3.56406e-09
-3.11463e-06
-3.21909e-11
5.88224e-11
2.68444e-10
4.04911e-11
3.99801e-07
-3.90965e-10
-4.75148e-06
4.17118e-11
2.05279e-10
3.36286e-09
0.000830468
-4.58762e-07
1.47857e-11
6.45269e-10
5.66643e-11
-3.85815e-09
2.57746e-11
-1.91234e-09
-8.04373e-09
-0.000236144
1.12813e-11
-2.49251e-11
4.39814e-11
-0.00025689
-1.48916e-11
-0.000574295
8.62001e-12
2.81834e-06
-1.42528e-06
-3.34382e-11
-1.42081e-10
5.36723e-06
1.75518e-09
-8.79052e-09
9.12907e-11
8.79787e-10
1.17876e-09
-2.74169e-11
-9.34219e-12
-4.60213e-08
-3.25156e-07
-4.45036e-11
1.32191e-11
-9.15538e-11
-2.85339e-11
2.8024e-10
-9.33351e-11
0.00143781
4.97618e-13
-1.51385e-05
0.000100501
-3.26206e-11
2.5211e-06
7.28358e-11
2.91244e-12
1.59138e-07
1.33849e-07
1.311e-07
3.78824e-09
0.000175845
-2.48e-11
4.65145e-11
1.43209e-08
0.00117681
3.2818e-09
6.09842e-12
-2.06716e-11
4.48633e-06
7.81952e-11
1.85035e-10
-6.37986e-12
3.36974e-11
4.28747e-11
5.55091e-10
2.98947e-09
-8.16584e-12
1.42836e-05
6.63601e-12
2.62125e-07
0.000152919
-1.08988e-07
-0.000297947
1.71581e-07
3.17635e-09
-0.000521955
1.27711e-12
-1.695e-10
5.51753e-11
-5.29112e-11
-1.36153e-10
-7.89224e-09
4.37855e-11
1.03887e-05
1.39723e-10
7.76186e-07
2.74729e-10
1.62591e-12
-5.16858e-09
1.04355e-11
9.36147e-11
-1.14224e-05
-2.22795e-11
-1.02662e-11
0.000340132
1.25549e-07
3.10259e-05
6.56628e-07
9.35137e-12
1.08683e-05
6.59577e-10
4.52625e-11
1.64323e-10
-1.29258e-10
7.34861e-06
3.62553e-11
-4.57653e-11
-3.48514e-10
-1.1008e-10
4.33993e-10
6.03574e-12
-6.72274e-10
-1.71808e-10
9.7712e-06
9.0548e-11
-4.64578e-11
1.63729e-06
4.51027e-11
5.02374e-07
-2.94782e-07
-1.31058e-10
3.65007e-13
1.44458e-10
-0.000103047
-6.53036e-07
-0.000104812
8.82042e-11
-2.82127e-11
-2.5077e-09
0.000300225
8.83134e-11
4.20461e-11
-1.87625e-10
-1.5478e-10
1.956e-10
-8.52045e-07
3.42363e-09
9.4876e-11
-3.82109e-11
3.20423e-12
-5.66284e-12
-3.43067e-12
4.80369e-09
1.03121e-11
-8.81816e-06
-4.07019e-09
-2.89028e-11
-0.000286855
-8.81081e-12
9.10453e-10
1.19871e-10
-1.86202e-11
3.82569e-10
-4.24953e-11
-1.09159e-08
1.00982e-10
-4.36354e-12
8.93109e-10
5.25144e-08
1.06344e-09
5.07506e-12
-1.14846e-10
1.31838e-11
4.06778e-10
0.000834452
3.02872e-05
-2.05671e-11
1.79933e-11
4.45161e-11
-1.87756e-11
-1.00877e-10
4.10166e-06
7.75238e-11
4.44447e-05
-1.39796e-09
-8.1501e-12
6.15399e-11
-9.62184e-12
7.71079e-05
4.9764e-11
1.92242e-08
8.02522e-12
0.000135942
5.73024e-12
-1.23183e-06
4.14237e-11
1.27667e-11
-1.45014e-11
4.51524e-11
2.81775e-11
-3.28705e-11
-6.87869e-11
-5.06553e-06
-1.23241e-09
8.67168e-05
1.89946e-11
2.72006e-11
7.08969e-11
-3.24455e-08
1.27699e-05
3.59069e-10
8.68444e-09
-1.40857e-11
-3.43812e-12
-6.42145e-11
5.41146e-11
1.56111e-11
7.97842e-11
-4.89594e-11
3.46178e-10
2.73307e-07
1.41287e-06
1.09695e-11
-3.36561e-06
3.61364e-06
-2.28059e-06
1.14443e-07
1.49647e-11
2.84584e-10
1.3978e-06
-9.21133e-11
9.6951e-12
-1.54556e-09
4.18248e-11
0.000698653
-4.91893e-11
-9.3153e-05
-9.97576e-11
6.83077e-12
-9.11152e-12
2.72183e-10
-5.03241e-12
-2.07458e-11
-6.65333e-09
3.22107e-11
3.25525e-12
1.34358e-11
5.34521e-11
4.00025e-11
3.30353e-09
-5.98168e-11
-0.000180957
8.42206e-11
2.34676e-11
8.64806e-10
3.61879e-07
5.7589e-11
-1.36877e-11
4.83994e-10
-7.87002e-10
1.03345e-10
-7.42508e-12
-2.70892e-10
1.99954e-11
2.5202e-11
-5.44985e-11
-2.48405e-06
-1.41748e-07
-1.49106e-11
-4.77237e-11
-7.55152e-12
-7.30773e-11
-5.31457e-11
-3.23891e-11
-3.64921e-11
7.19824e-09
0.000565413
1.44385e-10
-1.23855e-12
3.73998e-10
-5.23082e-11
-1.50002e-06
8.87433e-11
-1.24433e-11
7.74758e-09
-4.20172e-06
-7.8373e-11
9.64425e-13
1.71196e-11
2.45015e-06
9.57249e-11
-6.15165e-13
4.58421e-11
2.594e-10
-4.97658e-11
3.6332e-11
-1.29151e-06
2.86028e-11
-5.97657e-06
6.87367e-06
-1.95476e-11
1.99426e-05
-1.90209e-11
-2.42077e-07
-3.8327e-10
-2.84821e-11
-1.03881e-12
1.0317e-11
0.00119812
5.03591e-12
3.17543e-11
1.66702e-11
-9.14926e-11
2.42542e-10
-1.30156e-07
-0.000183296
1.37968e-06
1.68504e-11
4.17052e-11
8.52091e-09
-0.000303007
2.99999e-10
-8.84241e-12
9.15113e-05
1.17879e-11
8.20922e-11
1.65495e-11
6.65422e-09
1.9886e-09
-1.67037e-11
9.99913e-11
-7.89007e-11
-2.15699e-10
2.50888e-11
4.86288e-11
4.84481e-11
-3.14208e-09
8.40954e-05
0.000773663
-1.41201e-09
1.37661e-11
3.39071e-12
-7.67612e-08
-5.30242e-09
-8.08724e-12
7.15016e-11
-3.33939e-09
2.66333e-10
-3.89998e-11
-3.27208e-10
1.98369e-11
1.6624e-09
4.3239e-11
3.59488e-10
2.59342e-06
-5.71523e-05
8.53561e-13
-3.34788e-11
9.25023e-11
9.73874e-09
2.30442e-11
5.29516e-06
1.38949e-11
1.07555e-10
3.47191e-11
1.36046e-10
-1.40728e-11
4.45705e-11
-2.24822e-11
1.06165e-06
-0.000278176
1.5076e-10
-2.31569e-11
-3.03506e-11
-0.000143829
6.43653e-12
7.55106e-06
-6.1521e-12
-1.17694e-12
-0.000150625
1.86162e-11
2.05049e-11
3.47782e-06
2.23323e-05
5.15455e-09
8.30383e-11
1.85515e-10
3.48468e-11
6.46178e-11
-4.10036e-10
-1.03021e-10
-2.38085e-10
3.20069e-12
2.42911e-11
6.69527e-06
-5.96753e-09
2.69859e-11
1.25888e-11
-1.04092e-11
-4.02372e-10
6.89995e-06
6.11122e-13
1.23268e-05
-6.98516e-10
-8.99309e-12
-3.07246e-11
8.08658e-11
2.83335e-08
6.95063e-11
-0.000100197
-4.25878e-11
-8.63914e-07
-0.000262722
-1.45679e-11
-7.91498e-13
1.7651e-11
-2.12926e-12
1.80051e-11
4.13292e-11
4.17701e-11
-1.56058e-09
2.5438e-11
-1.05192e-07
-1.25693e-11
2.65901e-12
9.0403e-14
1.17289e-05
3.10207e-11
-1.95823e-12
-1.43538e-10
9.20348e-08
1.7474e-11
1.77163e-11
-5.42548e-11
8.62847e-12
-1.0294e-10
1.35957e-10
2.81377e-10
7.62185e-12
-4.64848e-12
1.87636e-07
3.53763e-11
-0.000118849
1.55424e-11
-0.000312669
0.00039478
6.51372e-12
2.64239e-10
8.81406e-10
-4.05175e-11
-2.88907e-10
2.93058e-09
5.69947e-10
3.21787e-11
3.4563e-11
-7.14338e-11
9.22138e-12
-5.53608e-13
-1.16181e-11
-2.37515e-10
5.31513e-07
-0.000219554
4.1226e-12
3.9198e-11
7.64211e-12
-1.45003e-10
8.51167e-12
-1.87446e-11
5.67811e-13
-2.75299e-11
2.01877e-12
3.38654e-11
3.33964e-06
5.64658e-13
-6.13776e-12
-5.33256e-11
1.24816e-11
-2.62746e-10
-5.10564e-09
2.27398e-11
1.93905e-10
1.51849e-05
-5.8047e-05
2.62704e-11
1.34873e-05
7.60242e-11
3.11499e-11
-3.49822e-05
-6.20281e-05
-8.30454e-11
-2.45968e-11
-9.16708e-11
1.29713e-06
-0.000131512
-1.41435e-10
-6.17813e-11
-1.32021e-12
-3.54632e-10
-0.000106156
5.25307e-05
-2.49212e-14
-1.51207e-11
1.50062e-11
-1.67196e-09
3.38743e-11
2.1844e-12
-3.50463e-11
-3.33194e-10
-4.80984e-11
1.90196e-11
-2.39873e-10
-5.5147e-11
5.34623e-11
-0.000133962
-9.70444e-12
1.66134e-10
-5.47935e-09
5.20421e-07
1.51017e-11
1.73862e-09
7.35966e-11
5.54469e-11
5.02455e-11
2.90784e-07
5.3077e-09
3.54711e-11
1.93752e-06
5.72605e-06
-1.01063e-10
-8.3562e-11
1.66547e-10
7.78881e-11
-8.47398e-11
-1.82112e-07
1.24889e-05
3.14818e-11
5.10073e-11
-3.50195e-10
-7.72766e-11
-9.14737e-06
3.00133e-11
3.32116e-11
2.78209e-11
-3.72402e-10
4.43997e-11
-2.82592e-11
4.85505e-11
-7.92801e-06
2.06715e-11
-0.000182748
-0.000167805
2.31624e-10
-2.41529e-11
1.32695e-10
1.89299e-10
2.57643e-10
-1.82708e-11
-4.9112e-08
-3.03303e-05
4.73285e-05
-5.82266e-11
0.000369456
8.61793e-12
-4.97215e-05
-2.79258e-10
3.7836e-09
9.58768e-11
1.27519e-09
5.23972e-10
-3.08146e-12
-1.18493e-10
5.01307e-06
-9.31755e-11
2.2485e-11
7.11015e-12
1.16148e-11
-7.93026e-06
1.00425e-10
5.47567e-08
-5.9848e-06
1.28494e-11
4.64767e-11
2.5254e-11
2.60513e-11
-1.4139e-11
-5.04282e-12
2.98994e-11
-4.40108e-11
2.65438e-06
1.5031e-10
-1.17979e-10
6.45514e-11
4.6656e-09
2.08815e-10
3.83017e-11
-5.64171e-11
4.67147e-11
3.30356e-11
1.5929e-11
8.56544e-12
2.16692e-11
5.20009e-06
-1.95591e-05
2.6502e-11
6.74208e-11
1.53145e-10
8.22096e-10
5.39554e-12
-5.84673e-11
-5.13793e-08
1.61673e-09
5.13434e-08
5.73169e-10
2.88243e-11
-1.23846e-10
2.44147e-11
1.25695e-11
3.88089e-11
-1.12756e-08
1.42441e-10
-0.000598441
4.66258e-11
-5.88063e-11
2.11137e-08
-1.01335e-10
-3.62228e-11
5.47195e-06
8.28893e-06
4.93362e-09
3.35976e-11
6.17567e-11
8.49168e-11
-6.84898e-10
7.65496e-06
-4.14148e-07
2.40741e-05
4.66461e-10
-6.43199e-08
-1.29203e-08
3.09861e-09
8.84958e-12
-1.36739e-07
6.69172e-09
9.18154e-09
-1.03745e-10
-8.59973e-11
-5.51709e-08
9.99158e-05
2.49724e-11
3.78397e-09
4.18326e-09
1.66045e-11
-1.7057e-11
2.93122e-11
2.08061e-11
-5.35632e-11
8.86582e-11
1.76958e-11
-2.99736e-11
-9.95553e-11
4.61617e-07
-0.00023744
7.60512e-12
-9.20965e-11
2.19755e-11
9.48406e-06
2.03335e-07
9.04469e-11
-0.00014947
-2.00485e-10
2.65294e-05
-3.70083e-10
1.76054e-09
-7.29158e-11
-7.1076e-10
-2.65088e-10
1.04254e-10
2.68288e-05
-1.27147e-10
-5.83611e-12
-1.16599e-06
-1.10337e-09
-6.81953e-11
2.04839e-11
-2.34081e-11
-4.12893e-10
1.51503e-05
5.36633e-07
2.8049e-10
-2.58868e-11
-8.52554e-08
-4.82644e-05
-1.11832e-11
2.44812e-11
1.30393e-10
-1.87798e-10
2.40873e-11
-8.68851e-05
6.56539e-06
2.83729e-06
1.19114e-11
-2.32818e-11
-1.38287e-07
-3.28322e-11
-2.07712e-09
-7.09269e-12
0.00170072
1.04525e-10
3.36647e-11
-4.03143e-09
-1.60996e-10
-1.95259e-08
2.59317e-11
5.17437e-10
-6.30523e-11
6.05584e-10
4.36082e-11
1.03296e-10
-1.70295e-10
3.42376e-10
-1.86674e-11
-8.44292e-11
1.63601e-11
-1.6774e-12
-4.54219e-11
2.02575e-10
-6.07144e-11
6.43138e-11
4.6642e-10
1.71501e-07
5.97915e-10
3.47347e-10
2.65718e-08
1.71727e-11
3.46324e-05
1.11809e-11
9.14353e-11
2.97622e-11
2.55434e-11
7.11358e-11
-5.58485e-11
-6.45984e-05
-0.000313418
3.30967e-09
1.03175e-10
7.15615e-12
-5.54972e-05
0.00029461
-9.03684e-06
2.89334e-11
2.9734e-11
-4.83052e-11
-4.53191e-11
1.32894e-09
7.53804e-11
-1.03567e-10
-2.28789e-11
2.91351e-09
2.44306e-05
-5.32871e-10
-1.60387e-10
-5.23873e-11
1.89716e-11
0.000814739
9.2541e-07
2.04861e-10
-3.95218e-09
-1.36002e-05
-2.23204e-08
-8.49846e-06
6.89339e-11
2.01393e-10
8.75362e-12
3.23504e-09
1.84709e-10
-2.82121e-09
1.45192e-05
4.39638e-10
2.42535e-08
9.90985e-11
-4.73853e-12
3.6514e-11
-5.69873e-11
3.86525e-06
6.61396e-11
2.8831e-11
-0.00015253
1.8677e-10
-3.9334e-08
1.06769e-10
5.89648e-13
0.000525359
5.03003e-11
-1.03088e-10
-0.00032973
1.90557e-10
1.06277e-11
1.84903e-11
2.28312e-11
7.0514e-06
1.57751e-11
-1.36423e-10
-1.74079e-07
4.11258e-11
1.77238e-11
-5.92836e-11
-1.0501e-10
1.03962e-09
-7.7454e-11
-1.19608e-09
2.09e-09
-2.53841e-10
5.97093e-11
7.13373e-11
-4.08444e-11
-1.35161e-05
-3.92142e-10
8.25264e-09
1.9335e-12
-9.82982e-05
4.33281e-11
-6.97695e-12
5.44141e-09
-3.76133e-11
-1.79571e-09
1.63413e-12
-1.23758e-05
-2.17899e-10
-1.69177e-12
-3.79037e-10
1.73212e-10
1.97945e-11
2.3133e-11
-2.38279e-08
-8.96169e-11
9.2352e-07
-3.34984e-10
-1.62551e-11
-2.38912e-07
1.59063e-05
1.78327e-05
1.07994e-08
7.32497e-08
1.29932e-10
0.000349299
-9.01093e-11
-2.79456e-13
8.92061e-09
7.3991e-11
-5.09305e-12
-2.94932e-08
2.54604e-11
-6.04646e-11
8.52417e-12
-2.51761e-11
4.9879e-11
-5.62124e-08
1.42972e-10
-0.000367017
7.2132e-11
1.66e-11
5.70157e-09
5.77509e-10
-1.72101e-11
9.58764e-12
1.46171e-11
-5.7419e-11
5.34701e-07
1.78846e-11
5.22403e-11
3.08328e-11
1.09017e-08
1.81533e-09
2.60022e-11
-3.67872e-06
7.59371e-12
7.68429e-10
1.64386e-11
-2.85325e-09
4.08206e-11
1.80079e-11
-1.10086e-10
2.9679e-07
-3.77935e-07
8.35094e-12
2.99313e-11
9.30624e-10
4.20426e-11
-3.17191e-10
9.3812e-06
4.43034e-10
-2.18852e-10
-0.000164489
-3.49441e-10
-8.87761e-12
-1.81154e-10
-1.70326e-05
-3.83053e-11
3.56759e-09
-1.2926e-11
-1.31223e-10
-3.15321e-11
-2.5608e-10
-7.49647e-11
2.5187e-11
-2.8205e-10
-2.35457e-10
4.0211e-11
5.30814e-09
0.00110189
3.85556e-11
5.65753e-11
8.30556e-11
0.000155019
-1.13228e-10
8.40555e-12
0.00100148
7.62129e-09
3.43042e-11
-1.40865e-10
8.19633e-12
-1.41118e-09
-1.59678e-11
1.03143e-05
2.67932e-09
2.57147e-09
4.62898e-06
-1.5398e-11
2.02469e-11
1.83891e-05
-9.80152e-05
2.22054e-10
6.65352e-10
2.99988e-11
8.12396e-12
5.62189e-11
0.000554944
2.45969e-11
3.35368e-11
-6.20733e-11
1.32187e-06
-1.89707e-10
1.51439e-06
1.00241e-12
8.63643e-11
4.64376e-11
-6.79147e-05
2.53772e-11
1.09615e-09
-1.68117e-11
2.75129e-11
-4.93167e-11
-1.22167e-11
2.60977e-11
6.80871e-11
-2.66459e-11
-7.23527e-06
3.99892e-10
4.91922e-12
4.59443e-12
-2.88221e-12
1.49896e-08
-1.79772e-11
-4.22592e-11
4.12868e-10
1.56553e-10
-1.49155e-10
-6.3536e-11
2.38011e-09
-1.42359e-05
-3.04855e-12
1.3807e-11
-0.000186899
-1.22388e-07
9.56987e-12
3.04324e-12
1.64756e-10
6.206e-12
8.79959e-05
-1.32357e-11
1.61135e-09
1.30911e-09
-1.19987e-10
1.24747e-10
-5.83453e-11
1.52859e-07
1.0571e-10
0.000154683
2.02497e-11
-5.91066e-11
1.2433e-10
4.48562e-05
1.22065e-12
-1.09264e-10
-3.45299e-09
0.000922635
2.33196e-07
8.17484e-10
1.7216e-13
-0.000192214
-2.20283e-12
1.18246e-10
-4.66712e-11
2.09546e-11
-1.87674e-11
-1.66847e-10
3.13312e-09
-2.18197e-09
2.04223e-11
-4.65348e-11
-5.61981e-09
-7.34793e-12
3.38031e-14
-5.03717e-05
2.09148e-08
6.8716e-10
4.05689e-10
-4.40012e-07
-2.69534e-06
9.99664e-06
-5.65827e-10
6.24679e-07
-4.60184e-10
6.91187e-11
-1.7927e-05
-1.27185e-10
-9.33339e-07
4.78358e-11
7.1582e-11
1.0256e-10
6.49185e-12
6.47287e-11
3.64658e-11
1.86212e-05
2.23719e-07
0.000893197
-2.01291e-05
2.33868e-11
1.23767e-10
-8.32778e-12
-4.02484e-12
2.63475e-10
6.31502e-12
-1.79537e-10
0.000530246
6.3198e-09
2.04827e-11
-1.77566e-10
7.22053e-08
-0.000318918
4.65239e-09
-1.47813e-12
1.66794e-11
-4.0245e-10
3.29108e-11
-2.77439e-10
1.33752e-06
6.89409e-12
-5.0117e-11
3.1446e-10
1.85686e-06
-1.10716e-10
1.47509e-07
1.30128e-05
3.13842e-11
-1.69087e-10
5.24905e-11
-4.54632e-10
-5.54423e-10
-6.86179e-09
6.59931e-06
1.31508e-11
1.21771e-11
-6.85392e-11
3.89394e-06
-5.27007e-10
-4.36346e-06
0.00050459
2.11142e-10
-1.06241e-09
-7.28212e-09
-2.80283e-10
-2.26887e-12
2.95292e-11
-3.3342e-12
-1.12367e-10
-1.03997e-09
9.87797e-12
-5.84828e-08
3.97514e-11
-7.50915e-10
1.7843e-11
8.59428e-12
-0.000425433
1.24021e-05
1.75821e-11
2.09983e-06
1.42315e-11
2.14374e-11
-1.48148e-09
5.4967e-06
-1.30345e-08
-1.00752e-10
-7.35216e-11
4.86605e-11
9.64888e-12
3.97536e-06
-4.33516e-12
-7.55697e-11
-3.87587e-09
8.36595e-07
1.72224e-11
6.53286e-11
-1.4771e-11
-9.75924e-11
9.84357e-06
3.46779e-06
-3.96322e-12
3.45541e-10
0.000967843
4.98774e-10
-8.27433e-08
-2.41344e-11
5.75628e-11
-3.88457e-10
1.35496e-10
-7.99208e-12
3.2378e-11
-3.12837e-11
1.64339e-09
0.000166117
2.226e-11
-1.93517e-12
2.35015e-06
9.15356e-11
-2.51054e-10
7.41025e-09
-4.76459e-11
-1.11949e-10
1.45812e-11
8.49347e-06
9.77226e-11
-6.73291e-11
1.21258e-11
0.000540742
0.000665141
9.57316e-12
4.25039e-12
1.0697e-10
-2.60913e-11
2.53206e-11
8.52494e-12
-1.46934e-08
3.51625e-12
-2.00829e-10
-7.70666e-09
-3.45753e-11
-2.5719e-09
7.34462e-11
-8.8102e-11
-4.36359e-05
1.37469e-05
-3.55489e-11
-5.49008e-08
1.94547e-11
9.55523e-12
-3.34553e-09
3.20737e-11
7.34741e-11
4.22243e-11
1.39691e-10
1.72168e-11
1.73663e-11
-2.98646e-10
4.47553e-11
1.66327e-08
8.02716e-07
-6.50311e-09
-0.000191735
-2.60242e-10
5.59938e-06
2.44743e-11
3.50436e-11
8.66101e-11
-2.11695e-10
5.32169e-12
-3.86672e-11
-9.82114e-05
7.10868e-11
5.24914e-11
7.76671e-12
2.35632e-11
0.000360669
1.45271e-06
-1.92682e-10
-3.34947e-11
5.69982e-09
-2.51283e-10
6.5793e-12
-0.000180196
0.0002727
8.33513e-11
2.85073e-10
9.17992e-12
0.000455197
-1.69482e-10
1.27297e-11
0.000439092
3.88684e-06
6.31653e-12
-2.5292e-06
-1.25924e-10
-6.30734e-12
2.73032e-11
1.23569e-11
8.07145e-06
2.88084e-11
1.01354e-10
-0.000217304
4.15319e-11
-1.45362e-10
2.67571e-11
-5.43455e-11
-8.46542e-10
-1.42725e-08
-4.11543e-11
-2.15889e-11
7.34763e-09
-2.73658e-10
1.75199e-11
1.77578e-10
1.18928e-11
-2.66455e-12
1.88008e-11
2.7688e-10
-5.25663e-12
4.3446e-10
2.06092e-10
0.000712991
-7.79808e-09
1.50964e-09
1.5593e-08
-1.88194e-10
2.22748e-09
-1.09566e-11
9.40465e-11
7.99042e-10
2.14691e-11
-3.60074e-10
1.89477e-10
-6.21955e-12
1.94711e-10
-1.46679e-05
-6.55984e-12
3.19399e-11
1.94659e-10
-6.78166e-11
8.88972e-12
4.09135e-11
-1.61964e-10
-1.21912e-09
-5.96726e-06
3.51355e-11
0.00127622
1.64297e-10
2.77041e-11
2.2434e-09
7.28866e-11
3.3185e-10
3.10667e-11
3.3176e-12
-0.000366288
-4.78101e-09
0.00027075
2.6643e-06
9.83409e-06
2.65824e-09
3.09205e-06
1.01189e-10
-1.3539e-09
-6.6247e-11
9.97775e-12
1.32798e-11
-1.12543e-09
1.97269e-11
8.92185e-06
-1.69028e-10
4.60474e-11
2.27836e-10
-2.31591e-11
9.69939e-10
3.98233e-11
-1.42082e-09
-1.1149e-09
1.01065e-10
0.000736842
1.20949e-11
1.28066e-05
-1.05324e-10
-1.0912e-10
1.24453e-11
-1.91305e-11
-3.10647e-12
3.52183e-10
-1.08947e-10
-5.01623e-11
2.39731e-11
-4.00045e-10
0.00130808
-9.87132e-05
2.97751e-10
1.96977e-12
7.00843e-10
1.06003e-11
3.15994e-11
2.82209e-06
6.87076e-12
1.05914e-05
0.000562446
2.43606e-10
2.60985e-11
3.03608e-07
4.59103e-10
-1.96904e-09
2.2445e-07
-1.96442e-11
-1.53254e-11
4.10625e-09
1.12598e-10
-5.32316e-09
0.000740863
3.51837e-10
2.00459e-09
-3.61172e-10
-1.50419e-12
1.72038e-11
-1.06673e-10
3.82586e-11
-1.37277e-11
-7.14694e-10
1.02542e-11
8.13186e-09
-2.2556e-10
-7.31188e-09
-1.29438e-10
-4.25506e-09
1.22946e-11
-7.34753e-11
-9.26017e-11
0.000130557
5.90985e-11
-3.3093e-11
2.72368e-06
-7.35071e-05
-6.0912e-11
1.24468e-05
2.75379e-06
7.29884e-11
8.07248e-11
-5.78304e-11
3.28037e-11
4.36381e-06
1.64309e-11
3.99914e-09
3.0517e-11
-3.08932e-08
-1.94299e-08
-5.56347e-09
0.000135445
-2.38085e-10
1.35902e-10
0.000218331
-1.01968e-06
-7.48707e-10
1.4093e-10
-3.40772e-11
2.32413e-08
-2.63817e-10
-1.7531e-10
6.86068e-09
-1.06328e-10
2.65899e-09
1.3702e-11
1.57781e-10
-2.10738e-10
-4.78857e-10
2.03397e-10
-2.58393e-09
1.17289e-09
-5.95379e-11
1.99634e-11
-7.47563e-11
-2.91093e-05
-7.75181e-11
1.0379e-10
-2.0037e-11
3.86424e-06
-3.39496e-09
2.21322e-09
5.12643e-11
6.20259e-11
-2.2686e-09
9.14162e-11
1.62622e-11
3.29309e-11
-4.32403e-11
1.1739e-11
0.000519662
6.1085e-12
2.97936e-10
-1.38347e-05
1.43881e-07
-5.04715e-11
-9.82056e-11
-4.45645e-12
6.30533e-11
-9.80816e-11
4.51075e-11
0.000274903
3.96704e-12
3.18954e-11
-3.43118e-10
-6.42793e-10
8.07943e-11
3.29449e-10
-1.46171e-08
8.6341e-11
8.41161e-12
1.54114e-06
1.85322e-10
5.56228e-11
1.39609e-05
-1.00869e-11
-4.6059e-11
3.08158e-11
1.74228e-11
3.79892e-11
7.78311e-12
3.3636e-06
-1.23101e-06
0.000199184
-2.85731e-10
-8.23885e-06
4.28654e-10
1.90015e-11
-0.000113051
-5.52636e-11
-1.92872e-07
-2.6384e-10
5.84667e-09
1.953e-12
-6.88597e-08
-9.23207e-05
-6.51424e-11
1.46288e-11
-1.11587e-10
3.56086e-10
-7.23227e-11
8.56827e-08
2.66741e-11
-5.00149e-11
1.13209e-10
-2.03027e-10
-2.05657e-11
3.90074e-09
1.25184e-11
3.96837e-11
-3.40409e-12
9.31289e-12
3.50455e-11
3.76728e-09
8.31398e-12
0.000260126
3.46699e-09
-2.9485e-10
-2.47489e-10
3.64555e-11
-8.15497e-11
9.72812e-11
-1.55331e-11
-8.87252e-11
-1.36646e-05
2.09921e-11
2.72188e-08
9.21319e-11
5.23231e-11
-1.57244e-10
-8.27159e-12
-2.27189e-05
1.28539e-11
-4.42434e-11
1.4373e-11
-3.17545e-05
2.31422e-11
1.79402e-10
2.29811e-11
1.05318e-09
3.86619e-09
-6.18182e-11
-2.82631e-11
3.01464e-10
-3.16062e-11
-5.32086e-11
7.64037e-11
3.59844e-10
6.49869e-11
2.25828e-11
-3.51568e-11
4.02843e-11
3.77862e-09
-0.00052227
3.84882e-11
-3.06139e-12