/*--------------------------------*- C++ -*----------------------------------*\
| =========                 |                                                 |
| \\      /  F ield         | OpenFOAM: The Open Source CFD Toolbox           |
|  \\    /   O peration     | Version:  v2012                                 |
|   \\  /    A nd           | Website:  www.openfoam.com                      |
|    \\/     M anipulation  |                                                 |
\*---------------------------------------------------------------------------*/
FoamFile
{
    version     2.0;
    format      ascii;
    class       volScalarField;
    location    "150";
    object      k_0;
}
// * * * * * * * * * * * * * * * * * * * * * * * * * * * * * * * * * * * * * //

dimensions      [0 2 -2 0 0 0 0];


internalField   nonuniform List<scalar> 
18166
(
0.000552497
8.18154e-05
0.0012467
0.000118214
0.00112078
0.00010129
7.59185e-05
7.55148e-05
8.69375e-05
0.000421821
8.20446e-05
0.000103167
9.09788e-05
8.92197e-05
8.8623e-05
8.09371e-05
0.0293741
6.31826e-05
9.03044e-05
0.000609926
8.93327e-05
8.49147e-05
9.0113e-05
8.51498e-05
4.85557e-05
0.000101819
7.56619e-05
0.00462848
8.54711e-05
7.91236e-05
4.40109e-05
0.00176252
7.68655e-05
5.96005e-05
0.0016387
8.82423e-05
6.43163e-05
5.03658e-05
7.6007e-05
0.000103107
8.6712e-05
9.07012e-05
5.57906e-05
9.03427e-05
0.00233851
6.47886e-05
8.39745e-05
0.000414859
4.43661e-05
0.000335486
0.000254197
0.0294129
4.42973e-05
7.84567e-05
6.47483e-05
8.57854e-05
0.00705294
8.67785e-05
0.00124311
8.60375e-05
6.11217e-05
6.94099e-05
6.16966e-05
8.87169e-05
7.95232e-05
7.02019e-05
7.39543e-05
8.08175e-05
0.0157013
5.94891e-05
9.08382e-05
0.000116266
8.78438e-05
8.67823e-05
5.94307e-05
7.56072e-05
0.0407856
0.0104284
0.00459432
7.40578e-05
8.94082e-05
6.87557e-05
0.00150459
5.84282e-05
6.65811e-05
6.13469e-05
5.64339e-05
8.8817e-05
7.94366e-05
0.0371844
5.82656e-05
6.02042e-05
9.0796e-05
7.9624e-05
8.67215e-05
8.75624e-05
0.00157546
8.63668e-05
0.00224927
0.0415375
7.10634e-05
6.27216e-05
7.88668e-05
0.00294702
5.89083e-05
0.00507527
5.9634e-05
7.49291e-05
4.44617e-05
8.54902e-05
0.0240898
0.00660567
0.0258396
0.0153371
8.55743e-05
0.003469
0.0115435
8.31043e-05
8.51468e-05
5.18723e-05
8.16464e-05
5.17539e-05
8.30063e-05
6.80804e-05
8.11963e-05
8.7576e-05
8.76138e-05
6.31931e-05
6.06614e-05
8.83736e-05
7.58131e-05
8.89665e-05
6.65629e-05
7.09203e-05
7.6702e-05
0.00244728
7.37819e-05
0.00425219
6.07162e-05
0.000939717
7.92095e-05
8.1413e-05
8.86958e-05
0.00187281
4.43316e-05
0.00326497
0.00131726
6.431e-05
6.18152e-05
0.0415072
6.64351e-05
8.99157e-05
0.000773528
0.0279854
0.000108045
6.20212e-05
6.83871e-05
7.91312e-05
0.000119752
8.56507e-05
7.46645e-05
6.19868e-05
0.0232166
5.98213e-05
8.92031e-05
6.70488e-05
8.43297e-05
7.55389e-05
0.0282914
6.83564e-05
6.60065e-05
0.00561796
7.42142e-05
0.00100546
5.8661e-05
0.00290513
6.13336e-05
4.70393e-05
8.55437e-05
8.91421e-05
6.80519e-05
6.02998e-05
3.34076e-05
0.0271588
8.3778e-05
5.94097e-05
7.50658e-05
8.94156e-05
8.37134e-05
6.27323e-05
7.9061e-05
8.39316e-05
0.0302948
8.58624e-05
6.18049e-05
0.00466721
0.00374225
7.63193e-05
7.94408e-05
7.4157e-05
6.77865e-05
0.00327348
0.0286088
8.5687e-05
8.64366e-05
0.000208232
8.11905e-05
0.000123561
0.000102853
5.71834e-05
7.40399e-05
0.000159373
8.58225e-05
5.7166e-05
9.00118e-05
7.91493e-05
0.000274367
7.82676e-05
7.87987e-05
7.69885e-05
6.85846e-05
0.00726036
8.97427e-05
7.02978e-05
8.56131e-05
0.00392951
6.93743e-05
7.54271e-05
4.53457e-05
6.96502e-05
7.00575e-05
5.23585e-05
0.000191456
5.2406e-05
0.0269196
0.00745209
0.00744132
6.04405e-05
6.68713e-05
0.000100134
7.04608e-05
8.92832e-05
6.99351e-05
0.00376674
7.03721e-05
5.16021e-05
0.000549445
5.17036e-05
7.42733e-05
0.000101945
0.00713526
7.67734e-05
7.51208e-05
9.93418e-05
8.13963e-05
8.41001e-05
7.89794e-05
8.75221e-05
7.49193e-05
8.7592e-05
8.57121e-05
8.54728e-05
8.9614e-05
5.76753e-05
8.45854e-05
7.81276e-05
0.000602291
7.54047e-05
5.93022e-05
7.89321e-05
7.44569e-05
8.66759e-05
8.41522e-05
0.00287893
6.52876e-05
7.31777e-05
0.000351073
6.66553e-05
8.166e-05
0.00137255
7.55625e-05
5.6441e-05
9.47139e-05
8.62749e-05
8.83513e-05
6.33798e-05
0.000123611
9.84833e-05
7.33573e-05
7.94685e-05
4.45484e-05
6.01121e-05
8.84527e-05
8.40143e-05
5.19123e-05
7.84752e-05
4.92361e-05
0.00668984
5.20603e-05
0.000772702
8.82761e-05
7.68013e-05
0.0178684
7.58341e-05
7.94676e-05
6.50844e-05
9.30316e-05
7.53245e-05
6.25986e-05
7.93295e-05
8.13863e-05
8.12241e-05
8.55144e-05
7.43693e-05
7.53829e-05
6.0391e-05
5.97004e-05
0.000412148
0.000117017
7.43405e-05
0.00748896
8.41138e-05
0.0284992
8.39562e-05
6.44743e-05
5.98341e-05
8.14244e-05
0.00112123
8.07939e-05
0.000101964
5.98785e-05
5.74474e-05
7.20607e-05
7.87179e-05
9.43741e-05
8.30133e-05
0.00011077
8.57238e-05
6.87167e-05
7.71279e-05
7.6159e-05
8.54114e-05
0.000355873
8.10013e-05
8.7784e-05
8.57081e-05
0.00443435
8.50566e-05
6.81247e-05
5.90669e-05
8.35996e-05
5.54287e-05
0.000100578
8.57305e-05
0.0016641
9.02588e-05
7.48554e-05
6.87246e-05
0.000121114
9.30909e-05
6.68362e-05
7.62191e-05
5.20625e-05
8.77823e-05
7.9033e-05
5.20667e-05
6.4387e-05
8.26061e-05
7.33157e-05
8.22712e-05
6.85986e-05
7.03343e-05
7.56191e-05
0.0140348
7.7088e-05
6.60657e-05
6.33384e-05
6.46549e-05
6.9726e-05
8.53245e-05
5.1309e-05
8.48793e-05
0.000104408
0.00841041
5.14286e-05
8.60941e-05
8.85326e-05
0.000104346
8.93042e-05
0.00480763
5.11679e-05
0.000113151
8.66747e-05
8.71409e-05
0.000747378
0.000118655
7.96902e-05
5.09982e-05
8.22322e-05
0.000113207
5.08345e-05
5.06921e-05
7.89073e-05
5.50762e-05
8.70071e-05
7.36694e-05
6.35426e-05
8.79811e-05
0.00521019
5.50926e-05
6.30021e-05
0.00117426
6.65188e-05
5.2904e-05
4.43013e-05
0.0169318
8.7731e-05
8.67644e-05
6.61172e-05
8.38283e-05
7.23252e-05
4.43475e-05
0.000103461
9.78729e-05
6.74188e-05
7.9845e-05
8.49726e-05
4.41726e-05
4.42209e-05
6.99597e-05
8.73597e-05
4.95114e-05
7.93052e-05
6.62753e-05
6.84343e-05
7.69861e-05
7.34811e-05
0.000121493
0.027424
0.000140466
0.0253056
0.00207014
9.28641e-05
9.46495e-05
7.84709e-05
6.61859e-05
0.00536466
8.11579e-05
8.86606e-05
4.55322e-05
6.97906e-05
7.53124e-05
8.47108e-05
4.93822e-05
4.76143e-05
8.27639e-05
6.42767e-05
7.66665e-05
7.72813e-05
7.04235e-05
4.89989e-05
5.57719e-05
6.41847e-05
9.01124e-05
8.87438e-05
6.44681e-05
8.41895e-05
8.15125e-05
7.20451e-05
7.95951e-05
6.31098e-05
8.22256e-05
8.25979e-05
6.15586e-05
0.00044775
8.34194e-05
6.72588e-05
5.25797e-05
6.69167e-05
0.0191215
8.0899e-05
5.78363e-05
0.00549023
7.51419e-05
7.58433e-05
6.64645e-05
0.000119548
5.32179e-05
7.96758e-05
6.88359e-05
7.34581e-05
7.08951e-05
7.93577e-05
9.58819e-05
0.00631167
8.08045e-05
7.38958e-05
9.08938e-05
8.70897e-05
8.50706e-05
8.88324e-05
8.81366e-05
8.95197e-05
0.00655693
6.68534e-05
8.81305e-05
7.0883e-05
7.33692e-05
6.70503e-05
7.29991e-05
7.86397e-05
8.15231e-05
7.3912e-05
7.8519e-05
0.000148112
0.000544586
0.000253678
8.58905e-05
0.0142837
8.75749e-05
7.86959e-05
0.000826777
6.66542e-05
9.5664e-05
0.0276168
6.35669e-05
8.79491e-05
8.19285e-05
5.01766e-05
7.45918e-05
0.000113177
7.39502e-05
0.0307852
0.000113171
6.39683e-05
0.0131109
5.07396e-05
6.15467e-05
7.41397e-05
8.03222e-05
6.68467e-05
0.000105663
6.67251e-05
0.000387259
8.82665e-05
9.08188e-05
5.9675e-05
5.10592e-05
9.78881e-05
6.67362e-05
8.85082e-05
6.73397e-05
7.24033e-05
8.59534e-05
4.44398e-05
5.10905e-05
0.000104185
0.000110876
7.3238e-05
0.00342413
8.17486e-05
8.83134e-05
8.49449e-05
5.87576e-05
7.49481e-05
0.0220187
8.05576e-05
6.30444e-05
5.07462e-05
8.70704e-05
6.76203e-05
5.07775e-05
2.06355e-05
7.56274e-05
0.00551278
0.00118094
9.016e-05
7.85093e-05
8.96267e-05
7.3567e-05
7.19523e-05
0.00143181
8.20863e-05
6.72153e-05
0.000108871
5.54068e-05
8.04524e-05
6.84997e-05
9.12172e-05
8.55881e-05
0.0214371
6.19874e-05
7.68164e-05
8.67741e-05
8.88739e-05
9.29172e-05
9.14413e-05
0.000136417
9.11988e-05
0.00519818
6.53173e-05
8.48403e-05
8.20387e-05
8.00653e-05
8.35901e-05
5.32387e-05
6.15443e-05
0.00590082
0.000105685
6.95758e-05
6.1931e-05
6.09635e-05
7.82121e-05
7.36979e-05
6.34506e-05
7.38037e-05
9.21772e-05
6.95048e-05
6.6633e-05
1.65098e-05
9.08477e-05
6.17913e-05
0.000831766
0.0190815
7.49908e-05
6.13392e-05
8.05204e-05
7.51354e-05
0.0439603
6.15585e-05
7.93386e-05
7.83779e-05
7.18191e-05
0.0439746
9.41733e-05
8.68492e-05
6.06765e-05
6.60809e-05
8.1545e-05
6.63754e-05
7.8378e-05
4.441e-05
0.000115106
8.67361e-05
8.64146e-05
6.8661e-05
0.00493473
6.82084e-05
6.9923e-05
4.44489e-05
9.00323e-05
6.02196e-05
6.07565e-05
0.000379797
6.59084e-05
0.0242796
8.97511e-05
8.57128e-05
6.50884e-05
6.35818e-05
6.68298e-05
8.79432e-05
8.98859e-05
8.27997e-05
4.872e-05
7.58609e-05
6.8421e-05
0.000400389
7.98621e-05
0.000124385
6.62085e-05
7.85761e-05
8.05465e-05
0.000775247
4.21632e-05
0.00267221
7.14134e-05
7.55348e-05
9.03624e-05
6.06953e-05
5.95498e-05
6.25157e-05
6.5045e-05
0.000965327
0.000100683
0.00152751
0.000138296
0.00374245
0.000179622
7.45087e-05
8.46061e-05
7.36996e-05
6.21376e-05
9.51982e-05
0.00325814
0.000112931
9.18721e-05
8.6779e-05
8.68048e-05
7.92111e-05
8.884e-05
6.5483e-05
7.46838e-05
0.0333379
5.9612e-05
7.38775e-05
7.37468e-05
7.9287e-05
6.01624e-05
8.24234e-05
0.0336858
0.00179629
8.7631e-05
7.57302e-05
0.00462549
8.68966e-05
8.79436e-05
8.16905e-05
8.7921e-05
8.6982e-05
9.34998e-05
8.51698e-05
0.00237379
8.09142e-05
6.41112e-05
6.29316e-05
0.000105755
9.11419e-05
8.96949e-05
0.0200496
7.59791e-05
6.17727e-05
9.11947e-05
0.000108834
6.06235e-05
7.44958e-05
8.73853e-05
0.000554244
8.20592e-05
6.85587e-05
0.0352371
0.00210063
5.29223e-05
7.22401e-05
5.83758e-05
7.83805e-05
8.70737e-05
6.5803e-05
8.18747e-05
8.54075e-05
7.85996e-05
8.06412e-05
6.66247e-05
8.02484e-05
0.00949382
8.88289e-05
0.00529194
5.94472e-05
7.44115e-05
8.95503e-05
6.41062e-05
6.78641e-05
9.15981e-05
9.78617e-05
8.86437e-05
6.80641e-05
7.39089e-05
8.08368e-05
0.010564
8.09707e-05
7.83014e-05
7.03953e-05
7.09322e-05
4.43259e-05
6.605e-05
0.000104216
0.00271989
0.000386861
9.28436e-05
0.000109351
0.025979
7.42734e-05
0.000148963
9.8686e-05
0.00274594
8.83221e-05
8.02979e-05
7.02968e-05
8.1007e-05
0.00255386
7.45227e-05
5.64796e-05
8.48704e-05
7.95446e-05
0.0117769
7.67451e-05
8.08732e-05
7.41799e-05
6.82803e-05
8.00762e-05
8.54033e-05
8.84236e-05
6.14516e-05
0.000865436
6.79925e-05
7.83526e-05
6.56349e-05
6.12649e-05
7.37227e-05
0.000111585
8.37805e-05
6.21685e-05
5.94323e-05
5.88687e-05
0.00479397
4.45031e-05
0.00418696
5.26766e-05
7.06608e-05
6.93587e-05
8.24583e-05
7.31906e-05
7.78434e-05
7.14853e-05
6.13467e-05
0.0118137
7.94454e-05
8.32707e-05
7.53853e-05
7.89212e-05
7.41421e-05
5.93511e-05
8.25976e-05
6.67195e-05
5.94318e-05
6.36542e-05
8.80901e-05
7.52236e-05
5.787e-05
8.68742e-05
0.00406373
8.84011e-05
0.00194972
4.75095e-05
7.06766e-05
6.43726e-05
7.2807e-05
8.31215e-05
6.6078e-05
7.50314e-05
7.2182e-05
7.81948e-05
4.53744e-05
8.7462e-05
0.000109119
7.00272e-05
4.97303e-05
0.00577614
7.82926e-05
8.85701e-05
4.92552e-05
7.04748e-05
0.00642676
8.74053e-05
0.00562546
6.35474e-05
7.8168e-05
9.81077e-05
0.0238152
3.5167e-05
6.87082e-05
8.97364e-05
7.90322e-05
5.00005e-05
6.91176e-05
6.57866e-05
0.000109168
0.025988
5.87444e-05
8.76583e-05
8.00346e-05
0.0175856
7.50312e-05
0.0268968
6.75721e-05
0.0211164
0.000148359
8.10332e-05
8.35927e-05
0.00574515
9.4007e-05
0.000108642
7.93513e-05
7.71281e-05
7.89069e-05
8.39876e-05
6.06327e-05
6.17594e-05
0.000786199
7.80588e-05
6.93191e-05
7.90431e-05
8.49494e-05
4.91828e-05
7.74358e-05
0.0149471
7.0934e-05
0.00315589
0.0404482
8.0817e-05
0.000617347
8.76097e-05
6.40293e-05
0.000102036
0.000108195
0.000193738
9.59237e-05
0.00891811
7.25898e-05
9.96914e-05
6.57838e-05
0.023798
6.96206e-05
8.9962e-05
6.07015e-05
0.00126913
7.58353e-05
7.60984e-05
7.45298e-05
5.97862e-05
8.16768e-05
8.60275e-05
9.55529e-05
6.28366e-05
0.0212198
7.78101e-05
0.00107729
0.00649791
9.68543e-05
0.00105716
0.00260851
7.5766e-05
0.0236497
7.82597e-05
8.10244e-05
5.87777e-05
8.34457e-05
8.01828e-05
0.000109427
6.17865e-05
0.00113714
8.82934e-05
0.00298827
9.20104e-05
5.46733e-05
0.000103755
6.43082e-05
8.1867e-05
0.00196426
8.74796e-05
6.83948e-05
0.0049992
0.00173391
0.00325556
0.00201149
5.5912e-05
0.00781926
5.52036e-05
5.98493e-05
8.8228e-05
8.84446e-05
0.00166418
7.80662e-05
7.56666e-05
8.53897e-05
8.74029e-05
5.9156e-05
6.24166e-05
8.98902e-05
7.87543e-05
0.0066614
8.29539e-05
7.80754e-05
0.00476032
7.411e-05
0.00128343
6.14705e-05
8.08135e-05
7.22462e-05
8.83724e-05
0.0428403
0.000131518
0.0307481
8.91929e-05
6.39216e-05
7.42187e-05
0.0045426
7.33804e-05
6.54719e-05
8.11912e-05
8.0998e-05
8.53798e-05
0.0047128
6.75221e-05
4.44547e-05
6.41144e-05
6.2951e-05
6.18919e-05
6.89673e-05
7.43141e-05
5.02051e-05
9.77456e-07
6.61657e-05
6.65266e-05
0.015196
6.90155e-05
7.76931e-05
5.02523e-05
8.49172e-05
5.31045e-05
7.35731e-05
0.000107639
8.45935e-05
7.19418e-05
5.86129e-05
0.00141877
5.3108e-05
7.20835e-05
6.3187e-05
5.09509e-05
8.90808e-05
0.0237005
0.00326497
5.96167e-05
8.42026e-05
8.42709e-05
8.93042e-05
8.55034e-05
0.00122261
3.63745e-05
0.00340833
7.61717e-05
8.66983e-05
6.94839e-05
6.96157e-05
0.0131026
6.66171e-05
0.000186244
6.37463e-05
0.0216495
5.47688e-05
1.58174e-05
5.82858e-05
6.01222e-05
6.48018e-05
4.43445e-05
5.47483e-05
8.79204e-05
7.90634e-05
0.00558177
6.07718e-05
0.00633909
5.8484e-05
7.76306e-05
8.66345e-05
0.000117387
0.0021701
8.56007e-05
0.000101093
8.15995e-05
7.86828e-05
8.4987e-05
8.71937e-05
7.92784e-05
8.77847e-05
7.1657e-05
9.22055e-05
0.00365228
0.00476524
7.17814e-05
0.00599248
0.000806284
0.0055615
0.000111828
7.75176e-05
8.28377e-05
0.0213399
8.89511e-05
6.00727e-05
6.73463e-05
8.0093e-05
0.034662
8.3257e-05
0.0226824
8.5673e-05
7.06272e-05
7.81037e-05
6.14676e-05
8.15418e-05
6.64445e-05
0.000121048
6.33154e-05
6.97314e-05
6.17829e-05
8.65723e-05
7.64541e-05
9.5323e-05
7.76451e-05
0.0322934
8.1416e-05
8.39949e-05
8.6195e-05
0.000170443
7.95913e-05
7.37835e-05
9.17416e-05
8.74323e-05
4.74824e-05
7.77501e-05
8.90926e-05
5.27482e-05
5.2841e-05
8.308e-05
0.000214526
9.4913e-05
6.47012e-05
7.97028e-05
5.94293e-05
7.83152e-05
8.68518e-05
8.46354e-05
6.84416e-05
9.76014e-05
0.0358072
8.81643e-05
7.47593e-05
8.93103e-05
8.37088e-05
0.000198211
8.28437e-05
7.18418e-05
0.000101255
0.0213311
7.76273e-05
6.8495e-05
6.31938e-05
0.000646495
6.37021e-05
6.16631e-05
8.81011e-05
8.28248e-05
8.84763e-05
8.20573e-05
0.000190684
7.16496e-05
0.00481818
0.0014979
6.98215e-05
0.00189099
8.17205e-05
4.00381e-05
9.42409e-05
6.48811e-05
6.73509e-05
5.88151e-05
0.0239769
7.65107e-05
6.70622e-05
6.4841e-05
8.76453e-05
8.72948e-05
3.45643e-05
0.0142668
0.00591708
5.10389e-05
7.89954e-05
9.54607e-05
0.012446
5.83401e-05
7.34163e-05
0.0012867
5.01115e-05
7.58271e-05
5.0369e-05
0.000104792
9.50642e-05
6.23498e-05
8.40564e-05
7.72682e-05
8.3613e-05
6.66758e-05
7.80473e-05
8.57317e-05
6.62252e-05
0.0390568
0.0282012
9.04075e-05
5.02278e-05
6.65237e-05
2.55025e-05
6.55269e-05
5.05046e-05
8.86493e-05
9.92811e-05
8.95163e-05
8.04986e-05
7.09384e-05
4.78958e-05
9.36499e-05
5.79821e-05
9.00518e-05
0.0147388
0.000305618
5.60237e-05
8.32506e-05
8.94358e-05
7.57196e-05
5.80801e-05
0.00539875
6.97949e-05
6.51929e-05
5.73875e-05
9.04757e-05
7.99633e-05
8.25409e-05
7.08811e-05
0.00412961
0.0369321
8.67468e-05
8.48832e-05
6.2662e-05
0.0142992
8.49695e-05
0.0152641
6.83209e-05
5.96665e-05
0.0164102
6.71229e-05
7.31402e-05
0.000847053
0.00201839
6.89634e-05
7.37802e-05
7.95726e-05
4.96124e-05
8.09695e-05
9.41843e-05
7.90004e-05
9.05763e-05
6.40506e-05
5.92832e-05
0.00148169
0.000101218
4.9722e-05
6.41086e-05
8.01292e-05
8.8661e-05
0.0066584
8.96482e-05
0.00604605
9.06653e-05
6.23352e-05
7.88008e-05
4.73379e-05
0.00011421
8.7101e-05
0.000626533
8.548e-05
0.00134767
0.0155975
6.10261e-05
6.04458e-05
4.99432e-05
7.98548e-05
5.97967e-05
6.53499e-05
8.29675e-05
8.6658e-05
5.89389e-05
2.24521e-05
5.04721e-05
6.68981e-05
6.1104e-05
0.00479882
7.77783e-05
7.71768e-05
8.34884e-05
0.000200548
5.00573e-05
7.01487e-05
8.49713e-05
7.0462e-05
7.79506e-05
5.03514e-05
7.79025e-05
6.0392e-05
5.87091e-05
0.000129879
4.92856e-05
0.0112519
5.5895e-05
0.00402535
0.005376
5.46912e-05
8.95948e-05
5.50095e-05
8.08549e-05
7.91647e-05
9.69259e-05
9.74228e-05
4.9395e-05
4.81993e-05
7.17572e-05
5.87753e-05
6.22725e-05
7.87368e-05
8.95277e-05
0.000277024
0.0373948
7.33574e-05
8.38582e-05
6.24163e-05
8.55169e-05
6.55443e-05
6.91215e-05
7.91563e-05
8.27282e-05
7.24033e-05
5.05501e-05
0.000378807
5.82363e-05
8.49063e-05
7.17785e-05
8.18847e-05
8.94141e-05
9.90989e-05
4.97727e-05
9.11353e-05
0.00321728
0.00823751
6.7706e-05
0.00316653
4.43778e-05
6.19675e-05
0.0238265
0.0367536
8.28927e-05
8.4991e-05
7.46536e-05
0.000208546
0.0107338
7.20511e-05
8.5152e-05
7.983e-05
8.78314e-05
0.00161914
0.00219721
7.37191e-05
6.21764e-05
6.17938e-05
9.91759e-05
4.94439e-05
6.92122e-05
7.74433e-05
8.83742e-05
7.93401e-05
4.98885e-05
8.85946e-05
7.72794e-05
6.75999e-05
0.0184065
9.16089e-05
8.73584e-05
6.75778e-05
8.87142e-05
6.37002e-05
9.39881e-05
9.19141e-05
7.57507e-05
4.78094e-05
0.00010274
9.69826e-05
4.91162e-05
0.000416155
0.000576481
8.53851e-05
7.18864e-05
8.28395e-05
7.39861e-05
7.17074e-05
0.000184151
0.00338579
4.95569e-05
4.87915e-05
7.95516e-05
8.70381e-05
0.0137998
7.57369e-05
4.92276e-05
5.70011e-05
8.90263e-05
4.89538e-05
8.46856e-05
4.89036e-05
0.00420328
5.48873e-05
0.0233679
0.0168351
8.9333e-05
8.26693e-05
6.99434e-05
8.72994e-05
8.72659e-05
7.09733e-05
5.87696e-05
0.000156309
0.0200637
6.97415e-05
0.00480604
9.01849e-05
0.000154672
8.63417e-05
9.72922e-05
8.2919e-05
7.19843e-05
8.88672e-05
6.62487e-05
9.99633e-05
0.00468867
6.29048e-05
8.99604e-05
7.89544e-05
5.9227e-05
0.00398233
8.94643e-05
0.000204156
0.0139928
5.53703e-05
4.90638e-05
5.9469e-05
5.15028e-05
7.87029e-05
8.42203e-05
8.68824e-05
8.40177e-05
0.0040787
8.93597e-05
7.89419e-05
6.80946e-05
9.64008e-05
8.20685e-05
4.86374e-05
7.67271e-05
5.1653e-05
4.84927e-05
5.97865e-05
5.8832e-05
5.83172e-05
0.00113711
0.00302818
4.86051e-05
7.0233e-05
5.28254e-05
5.42533e-05
6.10985e-05
7.52886e-05
0.000120233
6.84654e-05
5.80402e-05
5.25301e-05
6.53658e-05
8.38282e-05
4.87469e-05
5.48656e-05
7.8001e-05
0.000106002
8.53821e-05
0.00942265
7.2018e-05
8.4569e-05
0.000100783
7.61886e-05
7.441e-05
0.00120426
0.00248898
0.000105831
4.83329e-05
7.80257e-05
6.9784e-05
6.59999e-05
0.000947934
0.000138248
0.00186167
9.18306e-05
9.37019e-05
0.000102771
4.73844e-05
6.10445e-05
0.000116372
8.33476e-05
0.00034545
7.79293e-05
8.86609e-05
7.33938e-05
0.0219751
4.83129e-05
4.83846e-05
9.58607e-05
4.84541e-05
5.92575e-05
6.15747e-05
5.11549e-05
7.77996e-05
8.48535e-05
6.19191e-05
7.04534e-05
8.64729e-05
0.00028803
0.0153628
6.42768e-05
8.86445e-05
6.65351e-05
0.00168472
0.000682924
8.23095e-05
0.0191519
8.89977e-05
0.00144759
8.97395e-05
6.44616e-05
8.01951e-05
8.53943e-05
8.90082e-05
8.82358e-05
0.00201213
8.38884e-05
5.91379e-05
2.52617e-05
9.70756e-05
6.98506e-05
6.75179e-05
7.8802e-05
7.92385e-05
0.00236113
0.000200288
8.5609e-05
7.84906e-05
0.000100172
0.0031541
8.84028e-05
7.29485e-05
8.47776e-05
8.39866e-05
6.4241e-05
0.0164593
0.0211326
7.13835e-05
7.31899e-05
7.08067e-05
0.000117111
7.98622e-05
6.75895e-05
5.53047e-05
0.0158509
7.10578e-05
8.84207e-05
0.000100608
8.33697e-05
0.000140567
8.65694e-05
8.61022e-05
7.74483e-05
8.50486e-05
8.29141e-05
9.19182e-05
8.37597e-05
8.89832e-05
6.95893e-05
9.44611e-05
6.38616e-05
8.39481e-05
7.249e-05
7.93611e-05
7.71643e-05
8.22618e-05
5.37611e-05
5.3053e-05
5.55673e-05
7.17706e-05
0.000107657
5.92554e-05
0.0209772
7.79388e-05
8.9752e-05
7.34535e-05
7.18279e-05
4.76317e-05
8.51605e-05
0.0366124
0.0129139
9.52569e-05
7.93592e-05
7.93824e-05
0.00543586
0.0226375
0.0438948
7.77285e-05
4.81912e-05
8.64674e-05
7.73532e-05
7.85107e-05
7.7965e-05
4.74335e-05
8.16692e-05
9.55453e-05
0.0191351
4.58373e-05
7.7107e-05
8.75971e-05
7.0888e-05
0.0263457
0.00716117
9.064e-05
7.52243e-05
0.000328792
6.04888e-05
0.0205353
7.82392e-05
8.81269e-05
6.16794e-05
5.95877e-05
7.76462e-05
0.000101645
0.00366545
5.68333e-05
0.000104309
8.16592e-05
8.02812e-05
6.949e-05
7.69363e-05
0.000376136
7.11987e-05
5.69107e-05
0.0131046
8.41159e-05
0.000147361
8.71911e-05
5.36672e-05
0.026707
4.43602e-05
8.51211e-05
0.0118374
7.8889e-05
6.18957e-05
5.98175e-05
5.36815e-05
0.00586287
5.69278e-05
7.1937e-05
0.000118878
5.03102e-05
7.3148e-05
8.7604e-05
7.71222e-05
9.49989e-05
7.7228e-05
6.80713e-05
0.000100408
7.93023e-05
4.43694e-05
6.91083e-05
8.34244e-05
0.00201673
8.40463e-05
6.86224e-05
5.03863e-05
0.000375366
4.80741e-05
5.96286e-05
5.43052e-05
6.60348e-05
5.05972e-05
7.731e-05
0.00189665
8.36531e-05
5.75397e-05
8.49421e-05
8.08923e-05
7.53237e-05
5.0335e-05
8.49628e-05
6.86568e-05
0.000187931
8.21278e-05
8.27307e-05
5.16872e-05
0.00673977
0.0409302
6.78777e-05
2.78011e-05
8.69035e-05
0.00529642
8.34281e-05
6.42155e-05
4.80267e-05
6.79257e-05
6.09385e-05
7.7088e-05
5.70167e-05
8.56791e-05
5.64536e-05
6.36131e-05
8.69544e-05
7.8039e-05
8.44321e-05
0.0212995
7.771e-05
5.94861e-05
5.99371e-05
5.08711e-05
6.26037e-05
5.8323e-05
6.21295e-05
8.52831e-05
0.000457497
7.55177e-05
7.15484e-05
6.3876e-05
0.000102712
6.46842e-05
6.6088e-05
9.81631e-05
5.5152e-05
9.02863e-05
5.65305e-05
8.77788e-05
7.57193e-05
5.51634e-05
7.36419e-05
5.54685e-05
0.00011179
8.45655e-05
8.30205e-05
5.08717e-05
4.4416e-05
8.72445e-05
0.00166901
5.84095e-05
8.1995e-05
0.000335525
7.03909e-05
8.70745e-05
8.30962e-05
0.0125911
7.2325e-05
4.73021e-05
6.24873e-05
8.06776e-05
8.05104e-05
8.99703e-05
9.05684e-05
6.14145e-05
8.08769e-05
7.92372e-05
7.40181e-05
4.95539e-05
0.0253713
6.4098e-05
6.16872e-05
8.82258e-05
0.00375328
8.34157e-05
7.16424e-05
0.0268949
7.69802e-05
4.62277e-05
8.89886e-05
7.47074e-05
8.7866e-05
6.79839e-05
0.00217473
9.49498e-05
6.07306e-05
0.00142554
8.5226e-05
7.11712e-05
0.0172246
0.0338121
4.9611e-05
5.67693e-05
7.78276e-05
8.16927e-05
7.94243e-05
0.00770123
6.82344e-05
8.93828e-05
4.75401e-05
0.00655193
7.88859e-05
0.0020179
7.50074e-05
8.65903e-05
7.96228e-05
0.00180883
7.38531e-05
6.67969e-05
8.05945e-05
6.85423e-05
7.74302e-05
7.10641e-05
8.53717e-05
6.54035e-05
6.36671e-05
0.00275216
9.16768e-05
5.01484e-05
7.12314e-05
6.96547e-05
0.000101764
6.92646e-05
8.8703e-05
5.86116e-05
7.91274e-05
8.08958e-05
6.96898e-05
6.08893e-05
0.0126425
5.59945e-05
6.3816e-05
0.00407662
2.45341e-05
5.61365e-05
5.62192e-05
8.95065e-05
8.08962e-05
0.00341694
7.29383e-05
7.56637e-05
7.62445e-05
7.74079e-05
8.63241e-05
7.67866e-05
5.94763e-05
8.48297e-05
0.0218368
7.27653e-05
7.68546e-05
7.15504e-05
0.00289152
8.71347e-05
8.66746e-05
9.86799e-05
0.0237902
0.000123392
5.5162e-05
4.76918e-05
0.00173919
8.50496e-05
8.84347e-05
8.25277e-05
5.68832e-05
8.54884e-05
8.53203e-05
7.77771e-05
9.51497e-05
5.6762e-05
4.72851e-05
0.000100785
7.8986e-05
6.45729e-05
0.0011297
0.000106785
9.0278e-05
8.99005e-05
0.00172917
0.000548883
0.00643207
8.94859e-05
0.000212537
8.47167e-05
4.63e-05
0.00105322
8.30778e-05
0.00771381
8.68132e-05
8.18167e-05
7.60405e-05
5.58402e-05
8.66825e-05
8.93209e-05
0.00222783
0.000129777
0.0346595
0.00117938
7.3991e-05
8.85184e-05
6.32792e-05
6.88559e-05
4.88704e-05
5.89385e-05
7.72967e-05
0.0338173
0.000100426
5.63784e-05
7.7541e-05
0.000121305
0.0141829
7.56524e-05
7.18175e-05
5.15444e-05
8.33117e-05
5.88196e-05
8.64585e-05
0.000525817
4.96952e-05
4.77877e-05
8.96033e-05
0.000279568
8.46994e-05
0.00014074
0.00170343
6.93806e-05
7.97203e-05
8.69584e-05
8.42156e-05
8.71135e-05
6.37869e-05
0.000586861
6.34274e-05
8.2962e-05
7.78748e-05
0.00106857
8.63472e-05
0.00223864
0.0309757
8.94275e-05
9.78956e-05
5.98313e-05
8.21808e-05
6.732e-05
8.47555e-05
6.04492e-05
8.29163e-05
4.75357e-05
5.66155e-05
6.70537e-05
7.92357e-05
4.59565e-05
6.84079e-05
5.68011e-05
0.0125063
0.00732136
6.72754e-05
0.00717996
6.89974e-05
5.08108e-05
6.14722e-05
0.00616701
0.000105781
8.04213e-05
8.7246e-05
7.55604e-05
5.65754e-05
0.00456429
5.97952e-05
8.36076e-05
2.71724e-05
0.000142403
4.77856e-05
4.76669e-05
8.63337e-05
4.44907e-05
0.00748633
0.0005108
6.715e-05
9.10813e-05
0.0240962
8.24083e-05
6.52449e-05
8.62941e-05
4.79638e-05
7.9447e-05
8.68574e-05
5.57078e-05
6.30346e-05
8.86013e-05
9.36407e-05
0.0136646
5.13251e-05
5.8755e-05
0.00722373
7.37222e-05
8.1477e-05
0.000100724
8.08021e-05
8.80559e-05
5.66396e-05
0.00181845
8.42958e-05
9.49205e-05
7.29649e-05
0.00734631
0.00827782
8.44396e-05
6.93566e-05
8.7601e-05
9.16103e-05
5.06485e-05
9.01846e-05
7.83527e-05
6.94299e-05
8.35811e-05
0.000106941
6.59823e-05
7.95274e-05
4.64705e-05
8.91378e-05
0.0211452
0.0053547
7.92246e-05
7.44534e-05
5.86282e-05
5.85148e-05
6.58426e-05
4.78668e-05
7.06729e-05
4.8036e-05
8.4318e-05
8.2487e-05
6.81766e-05
8.7844e-05
8.65535e-05
0.000105297
0.000115153
4.39714e-05
0.00197667
8.71812e-05
0.00604164
6.00049e-05
5.07825e-05
4.78826e-05
8.05876e-05
5.79434e-05
7.70493e-05
0.0315896
8.80083e-05
6.19653e-05
6.20738e-05
4.63145e-05
0.00601129
4.9682e-05
7.89409e-05
7.92142e-05
0.000101208
8.36243e-05
4.75747e-05
0.00306849
0.00431307
6.75362e-05
8.70418e-05
6.06562e-05
0.0345358
8.31876e-05
7.46436e-05
0.0271423
0.000358236
7.07489e-05
9.45206e-05
8.87025e-05
5.80048e-05
5.65257e-05
6.93255e-05
0.0157601
7.01407e-05
7.09665e-05
0.0143304
5.77853e-05
7.81697e-05
5.14748e-05
8.14804e-05
6.53661e-05
0.000114474
8.09607e-05
7.78929e-05
0.000103724
7.95233e-05
8.2663e-05
8.67398e-05
5.59495e-05
8.91416e-05
6.13432e-05
8.90167e-05
6.76329e-05
8.9573e-05
5.86723e-05
0.0238696
0.000106226
9.33373e-05
0.000104017
8.16368e-05
9.52143e-05
6.3323e-05
8.60177e-05
7.55659e-05
5.92623e-05
8.80952e-05
7.43432e-05
6.98598e-05
8.95958e-05
0.00107042
6.6613e-05
8.75867e-05
5.23959e-05
8.19531e-05
6.57049e-05
7.77432e-05
7.7211e-05
6.81318e-05
0.0050329
4.76651e-05
0.016932
8.45939e-05
6.90489e-05
7.1367e-05
8.84851e-05
8.22283e-05
5.7619e-05
5.78265e-05
0.021591
5.87298e-05
0.0143638
0.00059283
0.00471172
9.48785e-05
0.0154017
7.13833e-05
4.74303e-05
8.30064e-05
5.65085e-05
5.48345e-05
9.90141e-05
7.55287e-05
0.00176302
8.34377e-05
8.69189e-05
8.44112e-05
6.1417e-05
7.4167e-05
6.92695e-05
5.90251e-05
4.63325e-05
8.72033e-05
0.0360333
8.47602e-05
0.00505318
8.27109e-05
7.99501e-05
8.64e-05
5.83278e-05
6.78362e-05
8.09216e-05
8.82517e-05
7.8064e-05
5.62425e-05
8.07891e-05
0.0128028
0.0378546
8.50496e-05
7.01412e-05
8.94249e-05
6.03133e-05
4.98291e-05
0.000458911
6.48916e-05
0.000549606
0.0260525
8.93632e-05
5.04001e-05
0.000153292
8.63181e-05
9.51162e-05
0.000267526
7.08561e-05
7.61809e-05
9.77004e-05
9.27348e-05
0.00010575
0.00831709
8.95388e-05
6.83386e-05
8.75505e-05
8.1061e-05
4.72026e-05
8.60983e-05
5.24354e-05
6.32594e-05
5.06599e-05
7.76244e-05
6.22041e-05
8.15575e-05
6.02116e-05
8.04735e-05
0.000100657
5.83168e-05
8.61348e-05
8.61268e-05
0.00348167
7.12885e-05
5.82191e-05
0.007139
0.00146122
7.97e-05
0.00183684
0.00139037
8.7484e-05
8.51548e-05
7.82752e-05
7.42582e-05
0.000925025
7.1478e-05
0.0001003
4.99726e-05
0.000130499
7.84204e-05
0.000104899
0.00426324
8.13118e-05
4.60593e-05
0.0394171
9.097e-06
6.81748e-05
8.58862e-05
6.12835e-05
0.00012097
4.51894e-05
8.33691e-05
7.7713e-05
7.48858e-05
5.42835e-05
8.283e-05
8.86395e-05
8.29568e-05
8.63985e-05
8.70378e-05
9.88537e-05
6.31898e-05
8.86858e-05
7.57677e-05
7.96365e-05
0.0211065
7.51807e-05
8.76891e-05
6.7732e-05
0.00218438
6.6666e-05
9.44493e-05
6.34059e-05
4.59836e-05
8.68583e-05
7.43586e-05
5.44692e-05
5.01603e-05
8.07746e-05
5.11866e-05
0.0200282
7.93459e-05
8.65433e-05
0.0230138
0.000119895
9.20013e-05
6.9968e-05
8.37488e-05
4.63928e-05
8.1796e-05
4.43996e-05
0.0232642
8.5939e-05
7.62075e-05
8.68929e-05
5.91715e-05
9.0631e-05
8.88245e-05
7.91495e-05
7.4189e-05
6.21168e-05
0.00659708
8.68066e-05
4.75857e-05
0.0211627
5.67312e-05
7.01171e-05
4.73005e-05
7.93007e-05
7.94453e-05
6.79986e-05
0.000677714
0.000408814
0.0212227
8.7633e-05
0.0425095
8.68484e-05
5.44489e-05
0.0423538
8.76193e-05
8.08504e-05
8.41156e-05
6.16925e-05
6.06437e-05
8.94757e-05
0.0286606
7.84622e-05
5.51056e-05
8.59848e-05
9.05553e-05
7.73129e-05
9.6941e-05
5.18492e-05
7.70625e-05
8.69736e-05
8.89101e-05
8.43761e-05
3.42624e-05
6.04105e-05
6.47047e-05
7.15222e-05
5.94646e-05
4.65894e-05
6.48265e-05
7.11826e-05
0.0201472
7.74319e-05
4.97417e-05
8.11233e-05
8.27725e-05
6.69427e-05
8.30244e-05
6.75959e-05
8.31404e-05
0.0001119
6.85694e-05
0.000115116
8.17989e-05
8.00453e-05
8.73865e-05
5.70212e-05
0.0435238
8.49505e-05
8.32665e-05
8.4783e-05
0.0109238
8.03124e-05
7.33128e-05
5.0007e-05
9.33657e-05
7.42525e-05
8.63251e-05
5.96101e-05
6.06259e-05
8.16978e-05
8.20621e-05
6.17383e-05
8.99019e-05
8.0134e-05
5.73652e-05
8.06118e-05
6.01507e-05
6.34135e-05
0.0342767
7.12144e-05
6.85305e-05
2.45192e-05
0.000621685
7.88469e-05
6.1052e-05
8.27295e-05
6.89906e-05
5.42714e-05
6.29553e-05
7.11405e-05
8.54859e-05
0.00423591
5.95485e-05
5.94774e-05
4.7098e-05
5.77339e-05
0.000273163
0.000131751
8.6157e-05
8.55445e-05
0.0274087
6.88303e-05
0.000723596
8.71854e-05
0.00108471
9.02595e-05
0.0275659
6.0596e-05
6.15622e-05
6.18765e-05
8.47685e-05
7.48944e-05
9.07215e-05
7.77086e-05
8.59813e-05
9.44645e-05
5.9176e-05
8.79709e-05
8.26304e-05
8.4332e-05
8.84975e-05
6.17092e-05
7.14229e-05
9.42996e-05
5.63518e-05
0.000155898
8.77339e-05
8.11069e-05
5.52375e-05
0.00409003
7.51687e-05
5.97192e-05
0.00326605
9.3135e-05
0.0206703
0.0254877
8.3319e-05
0.000102235
0.000102635
0.00589873
8.19947e-05
7.93399e-05
9.63939e-05
0.0253793
8.38836e-05
9.02803e-05
0.00497372
0.000106437
6.02792e-05
0.000195818
9.01829e-05
0.00839661
6.91865e-05
7.39882e-05
4.98197e-05
0.00010062
8.15428e-05
9.29956e-05
0.0267722
8.21054e-05
5.12985e-05
8.50097e-05
6.86956e-05
9.37254e-05
6.11064e-05
8.43847e-05
5.3549e-05
0.0253702
3.61396e-05
8.42982e-05
7.7654e-05
7.25001e-05
0.00101061
8.76536e-05
6.64397e-05
6.1977e-05
4.44266e-05
9.56286e-05
0.0235208
8.4592e-05
6.25323e-05
6.812e-05
0.0242262
8.97941e-05
6.51159e-05
6.92388e-05
7.24302e-05
4.99509e-05
0.000101698
8.66164e-05
0.0247376
0.0216535
0.0390286
8.25878e-05
0.0265122
0.00174352
8.50615e-05
0.00619417
8.02931e-05
8.69648e-05
0.00653469
4.49721e-05
0.0184573
0.0204302
0.0107677
6.80062e-05
0.000114483
0.00731264
6.86495e-05
0.0331205
0.0264964