/*--------------------------------*- C++ -*----------------------------------*\
| =========                 |                                                 |
| \\      /  F ield         | OpenFOAM: The Open Source CFD Toolbox           |
|  \\    /   O peration     | Version:  v2012                                 |
|   \\  /    A nd           | Website:  www.openfoam.com                      |
|    \\/     M anipulation  |                                                 |
\*---------------------------------------------------------------------------*/
FoamFile
{
    version     2.0;
    format      ascii;
    class       volScalarField;
    location    "150";
    object      p;
}
// * * * * * * * * * * * * * * * * * * * * * * * * * * * * * * * * * * * * * //

dimensions      [0 2 -2 0 0 0 0];


internalField   nonuniform List<scalar> 
18166
(
-0.00126871
-0.00527583
-0.0103562
-0.0301692
0.00507845
-0.0407855
-0.0023733
-0.0017631
-0.0108296
-0.00023018
-0.00541014
-0.0143209
-0.0262471
-0.0112127
-0.0189005
-0.00489394
-0.0825929
-0.000697334
-0.0204107
0.000201375
-0.0145289
-0.000901794
-0.0206291
-0.0101453
0.000190704
0.000834679
-0.0017869
-3.76349e-05
-0.00758747
-0.00292955
-3.86872e-06
0.00104205
0.000746342
5.13038e-05
0.00510678
-0.00562738
-0.000991931
-0.000319107
-0.000402578
-0.0133534
-0.0103476
-0.0228859
-0.000356549
-0.0200553
0.00758317
-0.000926414
-0.00199678
0.00258989
-1.45267e-05
-1.23441e-05
-0.00148733
-0.0761275
-8.31277e-06
-0.00304692
-0.000933195
-0.00410781
0.000136871
-0.0012766
0.0073049
-0.00427128
-0.000666462
-0.00145609
-0.000889612
-0.00450278
-0.00226592
-0.00156005
-0.0019722
-0.00478913
-0.0391821
-0.000700824
-0.0256674
-0.0293726
0.00119995
-0.0114103
-0.000696536
0.000502269
-0.0109243
0.00231835
-0.053366
-6.5249e-06
-0.0140993
-0.000262976
0.00416126
-0.000705273
-0.00120328
-0.000668355
-0.000633622
-0.00438418
-0.00281024
-0.0117726
-0.000696346
-0.000677343
-0.023061
-0.00280202
-0.0114075
-0.0103244
-0.0408246
-0.00130323
0.00389707
-0.0369251
-0.000437503
-0.000687769
-0.00290103
3.13836e-05
-0.000703952
-0.00152267
-0.0007638
-0.00195782
-2.01911e-05
-0.00700425
-0.0839924
0.00568956
-0.0810092
-0.0400779
-0.0110682
0.000223982
0.00534368
-0.00532713
-0.0101121
-0.000410847
-0.00543244
-0.000407339
-0.00552527
-0.00134577
-0.00299457
-0.0158373
-0.01562
-0.000635503
-0.000811258
-0.00434886
-0.00232899
-0.00496204
-0.000463241
-0.000480046
0.000712713
-0.00101136
-0.00157346
-0.0518068
-0.000791662
0.0023549
-0.00363919
-0.00526698
-0.0178762
0.000714183
-1.57989e-05
0.00517353
0.000861328
-0.000983167
-0.000688275
-0.0368996
-0.000439028
-0.0144753
0.00163998
-0.0868032
-0.0507298
-0.000689423
-0.000558837
-0.00298779
-0.0516922
-0.0110536
-0.00144162
-0.000646944
-0.0556386
-0.000476743
-0.00495972
-0.000383636
0.000738856
-0.00185198
-0.0871616
-0.000582129
-0.000442154
-0.00084096
-0.00175601
0.00247241
-0.000453178
-0.000704838
-0.000672227
-0.000641184
-0.00414144
-0.0111478
-0.00132291
-0.000675388
-0.00103784
0.00926679
-0.00786805
-0.000695681
-0.00181365
-0.0106283
-0.00806962
-0.00086509
-0.00297704
-0.00814313
0.0084813
-0.00171198
-0.000653484
-0.0663142
-0.0651539
0.000186877
-0.00376948
-0.001995
-0.000399829
0.00506813
-0.0870388
-0.011237
-0.0040501
-0.0443001
-0.00510631
-0.0312232
-0.045006
-0.00066472
-0.001755
-0.0436095
-0.0455741
-0.0006675
-0.0220313
-0.00357651
0.00291181
-0.00302061
-0.00282263
-0.00267118
-0.000248903
-0.000517136
-0.0128568
-0.00145052
-0.00181314
-0.000679818
-0.001449
-0.00219546
-2.51479e-05
-0.00144393
-0.0011006
-0.000426395
0.00129298
-0.000430905
-0.0854631
-0.000370943
-0.000807512
-0.000747809
-0.000461352
-0.0115976
-0.00157579
-0.0118014
-0.00102733
0.000303326
-0.00148193
-0.000393473
-0.0252125
-0.000398872
6.19288e-05
-0.0410311
-0.00031957
-0.00260602
-0.00166963
-0.0144585
-0.00524196
-0.00206847
-0.00346834
-0.00456974
-0.00159638
-0.0101174
-0.00273849
-0.00252171
-0.0102799
-0.000646542
-0.00194735
-0.000983688
0.00160309
-0.00183361
-0.000694588
-0.000402832
-0.00201807
-0.00401687
0.000902781
0.00114222
-0.00051754
-0.00187367
-0.000680021
-0.00121953
-0.00518922
-0.0399559
-0.00226606
-0.000635907
-0.0357089
-0.00425235
-0.00449794
-0.000632124
-0.0507096
-0.0144734
-0.00187995
-0.00339024
-2.37755e-05
-0.000649647
-0.00557177
-0.00855791
-0.000407492
-0.00121976
-0.000200847
-6.40095e-06
-0.000414338
0.00198513
-0.015083
0.000851533
-0.0382313
-0.000310183
-0.0031906
-0.000539718
-0.00701784
-0.00212969
-0.000691015
-0.00330335
-0.00477862
-0.00306739
-0.00920531
-0.00152277
-0.00224505
-0.0005372
-0.000761502
-0.0441516
-0.0513548
-0.00199138
0.00533386
-0.0085306
-0.0870029
-0.0082396
-0.00092067
-0.000770297
-0.00472456
-0.0115786
-0.0029269
-0.0458746
-0.000798525
-0.000468538
-0.00172426
-0.00326538
-0.0348325
-0.00262192
-0.0453834
-0.00198622
-0.000543026
-0.00256711
0.000715077
-0.00941254
-0.0432215
-0.00292258
-0.0156973
-0.00706301
-0.049846
-0.00726107
-0.00112374
-0.000711489
0.000800406
-0.000160728
-0.011025
-0.00916959
0.00299942
-0.0211661
-0.00151386
-0.000570009
0.000126129
-0.00755142
-0.000640265
-0.00235686
-0.000431329
-0.015935
0.000147388
-0.0004311
-0.000921626
-0.00211066
-0.00156045
-0.00469351
-0.00138935
-0.000780576
-0.0022558
-0.0781296
-0.00253418
-0.000963471
-0.000689348
-0.000568163
-0.00145662
-0.00749652
-0.00037404
-0.00356882
-0.0357973
-0.000144468
-0.00037981
-0.00739295
-0.0128024
-0.0353132
-0.0146052
-0.0518351
-0.000371963
0.00150399
-0.0120211
-0.012705
-0.000578729
-0.0332646
-0.00223608
-0.000366675
-0.00210903
-0.0186373
-0.000359788
-0.000356603
-0.00338756
-0.000556338
-0.0129401
-0.00189824
-0.000773144
0.00109135
-0.00211246
-0.000558138
-0.0007004
-0.00135912
-0.000408561
-0.000341617
-2.04397e-05
-0.0773844
-0.0106187
-0.00260741
-0.00110957
-0.00829965
-0.00175047
-2.33771e-05
-0.000443622
-0.000294872
-0.000431289
-0.00222897
-0.00723825
-1.0047e-07
-5.9231e-06
-3.89551e-05
-0.0126302
-0.000279818
-0.00311353
-0.000437755
-0.00133158
-0.00270423
-0.00156501
-0.0119495
-0.00403658
0.000323227
-0.0842047
-0.00992082
-0.000102641
-0.00042925
-0.00319044
-0.000420028
0.00448131
-0.00506356
-0.0132941
-4.38629e-05
-6.53873e-05
-0.00189426
-0.00348206
-0.000272974
-0.000175729
-0.00592785
-0.00059222
-0.0024462
-0.00278036
-0.000791348
-0.000147634
-0.000583056
-0.00101411
-0.0202445
-0.0192138
-0.000580915
-0.0088521
-0.00299227
4.25264e-05
-0.00391742
-0.000653004
-0.00269039
-0.00547342
-0.000676234
-0.0253902
-0.00204063
-0.000427828
-0.000171122
-0.000665315
0.00504539
-0.00190924
-0.000666658
-0.000949682
-0.00207263
0.000467964
-0.000419146
-0.0109522
-0.000471432
-0.00331282
-0.00118898
-0.00190359
-0.000965545
-0.00308735
-0.00749202
0.000325262
-0.00177618
-0.00132593
-0.0242623
-0.00378492
-0.00406134
-0.0180632
-0.00299071
-0.0133282
0.00751133
-0.000439883
-0.00627877
-0.000920384
-0.00189337
-0.000406384
-0.000567135
-0.0031715
-0.00249077
-0.00191768
-0.000636963
-0.00874773
-0.0500995
0.000357804
-0.00732138
-0.0108906
-0.00472741
-0.00276611
0.00721708
-0.000427882
-0.00689355
-0.0870754
-0.000623987
-0.00315574
-0.00263839
-0.000322018
-0.00196568
-0.0195672
-0.000282683
-0.0028006
0.00132792
-0.000610221
-0.00549716
-0.00029946
-0.000644428
-0.000227676
-0.00439193
-0.000392086
-0.0392987
-0.000366135
-0.0510618
-0.00608746
-0.0237918
-0.000360507
-0.00036992
0.000822759
-0.000685115
-0.0184203
-0.000602381
-0.00177128
-0.00220214
-2.0402e-05
-0.000372682
-0.0334276
-0.0335905
-0.001606
0.00135625
-0.00480387
-0.015055
0.000824486
-0.000707175
-0.00215525
-0.0561654
-0.00461819
-0.000644723
-0.000357146
-0.00943834
-0.000393791
-0.000361136
-0.000522387
-0.00230735
-0.00146993
-0.000993546
-0.0225736
-0.00320052
-0.0136974
-0.00151528
-0.000884646
0.00046993
-0.00463065
-0.000625114
-6.3497e-05
-0.000348447
-0.00242324
-0.00137207
-0.00237445
-0.00743281
0.00649055
-0.000945942
0.000857376
-0.00970522
-0.00573662
-0.00216898
-0.00117843
0.00116697
-0.057755
0.00352618
-0.00105214
-0.00741729
-0.00224869
-0.00361405
-0.00193906
-0.000473714
-0.000577903
4.20518e-05
-0.008485
-0.000576595
-0.000889556
-0.00057089
-0.00265804
-0.0017509
-0.0006499
-0.00192975
-0.0236284
-0.000612948
-0.00043031
-0.000927862
-0.00218825
-0.000737105
0.00249732
-0.0778021
-0.00208694
-0.000597275
-0.00240704
-0.00218357
-0.0333308
-0.000630727
-0.00311344
-0.00269225
-0.000841995
-0.0169874
-0.0049926
-0.011972
-0.000669103
-0.000462173
-0.00226274
-0.000563145
-0.00312734
-2.5056e-05
-0.0245016
-0.00134945
-0.00275543
-0.00137765
0.000178007
-0.000285718
-0.000742965
-1.99201e-05
-0.00941594
-0.000633724
-0.000726809
-0.00083304
-0.000474077
-0.084814
-0.0144849
-0.00934772
-0.00103509
-0.000643055
-0.000709219
-0.015743
-0.00985254
-0.00269888
-0.000133783
0.000626995
-0.00112416
-0.00113868
-0.00354915
-0.0518915
-0.000470483
-0.00284975
-0.00456003
-0.0302779
-0.000717731
-0.0002225
1.43479e-05
-0.00229803
-0.0180756
-0.000727957
-0.000753294
-0.000706787
-0.000937733
-0.049084
-0.0398249
0.00262668
-0.000344328
0.00031937
0.000526062
-0.00185495
-0.00730888
-0.0019058
-0.000685602
-0.03634
-0.0658553
0.00273309
-0.0258318
0.00107598
-0.00382333
-0.00301939
-0.00408115
-0.000591791
-0.00191085
0.00816081
-0.000653941
-0.00162829
-0.000427816
-0.00298961
-0.000674831
-0.00517725
0.00743754
-0.0453783
-0.000995825
0.000720475
-0.00160819
-0.00894819
-0.0159815
-0.00485257
-0.00119114
-0.0101141
0.000895143
-0.00434179
-0.0649556
-0.00280439
-0.000603127
-0.000689114
-0.00926856
-0.0252125
-0.00951105
0.00645671
0.000676174
-0.000629917
-0.0257097
-0.0456842
-0.000667616
-0.00145334
-0.0128811
-0.029311
-0.00481124
-0.000657285
0.00492481
-0.000553683
-0.00034986
-0.000988128
-0.000621856
-0.00276158
-0.00940078
-0.000474611
-0.00469242
-0.00717735
-0.00327323
-0.00156987
-0.000727695
-0.00231278
-0.0388536
-0.00523043
-0.0023034
-0.000748148
-0.00178706
-0.00368231
-0.000599977
-0.00101832
-0.0254724
-0.00577065
-0.0180705
-0.000580185
-0.000378905
-0.00317774
-0.0626775
-0.0030734
-0.00317542
-0.00139956
-0.00152413
-1.42054e-05
-0.0010488
-0.0145086
-0.000706363
0.00101118
-0.00532398
-0.0148901
-0.0858782
0.000184659
-0.0273871
-0.0115887
-0.00114446
-0.014438
-0.00433591
-0.00138946
-0.00260836
0.000269742
-0.00152768
-0.000403736
-0.00394274
-0.00315988
-0.076576
-0.00248502
-0.00302821
0.000148122
-0.00112627
-0.0041629
-0.00430674
-0.00311056
-0.000739617
-0.0501947
-0.00059778
-0.00272921
-0.000497264
-0.00055197
-0.000517519
0.00341291
-0.0053021
-0.00073814
-0.0007217
-0.000372111
4.94358e-05
-2.39851e-05
0.000993803
-0.0567119
-0.000131671
-0.00141005
-0.00497273
-0.000642843
-0.0016357
-0.00130079
-0.00073968
-0.0627781
-0.00392255
-0.0019814
-0.00191442
0.00095845
-0.00145505
-0.000531383
-0.00563777
-0.000750063
-0.000651496
-0.000861301
-0.00586002
-0.000745426
-0.000660746
-0.00109858
-0.00221224
-0.00319089
-0.0455569
-1.03217e-05
-0.00041229
-0.00103653
0.000202901
-0.00606069
-0.00109875
-0.000678088
4.41333e-05
-0.00276961
-6.22104e-06
-0.00983202
-0.0139488
-0.000705583
-0.000663989
-0.000725537
-0.00281046
-0.0155011
-0.000127447
-0.000400434
-0.00236639
-0.00675775
0.000141872
-0.000863873
-0.00316729
-0.00643201
-0.083497
-0.000803537
-0.00138959
-0.0122765
-0.0034491
-0.000787278
-0.00127657
-0.000594518
-0.00709721
0.00565605
-0.000696019
-0.00117336
-0.00412291
-0.0415286
-0.00175216
-0.0399743
-0.00122626
0.00591111
-0.0091705
-0.00323894
-0.0074455
0.00145942
-0.0341756
-0.0291416
-0.00341827
0.000262833
0.00107638
-0.00865082
-0.00064461
-0.000786891
-0.00117492
-0.00287875
-0.00131645
-0.00358804
-0.00196455
-0.000147159
-0.00249366
-0.0756751
-0.00151067
-0.0174458
-0.0750769
-0.00142819
-0.0419876
-0.00326045
-0.000982497
0.00149607
0.00136917
-0.000825628
-0.0340065
0.00490469
-0.00178913
-0.000352998
-0.00084372
-0.0960078
-0.000648932
-0.0140792
-0.0006461
-0.0482495
-0.00217352
-0.00233034
-0.00206828
-0.000709175
-0.00473423
-0.00697972
-0.0330976
-0.000844124
0.00309466
-0.00265719
-0.000802499
0.00426035
0.000994132
-0.027337
-0.00174762
0.000213465
-0.0379659
-0.00147165
-0.00110051
-0.00070463
-0.00739878
-0.00412
-0.00790457
-0.0006505
-0.0346518
-0.0182272
-0.00194768
-0.00178912
-0.000539206
-0.0341998
-0.00103732
-0.00485039
0.00112222
-0.00324708
-0.000295356
-0.0497431
-0.00126924
-0.000608471
-0.00155213
-0.000593494
-0.00147208
-5.54674e-05
-0.000712279
-0.0173476
-0.015103
-0.00040481
-0.00147596
-0.00237405
-0.00304469
-0.00905275
-0.000588104
-0.000905794
-0.0102032
-0.00288828
-0.000474929
-0.00591636
-0.00114484
-0.00219871
-0.00138717
-0.00108532
-0.000317798
-0.000935047
-0.000936151
-0.0185272
-0.0084461
0.000458234
0.00715258
-0.0129655
-0.000885782
0.000291343
-0.0477493
-0.00161323
-0.000497785
-0.000322433
-0.000163251
-0.0103286
-0.00258797
-0.000709666
-1.64281e-05
-0.000896585
-0.000843409
-0.00067269
-0.00140868
0.000356172
-0.000330188
-0.00077403
-0.000552826
-0.000765333
-0.0374872
-0.00115488
-0.00065252
-0.000277299
-0.00879567
-0.000407563
-0.00056105
-0.0285798
-0.00889396
-0.000697612
-9.71774e-05
-0.000875077
-0.000380643
-0.00168371
-0.000650638
-0.000343507
-0.0108476
-0.0844937
-0.000475169
-0.000652663
-0.00885831
-0.00233544
-0.0133118
-0.0112582
-0.049311
-2.47679e-05
-0.0161093
0.000765702
-0.0126161
-0.000152951
-0.000120126
0.00582387
-0.000787068
-0.000591075
-0.000618272
-0.0595466
-0.000550167
-0.000495716
-0.000634803
-0.000782711
-0.000620531
-1.38364e-05
-0.000546422
-0.00123033
-0.00362906
-0.000166433
-0.000708305
0.00449729
-0.000692564
-0.00261881
-0.0136458
-0.0288474
0.00400688
-0.0104479
-0.00455799
-0.0051929
-0.00108845
-0.00880049
-0.00975281
-0.00332012
-0.0023023
-0.000512044
-0.0240351
-0.00222831
-0.00216443
-0.000676377
-0.000204344
-0.0407637
-0.00191123
-0.0461783
-0.00202863
-0.00598314
0.00400378
-0.00283487
-0.000787859
7.17236e-05
-0.00414432
-0.0782451
-0.00721057
-0.0509485
-0.011398
-0.00147147
-0.00304675
-0.000678248
0.000638951
-0.00080002
-0.000752872
-0.000854752
-0.00148353
-0.000680591
-0.0133203
-0.00243707
-0.0343568
-0.00148319
-0.028336
-0.00508062
-0.00250589
-0.00721792
-0.000621297
-0.00367851
-0.00168375
-0.0283164
-0.0069462
-0.000175214
-0.000238079
-0.00264192
-0.000456915
-0.000459019
-0.0070941
0.00265132
0.00101509
-0.000621653
-0.00391488
-0.000651603
-0.000957652
-0.0125708
-0.00889818
-0.00020682
-0.0373823
-0.0756723
-0.0171826
-0.00208662
-0.0129986
-0.00810919
0.000193165
-0.0040052
-0.00052031
-0.00520301
0.00354615
-0.000202894
-0.00119354
-0.000855471
-0.0430742
-0.000616985
-0.000739601
-0.0159758
-0.00602587
-0.0148201
-0.00484692
0.00026409
-0.00167035
-0.000362051
-0.0473568
-0.000806483
-0.0413623
0.000493912
-0.000301098
-0.0176876
-0.000551872
-0.00115514
-0.000698517
-0.0975138
-0.0024835
-0.000463217
-0.000556155
-0.00245257
-0.0139287
-0.000727062
-0.0166067
-0.00235489
-0.000343617
-0.00245693
-0.00145149
-0.0389943
-0.000562423
-0.000684786
0.00354554
-0.00032491
-0.00224922
-0.000341631
-0.0394068
-0.0147583
-0.000686671
-0.00859327
-0.00245646
-0.00788035
-0.00038253
-0.00163669
-0.00263841
0.000174974
-0.0739309
-0.0860951
-0.0208785
-0.000328169
-0.000383981
-0.000226024
-0.000599983
-0.000346125
-0.0187542
-0.0212563
-0.0215367
-0.00449624
1.38073e-05
-0.000197599
-0.0337717
-0.000674907
-0.0181501
0.00148316
0.00415594
-0.000598924
-0.00730325
-0.0152334
0.000129004
-0.000672768
0.00116518
-0.00148777
-0.000765081
-0.000632874
-0.0244273
-0.00403996
-0.00643425
-0.00157106
-0.00229676
-0.0425655
-0.0131307
-0.00174725
-0.000700172
-0.018556
-0.00225495
0.000157258
-0.00119031
-0.00067235
0.00500738
-0.00118492
-0.000407121
-0.0419255
-0.0428082
-0.00065661
-0.00111389
-0.00359124
-0.000298469
-0.00390624
-0.0170128
-0.00356081
-0.0211993
-0.00101106
-0.000652608
-0.0484932
-0.0281982
-0.000304057
-0.00101331
-0.00424176
-0.00579684
-0.00222364
-0.0122013
0.000670808
-0.023335
-0.000706042
-0.00177283
-0.000180194
-0.0234335
-0.00922613
0.00432044
-0.00275865
0.000260659
-0.0430811
-0.000731919
-0.000722375
-0.000315856
-0.00408624
-0.00072384
-0.0007987
-0.00387473
-0.000878201
-0.000661298
-0.000903992
-0.000316548
-0.00116326
-0.000730314
-0.00207637
-0.00227413
-0.00211182
-0.00780727
0.000260528
-0.000320616
-0.00152991
-0.0100273
-0.0014639
-0.00297955
-0.000263604
0.000912226
-0.00072197
-0.000704047
-0.00392235
-0.000283758
-0.00163466
-0.000591052
0.00644077
-0.0477897
-0.00054079
-0.0218105
-0.000292964
-0.00235983
-0.00361141
-0.0406054
-0.00225448
-0.000288366
-0.000226059
-0.00121846
-0.000662674
-0.000761393
-0.0034067
-0.00230211
0.000626357
-0.0359997
-0.000434585
-0.00824476
-0.000928715
-0.0110946
-0.00053542
-0.00140376
-0.00210207
-0.00661961
-0.00174027
-0.000350744
-0.0294143
-0.000692332
-0.00506919
-0.00134665
-0.00469819
-0.00250041
-0.0220871
-0.000307329
-0.0263793
-0.00159792
-0.0190305
-0.000585178
-0.00161723
-9.02855e-06
-0.000788419
-0.0538542
-0.00688559
-0.00682153
-0.0100448
-0.00209005
-0.00125097
-0.00237291
-0.00130864
-0.0104757
-0.00282877
-0.00488287
0.00304945
0.00337209
-0.00194104
-0.000766829
-0.000813151
-0.0287218
-0.000292117
-0.00139697
-0.00261447
-0.00494173
-0.00226869
-0.000312403
-0.00530321
-0.00164742
-0.000609017
0.00564134
-0.0217441
-0.0092853
-0.000658927
-0.00113425
-0.000960024
-0.0343917
-0.0224594
0.00034992
-0.000196162
0.00137056
-0.0369055
-0.000276982
0.00476242
-0.0301093
-0.0108443
-0.00130871
-0.0034043
-0.00116979
-0.00117337
-0.000515491
-0.00176387
-0.000295581
-0.000262427
-0.00381741
-0.00818367
0.00120551
-0.00217676
-0.000281022
-0.000631247
-0.00545389
-0.000269618
-0.0092356
-0.000266502
-0.000630144
-0.000551393
-0.0476208
-0.000287122
-0.0149057
-0.00333299
-0.00120557
-0.0137632
-0.0122265
-0.00158901
-0.000822551
0.00380791
0.00293847
-0.000905913
-0.0449554
-0.0195186
0.00513496
-0.00490463
-0.040882
-0.00607861
0.000371949
-0.0125517
-0.0011735
-0.0012056
-0.00197321
-0.000647765
-0.0216476
-0.00353454
-0.00071506
-0.000811618
-0.0122289
8.43548e-05
0.00191283
-0.000580068
-0.00027376
-0.000727169
-0.000378951
-0.00283788
-0.00295437
-0.013114
-0.00535256
-0.00175593
-0.00934706
-0.00344404
-0.00116621
-0.0357861
-0.00597684
-0.000255072
-0.00256174
-0.000386869
-0.00024628
-0.000671936
-0.000704196
-0.000696593
-0.000169831
0.00162099
-0.000251314
-0.00126864
-0.000340183
-0.000303427
-0.000654711
-0.00166554
0.00143045
-0.000672938
-0.000738686
-4.66122e-05
-0.000542991
-0.00201208
-0.000259246
-0.000549133
-0.00279278
-0.00328964
-0.0103893
-0.034754
-0.00166646
-0.00521352
0.00284937
-0.000358821
-0.00180893
-0.00104494
-0.0018986
-0.0458846
-0.000237053
-0.00251862
-0.00120856
-0.00080636
-0.0339646
-3.62663e-05
-0.0396796
-0.0237763
0.00103647
-0.0286623
-0.000108513
-0.000665736
-0.00647663
0.00098042
-0.000731175
-0.0028998
-0.018781
0.0026982
-0.0595118
-0.000233221
-0.000142319
-0.0353752
-0.000242829
-0.000667034
-0.000681501
-0.000357622
-0.00285079
-0.00580067
-0.000814165
-0.00129997
-0.00506915
-0.000974721
0.00649473
-0.00103394
-0.0184305
-0.000820204
-0.0476005
-0.000699375
-0.0062117
-0.000529912
-0.017953
0.00236055
-0.00324139
-0.000797898
-0.00419121
0.000573003
-0.0108565
-0.00203341
-0.0412171
-0.00258977
-0.000667458
-0.000783908
-0.0148853
-0.000849337
-0.00121311
-0.00345541
-0.00362553
0.00141673
0.00352233
-0.0105583
-0.00111128
-0.000585892
0.00362993
-0.0156777
-0.000308528
-0.00568884
-0.00517668
-0.000822952
0.00638223
0.00393519
0.00168417
-0.000566466
-0.00157368
-0.00554354
-0.00406932
7.04597e-05
-0.000574222
-0.0797061
-0.0014439
-0.0159125
-0.0195482
-0.0075929
-0.0260117
-0.00255232
-0.00682438
-0.00149823
0.000612251
-0.00425556
-0.0229423
-0.00774343
-0.0129325
-0.000919214
-0.00130164
-0.000969855
-0.00230567
-0.00108835
0.000918368
-0.00249655
-0.00617856
-0.000225013
-0.000469352
-0.000341368
3.84352e-05
-0.0463612
-0.000650769
0.00229267
-0.00204477
-0.00958835
-0.00172804
-0.00168618
-0.00015439
-0.0104193
-0.0297737
-0.0323652
-0.033774
-0.0024325
-0.00289018
-0.01912
-0.0668012
-0.0342275
-0.00215713
-0.00022097
-0.0115338
-0.0020245
0.000960233
-0.00240581
-0.000162164
-0.00487194
-0.0326592
0.000488019
-0.000110734
2.85693e-05
-0.0125408
-0.0015541
-0.0785021
-0.00222256
-0.0249224
0.00264478
0.00421234
2.94683e-05
0.00409178
0.000839591
-0.0021874
-0.000672198
-0.000560433
0.000787065
-0.0203293
-0.00117723
-0.000354907
-0.0384131
-0.00250247
-0.00282615
-0.000968943
-0.00238478
-0.00368731
-0.00104804
-0.000644813
-0.0117237
-0.00305616
-0.000676463
-0.00359209
-0.000492414
-0.0829212
-1.55373e-05
-0.00922701
0.00564103
-0.00336516
-0.000677855
-0.000783411
-0.000493914
-0.00230902
-0.000641799
-0.00134994
-0.0183411
-0.000318918
-0.000326992
-0.0127927
-0.00219408
-0.0155786
-0.00211836
-5.28099e-06
-0.0136337
-0.00369821
-1.61659e-05
-0.00118225
-0.00728416
0.00140729
-0.00683398
-0.000577645
-0.000315159
0.00531564
-0.000211867
-0.000643605
-0.000435537
-0.000841508
-0.000691617
-0.00253532
-0.00751758
-0.00514352
-0.000656918
-0.0038018
-0.00395208
-0.00119395
-0.000338434
0.00137392
-0.0002212
0.00339552
-0.00560403
-0.00664306
0.000256192
-0.000295227
-0.0294429
-0.0005815
4.88516e-05
-0.013595
-0.0415615
-0.00206964
-0.00081227
-0.000499062
-0.00116313
-0.00055979
0.00246535
-0.000654197
-0.0114616
-0.000619866
-0.000791969
-0.0142018
0.00253541
-0.00237052
-0.0355527
-0.0028569
-0.000741758
-0.000528832
-4.2704e-05
-0.000835365
-0.000692958
-0.000647747
-0.0104587
0.00185954
-0.0012547
-0.00130434
-0.000652644
-0.035973
-0.00069316
-0.000431554
0.0021855
-0.00056136
-0.0227047
-0.000624495
-0.000345902
-0.00222006
-0.000562663
-0.0017436
9.31753e-05
-0.000155344
-0.00291497
-0.00448528
-0.000310156
-2.44118e-05
-0.00740438
-0.0464115
-0.000583093
-0.00490416
-0.0231475
0.000193122
-0.014595
-0.00605833
0.00182192
-0.00109677
-0.000778464
-0.000834783
-0.00365507
-0.00448815
-0.0125579
-0.0245236
-0.000653871
-0.0037579
-0.00367192
-0.00198318
-0.000344953
-0.0857959
-0.000642202
-0.000691879
-0.00645011
-0.0486498
-0.00700725
-0.00150395
-0.0873701
9.60803e-05
-0.000129671
-0.0185881
-0.00209626
-0.0005561
-0.000364901
-0.00235022
-0.0352876
-0.000528355
0.00277311
-0.0105587
-0.00100492
0.000766185
-0.0273199
-0.000258939
-0.000124373
-0.00291422
-0.00239434
-0.00378723
-0.0741907
-0.000251175
-0.0209597
-0.000169364
-0.00128526
-0.00309697
-0.000674124
-0.00215915
-0.00223667
-0.00244001
-0.0656679
-0.00125701
-0.000524502
-0.00297482
-0.00133536
-0.00163641
-0.00158564
-0.00934186
-0.000813845
-0.000800805
0.0038587
-0.0282864
-0.000312738
-0.00155234
-0.000957724
-0.0381889
-0.00141478
-0.00296402
-0.000218908
-0.00361627
-0.000566183
-0.00086454
-0.000577327
0.00166235
-0.000616644
-0.00102624
0.00672047
-0.000820533
-0.00062231
-0.000609024
-0.00634007
-0.00220125
-0.0516932
-0.0018389
0.00016891
0.000741346
-0.00213785
-0.00954786
-0.002355
6.89847e-05
-0.00522118
-0.0648628
-0.000223549
-0.00128018
1.49048e-05
-0.0536651
-0.0133382
-0.00241572
-0.00212732
-0.0878018
-0.00385061
-0.000117517
-0.000183055
-0.067311
-0.00908456
-0.0182284
-0.00619217
-0.00065111
-0.0107724
-0.00401823
0.000909334
-0.000762445
-0.000656927
-0.0001509
-0.00120151
-0.00175693
-0.00100756
-0.0634793
-0.0444309
-0.0115256
-0.0176605
0.000484064
0.000480882
-0.00189383
-0.00963836
-0.000460464
-0.00281023
-0.000132431
0.00216655
-0.00349774
-0.00142551
-0.00417491
-0.00572304
0.000486979
-0.000606118
-0.00171318
-0.0109925
-0.0548755
-0.00486972
-0.101659
0.00254149
-9.17625e-05
-0.0183837
-0.000754432
-0.00137677
-5.57906e-05
-0.00066543
-0.00221844
-0.0995297
-0.00959566
-0.000593634
-0.00284361
-0.0246661
-0.0482126
0.000265635
-0.00172253
-0.00039233
-5.39243e-05
-0.000666471
-0.00236367
0.00175861
-0.000296229
-0.000167003
-0.0140925
0.00387992
-0.00920158
-0.0282836
-0.041793
-0.00130218
-0.00390798
-0.0117233
-0.00703835
-0.00413271
0.00019952
0.00326623
-0.000926417
-0.00497831
-0.00292224
-0.00193498
-0.00165709
-0.00817401
-0.0685364
-0.0214153
-0.0291433
-0.000522364
-0.00560785
-0.00111617
-0.00491091
-0.00064694
-0.00325374
-0.000153556
-0.000621544
-0.000504736
-0.00246529
-0.000122802
-0.00132506
-0.000634378
-0.0343298
-0.000320477
-0.000402373
-0.00211608
-0.00135144
-0.00033699
-0.000629398
0.00021607
-0.0338476
-0.00437187
-0.0148587
-0.00226621
-0.000638786
-0.000786167
-0.000656383
-0.00770242
-0.00012485
-0.00137951
-0.000206049
-0.000198621
-0.012728
-2.09806e-05
-0.000635967
0.00419617
-0.00111434
-0.0263253
-0.0873087
-0.0040586
-0.00058382
-0.00973293
-0.000212957
-0.00372878
-0.0140673
-0.000597498
-0.00079702
-0.00190475
-0.0339187
-0.0582482
-0.000368808
-0.00070842
-0.00171261
-0.0010411
-0.00447483
-0.0355294
-0.00334914
-0.00940311
-0.000621768
-0.0568381
-0.00245564
-0.000963925
-0.000234847
-0.0641841
-0.0687678
-0.00189786
-0.000526767
-0.00130276
-0.0211933
-0.000327415
-0.0191138
-0.000103676
-0.000534994
-0.00731773
-0.0265644
-0.00082453
0.00103532
-0.000138753
-0.0184264
0.00631138
-0.00165023
-0.00274798
0.00255356
-0.000663474
-0.000662345
0.000137315
-0.000207234
-0.000465914
-0.000209584
-0.00473962
-0.00640837
-0.00114484
-0.0124166
-0.00946198
-0.0460519
-0.00102927
-8.09424e-05
0.00533096
-0.00461423
-0.000468064
-0.000680895
-0.000333529
-0.000210459
-0.00351867
-0.000686737
-0.00152277
-0.00539503
-0.00443356
-0.000645639
-0.000888354
-0.000134111
-0.0447073
0.00176849
-0.00315667
-0.00365882
-0.010181
-0.00787621
-0.000195096
0.00446867
-0.0416632
-0.00113819
-0.0120724
-0.000813659
-0.0730063
-0.00247717
-0.00197815
-0.0842731
-0.00260325
-0.0015523
0.00228954
-0.00174904
-0.000664336
-0.000616572
-0.00139425
-0.000391367
-0.00120948
-0.00119536
-0.050123
-0.000606164
-0.00302876
-0.000374746
-0.004754
-0.000667469
-0.0321284
-0.00374614
-0.00282494
-0.00999284
-0.00373093
-0.00210663
-0.00178702
-0.000596104
-0.0187579
-0.000844865
-0.0114638
-0.00130405
-0.0101631
-0.000799734
-0.079791
-0.00396895
-0.0332743
-0.0449507
-0.0046082
-0.0317179
-0.000684174
-0.00257077
0.000364365
-0.000617874
-0.00914182
-0.000924122
-0.00150192
-0.0215741
0.00274861
-0.000448948
-0.00225877
-0.000361507
-0.00464972
-0.00110564
-0.00291027
4.11832e-05
-1.97863e-05
0.000139433
-0.000185758
-0.0757875
-0.00309785
-0.00136556
-0.000121476
-0.00191815
-0.00394322
-0.000646247
-0.000651604
0.00731825
-0.000779645
-0.0601487
0.00226539
0.00144225
-0.0351396
-0.000364459
-0.00130474
-0.00014261
-0.00485623
-0.000623617
-0.000545721
-0.0294702
-0.00202706
-0.000185034
-0.00251496
-0.00214224
-0.00674532
-0.000698199
0.000295502
-0.000942832
-0.000779339
-0.000135065
-0.00864147
-0.0947432
-0.00209317
-0.00201499
-0.00634802
-0.00407067
-0.00835971
-0.000659928
-0.00118173
0.000697972
-0.0144536
-0.00298821
-0.000606217
-0.00361338
-0.0742226
0.00488332
-0.00880069
-0.00139712
-0.00902879
-0.000753071
-0.000300502
-0.000445675
-0.000950439
-0.0016037
-0.0813901
-0.00659154
-0.000317902
0.00317416
-0.00633697
-0.000949388
0.000413581
-0.00158956
-0.00199163
-0.0108572
-0.0174397
-0.0256271
-0.0634597
-0.0216031
0.000495442
-0.00659352
-0.00500761
-0.00014071
-0.0102295
-0.000429352
-0.000659672
-0.000268779
-0.00285268
-0.000993687
-0.0046448
-0.000557378
0.000597645
-0.0290264
-0.000663779
-0.00818465
-0.0114036
-0.0467441
-0.0013418
-0.000658819
-0.00192174
0.00408019
-0.00383675
-0.0466574
-0.00136194
-0.00207691
-0.00908527
-0.00130666
-0.00199347
-0.0394283
-0.00113208
-0.0345069
-0.000305024
-0.0289004
0.000987032
-0.00329031
-0.0634699
-0.00392179
-0.00012135
-0.0751983
-0.000917597
-8.73679e-05
-0.00281578
-0.00070071
0.000440892
-0.000121307
-0.00762501
0.000783625
-0.00214241
-0.000532699
-0.00539083
-0.0149464
-0.00587592
-0.00669649
-0.00171335
-0.027671
-8.63715e-06
-0.00102007
-0.00230585
-0.00388909
0.00532117
-0.00175239
-0.002113
-0.00126764
-0.000827482
-0.000730036
-0.0143051
-0.000644861
-0.000121487
-0.000433775
-0.0020191
-0.000526263
-0.000315897
-0.00367014
-0.000351263
-0.0716723
-0.00243727
-0.00965287
0.00537517
-0.0125574
-0.00231609
-0.000935698
-0.00246947
-0.000136194
-0.00451283
-1.56969e-06
0.00476033
-0.00930885
-0.00202795
-0.00517809
-0.000752545
-0.00288701
-0.0120094
0.00140426
-0.0019922
-0.0008397
-0.00237636
-0.00485723
-0.000187688
0.00251995
-0.000626856
-0.000923151
-0.000182942
-0.00227681
-0.00228972
-0.00129096
-0.0386414
0.000356008
0.00340885
-0.00363879
-0.0299333
-0.0011757
-0.000522552
-0.00947177
-0.00193867
0.0029003
-0.00674035
-0.000889647
-0.000762461
0.00255774
-0.00681069
-0.00260456
-0.000556921
-0.00646933
-0.0249328
-0.00276974
0.00177629
-0.000407311
-0.00139453
-0.0140825
-0.00222307
-0.00194847
-0.000520229
-0.000766039
-0.000952521
-0.00167927
-0.000642664
-0.000147091
-0.00087416
-0.00163535
0.00376473
0.00253153
-0.000338312
-0.00381383
-0.00560707
-0.00109379
-0.00713429
-0.00125879
-0.00734151
0.00295747
-0.00136439
0.00129611
-0.0025431
-0.000927887
-0.0078597
-0.000635737
-0.0267214
-0.00420695
-0.00740371
-0.00908606
0.00235115
-0.00249239
-0.00164942
-0.000307589
-0.014497
0.000352246
-0.0116982
-0.000644538
-0.00056842
-0.00557792
-0.002372
-0.000697544
-0.0184332
-0.00171015
-0.00066357
-0.00328621
-0.00071897
-0.000842675
-0.0439506
-0.000615025
-0.000689391
-0.000616707
0.0054416
-0.00349728
-0.000650636
-0.00672421
-0.000540139
-0.00051786
-0.000642147
-0.00162123
-0.00258193
0.00151066
-0.000708502
-0.000671976
-0.000118496
-0.000648894
0.00362198
-0.0151776
-0.0126113
-0.00589646
-0.0289827
-4.37631e-05
-0.0354999
-0.0132454
0.0026337
-0.0121391
-0.0761491
-0.000773444
-0.000647053
-0.00064573
-0.0036974
-0.00169759
-0.0247122
-0.00290547
-0.0027554
-0.0345885
-0.000692502
-0.0166225
-6.71794e-05
-0.00684901
-0.0017245
-0.00060682
-0.00069495
-6.44695e-05
-0.000611623
-0.00080714
-0.0120533
-0.00502547
-0.000565777
-0.00137333
-0.000191275
-0.000782616
-0.0501526
-0.0181671
0.00348539
-0.0723588
-0.00240506
-0.0390109
0.0023151
-0.00197195
-0.00305799
0.00135928
-0.039638
-0.0828705
-0.008086
-0.0169512
-0.0656218
-0.0156855
-0.000646181
0.000143416