/*--------------------------------*- C++ -*----------------------------------*\
| =========                 |                                                 |
| \\      /  F ield         | OpenFOAM: The Open Source CFD Toolbox           |
|  \\    /   O peration     | Version:  v2012                                 |
|   \\  /    A nd           | Website:  www.openfoam.com                      |
|    \\/     M anipulation  |                                                 |
\*---------------------------------------------------------------------------*/
FoamFile
{
    version     2.0;
    format      ascii;
    class       surfaceScalarField;
    location    "150";
    object      phi_0;
}
// * * * * * * * * * * * * * * * * * * * * * * * * * * * * * * * * * * * * * //

dimensions      [0 3 -1 0 0 0 0];
oriented        oriented;


internalField   nonuniform List<scalar> 
26997
(
0.469363
-0.251397
-0.217965
-0.324756
0.157243
0.167513
-0.150047
0.0238785
0.126169
0.151209
-0.136616
-0.0145932
-0.234716
0.318844
-0.0841273
0.064451
0.0666229
-0.131074
0.300347
0.0551072
-0.355454
-0.35774
-0.0301112
0.387851
0.253538
-0.150445
-0.103093
0.188474
0.280889
-0.0872968
-0.237459
0.169928
-0.0829643
-0.086964
0.0130393
0.118453
-0.131492
-0.208508
0.199333
0.0091746
-0.186043
0.177154
0.00888884
0.210176
-0.343336
0.133161
0.0534544
-0.0324212
-0.0210332
-0.406685
0.540616
-0.133931
-0.0788856
0.189647
-0.110762
0.183119
0.18176
-0.364879
-0.0432272
0.192788
-0.149561
0.555398
-0.555398
-0.108071
-0.0738883
0.181959
-0.0908045
-0.13034
0.221144
-0.559078
0.330546
0.228532
-0.13235
-0.325131
0.457481
-0.32917
-0.0285697
0.268052
-0.400363
0.132311
0.30192
-0.126615
-0.175305
0.421541
-0.322152
-0.0993885
-0.19102
-0.292399
0.122238
0.336863
-0.459101
0.384887
-0.22834
-0.156547
-0.359731
-0.199347
0.398355
-0.181211
-0.217144
-0.355685
0.16557
0.190116
0.121849
-0.430176
0.308327
0.529563
-0.218261
-0.311302
0.389352
-0.28384
-0.105511
0.034912
0.135016
0.116355
0.137183
-0.229836
0.105028
0.124808
0.329271
-0.502949
0.173679
0.114962
-0.193848
-0.381032
0.172683
0.208349
0.278598
-0.449837
0.17124
0.0331576
0.38908
-0.422238
0.294772
-0.21165
-0.0831215
0.48531
-0.496605
0.0112947
-0.228248
0.411367
-0.267242
0.462479
-0.195236
0.0254695
0.0279848
0.033047
0.452263
0.238918
-0.38498
0.146061
0.466684
-0.188086
-0.239176
0.384318
-0.145142
0.27615
-0.452508
0.176359
-0.0522383
0.419493
-0.367255
0.2069
0.191455
-0.421701
0.182525
-0.480676
0.365096
0.11558
0.320023
-0.499647
0.179624
0.381102
-0.530151
0.149049
0.17117
0.123238
-0.294408
0.351858
-0.522637
0.170779
-0.153804
0.464578
-0.310774
-0.269752
0.465447
-0.195696
0.319708
-0.109532
-0.100719
0.10306
-0.00234141
0.473234
-0.134852
-0.338382
0.161958
-0.148918
0.0956498
0.0555595
-0.326116
0.236072
0.0900441
-0.00483338
-0.145611
0.362535
0.110699
-0.41814
0.177982
0.240157
0.0457556
0.032139
-0.0778947
0.247791
-0.0794778
-0.168314
0.135938
-0.0515309
-0.0844072
-0.291245
-0.0732588
0.364504
-0.213638
0.170411
0.446847
-0.328423
-0.118423
0.0498102
-0.284527
0.564322
-0.220242
-0.344081
-0.492176
0.435213
0.0569634
-0.173325
-0.307351
0.146537
-0.447757
0.30122
0.326248
-0.155077
-0.391972
0.39065
0.00132123
0.0916242
-0.0458686
0.306982
0.25734
-0.38965
0.48373
-0.0940803
-0.0941658
-0.390802
-0.00116963
-0.162904
0.158071
-0.0950427
-0.160309
0.255352
0.0503764
-0.115027
0.0646501
-0.325837
0.273599
-0.168188
0.242133
-0.0739447
-0.0560536
0.0391399
0.0169137
0.247581
-0.381217
0.133636
0.306475
-0.475163
0.168688
0.303344
0.118197
0.443543
-0.17549
-0.519659
0.242441
0.277218
0.408005
-0.131855
-0.52293
0.407951
0.114979
0.512719
-0.229656
-0.283063
-0.331109
-0.146777
0.477885
-0.325562
0.143201
0.182361
-0.000434721
-0.0491024
0.0495371
-0.324669
0.238665
0.0860032
-0.0328559
-0.0928828
-0.00783578
-0.117976
-0.0586075
0.176584
0.294905
0.148637
0.136383
0.111409
-0.0476359
0.21068
-0.163044
-0.215683
0.124878
0.612532
-0.3039
-0.308632
0.340423
-0.230597
-0.109826
0.295898
0.316634
0.175126
-0.222762
0.519689
-0.382911
-0.136778
0.0598816
0.312165
-0.372046
-0.0621478
0.186831
-0.124683
-0.199987
0.137839
-0.361003
0.518544
-0.157541
0.390837
-0.368011
-0.0228257
-0.199454
0.333863
-0.134409
0.411805
-0.111458
-0.378121
0.168599
0.209523
-0.466445
0.337988
0.128457
0.425718
-0.178136
0.166837
0.21805
0.446835
-0.15193
0.375251
-0.135359
-0.239892
0.0781852
0.057753
0.455137
-0.0642998
-0.559941
0.260318
0.299623
-0.403656
0.215279
0.188377
0.187111
0.153313
-0.207321
0.0867186
0.120602
0.461557
-0.293781
-0.167776
-0.283203
-0.195832
0.479035
-0.174132
0.252635
0.208922
0.431811
-0.309962
-0.465667
0.179219
0.286448
-0.0390194
0.171978
-0.438385
0.266407
0.21824
-0.0777901
-0.14045
-0.305124
-0.254817
-0.0684744
0.0220581
0.0464163
-0.128308
0.0780108
0.0502969
-0.291548
-0.174119
0.267837
-0.382908
0.115071
0.242026
-0.368767
0.126741
-0.097133
-0.0311747
0.117662
-0.235638
-0.400349
0.278088
0.122261
0.479128
-0.357676
-0.121451
-0.0286296
0.0702057
-0.0415761
0.445275
-0.116004
-0.134869
-0.243253
-0.168766
0.444097
-0.275331
0.285243
-0.215588
-0.069655
0.284142
-0.314254
-0.0764277
0.0314069
0.0450208
0.385226
-0.117389
-0.476358
0.190799
0.285559
-0.472514
0.360781
0.111733
0.252486
-0.427062
0.174576
-0.090448
-0.13937
0.229817
-0.488329
0.466318
0.0220105
0.307848
-0.373158
0.0653098
-0.513612
0.340287
0.516895
-0.419211
-0.0976846
0.125037
0.259281
0.245556
-0.216243
-0.0293126
0.455349
0.0643403
-0.0376264
-0.352024
0.346566
0.17033
0.0658724
0.0479288
-0.113801
-0.266641
0.102947
0.163694
-0.134687
0.40091
-0.266223
-0.351293
0.117806
0.233487
-0.0643775
-0.156067
0.220445
-0.183221
-0.078997
0.262218
-0.475902
0.532175
-0.0562732
0.313602
-0.0715756
-0.129974
-0.136667
0.122055
-0.0561829
0.436907
0.0107101
-0.447618
0.190656
0.288472
-0.0364664
0.0946976
-0.0582312
-0.104015
0.0675486
0.132604
0.221232
-0.353837
-0.258766
-0.14489
-0.423579
0.153827
0.425422
-0.296803
-0.128619
0.0369159
-0.205104
-0.0455675
-0.0308602
0.150918
-0.209526
-0.438764
0.198836
0.239928
0.166144
-0.102302
-0.0638423
-0.356502
0.166723
0.189779
-0.0236174
-0.112999
0.0358376
-0.112302
0.0764648
-0.0844796
-0.332543
0.417022
0.383312
-0.130826
0.095285
0.0708593
-0.0664644
-0.442188
0.357708
-0.163111
0.00686462
0.156246
0.40743
-0.192151
0.210761
0.0840108
0.341375
-0.102456
0.218654
0.0949482
0.407533
-0.198756
-0.208778
0.329944
0.116903
0.235993
-0.530461
0.294468
0.200276
-0.0396088
-0.160667
-0.459958
0.411921
0.0480374
0.385151
0.0517562
0.504618
-0.251983
0.385894
-0.0658712
-0.387292
0.202407
0.184884
-0.39044
0.535539
-0.145099
-0.463073
-0.00267343
0.465746
0.444624
-0.419811
-0.0248125
-0.638073
0.38097
0.257102
0.312104
-0.444454
-0.274744
-0.363329
-0.0640946
0.0191156
0.044979
0.515299
-0.279306
0.286907
0.228392
0.339023
-0.475297
0.136274
0.171549
-0.454068
0.282519
0.099176
0.0355371
-0.134713
-0.362986
0.209182
-0.161298
-0.0472092
0.396305
0.0483185
0.211869
0.292749
-0.435114
-0.0248441
-0.605946
0.285468
0.320479
0.085041
-0.159108
0.0740671
-0.310049
0.0142243
-0.30547
-0.0744987
0.13895
-0.236443
-0.294017
0.182082
0.225451
0.431947
-0.257033
-0.174915
0.0500109
0.11796
-0.167971
-0.169392
-0.510633
0.349274
0.161359
0.207901
0.199529
-0.19499
0.340119
-0.145129
0.171669
0.260278
0.161779
-0.256821
0.269641
-0.167823
-0.101819
0.131925
0.137717
-0.23616
0.171782
0.346599
-0.54599
0.199391
-0.310933
-0.199701
-0.0644887
-0.215275
0.279764
0.254447
-0.174574
-0.0798726
0.394123
-0.109981
-0.384096
0.249409
0.473195
-0.193997
-0.279197
0.435271
-0.403379
-0.0318911
-0.216736
-0.222028
0.208779
0.0764633
-0.306222
0.42846
0.446936
-0.352149
-0.0947869
-0.288196
0.455602
-0.167406
0.137583
-0.404826
-0.324137
-0.16804
-0.163497
0.32074
0.130077
-0.0797003
0.280908
0.130897
0.429386
-0.282849
0.124994
0.00506117
-0.130055
-0.222866
0.126794
-0.452522
0.0915188
-0.133097
0.0636599
0.0694375
-0.0854255
0.135436
-0.394945
0.464857
-0.0699118
0.205311
0.0635408
-0.268852
0.18084
-0.511949
-0.344947
0.494276
-0.149328
-0.193996
-0.161689
0.0191265
-0.223699
0.204573
-0.617383
0.313483
0.41892
0.136479
0.468322
-0.393539
-0.0747827
-0.240639
-0.373704
-0.243679
0.0557918
0.198655
0.0776202
-0.197177
0.119557
0.218671
-0.350676
0.132006
-0.112218
0.0592651
0.0529527
0.271618
0.117734
0.357677
-0.36229
0.00461288
0.317257
0.129679
-0.196072
0.0178025
0.17827
0.411364
-0.19995
-0.211415
-0.165639
0.472115
-0.094425
0.299736
-0.062582
-0.234329
0.296911
0.320292
-0.26041
0.0440087
-0.239158
0.195149
-0.271809
0.38758
-0.115771
0.406045
-0.125137
0.476994
0.00556215
-0.482556
-0.471768
0.216556
0.255211
0.161539
-0.0662541
-0.0550866
0.107612
0.327659
0.163495
-0.191151
0.0276553
0.27916
-0.153614
-0.125546
-0.0370675
0.149187
0.315076
0.151608
-0.270591
-0.201177
-0.302275
0.239693
-0.0137663
-0.136281
-0.447051
0.235699
0.211352
-0.047601
-0.0647015
-0.335076
-0.187854
0.362817
-0.512453
0.149636
-0.422119
0.42233
-0.00021112
-0.408591
0.196809
0.211782
-0.00879655
0.133791
0.136025
-0.392853
0.256828
-0.12024
0.0726386
-0.259854
0.112452
0.147402
0.208477
-0.367365
0.158887
0.215137
-0.379141
0.164004
0.372006
-0.153336
0.192186
-0.148177
0.0828095
0.0787296
-0.134887
0.072624
-0.200738
0.128114
-0.195665
-0.129898
-0.131389
0.0713411
0.0600482
-0.209597
0.297687
-0.0880903
-0.320261
-0.10826
0.428521
-0.30422
-0.215439
0.299489
-0.0907101
0.443423
-0.500989
0.0575666
0.152464
-0.0532876
0.0845412
-0.248008
0.163466
-0.207672
0.165016
0.0426561
0.0674191
-0.17549
-0.22868
-0.174431
-0.492922
0.291999
0.200923
-0.0252071
-0.170865
-0.164696
-0.255764
0.420459
0.247029
-0.385679
0.13865
-0.000208058
0.381179
-0.127363
-0.240944
0.373549
-0.373913
-0.159922
0.474998
-0.0501824
-0.348549
0.398731
-0.272778
-0.110995
0.383773
0.180186
-0.278501
0.0983146
0.449022
-0.0934937
-0.355528
-0.462783
0.262265
0.200518
-0.162267
-0.225025
-0.0286181
-0.0515978
0.0802159
0.394301
-0.179164
0.439227
-0.100204
0.0234518
-0.430136
0.441689
-0.318001
-0.123688
-0.0511518
0.0923229
-0.376835
0.489971
-0.113137
0.250436
0.0972651
-0.347701
0.140701
-0.00400907
-0.136692
-0.380949
0.267477
0.113472
-0.555786
0.178952
0.309499
-0.135044
-0.174455
-0.214204
0.0724982
0.141705
0.11592
0.024781
0.00197289
0.190815
-0.0532041
0.351628
0.138344
-0.2343
0.168603
0.0656968
0.0358778
-0.183311
0.147433
0.0332629
-0.205979
0.172716
-0.497532
0.192991
0.304542
-0.071632
0.146453
-0.0748208
-0.398303
0.469157
-0.0708541
0.475008
-0.356123
-0.118886
-0.331069
0.280887
-0.152015
0.023832
0.128183
0.348974
0.126035
-0.349731
0.504235
-0.154503
-0.200689
-0.115508
0.429087
-0.313579
-0.133775
0.167038
-0.439583
0.458956
-0.0193728
-2.78025e-05
-0.475874
-0.16111
-0.165006
-0.47808
0.346233
0.131848
0.306434
-0.421942
0.2224
0.318216
0.483423
-0.190095
-0.293328
0.501171
-0.27896
-0.222212
0.0329519
0.410471
-0.382432
0.415479
0.0225622
0.0587511
-0.0813134
0.100473
-0.260782
0.120709
0.265389
-0.386098
0.129257
-0.439604
0.310347
-0.240366
0.0571457
0.0370121
-0.459131
0.0975142
-0.479946
0.488008
-0.224813
-0.263194
0.214519
0.273489
0.468287
-0.314607
-0.15368
-0.489814
0.0915119
0.268426
0.0292612
0.314411
-0.505431
-0.545089
0.252689
0.34401
0.0210694
-0.365079
0.0671533
0.15346
-0.220614
0.413193
0.0361145
-0.449308
-0.0227807
0.380457
0.20291
0.298261
-0.428895
0.501118
-0.0722226
-0.400285
0.20153
-0.396058
0.123279
0.160496
-0.0275684
-0.132927
0.0777607
-0.106907
0.0291468
-0.11248
0.33777
-0.22529
0.0169216
-0.0592369
0.0423154
0.151081
-0.127202
0.0376227
0.145856
-0.183479
-0.15249
0.190112
-0.100025
-0.230318
0.330343
-0.213374
-0.262983
0.197108
-0.0336128
-0.176613
-0.079819
-0.134385
-0.455525
0.0650845
-0.0533419
0.397352
-0.231635
-0.119658
0.34217
-0.0917338
0.369434
0.0437595
-0.359102
0.465061
-0.10596
0.291061
-0.207899
-0.0831622
-0.309188
0.464355
-0.155167
-0.264057
-0.150589
0.414646
-0.269963
-0.130322
-0.284475
-0.178309
0.404493
0.0638292
-0.49936
0.195668
0.303692
0.46626
-0.133063
-0.333197
0.115759
-0.150847
-0.0351955
0.132501
0.0709023
0.167358
-0.23826
-0.25418
-0.117866
0.335823
-0.382112
0.0462881
0.0380409
-0.27726
0.239219
-0.464982
0.348425
0.116557
0.0654062
-0.309021
0.243614
0.295257
-0.134292
-0.160965
-0.208789
-0.304823
0.148593
-0.0635524
-0.315391
0.322097
0.146189
0.295369
-0.473644
0.178275
0.21601
-0.380706
0.270359
-0.19661
-0.073749
0.338964
-0.214244
-0.12472
-0.10858
-0.301244
0.409824
0.103321
0.304684
0.26515
0.146214
-0.131898
-0.286241
-0.261377
0.433355
0.146455
0.0140402
-0.139175
-0.293708
0.432883
0.305651
-0.139938
-0.165713
-0.439598
-0.00853798
0.448136
-0.0364101
-0.358535
0.0821037
-0.350779
0.268676
0.355832
-0.378613
0.238409
-0.15664
-0.0817693
-0.541775
0.305332
0.1996
0.139363
-0.3705
0.134937
0.235564
0.199253
-0.183263
-0.0159906
0.444312
-0.252866
-0.191446
0.251239
-0.369668
0.118429
-0.151982
-0.0553385
0.130138
-0.348372
0.218234
-0.157467
0.230872
-0.0734052
-0.151986
-0.238949
0.410499
-0.194253
-0.0408385
0.235092
0.345991
-0.263888
-0.439839
0.151643
-0.407716
0.248381
-0.188171
-0.101595
0.453453
0.00751783
-0.447101
-0.136438
-0.41896
-0.142917
-0.0182286
0.161146
-0.126263
0.0620422
0.064221
-0.336762
0.224282
0.113834
-0.141301
0.133399
0.00790154
-0.333764
0.138774
-0.0989759
0.317629
0.225811
0.0930325
-0.263535
0.0708313
0.167578
-0.0420365
-0.345692
-0.10683
0.290596
-0.160457
-0.250206
0.315612
0.390543
0.139021
0.386175
0.126544
-0.00493839
-0.147077
-0.283344
-0.0487398
0.332083
-0.0249408
0.102701
-0.0530423
-0.181257
-0.457296
0.322351
0.134945
-0.0909972
-0.0503036
0.169417
-0.387678
-0.0406386
-0.389157
0.429796
-0.34439
0.0610461
-0.342516
0.155352
0.187164
0.291147
0.15295
0.069065
0.0633256
-0.132391
-0.166492
0.438003
-0.271511
-0.0626033
0.137843
-0.332096
0.0526007
0.146653
0.416487
-0.121118
-0.132286
0.483914
0.238795
-0.167335
-0.0714593
-0.215807
0.431817
0.0527568
0.124397
0.254683
-0.39304
0.138358
-0.289706
-0.15905
0.448757
-0.127929
0.255313
-0.538516
-0.488409
-0.126125
0.0157496
0.110375
0.0414139
-0.113046
-0.266119
-0.110734
0.376853
0.528243
-0.267925
0.103659
-0.310375
0.206715
0.147474
-0.0698542
0.056973
-0.272561
0.524342
-0.217181
-0.307162
-0.26087
0.395917
-0.135048
-0.0716773
0.0430477
0.117677
0.202031
0.250637
0.267907
-0.145894
0.494868
-0.164991
-0.0949375
0.259928
0.110815
-0.495625
0.446053
-0.431027
-0.0150261
0.018881
0.247108
-0.265989
-0.297175
-0.0962587
0.393434
0.317271
0.166152
-0.187381
0.02427
0.249078
-0.349103
0.0672292
-0.224696
0.120686
0.254565
0.0136856
-0.321257
0.307571
0.517063
-0.180199
-0.0813587
0.261545
0.394652
-0.139969
-0.303462
-0.178002
0.481464
-0.526731
0.370788
0.155942
-0.407695
0.0569474
0.350748
0.0661108
0.261348
-0.16382
-0.0975275
0.162756
-0.289371
-0.164529
0.0427177
0.469594
-0.0884925
-0.138985
-0.211691
-0.240572
0.105748
0.134824
0.348375
-0.158892
-0.189483
0.583307
-0.345338
-0.23797
0.22689
0.356417
-0.491717
0.166586
0.0594674
0.0305172
0.288476
0.428526
-0.28103
-0.147496
0.161943
-0.225963
0.0640201
0.530995
-0.304412
-0.226583
0.329521
-0.130547
-0.198975
0.170129
0.0766698
-0.246799
-0.415555
0.27638
0.353876
-0.0183419
-0.335534
-0.228157
-0.313618
-0.189833
0.0541017
0.135732
0.0936655
0.241628
-0.335294
-0.275421
-0.254729
-0.303864
0.453598
-0.149735
-0.220611
0.333519
-0.112908
0.472565
-0.0579123
-0.414653
-0.444857
0.0423408
0.402516
0.448796
-0.45816
0.00936409
-0.17626
0.15252
0.0237402
-0.252007
0.345673
-0.147238
0.207161
-0.522984
0.315823
0.158685
0.102663
0.34197
0.134879
-0.476849
0.154414
-0.244862
-0.0551272
0.0776895
0.125581
0.298006
-0.423587
0.467288
-0.113411
-0.346753
-0.0609415
0.145175
0.0334708
-0.480437
0.116416
0.364022
-0.170865
-0.197902
-0.319301
0.0986897
0.264816
-0.25113
0.0311292
-0.0585381
0.0106785
-0.154398
0.14372
-0.127026
0.424998
-0.3714
-0.0535984
0.401875
-0.149646
-0.252228
0.219702
0.311293
0.44496
-0.313061
-0.131899
0.362136
-0.113058
0.177471
0.303259
-0.48073
0.136076
-0.00528994
-0.130786
0.436757
-0.0172644
0.356239
-0.23553
-0.501076
0.373504
0.127573
-0.185624
-0.28689
-0.418005
0.112676
0.305329
-0.0739822
0.336247
-0.307932
0.488773
0.0163585
0.130193
-0.146552
0.400398
0.0765956
0.294931
-0.431825
0.136893
-0.526888
0.336794
0.155488
0.246387
0.0536209
-0.0366993
0.146409
0.0718309
-0.154616
0.311105
0.117421
-0.137688
-0.307168
0.194913
-0.41072
0.0751298
-0.193416
0.118286
0.0842028
0.151015
0.390114
-0.254089
0.0561414
-0.415243
-0.20324
0.381222
-0.0432922
-0.319727
0.131134
0.198388
-0.0222395
-0.0748935
-0.0668632
0.404851
-0.223869
-0.0954318
-0.224839
0.0878655
-0.119391
0.0315251
-0.130912
0.477478
0.0865168
-0.290223
0.203706
0.356893
-0.233873
0.252754
0.187995
-0.00751338
0.433086
-0.138154
0.521873
-0.305317
-0.301068
0.444033
-0.142965
-0.044517
-0.40532
-0.12352
0.0588797
0.0646407
0.122947
-0.0563237
-0.151881
-0.278403
-0.248314
-0.15205
-0.416439
0.472434
-0.055995
-0.450569
0.225851
0.224719
0.224251
-0.0623081
0.456314
-0.490494
0.198945
-0.121502
0.126563
-0.0462297
-0.0577852
0.284583
-0.190336
-0.094247
0.0273675
0.102148
-0.129516
0.293045
0.227576
-0.0331045
0.388937
0.0535062
-0.202883
0.149377
0.153098
-0.465551
0.312453
-0.196566
-0.254003
0.156569
-0.0775779
-0.078991
0.141655
-0.439678
0.298023
0.269458
-0.404816
-0.303216
-0.0611555
0.364371
-0.355257
-0.0777003
0.440518
0.108384
0.186873
0.0612965
0.0952724
0.0480808
-0.11469
0.0666094
0.151225
-0.249914
0.0986891
-0.348731
0.133512
0.215218
-0.0525776
0.413358
-0.235671
0.0962226
0.139448
-0.125609
-0.198616
0.0428514
-0.407128
0.364276
-0.124217
-0.18524
0.267181
-0.0819409
-0.373671
0.247931
0.12574
-0.102155
0.0559257
0.0654306
-0.253041
0.18761
0.152233
0.312122
-0.252763
-0.0976434
-0.09219
-0.189066
0.0906484
0.0984178
-0.152043
0.168402
0.100284
0.170075
0.133298
0.238708
-0.360964
-0.119473
-0.0960384
-0.0930279
0.0527962
-0.122811
0.0700152
0.108377
0.316621
-0.0894474
0.367536
-0.138825
-0.0435182
0.131384
0.182663
-0.264022
0.439871
-0.286773
0.112157
-0.200692
0.287209
-0.477782
0.459893
0.0178887
0.101775
-0.358041
0.256266
0.309217
-0.349856
0.0862917
-0.32704
0.240748
-0.129922
0.378056
-0.44492
-0.072674
0.255337
0.305958
-0.329412
0.0990934
-0.0354699
0.23507
-0.222354
0.417267
-0.291101
-0.231536
-0.0665734
0.118829
-0.0522557
0.354014
-0.185416
-0.154469
-0.323611
0.352969
0.168903
0.479855
-0.0072896
0.199585
-0.146079
-0.305062
0.442587
0.00870247
-0.45129
0.142242
-0.114874
-0.224253
0.0567927
0.16746
-0.0614669
0.148185
0.252494
0.132732
-0.351955
-0.180309
-0.0759347
0.256244
0.0409825
0.0503849
-0.0913674
0.447689
-0.127398
0.0923934
0.226214
-0.318608
-0.0709903
0.342448
-0.271458
0.0995402
0.25652
-0.35606
-0.367618
0.0361525
0.406435
-0.12164
0.0386759
-0.448736
0.172648
0.276087
-0.0168495
-0.276932
-0.148566
0.159245
0.182442
-0.0802652
-0.102177
-0.0401213
0.415727
-0.258345
-0.157382
0.153959
-0.0852127
-0.0687463
0.175017
-0.139479
-0.185494
-0.263241
-0.150772
0.209619
-0.0588464
0.305285
-0.149932
0.229577
-0.300567
0.245832
-0.180401
0.261211
-0.361257
-0.296091
-0.23064
-0.0996447
0.350884
0.134786
0.0501057
0.130244
0.178549
0.26914
0.253526
0.162202
-0.390089
0.069828
0.179761
0.125524
-0.248634
-0.11936
-0.176678
0.296038
0.288362
-0.430707
0.142345
-0.0614781
0.392797
-0.140303
-0.228825
0.315117
-0.0421691
0.420226
0.163424
0.266851
-0.328007
-0.276778
0.080348
0.19643
-0.361183
0.227641
0.133542
-0.47586
0.477712
-0.162906
-0.314807
-0.15886
-0.329469
-0.407735
0.16705
0.240684
-0.504983
0.19705
0.300086
-0.0400143
0.0994817
-0.00118624
0.371286
-0.3701
0.323146
0.10984
-0.432987
-0.170117
-0.353753
0.115275
0.238479
0.311957
-0.233431
-0.0785259
0.00262152
-0.384341
0.381719
0.430441
-0.142079
0.0865628
-0.0455803
-0.220725
-0.079176
0.249305
-0.384737
0.155081
0.292625
-0.259197
-0.0334279
0.133472
0.254108
0.406062
0.039213
0.156769
0.191292
-0.413646
-0.438272
0.147924
0.290348
0.306944
0.147374
-0.454318
0.303413
0.354356
-0.253125
-0.101232
-0.451008
0.342428
0.255465
-0.10424
-0.330624
0.471127
-0.140502
0.121498
-0.240858
-0.0585858
0.106667
-0.26716
-0.221254
0.488415
0.393818
-0.148945
-0.244873
-0.0608872
-0.359798
0.420686
0.405057
-0.295656
-0.1094
0.170765
-0.231165
0.0604005
0.424948
-0.295691
0.231018
0.123338
0.398231
-0.27375
-0.124481
-0.460039
0.195984
0.264055
0.301962
0.233576
0.258654
-0.0968751
0.146794
0.0356487
0.257846
-0.331828
-0.160387
0.440727
-0.28034
0.234307
-0.386126
-0.242341
-0.217699
0.154621
-0.192147
0.0375262
0.439377
-0.0348838
0.250236
0.143582
0.306141
0.103724
-0.409865
-0.180206
-0.097319
0.277525
0.392636
-0.158329
0.447959
-0.141015
-0.214507
0.306901
-0.153422
0.0112438
0.0423771
-0.178848
-0.344137
-0.487947
0.394453
0.0389774
0.107165
0.228071
-0.335236
0.152165
-0.433117
0.280952
-0.457891
0.0289952
-0.313035
-0.152516
-0.198011
0.0445759
0.153435
-0.0293673
-0.118674
0.148042
-0.217814
0.458703
-0.240889
-0.324403
-0.0938111
-0.206521
0.300332
-0.0530211
-0.0591967
-0.219209
0.337015
-0.0518683
0.0811824
-0.0293142
0.141826
0.288386
-0.430212
0.235285
-0.135
-0.161491
0.018574
0.0774586
-0.257768
-0.262842
0.156151
0.106691
-0.287645
-0.0595128
0.347158
-0.135212
0.126416
0.0446588
0.0722303
-0.116889
-0.289828
0.195403
-0.588364
0.139313
0.449051
0.272787
0.0198376
0.176478
-0.157351
-0.350242
-0.100646
0.450888
0.189081
0.305195
-0.180261
0.117645
0.223729
0.338439
-0.335818
-0.111595
0.317905
-0.20631
-0.0291656
0.418246
0.379968
0.0594092
-0.325927
0.221036
0.104891
-0.0314613
0.0902125
0.320697
-0.221157
0.146736
-0.0263763
-0.12036
0.0202034
-0.0288038
0.192941
-0.22841
-0.143937
0.0720581
0.071879
0.339915
-0.0493194
0.397432
0.0688287
-0.264511
0.0928075
0.171703
-0.0887148
0.257317
0.443674
-0.173598
-0.270076
0.118266
0.0229335
-0.1412
-0.00173811
-0.156357
0.158095
-0.437175
0.147468
0.457535
-0.427301
0.157742
0.269559
-0.0325952
-0.0100644
0.0426595
0.293489
0.146383
0.145293
-0.372909
0.022667
-0.121462
0.0588183
0.0626434
0.137279
0.28936
-0.42664
0.357342
-0.110313
-0.142695
-0.250351
0.393046
-0.249867
0.376368
-0.126502
-0.177976
-0.07904
0.257016
-0.151581
-0.14364
0.295221
0.140396
-0.0221296
-0.314891
0.43778
-0.122889
0.0926645
0.14262
0.221691
-0.342943
0.121252
-0.347153
0.460323
-0.11317
-0.164709
-0.026442
0.185752
-0.063831
-0.0952771
-0.389058
-0.070223
0.459281
0.384943
-0.163711
0.0136953
-0.0655636
0.242435
0.0597932
-0.302228
0.323848
-0.130908
0.473892
-0.127293
0.171682
0.0884029
-0.260085
-0.111097
0.285039
-0.173942
-0.143909
-0.246535
0.437191
0.0735492
0.0525679
-0.126117
-0.0484745
-0.107873
0.156348
0.0673907
-0.456449
-0.0295214
0.188207
-0.115598
-0.289251
0.404849
-0.0102047
-0.347746
0.286859
-0.25065
-0.237404
-0.0868076
0.324212
0.215494
0.124421
-0.0880612
0.12009
-0.0487491
-0.40405
-0.0892793
0.49333
0.0176246
-0.474273
-0.229548
-0.269812
-0.277628
-0.32917
-0.171819
0.145467
-0.395334
-0.0131634
-0.132976
0.14614
-0.0527143
0.207335
0.312652
0.0933315
-0.405984
-0.0680678
0.310503
-0.242141
0.297248
-0.0117036
-0.156119
0.0965386
-0.260932
0.164393
0.387755
0.0183072
-0.470497
0.483662
-0.0131649
-0.322845
0.372663
-0.105186
-0.0420052
0.21277
-0.270302
0.205814
-0.487592
0.333122
-0.237028
-0.436432
0.0989122
-0.429627
0.330715
0.124872
0.198977
-0.219481
0.106753
-0.155227
-0.0335558
-0.382883
-0.106945
-0.151708
0.235068
-0.0833603
-0.452972
0.302521
0.150452
-0.00544918
0.297549
-0.2921
0.0606856
0.0594046
-0.377113
-0.394319
0.282971
-0.108635
-0.174336
0.182916
0.100054
0.092497
-0.215885
0.123388
-0.0837383
0.429971
-0.275136
0.398267
0.0757091
-0.473976
-0.147898
-0.305075
-0.44531
0.130419
0.491864
-0.19361
-0.298254
-0.319942
-0.181134
0.235036
-0.240485
-0.503088
0.321077
0.182011
-0.0055655
0.451618
0.131925
-0.214237
0.405529
-0.0512689
0.110534
-0.143357
-0.266722
0.410079
-0.349007
-0.239357
0.478397
-0.402936
-0.0754604
-0.035076
-0.143797
0.178873
0.526428
-0.117527
-0.408901
0.373525
-0.106674
-0.0671973
0.111856
-0.154679
-0.0904073
0.245086
0.402261
-0.196832
-0.20543
-0.330356
-0.281819
0.474809
0.0975168
0.428912
0.122705
0.260852
-0.383556
-0.183142
-0.28184
-0.317892
0.494542
-0.17665
0.136185
0.0631477
-0.0378587
-0.281562
-0.0915952
-0.296617
-0.152797
0.414387
-0.478281
0.0638939
0.0791639
0.0438608
-0.164588
0.120728
-0.062582
-0.490681
0.22352
0.0311043
0.115632
-0.215432
0.0596818
-0.191806
0.132124
-0.346322
0.309559
0.0367628
-0.399663
0.14246
-0.144199
0.192396
-0.406633
0.290501
0.153172
0.11455
-0.460241
0.0280573
0.0441932
-0.0722504
0.124358
-0.377695
0.253337
-0.332114
0.386401
0.0874905
-0.0219984
0.362262
-0.340263
0.432403
-0.180392
-0.252011
-0.402026
0.206194
0.352353
-0.227995
-0.153934
-0.0959808
0.201459
-0.313054
-0.155212
0.257702
-0.418089
0.0161809
0.180927
0.150999
0.373344
-0.104236
0.212585
-0.0550048
-0.15758
-0.0156761
0.111326
-0.284873
0.196033
0.0888393
0.0793524
0.151912
-0.231264
-0.213259
0.0467129
0.166546
0.207899
0.119455
-0.327354
0.199865
0.0692992
-0.269164
-0.170639
0.135563
0.0936632
-0.134361
0.143494
-0.38807
0.244576
-0.401057
0.164263
0.236794
-0.0553414
-0.120919
-0.383597
0.450988
-0.175849
-0.311743
0.168587
0.233674
0.247076
-0.132147
0.0672368
0.0649098
-0.366515
-0.0674433
-0.330642
0.222401
0.108241
0.0916121
0.171729
-0.263341
-0.178836
-0.0280701
0.206906
-0.152984
0.378905
-0.225921
-0.341143
0.319145
-0.279967
0.40038
-0.120412
0.224806
-0.318617
0.043243
-0.0177734
-0.0783086
0.24999
-0.05187
0.0706582
-0.0187883
-0.0828367
0.195279
-0.112443
-0.00850496
0.329202
0.251806
0.11033
0.503829
-0.219476
-0.284353
-0.286184
0.196826
0.0893581
-0.216082
0.408478
-0.271906
0.429648
0.307284
0.140675
-0.220243
-0.279404
0.480273
-0.301053
0.170103
0.0424815
-0.177092
-0.208587
-0.0871006
0.165579
-0.0784781
0.217395
0.094562
-0.0382513
0.0747506
-0.0364993
0.308394
-0.100495
0.132745
-0.395589
0.262843
-0.286625
-0.29522
0.385283
-0.0900632
0.0964696
0.192119
-0.288589
0.1266
0.256712
0.151991
-0.0154819
-0.136509
0.116615
-0.296821
-0.485629
-0.019723
0.505352
0.312908
-0.102259
-0.210649
-0.371975
0.21899
-0.219483
-0.254187
0.47367
-0.465808
0.246324
-0.167514
0.251245
-0.0837315
-0.0660168
-0.273955
0.136215
0.296187
-0.329833
0.225847
0.103986
0.432889
-0.284966
-0.273202
0.0579265
-0.123629
0.0643511
-0.21903
-0.433786
0.303823
0.129963
-0.0348331
0.123436
-0.0886032
0.0171627
0.0260802
0.151478
-0.164641
-0.272064
0.397645
0.140718
-0.180327
0.173234
-0.252231
0.257244
-0.0996049
-0.157639
-0.0524658
-0.163051
0.215517
-0.228553
-0.172504
-0.156466
-0.186321
0.109123
0.203785
0.326286
-0.416067
0.0897809
-0.138026
-0.0611276
0.436901
-0.088737
-0.0700887
-0.123327
-0.160803
0.252416
-0.203487
0.21021
0.105313
-0.315523
0.0913518
0.165893
-0.290284
-0.15139
0.441674
-0.158521
-0.249214
-0.11888
0.0561715
0.0627084
-0.106325
0.409987
-0.303662
-0.143624
0.076624
0.0669997
-0.185878
-0.100306
-0.424776
0.182568
-0.107789
-0.0747793
-0.128933
0.44619
0.309105
0.192013
0.124955
-0.342769
0.00819131
-0.0407865
-0.394224
0.217131
-0.131971
-0.446934
0.378939
-0.235445
-0.101708
0.213821
-0.112112
0.504349
-0.315268
-0.125128
0.0584546
0.0666735
-0.122059
0.4282
-0.475706
0.157814
-0.487985
0.312082
0.175904
0.153903
-0.183424
-0.117842
0.387936
0.0783821
-0.240706
-0.113047
0.0568064
-0.196176
-0.533234
0.232074
0.301159
0.2358
0.121542
-0.510927
0.204754
0.306173
-0.0725522
0.141617
-0.171707
0.138111
0.0335953
-0.189152
-0.301341
-0.0730085
-0.0991148
0.320151
-0.0837219
0.256956
-0.42787
-0.301499
0.13569
-0.385594
0.249905
0.119123
-0.39909
-0.0112326
0.031436
-0.000361476
-0.199354
0.0885927
-0.330021
-0.203213
0.168045
0.269959
-0.0344812
-0.325249
-0.314444
0.44491
-0.130466
-0.176278
-0.334649
0.194709
-0.187496
-0.00721298
-0.149599
0.134003
0.0155956
-0.166784
0.145987
0.0207972
0.0998481
0.203652
-0.3035
-0.382305
0.117242
0.265064
0.342476
-0.505251
0.162776
0.01016
-0.138455
0.128295
0.379162
0.00723939
0.124011
-0.198431
0.0744207
-0.293511
0.194521
0.316335
-0.226214
-0.0901201
-0.50361
0.359574
0.144036
-0.245822
0.172673
-0.210069
0.0373955
-0.116682
0.373024
-0.256342
-0.236773
0.174376
-0.462022
-0.177071
0.436588
-0.259517
0.0417822
0.357808
-0.39959
0.50646
-0.296964
-0.209496
0.0123088
-0.154503
0.142194
-0.105027
-0.301397
0.127703
0.173695
-0.144794
-0.292868
0.437662
-0.467336
0.0654633
-0.0328496
-0.0326136
0.0656344
-0.193524
0.127889
0.0742185
-0.466708
-0.0707257
-0.0544024
-0.0729633
-0.0667374
-0.226773
0.449971
-0.123684
-0.317138
0.454473
-0.137335
0.0652581
0.125848
-0.191106
0.428602
-0.139673
-0.288928
-0.384575
0.143674
0.240902
-0.0600885
-0.0570902
-0.0865335
-0.453202
0.165951
0.287251
-0.353505
0.135798
0.217707
-0.193359
-0.551594
0.228538
0.323056
0.112618
0.221555
-0.334174
0.102895
0.079673
0.124396
-0.329361
0.204965
-0.0363682
0.103265
-0.389689
0.286425
-0.139863
-0.307471
0.447334
-0.0600616
-0.021235
-0.121004
0.14224
-0.239447
-0.312147
0.39285
-0.289585
-0.30182
0.0952995
0.154379
-0.417147
0.144526
0.272621
0.236277
-0.157305
-0.0789721
0.453778
-0.172385
-0.281393
0.157629
0.168314
0.275719
-0.191095
-0.100318
0.291413
-0.157172
-0.328457
-0.0109168
0.146992
-0.257736
0.162798
-0.0838094
0.309621
0.369632
-0.233943
-0.261907
-0.217388
0.0500389
-0.29129
-0.140535
0.286847
0.146238
-0.559431
0.240664
0.318767
0.087187
0.205482
-0.292669
0.441727
-0.0408172
-0.142593
0.392312
-0.249719
0.154537
-0.207003
0.0886129
0.166852
0.437636
-0.297393
-0.140243
0.325501
0.352036
-0.494408
0.142372
0.306703
0.121899
0.139151
-0.118033
-0.298128
0.416161
0.138912
-0.346544
0.207632
-0.202316
0.484842
-0.282525
0.170401
0.0918166
0.182273
-0.172511
-0.00976148
-0.327357
0.393321
0.0712571
0.0429658
-0.188374
0.145409
-0.276245
0.26774
-0.119052
0.370858
0.0632538
0.415143
-0.278153
0.148712
0.129441
0.411718
-0.124871
-0.172195
0.423686
-0.251491
0.158213
-0.178829
0.0206159
-0.555684
0.233525
0.322159
-0.16106
0.0499738
0.111086
-0.33062
0.475732
-0.145112
-0.303849
0.216861
0.0869873
0.120346
-0.0596603
-0.413896
0.298298
-0.0285092
-0.138275
0.405422
-0.46479
0.0593673
0.0285055
0.217326
-0.120614
-0.211833
0.332447