/*--------------------------------*- C++ -*----------------------------------*\
| =========                 |                                                 |
| \\      /  F ield         | OpenFOAM: The Open Source CFD Toolbox           |
|  \\    /   O peration     | Version:  v2012                                 |
|   \\  /    A nd           | Website:  www.openfoam.com                      |
|    \\/     M anipulation  |                                                 |
\*---------------------------------------------------------------------------*/
FoamFile
{
    version     2.0;
    format      ascii;
    class       volScalarField;
    location    "400";
    object      ddt0(epsilon);
}
// * * * * * * * * * * * * * * * * * * * * * * * * * * * * * * * * * * * * * //

dimensions      [0 2 -4 0 0 0 0];


internalField   nonuniform List<scalar> 
18649
(
-5.9147e-05
-1.07611e-11
0.000395366
1.09782e-08
4.53954e-11
-0.00141102
9.957e-11
4.47473e-12
5.38186e-05
-0.00301149
-9.31689e-11
-2.03088e-11
1.67768e-10
7.06644e-10
0.000527311
-1.08451e-10
-4.87814e-10
7.02885e-11
-0.000954163
-2.50569e-11
-2.34114e-11
0.000346548
0.000106677
-8.45107e-09
-0.00304858
9.57611e-05
-1.86615e-07
2.82869e-06
8.58033e-11
-0.00231215
-2.33383e-10
2.01647e-10
-5.77321e-10
-1.84516e-08
-1.4429e-10
-1.1557e-09
-0.000383778
1.41702e-08
-9.86224e-11
6.19167e-10
-0.00160754
-2.66396e-10
4.33157e-07
0.000172243
0.000141723
0.000235564
8.80471e-05
-1.17021e-08
7.21951e-11
-9.36549e-08
-5.85283e-10
9.43178e-05
2.10759e-11
-0.00135968
-3.08085e-10
9.36087e-08
0.0173209
7.00332e-11
1.84969e-12
0.000173444
2.7589e-11
1.19734e-07
7.8277e-11
0.00969913
-0.00166871
0.000222667
6.09453e-05
-3.56958e-09
0.000159425
0.000276998
1.36762e-05
-1.79223e-08
4.98466e-11
7.5265e-11
2.03535e-09
0.00022187
-6.69095e-05
-1.49215e-10
0.000661817
2.27269e-08
1.49357e-09
3.11416e-08
-0.00185989
-0.000978728
-6.32918e-11
6.52105e-07
6.60334e-09
1.0343e-08
5.66974e-08
0.00107692
0.000897272
2.40029e-07
-1.25344e-08
-5.00003e-08
4.07803e-10
-2.17116e-11
-3.75484e-09
2.42383e-07
0.000158363
5.04627e-11
-0.000908907
-4.12348e-11
3.486e-05
-1.4224e-11
6.08822e-05
7.66731e-05
-0.0019399
-0.0138541
4.4733e-07
3.74115e-11
-3.02365e-11
-1.47835e-08
1.26263e-08
-4.56534e-11
3.49818e-10
7.81703e-07
-3.34218e-09
-1.6559e-08
2.16906e-11
6.16547e-09
1.66306e-10
-1.97258e-08
5.45805e-05
-3.61994e-11
-1.07591e-10
-5.854e-10
0.00947959
-3.36636e-11
2.07815e-10
-1.49225e-10
2.06932e-10
0.00706046
2.29882e-07
3.62138e-07
-8.87705e-11
-0.00031247
1.97242e-05
-0.017573
3.59285e-05
0.000148451
-9.14693e-09
-9.65176e-11
-1.6033e-12
-5.11213e-10
4.31125e-05
1.01607e-10
1.36893e-10
1.21163e-07
6.8628e-05
2.3689e-10
0.000263612
-3.28768e-07
-1.30522e-10
4.47438e-11
-1.95673e-08
-6.30983e-08
2.77364e-10
-3.43039e-10
-1.80989e-11
0.000153835
-0.00129006
-4.41795e-05
2.34333e-10
7.09702e-05
-0.000532365
-1.69447e-11
4.16741e-07
4.50049e-05
-4.71896e-11
7.14526e-11
5.62323e-09
1.90677e-11
-5.62083e-11
-4.96521e-10
-9.2188e-08
-1.50324e-05
9.31639e-05
2.63205e-10
4.7506e-05
-0.00133889
5.4516e-11
0.000180953
-1.11857e-09
-2.45048e-10
-7.24326e-10
-9.38919e-10
-2.86766e-10
-1.77124e-08
1.06973e-10
-1.24164e-10
-2.51575e-09
0.000466118
-3.44786e-07
7.2532e-09
1.89175e-08
-3.32942e-11
-3.34286e-09
-1.48751e-09
0.000216059
-1.02438e-08
-9.8823e-11
3.63146e-11
0.000181874
3.40326e-11
-5.96449e-10
1.48594e-11
4.80225e-07
0.000464835
-1.12139e-09
-4.9194e-11
8.64192e-11
3.00919e-09
-5.43906e-11
-1.53428e-08
0.000738407
-2.21983e-08
1.74149e-10
-2.0356e-09
-3.70529e-10
5.02451e-05
1.11956e-08
2.07036e-08
-0.000225468
-2.50859e-08
-4.86151e-05
4.54169e-07
-3.65185e-07
-0.00426565
4.99895e-10
1.09609e-08
-6.32096e-11
1.23135e-09
-1.18125e-08
-4.6631e-11
3.95529e-05
1.91398e-11
-4.1972e-10
-7.56064e-10
-5.30002e-11
-3.27765e-12
1.78556e-08
0.00058125
2.05832e-08
0.000675938
-0.000109375
-2.36589e-09
7.74483e-09
-7.40722e-11
0.000209763
-1.9565e-08
-2.38349e-09
-0.00480631
-1.35265e-10
2.3544e-09
-1.05687e-08
-1.65247e-11
-5.81988e-11
6.71277e-11
7.798e-09
-4.59662e-11
-0.000592599
4.18638e-12
2.28598e-10
1.46179e-08
-4.88626e-11
-3.48668e-07
-3.10803e-10
5.89087e-06
1.07434e-10
1.61116e-12
-3.92116e-08
-0.000172835
-1.29694e-08
-8.81023e-11
5.21466e-05
-1.18391e-08
1.16292e-09
-3.90459e-09
1.71491e-08
1.27389e-07
-5.91515e-06
-6.86268e-10
0.000768586
1.61177e-10
-9.3658e-11
4.00815e-07
-5.54226e-09
-1.35835e-12
-1.17366e-05
1.62813e-11
-6.14315e-13
-0.0015429
2.49786e-10
-2.65396e-10
0.0100816
0.000283503
0.015875
0.000967527
-8.28236e-09
-4.94445e-10
4.13423e-10
6.62005e-05
-2.06763e-08
-6.70301e-08
-1.05436e-06
1.23199e-07
1.24934e-05
6.49634e-08
-1.02236e-08
-7.85873e-08
-8.33095e-12
0.00013951
-1.96131e-10
-7.24376e-10
1.02831e-09
1.35481e-09
-3.13909e-09
0.00212738
-5.72942e-05
-7.51444e-10
0.000722417
-1.79889e-10
1.15328e-10
-1.98203e-11
0.000961232
-2.32056e-09
0.00842363
0.000146488
-4.68265e-10
8.26489e-11
5.01368e-10
0.000135816
-2.60286e-05
1.64174e-11
0.000152104
1.81458e-11
0.000130467
1.11877e-07
-5.34618e-08
3.55714e-07
-2.16503e-09
2.67346e-05
0.00281586
2.87325e-05
-0.00246566
4.43119e-08
4.85138e-09
-1.23599e-10
0.00115399
-0.000956815
-1.86786e-10
-1.84053e-07
1.87093e-11
-8.62679e-10
-1.02124e-08
1.26982e-08
-2.21179e-09
-0.000630262
1.40267e-09
-2.35503e-10
1.02688e-08
-8.96885e-06
1.01031e-06
-2.06291e-10
0.000161409
0.000354112
3.26627e-10
-6.10978e-11
-1.21158e-05
-5.46582e-11
-2.0656e-08
3.25996e-06
4.10314e-09
-1.18823e-11
0.000292515
2.90605e-10
-3.20525e-07
-1.61953e-05
-0.000556108
-1.04335e-05
-1.26983e-05
-6.87323e-10
-6.17788e-10
-0.000178248
-0.000528336
2.42318e-09
4.67829e-09
-8.52822e-11
5.13166e-10
-2.61727e-11
-2.70378e-05
1.49733e-09
2.60377e-08
1.83943e-09
5.42135e-05
3.99827e-05
1.35603e-09
-8.83467e-11
-2.85834e-11
-9.36471e-11
4.7441e-07
-0.00100606
-9.11123e-10
-2.65797e-07
-2.51049e-06
-2.01338e-10
-8.16207e-11
1.30612e-05
-4.27916e-10
-6.21254e-10
4.6193e-10
-2.66452e-07
2.64093e-07
1.88856e-10
-8.48613e-06
-7.5157e-09
0.000211334
1.11618e-08
8.62095e-10
-3.96875e-10
-2.3212e-08
2.63824e-08
-9.00856e-08
-0.000644692
0.000182935
-7.59473e-12
1.41288e-06
6.59953e-06
-3.90878e-09
0.00321616
-0.00176378
9.06023e-11
5.64548e-09
6.83281e-09
0.00224389
-8.1189e-11
1.04185e-10
-0.000599907
-1.36629e-10
1.08562e-09
8.18468e-11
-6.85458e-12
2.39956e-10
-4.03671e-08
1.9715e-10
-1.56936e-10
8.44776e-10
2.68644e-07
-0.0011444
-9.97678e-11
2.41204e-10
0.00960416
2.23359e-10
4.18776e-05
-2.20551e-08
8.35985e-11
-3.69462e-11
-1.05348e-10
0.000401567
9.65498e-07
-3.55757e-10
0.00196641
-5.54415e-11
0.000115994
0.000202791
-3.0201e-10
-1.52225e-11
-4.103e-10
1.08324e-10
2.38787e-09
-2.45612e-09
1.65593e-10
-1.50157e-08
2.55627e-06
-1.94508e-07
6.22446e-08
7.20592e-11
-3.42271e-11
-4.13914e-08
-2.44939e-05
-3.29325e-08
0.000604902
6.46193e-09
4.93064e-11
1.56366e-09
-2.65775e-05
5.59938e-12
0.00017057
0.000547878
6.25039e-11
-3.1771e-09
-0.000808052
1.60455e-09
-1.91767e-08
-2.88336e-11
2.5624e-09
2.0374e-06
-4.24496e-11
4.59192e-12
4.12598e-10
-1.82027e-07
-3.30181e-10
1.20516e-09
-2.14753e-09
0.000102672
0.000108524
-0.000157553
2.52302e-11
-9.36709e-11
-0.000973394
5.50914e-10
1.8477e-10
3.80513e-10
3.2458e-07
1.46588e-07
1.17123e-08
0.000117402
-1.03177e-11
-2.18499e-07
-9.42729e-11
-4.5343e-11
7.56827e-09
7.59782e-11
-5.34397e-05
-3.93475e-11
8.8855e-05
-8.61284e-05
-0.00696387
-4.65785e-06
1.38082e-08
-1.85452e-11
-4.0679e-05
9.00842e-11
-6.97782e-12
3.46109e-07
1.0267e-09
-5.35683e-11
-2.13484e-09
-0.00307638
5.78562e-11
-1.92235e-06
6.39217e-10
0.00117258
7.5508e-12
-2.30037e-10
-1.52464e-07
-0.000472156
-2.29711e-09
1.25563e-08
2.87591e-10
-1.65887e-10
-8.8447e-05
1.7747e-09
-1.94125e-07
1.83132e-10
1.88453e-05
-1.38445e-06
0.000191836
3.5793e-12
1.35115e-10
8.91578e-05
1.55002e-08
4.28698e-07
-3.88382e-08
-1.4969e-10
-1.63612e-10
0.00177705
-6.66822e-08
-2.04548e-08
9.3648e-09
-7.34364e-09
-2.63261e-09
-1.15429e-09
3.00199e-11
-0.00111435
4.37992e-11
6.82734e-05
2.38004e-09
-0.00145329
6.88237e-11
4.04456e-10
1.43502e-11
0.00334201
6.17103e-09
-8.05565e-12
-3.92439e-10
8.45313e-11
-1.79987e-05
0.000420983
-2.01942e-12
7.42051e-11
4.5962e-10
-2.39818e-05
-5.62856e-10
0.000135539
1.291e-10
2.59306e-11
-2.53658e-05
-1.09124e-10
-0.000183897
2.39267e-10
0.00374434
-8.31741e-11
-1.85811e-10
-2.93206e-11
-5.73492e-08
7.21709e-11
0.000238154
5.47093e-11
5.28457e-05
1.60191e-10
0.00054968
5.62202e-09
3.98141e-11
4.49553e-07
6.06492e-10
3.44434e-11
-4.37562e-11
-0.00199621
-1.5866e-07
-3.07707e-11
5.88499e-06
-4.34432e-07
7.45013e-11
1.25999e-08
-1.56565e-08
-0.00108175
1.41526e-05
-0.00153211
-0.00307191
6.58847e-13
-6.87291e-05
0.00128122
-1.29365e-10
-3.98191e-08
0.000387118
1.16152e-08
-3.43386e-07
-1.71108e-10
1.69493e-05
1.05334e-10
-0.00544794
0.000111555
8.29322e-11
-0.000190822
-6.3844e-11
1.01152e-08
1.0892e-10
2.43894e-09
-3.85761e-06
2.27674e-10
-0.000255466
-0.000243097
-1.39297e-07
9.56106e-11
5.94868e-05
1.0685e-08
-4.36944e-10
-0.000810416
-1.98414e-10
-8.1414e-11
0.000182997
-2.23376e-10
1.46409e-08
-1.20456e-07
-2.11854e-11
1.39759e-09
1.8011e-08
-9.2536e-10
-1.38718e-10
-1.77135e-07
-1.51484e-08
2.86972e-11
-4.86217e-11
1.6038e-06
-0.000388955
-1.37621e-07
3.3128e-07
-3.54463e-05
-0.000220387
-4.77454e-11
-0.00209656
0.00353647
7.63601e-11
7.18416e-08
-4.48299e-11
-4.01483e-08
1.27425e-10
9.6517e-11
3.35039e-11
6.10179e-11
5.09156e-11
-0.00114994
-0.000428264
-0.000248655
-1.17409e-08
-4.6386e-10
0.00203752
5.7573e-12
0.000545168
1.67457e-08
-1.0573e-05
-2.61152e-09
0.00189297
-8.56849e-11
1.55197e-05
1.4543e-09
0.000507315
-3.25921e-10
-0.000374295
-8.9399e-05
-1.64682e-08
-0.00225017
-3.56007e-11
0.00222447
-3.26959e-10
-9.14121e-08
0.000931121
6.25501e-11
4.64443e-11
-3.09618e-11
-6.92917e-11
-1.90599e-07
0.00337288
-5.61038e-11
2.27373e-08
6.27838e-05
-0.000964857
6.84624e-11
-3.07666e-07
7.12966e-11
-5.01264e-11
4.74303e-05
0.000103108
-3.08773e-08
-1.65875e-07
-2.74606e-09
0.000149006
-4.26805e-11
-2.4024e-10
0.000220892
6.41585e-07
-2.73825e-10
-7.82404e-09
1.66096e-07
1.73716e-11
-2.94591e-10
3.99249e-11
0.00151237
-1.83864e-08
-6.91172e-11
-2.15163e-10
-4.71674e-05
7.99954e-07
-1.80603e-07
-0.00247089
-2.67456e-09
-0.000634323
1.02225e-09
-8.73439e-11
-1.22626e-10
1.37688e-08
7.86103e-08
-1.18318e-11
5.75103e-11
-1.10233e-10
-4.75196e-08
-2.66065e-10
-0.000887557
-0.000982087
-3.9849e-11
-7.83966e-08
-6.54878e-05
1.52467e-10
2.83806e-12
-6.39755e-12
7.8669e-11
-1.59889e-08
-2.05467e-10
0.00231825
3.58293e-09
2.71061e-08
-1.79536e-10
1.02846e-10
-1.8638e-09
-8.06188e-11
2.17017e-06
0.00251916
-0.000440919
-0.00321599
-0.000572789
6.14949e-05
3.17435e-11
6.51446e-11
-0.000125059
-2.25949e-08
6.80853e-06
2.78052e-09
6.69097e-08
2.40103e-05
0.000519109
3.09442e-05
1.15612e-09
-4.63709e-11
3.59657e-11
-6.96278e-09
4.65576e-11
-0.0191048
-2.46621e-07
7.48974e-11
2.36926e-10
-2.81978e-08
1.41219e-08
0.00325132
1.58384e-06
-0.000800952
-1.10529e-10
-0.0207208
-5.84647e-11
1.88456e-10
-6.23207e-09
-1.16631e-10
-3.9097e-10
0.000778891
1.23479e-11
5.15237e-08
-1.71966e-09
-3.45973e-11
6.70263e-10
1.20842e-09
8.18507e-05
0.00115779
-1.32967e-08
-0.00273702
-7.84282e-11
7.44894e-08
-2.51969e-07
3.39571e-07
-1.09234e-10
-3.0571e-10
2.33921e-12
1.77963e-07
-3.52339e-10
-4.25896e-11
2.08452e-10
2.73492e-11
1.28414e-10
0.000437461
1.68812e-08
-1.17486e-08
6.70577e-09
-3.28955e-11
-1.17944e-09
-2.07628e-09
1.40888e-05
-1.34047e-10
2.95834e-10
-4.60974e-11
-1.83185e-10
8.22031e-11
-0.0333109
3.03181e-09
0.000432468
-3.29989e-10
6.86865e-09
-4.02032e-11
-2.77158e-11
-1.64592e-09
5.2966e-11
-1.84073e-10
4.96462e-08
-0.00311127
-0.000384216
0.000185208
-2.52584e-08
7.21762e-11
-9.62508e-11
-0.000538032
1.45939e-10
-0.000938635
-1.65365e-07
0.00680894
-2.00635e-11
3.01649e-06
-0.00447546
2.33297e-10
7.53969e-10
-1.63566e-06
0.000708549
1.47193e-10
-3.45964e-08
-6.76282e-11
0.000575369
0.00111325
-1.15688e-10
0.000237087
-1.82835e-09
-1.58963e-11
-3.521e-10
-1.15552e-11
-2.075e-10
-9.27009e-12
6.97967e-05
0.000131613
-3.91744e-12
-4.83466e-11
-5.74506e-11
-2.00581e-10
-1.97393e-12
-6.21319e-05
-0.00137929
1.44035e-07
2.16508e-11
3.91192e-11
1.2468e-11
-0.000213929
0.00161054
-2.66624e-05
-1.1827e-06
-2.3299e-10
-0.00161356
-1.62007e-05
0.00253878
2.22085e-11
3.20506e-10
-6.67397e-07
2.79795e-09
0.00143813
8.14396e-12
-2.12847e-10
-4.74649e-13
-5.5816e-08
1.85585e-08
-2.13392e-10
3.02042e-09
4.43617e-08
7.13518e-11
-7.82994e-08
0.00258877
-1.51369e-05
6.86458e-08
4.84228e-05
4.65388e-11
5.26723e-08
5.7139e-09
1.10059e-10
3.1511e-11
9.39355e-05
0.000117707
0.00139016
0.00191208
5.71915e-10
2.67555e-10
1.61604e-08
-3.7838e-10
9.84032e-05
-4.28588e-08
4.39722e-12
-1.69172e-10
0.00162755
3.24736e-10
1.14443e-08
-3.79022e-10
0.00212791
0.00161843
1.23788e-07
-9.21137e-05
4.69674e-10
1.37049e-09
9.42992e-12
-0.000140395
1.01726e-06
1.15634e-08
2.07121e-05
4.15545e-06
2.20516e-11
1.69809e-11
3.67782e-11
0.0026426
-0.0475501
0.00109487
-1.06085e-10
3.66561e-09
0.000257692
-2.20089e-11
-2.50297e-12
7.03451e-11
-0.0006403
-1.09132e-10
-4.00494e-08
-0.0145287
-4.344e-05
1.48204e-11
3.09218e-05
1.26596e-10
0.000385443
6.63232e-11
1.05653e-08
-0.000771649
0.00841478
4.03512e-05
5.70675e-11
8.466e-11
0.000127287
-5.2834e-11
1.76598e-10
-0.0105889
0.00487725
3.03462e-11
-1.76081e-10
1.77399e-10
-0.000347194
3.23945e-05
0.00201441
-2.91484e-07
2.00943e-09
1.6464e-08
-4.58144e-10
4.08287e-05
6.54639e-08
-0.000331685
-2.159e-07
9.5982e-10
0.00105623
-0.000413621
0.00135565
-1.94229e-06
0.00350108
-8.26596e-12
3.07516e-09
-0.000233076
1.94044e-07
-5.38231e-09
-5.53599e-10
2.39266e-10
-1.60449e-05
4.61708e-09
-0.000370686
3.14635e-10
-0.00400167
-5.12229e-11
-1.437e-06
2.01123e-09
9.07169e-06
-1.3096e-08
-8.3947e-12
0.000569956
-1.82214e-08
-6.61413e-11
-0.000540136
-0.000312327
-2.45926e-08
-3.93337e-10
-0.00096018
1.13641e-09
0.000394424
-5.60538e-11
0.000151449
9.54217e-10
-1.7846e-10
2.16822e-11
4.08844e-06
9.18484e-11
1.14763e-11
-1.28173e-10
-0.000672154
0.00277171
3.51726e-11
6.27322e-11
2.92189e-09
-0.0022142
-6.279e-09
1.37171e-10
0.00785257
0.000497554
-9.39237e-05
1.17638e-10
-6.44809e-12
-0.0375728
2.14493e-11
1.42965e-05
-0.00242672
1.91395e-10
5.02281e-11
3.36485e-10
0.000275081
0.0185343
0.00195604
3.65339e-11
1.47894e-10
7.406e-05
-4.69449e-08
0.00023229
0.000750341
-0.000113305
1.17667e-09
4.16592e-11
-0.00949965
1.22517e-09
7.42953e-11
5.68616e-11
-1.0547e-10
-8.34728e-05
1.09703e-09
-0.000612104
3.62034e-10
-0.000347196
8.72778e-07
-5.73663e-12
-5.11276e-10
3.72225e-05
-0.000952612
1.49383e-10
1.47942e-08
-2.71077e-09
-1.9586e-10
0.000438088
-2.70413e-07
-1.63596e-05
1.98632e-07
-4.21533e-05
0.00298768
1.23211e-10
1.6311e-10
9.75416e-10
1.2755e-09
7.25109e-10
-7.44169e-11
-1.32642e-05
-9.4648e-09
0.000693609
-9.92153e-06
-8.5731e-11
4.36447e-05
-0.000275265
1.18529e-09
1.10075e-09
0.00741003
9.26926e-09
-0.0183221
-0.00938746
3.52934e-10
4.0888e-11
0.000473948
-0.000460841
-3.39013e-07
-8.38412e-11
-1.19484e-10
-9.47145e-11
1.0207e-08
1.04017e-11
3.61272e-05
7.42687e-10
4.83509e-05
4.07495e-05
-3.96494e-09
-3.80099e-10
8.78018e-11
-0.000110924
-2.91633e-10
0.0039885
-3.93794e-09
-0.00145943
-5.32968e-11
-1.17425e-09
4.55812e-11
7.6703e-05
-4.08901e-10
3.20584e-05
-2.44363e-09
7.295e-11
-1.03594e-08
-8.77151e-14
1.04344e-10
1.23082e-10
3.39142e-10
6.87938e-11
3.98117e-05
1.37355e-06
-2.8996e-11
7.80061e-05
-8.65531e-10
-3.43491e-10
0.000944192
2.31247e-11
4.49458e-11
-5.20639e-05
-1.03722e-10
-1.05583e-07
-0.000603918
-2.83349e-09
-3.48616e-05
-0.0512558
6.15948e-11
0.000382546
-2.1471e-10
1.17624e-07
0.00525719
2.39323e-09
-1.7596e-10
1.11839e-09
-1.23614e-09
-3.15609e-10
1.38653e-10
-0.00506145
-1.01736e-10
-0.00179506
-0.000276116
2.12295e-09
-4.63502e-08
0.0141307
-2.86783e-09
6.30621e-11
4.9915e-09
5.82901e-11
-1.2572e-08
2.31509e-10
-8.1793e-11
-1.28549e-09
-0.000287598
4.9599e-11
2.35799e-11
-4.61298e-10
-8.36895e-11
-8.88284e-09
-0.000116473
-0.00131834
7.83998e-11
-2.23852e-06
2.1193e-07
-5.42298e-05
0.000207964
0.000767744
-5.17349e-10
1.50108e-10
2.08613e-10
-7.38134e-09
3.98048e-05
-6.67875e-11
8.29278e-06
3.30363e-11
-9.37797e-08
-9.19319e-11
-1.05956e-11
0.000176462
-2.34994e-09
-2.08831e-09
0.000386992
1.03938e-07
2.0682e-10
-3.02555e-11
-2.29485e-07
2.18286e-05
-2.80466e-09
0.000614408
0.00371246
1.19735e-11
1.0011e-10
-2.63534e-10
-0.00488543
1.10998e-10
4.14678e-11
-2.52368e-08
2.34742e-10
-1.53045e-05
0.000228472
5.4403e-07
0.000379898
0.000947734
-0.000103646
-3.27225e-07
9.49445e-08
-0.000380608
6.77451e-07
7.75295e-11
4.78095e-11
-1.00221e-09
-0.00134222
7.8367e-10
3.14707e-10
0.000512319
-3.35336e-05
-8.62202e-09
2.85791e-10
-4.20346e-10
-3.90187e-05
-9.09844e-11
8.50739e-10
2.73576e-10
7.27934e-05
-9.35699e-09
-0.000309593
2.82716e-10
-9.06207e-06
-3.19104e-08
-3.11629e-10
-5.54703e-06
-2.99734e-11
-4.92836e-11
-1.20025e-10
2.41436e-10
-4.04853e-10
3.80802e-05
-0.00119512
1.76413e-10
2.24914e-11
6.50981e-11
-1.77207e-11
0.00045652
1.07918e-09
2.00377e-11
-6.48707e-11
5.09296e-12
-5.83693e-10
2.3807e-11
4.63916e-09
7.3466e-09
-5.72506e-07
-0.00485774
-6.51476e-10
1.41671e-10
3.32299e-11
3.3566e-10
-0.00280737
0.00045914
-3.56238e-10
-1.269e-08
-3.00791e-11
0.000114193
-2.39019e-09
-0.000371672
4.11317e-11
-0.00292339
1.2256e-11
6.38863e-09
-0.0014016
2.39272e-07
0.00417129
0.000508186
0.00348042
2.85608e-10
-7.4778e-05
2.63522e-10
0.00195838
5.43972e-07
-1.69871e-10
-0.00593401
-1.00177e-10
2.96976e-11
0.000269268
-3.42835e-11
6.59504e-11
-8.39821e-08
-3.97485e-08
1.48665e-10
-1.82319e-10
-1.70866e-10
-3.13619e-11
0.00023941
3.06099e-11
2.21192e-10
-0.0105185
2.71705e-11
0.000165599
2.54748e-10
2.41781e-10
-6.51861e-11
-4.61477e-11
-0.00401528
8.79758e-09
-0.000581428
-0.0014793
-1.27423e-07
4.94779e-11
-1.98241e-11
-4.75392e-12
0.00188343
-2.94424e-09
3.86645e-11
-4.33726e-10
8.17382e-11
-0.0015652
0.000491077
-2.43361e-11
-0.000540162
3.39805e-11
1.13764e-08
-4.25136e-12
3.67742e-11
-4.12855e-09
6.92163e-05
1.93149e-10
-1.2082e-05
0.000408921
-1.04835e-09
4.10757e-11
0.000203171
6.44052e-05
5.33292e-11
0.000445189
-3.24942e-12
0.00252698
1.58679e-10
2.17966e-05
-0.0011194
-2.44277e-08
1.33356e-10
4.7715e-08
-3.52861e-11
-1.37638e-11
-7.62756e-09
3.12366e-09
1.18417e-10
-9.17115e-05
0.0003233
2.42032e-10
8.59563e-12
-2.63e-09
1.17855e-10
5.01187e-08
-1.0845e-10
9.59798e-10
1.51528e-10
-9.53696e-11
-2.90769e-08
-3.06632e-05
2.84361e-11
-3.23471e-11
-1.28863e-08
0.000886952
8.11337e-07
1.60911e-10
0.00153079
2.97731e-06
-6.22861e-07
0.0151869
-1.134e-11
2.72463e-10
-5.96615e-10
-1.18249e-11
-1.39939e-10
0.00505209
-4.89435e-10
-3.09236e-10
-5.76345e-10
8.00602e-11
-7.1004e-05
-3.80488e-11
-0.00012376
-3.07658e-10
0.000424739
-4.22097e-11
-0.000131959
-7.02868e-11
-9.82662e-08
4.06228e-09
-1.64414e-06
3.17527e-09
1.03166e-11
-0.00383376
-6.25503e-09
4.66056e-11
1.20326e-10
9.71962e-05
0.000600957
2.60214e-11
3.38689e-10
-0.00022525
0.000110417
0.00172443
-1.09224e-10
1.39403e-10
-0.0012858
2.56125e-10
-0.000321864
4.57571e-05
-5.73949e-12
1.1992e-09
9.74118e-05
-5.82146e-11
3.95306e-11
-1.44725e-12
8.57e-07
-3.18532e-08
3.64481e-07
-2.71563e-08
-0.00312273
-0.0035631
-0.00327937
-0.00482172
-1.4884e-11
2.09248e-11
5.18793e-10
1.91809e-09
-4.89263e-12
-0.00361438
9.69714e-12
0.00115144
2.10226e-09
1.1944e-05
8.29805e-05
5.45341e-08
-2.50307e-10
4.1686e-10
0.000115588
-1.18552e-10
-3.53114e-11
-5.61567e-10
2.40007e-07
0.000250799
-1.01805e-11
-4.03143e-11
1.66675e-09
2.21186e-10
1.74245e-11
-4.42438e-10
-0.000183884
2.27243e-09
-0.000825564
-2.06662e-08
4.15734e-08
1.86461e-05
1.46919e-09
0.00048107
-1.60987e-10
1.43906e-05
-3.04093e-10
-3.39566e-11
1.88173e-11
2.42712e-11
9.78751e-08
1.06909e-10
2.20946e-06
9.99966e-09
-0.000443039
5.36091e-10
-2.31148e-08
-2.50929e-11
-4.83767e-07
-7.9563e-05
-3.84192e-06
4.35065e-10
5.51086e-11
1.8568e-11
2.20804e-09
-1.08792e-12
-0.000211057
1.09013e-09
1.94033e-09
0.000525961
2.34458e-09
-2.30103e-11
2.96958e-13
-0.00238425
0.00309074
-0.00015247
-6.8357e-10
-1.12093e-11
-0.00509154
3.46029e-05
2.24124e-10
9.26804e-12
-0.000847044
7.32005e-05
-2.25868e-10
-0.00233604
-0.00269274
-1.84461e-10
-1.53801e-07
1.91202e-10
-3.36775e-10
-1.49515e-05
1.60565e-10
2.32499e-11
-2.26378e-08
-5.06982e-09
1.68087e-09
1.04372e-11
5.08652e-11
-3.10108e-10
3.37685e-10
-1.47135e-10
8.04014e-11
-8.4793e-10
-2.98956e-10
2.20271e-11
5.26785e-09
-4.55932e-09
-5.17921e-07
6.58725e-11
-0.00137961
1.42663e-10
-7.02049e-06
-1.43491e-09
0.000158922
-4.47491e-10
4.39718e-11
-9.374e-12
-9.06571e-11
1.03607e-07
-5.88874e-09
7.2774e-06
-2.89183e-10
2.25384e-11
1.45638e-08
4.36721e-09
-0.000819826
1.9232e-08
-6.78463e-05
0.000984473
-9.81125e-09
-6.47962e-05
1.19496e-10
-1.12493e-08
4.35222e-11
1.86631e-10
-7.47683e-12
-2.96172e-10
8.71236e-06
0.000129411
-5.11667e-09
1.45343e-10
9.18897e-11
-4.23926e-05
8.13746e-11
4.33494e-11
-2.17742e-09
1.20556e-12
1.18985e-11
0.000136321
-6.47771e-10
3.252e-05
1.08379e-08
-3.14175e-09
0.000165581
-0.000804467
7.74533e-10
3.97727e-07
0.000599092
0.000467687
-0.000430992
-3.99093e-10
3.57238e-11
1.1727e-10
2.60092e-10
8.24685e-11
-1.82994e-06
1.25697e-10
0.000399114
-2.62411e-10
-2.18116e-08
-3.54176e-11
9.76637e-10
3.66928e-05
-2.03046e-08
0.00487523
4.16291e-10
1.55351e-11
-2.83413e-05
0.00545268
-1.38031e-11
0.00798421
8.88477e-11
-1.24783e-08
6.00339e-10
8.052e-11
0.00275562
-2.5605e-06
1.43588e-09
9.70985e-10
-4.51588e-05
6.19647e-09
1.41928e-10
-6.99724e-06
5.54676e-10
5.46516e-05
-7.69533e-08
2.47571e-11
2.21745e-08
-2.10046e-11
-0.00470332
0.000803599
7.39761e-10
1.6339e-11
-8.85223e-09
5.04521e-13
0.000186724
6.25076e-10
1.57959e-05
-1.76324e-08
-0.00109562
1.05736e-05
1.54446e-08
-0.000989505
8.6338e-07
1.54496e-10
7.82136e-08
0.0146224
-1.18025e-07
0.00161193
-1.3715e-09
-3.99721e-09
-1.88745e-08
5.16349e-09
8.78603e-05
-4.2311e-07
-2.45054e-06
5.09561e-05
-0.00036822
8.49835e-11
-1.72115e-10
1.49593e-05
-1.79084e-06
5.39661e-05
-1.16224e-06
-1.99106e-08
1.71725e-05
7.04074e-10
-1.8434e-08
-0.000317156
4.42742e-08
-3.05067e-11
0.00131129
-2.05129e-10
-1.01561e-09
-0.000341791
-9.41136e-09
2.97195e-05
4.40614e-09
2.21437e-10
9.91364e-07
-3.88384e-09
1.39305e-09
5.59085e-11
2.57717e-05
0.000547212
-2.45357e-10
3.46572e-10
-5.27393e-09
0.00211539
-0.00447151
0.000300876
-9.91897e-09
0.00164778
3.21459e-10
1.61558e-11
3.50251e-07
0.00313692
-4.44023e-10
-0.00082044
4.00857e-08
0.00196374
3.62538e-10
2.30282e-09
-9.75037e-05
-0.000188723
-1.72775e-07
5.50334e-09
0.000102913
0.000241366
0.000105623
2.7163e-11
1.5718e-12
-1.89099e-10
1.40404e-10
-1.82469e-10
-2.04527e-10
1.71325e-10
1.09207e-08
1.80891e-05
-1.31363e-07
9.49932e-11
-1.71091e-10
0.000119415
1.33819e-07
-4.78427e-09
0.0120516
-1.24604e-11
-1.82612e-09
0.00144448
2.15257e-10
3.25797e-10
-9.84501e-06
2.00598e-11
0.000396376
-1.65996e-11
-3.19484e-05
-2.07287e-09
0.00170219
-3.30831e-06
3.95763e-09
-5.53541e-11
-0.000553114
0.000605902
3.07509e-08
1.82607e-09
3.55525e-06
-0.00197602
-0.000274082
-0.00525037
-0.00080327
-0.00163106
-7.00112e-05
-6.25714e-08
4.0432e-10
7.40029e-11
1.92288e-10
-9.9502e-12
-5.41298e-09
5.7873e-11
-6.92824e-10
-6.40469e-05
-1.43279e-07
-0.00115352
-0.00326531
0.000774095
-2.24779e-05
2.42277e-10
0.000188224
1.15008e-07
-3.31022e-10
4.73423e-09
-1.11323e-10
3.94308e-11
-0.00317465
4.21981e-10
-0.00129467
3.87254e-10
-0.000184838
0.000366482
-1.82549e-10
0.0067086
2.13711e-09
5.92215e-09
6.03347e-11
-5.65709e-11
0.000150182
-0.000148576
6.56672e-11
-0.000997508
-4.96614e-11
-2.32067e-11
7.49576e-05
-1.85781e-11
-2.27168e-11
6.07617e-08
5.42875e-08
1.65347e-08
-1.95199e-08
0.00195694
1.05767e-10
-7.72222e-05
-6.37842e-11
-1.23898e-10
-7.02783e-07
1.68799e-05
0.00613122
2.55299e-09
-9.33636e-12
-2.52865e-11
5.32471e-05
-6.36035e-06
-2.34748e-08
-2.95844e-09
3.95885e-11
4.48791e-10
6.58544e-11
1.02477e-09
-2.85948e-06
-0.000178086
2.12426e-07
1.21291e-09
8.16974e-11
9.10576e-05
6.69515e-09
2.121e-05
-9.09277e-06
-2.02269e-08
-0.00218773
3.2841e-10
-8.17253e-08
-0.00281602
0.000650482
2.10629e-10
-4.19215e-09
-2.03326e-11
-5.2151e-06
0.00047685
0.00790559
-0.00116934
-2.28727e-05
1.03892e-09
1.01853e-11
6.4541e-05
8.29252e-11
-0.002017
-1.07248e-08
-1.00046e-11
5.11847e-08
-0.00633823
-1.29373e-10
7.00455e-12
3.16492e-11
1.33418e-08
-2.39379e-12
8.50196e-10
-1.09967e-08
1.89992e-09
-0.00124932
-1.55568e-10
1.04967e-09
-0.00273092
-0.00330271
-3.33689e-10
-2.72306e-09
-0.00903272
-1.02399e-07
0.00103768
0.000271081
3.29787e-11
2.10622e-10
-5.10006e-10
0.000924126
-9.95915e-05
1.17099e-10
0.00251619
0.000604204
1.47518e-05
-1.59249e-12
-1.34573e-11
-2.70337e-10
-1.6694e-11
0.000258934
-0.00149673
-0.00095275
0.000597574
1.68167e-10
8.11092e-11
0.00207534
1.4037e-10
0.00254584
0.00103557
-3.79609e-07
-0.0146073
-0.000141561
2.47226e-09
8.9118e-10
-2.62774e-10
0.00101398
0.000434419
2.14173e-06
-5.13824e-11
4.57225e-11
-0.000128889
-5.25121e-05
-1.03184e-10
-1.69303e-10
4.71621e-09
-1.07377e-08
1.50814e-07
-0.00129348
-2.54496e-08
-2.4241e-08
0.000712615
-3.12274e-08
-1.7246e-07
-0.000759905
6.44674e-08
-0.000119031
-4.31068e-09
-0.000274972
-3.98483e-10
3.87956e-05
-1.04728e-08
1.01925e-12
0.00313313
2.99811e-11
7.25258e-11
2.63085e-10
5.5539e-05
8.59054e-05
-2.91041e-10
1.34117e-10
5.10811e-06
-3.08724e-09
-4.64236e-09
-0.000145303
-1.06651e-09
-0.000393274
0.000114348
2.519e-06
-1.01094e-09
-0.00166149
-1.11177e-08
9.86174e-10
-3.96467e-10
2.03524e-12
-3.12501e-11
-2.11228e-05
2.89921e-10
3.02636e-05
2.0104e-10
-1.70389e-08
-1.26052e-10
-2.83795e-08
-2.1927e-08
8.42415e-11
6.54323e-05
7.25359e-11
-2.99763e-05
-1.1981e-10
-0.00806472
-2.32701e-08
-2.94041e-05
-9.15443e-08
2.98451e-08
6.0414e-08
-1.19861e-08
-3.6859e-06
-3.64096e-05
1.64687e-07
-9.43029e-07
8.63752e-05
4.51955e-12
2.26303e-09
-8.53069e-10
0.00011679
-0.00415139
2.74134e-05
5.98602e-09
4.18279e-07
-1.78785e-10
0.00744386
0.000599506
-0.000371884
-1.43641e-09
-2.84623e-11
-2.83716e-08
-0.00037809
1.24602e-11
-1.23343e-06
-0.000607554
8.34498e-11
-0.00040927
2.58822e-09
0.00083766
-1.07911e-07
0.00129402
-5.19167e-08
-8.42678e-13
-1.56103e-10
-0.00152347
8.45447e-12
-2.74331e-09
0.00225628
-1.14607e-07
-2.72128e-11
1.62227e-07
3.8718e-05
-1.69219e-08
2.9861e-11
-6.92341e-07
3.03919e-07
1.64092e-10
-1.88905e-08
0.000457953
-0.00135414
3.91848e-08
-1.20877e-05
-0.00164636
-5.03476e-09
8.09367e-11
-0.00031623
-6.23931e-12
2.07421e-10
-5.80058e-05
1.4622e-06
9.70985e-10
8.34542e-11
-2.19613e-10
-3.45287e-07
-0.000993286
-2.80268e-10
4.63704e-05
-1.2558e-09
5.35931e-05
8.03694e-08
-0.000207872
0.000208221
-1.41047e-08
0.00114394
-0.000160465
6.2293e-09
1.24784e-10
-3.53688e-07
-1.04841e-09
2.46525e-06
-3.41987e-11
2.05536e-09
-4.3354e-09
-1.71329e-09
1.40225e-09
0.00263892
-3.54098e-12
7.58651e-09
-0.00309083
3.39164e-11
-0.000567614
1.34847e-09
1.79307e-07
-4.38928e-06
1.02763e-07
0.000454231
2.69988e-10
-0.00927187
-4.84647e-09
-8.66083e-11
8.29765e-09
-1.9994e-09
-5.74558e-09
-1.51502e-07
-1.23255e-10
7.05116e-11
-3.78701e-10
1.31355e-05
0.000141319
-0.000808745
2.9529e-07
3.10798e-11
-2.66551e-07
-4.33197e-10
-1.06426e-08
-0.0129843
3.07604e-10
1.38579e-09
-1.56965e-05
-4.34032e-11
4.40403e-09
0.000129418
-6.65058e-09
0.00166313
0.00724511
-4.9073e-10
4.85271e-09
-1.77495e-08
-8.94672e-11
3.40548e-09
-0.000317233
3.47601e-11
-1.61874e-10
0.000325692
-0.0046565
7.64435e-05
0.000591714
0.00170099
-3.88539e-09
-2.46866e-05
-0.000998384
-2.35133e-10
3.53654e-11
-1.83395e-08
0.00011675
3.47768e-07
-1.39527e-09
5.27602e-10
0.000119087
-7.14433e-08
8.47862e-10
-2.0928e-09
7.90893e-12
-5.65059e-12
0.00202836
1.17899e-08
9.05998e-06
0.00890837
-2.86879e-11
0.00694024
-1.10059e-10
-9.48598e-09
-0.00207019
0.000699399
0.000486422
-5.70803e-10
-6.52636e-09
-0.000175285
1.40144e-10
-9.55306e-10
0.00348821
5.00398e-05
0.00580058
-0.000272
-2.73333e-07
-3.85256e-12
-2.57278e-12
1.08174e-10
0.00600689
0.00146022
1.21294e-10
-1.60252e-09
-2.59526e-11
-4.33238e-05
6.83395e-05
4.04263e-12
0.000131497
3.77253e-08
0.000207858
3.17499e-07
-1.5792e-11
-0.00010259
-1.16281e-11
-3.46017e-08
-0.00483502
2.80404e-10
3.09622e-09
-4.66194e-05
-3.61432e-09
-2.22766e-10
-3.23552e-08
0.0100734
2.25749e-10
-2.52507e-07
1.06565e-10
0.000226341
-0.0002167
-0.00038736
-1.47622e-11
5.71847e-09
-1.04325e-07
0.00288372
0.000124895
1.47758e-10
-1.63252e-09
-1.08417e-08
4.01504e-11
-0.00869017
-3.72948e-07
7.059e-09
-6.76526e-12
-3.10302e-10
-2.48344e-11
-7.81648e-11
-6.92001e-09
-3.15335e-09
-1.90133e-08
-3.45618e-05
-0.00299649
1.52866e-07
-7.15593e-09
1.70945e-06
1.85973e-06
2.25537e-09
-3.67071e-08
-0.000111757
1.10996e-10
-3.27884e-09
6.98561e-12
9.70729e-10
5.6963e-12
-1.64722e-07
-5.34959e-10
-1.2676e-05
-3.03432e-10
-0.00834294
-2.62537e-05
0.00244971
-4.06561e-05
-4.39325e-05
-1.01206e-08
-1.48427e-10
0.00698186
2.55563e-10
1.20859e-10
4.15517e-11
-2.27798e-10
-8.32647e-11
-1.04395e-11
-1.01161e-07
-1.01627e-11
-1.6345e-08
1.29407e-05
2.57386e-09
0.000211543
5.14066e-10
2.80585e-08
1.23137e-07
-2.57612e-11
1.89572e-09
0.000106317
-5.14967e-07
5.92091e-09
3.16667e-11
-0.00173203
3.85438e-11
-8.30001e-06
0.00180882
0.000237504
0.00146358
-2.02658e-08
1.35367e-06
0.00242765
1.18835e-05
4.65011e-10
2.37779e-07
0.00118192
-0.000498483
4.87268e-10
0.000816234
1.34738e-10
3.12914e-10
-0.000737774
-4.31328e-06
2.8486e-10
-3.48678e-10
-0.00152302
-1.49473e-10
-1.81023e-05
-2.77992e-10
-0.000151198
-2.63709e-09
6.28131e-10
1.46367e-10
5.70017e-10
-2.63894e-11
1.67116e-11
2.26243e-10
0.00875899
5.62514e-11
-0.0001007
7.18418e-05
-0.00126948
7.99085e-11
0.00291384
-1.203e-11
1.98686e-10
1.4889e-05
0.00227333
1.29534e-07
-1.13317e-07
-7.4491e-11
1.40484e-10
-5.40116e-08
-2.19536e-05
-0.00019579
-6.21588e-11
-4.43429e-05
-1.09633e-05
-4.1491e-08
1.95151e-10
-1.12619e-10
6.24511e-10
9.00366e-11
3.51049e-09
0.00417212
4.388e-10
0.00167741
-2.24949e-09
0.00263479
0.000134353
-7.74962e-07
0.00081499
-2.91657e-11
1.52443e-05
3.47308e-09
8.33942e-11
-3.20622e-09
-1.05367e-07
5.30635e-07
7.16736e-11
-5.02682e-11
0.000694276
-0.000210793
0.00022587
0.00317977
-3.95444e-10
-5.56856e-11
-1.10667e-10
1.76743e-10