/*--------------------------------*- C++ -*----------------------------------*\
| =========                 |                                                 |
| \\      /  F ield         | OpenFOAM: The Open Source CFD Toolbox           |
|  \\    /   O peration     | Version:  v2012                                 |
|   \\  /    A nd           | Website:  www.openfoam.com                      |
|    \\/     M anipulation  |                                                 |
\*---------------------------------------------------------------------------*/
FoamFile
{
    version     2.0;
    format      ascii;
    class       volVectorField;
    location    "400";
    object      ddtCorrDdt0(U);
}
// * * * * * * * * * * * * * * * * * * * * * * * * * * * * * * * * * * * * * //

dimensions      [0 1 -2 0 0 0 0];


internalField   nonuniform List<vector> 
18649
(
(0.0417814 0.138301 -5.80961e-20)
(1.04531e-05 -8.87949e-05 1.58786e-21)
(0.0493358 0.12261 6.12768e-20)
(-0.0380237 -0.0173769 -1.47562e-21)
(-3.35118e-06 -2.219e-06 9.60243e-21)
(-0.0251636 0.374482 0)
(7.11228e-05 3.37403e-05 0)
(-5.96263e-05 1.49496e-05 -2.6097e-22)
(0.0173779 0.147024 5.0485e-21)
(0.0191876 -0.0683869 4.71659e-21)
(-6.98944e-05 -0.000322014 3.517e-21)
(-0.000113903 3.13215e-05 -1.14457e-21)
(-6.03675e-06 -2.0791e-06 -8.46861e-21)
(0.000447979 0.00114912 -1.42505e-21)
(-0.0261037 -0.207742 9.74663e-22)
(-3.30234e-05 -3.64561e-06 0)
(-0.00301285 -0.00189274 8.54077e-22)
(6.83781e-05 2.6262e-05 0)
(-0.00899339 -0.085301 -8.07956e-21)
(8.61779e-06 -8.13146e-05 0)
(-0.000108125 4.04133e-05 2.21453e-21)
(-0.0272751 0.0166982 -3.76833e-21)
(0.0114726 0.046401 4.47951e-23)
(-0.0282037 -0.013945 0)
(0.0292062 -0.0712319 -8.10963e-21)
(0.0130869 0.0393077 -4.69547e-23)
(0.0110885 0.14887 -6.77396e-21)
(0.00926509 0.135265 -9.74485e-21)
(-0.000631558 -0.00184184 2.1961e-21)
(0.066166 0.040595 1.32583e-20)
(-0.000633107 0.00593206 0)
(0.000133133 0.00552967 0)
(-0.00313617 -0.00156103 2.64374e-23)
(-0.0105766 0.00175086 1.45565e-21)
(-4.37042e-05 1.56685e-06 -2.76763e-21)
(0.0133032 0.0061252 0)
(-0.0302598 -0.191652 4.36529e-21)
(-0.0263728 0.00365647 4.05519e-22)
(-7.45064e-05 -0.000293388 -3.50339e-21)
(0.000393311 0.00107487 3.10581e-22)
(-0.121686 0.0951403 -2.93823e-21)
(-0.00109311 0.00148894 -7.90236e-22)
(-0.0121927 -0.0581431 -7.00896e-22)
(-0.00792826 0.116568 1.72937e-20)
(-0.032768 -0.0780889 3.67135e-22)
(-0.0131909 0.0372133 -7.88359e-21)
(0.0315948 0.0230054 5.46309e-22)
(-0.00717909 -0.00351619 0)
(3.29995e-05 6.76043e-05 4.43361e-22)
(-0.0426903 0.0136774 3.15667e-21)
(-0.0354415 -0.0163594 0)
(0.000732033 0.0597424 9.16881e-23)
(-0.000250309 -0.000948503 5.65115e-21)
(-0.121125 0.100361 -7.4314e-22)
(-0.000875866 0.000126643 1.82022e-21)
(-0.0697264 -0.0511338 0)
(-0.153183 0.369056 0)
(3.07828e-05 6.74598e-05 -3.92712e-22)
(-0.000847526 -0.000891566 4.29488e-25)
(0.0885701 -0.0542674 2.41574e-20)
(0.000111369 0.000217878 0)
(0.0115092 -0.0182064 -3.76605e-21)
(-5.89857e-06 0.000110571 0)
(-0.200921 0.385067 6.31462e-21)
(0.0658144 0.0393988 -4.36504e-22)
(-0.0222537 0.0571244 -7.06163e-21)
(0.0768978 -0.0449418 -2.29564e-20)
(-0.00345945 0.00174155 0)
(-0.0310301 -0.0818416 -3.36056e-22)
(-0.0276353 0.013495 -5.9766e-21)
(0.00708994 0.157166 0)
(-0.00999955 0.00114906 -3.00078e-21)
(7.11808e-05 9.17477e-06 0)
(1.22315e-06 0.000114624 0)
(0.00520579 0.00516563 0)
(-0.00659254 0.0819929 -1.28556e-20)
(-0.00348622 0.23693 8.97776e-21)
(-4.44223e-05 -8.26491e-07 3.2274e-21)
(0.0247304 0.055079 -2.15312e-20)
(-0.00210274 -0.00528644 -1.61138e-26)
(0.0047222 0.00416073 0)
(-0.0297669 0.00606587 -5.23545e-22)
(-0.0802678 0.284883 0)
(-0.0249546 -0.119275 8.90385e-21)
(-8.4866e-05 6.11591e-06 1.86271e-22)
(-0.0613308 -0.050682 -8.77324e-21)
(0.00802257 -0.00141105 1.20425e-21)
(0.00695347 -0.00781496 -9.80089e-22)
(-0.00148775 -0.00588027 1.62808e-23)
(-0.0695382 -0.0884045 0)
(-0.028186 -0.207252 -1.08287e-21)
(-0.00813682 -0.0406791 0)
(-0.0306779 -0.0139151 1.68781e-21)
(0.0452518 0.00307659 -2.35958e-21)
(0.00110232 0.000689434 -4.69096e-21)
(-0.000367153 -0.000904776 -5.59377e-22)
(0.0125998 0.00741446 -4.47876e-23)
(-0.0417167 -0.011652 0)
(-0.0131511 0.0487928 5.3195e-22)
(0.00013716 0.000194433 -3.70402e-21)
(-0.0457434 0.309156 -1.96758e-20)
(-3.3604e-05 -4.87435e-06 -5.26927e-21)
(-0.0420865 0.0236027 0)
(-5.7541e-05 1.07251e-05 3.06699e-22)
(0.0126477 0.156271 2.84464e-21)
(0.00779394 0.169268 -2.07051e-21)
(-0.0619848 0.30538 -6.3218e-22)
(-0.0137096 -0.0513466 -2.36515e-20)
(-0.0731773 -0.0456173 2.21916e-21)
(6.63168e-05 1.94355e-06 0)
(-4.98653e-05 -8.16871e-06 -3.2006e-23)
(-0.00922316 -0.00352471 -1.07609e-22)
(0.00984976 -0.0100028 9.21291e-22)
(-3.8034e-05 -6.49471e-05 8.81758e-21)
(0.000958776 0.000617122 0)
(-0.0399949 -0.0169166 3.70436e-21)
(-0.00338455 0.00196303 8.19773e-22)
(-0.00965475 -0.00364807 -5.48383e-22)
(-8.83814e-06 8.95586e-06 8.59871e-21)
(0.0078968 -0.0023137 3.35222e-22)
(0.000292624 6.10101e-05 3.74435e-21)
(-0.020577 -0.0116981 -2.00131e-22)
(-0.103098 -0.0576246 -4.93936e-21)
(-3.58865e-05 -6.01988e-05 -5.4818e-21)
(-6.13029e-05 4.08368e-06 2.70845e-22)
(-0.00144279 0.00124452 0)
(0.0552153 0.208429 0)
(0.000568523 0.00137203 0)
(-0.000555415 -0.00205444 -1.66465e-23)
(-0.000672414 -0.000698568 -1.28734e-22)
(0.000128703 0.000239016 1.50511e-21)
(-0.203077 0.385152 4.41337e-21)
(0.0158872 -0.0245509 0)
(0.0191436 -0.0270221 -1.35361e-20)
(-3.97911e-05 3.96798e-06 -5.65494e-21)
(-0.00528278 0.029862 -1.38942e-21)
(-0.00293709 0.17516 -7.21421e-21)
(0.00374318 -0.0538326 1.80937e-20)
(-0.00543559 0.19607 -3.66879e-21)
(-0.0262522 -0.0963533 -1.52433e-22)
(-0.00609447 -0.00333899 -6.30285e-22)
(-4.11646e-05 3.85362e-06 3.8489e-21)
(-0.000256067 -0.000258206 -3.42815e-23)
(-0.000778034 0.0014606 1.43902e-21)
(0.00148916 0.169731 5.96252e-21)
(0.000167229 -0.00012053 -3.35479e-21)
(-0.000548231 0.000501223 -2.4254e-22)
(0.0206056 -0.0228851 -9.91971e-21)
(0.00414383 0.175328 -5.08783e-21)
(-2.59144e-05 0.000492812 -1.43605e-23)
(-0.015923 0.216334 2.91426e-20)
(-0.0150236 0.0991753 -3.75191e-21)
(-4.41151e-05 1.26171e-06 1.17215e-22)
(5.74589e-05 4.36945e-06 1.37683e-21)
(-0.0170033 -0.00912958 0)
(-0.038896 -0.0273702 -7.11866e-21)
(-8.91852e-06 0.000513855 3.82783e-22)
(-0.00105327 -0.00042375 5.1901e-21)
(-7.66934e-05 1.32856e-05 -3.74258e-21)
(0.0416098 0.0261614 -4.49144e-21)
(-0.0551052 0.372796 0)
(-0.010294 0.274082 -1.0493e-19)
(-3.62076e-05 0.000466831 -1.23324e-21)
(-0.00773244 0.218913 7.09404e-22)
(-0.15202 0.0168397 9.33147e-21)
(-3.50518e-05 7.45466e-06 4.13697e-21)
(0.0115755 0.00146248 5.00847e-22)
(0.00126019 0.175015 6.89766e-21)
(-4.43357e-05 -5.55991e-06 -2.18173e-21)
(0.000132487 6.77748e-05 0)
(0.00876629 -0.00106678 -9.37133e-24)
(-2.2099e-05 -8.77437e-06 -4.59418e-21)
(-0.000148228 0.000179757 2.99574e-21)
(-0.00213184 -0.000152973 -6.31623e-21)
(-0.0387443 0.0139305 -3.39885e-21)
(-0.0369301 -0.0543276 8.219e-23)
(-0.00445877 0.151273 -7.11938e-22)
(3.12261e-05 0.000502323 0)
(0.00450962 0.169734 0)
(-0.0436051 0.392242 -9.99479e-22)
(-5.08767e-05 9.09303e-05 0)
(-0.0260759 -0.0925507 4.5656e-22)
(-0.00269184 -0.00142807 0)
(-0.000882487 -0.000489588 -5.47879e-21)
(-0.00142228 0.000480615 1.25746e-21)
(-0.00224526 -0.00140216 0)
(-0.000755649 0.0001461 3.5863e-23)
(-0.0176626 -0.010692 -3.40781e-22)
(0.000212366 5.42879e-05 1.70672e-21)
(6.9909e-05 0.000633794 0)
(-0.00219408 0.00324639 0)
(-0.0143232 0.186195 4.66006e-20)
(-0.00432957 0.0957373 -2.33315e-20)
(0.010725 -0.00307342 -8.61254e-22)
(0.00235338 -0.0215599 0)
(-0.000128517 0.000167178 -2.48601e-21)
(-0.00328929 -0.00075051 -3.00816e-23)
(-0.0028293 -0.000874062 3.88783e-21)
(-0.153081 0.0276698 -7.16069e-21)
(-0.00679758 -0.00398697 -1.79782e-23)
(-3.40193e-05 0.000665892 0)
(1.60191e-06 2.69915e-06 2.16296e-21)
(0.0487955 0.0242916 0)
(5.99474e-05 1.17825e-05 2.73642e-22)
(-0.000781989 0.00166232 -2.67474e-21)
(-2.07969e-05 -7.41802e-06 6.70161e-21)
(0.0197977 -0.029716 9.59756e-21)
(0.0947175 -0.0541988 0)
(-0.00185488 0.000437311 -2.25653e-22)
(-0.000389194 -0.000748351 0)
(0.000182358 7.73707e-05 -8.83198e-22)
(0.00414812 0.00137985 0)
(-0.000126274 -6.34977e-05 -1.17709e-21)
(0.00133101 0.0127119 2.00537e-22)
(0.0961722 -0.0102084 -4.50332e-20)
(0.00127263 0.01496 -8.4338e-21)
(2.25449e-05 -2.27117e-06 -2.05925e-21)
(-0.00190797 0.00320773 -6.22567e-22)
(-0.00107583 -0.000225353 1.03762e-20)
(0.0300244 0.0177381 0)
(0.0254432 0.0102436 0)
(-0.00457901 -0.00382152 -7.47455e-22)
(-0.00753883 0.0329882 0)
(0.0393519 -0.00172131 0)
(-0.010901 0.288852 5.13432e-20)
(0.0105337 0.00285262 -4.83918e-22)
(-0.0223808 0.0811694 5.70579e-20)
(0.063979 -0.124199 7.03259e-20)
(-3.32175e-05 5.55134e-07 0)
(0.0287898 0.00945757 -7.55428e-23)
(6.5041e-05 0.000520771 -5.15142e-22)
(0.00336287 0.00574698 9.81976e-21)
(-0.00766438 -0.00363436 0)
(-9.48536e-05 -1.58427e-05 6.55965e-23)
(0.118612 -0.116683 0)
(-4.11027e-05 9.02385e-05 -2.76603e-21)
(-0.000852072 0.00240109 -1.28302e-21)
(-0.00136194 0.000660382 2.57537e-21)
(-0.000145526 -0.000116607 1.21988e-21)
(-8.90678e-05 -1.63523e-05 -1.31226e-23)
(0.00738517 -0.0185505 -3.33482e-22)
(0.0874055 0.0130113 0)
(0.0282162 -0.033477 0)
(0.0250169 0.0573428 0)
(-0.0052232 0.292549 0)
(0.00454289 0.00688945 -1.73636e-21)
(0.0108443 -0.00392266 2.44956e-22)
(-4.00806e-05 1.50066e-06 3.78869e-21)
(-0.0355369 -0.0316704 -2.80666e-21)
(-0.0195225 -0.0104535 1.652e-21)
(0.00505077 0.00746258 1.77657e-21)
(0.0783303 -0.105609 -2.00569e-20)
(1.92853e-05 0.00144325 9.95027e-22)
(0.0046083 0.00612601 -1.04614e-20)
(-0.00694205 0.000974736 -5.51392e-22)
(-3.68682e-05 9.07334e-06 1.12512e-21)
(-0.000474719 -0.000693873 0)
(0.00014012 0.000125594 -3.51584e-21)
(0.0293391 0.00481451 2.13364e-22)
(-4.5558e-05 -4.84471e-06 0)
(-0.0271032 -0.197283 -7.53925e-21)
(-1.12453e-05 9.76509e-05 -8.75699e-22)
(0.000439224 -6.94969e-05 0)
(0.0044244 -0.0153143 9.66848e-22)
(-0.000135544 1.28687e-06 1.10006e-21)
(-0.0145282 0.0782297 -2.08655e-20)
(-7.1968e-05 3.44868e-06 0)
(0.0178188 0.00834751 1.0376e-22)
(-7.12607e-06 2.40617e-06 0)
(-0.000272517 -0.00112692 1.99751e-21)
(0.0761883 0.0335678 1.22833e-21)
(0.0206286 -0.0882645 1.80211e-20)
(0.000976852 0.0116677 2.34685e-22)
(-0.000377185 -0.00101578 0)
(-0.0266791 -0.204673 1.16418e-21)
(-0.0198597 -0.0129361 2.44394e-21)
(0.0011294 0.000848751 -6.8977e-22)
(-0.00354298 -0.000904091 4.35316e-22)
(0.00538424 -0.0187404 0)
(0.0116818 -0.0195237 3.64723e-21)
(-0.0693119 -0.0645617 -4.97865e-21)
(-0.00142538 0.0018122 -1.74901e-21)
(0.085947 -0.0353164 0)
(2.02726e-05 -3.89612e-06 7.84273e-23)
(-0.000740541 -0.000586489 -7.89641e-22)
(-0.0564744 -0.048694 6.58749e-21)
(0.0246406 0.00291658 0)
(-3.91627e-05 4.16292e-06 0)
(0.00254967 0.161123 0)
(-6.00642e-05 7.3415e-06 -5.30772e-22)
(-7.13974e-05 8.23235e-05 1.07445e-21)
(-0.0430357 0.381234 1.00945e-21)
(0.0002224 0.000197478 7.28581e-22)
(-0.000271521 0.00129742 0)
(0.113972 0.223022 1.51266e-20)
(-0.0377466 -0.0376624 0)
(-0.188372 0.379075 1.62476e-20)
(-0.0415983 0.00723479 -2.45502e-20)
(-0.00561531 -0.0033243 0)
(-0.00125406 -0.000115769 -6.11684e-21)
(0.000995984 0.000398414 0)
(-0.00897916 0.222855 9.69789e-21)
(0.0364471 -0.00175456 0)
(0.080374 0.0276375 -2.31254e-21)
(-0.0224585 -0.0721972 9.36068e-22)
(0.00871207 0.00187975 0)
(0.0219251 0.00887237 0)
(-0.00692782 -0.0250877 -3.2666e-21)
(-0.0063003 -0.00385968 -1.49666e-22)
(-0.0495006 0.00972309 -1.67584e-20)
(-7.84545e-05 7.55315e-05 1.07229e-21)
(-0.0394767 0.0389121 -6.62695e-21)
(-0.000828707 -0.00108274 2.20634e-25)
(-0.00168846 0.000593233 3.05164e-21)
(0.00103959 0.00126229 -2.04706e-21)
(0.00514125 0.00328127 0)
(-0.0023558 0.00382243 2.36555e-22)
(0.0183268 -0.121799 4.92847e-20)
(-0.00859671 0.262829 1.15448e-20)
(-0.00151488 0.000417786 -4.02252e-21)
(0.00654919 0.0516813 7.97502e-21)
(-0.000454556 -0.000346408 5.42703e-21)
(0.000248726 8.63443e-05 -1.83354e-21)
(-4.21441e-05 -1.00667e-05 2.18628e-21)
(-0.0375971 0.0136816 2.9489e-20)
(-0.00556419 0.0014097 -8.82941e-24)
(0.140209 0.204711 -1.90731e-20)
(0.0525245 0.0116886 2.14282e-21)
(-0.00184486 -0.000292262 9.03983e-21)
(3.07496e-05 5.01732e-05 7.21324e-22)
(6.18762e-05 0.00129179 7.81547e-22)
(-0.0303458 0.0440894 2.7937e-21)
(0.0288275 -0.0137603 0)
(-5.46802e-06 3.9408e-06 -4.20121e-21)
(-0.10279 -0.0793212 5.03809e-21)
(-6.63114e-05 0.000117614 0)
(-0.0319482 0.0429035 6.94966e-21)
(0.00771442 0.00280914 4.93448e-25)
(-0.0248922 0.00308645 -3.57982e-21)
(0.0211684 -0.0251685 0)
(-0.00711167 0.0153466 5.02498e-22)
(0.0722584 -0.0200048 0)
(-0.00406084 -0.216541 -4.56204e-20)
(-0.014171 -0.0197076 -3.78984e-21)
(0.0385794 -0.0990777 -4.06803e-21)
(-0.038202 -0.0212437 -2.59474e-21)
(-0.00843424 -0.0143589 1.10383e-22)
(-0.000161745 -0.000258276 -1.11377e-21)
(-0.046031 0.000539503 -1.44405e-20)
(-0.00477685 -0.0443441 0)
(-0.000680394 0.00233258 1.97224e-21)
(0.0254946 -0.0574748 1.27587e-20)
(-2.37569e-05 8.79519e-05 0)
(0.00418772 0.00450613 2.9772e-21)
(-0.00650859 0.00125643 -6.20915e-22)
(-0.0298607 -0.00563747 -5.47213e-22)
(-0.00501735 0.00134282 0)
(0.0460569 -0.0897663 0)
(0.00562009 0.00142176 1.00195e-20)
(-0.000585981 0.000260823 2.08394e-21)
(0.00803066 -0.00810179 1.07013e-21)
(-0.0584618 0.0294554 4.61548e-21)
(0.0186446 0.00192152 -2.49279e-21)
(-0.00109113 -0.00120979 -4.61631e-21)
(0.0136162 0.0505791 1.5256e-20)
(0.0912673 -0.0530032 2.37981e-20)
(0.000882527 0.000312483 -1.43801e-20)
(-8.64494e-05 6.19108e-06 -1.83588e-22)
(0.0731464 -0.00364476 7.18985e-22)
(-0.000137427 -7.62707e-05 0)
(-0.0149822 -0.00783636 -1.56823e-21)
(0.10695 -0.0599707 -1.98305e-20)
(-0.00365164 -0.0038731 7.14359e-22)
(-4.20193e-05 -1.03773e-05 -9.74851e-24)
(-0.0289124 -0.201901 1.82737e-21)
(0.000179565 0.000289974 0)
(0.0312004 -0.0579397 0)
(0.0654305 -0.00200562 3.28202e-20)
(0.034884 -0.11989 0)
(0.0258457 -0.0148933 -3.60669e-21)
(0.024619 -0.0133203 1.14071e-20)
(-0.0016219 6.36163e-05 2.11899e-21)
(0.0037419 0.00408483 -2.51808e-21)
(0.0161314 -0.0925352 -2.03912e-20)
(0.0333873 -0.117544 -8.0259e-21)
(0.00346441 0.00183233 1.77497e-21)
(-0.00682532 0.0179346 0)
(-0.000199497 2.32161e-05 -5.33595e-21)
(9.95772e-05 0.00123259 0)
(-4.06775e-05 -1.24253e-05 -5.59336e-21)
(0.0303596 -0.0153385 0)
(0.002649 0.00644723 0)
(0.0064949 0.00192387 -4.83891e-25)
(0.00329196 0.00223845 1.68501e-23)
(-0.0077732 0.205125 1.87426e-21)
(-0.0360179 0.0287624 -6.38111e-21)
(0.00627158 -0.00110156 1.60446e-20)
(-0.000452249 0.000942881 4.51477e-22)
(-2.10303e-05 1.04405e-05 -1.79697e-21)
(-0.000349022 -0.000603303 -1.96578e-22)
(-0.0280737 -0.0732599 0)
(0.0112809 0.00391447 0)
(-0.00175562 0.000364728 0)
(-0.0159637 0.0666439 0)
(-0.000392818 -0.015214 -1.29388e-22)
(-7.41443e-05 3.24243e-06 0)
(-0.000182384 1.54695e-05 0)
(0.00839421 0.0311547 0)
(-0.00141803 -2.23056e-06 0)
(-0.00756049 -0.0136954 6.7455e-22)
(-2.85858e-05 3.08473e-06 4.59688e-21)
(-0.020622 0.0630647 0)
(-0.0104815 -0.0433821 1.14182e-21)
(7.56897e-05 0.000262992 0)
(-0.0684638 -0.0691165 1.29383e-20)
(-0.00549175 -0.000141819 -9.15011e-22)
(-0.0153762 0.0554762 -4.43945e-21)
(0.005032 -0.0105838 2.6046e-21)
(0.000658181 0.00137454 2.19917e-21)
(-0.0011817 0.00137322 1.17496e-21)
(-0.0120721 0.00185709 -5.54072e-21)
(0.00574837 0.00256672 -3.1993e-22)
(-0.0442857 0.0103307 0)
(0.0323882 -0.120718 1.72473e-20)
(0.035569 0.0383278 7.83433e-21)
(-8.50184e-05 -1.5861e-05 0)
(0.0210811 -0.000159602 3.67132e-21)
(0.0233185 0.00932606 -3.64666e-21)
(-0.00344215 -0.000707292 3.98652e-22)
(-0.0593307 -0.0520705 0)
(0.0326887 -0.130611 1.78997e-20)
(0.000185095 -0.000159898 8.73119e-22)
(0.00271849 -0.00678306 1.06854e-21)
(0.00339215 -0.00723087 0)
(-0.0428144 -0.173109 0)
(6.58677e-06 -0.00033049 1.9916e-21)
(8.11502e-05 0.000397089 3.2824e-21)
(0.0112264 -0.0109312 -4.98332e-21)
(-0.000136603 -0.000284851 0)
(0.004082 -0.000844131 1.40806e-20)
(0.000151057 -0.000198512 -7.87773e-22)
(-0.000135739 -8.56521e-05 -7.19494e-23)
(0.000256649 0.000204403 8.47816e-22)
(-0.0218883 -0.000771414 3.35417e-21)
(8.602e-05 0.000308791 -2.73114e-22)
(0.000201722 0.00136471 0)
(0.000768591 0.00129046 0)
(-0.0165778 -0.0452442 -1.45858e-21)
(-0.0181237 0.380377 0)
(0.0037615 0.00288161 4.63817e-21)
(-0.000144424 0.000461004 8.29353e-23)
(0.0983657 0.1904 0)
(-0.000142328 0.000425837 2.95029e-22)
(-0.0390641 -0.0507106 -1.23185e-22)
(-0.0115582 0.00129016 5.517e-21)
(-1.77317e-05 3.16699e-06 -5.64261e-21)
(-0.000101853 -9.53824e-06 1.17805e-21)
(-0.000303751 -0.000217734 6.6432e-23)
(-0.161057 0.0145425 -1.45718e-20)
(-0.060996 -0.058822 1.00478e-20)
(-0.000638148 0.0010414 -1.06198e-22)
(0.0766894 -0.175104 -4.92433e-21)
(-2.42602e-05 -0.000318457 -2.8605e-21)
(-0.00579316 0.153086 0)
(0.018327 -0.115725 -1.60709e-20)
(-0.00197352 -0.00120493 -3.23597e-21)
(-0.000158834 -8.79699e-05 1.02437e-22)
(-0.00108362 -0.00147878 8.81501e-24)
(0.000580112 0.00117567 0)
(0.00343919 0.00109293 0)
(0.00760177 0.0102884 3.98663e-23)
(0.000392233 3.79719e-06 -8.62794e-22)
(0.00285606 0.0129274 0)
(-0.0436308 -0.0227575 -2.3393e-21)
(0.0124741 0.0500438 9.42928e-21)
(-0.00440039 -0.0233259 -3.4359e-21)
(9.34079e-05 -3.10485e-07 0)
(0.000383989 0.0014977 0)
(-0.0143758 0.0103349 1.50175e-21)
(-0.150418 -0.000108079 -7.75126e-21)
(-0.0161542 0.00231977 -6.48601e-22)
(0.0281771 0.0542796 1.76033e-20)
(0.00709192 -0.00259426 0)
(0.000125836 0.000154481 0)
(0.00307581 0.000687838 0)
(-0.0204039 0.397007 -5.919e-21)
(-8.68149e-05 0.000213422 -1.54044e-21)
(0.02047 0.047349 0)
(-0.0141447 0.0390976 0)
(-2.14758e-05 5.51127e-06 2.25377e-21)
(0.00657322 0.00951293 -1.02956e-21)
(0.0266838 -0.00354478 4.73273e-21)
(-0.00189656 -0.0027117 -2.339e-23)
(0.032578 -0.0158159 0)
(-7.09069e-05 1.81199e-05 3.92437e-21)
(0.0347774 -0.0176302 -9.15978e-22)
(0.0139678 -0.0424193 3.16158e-21)
(-5.26998e-05 -1.7098e-06 4.03668e-21)
(-1.25255e-05 6.36643e-05 -2.16597e-21)
(0.000608507 -0.00159175 0)
(0.0172055 0.0507073 7.76523e-21)
(-0.00116266 0.0016218 1.186e-21)
(0.00135954 0.00119933 -7.07884e-22)
(-0.00450862 0.0016862 4.45465e-22)
(0.00230664 0.0512388 0)
(-0.00243496 0.0465981 7.51224e-21)
(-0.0336764 0.030326 -4.76653e-21)
(0.000132249 0.000479107 2.4402e-22)
(-0.000207619 6.29933e-05 0)
(-0.0290068 -0.16683 -8.31669e-21)
(0.00377315 -0.00263608 9.50833e-21)
(0.000260162 6.74697e-05 7.94828e-22)
(-6.65439e-05 -8.29354e-06 -7.96264e-22)
(-0.0172513 -0.0567993 5.46118e-22)
(0.0167743 -0.026781 -3.7605e-21)
(0.0108101 -0.00896571 -5.71013e-22)
(-0.0021653 0.136488 4.40797e-21)
(-0.000109202 5.82581e-05 0)
(-0.057505 0.0458833 -1.37728e-20)
(-0.000200367 8.63941e-05 -2.84367e-21)
(-6.60452e-05 -2.83296e-05 4.19642e-21)
(0.00497898 -0.0071041 0)
(1.67376e-05 1.05711e-05 -1.15062e-21)
(-0.0123191 0.0308274 -5.71373e-21)
(-6.76642e-05 -2.15823e-05 2.78733e-23)
(0.0364194 0.0447926 -7.07457e-21)
(0.0651338 -0.0421141 2.28673e-20)
(-0.0550616 -0.0521455 0)
(0.0218468 0.0887514 1.4083e-20)
(-0.00103087 -0.0159529 0)
(-2.90101e-05 1.16007e-05 0)
(0.0383712 -0.035066 -2.05205e-20)
(0.000158125 -0.000244894 8.12585e-22)
(-3.0944e-05 1.28145e-05 -2.5984e-21)
(-0.0685956 -0.0396969 -1.93715e-20)
(0.00115004 0.000986625 -2.2319e-21)
(-0.000321028 -0.000275857 5.46894e-23)
(-0.000737541 0.0168756 0)
(0.0159059 -0.196627 0)
(1.37822e-05 3.58968e-05 6.26634e-22)
(0.013705 -0.0631599 -1.44869e-20)
(0.000860907 0.00625459 0)
(-0.0493671 -0.00836952 1.33424e-20)
(-0.000116044 0.000186682 0)
(-0.0241758 -0.0159411 -7.26045e-22)
(0.0952953 0.023335 -5.14389e-22)
(0.0568847 -0.0363904 1.19405e-20)
(-0.00438986 0.0022088 4.45944e-22)
(0.0207796 -0.0184376 2.95959e-22)
(-4.33011e-05 1.07205e-06 0)
(-0.00121457 0.00539919 0)
(0.032453 0.143801 5.46776e-20)
(0.00646343 0.00202292 -1.10585e-20)
(-0.0510948 0.0443579 1.24841e-20)
(0.00026597 3.78579e-05 9.89909e-22)
(0.0736402 0.0202434 -2.2634e-21)
(-0.00139788 -0.0129877 0)
(0.0260001 0.0622954 6.61734e-22)
(-0.000133418 0.000188194 0)
(0.000414501 0.000946159 2.91141e-21)
(0.0207585 -0.0920926 2.84975e-20)
(0.0323496 0.00365455 -1.78255e-22)
(-0.0260821 -0.0598425 0)
(-0.0128638 0.0104462 -8.19084e-21)
(-0.000406722 -0.000429308 5.55804e-21)
(-0.00161353 -0.00122503 -1.45919e-21)
(-0.0394739 -0.175637 0)
(-0.0510139 0.00562228 1.60367e-20)
(0.00236899 0.0150455 -2.91497e-22)
(-0.00209248 -0.0126407 -1.72651e-21)
(0.000140104 0.00874587 0)
(-0.0266028 -0.0163824 0)
(-0.00146286 -0.00292464 -5.75935e-23)
(1.97135e-05 0.000259519 5.56682e-21)
(0.00128172 -0.204342 -2.5215e-21)
(-4.66188e-06 1.11094e-05 -2.16573e-22)
(0.00599141 0.122692 -4.16469e-21)
(0.00324985 0.000811874 7.79977e-22)
(0.0110862 -0.163767 -1.18537e-20)
(5.96801e-06 0.000104369 0)
(0.000674132 -0.001385 0)
(-3.62259e-05 8.27229e-05 -1.39158e-21)
(0.0761183 -0.178955 3.41777e-21)
(0.00483273 0.00180624 -1.41488e-21)
(-4.61412e-05 2.67824e-05 0)
(-0.00135414 0.00136939 0)
(3.69052e-05 4.88064e-05 -9.92869e-22)
(-0.0311274 -0.083135 0)
(-0.0121378 0.0406091 -2.55832e-21)
(-0.000106617 6.5305e-05 1.33756e-21)
(3.69315e-05 -1.01505e-05 4.57388e-21)
(0.00101988 -0.000466599 7.56075e-21)
(0.035292 -0.0381742 8.58687e-21)
(-0.00160933 -0.00180678 0)
(0.012898 0.0450524 4.06122e-21)
(-9.63501e-06 7.59111e-07 -2.54445e-21)
(7.17607e-06 3.48355e-05 0)
(-0.0249659 -0.0875493 8.7687e-22)
(-3.5738e-05 -3.27867e-06 0)
(0.0328373 0.0440754 -2.68015e-21)
(0.000788845 0.000872345 -1.23154e-21)
(-0.0574011 -0.0670285 0)
(-0.000126431 0.000371311 2.55317e-21)
(-0.000509863 -0.00030284 3.15882e-22)
(-7.82659e-05 4.73607e-05 4.78659e-21)
(0.0480019 -0.000545976 2.04545e-21)
(-6.49969e-05 1.59585e-06 -3.12834e-24)
(-0.0324797 0.0548013 -1.48686e-20)
(1.59892e-05 4.08412e-05 3.30371e-22)
(0.000304767 0.1785 6.49379e-21)
(0.000106767 0.00025499 -3.28371e-22)
(-0.0123481 0.041173 -6.92714e-21)
(0.00418964 0.00223008 1.40952e-21)
(-5.81e-05 9.78079e-05 1.34971e-21)
(-0.0271272 -0.0536503 -3.14252e-21)
(0.000981039 -0.000576472 -2.20201e-21)
(2.36745e-05 0.000233574 0)
(-4.37275e-05 -1.3658e-06 0)
(-0.0149879 -0.08793 6.83707e-21)
(0.0100007 0.0454142 -4.71205e-21)
(-6.11959e-05 -3.19864e-05 -2.15628e-21)
(0.0146992 0.0103101 -8.777e-23)
(-0.0791285 0.0689371 0)
(0.00039595 0.00109257 0)
(0.0180254 -0.0137155 0)
(-0.00899285 0.00125422 2.82918e-21)
(-0.0230162 0.39861 -1.96789e-21)
(-0.0135149 0.0313264 1.2913e-20)
(-0.0258182 -0.00494583 -1.12182e-21)
(0.00755527 -0.199874 -7.34671e-23)
(2.77779e-05 8.06784e-05 -5.75236e-22)
(-0.00864422 0.289108 8.39436e-21)
(-0.152323 0.480514 1.05268e-20)
(-2.59811e-05 -7.86478e-06 0)
(0.0411038 0.00230829 7.25397e-23)
(0.0696851 0.253289 0)
(0.00845356 -0.00956697 4.70211e-22)
(0.0909419 0.0303 0)
(-2.31104e-05 -7.6795e-06 0)
(0.0593761 -0.0284966 0)
(9.31897e-06 9.64216e-05 0)
(-0.066729 -0.0438724 0)
(0.0460303 0.0490049 0)
(7.67212e-05 0.000455951 -3.38732e-21)
(-0.0279577 -0.068392 1.61014e-20)
(-4.02484e-05 -2.79047e-06 -1.05845e-21)
(0.00603015 -0.00856172 0)
(0.000111903 -0.000275577 -8.16102e-22)
(0.0039185 0.00101042 0)
(0.0862059 -0.0380335 1.7514e-21)
(0.000705317 0.000733127 -2.82101e-21)
(-0.0294429 -0.0755038 -1.26409e-20)
(-0.0306162 -0.0288611 0)
(0.0456712 0.0330923 0)
(0.000130926 3.92048e-05 0)
(0.0668097 0.0617601 0)
(-0.0271576 0.000203764 1.0587e-22)
(9.86683e-05 0.00208388 0)
(-0.0178778 0.395945 -1.62398e-20)
(-0.000113 0.00127126 -1.23283e-21)
(-4.39248e-05 -4.59266e-06 0)
(-0.0237129 0.0656133 -2.93115e-21)
(-6.78202e-05 1.99373e-06 -2.76578e-22)
(0.000792409 -0.0160056 -9.78412e-22)
(0.0421679 0.0295202 -2.74703e-21)
(-6.45094e-05 1.17612e-05 -4.30821e-21)
(0.00560366 0.000519492 -9.69444e-21)
(0.00470836 -0.0212471 0)
(-0.00163221 0.000435542 0)
(-0.000293107 -6.10904e-05 5.2571e-23)
(0.0243206 -0.0312733 1.20111e-21)
(-0.00853939 0.00142457 -2.63234e-21)
(1.50753e-05 -5.66416e-06 0)
(-0.000100627 0.000214704 0)
(-0.00265557 -0.0358267 -1.50873e-22)
(0.039971 0.0124225 5.07961e-21)
(0.0116776 0.0421847 -6.26995e-21)
(-0.0715846 -0.033318 -5.75106e-22)
(0.077121 -0.0304293 0)
(0.0347884 0.0289593 0)
(7.84182e-05 -0.000329442 0)
(0.0848491 -0.0856326 2.72132e-21)
(-0.0538857 0.47222 3.01884e-21)
(7.06474e-05 5.83673e-05 0)
(-0.00773133 -0.0262875 3.53519e-21)
(-7.70684e-05 0.000220674 -6.3425e-21)
(-0.0186314 0.00272631 -6.7264e-21)
(0.000130378 1.93306e-05 0)
(-1.09857e-05 4.35075e-06 9.55841e-21)
(-0.000108803 0.000214085 -1.61066e-21)
(5.32786e-05 0.000210177 0)
(1.79485e-05 6.54871e-05 -2.00148e-22)
(-0.0471802 0.362956 2.47013e-20)
(-0.0180664 -0.199339 6.47577e-21)
(0.0517328 0.027886 9.95469e-22)
(0.00346656 0.0119388 4.13096e-21)
(-0.00200211 -0.00191523 -1.34801e-21)
(-0.169197 -0.00544286 1.85237e-21)
(-3.07226e-05 3.52666e-05 -2.51282e-21)
(-0.0239596 -0.215136 5.80364e-21)
(-0.0242825 0.0104333 -3.63099e-24)
(0.0331802 0.0912075 0)
(-0.00281762 0.00193664 -2.02361e-21)
(-0.160982 -0.0148058 8.38419e-21)
(-0.000252142 -0.000458053 1.5968e-21)
(0.0574795 -0.0382613 -6.66128e-22)
(0.00650591 -0.000136439 -5.20325e-21)
(-0.0301477 -0.207411 5.43366e-21)
(-0.000426021 0.00143842 0)
(0.0244244 -0.105403 3.29705e-21)
(0.0682637 -0.0271733 7.77101e-21)
(0.00326791 0.0138233 -4.09682e-21)
(0.136784 -0.158793 0)
(-2.39227e-05 1.10328e-05 -6.24422e-21)
(0.0913351 0.0310769 0)
(-5.28753e-05 1.52505e-06 0)
(0.00495867 0.032758 0)
(-0.0769821 0.193098 -3.74272e-22)
(0.000126674 9.76339e-05 3.86749e-21)
(2.52744e-05 0.00108463 2.32642e-22)
(-5.99925e-05 -3.77251e-05 0)
(-9.11221e-05 -2.36335e-06 -1.52697e-21)
(-0.0701947 0.0669782 0)
(-0.0451953 -0.147838 -1.18774e-21)
(-9.16338e-05 -6.2814e-05 -1.13072e-21)
(0.0242411 0.0144408 0)
(0.0772807 -0.094841 6.83266e-21)
(-0.0185792 -0.179052 1.61605e-21)
(5.21152e-05 0.000187541 0)
(0.0340353 0.0680523 -1.95356e-22)
(0.000155495 5.05829e-05 9.25308e-22)
(-8.42011e-05 -6.37284e-05 9.07574e-22)
(-0.00635178 0.223832 0)
(-0.00467169 0.133227 -6.6009e-21)
(-0.0152612 0.00150182 0)
(-0.0141664 0.0437883 -1.47904e-20)
(-0.00205233 0.00396153 -8.12838e-22)
(-0.0107384 0.236697 4.31616e-20)
(-1.21095e-05 5.96424e-06 3.69966e-21)
(-0.000133275 0.00192614 0)
(0.00189731 0.0558962 0)
(-0.0105015 -0.0627523 1.46714e-22)
(-0.000693415 -0.000348751 -5.21287e-22)
(0.0269227 0.00162987 -3.78875e-22)
(-0.0128422 -0.0371022 6.22262e-22)
(1.93482e-05 6.02937e-05 -1.04901e-21)
(-0.000629112 0.00116783 5.15551e-21)
(2.91307e-05 0.000120172 -3.44737e-22)
(-0.0533675 -0.131425 0)
(-0.0153393 -0.008929 0)
(-0.000121928 4.96724e-06 1.15814e-21)
(-0.00129997 -0.00166389 0)
(-0.0288386 -0.0829363 7.25226e-21)
(-0.00462567 -0.0317512 0)
(-0.0174377 0.046543 -9.76436e-21)
(-0.0259714 -0.0846979 -7.19305e-21)
(-0.00300635 0.00209039 2.75987e-21)
(-0.0155318 -0.263514 9.24419e-21)
(0.00091464 0.00137595 0)
(-0.000175996 -7.40403e-05 0)
(-0.000366839 -0.00022859 0)
(0.00314882 -0.0140709 -5.52267e-22)
(-0.0423855 -0.0258141 1.25461e-20)
(6.06599e-06 3.76926e-05 0)
(0.000107506 -0.000326885 8.13884e-22)
(-0.000145399 0.000320515 0)
(0.0484702 -0.00848526 1.04365e-21)
(-4.09148e-06 0.00216488 5.78731e-21)
(-0.021599 -0.219835 -1.6012e-21)
(0.0535566 -0.170103 0)
(8.03335e-05 -0.000304479 1.33035e-22)
(0.00546139 0.0299094 1.47295e-20)
(0.0598365 -0.0577397 4.06227e-22)
(0.000207583 0.000273887 3.38895e-21)
(-2.00018e-05 5.09524e-05 -3.51023e-21)
(-4.77683e-05 3.07576e-05 0)
(3.37913e-05 -5.85246e-05 7.99761e-23)
(0.0364212 -0.00991019 0)
(-4.5425e-05 -1.49551e-07 4.10474e-21)
(0.0632739 0.0412317 0)
(-0.013886 0.0144189 -5.34524e-22)
(-0.0224929 0.013301 0)
(-6.51825e-05 2.06103e-06 0)
(6.70497e-05 4.90237e-05 -9.94834e-22)
(-0.00261197 0.00148499 1.19634e-21)
(-8.57279e-05 -3.84321e-06 1.23766e-21)
(0.0120369 0.0082946 -4.57446e-22)
(0.0263681 0.0226418 -1.7038e-20)
(-0.0247212 0.273947 0)
(0.0650377 0.0225879 -7.42087e-21)
(0.0726268 0.0538074 0)
(0.0859083 0.0150805 3.57953e-21)
(-4.51971e-06 1.15908e-05 -8.96517e-21)
(4.94556e-05 5.8938e-05 -5.65621e-22)
(0.10413 -0.0264444 0)
(-0.0157587 -0.00669821 -2.13879e-21)
(0.0387347 0.00667994 6.71677e-21)
(0.00852112 0.00361891 3.34119e-22)
(-0.0424919 -0.0234412 -6.32532e-21)
(0.00274169 0.164179 -1.43202e-20)
(-0.0296732 0.152899 -6.97011e-20)
(0.0241542 0.129188 -3.03656e-21)
(0.0206989 0.0140842 0)
(-0.000114261 2.45149e-05 -3.40443e-21)
(-3.48412e-05 -1.37518e-05 5.56968e-21)
(-0.00034596 0.00821984 0)
(5.50419e-06 -2.31569e-05 3.98897e-21)
(0.0935547 -0.0872424 -1.53089e-20)
(0.0670999 0.0306123 2.51645e-22)
(-5.86798e-05 -0.00153881 0)
(6.18506e-05 0.000257926 -2.95795e-22)
(-0.0139199 0.00206902 4.39547e-21)
(0.0182725 -0.0151471 7.89349e-23)
(-0.122643 0.492269 -3.84869e-20)
(0.0190962 0.00463522 -9.02761e-22)
(-0.0199699 -0.204053 8.95937e-21)
(-4.34808e-05 -6.89567e-06 5.29291e-22)
(0.048322 -0.0725996 0)
(-3.46279e-05 -9.04831e-05 -1.63217e-21)
(-0.000385944 0.000497715 0)
(-0.00471467 0.001841 2.04875e-21)
(-0.000279193 0.000940149 -2.31932e-22)
(-0.00140306 -0.000506474 -5.70666e-21)
(0.078525 0.0415575 3.07978e-20)
(2.10626e-05 -3.60059e-05 0)
(7.09903e-05 -0.0199682 3.40716e-21)
(0.0148802 0.0059143 0)
(-4.79869e-05 -9.34068e-06 -9.0844e-22)
(0.00100468 -0.00079628 1.14971e-21)
(0.00268519 0.000967498 8.46772e-25)
(-0.00731987 0.0622636 -5.25213e-22)
(-0.0357845 -0.044302 8.81109e-22)
(0.0107998 0.0129278 7.65841e-22)
(-0.00678587 -0.0208579 1.08847e-21)
(-0.000793479 0.0018212 0)
(-0.00965779 -0.027299 -1.71116e-23)
(0.0251246 0.0596803 7.62283e-21)
(-0.0149496 -0.0489736 0)
(-0.00114017 -0.00146289 0)
(-0.0013604 0.00112665 0)
(-8.35802e-05 -1.71266e-05 0)
(0.00439058 -0.040585 -5.89993e-22)
(-0.000617936 0.00278945 -4.70285e-23)
(-9.33574e-06 5.54776e-06 4.01585e-21)
(0.000690654 0.000458119 -1.21065e-21)
(-0.000118747 -0.00137706 -4.94026e-22)
(3.92155e-05 -9.80169e-05 -6.58273e-23)
(-0.116454 0.554105 -2.81064e-20)
(0.000940679 -0.0196481 0)
(0.0111608 0.011857 -6.27489e-22)
(0.026278 -0.000627845 -8.78137e-22)
(-7.23904e-05 -7.69264e-06 0)
(-0.0115854 0.0157942 5.78013e-22)
(0.00537403 -0.00713533 0)
(0.0743772 0.00351455 3.44118e-21)
(-0.0002114 8.0682e-05 0)