/*--------------------------------*- C++ -*----------------------------------*\
| =========                 |                                                 |
| \\      /  F ield         | OpenFOAM: The Open Source CFD Toolbox           |
|  \\    /   O peration     | Version:  v2012                                 |
|   \\  /    A nd           | Website:  www.openfoam.com                      |
|    \\/     M anipulation  |                                                 |
\*---------------------------------------------------------------------------*/
FoamFile
{
    version     2.0;
    format      ascii;
    class       volScalarField;
    location    "350";
    object      ddt0(k);
}
// * * * * * * * * * * * * * * * * * * * * * * * * * * * * * * * * * * * * * //

dimensions      [0 2 -3 0 0 0 0];


internalField   nonuniform List<scalar> 
18166
(
5.85517e-09
-5.44515e-11
1.38512e-08
-4.69461e-07
0.00679836
-2.82953e-08
-7.05941e-10
-0.000492328
-0.000705685
0.00544171
-2.99589e-09
-5.47729e-09
-0.00264584
-1.18743e-05
-7.33341e-05
0.000103061
-2.31937e-10
0.0186615
1.85106e-08
-5.89016e-05
-1.86683e-06
3.40226e-09
-1.94655e-06
-1.00877e-07
-1.43778e-11
-1.0944e-09
9.43311e-08
-7.24385e-09
-2.09119e-08
-6.98041e-07
-1.16473e-05
-8.20033e-11
2.5501e-09
9.56502e-10
-9.2288e-10
-6.69636e-09
-0.000971288
-4.74324e-09
-5.35086e-10
0.00559573
-3.90983e-11
-0.015998
3.3601e-10
3.81435e-09
7.2533e-09
2.82367e-08
4.12385e-07
-4.65405e-06
-0.000154958
1.13021e-07
6.20077e-09
-5.25978e-08
-2.03531e-06
1.42157e-10
2.8213e-09
-0.000219469
-0.0148808
0.000900904
-6.43387e-09
-1.13816e-08
-2.37955e-08
-1.19839e-09
-0.000292095
4.15956e-08
-0.000189839
8.99534e-08
0.000115192
-0.000201171
-0.00917301
-2.08415e-09
-1.16867e-10
1.5744e-08
2.24568e-08
-2.79399e-09
0.00328281
-0.00966644
-6.05793e-06
-0.00962215
-5.92964e-10
1.48885e-09
5.30875e-12
-0.00114663
2.99349e-07
-1.21689e-07
2.28891e-10
3.30701e-10
-3.53387e-09
1.27452e-09
-4.59219e-08
4.7315e-10
0.000331747
3.22053e-08
0.00161059
9.28337e-12
2.63945e-10
1.99743e-09
-1.53363e-10
-2.91823e-07
6.06775e-08
-3.41183e-09
1.61616e-10
6.67982e-10
-0.000203949
3.66446e-08
-2.41005e-09
-6.41858e-09
0.00378492
0.0048132
1.8806e-08
-4.73257e-09
0.00114366
-0.00159926
-0.000382627
0.0017085
6.66003e-10
-1.1429e-09
6.47991e-09
0.001152
2.00053e-08
-0.000617866
-0.0112547
8.24673e-09
0.000774466
0.00555659
4.35887e-06
-2.35749e-08
-4.22626e-08
0.000176816
1.9631e-08
7.18473e-08
-9.48631e-06
-0.00275814
-4.6054e-09
-0.000222328
4.75828e-08
2.61034e-07
-7.21218e-10
-1.35296e-09
-1.32652e-09
-4.95216e-05
-0.00109884
-0.000189993
0.000304231
-0.000404856
2.41486e-08
0.00461116
-0.000170543
-0.000536605
-1.52903e-10
-1.87981e-09
-7.97671e-11
0.000269591
0.0195054
4.38235e-06
-7.96266e-10
-2.01791e-09
2.25762e-09
-0.000309805
-2.05483e-09
-0.000760928
4.23702e-11
0.000249502
-8.85754e-09
-6.16148e-12
-5.13051e-08
-0.00210772
7.72898e-09
-0.000457956
-0.000132718
-0.00168677
-9.56088e-05
0.00159377
6.57764e-08
-3.36725e-05
0.00634741
3.67406e-09
6.26004e-05
-0.000981947
7.77253e-11
2.93911e-10
-5.3528e-10
4.29835e-08
0.000256597
0.000318987
0.000788049
-1.32594e-11
3.39875e-09
-6.18037e-07
-1.08514e-09
-9.89227e-10
-7.55146e-08
-3.04011e-09
1.98804e-09
4.65587e-08
5.58746e-08
-9.65631e-06
-2.18978e-08
5.87124e-08
0.00147676
0.00467108
-0.000154563
-9.07948e-05
-1.88484e-09
-0.00137444
1.17052e-08
-5.64271e-08
-0.00162544
-0.000223421
0.00860225
9.8485e-05
0.00674212
-0.00118258
7.27227e-11
2.6533e-08
1.66918e-08
4.54473e-08
-0.000807523
1.17866e-07
-0.000311035
-0.000894853
-2.4837e-09
-1.12502e-09
2.60674e-10
-1.83939e-06
-0.000791385
4.28745e-10
-5.43758e-07
-7.03103e-11
-5.52093e-08
-1.8351e-09
5.05181e-05
-0.000354394
1.52507e-09
-3.05583e-05
1.48611e-10
-1.9495e-09
1.37309e-08
2.85929e-08
-0.000311975
0.00345925
5.08959e-09
-1.38723e-05
-0.000130216
-9.78993e-09
-0.000853588
-1.83189e-07
-5.96802e-07
5.79935e-05
2.73145e-05
2.28876e-08
-1.31861e-09
-2.43554e-08
8.56095e-09
2.40741e-08
0.000267157
0.0122505
-5.47652e-09
0.000138837
-0.00258364
-5.48407e-11
-8.49137e-08
-2.48667e-05
3.39031e-08
-0.000150787
0.0019518
-0.000476863
0.0022854
3.07655e-09
4.17623e-11
-6.11458e-09
5.68109e-08
-4.20193e-08
2.3514e-10
0.00117778
-3.68962e-08
0.000246861
-0.00116963
1.0231e-10
-0.00954142
5.856e-12
4.47188e-07
0.0001369
8.7782e-09
-2.73905e-10
6.76816e-09
2.55602e-08
1.57665e-09
-3.56575e-09
-0.00115628
2.67713e-09
-6.84849e-09
1.88275e-07
-6.48359e-09
-5.12199e-09
5.43149e-09
-1.06752e-05
1.45966e-10
-2.26075e-09
1.05893e-09
-0.00114163
-0.00132027
1.55161e-09
-8.84258e-10
2.12342e-10
0.00807272
-4.86261e-09
-0.000248859
-9.38296e-06
1.18756e-08
5.28454e-10
-5.59187e-09
-0.00106931
-1.54968e-05
-6.19415e-08
2.16386e-09
0.00299873
2.05674e-05
-5.93219e-09
-5.7512e-08
0.000918675
2.40975e-09
5.49105e-08
-0.000191598
5.8217e-08
6.92937e-08
8.00764e-08
-3.51141e-09
-3.41437e-09
6.16703e-10
3.71733e-05
5.4025e-10
-0.000347595
5.80556e-11
7.37728e-10
-0.00469248
0.000263245
0.000319149
0.000125117
0.000294829
-0.000363552
5.69581e-10
0.00200895
0.000925095
-0.000201015
-1.78429e-09
4.79079e-09
6.29006e-10
-1.01598e-07
-1.34631e-08
7.61995e-08
-1.94397e-08
6.14621e-08
-9.43063e-09
-3.83947e-10
6.85465e-06
-1.06087e-09
3.07596e-05
-1.27695e-08
4.78422e-09
-7.48486e-11
-9.97311e-10
-0.000460921
-2.89085e-05
-7.2052e-09
-2.40621e-09
-2.39066e-08
-5.63453e-09
-2.14522e-06
1.64641e-10
0.00411351
0.0200345
-6.12011e-10
-4.2256e-12
2.51038e-05
-0.000139026
-0.00925195
-0.00018073
1.85006e-09
-8.05749e-09
0.000284676
-8.41642e-10
-5.4242e-05
-0.00166782
-9.9777e-10
-9.5488e-09
-7.26905e-08
1.12268e-07
8.88395e-12
-0.000317091
-3.99573e-08
5.35739e-10
-2.97039e-09
-5.16709e-10
0.000179686
9.97482e-05
-6.65074e-09
2.11583e-08
0.0016955
7.84917e-10
-6.67891e-10
8.85586e-10
-0.000102748
0.000649161
-3.36208e-13
-0.00446916
-2.6384e-09
-1.48171e-09
0.000224921
0.000169794
-2.76108e-08
0.00941878
0.0150769
7.48707e-08
-0.00714982
1.98858e-09
-1.87825e-09
2.9135e-07
0.00017962
-4.89655e-11
5.41167e-09
-2.34486e-09
-2.71193e-08
-0.0028315
-4.68457e-09
0.000388141
-4.72404e-09
0.000888549
2.23943e-09
-3.56412e-05
0.000138142
1.02271e-08
0.00116099
8.34064e-08
-3.03088e-09
5.79844e-09
0.000227307
0.000653442
2.92196e-12
0.00415246
-3.86192e-09
1.09743e-10
0.00560506
0.00017053
-6.61391e-09
0.000298499
0.00217251
8.37319e-11
-0.00150261
-4.79652e-06
1.65368e-09
-4.08352e-07
0.00117048
0.00446179
1.1169e-08
-0.000115035
0.00286454
0.000381136
3.49979e-07
-4.45697e-10
0.000982195
2.95137e-08
1.2622e-08
-0.00151037
-0.00767721
-4.51983e-10
-1.44375e-08
-6.32913e-09
-8.85837e-10
-1.47189e-07
6.37624e-10
-1.04722e-10
-3.40843e-08
0.000201867
-1.93202e-10
3.85767e-07
4.46328e-09
-0.000197211
4.04628e-09
1.41954e-11
-0.00442378
-0.00574383
9.27772e-07
-0.000235041
-5.11003e-10
-1.4742e-09
-0.000922969
-0.00765714
7.22542e-08
1.5961e-09
1.08324e-05
0.000399628
1.53564e-10
6.53828e-09
-1.38633e-09
1.08966e-08
1.13561e-05
-0.00143082
7.62535e-10
1.67227e-09
0.000142411
0.00235991
0.000197589
3.49678e-10
-7.21062e-08
-0.00974458
1.43948e-08
3.99036e-08
5.43791e-09
7.26021e-08
3.44613e-08
-0.000757272
0.020598
0.000114305
9.47049e-10
-7.91728e-07
1.90869e-10
1.47457e-12
0.00253917
0.0168257
-2.63278e-08
-0.000306925
-0.000376194
-0.00669608
-0.0010697
-9.03728e-06
-0.00165813
-0.000211287
4.87776e-07
8.77792e-05
-2.6701e-09
-3.79603e-06
2.074e-08
-2.83678e-09
8.59725e-05
0.00108124
-1.30021e-08
-0.00925284
-0.00743628
-3.27686e-08
-6.32093e-12
-2.67202e-08
0.0162372
0.000315944
-0.000162322
-7.78106e-11
-0.00484034
-0.00534517
-3.61435e-08
2.13677e-10
-9.20174e-08
1.02055e-07
-0.00363827
0.000598691
2.70459e-10
-0.00185745
1.47096e-09
0.000116817
-3.93243e-09
-4.37467e-10
-1.67417e-08
0.00204742
6.1281e-10
-8.5156e-11
0.000626448
-0.00187815
7.06847e-07
-1.26962e-05
4.6292e-10
1.88879e-09
2.80419e-08
-6.83393e-05
-1.44526e-06
-4.42769e-05
2.20466e-08
0.0222305
0.000215806
1.14073e-08
0.00077157
-3.40434e-08
-0.000646966
-5.59649e-09
-0.000366503
0.000523643
2.79822e-06
-4.66546e-09
-0.000238994
0.000723763
2.07219e-10
-0.011006
-4.11501e-08
-2.5754e-10
0.000241927
-9.35575e-05
1.32078e-08
5.79332e-09
1.82492e-11
0.0074732
0.00165783
-6.03143e-10
0.000494684
-7.35714e-09
1.04786e-09
-2.77681e-09
-2.22878e-07
-1.7638e-05
-8.22682e-09
-0.0085307
-4.11409e-09
1.12055e-10
-0.0012797
-0.000117884
0.00136712
-0.000226364
0.00459761
-4.01489e-08
-0.00426399
-0.00864408
-5.23469e-09
0.0122141
6.05872e-07
3.08719e-09
-9.20077e-08
0.000248702
2.48465e-08
2.2787e-07
-1.27246e-08
1.9322e-08
-0.00353863
-3.16639e-11
-0.000907575
5.66164e-08
2.40147e-08
6.76282e-08
3.84367e-10
2.21627e-09
0.000296056
6.51029e-10
2.49076e-11
-2.26668e-07
3.29303e-09
1.62878e-08
3.26869e-11
-7.79999e-06
7.89616e-08
7.19467e-09
8.97707e-10
0.0175526
-0.000155338
0.00129669
-2.52249e-11
0.000262037
-0.00102711
-0.000739484
9.06748e-10
0.00108985
8.10493e-08
-0.0114954
8.17924e-08
8.96311e-06
0.00978365
-4.24622e-05
-0.000538802
0.000367459
-0.000293678
3.26545e-10
-0.000303072
-5.70473e-11
-5.01555e-08
-3.39889e-08
-6.89182e-08
-5.39926e-10
-0.000227378
2.74418e-07
1.14314e-09
-0.00242509
-0.0109471
-3.76607e-07
-1.44533e-09
1.38676e-08
-3.59407e-11
1.33819e-10
3.3198e-09
-4.21313e-09
-0.00129006
-1.22886e-08
-0.000708956
-0.00081276
-0.000298144
-0.000663232
4.84693e-06
3.68682e-08
3.0604e-08
0.00903518
-6.05647e-10
-0.00026103
0.000214419
-8.86909e-10
-3.04922e-08
0.00021465
0.000507543
-0.0004607
1.19522e-10
-1.07912e-08
-1.11602e-09
0.000230593
-0.000302988
-0.00850653
-3.97209e-07
0.00267688
0.000854839
-3.86323e-07
-0.000155478
-0.00430469
0.000561802
-5.66545e-10
4.73206e-05
4.62735e-07
1.66387e-07
-0.000292769
2.52267e-11
9.70593e-06
1.81973e-06
-4.09766e-10
-5.59722e-05
0.000552753
4.6703e-06
0.00257498
3.752e-08
1.56996e-09
-1.78016e-10
-4.14889e-05
0.00807836
4.45447e-08
0.00203186
3.47764e-09
0.000158545
-0.00178999
6.9299e-10
3.21058e-08
1.40153e-09
3.59937e-08
-2.84279e-11
-0.0105495
2.4856e-06
0.00469745
1.52512e-10
-8.48915e-10
-8.29979e-10
-0.00855077
0.00464218
2.54049e-08
-0.0116316
2.96551e-07
0.00849693
1.15917e-07
2.73984e-12
0.00863097
-7.49436e-09
-0.0148691
0.00404968
7.04833e-07
-0.000503663
-4.83728e-09
-8.95157e-05
-0.000259543
0.000366686
2.88461e-09
2.5028e-10
8.0481e-10
-3.22639e-08
-0.00129128
2.0516e-08
-3.68896e-09
0.000100822
6.61423e-09
-4.26762e-05
3.3635e-05
1.04512e-07
2.0127e-10
0.000231902
-6.89587e-10
2.13657e-09
0.00672268
-1.54093e-05
8.73717e-11
3.10995e-05
0.000463164
2.22784e-10
1.6305e-09
-7.3184e-09
7.18129e-07
-2.91288e-05
-2.32595e-10
0.000306615
2.59093e-10
7.56385e-05
-0.00557742
-4.4784e-05
0.000766032
-1.04805e-06
-3.07794e-09
-0.000316977
3.30671e-11
-0.00265982
1.601e-10
4.18269e-11
5.2717e-10
1.69186e-09
0.000151865
1.59568e-09
1.96374e-10
-4.75368e-10
7.69672e-11
-0.00133194
-6.99137e-08
0.00190524
-2.23998e-09
-3.48669e-09
-4.86663e-10
-0.000494549
-0.000202497
-0.00673719
-0.000274369
-7.7254e-10
-0.000369107
-2.10801e-07
1.0231e-08
1.96314e-09
3.01786e-05
-0.000139085
1.55695e-08
-5.9151e-06
0.000945928
-4.20689e-08
7.32213e-10
-1.19001e-07
2.84174e-08
-1.04025e-07
0.000549226
-0.0035638
-2.64324e-10
-0.000265902
-1.10424e-09
-0.00632649
1.63779e-07
4.95095e-08
3.73956e-08
-0.000132242
0.000289647
-0.0013863
-6.17195e-08
2.07726e-08
3.63518e-10
-0.000304661
-1.65337e-10
6.79633e-09
4.45265e-09
7.16659e-11
7.27031e-07
-1.68485e-08
7.76656e-09
-0.00172334
-2.98216e-10
9.09495e-05
-6.1012e-09
0.00830197
4.60222e-09
0.000100358
7.98248e-08
9.92396e-09
-0.000170466
-0.00521015
0.00109023
4.24352e-08
6.92895e-08
-4.77888e-06
-0.000618578
6.93615e-09
2.15597e-09
4.039e-09
-0.000872137
-4.10173e-09
7.34495e-08
-0.0012861
-8.43136e-08
-2.01048e-10
5.82102e-12
-3.46006e-10
7.5504e-08
-5.03829e-11
-0.00319722
-1.69825e-09
3.09111e-10
4.81651e-09
0.000271279
2.37907e-09
1.12994e-08
7.8216e-11
-2.20445e-10
1.52315e-08
6.67392e-05
0.00420374
-0.00765879
-3.6173e-10
-1.37348e-09
0.00180743
0.00509256
0.000692062
0.000156586
-3.32457e-06
0.00133832
2.63093e-09
-1.98815e-09
0.00156349
-9.06676e-05
0.000176996
-1.8363e-09
-5.43456e-08
-4.18373e-08
-0.00483976
-0.000501447
-4.79326e-09
-3.5269e-05
7.79101e-08
0.00380175
0.000271151
-0.000218186
-7.41447e-10
-0.0012904
-4.04226e-11
3.12257e-11
0.00221562
1.27367e-11
2.467e-09
0.0023327
-9.63097e-05
-1.68458e-10
-0.000260525
1.59314e-06
-7.05126e-11
-0.000185068
-5.25584e-10
0.00306655
0.0016988
-5.2819e-07
-0.000255367
-0.000153073
0.0084254
1.1789e-09
1.07785e-09
8.77627e-09
1.68137e-09
-3.57002e-10
3.3414e-09
-0.00161151
-0.000508996
4.62346e-10
-0.000104716
-6.46663e-09
-1.86684e-08
-1.44954e-09
-1.34796e-09
-6.37748e-05
-0.000201497
-0.000273209
0.00110053
-7.37874e-08
-3.03975e-08
-0.000168742
3.56047e-10
-0.000136594
-0.00931493
0.00104486
0.000316262
2.53361e-10
-2.64395e-10
-1.11028e-09
-1.86186e-10
-3.88555e-08
-0.000135865
2.58231e-10
0.000863195
6.55445e-10
-4.10242e-09
-8.85336e-10
-0.000616745
-0.00532271
2.96649e-10
-3.86379e-09
0.000249503
-9.53427e-10
0.000291292
0.00524841
2.19652e-09
0.00377513
-3.35834e-10
9.3812e-05
0.00337546
-5.96388e-05
0.00119394
-9.31115e-10
4.04089e-07
-0.00342461
-9.00012e-08
-0.000183382
-0.000616037
7.60636e-05
-3.66366e-08
-2.83312e-08
3.31666e-09
-3.99883e-08
-0.000101279
0.00428093
5.47971e-07
-1.02919e-06
-1.88724e-10
-1.51361e-05
-9.40967e-08
2.60894e-09
2.57709e-06
0.00184859
-0.000106847
0.0045067
6.18057e-08
-7.44163e-05
0.000163061
1.94986e-09
1.27099e-09
-4.1807e-09
-7.61349e-07
-1.56723e-08
1.29537e-08
-4.42596e-09
-1.97231e-08
5.33972e-09
-1.50998e-06
-1.8379e-10
3.80069e-07
-0.0016966
-2.76165e-05
0.000327892
-8.99866e-05
-3.37135e-10
-3.18466e-08
-0.0101038
-7.39262e-07
1.41022e-10
2.56819e-10
-4.29192e-05
5.3543e-08
-1.8865e-06
5.60298e-08
-2.77057e-09
-0.000116204
-0.000167166
0.0269679
-1.64348e-08
0.000341246
-6.68796e-08
0.000198205
-0.000156579
5.37092e-08
1.13346e-08
1.42904e-07
-1.95462e-05
0.000269852
-9.03468e-09
0.00449212
0.00122731
0.00166501
-3.55794e-08
0.000180425
4.24149e-08
0.00955733
9.0869e-10
-3.71868e-11
-3.69612e-10
-3.65621e-09
2.52726e-09
1.2451e-08
9.23758e-10
-0.00238894
-1.0812e-10
2.3165e-08
0.000197437
1.18876e-08
4.82971e-07
-0.00015418
0.000751512
0.00477562
-2.8141e-10
-5.65623e-08
1.9882e-10
1.03253e-08
0.000356774
-4.9508e-05
-8.60683e-06
-0.000460492
0.00117943
8.97828e-10
3.58798e-08
5.39569e-09
8.64067e-11
1.47756e-08
1.53391e-09
3.71128e-08
-1.13402e-09
4.75242e-09
1.10853e-07
-2.34924e-09
-1.20365e-05
8.68515e-08
-1.61566e-09
0.0100251
-6.25532e-09
-3.3507e-10
-0.000561648
4.8041e-08
-0.000171676
-0.000125019
4.01647e-07
-0.000969098
-1.48519e-05
-5.12624e-05
-9.0629e-10
0.00262186
5.50566e-09
0.00402147
-8.16394e-09
4.81067e-05
5.66807e-06
-0.000244449
3.14302e-08
-0.000893378
-2.98329e-08
-6.90431e-11
-2.56008e-09
0.000264155
1.73451e-08
-0.0017455
-0.000329212
-0.000176195
2.96091e-10
0.00474597
0.000256917
-7.60945e-10
2.85084e-09
-5.84871e-08
8.70045e-09
-0.000483956
3.88899e-08
-4.22984e-09
0.00538672
5.30328e-09
0.000141414
-2.59601e-08
1.11006e-08
-0.00986511
5.86043e-09
-4.90095e-05
2.75067e-09
0.000500759
-2.66203e-10
-0.000102833
4.19636e-09
-1.71522e-09
0.00382726
0.000109315
-1.09401e-08
9.90853e-10
0.0158755
-8.82969e-10
-2.92729e-10
-0.000149669
-2.38953e-08
0.000195672
-0.0134686
6.5087e-10
0.000138752
0.000364329
7.12681e-07
-7.03233e-07
-2.13343e-09
0.00782496
-3.69242e-08
-9.54759e-07
2.74566e-11
-5.97249e-07
5.00428e-08
4.74151e-10
0.00184543
1.74693e-08
0.0018654
-0.000413892
0.00234895
-9.18811e-10
5.78971e-09
4.29576e-11
5.53207e-09
1.65113e-06
-1.36012e-10
-0.0123018
0.0264951
-0.000168878
0.000318748
-0.00715815
-0.0013383
-0.000757905
7.83763e-09
-6.88448e-08
9.53806e-09
-6.523e-07
-9.88546e-09
-4.43587e-09
-5.49664e-05
6.44367e-10
0.00068491
2.60992e-08
0.00192426
0.00230181
8.96181e-11
-0.00141063
-0.000240372
-7.4093e-08
6.05718e-09
8.79845e-08
-0.00305752
-0.000665375
-0.00794133
1.16254e-09
-5.13218e-05
7.7847e-06
-0.000771123
0.000335232
0.00896719
4.90144e-07
0.00240674
5.80827e-06
0.00146848
1.53108e-09
-0.000435991
-8.58826e-11
-3.12295e-09
-1.84594e-09
1.70238e-08
7.95289e-10
2.42515e-10
-1.08216e-10
-3.74199e-10
-0.000296571
-0.00142831
-0.000902949
-0.000212073
7.34564e-09
-2.90433e-08
-4.47365e-09
0.000150531
-0.00234594
5.27056e-11
0.00757785
4.93996e-10
1.98423e-10
9.49589e-08
0.00260009
3.1062e-08
0.00145932
1.2266e-08
0.000306057
1.71366e-09
2.36671e-05
9.00897e-09
-0.000126093
-5.19028e-10
-3.25514e-09
-5.36385e-08
0.00746616
-3.24735e-10
7.18201e-10
-2.27191e-10
-0.000464092
-3.45611e-08
2.54666e-10
-7.1701e-08
0.00284807
-2.94602e-08
5.14965e-07
-6.07227e-08
-8.72844e-07
-0.0070371
4.51414e-12
0.000681902
2.84017e-09
0.000288433
5.02862e-10
9.32498e-05
-4.0936e-10
0.0145111
-2.52533e-09
-3.25118e-10
4.49374e-08
1.41497e-10
-4.80202e-08
-4.87022e-10
-2.6831e-10
0.0141306
-1.64556e-08
6.79757e-12
0.00106305
3.85932e-09
-5.9748e-05
1.94199e-07
2.61173e-05
-0.00222048
-5.86357e-05
9.53452e-09
-0.00399111
0.00131584
7.90755e-10
0.000219773
1.23834e-09
1.24779e-07
1.38085e-05
-3.11872e-11
-0.00680514
-1.01602e-09
-2.93533e-07
0.000170747
0.000612095
-6.59564e-11
-5.57313e-05
6.94475e-11
-2.80364e-05
-1.73735e-09
-1.36036e-13
0.000293298
-0.000731584
-0.00231528
0.000196046
0.0018943
8.35781e-09
0.000915692
0.0102961
-9.35962e-05
-4.54122e-09
-0.000234391
4.92055e-08
-0.000220872
-2.72421e-05
-6.33021e-06
3.98485e-07
1.75854e-07
2.22299e-09
-0.00147983
1.69521e-09
0.00561212
-0.000141968
0.000188686
1.01507e-10
-6.89457e-09
-0.0100696
1.28766e-09
-1.08139e-05
-0.000279599
1.05751e-08
0.000736431
1.21603e-08
0.00176379
-1.43426e-09
0.000516183
-0.00136548
0.00309444
3.94608e-05
0.00204867
0.00127262
-0.00161032
1.39053e-08
0.00016671
-0.00137645
1.91085e-07
-4.00881e-08
-9.96038e-12
0.000159943
-3.964e-05
0.000266406
2.62542e-07
-0.00232804
1.08006e-08
-2.96336e-09
1.79333e-09
1.19664e-08
0.000130358
0.00227112
0.000711055
0.01235
-1.24731e-09
1.04621e-08
-4.37393e-05
-1.91408e-09
-5.50214e-09
2.62952e-09
0.000129282
7.57426e-10
-2.72193e-09
-0.000268133
0.00227782
-7.65196e-05
-8.82026e-10
2.85659e-05
-2.27608e-09
-8.91668e-08
-0.00118203
0.0110739
-4.52731e-10
-0.000245473
-4.05007e-05
0.000819164
-1.40513e-09
-0.000117989
-1.51935e-11
-0.000293304
-3.23272e-09
-0.0078767
-0.000225467
3.62201e-07
-0.00128154
-0.000516326
8.13718e-09
0.000278476
-3.39416e-09
0.000137069
2.26359e-10
-2.88025e-05
-0.00023788
-0.0153122
-1.30861e-07
0.000331847
0.00982163
-0.000516155
4.3929e-09
-1.54717e-09
0.00023384
-0.000333444
-1.7897e-09
-8.0955e-09
-4.63547e-06
-7.17697e-09
0.000308165
1.13809e-09
-1.92587e-08
0.00206542
1.11596e-06
-8.05726e-09
0.000208127
-4.71974e-09
4.6371e-09
-0.0074376
-1.87165e-09
6.53513e-05
-2.46302e-08
1.15472e-09
-0.0085795
-0.000211938
-1.17267e-09
-5.63691e-06
9.59942e-10
0.00339123
-0.00559452
-3.99608e-09
-2.08458e-10
2.09599e-08
0.000210654
-0.000272778
2.76694e-07
-0.000169485
0.00134988
2.06767e-05
0.00393188
0.000656351
2.85946e-09
6.90098e-06
3.83955e-05
0.0149124
-1.37508e-09
-0.00677933
-2.92641e-08
-8.17942e-06
0.00241845
-1.23754e-10
1.03479e-09
1.73663e-08
4.00736e-10
-7.26462e-09
-9.8588e-05
0.000287886
-4.00118e-08
0.000299645
7.92633e-10
0.000327514
-0.000185904
-4.39576e-05
1.638e-06
-0.00619357
2.22404e-08
3.79787e-08
-1.09329e-05
-0.000246204
-1.57023e-06
1.72066e-10
-1.22163e-08
-4.66193e-08
-0.000485001
0.000197139
-3.5124e-09
-2.61164e-07
8.03727e-05
1.91752e-08
0.000435317
0.00586257
-7.24027e-09
4.2857e-08
1.82447e-10
1.77565e-09
-0.00015733
1.60189e-10
-5.10371e-08
2.54831e-10
7.23272e-10
-5.27347e-11
-2.71674e-09
4.3222e-09
0.000481062
-2.05928e-05
-6.52848e-05
2.18061e-09
-1.42523e-08
3.79931e-10
0.000180091
-4.1007e-10
0.00269527
4.12179e-09
-2.80012e-07
0.000244694
6.44264e-10
3.64354e-10
6.32935e-10
4.75498e-11
-1.3324e-10
0.0101484
0.00730088
3.93405e-07
-0.00029055
6.13587e-08
1.44533e-08
1.29175e-10
9.24475e-10
-1.39121e-08
0.00164435
-1.00899e-09
0.000338597
2.69794e-08
0.000480388
3.57864e-08
-6.73134e-09
-0.000279393
-7.51096e-06
8.41442e-09
-2.70826e-08
0.000104032
2.67741e-09
2.79707e-09
-5.21889e-10
3.29928e-10
0.00275227
1.48139e-09
-3.97251e-05
-2.16792e-11
0.000531794
0.00239712
-5.58907e-08
-0.00314031
-0.000278662
-5.69438e-08
4.41225e-10
-0.000331433
-0.00187189
1.54381e-11
9.0716e-09
-0.00332228
-1.83374e-10
-1.58293e-09
-7.31234e-11
1.80194e-09
5.52005e-05
8.08439e-08
0.00201054
3.68067e-09
-3.13139e-08
1.68714e-07
0.0040521
-0.000238364
3.22801e-08
0.00722602
9.46659e-09
-2.36539e-09
-8.96688e-09
5.88611e-05
-1.95857e-07
1.00685e-08
-0.0106173
3.90783e-09
-3.23421e-10
0.000856689
0.00335988
1.36505e-10
-0.000143607
8.7491e-11
0.00396529
-8.59632e-07
-1.16313e-08
0.00584846
4.25728e-06
3.87871e-07
5.87369e-07
0.000224587
4.06787e-10
1.67444e-09
-0.0072291
0.0221983
1.76709e-10
0.00291503
-2.61847e-09
-0.00033113
1.364e-09
-1.52043e-11
-4.47951e-11
-0.00265283
1.17441e-08
6.77017e-07
-0.000294979
-6.83526e-08
-1.06233e-07
8.98383e-05
-1.3645e-08
9.72567e-09
0.00665506
-0.000195902
-6.70686e-10
1.36299e-09
-2.14954e-12
0.00564373
-3.42898e-09
0.00221135
3.16162e-05
0.000953003
-2.16065e-12
-4.75324e-05
0.000313556
-4.72501e-06
-3.14971e-05
1.64255e-09
1.24307e-07
4.73969e-08
9.37657e-05
-6.34231e-10
-6.60653e-08
1.98155e-11
0.0216137
-0.000369087
-0.000376265
0.00255667
0.000101097
-2.34525e-08
0.000598642
1.47082e-10
-2.18295e-08
6.01564e-08
9.47116e-08
1.39702e-08
0.00573765
0.00189499
-2.01082e-08
0.00386816
0.000773465
-0.0104433
0.00139217
1.94464e-09
0.00434066
-0.000741928
-4.21528e-10
-8.54814e-09
7.71646e-10
0.000288662
-3.84467e-08
4.49247e-09
3.05452e-07
-0.00116599
-3.16199e-05
-0.000158124
-0.000400397
1.9071e-09
5.55031e-09
-0.000124163
5.13455e-09
2.33399e-09
-0.0114358
1.08646e-07
1.19557e-08
-0.000242114
4.12054e-08
-1.71078e-09
-3.5733e-05
-3.2162e-05
-0.00735274
-3.57883e-08
-0.000529267
0.00200484
0.000103956
-1.58242e-05
-3.69369e-08
-1.22321e-09
0.00410567
0.00096358
-1.08457e-07
-0.000927736
-0.00262141
3.48931e-09
-5.88071e-10
8.36885e-05
0.00194997
4.01897e-08
2.36134e-10
0.015606
-0.000294894
4.76029e-08
0.001842
0.00199162
-1.03759e-09
1.01303e-07
7.26866e-10
0.000220891
-3.149e-05
1.09092e-07
-5.00273e-09
-2.26722e-10
-2.32108e-09
2.96436e-08
0.000235438
-0.000627874
1.79489e-11
0.00256438
2.06844e-09
-0.000122281
-7.23972e-06
0.000213771
-5.13401e-07
2.14498e-10
0.00181631
3.58488e-10
-0.000167813
-0.000366873
-0.000167869
0.000196634
1.22151e-08
-8.45876e-10
4.10908e-11
-1.33256e-08
0.000225222
1.10839e-09
4.42506e-09
-1.15747e-09
0.000883518
-6.19338e-09
2.66632e-11
-0.000270992
4.25148e-09
3.57493e-07
-1.65599e-10
-8.17429e-10
0.00768943
1.96287e-08
-2.98761e-08
5.61458e-09
0.0101765
-0.000852013
3.99186e-10
1.86625e-09
-2.71178e-08
0.00473321
-6.72526e-09
-0.000381671
-0.000112912
4.37373e-05
-1.39434e-08
-3.88907e-05
1.09775e-11
0.00088818
6.87585e-11
-0.00167652
-1.55709e-06
-9.16317e-06
-3.0595e-08
-7.85898e-10
-4.7579e-09
-2.54446e-11
-0.000164942
-0.000145138
-0.000566343
0.00490034
-6.02828e-09
-1.8218e-05
3.56022e-10
-3.32891e-09
1.81345e-11
3.14706e-05
-2.16029e-11
-6.56296e-09
-0.0037389
2.9634e-10
0.000559871
-9.07587e-11
4.00028e-08
-1.4179e-09
-4.01333e-11
2.62738e-09
4.4712e-10
-0.00479999
9.4363e-09
-0.000381352
-2.13695e-08
-6.26367e-10
-0.000254227
0.00595016
-1.25595e-09
-0.00035943
-1.05797e-07
1.19418e-09
7.93302e-08
6.21457e-08
3.47862e-09
3.58273e-05
-0.000305999
0.00281325
-1.37912e-08
-0.000246024
3.32343e-09
4.48249e-09
-0.000990366
-9.83123e-10
9.04676e-11
-0.00538551
-3.75534e-10
8.26108e-08
-9.38688e-10
-0.000337309
-0.000288624
0.0171799
-0.000283396
-7.18167e-09
1.0664e-10
4.92948e-09
0.000315234
-2.76365e-09
5.03798e-09
9.26718e-10
-3.73923e-08
-0.000492405
8.69641e-09
3.82387e-09
-3.75192e-08
-5.66377e-11
-0.0111497
-0.000155447
-5.78018e-09
-0.000154632
-0.0012251
-2.39083e-07
2.305e-09
-1.39167e-06
-8.95171e-09
0.000991917
0.000294468
-1.36334e-10
-2.22865e-10
2.27081e-09
3.34047e-09
2.64534e-10
-2.01561e-10
-1.01813e-09
-0.00802597
-1.47217e-08
-1.74841e-11
-8.64094e-09
0.000179222
-0.000157961
-6.04691e-08
-1.08466e-06
-4.97287e-08
-2.10362e-09
-0.000430744
0.000240324
9.37757e-09
0.00365579
-0.000392196
-7.19348e-09
-3.35117e-09
0.00146047
5.99984e-09
1.39952e-09
-6.22889e-09
2.76465e-08
-0.000874553
-0.000353393
-3.78526e-08
-9.40309e-05
0.000961206
1.05609e-10
-2.24806e-09
8.23063e-08
0.00455211
-0.000216717
7.38797e-11
-0.00721116
0.00864103
-0.000129504
-8.62815e-07
2.32742e-11
-2.03709e-08
-0.000121654
1.44504e-07
-1.90998e-07
-0.002194
-0.00600761
-1.83847e-05
-1.06507e-07
-6.01111e-05
1.37216e-08
1.26906e-10
0.000137118
0.000402831
7.32215e-05
-0.00161752
-0.000245729
5.12079e-08
-1.97071e-09
-2.78714e-09
-3.06207e-10
-8.85027e-09
-6.43749e-05
-0.000867907
-1.73929e-09
-2.79402e-10
2.01922e-09
-3.44549e-09
-0.000259625
-5.96838e-08
1.56487e-09
-0.00117746
-0.00099979
-2.10439e-07
-0.000874931
-1.56704e-09
-4.07336e-08
9.54744e-09
8.80529e-10
-2.28648e-10
5.04373e-08
-2.8678e-08
-1.3931e-05
0.000203152
3.75794e-07
0.00691866
-0.000200853
-0.00519509
5.66718e-07
-2.60441e-07
0.00633517
1.15873e-09
1.90295e-09
-0.00030087
0.00145414
0.00470359
-0.000397745
-0.000241504
-0.0060169
-6.59331e-05
0.00255049
6.74522e-10
5.56893e-10
-7.30024e-05
-1.81165e-08
-1.29655e-09
0.000576909
5.14822e-09
-0.000481363
1.74235e-05
-0.000243056
-0.000256093
3.63195e-09
4.11368e-05
-2.34585e-09
9.77184e-10
1.42477e-11
2.80177e-07
-0.000727335
-0.00313783
-0.000804895
-1.33048e-09
-1.5825e-08
-2.64124e-07
9.03216e-08
-0.000995104
-0.000672523
0.00178275
1.91811e-05
-5.19562e-09
-2.66523e-09
-6.20178e-09
-0.00185539
-1.09816e-08
-0.0102373
-2.43835e-09
-2.68585e-08
-6.63383e-05
0.00937548
2.42848e-07
3.47472e-08
-0.000416642
-6.64115e-08
-1.17912e-09
-4.25778e-05
-2.38515e-10
-0.000513398
-4.61725e-10
-9.87887e-08
-4.59846e-06
-1.99787e-07
9.28934e-09
-1.99051e-09
-0.00844896
3.4042e-08
0.00106939
0.00936074
0.0185124
-3.47536e-10
1.36463e-07
0.0014568
1.22975e-08
1.33973e-08
-0.000361457
-0.00865838
1.23611e-08
-4.46036e-10
-1.80285e-10
0.00127613
5.89754e-10
-8.96471e-05
0.000302143
0.00231676
-2.72202e-08
1.89163e-05
3.14885e-10
9.72871e-09
-3.76732e-09
0.00294127
-4.53845e-07
-1.7379e-09
1.23832e-08
-0.000435131
0.00925216
-7.21907e-09
2.55098e-05
6.03246e-10
1.67943e-11
-4.15887e-10
0.00574811
-6.68754e-09
-4.99584e-09
-3.02785e-09
1.21733e-08
0.00196292
0.00012947
0.000140587
-2.23533e-08
-5.51156e-08
0.000363965
0.00219994
0.000143636
0.00108788
0.000612231
-3.96873e-08
-3.10463e-08
-7.44883e-07
-4.74287e-05
-4.67951e-09
0.00072225
1.4352e-06
5.94806e-11
-4.03905e-10
-1.1723e-05
-4.99898e-08
-1.19262e-07
1.5414e-08
1.48792e-07
-1.43066e-05
-1.88601e-09
1.87717e-09
-6.40278e-09
0.0105176
0.0114305
-8.67929e-09
-0.00176691
-1.08195e-08
-5.37127e-09
-0.00555592
-1.71859e-05
-0.00074119
1.16482e-07
-0.00357788
0.0029885
1.0711e-08
-1.42815e-09
-5.24956e-08
2.28277e-08
2.13484e-08
1.02765e-10
-8.77929e-10
-9.06384e-10
-3.36542e-08
-0.00188257
-0.000288123
0.00106606
-9.82025e-05
6.99278e-10
4.6972e-08
0.00117545
4.65052e-10
0.00460303
6.73944e-10
-5.77064e-10
2.03924e-07
1.51433e-09
-2.2295e-10
5.80367e-09
8.59912e-08
1.80739e-08
-0.0100829
6.35836e-10
4.3376e-06
0.00139802
0.000905171
0.00619186
-1.114e-07
-2.18299e-09
-0.00136582
-0.000891069
-5.24931e-07
2.17541e-05
0.00268804
2.81289e-07
0.000597074
-7.20953e-12
5.23321e-09
-0.00232384
-4.08519e-09
0.000361969
-4.26494e-07
4.37496e-07
-4.48905e-06
3.75307e-09
4.54878e-10
4.53652e-09
-3.27168e-09
-5.34026e-05
0.000222948
-1.26761e-07
-0.000395406
-0.00222987
8.58928e-10
-1.08034e-08
-0.0112218
-0.0019386
-5.5543e-10
-0.000444732
4.48609e-08
0.00345031
1.89034e-09
0.00788078
-3.80728e-05
3.2676e-08
-0.000260942
-0.00759727
-3.36294e-06
1.16555e-05
0.00100638
-8.24933e-05
4.67797e-09
0.000296896
-0.000313613
-1.37188e-09
6.87432e-08
3.07888e-09
0.000480982
-3.05039e-09
5.67621e-10
-3.45179e-10
-2.31861e-10
7.55404e-08
0.0186143
9.63492e-08
-0.00914219
0.00302663
-0.00207228
0.00400069
-6.05291e-10
2.19073e-09
1.73966e-08
-3.55381e-08
3.526e-10
5.54654e-10
0.000221472
-0.00435063
1.82457e-10
6.49344e-09
-2.98279e-05
-0.000620037
7.37548e-10
0.00109407
7.40943e-09
1.2542e-08
2.3445e-07
-0.000294628
-7.19821e-10
8.68782e-11
-1.55853e-09
-0.0035192
-0.000238752
-4.95577e-08
4.53653e-08
5.03867e-09
-4.04136e-05
1.32224e-10
0.00039979
-1.72881e-05
0.00361767
-8.77231e-08
3.74095e-09
0.000460937
-4.64922e-10
3.4296e-09
1.44617e-10
-1.00557e-09
-0.00016572
-5.80983e-10
4.20397e-08
4.46062e-11
-1.25405e-07
1.65089e-09
0.000241096
1.65643e-08
-0.000123792
-4.21261e-09
9.91639e-05
-0.000649147
-0.00316776
-8.4157e-09
-1.55018e-09
-0.000781602
-0.000467827
-0.00358535
0.00191814
9.15804e-08
2.75135e-08
-6.57876e-09
-0.000894318
6.91287e-10
0.000230066
-0.000205572
3.84899e-08
-0.000457346
0.00263898
-0.000224775
1.43516e-09
8.73501e-09
5.81455e-09
-1.35056e-09
-8.39901e-08
-5.9218e-10
-1.30389e-10
-0.000264007
0.000207489
0.00302561
-3.63527e-08
-3.37173e-10
8.30226e-09
-0.000347837
1.2706e-09
0.000267164
5.84271e-05
-4.60148e-05
-1.57299e-09
2.08011e-08
-4.60594e-09
3.33529e-09
-5.21173e-09
0.00153385
-1.55043e-10
0.00139179
0.00113797
0.000824676
4.19471e-10
-3.82673e-08
0.0113208
-4.29156e-09
0.00152561
-0.00955446
0.000108651
4.21882e-09
-0.00074214
-0.000373348
-2.70134e-09
-0.000158258
0.00117345
-3.36218e-11
0.00013081
-6.74046e-05
-0.000510495
-1.06319e-07
3.21109e-08
3.32016e-08
0.00250395
0.000552163
1.9504e-08
-0.000265397
-1.02141e-06
2.26294e-06
-0.000541748
-0.000118921
0.00254935
-3.58657e-10
1.62408e-09
-3.19694e-06
-0.00618853
0.00183208
0.000201119
2.71308e-07
0.000112333
-5.68884e-05
6.88943e-05
1.44769e-07
2.6739e-11
-5.61567e-09
-0.000813295
-0.0010386
-0.0069522
-0.00442199
-5.73794e-09
2.80937e-08
0.000258544
0.000101613
-8.43727e-10
-0.0025132
1.84983e-08
-4.61921e-08
3.91478e-10
-1.16394e-07
0.00513893
-9.16815e-09
0.0111282
1.32708e-07
-1.62302e-10
-6.01119e-08
-9.02646e-07
3.22464e-09
2.04621e-09
0.000102974
9.18416e-10
-6.40936e-05
0.000202596
4.70961e-07
-2.95461e-10
-0.00806154
3.14229e-11
0.00877954
0.00011805
-5.06136e-10
-1.13466e-08
1.6368e-09
1.36635e-09