/*--------------------------------*- C++ -*----------------------------------*\
| =========                 |                                                 |
| \\      /  F ield         | OpenFOAM: The Open Source CFD Toolbox           |
|  \\    /   O peration     | Version:  v2012                                 |
|   \\  /    A nd           | Website:  www.openfoam.com                      |
|    \\/     M anipulation  |                                                 |
\*---------------------------------------------------------------------------*/
FoamFile
{
    version     2.0;
    format      ascii;
    class       volScalarField;
    location    "350";
    object      p;
}
// * * * * * * * * * * * * * * * * * * * * * * * * * * * * * * * * * * * * * //

dimensions      [0 2 -2 0 0 0 0];


internalField   nonuniform List<scalar> 
18166
(
0.162789
-0.00128247
0.0192143
-0.144808
0.431122
0.154128
-0.00654222
-0.277212
-0.268844
0.474919
0.0160549
0.0209884
-0.531265
-0.235742
-0.181203
-0.236009
0.0103827
0.0828515
0.0260095
-0.204419
-0.221669
0.0107008
-0.216467
0.0253079
0.000441202
-0.00625233
0.143929
-0.0747885
0.029238
-0.147528
-0.119865
-0.013588
0.0143185
0.0190093
-0.0165335
0.00886788
-0.270117
0.00906015
-0.0195692
0.466939
0.00609526
-0.412645
0.0148751
0.0370732
0.161776
0.0229311
-0.0873135
-0.120544
-0.106591
0.13521
-0.0789249
-0.09592
-0.21628
0.00480564
0.0157451
-0.145642
-0.420956
-0.538759
0.0248905
-0.0605805
-0.152144
-0.0594261
-0.165496
-0.0706135
-0.228655
0.023648
-0.204654
-0.10591
-0.510461
-0.0773672
-0.0163831
-0.010978
0.156731
-0.0183335
0.430343
0.380917
-0.222983
-0.518045
-0.0520715
0.00966611
0.0112751
-0.241688
0.0250331
0.0258492
-0.0130941
-0.0398956
-0.0631742
0.000323471
-0.0938012
-0.0192918
-0.273158
0.123142
-0.523978
0.00983503
0.00595081
-0.0404274
-0.0134319
-0.0240917
0.0882301
-0.0736774
-0.000956505
0.0193075
-0.178274
-0.0680291
-0.0766594
0.019295
-0.514347
0.506494
0.029726
0.014978
-0.536455
-0.28285
-0.138833
-0.125905
0.010893
-0.0239611
-0.0432103
-0.116965
0.0412884
-0.100235
-0.0933112
0.0300892
-0.326897
-0.31597
-0.154435
0.0232736
0.0222593
-0.529487
0.0602812
0.051167
-0.152552
-0.507229
-0.0566469
-0.104485
0.0705711
-0.085084
0.00951114
-0.00129362
-0.0576519
-0.113369
-0.308187
-0.23362
-0.119291
-0.10611
0.0269696
-0.320436
-0.187273
-0.176729
-0.0289775
-0.063892
-0.0133974
-0.109522
-0.978736
-0.156397
0.020571
0.014663
0.00664506
-0.165269
0.00970576
-0.53126
-0.0108181
-0.103262
-0.0584243
-0.00556081
-0.0957841
0.453607
0.0217193
-0.106738
-0.214022
-0.553196
-0.190444
-0.123906
0.0487697
-0.102453
-0.253206
0.0220212
0.24915
-0.110238
-0.00176412
0.000443529
0.011215
0.036658
0.368818
0.268169
-0.209997
-0.00283574
-0.0546655
-0.139485
0.00479269
-0.0235233
-0.157527
0.0264061
-0.0859523
0.0255997
-0.0286926
-0.118396
0.148164
-0.0234091
-0.118764
0.498509
-0.190071
-0.124046
-0.0273482
-0.180378
0.0175774
-0.0979335
-0.239892
-0.146174
0.375441
-0.332446
0.438692
-0.305344
-0.00160022
0.0233079
-0.0849195
0.120361
-0.224383
-0.0364378
-0.212719
-0.24564
-0.0556996
0.010901
-0.00274208
0.219384
-0.428091
-0.00880711
-0.0184933
-0.00378269
0.0347721
-0.0269117
-0.220067
-0.14076
-0.0447115
-0.117431
0.000912583
-0.0397091
-0.0843052
-0.139096
-0.148657
-0.316774
-0.0860195
-0.222372
-0.192941
-0.0590598
-0.142983
0.0485867
-0.142378
-0.220108
-0.104435
-0.0241446
0.168861
0.0225056
0.0165406
0.061185
-0.10996
-0.521816
0.0143274
-0.201314
-0.554131
-0.00526445
0.0234887
-0.11748
-0.152314
-0.104872
-0.553819
-0.131988
-0.384429
-0.0167021
0.0111136
-0.0753527
0.141579
0.0233831
-0.000324315
-0.142115
-0.093671
-0.121224
-0.111687
-0.00413362
0.382552
-0.0136638
-0.0969233
-0.202117
-0.0142211
-0.0322803
-0.0539263
-0.169199
-0.0596266
-0.0343775
-0.273835
0.0113819
-0.0743802
-0.0843836
-0.0263506
0.0139087
-0.0122516
-0.118226
-0.00741008
0.0230856
-0.00860894
-0.144764
-0.110944
0.0100926
-0.000289629
-0.000568057
-0.263418
0.0121607
-0.14748
-0.144649
0.0373893
-0.02375
-0.0553631
0.444399
-0.204144
0.102808
0.0117015
0.44965
0.297007
-0.0288329
0.023583
-0.14531
0.00880192
0.0850112
-0.125562
-0.147898
0.0621201
0.133702
-0.0352332
0.0126958
-0.0184867
-0.114112
-0.00130148
-0.10603
-0.032706
-0.0271569
-0.533635
-0.335254
-0.179235
-0.201233
-0.275773
-0.117496
-0.0296534
-0.403588
-0.146013
-0.114456
-0.0387653
0.015479
-0.00671655
0.107186
-0.0103264
-0.133466
0.0257571
-0.0823804
0.0231548
-0.00226271
0.27634
-0.0623024
0.288112
-0.0879391
0.0158209
-0.0180929
0.000811376
-0.135261
-0.114483
0.0136601
-0.00612958
0.0272349
0.0213054
-0.110539
0.00683965
-0.443233
0.118785
-0.000559256
0.00940776
-0.180757
-0.235186
-0.267868
-0.114534
0.013204
-0.0878794
-0.178403
-0.0273862
-0.114019
-0.122256
-0.063834
-0.0253728
0.0321928
0.0237502
0.00446626
-0.146783
0.031539
-0.0161737
-0.0645642
-0.0162995
-0.115339
-0.140099
0.0156963
0.0231316
-0.522156
-0.00450583
-0.00388663
-0.006934
-0.219466
-0.338953
0.00957039
-0.211307
-0.0396293
-0.0268522
-0.122185
-0.123158
0.0354092
-0.257801
-0.529089
0.0649702
-0.176802
-0.0558229
-0.0719464
-0.165095
-0.088167
-0.0157898
0.0180481
-0.0340905
0.0230499
0.457325
0.00649892
0.325233
0.0189683
-0.31691
0.0190021
-0.113954
-0.244364
0.103763
0.443926
0.0605708
-0.0349231
-0.0779437
-0.113815
-0.164301
0.00392114
-0.456714
-0.0837528
-0.0158042
-0.319599
-0.202029
0.0114435
-0.103916
-0.397787
0.0147968
-0.328284
-0.116634
-0.0264339
0.211024
-0.144634
-0.24802
-0.0804913
-0.104947
0.451111
-0.140722
-0.153374
-0.016052
-0.528193
0.0251322
0.0190682
0.45275
-0.180562
0.0142819
0.0357098
-0.0821831
-0.0544509
0.0478596
-0.0070863
-0.0128603
-0.0471264
-0.386099
0.000895601
-0.0948688
0.0211899
-0.173273
0.0179516
0.00106541
-0.119553
-0.210743
0.000279641
-0.142522
0.00584473
0.00660451
-0.245897
-0.479292
-0.142701
-0.0368962
0.268573
0.37598
0.0120346
0.0218867
0.0134405
-0.0211115
-0.113348
-0.254891
0.0209867
0.00906708
0.306703
-0.507951
-0.306543
-0.0163219
0.0480201
-0.124561
0.0185814
0.0227236
0.0113235
-0.0118388
-0.144346
0.365369
-0.0301394
-0.109775
0.00948106
-0.193978
0.000694753
0.00540086
-0.412531
-0.245719
-0.0462851
-0.118254
-0.139482
-0.211688
-0.251349
-0.228448
-0.288343
-0.18379
-0.088276
-0.222093
0.0215726
0.285892
-0.0251863
-0.0417725
0.298533
-0.120781
0.0260704
-0.307869
-0.190046
-0.0966216
0.0207107
0.0388437
-0.20053
-0.337497
-0.145353
-0.0168318
-0.301058
-0.540674
0.0569206
-0.0401405
0.0275874
0.0916309
-0.516723
-0.537951
0.00471135
-0.239
0.0187164
-0.103916
-0.0536245
-0.00149357
-0.0565289
-0.506023
-0.0240806
0.00445276
-0.388469
-0.257068
-0.182701
-0.176684
-0.036435
0.0102752
0.0223618
-0.118377
0.217081
-0.113222
-0.0772731
-0.0544281
-0.185065
-0.0852134
-0.543248
0.0488578
-0.430941
-0.012074
0.377571
-0.308687
0.250084
-0.0565689
-0.114051
-0.484836
0.00556309
-0.517686
0.0261318
0.00488992
-0.304524
-0.230179
0.0153844
0.0144918
-0.0108621
0.39913
-0.356781
0.00443095
-0.187629
-0.0261175
-0.032273
0.00581059
-0.17184
-0.193946
-0.0602888
-0.495636
0.0132651
-0.00238343
-0.112168
-0.273293
-0.149837
-0.184788
0.48436
0.0500753
-0.535445
-0.489957
0.073642
0.253908
-0.0791666
-0.0496136
-0.0811772
-0.116054
0.10732
-0.151019
-0.0162089
-0.0742101
-0.540231
0.00534371
-0.116589
-0.148301
0.0800885
0.0398495
-0.016323
-0.0384414
-0.116705
0.00474599
0.0186904
-0.151701
-0.0146161
-0.149145
-0.0326894
-0.149911
0.0399232
-0.0802057
-0.0178647
-0.486011
-0.193778
0.391354
-0.0176366
-0.251061
-0.250809
0.371598
-0.0269814
-0.336311
0.0549278
-0.566533
0.0251665
0.292648
-0.246521
-0.115277
-0.282179
-0.270305
-0.146954
-0.0165918
-0.158553
-0.00118187
0.1006
0.0706238
0.0309352
0.00209609
-0.167679
-0.0952011
-0.0334906
-0.238855
-0.531387
0.202347
-0.0166175
0.0638015
0.0106959
-0.00468254
-0.0117597
0.0227583
0.356755
-0.0539048
-0.240396
-0.347889
-0.16219
-0.345615
0.123608
0.107179
0.0221191
-0.246587
-0.00166943
-0.16238
-0.117952
-0.0153986
-0.0801355
-0.11284
-0.163258
-0.122093
-0.0826556
0.103991
-0.0109294
-0.109022
-0.159871
-0.213116
-0.0739356
-0.244609
-0.24772
-0.0620794
-0.114212
-0.500387
0.105406
0.00621313
-0.219374
-0.0985283
-0.094121
-0.146278
-0.00555978
-0.10408
0.237374
-0.00614713
-0.129852
-0.165283
-0.11056
-0.385412
0.147146
-0.074775
0.00227449
0.266215
-0.28428
0.0696012
-0.395102
0.0113762
-0.185729
-0.283836
-0.0612317
0.0319246
0.0171607
0.122192
0.0104945
-0.513378
-0.115299
0.507821
-0.00704361
-0.00651904
-0.0103454
-0.517201
0.506155
0.157286
-0.522066
-0.0910291
-0.256851
0.0249106
0.00347166
-0.32914
0.0147598
-0.128366
0.44742
0.170332
-0.229045
-0.026209
-0.184408
-0.125569
0.26971
-0.0444986
-0.00768233
-0.0344027
0.0184393
-0.171301
0.0255338
-0.015553
-0.128795
0.0644964
-0.118511
-0.0957956
0.0670181
-0.000253375
-0.114034
-0.0243471
-0.0624496
-0.111068
0.303743
0.00692935
-0.101556
-0.16821
-0.0194803
0.0114969
0.0202763
0.210707
-0.115785
0.00477506
-0.11796
0.00683178
-0.53575
-0.492195
-0.112694
-0.117226
-0.00661843
-0.0767492
0.437965
-0.000680989
-0.180274
-0.01892
-0.00477718
-0.0170977
-0.0271404
-0.106458
-0.013377
0.00473642
0.000520965
-0.0159116
-0.13754
0.0462453
-0.50966
0.00541664
0.0184353
0.0050314
-0.124207
-0.186518
-0.568246
0.322926
-0.0045165
-0.141429
-0.227943
-0.020616
0.0145327
-0.131045
-0.175364
-0.0460571
-0.131092
-0.143605
-0.0548493
-0.0272866
-0.108665
-0.0731901
-0.107062
-0.161212
-0.498717
-0.0185853
-0.149842
-0.00707017
-0.325636
-0.091841
-0.12979
0.0315055
-0.19806
-0.117823
-0.164924
0.0225636
-0.0815516
-0.0167027
-0.161576
0.00585047
-0.0771753
-0.0382091
-0.000294965
0.171551
0.00781333
0.0216967
0.466418
0.00805078
-0.315836
-0.0732307
-0.279801
0.0167615
-0.13773
0.0186646
0.0204951
-0.536666
-0.295659
-0.145386
0.021904
0.0899292
-0.222295
-0.192781
0.0148074
0.00838188
-0.0477345
-0.119116
-0.0152517
-0.147438
-0.172394
0.044938
-0.0160761
0.00357655
-0.000404662
-0.111632
-0.0150278
-0.0982571
-0.0913026
-0.0183233
-0.00806518
-0.253196
0.00772801
-0.0493891
-0.00400508
0.00603096
-0.146418
-0.133872
0.41602
-0.118738
-0.0440722
-0.0272645
-0.503732
0.492109
-0.239133
-0.236397
0.233161
-0.148702
0.00539063
-0.0756293
-0.509356
-0.200061
-0.202336
0.00827265
0.00947827
-0.0564333
-0.347585
-0.316706
0.019258
0.284667
0.0941592
0.482976
-0.259059
0.354491
-0.00641316
-0.288554
0.00453036
-0.0272277
-0.390802
0.00430187
-0.0394454
-0.556474
-0.114551
-0.000583311
-0.168298
0.269592
-0.0231427
0.34015
-0.0158897
-0.546974
-0.442543
-0.150589
-0.169254
-0.334847
0.363717
-0.0169933
-0.0378763
0.0149154
-0.015766
-0.0163148
-0.0524927
-0.278851
-0.130481
-0.0125228
-0.119855
-0.0910592
0.150198
0.0136806
-0.0449137
-0.183119
-0.526697
-0.315806
-0.122953
0.0218214
-0.0917188
-0.116868
-0.0570912
-0.214594
-0.127876
-0.457384
-0.104388
-0.01335
0.00763318
-0.0531678
0.00446012
0.0756378
0.469448
-0.0379228
-0.27422
0.00814052
0.019295
-0.00359212
-0.547198
-0.121208
0.00502622
-0.0260461
-0.470869
0.0183215
-0.257812
0.49961
0.0149031
-0.315012
0.0141717
-0.130294
0.471237
-0.237025
-0.291285
0.0114199
-0.0919601
0.466649
0.0368499
-0.188905
-0.404271
-0.10542
0.0290291
-0.121378
-0.0405291
0.0271079
-0.167589
0.493984
0.25922
-0.150965
-0.0161008
-0.219539
-0.089953
-0.0337745
0.22995
-0.501955
-0.138273
0.477445
0.0693466
0.335016
-0.235103
-0.0157003
-0.0431141
0.0155778
0.206804
-0.0920938
-0.00920969
-0.0892941
0.208523
-0.0647318
-0.218159
0.0044565
0.188832
-0.284042
-0.232891
-0.101504
-0.334472
-0.00566083
0.0335469
-0.515485
0.295969
-0.00725012
-0.0124916
-0.11211
0.150116
-0.155544
0.0229165
-0.0412915
-0.195784
-0.142339
-0.431747
0.0196491
-0.172551
0.0329455
-0.104965
-0.140779
0.0421996
-0.146462
-0.117746
-0.1191
-0.119481
-0.0517574
0.517308
-0.13034
-0.240034
-0.0959629
-0.202823
0.146912
-0.562891
0.0201672
0.0204121
0.00730643
0.0119821
-0.0456669
-0.0816734
0.001227
-0.118116
-2.64091e-06
-0.0222112
-0.121154
0.0194447
-0.0873188
-0.143204
-0.117909
-0.457269
-0.0280498
0.0386916
-0.00340967
0.0200233
-0.0999606
-0.13211
-0.146302
-0.349
-0.438915
-0.00814507
0.0400847
-0.0425699
0.00526139
-0.0799472
-0.0330352
0.15187
-0.0167632
0.0146195
0.0611244
0.0118211
-0.137018
-0.214138
-0.0568259
0.326528
0.0123026
-0.00198771
-0.164447
-0.0689949
-0.167806
-0.291502
-0.0858095
-0.221383
-0.327949
-0.114553
-0.0280442
-0.41618
0.00417662
0.493973
-0.0811543
-0.201549
-0.183844
-0.111391
0.126163
-0.0953343
0.0390021
0.0117929
0.0024976
-0.112783
-0.0834927
-0.289143
-0.140934
-0.110039
-0.00953781
0.513763
-0.117351
0.00063433
-0.0399879
-0.0795636
0.0558477
-0.191963
-0.066365
-0.0659045
0.492832
0.010912
-0.307941
0.066338
0.00571154
-0.403966
-0.00517775
-0.113643
-0.0301816
-0.1629
0.00471038
-0.114784
0.0154494
-0.031918
0.485079
-0.150256
-0.0121187
-0.00941038
0.146597
-0.0169342
0.000444675
-0.1833
0.054344
-0.232396
-0.119794
0.0119278
-0.231857
-0.170032
-0.215028
-0.123016
0.000232993
-0.109774
0.0393833
-0.105756
-0.0110803
0.224505
0.0599648
-0.0271965
-0.0903295
0.0226688
-0.481777
-0.11488
-0.332186
-0.00377069
0.0115536
0.0117153
-0.0147571
-0.178027
-0.0274092
-0.510532
-0.435953
-0.111755
-0.149626
-0.30241
-0.145216
-0.222801
-0.0167642
-0.0304044
-0.048565
-0.115614
-0.0553656
-0.0402319
-0.11596
0.0106855
-0.142726
0.0648304
-0.486251
-0.359942
-0.0133412
-0.10808
-0.172439
-0.104121
-0.0784771
-0.110811
-0.294015
-0.106128
-0.539413
0.00835874
-0.115024
0.274168
-0.100529
-0.28247
-0.287955
-0.124893
-0.55328
-0.215016
-0.526665
-0.00891755
-0.117455
-0.0150324
-0.0374428
-0.037408
0.0194403
0.0191806
-0.0174687
-0.00349842
0.0119727
-0.155316
-0.273415
-0.173483
-0.182447
-0.0164095
0.0332876
-0.0223878
-0.121069
-0.316113
-3.973e-05
-0.569975
0.00180015
0.00239395
-0.0906055
-0.387423
0.0500717
-0.332192
-0.0184188
-0.115835
-0.0258632
-0.19936
0.0734025
-0.172555
0.00822639
0.0130144
0.216001
-0.390622
0.00468562
0.0025483
-0.0814876
-0.10031
-0.0939212
-0.0170424
-0.166343
-0.4154
0.151963
-0.21305
0.105208
0.0179108
-0.211831
-0.00794921
-0.44876
-0.0263235
-0.118269
-0.0355682
-0.177836
-0.0162846
0.2417
0.00751233
-0.00595028
0.0786813
0.0101207
-0.0881068
-0.00062371
0.0169355
0.0106072
0.0273636
0.00386082
-0.431666
-0.0661128
-0.466927
-0.153571
-0.224103
-0.323093
-0.219346
0.0141445
-0.288857
-0.511112
-0.00764869
-0.11702
-0.0699892
0.0365753
-0.113633
0.00222028
-0.478019
-0.0113655
-0.086948
-0.118411
-0.185554
-0.044044
-0.22644
-0.0321242
-0.198201
-0.103456
0.00399993
-0.285292
-0.406648
0.471264
-0.230231
-0.437463
-0.0678178
-0.519746
-0.302728
0.429805
-0.0142378
-0.180221
0.0746122
-0.115218
-0.135236
-0.142198
0.186218
0.205147
-0.018323
-0.281746
-0.00456451
0.487397
-0.119804
-0.109388
-0.00575751
-0.0827065
-0.188319
0.00120988
-0.1541
-0.152117
0.0567703
-0.121068
0.021669
-0.207395
0.00710964
-0.486304
0.361653
-0.361445
-0.201508
-0.145707
-0.460099
0.375768
0.033757
-0.126036
0.448255
0.0396466
0.0546085
-0.0174958
0.103691
-0.459411
-0.104639
-0.157043
-0.331826
-0.0688231
-0.0346922
0.0945696
0.00719081
-0.232406
-0.472678
-0.14695
0.173368
-0.0880802
-0.0433927
-0.170937
-0.0245272
-0.0210675
-0.041661
-0.205171
0.050098
0.0112621
-0.110858
-0.45618
-0.136224
-0.0529414
-0.179302
0.00339458
0.027462
-0.299136
-0.367802
-0.03394
-0.148662
-0.111288
-0.190357
0.00392894
-0.118771
0.00428523
-0.156914
-0.0859029
-0.210311
-0.124329
-0.163572
-0.284263
-0.118477
-0.0207097
-0.120225
-0.0485065
-0.110195
-0.0227726
-0.17378
-0.165129
-0.411118
-0.162021
-0.27821
0.304429
-0.141918
-0.0809785
0.0132546
-0.298443
-0.345691
0.0631867
-0.0792417
-0.0960457
0.0270857
-0.116663
0.00702433
-0.0897968
-0.386469
0.221862
0.0205101
-0.112194
-0.0248308
0.00971615
-0.409968
-0.0154918
-0.0751524
-0.120606
-0.0101233
-0.208756
0.328455
-0.0202664
-0.14119
-0.0158829
0.488621
-0.18895
0.0169003
0.01878
0.0377846
-0.239415
-0.11491
-0.149541
-0.139139
-0.480322
-0.462897
-0.207071
-0.116163
-0.0152054
0.263234
-0.133347
-0.184963
0.00725085
-0.483727
0.0289295
-0.140027
-0.437744
-0.0154937
0.0127148
0.066772
0.00914821
0.0160761
-0.202024
-0.109491
-0.101956
-0.115918
-0.0412293
-0.171141
-0.181337
-0.116277
-0.17773
-0.2173
0.0360148
0.0331995
-0.169689
-0.171691
-0.189324
0.00453685
0.0713386
0.0273338
-0.131251
-0.146397
-0.000161292
-0.175277
-0.112436
0.0207145
-0.463654
-0.322025
-0.0838863
-0.107667
-0.0011464
0.0139327
-0.117808
0.000651612
0.0582766
-0.0581771
0.00147794
-0.0152873
-0.0117069
-0.0747683
-0.146809
-0.112597
-0.134052
0.0131283
0.0189757
0.0029612
-0.109051
0.0181689
-0.408219
0.0212634
-0.120546
-0.248649
-0.00567064
-0.0056987
0.00469805
-0.00958635
-0.0351949
-0.301416
-0.42049
0.231463
-0.154488
-0.147291
-0.0817146
9.85377e-05
-0.0538884
-0.0399663
-0.519748
-0.0332947
-0.168359
0.0386639
-0.165173
-0.106977
-0.0934414
-0.157622
-0.128087
-0.0518163
-0.113173
0.284421
-0.0185404
0.0278954
0.00305109
-0.0310562
-0.485143
-0.00518319
-0.116042
-0.027652
-0.156043
-0.205891
0.0225374
0.453368
-0.546592
0.102638
-0.0231543
-0.116534
-0.176329
-0.0126046
0.0172853
0.450314
-0.0459732
0.00753942
-0.0150138
0.00536558
-0.197328
0.0824615
-0.122757
0.00833765
-0.146291
0.0322159
-0.305413
-0.137133
0.0823713
0.371684
0.0356609
-0.0383165
-0.0808631
-0.132456
0.0255199
0.0162051
-0.410767
-0.0729428
-0.0193563
0.439913
-0.355173
-0.00801425
-0.197235
0.00895766
-0.439313
-0.148075
-0.0609547
0.447158
0.277247
-0.160713
-0.158829
-0.186419
-0.0237685
-0.0325928
-0.486305
-0.396399
0.00888268
0.402937
0.0530055
-0.554878
0.00161821
-0.012622
-0.000801511
-0.23628
0.0175485
0.0114577
-0.152603
-0.0386437
-0.0136363
-0.136298
0.0447541
-0.0741806
0.382957
-0.460768
-0.0200996
0.00432719
-0.00156043
-0.254211
-0.0387399
-0.484045
-0.155693
-0.475698
0.00462026
-0.277926
-0.272147
-0.130131
-0.113272
-0.0250265
0.0823826
-0.108677
-0.111661
-0.0369671
0.0242202
0.0101384
-0.010086
-0.113974
-0.112226
-0.389946
-0.118834
0.0485876
-0.160841
-0.00704479
0.0303182
0.0264735
0.0757373
0.053078
-0.317815
-0.124798
0.0328419
-0.435046
-0.437433
-0.1201
-0.129493
-0.00420198
-0.306813
-0.40763
-0.0644069
-0.0162361
0.00200189
-0.108892
0.0595402
0.0181344
-0.0920296
-0.280991
-0.119171
-0.121129
-0.405121
-0.0395487
-0.0376233
-0.134772
-0.0100307
-0.0168866
-0.190312
0.0830691
-0.0183749
0.114883
0.0972858
-0.031176
0.346367
-0.116024
-0.48096
-0.0830912
-0.311287
-0.237751
-0.179682
-0.177408
0.0490471
0.00385217
-0.552559
-0.477579
-0.164408
-0.115779
-0.282998
-0.0469924
0.00188312
-0.223596
-0.153757
-0.153279
-0.00668038
-0.118934
0.0173586
0.0360536
-0.0919232
-0.115569
-0.0305466
0.0238986
-0.0162621
-0.240671
-0.149338
-0.115996
-0.024978
-0.07215
0.0161671
0.0181386
-0.108157
-0.250472
0.00464067
-0.503291
0.026097
-0.16356
-0.09247
-0.24132
-0.138488
-0.0103444
-0.554346
-0.0012405
-0.114514
-0.131765
-0.136653
-0.239964
0.0194276
-0.0205513
-0.00289733
0.0138396
0.356661
-0.0117115
-0.0531067
-0.0383098
-0.310821
0.0268087
0.000321159
-0.134263
0.0190076
0.156692
-0.00721161
0.012471
0.413601
0.021404
0.0971704
0.0131451
-0.375852
-0.393325
-0.00112947
0.00486404
0.0275655
0.463557
0.0668605
-0.280708
-0.173051
-0.185622
0.0238859
-0.119618
-0.00903989
-0.152299
-0.0100848
-0.144506
-0.127831
-0.204565
-0.110869
-0.0252174
0.00905115
-0.00481459
-0.114603
0.0174488
-0.116231
0.452274
0.0121965
-0.11694
-0.0145223
-0.067869
0.0118343
-0.131929
-0.0199029
-0.0230064
0.393553
0.00553339
-0.471454
0.004406
0.0711999
0.000353409
-0.0137546
0.00359177
0.0115877
-0.552069
-0.0718092
-0.212016
0.0208869
-0.0402782
-0.189317
-0.0913875
-0.0597523
-0.130785
0.197372
-0.0155597
0.0371839
-0.113074
0.0129883
-0.139457
0.427116
-0.495831
0.0209089
-0.213552
0.0128897
0.011276
-0.115997
-0.0194737
0.00635676
-0.354594
-0.0191603
0.0831904
0.00158543
0.335405
-0.172974
-0.16226
-0.161119
0.172769
0.00656601
0.0123135
-0.543941
-0.0348597
0.0047993
-0.00211022
0.0981282
-0.398479
0.0217748
0.018495
-0.108122
0.00134267
-0.117852
-0.119413
-0.0250443
-0.129783
0.46341
-0.0619893
0.0099865
-0.217294
-0.0633089
-0.233359
0.417896
-0.012319
0.00445318
0.021802
-0.0377247
0.0120665
-0.00639222
-0.0324062
-0.544188
-0.090604
-0.00741037
0.0190389
-0.200458
-0.119365
0.111652
-0.211187
0.02775
-0.0389732
0.324072
-0.152498
-0.0791033
-0.557446
-0.134064
-0.0280389
-0.0349677
-0.554452
0.0293033
0.0120593
0.0392665
0.032229
0.181847
-0.301213
-0.0384651
-0.12012
-0.299512
0.00173416
-0.0598639
0.0522132
-0.312201
-0.159919
0.00256325
0.396304
-0.340199
-0.170483
-0.204506
-0.0046093
0.0525507
-0.465822
0.0797462
-0.00563593
-0.256174
-0.17757
-0.220124
0.0240587
-0.30618
0.0258777
0.00582184
-0.184324
-0.0986486
-0.205907
-0.538817
-0.108863
-0.0826706
-0.0196259
-0.0310272
0.00277769
0.00813978
-0.129323
-0.344617
0.0039596
-0.0157572
-0.0331992
-0.0412368
-0.159316
0.207173
-0.0100515
-0.177796
-0.139
-0.041669
-0.399545
-0.0152035
0.0493122
0.00786735
-0.0110278
-0.0207271
-0.0411247
-0.108963
-0.199794
-0.303123
-0.0859105
-0.214845
-0.248199
-0.480043
-0.159372
-0.118259
0.425989
0.000857829
0.00590306
-0.114804
-0.129318
-0.102411
-0.238361
-0.283146
-0.550419
-0.194187
-0.49787
-0.02859
0.00379513
-0.209075
-0.0380054
0.00916026
0.445662
-0.07528
-0.105815
-0.230024
-0.187463
-0.114634
-0.0305508
-0.190926
0.144403
0.00301188
-0.01231
-0.156688
-0.376662
-0.368702
-0.382729
-0.0109293
0.0232569
0.199716
0.0380037
-0.253464
-0.247333
-0.267246
-0.198615
0.0132551
-0.0501856
-0.0852564
-0.526679
-0.0139995
-0.286834
0.0101414
-0.0177936
-0.183531
-0.255009
-0.0302347
-0.149866
-0.370921
-0.165402
-0.0168966
-0.115609
0.0355693
-0.30299
-0.0186066
-0.00635235
0.248097
-0.120975
-0.0679062
-0.0266392
-0.497533
-0.109604
-0.425772
-0.25234
0.161375
0.00512226
-0.135295
-0.261579
-0.0164091
0.0188363
-0.235536
-0.544993
0.0407108
-0.0307323
0.0124784
-0.548316
0.00508932
-0.176744
-0.303333
-0.118933
-0.109404
-0.203541
0.0070412
-0.0701228
-0.0138291
-0.336873
0.24278
0.00753283
0.0214149
-0.112241
-0.27675
-0.00148365
-0.311244
0.00395053
0.00397994
-0.0983737
-0.321431
-0.0571464
-0.0656615
-0.0225143
-0.0424913
-0.152523
-0.127212
-0.410993
-0.100393
0.0466588
0.342415
-0.116911
-0.222803
-0.139454
0.0659234
-0.11682
0.0331855
-0.193792
-0.116349
0.00865313
-0.213229
-0.112775
0.00840918
-0.0275758
-0.181244
0.00885919
0.0245145
-0.0449975
0.0884
-0.119804
-0.00333534
-0.0173906
-0.0694241
0.0175725
-0.323656
-0.0397377
-0.547381
0.0266845
0.00980661
-0.181428
-0.133861
-0.426406
-0.147486
0.458056
-0.456179
-0.102113
-0.0238585
0.0244698
-0.144349
-0.0975166
-0.019517
-0.062379
-0.0273208
0.0732227
-0.175086
-0.207224
-0.210654
-0.314919
-0.0333263
-0.131671
-0.483631
-0.00893198
0.494533
-0.0293023
-0.0202035
0.15612
-0.0142441
0.00566272
-0.0485234
0.0427805
-0.0957411
0.361869
-0.0257332
-0.246286
-0.556646
-0.114713
-0.518136
0.0373201
-0.0305705
-0.300326
-0.337839
-0.118662
-0.0708018
-0.382137
-0.129551
-0.154664
0.0102879
-0.0205086
-0.168741
0.00805249
0.189177
-0.206865
-0.0939257
0.267428
0.00652489
-0.0110469
0.0173829
-0.0385451
-0.115731
-0.24261
0.0680832
-0.139385
-0.544051
-0.00984672
-0.0496696
-0.1888
-0.470187
0.00491176
-0.11385
-0.127849
-0.459269
-0.0481035
-0.384688
-0.116097
-0.0697742
-0.174342
0.361231
-0.212482
-0.134338
-0.144332
-0.116869
0.0088594
-0.174652
-0.13902
-0.034555
0.0972349
-0.0421304
-0.308601
0.0129619
-0.00119982
0.0123713
-0.0760602
0.131434
-0.364939
0.057117
-0.540881
-0.551785
-0.250557
-0.436804
0.001647
-0.0642487
0.0257421
-0.0935821
-0.0235577
0.00892858
-0.103641
-0.47099
0.000357279
0.016366
-0.153869
-0.321564
-0.0336316
0.371147
0.0315833
-0.0477734
0.0311176
-0.151442
-0.0361032
-0.00208592
-0.0250903
-0.213432
-0.118318
-0.105673
-0.060695
-0.0102212
-0.192987
-0.0462175
-0.155095
-0.122226
-0.468674
-0.166984
0.00595001
-0.131864
-0.0562563
-0.0355286
-0.0210727
0.00846154
-0.190478
-0.0187293
0.0243043
0.00845079
-0.00314619
0.0103973
-0.252242
0.171577
-0.132804
-0.150722
-0.205561
-0.326973
-0.210726
-0.0123854
-0.0370158
-0.388099
-0.158253
-0.125613
-0.207043
-0.14449
0.0504227
-0.0262907
-0.488274
-0.0147223
-0.296881
-0.525821
0.0228505
-0.131282
-0.428621
-0.335975
0.0151879
-0.0258077
-0.0842642
-0.000373616
0.198516
-0.0110034
0.00212797
-0.136371
-0.123761
-0.49635
0.0318185
-0.00882831
0.0156173
-0.124472
-0.0148219
-0.117571
-0.204519
-0.116148
-0.0025784
-0.0746724
0.0130079
0.00906759
-0.0102533
-0.120918
0.00434593
-0.392019
0.355172
-0.429043
-0.0218418
0.232254
-0.36124
-0.0454498
-0.307264
-0.368908
-0.186383
0.0315391
-0.303678
-0.114509
0.00392981
-0.164246
-0.497049
0.00191243
-0.224051
-0.131928
-0.130466
-0.144665
0.0265701
-0.113084
-0.203553
0.431258
0.0263121
-0.150817
-0.200979
0.258857
-0.367905
0.446942
-0.433929
0.018722
0.00184927
-0.0929818
-0.515098
-0.121133
-0.243622
-0.0961124
-0.212103
-0.24205
-0.296853
0.0831331
-0.0042253
-0.00085097
-0.339817
-0.264946
-0.489268
-0.54421
-0.0853202
0.16614
-0.111093
-0.201633
-0.00270958
-0.556708
-0.0094961
0.0645611
0.00204206
0.00237689
-0.412314
-0.0123925
0.215955
-0.145927
-0.0355595
0.0279209
-0.132689
-0.0338121
-0.00939261
-0.188743
-0.026539
-0.11603
-0.271371
-0.124212
0.00431374
-0.49006
-0.0150275
-0.205368
-0.291728
0.0197863
0.018164
-0.0320823
0.00833746
0.0154081
-0.0344424
0.0182865
0.00758591
-0.262494
0.0801443
-0.00323693
-0.0228258
-0.0105797
-0.181927
-0.152447
-0.137548
0.0211339
-0.0282712
-0.359345
-0.153447
0.15976
0.00149682
0.0178243
-0.0145366
-0.133131
-0.16673
0.0638657
-0.2145
-0.252951
-0.282431
-0.426462
-0.108328
-0.000808165
-0.119941
-0.116395
-0.108259
0.0021981
-0.389127
-0.0288762
-0.544957
-0.0224547
-0.118924
-0.00668651
-0.350254
-0.133559
-0.0937831
-0.22381
-0.205441
0.0115081
-0.0901776
-0.222249
-0.100546
-0.0205525
0.0366677
0.0404334
-0.510769
0.227882
0.00315245
-0.0113428
-0.154811
-0.0150697
-0.0809719
0.495893
-0.113692
-0.174105
-0.141205
0.0161513
-0.113329
-0.00575673
-0.399227
-0.017777
-0.180852
0.0842354
0.00342518
0.0213884
-0.153225
0.144952
-0.0025713
-0.35285
-0.0248853
-0.234947
-0.170649
-0.217043
-0.401354
-0.117113
-0.231345
-0.116575
0.0542984
-0.078409
-0.0787854
0.0119147
-0.0172697
-0.115958
-0.143367
0.00817568
-0.0147375
-0.0121481
0.00445025
0.421745
-0.124084
0.0413626
-0.119619
-0.313461
0.157718
-0.118089
-0.119844
0.169313
0.102506
-0.0597063
0.00866725
-0.0170381
-0.0141473
0.142696
-0.00687546
0.0127104
-0.0496646
-0.231658
0.00855178
0.0165598
0.00278095
-0.0144106
0.0101579
-0.0941192
-0.0676731
-0.115008
-0.113482
-0.0139027
0.433082
-0.182031
-0.0184547
-0.172331
-0.217171
0.020278
-0.403402
-0.132732
-0.0106202
-0.112871
-0.135473
-0.0874009
0.0198096
-0.0924681
-0.0234205
-0.175822
-0.0961159
-0.198491
-0.446093
-0.1368
-0.0672783
0.00830051
-0.33893
-0.0880626
-0.112277
-0.383333
-0.344684
-0.117424
-0.311955
-0.0291536
0.106813
-0.510079
-0.256593
-0.0695766
0.150375
-0.1606
-0.00900442
-0.116528
-0.115338
-0.241618
0.0231502
0.105137
-0.558584
-0.167268
-0.00873785
-0.234401
0.0757932
-0.019893
-0.15722
-0.345428
-0.0582953
0.0291917
-0.0516481
0.487498
-0.0612435
-0.552859
-0.250528
-0.493284
0.0126157
0.0157028
-0.118056
-0.119814
0.103392
-0.076328
-0.0818778
-0.116739
0.411711
-0.300346
-0.165464
-0.396456
-0.272508
0.0239442
-0.212639
-0.212559
-0.0268141
-0.48113
-0.11459
-0.0547152
-0.109379
-0.193868
-0.114777
-0.0158297
0.188833
-0.168413
-0.0915716
-0.0133324
0.00860077
-0.117569
-0.00972199
0.0856727
-0.140478
-0.119656
-0.410581
0.420479
-0.188368
-0.226976
-0.295016
-0.124833
0.00607753
0.0684206
-0.0555178
-0.327934
0.00740047
-0.175825
-0.207774
-0.231785
-0.439539
0.0697694
-0.237871
-0.154644
-0.351978
-0.27137
-0.0621907
0.388795
0.0154979
-0.0231622
-0.134629
-0.0826696
-0.123532
-0.324347
0.0029516
0.00333808
-0.483365
-0.00319267
-0.164777
-0.00401613
-0.174401
0.0157443
-0.0642907
-0.185776
-0.00286772
-0.246633
-0.225464
-0.203277
0.032112
-0.0873534
-0.13507
-0.187059
-0.28977
-0.47551
-0.122782
-0.0597595
-0.00905214
-0.00124743
-0.132947
-0.0430921
-0.152332
-0.350294
-0.254523
0.0861313
-0.289482
-0.0126362
-0.119831
0.413624
0.0255789
0.00351492
-0.274608
-0.0371571
-0.0282789
0.402789
-0.00305437
-0.283225
-0.473408
-0.497564
-0.509997
0.145869
-0.166327
0.000269535
-0.211044
-0.00576534
0.0377732
0.0160616
-0.101087
0.00701847
0.00819814
-0.407633
-0.00954746
-0.023832
-0.0425687
0.241339
-0.113797
-0.214709
-0.114666
-0.0786496
0.00299936
-0.374948
-0.0978402
0.0430976
-0.0513583
-0.231649
-0.215634
0.00397574
-0.418152
-0.441427
-0.0794733
-0.180461
-0.0654375
0.0282664
-0.284472
-0.39184
-0.221063
0.412575
-0.104091
0.0386585
0.113681
-0.0505996
0.021523
-0.220385
-0.28686
0.0134904
-0.0188368
-0.473168
-0.410295
-0.288668
0.0990528
-0.180547
0.182665
-0.116633
0.0397929
-0.020244
-0.151856
-0.11222
-0.221466
-0.139708
0.145383
-0.103973
-0.33927
-0.274769
-0.0867411
-0.119307
0.210957
-0.0135231
-0.110692
0.0452671
-0.0196616
-0.00651081
-0.45922
0.00878778
-0.013961
0.0500656
-0.289575
-0.0436998
0.10091
0.0226569
0.430736
-0.0843236
0.0997166
0.0129045
-0.259676
-0.221083
0.0990566
-0.00802318
0.00200488
-0.15086
-0.125953
0.019862
0.0552833
0.440594
-0.0161207
-0.232643
0.168738
-0.358527
0.0126325
-0.0837814
-0.0109034
0.0473866
-0.0283771
0.423534
-0.175885
0.423528
0.437596
-0.0282357
0.306266
-0.0884861
-0.113231
-0.00808962
0.0187188
0.0780048
-0.213285
-0.342643
-0.0466654
-0.0120512
0.210024
0.405677
-0.434971
-0.0227415
-0.36272
0.0287448
0.0215411
0.0156362
0.43641
-0.0223426
-0.0410385
0.00609864
-0.313583
-0.0556298
-0.0067778
-0.254836
-0.126772
0.00375789
-0.476019
-0.0683131
0.206868
-0.396215
0.44922
-0.00499162
-0.446755
-0.134844
-0.541716
-0.0145122
-0.11778
-0.036922
-0.0759832
-0.222486
-0.033968
0.466474
-0.0898561
-0.116127
-0.167662
-0.0118273
-0.164151
-0.296306
-0.136258
0.0183804
-0.125771
-0.109305
-0.0761664
-0.367766
0.11286
-0.228605
-0.142024
-0.11876
-0.124152
-0.0156486
0.0244087
0.11515
0.295638
-0.0947288
-0.0123643
-0.0542834
0.0252362
-0.140476
-0.012931
-0.233966
0.0150289
-0.207976
-0.107474
0.167921