/*--------------------------------*- C++ -*----------------------------------*\
| =========                 |                                                 |
| \\      /  F ield         | OpenFOAM: The Open Source CFD Toolbox           |
|  \\    /   O peration     | Version:  v2012                                 |
|   \\  /    A nd           | Website:  www.openfoam.com                      |
|    \\/     M anipulation  |                                                 |
\*---------------------------------------------------------------------------*/
FoamFile
{
    version     2.0;
    format      ascii;
    class       surfaceScalarField;
    location    "350";
    object      phi_0;
}
// * * * * * * * * * * * * * * * * * * * * * * * * * * * * * * * * * * * * * //

dimensions      [0 3 -1 0 0 0 0];
oriented        oriented;


internalField   nonuniform List<scalar> 
26940
(
0.133579
-0.0851426
-0.0484362
0.502387
-0.189713
-0.312674
0.128669
-0.470767
0.342097
-0.0330427
0.125016
-0.0919732
-0.0202643
0.00657105
0.0136933
-0.103796
0.102521
0.00127543
-0.373442
0.394017
-0.0205755
-0.00419489
0.00419489
-0.00345134
-0.00027971
0.00373105
0.00817189
-0.0126368
0.00446494
-0.283432
-0.0989665
0.382399
0.275572
0.0604791
-0.336051
-0.00343702
0.00469015
-0.00125313
0.096987
-0.0123687
-0.0846182
-0.0228923
-0.0225427
0.045435
0.098033
-0.00104608
-0.0157735
0.313777
-0.298004
-0.0219171
-0.0195547
0.0414718
0.331234
-0.148244
-0.18299
-0.000362902
0.000509081
-0.000146178
0.106807
-0.123155
0.0163477
0.35229
-0.368064
0.135872
-0.0290643
-0.42421
0.25094
0.17327
-0.00569587
-0.36555
0.371246
0.102166
-0.475608
-0.0902981
0.142695
-0.0523972
-0.210749
0.10615
0.104599
-0.0698032
-0.193105
0.262908
-0.127558
0.0945155
0.00363859
-0.000811828
-0.00282676
0.00506121
0.372523
-0.377584
0.252146
-0.328617
0.0764712
0.365865
-0.192204
-0.17366
-0.231444
0.410806
-0.179362
-0.517292
0.231128
0.286164
0.00111856
-0.0045699
-0.207347
-0.309944
0.0729425
-0.308446
0.235504
-0.00557451
0.0137464
0.372756
-0.481382
0.108625
-0.0908114
0.047542
0.0432695
0.369875
-0.117729
0.308947
-0.248031
-0.0609164
-0.0730152
-0.0352166
0.108232
0.48965
-0.277164
-0.212486
0.135669
-0.0130524
-0.122617
0.00363859
0.11049
-0.102301
-0.00818957
0.130523
-0.0698753
-0.0606474
-0.04601
-0.116036
0.162046
0.157219
-0.132931
-0.0242873
-0.0789316
-0.0472681
0.1262
0.122536
-0.461357
0.338822
-0.406
0.122567
-0.0057004
0.0010437
0.0046567
-0.0482621
-0.0425494
-0.00184143
0.0112441
-0.00940267
0.193568
-0.253063
0.0594955
-0.0159667
-0.155838
0.171805
0.101188
-0.15382
0.0526327
0.199911
-0.0374631
-0.162448
-0.00333635
0.00396732
-0.000630964
-0.212697
0.101659
0.111039
-0.0781002
-0.0205883
0.0986885
-0.179913
0.367685
-0.187772
0.0029851
-0.00471428
0.00172918
0.0186323
-0.0304721
0.0118397
-0.00213975
0.0309456
-0.0288059
0.206416
-0.152737
-0.0536784
-0.402166
0.170722
-0.0765651
-0.169802
0.246368
-0.125102
0.052087
-0.183482
0.215659
-0.0321767
-0.0177276
0.0177276
-0.0212676
0.0283749
-0.00710723
-0.0711638
0.12508
-0.0539163
-0.0229785
0.0208388
0.0577861
-0.220653
0.162867
-0.17054
0.4678
-0.29726
-0.479411
0.0143001
0.46511
-0.00678166
-0.00604314
0.0128248
-0.23719
-0.433468
0.150667
0.282801
-0.422355
0.533533
-0.111178
0.180619
-0.280233
0.0996132
0.221923
-0.239136
0.0172128
-0.389145
0.548509
-0.159365
-0.141466
0.157933
-0.0164671
-0.261725
0.334668
0.00367354
-0.00385748
0.000183938
-0.128794
0.0178381
0.110956
-0.0106036
0.00123664
0.00936696
0.290131
0.189018
-0.479148
-0.0794091
0.452166
-0.0686705
0.24929
-0.0662208
-0.29911
0.365331
0.107295
-0.113605
0.0063105
-0.182258
0.146837
0.0354209
0.0331714
-0.185647
0.152475
0.489719
-0.475945
-0.0137743
-0.433842
0.138384
0.295457
0.0350096
-0.0579019
-0.0861849
-0.126512
0.109192
0.0972231
-0.324862
-0.10898
-0.0205252
0.0156855
0.00483972
-0.00556208
0.00305588
0.0025062
0.118061
0.022981
-0.141042
-0.29436
-0.103205
0.397565
0.00790136
-0.00974279
-0.00410342
0.00806794
-0.00396453
-0.0137127
0.0121256
0.0015871
-0.0208249
0.0522451
-0.0314202
-0.0917749
0.40001
-0.308235
0.110958
0.21477
-0.325728
-0.106747
0.117132
-0.0103848
0.000708163
-0.00115242
-0.188861
-0.0367303
0.225591
-0.0543486
0.00217891
-0.0254251
-0.031128
-0.226472
0.156669
-0.0244875
-0.0681746
0.0926621
-0.0459018
0.0407477
0.00515409
-0.130512
0.0944036
0.0361086
-0.389517
0.244058
0.145459
0.233261
-0.382581
0.14932
0.00735781
-0.00319136
-0.00416645
-0.180749
0.106524
0.0742254
-0.0760052
-0.0343771
0.110382
0.109483
-0.116873
0.00739031
0.0343962
0.0128077
-0.047204
0.154032
-0.217209
0.0631765
0.00370445
-0.0179452
0.0142407
-0.175347
0.0723573
0.10299
-0.0118565
0.147526
-0.446663
0.239316
0.141309
0.200838
-0.342147
-0.0495273
0.20356
-0.00137595
0.00131004
6.59086e-05
0.000233682
0.00123356
-0.00146725
-0.0993041
0.0212039
-0.0623698
-0.022867
0.0852368
0.00157573
-0.0144444
0.221773
-0.103712
-0.00882361
-0.0473799
0.0562036
0.0005455
-0.0005455
-0.061833
0.0178377
0.0439953
0.217576
-0.297068
0.079492
0.240835
-0.0988392
-0.141996
0.358658
-0.424879
-0.0132703
0.0154692
-0.00219883
-0.0205252
-0.0581304
-0.0723818
-0.0777006
-0.303952
0.381653
-0.433022
0.138662
-0.214094
-0.010217
0.224311
-0.00411827
0.000781918
-0.297751
-0.148912
0.00392079
0.109951
0.318503
-0.428455
0.0332691
-0.0142691
-0.019
0.144195
-0.220192
0.0759968
-0.417533
-0.0380996
0.455632
0.0157525
0.017988
-0.0239006
0.00591258
-0.102609
0.375205
-0.272596
0.0091136
-0.00753788
-0.006275
-0.00699935
0.0132743
0.00988214
-0.0104243
0.000542148
-0.0953881
0.105265
-0.00987715
-0.0625098
0.0416849
0.0595775
-0.135583
0.0218118
-0.00317944
0.0650288
0.0180615
-0.0830903
0.128995
0.181903
-0.310899
-0.0456878
0.0230021
0.0226857
0.00298276
-0.0319698
0.0289871
-0.23735
-0.28554
0.52289
-0.463709
0.0745641
-0.348666
0.256891
0.0493839
-0.138821
0.0894367
0.0256985
-0.0484567
0.0227582
-0.0407582
-0.00492956
0.0196196
0.0582985
-0.0779181
-0.256485
0.424733
-0.168247
-0.138822
0.0460409
0.0927812
-0.0448803
-0.0834398
0.12832
-0.339199
-0.0447778
0.383977
-0.228084
0.339042
-0.0275627
0.12875
0.271961
0.0592727
0.174339
-0.162915
-0.011424
-0.263473
-0.169995
-0.186798
0.142114
0.0446836
-0.00298273
0.000113649
0.00286908
-0.0914927
-0.0123038
-0.133153
-0.0536448
-0.00169392
-0.00351299
-0.00204909
0.0056777
-0.101066
0.000105785
0.0102569
-0.0103626
-0.185968
0.313351
-0.127383
-0.0169655
-0.0448675
0.0249615
-0.201135
0.176173
-0.165439
0.0325072
0.0117656
-0.0185473
-0.00600104
0.000300644
-0.0205504
0.0241344
-0.003584
0.00706746
-0.00706746
-0.0118287
-0.00843567
0.00202083
-0.00178714
0.265037
-0.174364
0.365997
-0.191633
-0.135696
0.180966
-0.0452702
-0.103826
-0.0249678
-0.074797
-0.017675
0.092472
0.000547156
0.0125681
-0.0188431
-0.0114464
0.00540321
-0.172083
-0.0285941
0.200677
0.0162614
0.316427
-0.332688
-0.409782
0.153297
-0.0967477
0.0506947
0.046053
0.00995233
-0.0101029
0.000150568
-0.106214
0.287076
-0.180862
-0.10793
-0.0056754
0.546808
-0.395805
-0.151003
-0.150264
-0.0454306
0.195694
-0.297483
0.111515
0.000464803
-0.000686539
0.000221736
0.0129507
-0.00410791
-0.0088428
0.256222
-0.10134
-0.154882
0.00226582
-0.00101711
-0.00124871
-0.41016
0.544498
-0.134338
0.102767
-0.26151
0.158742
-0.175964
0.0402686
-0.0879348
-0.056443
0.144378
0.00913951
-0.00793385
-0.00120566
0.0592557
-0.0680793
0.160977
0.0133617
0.00932489
-0.00708448
-0.0022404
-0.000967428
-0.000748594
0.00171602
-0.152371
0.136404
-0.00381879
0.0530317
-0.0492129
-0.19998
0.220577
0.0801355
0.00227192
0.00705296
0.00468549
-0.0213727
0.0166873
0.224967
-0.247381
0.0224136
0.0644707
0.0691081
0.412214
-0.178953
-0.232981
0.257943
-0.102558
-0.0781913
-0.0161923
0.00292196
0.00736799
-0.000916402
-0.00645158
0.11072
0.295702
-0.406421
0.0116735
0.00229481
-0.0139683
0.00154992
0.00833223
-0.431558
0.0140248
-0.190158
0.370317
-0.180158
0.00166788
0.000597939
-0.0974974
0.116166
-0.0186684
0.0343156
0.0761747
-0.00371574
0.00494938
-0.00123364
-0.0112881
0.0165603
-0.00527222
-0.00392972
-0.00710779
0.0110375
-0.206101
0.0226186
-0.0366456
-0.442765
0.113324
-0.080153
0.0402246
-0.345539
0.171175
0.31655
-0.470091
0.153541
0.000252912
-0.0280332
0.0277803
0.145568
0.0123659
0.000153887
0.00791696
-0.00807084
-0.0328783
0.035861
0.220984
0.325824
-0.0260079
0.00474026
0.36372
0.123716
-0.0268263
-0.0968894
-0.0021223
0.0051074
-0.183751
-0.0223494
0.16983
-0.278669
0.10884
0.0644553
-0.236538
-0.140398
0.0440591
0.0963387
-0.0204036
0.220314
0.294987
-0.149039
-0.145948
0.00479756
-0.00367899
-0.0286175
-0.320048
-0.0349299
-0.175819
0.11945
-0.131306
0.220995
-0.121043
-0.0999526
-0.292397
0.403117
-0.223294
0.0395429
-0.00088426
-0.00209847
-0.31043
-0.0541178
0.364548
-0.137031
-0.208508
0.179378
-0.285592
-0.0682326
0.0644138
0.00266535
0.0387076
-0.041373
-0.443186
0.272646
-0.315384
0.0785051
0.236878
-0.0986372
0.415187
-0.0310481
-0.0324215
0.0634696
-0.402951
0.192743
0.210208
-0.004832
-0.00116904
-0.12848
0.0987545
0.0297253
0.187352
0.121595
0.2119
-0.330666
0.118766
0.144235
-0.217341
0.0731064
-0.0230192
0.00646485
0.0165544
0.000676532
-0.00103943
0.0535973
0.107127
-0.160724
0.316801
-0.345419
-0.0139515
0.0151338
-0.00118228
-0.0581361
0.0106914
0.0474446
0.106061
0.114934
0.175839
-0.0913855
0.0923927
-0.0010072
-0.155267
0.36291
-0.207644
-0.133779
-0.0484795
0.0133016
-0.0131958
-0.122432
0.0249347
0.135683
-0.111628
-0.0240554
-0.124682
0.0548064
0.188799
0.106187
-0.175952
-0.226999
-0.295898
0.400742
-0.104844
0.0169225
0.00162241
-0.018545
-0.209365
0.350674
-0.01074
-0.0949447
-0.338891
0.0599501
0.278941
0.038563
0.00669884
-0.0452618
-0.00776283
0.00634134
0.00142149
0.0993469
-0.0148605
-0.0844864
-0.000490492
0.012164
0.00376805
-9.4509e-05
0.018528
0.000753101
-0.0192811
0.323358
-0.105781
0.00506971
0.00195034
-0.00702005
-0.0852514
-0.00613406
0.00350585
-0.000927087
-0.00257876
-0.16811
0.270877
0.263049
-0.378384
0.115336
0.346536
0.0329101
-0.379446
0.157728
-0.10413
0.186563
-0.263128
0.0567186
-0.144653
-0.00429781
0.197866
-0.010129
0.129579
-0.322694
0.185663
0.307476
-0.430233
0.122758
0.0485608
0.0176841
-0.0662449
0.176969
0.0449535
0.00703576
-0.0651718
0.161977
-0.152549
-0.00942841
-0.142951
-0.3861
0.0902021
-0.342886
-0.120823
-0.0150729
0.00378479
-0.00208431
0.000624589
0.00145972
0.116604
-0.409001
0.298366
-0.402861
0.104495
0.210641
0.1324
-0.343041
-0.394811
0.0043908
0.39042
-0.0103252
0.0995492
-0.089224
0.567348
-0.330561
-0.236786
-0.0147539
0.0230363
-0.00828244
-0.0404467
0.0185296
-0.526519
0.400696
0.125823
-0.30004
0.144773
-0.0871734
0.0716428
0.0155307
-0.00502488
0.00796428
-0.0029394
-0.0177363
0.0562993
0.00201724
0.0014886
0.379959
-0.516011
0.136053
-0.000937805
-0.00196562
0.101313
-0.0255407
0.000450843
-0.00182679
-0.0113628
0.0857368
-0.0743739
0.107106
0.133729
0.0761431
-0.24074
0.164597
-0.328919
0.263452
0.0654665
0.190403
0.220259
0.299456
-0.519715
-0.000589496
0.009729
-0.218832
-0.110086
0.285375
0.11726
-0.402635
0.151642
-0.219723
0.0680808
-0.0498623
-0.239433
0.289295
0.0128256
-0.0134368
0.000611251
0.0281423
0.0867906
-0.114933
0.171774
-0.471913
0.300139
0.166956
-0.0124298
0.0018262
0.217281
-0.396216
0.178935
0.24536
-0.404037
0.158676
0.268148
-0.277211
0.00906329
0.0870749
0.0131167
-0.100192
-0.0016508
-0.00611203
-0.226373
0.516504
0.0631179
-0.0434982
-0.285767
0.200931
0.0848355
-0.211597
-0.0858855
-0.00238394
-0.00626298
0.00864692
-0.00807676
0.00569282
-0.258105
0.104588
0.153517
0.0457838
-0.0768319
0.00619764
-0.13495
0.121533
0.0134166
-0.0689598
0.0651884
0.00377145
0.0755565
0.141474
-0.217031
-0.0114891
-0.174158
-0.0747964
-0.0656013
0.0732372
0.00324647
-0.0764837
-0.146
-0.414888
-0.516258
0.302125
0.214133
0.312729
-0.154829
-0.1579
-0.195826
-0.193691
0.015578
0.00240999
-0.208977
0.042364
0.166613
-0.0153481
-0.0137361
0.0290841
-0.325099
0.453768
-0.107394
0.0829063
0.237217
0.128648
-0.00155066
-0.000533648
0.00277721
-0.00277721
0.175245
-0.0609117
-0.114333
0.0231457
-0.0121171
-0.0110286
0.0292478
0.106435
0.163691
-0.184048
0.138038
0.0143933
-0.00156774
-0.0516287
-0.00882755
0.0604562
0.462897
-0.456823
-0.00607394
-0.0188146
0.00406075
0.160251
0.0160036
-0.176254
-0.282088
-0.118141
0.400229
-0.0118214
-0.0340804
0.00514818
-0.00727048
0.324461
-0.3082
0.0108704
0.0223987
0.00865352
-0.00358381
-0.318001
-0.115021
-0.00703233
0.00703233
0.0701083
-0.0804335
-0.293798
0.0822009
-0.0386459
-0.0581018
-0.0301812
0.0304342
-0.0169928
0.0820216
-0.168245
0.0522086
-0.0132597
-0.0122197
-0.00173184
-0.0648672
0.0930095
-0.0679952
-0.0593939
0.127389
0.258504
-0.308366
-0.00896163
0.00577028
0.181475
-0.32972
0.309164
-0.126044
-0.18312
0.0149905
0.00815522
-0.00476431
-0.0641955
0.151311
0.0795752
-0.230886
-0.0801607
-0.177944
0.171933
-0.0116826
-0.1483
0.223857
-0.253464
0.0534843
0.314189
0.0323472
-0.46136
0.0390045
0.134334
-0.112215
-0.0221186
-0.00112305
0.00170019
-0.000577143
-0.464762
0.121877
0.129845
-0.00612894
-0.506155
0.111345
-0.000300994
0.00319301
-0.00289202
-0.282912
-0.233346
-0.446655
0.0364947
-0.0161268
-0.0722197
0.0883465
0.00377929
0.0320448
-0.0358241
0.11029
-0.102391
-0.00789834
0.00290398
0.00830431
-0.0112083
-0.277242
-0.110271
0.387513
0.366071
-0.0883941
-0.277677
-0.00160968
-0.00983667
0.00385777
-0.05144
0.0475822
0.0847593
-0.141202
-0.245317
-0.0180772
0.263395
-0.0435766
0.0477673
-0.00419069
-0.00681187
0.0325104
-0.301135
-0.154364
0.455499
-0.39941
0.296801
-0.0391389
0.419098
-0.0119198
-0.187365
0.199284
-0.00200679
0.0189293
0.00973194
-0.00136946
-0.00836248
0.311488
-0.196238
-0.115249
-0.246978
0.0592998
0.187678
-0.0565027
0.0153899
0.0411128
-0.000631002
-0.00642779
0.00705879
-0.00579378
3.2404e-05
0.00576137
-0.116791
-0.184106
0.008637
0.175469
-0.0431614
0.108029
0.452417
-0.246444
-0.205973
-0.436869
0.146677
0.290192
0.0558553
0.289742
-0.345597
-0.0771434
0.155329
-0.0781854
0.0422517
-0.03276
-0.00949173
-0.0187928
-0.0366459
0.0554387
-0.00901383
0.0822511
0.170049
0.101951
-0.0982124
-0.00373838
-0.2774
0.271704
0.271944
0.202131
-0.474075
-0.00155003
0.010657
-0.00910699
-0.0219056
0.0399869
-0.0180813
-0.118531
-0.0202914
0.0365491
-0.0336035
-0.00294558
-0.0103028
-0.00340983
-0.0461698
0.0499491
0.0106488
-0.000916816
-0.112361
0.0411975
0.00951705
0.00420367
-0.0137207
-0.00114607
-0.000475077
0.00162115
0.0984109
-0.111463
0.00090476
-0.000439957
0.360859
-0.0852871
0.0555966
0.0244252
0.200542
-0.201311
0.275033
-0.0737213
-0.0254006
-0.0311021
-0.0873758
0.0250059
-0.141175
-0.111888
0.0708941
-0.0970401
0.0261461
-0.0122156
0.064483
-0.0522674
0.185643
-0.102026
-0.0836171
0.317698
-0.395399
0.158809
0.11
-0.268809
0.0344304
-0.056336
-0.00484165
-0.00331951
0.00816116
0.0147526
-0.0118486
-0.121232
0.394204
-0.272971
0.100754
-0.0298601
-0.00476403
0.00179037
0.00297366
-0.066821
0.228952
-0.162131
-0.0719492
-0.213818
-0.0774544
0.288095
0.0695849
-0.161899
0.0923136
-0.00415956
0.0385558
-0.0024595
0.0103609
-0.314827
0.437362
-0.00531852
0.0170841
-0.488322
0.268586
0.219736
-0.0140643
-0.00730842
-0.0964125
0.154199
-0.0140157
-0.22536
0.239376
-0.155599
0.0113714
0.144227
0.00815488
-0.00878588
0.323525
-0.111625
0.34811
-0.420952
0.072842
0.000678522
-0.00180157
-0.0146815
0.013312
-0.123323
0.0355544
0.0877686
0.0528473
0.0151446
-0.260462
-0.159516
-0.28367
0.342702
-0.389987
0.0472851
0.000535823
0.000703224
-0.00123905
-0.00514668
0.0635071
-0.0583604
-0.000969327
0.00129961
-0.000330279
0.168741
-0.0103366
-0.158405
-0.050697
0.0319042
-0.00476867
-0.0100489
0.0148176
-0.0781066
-0.0978578
0.0112441
0.0254108
-0.209517
0.00927497
0.000677353
-0.061259
-0.31798
0.379239
-0.0396993
0.0328874
-0.00876625
0.0161912
-0.00742495
0.0137369
0.0348628
-0.0485997
-0.0729739
-0.00154212
0.0200701
0.00715832
0.00280043
-0.00995875
-0.0342876
-0.268951
0.303238
-0.00249202
0.0348851
-0.032393
0.0163789
0.255582
-0.415095
-0.0462621
-0.00579378
0.00894129
-0.00575062
-0.00319067
0.430307
-0.258532
-0.412871
0.0948699
0.436858
-0.326906
-0.000120341
-0.0204301
-0.00231449
0.00870522
-0.00639072
-0.0742328
0.422343
0.100323
-0.0521784
-0.0481442
-0.136141
0.212285
0.196158
-0.277358
0.0811999
0.120495
-0.397737
-0.107384
-0.0130177
0.120401
0.103207
-0.00125627
0.193808
-0.0496131
-0.000934794
0.0318804
-0.292379
0.408983
-0.102306
-0.0302129
-0.00377578
-0.000419115
0.0959623
-0.0787275
-0.0172347
-0.00134099
0.000194925
0.00677032
0.00192748
-0.0086978
-0.0393381
-0.181562
0.2209
0.00318823
0.00150192
-0.0316004
0.0354582
-0.070484
0.175272
-0.104788
-0.00371019
-0.0259722
0.0296824
-0.106346
0.0927002
0.0136462
-0.196778
-0.0238751
-0.0859649
0.142559
-0.0565937
0.0109199
0.00347338
0.0927719
0.0824733
0.062088
-0.130083
0.201158
-0.230997
0.0298393
-0.174891
0.00621695
0.168675
-0.0015758
0.320784
-0.355071
-0.0257524
0.0332141
-0.00746177
-0.128148
0.0510047
-0.0191671
0.0863593
-0.0671922
0.108961
0.455646
-0.197142
-0.0485549
-0.232773
0.281328
0.00876794
-0.00804311
-0.000724834
-0.344402
-0.0765506
-0.168198
-0.320124
0.122268
-0.0381559
-0.0841125
0.292799
-0.396936
0.104137
-0.0690611
-0.0825109
0.0110411
0.098442
-0.274157
0.0852962
0.159592
-0.170641
0.0110494
-0.272447
-0.113653
-0.00109711
0.0167826
-0.00118711
0.000219677
0.0152888
-0.0187518
0.00346298
0.196856
0.00430226
0.00250704
0.000106229
-0.00261327
0.00552214
0.00512662
-0.0457411
0.0060418
-0.313324
0.241777
0.0715471
0.00797678
-0.0128184
-0.0325254
0.207336
-0.0073386
-0.00385972
-0.437977
0.174504
0.0627961
-0.0109359
-0.0518602
0.00716758
0.0636975
-0.0708651
0.00246468
-0.00184009
0.00464677
-0.0608763
0.0904246
-0.0295483
0.00992208
-0.0105116
-0.425992
0.0637081
-0.00255304
0.00299924
-0.000446202
0.153966
0.335753
0.0552324
-0.157771
0.102539
0.100832
-0.171316
0.322838
-0.181682
-0.141156
-0.531594
0.311273
0.220321
-0.00279245
-0.00210248
0.00489494
-0.0101494
0.127628
-0.117479
0.0930165
-0.227074
0.134058
0.0155836
-0.0209021
0.0161014
-0.0193212
0.00321985
0.029436
0.0581508
-0.0875868
-0.0151864
0.185798
-0.13469
-0.0511082
0.377981
-0.414626
-0.135413
0.352694
0.332266
-0.27641
0.254278
-0.125283
0.0225663
0.0196854
-0.00625156
-0.149347
-0.0354623
-0.0103396
0.0458019
0.000701763
-0.00471475
0.00401299
0.00238015
0.00158717
-0.00493279
0.00563455
0.0481412
-0.0539277
0.00578648
-0.175556
0.0401366
0.13542
-0.248016
-0.134564
-0.0491965
0.0563641
0.422464
-0.221626
-0.00584313
0.00179792
0.00404521
0.000397675
-0.0110433
0.0106457
-0.383099
0.101011
-0.102632
0.18621
-0.0835788
0.000279472
0.0162313
-0.0165108
-0.0103159
0.0169419
-0.00662601
0.0161033
0.0204458
0.165408
-0.00581596
-0.149352
-0.316059
0.107937
0.208122
0.0021225
0.0133467
-0.00300235
0.000449307
-0.00806936
0.0560127
-0.0479433
-0.116256
0.00990992
0.0754626
-0.0924554
0.00307884
-0.0952214
-0.0210349
-0.000598086
0.00572598
-0.00512789
-0.00154087
-0.0507089
0.0522498
-0.000516071
0.0486573
0.2558
-0.000427159
-0.000259379
0.0767833
-0.10361
0.121132
-0.131282
-0.000449063
0.0103711
0.405679
-0.132536
-0.273142
-0.13073
0.0446014
0.0861282
-0.0398892
0.0536261
0.178674
0.227005
0.0987388
-0.0879883
-0.0107506
0.00712112
-0.0587498
-0.0096953
0.00909721
-0.0161183
0.0121886
-0.0398623
0.116531
-0.0766689
0.182371
-0.00259771
-0.179773
-0.4183
-0.113294
0.00174055
-0.0453171
-0.0787351
0.0146734
0.0640618
-0.0567913
-0.118556
0.00639577
0.00225775
0.248175
-0.309755
0.0615798
0.0132524
-0.018021
-0.0104067
0.00630327
-0.180541
-0.0139321
0.194473
0.152325
-0.129344
-0.381284
-0.044417
0.425701
0.12242
-0.0201274
-0.102293
0.444261
-0.0662804
0.0227556
-0.00665425
0.0682721
0.0574914
-0.125764
0.00122332
0.00183256
0.0835871
0.415821
-0.237148
-0.108218
-0.207841
-0.0353515
0.0338107
-0.00134624
0.00256956
0.0377732
-0.122916
0.0169293
-0.0194214
0.018467
-0.135599
0.117132
0.0776505
-0.059589
-0.255545
-0.182431
-0.426084
-0.00658823
0.432672
0.0183023
0.0532287
-0.0715311
0.251816
-0.100505
0.040111
-0.078919
0.0388079
-0.0111566
0.0694851
-0.00275754
-0.0667275
0.0184279
-0.093225
0.176122
0.107273
-0.283395
0.00283927
0.000996198
-0.00383547
0.0305281
-0.00509601
-0.0254321
0.00041798
-0.0411762
0.0675837
0.188639
0.48013
-0.361651
-0.118479
-0.123595
0.216611
-0.44707
0.372202
0.0748684
-0.113178
0.0206425
0.0925357
0.0585088
0.163264
0.39554
-0.12127
-0.274269
0.0978782
0.000860637
0.217986
-0.131349
-0.0866375
0.000912286
-0.000376463
-0.0209279
-0.0640279
0.0849558
-0.105702
-0.226221
-0.300299
0.0136495
-0.00272959
-0.106682
0.321452
-0.222642
0.0421011
-0.0063138
0.000375523
0.0107672
0.0520289
-0.291949
0.203555
-0.064952
0.044024
-0.0162163
0.00590046
-0.367665
0.225344
0.142321
-0.297534
-0.139335
0.283595
-0.223116
0.0673011
-0.0378651
0.00143775
0.00102694
-0.413432
0.00734799
-0.0086214
0.00127341
0.374137
0.193211
0.00986617
-0.00594539
0.00145279
0.0200379
-0.0214907
0.000340713
-0.00106579
-0.000628127
0.00236007
0.170168
0.0122023
-0.00234431
-0.0206749
-0.0530889
-0.422856
-0.0549035
0.037938
-0.212988
-0.154677
-0.381069
0.392685
-0.011616
0.0988411
0.291036
-0.389877
0.176727
-0.293646
0.116919
0.0197749
-0.00527249
-0.0145024
-0.0666234
-0.197273
0.263897
0.0981202
-0.442522
-0.0584259
-0.256958
0.173276
0.222264
-0.0476081
-0.0261481
0.0737562
0.138941
-0.185922
0.0469812
-0.00123699
0.00939187
-0.288622
0.409117
-0.322523
-0.124548
0.276006
0.0256047
0.00492341
0.000302347
0.000243152
-0.00918545
-0.0316072
0.0162591
-0.384646
0.00357654
0.00264787
0.00638532
0.00255597
0.157723
-0.169643
0.305225
0.0427724
-0.347997
0.00841275
-0.00549898
-0.00291377
0.00485893
-0.00515992
0.1946
-0.182539
-0.012061
-0.03548
0.117199
-0.0817189
0.00213483
0.039079
-0.0412139
0.0593024
0.0750314
-0.278387
-0.0349374
0.158225
-0.0993624
-0.0588627
-0.155115
-0.0197769
0.0578594
0.100366
-0.0134839
-0.00444775
0.0179317
0.0131378
-0.011685
-0.0752826
-0.225016
0.300299
0.00481986
-0.00422448
-0.000595379
0.192429
0.223393
-0.00500067
0.0844563
-0.0794556
-0.0143356
0.135468
0.14738
-0.0906613
0.104006
-0.000729835
0.000590527
0.000139308
0.00846458
-0.0011166
0.0570209
0.00974916
-0.06677
0.466306
-0.130315
0.120186
0.267393
0.188252
-0.000622197
-0.490567
0.221616
0.0069126
0.150687
-0.157599
-0.22519
0.0704404
0.15475
-0.0991554
0.377655
-0.2785
0.0089219
0.0605632
-0.182967
-0.0260103
-0.232252
-0.0658397
0.298092
0.00501896
0.00950067
-0.0145196
-0.466002
0.38978
0.0762218
0.0063558
-0.0151221
-0.0678034
0.173954
0.0745483
0.00469148
-0.0792398
0.371052
-0.247927
-0.123125
0.101669
-0.0148787
0.0524162
-0.0761288
0.0237126
0.185444
0.00740667
-0.0800561
0.0959139
-0.0158578
-0.0280464
0.095208
-0.343224
0.0258929
0.120944
0.0771553
0.0479249
0.00787926
0.0289848
-0.0368641
0.346447
-0.0412217
0.0329897
-0.247084
0.100598
0.0990545
-0.199653
0.00359629
-0.0293487
-0.397658
0.278811
0.118847
0.125108
-0.018422
-0.106686
-0.0432776
-0.0699006
-0.0236761
0.162617
-0.276012
-0.130079
0.406091
-0.441139
0.0150549
0.457948
-0.0109834
-0.446965
0.0361576
0.0751742
-0.111332
-0.0903003
-0.0716055
0.0239974
-0.032668
-0.101527
0.134195
0.243028
-0.31831
0.200821
-0.196046
-0.00477482
-0.000212382
0.00271942
-0.264353
-0.0800608
0.344414
-0.0240738
0.202779
-0.178705
-0.150855
-0.198605
-0.291961
0.152637
-0.0619934
-0.0906439
0.105593
-0.0844396
-0.0211537
0.0176073
-0.0894167
0.0732899
0.163927
-0.24343
0.0795031
-0.0739892
0.250111
-0.0102961
0.0015102
0.00723014
-0.00045982
0.0148486
-0.0503109
-0.00155753
0.00185733
-0.0002998
-0.0580567
0.05291
0.0107108
0.122639
-0.411261
0.0666268
-0.169258
-0.00972211
0.00848512
-0.000310338
-0.000419498
-0.00117533
0.00632351
-0.341365
-0.124637
0.0794511
-0.0270349
0.105343
0.0047616
-4.5324e-05
-0.000449952
0.00340824
-0.00295829
-0.0870087
-0.245188
0.332197
-0.05937
0.0339694
-0.0810875
0.150672
0.00413109
0.00561561
-0.0097467
0.000151758
0.00160162
-0.00175338
0.0228954
-0.00760662
0.400532
-0.076948
0.0940012
-0.0170532
0.447073
-0.226815
-0.312758
0.232949
0.0798092
0.00928258
-0.00288681
0.299707
0.176484
0.202211
-0.250765
0.00143307
-0.00514881
-0.0020954
0.000625843
0.00146955
0.359311
-0.00482013
0.00202767
0.0188039
0.022689
-0.0414929
-0.330777
0.102693
-0.0188504
-0.0127567
-0.411055
0.135043
-0.00378503
0.0106264
-0.00684141
0.000217644
-0.00175986
0.00154221
-0.00528979
-0.00363173
-0.0011884
-0.0913487
0.0231741
0.0216635
0.00247095
-0.387046
0.265813
-0.166085
-0.0591057
0.0968321
-0.294469
0.197637
0.36592
-0.403314
0.0373933
-0.14375
0.32816
-0.18441
0.216124
-0.151668
0.00799832
-0.00578521
-0.00221311
-0.013573
-0.00331536
0.0168884
0.229409
0.0268511
-0.25626
0.00132437
-0.00260791
0.00128354
0.191108
-0.160178
-0.0309305
-0.107902
0.0164097
0.294128
0.0589707
-0.353098
-0.0810882
0.245015
-0.00139507
0.00423435
0.0020613
-0.00622775
-0.00411783
0.00366788
-0.00878984
-0.0383439
0.0471337
-0.399233
0.166981
-0.0115074
0.157075
-0.00240769
0.00168213
0.000725556
-0.0713297
0.212804
0.100168
-0.0130928
0.0826502
-0.0425392
0.00679531
-0.00456712
-0.00222819
0.00824493
-0.0248052
0.0165603
0.162786
0.0967314
-0.361085
-0.217597
0.0692967
0.346976
-0.44021
0.0932341
0.0791179
-0.098285
-0.00562525
0.0106442
-0.25085
-0.086038
0.0251616
-0.4426
0.101235
-0.0823233
-0.388443
0.374221
-0.256399
-0.117823
-0.0090074
0.000802137
0.00820527
-0.0835825
0.408718
-0.286079
-0.198612
0.305885
-0.00741513
-0.00215625
0.00957138
0.144626
-0.33683
-0.00256615
0.00271791
-0.00273285
-0.00162051
0.00435336
-0.122087
-0.20653
-0.0760957
0.094398
0.193923
0.00493572
0.00347703
-0.00404384
-0.00817581
-0.0074586
0.00243373
-0.00346128
0.0888717
-0.0854105
-0.143785
0.442663
-0.298878
-0.107409
0.125876
0.0147184
-0.000650601
-0.0140678
-0.232596
0.082332
-0.000497629
-4.78708e-05
0.00537869
0.00224073
-0.00761942
0.00571054
0.0427087
-0.201538
0.158829
0.165808
-0.106974
-0.0588338
-0.20222
0.0292538
0.172967
-0.174224
0.216932
0.0542393
-0.00453128
-0.049708
-0.00760562
0.00409262
0.0536667
0.0292285
-0.114565
0.0853368
0.22217
-0.118337
0.0337214
0.0846152
-0.124967
0.0198828
0.105084
-0.169063
0.22681
-0.0577468
-0.0656132
0.0719616
-0.00634838
-0.00360857
-0.00668752
-0.000828485
0.00600393
-0.00517544
-0.0107093
0.0168825
-0.12851
0.0127726
-0.0316231
-0.00135705
-0.000200484
-0.366329
-0.0369843
0.161503
-0.238152
0.0766494
0.454538
-0.417306
-0.0372315
0.0184018
0.0451053
0.0331094
-0.171492
0.138383
-0.0224738
0.106036
-0.138704
0.088596
-0.0708067
-0.0177893
0.130461
0.0754787
-0.20594
0.0819552
0.445096
-0.0751604
0.0246203
0.0505402
-0.00524499
0.014762
0.00221366
0.0242963
-0.0289987
0.00470244
0.000835348
0.00623211
-0.1386
-0.264261
0.276166
-0.171578
-0.000222873
-0.0701383
0.0366801
0.0334582
-0.357741
0.303624
-0.196396
0.223247
-0.000738999
0.000630383
0.000108616
0.0733005
0.0693948
0.104141
-0.00973766
0.175253
0.0605784
-0.26189
-0.000420383
-0.000766722
-0.00481293
0.00535961
-0.00054668
0.0393571
-0.0404542
-0.294933
0.207925
0.0140871
-0.00340042
-0.0106867
-0.179398
0.133967
-0.103957
0.0874803
0.0164769
-0.0022686
0.0170212
0.163593
-0.200323
0.113684
0.0389534
0.11796
-0.0818022
0.000596864
0.00117976
-0.00177662
0.00738743
-0.00782139
0.000433959
-0.0650096
-0.151842
0.216852
-0.000563858
-0.00047366
0.00103752
0.0533755
-0.0142201
-0.0391555
0.0899777
-0.0145151
0.14238
0.0432629
0.00826054
-0.00943587
0.084668
-0.12453
0.0101865
-0.00938726
-0.000799226
-0.411739
0.0619282
0.349811
-0.364118
0.0601654
-0.449723
0.177332
0.272391
-0.357451
0.280854
0.0765966
-0.170409
0.0690692
-0.122828
-0.0454165
-0.144147
-0.320615
0.0654795
0.322289
-0.0896577
0.00777767
-0.00762378
0.386625
-0.11105
-0.275575
0.151044
-0.0526334
0.000501291
-0.00531422
-0.00196595
0.000900164
-0.0202837
-0.0565326
0.0768162
0.275974
-0.0992472
0.29553
-0.108178
-0.266537
-0.1375
0.0689569
-0.480696
-0.00216748
-0.0984335
0.0104452
-0.0503
-0.0781797
-0.00583226
-0.000506978
0.00633924
-0.00371531
0.00393296
0.0309138
0.237234
-0.0317575
-0.107063
-0.0436973
-0.1618
0.205497
0.515435
-0.243491
-0.00189999
0.0675998
-0.236663
0.0781028
0.0384283
-0.128018
0.414146
-0.286127
-0.117169
-0.0595139
0.185563
-0.126049
-0.437351
0.293566
0.102743
-0.123987
0.0212437
0.0138262
-0.0927578
-0.154887
0.126293
0.027199
-0.00553548
-0.287883
-0.0695675
-0.254139
0.240123
-0.00381579
0.0608367
-0.193198
0.107013
-0.00708964
0.00498716
-0.00750763
-0.0901125
0.0976202
0.0671179
0.0839264
-0.0954067
0.0777317
-0.00268607
-0.00438139
-0.00110395
0.00155479
-0.236864
-0.0331277
0.269991
-0.0170913
0.0155412
-0.202122
0.101275
0.100847
0.00887669
-0.00474561
-0.151276
0.173707
-0.0224309
0.015832
-0.0163225
-0.00548065
0.00408557
-0.00306642
0.00189428
0.0185938
-0.0332911
-0.0210575
-0.135146
0.293955
-0.46027
0.159135
-0.0380242
0.256346
-0.218322
-0.0131768
0.0134562
0.115666
0.0653002
-0.00620302
0.00683494
-0.0109429
-0.0108842
0.0135907
-0.00270648
0.107112
-0.364925
0.257812
0.00260809
-0.00317195
-0.00917642
0.0095741
0.0702925
-0.435842
0.267776
-0.0655653
-0.127169
0.0412046
-0.246869
0.0886623
0.158207
0.0314393
-0.02356
-0.0714727
-0.121725
0.175403
-0.0237613
0.00449729
-0.276035
0.422712
0.00516281
-0.00513041
0.110143
0.107844
-0.225443
0.215226
-0.0119944
0.0838447
-0.0718503
-0.212543
0.0164969
-0.000673091
0.258322
-0.240849
-0.0174728
0.00345793
-0.345691
-0.0945183
-0.000215047
-0.00188035
0.330109
0.124429
0.0860045
0.198106
-0.284111
-0.00858321
0.00453937
-0.0367968
-0.0633055
0.100102
0.271007
-0.347884
0.144719
0.203165
-0.0187522
-0.02419
0.0429422
0.266185
0.314996
-0.430347
0.115351
0.00272944
-0.00173325
-0.17293
-0.0642134
0.237144
0.000547127
-0.00122575
0.000678621
0.0159816
0.0746117
-0.0905934
-0.361436
-0.0988342
0.00135928
-0.000221768
-0.00113751
-0.0115091
0.0144585
-0.00294939
-0.125433
0.0599971
0.0654358
-0.0328657
0.132958
-0.100093
-0.17562
0.254125
-0.00323997
0.168993
0.126536
-0.0669186
-0.063811
-0.131314
0.449817
0.0537639
-0.0790308
0.0252669
-0.200806
0.141292
0.0884
-0.325264
-0.113871
0.100557
0.0133147
0.199728
-0.000505804
0.00704122
-0.00653542
-0.00789774
0.00593132
0.00196642
0.00510368
-0.0174998
0.0123961
-0.0308667
-0.181676