/*--------------------------------*- C++ -*----------------------------------*\
| =========                 |                                                 |
| \\      /  F ield         | OpenFOAM: The Open Source CFD Toolbox           |
|  \\    /   O peration     | Version:  v2012                                 |
|   \\  /    A nd           | Website:  www.openfoam.com                      |
|    \\/     M anipulation  |                                                 |
\*---------------------------------------------------------------------------*/
FoamFile
{
    version     2.0;
    format      ascii;
    class       volVectorField;
    location    "350";
    object      U;
}
// * * * * * * * * * * * * * * * * * * * * * * * * * * * * * * * * * * * * * //

dimensions      [0 1 -1 0 0 0 0];


internalField   nonuniform List<vector> 
18166
(
(0.847478 -0.00571147 -2.48179e-20)
(1.00565 -0.00153875 2.17803e-22)
(0.999974 -0.000724203 1.02123e-20)
(1.15262 0.0123191 -2.33968e-20)
(0.0895919 -0.397692 -1.03371e-19)
(0.847251 -0.128094 -3.79844e-20)
(1.01369 -0.0110378 2.08991e-21)
(-0.113322 -0.006382 -3.3501e-21)
(0.0806022 0.0332588 5.18804e-20)
(0.161441 -0.166896 -4.19102e-20)
(0.999506 -0.0102682 0)
(0.99646 -0.0168846 0)
(-0.0893438 -0.0209634 -1.56899e-19)
(1.23218 -0.0136814 0)
(0.789772 0.0778292 -2.13782e-20)
(1.2334 -0.0107406 3.39898e-22)
(1.00075 -0.00563706 1.25961e-21)
(0.331981 -0.866528 2.50205e-21)
(0.992604 -0.0184938 2.36907e-21)
(0.0130948 0.0087554 5.90404e-20)
(1.21733 -0.0706395 9.25552e-20)
(1.00066 -0.00568615 -4.44552e-21)
(1.21297 -0.0671782 -7.80237e-20)
(0.996372 -0.00300073 1.96913e-21)
(1.0079 -0.0116635 4.18603e-23)
(1.01325 -0.0106739 -3.33922e-21)
(0.868163 -0.0349574 -2.92371e-20)
(1.08791 -0.0414903 2.17354e-20)
(0.989182 -0.0286372 7.32576e-21)
(1.15529 0.0133639 -2.47411e-20)
(0.0051747 -0.0900984 0)
(1.01778 -0.000897258 2.48247e-21)
(1.00156 -0.030668 2.7321e-21)
(0.997679 -0.0200679 0)
(1.02125 -0.000931718 0)
(1.00197 -0.00870503 1.4036e-22)
(0.103603 0.0348602 0)
(1.00181 -0.00846199 -1.18853e-22)
(1.02773 -0.0100663 0)
(0.177286 -0.19827 8.15389e-20)
(1.00006 -0.00069223 -2.08935e-21)
(1.17704 -0.149921 2.47565e-20)
(1.00113 -0.0316055 6.88055e-22)
(0.982947 -0.019498 0)
(0.846335 -0.0430693 -1.02501e-20)
(0.998401 -0.00262963 -9.49245e-21)
(1.10097 0.0484644 -2.36206e-20)
(0.00199371 -0.0708298 0)
(1.12011 0.0685378 1.2719e-20)
(0.87804 -0.0287668 2.67959e-20)
(1.09312 0.023441 1.55577e-20)
(1.10881 0.00540517 -2.2644e-20)
(1.21368 -0.0421647 -2.59292e-20)
(1.00016 -0.000658098 8.74741e-22)
(0.999647 -0.0100488 0)
(0.136649 0.0120101 4.19042e-21)
(1.1806 -0.155504 -7.50809e-20)
(-0.309255 -0.0118654 -8.94237e-20)
(0.991928 -0.0649374 -1.13434e-20)
(1.07418 -0.0363922 7.88611e-21)
(1.15476 -0.102723 0)
(1.07307 -0.00280153 -7.08574e-21)
(0.0966331 0.0117351 -5.56656e-20)
(1.08233 -0.0861054 0)
(1.22944 0.00111201 -8.30134e-23)
(0.99708 -0.00470977 0)
(0.0888202 0.023174 -9.70537e-21)
(0.486679 0.0607168 0)
(0.645583 -0.128035 -1.04332e-21)
(1.09077 -0.0138693 0)
(1.02103 -0.000937716 0)
(1.02541 -0.0459738 0)
(0.852557 -0.0478441 0)
(1.03312 -0.0733848 1.46083e-22)
(0.0335347 -0.317218 -6.5711e-20)
(0.367773 0.352583 6.5433e-20)
(1.2188 -0.0572961 1.17203e-20)
(0.488549 -0.0945646 0)
(1.0656 -0.0552223 0)
(1.00135 -0.00747042 -1.02828e-21)
(0.999996 -0.00138249 1.86378e-21)
(0.249724 0.0493296 1.92309e-20)
(0.996644 -0.00288402 -1.47263e-20)
(0.995245 -0.00519858 7.95151e-21)
(1.01741 -0.00184758 0)
(1.05235 0.00234704 0)
(1.0765 -0.03218 3.58124e-21)
(1.00575 -0.00635311 -6.27142e-24)
(1.10686 0.00823777 -1.07982e-20)
(1.02724 -0.00970499 2.84882e-21)
(-0.0957144 0.00351649 1.00907e-19)
(0.87976 -0.150974 -1.72696e-20)
(-0.263059 -0.0126059 0)
(1.00003 -0.000666399 0)
(1.0001 -0.000777088 2.19569e-21)
(1.05291 0.00308775 0)
(1.01773 -0.00149861 2.59532e-21)
(1.01492 -0.248037 -1.39076e-21)
(0.930833 -0.0161586 -1.22519e-20)
(1.0868 -0.0326918 1.63303e-20)
(1.00537 -0.00058454 2.57663e-22)
(0.999108 -0.00480665 -2.47985e-21)
(0.840674 0.0767317 -3.50173e-20)
(1.07973 -0.0876448 0)
(1.09025 -0.0126172 0)
(0.999181 -0.00446554 -4.77376e-21)
(0.107474 -0.232661 2.93111e-20)
(0.0941611 -0.00130586 -1.06858e-19)
(0.986762 -0.0761986 9.56621e-21)
(0.999913 -0.00847164 1.94871e-21)
(-0.271051 -0.0112587 -1.71696e-19)
(0.149124 0.0423027 0)
(0.266139 0.034799 0)
(0.845315 0.082022 3.72107e-20)
(1.00048 -0.0047506 2.37313e-21)
(1.03235 -0.00350785 -6.16695e-21)
(1.03288 -0.250461 0)
(0.0193689 0.032584 -3.32792e-20)
(0.97793 -0.0316065 3.00065e-21)
(0.629564 0.0792614 0)
(0.679531 0.810653 -3.13151e-21)
(0.988331 -0.0282415 -4.65832e-21)
(1.29714 -0.163385 7.61043e-20)
(0.698739 0.0417242 0)
(1.16131 0.0217302 -1.6498e-20)
(0.994978 -0.0154198 -4.27893e-21)
(0.99878 -0.00259458 -3.13691e-21)
(-0.160411 -0.0136911 9.55435e-20)
(0.953492 -0.106149 6.13999e-21)
(0.953622 -0.17914 1.53761e-20)
(1.15956 0.0300088 1.98338e-20)
(0.892885 -0.388067 2.53859e-20)
(1.06994 -0.0112289 3.64129e-22)
(0.273466 0.0491454 -1.37403e-20)
(0.944497 -0.0910201 1.77871e-20)
(1.09894 0.0482457 1.93498e-20)
(1.00165 -0.00849038 0)
(1.00832 -0.00939864 0)
(1.07092 -0.0106216 0)
(-0.0266556 -0.00990597 -2.61159e-20)
(0.0222805 0.0282397 0)
(1.23553 -5.94114e-05 -2.52435e-20)
(1.11831 0.0809242 0)
(0.224966 0.0491989 0)
(0.989293 -0.0759101 -1.18861e-20)
(1.06779 0.00334962 9.77099e-20)
(0.00417562 0.00397347 0)
(0.936865 0.0747995 0)
(1.03919 -0.00925485 3.31266e-21)
(1.07746 -0.0144035 -1.53287e-20)
(1.01761 -0.00130899 4.34392e-21)
(0.294046 0.0323639 -1.78384e-20)
(0.499335 -0.59673 9.40619e-21)
(1.16306 0.0202549 0)
(0.999877 -0.00100536 -2.13723e-21)
(1.00003 -0.00825233 1.98648e-22)
(1.00921 -0.0529506 0)
(0.0845668 0.00887218 4.13797e-20)
(1.0015 -0.00817761 -1.17073e-21)
(-0.149688 -0.0154188 8.70598e-20)
(1.01504 -0.00144116 0)
(0.416102 0.0551515 0)
(1.07168 -0.0399765 1.01824e-20)
(1.00991 -0.00128634 -1.57199e-21)
(1.10872 0.00745498 2.45252e-20)
(0.345832 -0.00627821 -3.08048e-20)
(0.998859 -0.00306293 -7.85154e-21)
(0.19529 0.0465108 1.5411e-20)
(0.267722 0.0502106 1.69014e-20)
(-0.247543 -0.0195335 1.85051e-19)
(1.19159 0.0181473 0)
(0.888158 0.0818318 -1.12553e-20)
(0.956274 -0.173935 -1.11906e-20)
(0.469874 0.0606615 0)
(1.22168 0.0241246 0)
(0.995479 -0.0206326 0)
(0.623984 0.386047 9.95049e-20)
(0.561451 0.0689598 3.96788e-20)
(1.00611 -0.00122115 0)
(1.00551 -0.00599555 0)
(1.00043 -0.00478671 -2.86693e-21)
(0.969797 -0.168894 9.43689e-21)
(0.547143 -0.0791078 -1.12705e-19)
(0.609444 0.361695 -2.9904e-20)
(1.13984 0.0521358 4.20705e-20)
(1.00806 -0.00506321 -6.84474e-22)
(1.05263 -0.206114 9.4633e-21)
(1.14806 0.0138098 2.3979e-20)
(1.00264 -0.00600926 0)
(1.03176 -0.00325924 3.40867e-21)
(1.15997 -0.100452 1.29511e-20)
(0.992199 -0.0191109 -2.7793e-21)
(1.09963 0.0132072 0)
(0.995521 -0.00498522 0)
(1.03724 -0.142415 0)
(-0.00359851 -0.0740864 0)
(0.855087 -0.122379 6.40708e-20)
(1.03218 -0.142667 -2.46849e-21)
(0.0182406 0.0309398 -1.24987e-20)
(0.120983 0.000788032 -1.90404e-19)
(1.19157 0.0159905 1.39971e-20)
(0.2715 0.028735 0)
(1.03688 -0.00488662 -5.41117e-21)
(0.956425 0.074048 -1.04326e-20)
(0.999065 -0.0380511 2.79517e-21)
(1.11071 0.00466493 2.3937e-20)
(0.292621 0.0521146 3.31655e-20)
(0.124697 0.0103095 -5.20964e-21)
(0.142274 -0.502902 1.27078e-19)
(-0.158618 -0.00516386 3.64226e-21)
(0.0954576 -0.366635 -6.36301e-20)
(0.0430874 0.0303602 3.17995e-20)
(1.00594 -0.00156175 0)
(0.997685 -0.00367694 -2.86993e-21)
(1.09853 0.0199379 8.16507e-23)
(0.88367 -0.143348 0)
(1.22971 0.0138526 5.85434e-20)
(1.02647 -0.244714 -2.79349e-21)
(0.306058 0.053455 -1.48648e-20)
(0.215588 0.0453153 -3.30958e-20)
(1.0691 -0.0315556 1.71306e-20)
(1.00268 -0.0167181 -2.44553e-21)
(1.00785 -0.00484482 5.96666e-22)
(0.777349 -0.0298863 -3.04264e-21)
(-0.244475 -0.0037432 0)
(1.01694 -0.0136108 1.53379e-21)
(1.00963 -0.241082 4.27531e-21)
(1.00811 -0.00144936 -3.23358e-22)
(0.982422 -0.0638907 0)
(1.03632 -0.00498649 1.09858e-20)
(-0.019038 0.00625126 -4.27001e-21)
(0.26156 0.0361855 1.86499e-20)
(1.05763 -0.00267612 4.07562e-21)
(-0.0348437 -0.0150768 1.94991e-20)
(1.00343 -0.000575783 3.17277e-22)
(1.05206 0.000819569 -1.1711e-20)
(1.09805 0.0185071 0)
(1.1436 -0.10487 -1.87658e-20)
(0.20274 0.0274057 -1.69721e-20)
(1.13758 -0.00445495 -1.74562e-20)
(1.09956 0.0146737 0)
(0.19177 0.0423748 0)
(0.0379093 0.0102425 0)
(1.07247 -0.035666 -1.76054e-20)
(0.934852 0.0809954 3.2361e-20)
(0.972743 -0.00552751 -1.59438e-20)
(1.15055 0.0144414 4.61349e-22)
(0.17953 0.0402714 0)
(0.315782 0.0490131 2.80912e-20)
(1.03818 -0.0505921 0)
(0.84035 -0.00400946 -1.81023e-20)
(0.998685 -0.00254226 8.73302e-21)
(1.00001 -0.0375812 -1.97395e-21)
(0.952777 -0.102526 1.10586e-20)
(0.28041 0.0296674 9.61322e-21)
(-0.194019 -0.00570883 1.24811e-19)
(1.00006 -0.0068048 0)
(0.236482 0.0450337 3.17408e-20)
(-0.218943 -0.0228568 -2.37538e-19)
(1.00958 -0.00142777 1.88552e-21)
(0.997376 -0.00417752 0)
(-0.031476 -0.0204842 -2.25244e-20)
(1.15362 -0.117793 6.69659e-20)
(1.11778 0.0687789 1.68347e-20)
(-0.102864 -0.0540033 0)
(0.336051 0.0438535 0)
(0.219983 0.0264206 -1.68098e-19)
(1.03136 -0.0743883 -1.02722e-21)
(1.00001 -0.00112259 0)
(1.08897 -0.0323982 -1.94062e-20)
(0.870806 -0.0287162 3.21126e-20)
(0.997737 -0.00343037 -1.85641e-23)
(1.0068 -0.00770373 3.04328e-23)
(0.597009 0.0709385 -1.53883e-20)
(1.10679 0.0102761 -7.93109e-21)
(0.211207 0.0146679 0)
(0.594959 0.0727103 0)
(1.00845 -0.00139564 3.52479e-22)
(0.398483 0.325647 0)
(1.01785 -0.00110879 8.43589e-23)
(1.11036 0.0401635 -8.94793e-21)
(0.107071 0.0265168 0)
(1.02911 -0.0726446 0)
(1.04333 0.00108683 1.92186e-21)
(1.06728 -0.0322216 -1.14963e-20)
(1.16309 -0.168409 0)
(1.07338 -0.00160984 0)
(1.04695 -0.0268223 0)
(0.128984 0.0379625 0)
(1.00035 -0.00441391 2.50077e-21)
(1.08739 -0.0437715 2.09988e-20)
(1.09827 0.0462745 2.3858e-20)
(1.04075 -0.073719 4.94076e-21)
(1.00017 -0.00689227 0)
(1.027 -0.0736829 0)
(-0.0066172 -0.0686248 0)
(1.01458 -0.0112008 -5.66675e-22)
(0.998037 -0.00319772 8.59871e-21)
(1.01658 -0.0133961 -1.51495e-21)
(0.984629 0.0809638 2.50194e-20)
(0.651799 0.0769474 -4.24111e-20)
(1.00122 -0.00752237 2.31097e-21)
(1.01535 -0.0448003 0)
(1.00699 -0.00759406 0)
(1.02893 0.0455468 0)
(1.00343 -0.0331179 0)
(0.13089 0.0120474 -4.82816e-21)
(1.153 0.0341926 -1.63964e-20)
(0.982441 -0.0205094 0)
(1.03204 -0.00210281 5.06726e-21)
(1.0687 -0.01348 -1.38781e-20)
(0.342378 -0.138214 -8.31728e-20)
(0.0276334 0.0117274 -1.8234e-20)
(0.913241 -0.0527385 -2.78874e-20)
(1.00033 -0.00443698 0)
(0.0641773 0.363817 5.19994e-22)
(0.669287 0.023972 2.13416e-22)
(1.04304 -0.0737474 2.26132e-21)
(0.997401 -0.00390991 -3.54494e-21)
(1.15779 0.0563988 -3.24047e-21)
(1.00407 -0.0173541 2.52969e-21)
(0.934166 -0.0166583 5.15447e-20)
(0.290165 0.0324453 0)
(1.14926 -0.1181 -5.45072e-20)
(0.94488 -0.155837 0)
(0.879807 -0.023391 -6.84385e-20)
(1.04777 -0.0263094 6.94456e-21)
(1.00294 -0.0323395 0)
(1.02529 -0.00607308 2.42904e-21)
(0.369533 0.0445223 -1.12156e-21)
(1.00851 -0.00964718 -2.02664e-22)
(0.24272 0.0476456 8.92406e-22)
(1.04379 0.00148291 0)
(1.0368 -0.00390944 0)
(0.511791 1.0324 8.94043e-20)
(0.123043 0.0361879 0)
(1.1826 0.028409 -5.3061e-20)
(0.257006 0.0472357 2.56339e-20)
(-0.0880919 0.00572772 -7.54812e-20)
(0.405209 0.0495451 0)
(1.03999 -0.00906078 -3.63117e-21)
(0.143144 0.0202798 0)
(1.15855 0.0550217 0)
(-0.0628119 0.0116027 -2.14715e-20)
(1.05097 0.000831778 1.10975e-20)
(0.999759 -0.00933855 4.62322e-21)
(1.01437 -0.012426 -1.92826e-21)
(0.908693 -0.0495023 1.5854e-20)
(1.02484 -0.0472085 -3.16194e-21)
(1.13822 -0.105901 9.31683e-21)
(0.991119 -0.0675237 1.00229e-20)
(1.09637 0.0461306 -1.12201e-20)
(0.9981 -0.00303763 -6.38425e-21)
(1.00732 -0.00456097 -6.59793e-22)
(0.698135 0.0550869 1.92712e-20)
(1.07595 -0.0303389 6.90624e-21)
(0.682945 0.0275844 0)
(1.10138 0.0104514 -1.78884e-20)
(0.999603 -0.00949035 0)
(1.02478 -0.00608551 -4.80582e-21)
(1.00521 -0.00596795 0)
(0.319255 0.0406588 -6.30234e-21)
(-0.0196866 0.0427198 -8.59793e-21)
(1.00021 -0.00653054 1.54335e-21)
(1.01279 -0.00976354 0)
(0.99368 -0.00672129 4.79306e-21)
(0.999931 -0.000468396 0)
(1.08274 -0.302489 -2.0691e-20)
(1.00005 -0.000561243 0)
(0.429459 -0.0100552 0)
(0.377641 -0.801841 6.53597e-21)
(1.00638 -0.00611271 0)
(1.00366 -0.017423 -1.70168e-21)
(1.19465 0.0511235 3.53403e-20)
(0.154744 0.0384127 0)
(0.657232 0.89646 1.92691e-20)
(-0.0593147 0.0126154 4.24379e-20)
(1.00003 -0.00174393 3.71621e-21)
(1.10141 0.0122737 1.8921e-20)
(1.18193 0.031028 8.80479e-20)
(1.03706 -0.00429005 7.19028e-22)
(-0.032171 -0.0121835 4.3875e-20)
(1.118 0.0797581 1.85623e-20)
(1.07736 -0.0134141 1.08789e-20)
(1.0398 -0.0664752 5.19666e-21)
(0.988193 -0.0126604 4.23961e-21)
(0.997104 -0.00440603 0)
(1.00002 -0.000147935 6.96416e-22)
(0.212811 0.0288934 0)
(0.988813 -0.0124648 -3.21161e-21)
(1.02077 -0.00113136 0)
(1.07797 -0.017904 4.16138e-21)
(1.02382 -0.00988269 -1.28126e-21)
(0.310515 0.0341325 0)
(1.15141 0.0545432 5.96112e-20)
(0.999964 -0.00192319 -3.03562e-21)
(0.998212 -0.00271182 6.33441e-21)
(-0.283158 -0.0134351 -4.37538e-20)
(1.01196 -0.0114037 0)
(1.01118 -0.0109133 0)
(1.02112 -0.0419846 1.17649e-21)
(1.21827 0.00340312 7.08851e-20)
(0.143965 0.0356265 -1.4272e-20)
(1.00005 -0.000795812 0)
(1.09043 0.056115 0)
(1.05189 -0.000977323 -5.97585e-21)
(1.03634 -0.00577586 -1.47381e-20)
(0.202649 0.012981 3.21762e-20)
(0.216631 0.0160971 0)
(0.982706 -0.0446839 3.40163e-21)
(1.09283 0.0389166 5.31405e-20)
(-0.141045 0.00246485 -1.79182e-19)
(0.938166 -0.177316 0)
(1.08236 0.0671025 4.68247e-20)
(1.06913 -0.0178872 6.86272e-21)
(1.08514 -0.0345478 2.72127e-21)
(1.15844 -0.172298 0)
(1.0111 -0.441483 -4.27804e-21)
(1.02007 -0.000266127 2.92702e-21)
(0.999035 -0.0069745 -6.70075e-21)
(1.04677 -0.0289881 1.55653e-22)
(0.995203 -0.0148604 0)
(0.321795 -0.029942 0)
(1.00911 -0.0781314 1.6367e-21)
(0.443366 -0.443651 3.04734e-20)
(0.99997 -0.000808424 -3.35797e-21)
(1.28538 -0.165296 0)
(0.997664 -0.020619 0)
(-0.0208648 0.0369019 8.29336e-21)
(-0.0786747 -0.00261272 -2.78104e-21)
(0.91432 -0.00511965 1.63601e-20)
(0.37987 0.0455834 7.02906e-20)
(0.945272 -0.164666 0)
(1.04758 -0.0282813 0)
(1.09201 0.0218838 -2.0674e-20)
(0.302741 0.0328147 0)
(0.984255 0.0771606 -5.18181e-20)
(1.00038 -0.000165623 -6.53056e-22)
(0.361264 -0.00891801 4.18817e-20)
(1.09743 0.000467666 0)
(1.02263 -0.00829792 0)
(0.737815 0.0380413 0)
(0.132218 0.0304583 -3.57159e-20)
(1.00237 -0.0169499 -3.41434e-21)
(0.413022 0.0543481 0)
(0.184368 0.0217275 3.55387e-20)
(0.999958 -0.0077319 -2.03329e-22)
(-0.146838 -0.0077942 -3.2065e-21)
(1.08495 -0.314247 -1.08935e-20)
(1.03573 -0.00590911 1.25995e-20)
(0.787849 -0.0293615 2.42667e-21)
(0.635059 0.0737523 -1.63066e-20)
(1.23029 0.0245588 -1.24024e-20)
(1.0948 0.0235392 -1.03228e-20)
(0.286666 0.0473276 3.74366e-20)
(0.085339 0.341013 1.55984e-20)
(1.15295 0.0567547 3.18263e-20)
(1.16015 -0.018885 2.60923e-20)
(1.02337 -0.00966646 3.47123e-21)
(-0.206503 -0.0128976 -7.60774e-20)
(0.993302 -0.018426 -4.5341e-21)
(0.997754 -0.0361668 0)
(0.353712 0.0475442 -9.17761e-20)
(1.10436 0.0645681 -1.80922e-20)
(1.00208 -0.0610023 5.02432e-21)
(0.982539 -0.0430005 -3.1287e-21)
(1.09586 0.00111966 1.77029e-21)
(1.06775 -0.0170652 -6.59691e-21)
(0.973521 -0.0063272 1.23518e-20)
(1.01485 -0.0126942 1.96023e-21)
(1.01713 -0.00170168 0)
(1.04251 -0.222495 7.83193e-21)
(-0.0202061 0.0193323 0)
(1.00499 -0.00561438 -1.09565e-22)
(1.10842 0.0403281 1.35383e-20)
(0.999955 -0.000370317 -2.02545e-21)
(0.0983676 0.0171224 -2.28646e-20)
(0.999118 -0.00672375 2.11001e-21)
(1.00327 -0.000388721 -3.89788e-22)
(1.12916 0.0781707 -1.35169e-20)
(0.81928 0.0680838 -2.82973e-20)
(0.992574 -0.235488 0)
(0.316497 0.0440021 0)
(1.00371 -0.0099374 0)
(1.00325 -0.0097549 8.18918e-22)
(0.212363 0.0469541 -3.6207e-20)
(0.886232 -0.161497 -1.04876e-19)
(1.14669 -0.108761 2.05405e-20)
(1.04856 -0.00425947 -1.08325e-20)
(0.617369 -0.355039 0)
(0.530944 -0.0659159 1.0196e-19)
(1.00015 -0.00330207 1.2559e-21)
(0.998852 -0.00287969 2.89906e-24)
(1.00001 -0.00200831 -5.42136e-21)
(1.03545 -0.0529303 1.11704e-21)
(0.383102 0.0467575 -1.63528e-20)
(0.219887 0.0471795 -1.04794e-20)
(0.99608 -0.0347152 2.50394e-21)
(1.0071 -0.056238 0)
(0.643407 0.121433 -9.33301e-22)
(-0.169691 -0.00499691 0)
(-0.165012 -0.00400143 -4.82505e-20)
(1.02098 -0.00113214 2.19293e-21)
(0.970154 -0.0482117 -3.15995e-21)
(0.618093 0.849891 -4.87145e-20)
(0.99812 -0.0371767 -2.83616e-21)
(0.998712 -0.002194 0)
(1.00089 -0.00753433 0)
(1.01802 -0.00811668 -2.78206e-21)
(1.15176 -0.0498922 0)
(0.482001 -0.276558 9.19265e-20)
(0.717069 -0.767068 0)
(1.02872 -0.454192 2.04151e-20)
(1.00148 -0.00779644 3.29453e-21)
(1.19519 0.00638507 2.25132e-20)
(1.00788 -0.0120119 8.79609e-23)
(1.00002 -0.000325769 -1.20199e-22)
(0.246677 0.0145159 6.53896e-20)
(0.959037 -0.756261 1.60335e-20)
(1.04503 -0.203173 5.7813e-21)
(0.591225 0.0705598 2.08185e-21)
(0.273228 0.0370459 -7.05602e-21)
(0.873787 0.0691017 4.76256e-20)
(0.195554 0.046332 2.69418e-21)
(1.22371 -0.0586863 -3.1169e-20)
(0.249172 0.0493179 -8.70086e-20)
(0.0478078 0.00906048 -2.74928e-20)
(1.10175 0.0500152 1.47419e-20)
(-0.0131172 0.00800639 3.16535e-20)
(0.99599 -0.0172433 1.77621e-21)
(0.684233 0.0500827 0)
(1.03933 -0.0495305 4.64137e-21)
(1.05438 0.000663124 -1.72169e-20)
(0.658516 0.10995 8.35174e-22)
(1.11 0.0809202 0)
(0.990669 -0.0631471 7.62397e-21)
(1.29393 -0.0953047 0)
(1.02206 0.0687018 1.09402e-20)
(1.10946 -0.000911141 -2.15073e-20)
(0.999881 -0.000890379 1.09579e-20)
(0.982122 -0.0111455 -8.25624e-23)
(0.934544 -0.735902 -7.64418e-21)
(0.16629 0.0394639 0)
(0.336953 0.0477762 -3.80197e-20)
(1.02206 -0.00235475 2.08371e-21)
(1.28497 -0.0917474 0)
(-0.0745873 -0.0235203 4.75355e-23)
(0.963775 -0.013627 0)
(1.05239 -0.00174021 1.26421e-20)
(0.993365 -0.00659053 -2.66754e-21)
(0.926595 -0.0278165 -1.73515e-20)
(0.763593 -0.316578 -5.50266e-20)
(-0.247106 -0.0113131 1.63081e-19)
(1.00016 -0.000622595 -8.47141e-22)
(0.327956 0.0547318 0)
(0.999027 -0.00587126 0)
(0.324944 0.0477768 -3.23542e-20)
(1.06733 -0.0562491 -7.07846e-21)
(1.01619 -0.0418687 -2.62737e-22)
(1.06967 -0.0709481 -1.04726e-20)
(-0.212137 -0.00550954 -1.18721e-19)
(1.03252 -0.00184603 -2.64187e-21)
(1.00247 -0.00524986 0)
(0.0198017 0.0214696 6.96765e-20)
(0.264097 0.0516839 9.43147e-21)
(1.17458 -0.167524 -5.2104e-20)
(0.883229 0.0766603 3.93154e-20)
(1.04801 -0.00484408 1.15064e-20)
(1.00108 -0.00714954 0)
(0.999267 -0.00148617 -1.29415e-21)
(-0.0140948 -0.0156671 -5.23824e-21)
(0.734517 -0.262428 1.04318e-20)
(-0.0188994 -0.0234623 0)
(1.08964 -0.061071 -1.7588e-20)
(0.672059 -0.806832 0)
(0.296774 0.0505004 -1.55588e-20)
(1.09902 0.0175027 -2.55331e-20)
(-0.234076 -0.00526508 -4.79044e-22)
(0.969479 -0.0467727 3.12341e-21)
(-0.231908 -0.00246815 1.49633e-20)
(1.01794 -0.00708505 0)
(0.531674 -0.0339208 0)
(0.303424 0.0496442 2.27129e-20)
(0.705997 -0.211683 1.09617e-19)
(1.07003 -0.0129958 1.43133e-20)
(0.393151 0.0482465 0)
(-0.259107 -0.00385383 1.54641e-19)
(1.00234 -0.00612999 0)
(0.634218 -0.162009 -8.26226e-20)
(0.992315 -0.0198823 3.6365e-22)
(1.00011 -0.000576389 -1.02475e-21)
(-0.137203 -0.00685254 -2.7564e-20)
(0.167083 0.0400092 0)
(0.999965 -0.00204442 6.30591e-21)
(1.00005 -0.00752437 0)
(1.01513 -0.00119938 -1.9946e-21)
(0.111282 -0.470951 -5.03985e-20)
(0.191835 0.0354332 5.6525e-20)
(1.00261 -0.00556185 0)
(1.19024 0.02899 -3.24795e-20)
(1.04062 -0.0685735 -7.19123e-21)
(1.04319 -0.000128349 0)
(1.00355 -0.00945429 -6.48577e-22)
(1.17334 -0.0861327 3.07797e-20)
(1.19494 0.00900644 -1.64341e-20)
(1.07366 -0.039733 -1.70572e-20)
(0.714998 -0.13219 -4.14432e-20)
(1.00029 -0.006616 -3.05782e-21)
(1.00752 -0.0048024 6.31353e-22)
(0.615521 0.0732072 0)
(-0.107745 -0.00943757 0)
(1.16255 0.0535295 -6.05282e-21)
(0.0378432 0.00728385 -7.18431e-21)
(0.166602 -0.100423 -4.82116e-20)
(0.970844 -0.0113453 -2.04693e-20)
(-0.0655116 -0.0223128 5.17508e-20)
(0.714554 -0.117838 -3.98211e-20)
(0.944519 -0.0483698 2.12105e-20)
(0.20152 -0.694136 -2.58033e-20)
(1.06853 -0.244861 0)
(1.06327 -0.0558228 0)
(1.08677 -0.14879 -1.05096e-20)
(0.305233 0.0329366 0)
(0.910367 -0.00423652 0)
(1.15804 -0.0214915 -2.5973e-20)
(1.03076 -0.0536902 8.57797e-22)
(1.08621 -0.0793307 -8.07804e-22)
(-0.109226 -0.0193105 -5.38073e-20)
(1.00234 -0.00597401 -1.22546e-21)
(0.532696 0.0657113 3.29106e-20)
(1.15521 -0.0516629 -1.29119e-20)
(0.909029 -0.234798 -2.1548e-20)
(0.965708 -0.175387 -1.16704e-20)
(1.02341 -0.00913159 0)
(1.05035 -0.00382352 -2.83535e-21)
(0.229467 0.0151367 1.68368e-20)
(1.00225 -0.00510785 -1.03979e-21)
(0.999097 -0.00562591 -2.17186e-21)
(1.15869 0.00888312 -2.91037e-20)
(1.02123 -0.00842429 -1.97856e-21)
(1.15238 -0.107618 -2.26214e-20)
(1.04373 0.000268748 -2.16967e-21)
(1.15729 0.0304014 9.45175e-21)
(0.979383 -0.0311737 5.27437e-21)
(1.09253 -0.0572702 -2.96125e-20)
(1.02463 -0.0065292 0)
(0.455227 -0.418277 -1.44507e-19)
(0.0250721 0.00764943 0)
(0.0822995 0.506953 -1.11338e-19)
(1.0322 -0.0529934 0)
(-0.066041 0.004483 0)
(0.20083 0.0455777 2.16067e-20)
(0.546557 -0.0230511 0)
(1.03649 -0.00216558 0)
(0.216141 0.0414152 -5.04307e-20)
(0.966212 -0.00499872 2.07978e-20)
(0.0870821 0.127202 -4.88652e-21)
(0.995787 -0.00518501 0)
(0.666068 -0.119851 -8.31722e-20)
(1.17541 0.0362631 0)
(-0.024576 0.0438089 1.59469e-20)
(-0.116739 -0.00966308 -4.89954e-20)
(1.25982 -0.00104278 -7.45987e-20)
(0.234975 0.0331188 1.51316e-20)
(1.02132 -0.000680497 -6.22555e-21)
(0.0857968 0.00769126 0)
(1.00563 -0.000682223 0)
(0.914358 -0.0687773 -8.55636e-21)
(0.947539 -0.0492451 0)
(0.98954 -0.0113061 6.69968e-21)
(1.00225 -0.000787575 0)
(0.11717 0.0182008 -1.08874e-20)
(1.1085 0.0366381 1.26339e-20)
(1.04645 -0.0322342 6.82142e-21)
(0.376 0.0580394 3.50525e-20)
(0.379664 -0.084465 0)
(0.787183 -0.136615 -1.90567e-20)
(1.02137 -0.000788686 3.77216e-21)
(0.952098 -0.0820488 1.93578e-20)
(1.00005 -0.00111382 0)
(1.01228 -0.0118294 7.04257e-22)
(1.01779 -0.00777807 0)
(0.994899 -0.0208832 2.99379e-21)
(0.476828 -0.309479 -8.2522e-20)
(1.06714 -0.0711618 7.7078e-21)
(0.788147 0.063827 -6.39519e-20)
(-0.109721 0.0121895 3.36472e-20)
(0.0958623 0.0115512 -1.38859e-20)
(-0.13586 0.00781701 -7.87632e-20)
(0.771714 -0.442312 -2.93946e-21)
(0.910786 0.00395202 -9.63424e-21)
(0.998954 -0.00237579 3.73936e-21)
(1.134 0.039755 -2.92863e-20)
(1.00851 -0.00914249 -2.75386e-22)
(0.123469 0.0168616 -4.72675e-20)
(0.269035 0.0249221 1.4155e-20)
(1.02208 -0.00820007 0)
(1.09077 -0.0920891 -1.02066e-21)
(0.339952 0.0398949 0)
(0.362703 0.0561832 -1.88994e-20)
(0.596795 0.0710201 -2.01444e-20)
(1.09486 -0.0565793 8.26208e-21)
(0.914445 0.00435811 0)
(1.02051 -0.0182124 -2.41742e-21)
(0.285976 0.0326574 1.8858e-20)
(0.0940327 0.00937724 0)
(1.00339 0.0630376 2.05178e-20)
(1.06165 -0.250525 1.04503e-20)
(1.24243 0.0202983 -7.55503e-20)
(-0.0675655 -0.00891544 0)
(1.05136 -0.246214 -1.30139e-20)
(0.149754 0.0188503 3.20459e-20)
(0.961423 -0.303739 1.20985e-21)
(0.796042 -0.446748 -1.53788e-20)
(1.00356 -0.0100875 8.05873e-22)
(-0.010958 0.00743044 -3.90234e-20)
(1.11171 0.0411857 4.75053e-21)
(1.10741 0.0348286 -3.852e-20)
(0.247719 0.0348801 0)
(1.01498 -0.017055 -1.29091e-21)
(1.11698 0.0533412 0)
(0.721069 -0.217201 0)
(1.01554 -0.0171036 1.56749e-21)
(1.14356 0.0613077 1.71108e-20)
(0.95749 0.078045 3.88369e-20)
(0.198892 0.0265078 -3.02318e-21)
(0.289614 0.0258849 8.63874e-20)
(0.865624 0.00824279 -2.14744e-20)
(1.08756 -0.0490664 0)
(1.00208 -0.000803663 0)
(0.63075 -0.335585 0)
(1.12242 -0.600221 2.58848e-20)
(0.945726 -0.0862787 -5.8669e-21)
(0.163084 0.0236039 -8.00055e-20)
(1.00319 -0.0226596 2.21856e-21)
(0.331547 0.0541029 2.8954e-20)
(0.189569 0.0449125 0)
(1.07487 -0.009999 1.74932e-21)
(0.984459 -0.0765011 0)
(0.999965 -0.000909155 0)
(0.884066 -0.12788 1.56448e-20)
(1.00009 -0.00126674 -6.41309e-22)
(0.489741 -0.0982297 8.58326e-20)
(1.12743 0.0435996 0)
(0.0698716 0.0244818 1.40158e-19)
(1.01411 -0.0108676 8.95538e-22)
(1.01567 -0.0164689 0)
(1.01997 -0.0183846 -2.33154e-21)
(0.763805 -0.230214 -4.67985e-20)
(0.0707318 0.0456113 8.74366e-20)
(0.853597 0.000492228 -1.94033e-20)
(0.453365 -0.113464 9.46167e-20)
(1.10453 0.0401707 0)
(1.19122 0.0291111 5.20844e-20)
(0.99608 -0.00494847 0)
(1.00086 -0.000446457 1.9744e-23)
(1.28958 -0.242752 -3.97833e-20)
(1.00156 -0.0628968 -2.25132e-21)
(1.14537 0.0710536 0)
(0.0496648 -0.407804 0)
(0.801041 -0.24543 9.25282e-22)
(1.23549 0.0130555 0)
(1.03876 -0.0307176 -1.85154e-21)
(0.0886045 0.0182439 -5.63353e-21)
(0.547384 0.067 2.18064e-21)
(0.624035 0.333198 -4.53978e-21)
(1.05729 -0.00189466 -1.24887e-20)
(1.012 -0.00149435 -2.44652e-23)
(1.04756 -0.0328354 -6.43666e-21)
(0.999391 -0.00440757 0)
(1.17691 0.0398414 5.08394e-20)
(0.990735 -0.0778773 0)
(1.02335 -0.0115812 7.59931e-21)
(1.14233 0.0627926 0)
(0.954889 -0.0331462 1.39133e-20)
(-0.0173279 -0.0200791 -1.55184e-20)
(1.03802 -0.398548 -2.76118e-20)
(0.937682 -0.169016 -1.78194e-20)
(1.00612 -0.00609972 -3.24039e-23)
(0.316924 0.035754 -1.29532e-21)
(1.03288 -0.00323858 9.97494e-21)
(1.07609 -0.0113421 -7.52502e-23)
(0.0890378 -0.00270249 -8.66659e-21)
(0.648502 -0.123123 0)
(1.00311 -0.00990783 0)
(1.03797 -0.414059 -1.92443e-21)
(0.340123 0.0527828 -7.18952e-21)
(1.02882 -0.0155547 -4.51488e-21)
(1.00078 -0.00716648 0)
(0.996944 -0.0170815 0)
(0.774894 -0.133538 -2.60252e-20)
(-0.0212589 0.0494638 -3.21359e-20)
(1.0025 -0.00565988 2.59174e-22)
(0.209387 0.011383 -3.86479e-20)
(1.00005 -0.00075199 0)
(-0.195745 -0.0153044 0)
(0.434072 -0.0516849 -1.17813e-19)
(-0.0193077 -0.0167007 0)
(-0.00568347 0.0363601 -1.38287e-20)
(0.998336 -0.243878 0)
(1.08951 -0.048112 1.42928e-20)
(0.372526 -0.132407 -4.86481e-20)
(1.00508 -0.00071987 -3.70834e-22)
(1.00808 0.0722144 3.78907e-20)
(1.02826 -0.0157438 0)
(1.00953 -0.00392538 -2.07194e-22)
(1.0226 -0.00298151 0)
(1.03819 -0.0188341 -1.28886e-20)
(0.313492 0.0427211 -3.60291e-21)
(1.02443 -0.0236022 -1.69335e-21)
(1.00213 -0.00480315 9.89515e-22)
(1.01444 -0.0436704 2.38588e-23)
(1.02371 -0.0113199 -2.87781e-21)
(0.999521 -0.604126 2.09747e-20)
(0.971758 -0.0517333 7.68491e-22)
(-0.234016 -0.00663356 6.70768e-20)
(1.0037 -0.00930587 6.39253e-22)
(0.999478 -0.00404345 4.0743e-21)
(1.00256 -0.00616755 0)
(0.533584 0.0656119 0)
(0.0183354 0.00396688 6.87134e-20)
(0.236043 0.192659 7.96011e-20)
(0.464317 -0.427002 -7.81702e-20)
(1.00927 -0.00400262 -2.41956e-22)
(0.256424 0.0346272 -2.73362e-20)
(0.156518 0.0383953 -1.04521e-20)
(1.03502 -0.0516158 1.56237e-21)
(1.00034 -0.0139959 -3.93846e-21)
(0.179361 0.0136701 0)
(0.115291 0.0206417 1.83351e-20)
(1.05985 -0.0578976 5.86998e-21)
(1.14157 0.0405511 1.44566e-20)
(0.700976 0.0775672 2.01491e-20)
(1.05042 -0.220337 0)
(1.03684 -0.00261895 -9.66349e-22)
(1.12081 0.0144685 2.23705e-21)
(1.08519 -0.0818724 1.96093e-21)
(1.11952 0.0160827 -1.851e-21)
(0.373846 0.0562904 3.38395e-21)
(0.324321 -0.0369146 -4.26078e-20)
(1.02529 -0.00533585 -2.86243e-23)
(0.12446 0.0117535 8.83482e-23)
(1.01618 -0.0165037 -1.39954e-21)
(1.30988 -0.114338 0)
(1.10532 0.0350611 -2.54651e-21)
(1.13543 -0.101526 0)
(0.988941 -0.0115566 3.71271e-21)
(0.0121804 0.00593482 0)
(0.222322 0.014295 2.37424e-20)
(1.05497 0.0705164 2.73537e-20)
(0.999151 -0.00146462 6.53579e-21)
(1.09556 0.0445105 2.15817e-20)
(1.02379 -0.00897037 0)
(0.0868545 0.00939103 2.98129e-20)
(1.00219 -0.00601717 -1.53716e-21)
(1.09118 0.0186995 1.41135e-20)
(1.05072 -0.0226687 -7.91979e-21)
(1.00837 -0.0113484 -7.51704e-23)
(0.79564 -0.25982 -1.09548e-21)
(1.00784 -0.0756797 -4.57018e-21)
(0.997737 -0.00623974 8.14381e-21)
(0.258325 0.107905 1.29249e-19)
(1.00126 -0.00562025 1.24638e-21)
(0.258783 0.0464751 -1.16719e-20)
(1.08654 -0.0399962 -2.79959e-20)
(1.20996 -0.432028 -5.87655e-20)
(0.99949 -0.0287841 7.69886e-21)
(1.14919 0.0544153 -6.23842e-20)
(0.954724 -0.303957 0)
(0.996498 -0.0359087 -2.67325e-21)
(-0.20044 -0.0131486 0)
(1.28084 -0.0813255 -5.4515e-20)
(0.658006 0.0744465 -4.94746e-21)
(0.99904 -0.00239668 0)
(0.928573 -0.0176086 0)
(1.21802 -0.0521119 -1.33036e-20)
(0.643419 0.0727303 6.55564e-21)
(1.00022 -0.0144631 4.48305e-21)
(1.00752 -0.0526554 8.18945e-22)
(1.06091 -0.00342312 9.46877e-21)
(0.510775 0.0634249 -4.48323e-20)
(1.02038 -0.00356168 -5.13051e-21)
(1.15505 -0.000332632 2.58361e-20)
(1.17732 0.0380005 3.18341e-20)
(0.972944 -0.0531447 2.90161e-21)
(1.02081 -0.00166623 0)
(1.00076 -0.000468638 4.3681e-23)
(1.00653 -0.00682916 -7.0979e-24)
(1.11655 -0.132825 2.54081e-20)
(1.02179 -0.00857897 4.12908e-21)
(0.973946 -0.571795 -1.44917e-20)
(1.10371 -0.0314135 -4.43461e-23)
(1.02485 -0.00522981 -2.14583e-23)
(1.02309 -0.0706344 4.34948e-21)
(-0.0595369 0.00681517 0)
(1.00485 -0.0176288 0)
(1.06286 -0.0424278 -1.14143e-20)
(1.01147 -0.0113387 -4.531e-22)
(1.00203 -0.0058574 1.42495e-21)
(1.15277 -0.0625482 -4.4038e-20)
(1.14611 0.056203 2.66782e-20)
(0.0650895 -0.489895 6.30267e-20)
(1.13161 0.0765078 -2.24665e-20)
(1.0566 -0.0103854 -7.90983e-21)
(1.03995 -0.0310228 5.56413e-21)
(-0.23298 -0.00550632 1.33484e-19)
(0.136014 -0.0968455 6.21153e-20)
(0.838607 0.0577667 9.01059e-20)
(-0.0521845 0.00402601 0)
(0.7122 -0.263732 -1.09229e-19)
(1.16175 0.0550673 -3.39388e-21)
(1.00354 -0.00885327 0)
(1.08681 -0.0906271 -1.42142e-20)
(-0.266621 -0.00753978 0)
(0.0188943 0.00810546 0)
(0.149837 0.0328708 -2.00757e-20)
(1.00114 -0.00537414 -1.72231e-21)
(0.965439 -0.303467 3.22868e-21)
(1.0539 -0.212416 0)
(-0.132183 -0.0190543 1.11745e-19)
(-0.0839673 0.0138712 3.3468e-20)
(0.998081 -0.0105971 -2.86343e-21)
(0.677618 0.117272 0)
(0.924012 -0.0253586 -1.70154e-20)
(0.0921199 0.212655 4.37973e-22)
(-0.0500322 0.00975291 0)
(0.12467 0.548445 1.43e-19)
(1.01322 -0.0101337 8.04138e-22)
(1.26 -0.010745 1.59047e-20)
(1.00002 -0.000180388 4.57506e-24)
(1.03675 -0.00125483 0)
(0.203105 0.0241633 7.66451e-20)
(0.999999 -1.5879e-05 0)
(1.05152 -0.00398545 -1.35539e-20)
(-0.106065 -0.0597607 9.43606e-20)
(-0.0437767 0.0122216 -1.55141e-20)
(1.00681 -0.00700973 0)
(0.100838 0.0148811 1.36338e-20)