/*--------------------------------*- C++ -*----------------------------------*\
| =========                 |                                                 |
| \\      /  F ield         | OpenFOAM: The Open Source CFD Toolbox           |
|  \\    /   O peration     | Version:  v2012                                 |
|   \\  /    A nd           | Website:  www.openfoam.com                      |
|    \\/     M anipulation  |                                                 |
\*---------------------------------------------------------------------------*/
FoamFile
{
    version     2.0;
    format      ascii;
    class       volScalarField;
    location    "350";
    object      k_0;
}
// * * * * * * * * * * * * * * * * * * * * * * * * * * * * * * * * * * * * * //

dimensions      [0 2 -2 0 0 0 0];


internalField   nonuniform List<scalar> 
18618
(
0.000147695
0.000200072
0.000146857
0.000148188
0.000147155
0.000150025
0.000198543
0.0224098
0.000195174
0.000179964
0.000147108
0.000147742
0.000146969
0.000147856
0.000146356
0.000150061
0.000147147
0.000147664
0.000144426
0.000242992
0.000146338
0.0629361
0.000144197
0.000147678
0.000196899
0.000196388
0.000173367
0.000253087
0.000166916
0.0001468
0.000149712
0.0001482
0.000167479
0.000146064
0.0001537
0.0284565
0.000145969
0.000201301
0.02662
0.000144243
0.0285454
0.0607456
0.0219783
0.00725552
0.000160429
0.000156454
0.0269382
0.000158516
0.000177268
0.00256436
0.000172695
0.000148713
0.000167254
0.000165007
0.00017735
0.000199292
0.000164849
0.000176787
0.0277789
0.000196834
0.0280387
0.00256148
0.000177039
0.000146595
0.000201082
0.000182841
0.000203536
0.000161024
0.000145006
0.0326276
0.000182
0.000144422
0.000148965
0.000228873
0.0117535
0.0319424
0.000148713
0.000147227
0.000145121
0.000182814
0.000154738
0.000146045
0.000148568
0.00015148
0.0636386
0.00014625
0.000201736
0.033344
0.00159185
0.0144269
0.000145911
0.0315743
0.000202299
0.000144642
0.0305426
0.00200423
0.00014958
0.000192766
0.000146504
0.0266447
0.00155738
0.0260787
0.000148161
0.000200143
0.000166924
0.000183682
0.000204768
0.00014575
9.40857e-05
0.000274325
0.0308748
0.000156001
0.0296269
0.00800969
0.000147485
0.000144332
0.000262185
0.000148202
0.000167746
0.0112386
0.00015159
0.000149861
0.000155557
0.000149286
0.000178022
0.000184819
0.000155794
0.000201513
0.000199552
0.000178649
0.0153145
0.000265283
0.000251176
0.000164473
0.000145959
0.000166419
0.000147271
0.0359177
0.0499279
0.000147217
0.0252806
0.000317998
0.00014515
0.000146081
0.000155675
0.000147491
0.000144186
0.000148534
0.000146336
0.000148811
0.000228723
0.000147301
0.000167696
0.000149781
0.000155197
0.0302343
0.00705894
0.000165562
0.000148334
0.0050835
0.00017774
0.000158465
0.011327
0.000216403
0.000147822
0.000156003
0.000151395
0.0621441
0.000147683
0.000193555
0.000149916
0.000166981
0.000184035
0.000190805
0.0204721
0.000148371
0.000188315
0.000149882
0.000147336
0.00016199
0.000221359
0.000153548
0.000841887
0.000148918
0.00014772
0.000159595
0.000220129
0.000174808
0.000199497
0.000147823
0.000147154
0.000157457
0.000155995
0.000147219
0.0001451
0.000205801
0.00014721
0.000149688
0.0190782
0.000161215
0.00018535
0.0460967
0.000224659
0.0163169
0.000187766
0.000152174
0.0296195
0.0265364
0.00014842
0.000144458
0.000197498
0.000194699
0.000151704
0.000144212
0.000148431
0.00014959
0.00346967
0.000195348
0.000151798
0.000148956
0.000148795
0.000155021
0.0379283
0.000149434
0.0335976
0.000147834
0.000149656
0.000184072
0.000196384
0.00016145
0.000152138
0.000162585
0.000145976
0.0257882
0.000161974
0.000148048
0.00014879
0.000191061
0.00022849
0.000151327
0.00019722
0.000148567
0.000147622
0.0245842
0.000176985
0.000172435
0.000205338
0.000148029
0.0353143
0.000148307
0.000144648
0.0614395
0.000158828
0.000242197
0.000168989
0.000156036
0.000191973
0.000147536
0.000143985
0.000149087
0.000147475
0.00290988
0.000200306
0.000152967
0.0624974
0.00020349
0.000194015
0.000158877
0.000183542
0.000156589
0.000183552
0.000147337
0.000150739
0.000147444
0.000149837
0.000155339
0.000166456
0.000149315
0.000148599
0.0371941
0.000146958
0.000178151
0.000147789
0.000150118
0.0306402
0.000148308
0.000146141
0.000162844
0.000177756
0.000184941
0.000145823
0.000177251
0.000148052
0.000168295
0.0382054
0.000192624
0.0362383
0.00128936
0.0125204
0.000147902
0.000159686
0.000146532
0.000168263
0.000151999
0.000147455
0.000148405
0.000147647
0.0189723
0.000184383
0.00247247
0.000208229
0.00014397
0.000176139
0.000149477
0.000148943
0.000147251
0.000150066
0.000164256
0.000174766
0.000279712
0.000144112
0.000214064
0.000148165
0.0502943
0.000149136
0.00020155
0.000221299
0.000147259
0.000150007
0.00797564
0.000164747
0.0445142
0.000147689
0.000148882
0.000166939
0.000147242
0.000209322
0.00015191
0.000151118
0.000119168
0.000177064
0.000176627
0.0536719
0.000179429
0.000147513
0.000177215
0.000154239
0.000184015
0.000177604
0.000144287
0.000147893
0.000145852
0.000422553
0.000148294
0.000147389
0.00014778
0.000148207
0.000177797
0.000149347
0.000150593
0.000145811
0.031105
0.0624941
0.000176662
0.0163695
0.063902
0.000147653
0.000148924
0.000178829
0.000192783
0.000145852
0.000148034
0.00015402
0.000161304
0.000144141
0.000147226
0.000182605
0.000151689
0.000146993
0.000176762
0.000179338
0.000149897
0.000146148
0.000149785
0.000165007
0.000145346
0.000174133
0.0189478
0.000147566
0.000178748
0.000150096
0.000147896
0.000228807
0.030763
0.000147914
0.000168754
0.0316804
7.01153e-06
0.000147921
0.0202012
0.000148058
0.000166468
0.000160232
0.0143104
0.000145432
0.000211733
0.000147366
0.000151752
0.000164356
0.000147513
0.000148546
0.000149955
0.000145474
0.000145726
0.000151211
0.000176641
0.000144052
0.000152224
0.00016594
0.000161645
0.000144467
0.0270207
0.000159566
0.000159912
0.000145314
0.0419914
0.000177221
0.000155552
0.000205213
0.0024514
0.000147923
0.00014748
0.00015608
0.000146697
0.000145683
0.000156787
0.000148764
0.000148435
0.000199101
0.000186516
0.000154543
0.000206912
0.000148416
0.000162325
0.0328234
0.000178148
0.000153651
0.0115214
0.000185588
0.0001478
0.000156092
0.000149619
0.000176896
0.000160111
0.000147517
0.000198504
0.000147532
0.000148481
0.000150029
0.0623989
0.0123265
0.000156289
0.000165601
0.000147692
0.000179753
0.000149484
0.000147477
0.000149958
0.000201736
0.000145384
0.000156283
0.000166034
0.000155254
0.000201996
0.000158601
0.000155382
0.0302127
0.000160141
0.000207788
0.000164082
0.000168336
0.000151286
0.00026423
0.000151863
0.00017378
0.000148355
0.000179378
0.000153693
0.000165182
0.000162435
0.000199635
0.0452317
0.000148343
0.000148979
0.0166292
0.000160036
0.000195667
0.0498349
0.000151173
0.000149168
0.000149902
0.000146073
0.000210544
0.000147728
0.000160832
0.000185012
0.000152186
0.000153913
0.000221385
0.00017497
0.0366274
0.000145718
0.000160131
0.000160431
0.000177629
0.000148613
0.000150643
0.000149042
0.000168765
0.0167487
0.000148464
0.000148597
0.000195381
0.000177544
0.000147453
0.000147941
0.0148584
0.0001482
0.010619
0.000148745
0.000209004
0.0139786
0.00015213
0.000155932
0.000178887
0.000149481
0.0262374
0.000149958
0.000145811
0.000148003
0.000171833
0.00015324
0.000177099
0.000162606
0.000147821
0.000148493
0.000209129
0.00024425
0.000144397
0.000147784
0.000147259
0.000183902
0.000173223
0.000146178
0.00019502
0.000145471
0.00636618
0.000147732
0.000174767
0.000178714
0.0473935
0.000151071
0.0121937
0.000153567
0.000147001
0.000182465
0.000229991
0.000147186
0.000184475
0.00014764
0.000147961
0.0354302
0.000148515
0.0421565
0.0397035
0.0191011
8.76207e-05
0.000172082
0.000227767
0.000145551
0.00016316
0.000154295
0.000166195
0.000148558
0.000148175
0.000145471
0.00014839
0.000145245
0.0175275
0.000167059
0.00014716
0.000145798
0.000148529
0.000145943
0.000150123
0.000163348
0.000200981
0.00282813
0.000180339
0.000146252
0.000147993
0.000202874
0.000163927
0.000148803
0.000147434
0.000165048
0.000148035
0.000149626
0.000147505
0.000159668
0.000243351
0.0300802
0.022136
0.000238366
0.0278334
0.000146207
0.000160422
0.00485779
0.000147748
0.000153615
0.00015051
0.000145219
0.000229616
0.000172559
0.000149544
0.000196848
0.00014815
0.00014766
0.00019575
0.000148238
0.000153829
0.000147245
0.0133537
0.000149417
0.000175208
0.000199059
0.000210894
0.000151557
0.0133838
0.000177931
0.000148561
0.000147155
0.00016522
0.000168693
0.000145342
0.00019959
0.000163006
0.000149235
0.000150462
0.000151672
0.0119689
0.000147867
0.00014543
0.00016847
0.000150212
0.000154626
0.000147194
0.000207049
0.000146236
0.000147051
0.0237152
0.000189883
0.000148392
0.000145916
0.000176055
0.000147674
0.000167373
0.000148355
0.000168322
0.000154067
0.0146063
0.00014996
0.000148957
0.000149253
0.000146187
0.000201464
0.0622308
0.000199296
0.0521587
0.000171892
0.0287196
0.000167071
0.000177661
0.00014841
0.000148661
0.0143718
0.000210612
0.000148543
0.000160173
0.000147604
0.000210662
0.000144778
0.000147044
0.000147219
0.000199096
0.000180045
0.000148814
0.000147699
0.000147645
0.000285452
0.000216946
0.000155601
0.000158816
0.00018627
0.000151041
0.000145117
0.000166474
0.0271475
0.000159038
0.000146212
0.000144002
0.000148636
0.000158594
0.000142689
0.0182147
0.000217709
0.000161995
0.000201645
0.000145837
0.000152605
0.000168134
0.000144048
0.0277551
0.0160208
0.0303608
0.000174663
0.000178844
0.000146401
0.000147212
0.000172001
0.00018218
0.0134078
0.00014771
0.000163068
0.00651455
0.000148048
7.37769e-05
0.0128404
0.000144784
0.000147302
0.000157635
0.000148904
0.000151784
0.0126451
0.0132696
0.0371678
0.000171703
0.000181285
0.000176407
0.0142485
0.000145933
0.00017256
0.000148017
0.000151549
0.0141249
0.000143972
0.000237392
0.000147671
0.000155694
0.000101401
0.000174361
0.000149438
0.000149472
0.000169316
0.000147625
0.000192392
0.00017585
0.000148289
0.000171945
0.0279144
0.00014813
0.00015544
0.000164654
0.000147469
0.000147958
0.000147724
0.0262515
0.000173658
0.000146214
0.000147832
0.000154281
0.0293136
0.000144009
0.000148046
0.00958262
0.000145841
0.000144718
0.000208896
0.0157722
0.000206217
0.000147514
0.000145183
0.000176889
0.000149112
0.000148993
0.0251356
0.000176633
0.000193133
0.000165265
0.000156091
0.000148712
0.000158771
0.000146476
0.000162054
0.000177255
0.000145772
0.0150356
0.000166364
0.000151358
0.0117547
0.000193129
0.000160324
0.000162637
0.00017526
0.000154399
0.000147119
0.000148528
0.0001452
0.00014959
0.000150917
0.000166649
0.000155619
0.000144937
0.0122773
0.000162949
0.0246882
0.000235306
0.000159465
0.000172348
0.00014875
0.000148193
0.000145956
0.00020774
0.00412607
0.000148785
0.000147212
0.0286119
0.000147938
0.000145937
0.000149331
0.00021319
0.000148713
0.000195363
0.000149311
0.000154586
0.0223361
0.000145152
0.000147948
0.000144446
0.000148343
0.0214785
0.000167985
0.0460658
0.000147817
0.0333185
0.023865
0.0634013
0.0167292
0.000160186
0.014488
0.000148174
0.000156363
0.000153339
0.000177424
0.000208224
0.00014917
0.000154468
0.000154366
0.000167074
0.000147554
0.000146513
0.0264126
0.000146235
0.000145737
0.000395484
0.000148114
0.000161234
0.0278131
0.000148154
0.000151821
0.000152108
0.000145972
0.000172216
0.000157773
0.000148675
0.00020707
0.0195796
0.000175869
0.000151648
0.0134156
0.0140244
0.000165306
0.000147247
0.000145132
0.000192936
0.000147922
0.000147096
0.000147586
0.000144922
0.000148188
0.000149907
0.000149032
0.000187504
0.000147592
0.00014939
0.000165864
0.000195777
0.000147255
0.000145947
0.000148304
0.000147237
0.000147445
0.00014907
0.000145871
0.00014582
0.0176722
0.000175493
0.000196538
0.000149081
0.000150071
0.00015953
0.000150842
0.000165628
0.000155035
0.0435808
0.0110436
0.0282818
0.000147952
0.00014721
0.000201532
0.000179031
0.000177187
0.000146295
0.000147253
0.00015479
0.000147789
0.000177292
0.0390067
0.000147345
0.000147474
0.03183
0.0308334
0.00017319
0.000184068
0.0470457
0.0250557
0.000148137
0.000160844
0.000174617
0.000171872
0.000190984
0.000148326
0.000148488
0.000179169
0.000164823
0.000146056
0.000148261
0.000148788
0.000148243
0.000153447
0.0626085
0.000164566
0.000145473
0.000155152
0.000148457
0.000147931
0.000148525
0.0130301
0.0144898
0.00014803
0.000150501
0.000210253
0.000151853
0.000146495
0.000145927
0.000146526
0.0130387
0.000148581
0.000161016
0.000149483
0.0335674
0.000147696
0.000147596
0.0629205
0.000162956
0.000191253
0.000146704
0.0146459
0.000149024
0.000147849
0.0528293
0.000146034
0.0430585
0.000147091
0.000207567
0.0452588
0.00017226
0.000183842
0.0287665
0.000184542
0.0178829
0.000149147
0.000148117
0.00014706
0.000163842
0.000147893
0.000169638
0.000149606
0.0633241
0.000177884
0.000151455
0.000145467
0.000154344
0.000148971
0.000149602
0.000147703
0.000148274
0.00015201
0.000152993
0.000145852
0.000147394
0.000206754
0.000148057
0.000177513
0.000145946
0.000193215
0.000146216
0.0221329
0.0001966
0.0111492
0.000177007
0.000146225
0.00021373
0.0626502
0.000158757
0.0305533
0.000147798
0.000225638
0.000180674
0.00014572
0.000176479
0.000148267
0.044503
0.000164624
0.000145566
0.000148229
0.000163337
0.000152917
0.000192973
0.000148865
0.000174331
0.000150771
0.000148869
0.0317647
0.000150993
0.000147611
0.000219799
0.000162493
0.000152425
0.050852
0.000157897
0.000146958
0.000175479
0.00014632
0.000143875
0.000181799
0.000151988
0.000145693
0.000158526
0.0001583
0.000177438
0.0639997
0.000148455
0.000214804
0.000144861
0.000148864
0.000149202
0.000150483
0.000151441
0.000197728
0.000214348
0.000162992
0.000148744
0.0129339
0.0133739
0.0630792
0.000146005
0.000148162
0.000156267
0.000147013
0.000149532
0.000153499
0.000150273
0.000154281
0.000144716
0.000147807
0.000148293
0.000148868
0.000159491
0.000147821
0.000146024
0.000182859
0.000112817
0.000187511
0.063969
0.000172459
0.00017711
0.000148781
0.0501606
0.000201248
0.000166982
0.000158719
0.00016254
0.0521154
0.000205015
0.000147695
0.000164457
0.0259583
0.0445141
0.000201417
0.000146698
0.000194437
0.000165085
0.000153474
0.000147555
0.000171879
0.000154401
0.000163149
0.000151517
0.000163089
0.020856
0.000205413
0.000147367
0.000144926
0.000149067
0.000147577
0.000192125
0.000149709
0.000176701
0.000148162
0.000151656
0.000146731
0.000148359
0.000146699
0.000199536
0.000160469
0.000176975
0.000147642
0.000147847
0.000172714
0.000174171
0.03876
0.000149345
0.000147319
0.0107175
0.000147211
0.000146875
0.000150707
0.000149194
0.05866
0.00014487
0.000173808
0.000195909
0.000147742
0.000178091
0.0136676
0.000147606
0.000148561
0.000161589
0.000146243
0.000171588
0.00014747
0.000203182
0.000164722
0.000147904
0.00014809
0.000181764
0.000148412
0.0231898
0.000231161
0.00014601
0.000184662
0.00016166
0.000177415
0.000216094
0.000148466
0.000169496
0.000173552
0.0131992
0.000147552
0.00015443
0.000151273
0.000151481
0.000146291
0.034245
0.000202582
0.000154354
0.0123914
0.00014991
0.000152959
0.00014702
0.000162541
0.000145708
0.000147626
0.000149398
0.000148516
0.000140782
0.000247062
0.000148512
0.000148139
0.000147953
0.0201533
0.000184065
0.000151951
0.000174354
0.000684239
0.000163321
0.000146661
0.000147588
0.00020059
0.000146726
0.000147986
0.000147852
0.000148774
0.000151535
0.000147821
0.000152958
0.000147868
0.00014805
0.000148175
0.000176029
0.000162679
0.000179213
0.000175197
0.000153295
0.00873919
0.000149275
0.000148457
0.010842
0.0161282
0.000166081
0.000148446
0.000146899
0.000146992
0.000149299
0.000147307
0.0510266
0.0195831
0.000146043
0.000149487
0.000164044
0.000147868
0.0121136
0.000175201
0.000147726
0.000161339
0.000166541
0.00104734
0.000147022
0.0338635
0.000166009
0.0130653
0.000159975
0.00019724
0.000166566
0.000144703
0.000149134
0.000145433
0.0133102
0.0408398
0.000152964
0.000147207
0.000144497
0.000192314
0.000194947
0.000152997
0.000146087
0.000147482
0.000156662
0.000166031
0.000188761
0.000147969
0.000206101
0.000147833
0.000243645
0.00015135
0.000166706
0.000145888
0.000146768
0.000255344
0.0163641
0.000172352
0.000151597
0.000148605
0.000152881
0.000179834
0.000147976
0.000147996
0.00015795
0.00014491
0.000148878
0.000149957
0.00014872
0.00016822
0.000167223
0.000150097
0.000177597
0.000189923
0.000153586
0.000158595
0.000149669
0.000145891
0.000146615
0.000158912
0.000153323
0.000145742
0.000158079
0.0200356
0.00016818
0.000151918
0.000196293
0.000162138
0.00016589
0.000145211
0.000145669
0.00025965
0.000166613
0.000145864
0.00019873
0.000155598
0.000194646
0.000150034
0.000147646
0.000180046
0.000147674
0.000173995
0.000178346
0.000194072
0.000232263
0.0259289
0.000191067
0.000168206
0.000148177
0.000158586
0.0001912
0.000149714
0.000148124
0.000148433
0.0150591
0.000146636
0.0411141
0.000165298
0.0347156
0.000148254
0.000173364
0.000154658
0.000148228
0.000146326
0.00016643
0.000150845
0.000148623
0.000162123
0.000194226
0.000256721
0.000193902
0.0155816
0.000193993
0.000150217
0.000172551
0.000150596
0.000144848
0.000205773
0.000147443
0.000184121
0.00017063
0.0534985
0.00907406
0.0131459
0.000167125
0.0391179
0.0404189
0.000218896
0.000154013
0.00015625
0.000148368
0.000149716
0.0488109
0.000273986
0.000157734
0.000185951
0.000152014
0.000153555
0.000147792
0.000177175
0.000203435
0.000152524
0.000209421
0.054843
0.000148755
0.026713
0.00014564
0.00197855
0.0117935
0.000145541
0.000146693
0.00016687
0.00014939
0.000147562
0.000146265
0.000159054
0.000149063
0.00014768
0.000144372
0.000202948
0.000153688
0.0141138
0.000169138
0.00015576
0.000177946
0.00018668
0.000184636
0.000147181
0.000146875
0.000162146
0.000166429
0.000178724
0.000156685
0.000148169
0.0163685
0.000194195
0.000151471
0.000148207
0.000145395
0.00014508
0.000153476
0.000155283
0.000143835
0.000149014
0.000176725
0.000185044
0.000245391
0.000146422
0.0322388
0.000146792
0.000153744
0.000151896
0.000172261
0.000149794
0.00014802
0.00014548
0.000154596
0.000160884
0.000223036
0.000177348
0.0482257
0.0151327
0.000146067
0.000161551
0.0470798
0.000145442
0.000185473
0.000197575
0.045531
0.000147624
0.0478417
0.0106374
0.00014767
0.0140243
0.000236605
0.000154388
0.000177482
0.000196735
0.000163129
0.00019123
0.000148341
0.000202399
0.000148862
0.00016328
0.000185711
0.000154692
0.000156386
0.000160226
0.000192088
0.00650471
0.000148411
0.0235929
0.000160899
0.0320842
0.0279021
0.0321218
0.000144998
0.000159373
0.000148523
0.00915679
0.000146575
0.000149399
0.000267831
0.0260758
0.000172654
0.00015945
0.000173251
0.000149116
0.000148299
0.000206601
0.000158474
0.0120243
0.000253791
0.000145814
0.000219476
0.000147587
0.000157468
0.000145583
0.000184749
0.000189954
0.00025166
0.000163526
0.000171855
0.000148221
0.000196153
0.0001698
0.000149806
0.000199065
0.000151743
0.0438395
0.000178413
0.000184612
0.00014873
0.000203209
0.000181293
0.0289379
0.0140598
0.000172076
0.00124182
0.000146974
0.000151562
0.000149754
0.000151553
0.000148158
0.000157481
0.00014682
0.000183659
0.00014722
0.000148847
0.000176628
0.0307418
0.000168584
0.000156683
0.000146992
0.0637063
0.000154906
0.000182545
0.00014881
0.000177573
0.0216192
0.000152799
0.000148449
0.000171455
0.000145501
0.000183813
0.0641562
0.0245193
0.000166126
0.000208458
0.000147858
0.000157418
0.00015944
0.000158032
0.000197672
0.000152742
0.000152389
0.000172113
0.000140158
0.000167369
0.000173717
0.00015597
0.000152568
0.0106602
0.000151739
0.000147816
0.000153203
0.000147677
0.0435515
0.00016296
0.000162731
0.00750343
0.000147207
0.0118583
0.000146557
0.000145799
0.000164344
0.000198466
0.0514528
0.000148033
0.000146433
0.000147784
0.000173707
0.000145488
0.000147698
0.000207922
0.0566009
0.0397859
0.0167738
0.000196055
0.000145292
0.0489275
0.000148019
0.000202066
0.000144599
0.000151939
0.000146867
0.000153702
0.000148902
0.000143909
0.000184824
0.000176793
0.0295278
0.000144838
0.000161575
0.000180146
0.00014741
0.00018354
0.0182986
0.000146957
0.000148614
0.000148852
0.000157134
0.000149002
0.000152447
0.000148795
0.00014561
0.000223767
0.000178607
0.00014737
0.000154631
0.000147774
0.000147652
0.000149691
0.000150405
0.000161291
0.000149332
0.00017446
0.000159042
0.000148149
0.0277946
0.000147425
0.00014915
0.000148599
0.000206592
0.000163899
0.000148629
0.000148676
0.000152238
0.000148303
0.0131056
0.000119086
0.00732406
0.0393416
0.000145274
0.00016569
0.000154121
0.00014761
0.000166868
0.000147948
0.000148638
0.0315923
0.000153491
0.00014827
0.0590535
0.0356174
0.000179985
0.000154539
0.000152734
0.00014834
0.00014566
0.000236815
0.000148665
0.00015142
0.000164984
0.000145261
0.000149852
0.033007
0.000163492
0.034125
0.000104487
0.000218548
0.00016165
0.000148565
0.000155523
0.000151423
0.000228591
0.000183389
0.0136651
0.000155788
0.000148958
0.0335843
0.00014981
0.000159069
0.00016837
0.000149869
0.000149827
0.000214043
0.0442892
0.00019085
0.00014583
0.0252157
0.000166785
0.000161885
0.000145235
0.000150045
0.000205479
0.000160262
0.000147363
0.000150668
0.000158061
0.000176893
0.000145403
0.000146464
0.000212121
0.000153631
0.000144853
0.000149899
0.000170834
0.023694
0.000205349
0.00265798
0.000153943
0.000203794
0.000248397
0.000146596
0.000148215
0.000146559
0.00014738
0.000174254
0.000148356
0.000144816
0.000148092
0.000148009
0.000147739
0.000146526
0.000162005
0.000148505
0.000146725
0.000149795
0.018743
0.000159033
0.0179637
0.000149989
0.000145997
0.000146587
0.000177568
0.0125713
0.000181608
0.000153692
0.0447505
0.000146004
0.000148242
0.000153881
0.000147371
0.000165601
0.000150436
0.000145645
0.000147066
0.00019404
0.000200697
0.0289871
0.000149664
0.000190973
0.000255695
0.000148565
0.000159156
0.000147094
0.000147286
0.000149856
0.000235073
0.00179453
8.17867e-05
0.000172437
0.000148226
0.000180913
0.000148196
0.000177301
0.000148439
0.000149216
0.000146927
0.00014935
0.0633476
0.000185356
0.0482884
0.000193027
0.00019445
0.000147834
0.0280806
0.000147888
0.0287197
0.000148526
0.000191952
0.0633485
0.000196437
0.000147506
0.0315674
0.00014831
0.000193244
0.000147587
0.00015222
0.000150934
0.000147877
0.000156124
0.00015677
0.000149376
0.000152987
0.000147789
0.000161139
0.000148351
0.000157677
0.000160417
0.000177132
0.0138081
0.000158909
0.000149707
0.000191085
0.000161416
0.000214425
0.000144565
0.0373917
0.000203829
0.00018599
0.0440854
0.000148177
0.000147191
0.000144298
0.000164679
0.029397
0.000148208
0.000152574
0.00015765
0.0347342
0.00469768
0.013255
0.000148346
0.000187714
0.000147813
0.000179527
0.0137051
0.000180818
0.000152344
0.000148478
0.000177213
0.000149847
0.000166688
0.000146753
0.000172118
0.000143677
0.000157406
0.000144546
0.0246366
0.000146553
0.000215963
0.0131499
0.000147697
0.0134063
0.000166229
0.0201178
0.000149751
0.000153635
0.000144364
0.000198735
0.00014872
0.000148793
0.0263528
0.0396433
0.000149959
0.000180941
0.000169772
0.000182036
0.0175804
0.00016388
0.000148425
0.000156184
0.000158577
0.000150823
0.000147156
0.000147359
0.000149812
0.000181439
0.000176001
0.0002029
0.000194783
0.000215867
0.000151311
0.000189857
0.000148528
0.000162393
0.000148862
0.000153046
0.000147289
0.000166265
0.0500714
0.00016535
0.000148298
0.000156917
0.000144251
0.000162276
0.00014866
0.000149155
0.000148531
0.000156421
0.000150194
0.000147652
0.000157067
0.000191878
0.000201417
0.000153695
0.000155298
0.0458986
0.000170431
0.000144899
0.0585161
0.000146707
0.000145195
0.00728176
0.000148878
0.00748751
0.000182798
0.000148899
0.000227343
0.000157189
0.000191179
0.000147958
0.000171785
0.000145359
0.000159097
0.000177702
0.000155967
0.000102804
0.000156767
0.000166471
0.000148338
0.000163103
0.000151073
0.000190616
0.000146992
0.000145837
0.000147066
0.041298
0.000148362
0.000146605
0.000148066
0.000146971
0.00017685
0.000155265
0.000181998
0.000163401
0.000147102
0.000147764
0.000242859
0.000203657
0.000147974
0.000195219
0.0001471
0.000148758
0.000211051
0.000144821
0.0485025
0.00019974
0.000148024
0.000145746
0.000148491
0.000162244
0.00285119
0.000153646
0.000173067
0.000185075
0.000161173
0.000148139
0.000188238
0.000175301
0.000148311
0.000169275
0.000164423
0.000166285
0.055002
0.000182643
0.000156403
0.000149053
0.000148875
0.000172359
0.000175893
0.000297242
0.000197355
0.00017765
0.000149259
0.000145587
0.0192253
0.000153548
0.00108864
0.0205563
0.000204083
0.0175716
0.000185952
0.000145633
0.000147905
0.000182397
0.000150191
0.000155974
0.000184076
0.000195536
0.000149387
0.0101558
0.000177797
0.000144755
0.000147791
0.000175982
0.0395727
0.000147121
0.000144989
0.000207306
0.0371656
0.00015007
0.0230623
0.0205144
0.000167866
0.000216667
0.000147814
0.000148312
0.0526337
0.000175423
0.000149005
0.000178156
0.00022143
0.000148294
0.000150557
0.000152072
0.000150518
0.00014834
0.000209004
0.000148213
0.00490555
0.000148893
0.0145129
0.00016265
0.0253046
0.000149152
0.000147449
0.000147215
0.000176002
0.00997267
0.000206236
0.000145877
0.000168078
0.00014577
0.000179379
0.00014461
0.000148416
0.0170353
0.000190476
0.0488854
0.00498323
0.000147194
0.000161755
0.000148248
0.000147977
0.000845759
0.00015537
0.000148284
0.00015204
0.000148335
0.000148896
0.000159325
0.000149071
0.0589529
0.00140883
0.000145173
0.000149552
0.000186726
0.000122222
0.0121315
0.000149238
0.000147198
0.0499972
0.000203945
0.000160481
0.000172463
0.000151068
0.0223569
0.000146655
0.000184808
0.000146316
0.000158908
0.00014799
0.000154032
0.000174912
0.000149356
0.000157862
0.00983381
0.000155159
0.0520408
0.000148854
0.000173582
0.003364
0.00014668
0.000147828
0.000146241
0.000180778
0.000146453
0.000145553
0.000146231
0.0458879
0.0170071
0.000170856
0.000148399
0.000148383
0.000148473
0.000165906
0.000144217
0.000154051
0.000149696
0.000147077
0.000155013
0.00015717
0.0586272
0.000166204
0.0324498
0.000178364
0.000148668
0.000179188
0.000147825
0.0526023
0.000192168
0.000148656
0.00290266
0.000158683
0.000149096
0.000149264
0.000148005
0.000146269
0.000148105
0.000148094
0.000188261
0.000147416
0.000144174
0.000148037
0.000185045
0.000153466
0.000202427
0.00014816
0.000165108
0.000191333
0.000177628
0.000163368
0.000147894
0.0129498
0.000147512
0.000189063
0.000168496
0.000173642
0.000147613
0.000192064
0.000148254
0.000149727
0.000148027
0.00017621
0.000217954
0.0441758
0.000158089
0.0325354
0.000145758
0.000148391
0.000147091
0.000168041
0.000199077
0.000163271
0.000161813
0.0526874
0.000198277
0.000172533
0.000148805
0.000146402
0.000147299
0.000146215
0.000182708
0.000147056
0.000149259
0.00016577
0.000161332
0.0366538
0.000191019
0.000155481
0.000209765
0.000151493
0.00019438
0.0394895
0.000165864
0.000154428
0.000239791
0.000144709
0.000147266
0.000213501
0.0238812
0.000145758
0.000151776
0.000166151
0.000147266
0.000204482
0.000148656
0.000175874
0.000159552
0.000159284
0.000146599
0.0273603
0.000172991
0.024686
0.000144986
0.000145136
0.000195769
0.000154
0.000148266
0.000145446
0.000145589
0.000179192
0.000209617
0.000151092
0.00014803
0.000185667
0.00336048
0.0470999
0.000159014
0.00237673
0.000195492
0.0276796
0.0197163
0.0485007
0.000146439
0.000145289
0.000189962
0.000148448
0.000171974
0.000174191
0.000147426
0.0169581
0.000178729
0.000146154
0.000151647
0.0311206
0.00840438
0.046734
0.00014849
0.0315252
0.0001549
0.000163136
0.000161651
0.00020484
0.000195315
0.000145788
0.000148012
0.000156119
0.00850783
0.00016231
0.000205397
0.00019938
0.00019013
0.000153755
0.000147178
0.000148147
0.000148895
0.000148458
0.000158962
0.000144203
0.00015651
0.000148184
0.000154145
0.000193075
0.000148141
0.000145812
0.00138562
0.000145865
0.000174588
0.000150144
0.0320712
0.000192592
0.000170117
0.000172628
0.000145245
0.000176671
0.000145767
0.0159456
0.000153241
0.000210635
0.000150741
0.000156522
0.000147044
0.000149058
0.000148122
0.000241579
0.000193367
0.000147798
0.000193554
0.0235803
0.000193182
0.000151513
0.0632427
0.000146371
0.0551092
0.000228734
0.00014902
0.000151826
0.0542389
0.000149864
0.0515853
0.000151176
0.0385156
0.000154353
0.000148551
0.000187922
0.000145715
0.000210911
0.000156123
0.000144321
0.00016567
0.000183645
0.000149959
0.000147591
0.000149925
0.000208644
0.000187307
0.000178472
0.0391067
0.000148859
0.000222189
0.000148396
0.000149738
0.000155476
0.000219396
0.0402245
0.000147607
0.000180772
0.000147186
0.00015623
0.000148912
0.000144938
0.000147525
0.0444014
0.000158087
0.000149045
0.000184232
0.000146493
0.000190496
0.000181687
0.0503432
0.000189576
0.000150856
0.000175817
0.000189375
0.000166084
0.000144377
0.000146038
0.000144709
0.000163226
0.000161404
0.000165549
0.000173376
0.00014774
0.000152366
0.000146168
0.0001464
0.000179402
0.000147835
0.000144731
0.000149802
0.000147048
0.000168896
0.000167388
0.0110994
0.000147924
0.0337843
0.000225117
0.0447971
0.0381953
0.000295619
0.000175649
0.000182076
0.0265788
0.000148025
0.000172081
0.000150758
0.000249181
0.000182996
0.000147622
0.000148123
0.0252537
0.000144837
0.000186056
0.000135534
0.000202725
0.000367733
0.000237358
0.000147159
0.000169413
0.000169102
0.000150114
0.000152727
0.000148075
0.000161871
0.000147643
0.000167288
0.000148222
0.000147987
0.000161926
0.000145282
0.000180637
0.00014638
0.000161332
0.0277701
0.000164927
0.000160837
0.000148397
0.0359792
0.00015421
0.000148829
0.000144112
0.000153961
0.000149018
0.000148053
0.000190729
0.000146297
0.000160963
0.000148101
0.00014674
0.000176139
0.00016595
0.000147905
0.000149454
0.0308176
0.000170427
0.000148526
0.000149381
0.000147684
0.000242668
0.0129961
0.000146374
0.00014696
0.000174723
0.0137077
0.000149334
0.000172965
0.000178365
0.000185143
0.00015157
0.000155625
0.000614175
0.000144889
0.000146358
0.000208291
0.000176165
0.012754
0.0539079
0.0130027
0.00898729
0.00027726
0.000146052
0.0643956
0.000147891
0.000147761
0.000154386
0.000149918
0.060736
0.000148458
0.000162822
0.0239498
0.000238087
0.000221885
0.000188632
0.000147627
0.000146151
0.010584
0.000145157
0.000210702
0.000155468
0.000149026
0.000148979
0.000148401
0.000152991
0.000147736
0.000145784
0.0001517
0.000149193
0.0542207
0.000144796
0.000161558
0.000176747
0.000163389
0.000147465
0.000149519
0.000167721
0.0107731
0.00014916
0.000150749
0.000170687
0.000180826
0.000192527
0.0432578
0.000166192
0.000145427
0.000148416
0.00016606
0.000149295
0.046629
0.000161755
0.00014793
0.000149066
0.000150414
0.000171913
0.000175338
0.000159352
0.000189794