/*--------------------------------*- C++ -*----------------------------------*\
| =========                 |                                                 |
| \\      /  F ield         | OpenFOAM: The Open Source CFD Toolbox           |
|  \\    /   O peration     | Version:  v2012                                 |
|   \\  /    A nd           | Website:  www.openfoam.com                      |
|    \\/     M anipulation  |                                                 |
\*---------------------------------------------------------------------------*/
FoamFile
{
    version     2.0;
    format      ascii;
    class       volScalarField;
    location    "350";
    object      nut;
}
// * * * * * * * * * * * * * * * * * * * * * * * * * * * * * * * * * * * * * //

dimensions      [0 2 -1 0 0 0 0];


internalField   nonuniform List<scalar> 
18618
(
0.00473558
0.000463405
0.00509837
0.0044043
0.0058365
0.00137184
0.000186985
0.00198105
0.000959049
0.00063599
0.00536962
0.00493514
0.00675768
0.00348934
0.0067177
0.00221106
0.00552596
0.0049131
0.00672419
0.000614093
0.00671791
0.00413367
0.00671286
0.00386135
0.000112008
0.000903323
0.000371199
4.42141e-05
9.39462e-05
0.00564217
0.00180522
0.0037442
0.00121674
0.00671546
0.000665121
0.00278298
0.00673762
0.000421739
0.00290237
0.00671295
0.00271356
0.00421472
0.00363001
0.0003882
0.00143639
0.000308778
0.00375776
0.000502274
0.000594205
0.000695132
0.000295591
0.00302013
0.00033204
0.000142585
0.000402868
0.00052789
0.000263814
0.00124988
0.00260718
0.000153423
0.00268357
0.000658648
0.000413933
0.00671492
0.000308697
0.00034158
0.000211231
0.00135207
0.00671563
0.00356685
0.00204547
0.00672337
0.00672323
0.000575314
0.000284125
0.00306185
0.00672306
0.00673041
0.00671496
0.000487728
0.00156482
0.00671544
0.00251327
0.00127653
0.00492006
0.00674349
0.000396544
0.00373033
0.000372876
0.00192864
0.00672701
0.00352904
0.000898662
0.00671481
0.00350748
0.000154463
0.00157847
0.00131898
0.00671979
0.00398898
0.000513173
0.00579839
0.00346101
0.000981165
0.000132885
0.000838458
0.00012738
0.00671256
6.78853e-05
0.000506817
0.00314281
0.00419345
0.00427239
5.93321e-05
0.00672754
0.00671332
0.000314377
0.00351064
0.000218836
0.000215272
0.000919525
0.00256194
0.0016579
0.00182259
0.000746705
0.000390733
0.0012359
0.000308351
0.000212125
0.0010951
0.00223273
0.000584527
0.000594498
0.000238922
0.00671891
0.00147361
0.00671766
0.0041507
0.00275355
0.00673698
0.00237271
0.000167927
0.00671468
0.00671387
0.00281551
0.00672721
0.00670922
0.00362816
0.0067167
0.00216617
0.000510709
0.0052466
0.00110485
0.00186663
0.00154983
0.0037506
0.00138484
0.000618997
0.00370587
0.000241476
0.000838455
0.00062148
0.00245668
0.000427552
0.00672903
0.000637523
0.00134152
0.00614318
0.00451679
0.00128344
0.00672615
0.00161217
0.000431645
0.00016487
0.00333453
0.00368291
4.69779e-05
0.00142894
0.00671862
0.00148672
0.000550866
0.000617535
0.000136875
0.00672295
0.00671888
0.000310611
0.000472099
5.94369e-05
0.00033197
0.00343478
0.00671741
0.000340609
0.000951259
0.00629331
0.00671439
0.000732153
0.00673603
0.00245306
0.00201665
0.00142338
0.000649576
0.00403678
0.000548218
0.00143598
4.42513e-05
0.00105371
0.00349104
0.00476007
0.00672072
0.00671541
0.000209022
0.000199234
0.00157804
0.00670917
0.00271254
0.00672539
0.00105586
0.000170105
0.000902626
0.00350279
0.00221127
0.00161554
0.005001
0.00672509
0.00368634
0.00638616
0.00363947
0.000357423
0.000230247
0.00136071
0.000849141
0.00110161
0.00671897
0.00243009
0.00133154
0.00671958
0.00672286
0.00138144
0.000520667
0.00458458
0.000513403
0.0035238
0.00671931
0.00362268
0.00108739
0.000650893
0.000557493
0.00671953
0.00397967
0.00430748
0.00671451
0.00423466
0.000378208
0.000562683
0.00109329
0.00115088
0.00134603
0.00671915
0.00671083
0.0033928
0.00672851
0.000749953
0.000228233
0.000574777
0.00392015
0.000428926
0.00125877
0.000319924
0.000454454
0.000491538
0.000323539
0.00671783
0.00207024
0.006728
0.00672587
0.000473638
0.00114461
0.00234917
0.00403261
0.00497005
0.00671624
0.00147316
0.00521069
0.00166694
0.00427099
0.00498222
0.00673672
0.000201366
0.000757731
0.0015619
0.00675222
0.000981499
0.00472135
0.00182151
0.00182364
0.000124958
0.0045939
0.000472537
0.00265426
0.00344133
0.000335088
0.00671482
0.000532649
0.00110585
0.006718
0.00672127
0.00531851
0.00325109
0.000452182
0.000652629
0.000739715
0.00671104
3.51482e-05
0.00672515
0.00672338
0.00434386
0.0019056
0.00175815
0.00118491
0.000302274
0.00670884
0.000607519
0.00672052
0.00474286
0.0067237
0.000387712
0.000496992
0.00487866
0.00539814
0.000568994
0.000403047
0.00206667
0.00398404
0.00672321
0.00129114
0.00671753
0.000161313
0.0015228
0.00432273
3.8567e-05
0.00113699
0.00046234
0.00300363
0.00025284
0.0067182
0.000582267
0.00109201
0.000460184
0.0013117
0.0067133
0.00672449
0.00675679
0.000373057
0.0067206
0.00672818
0.00672002
0.00672055
0.0012056
0.0024875
0.00201275
0.00671464
0.00418795
0.00484595
0.00105312
0.00220686
0.00506077
0.00671953
0.00672304
0.000651892
0.00130311
0.00672615
0.0049929
0.000563579
0.000921784
0.00670894
0.00673098
0.000331139
0.00199056
0.00671634
0.000353909
0.00024047
0.00672609
0.00673609
0.00553441
0.000169076
0.00671589
0.000379832
0.000857367
0.00671911
0.00166834
0.0012463
0.00672051
0.000516815
0.00307477
0.00672456
6.37901e-05
0.00353624
5.5978e-05
0.00671919
0.00350739
0.00520797
0.001442
0.0018593
0.0021356
0.00671585
0.000417791
0.00671792
0.00104507
0.00173265
0.0067269
0.00441856
0.0067263
0.00671583
0.0067543
0.00116166
0.00122711
0.00671073
0.00346
0.000467752
0.000979728
0.00671493
0.0026607
0.00185001
0.00139339
0.00671558
0.00207755
0.00149017
0.00333043
0.000244133
0.000685514
0.0067205
0.00671894
0.000356587
0.00671499
0.00672952
0.000417895
0.00672319
0.00227322
0.000347721
0.000711331
0.000577537
0.000270962
0.00300769
0.000618553
0.0045636
0.000925449
0.000580307
0.00111033
0.00134462
0.00671897
0.000602738
0.00672541
0.000672223
0.000404812
0.00671814
0.000298513
0.00672666
0.00327712
0.00166753
0.00609046
0.00200059
0.0022759
7.68937e-05
0.00671864
0.00027969
0.0019031
0.006718
0.00672631
0.000450385
0.00671698
0.00280841
0.000471375
0.00325943
0.000401572
0.00210825
0.00116922
0.00342509
0.00268043
0.000689086
0.000408451
7.14316e-05
0.00105096
0.000292317
0.00620654
7.80301e-05
0.00289582
0.000279503
0.00183251
0.000208918
0.00132616
0.00106008
0.00220676
0.00308574
0.00672353
0.00324495
0.00042536
0.000924653
0.00321787
0.00105992
0.00672385
0.0067261
0.00672111
0.000224685
0.00671873
0.00211931
0.000471446
0.00111893
0.000546287
0.000622275
6.91299e-05
0.00325941
0.00671507
0.00258444
0.00243643
0.00143577
0.00672164
0.00669843
0.00672369
0.00020332
0.00224442
0.00360786
0.00672155
0.000678678
0.000697894
0.00589484
0.00671926
0.00235437
0.00672296
0.000407548
0.00672194
0.000587786
0.00311236
0.00131654
0.000785379
0.00148531
0.00672457
0.00236149
0.0067263
0.00671542
0.00347858
0.00140954
0.000714399
0.000377482
0.000159803
0.00672081
0.00672124
0.000661559
0.000152174
0.00671581
0.00649299
0.00671781
0.00192598
7.14388e-05
0.00639952
0.000257065
0.00672107
5.93696e-05
0.00671878
0.00017522
0.00237038
0.00251734
0.00401204
0.00138902
0.000848007
0.00672224
0.000497989
0.000420898
0.00488846
0.000496129
0.00441105
0.00671896
0.00481173
0.0067229
0.00382751
0.00279625
0.00299553
0.000116993
0.000312579
0.000579178
0.00673103
0.000601485
0.00057605
0.000928773
0.00672142
0.00672469
0.00672959
0.00672091
0.00671548
0.00253352
7.76576e-05
0.0067168
0.00671487
0.00379672
0.00673763
0.002
0.000709572
0.000253853
0.000762111
0.000255434
0.0067149
0.00672053
0.00030479
0.000242351
0.00245513
0.00672895
0.0003652
0.00671932
0.00550558
0.00672074
0.000407113
0.000135271
0.00375911
0.00367437
0.000324766
0.00609607
0.00673437
0.00252134
0.00107823
0.00515914
0.00142758
0.00583522
0.0067153
0.000517952
0.000332634
0.0067248
0.00115803
0.00398295
0.00562036
0.000321866
0.00672303
0.000627275
0.00672266
0.00287102
0.00572648
4.94236e-05
0.00032034
0.000697456
0.00123816
0.00294364
0.00108663
0.00295103
0.005221
0.000206896
8.3015e-05
0.00671657
0.000794603
0.000115958
0.0015186
0.00254428
0.000856437
0.00125848
0.00672087
0.00672056
0.000249011
0.00474699
0.000744106
0.00671695
0.00064542
0.00671522
0.00671709
0.00200676
0.00143496
0.00672094
0.00671539
0.00120862
0.00531877
0.00118517
0.00672061
8.24937e-05
0.000694192
0.00227075
0.00672631
0.0067231
0.00200748
0.00671502
0.000527467
0.00604524
0.000386611
0.00285947
0.0015646
0.0027154
0.00127463
0.00133379
0.00672079
0.00672296
0.00269652
0.000540278
0.00672289
0.00189301
0.00672079
0.00070618
0.00671448
0.00671711
0.00672817
0.000629447
5.68097e-05
0.00182777
0.0067189
0.0067187
0.000195875
0.000553705
0.000995055
0.000348604
0.00046678
0.0050479
0.00671429
0.00116487
0.0040731
0.00119823
0.00671478
0.00671001
0.00241369
0.00190549
0.000406547
0.0020499
0.000639199
0.00134011
0.00048537
0.00672964
0.00682185
0.00109895
0.00671092
0.0032038
0.00311923
0.00437557
0.000689996
0.000169767
0.00676021
0.00672212
0.000693965
0.0021062
0.00140227
0.0067197
0.000574274
0.0012155
0.00376693
8.54498e-05
0.00144548
0.00671423
0.00671968
0.000540786
0.00672376
0.000797396
0.00280589
0.0027544
0.00449286
0.000116104
0.000287525
0.00114862
0.00151829
0.00672604
0.00122586
0.00672052
0.00129349
0.00114798
0.00670981
3.03653e-05
0.00457362
0.00239686
0.000168122
7.23353e-05
0.00379603
0.00672454
0.00139828
0.00493593
0.000331554
0.000126452
0.00344313
0.00114115
0.00305385
0.00671985
0.000531048
0.000456046
0.00671796
0.0058192
0.00583622
0.00270628
6.23848e-05
0.00671499
0.00671906
0.000923702
0.0031945
0.00671917
0.00529249
0.000291103
0.00671536
0.00671437
0.000756783
0.00215695
0.000820636
0.00671808
0.00671441
0.000546658
0.0022736
0.00672283
0.00389489
0.00130268
0.0012994
0.000360717
0.000582213
0.00254082
0.000459873
0.00673898
0.00109108
0.00138485
0.00672866
0.000778279
0.000744347
0.00232587
0.00130438
0.000853058
0.000519476
0.000150414
0.000804779
0.000726306
0.00671724
0.00501718
0.00671427
0.00179435
0.00550485
0.00139684
0.000537593
0.00672164
0.00194573
0.000392452
0.00390683
0.000284413
0.000500874
9.3448e-05
0.00672271
0.00672006
0.00674186
0.000583816
0.000952205
0.0038389
0.00514767
0.00333594
0.00672752
0.00672017
0.00237457
0.000618474
0.00263879
4.18882e-05
0.00122635
0.00085118
0.00365107
0.00671519
0.00672744
0.00671638
0.00672073
0.00330599
0.000308576
0.00579075
0.0067282
0.00376315
0.00377399
0.00488296
0.00189432
0.000656362
0.00254699
0.00496683
0.000373913
0.000666266
0.000587631
0.000762862
0.00194559
0.000869306
0.000954383
0.000232873
0.00672158
0.00661484
0.00342048
0.00671465
0.00671484
0.000476729
0.0032432
0.000200788
0.00679247
0.00352088
0.00111327
0.00103036
0.00672609
0.00100117
0.000580385
0.00672163
0.000429632
0.00275051
0.000204629
0.00344231
0.0019323
0.00297372
0.00169714
0.00571347
0.00673661
0.000132351
0.00658476
0.00671831
0.0046216
0.00672089
0.00581246
0.00672613
0.00672345
0.000258505
0.00671906
0.00679199
6.82966e-05
0.00119993
0.00488546
0.00671822
0.00672043
0.00612422
0.00671913
0.00232783
0.00674048
0.00672781
0.00258106
0.00131351
0.000316069
0.00672385
0.00495683
0.00211054
0.00403315
0.00208783
0.000578035
0.00327479
0.000375334
0.00415941
0.00672106
0.00594875
0.000436998
0.00123201
0.000575208
0.00671467
0.0058205
0.00306951
0.00673194
4.59289e-05
0.00500371
0.00672848
0.00671911
0.00447776
0.00323505
0.000478799
0.000684483
0.00466945
0.00272338
0.00672367
0.00134936
0.00142738
0.000504646
0.00134843
0.00370298
0.00316453
6.36219e-05
0.000406666
0.00673914
0.00672197
0.00411027
0.00672023
0.00244744
0.00486354
0.000654596
0.00672807
0.0027343
0.00422942
0.00632404
0.00668722
0.00271058
0.00228098
0.00361398
0.00384983
0.000729255
0.00122742
0.0067615
0.00671939
0.00674047
0.00157857
0.00525079
0.00166932
0.00179385
0.00402383
0.00542199
0.00502365
0.00488055
0.00175793
0.000138296
0.00675826
0.00142037
0.00672294
0.00672447
0.00634686
0.00672005
0.0054729
0.00671659
0.000801732
0.00232201
0.000932662
0.000364775
0.00273396
0.000698854
0.0029859
0.00672401
0.00672335
0.00671651
0.000169803
0.00671969
0.000307967
0.00283702
0.00516208
0.000677153
0.00102183
0.0067241
0.000732653
0.00672398
0.00672501
0.00495711
0.00672075
0.0043521
0.000772705
0.00672766
0.00671858
0.000383193
0.00677226
0.000860975
0.00672693
0.000992302
0.00673624
0.00250619
0.000991192
0.00219293
0.00100249
0.00673722
0.00068369
0.00510886
0.00057705
0.00326078
0.00671981
0.000539668
0.000276174
0.00671844
0.00109135
0.00311236
0.00392824
0.00235858
0.00672695
0.00672208
0.000298337
0.0020923
0.00103982
0.00672345
0.000139973
0.00384383
0.00672279
0.00341494
0.00129798
0.00419728
0.000614815
0.00043975
0.000991359
0.00268263
0.00028248
0.00671677
0.000116014
0.00671464
0.00670951
0.00213452
0.00139385
0.00671853
0.000414669
0.00176283
0.000925796
0.00521829
0.00672331
0.000659254
0.00671409
0.00672235
0.00200002
0.00275575
0.00316069
0.000456671
0.000219094
0.00151646
0.00672189
0.00141823
0.00326673
0.00525113
0.00671994
0.00672498
0.000524301
0.00662508
0.00672528
0.00647894
0.00264816
0.00141942
0.00671467
0.00633961
0.00373245
0.00672358
0.00124296
0.00605365
0.00672503
0.00154914
0.000305873
0.000353557
0.00443153
0.0012954
0.000898423
0.00672206
0.00467227
0.000278394
0.000733409
0.00180502
0.000147644
0.00530873
0.000418844
0.00671868
0.000614922
0.00233143
0.00557194
0.000275634
0.00672439
0.000625117
0.00182754
0.000656698
0.00672128
0.000449224
0.00101273
0.000603634
0.00378949
0.000570853
0.00322557
0.000232241
0.00661122
0.0067229
0.00672349
0.00672618
0.000279118
0.00211906
0.000569041
0.0033581
0.00250763
0.00672362
0.00677633
0.00671794
0.00038298
0.00168811
0.000420655
0.00560306
0.00672812
0.00136719
0.000388426
0.00466972
0.0067243
0.00647642
0.00244347
0.00672859
0.00671648
0.00224509
0.00672427
0.0051168
0.00672039
0.000369349
0.000578996
0.00378692
0.000629597
0.002635
0.00671853
0.00672135
0.000565891
0.0067426
0.000327499
0.00678053
0.000145201
0.00033882
0.00672104
0.00323405
0.000291533
0.00672093
0.00418387
3.99773e-05
0.00672429
0.0015963
0.000589395
0.00106591
7.42702e-05
0.00672136
0.000694137
0.000432661
0.00320055
0.00671836
0.00271377
0.00124943
0.00354099
0.00673661
0.00378726
0.000483785
0.00129421
0.00134446
0.00672613
0.00312306
0.0067218
0.00172098
0.00674921
0.00443566
0.00672427
0.00672115
0.00061135
0.000162716
0.00233012
0.00387646
0.00388358
0.00351671
0.00159997
0.0011288
0.00037191
0.000339516
0.000630989
0.00671521
0.00672111
0.000543672
0.00671798
0.00672699
0.0054973
0.00672269
0.00144024
0.00671898
0.00286818
0.00672794
0.00557005
0.00390632
0.00153034
0.000805707
0.00129495
0.000453644
0.00272939
0.00158442
0.00585514
0.00672095
0.00166032
0.00236204
0.00137605
0.00367718
0.00671664
0.00671637
0.00190019
0.0057561
0.0052506
0.00264961
0.00672097
0.00199637
0.000786616
0.00672327
0.00260912
7.11539e-05
0.00508321
0.00111871
0.00134646
0.000322401
0.00672127
0.00384486
8.20369e-05
0.00312202
0.000707434
0.000436597
0.000810888
0.00671841
0.00672497
0.00671703
0.00140812
0.00294427
0.000808329
0.0067176
0.00672983
0.00120161
0.000916136
0.000770586
0.00671364
0.00678123
0.000919732
0.00129339
0.0015145
0.00576804
0.000807649
0.00672469
0.000384122
0.00150779
0.0015867
0.00671462
0.00674217
0.000289316
0.00314832
0.000979875
0.00166726
0.00407734
0.00195117
0.00128134
0.00672695
0.0034082
0.00121913
0.00672206
0.00247092
0.00189163
0.00672245
8.83047e-05
0.00130493
0.00203343
0.000514972
0.000901765
0.000679635
0.00184821
0.00672526
0.00671542
0.00640378
0.00187364
0.000727853
0.00672892
0.000449828
0.00345423
0.000770268
0.0010231
0.000226829
0.000162018
0.00137794
0.00673876
0.00672997
0.000348258
0.00131133
0.0067294
0.000622953
0.000664359
0.000998572
0.00126485
0.00431671
0.000827589
0.00581295
5.65428e-05
0.00114473
0.00118433
0.000337917
0.00215135
0.00137165
0.00111082
0.00563106
0.00275793
0.000867355
0.00672543
0.0045684
0.00672131
0.00238017
0.00627806
0.00502564
0.0006676
0.00425231
0.00672063
0.000393397
0.000970665
0.00335119
0.00677033
0.001792
0.0010597
0.00355828
0.00158215
0.000236302
0.000276139
0.000327453
0.00210305
0.00125667
0.00384796
0.000978536
0.00223622
0.00671434
0.000448702
0.00671905
0.000518576
0.000179651
0.00389321
0.00214691
0.000813066
0.000136454
0.00474077
0.00499642
0.000369602
0.00222199
0.000558225
0.00516136
0.00672551
0.00373404
0.000353733
0.00091415
0.000139743
0.00107185
0.000816857
0.00671994
0.00099709
0.000879585
0.00134992
0.000725917
0.00643404
0.0067225
0.00270156
0.00672809
0.000622889
0.00128034
0.00672587
0.00672485
0.000118854
0.00191868
0.00672664
0.0067151
0.00224954
0.00496741
0.00473414
0.00670994
0.000883281
0.00189834
0.00214335
0.000304869
0.00053615
0.000850251
0.000836393
0.00068361
0.00671747
0.0066578
0.0012023
0.000429834
0.0011804
0.000883187
0.00397488
0.00251442
0.000818929
0.00332795
0.00672019
0.00672451
0.00672785
0.00251726
0.000707522
0.00671051
0.0022029
7.5665e-05
0.000723928
0.000473984
0.00676513
0.00349872
0.00671628
0.00237128
0.00128215
0.000576941
0.00672572
0.00672449
0.00672497
0.00141611
0.000216573
8.18791e-05
0.00148033
0.00245094
0.00230144
0.00671566
0.00177251
0.00323283
0.00672667
0.000705849
0.000596521
0.00323245
0.00672583
0.00594702
0.00214036
0.00472753
0.00213376
0.000341092
0.00361523
0.00175869
0.0006954
0.000777653
0.000701603
0.00672348
0.000472889
0.00258147
0.000704487
0.000793588
0.00332937
0.000598085
0.000512627
0.000659525
0.000897959
0.00672336
0.00258053
0.00198055
0.00349987
0.00260804
0.00861943
0.00672004
0.000379044
0.00672122
0.0020131
0.0067468
0.00184461
0.000393114
0.00237808
0.000874161
0.00119761
0.000252777
0.00480243
0.00672135
0.000252707
0.00276765
0.00123224
0.00068682
0.00672624
0.000267586
0.00671835
0.00233054
0.00672879
0.000491287
0.000283229
0.000132602
0.000134661
0.00161538
0.00366386
0.00117713
0.0002697
0.00672575
0.00108168
0.00116002
0.00554469
0.00102546
0.000194025
0.00672251
0.000345337
0.000300887
0.00310314
0.0023125
0.00113363
0.0004823
0.00671692
0.00140847
0.00227326
0.00376301
0.00563668
0.00410573
0.0067162
0.000378557
0.00582166
0.00672303
0.00053764
0.00306198
7.7931e-05
0.000296515
0.00671633
0.00492382
0.00104005
0.00144779
0.00296508
0.000733203
0.00354379
0.00381883
0.00672099
0.000117318
0.00672389
0.00107726
0.00407986
0.00380316
0.00133569
0.000705568
0.00672357
0.000391422
0.000381384
0.000408361
0.0011196
0.000668217
0.00203945
0.000382299
0.000559351
0.0015551
0.000790903
0.000558007
0.00287197
0.00183026
0.00363141
0.00416942
0.00068181
0.00672015
0.00296394
0.000153118
0.0001322
0.000387587
0.00673461
0.00248382
0.00674421
0.0067187
0.000276175
0.00103653
0.00433931
0.00601046
0.00671669
0.0047964
0.000478345
0.00673382
0.00671871
0.000185032
0.00454409
0.00488772
0.0020801
0.000965776
0.00671654
0.00483159
0.00672371
0.000458853
0.00671487
0.00101844
0.0057167
0.00155679
0.00672249
0.00670969
0.000281782
0.00123167
0.00353611
0.00671815
0.000399499
0.000573544
0.00634136
0.0019626
0.0030278
0.00671623
0.00305475
0.00672231
0.000295163
0.00239759
0.00362364
0.00672324
0.00674585
0.000556419
0.000296413
0.00588212
0.00116023
0.00462716
0.00558118
0.00672536
0.00148869
0.00017719
0.00198855
0.000466299
0.00200319
0.00610265
0.00407202
0.00585203
0.00672338
0.00285771
0.000799581
0.000109455
0.00672153
0.00672169
0.00253061
0.00672075
0.00144035
0.000339279
0.000361877
0.00483045
0.00671411
0.00012811
0.000712732
0.00672634
8.72336e-05
0.00526693
0.00318009
0.00440859
0.000677661
0.00672129
0.00532764
0.00476704
0.00153221
0.000752067
0.000794418
0.00672194
0.0067151
0.000170234
0.00401063
0.00149896
8.38573e-05
0.00671432
0.00672592
0.00364637
0.000480659
0.00420687
0.000180018
0.000497729
0.000169914
0.00672137
0.000385503
0.00109796
0.000439907
0.00196737
0.000821985
0.000437087
0.00672275
0.00401387
0.00672578
0.000479585
0.000231884
0.00672598
0.00672584
0.00024374
0.00555812
0.00022529
0.00675304
0.00408955
8.30857e-05
0.000967231
0.00671692
0.00183542
0.000684802
0.000665475
0.00671853
0.000926098
0.000560973
0.000607326
0.00673226
0.00674138
0.000546842
0.00223964
0.00671956
0.00672609
0.000287726
0.00466957
2.33538e-05
0.00069526
0.00157267
0.000858759
0.000394891
0.00673185
0.00333394
0.0067153
0.00672903
0.00073818
0.00672386
0.00671372
0.00342633
0.00672189
0.00671967
0.00605805
0.000551379
0.00269819
0.0067243
0.00672575
0.00253524
0.00174189
0.0010625
0.00228439
0.0067191
0.00671535
0.00136403
0.00253071
0.00213123
0.00174833
0.00564943
0.00654155
0.00672029
0.00223718
0.00671753
9.82701e-05
0.00377655
0.00671534
0.00671659
0.000245701
0.000967947
0.00274991
0.00672524
0.00032163
0.000182342
0.00672131
0.000982757
0.00672494
0.00671781
0.00672594
0.000278261
0.000557495
0.000145503
4.97484e-05
0.00309418
0.000402093
0.00339507
0.000715593
0.00406549
0.00207939
0.00570857
0.00672416
0.00516657
0.000476807
0.00600297
0.000185948
0.000429261
0.00671949
0.00271302
0.00672366
0.0012436
0.00672123
0.000698592
0.00516168
0.00110293
0.00672205
0.00342543
0.00672068
0.000573173
0.00671818
0.00112177
0.00100028
0.00672401
0.000452326
0.00115146
0.00672505
0.00510437
0.00672059
0.000698462
0.00672363
0.00416808
0.000387052
0.00121456
0.00326186
0.000332343
0.0067254
0.00123076
0.000174763
0.00020895
0.0067191
0.00332041
0.000850283
0.000472789
0.00547691
0.00546257
0.00671696
0.00671628
0.00164288
0.00310826
0.00401166
0.000983712
0.000704415
0.00155628
0.00095798
0.00146409
0.00672061
0.00158616
0.00672049
0.00121648
0.0027914
0.000137093
0.000937868
0.00672323
0.000830488
0.0067259
6.02407e-05
0.00671516
0.00170529
0.00671025
0.00479372
0.00671932
0.00307981
0.00672949
0.000474149
0.00250909
0.00465718
0.00146235
0.000100567
0.000754454
0.00156316
0.000789518
0.00671038
0.000428892
0.003686
0.00672302
0.00514413
0.00179623
0.00672631
0.00028424
0.000810743
0.000489319
0.00260399
0.000158416
0.003976
0.000527825
0.00141984
0.00293151
0.00671683
0.00672667
0.00672577
0.00151022
4.68348e-05
0.000641546
0.000276889
9.1507e-05
0.000940415
0.00123658
0.00672326
0.00169102
0.00215022
0.000629728
0.00672188
0.00116131
0.00598081
0.000847584
0.00672176
0.000331569
0.00671575
0.000344596
0.00297156
0.00672413
0.00672124
0.000132023
0.00201136
0.00672087
0.000410632
0.00133837
0.000590446
0.000707477
0.00101939
0.00576975
0.000771849
0.00671606
0.00373696
0.00671521
0.0067166
0.00103577
0.00325131
0.00142123
0.00012943
0.00672361
0.000289377
0.000666582
0.000460244
0.00317935
0.0009733
0.00672469
0.000675734
0.000867993
0.000534493
8.46801e-05
0.000243408
0.000124836
0.00473903
0.000388252
0.00102577
0.000648087
0.00675922
0.0067155
0.00672461
0.00464169
0.00672146
0.00673131
0.00488204
0.00671809
8.92261e-05
0.000911093
0.000469028
0.000293236
0.00672571
0.00509201
0.000144789
0.000418589
0.00411083
0.000900158
0.00671662
0.00473233
0.000756582
0.00673325
0.00603016
0.000364132
0.00671999
0.00675188
0.00482463
0.00161581
0.00035346
0.000107094
0.000435907
2.96447e-05
0.00136547
0.00671999
0.000136071
0.000615099
0.00672145
0.000283399
0.00175155
0.000239017
0.00307595
0.000472134
0.00117259
0.00254658
0.0023792
0.000444123
0.00128253
0.000109702
0.00107537
0.00023318
0.00178042
0.00672948
0.0033317
0.00275862
0.000269867
0.00194488
0.000858677
0.00102747
0.000508636
0.00671811
0.00672306
0.000131456
0.00162183
0.00129238
8.17123e-05
0.00121485
0.0067243
0.00236772
0.000380002
0.00671908
0.00671891
0.000751388
0.00505217
0.00554037
0.00671944
0.000804473
0.00341728
0.0028377
0.00354667
0.00216961
0.000632973
0.000408511
0.00673017
0.00672049
0.00433012
0.00131828
0.00223561
0.000809169
0.000545581
0.00672063
0.00141608
0.00305838
0.00107765
0.00356099
0.000644303
0.00371747
0.00102718
0.00672246
0.00131425
0.00171148
0.00283362
0.0017478
0.00671876
0.00676207
0.000659654
0.00162362
0.000395274
0.00671438
0.000457471
0.00673091
0.000972254
0.00671388
0.00672083
0.00297053
0.00107274
0.00478985
0.00109454
0.00423694
0.000130813
0.00672182
0.00672305
0.000361948
0.000414687
0.00250741
0.00112716
0.00672394
0.00672247
0.000381855
0.00209122
0.0036112
0.000469796
0.00673478
0.0019807
0.000146519
3.91541e-05
0.000783356
0.00672404
0.00665004
0.00609811
0.000197701
0.000478669
0.000916636
0.00131446
0.00256988
0.00672611
0.000110764
0.00672629
0.000321503
0.00671992
0.00308322
0.000519808
0.00672456
0.00033735
0.00152042
0.000631181
0.00630036
0.0067232
0.000190353
0.00041455
0.00672725
0.00672002
0.00673506
0.000593968
0.00671652
0.0067246
0.00671869
0.00570952
0.00220685
0.000336056
0.00672202
0.00404034
0.00672197
0.000119854
0.00671958
0.000665735
0.00672556
0.00675983
0.000559129
0.000707956
0.00354315
0.00113028
0.00444518
0.00101587
0.00412454
0.000248441
0.0038754
0.00629283
0.00082915
0.00263177
0.000318217
0.000297309
0.00574053
0.00188545
0.00416766
0.00673476
0.00671991
0.00478979
0.00158983
0.00671763
0.00671961
0.00672123
0.000641238
0.000616793
0.000453447
0.00672466
0.000329188
0.000468543
0.00103558
0.000442267
0.00671921
0.00197377
0.00672182
0.00136228
0.000323478
0.000515668
0.00671823
0.000562065
0.00672233
0.00672547
0.00346459
0.00103303
0.000248081
0.00548776
0.000262241
0.00394147
0.00672541
0.00672348
0.00672816
0.000557773
0.00101584
0.000254877
0.00016064
0.00633712
9.03957e-05
0.00102904
0.00672338
0.00671473
0.00671732
0.00673305
0.000422594
0.00672695
0.00672441
0.00018312
0.000762081
0.00331588
0.000182092
0.000537661
0.000192746
0.00682297
0.000545245
0.00407281
0.000145381
0.00082579
0.000425127
0.00671328
0.00672189
0.000612122
0.00213544
0.00671519
0.00163924
0.00189361
0.00671721
0.000787855
0.00267562
0.00128277
0.000158544
0.00315259
0.00674638
0.00341248
0.00087101
0.00501994
0.00671831
0.00672005
0.000493383
0.00132995
0.00672276
0.00672525
0.00672442
0.000357777
0.000578862
0.00126432
0.00363582
0.000338851
0.000850229
0.00398805
0.000288526
0.000650757
0.000443775
0.00276093
0.00307425
0.00581593
0.00673312
0.00672504
0.00145396
0.00672157
0.000695876
0.000519818
0.00678273
0.00328964
0.000941865
0.00672491
0.00140961
0.00351385
0.00204436
0.00581271
0.00394391
0.00285262
0.000637903
0.000146989
0.00113473
0.000151981
0.000531963
0.00673047
0.0055425
0.000902922
0.00180505
0.00127548
0.000189426
7.32824e-05
0.00146551
0.000770267
0.0058847
0.00401261
0.00374109
0.00672134
0.000327808
0.00672073
0.000396073
0.00333929
0.00496544
0.000500994
0.00672554
0.00671518
0.000404014
0.00671459
0.000546884
0.00528472
0.00367499
0.000602452
0.00137019
0.00123692
0.00673683
0.00146
0.00671876
0.00211575
0.0022854
0.000428528
0.00156405
0.000525226
0.00672346
0.00672315
0.00336579
0.000619441
0.000888465
0.00671933
0.00121145
0.00333153
0.000231921
0.00486075
0.00514259
0.00671716
0.00644835
0.00021143
0.00672292
0.00115596
0.00437263
0.00672597
0.00598782
0.0068071
0.00478629
0.00300897
0.0067232
0.00158624
0.00674847
0.000139152
0.000328478
0.00671179
0.000309829
0.000840161
0.00672631
0.00673842
0.00477287
0.000721183
0.00162397
0.00034727
0.00340138
0.00672284
0.000475002
0.00329353
0.00375949
0.0015381
0.000590153
0.00491357
0.00672205
0.000513893
0.005793
0.000358249
0.00226338
0.00671829
0.00671857
0.00443741
0.000487933
0.00259974
0.000140641
0.00676051
0.000475775
0.000365781
0.00298596
0.000790684
0.00131665
0.00051562
0.0006626
0.000870167
0.00672157
0.00674527
0.00672112
0.000760409
0.0013142
0.000975554
0.000929138
0.0067191
0.00101242
0.00674025
0.00668563
0.000623532
0.00671993
0.00672004
0.00228705
0.00672098
0.000304305
0.000115297
0.00238755
0.00671973
0.00459791
0.000193196
0.00552118
0.00459498
0.000295527
0.000527409
0.000334945
0.00320252
0.00672741
0.000307311
0.00222562
0.000186602
0.00139639
0.00671845
0.00341091
0.00327962
0.00673281
0.000153001
0.000557128
0.000566087
0.000128402
0.0002628
0.00671636
0.000680562
0.000508007
0.00390099
0.000692344
0.0067231
0.00285471
0.0067219
7.90823e-05
0.00301381
0.0067212
0.000654609
0.00671691
0.00049854
0.00671472
0.00297719
0.00658885
0.00121809
0.000929152
0.00672154
0.00438519
0.000717898
0.00256133
0.00671084
0.000694906
0.00672304
0.00348273
0.00141976
0.00673758
0.000781378
0.00414409
0.00676227
0.00117469
6.24938e-05
0.00673202
0.00672465
0.00346991
5.089e-05
0.00672123
0.00672443
0.00641765
0.000107106
0.0032209
0.00671468
0.00671625
7.73581e-05
0.00133877
0.00672405
8.17739e-05
0.000996737
0.000447162
0.00359331
0.000233572
0.000301686
0.00671878
0.00671683
0.00076919
0.000409504
0.00181327
0.00428308
0.00189116
0.00184728
0.000275831
0.00672282
0.00477141
0.00429979
0.00672404
0.00120117
0.00346268
0.00402367
0.00672099
0.000258838
0.0013143
0.000537231
0.000295288
0.000247029
0.0067185
0.00674907
0.00235
0.00672888
0.000788319
0.000842845
0.00245785
0.00239884
0.00317691
0.000713415
0.006721
0.00673987
0.00277178
0.00232345
0.0049464
0.00671828
0.00126254
0.000117606
0.000650545
0.00671835
0.00270127
9.03966e-05
0.00160588
0.00224105
0.00262384
0.000348564
0.000146205
0.00127991
0.00423298
0.000255423
0.00671618
0.00672192
0.00157538
0.00672391
0.00579929
0.00041936
0.0067643
0.00672411
0.00136225
0.00138402
0.000133503
0.00489092
0.00124256
0.00509047
0.0007609
0.000336169
0.00671707
0.00672409
0.00671416
0.00391199
0.0012975
5.15692e-05
0.000220699
0.00671843
0.00671971
0.00671755
7.98976e-05
0.000328993
0.000188702
0.00299765
0.00181792
0.00352484
0.000172793
0.00672061
0.0067145
0.000797864
0.00671428
0.000626395
0.00143218
0.00672136
0.00142591
0.0067258
0.000539568
0.000165286
0.00013442
0.00671829
0.00158255
0.00156974
0.00672293
0.000465669
0.0040036
0.000947821
0.000293611
0.00256138
0.00671812
0.00671455
0.00119633
0.000595963
0.00539366
0.00671667
0.000283009
0.00109209
0.000173065
0.000342815
0.000957163
0.00671643
0.00519257
0.00201641
0.00418983
0.0058362
7.04371e-05
0.00484508
0.00143472
0.00037447
0.000878818
0.000374028
0.000300173
0.00673137
0.00672533
0.00671759
0.00672591
0.00173813
9.73817e-05
0.0014212
0.00140255
0.00378685
0.00051581
0.000510319
0.00665744
0.00319987
0.0025874
0.00671819
0.000405166
0.000383965
0.0004448
0.00675285
0.000892539