/*--------------------------------*- C++ -*----------------------------------*\
| =========                 |                                                 |
| \\      /  F ield         | OpenFOAM: The Open Source CFD Toolbox           |
|  \\    /   O peration     | Version:  v2012                                 |
|   \\  /    A nd           | Website:  www.openfoam.com                      |
|    \\/     M anipulation  |                                                 |
\*---------------------------------------------------------------------------*/
FoamFile
{
    version     2.0;
    format      ascii;
    class       surfaceScalarField;
    location    "350";
    object      phi;
}
// * * * * * * * * * * * * * * * * * * * * * * * * * * * * * * * * * * * * * //

dimensions      [0 3 -1 0 0 0 0];
oriented        oriented;


internalField   nonuniform List<scalar> 
27688
(
-0.290591
0.175096
0.115496
-0.0100078
-0.0505055
0.0605133
-0.184734
-0.0229445
0.207679
0.289812
-0.191042
-0.0987703
0.120348
0.139369
-0.259717
0.170412
0.0485124
-0.218925
-0.00899784
-0.0480578
0.0570556
0.0121241
-0.0147312
0.00260708
-0.050637
0.0761966
-0.0255595
-0.00379032
0.0786027
-0.0748124
0.260889
-0.140541
-0.118623
0.228801
-0.110178
-0.0431444
0.422189
-0.379045
0.104201
-0.22927
0.125069
0.215895
-0.27879
0.0628948
-0.00317738
0.17359
-0.198959
-0.0303984
0.229357
-0.15521
-0.135381
-0.249619
-0.100529
0.350148
0.0624084
-0.0105569
-0.0518515
0.319202
-0.103307
-0.0199614
0.0234225
-0.00346115
-0.48633
0.139856
0.346474
-0.240366
0.121743
0.0147115
0.0346958
-0.0494074
-0.0796231
0.028986
-0.0774863
0.0827606
-0.00527431
0.0330028
0.021202
-0.0542048
0.0730486
-0.0673604
-0.00568819
-0.257822
0.0730882
-0.206865
0.115424
0.0914402
-0.0801057
0.235766
-0.15566
0.0696691
0.0501418
-0.119811
0.192499
0.192122
-0.38462
-0.18607
0.0928134
0.0932571
0.0577192
-0.0462586
-0.0114606
0.294702
-0.159564
-0.135138
-0.00911816
-0.055779
0.0648972
-0.00576242
0.0178865
-0.294585
-0.191744
0.00142386
-0.00149624
7.23787e-05
0.0251727
-0.0239236
-0.00124909
0.00103418
0.0284031
-0.0294372
0.0367111
0.00199966
-0.0387108
0.0616968
0.0692436
-0.13094
-0.0149826
-0.0904077
0.10539
-0.00380137
-0.0126856
0.016487
0.124054
-0.053331
-0.0707232
-0.0837309
0.0858218
-0.00209093
0.0506471
0.00536605
-0.0560131
-0.0836683
0.00618192
0.0972483
-0.194459
0.097211
-9.70188e-05
-0.0764526
0.0765496
-0.0751723
0.0762722
-0.00109987
-0.0678717
0.0598989
0.00797279
0.0581707
-0.0672889
-0.00430394
0.0845003
-0.0801964
0.0920649
-0.0155873
-0.0764777
0.000984278
0.00043958
-0.066813
0.0612516
0.00556143
0.00654102
-0.00716327
0.000622245
0.0688831
-0.0218995
-0.0469836
-0.0793595
-0.00437144
0.50733
-0.475039
-0.0322907
-0.0670871
0.0758005
-0.00871345
-0.0770543
0.0869189
-0.00986464
-0.0615804
-0.0052326
0.071784
-0.140486
0.0687022
-0.343685
0.300541
0.00171947
-0.000735196
0.0896034
-0.0756671
-0.0139363
0.0444029
-0.294022
0.252509
-0.451731
0.199222
0.0491072
-0.0694125
0.0203053
-0.0113887
0.0113887
0.0179329
0.0397863
-0.478946
0.276861
0.202084
0.29848
-0.245296
-0.0531838
-0.176901
-0.205967
0.382868
0.00656608
-0.0836204
0.0980419
0.0492748
-0.147317
-0.186366
0.378864
-0.270688
0.257755
0.0129327
-0.172386
0.106917
0.0654691
0.00198362
-0.021945
0.192083
-0.312382
0.1203
-0.00830262
-0.0581596
0.0664622
-0.000733543
-0.000762693
0.0265316
0.0423515
0.00119531
-0.00595053
0.00475522
0.171434
-0.342982
0.171547
-0.000613847
0.00715487
-0.0176461
-0.0477701
0.0654162
-0.152103
0.383658
-0.231555
-0.00109452
0.01019
-0.0090955
-0.0740041
0.0335444
0.0404597
0.141203
0.0622243
-0.203427
0.071307
-0.0659081
-0.00539885
0.0168784
0.400163
-0.417041
-0.000433361
0.0243689
-0.0239355
0.0556181
-0.00497105
0.00653341
0.000533069
-0.00706648
-0.233835
0.15373
0.0569421
-0.0745882
0.031169
0.0418796
0.0898118
-0.0771957
-0.0126161
0.0653044
-0.0505929
0.280797
-0.52819
0.247392
-0.0347768
-0.0392273
-0.0878828
0.053106
-0.00216072
0.00180869
0.000352033
-0.0590954
-0.0791029
0.138198
0.0185685
-0.0223698
0.0367111
-0.368919
0.274866
0.0940531
0.417812
-0.284051
-0.133761
0.0452448
-0.0542426
0.234295
0.0555176
0.0755713
-0.0756683
0.0160246
-0.0160246
0.0837032
-0.19413
0.110427
-0.0926639
-0.0860048
0.178669
-0.0604204
0.131698
-0.0712779
0.172236
0.0527657
-0.225002
0.0841349
0.0131998
-0.0973347
0.0795568
-0.0737651
-0.00579171
-0.0527005
0.144334
-0.0916335
0.00182941
-0.0689165
-0.0010342
-0.0674595
0.0684937
-0.0149635
-0.0670238
0.0819873
-0.0272425
-0.00191975
0.0291622
0.0182227
0.0313209
-0.0495436
0.0563632
0.00604516
-0.0893821
0.0850782
-0.140839
0.354274
-0.213435
-0.0670464
0.123409
-0.056363
-0.376453
0.222088
0.154365
-0.00102388
-0.00113684
0.0289203
-0.0315188
0.00259846
-0.327298
0.248423
0.0788756
0.0106972
-0.0126921
0.00199487
-0.0418434
-0.0460394
0.213308
-0.390208
-0.434977
0.0501503
0.384827
-0.158493
0.0993971
-0.23404
-0.134878
-0.386794
0.464759
-0.0779649
-0.23235
-0.0383383
0.339772
-0.322893
0.0828237
-0.203243
0.120419
0.0412242
-0.0706538
0.0294296
0.162278
-0.285935
0.123657
0.0461049
-0.113583
0.0674786
0.223292
-0.151611
-0.0716817
-0.175539
0.115119
0.0128374
-0.00214017
-0.00577397
0.0451161
-0.0393421
0.114391
-0.0794024
-0.0349882
0.103219
-0.224007
0.120788
0.0337947
0.0927051
-0.00857016
-0.0550653
0.128159
-0.0730937
-0.0509368
0.0561949
-0.00525809
0.0427288
-0.0703883
0.0276595
0.30201
-0.219264
-0.0827462
-0.163714
0.108561
0.0551532
-0.10555
-0.0668363
0.0171202
-0.0187734
0.0016532
-0.177725
-0.0676189
0.245344
0.0697182
0.00158883
0.439541
-0.310828
-0.128712
-0.0477216
0.117391
-0.0781816
0.0857007
-0.00751918
-0.0654032
0.0765871
-0.0111839
0.0252799
-0.0242457
0.275687
-0.100979
-0.174708
-0.0703679
0.0433377
0.0270302
0.164234
0.0590579
0.275984
-0.527492
0.251508
-0.13455
0.0347722
0.0997782
-0.0215379
0.0627621
-0.11301
-0.0730606
0.0609925
-0.0279897
-0.200688
0.421807
-0.22112
0.305344
-0.49891
0.193566
0.102563
-0.108507
0.00594427
-0.0200074
0.0627363
0.0475403
0.00818423
-0.0557245
0.0596349
-0.0679376
-0.137502
0.241702
0.425517
-0.236848
-0.188669
0.12038
-0.0476606
-0.0727195
-0.0874427
-0.0762715
0.0454727
-0.244431
-0.179513
0.392821
0.0693536
-0.0264533
-0.0429003
-0.231926
-0.0953724
-0.0656617
-0.0123827
-0.006603
0.0189857
0.155469
-0.0937723
0.0809413
-0.0013845
-0.0307533
0.0352012
-0.00444793
0.0655738
-0.0479409
-0.0176329
0.00546617
-0.0178488
-0.0301418
-0.0402261
-0.190298
0.104103
0.0861952
-0.0123501
0.0137116
-0.0013615
-0.00451271
0.0110461
0.308092
-0.494867
0.186776
-0.238151
-0.152995
0.391146
0.00315726
0.0629232
-0.0660804
-0.0712063
0.0743636
-0.15103
0.0356711
0.115359
0.0504121
-0.437207
0.112522
0.112603
-0.225124
-0.271734
0.524862
-0.253128
-0.0587426
0.0042985
0.0544441
-0.0761054
0.0344797
0.0416257
0.112662
0.0722605
-0.184923
-0.108429
-0.0965856
0.205015
0.215675
-0.132852
-0.0774973
0.024828
-0.0155839
-0.00924411
-0.484621
0.363057
0.121564
0.00106614
-0.000859248
-0.000206892
0.140745
0.161266
-0.177833
0.0851691
-0.0856577
0.00723251
0.0784252
0.0671142
-0.0681484
-0.0602974
0.132081
-0.127066
-0.0273478
0.154413
0.0532773
-0.125582
0.0723049
-0.167423
0.44822
0.000487315
-0.108186
-0.0263644
0.159624
0.211181
-0.370805
0.292112
-0.463199
0.171087
-0.0487767
0.0730868
-0.0243101
0.0550169
-0.102181
-0.0792291
0.18141
-0.06007
0.0500623
-0.120648
0.217896
-0.181417
0.420876
-0.239459
-0.0146904
0.014257
0.0729035
0.0191615
-0.112351
0.102108
0.0102422
0.0140722
0.0552814
0.403633
-0.244009
0.00141896
-0.000638184
-0.000780773
-0.221255
-0.0216049
0.24286
-0.383001
0.230897
-0.0218904
0.0260575
-0.00416717
0.0689889
0.0527484
-0.0345257
0.106604
-0.0244649
-0.0821389
-0.129171
0.0764708
0.07004
-0.0632344
-0.00680554
-0.212248
0.371115
-0.158867
0.111537
-0.404786
0.293249
0.0969014
-0.20533
0.115289
0.159577
-0.050837
-0.00790562
-0.0414096
0.100468
0.0522191
-0.152687
-0.0186852
0.0235929
-0.00490775
-0.0658761
0.0449033
0.0209728
-0.0644975
0.0752874
-0.0107899
-0.11813
0.0647987
-0.0701458
0.0821776
-0.0120318
0.123143
-0.0684475
-0.0546955
-0.0803121
-0.00534554
-0.221842
-0.154611
0.0722902
0.0912527
-0.163543
0.249738
-0.134449
0.275666
0.163875
0.117995
-0.124239
0.00624379
-0.119397
0.105086
0.0143116
-0.229225
0.161379
0.0678457
-0.227784
0.0935438
0.13424
0.00803823
0.0167898
-0.224974
-0.17375
0.398724
-0.0801052
-0.0133177
0.0934228
-0.25733
0.0971383
0.160191
0.0665384
0.101789
-0.168327
-0.0225521
0.0141168
0.00843529
0.0355773
-0.256833
-0.335926
0.262306
0.0736198
0.00681792
0.0676934
-0.0745113
-0.074328
0.0893227
-0.0149947
-0.0862711
0.0738406
0.0124305
-0.125982
0.281381
-0.155398
0.0820045
-0.00213192
-0.0798726
-0.317987
0.214854
0.103133
0.108446
-0.062341
-0.0304423
0.0342714
-0.00382915
-0.0751044
0.00970128
-0.0127846
0.0116901
-0.0488261
-0.00624118
0.0550672
-0.0435139
-0.00742284
-0.121373
-0.109034
0.230407
0.0147336
0.0878293
0.075062
0.432268
-0.116696
0.0447381
0.0719581
-0.0870831
-0.103215
-0.432342
0.221344
0.210998
0.434767
-0.126675
0.269876
-0.212663
-0.0572133
-0.00186616
0.0294961
-0.0276299
0.00873736
-0.0452014
0.0394274
-0.0601741
0.0702501
-0.0100759
0.360491
-0.248954
0.0592508
-0.0117105
-0.326963
-0.157658
0.453026
-0.27139
-0.181636
-0.0400932
-0.191833
0.185115
-0.118576
-0.126958
0.0483941
0.0785637
0.0190209
-0.0943419
0.075321
0.00757197
0.0499041
-0.0574761
-0.344595
0.395008
0.0502632
-0.071801
-0.294679
-0.0952586
0.389938
0.0035869
-0.0343402
-0.22426
0.453833
-0.229573
0.051804
0.00422205
-0.056026
0.0519161
-0.0719235
-0.219899
0.179806
-0.0666889
-0.115691
0.18238
-0.00464785
-0.0459522
0.0506
-0.0579438
-0.0439783
0.101922
-0.0336599
0.00321758
0.10687
0.163006
0.254695
0.198331
-0.108513
0.0414668
0.352788
-0.1307
-0.0626173
-0.00267569
0.0652929
-0.0375201
-0.11351
-0.182691
0.0805101
0.0422198
-0.0571991
0.0149793
-0.0590899
0.0905884
-0.0314985
0.0839255
-0.00780052
-0.076125
0.0304717
-0.0015514
-0.0782222
0.0756077
0.00261457
-0.248631
-0.183711
0.0933195
-0.0778416
-0.0154779
-0.0742161
0.154088
-0.0798722
-0.0701961
0.0824381
-0.012242
0.0903201
-0.00831554
0.123226
-0.114149
-0.168818
0.282967
0.153718
0.0869286
-0.240647
0.0613267
-0.0519483
-0.00937844
-0.287535
-0.121695
0.40923
-0.122234
0.270321
-0.148087
0.432884
-0.12754
-0.451243
0.156564
0.0312302
-0.0147483
0.186984
0.169891
-0.097601
0.196702
-0.396731
0.200029
-0.013637
-0.00891505
0.0217329
0.00343978
-0.0983321
0.0186685
0.0796637
-0.000643433
-0.0233551
0.0239985
0.00473733
-0.392854
0.211436
-0.245102
0.497611
0.0812625
-0.0850528
-0.0676677
0.0188911
0.334279
-0.162844
-0.126329
-0.191658
0.0317251
0.0443024
0.0801942
-0.124497
-0.472683
0.128088
0.231865
0.0666149
0.0854182
-0.00902828
-0.0763899
-0.0263516
0.139014
0.174936
-0.39991
-0.0571131
-0.0538786
-0.0711097
-0.00711251
-0.383407
0.0154799
0.367927
-0.2181
-0.117826
0.11962
-0.186309
-0.0773012
0.00212894
0.186434
-0.382027
0.195593
-0.0779278
-0.0084343
0.0863621
-0.0393529
0.034705
0.208628
-0.0824729
0.00236771
-0.0124878
0.176722
-0.151767
-0.173332
0.325099
-0.0418925
-0.0287613
0.000395074
-0.276436
0.162287
-0.00449602
0.0508859
-0.0463899
-0.00457602
-0.00258725
0.0565572
-0.00581334
-0.0507438
-0.208466
-0.218132
0.426599
0.0300559
-0.0319221
-0.303727
0.177398
-0.0760175
0.13932
-0.0633022
0.0780729
-0.144629
0.0665565
-0.0370301
0.0418912
-0.00486111
-0.399947
0.254284
0.145662
-0.028956
-0.0414323
-0.388343
0.166501
-0.047379
0.154296
-0.099599
-0.0273587
-0.366873
0.132833
0.142956
0.0581143
-0.201071
0.0927834
-0.309688
-0.0902581
-0.108154
0.261873
-0.17013
0.0645807
-0.0812225
0.0981807
-0.0169582
0.172166
-0.410094
0.237928
0.0986235
0.0679463
-0.16657
0.0641871
0.0502036
-0.0638835
0.0691493
-0.3073
-0.0119554
-0.000736682
0.0734493
-0.146615
0.0731654
-0.0685582
0.137802
0.368143
-0.18171
-0.0358177
0.032323
0.0034947
-0.0945402
-0.0759367
-0.0825558
-0.0522712
0.070016
-0.0177449
0.00679206
-0.336383
0.184616
0.135
0.236115
-0.100702
0.0857191
-0.428771
0.0352497
0.393521
0.366706
-0.173804
-0.192902
0.0441495
0.0789935
-0.234331
-0.244614
-0.254779
0.0637309
0.191048
-0.0473039
0.0685039
-0.0211999
-0.0837853
0.0723908
0.0113946
-0.136557
0.0936908
0.0428665
0.0134552
-0.0657264
0.127692
0.147996
0.0640019
-0.116332
0.0523298
-0.00722224
0.021339
0.0183771
-0.0213983
0.117875
-0.0964767
0.0406995
-0.0355438
-0.00515572
-0.0879547
0.0771315
0.0108233
0.428461
-0.232435
-0.196026
-0.156721
0.0692785
-0.479021
0.207287
0.0911408
-0.0146943
-0.0764465
-0.079168
-0.0236256
0.102794
0.239808
0.184754
-0.424562
-0.00748539
0.0671203
-0.199029
-0.167844
-0.113192
0.216411
-0.0787857
0.187006
-0.10822
-0.0183121
0.0162129
0.00209912
-0.0426389
0.00560883
-0.138499
0.0288607
0.109638
0.00084631
0.05536
-0.0562063
-0.239801
-0.176429
0.41623
-0.0732478
0.0834508
-0.010203
-0.158091
0.220315
-0.217761
0.457569
0.30615
0.17004
-0.0585703
-0.00394011
0.0625104
0.178157
-0.382731
0.204574
-0.0317041
-0.106795
0.0327344
-0.112137
-0.158549
0.0826122
-0.066896
0.0337543
0.0331417
0.153493
-0.116765
-0.036728
-0.150912
0.0719292
0.078983
-0.0100119
-0.00194347
0.145588
-0.0962323
-0.0493556
0.0163471
-0.0765212
0.0458504
-0.103794
0.0506096
-0.0551056
-0.224233
0.147492
0.0767404
-0.0111507
0.0533706
-0.0851666
-0.115623
-0.0182671
0.0659215
-0.0476544
-0.219201
0.00235989
0.124827
0.0205729
-0.1454
0.00842169
0.0760786
-0.0755205
0.138833
-0.0633124
-0.0746541
0.0631844
0.0114698
-0.00154627
-0.131206
0.243728
-0.451521
0.180131
-0.00727232
-0.0236609
0.0309332
-0.0573974
0.0640156
-0.00661819
-0.0564799
-0.0231431
0.023012
-0.0309504
0.0079384
-0.157473
-0.0667599
-0.443032
0.218772
-0.41799
0.0194438
0.398546
0.179509
0.129945
-0.309453
-0.0013657
0.18866
0.158851
-0.0807777
0.0155046
-0.193324
0.129795
0.0635294
-0.112726
0.0913277
0.0654542
-0.0574863
-0.0134072
0.0708935
-0.0473694
0.00111078
-0.175053
0.37151
-0.196456
0.116891
0.0286973
0.154897
-0.0945338
-0.0603635
0.00299319
0.0903263
0.0318842
-0.313735
0.281851
-0.150958
-0.047936
0.198894
-0.237631
-0.213889
-0.0786018
0.0853385
-0.00673678
-0.0218122
-0.00129964
0.0231118
-0.0960213
0.238978
0.321902
-0.290018
0.0638909
0.00261235
-0.0665032
0.0903799
-0.0757304
-0.0146495
0.165637
-0.252189
0.0865517
0.195167
0.0291236
-0.0281846
-0.000938947
-0.34796
0.112699
0.235262
0.00483915
0.0111855
-0.270803
0.498869
-0.228067
0.056406
-0.0653396
0.00893357
0.0153118
0.0291218
-0.0444337
-0.0892213
-0.071418
-0.0853032
-0.0988369
0.0617362
0.0371007
-0.569427
0.357234
0.212193
-0.00584938
0.00127336
0.0582008
-0.197182
-0.179312
0.376494
0.112699
-0.234072
-0.11356
0.0669971
0.046563
0.153836
-0.0533681
-0.0867536
0.0296404
-0.0773719
0.0841898
-0.452504
0.274819
0.177686
-0.433297
0.198473
0.234825
-0.00328751
0.0653882
-0.0621007
0.00994705
0.0379112
-0.0478583
-0.2051
0.363777
-0.158677
-0.214426
-0.042904
0.4133
-0.252053
-0.161248
-0.0875815
0.0757258
0.0118557
0.00752484
-0.0650112
-0.121101
0.313184
0.071287
-0.00417282
0.151646
0.142824
-0.294471
-0.0279581
0.0279581
0.253144
-0.429572
0.0082414
0.0674098
-0.0756512
-0.0332263
-0.0656106
0.0308347
-0.0304579
-0.000376801
-0.0934755
-0.0892155
0.0251152
0.0155844
-0.181848
0.0691223
-0.317651
0.200134
0.117517
-0.00609838
0.0811007
-0.0750023
-0.0392365
-0.120451
0.264063
-0.143612
0.0122923
0.283771
-0.176901
-0.538345
0.318839
0.219507
0.0205105
-0.0277328
-0.317755
0.0428134
0.274942
-0.0292239
0.0362803
-0.0070564
0.0370022
-0.0139902
0.0246365
0.0451501
-0.0375782
0.0910158
-0.0822048
-0.00881104
-0.0396706
-0.0297419
0.130314
-0.268353
0.13804
0.126658
-0.0512328
-0.0754249
-0.100167
-0.0363899
-0.0389983
-0.0803988
-0.111395
0.193278
0.124887
-0.318165
-0.153293
0.283607
-0.0564767
-0.271829
0.328306
0.200467
0.167676
0.00443551
-0.00324019
0.00711789
-0.0543912
0.0472733
-0.220208
0.421247
-0.201039
0.371013
-0.174311
-0.0912213
0.203824
0.213784
0.0809176
0.106329
0.0729174
0.0537403
0.00573772
-0.0731972
0.0562594
-0.0489718
-0.00728765
-0.0666133
0.0805346
-0.0139213
0.186503
0.221372
-0.407875
-0.165856
-0.170527
-0.0829388
-0.00644333
-0.0806404
0.212884
-0.132244
0.127504
-0.107666
0.0636873
-0.315287
-0.223058
-0.0743986
0.194018
0.409575
-0.133591
-0.132641
0.0534732
-0.0113376
0.0718801
-0.0605425
-0.0117559
0.0146423
-0.00288646
-0.0024351
0.0308382
-0.0104143
0.0556591
-0.00249953
0.00903723
-0.0065377
-0.538454
0.342364
0.19609
0.058665
-0.0103919
-0.0359222
0.0463141
-0.171902
0.269041
-0.0833083
-0.09854
-0.000300241
-0.150658
0.374297
-0.17383
-0.062398
0.014457
0.00734757
-0.318056
-0.251371
-0.0749129
0.0638801
0.0110328
0.13009
0.0890161
-0.219106
-0.136653
0.27619
-0.139537
-0.0695375
0.0620521
-0.205905
-0.142055
-0.0413166
0.128191
-0.0868748
0.03263
-0.225767
0.193137
-0.0467989
-0.00640363
0.0532026
0.124384
-0.198782
-0.025882
0.0507217
-0.0248397
-0.0678853
0.0205814
-0.0109274
-0.050921
0.0618484
-0.179922
0.141043
0.038879
0.0528906
-0.0375788
0.0655707
-0.0805342
0.123286
0.109614
-0.2329
-0.122866
0.261336
-0.138469
0.0602246
0.00492656
-0.0651511
0.0012082
0.0494014
0.390672
-0.212514
-0.0571908
0.0614128
-0.0272989
-0.029974
0.0572729
-0.267571
0.131135
0.136436
-0.0794851
-0.0935594
0.173045
0.116761
-0.161041
0.04428
-0.0328547
0.00120506
0.0316497
-0.251506
-0.200998
-0.141445
0.293091
-0.0752328
-0.00336892
0.113194
-0.188788
0.0755939
-8.25509e-05
-0.0918247
0.0919072
0.20013
-0.420338
-0.00580092
0.0622069
0.0847317
-0.369014
0.284282
0.0954859
-0.276072
0.180586
-0.00341671
0.00484694
-0.0124204
-0.0604019
0.0728223
-0.326267
0.26979
0.214647
-0.400968
0.18632
0.0807509
-0.0963382
0.29046
-0.115365
-0.0573996
0.119262
-0.0618623
-0.549508
0.319561
0.229947
0.0578173
-0.0566091
0.0765583
0.0301547
-0.0289648
-0.00118996
0.317623
0.158568
-0.44579
-0.134786
-0.0944389
-0.461641
0.0266636
0.00993357
-0.0153971
0.0133631
0.00203398
-0.039482
0.0616281
-0.0221462
-0.000684048
-0.0933762
0.00129281
0.0920834
0.000332597
0.0500643
-0.095574
0.0455096
-0.0941066
0.0799981
0.0141085
-0.325642
-0.223866
-0.0728704
0.349732
0.00328474
0.036198
-0.0394827
-0.0102194
0.0604826
-0.311462
-0.00629271
-0.0711801
0.233265
-0.378741
0.145476
0.0614348
-0.0188212
-0.0426136
-0.169094
0.392028
-0.222934
0.320976
-0.22549
0.279868
-0.0827
-0.197168
-0.0332592
-0.0311795
0.0644387
0.0307222
0.0233658
-0.0540881
-0.245996
0.0588924
0.187104
0.449477
-0.229309
-0.220168
0.244486
0.204991
0.050316
-0.00938973
0.0613058
-0.152098
0.0580154
0.094083
0.066319
0.0618401
-0.0811478
0.0717068
0.00944105
-0.136031
0.162376
-0.0263442
-0.397536
0.218023
-0.0584488
-0.0026161
0.026985
0.0680646
0.0663245
-0.134389
-0.200693
0.387196
0.241486
0.1733
-0.414786
0.150493
0.107263
0.0941754
0.0593171
-0.00104639
-0.056351
-0.00828969
-0.000533274
0.00882296
0.0500681
-0.067701
-0.135818
0.0645596
-0.0196563
0.173674
-0.350934
0.177259
0.0100655
-0.385896
0.375831
-0.0633768
0.113519
-0.23262
-0.00615464
0.00205148
-0.0396336
0.0323613
-0.00233825
0.0209067
0.0556118
-0.111597
0.0559852
0.021401
0.0399258
-0.129229
-0.113072
0.242301
0.215663
-0.183033
0.0919583
-0.105551
0.0135929
0.0165128
0.0730906
0.00042348
-0.0276659
-0.223032
-0.169822
0.117123
-0.0531216
0.00598658
-0.0475803
0.0415937
-0.102424
0.232513
-0.00163231
0.028934
0.00122068
-0.388383
0.21929
0.535429
-0.302107
-0.233322
0.102528
0.0178526
-0.403915
0.220217
0.183698
0.155964
-0.00348489
0.0563755
-0.05435
0.0325466
0.0218034
0.00190748
-0.00605538
0.0041479
0.007173
0.0593019
-0.0664749
-0.0777008
0.0804611
-0.00276035
-0.0254287
-0.0285859
0.000659115
0.0279268
-0.338698
0.212693
0.126006
0.101814
-0.024656
-0.0771576
-0.32666
0.160804
-0.143999
-0.0359231
0.0190462
-0.0223136
0.00326742
0.421728
-0.180242
0.0518889
0.00154228
-0.0534312
0.186242
0.104218
0.133126
-0.00142744
0.0550972
-0.0441492
0.0977197
0.0825642
-0.180284
0.536375
-0.314097
-0.222278
0.0949114
0.0116924
0.086111
-0.263836
-0.0664609
-0.00474547
0.0617697
-0.00154516
0.245185
-0.156169
-0.0727597
-0.0206165
-0.00303409
-0.511024
0.329253
0.181771
-0.0324542
-0.0836845
0.116139
-0.0523286
-0.055337
-0.191021
0.375776
-0.187488
0.278751
-0.0912628
-0.22491
0.21352
0.0113905
0.00195573
-0.046831
0.0550152
0.306104
0.217652
-0.450087
0.107426
-0.107508
-0.00383136
0.000414651
0.461771
-0.0709878
-0.390783
-0.110238
-0.193489
-0.00246947
0.00246947
0.177005
-0.374186
0.170904
0.221124
0.0551283
-0.0609292
-0.0248863
-0.00369957
0.0629937
-0.00849895
-0.0544948
-0.415066
0.197305
-0.18905
-0.208486
0.00438728
-0.107685
-0.159886
-0.19984
-0.19698
0.39682
-0.00201315
0.0320036
-0.0299904
-0.0772131
0.0913638
-0.0141507
0.00413185
-0.0240915
-0.0437802
-0.0264933
0.110375
-0.0838819
-0.00286841
-0.243128
0.0775782
0.0526182
-0.130196
0.13155
-0.287068
0.155519
-0.0825406
0.0133753
0.320174
-0.1465
-0.00139322
-0.0099955
0.112246
-0.0559446
-0.0563014
-0.0498965
-0.120237
0.170134
-0.0361678
0.0355217
0.000646113
0.00149329
0.0630945
-0.0645878
0.0424262
0.0632561
-0.105682
-0.0804819
0.053183
0.101246
-0.0456346
-0.150898
0.059073
0.149445
-0.231514
0.0974092
0.134105
-0.406514
0.217464
0.0509298
-0.20254
-0.183967
-0.082531
-0.0563051
0.085541
-0.132456
0.297478
-0.165022
-0.0323911
0.0383777
-0.0567913
-0.0528162
0.109608
0.0220725
-0.0240857
0.0398727
-0.050287
0.0600976
-0.124034
0.0639368
-0.0570921
0.0646169
-0.0737427
0.365855
-0.264733
-0.246291
0.143153
0.0867816
-0.229934
0.0532686
-0.063488
0.00542246
0.117377
-0.213963
-0.0960264
0.247394
-0.151367
-0.0376504
0.0347373
0.00291304
-0.0939104
-0.173799
0.267709
-0.170222
-0.170589
0.340811
-0.231489
0.0733982
0.05355
-0.0629397
0.154365
-0.0962507
-0.0110503
-0.038952
0.0500023
-0.255274
0.162032
0.0932427
0.0940999
-0.13711
0.0430103
0.0307614
-0.0331965
0.168329
-0.266285
0.172375
-0.367489
0.162389
-0.475981
0.188447
-0.00160109
0.00504501
-0.00344393
0.0488141
0.0110848
0.00726443
0.00199419
-0.00925862
-0.194024
-0.0252403
0.00249944
-0.00441714
0.0019177
-0.00556729
0.0276398
0.00248337
-0.0243737
0.022601
-0.00355485
0.110444
-0.0680175
0.0303401
-0.0305397
0.000199662
0.271172
-0.120644
-0.150527
-0.142001
0.0515937
-0.0988328
0.155568
-0.0567348
0.089432
-0.0743517
-0.0150802
0.052051
-0.0629784
-0.124139
0.0420583
0.0653675
-0.0775905
-0.0733072
-0.0228116
0.0539805
-0.0868164
0.27587
-0.189054
0.160314
-0.312812
0.152498
-0.0307063
-0.00694407
-0.398107
0.197414
0.19596
-0.0104748
0.0442291
-0.072037
0.204588
-0.132551
-0.0884682
0.0779955
0.0104727
-0.00701223
0.130537
-0.202574
0.13517
0.0315145
-0.166684
0.151539
-0.016369
-0.257878
-0.0808205
-0.0292884
-0.0830621
-0.0512328
0.119626
-0.0683927
-0.532992
0.317097
0.215895
-0.0524722
0.0260189
-0.0429638
0.0366338
0.00633001
-0.0595452
0.0677866
0.101368
-0.177469
0.0761016
-0.0335
0.000645267
-0.0419469
-0.00485204
0.0287441
-0.107393
0.0786486
0.301647
0.118408
0.17096
-0.289368
-0.0426817
-0.0220561
0.0647377
0.293753
-0.211148
-0.0826048
0.221114
0.314315
0.109486
-0.24227
0.132784
0.163887
-0.296344
0.0989555
0.172216
0.398934
-0.215272
-0.236459
-0.10136
0.0479441
0.0534159
-0.302942
0.505254
-0.202312
0.333844
-0.323778
0.00835403
-0.0728515
0.152396
-0.297384
0.156545
0.520561
-0.201
0.126943
-0.276654
-0.013738
0.290392
-0.216331
0.0815451
-0.0971705
0.240323
-0.366454
0.194875
0.171579
-0.00890768
-0.0340562
0.0997718
0.0682008
0.00308623
-0.429415
0.191784
0.174827
-0.0616331
-0.0794361
-0.0671787
-0.188498
0.0950225
0.103478
-0.0747338
0.0218499
-0.146089
0.0398747
-0.0219418
0.00437318
0.00701555
0.0259179
-0.028534
0.407222
-0.234857
-0.172366
0.141197
-0.0622445
0.0227625
0.0810985
-0.0507726
-0.0303259
0.00456609
-0.203512
-0.194595
-0.143785
-0.14215
0.0772141
-0.161209
0.0839953
0.144353
-0.273477
0.129124
-0.00997058
-0.0330454
0.043016
-0.00183874
-0.0109459
-0.140653
0.273632
-0.132978
-0.392359
0.115705
0.023471
-0.0258092
0.00367497
-0.00176748
-0.0757586
0.0912371
-0.0154785
0.0215281
0.0682837
-0.0356943
0.00647045
0.0138103
-0.00671587
-0.00709445
-0.00430988
-0.190903
0.195213
-0.0729285
-0.0675577
-0.0779258
-0.0164162
0.00755927
0.084399
-0.0701177
0.071611
-0.220876
0.124855
0.0961695
0.107909
-0.204079
0.049539
-0.0188168
0.0316712
-0.0839998
-0.280665
0.244631
-0.409637
0.165006
-0.228833
0.127787
0.101046
0.221038
0.299523
0.173322
-0.0484958
-7.92893e-05
-0.0238443
0.0607372
-0.122341
0.0616039
-0.192008
0.299477
-0.107469
-0.0813347
-0.281145
0.113469
0.167677
0.106265
-0.168849
-0.0626652
-0.0368306
-0.0175194
0.0313048
-0.00237076
0.108019
0.122456
-0.230475
0.0960722
-0.191137
0.0950648
0.00333897
0.0580959
-0.174445
-0.217111
0.0878819
0.184052
0.282651
-0.151101
0.0024584
0.0288464
-0.175979
-0.0518049
-0.0736948
-0.0561403
0.129835
-0.212658
0.144543
0.0681145
0.000704386
-0.0026997
0.00199531
-0.308556
0.262494
-0.130438
-0.132056
0.004606
0.0214515
-0.122672
0.104192
0.0184796
0.0339054
-0.440405
0.376057
0.0643475
-0.0229955
0.00118325
0.183427
-0.383268
0.160272
-0.285519
0.125248
-0.0131372
0.00276168
0.0103755
0.205269
0.12203
-0.327299
0.0138767
-0.0157155
0.224573
0.196674
-0.00592651
0.0610548
0.0312105
-0.033135
0.00192455
0.0802491
-0.0892218
0.00897278
0.00510607
-0.0418621
-0.00550728
0.00473864
-0.0819343
0.0275763
-0.241492
-0.187923
0.222932
-0.227242
0.410527
-0.185953
-0.0896645
0.00672568
0.427169
-0.240032
-0.187137
-0.0773397
-0.00200471
0.0793445
-0.0801133
-0.0137061
0.0783119
0.012068
0.168266
-0.340479
0.172213
0.121769
-0.0797105
-0.215143
-0.188772
-0.497678
0.179623
-0.199634
-0.0252765
-0.222307
-0.228936
-0.0732132
0.171837
-0.154029
0.0551965
-0.183268
-0.183185
0.209671
-0.365651
0.15598
-0.0770789
0.0211016
0.0559773
-0.486852
0.0464471
0.0172282
-0.088361
0.0711328
-0.130289
0.0806931
-0.0316128
-0.0490803
0.332752
-0.19841
-0.134342
-0.0137364
-0.0239701
0.0377065
0.0156377
0.0605589
-0.0464328
0.0497175
0.0876296
-0.0768529
-0.0107767
0.114652
0.0647281
-0.0146599
0.00493511
0.0121851
0.0523195
0.0700915
-0.122411
0.00361243
-0.000709909
-0.00290252
0.394223
-0.157826
-0.236396
-0.0476907
-0.0147073
0.0168375
0.384155
-0.23155
-0.152605
0.0198373
-0.0946136
0.0747763
-0.124538
-0.0994696
-0.0300519
-0.00564245
0.0494948
0.0636459
-0.113141
-0.139855
-0.18444
0.324295
-0.0848931
0.329524
-0.0846121
-0.00505236
-0.156856
0.0760346
0.0808212
0.0341291
0.0465641
0.425903
-0.226755
-0.199148
0.0502559
-0.0705654
0.0203094
-0.0924257
0.32536
0.0964468
-0.000593983
-0.00168209
0.00227607
-0.208114
0.0506416
-0.149359
-0.0633045
-0.0429581
0.0459469
-0.102738
-0.0515747
-0.0942072
0.145782
0.00075255
0.0418152
0.0607123
0.327012
-0.123091
-0.203922
0.0708881
-0.0206322
-0.40979
0.206278
-0.246803
0.418181
-0.171378
-0.00553688
0.0850223
-0.0794854
-0.189497
0.109529
0.0799682
0.227756
0.156398
-0.0658101
-0.0106139
-0.106151
-0.0762875
0.090829
-0.0145416
-0.0219114
0.0023428
0.0195686
0.397569
-0.20727
-0.190299
0.013807
0.171463
0.221757
-0.39322
0.466713
-0.256908
-0.209805
0.219644
-0.139844
-0.0797994
-0.0140772
0.139808
-0.125731
0.189174
-0.111658
-0.0775158
0.0681685
-0.00999784
0.00294541
-0.0618337
0.0588883
-0.100724
-0.0219472
-0.237828
-0.295164
0.000158809
0.0538965
-0.0177443
-0.0361523
-0.0147407
-0.00403269
-0.107758
0.313026
0.35939
-0.166112
0.0820677
0.114708
-0.145106
0.197899
-0.0616979
-0.12252
-0.139478
0.125401
0.074932
0.07751
-0.152442
-0.212097
0.130338
0.11319
-0.243528
-0.0950342
-0.125842
-0.198522
0.41874
0.133242
-0.0651775
-0.113229
0.257582
-0.125505
-0.162244
0.287749
0.00860887
-0.0842759
0.0511606
-0.0569739
-0.0548442
-0.0465158
-0.0179581
-0.00395323
0.0898798
-0.00963074
-0.0818517
0.0836401
-0.00178847
0.19591
0.0346426
-0.028557
-0.00608559
0.0612907
0.0145098
0.0249132
-0.0823128
0.141192
-0.0733394
-0.0678524
-0.0758462
0.0737017
0.00214455
0.00438264
0.03026
-0.0683771
0.0142761
0.054101
0.424423
-0.171279
0.0721516
-0.10714
0.00365531
0.00199757
0.00614761
-0.00814519
0.0675629
-0.00627216
0.312943
-0.174471
-0.138471
-0.00977675
0.0736676
-0.0578979
-0.164311
0.0447326
0.149725
-0.236541
-0.0805388
0.0907817
-0.0102429
0.0728391
-0.147055
0.118751
-0.0458336
0.127428
0.0617453
-0.0510849
0.114601
-0.063516
-0.00180956
-0.00648014
-0.0588549
-0.00878215
0.067637
-0.121962
-0.136337
0.2583
-0.111155
-0.159864
0.271019
0.238562
0.327293
-0.187818
-0.139475
0.0722502
-0.0681705
-0.00407964
0.144281
-0.20458
0.0602988
0.0859985
-0.0765639
-0.00943465
-0.125817
-0.108327
0.30544
-0.14136
-0.16408
0.446666
-0.0244769
-0.304955
0.0598608
0.245094
0.0684625
-0.00553929
-0.125898
0.0522029
0.0791449
-0.00919019
-0.0699547
-0.148344
0.283063
-0.134719
-0.253789
0.0597655
0.093622
0.00819158
0.0665203
-0.0855852
0.0190649
0.00449702
-0.23137
0.444043
-0.212673
-0.279143
0.157181
0.0521738
-0.0556587
0.177791
0.102077
-0.144551
0.33925
-0.194698
0.090406
0.242975
-0.437267
0.194292
0.00261621
0.020364
-0.0229802
-0.151051
0.314938
0.0852537
-0.0187334
0.00728848
0.0517712
-0.0590597
-0.236751
0.127717
0.0137016
-0.0106396
-0.0330486
0.0436882
0.458086
-0.213599
0.230422
0.211142
-0.441565
0.0628459
0.0515391
-0.114385
-0.156773
-0.155609
-0.00812791
0.0869599
-0.078832
0.260902
-0.0990974
-0.161804
-0.0567312
0.00120563
0.0555255
-0.00405286
-0.0739398
0.0779926
0.155717
0.133902
0.0938283
-0.22773
0.00283388
-0.228193
-0.247788
0.0050896
-0.00669068
0.00976411
0.0421248
0.163677
-0.289182
-0.0390832
-0.0471879
-0.0491713
0.0568684
-0.00769709
0.0842392
0.0322052
-0.0539653
0.0217601
0.266107
-0.40211
0.136003
0.115874
-0.065814
-0.0500603
-0.0872117
0.0114531
0.058468
-0.00457142
0.209455
0.137263
-0.0879887
0.160016
-0.117436
-0.0425805
0.152843
-0.0514755
-0.159035
0.322383
-0.163348
0.000423125
0.00044667
-0.000869795
0.00878056
0.0881442
0.0659442
0.0314885
-0.00114843
0.375823
0.157015
-0.0284998
-0.128516
-0.178769
-0.138882
-0.0968529
-0.0287294
-0.265629
0.139647
0.138074
0.12442
0.227337
0.309039
0.531945
-0.30237
-0.229576
-0.060322
-0.0572113
0.000480114
-0.183165
-0.031961
0.215126
0.12047
-0.241067
0.120597
-0.227271
0.124847
-0.00264992
0.0327059
0.0824494
0.0938373
-0.160284
0.0664463
0.00732586
-0.0451831
0.0539581
-0.00877495
-0.10664
0.055555
-0.356564
-0.118476