/*--------------------------------*- C++ -*----------------------------------*\
| =========                 |                                                 |
| \\      /  F ield         | OpenFOAM: The Open Source CFD Toolbox           |
|  \\    /   O peration     | Version:  v2012                                 |
|   \\  /    A nd           | Website:  www.openfoam.com                      |
|    \\/     M anipulation  |                                                 |
\*---------------------------------------------------------------------------*/
FoamFile
{
    version     2.0;
    format      ascii;
    class       surfaceScalarField;
    location    "350";
    object      phi_0;
}
// * * * * * * * * * * * * * * * * * * * * * * * * * * * * * * * * * * * * * //

dimensions      [0 3 -1 0 0 0 0];
oriented        oriented;


internalField   nonuniform List<scalar> 
27688
(
-0.290589
0.175095
0.115494
-0.010022
-0.0504909
0.0605129
-0.184733
-0.0229463
0.207679
0.28981
-0.191044
-0.0987665
0.120348
0.139367
-0.259715
0.170414
0.0485085
-0.218923
-0.00897626
-0.0480743
0.0570505
0.0121392
-0.0147493
0.00261016
-0.0506134
0.0761782
-0.0255648
-0.00377178
0.078581
-0.0748092
0.260887
-0.140539
-0.118623
0.228799
-0.110176
-0.0431445
0.422189
-0.379045
0.104201
-0.229268
0.125067
0.215894
-0.278788
0.0628941
-0.00317506
0.173589
-0.198961
-0.0303962
0.229358
-0.155209
-0.135379
-0.249619
-0.100531
0.350149
0.062381
-0.0105484
-0.0518325
0.3192
-0.103306
-0.0199341
0.0233973
-0.00346314
-0.48633
0.139856
0.346475
-0.240364
0.121741
0.0147132
0.0346721
-0.0493853
-0.0795996
0.0289862
-0.077483
0.0827597
-0.00527668
0.0329974
0.0212242
-0.0542216
0.0730184
-0.0673651
-0.00565324
-0.257822
0.0730895
-0.206863
0.115425
0.0914383
-0.0801034
0.23576
-0.155657
0.0696919
0.050115
-0.119807
0.192499
0.192121
-0.38462
-0.186069
0.0928192
0.09325
0.057713
-0.0462443
-0.0114688
0.294702
-0.159565
-0.135137
-0.00909791
-0.0557803
0.0648782
-0.00576774
0.0179069
-0.294586
-0.191744
0.00144108
-0.00151344
7.2363e-05
0.0251616
-0.0239056
-0.00125606
0.001029
0.0284069
-0.0294359
0.0366764
0.00199731
-0.0386737
0.0616868
0.0692486
-0.130935
-0.0149867
-0.0904028
0.10539
-0.00380147
-0.0126971
0.0164985
0.124055
-0.0533321
-0.0707231
-0.0837283
0.0858145
-0.00208627
0.050648
0.00535533
-0.0560033
-0.0836714
0.00618836
0.0972518
-0.19446
0.097208
-6.52791e-05
-0.0764685
0.0765338
-0.0751499
0.0762731
-0.0011232
-0.0678545
0.0598702
0.00798432
0.0581699
-0.0672678
-0.00429646
0.0844625
-0.080166
0.0920455
-0.0155676
-0.0764779
0.00100067
0.000440414
-0.0667859
0.0612358
0.00555005
0.00653249
-0.00715705
0.000624563
0.0688827
-0.0218893
-0.0469934
-0.0793531
-0.00437519
0.507329
-0.475038
-0.0322909
-0.0670875
0.0758124
-0.0087249
-0.0770577
0.0869253
-0.00986762
-0.0615717
-0.00521418
0.0717737
-0.140477
0.0687031
-0.343685
0.30054
0.00173599
-0.000735321
0.089584
-0.0756576
-0.0139264
0.0444039
-0.294022
0.252505
-0.45173
0.199224
0.049085
-0.0693882
0.0203032
-0.0114073
0.0114073
0.017937
0.039776
-0.478946
0.27686
0.202086
0.298477
-0.245295
-0.0531817
-0.1769
-0.205968
0.382868
0.00656313
-0.0836208
0.0980347
0.049279
-0.147314
-0.186365
0.378864
-0.270686
0.257756
0.0129305
-0.17238
0.106915
0.0654651
0.00198316
-0.0219173
0.192084
-0.312382
0.120298
-0.00830671
-0.0581593
0.066466
-0.000751377
-0.000762065
0.026521
0.0423616
0.00119161
-0.00593768
0.00474607
0.171435
-0.342981
0.171546
-0.000620631
0.00715312
-0.017627
-0.0477694
0.0653964
-0.152103
0.383658
-0.231555
-0.00109962
0.0101998
-0.00910019
-0.0740017
0.0335438
0.0404579
0.141201
0.0622233
-0.203424
0.0712846
-0.0658904
-0.00539422
0.0168785
0.400162
-0.417041
-0.000437131
0.0243826
-0.0239455
0.0556033
-0.00495537
0.00646066
0.000553102
-0.00701376
-0.233833
0.15373
0.0569389
-0.074566
0.0311415
0.0418769
0.0898022
-0.0771853
-0.0126169
0.065284
-0.0505708
0.280797
-0.528189
0.247392
-0.0347752
-0.0392265
-0.0878877
0.0531125
-0.00214034
0.00178616
0.000354173
-0.0590831
-0.0791154
0.138199
0.0185828
-0.0223842
0.0366764
-0.368918
0.274863
0.0940549
0.417812
-0.284051
-0.133761
0.0452429
-0.0542192
0.234296
0.055514
0.0755802
-0.0756455
0.0160449
-0.0160449
0.0836972
-0.194131
0.110433
-0.0926589
-0.0860035
0.178662
-0.0604137
0.131693
-0.071279
0.172238
0.0527618
-0.225
0.0841246
0.0132003
-0.0973249
0.0795595
-0.0737507
-0.00580874
-0.0527077
0.144333
-0.0916249
0.00183565
-0.0689231
-0.00101337
-0.0674757
0.0684891
-0.0149412
-0.067029
0.0819701
-0.027239
-0.0019157
0.0291547
0.0182336
0.0313017
-0.0495353
0.0563416
0.00603939
-0.089362
0.0850656
-0.140837
0.354273
-0.213436
-0.0670517
0.123403
-0.0563512
-0.376452
0.222088
0.154364
-0.00100567
-0.00113467
0.0289054
-0.0314869
0.00258153
-0.327296
0.248421
0.078875
0.0107074
-0.0127057
0.00199832
-0.0418361
-0.0460516
0.213308
-0.390208
-0.434976
0.0501501
0.384826
-0.158494
0.0994109
-0.234039
-0.134879
-0.386794
0.464759
-0.077965
-0.232352
-0.0383344
0.339771
-0.322893
0.0828221
-0.20324
0.120418
0.0412023
-0.0706349
0.0294326
0.162278
-0.285933
0.123655
0.0460752
-0.113583
0.0675076
0.223289
-0.151612
-0.0716767
-0.175536
0.115123
0.0128524
-0.00214498
-0.0057614
0.045112
-0.0393506
0.114392
-0.0794087
-0.0349832
0.103216
-0.224006
0.12079
0.033982
0.0926957
-0.00857108
-0.0550701
0.128171
-0.0731006
-0.0509031
0.05615
-0.0052469
0.0427167
-0.0703842
0.0276675
0.30201
-0.219263
-0.0827473
-0.163706
0.108553
0.0551529
-0.105548
-0.0668325
0.0171088
-0.0187641
0.00165529
-0.177726
-0.0676153
0.245342
0.0697007
0.00158392
0.43954
-0.310829
-0.128712
-0.0476978
0.11739
-0.0781844
0.0857059
-0.00752146
-0.0653807
0.0765678
-0.0111872
0.0252792
-0.0242502
0.275687
-0.100976
-0.174711
-0.0703219
0.0432806
0.0270413
0.164233
0.0590564
0.275984
-0.527492
0.251508
-0.134549
0.0347781
0.0997705
-0.0215457
0.062748
-0.113007
-0.0730618
0.0610392
-0.0280418
-0.200684
0.421806
-0.221122
0.305344
-0.49891
0.193565
0.102558
-0.108502
0.00594379
-0.0200182
0.0627349
0.047509
0.00815554
-0.0556646
0.059634
-0.0679407
-0.1375
0.2417
0.425516
-0.236847
-0.188669
0.120377
-0.0476538
-0.0727229
-0.0874293
-0.0762768
0.0454704
-0.244432
-0.179513
0.392821
0.0693403
-0.0264659
-0.0428744
-0.231924
-0.0953717
-0.0656617
-0.0123924
-0.00660515
0.0189976
0.155463
-0.0937758
0.0809268
-0.00136737
-0.0307572
0.0352166
-0.00445942
0.0655471
-0.0479262
-0.017621
0.00546928
-0.0178617
-0.030151
-0.0401709
-0.190292
0.104101
0.0861911
-0.0123637
0.0137285
-0.0013648
-0.00451199
0.0109727
0.308091
-0.494867
0.186775
-0.238151
-0.152995
0.391146
0.00314351
0.0629265
-0.06607
-0.0712133
0.0743568
-0.151025
0.0356674
0.115358
0.0504122
-0.437207
0.112521
0.1126
-0.225121
-0.271737
0.524863
-0.253126
-0.0587239
0.00428567
0.0544382
-0.0761195
0.0344738
0.0416457
0.112657
0.072265
-0.184922
-0.108432
-0.096582
0.205014
0.215673
-0.132851
-0.0775016
0.024853
-0.0155988
-0.00925418
-0.484622
0.363055
0.121567
0.00108389
-0.00085918
-0.000224705
0.140743
0.161267
-0.17783
0.0851706
-0.085666
0.00724505
0.0784209
0.0671269
-0.0681402
-0.0603001
0.132074
-0.127062
-0.0273477
0.154409
0.0532734
-0.125571
0.0722979
-0.167422
0.448219
0.000488732
-0.10818
-0.0263689
0.159624
0.21118
-0.370804
0.292109
-0.463198
0.171089
-0.0487722
0.0730686
-0.0242964
0.0549987
-0.102176
-0.0792374
0.181413
-0.0600678
0.0500458
-0.120643
0.217895
-0.181417
0.420875
-0.239459
-0.0147002
0.014263
0.0729056
0.0191399
-0.112334
0.102125
0.0102093
0.0140765
0.0552638
0.403633
-0.244008
0.00140153
-0.00062093
-0.000780598
-0.221251
-0.0216083
0.242859
-0.383001
0.230897
-0.0218692
0.0260411
-0.00417185
0.0689851
0.0527396
-0.034506
0.106591
-0.0244538
-0.0821369
-0.129169
0.0764609
0.0700198
-0.0632183
-0.00680145
-0.212248
0.371114
-0.158866
0.111536
-0.404785
0.293249
0.0968979
-0.20533
0.115285
0.159578
-0.0508318
-0.00789207
-0.0414474
0.10047
0.0522139
-0.152684
-0.0186626
0.0235723
-0.00490965
-0.0658663
0.0449072
0.0209591
-0.0644884
0.0752674
-0.0107789
-0.118125
0.0647928
-0.0701428
0.0821753
-0.0120326
0.123145
-0.0684579
-0.0546875
-0.080314
-0.00535195
-0.221842
-0.15461
0.0722929
0.0912481
-0.163541
0.249736
-0.134451
0.275667
0.163874
0.117995
-0.124237
0.00624179
-0.119389
0.105083
0.0143065
-0.229223
0.161378
0.0678448
-0.227785
0.0935464
0.134239
0.00804553
0.0168075
-0.224975
-0.173748
0.398723
-0.0800975
-0.0133056
0.0934031
-0.257327
0.097135
0.160192
0.0665399
0.101784
-0.168324
-0.0225741
0.0141314
0.00844266
0.0355806
-0.256832
-0.335924
0.262306
0.0736179
0.00682607
0.0676845
-0.0745106
-0.0743177
0.0893132
-0.0149955
-0.0862529
0.0738307
0.0124222
-0.125981
0.281381
-0.1554
0.0819922
-0.00212771
-0.0798645
-0.317985
0.214855
0.103129
0.108438
-0.0623627
-0.0304361
0.0342455
-0.0038094
-0.0750909
0.0097102
-0.0127956
0.011696
-0.0488245
-0.00622782
0.0550523
-0.0434814
-0.00742162
-0.121376
-0.10903
0.230405
0.0147356
0.0878224
0.0750621
0.432267
-0.116691
0.0447348
0.0719562
-0.0870791
-0.103213
-0.432341
0.221343
0.210997
0.434766
-0.126675
0.269874
-0.212662
-0.0572117
-0.00186084
0.0294887
-0.0276278
0.00874084
-0.045192
0.0394306
-0.0601515
0.0702256
-0.0100741
0.360491
-0.248955
0.0593041
-0.011795
-0.326961
-0.157661
0.453025
-0.271387
-0.181638
-0.0400926
-0.191832
0.185113
-0.118574
-0.12697
0.0484169
0.0785527
0.0189999
-0.0943223
0.0753225
0.00758392
0.0499051
-0.0574891
-0.344595
0.395007
0.0502415
-0.0717872
-0.294679
-0.0952585
0.389937
0.00359481
-0.034352
-0.224257
0.453833
-0.229576
0.0517899
0.00423622
-0.0560261
0.0519044
-0.0719227
-0.219897
0.179805
-0.0666865
-0.115698
0.182384
-0.0046269
-0.0459421
0.050569
-0.0579416
-0.0439755
0.101917
-0.0336353
0.00319925
0.106868
0.163006
0.254693
0.198333
-0.108508
0.041456
0.352788
-0.130699
-0.0625858
-0.002691
0.0652768
-0.0375167
-0.113508
-0.182693
0.0805175
0.0422142
-0.0571787
0.0149645
-0.0590861
0.0905747
-0.0314886
0.0839232
-0.00779467
-0.0761286
0.0304446
-0.0015392
-0.0782049
0.0756069
0.00259796
-0.24863
-0.18371
0.0933115
-0.077834
-0.0154776
-0.07422
0.154083
-0.0798632
-0.0701959
0.0824297
-0.0122338
0.090308
-0.00831581
0.123226
-0.114148
-0.168818
0.282967
0.153721
0.0869281
-0.240649
0.0613144
-0.0519283
-0.00938611
-0.287534
-0.121695
0.409229
-0.122231
0.270319
-0.148088
0.432884
-0.12754
-0.451242
0.156563
0.0312219
-0.0147456
0.186983
0.16989
-0.0975974
0.196701
-0.39673
0.20003
-0.0136488
-0.0089253
0.0217184
0.00344322
-0.0983105
0.0186456
0.0796649
-0.000640394
-0.0233577
0.0239981
0.00473466
-0.392853
0.211436
-0.245105
0.497611
0.0812619
-0.0850337
-0.067652
0.0188798
0.334278
-0.162842
-0.126326
-0.191659
0.0317126
0.0442982
0.0801889
-0.124487
-0.472683
0.128088
0.231864
0.066613
0.0854294
-0.00903137
-0.0763981
-0.0263544
0.139011
0.174935
-0.399909
-0.0571605
-0.0538355
-0.0711003
-0.00710458
-0.383407
0.0154804
0.367927
-0.2181
-0.117824
0.119626
-0.186312
-0.0773089
0.002159
0.186435
-0.382027
0.195592
-0.0779161
-0.00844207
0.0863582
-0.0393241
0.0346972
0.208627
-0.0824538
0.00235625
-0.0124877
0.17672
-0.151766
-0.173332
0.325098
-0.0418938
-0.0287411
0.000395859
-0.276435
0.162287
-0.00446034
0.0508727
-0.0464123
-0.00456629
-0.00259077
0.0565377
-0.00579755
-0.0507401
-0.208466
-0.218132
0.426598
0.0300532
-0.0319141
-0.303726
0.1774
-0.0759956
0.139317
-0.0633213
0.0780586
-0.144626
0.0665672
-0.0370317
0.0419033
-0.00487162
-0.399946
0.254283
0.145663
-0.0289448
-0.0414394
-0.388342
0.1665
-0.0473795
0.154294
-0.0995925
-0.0273772
-0.366873
0.132834
0.142958
0.0581105
-0.201069
0.092783
-0.309688
-0.0902589
-0.108154
0.261875
-0.170128
0.0645807
-0.0812145
0.0981621
-0.0169475
0.172165
-0.410094
0.237928
0.0986317
0.0679415
-0.166573
0.0641838
0.0502082
-0.0638814
0.0691494
-0.307301
-0.0119693
-0.000736494
0.0734369
-0.146612
0.073175
-0.0685466
0.137795
0.368143
-0.181709
-0.035803
0.0322976
0.00350549
-0.0945201
-0.0759265
-0.0825675
-0.0522778
0.0699883
-0.0177105
0.00677886
-0.336382
0.184616
0.134999
0.236115
-0.100705
0.085718
-0.42877
0.03525
0.39352
0.366705
-0.173803
-0.192903
0.0441589
0.0789865
-0.234333
-0.244612
-0.25478
0.0637341
0.191046
-0.0473004
0.0685006
-0.0212002
-0.0837745
0.07238
0.0113945
-0.136559
0.0936835
0.0428758
0.013433
-0.0657108
0.127694
0.147993
0.0639912
-0.116331
0.0523395
-0.00722572
0.0213571
0.018378
-0.0213984
0.117873
-0.0964749
0.0406649
-0.0355138
-0.00515109
-0.0879466
0.0771248
0.0108218
0.42846
-0.232434
-0.196026
-0.156709
0.0692792
-0.479021
0.207284
0.091106
-0.0146445
-0.0764615
-0.0791645
-0.0236215
0.102786
0.239807
0.184754
-0.424561
-0.0074881
0.0671221
-0.199027
-0.167846
-0.113194
0.21641
-0.0787887
0.187005
-0.108216
-0.0182962
0.0161949
0.00210131
-0.0426513
0.00561962
-0.138505
0.0288709
0.109634
0.000862596
0.0553225
-0.0561851
-0.239801
-0.176429
0.416229
-0.073239
0.0834491
-0.0102101
-0.158087
0.220311
-0.217761
0.457568
0.306151
0.17004
-0.058566
-0.00394452
0.0625105
0.178158
-0.38273
0.204573
-0.031714
-0.106791
0.0327241
-0.112133
-0.158552
0.0826256
-0.0668937
0.0337649
0.0331288
0.153491
-0.116757
-0.0367337
-0.150909
0.0719238
0.0789851
-0.0100201
-0.00194911
0.145582
-0.0962418
-0.04934
0.0163456
-0.0764972
0.0458524
-0.103794
0.0506041
-0.0550644
-0.22423
0.147493
0.0767374
-0.0111365
0.0533507
-0.0851739
-0.115625
-0.0182444
0.0659048
-0.0476603
-0.219199
0.00236789
0.124827
0.0205681
-0.145395
0.00836328
0.0760992
-0.0755082
0.138824
-0.0633154
-0.0746364
0.0631738
0.0114626
-0.00155757
-0.131202
0.243724
-0.45152
0.180133
-0.00726124
-0.0236495
0.0309107
-0.0573863
0.0639918
-0.00660551
-0.0564691
-0.0231305
0.0230019
-0.0309194
0.00791748
-0.157473
-0.0667573
-0.443031
0.218774
-0.417989
0.019443
0.398546
0.17951
0.129942
-0.309452
-0.00134998
0.18866
0.158846
-0.0807878
0.01551
-0.193321
0.129794
0.0635272
-0.112722
0.0913233
0.0654306
-0.0574682
-0.0134158
0.070884
-0.0473645
0.00112027
-0.175052
0.371509
-0.196457
0.116896
0.0286859
0.154894
-0.0945423
-0.0603517
0.00299169
0.0903199
0.0318826
-0.313734
0.281851
-0.150961
-0.04794
0.198901
-0.237628
-0.213892
-0.0785765
0.085321
-0.00674447
-0.0218161
-0.00129683
0.0231129
-0.096017
0.238975
0.321901
-0.290018
0.0638886
0.00259448
-0.0664831
0.0903742
-0.0757258
-0.0146484
0.16564
-0.252189
0.0865494
0.195166
0.0291115
-0.0281756
-0.000935911
-0.34796
0.112699
0.235261
0.00484535
0.0111995
-0.270803
0.498869
-0.228066
0.0564003
-0.0653214
0.00892105
0.0152968
0.0290972
-0.044394
-0.0892202
-0.0714052
-0.0853033
-0.0988212
0.0617337
0.0370875
-0.569427
0.357232
0.212195
-0.00583964
0.00127336
0.0582015
-0.19718
-0.179313
0.376493
0.112695
-0.234071
-0.113549
0.066978
0.0465706
0.153838
-0.0533688
-0.0867571
0.0295966
-0.0773743
0.0842004
-0.452503
0.274818
0.177685
-0.433296
0.198472
0.234824
-0.00327593
0.0653608
-0.0620848
0.00993985
0.0379228
-0.0478626
-0.2051
0.363777
-0.158677
-0.214426
-0.0429015
0.413299
-0.252053
-0.161247
-0.0875626
0.075719
0.0118436
0.00754231
-0.0650105
-0.1211
0.313183
0.0712765
-0.00414959
0.151647
0.142823
-0.29447
-0.0279402
0.0279402
0.253143
-0.429572
0.00828315
0.0673786
-0.0756618
-0.0332271
-0.0655941
0.0308123
-0.0304309
-0.000381386
-0.0934697
-0.0892237
0.0250949
0.0155699
-0.181834
0.0691122
-0.317649
0.200134
0.117515
-0.00612543
0.081102
-0.0749765
-0.0392262
-0.120451
0.264061
-0.143611
0.0122869
0.283768
-0.1769
-0.538345
0.318838
0.219506
0.0205288
-0.0277545
-0.317755
0.042814
0.274941
-0.0292286
0.0363032
-0.0070746
0.0369624
-0.0139605
0.0246388
0.0451607
-0.0375768
0.0910085
-0.0822052
-0.00880329
-0.0396618
-0.0297264
0.130315
-0.268354
0.138039
0.126652
-0.0512347
-0.0754176
-0.100172
-0.0363874
-0.0389962
-0.0803931
-0.111396
0.193278
0.124887
-0.318165
-0.153292
0.283606
-0.0564763
-0.271828
0.328305
0.200468
0.167676
0.00442971
-0.0032381
0.00714723
-0.0544214
0.0472741
-0.220208
0.421246
-0.201038
0.371012
-0.174311
-0.0912214
0.203821
0.213783
0.0809184
0.106325
0.0729122
0.05374
0.00572407
-0.0731998
0.0562453
-0.0489718
-0.0072735
-0.0666052
0.0805288
-0.0139236
0.186503
0.221371
-0.407874
-0.165855
-0.170527
-0.0829465
-0.00641551
-0.080639
0.212881
-0.132242
0.127505
-0.107664
0.0636886
-0.315287
-0.223058
-0.0743964
0.194022
0.409574
-0.13359
-0.132633
0.0534683
-0.0113342
0.0718456
-0.0605114
-0.0117697
0.0146604
-0.00289073
-0.00242854
0.0308355
-0.0104198
0.0556628
-0.00242129
0.00893323
-0.00651194
-0.538454
0.342364
0.19609
0.0586522
-0.0103819
-0.0359258
0.0463077
-0.171904
0.269039
-0.08329
-0.0985439
-0.000297721
-0.150663
0.374297
-0.173829
-0.0623763
0.0144502
0.0073371
-0.318054
-0.251373
-0.0748882
0.063862
0.0110262
0.130089
0.0890139
-0.219103
-0.13665
0.276188
-0.139538
-0.0695409
0.0620529
-0.205904
-0.142055
-0.0413144
0.12819
-0.0868755
0.0326276
-0.225765
0.193138
-0.0467621
-0.00639456
0.0531567
0.12439
-0.198786
-0.0258647
0.0506852
-0.0248205
-0.067884
0.0205836
-0.0109184
-0.0509072
0.0618256
-0.179916
0.141037
0.0388796
0.0528413
-0.0375445
0.065575
-0.0805161
0.123284
0.109617
-0.2329
-0.122866
0.261334
-0.138468
0.0602164
0.00491462
-0.065131
0.00118298
0.0494211
0.390671
-0.212513
-0.0571718
0.061408
-0.0272936
-0.0299806
0.0572743
-0.267569
0.131131
0.136438
-0.0794873
-0.0935552
0.173042
0.116762
-0.16104
0.0442773
-0.0328324
0.0012031
0.0316293
-0.251506
-0.200998
-0.141444
0.293091
-0.075244
-0.00333251
0.1132
-0.188793
0.0755924
-6.67537e-05
-0.0918326
0.0918993
0.200129
-0.420337
-0.00578769
0.062188
0.0847317
-0.369013
0.284281
0.0954843
-0.276071
0.180587
-0.0034234
0.00485877
-0.0124086
-0.0603948
0.0728034
-0.326266
0.26979
0.214648
-0.400967
0.186319
0.0807513
-0.0963189
0.290457
-0.115362
-0.0573978
0.119251
-0.0618527
-0.549507
0.31956
0.229947
0.0577874
-0.0566044
0.0765589
0.0301408
-0.028954
-0.00118683
0.317622
0.158568
-0.445789
-0.134783
-0.0944392
-0.46164
0.0266636
0.00993466
-0.0153786
0.0133437
0.00203492
-0.0394746
0.0616232
-0.0221486
-0.000674603
-0.0933566
0.00127919
0.0920774
0.000332508
0.0500739
-0.0955723
0.0454983
-0.0940873
0.0799953
0.014092
-0.325642
-0.223866
-0.0728719
0.349732
0.00329369
0.0361755
-0.0394692
-0.0102241
0.0604656
-0.311462
-0.00629354
-0.0711888
0.233265
-0.37874
0.145475
0.0614242
-0.0188278
-0.0425965
-0.169094
0.392028
-0.222935
0.320974
-0.22549
0.279866
-0.0827014
-0.197165
-0.0332634
-0.0311624
0.0644258
0.0307687
0.0233074
-0.0540761
-0.245998
0.0588969
0.187101
0.449476
-0.229309
-0.220167
0.244486
0.20499
0.0503099
-0.00940124
0.0613057
-0.152101
0.058017
0.0940841
0.0663102
0.0618605
-0.0811452
0.0716954
0.00944981
-0.136033
0.162382
-0.0263492
-0.397536
0.218023
-0.0584338
-0.00261246
0.0269951
0.0680597
0.0663203
-0.13438
-0.200692
0.387195
0.241486
0.1733
-0.414786
0.150491
0.107265
0.0941653
0.0593253
-0.00105922
-0.0563271
-0.00827033
-0.000523908
0.00879424
0.0500538
-0.0676747
-0.135808
0.0645453
-0.019638
0.173675
-0.350933
0.177258
0.0100654
-0.385896
0.375831
-0.0634014
0.113516
-0.23262
-0.00615384
0.0020528
-0.0396068
0.0323456
-0.00233605
0.0209188
0.055582
-0.111584
0.0560024
0.021387
0.0399274
-0.129231
-0.113071
0.242302
0.21566
-0.183033
0.0919564
-0.105547
0.0135902
0.0165
0.073084
0.00042218
-0.0276612
-0.223031
-0.169822
0.117122
-0.0531308
0.00598504
-0.047578
0.041593
-0.102422
0.232511
-0.00161844
0.0289217
0.00121907
-0.388383
0.21929
0.535428
-0.302106
-0.233322
0.102522
0.0178548
-0.403915
0.220215
0.1837
0.155962
-0.0034818
0.0563231
-0.0543112
0.032527
0.0217842
0.001904
-0.00603688
0.00413288
0.00717793
0.0593303
-0.0665082
-0.0776827
0.0804606
-0.00277788
-0.025405
-0.0285816
0.000657748
0.0279238
-0.338698
0.212691
0.126007
0.101794
-0.0246309
-0.0771631
-0.326659
0.160804
-0.143992
-0.0359241
0.0190526
-0.0223198
0.00326721
0.421728
-0.180242
0.0518684
0.00151484
-0.0533832
0.186241
0.104216
0.133124
-0.00143175
0.0551005
-0.0441091
0.0977167
0.0825638
-0.180281
0.536375
-0.314098
-0.222278
0.0949034
0.0116872
0.0861078
-0.263834
-0.0664632
-0.00475009
0.0617522
-0.00153579
0.245183
-0.156169
-0.0727577
-0.0205989
-0.00303128
-0.511023
0.329253
0.18177
-0.0324546
-0.0836887
0.116143
-0.0523377
-0.0553264
-0.191021
0.375775
-0.187489
0.278749
-0.0912602
-0.224907
0.213518
0.0113897
0.00195882
-0.0468623
0.0550179
0.306103
0.217652
-0.450087
0.107432
-0.107499
-0.00384499
0.000421589
0.461771
-0.0709881
-0.390783
-0.110235
-0.193491
-0.00249068
0.00249068
0.177005
-0.374185
0.170904
0.221124
0.0551202
-0.0609079
-0.0248855
-0.0036961
0.0629753
-0.00848789
-0.0544874
-0.415065
0.197305
-0.189049
-0.208487
0.00434885
-0.107682
-0.159887
-0.199842
-0.196977
0.39682
-0.00201902
0.0320113
-0.0299923
-0.0772055
0.0913484
-0.0141428
0.00412938
-0.0240956
-0.0437589
-0.0264951
0.110374
-0.0838789
-0.00287142
-0.243127
0.0775924
0.0526181
-0.130211
0.131548
-0.287067
0.155519
-0.0825349
0.0133692
0.320174
-0.146499
-0.00139551
-0.0100118
0.112238
-0.0559421
-0.0562961
-0.0498976
-0.120234
0.170132
-0.036139
0.0354941
0.000644912
0.0015104
0.0630694
-0.0645798
0.0423985
0.0632586
-0.105657
-0.080468
0.0531744
0.101236
-0.045654
-0.150901
0.0590683
0.149445
-0.231518
0.097413
0.134105
-0.406513
0.217464
0.0509263
-0.202539
-0.183973
-0.0825183
-0.0563363
0.0855405
-0.132456
0.297478
-0.165022
-0.0324017
0.0383868
-0.0567898
-0.0528086
0.109598
0.0220741
-0.0240931
0.0398656
-0.0502854
0.0600744
-0.124017
0.063943
-0.0570603
0.0646026
-0.0737446
0.365854
-0.264733
-0.24629
0.143154
0.0867802
-0.229934
0.053249
-0.0634732
0.00541344
0.11738
-0.213962
-0.0960262
0.247392
-0.151366
-0.0376822
0.0347591
0.00292313
-0.0939095
-0.173799
0.267708
-0.170219
-0.17059
0.34081
-0.231486
0.0733982
0.053536
-0.0629373
0.154363
-0.0962522
-0.011084
-0.0389234
0.0500075
-0.255275
0.16203
0.0932453
0.0940905
-0.137106
0.0430153
0.0307635
-0.0331921
0.168329
-0.266285
0.172375
-0.367489
0.162389
-0.475981
0.188446
-0.00161451
0.00503896
-0.00342445
0.0488021
0.0110681
0.00724963
0.00199437
-0.00924399
-0.194024
-0.0252384
0.00248628
-0.0043936
0.00190731
-0.0055719
0.027646
0.00248633
-0.0243555
0.0226053
-0.00355273
0.110424
-0.0680259
0.0303221
-0.0305245
0.00020241
0.271171
-0.120641
-0.150529
-0.141995
0.0515926
-0.0988324
0.155569
-0.0567368
0.0894306
-0.0743433
-0.0150873
0.0520368
-0.0629552
-0.124144
0.042056
0.0653763
-0.0775973
-0.0733035
-0.0227989
0.0539404
-0.0868171
0.275869
-0.189052
0.160312
-0.31281
0.152498
-0.0307229
-0.00695933
-0.398106
0.197414
0.19596
-0.0104596
0.0442245
-0.0720347
0.204585
-0.13255
-0.0884665
0.0779765
0.01049
-0.00693329
0.130537
-0.202572
0.135163
0.0315165
-0.166679
0.151537
-0.0163746
-0.257876
-0.0808219
-0.0292535
-0.0830809
-0.0512308
0.119619
-0.0683881
-0.532991
0.317096
0.215895
-0.0524598
0.025994
-0.0429804
0.0366529
0.00632748
-0.0595086
0.0677918
0.101376
-0.177474
0.0760976
-0.0334799
0.000647465
-0.0419121
-0.00484997
0.0287144
-0.107393
0.0786784
0.301645
0.118407
0.170962
-0.289369
-0.042664
-0.0220756
0.0647396
0.293752
-0.211149
-0.0826026
0.221114
0.314314
0.109483
-0.242266
0.132783
0.163887
-0.296344
0.0989527
0.172218
0.398934
-0.215274
-0.236456
-0.101342
0.0479043
0.0534375
-0.302942
0.505254
-0.202312
0.333843
-0.323778
0.00834306
-0.0728315
0.152395
-0.297382
0.156546
0.52056
-0.201
0.126941
-0.276654
-0.0137375
0.290391
-0.216328
0.0815446
-0.0971691
0.240323
-0.366453
0.194873
0.17158
-0.00890575
-0.0340747
0.0997511
0.0682032
0.00307323
-0.429415
0.191787
0.174832
-0.0616313
-0.0794224
-0.0671895
-0.188499
0.0950295
0.103471
-0.074757
0.0218467
-0.146084
0.0398664
-0.0219294
0.00437972
0.00702759
0.0259301
-0.0285426
0.407221
-0.234857
-0.172365
0.141196
-0.0622365
0.0227619
0.081085
-0.0507808
-0.0303042
0.00457016
-0.203511
-0.194595
-0.143783
-0.14215
0.0772086
-0.161211
0.0840027
0.144354
-0.273476
0.129122
-0.010027
-0.032992
0.043019
-0.00184735
-0.0109483
-0.14065
0.27363
-0.13298
-0.392358
0.115704
0.0234865
-0.0258226
0.00365769
-0.00175369
-0.0757534
0.0912338
-0.0154803
0.0215265
0.0682758
-0.0357136
0.00648494
0.0137713
-0.00669292
-0.00707837
-0.00430955
-0.190903
0.195213
-0.0729277
-0.0675491
-0.0779253
-0.0163971
0.0075599
0.0843965
-0.0700958
0.0716062
-0.220874
0.124857
0.0961666
0.107909
-0.204076
0.049604
-0.0188353
0.0316583
-0.083996
-0.280665
0.24463
-0.409636
0.165006
-0.228834
0.127791
0.101043
0.221038
0.299522
0.173318
-0.0484911
-7.34703e-05
-0.0238321
0.0607335
-0.122335
0.0616015
-0.192007
0.299477
-0.107469
-0.0813435
-0.281144
0.113466
0.167679
0.106263
-0.168849
-0.0626684
-0.0367994
-0.0175117
0.0312887
-0.00236699
0.108014
0.12246
-0.230474
0.096068
-0.191138
0.0950702
0.00334744
0.0580768
-0.174441
-0.217112
0.087881
0.184053
0.282649
-0.151101
0.00245531
0.0288334
-0.175977
-0.0518075
-0.0736839
-0.0561468
0.129831
-0.212655
0.144545
0.0681105
0.000701
-0.0027084
0.0020074
-0.308554
0.262491
-0.130435
-0.132056
0.00460831
0.0214328
-0.122658
0.104186
0.018472
0.0339038
-0.440405
0.376057
0.0643475
-0.0229982
0.00118213
0.183425
-0.383267
0.160272
-0.285519
0.125247
-0.0131241
0.00276028
0.0103638
0.20527
0.122028
-0.327298
0.0138814
-0.0157288
0.224574
0.196673
-0.00591562
0.0610359
0.0311849
-0.0331145
0.00192959
0.0802347
-0.0892141
0.00897937
0.00511539
-0.0418459
-0.00551864
0.00473893
-0.0819242
0.027573
-0.241489
-0.187926
0.222932
-0.227241
0.410526
-0.185952
-0.0896696
0.00672307
0.427168
-0.240031
-0.187137
-0.0773307
-0.00200545
0.0793362
-0.0801128
-0.0136879
0.0783033
0.0120709
0.168265
-0.340478
0.172214
0.121764
-0.0797083
-0.21514
-0.188775
-0.497678
0.179624
-0.199632
-0.025275
-0.222307
-0.228935
-0.0732093
0.171841
-0.154026
0.0551932
-0.183266
-0.183186
0.209671
-0.36565
0.155979
-0.0770583
0.0210841
0.0559741
-0.486852
0.046447
0.0172031
-0.0883381
0.071135
-0.13029
0.0806773
-0.0316089
-0.0490685
0.33275
-0.198411
-0.13434
-0.0137435
-0.0239852
0.0377286
0.0156406
0.0605376
-0.0464067
0.0497004
0.0876149
-0.0768431
-0.0107718
0.11465
0.0647032
-0.0146495
0.00492897
0.0121799
0.052316
0.070094
-0.12241
0.00362752
-0.000709653
-0.00291786
0.394222
-0.157826
-0.236395
-0.0476731
-0.0147032
0.016844
0.384154
-0.23155
-0.152604
0.0198124
-0.0945904
0.074778
-0.12454
-0.0994659
-0.0300565
-0.00565706
0.049472
0.0636727
-0.113145
-0.139856
-0.184438
0.324294
-0.0848932
0.329524
-0.0845907
-0.00507889
-0.156853
0.0760294
0.0808234
0.0341196
0.0465578
0.425903
-0.226752
-0.199151
0.0502449
-0.0705819
0.020337
-0.0924311
0.325361
0.0964448
-0.000593711
-0.00169933
0.00229304
-0.208111
0.050638
-0.149356
-0.0633062
-0.0429377
0.0459449
-0.102735
-0.0515691
-0.0942072
0.145776
0.000754009
0.0418151
0.0607068
0.327011
-0.123089
-0.203922
0.0708838
-0.0206389
-0.409789
0.206277
-0.246803
0.418181
-0.171378
-0.00554464
0.0850127
-0.0794681
-0.189491
0.109526
0.0799645
0.227757
0.156397
-0.0658089
-0.0106054
-0.106151
-0.0762767
0.0908178
-0.0145412
-0.0218807
0.00233923
0.0195415
0.397569
-0.20727
-0.190298
0.0137961
0.171463
0.221757
-0.39322
0.466712
-0.256908
-0.209804
0.219641
-0.139845
-0.0797967
-0.0140747
0.139805
-0.12573
0.189174
-0.111663
-0.0775105
0.068147
-0.00997715
0.00293414
-0.0618229
0.0588887
-0.10072
-0.0219381
-0.237828
-0.295163
0.000157556
0.0538363
-0.0177163
-0.03612
-0.014728
-0.00403614
-0.107756
0.313026
0.359389
-0.166111
0.0820581
0.114709
-0.145105
0.197902
-0.0617067
-0.122524
-0.139476
0.125401
0.074929
0.0775076
-0.152437
-0.212097
0.13034
0.113187
-0.243527
-0.0950321
-0.125842
-0.198525
0.41874
0.133236
-0.0651758
-0.113227
0.257581
-0.125503
-0.162245
0.287748
0.0086009
-0.0842585
0.0511547
-0.0569522
-0.054805
-0.0465368
-0.0179332
-0.00394753
0.0898703
-0.00963561
-0.0818447
0.0836283
-0.00178358
0.195909
0.0346547
-0.0285634
-0.00609125
0.0612953
0.0145171
0.0249093
-0.0823072
0.141186
-0.0733297
-0.0678565
-0.0758578
0.0737211
0.00213676
0.00438645
0.0302682
-0.0683573
0.0142603
0.0540969
0.424423
-0.171279
0.0721488
-0.107132
0.00367197
0.00199478
0.00613268
-0.00812746
0.0675693
-0.00627404
0.312941
-0.17447
-0.138471
-0.00975871
0.0736473
-0.0579208
-0.16431
0.0447373
0.149724
-0.236541
-0.0805325
0.090782
-0.0102496
0.0728346
-0.147055
0.118748
-0.0458359
0.127432
0.0617418
-0.0510818
0.114596
-0.0635146
-0.00182313
-0.0064472
-0.058855
-0.00876748
0.0676224
-0.121964
-0.136334
0.258298
-0.111155
-0.159865
0.271019
0.238559
0.327292
-0.187816
-0.139476
0.072242
-0.0681712
-0.00407089
0.144279
-0.204578
0.0602996
0.0859951
-0.0765591
-0.00943597
-0.12582
-0.108325
0.305438
-0.141359
-0.164078
0.446666
-0.0244769
-0.304954
0.0598615
0.245093
0.0684717
-0.00554523
-0.125892
0.052208
0.0791466
-0.0091838
-0.0699628
-0.14834
0.283061
-0.134721
-0.253788
0.0597641
0.0936207
0.00817325
0.0665163
-0.0855779
0.0190616
0.00448106
-0.231366
0.444043
-0.212676
-0.279141
0.157177
0.052126
-0.0556078
0.177788
0.102078
-0.144549
0.339248
-0.194699
0.090403
0.242972
-0.437267
0.194295
0.00261157
0.0203615
-0.0229731
-0.151051
0.314939
0.0852517
-0.0187354
0.00729238
0.0517623
-0.0590547
-0.236748
0.127719
0.0137048
-0.0106245
-0.0330386
0.043663
0.458085
-0.213599
0.230422
0.211142
-0.441564
0.0628458
0.0515231
-0.114369
-0.156772
-0.15561
-0.0081309
0.0869554
-0.0788245
0.260904
-0.0990971
-0.161807
-0.0567093
0.00120205
0.0555072
-0.00405071
-0.0739296
0.0779803
0.155716
0.1339
0.0938281
-0.227728
0.00284609
-0.228193
-0.247787
0.00505831
-0.00667283
0.00986977
0.0419986
0.163678
-0.289181
-0.0390742
-0.0471787
-0.0491627
0.0568472
-0.00768446
0.0842206
0.0321924
-0.0539625
0.0217701
0.266106
-0.402109
0.136003
0.115866
-0.0658121
-0.0500541
-0.0872078
0.0114544
0.0584141
-0.00457785
0.209454
0.137263
-0.087984
0.160011
-0.117433
-0.0425773
0.152847
-0.0514708
-0.159033
0.322381
-0.163348
0.000439117
0.000429652
-0.000868769
0.008765
0.0881482
0.0659349
0.0314709
-0.00114881
0.375824
0.157016
-0.0285029
-0.128513
-0.17877
-0.138879
-0.0968487
-0.0287226
-0.26563
0.139648
0.138072
0.12442
0.227337
0.309038
0.531944
-0.302369
-0.229576
-0.0602993
-0.0572083
0.000499087
-0.183166
-0.0319583
0.215125
0.120467
-0.241064
0.120597
-0.227269
0.124847
-0.00264295
0.0326962
0.0824316
0.0938357
-0.16028
0.066444
0.00733562
-0.0451617
0.0539339
-0.00877215
-0.106632
0.0555506
-0.356563
-0.118475
0.266697
-0.0334319
0.0111323
-0.0768761