/*--------------------------------*- C++ -*----------------------------------*\
| =========                 |                                                 |
| \\      /  F ield         | OpenFOAM: The Open Source CFD Toolbox           |
|  \\    /   O peration     | Version:  v2012                                 |
|   \\  /    A nd           | Website:  www.openfoam.com                      |
|    \\/     M anipulation  |                                                 |
\*---------------------------------------------------------------------------*/
FoamFile
{
    version     2.0;
    format      ascii;
    class       volVectorField;
    location    "350";
    object      U_0;
}
// * * * * * * * * * * * * * * * * * * * * * * * * * * * * * * * * * * * * * //

dimensions      [0 1 -1 0 0 0 0];


internalField   nonuniform List<vector> 
18618
(
(0.995611 0.0199078 -1.14148e-22)
(1.11768 0.0319214 0)
(1.02067 0.0155548 3.66817e-21)
(0.981384 -0.0030183 7.58926e-21)
(0.999482 0.0173322 9.0046e-21)
(0.955966 -0.0130782 -8.14513e-21)
(1.18825 0.131954 -6.26428e-20)
(0.370954 0.016588 0)
(1.09238 0.0143326 0)
(1.08172 -0.00505181 -2.25973e-20)
(0.999996 0.0171666 0)
(0.991811 0.0186533 -4.10013e-21)
(1.00834 0.000532682 -2.97263e-21)
(0.993243 0.0205058 -1.58392e-20)
(1.00306 0.00878215 -3.18139e-21)
(0.954016 -0.0167877 1.17636e-21)
(1.02277 0.0143277 2.69707e-22)
(0.995354 0.0198737 1.123e-20)
(1.0178 0.00528626 0)
(1.08759 0.00191049 1.79667e-20)
(1.00337 0.00879712 0)
(0.495425 0.00321726 1.00771e-19)
(1.01412 0.0038188 0)
(0.992304 0.0175957 9.22159e-21)
(1.1658 0.254601 0)
(1.0931 0.0140247 -1.63996e-20)
(1.08601 0.110723 0)
(1.01261 0.52093 -3.27401e-20)
(0.923477 0.221228 1.3637e-20)
(1.02014 0.0157625 -3.4373e-21)
(0.989356 0.0360151 1.14036e-20)
(1.00943 0.0291056 -3.79266e-21)
(1.05259 -0.00380473 -5.9824e-21)
(1.00542 0.00597587 -3.23987e-21)
(0.917548 0.0171095 -2.41543e-20)
(0.961464 0.0224879 0)
(1.01417 0.0145188 -2.0401e-21)
(1.10683 -0.000576326 4.27001e-20)
(0.405023 0.0117864 1.72248e-21)
(1.01395 0.00412905 -4.31895e-21)
(-0.0335348 -0.01239 6.70141e-20)
(0.565135 -0.00513684 -2.78558e-21)
(0.737173 0.0341976 -2.98388e-20)
(0.888468 0.0457997 2.66929e-20)
(1.05451 0.0402518 -6.01556e-21)
(0.890302 0.0302896 1.84801e-20)
(0.529383 0.0182944 0)
(0.975837 0.0991365 -1.76293e-20)
(1.0982 0.0723767 5.2821e-21)
(1.07386 0.0293934 5.50272e-20)
(1.08193 0.119789 1.32449e-20)
(1.01881 0.0281033 0)
(1.03196 0.153192 6.28696e-21)
(0.915463 0.198905 0)
(1.11318 0.000607621 -4.69809e-21)
(1.10417 -0.00430126 0)
(0.987349 0.164622 0)
(1.07708 0.00480293 7.6528e-21)
(-0.04082 -0.0134144 -6.76161e-20)
(1.13289 0.00681266 0)
(0.184424 0.00192087 -4.00807e-20)
(1.17816 0.0860044 -4.41036e-20)
(1.0972 0.0761487 3.99491e-21)
(1.00388 0.00126976 0)
(1.1496 0.0951624 0)
(1.11322 0.0728467 -1.03135e-20)
(1.1269 0.0138622 0)
(1.05576 0.0361996 6.24397e-21)
(1.00881 0.000623532 -6.05424e-21)
(-0.0242146 -0.0141944 4.95867e-20)
(1.08338 0.0162804 8.67486e-21)
(1.01751 0.00538528 7.09159e-22)
(0.998801 -0.00182081 -9.44145e-21)
(1.09476 0.00416019 0)
(0.255761 0.0141838 0)
(0.935715 0.0189944 0)
(0.997538 -0.00428751 0)
(0.992111 0.0102394 -1.12844e-20)
(1.01019 0.00566381 1.0434e-20)
(1.11536 0.077528 6.34648e-21)
(1.04194 0.0291363 2.89631e-21)
(1.00554 0.00580556 6.52733e-21)
(0.977381 -0.0118836 9.54467e-21)
(0.976367 0.0461117 1.19054e-20)
(0.42498 -0.000486916 -9.91161e-20)
(1.01449 0.0158358 0)
(1.14602 0.0819842 -1.1437e-20)
(-0.0099661 -0.0157168 -3.88314e-20)
(1.17852 0.0850707 4.57987e-20)
(0.00123855 0.148395 -6.18046e-20)
(1.00954 0.0129283 0)
(0.210916 0.000970888 3.42366e-20)
(1.08549 0.0129465 0)
(1.01287 0.00543462 -4.47091e-21)
(0.274343 0.00277027 -3.1154e-20)
(1.18221 0.0977531 0)
(0.988616 0.0347697 0)
(1.08594 0.012723 -2.49248e-20)
(1.00447 0.000381511 0)
(0.62372 0.022013 0)
(1.07924 0.029358 -5.31151e-20)
(0.131475 0.104811 0)
(1.00924 0.0279472 0)
(1.08521 0.0132142 1.50099e-20)
(0.935633 0.221752 8.40797e-21)
(1.0956 0.0301618 1.90774e-20)
(1.15756 0.245254 3.50444e-20)
(1.0062 0.00079128 1.12652e-24)
(1.1778 0.0965035 -3.80986e-20)
(1.18562 0.102438 3.14138e-20)
(0.0321715 -0.010828 2.34564e-20)
(1.04333 0.0105863 0)
(0.560807 0.0146558 0)
(0.860442 0.071538 -3.26963e-20)
(0.990218 0.0050478 5.03127e-21)
(1.01369 0.00435664 -1.31635e-21)
(1.18129 0.139852 3.82395e-20)
(0.980627 -0.00237033 0)
(1.0312 0.157652 2.84622e-21)
(0.345516 0.0191579 0)
(0.934508 -0.010648 -2.73047e-20)
(1.02219 0.0317856 3.65267e-22)
(1.04506 0.0278255 4.36515e-21)
(0.964964 -0.00450837 0)
(1.09003 0.0407382 -2.49343e-20)
(1.10811 0.0512608 4.91496e-21)
(1.03583 0.0536028 0)
(1.14794 0.100909 0)
(1.1498 0.137145 -3.50702e-22)
(1.08015 0.00186533 -3.57858e-20)
(0.714734 0.0474193 0)
(1.1052 0.0182919 1.76842e-20)
(1.08597 0.00308552 -5.25107e-21)
(0.989776 0.15412 3.61026e-21)
(1.00647 0.00900645 3.09311e-21)
(1.06434 0.0222613 1.26753e-20)
(0.999649 0.00537625 4.29127e-21)
(0.0519926 -0.0123105 -1.10471e-20)
(0.6881 0.096568 5.45686e-22)
(0.995306 0.0144227 0)
(0.28125 0.00865902 -6.61222e-21)
(1.18572 0.103757 2.65725e-20)
(1.00997 0.00532872 -5.44955e-21)
(1.00517 0.000769949 -4.54283e-23)
(1.04279 0.0113292 2.44042e-21)
(0.990502 0.00453597 -1.01333e-20)
(1.01205 0.00139219 1.34788e-21)
(0.978356 -0.011711 -2.96053e-22)
(1.00456 0.000477973 -4.95785e-21)
(0.979932 0.0213864 -1.10112e-20)
(1.11086 0.00619883 1.48616e-22)
(0.998759 0.018022 2.36878e-21)
(1.04918 -0.00643914 -5.11031e-21)
(0.961013 0.0124666 0)
(1.04385 0.0278123 -1.25753e-21)
(0.313854 0.00475308 -6.62279e-21)
(1.01906 0.0100026 0)
(1.05603 0.0824686 -5.35985e-21)
(1.01924 0.025485 0)
(1.05476 0.637103 -2.66643e-20)
(1.08896 0.0383151 3.22587e-20)
(0.981864 0.0972103 -3.50125e-21)
(1.09286 -0.0193119 6.54494e-20)
(1.12608 0.0185418 -2.40825e-20)
(0.989258 -0.00132572 0)
(0.965598 0.0768503 -4.63806e-21)
(0.975263 0.0455993 -2.46708e-21)
(0.373087 -0.0140229 -4.17516e-20)
(0.986275 0.00859356 0)
(1.08577 0.0122194 3.32158e-20)
(0.999997 -1.16971e-05 -1.87775e-20)
(1.05094 -0.00346882 -1.09782e-20)
(1.1119 0.0682439 -4.01824e-20)
(1.12572 0.193654 4.17223e-20)
(0.704403 0.0375041 -4.59003e-21)
(0.981512 -0.0100935 1.93772e-21)
(0.978273 0.382146 -8.71495e-21)
(0.96048 0.0117652 8.94333e-21)
(1.00207 0.000300115 -2.63485e-21)
(1.05778 0.0431715 9.17025e-21)
(1.10913 0.00735826 4.57396e-20)
(0.919657 0.0167939 0)
(1.06739 0.564003 0)
(0.998825 -0.00155582 -9.25726e-21)
(1.00134 0.000236425 -6.80081e-21)
(0.949353 0.110392 8.24856e-21)
(1.12449 0.0176074 -2.11314e-20)
(0.800301 0.334937 0)
(1.14299 0.0861493 1.12613e-20)
(0.994062 0.0204578 6.79209e-21)
(0.999484 0.00620101 9.1958e-21)
(0.912912 0.0741557 -3.41472e-20)
(0.964691 0.0808337 3.95348e-21)
(1.02291 0.0146896 -3.66607e-22)
(1.01008 0.00518469 0)
(1.10426 0.00895223 2.77499e-20)
(0.995232 0.0148383 4.78734e-21)
(0.988284 0.0359994 7.31037e-22)
(0.537721 0.0305726 0)
(1.05603 0.0388416 1.21541e-20)
(1.10789 0.0500259 6.21506e-22)
(0.751273 -0.00643742 0)
(1.0897 0.00294955 0)
(0.511476 0.0323493 0)
(0.948349 0.3997 1.34318e-21)
(0.965981 0.0466859 1.77192e-21)
(0.330605 0.00557639 2.64235e-20)
(0.136733 0.107264 8.81181e-20)
(1.00057 0.000123996 -1.12628e-20)
(1.01423 0.00514306 -2.93242e-22)
(1.14436 0.11056 0)
(1.13759 0.109085 1.84752e-20)
(1.01106 0.0496472 2.97662e-21)
(1.01192 0.00132001 0)
(0.995647 0.027451 1.34718e-20)
(0.999776 -0.00158072 -3.44067e-21)
(1.06105 0.0243952 0)
(1.17849 0.249215 1.054e-20)
(0.935909 -0.0042759 1.73097e-21)
(1.02552 0.0231689 2.55409e-22)
(0.981234 0.021813 0)
(1.04334 0.0289259 1.53116e-21)
(0.493306 -0.00377145 0)
(0.999569 -0.00232314 0)
(0.00149871 -0.0146062 -5.15294e-20)
(0.988741 -0.000967167 -8.05372e-23)
(1.02159 0.0317448 0)
(1.11699 0.0878997 0)
(1.14335 0.137095 3.08994e-20)
(1.05707 0.0343922 -4.61984e-22)
(0.972913 0.0499042 -1.9207e-20)
(1.05903 0.0395718 -3.84584e-21)
(1.00615 0.000785387 -4.6404e-21)
(0.301927 0.00731172 -3.35933e-20)
(1.05785 0.0437626 0)
(1.0008 0.00121332 7.15981e-21)
(0.99817 -0.00254961 -9.64566e-21)
(1.08456 0.012412 -2.44316e-20)
(1.08839 0.00466249 3.34734e-20)
(1.03525 0.0143867 -3.04085e-21)
(1.11651 0.035687 -1.78044e-20)
(1.01895 0.027154 0)
(0.998265 0.0042735 -4.07299e-21)
(0.592771 0.0248487 -2.12329e-22)
(1.07743 0.0032896 0)
(1.05634 -0.0160272 -2.20824e-21)
(1.1055 0.0108151 -1.35209e-20)
(1.00083 0.00116569 0)
(0.0395307 -0.0122943 0)
(0.979044 -0.00438537 -1.09434e-21)
(1.01267 0.0051811 -8.74593e-21)
(0.552837 -0.000210623 0)
(0.9807 0.100646 -7.95205e-21)
(1.10511 0.0174866 4.82614e-20)
(1.06894 0.0218313 8.41715e-21)
(1.03618 0.0552476 0)
(1.08693 0.0132987 0)
(0.998039 0.00468918 4.61889e-23)
(1.01383 0.00290276 -3.74389e-21)
(1.02571 0.023797 -7.60216e-23)
(0.990248 0.00550477 1.24008e-22)
(1.06053 0.0243669 0)
(1.17896 0.248874 -1.02341e-20)
(0.924676 0.0095565 -2.1912e-20)
(0.524898 0.0029793 0)
(1.10595 0.00359642 0)
(1.08918 0.0133011 0)
(0.973642 0.100667 4.70156e-21)
(1.11062 0.0603255 2.48159e-20)
(0.899515 0.0546121 -2.00646e-20)
(1.11531 0.0940412 2.38585e-20)
(0.999574 0.00510312 5.92863e-21)
(1.01969 0.0393575 0)
(0.990695 0.00576456 1.09895e-20)
(0.999977 -5.61611e-05 8.25964e-21)
(0.925847 0.0535874 1.83315e-20)
(1.06683 0.0395109 -1.36742e-20)
(0.98232 0.0282408 -5.92272e-21)
(1.02678 0.0183694 -2.90619e-23)
(0.491756 -0.00086899 2.37409e-20)
(1.0021 0.00439154 0)
(1.07817 0.00973803 1.53104e-20)
(0.985403 0.00341196 0)
(0.996854 0.0414348 0)
(0.475216 0.0105746 0)
(0.979427 -0.00388236 2.58656e-22)
(1.01189 0.0150567 -4.22396e-21)
(0.91549 0.16326 -1.54404e-20)
(1.08802 0.0362908 7.93338e-21)
(1.08551 0.0167799 4.3023e-20)
(1.02123 0.00881146 1.26324e-21)
(1.08074 0.0221119 1.71992e-21)
(0.98307 -0.00123815 2.07948e-20)
(1.04896 -0.00770955 0)
(0.790144 0.165752 3.35859e-20)
(1.1266 0.204381 -4.05346e-20)
(0.316455 -0.00189713 0)
(1.08436 0.030799 0)
(1.07371 -0.0129977 -8.78338e-20)
(1.01002 0.0261749 7.13158e-21)
(0.953908 0.114078 -8.77714e-21)
(1.00408 0.00123835 2.42087e-21)
(1.06925 0.0754349 -1.54106e-20)
(0.965125 0.0466668 -1.50579e-21)
(1.00045 0.00416984 0)
(1.00058 0.000129649 1.01643e-20)
(0.988445 0.0131316 8.73991e-21)
(0.755967 0.0415482 0)
(1.11371 0.071392 4.93895e-20)
(1.0581 0.0108533 0)
(1.09311 0.00634691 -5.19985e-24)
(1.01398 0.00302248 2.18441e-21)
(0.810902 0.350982 -1.86722e-20)
(0.999627 -0.00205013 0)
(0.998616 -0.00252186 -6.24029e-22)
(0.99468 0.014148 -2.45227e-21)
(0.997883 0.0406903 3.90077e-21)
(1.05136 0.00146197 -3.28133e-22)
(1.0738 0.00450492 1.35566e-20)
(1.16856 0.0852887 -1.68127e-20)
(1.01182 0.0010274 -8.41549e-21)
(1.10913 0.00841445 5.61985e-23)
(0.999011 0.00187204 0)
(0.694631 -0.00693061 3.64147e-21)
(0.999205 -0.00141424 9.10433e-21)
(1.10085 0.00549689 5.99484e-20)
(1.12339 0.0198602 1.89777e-20)
(0.994018 0.0144398 1.32944e-20)
(1.032 0.00970962 1.32846e-22)
(1.13052 0.365478 3.82226e-20)
(1.03466 0.113431 0)
(0.647553 0.144667 -1.92683e-20)
(0.988762 0.0137484 -1.04041e-22)
(0.998441 -0.00256581 6.24729e-22)
(1.06516 0.0227583 -7.28591e-21)
(0.999526 0.00555242 -1.71067e-20)
(1.13881 0.00301302 7.74156e-20)
(1.00988 0.0513076 -2.03288e-21)
(1.03475 0.0144789 3.12332e-21)
(1.08174 0.0143533 -3.26652e-20)
(1.07957 0.0194111 -4.09259e-22)
(1.09679 0.0798522 -9.6024e-21)
(0.615464 0.0816836 3.92394e-20)
(1.10669 0.137705 0)
(1.00038 0.00399767 0)
(1.09199 0.0451456 -6.83046e-21)
(1.01397 0.0633798 -2.40447e-21)
(1.11214 0.0640532 -1.26261e-20)
(1.08113 0.0209869 0)
(1.01391 0.00423704 4.26869e-21)
(0.992601 -0.00105168 9.65741e-21)
(1.02203 0.00747635 5.00774e-23)
(1.10061 0.027742 0)
(0.999842 0.00163892 -6.03861e-21)
(0.99065 0.00647241 -1.01132e-20)
(1.00131 0.000221111 0)
(0.999145 0.00169232 -1.00817e-21)
(1.0806 0.0204321 1.50041e-20)
(0.963304 -0.00590255 -1.12685e-20)
(1.01986 0.0388548 -3.29471e-22)
(1.00657 0.00481043 1.17183e-20)
(0.473131 0.00810212 -1.53251e-20)
(0.50737 -0.00672123 -1.18467e-20)
(1.07675 0.00131041 0)
(0.662792 0.0431157 -4.40209e-20)
(0.438521 -0.00192831 -1.11621e-22)
(0.998072 0.00393971 5.72462e-21)
(0.99874 -0.00187799 5.95152e-21)
(1.07938 -0.00520956 -3.22369e-20)
(1.08454 0.0124504 3.03297e-20)
(1.00967 0.0126202 -4.96831e-21)
(0.983652 -0.00178248 -1.33322e-20)
(0.90822 -0.00800118 1.13509e-20)
(1.05525 0.0451901 2.00815e-20)
(1.01168 0.00103394 8.55179e-21)
(0.99224 0.010657 1.30461e-20)
(1.11508 0.100684 0)
(0.935462 -0.00855949 1.44095e-22)
(1.0021 0.00434623 0)
(1.04141 -0.0351966 -1.06358e-22)
(1.10284 0.141349 0)
(0.999989 0.000160569 0)
(1.01128 0.0151462 2.22634e-21)
(1.03154 0.00988244 7.04808e-22)
(0.910185 0.188654 0)
(1.00935 0.00641792 0)
(1.08847 0.0966474 0)
(0.973935 0.29739 1.60179e-21)
(0.998267 0.00430675 4.14182e-21)
(1.07872 0.0101978 0)
(0.958417 0.0144732 -2.0875e-20)
(0.997623 0.0026095 1.26131e-20)
(1.11317 0.00775571 2.20758e-20)
(0.0185155 -0.011324 3.23234e-20)
(0.992561 -0.00122773 -2.11701e-20)
(0.81522 0.263963 3.65931e-20)
(0.193278 -0.00024359 -1.7568e-20)
(1.09718 0.026885 0)
(1.00097 0.00120829 0)
(0.790458 0.0388143 2.10762e-20)
(0.983517 -0.00229657 -3.52834e-21)
(1.0543 -0.000900115 -1.02237e-20)
(1.05214 0.0144495 0)
(0.957661 -0.000675388 0)
(1.00887 0.00617533 0)
(1.12812 0.0193729 5.25036e-20)
(0.999694 0.00497191 -5.01177e-21)
(0.975599 0.0483501 8.16653e-21)
(1.05233 0.00270392 1.06548e-20)
(0.990371 0.00413976 1.13601e-20)
(1.0226 0.0243709 2.7772e-22)
(0.999991 5.41026e-05 0)
(1.0086 0.00615662 0)
(1.02181 0.00718301 0)
(0.976127 0.0435963 2.48249e-21)
(1.07663 0.00975398 0)
(1.01345 0.00279507 -4.52523e-21)
(1.03685 0.0128785 4.80681e-21)
(1.05868 0.0809018 -6.31568e-21)
(1.05678 0.0441727 -9.88171e-21)
(1.01393 0.00514478 0)
(0.277694 0.00656175 0)
(1.05182 0.0160059 -1.31535e-20)
(1.05387 0.0386104 6.47103e-21)
(1.00939 0.00619523 -3.09023e-21)
(0.753521 0.144943 -6.88573e-20)
(1.07736 0.0103336 -1.46327e-20)
(1.04291 0.0117828 -2.63628e-21)
(1.12005 -0.0335096 0)
(1.07917 0.0302947 0)
(0.997837 0.00269581 -1.05424e-20)
(0.998033 0.00480135 0)
(0.895017 0.0412933 3.69562e-20)
(1.00357 0.000994191 0)
(1.01291 0.0127299 1.66443e-21)
(0.898964 0.0528221 2.73436e-20)
(0.997834 -0.00430018 -8.99652e-21)
(0.977684 -0.00489314 1.72624e-20)
(1.13607 0.0578753 -5.82563e-20)
(1.10055 0.0315658 1.10236e-20)
(0.93383 0.0491297 -1.22404e-20)
(1.12216 -0.0302477 -1.40041e-20)
(0.980338 -0.0101934 -2.71658e-21)
(1.03942 0.0876111 6.64704e-22)
(0.514913 0.00740866 1.29245e-20)
(1.08934 0.0380274 0)
(0.956604 0.0560445 -1.97614e-20)
(0.894157 0.0464748 0)
(1.09731 0.0269089 2.53443e-20)
(1.00077 0.00238112 0)
(0.960168 0.0774221 1.0522e-20)
(0.999801 -0.00138333 6.99011e-21)
(1.04958 -0.0341789 -1.14386e-20)
(0.978429 0.114203 1.73958e-21)
(1.0008 0.00358023 7.95794e-21)
(1.14021 0.0814178 2.12739e-20)
(0.990613 0.00385943 -9.06739e-23)
(1.01985 0.0261888 0)
(0.999664 0.0407401 -2.27236e-21)
(0.337827 -0.0137269 0)
(0.976019 -0.00216734 -6.00544e-21)
(1.04575 0.0173773 -8.96085e-21)
(0.746577 0.157668 -4.534e-20)
(1.00085 0.00268152 7.69108e-21)
(1.11067 0.131165 0)
(0.990224 0.0334497 -7.88734e-21)
(1.00097 0.00354107 0)
(0.999994 4.26082e-05 -6.31922e-21)
(1.13377 0.0544633 3.79745e-20)
(1.00966 0.00747455 -3.55858e-21)
(1.04595 0.0179132 6.90189e-21)
(1.05701 0.0843495 4.62246e-21)
(1.04237 0.0121649 0)
(1.12785 0.0156884 8.09768e-21)
(1.05135 0.0194687 0)
(1.01443 0.0669797 2.059e-21)
(0.289712 0.00419055 1.33213e-20)
(1.05081 0.0112207 1.30506e-20)
(1.09437 0.00665858 -2.74525e-20)
(1.03149 0.110192 -2.07231e-21)
(0.820801 0.246058 -3.47176e-20)
(0.939232 -0.0107315 2.5205e-20)
(1.08208 0.0157636 1.13309e-20)
(1.03543 0.00735844 -1.22244e-21)
(0.902154 0.312299 1.32728e-20)
(0.978882 -0.00503868 0)
(1.10848 0.136202 -5.61976e-21)
(1.03716 0.0338318 7.63005e-21)
(0.994891 0.158099 0)
(1.05938 0.0348294 7.45472e-21)
(1.09064 0.0115979 -7.08468e-21)
(0.673452 0.137624 7.61316e-20)
(0.996621 0.0269077 -6.54637e-21)
(0.998707 -0.00249111 0)
(0.945292 0.0310028 0)
(1.08253 0.0117958 4.38733e-21)
(1.09371 0.0155273 -1.7801e-23)
(0.745563 0.0500249 -5.35903e-20)
(0.94145 -0.0150835 -3.39435e-20)
(0.999252 -0.00135995 -9.26758e-21)
(0.999982 -4.99635e-05 -1.36283e-20)
(1.00602 0.0101778 -5.15936e-21)
(1.13251 0.00327123 -6.68036e-20)
(1.00086 0.00260526 0)
(1.05292 0.0131434 3.43228e-21)
(1.11369 0.0672372 2.66809e-20)
(0.969148 0.0481655 0)
(0.952993 0.0598822 2.17232e-20)
(1.09381 0.00333449 7.93546e-21)
(0.957211 0.301823 3.44126e-21)
(0.901247 0.0204058 0)
(1.00708 0.00544364 -4.79801e-21)
(1.05082 0.0113081 -1.92028e-20)
(1.05164 0.0120164 3.70305e-21)
(1.09185 0.0436207 -1.42574e-20)
(0.999423 0.000755015 8.9186e-21)
(1.03326 0.00780322 -7.11188e-23)
(0.998873 -0.00238716 0)
(1.04741 0.155347 1.06629e-21)
(0.651321 0.0417343 0)
(1.02269 0.024151 0)
(0.999462 0.000815225 0)
(1.09671 0.00388824 -1.90722e-20)
(1.09368 0.0520205 -3.2716e-20)
(1.02357 0.0153111 -8.94814e-22)
(1.00092 0.00128354 -7.57728e-21)
(0.749748 0.049397 -2.95385e-20)
(0.994741 -0.00370183 0)
(0.374891 0.0259314 7.26969e-21)
(1.00019 0.000748975 0)
(1.08751 0.0175336 -5.12743e-21)
(1.04821 -0.0672107 0)
(0.968346 0.0492947 0)
(0.95855 0.0793878 -2.91891e-20)
(1.07985 0.0123711 0)
(0.999897 0.000332566 -6.23086e-21)
(0.159859 0.00260797 0)
(0.999995 -3.13235e-05 1.42846e-20)
(1.00667 0.00602448 6.79473e-21)
(1.00955 0.0265449 -3.71652e-21)
(1.07192 0.0150367 1.84978e-20)
(0.920073 0.00879239 3.34804e-20)
(1.04444 -0.0344997 -5.71726e-21)
(0.922331 0.156238 1.28042e-20)
(0.996504 0.00260933 2.85048e-21)
(0.999403 0.000973287 -4.34372e-21)
(1.09722 0.00643194 0)
(1.17954 0.0774008 -3.90665e-20)
(1.01468 0.00514839 2.62355e-21)
(0.98565 0.00291857 0)
(0.999159 0.0057394 0)
(1.08389 0.0155596 -1.85513e-20)
(0.938478 0.306714 0)
(1.01457 0.0153421 0)
(1.14293 0.132268 -7.80134e-20)
(1.01079 0.00992563 -4.36056e-21)
(0.653983 0.050322 4.45396e-20)
(1.00075 0.00276368 -6.79008e-21)
(1.07213 0.174658 -7.12401e-21)
(1.07985 0.0124006 -2.08108e-20)
(0.716549 0.114484 1.80532e-20)
(1.03451 0.0150992 2.7326e-21)
(0.915494 0.039271 0)
(0.951786 0.051956 6.47282e-22)
(0.995476 0.00893118 -2.2937e-21)
(1.08391 -0.0194611 -1.63693e-20)
(1.12911 0.0158886 2.18568e-20)
(0.997175 0.0159019 0)
(1.11284 0.0638014 -2.5604e-20)
(0.989546 0.0143851 -6.05962e-21)
(1.00104 0.000335219 0)
(0.560591 0.00297238 0)
(0.996531 -0.00478706 -1.64137e-20)
(0.789866 -0.00836136 3.0474e-20)
(0.857908 0.0637242 6.26828e-20)
(0.693412 0.039809 0)
(1.17913 0.0824342 6.34152e-20)
(1.07714 0.123575 -5.4262e-21)
(1.09636 0.0032449 2.28231e-20)
(1.0148 0.0118928 0)
(1.04423 0.085485 2.88228e-21)
(0.933429 0.0467196 -2.45634e-20)
(1.06631 0.0414867 0)
(0.999461 0.000823438 4.97621e-21)
(0.993514 -0.00735673 8.43524e-21)
(1.01474 0.011612 0)
(0.999703 0.00142418 4.78536e-21)
(1.0097 0.00623509 0)
(0.0232518 0.126188 5.97107e-20)
(0.750519 0.19799 -5.43609e-20)
(1.00188 0.00362356 0)
(1.00667 0.00511837 -8.99587e-21)
(0.995658 0.0283472 -6.156e-21)
(1.0146 0.0144461 -2.49185e-21)
(0.99895 0.0413343 -1.44744e-20)
(1.04572 0.0841577 8.72654e-21)
(1.15163 0.143058 0)
(1.05595 0.022704 6.59753e-21)
(1.10926 0.123712 2.90512e-21)
(1.00472 0.00480301 -7.0698e-21)
(0.997946 0.0021524 0)
(1.10453 0.0061321 -3.95609e-20)
(0.985523 0.15356 -3.90889e-21)
(0.982557 0.0232923 -1.1468e-20)
(0.990365 0.00636005 0)
(1.03447 0.116209 5.44721e-21)
(1.00091 0.000340873 0)
(1.03119 0.00958901 -9.41424e-22)
(1.00199 0.000315245 3.05266e-21)
(0.978338 0.10651 -3.8281e-21)
(1.13867 -0.0963873 2.97222e-20)
(0.352323 0.0065228 -1.36964e-20)
(0.763216 0.0337047 3.65818e-20)
(1.17837 0.131119 -6.49784e-20)
(0.0983154 0.122967 -9.35524e-20)
(1.00731 0.000507416 0)
(1.0516 0.0122191 1.20892e-20)
(1.03942 0.0162897 -1.51061e-20)
(0.985804 0.00393492 0)
(0.951242 0.055825 -1.63131e-20)
(1.03309 0.00805134 0)
(1.00978 0.00590852 2.77185e-21)
(1.0904 0.00271496 -4.52615e-23)
(1.08127 0.116733 -1.44828e-20)
(0.999926 0.00031395 0)
(1.08784 0.0126321 0)
(1.01677 0.0262441 -2.4302e-21)
(0.986936 0.00461917 0)
(1.13572 0.0847765 -5.85346e-20)
(0.995051 -0.00384037 0)
(0.960605 0.0591532 -1.52524e-20)
(0.994105 0.00689925 1.08956e-20)
(1.06757 -0.0435461 6.81049e-20)
(1.03073 0.00968002 0)
(0.894906 0.332403 -2.81993e-20)
(1.13896 0.0625745 3.4746e-20)
(1.08744 0.0065709 0)
(1.01401 0.0471766 -1.15955e-21)
(1.06679 -0.0720748 0)
(1.07887 0.0018363 0)
(1.01196 0.0295631 -3.04571e-21)
(0.9981 0.0163808 -5.13295e-21)
(1.15499 -0.00314449 -9.39593e-21)
(0.834487 0.250736 0)
(1.00975 0.00721286 3.3969e-21)
(1.09998 0.00364774 0)
(0.819429 0.132638 -1.11257e-19)
(0.966108 -0.00906408 0)
(1.02103 0.0373803 -8.197e-22)
(0.937815 0.00390924 8.53884e-21)
(0.803549 0.0534808 -1.12179e-19)
(0.996682 0.00230325 -2.78661e-21)
(1.01089 0.00971032 9.09546e-21)
(1.04252 0.15466 -2.58908e-21)
(1.03255 0.0109262 0)
(0.991365 0.0703336 1.12024e-20)
(1.00187 0.00348841 -4.73806e-22)
(1.08842 0.0161589 -1.93488e-20)
(1.00481 0.00530138 -3.99316e-21)
(0.999755 0.00650545 -6.44697e-21)
(-0.131413 -0.0189576 0)
(1.08448 0.0120499 -5.87496e-21)
(0.999619 0.00133334 9.95937e-21)
(1.00617 0.00624599 -3.76193e-21)
(1.07582 0.00455865 -7.30015e-21)
(0.996434 0.0205946 -5.79008e-21)
(1.0678 0.0298387 7.35739e-21)
(1.00043 0.00114454 1.03363e-20)
(0.845327 0.249923 2.86643e-20)
(0.957518 0.0613303 1.77386e-20)
(0.759835 0.0498718 -2.34374e-20)
(0.999995 -5.55229e-05 6.71378e-21)
(0.998878 -0.00149748 0)
(0.981811 0.0273821 0)
(1.00499 0.000669897 6.08045e-21)
(1.13596 0.0576671 -3.3768e-20)
(0.306606 -0.0120561 -4.86271e-20)
(1.12017 0.0353062 1.38155e-20)
(0.624569 0.0960894 -5.43344e-20)
(1.06997 0.00673131 2.55232e-20)
(-0.02671 -0.014583 5.75764e-20)
(1.0669 0.0248697 -3.08311e-20)
(1.07804 0.00710022 0)
(1.0004 0.00100622 3.48727e-21)
(0.997373 -0.00439686 5.99221e-21)
(0.981269 0.0321377 0)
(1.10719 0.00889816 -9.67349e-21)
(0.996725 -0.00486179 1.62515e-20)
(1.05246 0.014922 1.35579e-20)
(0.995625 0.00377558 0)
(1.08369 0.0148526 -1.14535e-20)
(1.01193 0.00531704 1.08e-20)
(0.99994 0.00628996 2.51197e-21)
(0.992165 0.00925495 0)
(1.10274 0.0185908 4.55466e-20)
(0.887289 0.370461 0)
(0.974372 -0.0134792 -2.9558e-20)
(0.999991 0.00353761 8.01546e-21)
(1.00004 0.00368637 1.24255e-21)
(1.09822 0.0273369 0)
(1.12139 0.0191468 2.12883e-20)
(1.0221 0.0639679 2.87723e-22)
(0.985319 0.0979392 4.26072e-21)
(1.11394 0.0567824 0)
(1.03394 0.00767625 0)
(1.0099 0.00488251 -1.38349e-21)
(1.06576 0.023757 3.18711e-22)
(0.65069 0.0210391 0)
(1.05038 0.0404757 -2.19228e-23)
(1.00482 0.0046093 7.66468e-21)
(1.01312 0.00221932 2.77119e-21)
(0.976446 -0.0120719 1.37696e-20)
(1.05095 0.0190128 5.3657e-21)
(1.08261 0.0113173 2.42824e-22)
(0.000454568 0.201156 -1.87537e-20)
(1.09016 0.00543102 3.46897e-20)
(1.05779 0.0361919 -1.63147e-20)
(1.10542 0.00263856 -2.45115e-20)
(1.01151 0.0133764 5.27846e-22)
(1.00744 0.000169412 4.53834e-21)
(1.05297 -0.00500086 1.3055e-20)
(1.01361 0.00306285 0)
(-0.13528 -0.0233076 0)
(0.970558 0.0288279 6.72177e-20)
(0.59102 0.0137534 -3.55083e-21)
(1.06934 -0.00844775 -6.11372e-21)
(1.10293 0.0281542 1.69431e-20)
(1.02151 0.0113029 0)
(0.994446 0.00712067 0)
(1.08249 0.06721 -1.09827e-20)
(1.08336 0.0163213 0)
(0.691103 0.049441 6.15559e-21)
(0.998072 0.00385527 0)
(1.04187 0.0895197 -6.19007e-21)
(1.05017 -0.0108013 0)
(1.01702 0.0258025 0)
(1.1019 0.0275655 0)
(0.74698 0.0515234 3.33808e-20)
(1.01172 0.00500906 1.59441e-23)
(1.00233 0.000357415 6.18518e-22)
(0.913999 0.0791915 2.30843e-20)
(0.998268 -0.00412315 2.12967e-20)
(0.933803 -0.0135789 2.39135e-20)
(1.0836 -0.0820478 0)
(1.05846 0.000440127 -6.21699e-20)
(0.139858 -0.0056668 0)
(1.02831 0.210754 4.23959e-21)
(1.11053 0.116657 1.16167e-20)
(1.07666 0.00242183 1.38076e-20)
(0.682436 0.0429864 -1.33067e-20)
(1.00893 0.0125135 4.76112e-21)
(1.0679 -0.00387199 -1.10404e-20)
(0.998113 0.00224488 0)
(1.01224 0.0489432 0)
(0.593817 0.041556 -2.79513e-20)
(1.01312 0.00213784 5.46587e-22)
(0.926911 0.539227 5.70632e-21)
(0.996729 0.0204132 -7.54641e-21)
(1.04543 0.0270224 1.7219e-23)
(1.17882 0.0807638 0)
(0.898658 0.31661 1.12487e-20)
(1.02021 0.0317895 -9.35912e-22)
(1.00008 9.46521e-05 0)
(1.06923 0.0212459 5.11768e-21)
(0.987017 0.00827717 0)
(1.13552 0.113983 -5.09493e-20)
(1.15428 -0.00167701 0)
(1.01722 0.0271005 4.2278e-21)
(1.06978 0.00735668 -3.66077e-20)
(-0.136347 -0.018659 5.11863e-20)
(1.00066 0.00125564 6.82242e-21)
(0.930129 0.0574313 2.70617e-20)
(1.0299 0.119563 -3.49358e-21)
(1.00078 0.00388141 -8.73348e-21)
(0.986496 -0.00254205 -1.04343e-20)
(1.0023 0.0228935 -2.81699e-21)
(0.319551 0.00834359 2.45768e-20)
(0.819124 0.328426 1.62235e-20)
(1.0048 0.00492235 -4.20551e-21)
(1.00078 0.00230541 -7.45572e-21)
(0.991623 0.0684736 -5.03678e-21)
(-0.102466 -0.0200089 -3.69553e-20)
(1.01286 0.000542275 0)
(0.984083 -0.00275275 3.45413e-21)
(-0.0725464 -0.0121135 0)
(1.00652 0.00572584 7.24396e-21)
(1.0122 0.00507902 0)
(1.08849 0.0160123 1.94159e-20)
(0.683783 0.0453066 1.08252e-20)
(1.08522 0.0144928 3.57058e-20)
(1.00098 0.00342654 8.00979e-21)
(1.00959 0.00497872 1.30921e-21)
(1.04899 -0.0310694 7.04235e-21)
(0.967188 -0.00977666 -7.79002e-23)
(0.99965 0.000246748 0)
(0.748643 0.0251816 -1.63204e-20)
(1.07852 0.0178738 0)
(1.08652 0.0128011 0)
(1.11387 0.000152286 0)
(0.970084 0.0788398 0)
(0.975276 -0.0127445 2.82247e-20)
(0.990642 0.0988242 2.4611e-21)
(1.00864 0.0165421 -6.37443e-21)
(1.05787 0.0366724 7.67059e-21)
(1.0793 0.0189914 -6.93047e-21)
(1.0116 0.0129703 -4.42854e-21)
(0.286338 0.0185726 6.63821e-21)
(1.06601 0.0581414 -1.42567e-20)
(1.01544 0.046116 0)
(0.860658 0.0517744 -4.84256e-20)
(1.0894 0.0080699 9.90617e-22)
(1.012 0.100823 -9.2871e-22)
(0.829003 0.121478 8.36278e-20)
(1.07073 -0.0106454 0)
(0.989095 0.0678892 0)
(0.999532 0.00597243 -5.10827e-23)
(1.02821 0.0126323 5.5685e-24)
(1.00941 0.00466072 0)
(0.962936 0.0103282 -8.50586e-21)
(1.03362 0.00819264 0)
(1.04201 -0.00472374 0)
(0.927355 0.0562224 -1.45013e-20)
(1.01473 0.00819736 -1.78619e-21)
(0.998472 -0.012403 -1.29182e-20)
(1.00632 0.125874 2.76309e-21)
(0.70699 0.0277693 -5.31141e-20)
(1.17402 0.135104 2.32702e-20)
(0.990355 0.102006 -6.58976e-21)
(0.947107 0.274187 5.38002e-21)
(0.998075 -0.00261977 9.60433e-21)
(1.00061 0.00113542 -7.73108e-21)
(1.01657 0.0134849 -2.91954e-22)
(1.10656 0.0117038 4.52955e-20)
(1.05281 0.0228533 -7.09933e-21)
(1.02473 0.0228995 -2.71239e-22)
(0.996355 0.0152676 -9.91195e-21)
(0.858296 -0.017218 -4.11257e-20)
(0.990713 -0.00307898 -5.41174e-21)
(1.00692 0.00956392 1.07719e-21)
(0.990392 0.0328286 8.8429e-21)
(1.12053 0.0210175 -6.10967e-20)
(1.02307 0.0245423 0)
(0.832577 0.474266 0)
(0.96412 -0.00733796 0)
(1.01121 0.0641329 0)
(0.803648 0.031173 3.7235e-20)
(1.01011 0.00596631 -6.01707e-21)
(0.990734 -0.0031782 -1.10069e-20)
(1.01476 0.00540914 -5.52553e-21)
(0.999909 0.00154237 7.50552e-21)
(0.06592 0.11696 2.63418e-20)
(1.11054 -0.00131125 -1.03052e-20)
(0.219221 -0.0082468 -9.21846e-21)
(0.989375 -0.0014352 1.91263e-21)
(0.0944678 -0.00535558 2.33855e-20)
(0.694613 0.0287374 4.73248e-20)
(0.480525 -0.00379852 -2.33369e-20)
(0.621968 0.0402156 2.84746e-20)
(1.01285 0.10115 0)
(0.797451 0.0505794 -4.22685e-21)
(0.98557 -0.00823141 -1.4262e-20)
(0.889603 0.0311044 -1.84019e-20)
(0.94164 0.0431737 -1.88225e-20)
(1.0939 0.0555456 0)
(1.08808 0.00874703 0)
(0.965757 -0.00694119 0)
(0.994158 0.0691604 -1.02667e-20)
(0.986948 0.0698774 -1.01989e-20)
(0.937806 0.221191 2.8858e-20)
(0.994559 0.00373959 -4.36357e-21)
(1.01263 0.0176182 8.77877e-21)
(0.8834 -0.0164513 2.68738e-20)
(1.00474 0.00433063 0)
(1.00696 0.00515843 -4.86262e-21)
(1.13053 0.0145515 0)
(0.984647 0.016062 5.49632e-21)
(0.84383 0.0983154 -2.40914e-20)
(0.099575 0.124706 1.01802e-19)
(0.983807 0.0155909 1.14964e-20)
(0.990144 0.0525599 1.74775e-21)
(0.990648 0.0545834 2.04675e-21)
(1.0085 0.0124379 0)
(1.05719 -0.0140599 0)
(0.967824 0.0960565 5.41342e-21)
(1.00042 0.000154902 0)
(1.10397 0.0100438 -5.85617e-20)
(0.920537 -0.009891 0)
(1.07497 0.183593 -5.8166e-22)
(1.03572 0.0160049 0)
(0.811304 0.0520553 7.33784e-20)
(1.05298 -0.0305729 -1.05059e-19)
(1.04531 -0.00224 7.25939e-21)
(0.999364 0.0179191 -8.56181e-21)
(1.01935 0.00758686 -3.03449e-21)
(1.13829 0.185837 7.43448e-21)
(0.987527 -0.002411 -3.2008e-21)
(1.00258 0.000301535 -6.27888e-22)
(1.00886 0.0241921 5.07286e-21)
(1.01453 0.00807269 -1.86889e-21)
(0.984866 -0.00797598 -7.47552e-21)
(0.999991 0.000158984 1.76303e-21)
(0.998949 -0.0018059 9.04602e-21)
(1.06849 -0.0554443 0)
(1.00154 0.000253018 0)
(1.00845 0.000277357 4.63122e-21)
(0.731176 0.144638 0)
(1.08983 0.012983 0)
(0.995734 0.0155633 0)
(1.00639 0.00849995 5.22937e-21)
(1.00048 0.00110245 -1.05498e-20)
(0.996599 0.0162043 -5.11799e-21)
(0.997446 0.00509626 2.09531e-21)
(0.982543 0.0259948 0)
(1.01657 0.0133187 1.30994e-22)
(1.01079 0.0129862 0)
(0.937055 -0.0103005 -1.72275e-20)
(1.07501 0.00388059 -1.34285e-20)
(1.14433 0.13038 3.42385e-20)
(0.998953 -0.00234387 -1.09963e-20)
(1.03217 0.0104175 6.84664e-22)
(1.05195 0.016679 5.31781e-23)
(1.03393 0.0154204 -1.4707e-21)
(1.04552 -0.00276172 -7.87728e-21)
(0.928577 0.0484316 5.96997e-21)
(0.817923 0.00924621 0)
(0.282893 0.01691 9.74979e-21)
(0.695951 0.017419 0)
(0.996741 0.00174805 0)
(0.997546 0.0166136 -5.54039e-21)
(1.12297 0.0366906 0)
(1.08053 0.003461 -1.98602e-20)
(1.09788 0.0781793 -5.34047e-21)
(1.0045 0.00429202 0)
(0.998334 0.0174816 1.25243e-20)
(1.04199 0.0135486 -4.88714e-21)
(0.987987 0.000755403 1.41791e-20)
(0.869998 0.346702 4.72057e-20)
(0.331681 -0.00448392 3.74238e-21)
(0.9908 0.00726402 0)
(0.997606 0.00474581 0)
(0.633433 0.00989196 4.15327e-20)
(0.1041 -0.00446592 0)
(1.0859 0.0875436 -6.8957e-21)
(1.09556 0.0296259 -1.77375e-20)
(0.729897 -0.00893861 -7.91452e-21)
(0.188674 0.0657734 -1.0358e-19)
(0.994229 -0.00326792 5.66663e-21)
(1.05557 0.0363753 1.36284e-20)
(1.07367 0.00521825 -4.12049e-20)
(1.08191 0.0657533 1.11964e-20)
(1.08904 0.00752909 -2.8947e-20)
(1.02206 0.0229835 0)
(1.0145 0.0294704 -3.60714e-21)
(0.885389 0.371511 -1.32557e-20)
(1.02952 0.119005 4.36551e-21)
(1.01413 0.0147559 0)
(0.996391 -0.00112488 6.54637e-21)
(1.02768 0.0177222 3.4233e-22)