/*--------------------------------*- C++ -*----------------------------------*\
| =========                 |                                                 |
| \\      /  F ield         | OpenFOAM: The Open Source CFD Toolbox           |
|  \\    /   O peration     | Version:  v2012                                 |
|   \\  /    A nd           | Website:  www.openfoam.com                      |
|    \\/     M anipulation  |                                                 |
\*---------------------------------------------------------------------------*/
FoamFile
{
    version     2.0;
    format      ascii;
    class       volScalarField;
    location    "300";
    object      ddt0(k);
}
// * * * * * * * * * * * * * * * * * * * * * * * * * * * * * * * * * * * * * //

dimensions      [0 2 -3 0 0 0 0];


internalField   nonuniform List<scalar> 
18232
(
-0.000217139
-3.24689e-08
-3.37559e-09
1.69057e-08
8.14775e-08
1.40078e-06
1.49261e-08
9.42765e-10
6.86255e-08
7.13415e-08
1.07847e-08
4.92031e-07
3.3445e-08
-1.56906e-05
5.44683e-09
-9.89483e-05
7.49723e-11
-7.89868e-10
-1.62603e-09
-2.2972e-07
6.3777e-06
-9.60392e-09
4.6833e-09
-1.35023e-08
8.82771e-09
9.59771e-10
-8.15761e-09
1.33988e-06
-1.7306e-09
-5.25552e-09
1.81421e-09
-0.000651213
-4.45372e-08
-0.00212485
-0.000187035
-2.64873e-07
-6.94107e-05
2.28522e-09
-0.000220701
3.05391e-08
-0.0016691
3.19145e-07
1.40186e-07
-0.000134112
-3.64279e-10
-0.000330995
-1.22444e-08
3.20159e-07
-8.08808e-07
-1.17462e-09
2.20007e-10
7.04682e-11
-0.00131257
1.38816e-07
2.43176e-08
-1.17872e-06
-7.78835e-09
2.15134e-08
0.00125206
-6.69807e-09
-5.34109e-09
-6.15209e-09
-1.65841e-10
1.77136e-08
3.98586e-07
-2.71068e-08
-0.000779952
-0.000863819
-3.58638e-09
5.54827e-09
-1.86551e-08
-1.62603e-07
-0.00047211
-6.74563e-05
9.76226e-07
-6.54315e-05
-9.09077e-09
1.63337e-08
2.3365e-05
-8.35884e-09
-0.000936589
3.03348e-07
1.83311e-07
-7.04959e-09
0.000506381
-1.15279e-06
4.53445e-09
4.6594e-10
2.98807e-07
1.20838e-07
8.2336e-09
7.06178e-09
-2.67589e-10
-9.19218e-07
8.52777e-09
5.25771e-09
3.84259e-09
3.79486e-09
0.000463758
-6.29253e-09
6.93986e-09
1.30235e-07
-0.000136129
2.41998e-08
1.10372e-07
-1.59953e-08
-1.55031e-09
6.12547e-08
1.65059e-10
-6.52296e-09
-1.43168e-08
-9.19281e-05
-4.5881e-09
1.16157e-09
4.44422e-09
-2.48893e-09
3.48176e-07
-0.000325938
6.6233e-08
1.54566e-09
8.93592e-09
2.19691e-09
3.80609e-05
1.73577e-06
5.0627e-05
1.27426e-07
2.57664e-06
-3.8705e-09
5.29629e-06
-7.59404e-05
-6.62705e-10
-4.98988e-09
7.44463e-08
-3.82782e-09
-0.00137213
-2.25899e-05
-8.97395e-07
9.06682e-09
-1.48754e-08
-0.000257169
3.20351e-08
-1.80219e-08
-0.000819402
-1.37314e-09
1.84265e-08
-2.76228e-09
-1.62637e-08
-2.29116e-11
-0.00020692
2.02632e-07
1.53751e-05
2.87892e-07
2.48689e-07
-1.63336e-08
1.2207e-07
-0.00172982
-6.21597e-05
3.85373e-07
1.19888e-06
-3.6398e-09
-4.34834e-08
-2.19697e-09
-2.66764e-12
-0.000576137
0.000405377
5.18616e-08
1.89887e-07
-0.000992664
2.70275e-08
3.85474e-05
1.04959e-08
5.32323e-10
-1.38667e-09
-1.23188e-08
7.66274e-09
-2.52141e-06
-1.08889e-08
-3.76294e-10
-0.000204482
-6.5921e-09
-6.05783e-08
-0.000240037
-1.11377e-07
-0.000133649
0.000549088
-4.3547e-12
-9.37133e-09
0.000527105
-8.7769e-10
2.65189e-05
1.04301e-08
-1.05201e-08
7.38881e-08
-0.000260945
-3.76819e-09
-1.9665e-09
-5.2003e-09
3.81452e-09
-4.56044e-08
9.54415e-10
2.00799e-11
1.97115e-08
2.64941e-08
-1.79182e-05
1.57995e-07
3.09717e-05
1.21341e-05
0.000477935
2.26677e-07
7.96631e-08
-1.76332e-08
-1.12486e-08
1.11606e-08
0.000296413
-0.000120592
1.9491e-08
2.53579e-07
1.26889e-09
1.31955e-09
4.40978e-09
-0.000238032
-7.44698e-09
8.39734e-05
-2.61348e-08
-1.61934e-08
3.70161e-09
2.30277e-07
-1.22513e-08
3.00144e-09
1.43125e-07
2.2954e-09
3.13858e-08
-0.000214331
-4.31678e-06
-5.40473e-08
-0.000315586
-8.34838e-09
3.52708e-07
-2.93475e-09
1.2257e-10
-1.82794e-09
-0.00012425
7.8842e-07
8.17687e-09
-8.16115e-05
5.30934e-05
3.48897e-11
0.000992224
0.000391296
-1.08014e-08
-1.36493e-06
-1.51738e-06
-1.17659e-08
2.24005e-07
5.86073e-09
5.36913e-05
-1.94328e-05
0.000118916
0.000415414
-6.39194e-08
-2.4343e-08
1.26338e-07
1.85136e-07
-1.77291e-10
-5.73508e-09
1.84618e-11
-0.000123927
6.89926e-07
-1.46411e-06
-7.45332e-06
-1.39003e-08
-0.00221794
8.66999e-07
-5.51375e-10
-1.1134e-08
6.58978e-05
1.69288e-07
6.46741e-09
2.27989e-10
9.45752e-05
-0.000113122
2.81738e-10
-1.98013e-08
-6.28091e-05
-1.07276e-06
3.76766e-08
1.76971e-08
-0.000159354
6.33109e-09
3.46871e-07
2.66925e-09
1.58251e-07
1.11283e-05
5.1443e-07
2.92001e-07
-9.4356e-06
-7.19057e-05
-1.84814e-08
1.18294e-09
-1.3176e-08
-1.69135e-08
2.18024e-10
-0.000187349
-1.26397e-06
1.3913e-10
4.88333e-09
2.21502e-06
5.49603e-08
4.25964e-10
-0.000286302
9.19524e-09
-1.51629e-08
9.21291e-07
-6.07166e-09
-2.10051e-08
1.73352e-08
-5.04224e-05
-1.64658e-09
-0.000327571
-9.89896e-09
-4.66053e-05
-8.9975e-09
9.50403e-07
-0.00050718
1.51865e-08
-1.79284e-08
3.3927e-06
-8.7728e-09
1.26009e-07
1.81347e-08
1.23982e-07
1.44346e-09
1.16299e-07
0.000469649
-3.45892e-07
-0.00097083
-7.8643e-06
0.000703874
1.92669e-09
7.53422e-08
1.0362e-07
7.96944e-06
3.48232e-12
7.89373e-09
-5.45183e-10
-1.97612e-07
0.000965154
1.01176e-08
2.19622e-06
-2.47361e-08
0.000137971
1.47644e-08
2.77386e-08
-6.8609e-09
1.39703e-07
2.55753e-08
-1.11119e-06
0.000840976
1.08794e-09
7.97513e-09
2.42752e-05
1.11132e-07
0.00104971
-2.1774e-08
-0.000368825
-5.20397e-09
1.8118e-07
0.000876432
-9.51356e-09
0.000686411
-1.89416e-06
-1.18189e-06
-4.3916e-08
0.000977824
3.71126e-10
-9.21538e-09
-1.02342e-08
-1.94235e-10
-0.000112674
1.15058e-05
1.87446e-09
1.55813e-07
-1.74818e-09
6.55081e-09
0.000409231
9.67169e-08
-1.84203e-08
-3.98193e-10
4.16641e-09
3.9451e-09
3.78573e-08
1.87744e-07
-0.000190908
1.2744e-07
-9.55375e-05
-1.95456e-08
1.54704e-05
1.45089e-07
-4.78107e-07
-4.59859e-10
-1.75346e-06
-0.000111842
3.13117e-06
0.00044225
1.37924e-07
1.6603e-09
2.3377e-08
1.02492e-10
2.86449e-08
6.55183e-07
-2.95546e-05
-0.00339581
4.84222e-08
-1.42088e-08
-1.80044e-05
-1.77947e-07
1.89398e-10
-1.45757e-11
-0.000248881
1.54947e-09
4.03801e-09
2.37617e-07
9.33978e-07
-4.68544e-09
-0.000118354
-1.31015e-07
1.05318e-06
6.52108e-07
1.80893e-07
-2.17339e-07
6.20686e-09
-7.68936e-07
0.00088372
-2.38409e-09
1.04756e-07
6.03029e-09
-8.76098e-09
6.53587e-08
-5.82213e-08
1.80254e-08
2.46647e-08
-8.51397e-07
-0.000189744
4.91967e-08
-8.7362e-09
5.13901e-08
-3.08118e-09
-3.21237e-09
8.18406e-07
1.4071e-07
-0.000214075
5.97786e-09
4.84106e-09
-1.59087e-10
-1.46549e-05
-1.20045e-10
-0.00179444
4.59604e-11
7.52842e-07
4.29634e-09
-4.03573e-09
1.05887e-06
-2.45193e-09
6.17061e-06
-3.02383e-09
7.08846e-08
-1.71501e-09
-1.21718e-08
2.36484e-08
9.46764e-10
4.80483e-11
-0.000234104
-2.17786e-07
1.18849e-06
1.29472e-07
2.33222e-07
-1.31539e-08
-3.33153e-06
-0.0010066
-2.25985e-08
1.93481e-07
-2.29365e-08
4.28507e-09
9.62826e-07
1.25097e-09
1.14796e-07
-5.5594e-09
-2.93548e-08
-0.000181789
1.03938e-07
3.69867e-10
8.17794e-07
1.14947e-10
-1.31339e-08
2.21368e-07
-1.13316e-07
-1.67561e-08
-1.66735e-06
-9.46254e-05
8.42216e-10
1.68898e-08
-2.16196e-08
5.37031e-08
1.08925e-06
0.000925869
-1.98607e-08
5.08597e-09
-1.89428e-09
8.27866e-09
-1.9805e-08
-0.000319777
-4.70653e-09
-1.52026e-08
-9.41613e-05
-1.20514e-08
5.60657e-09
-1.84899e-09
-4.58914e-08
-1.5166e-08
1.04194e-09
4.73603e-08
-1.67724e-08
-9.10399e-09
0.00102764
-0.00125571
-6.84713e-09
-4.3954e-09
-2.51142e-09
-2.67526e-08
0.000870231
1.87507e-10
2.71743e-06
1.21618e-06
2.18872e-07
0.000264563
1.7534e-08
-6.60417e-05
-5.10393e-10
0.000603876
-1.67428e-06
2.11726e-08
4.05877e-08
-1.37321e-08
-1.54155e-09
3.22637e-10
6.49191e-07
-6.68961e-05
6.87084e-08
2.14896e-09
-2.65924e-07
1.05632e-07
-5.70516e-09
-1.67688e-08
1.06625e-10
-5.37677e-05
-0.00038232
-3.80707e-09
-4.06224e-08
7.33737e-08
-7.94833e-05
8.58225e-05
-5.18588e-12
5.26232e-07
2.93947e-10
-3.91231e-05
-4.50569e-10
-6.70008e-09
-5.45201e-05
0.000136751
2.16307e-07
-1.81378e-09
6.07279e-09
-8.78657e-05
-6.38418e-09
-2.86562e-09
-9.87452e-09
0.00144104
-8.7307e-09
0.000377828
5.60937e-09
4.89307e-05
-4.78367e-09
7.25008e-05
1.2351e-07
2.53774e-10
-6.26888e-08
-3.34299e-09
3.61002e-07
5.63088e-05
-0.000233395
-5.37119e-11
3.81538e-10
1.21564e-06
5.29687e-09
0.000132157
1.22389e-09
-4.32821e-08
-0.0017432
-0.000249645
-1.15099e-08
1.44166e-09
1.8e-09
-0.00187491
1.2237e-07
4.48865e-10
1.0702e-08
2.18213e-10
6.52075e-06
3.64949e-10
1.03009e-07
-5.09892e-09
-1.50162e-08
5.5594e-08
2.02174e-07
1.31672e-09
2.72031e-10
-3.17019e-09
-0.000142564
-1.45906e-10
-1.00994e-09
1.68989e-08
2.256e-10
9.82306e-05
-0.0001563
7.21027e-08
-1.7869e-07
2.30812e-07
-0.00284073
-9.91944e-09
-4.5506e-09
-3.1337e-08
3.23124e-09
1.13512e-08
-1.56797e-10
-0.000209317
-3.58978e-05
0.000444714
-8.27066e-05
-3.21557e-05
2.44658e-07
-1.22368e-06
-2.26057e-05
-5.41101e-11
-1.31783e-05
-1.6129e-08
5.9771e-08
3.47425e-07
-0.00279094
-4.35195e-09
5.86216e-09
-4.42646e-05
-1.93644e-08
-1.46348e-08
-3.55032e-08
-0.00011278
1.64049e-07
-2.11175e-08
5.69472e-06
1.0579e-06
-7.97289e-05
-1.50354e-08
3.88995e-09
-1.5968e-08
7.5946e-07
-2.49305e-08
1.89094e-06
2.47579e-07
2.62353e-09
-4.64026e-09
-8.08035e-09
-3.47981e-10
0.000258398
-0.000122011
1.46022e-09
-0.000110387
2.58199e-07
-0.000173038
1.02243e-06
9.71512e-09
-0.00290957
-1.28144e-08
1.37511e-09
0.000452178
7.15389e-09
-1.1321e-10
-9.94102e-05
1.87613e-06
6.06367e-10
2.89924e-10
4.24179e-05
-1.45525e-09
-1.77654e-08
-0.000205075
-0.000323401
2.28018e-08
2.33221e-07
-2.71674e-05
-3.97474e-08
3.13176e-07
0.00155632
-2.27234e-07
0.000440932
1.14282e-07
0.00108121
1.85679e-07
1.85933e-09
-0.000600949
2.51517e-10
-1.18368e-09
2.18075e-09
-0.00196795
1.40789e-06
-6.94817e-09
-0.000105858
5.01838e-10
2.90766e-07
1.30696e-08
-0.000704727
4.54042e-07
2.0771e-07
-1.32438e-08
-1.64657e-09
5.04131e-09
-0.00123123
-1.40597e-07
-0.000273054
-1.11677e-10
-4.23886e-06
1.27415e-10
1.98842e-10
-6.59002e-09
-5.71488e-10
-7.59063e-09
-1.71152e-08
1.33153e-09
4.37255e-08
4.63061e-05
-3.00965e-10
2.75983e-09
0.000602466
2.57995e-07
-0.000305676
-2.5946e-09
-4.02914e-06
-0.00343884
1.56653e-09
0.000904773
1.89458e-07
0.00109452
-4.74042e-05
-5.86575e-05
-5.4628e-10
-3.28761e-09
-1.78686e-08
-5.80173e-07
1.88995e-05
1.54651e-06
-1.44596e-08
2.04141e-09
-9.32129e-06
-0.00172204
2.25758e-06
-1.01655e-09
1.5162e-06
-5.57334e-09
1.03105e-07
-0.00106642
1.26148e-08
-0.000192036
-1.35862e-08
-1.35936e-08
0.000297088
2.80268e-05
-3.15312e-09
3.39621e-09
1.17069e-07
-9.11558e-05
1.25297e-08
-3.5137e-09
6.90198e-07
1.05105e-06
4.58346e-07
-2.41651e-08
-3.03359e-07
1.8214e-10
-8.60628e-11
0.000326413
1.99577e-07
-1.64152e-05
7.77684e-05
-1.32416e-07
-1.66268e-07
-9.58603e-05
-6.58095e-09
-1.4517e-08
8.91315e-08
-0.000219028
-2.37495e-08
3.48825e-07
-0.000158984
1.36353e-09
-5.86577e-05
9.90651e-09
2.4888e-10
5.89124e-10
4.17797e-08
1.15715e-07
0.000223029
1.4856e-08
-1.2452e-08
1.24391e-06
2.65075e-07
0.00107586
-1.76208e-05
1.46374e-06
-0.000179449
-4.6935e-06
6.92049e-09
-5.41704e-10
-4.72185e-07
-0.00102081
5.5661e-08
8.84912e-08
4.42787e-05
-2.39041e-08
-6.3857e-10
2.04467e-08
0.000352333
6.23728e-09
-7.74304e-05
-1.84646e-07
1.62745e-09
4.26631e-05
5.26541e-08
0.000698743
-1.65972e-08
-5.25748e-09
7.92843e-09
-2.6756e-05
-2.03801e-10
1.86188e-07
1.67411e-09
-0.00294921
5.73415e-09
-0.000107359
1.96384e-06
-4.4288e-09
-2.79719e-10
-3.27572e-08
1.75506e-07
-4.66689e-08
-3.21202e-08
0.000523735
-0.000189655
4.57064e-09
-9.56039e-05
9.30896e-10
6.55883e-09
-1.18529e-08
2.42983e-09
-1.34862e-08
5.98601e-08
3.19852e-08
4.18662e-08
-1.80903e-09
2.85289e-09
-2.19886e-08
-6.4292e-09
0.00149907
-5.96587e-07
4.12465e-10
-3.16077e-10
-8.56506e-05
-0.000151417
5.56846e-09
-5.1041e-05
-0.000220012
-1.96454e-09
3.7044e-10
-0.000284324
0.000194826
-6.95811e-07
1.0723e-06
2.02936e-06
1.66819e-08
-0.000249
0.00154536
-2.1064e-05
1.91614e-08
-1.36989e-08
-8.44787e-06
-1.47148e-07
4.31637e-09
8.40503e-07
9.07207e-07
-2.08169e-06
8.06259e-09
-1.71026e-08
-3.3446e-09
1.31326e-09
-3.28436e-09
-7.82293e-05
-6.92228e-06
-6.40907e-11
4.64764e-09
0.000810729
-1.69412e-09
-0.000564062
-2.84439e-09
3.23558e-08
-0.000231177
-2.07759e-08
3.3005e-08
9.0874e-09
-2.61645e-10
3.80823e-10
2.51592e-10
-0.00143704
4.06995e-10
1.25976e-09
-5.69969e-09
-5.6077e-09
-0.00111358
-9.33747e-09
4.48862e-08
-1.8206e-09
-4.84878e-07
1.47096e-06
1.09512e-08
-5.61032e-05
3.41383e-05
-1.01367e-09
1.07364e-09
-1.337e-08
-3.56027e-08
-8.66593e-10
1.03256e-08
-2.63142e-08
-3.6699e-07
3.10324e-08
-8.8483e-09
-1.61417e-07
-1.51252e-07
8.41735e-09
-1.94126e-08
0.00051684
1.06445e-06
2.11838e-06
4.41356e-08
4.69112e-07
-1.49907e-08
4.49097e-10
-6.15751e-05
-0.000328318
8.45163e-09
1.29561e-10
1.51879e-05
0.000260597
-6.49308e-09
6.71859e-09
-0.00176794
-8.7705e-05
9.82047e-08
1.25993e-08
-9.29496e-08
5.95926e-06
4.00665e-11
-1.11794e-12
-9.09537e-06
0.00101231
-0.000532841
4.3302e-08
6.47195e-07
-2.30291e-08
-4.86991e-09
4.95259e-10
-3.34821e-10
-5.51333e-06
-5.82192e-10
0.000626916
-1.86861e-08
-2.79735e-05
-0.000174529
1.24821e-08
3.89956e-05
-1.91978e-08
-4.70136e-08
-7.65591e-10
2.6368e-07
-7.57876e-11
-5.88868e-09
-1.50386e-08
-5.72752e-05
-2.14568e-08
-1.74048e-05
7.96426e-11
-4.37207e-09
1.75353e-08
-1.05153e-07
-5.98556e-09
2.01683e-05
4.20744e-08
-8.25993e-07
1.69153e-08
-0.000138359
-0.000214221
1.3643e-05
1.22006e-06
-6.74104e-05
-1.62074e-10
0.000680005
1.63626e-07
-4.74559e-09
1.11789e-06
-0.000246328
-0.00154555
-8.42541e-09
-3.21869e-09
-5.75034e-06
-3.41496e-10
3.03132e-06
-6.22026e-09
1.71814e-05
-3.66944e-10
-1.87546e-07
-3.56203e-09
-6.70632e-05
1.34627e-10
-4.301e-09
1.95823e-07
-3.52181e-08
1.58249e-06
0.000397545
-1.28706e-09
7.97254e-09
-2.51914e-09
1.9843e-10
2.79076e-07
-1.02921e-07
-2.01509e-09
1.1533e-07
-1.01299e-08
0.000374188
2.48764e-08
1.86789e-07
-2.25482e-08
-5.90669e-09
-0.00323544
3.83126e-07
-3.24609e-09
-4.14684e-05
-0.000158362
0.000489137
0.00116276
0.00132368
1.20521e-07
-6.6692e-10
1.71962e-09
-1.50114e-08
5.61448e-09
-2.65659e-06
-0.00036128
1.32273e-06
-1.04896e-09
6.45389e-08
-9.37701e-05
-0.000322783
-1.31063e-09
-1.27174e-08
-0.000128546
1.48236e-05
1.27946e-07
2.05249e-08
-1.29496e-08
-4.3891e-08
-8.15641e-09
-2.78319e-06
1.68911e-09
0.000629408
-8.07405e-09
-6.22963e-09
-0.00140662
0.000146994
-1.86708e-08
-4.73618e-09
1.77055e-08
2.37024e-07
3.62634e-07
2.68963e-06
-6.16596e-09
5.23384e-10
5.40021e-09
0.000319869
1.77782e-07
2.14149e-09
2.00413e-05
-1.82733e-08
8.74643e-09
-1.17391e-08
6.69612e-08
-2.51965e-06
-2.33742e-08
9.08351e-08
-1.32958e-08
-5.03128e-11
-3.25569e-10
-2.45084e-09
2.84097e-10
-2.36459e-10
3.37352e-07
-5.84846e-10
-5.31695e-05
-1.80814e-08
3.22954e-08
1.48936e-07
-1.70663e-08
2.80833e-09
0.00021491
-1.518e-08
0.000808101
1.80489e-08
-8.21801e-10
-1.00664e-07
-7.1951e-08
0.000642873
-3.53846e-09
1.54622e-07
4.9982e-05
-0.000221768
3.1373e-08
-1.30776e-08
-2.81029e-08
-0.00259446
-9.95076e-06
-6.43916e-09
-1.00671e-08
-1.76112e-08
-0.00253615
-5.0113e-09
1.32109e-05
-7.93162e-05
-1.06995e-08
-3.81224e-09
-1.57504e-10
-0.00278756
6.53006e-07
9.04566e-07
-2.0231e-07
6.11964e-07
2.26457e-06
7.14461e-10
2.62471e-07
0.00028973
0.000166233
1.01206e-08
-2.61535e-10
-2.03476e-05
0.00136535
1.00524e-06
-2.7769e-07
-6.93868e-09
-3.84235e-07
5.20182e-09
1.75698e-10
2.34477e-08
-0.00175435
-4.49529e-10
-7.62808e-09
2.58147e-09
-1.20475e-09
-0.000176183
-6.8956e-09
-9.94132e-07
-2.34735e-09
2.10751e-08
0.000132229
-5.4386e-08
6.22595e-10
2.03076e-07
2.49846e-08
-1.82157e-08
2.36172e-09
0.000677919
3.97039e-07
3.13868e-08
3.92004e-07
3.64601e-06
2.06451e-09
1.4731e-08
-0.000210888
-8.9281e-05
2.94016e-07
1.90941e-07
8.13629e-08
1.37239e-09
3.95511e-08
-4.03095e-09
3.82832e-09
-7.76326e-10
1.26681e-08
-1.72826e-08
-1.23439e-08
-5.9259e-06
0.00106605
8.43293e-11
-0.000791009
8.76283e-10
-3.35396e-08
1.08925e-07
-4.93603e-10
1.8551e-07
2.53586e-08
0.000672774
-9.28195e-08
-6.66329e-09
0.000337655
-1.83023e-08
-5.74314e-08
-1.98454e-08
0.000939385
4.4697e-09
1.01008e-11
1.02159e-07
-1.32091e-07
-7.97153e-09
5.21045e-09
-2.85628e-05
3.53599e-09
-2.16807e-09
-1.51544e-08
-2.05075e-09
1.31081e-07
1.36605e-08
-1.9479e-09
-0.000481388
1.31239e-07
1.89133e-07
3.9266e-09
-4.85297e-09
-1.70423e-10
-1.44192e-08
3.1078e-08
-8.08556e-09
-6.8141e-09
-2.26182e-07
-0.00143813
-0.000204828
-7.6221e-09
1.93515e-07
5.99343e-07
-0.0018557
-9.81688e-09
-8.39301e-08
4.10471e-07
9.50697e-07
-2.19911e-10
-0.000318298
-7.47044e-10
-0.000307602
-0.00108951
-6.42785e-05
0.000887045
0.000999964
7.05702e-07
7.36685e-07
-7.10385e-09
4.94753e-08
-4.28467e-09
9.3114e-07
2.46947e-06
-4.33827e-05
-4.15525e-05
3.96799e-09
-4.26481e-09
4.52957e-09
-1.10876e-05
4.57934e-09
-4.1814e-09
-0.000143808
-1.65226e-05
-0.000111704
-2.22881e-09
-8.96766e-10
-0.00136778
0.00135354
-3.82711e-08
-6.22691e-10
-4.89754e-05
1.90613e-06
-1.97077e-07
-1.46831e-09
-4.29522e-09
5.36008e-08
-3.02329e-09
-4.12657e-09
0.00108753
-4.83289e-08
-6.19955e-09
0.000692971
1.42318e-09
-6.64719e-09
7.05996e-08
1.68101e-07
3.20852e-08
-6.90065e-06
5.77092e-09
1.12947e-07
-4.00904e-09
0.000420797
4.56989e-09
-1.82842e-08
6.4035e-09
-1.59944e-07
4.39601e-05
-5.58815e-09
4.1399e-09
3.55979e-09
-5.18211e-07
0.000539868
1.10767e-07
-2.66948e-10
3.39443e-10
-0.000269981
-1.03446e-08
-7.3564e-10
-2.94191e-08
-2.42163e-07
1.2944e-08
-1.04683e-08
3.76143e-08
-0.000197376
-0.000108921
-0.000123794
2.32041e-08
-0.000209691
-1.68536e-09
0.000679921
3.64738e-07
-1.15044e-08
-6.15336e-08
3.26877e-08
-2.51794e-08
0.000337584
-6.92911e-09
-2.80948e-08
-3.0232e-09
6.82573e-09
-0.00155722
4.92135e-08
-8.95373e-08
-1.31538e-09
1.50246e-06
-8.17735e-11
2.99833e-06
3.06177e-08
-3.08144e-09
-7.50755e-07
-1.46807e-05
0.000389062
-0.000473284
-4.72247e-09
-0.000155775
-3.78329e-09
-9.07792e-10
-4.29954e-10
-7.58083e-05
-2.32304e-08
0.00148404
-6.00267e-05
8.50416e-08
-0.00200215
-6.16143e-09
1.04867e-08
-3.13117e-08
-1.2001e-07
-2.16966e-08
4.13843e-10
2.98181e-08
-1.32992e-07
-2.41674e-09
1.57908e-08
-1.07573e-08
-1.28752e-07
5.46313e-09
-0.00139589
-4.33902e-05
-8.38086e-09
-0.000239733
-3.01384e-05
0.00104917
-1.53509e-08
6.5928e-08
-6.76215e-10
6.43649e-08
-7.58646e-13
2.46104e-07
-8.57583e-10
-3.62913e-08
1.23339e-09
2.16599e-09
2.58348e-09
1.92894e-07
6.37376e-09
2.49518e-09
5.56843e-08
3.84175e-08
-1.43575e-07
1.37285e-08
8.39591e-09
-7.58863e-05
-9.90816e-08
-1.34684e-08
-5.65064e-05
-8.7182e-09
-0.000228153
-0.00224883
-0.000328042
2.1736e-09
-1.45872e-08
1.25584e-09
-1.45666e-08
-1.07246e-09
2.25303e-08
1.10666e-08
-2.76113e-08
-0.00203514
5.46706e-08
9.96751e-10
0.000357277
3.16941e-05
3.54742e-08
9.46905e-06
4.74071e-07
-3.56668e-08
6.87957e-07
-8.25895e-07
6.5714e-11
-9.83676e-09
1.34872e-07
4.43255e-08
-1.56336e-08
0.000312211
-3.09544e-09
9.33332e-11
-5.86608e-10
-9.92309e-09
0.000876969
-2.5874e-09
-2.46649e-10
-1.26207e-08
-0.000271451
-1.48409e-09
2.07259e-08
0.0012464
-1.51771e-09
-4.08595e-09
0.000108373
3.60068e-07
0.000182404
7.71713e-11
2.54279e-08
-2.677e-10
6.85955e-06
0.00128456
1.94703e-07
1.33278e-08
-1.7269e-08
-1.38228e-07
-0.0016678
5.39374e-09
-4.65322e-09
1.15681e-05
-0.000290997
-3.85501e-09
1.78549e-06
1.10232e-07
3.27402e-07
5.51202e-09
1.01108e-06
-0.000835255
-9.62941e-09
-6.68764e-05
-6.70205e-05
-2.6769e-09
-0.000125844
2.33063e-08
-0.000981235
-0.00289904
3.46764e-08
1.22585e-10
0.000358653
-0.000110709
-2.96264e-08
0.000515421
4.01242e-05
0.000228997
3.90574e-08
-1.90634e-09
-5.935e-09
-5.27061e-05
-9.2779e-10
-4.73681e-08
1.15927e-08
-0.0022953
-4.85837e-08
0.0010129
2.50986e-08
-6.7709e-09
-1.06572e-09
0.000348426
0.000531098
9.22463e-09
-3.04982e-08
-2.15703e-05
9.15416e-08
1.95595e-07
3.82165e-10
-2.6642e-08
7.30655e-05
2.36096e-08
3.87817e-09
8.99446e-10
3.56765e-10
-8.36546e-09
-2.60442e-06
-8.55844e-07
-6.10592e-09
-2.79502e-09
-1.35272e-10
1.65091e-08
1.74596e-08
-3.54883e-09
-5.30652e-10
-1.84241e-08
-5.08427e-09
-6.00234e-06
-4.15689e-06
-1.55745e-08
-8.62855e-10
1.41867e-05
-4.12383e-09
-4.97148e-05
2.55599e-07
6.88832e-07
5.5644e-07
-1.20613e-09
-2.00198e-08
2.58465e-10
9.22025e-10
8.41202e-09
-1.50659e-05
-0.000325912
-9.19268e-09
-2.4432e-10
3.75212e-09
1.13252e-09
-2.46976e-08
1.30205e-08
-6.02268e-06
7.71463e-05
2.83357e-09
0.000367406
2.96205e-09
7.30781e-07
-2.13005e-07
2.4043e-08
-8.82559e-10
-2.57438e-09
-3.97422e-09
-4.56984e-10
1.68707e-06
4.52127e-08
-0.000129559
1.80989e-07
-2.1485e-10
-9.1698e-05
-2.59322e-08
-0.000244658
0.000989522
4.87718e-05
-1.68433e-08
5.58999e-10
-9.96803e-09
-3.6515e-05
3.07059e-08
-1.92086e-05
-0.00220765
4.06335e-06
-3.72402e-05
3.08509e-09
3.39203e-08
-1.16354e-09
-5.48644e-09
7.66397e-09
6.23402e-07
-6.71067e-09
-1.41315e-07
-3.30275e-08
1.42225e-08
-0.00101789
-1.51916e-08
-1.23627e-11
2.29207e-08
2.6667e-08
2.60616e-05
-0.000115171
3.94168e-08
-2.03101e-08
5.08789e-07
1.95036e-05
9.90222e-08
0.000117143
-2.27522e-08
6.48347e-08
5.42115e-08
-0.000261948
5.79595e-08
3.0816e-09
1.10754e-06
-1.66989e-09
-0.000193724
-4.56842e-09
2.60271e-08
-6.37172e-09
8.28183e-12
6.02187e-09
9.80616e-08
-1.47004e-06
1.45696e-06
1.08642e-05
4.97617e-07
1.03867e-10
-1.16896e-09
1.01194e-07
-3.15137e-09
1.40253e-07
8.61104e-08
-0.000305883
-0.00194569
1.0322e-07
-7.41437e-05
-5.15636e-05
2.0149e-08
-1.64116e-07
2.26202e-08
9.83297e-08
-0.000291272
-2.5766e-07
-4.92438e-08
-9.61903e-06
-1.00881e-08
-0.000188755
-2.20932e-07
-1.61864e-09
1.19133e-07
2.03685e-07
-0.00121699
-7.08971e-09
-0.000131075
-8.0336e-07
0.00218026
9.33448e-05
1.31792e-08
-0.000293287
3.88371e-07
-0.000116349
-9.07127e-09
-0.000119607
-0.00223086
2.99773e-10
3.88792e-09
-7.52251e-09
-0.000283639
1.5366e-07
-4.52163e-09
9.95897e-09
-8.49293e-06
-1.9127e-07
1.15442e-07
-1.10339e-08
-2.32049e-08
0.000816247
4.74353e-06
-8.46565e-09
-3.94044e-05
-1.34417e-07
-0.000116539
-6.02524e-06
2.68247e-08
-4.5114e-07
2.7436e-09
4.22733e-08
-0.000136302
5.67928e-08
-1.57054e-10
7.41695e-09
-1.47345e-08
-8.41574e-10
-8.58238e-08
4.43031e-09
1.26507e-08
-1.76267e-10
-3.29124e-10
-4.14409e-06
3.28692e-09
-3.26868e-10
-5.68905e-05
1.82729e-09
-2.52089e-08
-4.80075e-09
1.65685e-06
-1.78436e-08
-4.82546e-10
-0.00023887
-5.21108e-06
1.49361e-05
9.74101e-05
1.64171e-08
-1.03371e-08
-3.86004e-05
-3.15762e-08
8.27103e-08
-1.97092e-05
-2.2143e-09
-1.12404e-08
2.83227e-08
1.75079e-07
1.25293e-07
-2.74971e-08
3.47312e-06
4.5373e-08
-4.18633e-09
-6.24507e-09
-4.69098e-05
1.19688e-07
-2.90525e-08
-0.00104196
1.198e-08
-3.14076e-06
-1.63638e-08
9.50293e-06
4.47327e-05
0.000527835
2.75066e-09
-6.40229e-10
1.03507e-06
-2.75087e-09
3.16419e-09
0.000979313
2.65476e-07
6.53315e-07
2.72719e-08
-7.47035e-11
9.45211e-06
3.48074e-08
-3.14205e-09
-0.00113437
-1.17365e-08
-5.97682e-10
5.91771e-07
5.67006e-05
-0.000234941
-8.57231e-10
-2.24027e-08
-1.58221e-08
2.224e-09
3.89641e-07
-4.46156e-07
3.30552e-05
-1.39864e-08
5.14571e-08
3.83579e-06
-7.95109e-09
3.97629e-09
-8.85608e-06
0.00122439
5.67882e-05
-1.31364e-09
6.65327e-10
-5.34086e-09
1.03692e-09
5.86444e-08
1.13524e-06
7.55455e-07
9.34062e-08
0.000385773
-0.000160167
1.26628e-07
-0.00218212
2.12699e-09
2.34221e-07
3.29297e-08
-2.3714e-05
4.20257e-09
-3.20349e-08
0.000705952
3.16434e-05
-3.29364e-07
-2.58114e-09
3.96248e-06
-2.83895e-08
-1.39653e-05
-8.51548e-09
-9.05916e-09
-0.00144766
1.26447e-08
-3.21893e-06
-8.64489e-09
1.89831e-11
0.000170611
6.64097e-06
-0.000130721
-0.000118732
-4.34204e-09
-2.47845e-08
-1.77528e-08
-3.41833e-09
-2.41191e-08
-0.000305101
5.26011e-07
4.3016e-09
7.43497e-09
1.01275e-07
-2.39519e-08
4.84211e-06
-1.17784e-06
-8.01246e-09
4.1519e-08
-3.47481e-09
-1.05675e-08
6.45022e-06
-4.69722e-09
5.351e-06
-0.00025348
3.13525e-08
5.8945e-07
1.53371e-07
-7.60519e-06
0.000385842
2.04414e-06
0.000828043
-5.10972e-06
-1.85101e-08
0.00138469
-7.84857e-10
-0.00182656
2.63756e-06
-1.62669e-08
-4.64124e-10
-1.78667e-08
-0.000184961
-2.1626e-09
-1.6139e-08
7.88485e-10
-3.95539e-09
-1.34144e-09
-1.39025e-08
7.79913e-08
6.32451e-08
-1.08284e-08
0.000548087
-3.86214e-06
8.69267e-05
-1.82424e-07
-0.000197432
-7.13846e-05
-0.000273117
-4.64204e-08
0.00119509
5.61173e-06
-7.12127e-05
7.75456e-09
1.11e-07
-3.82265e-06
2.88461e-09
0.000100447
1.05608e-08
-0.00238148
2.18455e-09
1.23884e-08
2.16294e-08
4.29552e-09
-1.70752e-09
1.43893e-07
8.59697e-08
0.000402464
4.63053e-10
-2.58209e-08
2.95788e-08
5.28965e-08
6.36918e-06
-1.43535e-05
-1.71411e-06
-5.97817e-05
6.68963e-06
6.35538e-10
-0.00120292
7.08419e-05
0.000184532
1.89508e-10
1.713e-07
-3.55114e-09
1.83204e-09
2.0724e-08
9.35076e-10
-7.67423e-06
-5.97433e-09
1.64781e-09
-0.000279753
1.46302e-07
1.48756e-07
8.70327e-07
-6.50988e-09
-1.0363e-08
-2.52e-05
-2.05294e-09
3.12775e-09
-8.10449e-09
1.14297e-07
1.14945e-06
0.000930968
0.00116001
5.22377e-07
5.82113e-07
-6.81785e-05
-0.00269983
1.26251e-08
0.0018403
-0.000103441
2.46605e-11
-4.47267e-06
-4.80246e-07
0.000958168
9.25164e-08
1.50826e-08
-0.000223057
-0.000134528
3.76052e-09
-0.000137023
-5.76044e-08
1.6913e-08
0.000204354
-1.77427e-08
0.000506227
-1.34595e-08
-4.96027e-06
-1.78153e-08
-1.83279e-09
-2.17799e-10
-2.4501e-07
2.22478e-07
-0.000153966
1.03802e-07
0.000936407
5.1916e-07
-0.000103375
-1.16345e-05
-1.15977e-07
-3.48915e-09
-0.000752085
1.2024e-08
-5.70609e-05
8.23275e-09
0.000416516
-2.61394e-07
0.000214931
-9.39574e-07
0.000399222
1.02383e-08
-0.000132748
-7.66964e-06
1.23617e-07
4.5657e-06
3.51833e-09
3.31927e-07
0.00103838
1.0118e-09
-3.89427e-09
2.76542e-08
-1.57387e-09
8.37026e-06
0.00105899
-1.82554e-12
7.59783e-07
3.27359e-08
0.00051873
-8.67822e-10
2.25807e-09
-2.52155e-09
-1.41835e-08
-0.000321067
-4.62848e-06
-8.03246e-05
-5.36301e-09
-1.63342e-08
-0.000112136
-2.41438e-08
-5.86197e-09
2.34611e-08
6.25014e-07
3.25353e-11
-5.31165e-09
-5.43971e-09
-4.64462e-09
1.803e-07
-0.00220168
-9.26271e-06
1.29615e-09
-3.55884e-05
-3.4939e-10
1.00347e-07
-3.53314e-08
5.68566e-08
-0.00026719
1.52804e-09
-0.00290217
-1.83926e-08
9.43217e-07
2.11194e-07
-1.284e-08
-1.45177e-08
-2.13507e-05
-3.97981e-11
8.66841e-08
4.33394e-08
9.09657e-08
4.76975e-08
5.07715e-09
-0.000101485
5.11762e-07
3.63841e-05
-0.00075654
2.66658e-08
0.000360268
6.44491e-07
8.63132e-08
-7.93705e-09
1.28865e-08
8.84674e-06
1.03149e-09
9.77203e-08
2.3757e-09
-2.10788e-08
1.13008e-08
4.33851e-05
2.5385e-07
-1.85186e-08
-1.27992e-08
-5.74843e-09
1.05088e-09
2.24248e-09
2.62302e-08
-4.36094e-09
-1.49698e-10
1.19176e-09
5.60682e-07
1.31728e-08
0.000920835
1.38597e-08
-7.02851e-06
-6.5204e-09
6.9607e-08
1.76945e-08
4.53084e-07
3.05143e-08
-8.67467e-08
1.94999e-05
1.38915e-07
6.54696e-09
6.40337e-07
0.000126017
5.89954e-07
-1.1642e-08
1.22386e-08
3.07698e-09
-0.000151024
-0.0017669
-3.76049e-05
4.53093e-08
-0.0011474
3.85182e-09
-7.09657e-10
7.36421e-07
-4.41618e-08
-0.000814539
1.86603e-10
4.68391e-07
-1.77371e-09
6.77663e-09
-0.000110398
-0.000262796
-4.50437e-09
2.34796e-09
-1.90973e-06
1.18089e-05
0.00102656
-1.609e-08
6.69625e-06
2.06143e-08
-8.47372e-05
-2.01661e-08
-0.000153935
-8.31807e-07
-4.32304e-09
-2.86604e-08
5.0831e-07
0.00119345
1.26315e-09
2.26659e-07
0.00255427
3.78902e-08
-6.11337e-10
5.76107e-07
3.28573e-08
2.56407e-08
-0.000126337
-1.4402e-08
1.87652e-08
1.18251e-08
-8.0801e-09
2.8876e-05
1.51493e-07
7.14978e-05
0.000615434
-3.26283e-10
-0.00229469
-3.28596e-09
-0.0013943
8.52106e-09
-2.20368e-09
-3.60618e-09
-0.00203973
-4.24471e-10
-3.25628e-08
-1.55084e-08
0.00114714
6.65064e-09
7.26351e-09
7.59557e-07
-5.3676e-10
5.43832e-09
-5.91973e-09
-1.26654e-08
-0.00010714
4.25828e-09
-1.70898e-07
-0.000292925
2.79544e-09
0.000394177
-3.29729e-09
-1.19413e-08
-3.22139e-05
6.40681e-07
1.94648e-07
3.99884e-12
-7.66928e-09
-8.99883e-11
5.08752e-07
-0.000306882
4.58363e-10
-8.76091e-08
1.52114e-10
0.000649349
-1.2924e-09
-6.70829e-09
1.60408e-09
6.47753e-10
-1.09959e-08
4.99348e-07
-1.3051e-09
-1.53117e-05
3.1451e-09
0.000633464
-6.32351e-07
-5.5357e-09
-2.94943e-11
0.00035608
2.8858e-08
-1.46269e-05
1.57712e-09
4.64519e-08
8.02768e-08
0.000945439
0.000778714
-0.000265019
7.92751e-09
-2.90128e-10
1.53655e-07
-7.99896e-05
2.30319e-07
4.63664e-07
4.92285e-09
6.44225e-07
-5.98022e-07
-9.78993e-05
-7.8934e-09
9.80774e-08
0.000848232
5.23391e-08
0.000166765
-6.68047e-07
3.31827e-09
-5.44278e-10
2.67705e-08
4.29825e-07
-0.000135574
8.86022e-09
-1.09953e-05
1.43877e-07
-0.000110431
0.000490694
-3.40314e-08
-2.07593e-09
-0.00217189
7.66527e-09
-1.23352e-08
0.000315411
-0.000327555
1.20785e-07
-0.000177097
-6.90093e-09
-6.15233e-09
-4.41573e-05
-5.51875e-05
6.11478e-07
5.09679e-09
3.33707e-09
1.18786e-05
-5.29235e-09
-6.96393e-09
-1.73395e-09
-1.77891e-10
1.31985e-07
-3.64827e-08
2.11743e-05
8.89642e-09
0.000790276
2.44702e-08
8.87629e-08
1.45439e-07
-0.000264886
-1.00381e-06
1.59321e-07
5.13022e-08
1.9852e-08
-8.8948e-09
-6.62625e-09
-2.04125e-09
-0.000279916
-9.87859e-05
-2.97127e-09
-3.78489e-05
1.39656e-08
-4.06439e-07
0.000562903
-0.000147718
-7.26131e-08
-9.49317e-08
-0.00137396
-7.04606e-05
0.000456231
-1.93966e-08
-3.50336e-08
-9.65796e-06
-1.14153e-08
-1.03644e-07
-4.94397e-09
-0.000166779
1.73796e-05
-0.000221081
9.43952e-10
-4.17161e-09
6.91122e-08
6.04507e-05
-3.01712e-09
-1.13405e-09
2.56479e-05
-0.000134347
-4.22273e-09
-1.52911e-09
-1.52376e-09
1.59681e-06
1.33391e-07
-1.47106e-05
1.33674e-08
-4.34055e-05
-1.47082e-08
2.05151e-05
1.84001e-10
6.07437e-06
4.55328e-09
-6.95146e-10
4.5265e-07
5.26278e-09
1.5051e-06
2.12804e-08
6.67096e-07
0.000261203
-0.000170699
-5.72892e-05
-2.26911e-09
0.00119341
2.42755e-07
-0.00137791
-2.15026e-07
-1.21e-06
4.53051e-08
-1.13196e-05
0.00144888
7.26243e-07
1.70385e-08
-0.000121741
0.000347495
-1.01833e-09
3.07723e-10
-2.75402e-08
-8.70464e-09
-1.92546e-05
-1.22025e-08
-4.11396e-09
-2.62648e-08
5.82852e-07
-2.82671e-08
-1.38056e-11
3.51385e-08
-1.06096e-08
1.67535e-11
-3.23299e-07
-1.26381e-09
2.52448e-09
4.1935e-07
1.8252e-09
-0.000191479
7.52273e-09
1.60399e-09
-1.56297e-09
-2.73439e-06
-4.01182e-09
2.95992e-06
-0.000473383
-1.31399e-08
-0.000134253
2.91665e-09
-1.31791e-09
8.46281e-07
2.1966e-09
-0.000144973
-9.81816e-07
6.98289e-09
5.04122e-07
0.000145448
-2.19505e-08
0.000245005
5.50723e-07
1.26778e-08
1.24435e-05
-8.45693e-05
1.36879e-07