/*--------------------------------*- C++ -*----------------------------------*\
| =========                 |                                                 |
| \\      /  F ield         | OpenFOAM: The Open Source CFD Toolbox           |
|  \\    /   O peration     | Version:  v2012                                 |
|   \\  /    A nd           | Website:  www.openfoam.com                      |
|    \\/     M anipulation  |                                                 |
\*---------------------------------------------------------------------------*/
FoamFile
{
    version     2.0;
    format      ascii;
    class       volScalarField;
    location    "300";
    object      ddt0(epsilon);
}
// * * * * * * * * * * * * * * * * * * * * * * * * * * * * * * * * * * * * * //

dimensions      [0 2 -4 0 0 0 0];


internalField   nonuniform List<scalar> 
18232
(
-0.000975869
-9.68673e-10
-1.81546e-11
3.08132e-10
2.07597e-09
5.69884e-08
1.6143e-10
3.66868e-11
1.62973e-09
1.69811e-09
1.06822e-10
1.38571e-08
8.61251e-10
9.55563e-05
1.82405e-10
-1.24926e-05
8.90723e-12
-1.06631e-11
6.62036e-11
-7.76708e-09
3.78829e-07
-2.28427e-10
-5.05659e-11
-1.95655e-10
4.99477e-10
3.71589e-10
-6.04922e-11
5.37316e-08
-2.37895e-11
-4.73427e-11
2.76324e-11
0.000102283
-2.3068e-10
-0.000518436
-0.000122496
1.20093e-09
6.69189e-07
5.22272e-11
-7.98566e-05
-1.18031e-10
-0.0030865
8.81665e-09
4.6409e-09
-3.15999e-05
-3.76012e-11
-0.000150364
-2.27063e-10
8.93599e-09
-2.6555e-08
-1.0767e-10
-1.73577e-11
3.69107e-12
-0.0016577
3.80091e-09
3.04792e-10
-3.97082e-08
-6.62778e-11
2.32482e-10
0.00284055
-3.65712e-10
3.92598e-11
-7.3516e-11
-2.19503e-10
2.81154e-10
1.16892e-08
-4.734e-10
0.000237043
5.13312e-05
-3.02285e-11
-2.1665e-10
-1.32309e-10
5.34646e-10
9.55527e-05
-1.42607e-05
2.79942e-08
-6.0131e-06
-2.9254e-10
9.77536e-11
0.000101458
3.25767e-11
-1.54857e-06
9.0994e-09
4.7086e-09
-3.78722e-10
0.000301354
-3.86183e-08
7.7049e-11
8.37363e-11
8.72101e-09
4.05718e-09
1.35438e-10
-5.66986e-13
-1.34324e-11
-2.78215e-08
1.2359e-10
-2.28812e-10
1.12519e-11
-2.03753e-12
0.000164019
-3.14211e-10
2.98053e-10
3.58668e-09
-2.99618e-05
8.91659e-10
5.90211e-09
-1.45745e-10
5.23729e-12
1.75207e-09
1.15427e-11
-3.1635e-10
-4.57613e-10
-1.09222e-05
-1.47003e-10
-9.10249e-11
5.44251e-11
2.83719e-11
1.00574e-08
-0.000147857
1.75226e-09
1.36836e-10
1.29795e-10
4.64755e-11
5.18887e-06
7.99799e-08
0.000214699
4.11742e-09
9.65659e-08
-5.19894e-11
3.01644e-07
1.92814e-06
-4.14115e-11
-2.76043e-10
1.98713e-09
-6.41381e-11
-0.00153216
-4.4971e-06
-2.99335e-08
2.07941e-10
-3.29528e-10
-9.83646e-05
5.74775e-10
-2.90375e-10
1.50374e-05
-5.12426e-11
7.78473e-10
1.01276e-10
-1.94678e-10
-1.58864e-12
-0.000102515
7.2668e-09
4.51268e-06
7.87581e-09
7.80739e-09
-2.16461e-10
3.63783e-09
-0.00336072
-5.78303e-06
1.11313e-08
3.05277e-08
-2.80431e-10
-1.40223e-09
-4.54546e-11
-2.84606e-10
0.000383291
0.000316188
2.5144e-10
5.4886e-09
-2.8762e-05
4.11718e-10
-4.7803e-06
-2.99475e-11
1.82733e-11
-4.00471e-11
-2.662e-10
-8.25639e-11
-1.37383e-05
-8.9977e-11
1.78141e-13
-0.000134041
-7.49871e-11
-2.40632e-09
-8.56715e-05
-1.66661e-09
-2.88407e-05
0.00224189
-6.95006e-13
-1.71622e-10
0.000342313
-5.77517e-10
7.78448e-05
-2.14138e-10
-2.48619e-11
1.74343e-09
-0.000131295
-7.23521e-11
-1.38506e-10
-1.17101e-10
-3.29927e-11
-4.88299e-10
-4.85226e-11
6.25723e-13
4.08596e-10
5.40516e-10
-7.37137e-08
3.91925e-09
-6.60365e-05
8.20824e-07
-0.000463592
7.95676e-09
2.00789e-09
-2.75914e-10
1.23194e-10
3.65852e-10
7.99819e-05
-2.62872e-05
2.87006e-10
7.81061e-09
2.09135e-10
2.56703e-11
-4.954e-12
-0.00012625
-3.12764e-10
4.65054e-05
-6.59419e-10
-2.83124e-10
-5.26725e-11
8.18612e-09
-3.32034e-10
4.16095e-11
-6.99655e-10
-1.18546e-10
3.16806e-10
0.000108849
1.28136e-06
-4.82169e-10
-0.00013916
-5.12751e-10
-1.89278e-08
-1.12026e-10
6.0804e-12
-1.44532e-10
-3.7171e-05
-3.07166e-09
5.78123e-10
2.86213e-05
4.01226e-06
4.33206e-13
0.00188076
0.000599776
-3.81229e-10
-4.98895e-08
-5.52134e-08
-2.28649e-10
7.84601e-09
-5.32169e-11
2.82091e-06
-3.71578e-06
4.83554e-05
0.000199708
-2.62424e-09
-5.94887e-10
3.45341e-09
6.39298e-09
1.95569e-12
-1.54369e-10
8.57693e-13
-2.59568e-05
3.36142e-08
-5.19035e-08
-8.13539e-07
-2.6917e-10
-0.000745065
3.18858e-08
-1.35729e-11
-2.41757e-10
0.000136383
4.63592e-09
-1.65223e-10
1.00562e-11
0.000741808
-3.67319e-05
1.09585e-10
-6.14773e-10
1.9004e-05
-3.5265e-08
4.57376e-10
7.70108e-10
-5.9983e-05
-2.38146e-10
1.08558e-08
-9.85909e-11
4.51067e-09
6.52773e-05
1.44317e-08
7.96589e-09
-9.186e-07
7.29787e-06
-4.58665e-10
2.0743e-12
-3.5298e-10
-5.4532e-10
6.57264e-12
-0.000128971
-4.48511e-08
6.07482e-12
3.04394e-10
6.54783e-08
1.48814e-09
1.44342e-11
-0.000146005
6.30256e-10
-1.62272e-10
2.91768e-08
-2.10053e-10
-5.98688e-10
7.50672e-10
1.10586e-05
-6.31928e-11
-0.000143057
-1.88842e-10
9.90059e-06
6.08579e-11
2.68691e-08
1.92625e-05
6.18066e-10
-4.88184e-10
1.09723e-07
-6.37256e-11
3.22568e-09
-2.05725e-10
3.41324e-09
5.90686e-11
4.26339e-09
0.000353321
-1.19286e-08
-0.000842494
-8.31693e-07
0.000663257
1.08167e-10
2.01734e-09
-4.16629e-10
4.61164e-07
7.6843e-14
8.93716e-11
-4.48721e-11
-5.95962e-09
0.000439314
5.33968e-10
6.48138e-08
6.22217e-10
-0.000204527
7.25494e-10
7.89212e-10
-1.53453e-10
3.97783e-09
8.2891e-10
-3.68319e-08
0.000544018
1.46102e-11
8.47243e-11
2.43556e-06
3.67038e-09
0.0025153
9.62764e-10
-0.000963279
-4.88145e-10
5.26638e-09
0.000576067
2.31026e-11
0.000625142
-1.56054e-07
-4.11742e-08
-1.26365e-09
-0.0224991
-2.41665e-11
-3.11158e-10
-1.85373e-10
-1.29244e-11
5.57683e-06
3.1483e-05
2.45068e-10
4.47088e-09
-5.80931e-12
1.19032e-10
0.000557252
2.74392e-09
3.371e-11
-1.10484e-11
-5.04549e-11
-1.79054e-11
5.25676e-10
6.50528e-09
-9.81257e-05
3.31074e-09
-1.87582e-05
-4.21048e-10
1.03985e-06
2.12781e-10
2.91451e-07
-2.4551e-11
-9.58555e-08
-2.23644e-05
9.667e-08
0.000325553
3.89692e-09
3.43282e-11
7.67742e-10
5.38501e-12
1.15143e-10
2.38433e-08
3.29079e-05
-0.00722127
1.35853e-09
-4.73177e-11
7.91688e-05
-6.75434e-09
2.93825e-13
1.88077e-12
-9.44932e-05
7.52064e-11
-1.71714e-11
5.82355e-09
2.60651e-08
-1.13185e-10
-3.5461e-05
-3.11592e-09
2.9491e-08
1.81332e-08
5.24687e-09
-7.35908e-09
3.86704e-11
-2.53543e-08
0.000398785
-1.55652e-10
3.98009e-09
-8.50402e-12
-2.69515e-10
-7.78601e-10
-1.37469e-09
1.51134e-10
5.72276e-10
-3.34332e-08
-0.00012839
2.14053e-09
-1.94472e-10
2.20366e-09
-1.50893e-10
1.28029e-10
2.22155e-08
3.88981e-09
-0.000130183
-1.08283e-10
3.14446e-11
7.51212e-11
-2.61857e-06
2.79049e-11
0.000783329
3.05404e-12
2.72137e-08
3.37505e-10
-1.06585e-10
4.10755e-08
-1.46151e-10
3.56745e-05
-8.97702e-11
4.32331e-10
-5.25978e-11
-3.31663e-10
6.6547e-10
2.4535e-10
7.53229e-12
-0.000143832
-5.85413e-09
2.71807e-08
6.26449e-09
7.49045e-09
-3.00761e-10
-2.23059e-07
-0.000940241
-5.62766e-10
7.00577e-09
-8.25362e-10
1.0463e-10
2.68132e-08
2.18552e-11
3.20474e-09
-3.41894e-10
-6.18246e-10
-7.3086e-05
2.93688e-09
7.43517e-12
3.32898e-08
1.90693e-11
-1.55015e-10
7.01205e-09
-2.76546e-09
-1.15651e-10
-1.26743e-07
-1.7017e-05
2.32979e-11
1.002e-10
-5.61636e-10
2.22935e-10
4.24814e-08
0.0004186
-1.00694e-09
6.58346e-11
-3.21938e-10
1.88613e-11
-3.82526e-10
-0.000143816
-1.38306e-10
-4.97457e-11
-2.02084e-05
-1.51413e-10
3.83129e-11
1.74107e-10
-1.89059e-09
-6.43224e-10
-1.95158e-10
2.36726e-10
-5.48077e-10
1.58475e-10
0.00172643
0.000388651
-4.22745e-10
-1.74732e-10
-1.87122e-11
-6.8105e-10
0.000551003
1.29924e-11
9.46412e-08
4.85819e-08
7.01509e-09
0.000249829
9.83495e-10
-7.32108e-06
-1.00289e-11
0.000489619
-6.92999e-08
2.26495e-10
6.02591e-10
-2.32373e-10
-2.59381e-11
1.51232e-11
2.3811e-08
1.77587e-05
1.80886e-09
3.08584e-11
-9.239e-09
3.37824e-09
-1.00895e-10
-5.80876e-10
6.12043e-12
2.45557e-05
-0.000587121
-3.06786e-10
-1.08942e-09
3.4597e-10
-2.19404e-05
2.43035e-05
-1.19542e-13
2.28437e-08
1.37498e-11
1.41969e-05
-1.42641e-11
-2.33141e-11
0.000209289
1.05754e-05
7.76502e-09
-3.97653e-11
1.71795e-10
-6.84308e-06
-4.15531e-10
-1.46563e-10
-4.14464e-10
0.0027902
9.43912e-11
0.000210698
-4.18788e-12
0.000117395
-3.16455e-11
1.75996e-05
4.46358e-09
-1.62519e-11
-2.42326e-09
-4.5295e-11
9.83715e-09
1.18771e-05
0.000269635
3.0446e-12
1.37419e-11
5.01445e-08
3.77451e-11
7.72284e-05
-1.33328e-10
-1.39543e-09
0.000460205
-0.000132721
-4.09157e-10
-5.92757e-11
4.09152e-11
-0.000698845
4.61283e-09
-2.37988e-11
4.87068e-10
1.60766e-11
0.000100129
1.26548e-11
2.83511e-09
-1.90275e-10
-1.91639e-10
1.5137e-09
5.76625e-09
2.63455e-10
1.44492e-12
-1.05507e-10
-6.43956e-05
-3.08807e-12
-1.02245e-10
-1.2794e-09
9.60806e-12
1.40764e-05
-5.41992e-05
1.97044e-09
-5.94554e-09
8.02328e-09
-0.00223748
-3.78783e-10
-2.30427e-10
-1.7162e-10
1.70784e-11
-1.45782e-10
-1.44481e-11
-7.44795e-05
1.51434e-05
0.000366037
2.38512e-05
-4.96001e-05
6.73328e-09
-4.23883e-08
-3.12493e-06
-2.49664e-13
-1.52199e-06
-5.52863e-10
2.33995e-09
1.02942e-08
-0.0020087
-2.16056e-11
1.47308e-10
2.97409e-06
-5.76776e-10
-9.03422e-11
-8.98059e-10
-3.16495e-05
5.86462e-09
-8.28585e-10
2.91195e-07
2.99957e-08
-1.66558e-05
-7.10649e-10
6.9226e-10
-3.03762e-10
2.12893e-08
-2.87469e-10
5.54967e-08
6.25248e-09
-9.61988e-12
-3.70903e-10
-1.4006e-10
-2.08156e-11
0.000413333
-3.07867e-05
-6.52888e-11
-1.20619e-05
8.43299e-09
-6.12961e-05
3.10985e-08
8.33419e-11
-0.00188625
-2.80041e-10
1.92744e-10
0.000185871
6.09857e-10
-5.21823e-11
-2.60235e-05
5.90462e-08
5.27409e-11
-1.40133e-10
-2.26149e-05
-1.26288e-10
-2.95478e-11
-5.48428e-05
-0.000144482
-2.56298e-09
7.98518e-09
5.71424e-05
-6.14983e-10
8.29894e-09
0.00356849
-6.15984e-09
7.51547e-05
3.71759e-09
0.00205445
5.58016e-09
1.47846e-11
-0.00302322
7.41318e-12
-3.66389e-12
-2.73961e-11
-0.000847544
5.81508e-08
2.47051e-11
-2.87627e-05
1.86211e-11
7.96036e-09
6.07762e-10
0.000318202
1.27447e-08
6.72874e-09
-2.77198e-10
-7.95823e-11
6.75084e-11
-0.000872344
-7.25344e-09
-0.000149172
3.69137e-13
-3.94158e-07
-8.26753e-13
2.97791e-12
-1.13208e-10
-1.21757e-11
-3.38041e-10
-5.52244e-11
6.46212e-11
1.19814e-09
2.5708e-05
-1.80033e-11
3.4104e-10
0.00161844
7.18914e-09
-0.000511429
-9.39302e-11
-3.50747e-07
-0.00643175
-2.41608e-11
0.00157427
5.76336e-09
0.00197556
-8.76058e-07
4.02113e-05
-2.61141e-11
-2.63467e-10
-4.4245e-10
-2.04261e-08
-8.97494e-06
7.45506e-08
-4.12349e-10
2.09937e-11
6.84731e-05
-3.23223e-05
1.46101e-07
-3.14627e-11
6.27046e-08
-1.07585e-10
2.48629e-09
-0.000710715
3.67045e-10
-3.5297e-05
-2.69476e-10
-1.57948e-10
-0.000420778
-2.89803e-05
-2.00965e-10
-7.93118e-11
3.28574e-09
-2.38619e-05
5.7283e-10
-1.01705e-10
1.93568e-08
2.34718e-08
1.60161e-08
-6.73488e-10
-1.10754e-08
4.37828e-12
6.46173e-13
0.000195176
6.14414e-09
3.77951e-05
1.50609e-05
-4.27467e-09
-5.32072e-09
-2.09889e-05
-1.34393e-10
-2.26694e-10
2.17009e-09
-7.10291e-05
-5.53556e-10
9.77948e-09
-7.50933e-05
1.6119e-10
-1.25563e-05
1.54538e-10
4.96174e-12
-5.28871e-11
1.47176e-09
1.92082e-09
8.84083e-05
5.39375e-10
-3.51128e-10
6.94458e-05
7.55315e-09
0.00622846
0.000429978
5.94287e-08
-4.17857e-05
-3.76723e-07
-5.90964e-11
-2.36411e-11
-1.64927e-08
6.24049e-05
1.4274e-09
2.18349e-09
5.62336e-06
-7.46868e-10
-7.70703e-11
2.93851e-10
0.000436729
-2.58513e-10
-1.78995e-05
-5.12262e-09
-1.21365e-11
2.07841e-05
-2.22558e-09
0.00108727
-4.6597e-10
-1.17663e-10
3.27274e-11
-3.03715e-06
-1.70663e-12
5.09402e-09
-1.28824e-11
-0.00205318
-5.49891e-11
-1.36723e-05
5.84179e-08
-1.48171e-10
-2.40751e-11
-5.73308e-10
6.22514e-09
-1.01405e-09
-2.52416e-10
0.000209494
-7.16898e-05
1.55634e-10
-2.5556e-05
2.48993e-11
2.2444e-11
-9.8303e-11
2.33216e-11
-2.04329e-10
2.35337e-09
9.40696e-10
1.14001e-09
-2.64868e-11
3.16173e-10
1.90444e-09
-8.77093e-11
0.00344494
-1.65037e-08
9.52634e-12
-3.07114e-11
-1.82928e-05
-8.66718e-05
1.7599e-12
-7.99839e-06
-4.21381e-05
1.04943e-10
1.24082e-11
-0.00138266
3.73367e-05
-1.24733e-08
3.39983e-08
-1.23648e-05
2.11258e-10
-8.86385e-05
0.0033237
2.10264e-05
3.08003e-10
-1.96584e-10
-1.11697e-06
-4.76341e-09
3.00771e-11
2.36832e-08
2.73662e-08
-1.36243e-07
-1.319e-11
-8.86608e-11
-1.19493e-10
-7.78771e-11
-4.73509e-11
-2.94707e-06
-5.35877e-07
6.53182e-13
2.43042e-11
0.00125977
-1.56973e-10
-0.000247877
-6.78787e-11
3.02113e-10
-6.65937e-05
-7.0419e-10
8.90787e-10
2.83076e-10
1.79271e-11
-7.61636e-12
9.79187e-12
-0.00349476
1.3484e-11
3.36525e-11
-1.03658e-10
1.64929e-11
-0.00103386
4.54018e-10
1.25672e-09
-6.08364e-11
2.6976e-09
5.72555e-08
1.97041e-11
-2.05427e-05
1.6733e-05
-5.32323e-11
-8.95526e-11
-2.44277e-10
-1.35207e-09
-2.92522e-11
1.77637e-10
-3.27783e-10
-1.30959e-08
7.01761e-10
-9.47379e-11
-4.38861e-09
-4.08567e-09
1.84393e-10
-1.8196e-10
0.00103418
3.1299e-06
3.56683e-08
1.07336e-09
2.33795e-08
-4.47978e-11
1.73696e-11
7.22439e-05
-0.000138842
1.37958e-10
-3.07499e-11
5.13031e-07
0.00037097
-6.09938e-11
3.97926e-10
-6.00231e-05
-5.53155e-06
2.51706e-09
7.22005e-10
-2.72418e-09
0.00019851
2.63276e-12
-1.44288e-13
-8.9241e-07
0.00038467
0.000255178
1.12101e-09
1.43088e-08
-5.23172e-10
-2.03927e-10
3.91704e-14
-6.60472e-11
-6.80277e-07
-2.72602e-11
-0.000772857
-5.01726e-10
-4.07991e-06
-0.000766193
-2.71148e-11
6.49707e-07
-6.13996e-10
-3.58415e-10
-1.5463e-11
8.75326e-09
-6.30751e-13
2.51831e-11
-2.16682e-10
-1.13483e-05
-3.0176e-10
-3.43763e-05
1.23867e-11
6.13888e-10
4.23992e-10
-3.54902e-09
7.66239e-11
0.000168877
1.47237e-09
-2.59547e-08
-2.60938e-10
-4.47804e-05
-7.57494e-05
7.68191e-07
1.77821e-08
-1.89741e-05
1.04303e-11
-0.000504077
4.46667e-09
-2.34833e-10
4.30048e-08
-0.000107352
-0.00383682
-4.21572e-10
-1.37882e-10
-5.88784e-07
-6.54751e-12
2.33488e-07
8.04832e-11
0.000154801
-2.54569e-11
-5.16868e-09
-2.13679e-10
-1.07754e-05
1.40766e-12
-4.0113e-10
7.13718e-09
-7.05544e-10
6.25935e-08
0.000335234
-3.64853e-11
2.69591e-10
-5.56958e-11
-5.34527e-11
8.04917e-09
-2.3719e-09
-2.46469e-10
1.46149e-08
-1.78062e-10
0.00014582
7.92253e-10
6.04212e-09
-4.24982e-10
-2.8547e-10
-0.00477335
1.04517e-08
9.81015e-12
-1.45342e-05
-9.43738e-05
-0.000347963
0.00254297
0.00244093
3.07126e-09
-2.48527e-11
2.58998e-11
-2.82596e-10
1.16794e-10
-1.72287e-07
0.000360824
5.22251e-08
-3.05446e-11
1.54126e-09
0.000163482
-0.000152402
-1.48039e-11
-1.58941e-10
-2.71035e-05
7.77995e-07
3.46259e-09
7.68411e-10
-3.59361e-10
-4.2023e-10
-7.8663e-11
5.76471e-05
-2.13091e-11
-0.000859499
-1.50495e-10
-1.54326e-10
0.000141572
-0.000147075
-4.30937e-10
-4.3746e-11
2.52671e-10
7.10305e-09
1.07908e-08
8.84264e-08
-2.50016e-10
9.83953e-12
2.96214e-11
0.00144429
5.29711e-09
3.68884e-10
1.38247e-06
-5.27252e-10
-1.11286e-10
-3.57059e-10
2.32713e-09
-2.28217e-07
-2.0081e-10
2.32503e-09
-2.31952e-10
6.65817e-13
-5.56847e-13
-4.13359e-11
-1.23369e-12
-9.90104e-13
1.01186e-08
-1.82162e-11
-1.51771e-06
-4.76206e-10
9.43175e-10
4.39428e-09
-5.5062e-10
1.1081e-10
0.000936384
-3.94622e-10
0.00136858
-6.1871e-11
-3.77561e-11
-3.40149e-09
1.07175e-09
0.00111411
-8.35328e-11
5.24139e-09
0.000241366
-7.73343e-05
8.98797e-10
3.39172e-10
-3.03533e-10
-0.00175208
-8.23256e-07
-6.15453e-11
-2.89726e-10
-6.39493e-10
-0.00205363
-9.71924e-11
1.85359e-05
-1.45836e-06
-3.46799e-10
1.1752e-10
-3.82205e-12
-0.00176722
1.82216e-08
2.51651e-08
-5.47607e-09
2.25124e-08
-1.05763e-05
-4.86841e-11
1.80062e-08
0.000374061
0.000199596
2.07146e-10
1.69665e-13
-2.77491e-06
0.00265115
2.86659e-08
-9.78705e-09
-3.38074e-10
-1.89597e-08
4.55463e-11
-7.34836e-11
8.14232e-10
0.000292171
-9.71269e-12
-5.56371e-11
-6.75652e-12
-3.22507e-11
0.000130672
-1.29131e-10
-3.23764e-08
-7.87586e-11
3.80417e-10
2.67639e-05
8.13937e-10
3.59861e-11
6.24681e-09
-4.7065e-11
-8.75174e-10
3.00054e-10
0.00132614
1.60348e-08
5.65068e-10
1.10886e-08
1.65438e-07
1.19952e-11
1.99567e-10
-0.000132935
-2.4381e-05
9.12569e-09
5.30144e-09
2.63998e-09
2.33418e-11
8.41604e-10
-4.38055e-11
1.76109e-10
-2.25644e-11
1.21602e-10
-5.01276e-10
-7.3374e-11
-1.25155e-07
0.00634788
1.42349e-12
-0.000119944
-2.87847e-10
-1.18025e-09
2.88448e-09
-8.84784e-12
5.149e-09
-1.31791e-10
0.000352789
-3.12438e-09
-1.76002e-10
-1.74868e-05
-6.3757e-10
-1.8274e-09
-1.27939e-10
0.00146594
1.34048e-10
-1.88808e-11
2.52894e-09
-4.92289e-09
-3.78946e-10
5.78573e-11
-4.61449e-06
2.13112e-10
-3.43852e-11
-5.27347e-10
-3.20614e-10
3.82283e-09
-6.65634e-11
-2.37175e-11
-0.0011673
3.87953e-09
5.03556e-09
2.02266e-11
-3.87053e-10
-2.89999e-11
-1.61663e-10
1.00288e-09
2.27918e-11
-1.51401e-10
-8.25704e-09
9.6085e-05
-6.827e-05
-2.26315e-10
5.57064e-09
1.67406e-08
-0.00216466
-3.16544e-10
-1.64513e-09
1.1567e-08
3.34248e-08
-1.32893e-11
-0.000146148
-1.64107e-11
-8.87859e-05
-0.000763106
1.35784e-05
0.00214552
0.00153537
1.89933e-08
2.09686e-08
-2.00634e-11
4.56586e-10
-1.6932e-10
2.65058e-08
7.24225e-08
-1.42003e-05
-1.17467e-05
2.33509e-11
-7.59589e-11
1.28803e-10
-1.1784e-06
1.41272e-11
-3.64374e-10
-0.000106049
-1.40262e-06
-8.88987e-05
-3.0707e-11
-3.65106e-11
-0.00178708
0.00297956
-1.13302e-09
-2.59209e-11
-9.43821e-06
8.42084e-08
-6.68078e-09
-4.10607e-10
-2.47593e-10
1.46232e-09
-7.59916e-11
-5.05364e-11
0.00184838
-6.21148e-10
-1.41679e-10
0.00119944
3.50092e-11
-3.13555e-10
2.47177e-09
5.00842e-09
2.58349e-10
-6.37079e-07
3.3953e-11
2.78259e-09
-3.31208e-11
0.000253132
9.56012e-12
-5.00893e-10
4.95801e-11
-5.28753e-09
2.70688e-06
4.96937e-11
-1.11483e-10
3.964e-11
-2.41568e-08
0.000207773
3.03493e-09
-1.97764e-11
9.80286e-13
-0.000108953
-9.75396e-11
-6.67541e-11
-6.36482e-10
-8.54209e-09
3.34665e-10
-1.44685e-10
1.06459e-09
-0.000124071
-2.72976e-05
-2.10086e-05
-1.13752e-10
-7.50621e-05
2.78096e-10
0.00045167
1.09578e-08
-3.62057e-10
-1.84703e-09
1.07536e-09
-7.08697e-10
0.000183527
-1.63867e-10
-9.35323e-10
-9.32497e-11
-6.22308e-10
-0.00187362
7.28491e-10
-3.00751e-09
-2.18267e-10
6.11845e-08
6.05636e-12
1.90366e-07
9.38813e-10
-6.77088e-11
-1.63611e-08
-1.77479e-06
0.000203594
-0.000221548
-8.95405e-11
-0.000113864
-3.21603e-10
-2.66488e-11
-1.98748e-11
-1.40184e-05
-6.3885e-10
0.00350398
-1.19761e-05
1.95128e-09
-0.000286466
-4.53625e-10
8.01556e-10
5.60808e-10
-5.64999e-09
-7.10967e-10
1.07604e-11
8.01714e-10
-3.68775e-09
-7.58043e-11
1.21112e-10
4.91422e-10
-4.22695e-09
-1.23111e-10
-0.00625739
5.05722e-05
-7.99884e-11
-8.23458e-05
-4.4721e-06
0.000979313
-1.85412e-11
1.21506e-10
-2.29223e-11
1.59709e-09
1.8039e-11
8.35671e-09
-3.17127e-10
-1.04927e-09
1.96825e-11
6.18508e-11
2.08324e-11
6.23854e-09
6.8942e-11
4.00572e-11
1.63366e-09
1.28613e-09
-4.81038e-09
2.62495e-10
8.9852e-11
2.89265e-05
-2.15222e-09
-1.31256e-10
-1.79942e-05
5.19281e-10
-8.03551e-05
-0.00209631
-0.000142859
5.80154e-11
-4.34742e-10
-9.54584e-11
-7.52724e-10
-2.97568e-11
2.37636e-10
9.66666e-11
-2.78646e-10
-0.000271347
1.29544e-09
-1.32015e-10
0.000245343
-0.000114254
6.31849e-10
4.77068e-07
1.66057e-08
-6.17569e-10
2.1553e-08
-4.11732e-08
3.74216e-10
-4.41397e-11
3.4128e-09
1.24498e-09
-7.14416e-11
0.000145656
-2.49351e-10
1.53762e-12
-1.85331e-11
-1.88167e-10
0.00101802
1.30014e-10
1.08427e-11
-3.61094e-10
-0.000103593
-3.44173e-11
2.82075e-10
0.0024555
-3.47403e-11
-3.4888e-10
0.00019258
1.08023e-08
0.000366849
6.52396e-12
2.161e-10
-1.05194e-11
3.75786e-07
0.00522756
5.50065e-09
4.30114e-10
-3.97787e-10
-3.72139e-09
-0.00219136
-1.02437e-10
-8.09822e-11
7.58352e-07
-0.000116311
-6.60265e-11
7.64089e-08
3.02703e-09
9.54813e-09
1.53532e-11
0.000107846
7.50689e-05
-1.1484e-10
-1.21594e-05
-1.62423e-05
-3.13774e-10
-3.86422e-05
5.50637e-10
0.000245623
-0.00198894
4.54481e-10
-8.81519e-12
0.00050158
-1.42478e-06
-3.82216e-10
-0.00140743
5.79584e-06
5.49162e-05
5.32563e-10
-4.27848e-11
1.52639e-11
-2.69329e-06
-4.30613e-10
-1.08836e-09
7.21483e-10
-0.0038965
-1.33936e-09
0.00118334
-1.1757e-10
-6.82235e-11
-2.96716e-11
0.000119849
0.000278819
5.13453e-11
-3.83431e-10
-3.34008e-06
2.37953e-09
5.59899e-09
-1.25589e-10
-3.69412e-10
2.08046e-05
4.85096e-10
7.58261e-11
2.94552e-11
-1.89691e-11
1.3006e-10
3.606e-07
-2.68771e-08
-7.8547e-11
2.88797e-11
-1.83956e-11
3.35356e-10
9.6879e-10
-9.29011e-11
2.23094e-10
-5.15752e-10
-9.20315e-11
4.68326e-05
-2.08308e-07
-4.30371e-11
3.36726e-10
1.00638e-06
-3.26501e-10
-9.71298e-06
7.62621e-09
2.57604e-08
1.98745e-08
-6.20129e-11
-2.76259e-10
1.48804e-11
-4.42101e-10
-2.75845e-11
7.49573e-05
-0.000155778
1.37297e-10
-1.8996e-11
2.06594e-12
-4.29988e-10
-4.51715e-10
1.90984e-10
-3.68389e-07
1.93038e-05
6.318e-13
0.000218597
3.6474e-11
2.03445e-08
-1.02949e-07
5.27352e-10
-4.27783e-11
-3.51774e-10
-2.66762e-11
-7.19942e-12
7.12806e-08
1.0605e-09
-3.86602e-05
5.73133e-09
-1.34375e-10
-6.99529e-05
-4.68757e-10
-0.000149799
0.0014254
4.52756e-06
-4.57176e-10
7.14237e-12
-1.92993e-10
8.62957e-05
9.52817e-10
-2.03531e-06
-0.00148984
1.79447e-07
-6.66081e-06
-3.0466e-11
1.40293e-09
-3.75505e-11
-4.27409e-10
8.3737e-11
1.91814e-08
1.4391e-10
-3.59433e-09
-5.92718e-10
-1.28919e-10
0.000210909
8.24035e-11
-5.09186e-12
-6.3291e-10
6.03108e-10
1.2395e-05
-4.31983e-05
1.23722e-09
-4.79119e-10
1.44801e-08
1.21555e-06
2.71817e-09
9.04263e-05
-3.5266e-10
2.14615e-09
3.2045e-10
-9.45512e-05
1.72639e-09
4.65257e-11
3.14488e-08
-4.43337e-11
-7.53138e-05
-1.13469e-10
3.39894e-10
-2.69988e-10
-1.23835e-13
1.04055e-10
2.75286e-09
-5.2101e-08
5.85506e-08
6.74669e-07
1.74757e-08
1.36588e-11
-1.19955e-11
3.10501e-09
-1.76334e-10
5.12568e-09
2.51968e-09
-0.000154712
-0.000348463
2.72741e-09
-2.59347e-05
-6.05673e-06
6.4259e-10
-4.55064e-09
7.33211e-10
2.49736e-09
0.000163608
-7.2886e-09
-4.09793e-10
-1.93439e-07
-6.86657e-11
-4.20163e-05
-7.56733e-09
-3.52374e-11
3.10512e-09
5.80562e-09
-5.96543e-05
-3.9602e-11
-4.03267e-05
-2.53501e-08
0.004161
2.80949e-05
6.92878e-10
-0.000149575
1.33475e-08
-3.15966e-05
-1.53251e-10
2.70671e-05
-0.00149869
1.25727e-11
3.37186e-10
-4.19573e-10
-0.000105312
5.55181e-09
-1.54501e-10
4.07398e-10
-6.88503e-07
-6.76794e-09
2.56055e-09
2.94371e-10
-5.94988e-10
0.00112209
2.32575e-07
-1.53268e-10
4.78897e-05
-4.47618e-09
-3.0335e-05
-3.57074e-07
6.34083e-10
-1.51668e-08
3.05931e-10
6.8372e-10
-3.65116e-05
1.60019e-09
-2.05549e-11
7.45237e-10
-3.67566e-10
-3.567e-11
-1.78537e-09
2.88362e-10
2.97911e-10
4.9939e-12
-1.99204e-11
-1.95939e-07
7.0351e-12
-2.48129e-11
-1.8186e-06
2.0102e-10
-2.0598e-10
-3.3354e-10
-1.88816e-07
-3.27948e-10
-3.31622e-11
-8.38734e-05
-2.98532e-07
1.17549e-06
1.57677e-05
-6.38057e-11
-4.69514e-10
-4.74414e-06
-1.98113e-10
2.07731e-09
5.31537e-06
-9.00459e-11
-1.53839e-10
1.04048e-10
5.74784e-09
3.49614e-09
-6.533e-10
1.5867e-07
8.16418e-10
-1.53876e-10
-1.16591e-10
2.42795e-05
3.47387e-09
-5.26494e-10
-0.000836095
1.13527e-09
-3.55907e-07
-5.03273e-10
5.47911e-07
7.23794e-06
0.000254559
2.35683e-11
-3.35464e-11
3.7369e-08
-3.82945e-10
-2.94519e-11
0.001452
7.25757e-09
2.30601e-08
5.75032e-10
-2.34451e-11
7.06829e-07
9.23585e-10
5.3138e-10
-1.40149e-05
1.81118e-11
-9.29796e-10
1.65033e-08
5.7679e-06
0.000289393
-2.13095e-11
-1.78964e-10
-2.08465e-10
6.67244e-12
1.04641e-08
4.45166e-09
7.40642e-05
3.65497e-10
3.70894e-10
1.9869e-07
-2.63853e-10
1.91673e-11
-8.82257e-07
0.00218373
3.23471e-05
-4.23788e-11
3.2824e-12
-2.33527e-10
-2.0937e-11
1.48465e-09
3.41929e-08
2.46403e-08
2.71668e-09
0.00018385
-5.10139e-05
3.05177e-09
-0.00560851
2.14362e-10
6.50319e-09
1.0007e-09
-2.01891e-06
-2.20437e-12
-5.38194e-10
0.000290064
2.35025e-06
-1.10442e-08
-3.14487e-10
3.41227e-07
-6.3675e-10
6.43826e-05
-3.50585e-10
-8.55479e-13
-9.76807e-05
6.65899e-10
-3.95305e-07
-7.42055e-10
3.59186e-13
0.000180049
3.44375e-07
-3.98128e-05
-3.43155e-05
-2.14471e-11
-8.17221e-10
-4.5603e-10
-2.80197e-10
4.37774e-11
-0.000124297
1.92801e-08
6.64542e-11
-8.96312e-11
2.9257e-09
-2.16184e-10
2.42961e-07
-5.20568e-08
-4.59351e-11
1.25522e-09
-7.65978e-11
-2.13627e-10
3.59394e-07
1.84227e-10
3.11243e-07
-9.09217e-05
9.34388e-10
2.20775e-08
4.38905e-09
-4.90053e-07
0.000448656
9.21369e-08
7.18682e-05
-2.12166e-07
-4.23935e-10
0.00270338
3.27967e-11
0.000343911
1.17525e-07
-3.24046e-10
-9.12556e-12
-7.02824e-09
-8.31294e-05
-2.68941e-11
-3.74233e-10
-1.10406e-11
-1.7352e-10
1.92868e-10
1.43795e-11
2.29186e-09
1.5586e-09
-9.38674e-11
-0.00151112
-2.85254e-05
9.19767e-06
-5.30605e-09
-0.00023411
-1.7804e-05
-0.000105472
-2.2279e-11
0.0019944
2.8289e-07
-1.21936e-06
8.87237e-11
3.0532e-09
-2.50332e-07
-4.99632e-10
0.000167201
3.96424e-10
-0.00173281
7.72671e-10
-1.72848e-09
8.94725e-10
6.86356e-11
1.84109e-13
3.53249e-09
3.09789e-09
0.000247026
2.47868e-12
-4.24363e-10
3.39338e-10
1.66163e-09
3.33466e-07
-1.13993e-06
-6.55109e-08
-1.40003e-05
3.5957e-07
-1.46526e-11
-0.000896097
1.2151e-05
0.00023244
-2.24979e-11
4.8848e-09
-3.00089e-10
4.63407e-12
4.35989e-10
-2.79411e-10
-5.77325e-07
-2.9463e-10
1.59731e-11
-0.000156124
3.907e-09
3.30742e-09
3.14184e-08
2.01595e-11
-2.73617e-10
-4.04717e-06
-4.36237e-11
1.6375e-10
-6.37222e-11
3.21714e-09
3.47754e-08
0.00147886
0.00143261
1.88392e-08
1.80414e-08
3.36759e-05
-0.0015254
6.76816e-11
0.00126458
-1.67312e-05
9.02487e-13
-5.30514e-08
-1.42628e-08
0.000900115
3.43644e-09
8.59369e-10
-0.000101492
-3.94451e-05
-4.42836e-12
-4.23052e-05
-3.36695e-09
3.15696e-10
4.11221e-05
-5.01901e-10
0.000739714
-3.52519e-10
-2.6038e-07
-5.42944e-10
-2.11597e-11
-1.77998e-12
-8.40463e-09
7.2636e-09
-3.17456e-05
3.04351e-09
0.00346786
1.46986e-08
1.60508e-05
-6.80698e-06
-3.3702e-09
-1.26029e-10
-0.000918144
6.99124e-10
-1.31832e-05
2.68403e-10
0.000224569
-1.49607e-08
7.58574e-06
-2.96709e-08
0.000179261
-6.31631e-11
-4.50508e-05
-6.11688e-07
4.20379e-09
2.1402e-07
2.77371e-10
1.03168e-08
0.00452682
1.11559e-13
-1.39931e-10
9.42549e-12
-3.61439e-11
4.74707e-07
0.000314561
-4.56124e-13
2.01603e-08
6.19504e-10
0.000629872
-2.89962e-11
2.51393e-11
-1.56647e-10
-7.18685e-10
-0.000151834
-4.27925e-07
-1.51676e-05
1.13524e-11
-2.56188e-10
-2.72065e-05
-7.06288e-10
2.28598e-10
2.26316e-10
1.75482e-08
7.23539e-12
-1.24952e-10
-1.42753e-10
-6.30706e-11
5.04311e-09
-0.000519165
-8.13658e-07
-1.09897e-11
0.00030322
-9.76669e-12
2.70843e-09
-6.62897e-10
1.52295e-09
-0.000101207
2.10831e-10
-0.00302649
-5.37256e-10
3.00833e-08
5.09156e-09
-1.4488e-10
-3.33462e-10
4.21278e-07
-1.26928e-11
2.89441e-09
1.34419e-09
2.49226e-09
-1.82046e-10
4.26261e-11
2.5797e-06
1.8613e-08
0.000211443
-2.4728e-06
-5.39736e-11
8.59181e-05
2.36958e-08
2.34986e-09
-2.53846e-10
8.30354e-10
0.000190761
-1.20708e-11
3.36804e-09
-2.01606e-10
-6.40845e-10
1.34856e-10
7.25506e-06
7.56906e-09
-2.25609e-10
-5.3436e-10
1.70229e-10
4.29038e-12
2.31892e-12
2.41e-10
-1.09351e-10
5.28045e-12
1.07924e-11
1.56322e-08
1.7397e-10
0.000599704
1.24703e-10
-6.83165e-07
-7.82455e-11
2.07853e-09
2.69713e-10
1.23513e-08
7.51509e-10
-2.71995e-09
5.47781e-05
3.82767e-09
-3.86971e-11
2.3493e-08
0.000165366
2.59585e-07
-1.33449e-10
2.3801e-10
1.23119e-10
-4.71252e-05
-9.54134e-05
-2.6716e-05
1.00426e-09
-0.000108773
2.1279e-10
-7.47358e-11
2.78326e-08
-2.32169e-10
-4.57424e-05
-4.83701e-11
1.26384e-08
-9.83889e-11
7.71215e-11
-8.83948e-05
-0.000107907
-3.12612e-10
1.62598e-11
3.81372e-07
3.86514e-05
0.000836287
-2.66564e-10
3.34714e-07
9.41426e-10
-0.000397624
-3.91591e-10
-4.83896e-05
-2.60482e-08
-2.15598e-10
-6.30074e-10
1.86699e-08
0.00553252
4.4204e-12
7.17503e-09
0.00349876
1.06052e-09
-2.82124e-10
1.61335e-08
1.00024e-09
7.43422e-10
-3.70295e-05
-3.33254e-10
7.63288e-10
2.5534e-10
-7.27782e-11
2.26364e-06
5.17261e-09
1.03773e-05
0.000557697
5.79853e-12
-0.00478072
-7.17375e-11
0.000195038
4.3419e-10
-1.16639e-10
-7.3486e-11
-0.000356588
-2.38352e-11
-6.13717e-10
-2.79533e-11
0.0019513
1.5403e-10
-8.22923e-11
2.71715e-08
-6.81498e-11
2.67918e-10
-1.45648e-10
-2.76181e-10
-3.95671e-05
1.13505e-10
-4.98693e-09
-0.000151561
-8.6484e-11
0.000420318
-1.03948e-10
-6.44251e-11
2.58368e-06
1.84094e-08
5.7736e-09
3.09538e-12
-2.86566e-10
-1.991e-13
1.35361e-08
-0.000156053
2.02731e-11
7.6179e-10
4.95731e-12
0.000862261
-1.74363e-11
6.99157e-12
5.04883e-12
-1.97338e-10
-2.0437e-10
1.40924e-08
5.75441e-11
-5.78116e-06
5.54637e-11
0.000812941
-2.16737e-08
-2.87153e-10
-2.3814e-11
0.000107252
1.00845e-09
-1.56079e-06
5.67196e-11
-4.67515e-10
1.79887e-09
0.000531616
0.000982017
-0.000111695
1.14174e-10
8.11842e-12
3.83718e-09
-2.06409e-05
7.74958e-09
2.28816e-08
-8.40094e-12
2.37889e-08
-4.09886e-08
-2.65141e-05
-4.25611e-10
2.37715e-09
0.000587479
8.56614e-11
7.76432e-05
-2.30735e-08
-6.08796e-11
-3.41299e-11
1.00485e-09
1.2259e-08
-5.35422e-05
5.12826e-10
-1.60859e-07
3.13182e-09
-9.27841e-05
0.000225724
5.98919e-10
7.2096e-11
-0.00281774
1.04402e-10
-2.89339e-10
0.000126086
-0.000138201
3.91619e-09
-6.22934e-05
-7.66522e-11
-3.66688e-10
3.5052e-08
1.21317e-07
2.52711e-08
5.74279e-11
1.1974e-11
6.28335e-07
-3.17919e-11
-1.41125e-10
-4.19297e-11
-2.55003e-11
4.45628e-09
-7.44751e-10
2.24886e-06
5.85769e-10
0.00104694
5.36297e-10
2.35749e-09
4.67475e-09
-0.000101256
-3.15255e-08
3.75809e-09
6.10836e-12
4.7652e-10
-2.31647e-10
-8.44222e-11
8.75205e-10
-0.000113511
-2.04374e-05
-1.46e-10
-1.218e-06
7.61654e-10
-1.35579e-08
-0.000693411
-4.53124e-05
-1.75307e-09
-2.32992e-09
-0.000126214
-1.64604e-05
0.00206767
-6.24727e-10
-1.46643e-10
-1.09547e-06
-3.58761e-10
2.14083e-09
1.60936e-11
-6.09237e-05
2.29622e-06
5.66129e-05
-3.75323e-11
3.03853e-11
2.11731e-09
1.06828e-05
-2.6608e-11
-2.09837e-11
0.000193756
-4.00039e-05
-1.32779e-11
-3.04628e-11
-6.91558e-11
4.61315e-08
3.67641e-09
-1.73853e-06
-4.14098e-11
-9.15845e-06
-2.42014e-10
-1.64022e-05
2.76216e-12
3.10278e-07
3.49066e-11
-2.03409e-11
1.61578e-08
2.87193e-10
4.2317e-08
3.6801e-10
2.44127e-08
0.000117581
-0.000122782
-1.38345e-05
3.42718e-11
0.00394951
8.06591e-09
0.000157301
-6.20984e-09
-4.48634e-08
1.19108e-09
-1.03444e-06
0.0028884
2.77303e-08
-5.79363e-10
-2.24497e-05
0.000363735
-2.63456e-11
-1.51847e-11
-6.37989e-10
-3.75031e-10
-2.41295e-06
-1.52204e-10
-5.48152e-11
-4.49577e-10
-3.56973e-08
-3.87966e-10
-3.58109e-12
1.73526e-09
-1.44947e-10
-3.12674e-12
-9.10855e-09
-3.70892e-11
1.10237e-10
1.23873e-08
3.86172e-11
-8.311e-05
5.55201e-10
1.03613e-10
7.90676e-12
-1.93562e-07
-9.66762e-11
1.36009e-07
0.000100932
4.46481e-10
-4.1548e-05
-3.02909e-10
-4.25999e-11
2.63645e-08
1.78051e-11
-4.12119e-05
-3.24445e-08
2.11208e-10
1.80644e-08
6.09082e-05
-1.72811e-10
6.58991e-05
1.9817e-08
8.76211e-10
6.43964e-07
-1.85897e-05
3.54049e-09
-2.035e-11