/*--------------------------------*- C++ -*----------------------------------*\
| =========                 |                                                 |
| \\      /  F ield         | OpenFOAM: The Open Source CFD Toolbox           |
|  \\    /   O peration     | Version:  v2012                                 |
|   \\  /    A nd           | Website:  www.openfoam.com                      |
|    \\/     M anipulation  |                                                 |
\*---------------------------------------------------------------------------*/
FoamFile
{
    version     2.0;
    format      ascii;
    class       volScalarField;
    location    "300";
    object      epsilon_0;
}
// * * * * * * * * * * * * * * * * * * * * * * * * * * * * * * * * * * * * * //

dimensions      [0 2 -3 0 0 0 0];


internalField   nonuniform List<scalar> 
18232
(
0.0357657
1.63881e-06
2.10046e-06
2.36044e-06
2.40826e-06
7.48586e-06
2.40983e-06
3.49429e-06
2.37187e-06
2.37783e-06
2.32032e-06
2.03033e-06
2.2733e-06
0.010078
2.26656e-06
0.00037997
3.01427e-06
3.84456e-06
2.41355e-06
3.46868e-06
1.9217e-05
2.15921e-06
2.32525e-06
2.0301e-06
2.25517e-06
2.25881e-06
2.14076e-06
7.43436e-06
3.86936e-06
2.11529e-06
4.17832e-06
0.00847973
3.30367e-06
0.0281663
0.0155054
7.90771e-06
0.00981317
3.45823e-06
0.00564141
4.15655e-06
0.018798
1.92053e-06
2.68465e-06
0.0112936
2.61551e-06
0.00744899
1.62416e-06
1.92365e-06
3.97892e-06
1.69898e-06
2.88597e-06
3.71435e-06
0.0153706
1.92529e-06
2.28168e-06
4.11425e-06
3.05221e-06
3.08853e-06
0.15953
1.70738e-06
2.26273e-06
2.58263e-06
2.02115e-06
2.3687e-06
2.45105e-06
1.81139e-06
0.0138479
0.00875088
2.13257e-06
2.03257e-06
3.03084e-06
2.33866e-06
0.008233
0.000449077
2.31292e-06
8.97597e-05
2.1254e-06
2.33963e-06
0.0406352
2.21688e-06
0.00882491
2.26202e-06
1.94125e-06
1.95326e-06
0.00896089
4.08937e-06
2.15573e-06
2.41959e-06
2.23778e-06
2.15656e-06
2.4356e-06
2.11385e-06
4.09674e-06
3.84504e-06
2.4466e-06
2.03357e-06
2.59767e-06
2.20445e-06
0.00295866
1.94368e-06
2.37834e-06
1.91525e-06
0.000587525
2.4229e-06
6.70625e-06
2.19328e-06
2.12198e-06
3.36045e-06
3.68147e-06
2.02015e-06
1.81821e-06
0.000137907
1.72721e-06
2.42097e-06
2.90566e-06
1.90841e-06
2.24714e-06
0.00795794
2.161e-06
1.902e-06
2.95294e-06
3.43316e-06
0.000398697
1.31162e-05
0.0119897
2.62935e-06
4.36995e-06
1.77627e-06
1.6987e-05
0.00013815
2.07799e-06
2.1734e-06
2.15936e-06
1.72885e-06
0.0133254
6.45286e-05
4.1761e-06
3.98115e-06
1.69465e-06
0.00628135
2.25322e-06
2.19801e-06
0.00937168
2.63094e-06
2.1308e-06
2.11976e-06
2.24746e-06
4.19786e-06
0.0141792
3.11041e-06
0.00167663
1.91729e-06
2.32234e-06
2.12126e-06
2.14063e-06
0.0180547
1.45677e-05
2.41274e-06
7.02803e-06
1.70181e-06
1.64583e-06
1.71993e-06
2.12911e-06
0.0114333
0.0247683
2.66828e-06
2.90307e-06
0.00964505
2.27426e-06
0.00989101
2.0476e-06
3.53956e-06
2.08926e-06
2.16181e-06
2.24571e-06
0.0332763
1.9485e-06
4.18573e-06
0.0143157
2.95678e-06
3.64808e-06
0.00527645
2.36108e-06
0.000563064
0.0285185
4.27343e-06
1.90672e-06
0.0116743
4.10583e-06
0.0212618
2.24264e-06
2.34019e-06
2.37787e-06
0.0116784
2.65389e-06
2.15045e-06
1.72309e-06
2.35398e-06
1.99169e-06
1.93725e-06
4.18124e-06
1.96296e-06
2.41005e-06
3.4844e-05
3.20906e-06
0.0185059
2.82177e-05
0.0100228
3.10396e-06
2.02943e-06
2.07453e-06
2.24989e-06
2.35882e-06
0.00133042
0.000645702
1.96392e-06
2.35576e-06
2.10454e-06
2.13725e-06
2.21571e-06
0.0134213
1.71441e-06
0.0356972
2.02458e-06
1.97963e-06
2.0576e-06
3.20203e-06
2.02273e-06
2.97846e-06
3.41617e-06
2.58423e-06
2.27941e-06
0.00862888
1.17272e-05
3.28828e-06
0.00786797
2.36302e-06
5.97617e-06
1.6882e-06
3.59396e-06
2.57773e-06
0.00402474
5.8447e-06
2.33683e-06
0.0150562
0.0113054
4.08596e-06
0.106734
0.0431148
2.10768e-06
4.48845e-06
4.50511e-06
1.90255e-06
3.08859e-06
2.16389e-06
0.000163343
0.000243145
0.0297417
0.00534421
3.79268e-06
1.96282e-06
1.9227e-06
3.21454e-06
4.1499e-06
1.83971e-06
4.01234e-06
0.0131458
6.89082e-06
4.44511e-06
2.6322e-05
2.17611e-06
0.0226012
4.42164e-06
2.34647e-06
1.8965e-06
0.0243668
1.92202e-06
2.36729e-06
3.53551e-06
0.030389
0.0139889
1.9063e-06
1.71016e-06
0.0176352
4.33994e-06
2.3695e-06
2.10991e-06
0.0106551
2.04538e-06
2.21158e-06
2.32584e-06
2.01834e-06
0.0203861
2.04214e-06
1.92394e-06
2.48074e-05
0.016848
1.68815e-06
2.57556e-06
2.05134e-06
1.78399e-06
3.70027e-06
0.0138823
4.41707e-06
3.75637e-06
3.07748e-06
2.48275e-06
1.85252e-06
3.05944e-06
0.0106902
2.34291e-06
2.88234e-06
3.03374e-06
2.13434e-06
1.71157e-06
2.12979e-06
0.0185697
1.7499e-06
0.0069471
2.97247e-06
0.00688411
1.91306e-06
2.38023e-06
2.27282e-05
2.33758e-06
1.82751e-06
3.32436e-06
1.91481e-06
1.83012e-06
2.04377e-06
1.91915e-06
2.4945e-06
2.37666e-06
0.0478214
3.59453e-06
0.0103722
2.89024e-05
0.02459
2.14532e-06
2.01223e-06
3.4449e-06
1.92064e-05
4.13381e-06
1.66672e-06
1.76642e-06
3.1768e-06
0.00887433
2.0913e-06
2.48062e-06
2.36585e-06
0.000422445
2.32639e-06
2.32961e-06
1.85277e-06
2.01671e-06
2.11563e-06
4.11779e-06
0.0110129
3.36823e-06
2.92566e-06
5.29427e-05
2.60123e-06
0.152016
2.35973e-06
0.0237877
2.24048e-06
2.84241e-06
0.0105996
2.18918e-06
0.0235777
1.61205e-05
9.37623e-06
1.64994e-06
0.0821047
1.94041e-06
1.95456e-06
1.72681e-06
2.35491e-06
0.000218767
0.00263344
2.15851e-06
2.01222e-06
4.18374e-06
2.23183e-06
0.0416166
1.81895e-06
2.51698e-06
2.32742e-06
2.61615e-06
2.02838e-06
2.31705e-06
3.47788e-06
0.0145348
1.82446e-06
0.00620125
2.10375e-06
0.000165362
2.37389e-06
4.68184e-05
2.3926e-06
1.1093e-05
0.000529445
2.86668e-06
0.0760923
2.01136e-06
3.39194e-06
2.15986e-06
3.65651e-06
2.89821e-06
5.95976e-06
0.00812863
0.0359442
1.85225e-06
1.91926e-06
0.00884998
4.53942e-06
2.75345e-06
3.99526e-06
0.00640764
2.34402e-06
2.04744e-06
3.00876e-06
2.05408e-06
1.94654e-06
0.00413787
2.77967e-06
2.31379e-06
2.04276e-06
2.84431e-06
3.41971e-06
1.78556e-06
3.9786e-06
0.00944924
2.37484e-06
2.34884e-06
2.93575e-06
2.95049e-06
3.39391e-06
1.72371e-06
2.37501e-06
2.38053e-06
3.78718e-06
0.0149669
2.5198e-06
1.91732e-06
2.47576e-06
2.181e-06
2.23208e-06
2.24979e-06
2.75157e-06
0.0147001
2.19141e-06
1.75202e-06
2.8943e-06
0.000168683
2.32068e-06
0.0261649
4.03373e-06
4.1688e-06
2.13863e-06
1.94526e-06
5.2878e-06
2.17568e-06
8.86031e-05
1.97762e-06
2.6607e-06
1.94913e-06
2.10941e-06
2.25764e-06
2.1445e-06
2.76882e-06
0.0125923
2.86138e-06
4.4742e-06
3.56545e-06
2.9207e-06
1.73164e-06
9.91433e-06
0.0111848
1.96094e-06
3.17192e-06
1.74236e-06
2.94602e-06
2.06042e-06
4.0248e-06
2.54352e-06
1.91172e-06
1.96806e-06
0.0103425
1.8155e-06
3.06027e-06
6.73967e-06
2.30216e-06
1.92115e-06
2.85921e-06
2.71923e-06
1.97478e-06
1.3639e-05
0.000308133
3.08311e-06
2.38847e-06
1.82107e-06
2.27581e-06
5.52024e-06
0.00923397
3.66566e-06
2.69142e-06
2.08418e-06
2.43322e-06
1.92082e-06
0.00815816
2.18184e-06
1.9264e-06
0.00821137
1.80437e-06
2.68323e-06
2.52575e-06
2.62953e-06
1.92974e-06
1.90019e-06
2.28021e-06
1.82538e-06
2.26124e-06
0.0937711
0.0210652
1.90771e-06
1.8413e-06
2.64202e-06
2.02918e-06
0.0105541
3.09678e-06
3.86637e-06
5.83198e-06
2.86604e-06
0.00755231
2.39612e-06
0.000113143
2.62566e-06
0.0181468
4.95196e-06
2.32959e-06
2.30159e-06
2.41967e-06
1.76402e-06
3.12868e-06
4.01184e-06
0.0175191
2.15485e-06
2.30146e-06
3.4838e-06
2.54034e-06
1.92285e-06
1.92438e-06
3.03409e-06
0.0178646
0.0138863
1.85373e-06
1.7304e-06
2.65229e-06
0.000100121
0.0104403
4.18202e-06
5.07316e-06
3.77183e-06
4.74644e-05
2.81321e-06
1.9715e-06
0.000409049
0.00010269
3.2512e-06
3.0119e-06
2.34806e-06
0.00994292
1.91439e-06
1.89644e-06
1.74179e-06
0.110286
2.24569e-06
0.00797646
2.16007e-06
0.0229715
2.65071e-06
0.00840271
2.40638e-06
2.47929e-06
2.70323e-06
2.65875e-06
1.92076e-06
0.00214026
0.00919821
1.91874e-06
3.17798e-06
5.75814e-06
2.17341e-06
0.0537342
2.1202e-06
1.72973e-06
0.0215994
0.0129815
2.05664e-06
2.11359e-06
1.98225e-06
0.0122147
2.37224e-06
1.68728e-06
2.31018e-06
3.12263e-06
0.0264972
3.1999e-06
2.53214e-06
1.7194e-06
1.93549e-06
2.16362e-06
3.01921e-06
2.26881e-06
2.96934e-06
2.1721e-06
0.0154497
2.97134e-06
2.60287e-06
2.15693e-06
3.79448e-06
0.000580081
0.00746002
2.03713e-06
3.35578e-06
3.07941e-06
0.0118045
2.04798e-06
1.92548e-06
2.73229e-06
2.36768e-06
3.28544e-06
2.37093e-06
0.00575725
0.0191747
0.0271561
0.0157549
0.0134751
1.91467e-06
4.35151e-06
5.5955e-05
4.16166e-06
2.96645e-05
1.91974e-06
2.45324e-06
2.27039e-06
0.0113869
1.83869e-06
2.24052e-06
0.0188146
1.69059e-06
1.9362e-06
1.73353e-06
0.00556191
3.28411e-06
2.16502e-06
1.5014e-05
2.06888e-06
0.000389166
1.81992e-06
2.09806e-06
1.79737e-06
2.05423e-06
1.95e-06
2.44108e-06
3.06615e-06
2.08516e-06
1.93163e-06
1.73235e-06
2.54891e-06
0.0359082
0.00784684
2.18032e-06
0.00945426
2.96089e-06
0.00725556
2.79388e-06
3.03923e-06
0.0111574
2.10607e-06
2.24256e-06
0.0117769
3.3001e-06
1.83867e-06
0.00366789
9.65599e-06
2.36176e-06
2.03067e-06
0.015861
2.25867e-06
2.44867e-06
0.00107096
0.00774367
2.49554e-06
3.01925e-06
0.020696
2.28312e-06
1.89342e-06
0.153169
2.98168e-06
0.0104231
2.15035e-06
0.11664
1.95238e-06
2.58707e-06
0.0417274
3.60312e-06
2.92926e-06
2.33778e-06
0.0122969
6.91368e-06
3.05128e-06
0.00354206
4.11963e-06
1.95656e-06
2.01364e-06
0.0283341
2.03608e-06
2.86205e-06
2.44976e-06
1.88876e-06
2.48192e-06
0.00955653
3.25773e-06
0.0116626
4.14893e-06
1.46536e-05
3.68372e-06
3.60012e-06
2.03515e-06
2.14519e-06
2.05557e-06
2.22933e-06
2.28341e-06
4.15115e-06
0.00216539
2.37715e-06
2.40034e-06
0.0210077
1.9244e-06
0.012546
1.88887e-06
1.80482e-05
0.0259024
1.77683e-06
0.085932
2.74957e-06
0.107692
2.53293e-05
0.0106866
2.53873e-06
1.90601e-06
1.70131e-06
4.14018e-06
0.0192401
1.16807e-05
1.72176e-06
3.75489e-06
0.0210875
0.0118784
1.61743e-05
2.50994e-06
7.08425e-06
2.09356e-06
2.0058e-06
0.00920352
2.3365e-06
0.00842181
2.12745e-06
1.93602e-06
0.00979454
0.02001
1.9004e-06
2.49017e-06
2.13238e-06
0.00363962
2.01504e-06
1.90003e-06
2.05581e-06
4.47129e-06
3.65869e-06
1.74139e-06
3.30591e-06
3.75e-06
4.12529e-06
0.0354015
2.83264e-06
0.0189248
0.00110417
2.77293e-06
3.53613e-06
0.00840111
2.20067e-06
2.02835e-06
2.42907e-06
0.00392161
1.81101e-06
1.90235e-06
0.0151395
2.27722e-06
0.00399678
2.46783e-06
3.77025e-06
2.17656e-06
2.49124e-06
2.63762e-06
0.0508608
2.21433e-06
1.88209e-06
0.00813061
2.00913e-06
0.371108
0.00813687
6.29831e-06
0.000719442
1.59461e-05
2.34873e-06
2.46768e-06
3.9403e-06
0.0137936
2.31589e-06
2.00414e-06
0.000413265
1.74375e-06
1.89117e-06
2.27131e-06
0.00734916
2.14743e-06
0.000587308
2.79013e-06
2.61635e-06
0.00188553
2.53648e-06
0.0640492
1.73067e-06
1.93199e-06
2.31198e-06
4.73334e-05
2.25043e-06
1.91338e-06
2.72327e-06
0.0114474
2.25483e-06
0.000346276
2.47149e-06
1.83229e-06
2.50254e-06
1.98972e-06
3.34562e-06
2.10626e-06
2.26189e-06
0.00657857
0.00840455
2.26808e-06
0.00084062
3.47459e-06
2.23453e-06
1.92869e-06
3.73386e-06
1.92965e-06
2.49539e-06
2.4234e-06
1.85447e-06
4.14607e-06
2.29011e-06
2.46981e-06
4.05892e-06
0.166919
3.52548e-06
3.80483e-06
2.53089e-06
0.000561685
0.0176056
1.91002e-06
0.00400816
0.00165394
2.18782e-06
3.14161e-06
0.0382288
0.0012478
3.58556e-06
2.8787e-06
2.48946e-05
2.422e-06
0.00507186
0.142559
0.0225291
1.88278e-06
1.82244e-06
6.67585e-05
2.82079e-06
4.16143e-06
2.28144e-06
2.92767e-06
1.13731e-05
1.98514e-06
3.22323e-06
1.8854e-06
2.30187e-06
4.18591e-06
0.00975308
1.29563e-05
2.23804e-06
1.90387e-06
0.0712531
1.90026e-06
0.00934436
2.98829e-06
3.11898e-06
0.00211604
1.78926e-06
2.22232e-06
2.51952e-06
1.9971e-06
2.7419e-06
3.57983e-06
0.0214143
3.12984e-06
3.46975e-06
1.97413e-06
2.53143e-06
0.0113286
1.95644e-06
1.85948e-06
1.72966e-06
3.27899e-06
7.37213e-06
2.51144e-06
0.00150693
0.00187711
2.35223e-06
3.78276e-06
1.81648e-06
2.10187e-06
2.75755e-06
1.68129e-06
4.19763e-06
4.27074e-06
2.20527e-06
1.8309e-06
2.69203e-06
2.73666e-06
3.75028e-06
2.71278e-06
0.0216695
0.00115209
9.16983e-06
2.34346e-06
1.35046e-05
2.25613e-06
3.45442e-06
0.00845181
0.00846518
2.02906e-06
2.60312e-06
1.22408e-05
0.0340383
2.50678e-06
2.3559e-06
0.0118134
0.00984681
1.82736e-06
2.40911e-06
1.68335e-06
0.0289886
3.68721e-06
4.2793e-06
1.8216e-05
0.00804368
0.0115559
2.89597e-06
4.87677e-06
1.71973e-06
1.96395e-06
2.83799e-06
1.78896e-06
4.40062e-05
2.63294e-06
0.0124713
2.00611e-06
0.000112917
0.0252808
2.20041e-06
1.32695e-05
1.69889e-06
2.25799e-06
2.80054e-06
3.00654e-06
4.07399e-06
2.5388e-06
2.03028e-06
0.00367667
1.99569e-06
0.0137676
3.25094e-06
2.36301e-06
2.23957e-06
2.74169e-06
2.24647e-06
0.0102826
2.51323e-06
3.76196e-06
2.42595e-06
0.00482202
0.00545087
2.69214e-05
4.25407e-06
0.00417305
3.22324e-06
0.0111136
1.91312e-06
1.74585e-06
5.84931e-06
0.00945469
0.0209526
1.8556e-06
1.82981e-06
2.25003e-05
4.1123e-06
2.28437e-05
2.08869e-06
0.0352593
1.77001e-06
2.73418e-06
2.15242e-06
0.000148578
4.08716e-06
2.0751e-06
3.29831e-06
2.52647e-06
7.49973e-06
0.00742158
2.59147e-06
2.14828e-06
1.95619e-06
1.79139e-06
2.02892e-06
1.6769e-06
2.0731e-06
5.1037e-06
2.12928e-06
0.00324245
2.12489e-06
2.84941e-06
2.0061e-06
1.8947e-06
0.0204571
1.92909e-06
2.37247e-06
0.00110017
0.0174285
0.00958825
0.136705
0.0906558
2.00957e-06
2.47765e-06
4.14593e-06
2.12398e-06
2.48098e-06
1.11293e-05
0.0100325
5.81317e-06
2.71429e-06
2.30046e-06
0.00783691
0.00830461
2.9319e-06
1.80283e-06
0.0122259
3.20483e-05
2.01131e-06
2.24298e-06
1.68192e-06
2.53043e-06
2.03852e-06
0.0297466
2.00195e-06
0.0125431
1.7273e-06
2.19151e-06
0.0168735
0.000118477
2.1227e-06
2.13328e-06
1.96933e-06
2.16933e-06
2.1893e-06
3.01953e-06
1.72514e-06
1.78803e-06
2.3486e-06
0.0345891
2.74504e-06
2.33573e-06
0.00013202
2.01652e-06
2.42273e-06
1.65358e-06
2.43285e-06
1.0387e-05
2.16488e-06
1.83004e-06
2.10168e-06
3.9842e-06
2.21013e-06
2.26185e-06
2.03867e-06
2.21819e-06
2.42701e-06
2.62519e-06
0.000152211
1.78571e-06
1.86525e-06
2.73579e-06
1.7783e-06
2.46592e-06
0.0234362
2.042e-06
0.0754475
2.39465e-06
1.88295e-06
2.76393e-06
3.47791e-06
0.0650163
1.96626e-06
3.38584e-06
0.00766954
0.0054441
1.86357e-06
2.32125e-06
2.09026e-06
0.0109854
1.53439e-05
1.78248e-06
1.68921e-06
2.13144e-06
0.0128517
1.8017e-06
0.00257988
0.0166367
1.71813e-06
2.39985e-06
4.22962e-06
0.0109963
2.09603e-06
2.34551e-06
2.80951e-06
3.96194e-06
0.0231655
2.43755e-06
7.32768e-06
0.00741367
0.0303189
3.02963e-06
4.16544e-06
7.82132e-05
0.132646
2.373e-06
4.02061e-06
1.69321e-06
3.13918e-06
2.55713e-06
2.56374e-06
2.15554e-06
0.0208809
4.1958e-06
2.28207e-06
2.01568e-06
2.73123e-06
0.000261657
1.90693e-06
4.16161e-06
1.93004e-06
1.88723e-06
0.000443778
4.10619e-06
2.13896e-06
2.16151e-06
2.68514e-06
1.78831e-06
2.28394e-06
0.0181103
4.35244e-06
3.57012e-06
2.04634e-06
9.90413e-06
1.644e-06
1.96685e-06
0.0145332
0.00373314
2.305e-06
1.92293e-06
2.45945e-06
2.23504e-06
2.27943e-06
2.2761e-06
3.95771e-06
2.5933e-06
2.04515e-06
1.6631e-06
2.22697e-06
2.55891e-05
0.37125
4.05564e-06
0.000190467
1.96516e-06
3.72655e-06
1.8281e-06
2.78065e-06
2.00053e-06
2.21412e-06
0.0134216
2.73996e-06
2.14598e-06
1.312e-05
2.49581e-06
1.73913e-06
2.24986e-06
0.0817948
2.43298e-06
2.30767e-06
1.83026e-06
3.90436e-06
1.65894e-06
2.13521e-06
0.000110539
1.95013e-06
3.76425e-06
1.94014e-06
2.10001e-06
2.01686e-06
1.86923e-06
2.0312e-06
0.024196
2.67704e-06
3.06184e-06
1.78775e-06
2.00668e-06
1.69836e-06
2.21248e-06
2.23771e-06
2.24458e-06
1.73211e-06
4.36408e-06
0.0193009
0.0041825
1.82221e-06
2.90295e-06
2.08369e-06
0.0137415
2.09701e-06
2.54963e-06
2.038e-06
5.32052e-06
4.24049e-06
0.00884107
2.39666e-06
0.00844564
0.00931316
0.00897342
0.153279
0.0848411
2.23078e-06
2.26901e-06
2.41044e-06
2.8896e-06
1.84235e-06
2.26567e-06
2.8526e-06
0.00016319
8.67453e-05
2.02116e-06
2.01868e-06
3.03781e-06
3.50078e-05
1.63816e-06
2.12774e-06
0.0163525
2.25216e-05
0.0164761
3.78225e-06
2.67231e-06
0.0158721
0.153764
1.74127e-06
2.04294e-06
0.000278999
8.69542e-06
3.85966e-06
1.96888e-06
1.84352e-06
2.26944e-06
4.11049e-06
1.99478e-06
0.10248
2.69101e-06
3.62411e-06
0.0699789
4.19195e-06
2.05971e-06
2.47849e-06
2.68332e-06
1.85184e-06
1.23845e-05
2.22898e-06
2.00709e-06
2.00492e-06
0.0102875
2.09007e-06
2.02718e-06
1.74959e-06
3.62953e-06
6.67961e-05
2.2632e-06
2.23632e-06
2.2124e-06
8.20928e-06
0.00369825
1.91844e-06
2.44939e-06
4.1913e-06
0.00708046
1.95959e-06
2.35949e-06
1.97014e-06
3.34621e-06
2.12399e-06
1.79223e-06
2.40015e-06
0.0152384
0.000795212
0.000319846
2.36544e-06
0.00535568
3.2522e-06
0.0121442
2.58746e-06
3.31604e-06
1.73451e-06
2.24231e-06
1.72126e-06
0.0215999
1.82878e-06
1.7431e-06
1.98795e-06
2.63505e-06
0.0144269
2.35815e-06
3.21267e-06
2.06686e-06
6.69664e-06
3.85418e-06
2.22722e-05
2.15178e-06
1.80144e-06
3.64858e-06
2.91973e-05
0.00692356
0.00909784
2.47075e-06
0.013509
1.7757e-06
2.44829e-06
2.80971e-06
0.000221459
1.66031e-06
0.177078
0.000279883
2.69931e-06
0.0125199
2.06629e-06
2.05306e-06
2.11487e-06
4.26119e-06
2.5216e-06
3.58269e-06
2.12469e-06
2.65778e-06
1.96309e-06
1.99968e-06
2.08707e-06
2.80951e-06
2.38691e-06
0.0254012
0.0182612
1.81376e-06
0.00200486
7.78053e-05
0.0386794
2.14551e-06
2.91812e-06
2.49474e-06
1.84192e-06
2.73154e-06
3.05111e-06
2.08839e-06
1.73576e-06
4.15359e-06
2.15238e-06
2.71616e-06
2.85866e-06
1.76328e-06
2.04637e-06
1.92403e-06
2.12728e-06
3.31621e-06
1.95804e-06
1.9701e-06
0.0132111
2.73144e-06
2.11024e-06
0.00103488
2.05203e-06
0.00498898
0.0293478
0.00672276
2.27965e-06
2.0444e-06
2.43533e-06
1.94602e-06
2.58064e-06
2.53781e-06
2.24364e-06
2.28738e-06
0.0130307
2.30489e-06
1.74214e-06
0.0185678
0.0207474
2.10885e-06
2.15563e-05
3.96384e-06
1.98577e-06
2.99737e-06
1.00275e-05
2.21162e-06
2.03024e-06
2.86135e-06
2.41343e-06
2.22713e-06
0.00503109
1.85038e-06
4.24622e-06
2.76581e-06
1.6321e-06
0.059859
2.26416e-06
2.74188e-06
2.44532e-06
0.00583056
2.57298e-06
2.02794e-06
0.131576
2.52758e-06
2.12817e-06
0.0265531
2.52976e-06
0.000300944
3.86747e-06
2.28469e-06
2.8531e-06
1.64322e-05
0.333124
2.95574e-06
4.10823e-06
1.67727e-06
2.69088e-06
0.0154697
2.21379e-06
2.26845e-06
2.77652e-05
0.0065746
1.80664e-06
8.02557e-06
1.92144e-06
2.37649e-06
2.14943e-06
0.0100259
0.0137844
2.93579e-06
0.000143971
0.0034354
1.93312e-06
0.00505423
2.03562e-06
0.0108401
0.0113721
2.30013e-06
2.83286e-06
0.0392829
0.0137618
2.26198e-06
0.0151948
0.000126454
0.000882899
2.44221e-06
2.60529e-06
2.33594e-06
7.17982e-05
3.37616e-06
1.72232e-06
2.23069e-06
0.0364208
1.72319e-06
0.0424364
2.35682e-06
2.03755e-06
2.62446e-06
0.00238519
0.00659772
2.25347e-06
1.93689e-06
8.14038e-05
2.0129e-06
2.01589e-06
1.73965e-06
2.14972e-06
0.0212476
2.14555e-06
2.47617e-06
3.56847e-06
2.50994e-06
2.00207e-06
9.40928e-06
3.84501e-06
2.18903e-06
3.80744e-06
2.56621e-06
1.89883e-06
2.20369e-06
1.96197e-06
2.29378e-06
1.663e-06
3.77052e-06
0.0201984
9.33249e-06
2.02061e-06
2.34095e-06
2.84734e-05
2.01049e-06
0.000227714
2.16988e-06
4.40941e-06
3.73394e-06
1.98461e-06
2.22789e-06
3.33456e-06
2.21605e-06
2.24973e-06
0.00883996
0.00787953
2.22702e-06
1.6772e-06
2.27408e-06
2.37425e-06
2.22302e-06
2.26002e-06
9.5471e-06
0.0182064
1.72882e-06
0.00993902
2.49369e-06
2.03698e-06
8.13168e-06
2.03714e-06
3.1183e-06
1.99996e-06
2.1405e-06
3.83199e-06
7.79175e-06
2.42236e-06
0.00789183
2.81833e-06
1.83415e-06
0.0193397
1.88654e-06
0.0119358
0.0794271
7.76981e-05
1.6655e-06
3.44378e-06
2.28392e-06
0.00791176
1.93595e-06
3.09252e-05
0.0129096
1.05423e-05
0.000223092
2.44609e-06
2.12386e-06
2.60827e-06
1.9329e-06
1.65793e-06
2.78887e-06
2.16977e-06
2.86671e-06
1.98413e-06
4.11001e-06
0.012268
2.44159e-06
2.91803e-06
2.28782e-06
1.95242e-06
0.00151247
0.0155606
2.14582e-06
1.82421e-06
2.36895e-06
4.16992e-05
1.91811e-06
0.0083733
2.22293e-06
2.80454e-06
2.42455e-06
0.0048587
1.93055e-06
2.66723e-06
3.12013e-06
2.51984e-06
0.000565183
1.85945e-06
2.10972e-06
1.8923e-06
4.19144e-06
3.06468e-06
2.13722e-06
4.8201e-06
6.18531e-06
2.4138e-05
3.13404e-06
3.28241e-06
1.85235e-06
2.9855e-06
2.15914e-06
2.41042e-06
2.43649e-06
0.0090119
0.0123526
2.01378e-06
0.00154645
0.00453055
2.32919e-06
2.69966e-06
2.26904e-06
2.67079e-06
0.0080247
3.02493e-06
2.29271e-06
9.22065e-06
3.08083e-06
0.000730547
3.74373e-06
2.55405e-06
1.81163e-06
3.00808e-06
0.00927231
2.1994e-06
0.00402911
3.62738e-06
0.0397337
0.0143166
2.01976e-06
0.0103069
3.4495e-06
0.000976997
1.72993e-06
5.73555e-05
0.0117325
1.72353e-06
2.28132e-06
2.06117e-06
0.00510198
3.09856e-06
2.12828e-06
2.24558e-06
1.45151e-05
4.02309e-06
2.74137e-06
1.95183e-06
1.71548e-06
0.0684462
1.14448e-05
2.23407e-06
0.00922347
3.3075e-06
0.00352274
9.93452e-06
1.9514e-06
3.67659e-06
3.07731e-06
2.31185e-06
0.000601985
2.25802e-06
1.68021e-06
2.25528e-06
2.47253e-06
2.71205e-06
2.76187e-06
1.90025e-06
1.89784e-06
3.47555e-06
2.75462e-06
9.12507e-06
3.52862e-06
2.55863e-06
0.000113558
4.07668e-06
1.83769e-06
1.8892e-06
1.04119e-05
1.83769e-06
2.53961e-06
0.00230487
8.79972e-06
4.30098e-05
0.000252565
3.25182e-06
3.04891e-06
0.0029048
2.25874e-06
1.83327e-06
2.1883e-05
1.98989e-06
1.83227e-06
3.5371e-06
2.97519e-06
1.80831e-06
2.0346e-06
9.4461e-06
2.2845e-06
2.19459e-06
2.25475e-06
0.00859905
2.01514e-06
1.99838e-06
0.00978417
2.48554e-06
8.94184e-06
1.65241e-06
2.03964e-05
0.000173833
0.00545663
2.68274e-06
2.09169e-06
4.86985e-06
1.84344e-06
2.0094e-06
0.0817042
1.94562e-06
4.09995e-06
2.18195e-06
2.61241e-06
2.74231e-05
1.94086e-06
2.0417e-06
0.00916699
1.99772e-06
2.99348e-06
2.04683e-06
0.0123801
0.00805436
2.68429e-06
4.07749e-06
2.76973e-06
2.72667e-06
1.90173e-06
3.45362e-06
0.0220495
3.84713e-06
2.55947e-06
1.12257e-05
1.9788e-06
1.74815e-06
2.77186e-05
0.0781784
0.0254181
2.02697e-06
2.94887e-06
1.99083e-06
1.68406e-06
1.84578e-06
2.74947e-06
1.61692e-05
2.15301e-06
0.00526384
0.00430928
2.67689e-06
0.0211835
2.36779e-06
1.94429e-06
2.12947e-06
3.60475e-05
2.42501e-06
1.99733e-06
7.9815e-05
0.000110594
3.39771e-06
2.09561e-06
1.15781e-05
1.96623e-06
0.00842442
2.05597e-06
2.22943e-06
0.00971078
2.01653e-06
8.0822e-06
2.08704e-06
4.16754e-06
0.0310885
1.67632e-05
0.00379552
0.0033521
2.14124e-06
1.68721e-06
2.49963e-06
1.85549e-06
2.25163e-06
0.00680554
4.14127e-06
1.8199e-06
2.24324e-06
2.5996e-06
2.03507e-06
1.32956e-05
4.43627e-06
1.88909e-06
1.92962e-06
1.79662e-06
1.97647e-06
1.56689e-05
2.22475e-06
1.69671e-05
0.00513826
2.1571e-06
4.79017e-06
2.6587e-06
1.18579e-05
0.0408321
8.65881e-06
0.0334429
1.10128e-05
1.67251e-06
0.101864
1.85333e-06
0.0252138
8.39667e-06
2.24143e-06
2.84098e-06
2.1472e-06
0.0115975
2.41201e-06
1.66573e-06
2.37433e-06
2.12786e-06
2.29001e-06
2.42624e-06
2.54189e-06
1.83459e-06
1.89215e-06
0.0154182
0.0186231
0.000154829
2.77111e-06
0.00124866
0.00322726
0.00613777
2.77108e-06
0.101462
1.35583e-05
0.00664602
2.45659e-06
2.01408e-06
1.25486e-05
3.45232e-06
0.0253157
2.83512e-06
0.0143378
2.29683e-06
2.08174e-06
2.23803e-06
2.6237e-06
1.84613e-06
2.858e-06
2.30482e-06
0.0111574
2.83527e-06
2.07728e-06
2.30682e-06
2.48246e-06
1.5019e-05
1.93718e-05
4.77937e-06
0.00381188
1.61241e-05
2.7524e-06
0.00980487
0.000815766
0.0295322
3.09145e-06
2.01314e-06
2.06969e-06
4.16368e-06
3.05715e-06
1.99762e-06
1.21576e-05
1.82594e-06
3.79207e-06
0.0108956
2.79356e-06
2.92231e-06
4.53566e-06
2.23214e-06
2.24601e-06
3.78856e-05
2.54183e-06
2.41461e-06
1.81954e-06
2.65233e-06
2.669e-06
0.0825227
0.0705212
3.73923e-06
2.88792e-06
0.011814
0.0105748
2.40082e-06
0.0602692
0.000289854
3.85856e-06
4.66255e-06
3.2368e-06
0.0284283
2.32737e-06
3.39853e-06
0.0111511
0.00313996
1.69817e-06
0.00389658
3.12741e-06
1.89463e-06
0.000603114
2.01631e-06
0.0487176
2.13792e-06
8.90726e-06
1.79612e-06
4.18219e-06
2.43316e-06
3.25722e-06
2.9195e-06
0.000509589
2.48173e-06
0.219635
2.40342e-06
0.0141559
3.318e-05
3.05729e-06
1.81264e-06
0.0139066
2.35083e-06
0.00287489
2.39732e-06
0.00744373
4.69581e-06
0.000107669
3.77585e-06
0.00413776
2.4155e-06
0.00602493
1.23834e-05
3.08284e-06
1.12046e-05
2.2345e-06
6.33985e-06
0.228306
1.66241e-06
2.27387e-06
2.35552e-06
2.50115e-06
1.8706e-05
0.00880519
4.10469e-06
4.7268e-06
2.09475e-06
0.0477769
2.58915e-06
2.86038e-06
1.78172e-06
1.75315e-06
0.00852795
1.83937e-05
0.000927652
2.28751e-06
2.91232e-06
0.0017474
3.70702e-06
2.04018e-06
3.50702e-06
2.3209e-06
2.99777e-06
1.97461e-06
1.62121e-06
1.61852e-06
2.02477e-06
0.0178925
1.69446e-05
2.55521e-06
0.00775428
2.32046e-06
2.54582e-06
1.97791e-06
1.85276e-06
0.00574337
2.24448e-06
0.0168964
1.95544e-06
4.27427e-06
3.08851e-06
1.76988e-06
2.16417e-06
3.66941e-05
2.64655e-06
2.93836e-06
1.93671e-06
2.58707e-06
2.65173e-06
3.84867e-06
0.0128641
4.04309e-06
0.0196398
0.00923902
2.28948e-06
0.00243533
4.433e-06
1.90958e-06
1.84022e-06
2.24725e-06
0.0206367
1.70319e-06
2.50974e-06
2.17093e-06
2.02241e-06
2.64668e-06
0.000847896
2.17988e-06
1.82502e-06
3.25417e-06
2.25172e-06
2.26444e-06
2.1892e-06
2.5586e-06
1.66574e-06
1.63288e-06
2.70862e-06
2.03064e-06
1.97357e-06
0.0098137
2.12332e-06
2.41367e-05
3.81159e-06
2.55736e-06
2.12546e-06
1.91541e-06
1.86108e-06
3.06399e-06
0.0223061
2.76049e-06
2.2588e-06
4.4152e-06
0.0268275
5.11283e-05
2.24837e-06
3.73414e-06
2.59657e-06
0.0037502
0.0111968
5.7511e-05
2.43193e-06
0.00991599
2.27092e-06
1.8912e-06
5.22789e-06
2.29763e-06
0.00870806
2.81953e-06
1.92902e-06
2.14193e-06
2.11455e-06
0.0115263
0.00761592
2.11706e-06
1.79734e-06
2.0304e-05
0.00294937
0.0293756
2.79136e-06
1.46459e-05
2.25029e-06
0.000210388
2.07712e-06
0.0040761
3.80035e-06
1.95954e-06
1.63831e-06
4.14402e-06
0.271388
2.8286e-06
2.86799e-06
0.0546242
1.86022e-06
2.25589e-06
2.21774e-06
2.14966e-06
2.288e-06
0.00679828
1.66991e-06
2.25043e-06
2.63184e-06
2.43655e-06
6.95768e-05
2.40247e-06
0.000174306
0.0088171
3.55173e-06
0.0185024
1.79242e-06
0.0133145
2.25554e-06
2.03885e-06
1.84101e-06
0.0129705
1.9755e-06
1.97861e-06
2.25927e-06
0.103448
2.21841e-06
2.22033e-06
4.37374e-06
1.88344e-06
2.40806e-06
1.62283e-06
1.94071e-06
0.0164735
2.64362e-06
2.77082e-06
0.0102058
2.25556e-06
0.00800061
1.94536e-06
2.02653e-06
0.00443652
2.25584e-06
3.04645e-06
2.76361e-06
1.8103e-06
4.18236e-06
1.91463e-06
0.00818218
1.86763e-06
2.86116e-06
3.95295e-06
0.0565764
2.0959e-06
2.21901e-06
1.66326e-06
1.78186e-06
2.42866e-06
2.22933e-06
2.25985e-06
3.6642e-05
3.86547e-06
0.0549427
4.03011e-06
1.79804e-06
2.60094e-06
0.0123351
1.98752e-06
2.83933e-05
2.34029e-06
3.33924e-06
2.70217e-06
0.00939995
0.0630375
0.0094451
2.8075e-06
3.35703e-06
1.81787e-06
0.00464029
2.96191e-06
1.08243e-05
2.26147e-06
5.4902e-06
3.44013e-06
0.00341759
1.76998e-06
1.98944e-06
0.0090974
2.35163e-06
0.00981656
4.212e-06
2.90407e-06
2.2667e-06
2.00156e-06
2.19967e-06
0.0136698
2.22986e-06
2.99112e-06
2.91229e-06
0.0147784
0.00449541
2.40985e-06
2.04239e-06
0.014211
2.43109e-06
2.16541e-06
0.00331379
0.00566581
3.22548e-06
0.00880306
1.91119e-06
1.75094e-06
0.00494986
7.48147e-06
5.03345e-06
1.86303e-06
2.21276e-06
2.67845e-05
2.22073e-06
1.66802e-06
2.25507e-06
1.7035e-06
3.21427e-06
2.03377e-06
6.0119e-05
2.44314e-06
0.0657908
3.24464e-06
2.48716e-06
2.66523e-06
0.00632244
3.94252e-06
2.88662e-06
3.46858e-06
2.14742e-06
1.71996e-06
1.80784e-06
3.34743e-06
0.00718034
0.000735082
1.70742e-06
0.00302514
2.35674e-06
3.55233e-06
0.011184
0.0043079
1.70588e-06
2.61725e-06
0.00956518
0.00256085
0.0260333
1.68811e-06
2.2653e-06
2.81876e-05
1.9614e-06
2.83119e-06
2.20485e-06
0.00712096
0.000107739
0.000183936
1.92898e-06
2.11158e-06
2.41188e-06
0.000255928
1.695e-06
2.73776e-06
0.0162477
0.00232497
3.15869e-06
1.87396e-06
1.78115e-06
2.3302e-06
1.90366e-06
2.80879e-05
2.35566e-06
0.00288521
2.05576e-06
0.0169506
4.18536e-06
1.53454e-05
1.85352e-06
2.38871e-06
3.94819e-06
2.38925e-06
2.27023e-06
1.89432e-06
4.36946e-06
0.016188
0.0127149
0.000125482
3.04921e-06
0.173688
2.98209e-06
0.0119064
2.8536e-06
4.27257e-06
2.41871e-06
1.7725e-05
0.135707
4.79891e-06
1.97088e-06
0.00130248
0.0393159
2.64955e-06
2.68707e-06
1.63725e-06
2.02148e-06
3.8653e-05
2.05106e-06
2.09385e-06
2.08882e-06
4.28586e-06
2.00245e-06
3.87447e-06
3.51067e-06
2.14548e-06
3.77712e-06
7.76803e-06
1.71381e-06
2.39074e-06
2.2215e-06
3.33125e-06
0.0113293
2.22402e-06
2.99719e-06
1.7405e-06
1.07669e-05
1.87394e-06
1.12184e-05
0.00893663
1.978e-06
0.00723382
2.21968e-06
2.49997e-06
3.14375e-06
2.39387e-06
0.00277338
4.43342e-06
2.22387e-06
3.99971e-06
0.0068932
1.82825e-06
0.00121887
3.73845e-06
2.26581e-06
2.79096e-05
0.0055797
1.82154e-06
1.98426e-06
2.86851e-06
3.45352e-06
0.0410122
3.30361e-06
2.09953e-06
4.02659e-06
0.00935116
0.00572655
0.0146652
2.14534e-06
1.74048e-06
0.0093826
7.36473e-05
0.0559759
0.0165883
0.00479965
1.97272e-06
9.85495e-06
2.38393e-06
2.32625e-06
0.00548037
0.144699
0.0152853
0.0397666
5.06404e-06
0.001597
1.74625e-06
2.78773e-06
0.00561143
2.26201e-06
2.33916e-06
2.49574e-06
3.07975e-06
0.0216503
2.36932e-06
1.92408e-06
2.39258e-06
0.0107352
2.22246e-06
2.00815e-06
2.96462e-06
2.01451e-06
0.0104169
1.67773e-06
1.83577e-06
2.11348e-06
2.88305e-06
2.13915e-06
2.27629e-06
0.00669091
5.20093e-05
2.18753e-05
0.0126796
0.0975867
0.00262226
5.3337e-06
0.101404
2.7392e-06
0.00395871
0.0147561
3.55661e-06
1.72578e-06
1.67655e-06
2.2076e-06
3.63339e-06
1.96304e-06
2.58817e-06
2.32331e-06
1.4417e-05
5.73773e-06
0.0098525
2.15288e-06
1.79768e-05
0.0271599
2.63569e-06
1.63295e-06
1.9233e-06
6.11413e-06
0.0115411
2.17989e-06
0.0115789
2.36385e-06
2.24178e-06
0.031002
0.0066373
6.64464e-06
2.00223e-06
1.80325e-06
1.84673e-06
8.05652e-06
3.85111e-06
2.36812e-06
3.66767e-06
2.12815e-06
2.49109e-06
3.58002e-06
2.2924e-06
1.80803e-06
0.0170946
2.62743e-06
2.22147e-06
2.2517e-06
0.00429653
3.44903e-06
0.0328377
2.21739e-06
2.62338e-06
2.01248e-06
1.85829e-06
2.61646e-06
1.84223e-06
1.98e-06
3.19335e-06
2.19764e-06
2.42293e-06
1.92592e-06
2.24749e-06
3.79649e-06
1.01436e-05
2.11056e-06
0.00628929
5.50735e-06
0.00677977
7.94263e-06
1.16486e-05
3.168e-06
3.66572e-06
0.0228629
2.46687e-06
2.13438e-06
0.000381685
0.0503461
0.00423417
0.00254088
0.0106952
1.82222e-06
2.70824e-06
3.43936e-06
2.08945e-06
4.14654e-06
3.72705e-06
2.86878e-06
0.00661134
2.71249e-06
0.0121441
5.22372e-06
0.00752472
1.74151e-06
1.9908e-06
2.46238e-06
1.77409e-06
2.73395e-06
1.94949e-06
0.124321
0.0034077
0.00377622
1.75361e-06
0.000548345
0.0499596
0.00887248
2.29179e-06
0.0159532
1.64643e-06
3.33349e-06
4.14127e-06
2.42781e-06
0.0324735