/*--------------------------------*- C++ -*----------------------------------*\
| =========                 |                                                 |
| \\      /  F ield         | OpenFOAM: The Open Source CFD Toolbox           |
|  \\    /   O peration     | Version:  v2012                                 |
|   \\  /    A nd           | Website:  www.openfoam.com                      |
|    \\/     M anipulation  |                                                 |
\*---------------------------------------------------------------------------*/
FoamFile
{
    version     2.0;
    format      ascii;
    class       volScalarField;
    location    "300";
    object      k;
}
// * * * * * * * * * * * * * * * * * * * * * * * * * * * * * * * * * * * * * //

dimensions      [0 2 -2 0 0 0 0];


internalField   nonuniform List<scalar> 
18232
(
0.0120237
9.08963e-05
0.000103136
0.000109645
0.000115446
0.000256529
0.00011083
0.000134424
0.00011415
0.000114418
0.000108683
0.000105406
0.000110889
0.0109026
0.000109153
0.00268494
0.000124455
0.00014127
0.000110896
0.000151038
0.000482052
0.000104734
0.0001088
0.00010151
0.000108173
0.000108375
0.000104169
0.00025543
0.000141782
0.000103517
0.000147551
0.0422295
0.000130564
0.0503999
0.0307155
0.000265796
0.011991
0.000133712
0.0168018
0.000147183
0.0297366
0.000101436
0.000124877
0.0168184
0.000115603
0.0201246
9.03232e-05
0.000101559
0.000167082
9.241e-05
0.000121688
0.000138775
0.025478
0.000101038
0.000112523
0.00017219
0.000125285
0.000126054
0.0898683
9.27049e-05
0.000108987
0.000114845
0.000101897
0.000109843
0.000120061
9.57863e-05
0.0203699
0.0441505
0.000103962
0.0001022
0.000124828
0.000109087
0.041815
0.00305916
0.000115648
0.000934361
0.000104119
0.000109223
0.0134144
0.000106163
0.0459828
0.000113274
0.000101758
9.95375e-05
0.0224621
0.000171514
0.00010454
0.000111038
0.000112469
0.000109078
0.000111421
0.000103488
0.000146038
0.000164274
0.000111682
0.000102229
0.000115197
0.00010584
0.012684
9.90931e-05
0.000112972
0.000100672
0.00357599
0.00011489
0.000240073
0.000106281
0.000103685
0.000150314
0.000138188
0.000101768
9.59394e-05
0.00128577
9.3208e-05
0.000111095
0.000122119
9.90961e-05
0.000112872
0.0210223
0.000108715
9.89634e-05
0.000123137
0.000133205
0.00438973
0.000368322
0.0102674
0.000123039
0.000181507
9.45116e-05
0.000443552
0.00129029
0.00010257
0.000105093
0.000108686
9.32085e-05
0.029
0.00074902
0.000172834
0.000143872
9.23535e-05
0.0181612
0.000111516
0.000106401
0.0648355
0.000115963
0.000106837
0.000105684
0.000108383
0.000147905
0.0289361
0.000138617
0.011448
0.000101242
0.000115377
0.000103992
0.000108464
0.0336655
0.000320885
0.0001187
0.000237636
9.25567e-05
9.11192e-05
9.29585e-05
0.00010388
0.0229008
0.0382068
0.000116854
0.000130658
0.0647004
0.000107868
0.0224267
0.000101799
0.000135349
0.000102858
0.000104797
0.00010694
0.0117326
9.94345e-05
0.000147689
0.0292051
0.00012323
0.00015598
0.0164447
0.000109591
0.00354565
0.010487
0.000149294
9.82393e-05
0.0254023
0.000146196
0.0249402
0.000107245
0.000109114
0.000114365
0.0261502
0.00011649
0.000104482
9.30858e-05
0.000109524
0.00010035
9.8892e-05
0.000147608
0.000100987
0.00011394
0.000784497
0.000145387
0.0319173
0.000651568
0.044981
0.000138342
0.000104113
0.000102492
0.000108446
0.000112276
0.00755898
0.00403081
0.000100985
0.000116565
0.000103255
0.000104073
0.000106126
0.0283727
9.29048e-05
0.0514376
0.000101754
0.000100102
0.000102053
0.000141475
0.000101313
0.000123693
0.000132839
0.000114907
0.000107964
0.06521
0.000290004
0.00013025
0.0209327
0.00010978
0.000216545
9.21112e-05
0.000136413
0.000114759
0.0134902
0.000215225
0.000111964
0.0150495
0.0242205
0.000145839
0.0696691
0.0395536
0.000103907
0.000183265
0.000183108
9.79895e-05
0.00013785
0.00010481
0.00221775
0.00204586
0.0525669
0.0163184
0.000160309
0.000100003
0.000100885
0.000142092
0.000147037
9.62965e-05
0.000144466
0.0177652
0.000233048
0.000181773
0.000485101
0.000105165
0.0549062
0.000176752
0.000109254
9.78295e-05
0.0254436
0.000101072
0.000109883
0.000135253
0.0102833
0.0186458
9.90801e-05
9.28547e-05
0.0223059
0.000177505
0.000109936
0.000106113
0.018888
0.000102589
0.000111593
0.000108763
0.000104256
0.0268078
0.000105862
0.000101496
0.00046946
0.0227003
9.22058e-05
0.000114682
0.00010264
9.5455e-05
0.000138498
0.0284812
0.00018137
0.0001396
0.000125819
0.000121976
9.8245e-05
0.000125431
0.0249361
0.000112208
0.000121616
0.000140088
0.000104249
9.28927e-05
0.000106846
0.0234938
9.37956e-05
0.0193278
0.000123575
0.0108446
9.92216e-05
0.000117966
0.000563408
0.000111438
9.61706e-05
0.000150233
9.92338e-05
9.80568e-05
0.000102556
0.000100746
0.000112797
0.000117045
0.0749018
0.000155085
0.0344071
0.000524962
0.0376495
0.000104282
0.00010354
0.000133469
0.000496699
0.000146728
9.1437e-05
9.42541e-05
0.000144034
0.0227648
0.000105597
0.000121905
0.000109854
0.00289721
0.000111105
0.00011118
9.66503e-05
0.000104111
0.00010617
0.000172504
0.0207899
0.000131888
0.000122558
0.000924817
0.000122184
0.0812356
0.000109711
0.0172724
0.000107214
0.000128836
0.019992
0.000106147
0.0369995
0.000401639
0.000296167
9.12365e-05
0.0462965
9.89691e-05
9.93796e-05
9.32428e-05
0.000109456
0.00192515
0.0101368
0.000106974
0.000104021
0.000147653
0.000106545
0.0431127
9.76428e-05
0.000113366
0.000108786
0.000115644
0.000102701
0.000113889
0.000148213
0.0292717
9.79235e-05
0.0124477
0.000103868
0.00236633
0.000109917
0.000949842
0.000110367
0.000320625
0.00348461
0.000135218
0.0884581
0.000103927
0.000132366
0.000107818
0.000137647
0.000121944
0.000220003
0.0108418
0.0564767
9.81465e-05
9.93455e-05
0.0108916
0.000181839
0.000118748
0.000144147
0.018152
0.000109296
0.000103453
0.000133797
0.00010664
9.91505e-05
0.0133975
0.000130705
0.000115728
0.000106011
0.000128877
0.000149556
9.47832e-05
0.00016699
0.0232249
0.000110053
0.000116055
0.000122772
0.000123093
0.000132384
9.38505e-05
0.00011
0.000112932
0.000162868
0.0300143
0.000119794
9.85078e-05
0.000118272
0.000105744
0.000106533
0.000113348
0.000125828
0.0298713
0.000105622
9.38429e-05
0.000121865
0.00155425
0.000108636
0.0415124
0.000144866
0.000169584
0.00010634
9.91161e-05
0.000200989
0.000105578
0.000944719
9.99703e-05
0.000116679
9.91961e-05
0.000104412
0.000110291
0.000106493
0.00011909
0.0271004
0.000133193
0.000183536
0.000150005
0.000131784
9.34282e-05
0.00029717
0.031982
9.99793e-05
0.000140636
9.44452e-05
0.000123003
0.000106877
0.000144702
0.00011982
9.87796e-05
0.000100113
0.0198572
9.75993e-05
0.000125462
0.00023951
0.000108187
9.93539e-05
0.0001302
0.000128641
9.98814e-05
0.000370854
0.00228838
0.000125921
0.000110321
9.62695e-05
0.000107879
0.000207305
0.0231335
0.000156432
0.000117351
0.000102876
0.000111327
9.85298e-05
0.0213664
0.000105405
9.95112e-05
0.0127107
9.52897e-05
0.000117167
0.000113563
0.000124396
9.89285e-05
9.79432e-05
0.00010796
9.61305e-05
0.00010797
0.0727609
0.0176588
9.81878e-05
9.63376e-05
0.000116218
0.000101816
0.0207768
0.000126238
0.000167729
0.000215411
0.000130451
0.0360835
0.000110484
0.00112878
0.000115845
0.0319731
0.000194409
0.000108987
0.000113348
0.000111019
9.41756e-05
0.000126901
0.000164743
0.016231
0.000108443
0.000108166
0.000151627
0.00012015
9.85015e-05
9.88093e-05
0.0001249
0.0200448
0.0249047
9.67581e-05
9.38011e-05
0.000116473
0.00105861
0.0230619
0.000147622
0.000192971
0.000139897
0.000634043
0.00012004
9.97952e-05
0.00284113
0.00166797
0.0001431
0.000124423
0.000109323
0.0132795
9.8802e-05
9.78408e-05
9.37263e-05
0.0813864
0.0001082
0.02033
0.000104655
0.0273563
0.000116417
0.0204058
0.000118137
0.000112428
0.000126849
0.000116601
0.000101521
0.00945648
0.0181094
9.84001e-05
0.00012795
0.000213485
0.000104988
0.0598379
0.000103742
9.40017e-05
0.0442906
0.0278909
0.000102776
0.000103574
0.000100071
0.0627029
0.000116939
9.20405e-05
0.000111306
0.000126787
0.015206
0.000128409
0.000119491
9.29952e-05
9.89149e-05
0.000108736
0.00013424
0.000109724
0.000123493
0.00010496
0.0291871
0.00012356
0.000115339
0.000104597
0.000140327
0.00580379
0.0155082
0.000104404
0.0001475
0.000137526
0.0527782
0.00010215
9.87273e-05
0.000118279
0.000109804
0.0001302
0.000109836
0.0166766
0.0311725
0.0401283
0.0162376
0.0273343
0.00010107
0.000178957
0.000694862
0.000147254
0.000486122
9.85146e-05
0.000117437
0.000113635
0.0536362
9.70582e-05
0.00010675
0.0311046
9.23041e-05
9.96884e-05
9.38413e-05
0.0129006
0.000144349
0.000104809
0.000417511
0.00010726
0.00269701
9.62667e-05
0.000103091
9.5676e-05
0.000106503
9.92888e-05
0.000120467
0.000135568
0.000102752
9.88741e-05
9.33908e-05
0.000114061
0.0335404
0.0139207
0.000105225
0.0136565
0.000133491
0.0160584
0.000132156
0.000125007
0.0579249
0.000104274
0.000108099
0.022736
0.0001305
9.70545e-05
0.0127222
0.000296644
0.000109656
0.000102691
0.0334375
0.000107221
0.000111706
0.00547428
0.0206786
0.000116775
0.000135554
0.0205128
0.000109617
0.000100524
0.0944168
0.000137431
0.0254923
0.000108783
0.0765061
0.000102132
0.000114955
0.0123429
0.000136595
0.000122646
0.000109043
0.0622434
0.000239384
0.000125263
0.0127254
0.000146465
0.00010251
0.000102904
0.015806
0.000105573
0.000130396
0.000111774
9.761e-05
0.000112511
0.0422617
0.000146722
0.0261622
0.000147016
0.000351677
0.000138181
0.000136552
0.00010289
0.000104277
0.000102298
0.000107089
0.000109948
0.000147045
0.00938377
0.000109992
0.000113746
0.0113367
0.000101439
0.0260691
9.76152e-05
0.000416111
0.0558088
9.45429e-05
0.0633103
0.000126626
0.0755992
0.000430931
0.0119802
0.000113828
9.86077e-05
9.25932e-05
0.000171189
0.033913
0.000343994
9.31643e-05
0.000139562
0.0218623
0.051966
0.000418587
0.000113137
0.000244387
0.000102964
0.000103419
0.0458168
0.000111468
0.0647607
0.000104046
9.96504e-05
0.0467971
0.0336596
9.85137e-05
0.000112687
0.00010809
0.0125329
0.000102931
9.78981e-05
0.000106503
0.000182531
0.000154109
9.40138e-05
0.000148182
0.000139466
0.000146571
0.0637194
0.000128959
0.0250951
0.00909175
0.000129392
0.000152854
0.0127473
0.000105735
0.00010235
0.000116028
0.0138845
9.578e-05
0.000100836
0.0292231
0.000109754
0.0117092
0.000112159
0.000139857
0.000105132
0.000116834
0.000116135
0.0682548
0.000110072
9.7801e-05
0.0105952
0.000104284
0.108109
0.0214471
0.000224658
0.00425396
0.000386844
0.000109436
0.000112155
0.000165353
0.0289605
0.000111952
0.000103289
0.0047724
9.40928e-05
9.82854e-05
0.000107486
0.0303485
0.000104397
0.00365102
0.000130866
0.000115629
0.0088393
0.000118114
0.0541924
9.34279e-05
9.87885e-05
0.000108411
0.000625642
0.000106909
0.000100843
0.000118064
0.0564906
0.000107145
0.00260966
0.000121518
9.69124e-05
0.000112991
0.000100625
0.000146181
0.000103317
0.000107492
0.0255177
0.0652743
0.00010923
0.00470284
0.00013403
0.000106509
9.95331e-05
0.000139167
9.95356e-05
0.00011889
0.000114874
9.82e-05
0.000146957
0.000110492
0.000115856
0.000145341
0.0974103
0.000154925
0.000140532
0.00011364
0.00352251
0.0330668
9.81594e-05
0.0113484
0.00763836
0.000105353
0.00012718
0.0118573
0.0103446
0.000156562
0.000135032
0.000428534
0.00011111
0.0161835
0.0925504
0.0129625
9.85974e-05
9.66666e-05
0.000870691
0.000130934
0.000147251
0.00011446
0.000136559
0.000325971
0.00010015
0.000128904
9.79024e-05
0.000108175
0.000147692
0.0126035
0.000334722
0.000106637
9.79926e-05
0.0604084
9.85078e-05
0.0511548
0.000123913
0.000126702
0.00898263
9.54876e-05
0.000109508
0.000113422
0.000100458
0.000118553
0.000136142
0.0303447
0.000126933
0.00013395
9.98662e-05
0.000113675
0.0322334
9.94478e-05
9.83277e-05
9.3266e-05
0.000146913
0.000250283
0.000113232
0.00700852
0.00873532
0.000109393
0.000140103
9.65281e-05
0.000103209
0.000118848
9.18561e-05
0.000147892
0.000174702
0.000108958
9.68885e-05
0.000127121
0.000129036
0.00013948
0.000117839
0.0128622
0.00631123
0.000284709
0.000112928
0.000374397
0.000107146
0.000133633
0.0651529
0.0651979
0.000102864
0.000115316
0.000343009
0.0361919
0.00011308
0.000112574
0.0535954
0.012793
9.78389e-05
0.000114451
9.26211e-05
0.010539
0.000138239
0.000149399
0.000383082
0.0242394
0.0195151
0.000134918
0.000186895
9.31334e-05
9.96166e-05
0.000120675
9.60763e-05
0.000675391
0.000116007
0.042421
0.000101175
0.00116409
0.0144613
0.000105668
0.00039303
9.25491e-05
0.000107399
0.000119867
0.00013453
0.000145637
0.000113846
0.000102477
0.0117261
0.00010141
0.0274516
0.000129471
0.000109812
0.000110962
0.000128283
0.000108955
0.0100454
0.000117604
0.000161979
0.000111214
0.0141969
0.0164437
0.000635296
0.0001713
0.0119219
0.000128893
0.0413556
0.000100751
9.37174e-05
0.000216017
0.0222748
0.0350349
9.71461e-05
9.68832e-05
0.000448415
0.000146297
0.000556194
0.000102848
0.0135037
9.43426e-05
0.000128522
0.000105576
0.00139734
0.000145864
0.00010262
0.000144638
0.000113601
0.000254124
0.0339054
0.000115063
0.00010441
9.93961e-05
9.61246e-05
0.000105009
9.23948e-05
0.000102755
0.000194199
0.000104121
0.0126609
0.000106555
0.000129369
0.000101089
9.8121e-05
0.0566398
0.000101835
0.000109882
0.00568845
0.032881
0.0431875
0.0822613
0.0729604
0.000103699
0.000112382
0.000146958
0.000104014
0.000112475
0.000321551
0.0207562
0.000212625
0.00011786
0.000111811
0.0390064
0.0215032
0.000122677
9.58239e-05
0.0173371
0.000709261
0.000103838
0.000109685
9.20232e-05
0.000113685
0.000102917
0.0118374
0.000100586
0.0442524
9.32453e-05
0.000105509
0.0325506
0.00114531
0.00010392
0.000103988
0.000101092
0.000109851
0.000110811
0.000140028
9.32188e-05
9.49156e-05
0.00010934
0.0149728
0.000126144
0.000112135
0.0019678
0.000101418
0.000111092
9.11874e-05
0.000116672
0.000277419
0.000104775
9.78588e-05
0.000104037
0.000143953
0.000105892
0.000107185
0.000101552
0.000106092
0.000119157
0.000115835
0.00137502
9.54897e-05
9.84229e-05
0.000125668
9.53236e-05
0.00011213
0.01322
0.000101801
0.0576871
0.000110516
9.8089e-05
0.000128946
0.00013407
0.048544
9.96714e-05
0.00014753
0.036811
0.0164993
9.83228e-05
0.000110785
0.000102957
0.0531104
0.000346824
9.47651e-05
9.22096e-05
0.000103993
0.0586483
9.63392e-05
0.0100687
0.0219375
9.30149e-05
0.000110613
0.000148487
0.0589503
0.000107848
0.000116733
0.00013143
0.000163417
0.0317632
0.000111486
0.000252726
0.0324241
0.0428458
0.000124809
0.000147319
0.000907945
0.0893628
0.000117761
0.000167407
9.23323e-05
0.000142466
0.000114258
0.000114404
0.000107708
0.0418167
0.000147855
0.000107686
0.00010094
0.000118243
0.00219435
9.80836e-05
0.000172688
9.86924e-05
9.87766e-05
0.00359988
0.000146217
0.000104115
0.000109499
0.00011724
9.5488e-05
0.000110119
0.0133493
0.000173463
0.000135929
0.000105799
0.000308488
9.0784e-05
0.000100998
0.0295805
0.0125853
0.000114809
0.000101184
0.00011751
0.000106745
0.000110742
0.000107521
0.000143446
0.000115079
0.0001034
9.149e-05
0.000108264
0.000626196
0.107465
0.000145283
0.00161052
9.96921e-05
0.000138994
9.79456e-05
0.000119354
0.000103753
0.000106031
0.0397741
0.000128151
0.000104398
0.000360154
0.000119664
9.47844e-05
0.000107022
0.0686168
0.000111364
0.000108311
9.79348e-05
0.000163714
9.1326e-05
0.000104077
0.00112293
9.92845e-05
0.00013974
9.91038e-05
0.000103315
0.000104063
9.70807e-05
0.000102842
0.0166563
0.000123745
0.000135537
9.48338e-05
0.000101362
9.23526e-05
0.000105949
0.000110137
0.000108622
9.33748e-05
0.000177107
0.0283874
0.0144025
9.66995e-05
0.000130698
0.00010737
0.0333716
0.000103888
0.000114131
0.00010556
0.000202034
0.000148693
0.0223545
0.000110464
0.0646445
0.0432111
0.0119394
0.101861
0.072912
0.000112608
0.000113957
0.000110855
0.000121766
9.64455e-05
0.000113976
0.000134541
0.00147868
0.000911306
0.000101089
0.000101033
0.000124976
0.000584684
9.0623e-05
0.000104399
0.0314321
0.000417575
0.0313861
0.000140085
0.000116929
0.025449
0.0926146
9.41886e-05
0.000101651
0.00213359
0.000284769
0.000162462
9.97884e-05
9.64902e-05
0.000112628
0.000146297
0.00010039
0.0917371
0.000127822
0.000136998
0.051832
0.000147804
0.000102253
0.000118238
0.00012445
9.66064e-05
0.000322627
0.000107218
0.000103537
0.000100663
0.0232684
0.000102874
0.000101665
9.37706e-05
0.000155563
0.00116753
0.000109393
0.000106549
0.000105961
0.000273974
0.0163081
0.000100643
0.000111719
0.000147786
0.0194614
9.94783e-05
0.000112631
0.000100085
0.000149519
0.000103888
9.49563e-05
0.000114033
0.03045
0.00447676
0.00236353
0.000109842
0.0163317
0.000129495
0.0201262
0.000124759
0.000130826
9.46454e-05
0.000110289
9.32751e-05
0.0497979
9.60947e-05
9.44428e-05
0.000100241
0.000116088
0.0287257
0.000109726
0.000142872
0.000102622
0.000235043
0.000141477
0.000498952
0.000107499
9.63367e-05
0.000158553
0.000473521
0.0188395
0.0494324
0.00011226
0.02782
9.5719e-05
0.000111693
0.000120005
0.00182584
9.14116e-05
0.0990596
0.00208512
0.000123987
0.0616389
0.000102279
0.000101945
0.000103565
0.000174122
0.00012051
0.000136188
0.000106475
0.000125903
9.95844e-05
0.000100539
0.000102811
0.000130501
0.000110338
0.0376731
0.0175487
9.55443e-05
0.00840892
0.000860499
0.0632825
0.000104279
0.000122394
0.000112788
9.79784e-05
0.000118247
0.000136537
0.000102949
9.42557e-05
0.000147102
0.000104497
0.000117913
0.000129687
9.41595e-05
0.000103363
0.000100423
0.00010731
0.000146218
9.94834e-05
0.000101017
0.0142094
0.00012911
0.000105297
0.00535916
0.000101925
0.0159196
0.0541213
0.0189589
0.000107784
0.000101884
0.000111441
9.92419e-05
0.000114797
0.00011388
0.000106898
0.000109826
0.0603991
0.000111609
9.36119e-05
0.031976
0.0309597
0.000105716
0.000547982
0.000163419
0.000100554
0.000138781
0.000302507
0.000108636
0.000101411
0.0001292
0.000114475
0.000107084
0.0152844
9.66622e-05
0.000148801
0.000119023
9.05489e-05
0.0459873
0.000109369
0.000118491
0.000111673
0.0175245
0.000114628
0.000102855
0.0863465
0.000113562
0.000104403
0.0277871
0.000122752
0.00241022
0.000141795
0.000107821
0.00012096
0.00044542
0.109403
0.000132305
0.000146249
9.18833e-05
0.000127447
0.0287738
0.00010642
0.000107458
0.000646294
0.0187884
9.53926e-05
0.000269074
0.000100756
0.000117383
0.000104378
0.0106809
0.0273849
0.000122787
0.00135125
0.0119656
9.92212e-05
0.0136739
0.000103402
0.0357118
0.0576972
0.000113226
0.000120514
0.0401139
0.0167851
0.000107463
0.0455192
0.00144705
0.00584734
0.000114916
0.000115368
0.000109086
0.000871922
0.000147647
9.35014e-05
0.000110153
0.0530951
9.36252e-05
0.0562961
0.000109671
0.000101681
0.000115808
0.0106314
0.0190268
0.000106983
9.91224e-05
0.000904897
0.000103637
0.00010432
9.35467e-05
0.000104373
0.0412375
0.000106761
0.000112363
0.000135902
0.000113161
0.000100656
0.000264139
0.000163178
0.000106058
0.00014057
0.000114462
9.90153e-05
0.000105775
9.95595e-05
0.000110541
9.1473e-05
0.00013987
0.0307426
0.000290012
0.000101161
0.000111516
0.000643505
0.000101522
0.00183362
0.0001099
0.000175207
0.000156791
0.000100154
0.000107013
0.000131191
0.000106062
0.000107039
0.0108028
0.0207328
0.000106334
9.1751e-05
0.000107664
0.000110048
0.000106895
0.000107871
0.000277387
0.0390564
9.31845e-05
0.0225407
0.000112773
0.000105889
0.000252319
0.000103437
0.000126692
0.00010117
0.000105804
0.000141043
0.000264052
0.000114675
0.0139719
0.000128324
9.62309e-05
0.0347071
9.75382e-05
0.0262246
0.0723842
0.00132813
9.15384e-05
0.000133423
0.000107836
0.0403536
0.000100525
0.000493422
0.0609026
0.000324807
0.00288569
0.000111641
0.000103775
0.000115435
9.92434e-05
9.1181e-05
0.000131811
0.000107231
0.000133679
0.000100578
0.000146287
0.033002
0.000111565
0.000122385
0.000108135
0.00010087
0.00755487
0.0279147
0.000107944
9.6294e-05
0.000117287
0.000858074
0.000100557
0.0655072
0.000106953
0.000131886
0.000114352
0.0157713
0.000100652
0.000116797
0.000142938
0.000113382
0.00359137
9.68277e-05
0.000103385
9.80659e-05
0.000147796
0.00012555
0.000108087
0.000191273
0.000222082
0.000582851
0.000143223
0.000130111
9.66351e-05
0.000135041
0.000105846
0.000118325
0.000116646
0.0224276
0.0628652
0.00010374
0.00711307
0.0111627
0.000111155
0.000127301
0.000110655
0.000123098
0.0395881
0.00013881
0.00010823
0.000294298
0.000125901
0.00438611
0.00015908
0.000114191
9.75407e-05
0.000133939
0.0492401
0.000105634
0.0135864
0.00015761
0.0246356
0.0362551
0.000103226
0.0244325
0.000147943
0.00514486
9.32223e-05
0.000700859
0.0597657
9.30458e-05
0.000110233
0.000103001
0.0161887
0.000138405
0.000103935
0.000111063
0.000342651
0.000167189
0.000125251
9.93278e-05
9.31044e-05
0.0664751
0.00034262
0.000106816
0.0109592
0.000145893
0.0127408
0.000293333
0.000100843
0.000157683
0.000125829
0.00011378
0.00382093
0.000112244
9.1836e-05
0.000111008
0.000118794
0.000117852
0.000130212
9.89264e-05
9.89478e-05
0.000134053
0.000118774
0.000288741
0.000135117
0.000114287
0.0011062
0.000145665
9.63136e-05
9.76304e-05
0.000320153
9.67063e-05
0.000113856
0.00901676
0.000254387
0.000858253
0.00254114
0.000129498
0.000125211
0.0111628
0.000107394
9.78989e-05
0.000391956
0.000100289
9.61443e-05
0.000135275
0.00013772
9.75006e-05
0.000101898
0.000299781
0.000112827
0.000105612
0.000107728
0.0114261
0.000103929
0.000100875
0.0376685
0.000116464
0.000256193
9.11636e-05
0.000519537
0.00174866
0.0171911
0.000117147
0.000102905
0.000189948
9.65096e-05
0.000100851
0.0723128
0.000102146
0.000168006
0.000108047
0.00011553
0.000605878
0.000100698
0.00010165
0.0473484
0.000100545
0.000138151
0.000106106
0.0325204
0.0359837
0.000117181
0.000145684
0.000119132
0.000118147
0.000100891
0.000153336
0.0330184
0.00014135
0.000114311
0.000339244
0.000100144
9.37352e-05
0.000509109
0.0677136
0.0399223
0.000101238
0.000123067
0.000101179
9.19505e-05
9.80355e-05
0.000130746
0.000414102
0.000108666
0.0164199
0.0143532
0.000123151
0.0433139
0.000109847
0.000102023
0.000107146
0.000525067
0.000111202
0.000100828
0.000886163
0.00177232
0.000149115
0.0001032
0.000336763
0.000100024
0.0108425
0.000102877
0.000108157
0.0522535
0.000103097
0.00024395
0.00010282
0.000147357
0.0444124
0.000451862
0.0133462
0.0126016
0.000105853
9.22601e-05
0.000119699
9.71423e-05
0.00010749
0.0192296
0.000167567
9.57162e-05
0.000106832
0.000121139
0.000101485
0.000382916
0.000181304
9.76081e-05
0.000100456
9.62312e-05
9.99468e-05
0.000427577
0.000106593
0.000454257
0.0162675
0.000107567
0.000187858
0.000123358
0.000318947
0.0500104
0.000282897
0.036352
0.00029948
9.17461e-05
0.0770324
9.73949e-05
0.0391969
0.000276842
0.000106988
0.000120691
0.000104369
0.0230506
0.000110829
9.15265e-05
0.000109935
0.000103954
0.000110418
0.000111206
0.00011915
9.76938e-05
9.76833e-05
0.0474653
0.0332884
0.00226609
0.000130091
0.00630455
0.0119108
0.0180741
0.000119147
0.0805766
0.000388013
0.0117934
0.00011192
0.00010382
0.000340707
0.00013358
0.030039
0.000120554
0.0607772
0.000109963
0.000102678
0.000110224
0.000115804
9.72208e-05
0.000129149
0.000114381
0.0241951
0.000120565
0.000103132
0.000113458
0.000117111
0.000417439
0.000394629
0.000190697
0.0117903
0.000440343
0.000118719
0.0392644
0.00704393
0.0396474
0.000126119
0.000104141
0.000102522
0.000147257
0.000125383
0.000101159
0.000311381
9.59892e-05
0.000140283
0.0250125
0.000127077
0.000131067
0.000180305
0.00010821
0.000107298
0.000562696
0.000113897
0.000110945
9.67437e-05
0.000122667
0.000127989
0.0677683
0.083557
0.000156806
0.000135118
0.0121725
0.0603961
0.000110561
0.0421931
0.00230865
0.000141572
0.000186871
0.000144601
0.0451949
0.000115235
0.000132509
0.0241941
0.0121764
9.23307e-05
0.0136038
0.000142499
9.89167e-05
0.00461487
0.00010141
0.045894
0.000104472
0.00027792
9.56753e-05
0.000147621
0.000111339
0.000144721
0.000131681
0.00334819
0.000118166
0.102297
0.00011851
0.0160882
0.000499118
0.000140145
9.55534e-05
0.0257305
0.00010956
0.0113451
0.000110555
0.0195716
0.00018829
0.00170056
0.000162268
0.0141995
0.000110964
0.0138954
0.000308527
0.000138094
0.000339004
0.000108771
0.00022993
0.103353
9.1352e-05
0.000107596
0.000109608
0.000112952
0.000484722
0.0326916
0.000146175
0.000191745
0.000105265
0.0536562
0.000114985
0.000121127
9.59181e-05
9.4993e-05
0.0218314
0.000403337
0.00522521
0.000107812
0.000122278
0.00824995
0.00013864
0.000101609
0.000134703
0.000115693
0.000124105
0.000100044
9.02054e-05
9.00995e-05
0.000104546
0.0578319
0.000367531
0.000114216
0.0353268
0.000108617
0.000119442
0.000100304
9.82852e-05
0.0174052
0.000106764
0.0585485
9.94965e-05
0.000177875
0.000136177
9.4333e-05
0.000104882
0.000532941
0.000116315
0.000133586
0.000100706
0.000120623
0.000116473
0.000141364
0.0156164
0.000164563
0.00997695
0.0646505
0.000108219
0.0151464
0.000175791
0.000100206
9.64265e-05
0.000110641
0.00950526
9.24721e-05
0.000119215
0.000105503
0.000101621
0.000116334
0.00743591
0.000110267
9.62979e-05
0.000129545
0.000108093
0.000109136
0.000107316
0.000114303
9.14629e-05
9.05111e-05
0.000117739
0.000105495
0.000101152
0.0199423
0.000103715
0.000481309
0.000140665
0.000119539
0.000103766
0.00010148
9.81628e-05
0.000138131
0.0354705
0.000126074
0.00010726
0.000175401
0.0375839
0.000982115
0.000107453
0.000158388
0.000115179
0.0134904
0.0552008
0.000715111
0.000114758
0.0643938
0.000111933
9.82861e-05
0.000199891
0.000108403
0.0467279
0.000120222
0.000101964
0.000104408
0.000103492
0.024903
0.0200735
0.00010399
9.5096e-05
0.000530505
0.0101897
0.0550063
0.00011961
0.000408371
0.000110662
0.00182495
0.000103131
0.0139634
0.000161918
9.9502e-05
9.08039e-05
0.000167582
0.101492
0.000120416
0.000134172
0.038405
9.82859e-05
0.000107794
0.000112041
0.000107339
0.000110814
0.0138663
9.16363e-05
0.000108082
0.000116003
0.000111416
0.00128058
0.000118071
0.00202841
0.0206529
0.000135591
0.0439277
9.49615e-05
0.0395263
0.000109523
0.000101563
9.63906e-05
0.0619994
9.99096e-05
0.000100421
0.000107467
0.0795888
0.000107197
0.000106749
0.000176004
9.80183e-05
0.000110806
9.02508e-05
9.92308e-05
0.029533
0.000116275
0.000129453
0.0242162
0.000107039
0.0181946
9.91115e-05
0.000101238
0.0107915
0.000113423
0.000140107
0.000118967
9.64477e-05
0.000147624
0.000101541
0.0210213
9.7729e-05
0.000128238
0.000143349
0.0575509
0.000104835
0.000107841
9.13781e-05
9.58677e-05
0.00011123
0.000112376
0.000107916
0.000526187
0.000141679
0.0576742
0.000167942
9.61752e-05
0.000115275
0.022802
0.000102376
0.000471922
0.000109194
0.000131258
0.000124052
0.0208597
0.0649844
0.0226377
0.000119951
0.000131649
9.78384e-05
0.0122307
0.000133684
0.000324507
0.000107265
0.000207285
0.00015205
0.0124265
9.55906e-05
0.00010284
0.018199
0.000109522
0.022295
0.000173482
0.000122078
0.00010924
0.000102852
0.000111262
0.023507
0.000109323
0.00013231
0.000130797
0.0292178
0.0157219
0.000110799
0.000101653
0.0390296
0.000111336
0.000104911
0.0120794
0.016892
0.000142604
0.0173757
9.8226e-05
9.39629e-05
0.0111553
0.000253265
0.000192113
9.68928e-05
0.000105976
0.000619213
0.000106534
9.15318e-05
0.000107218
9.24732e-05
0.000142185
0.000101959
0.000960075
0.000115245
0.0656824
0.000143551
0.000117916
0.00012418
0.0182371
0.000167323
0.000129877
0.000133927
0.000106777
9.30523e-05
9.64791e-05
0.000131436
0.0196671
0.00445208
9.26511e-05
0.0111685
0.000112063
0.000153925
0.0489095
0.0141007
9.32245e-05
0.000124949
0.0530462
0.0106643
0.00862348
9.22546e-05
0.000107591
0.000487138
9.96388e-05
0.000127103
0.000107364
0.0158421
0.00171722
0.00163294
9.86749e-05
0.000105442
0.000115881
0.00222863
9.22381e-05
0.000118395
0.0105297
0.0100125
0.000127545
9.72132e-05
9.46631e-05
0.000116565
0.000100311
0.000462276
0.000109605
0.0111868
0.000103477
0.031189
0.000147683
0.000421792
9.7412e-05
0.000110275
0.000162158
0.000110348
0.00011439
9.89575e-05
0.00017583
0.0421174
0.026807
0.00119706
0.000125223
0.0947827
0.000134268
0.0421563
0.000132187
0.000177193
0.000114593
0.000365032
0.0912852
0.000185736
9.98273e-05
0.00661929
0.0505457
0.000116387
0.00011725
9.07702e-05
0.000101788
0.000552314
0.000103358
0.00010297
0.000103475
0.000177073
0.000101615
0.00014183
0.000134721
0.000105336
0.000139976
0.000263392
9.27863e-05
0.000110321
0.000112025
0.000131141
0.0232565
0.000109028
0.00012411
9.35205e-05
0.000311288
9.72082e-05
0.000342674
0.0651775
0.00010006
0.0140371
0.000106791
0.000112931
0.000143651
0.000110451
0.0112252
0.000179929
0.000108562
0.00016392
0.0179112
9.60635e-05
0.00672653
0.000156826
0.000111263
0.000625691
0.0122276
9.78985e-05
0.000100134
0.000121315
0.000133641
0.0375976
0.000130558
0.00010311
0.000169909
0.027164
0.013853
0.058943
0.000104285
9.41919e-05
0.0197982
0.00111932
0.060331
0.0151402
0.015673
9.99237e-05
0.000282332
0.000110218
0.000108808
0.0116901
0.0930393
0.0305654
0.0498753
0.000195546
0.00765781
9.43179e-05
0.000119525
0.0108702
0.000107271
0.000115607
0.000118144
0.000125874
0.0306039
0.000109871
9.90327e-05
0.000115301
0.0235495
0.000106534
0.000101189
0.0001331
0.000100915
0.0559808
9.18135e-05
9.6398e-05
0.000103479
0.00012972
0.000104122
0.000108014
0.0150448
0.000657967
0.000415467
0.0352729
0.0656986
0.00991242
0.000203167
0.0811406
0.000118423
0.0123249
0.0172379
0.000153036
9.31366e-05
9.23424e-05
0.000111608
0.000153278
0.000100691
0.000114979
0.000108748
0.000405498
0.00021404
0.0226854
0.00010648
0.000368042
0.00893091
0.000125762
9.05509e-05
0.000101323
0.000224379
0.0254116
0.000110398
0.063337
0.000109682
0.000113229
0.0285823
0.0161202
0.000237473
0.000100597
9.57897e-05
9.66821e-05
0.000265648
0.000141423
0.000109957
0.000137871
0.000104032
0.000112728
0.000149759
0.000108036
9.54678e-05
0.0465831
0.000115905
0.000112369
0.000107141
0.0112771
0.000151923
0.0218362
0.000107801
0.000115815
0.000101263
9.67872e-05
0.000115643
9.64609e-05
0.000101142
0.000145274
0.000111385
0.000119764
9.85839e-05
0.000106906
0.000140362
0.000317551
0.000105843
0.018355
0.000206879
0.0167623
0.000262129
0.000349898
0.000142693
0.000158861
0.037144
0.000112141
0.000104214
0.00264013
0.0570029
0.0131906
0.0098312
0.0220603
9.7486e-05
0.000124455
0.000133317
0.000102859
0.000172999
0.000161111
0.000121308
0.016847
0.000128792
0.0406581
0.000199382
0.0201411
9.35514e-05
0.000103031
0.000112018
9.48234e-05
0.000126479
9.94328e-05
0.0877532
0.0127589
0.0132943
9.38847e-05
0.00357361
0.0420684
0.0223534
0.000108284
0.0182796
9.0938e-05
0.000131163
0.00017132
0.000114887
0.0458079
0.000113143
0.000292211
0.000118349
0.0168684
0.000124288
0.000115395
0.000108101
0.0160138
0.000118596
0.0183558
0.000282908
0.000116642
0.0228767
0.0484953
0.00012146
0.00893131
0.000125655
0.0001204
0.000100875
0.0723765
0.000112877
0.000106593
0.000101182
0.000789768