/*--------------------------------*- C++ -*----------------------------------*\
| =========                 |                                                 |
| \\      /  F ield         | OpenFOAM: The Open Source CFD Toolbox           |
|  \\    /   O peration     | Version:  v2012                                 |
|   \\  /    A nd           | Website:  www.openfoam.com                      |
|    \\/     M anipulation  |                                                 |
\*---------------------------------------------------------------------------*/
FoamFile
{
    version     2.0;
    format      ascii;
    class       volScalarField;
    location    "300";
    object      k_0;
}
// * * * * * * * * * * * * * * * * * * * * * * * * * * * * * * * * * * * * * //

dimensions      [0 2 -2 0 0 0 0];


internalField   nonuniform List<scalar> 
18232
(
0.0120262
9.08967e-05
0.000103136
0.000109645
0.000115445
0.000256513
0.00011083
0.000134424
0.000114149
0.000114417
0.000108683
0.0001054
0.000110888
0.0109028
0.000109153
0.00268607
0.000124455
0.00014127
0.000110896
0.00015104
0.000481978
0.000104734
0.0001088
0.00010151
0.000108173
0.000108375
0.000104169
0.000255414
0.000141782
0.000103517
0.000147551
0.0422371
0.000130564
0.0504247
0.0307176
0.000265799
0.0119918
0.000133712
0.0168044
0.000147182
0.0297556
0.000101432
0.000124876
0.0168199
0.000115603
0.0201284
9.03233e-05
0.000101555
0.000167091
9.24101e-05
0.000121688
0.000138775
0.0254931
0.000101037
0.000112523
0.000172204
0.000125285
0.000126053
0.0898539
9.2705e-05
0.000108988
0.000114845
0.000101897
0.000109842
0.000120057
9.57866e-05
0.0203789
0.0441606
0.000103962
0.000102199
0.000124828
0.000109089
0.0418205
0.00305993
0.000115637
0.000935123
0.000104119
0.000109223
0.0134141
0.000106163
0.0459936
0.000113271
0.000101756
9.95375e-05
0.0224562
0.000171527
0.00010454
0.000111038
0.000112466
0.000109077
0.000111421
0.000103487
0.000146038
0.000164285
0.000111682
0.000102229
0.000115197
0.00010584
0.0126786
9.90932e-05
0.000112972
0.000100671
0.00357756
0.00011489
0.000240071
0.000106281
0.000103685
0.000150313
0.000138188
0.000101768
9.59395e-05
0.00128676
9.32081e-05
0.000111095
0.000122119
9.90962e-05
0.000112868
0.021026
0.000108714
9.89633e-05
0.000123137
0.000133205
0.00438928
0.000368302
0.0102668
0.000123037
0.000181477
9.45116e-05
0.000443491
0.00129121
0.00010257
0.000105093
0.000108685
9.32085e-05
0.0290157
0.000749355
0.000172844
0.000143872
9.23536e-05
0.0181642
0.000111516
0.000106401
0.0648449
0.000115964
0.000106837
0.000105684
0.000108383
0.000147905
0.0289385
0.000138615
0.0114478
0.000101239
0.000115375
0.000103993
0.000108462
0.0336852
0.000321273
0.000118696
0.000237623
9.25567e-05
9.11197e-05
9.29585e-05
0.00010388
0.0229075
0.038202
0.000116854
0.000130656
0.0647118
0.000107868
0.0224262
0.000101799
0.000135349
0.000102858
0.000104797
0.00010694
0.0117326
9.94347e-05
0.000147689
0.0292074
0.00012323
0.00015598
0.0164475
0.000109592
0.00354719
0.0104807
0.000149294
9.82394e-05
0.0253962
0.000146196
0.0249399
0.000107245
0.000109114
0.000114364
0.0261532
0.00011649
0.000104482
9.30859e-05
0.000109524
0.000100351
9.8892e-05
0.000147608
0.000100986
0.00011394
0.000784699
0.000145386
0.0319169
0.000651428
0.0449755
0.000138339
0.000104112
0.000102492
0.000108447
0.000112276
0.00755552
0.0040322
0.000100985
0.000116562
0.000103255
0.000104073
0.000106126
0.0283754
9.29049e-05
0.0514366
0.000101755
0.000100102
0.000102053
0.000141472
0.000101313
0.000123693
0.000132837
0.000114907
0.000107964
0.0652124
0.000290259
0.000130251
0.0209363
0.00010978
0.000216541
9.21112e-05
0.000136413
0.000114759
0.0134916
0.000215217
0.000111964
0.0150504
0.0242198
0.000145839
0.0696577
0.039549
0.000103907
0.000183281
0.000183126
9.79896e-05
0.000137847
0.00010481
0.00221701
0.00204609
0.0525655
0.0163136
0.00016031
0.000100003
0.000100883
0.00014209
0.000147037
9.62966e-05
0.000144466
0.0177667
0.000233041
0.00018179
0.000485185
0.000105165
0.054932
0.000176742
0.000109254
9.78296e-05
0.0254428
0.00010107
0.000109883
0.000135253
0.0102822
0.0186471
9.90801e-05
9.28549e-05
0.0223066
0.000177517
0.000109936
0.000106113
0.0188899
0.000102589
0.000111589
0.000108763
0.000104254
0.0268077
0.000105856
0.000101493
0.000469566
0.0227011
9.22061e-05
0.000114682
0.00010264
9.54552e-05
0.000138498
0.0284834
0.000181385
0.0001396
0.000125819
0.00012195
9.82444e-05
0.000125431
0.0249394
0.000112208
0.000121617
0.000140077
0.000104249
9.2893e-05
0.000106845
0.0234944
9.37956e-05
0.0193316
0.000123575
0.0108451
9.92217e-05
0.000117955
0.000571163
0.000111437
9.61709e-05
0.000150194
9.92339e-05
9.80553e-05
0.000102556
0.000100745
0.000112797
0.000117044
0.0748964
0.000155089
0.0344183
0.000525051
0.0376414
0.000104282
0.000103539
0.000133468
0.000496607
0.000146728
9.14369e-05
9.42541e-05
0.000144036
0.0227537
0.000105597
0.00012188
0.000109854
0.00289707
0.000111105
0.000111179
9.66503e-05
0.00010411
0.000106169
0.000172517
0.0207802
0.000131888
0.000122558
0.000924541
0.000122183
0.0812234
0.000109711
0.0172766
0.000107214
0.000128834
0.0199819
0.000106147
0.0369915
0.000401661
0.00029618
9.1237e-05
0.046285
9.89691e-05
9.93797e-05
9.32429e-05
0.000109456
0.0019263
0.0101366
0.000106974
0.000104019
0.000147653
0.000106545
0.043108
9.76417e-05
0.000113366
0.000108786
0.000115644
0.000102701
0.000113888
0.000148211
0.0292739
9.7922e-05
0.0124488
0.000103868
0.00236615
0.000109916
0.000949863
0.000110367
0.000320644
0.00348589
0.000135182
0.088453
0.000103925
0.000132366
0.000107817
0.000137647
0.000121943
0.000219995
0.0108422
0.0565158
9.81459e-05
9.93457e-05
0.0108918
0.000181841
0.000118748
0.000144147
0.0181548
0.000109296
0.000103453
0.000133795
0.000106629
9.91506e-05
0.0133989
0.000130707
0.000115716
0.000106003
0.000128875
0.000149558
9.47832e-05
0.000166999
0.0232147
0.000110053
0.000116054
0.000122772
0.000123093
0.000132383
9.38512e-05
0.00011
0.000112931
0.000162878
0.0300164
0.000119794
9.85079e-05
0.000118271
0.000105744
0.000106533
0.000113339
0.000125826
0.0298737
0.000105622
9.38428e-05
0.000121865
0.00155442
0.000108636
0.0415332
0.000144866
0.000169575
0.00010634
9.91161e-05
0.000200976
0.000105578
0.00094501
9.99703e-05
0.000116678
9.91961e-05
0.000104413
0.00011029
0.000106493
0.00011909
0.0271031
0.000133196
0.000183522
0.000150004
0.000131781
9.34284e-05
0.000297209
0.0319936
9.99796e-05
0.000140633
9.44455e-05
0.000123003
0.000106866
0.000144702
0.000119818
9.87797e-05
0.000100114
0.0198593
9.75981e-05
0.000125462
0.0002395
0.000108187
9.93541e-05
0.000130198
0.000128642
9.98816e-05
0.000370873
0.00228945
0.000125921
0.00011032
9.62698e-05
0.000107879
0.000207293
0.0231228
0.000156432
0.000117351
0.000102876
0.000111327
9.85301e-05
0.02137
0.000105405
9.95114e-05
0.0127118
9.52899e-05
0.000117166
0.000113563
0.000124397
9.89287e-05
9.79432e-05
0.00010796
9.61307e-05
0.00010797
0.0727491
0.0176733
9.81879e-05
9.63376e-05
0.000116218
0.000101816
0.0207667
0.000126238
0.000167698
0.000215397
0.000130449
0.0360805
0.000110484
0.00112954
0.000115845
0.0319662
0.000194428
0.000108987
0.000113348
0.000111019
9.41757e-05
0.000126901
0.000164735
0.0162318
0.000108442
0.000108166
0.00015163
0.000120149
9.85015e-05
9.88095e-05
0.0001249
0.0200454
0.0249091
9.67582e-05
9.38016e-05
0.000116472
0.00105948
0.0230609
0.000147622
0.000192965
0.000139897
0.000634554
0.00012004
9.97952e-05
0.00284021
0.00166637
0.000143097
0.000124423
0.000109323
0.0132805
9.88021e-05
9.78408e-05
9.37265e-05
0.0813697
0.0001082
0.0203256
0.000104655
0.0273557
0.000116417
0.0204049
0.000118136
0.000112428
0.00012685
0.000116602
0.000101517
0.00945583
0.0181121
9.84001e-05
0.00012795
0.000213471
0.000104988
0.0598363
0.000103742
9.40022e-05
0.0443109
0.0278938
0.000102776
0.000103574
0.000100071
0.0627246
0.000116938
9.20405e-05
0.000111306
0.000126787
0.0152059
0.000128409
0.00011949
9.29953e-05
9.89151e-05
0.000108735
0.000134238
0.000109724
0.000123493
0.00010496
0.0291887
0.00012356
0.000115339
0.000104597
0.000140327
0.00580267
0.01551
0.000104404
0.000147502
0.000137523
0.0528108
0.00010215
9.87273e-05
0.00011828
0.000109804
0.0001302
0.000109836
0.016679
0.0311729
0.0401231
0.0162385
0.0273346
0.000101067
0.000178972
0.00069512
0.000147254
0.000486272
9.85148e-05
0.000117436
0.000113631
0.0536682
9.70582e-05
0.00010675
0.0311051
9.23044e-05
9.96886e-05
9.38417e-05
0.0129019
0.000144347
0.00010481
0.000417444
0.000107247
0.00269792
9.62669e-05
0.000103091
9.56762e-05
0.000106494
9.92891e-05
0.000120445
0.000135565
0.000102752
9.88742e-05
9.33909e-05
0.000114061
0.0335374
0.0139221
0.000105225
0.0136578
0.000133488
0.0160604
0.000132144
0.000125007
0.0579583
0.000104274
0.000108099
0.0227308
0.000130499
9.70545e-05
0.0127233
0.000296621
0.000109656
0.000102691
0.033437
0.000107221
0.000111706
0.00547664
0.0206824
0.000116775
0.000135552
0.0205131
0.000109618
0.00010052
0.0943988
0.000137433
0.0254872
0.000108781
0.0764936
0.00010213
0.000114955
0.0123498
0.000136595
0.000122646
0.000109043
0.0622662
0.000239367
0.000125263
0.0127266
0.000146465
0.000102507
0.000102904
0.0158142
0.000105567
0.000130394
0.000111774
9.761e-05
0.000112511
0.0422759
0.000146724
0.0261653
0.000147016
0.000351728
0.000138181
0.000136552
0.00010289
0.000104277
0.000102298
0.000107089
0.000109948
0.000147045
0.00938324
0.000109992
0.000113745
0.0113298
0.000101436
0.0260727
9.76152e-05
0.000416156
0.0558483
9.45429e-05
0.0632998
0.000126624
0.0755865
0.000431298
0.0119809
0.000113828
9.86077e-05
9.25934e-05
0.000171196
0.0339127
0.000343976
9.31644e-05
0.000139562
0.0218623
0.051986
0.000418561
0.000113137
0.000244369
0.000102964
0.000103418
0.045829
0.000111468
0.0647628
0.000104046
9.96505e-05
0.0467937
0.0336593
9.85137e-05
0.000112687
0.000108088
0.012534
0.000102931
9.78981e-05
0.000106495
0.000182519
0.000154104
9.4014e-05
0.000148185
0.000139466
0.000146571
0.0637157
0.000128957
0.0250953
0.00909089
0.000129394
0.000152856
0.0127484
0.000105736
0.000102351
0.000116027
0.0138871
9.57803e-05
0.000100832
0.0292249
0.000109754
0.0117099
0.000112159
0.000139857
0.000105132
0.000116833
0.000116133
0.0682522
0.000110072
9.78011e-05
0.0105952
0.000104281
0.108096
0.0214474
0.000224641
0.00425603
0.000386898
0.000109436
0.000112155
0.000165358
0.0289724
0.000111951
0.000103288
0.00477189
9.40931e-05
9.82854e-05
0.000107486
0.0303445
0.000104397
0.00365191
0.000130869
0.000115629
0.0088388
0.000118114
0.0541843
9.34281e-05
9.87886e-05
0.000108411
0.000626031
0.000106909
0.000100841
0.000118064
0.0565244
0.000107145
0.00261089
0.000121495
9.69125e-05
0.000112991
0.000100625
0.000146179
0.000103318
0.000107493
0.0255117
0.0652764
0.00010923
0.00470393
0.00013403
0.000106509
9.95332e-05
0.000139167
9.95358e-05
0.000118889
0.000114874
9.81995e-05
0.000146957
0.000110492
0.000115856
0.000145341
0.097393
0.000154932
0.000140532
0.00011364
0.00352348
0.0330685
9.81593e-05
0.0113489
0.00764095
0.000105353
0.00012718
0.0118606
0.0103424
0.00015657
0.00013502
0.000428131
0.00011111
0.0161864
0.0925326
0.0129627
9.85972e-05
9.66667e-05
0.000870788
0.000130935
0.000147251
0.000114451
0.000136549
0.000325994
0.000100149
0.000128905
9.79024e-05
0.000108175
0.000147693
0.0126044
0.000334803
0.000106637
9.79925e-05
0.060399
9.85078e-05
0.0511614
0.000123913
0.000126702
0.00898529
9.54878e-05
0.000109508
0.000113421
0.000100458
0.000118553
0.000136142
0.030361
0.000126933
0.00013395
9.98663e-05
0.000113675
0.0322462
9.94479e-05
9.83272e-05
9.3266e-05
0.000146919
0.000250266
0.000113232
0.00700915
0.00873493
0.000109393
0.000140103
9.65282e-05
0.000103209
0.000118848
9.1856e-05
0.000147892
0.000174706
0.000108958
9.68886e-05
0.000127123
0.000129038
0.00013948
0.00011784
0.0128563
0.00631121
0.000284685
0.000112927
0.00037439
0.000107146
0.000133633
0.0651535
0.0652015
0.000102864
0.000115316
0.000342863
0.0361889
0.00011308
0.000112574
0.053616
0.0127941
9.78377e-05
0.000114451
9.26222e-05
0.010539
0.000138239
0.000149399
0.00038319
0.0242277
0.0195213
0.000134917
0.000186887
9.31337e-05
9.96167e-05
0.000120675
9.60763e-05
0.000675455
0.000116007
0.0424138
0.000101175
0.00116442
0.0144633
0.000105668
0.000392548
9.25493e-05
0.0001074
0.000119867
0.000134527
0.000145637
0.000113846
0.000102477
0.0117268
0.000101411
0.0274517
0.000129471
0.000109812
0.000110962
0.000128284
0.000108955
0.0100452
0.000117603
0.000161989
0.000111214
0.0141985
0.0164461
0.000635134
0.000171286
0.0119227
0.000128893
0.0413478
0.000100749
9.37175e-05
0.000216003
0.0222777
0.0350525
9.71462e-05
9.68832e-05
0.000448482
0.000146297
0.000556162
0.000102848
0.0135035
9.43426e-05
0.000128524
0.000105576
0.00139824
0.000145864
0.00010262
0.000144636
0.000113601
0.000254106
0.0339009
0.000115063
0.00010441
9.93961e-05
9.61246e-05
0.000105006
9.23959e-05
0.000102755
0.000194198
0.000104121
0.0126566
0.000106555
0.000129367
0.00010109
9.81211e-05
0.056677
0.00010183
0.000109882
0.00568892
0.0328828
0.0431819
0.0822479
0.0729451
0.000103697
0.000112382
0.000146958
0.000104014
0.000112475
0.000321581
0.0207605
0.00021261
0.00011786
0.00011181
0.0390075
0.0215069
0.000122677
9.5824e-05
0.0173386
0.000709099
0.000103837
0.000109685
9.20233e-05
0.000113685
0.000102917
0.0118374
0.000100586
0.0442451
9.32454e-05
0.000105509
0.032567
0.00114565
0.00010392
0.000103988
0.000101091
0.000109848
0.000110806
0.000139997
9.32189e-05
9.49156e-05
0.00010934
0.0149691
0.000126142
0.000112135
0.00196756
0.000101419
0.000111091
9.11875e-05
0.000116671
0.000277444
0.000104775
9.78577e-05
0.000104037
0.000143953
0.000105892
0.000107185
0.000101552
0.000106092
0.000119153
0.000115835
0.0013757
9.54899e-05
9.84225e-05
0.000125666
9.53238e-05
0.00011213
0.0132175
0.000101801
0.0576777
0.000110516
9.8089e-05
0.000128948
0.000134071
0.0485366
9.96715e-05
0.000147528
0.0368105
0.0165019
9.83224e-05
0.000110786
0.000102957
0.0531402
0.000346939
9.47652e-05
9.22097e-05
0.000103993
0.0586774
9.63393e-05
0.0100686
0.0219384
9.30151e-05
0.000110613
0.000148487
0.0589823
0.00010784
0.000116723
0.000131433
0.000163409
0.0317631
0.000111486
0.000252723
0.0324208
0.0428439
0.000124809
0.000147319
0.000908182
0.089347
0.00011775
0.00016741
9.23324e-05
0.00014247
0.000114258
0.000114404
0.000107708
0.0418371
0.000147855
0.000107686
0.00010094
0.000118243
0.00219625
9.80836e-05
0.000172699
9.86924e-05
9.87763e-05
0.00359834
0.000146217
0.000104115
0.000109497
0.00011724
9.54882e-05
0.000110119
0.0133414
0.000173458
0.000135929
0.000105795
0.000308446
9.0784e-05
0.000100998
0.0295829
0.0125864
0.000114806
0.000101182
0.000117509
0.000106745
0.000110742
0.000107521
0.000143446
0.000115079
0.0001034
9.14902e-05
0.000108264
0.000626256
0.107453
0.000145283
0.00161923
9.96921e-05
0.000138995
9.79444e-05
0.000119354
0.000103751
0.000106031
0.0397663
0.000128152
0.000104398
0.00035601
0.000119664
9.47851e-05
0.000107023
0.0686059
0.000111364
0.000108311
9.79336e-05
0.000163715
9.13261e-05
0.000104077
0.00112327
9.92845e-05
0.00013974
9.9104e-05
0.000103315
0.000104062
9.70806e-05
0.000102842
0.0166619
0.000123743
0.000135535
9.48337e-05
0.000101362
9.23526e-05
0.000105949
0.000110136
0.000108622
9.33749e-05
0.000177109
0.028404
0.0144049
9.66996e-05
0.000130696
0.000107363
0.0333928
0.000103888
0.000114132
0.000105555
0.000202023
0.000148693
0.0223581
0.000110464
0.064648
0.0432236
0.0119401
0.101851
0.0729004
0.0001126
0.000113948
0.000110855
0.000121765
9.64455e-05
0.000113965
0.000134513
0.00147981
0.000911775
0.000101089
0.000101033
0.000124976
0.000584812
9.0623e-05
0.000104399
0.0314337
0.000417751
0.0313874
0.000140085
0.000116929
0.0254647
0.092599
9.41891e-05
0.000101651
0.00213415
0.000284747
0.000162464
9.97884e-05
9.64903e-05
0.000112628
0.000146297
0.00010039
0.0917245
0.000127822
0.000136998
0.051824
0.000147804
0.000102253
0.000118237
0.000124448
9.6606e-05
0.000322707
0.000107218
0.000103536
0.000100663
0.0232635
0.000102874
0.000101665
9.37705e-05
0.000155565
0.00116703
0.000109393
0.000106549
0.000105961
0.000273979
0.0163019
0.000100642
0.000111719
0.000147786
0.0194645
9.94785e-05
0.000112631
0.000100085
0.000149522
0.000103888
9.49564e-05
0.000114032
0.0304522
0.004478
0.00236439
0.000109842
0.0163342
0.000129495
0.0201184
0.000124754
0.000130826
9.46461e-05
0.000110288
9.32754e-05
0.049794
9.60947e-05
9.44431e-05
0.000100241
0.000116088
0.0287436
0.000109726
0.000142873
0.000102622
0.000235026
0.000141477
0.000498917
0.000107498
9.63368e-05
0.000158562
0.000473691
0.018835
0.0494379
0.00011226
0.0278217
9.57191e-05
0.000111693
0.000120005
0.00182673
9.14118e-05
0.0990424
0.00208581
0.000123986
0.0616621
0.00010228
0.000101945
0.000103566
0.000174123
0.00012051
0.000136188
0.000106474
0.000125904
9.95844e-05
0.000100538
0.000102811
0.000130502
0.000110338
0.037689
0.0175492
9.55444e-05
0.00841167
0.000860846
0.0632704
0.000104279
0.000122393
0.000112788
9.79777e-05
0.000118247
0.000136535
0.000102949
9.42561e-05
0.000147102
0.000104497
0.000117913
0.000129684
9.41595e-05
0.000103363
0.000100422
0.00010731
0.00014622
9.94832e-05
0.000101017
0.0142103
0.000129111
0.000105297
0.00535979
0.000101925
0.0159222
0.0541473
0.0189627
0.000107784
0.000101884
0.000111441
9.9242e-05
0.000114797
0.00011388
0.000106898
0.000109826
0.0604227
0.000111608
9.36119e-05
0.0319719
0.0309593
0.000105716
0.00054787
0.000163413
0.000100554
0.000138773
0.000302516
0.000108636
0.000101411
0.000129198
0.000114474
0.000107084
0.0152808
9.66623e-05
0.000148801
0.000119023
9.0549e-05
0.0459772
0.000109369
0.000118491
0.000111673
0.0175277
0.000114628
0.000102855
0.0863321
0.000113562
0.000104403
0.0277858
0.000122748
0.00240875
0.000141795
0.00010782
0.00012096
0.000445341
0.109388
0.000132303
0.000146249
9.18835e-05
0.000127448
0.0287929
0.00010642
0.000107458
0.000646161
0.0187918
9.53926e-05
0.000269053
0.000100755
0.000117379
0.000104378
0.0106809
0.0273946
0.000122787
0.00135201
0.0119664
9.92212e-05
0.0136754
0.000103402
0.0357232
0.0577305
0.000113226
0.000120514
0.0401097
0.0167863
0.000107464
0.0455133
0.00144658
0.00584467
0.000114915
0.000115368
0.000109086
0.000872542
0.000147647
9.35019e-05
0.000110153
0.0531213
9.36258e-05
0.0562844
0.000109671
0.000101681
0.000115808
0.0106273
0.0190207
0.000106983
9.91227e-05
0.000905151
0.000103636
0.000104318
9.35467e-05
0.000104373
0.0412367
0.00010676
0.000112363
0.000135902
0.000113161
0.000100656
0.000264177
0.000163187
0.000106058
0.00014057
0.000114462
9.90151e-05
0.000105775
9.95596e-05
0.000110541
9.14732e-05
0.00013987
0.0307427
0.000290059
0.000101162
0.000111516
0.000643343
0.000101522
0.00183421
0.000109897
0.000175199
0.000156785
0.000100154
0.000107013
0.000131191
0.000106062
0.000107039
0.010803
0.0207365
0.000106334
9.17511e-05
0.000107664
0.000110048
0.000106896
0.000107871
0.000277456
0.0390555
9.31844e-05
0.0225365
0.000112773
0.00010588
0.000252321
0.000103437
0.000126692
0.00010117
0.000105804
0.000141043
0.000264033
0.000114675
0.0139734
0.000128322
9.62309e-05
0.0347081
9.75386e-05
0.0262274
0.0723728
0.00132755
9.15386e-05
0.000133423
0.000107836
0.0403541
0.000100525
0.000493639
0.060928
0.00032476
0.00288604
0.000111641
0.000103775
0.000115435
9.92435e-05
9.11809e-05
0.000131804
0.000107231
0.000133681
0.000100579
0.000146287
0.0330138
0.000111565
0.000122385
0.000108134
0.000100869
0.00755457
0.027916
0.000107943
9.62942e-05
0.000117281
0.000857848
0.000100556
0.0655058
0.000106953
0.000131885
0.000114351
0.0157743
0.000100652
0.000116797
0.000142925
0.000113382
0.00359314
9.68277e-05
0.000103385
9.80659e-05
0.000147796
0.00012555
0.000108086
0.000191291
0.000222066
0.000582727
0.000143217
0.000130111
9.66351e-05
0.00013504
0.000105846
0.000118324
0.000116645
0.0224311
0.0628877
0.000103739
0.00711391
0.0111633
0.000111155
0.000127303
0.000110654
0.000123097
0.0395915
0.000138813
0.000108231
0.000294455
0.000125901
0.00438829
0.000159083
0.000114191
9.75393e-05
0.000133937
0.0492543
0.000105634
0.0135879
0.000157619
0.0246104
0.036254
0.000103226
0.0244359
0.000147938
0.00514619
9.32224e-05
0.000702054
0.0597913
9.30458e-05
0.000110233
0.000103001
0.016192
0.000138403
0.000103935
0.000111063
0.000342752
0.000167192
0.00012525
9.93279e-05
9.31046e-05
0.0664656
0.000342565
0.000106816
0.0109596
0.000145894
0.0127421
0.000293403
0.000100843
0.000157688
0.000125829
0.00011378
0.00382262
0.000112244
9.1836e-05
0.000111008
0.000118794
0.000117852
0.000130213
9.89263e-05
9.89476e-05
0.000134053
0.000118774
0.000288788
0.000135117
0.000114287
0.00110685
0.000145665
9.63139e-05
9.76304e-05
0.000320133
9.67065e-05
0.000113856
0.0090195
0.000254446
0.000858081
0.00254
0.000129497
0.000125211
0.0111632
0.000107394
9.78979e-05
0.000392161
0.000100289
9.61445e-05
0.000135275
0.000137718
9.74991e-05
0.000101898
0.000299741
0.000112826
0.000105612
0.000107728
0.0114266
0.000103928
0.000100875
0.0376805
0.000116464
0.000256229
9.11638e-05
0.000519428
0.00174814
0.017185
0.000117147
0.000102905
0.000189936
9.65096e-05
0.000100851
0.0723015
0.000102143
0.000167999
0.000108047
0.00011553
0.000605768
0.000100698
0.00010165
0.0473616
0.000100545
0.000138151
0.000106099
0.0325197
0.0359865
0.000117182
0.000145685
0.000119133
0.000118147
0.000100887
0.000153341
0.033018
0.00014135
0.00011431
0.000339198
0.000100144
9.37351e-05
0.000509211
0.0676994
0.0399216
0.000101238
0.000123067
0.00010118
9.19505e-05
9.80348e-05
0.000130733
0.000414092
0.000108664
0.0164154
0.0143551
0.00012315
0.0433389
0.000109847
0.00010202
0.000107146
0.000525343
0.000111202
0.000100828
0.000870185
0.00177194
0.000149119
0.0001032
0.000336728
0.000100024
0.0108426
0.000102877
0.000108157
0.0522703
0.000103097
0.000243984
0.00010282
0.000147357
0.0444104
0.000451785
0.0133477
0.0126029
0.000105853
9.22604e-05
0.000119699
9.71424e-05
0.000107491
0.0192331
0.000167561
9.57161e-05
0.000106832
0.000121138
0.000101486
0.00038286
0.000181318
9.76082e-05
0.000100456
9.62312e-05
9.99469e-05
0.000427503
0.000106593
0.000454195
0.0162704
0.000107566
0.000187851
0.000123356
0.000319034
0.050006
0.000282873
0.0363425
0.000299539
9.17463e-05
0.0770164
9.73949e-05
0.0392181
0.000276811
0.000106988
0.000120691
0.000104369
0.0230527
0.000110829
9.15267e-05
0.000109935
0.000103954
0.000110418
0.000111206
0.000119149
9.7693e-05
9.76834e-05
0.047459
0.0332884
0.00226511
0.000130093
0.00630676
0.0119116
0.0180773
0.000119147
0.0805628
0.000387949
0.0117943
0.00011192
0.000103819
0.000340752
0.00013358
0.0300379
0.000120554
0.0608046
0.000109963
0.000102677
0.000110224
0.000115804
9.72208e-05
0.000129147
0.00011438
0.0241904
0.000120565
0.000103132
0.000113457
0.00011711
0.000417365
0.000394794
0.000190716
0.011791
0.000440265
0.000118719
0.0392783
0.00704313
0.0396452
0.000126119
0.000104139
0.000102522
0.000147257
0.000125383
0.000101159
0.000311469
9.59892e-05
0.000140283
0.0250157
0.000127075
0.000131065
0.000180295
0.00010821
0.000107299
0.000562987
0.000113897
0.000110945
9.67438e-05
0.000122666
0.000127975
0.0677576
0.0835436
0.0001568
0.000135112
0.0121733
0.0604271
0.00011056
0.0421719
0.00230984
0.000141572
0.000186903
0.000144607
0.0451838
0.000115234
0.000132509
0.0241967
0.0121779
9.23306e-05
0.0136054
0.000142499
9.89165e-05
0.00461247
0.00010141
0.0458881
0.000104472
0.000277976
9.56755e-05
0.000147621
0.000111339
0.000144723
0.000131679
0.00334996
0.000118165
0.102286
0.000118504
0.0160894
0.000499306
0.000140147
9.55535e-05
0.0257392
0.00010956
0.0113458
0.000110555
0.0195667
0.000188296
0.00169805
0.000162279
0.0141949
0.000110964
0.0138969
0.000308614
0.000138093
0.000338951
0.000108771
0.000229926
0.103341
9.1352e-05
0.000107596
0.000109608
0.000112952
0.000484625
0.0326794
0.000146175
0.000191737
0.000105265
0.0536502
0.000114985
0.000121127
9.59181e-05
9.49932e-05
0.0218351
0.000403392
0.00522614
0.000107812
0.000122278
0.00825124
0.00013864
0.000101609
0.000134702
0.000115685
0.000124105
0.000100044
9.02054e-05
9.00996e-05
0.000104544
0.0578574
0.000367637
0.000114216
0.0353273
0.000108617
0.000119441
0.000100305
9.82846e-05
0.0174083
0.000106764
0.0585818
9.94967e-05
0.000177864
0.000136175
9.43332e-05
0.000104882
0.0005332
0.000116315
0.000133585
0.000100705
0.000120622
0.000116472
0.000141364
0.0156175
0.000164558
0.00997653
0.0646593
0.000108218
0.0151422
0.000175783
0.000100205
9.64266e-05
0.000110641
0.00950516
9.24721e-05
0.000119214
0.000105503
0.000101621
0.000116334
0.00743544
0.000110265
9.62981e-05
0.000129546
0.000108093
0.000109136
0.000107316
0.000114303
9.14629e-05
9.05111e-05
0.000117739
0.000105489
0.000101152
0.0199317
0.000103715
0.000481389
0.000140665
0.000119538
0.000103766
0.000101475
9.81625e-05
0.000138132
0.0354702
0.000126073
0.00010726
0.000175394
0.0375824
0.000982136
0.000107453
0.000158388
0.000115179
0.0134921
0.0552214
0.000715467
0.000114757
0.064407
0.000111933
9.82861e-05
0.000199882
0.000108403
0.0467374
0.000120222
0.000101958
0.000104408
0.000103492
0.0249042
0.0200765
0.00010399
9.5096e-05
0.000530511
0.0101896
0.0549944
0.00011961
0.000408293
0.000110662
0.00183489
0.000103131
0.0139652
0.000161928
9.95021e-05
9.08042e-05
0.000167576
0.101478
0.000120416
0.000134169
0.0383756
9.82854e-05
0.000107794
0.000112034
0.000107339
0.000110814
0.0138677
9.16365e-05
0.000108082
0.000116003
0.000111416
0.00128025
0.00011807
0.00202757
0.0206459
0.000135591
0.043954
9.49615e-05
0.0395425
0.000109523
0.000101563
9.63906e-05
0.0620231
9.99096e-05
0.000100421
0.000107467
0.0795755
0.000107197
0.000106748
0.000175995
9.80183e-05
0.000110806
9.02508e-05
9.9231e-05
0.0295342
0.000116275
0.000129455
0.0242196
0.000107039
0.0181901
9.91115e-05
0.000101238
0.0107919
0.000113415
0.000140104
0.000118967
9.64478e-05
0.000147624
0.000101535
0.0210248
9.7729e-05
0.000128239
0.000143349
0.0575433
0.000104835
0.000107841
9.13781e-05
9.58677e-05
0.00011123
0.00011237
0.000107916
0.000526416
0.000141679
0.0576669
0.000167949
9.61752e-05
0.000115275
0.0227979
0.000102376
0.000472088
0.000109194
0.000131257
0.000124052
0.0208488
0.0649753
0.0226407
0.000119951
0.000131649
9.78366e-05
0.0122316
0.000133681
0.000324501
0.000107265
0.000207277
0.000152056
0.0124276
9.55907e-05
0.000102838
0.0181892
0.000109522
0.0222931
0.000173489
0.000122078
0.00010924
0.000102852
0.000111257
0.0235086
0.000109323
0.000132429
0.000130796
0.029219
0.0157162
0.0001108
0.000101653
0.0390544
0.000111336
0.000104911
0.0120758
0.0168958
0.000142603
0.0173778
9.82261e-05
9.3963e-05
0.0111558
0.000253883
0.000192106
9.68927e-05
0.000105976
0.000619076
0.000106534
9.15319e-05
0.000107218
9.24732e-05
0.000142184
0.00010196
0.000959827
0.000115245
0.0656732
0.000143551
0.000117915
0.000124178
0.0182401
0.000167335
0.000129875
0.000133927
0.000106777
9.30524e-05
9.64792e-05
0.000131436
0.0196703
0.00445322
9.26512e-05
0.011169
0.000112063
0.00015393
0.0489031
0.0141024
9.32254e-05
0.00012495
0.0530621
0.0106651
0.00861822
9.22548e-05
0.000107591
0.000487254
9.96389e-05
0.000127104
0.000107364
0.015844
0.001717
0.00163504
9.86749e-05
0.000105443
0.00011588
0.00222793
9.22382e-05
0.000118395
0.0105295
0.010014
0.000127545
9.72132e-05
9.46631e-05
0.000116547
0.000100309
0.000462443
0.000109605
0.0111873
0.000103477
0.0311887
0.000147683
0.000421722
9.74119e-05
0.000110275
0.000162153
0.000110348
0.000114373
9.89573e-05
0.000175822
0.0421144
0.0268089
0.00119773
0.000125223
0.0947689
0.000134265
0.0421723
0.00013219
0.000177207
0.000114593
0.00036516
0.0912684
0.000185728
9.98271e-05
0.0066207
0.0505417
0.000116387
0.00011725
9.07705e-05
0.000101788
0.000552538
0.000103358
0.00010297
0.000103475
0.000177077
0.000101615
0.00014183
0.000134721
0.000105337
0.000139976
0.000263395
9.27863e-05
0.000110321
0.00011202
0.000131141
0.0232587
0.000109027
0.00012411
9.35205e-05
0.000311318
9.72083e-05
0.00034264
0.065183
0.00010006
0.0140387
0.000106791
0.000112931
0.000143642
0.000110451
0.0112269
0.00017994
0.000108562
0.000163914
0.0179095
9.60638e-05
0.00672371
0.00015682
0.000111263
0.000625546
0.0122286
9.78969e-05
0.000100134
0.000121315
0.000133641
0.0375935
0.000130558
0.00010311
0.00016992
0.0271551
0.0138545
0.0589735
0.000104285
9.41923e-05
0.0198004
0.00111893
0.0603236
0.0151409
0.0156758
9.99239e-05
0.000282392
0.000110218
0.000108808
0.0116909
0.093022
0.0305677
0.0498711
0.00019554
0.00765908
9.43183e-05
0.000119525
0.0108705
0.000107271
0.000115606
0.000118142
0.000125874
0.0306036
0.000109871
9.90327e-05
0.0001153
0.0235464
0.000106534
0.000101189
0.000133097
0.000100915
0.0560006
9.18135e-05
9.63982e-05
0.000103479
0.000129719
0.000104122
0.000108014
0.0150466
0.000658809
0.000415581
0.0352944
0.0656875
0.0099148
0.000203162
0.0811263
0.000118423
0.0123258
0.017239
0.000153036
9.31365e-05
9.23435e-05
0.000111602
0.000153273
0.000100691
0.000114979
0.000108748
0.000404822
0.000214038
0.0226873
0.00010648
0.000368151
0.00893077
0.000125763
9.0551e-05
0.000101321
0.00022438
0.025414
0.000110394
0.0633579
0.000109682
0.000113216
0.0285804
0.0161222
0.000237477
0.000100597
9.57899e-05
9.66823e-05
0.000265675
0.000141423
0.000109956
0.000137871
0.000104032
0.000112728
0.000149758
0.000108036
9.54679e-05
0.0466033
0.000115905
0.000112359
0.000107141
0.0112777
0.00015193
0.0218225
0.000107801
0.000115815
0.000101263
9.67872e-05
0.000115642
9.64609e-05
0.000101142
0.000145264
0.000111377
0.000119744
9.85839e-05
0.000106906
0.000140363
0.000317174
0.000105842
0.0183585
0.000206972
0.0167645
0.000262153
0.000349851
0.000142698
0.000158871
0.037144
0.000112141
0.000104214
0.00264099
0.0569965
0.0131918
0.00983428
0.0220625
9.74851e-05
0.000124454
0.000133317
0.000102859
0.000173006
0.000161119
0.000121308
0.0168493
0.000128791
0.0406825
0.00019937
0.0201442
9.35515e-05
0.000103029
0.000112018
9.48237e-05
0.000126477
9.94329e-05
0.0877378
0.0127608
0.0132957
9.38847e-05
0.00357543
0.0420628
0.0223569
0.000108284
0.0182803
9.09381e-05
0.000131163
0.000171328
0.000114887
0.0458056
0.000113143
0.000292174
0.000118349
0.016859
0.000124288
0.000115395
0.000108102
0.0160159
0.000118596
0.0183485
0.000282981
0.000116642
0.0228795
0.0484981
0.00012146
0.00892655
0.000125655
0.00012038
0.000100875
0.0723649
0.000112871