/*--------------------------------*- C++ -*----------------------------------*\
| =========                 |                                                 |
| \\      /  F ield         | OpenFOAM: The Open Source CFD Toolbox           |
|  \\    /   O peration     | Version:  v2012                                 |
|   \\  /    A nd           | Website:  www.openfoam.com                      |
|    \\/     M anipulation  |                                                 |
\*---------------------------------------------------------------------------*/
FoamFile
{
    version     2.0;
    format      ascii;
    class       volScalarField;
    location    "300";
    object      p;
}
// * * * * * * * * * * * * * * * * * * * * * * * * * * * * * * * * * * * * * //

dimensions      [0 2 -2 0 0 0 0];


internalField   nonuniform List<scalar> 
18232
(
-0.341882
-0.0156981
0.0248414
0.0631419
0.0446256
-0.00796546
0.063513
0.0384881
0.0514099
0.0454571
0.0612558
-0.10155
0.0421835
-0.220212
0.139117
-0.249998
0.0323295
0.0358917
0.0519773
-0.0277954
-0.0132477
0.0498125
0.0602108
0.0347492
0.140894
0.143979
0.0292238
-0.00885952
0.0357816
0.0254792
0.0387838
-0.372493
0.0419655
-0.302224
-0.0285497
-0.0176779
-0.116699
0.0398699
-0.107474
0.0385188
-0.345219
-0.0867397
0.0255208
-0.0630613
0.031479
-0.0549976
-0.00446843
-0.089114
-0.0489982
0.0019832
0.0472583
0.0342079
-0.341269
-0.0695869
-0.0247004
-0.0872034
0.0417038
0.0437322
-0.177598
-0.0033261
0.141357
0.0314714
0.0365686
0.0627254
-0.120152
-0.00470911
-0.370121
-0.370769
0.0285638
0.0379796
0.0419341
0.0289245
-0.374769
-0.0328669
-0.131586
-0.0987525
0.0667826
0.0791194
-0.027528
0.0574221
-0.370816
-0.102854
-0.0779895
0.0206226
-0.0551379
-0.0890366
0.0265058
0.0518165
-0.103364
-0.0731824
0.052739
0.0282014
0.0388757
-0.0942086
0.0525486
0.0399288
0.0432918
0.0520453
-0.0529813
0.0184778
0.170894
-0.0695352
-0.0685417
0.142644
-0.0165877
0.110109
0.0258589
-0.145539
0.0340293
0.0359272
-0.0036089
-0.107499
0.0031941
0.0623659
0.0467897
-0.0110909
-0.107557
-0.0540561
-0.0457186
-0.014741
0.0407227
0.0399311
0.394804
-0.0156588
-0.319434
0.0262684
-0.205859
0.0145375
-0.0121566
-0.109363
0.0247675
0.0523755
-0.0468288
0.00957593
-0.342054
-0.100255
-0.0481685
0.039316
-0.00467045
-0.0902954
-0.0248311
0.111497
-0.339898
0.0451254
-0.00699753
0.0317481
0.137728
0.0395508
-0.0355932
0.0124889
0.48401
-0.0849273
-0.104331
0.0652328
-0.0711101
-0.34554
-0.199911
-0.116747
0.306928
-0.00431658
-0.0154092
0.0095578
0.0290567
-0.371021
-0.0330952
0.0551717
0.159235
-0.338884
0.103889
-0.0194739
0.0255686
0.0385136
0.0250672
0.0512971
0.0720398
-0.0436351
0.0200313
0.0378299
-0.0276252
0.0468346
-0.0159344
-0.107994
0.0293189
-0.0697981
-0.372526
0.0395403
0.0139564
-0.0576105
0.0385758
-0.0219426
0.112681
0.0403073
0.0481627
-0.043307
0.0446231
0.0444486
0.00349718
0.0695795
0.0203659
0.0185005
0.0365968
-0.00849329
0.183128
0.279444
-0.143958
0.528946
-0.00940347
-0.391518
0.0166146
-0.0481855
0.0270806
0.138893
0.166477
-0.0430693
-0.265191
-0.00688733
-0.106312
0.0280928
0.0263748
0.0524478
-0.0337881
-0.00297982
0.479205
0.0412629
0.0200462
0.0253083
0.0137913
0.0331189
0.0465114
0.0398727
0.0571386
0.102054
-0.334503
-0.202087
0.0422856
-0.0602754
0.0812685
-0.218832
0.00124244
0.0340135
0.0578112
-0.181763
-0.221497
0.12975
-0.0669466
-0.0216146
0.0344826
-0.113085
-0.0270243
0.0716737
-0.102425
-0.0847906
0.0154406
0.0186613
0.0435205
0.449723
-0.0220566
0.466792
-0.0488254
-0.0155019
0.023083
-0.0681157
0.00486254
0.0377418
0.0115586
0.0350614
-0.0495779
0.308006
-0.0868988
-0.0384019
0.0538459
-0.307699
0.0327707
0.0267561
0.0146529
-0.0201399
-0.0753069
0.0771403
0.0340333
-0.332908
-0.0443964
-0.0134906
-0.00821932
-0.0323063
-0.0502575
0.0807434
-0.00969938
-0.0556398
0.043425
-0.104723
0.0399709
-0.0738997
-0.0238578
-0.104457
-0.0873943
-0.0393043
-0.0331285
-0.0072846
0.0312163
0.0480624
-0.0306921
0.0341039
-0.0247796
-0.0988843
0.0341695
0.0441688
-0.142395
-0.0550346
0.0324955
-0.0415033
0.12698
0.0413803
-0.164582
0.0639344
-0.00908011
-0.0089953
-0.0272642
0.011163
-0.0604821
0.0456402
-0.192339
-0.0100493
-0.136008
0.384789
0.170229
-0.00122533
-0.184321
-0.0075475
-0.0698135
0.0411297
-0.0656169
0.046202
-0.0923523
0.320467
-0.0327764
-0.342616
-0.0289902
-0.0709608
0.0287506
-0.0469164
0.0395426
-0.00335984
0.0345146
0.0138729
0.0115513
-0.120996
-0.366347
-0.00917502
-0.144975
0.0813958
-0.172461
0.164752
0.167626
0.0119197
-0.0681233
-0.00104652
-0.0941941
-0.361738
0.0395218
0.0416761
-0.0154329
0.0239168
-0.18533
0.0819338
-0.34133
0.114842
0.143103
-0.364573
0.107593
-0.0642507
-0.0203564
-0.025874
-0.0161587
-0.316606
0.0185908
0.019329
-0.00167594
0.0270035
-0.242084
-0.337459
0.0349619
-0.0714672
0.0394595
0.0613805
-0.0270053
-0.0683585
0.0643613
0.0269224
0.0566079
0.0186538
-0.0331645
0.255316
-0.0358319
-0.0704867
-0.15205
0.0720156
0.399526
0.0294532
0.268642
0.0274865
-0.0266286
-0.26368
-0.163885
0.283538
-0.0683423
0.0393855
-0.00515051
0.0341822
0.0475204
-0.00872108
-0.188443
-0.315445
-0.0528619
-0.006515
-0.213467
-0.0189581
0.0371419
0.0371163
-0.0894111
0.0702685
0.0150712
0.206331
-0.106648
0.0185664
-0.181996
-0.0934563
-0.132613
-0.105221
0.147343
-0.0286584
0.0124655
-0.0465475
-0.360996
0.0757104
-0.0898068
0.0419612
0.0459878
0.0398949
-0.0375193
0.0637189
0.177918
-0.100543
-0.0227707
0.00886927
0.0147317
0.0110321
0.0959832
0.0584861
-0.124573
0.157001
-0.0293209
0.0690639
0.0137423
0.0416718
-0.0221312
0.0368438
-0.320544
0.0371863
0.0335367
0.0319163
0.0186385
0.006381
0.0933776
-0.128386
0.0202597
0.0560247
0.0191556
0.0696205
0.0445096
0.0346473
0.0371103
-0.0289972
-0.0850849
-0.200662
0.260016
0.0780527
-0.00589168
-0.0489862
-0.342059
0.0214397
0.00845359
-0.0405695
0.0404561
-0.109297
0.0393887
0.0545811
0.00554612
0.0240154
-0.0549176
-0.0692817
0.038377
-0.00969413
0.037337
-0.004243
0.0458655
-0.0905839
0.0199443
-0.0210656
-0.0670734
0.0326372
0.0633466
-0.0151616
0.101921
0.0025347
-0.36315
-0.0140939
0.0491599
0.0465374
0.0297402
0.0169712
-0.0583297
0.0702271
-0.00309784
-0.11674
0.01521
0.0495072
0.0635224
-0.0303608
0.0156573
0.0150859
0.100044
-0.0024075
0.124359
-0.080588
-0.363214
0.0148569
0.0113921
0.0421224
0.0405168
-0.363696
0.0392031
-0.200148
0.00280222
0.0436383
-0.375773
0.029843
-0.113589
0.0424769
-0.063044
-0.103315
0.0806407
-0.0318148
0.0294776
0.0141849
0.0327777
0.0677612
-0.045604
-0.0429633
0.0356995
-0.0310996
0.0242444
0.0178386
0.0146359
0.0386065
-0.0329516
-0.343588
0.00764714
-0.0260411
0.0565026
-0.116228
-0.0227697
0.0347621
0.231145
0.037374
-0.126612
0.0310511
0.0198549
-0.175559
0.441602
0.00942531
0.0453716
0.0495757
-0.0919001
0.00693524
0.0154222
-0.00567737
-0.131023
0.139609
-0.0371222
0.0294917
-0.0197494
0.0436152
-0.0213432
-0.0968187
0.0283196
-0.0304421
0.0431715
-0.0879695
-0.345799
-0.37167
0.0177647
0.0341702
0.00628739
0.0270687
0.452063
0.043819
-0.0381686
-0.324906
-0.0348745
0.0504122
0.0426948
0.0203195
-0.332889
-0.0944933
0.00804028
0.107838
0.0392132
-0.0207151
0.0342805
0.0507122
0.00243937
0.0174035
-0.042062
0.181824
0.111178
0.0333028
0.0296231
-0.0327868
0.0331575
0.0572729
0.0358833
0.0373141
0.323534
-0.0915283
-0.0472387
-0.0261387
0.0213327
-0.336795
0.0477228
0.0162959
0.0491762
0.0507874
0.0403063
0.0269923
-0.108086
-0.0246476
-0.0323414
-0.0523233
-0.0211377
-0.0827829
-0.0969361
-0.0703792
0.0347121
-0.0702041
0.0157966
0.0153901
-0.106868
-0.336063
-0.0241977
0.0616406
-0.025399
-0.010066
0.00250814
-0.0246601
-0.150579
0.00147621
0.0366069
0.00252938
-0.107624
-0.0490997
-0.0167551
0.0286122
-0.0219606
-0.107296
0.0189203
-0.141704
0.204974
0.0246555
0.016917
-0.000788914
0.0294147
-0.02166
-0.102813
0.0462402
-0.0965044
0.0367532
-0.0906299
-0.156663
0.0455955
-0.332855
0.0671829
0.137035
-0.34991
0.0401994
-0.0223904
-0.217104
0.327134
0.0517237
0.0227125
0.522883
0.0680305
0.0339476
-0.0806507
-0.0585377
0.193377
0.0235539
-0.0276812
0.150571
-0.0834813
-0.150438
-0.103515
-0.34968
-0.0692492
-0.118583
-0.0777078
0.0427436
-0.368222
0.0339721
0.0328116
0.0305472
-0.333391
0.203387
0.0445026
-0.215968
0.0395219
-0.0863512
-0.0161187
-0.367337
-0.100968
0.0392828
0.0607105
0.0154512
0.0466687
-0.34189
-0.126578
-0.0354454
0.0364593
-0.0500551
0.0340981
0.0339747
0.0208907
0.0263349
0.0471165
0.120764
0.134487
0.0371577
-0.341247
0.0273496
0.172844
-0.374017
-0.085373
-0.343517
0.0154248
-0.0281112
-0.343837
0.0120246
-0.0815683
0.0533125
-0.107355
-0.143914
-0.133166
0.0292254
0.00372899
-0.00867694
-0.0341377
-0.0200532
-0.0162044
-0.00753271
0.0400253
-0.022837
-0.351295
-0.015969
0.028569
0.196577
0.0249724
-0.0522224
-0.34201
0.168061
-0.326959
0.0586431
0.00408693
-0.390662
0.53242
0.00249529
0.0342218
-0.0668243
-0.228257
-0.0142465
0.0171272
-0.108301
-0.197012
0.110267
-0.0230536
-0.119847
0.0376032
0.0371603
0.369125
0.0817014
-0.0234387
0.456524
-0.0409658
-0.0215312
-0.11328
0.0483133
0.0308899
0.0522716
-0.133667
-0.00580915
-0.0843543
-0.0326083
0.130698
-0.255393
0.0342811
0.0375397
0.0456399
0.189487
0.0570377
0.414223
-0.0194423
0.00256459
-0.266236
-0.0883203
-0.346504
-0.371269
0.17818
-0.0795199
-0.0363837
0.0779628
0.0284627
-0.0328582
-0.363795
0.0701183
-0.0482717
0.379907
-0.0230768
-0.000724027
0.05972
-0.371964
0.0413134
-0.0334469
-0.0832809
0.0434368
-0.328721
0.19911
-0.0501931
-0.00719316
0.0180831
0.0305544
-0.0950085
0.0252135
-0.0781252
0.0416062
-0.334705
0.0709031
-0.2524
-0.144572
-0.025346
0.029552
0.0299953
0.00261212
0.0319105
0.0962888
0.159119
-0.32354
0.141582
-0.0348358
0.0388087
0.0287386
-0.000814653
0.0401293
0.000587432
0.0131185
0.145854
-0.0503867
0.0389533
0.111392
0.189839
0.0395366
-0.158893
-0.106735
0.0355845
0.0295729
-0.0353578
-0.0241878
0.0176045
-0.275622
-0.127808
0.0303687
0.0339859
-0.340714
0.307767
-0.0995518
-0.160573
-0.14213
0.0597133
-0.106761
-0.13672
-0.0364481
-0.0270973
-0.0289058
-0.0213852
-0.0398577
0.0390976
-0.12811
-0.160765
-0.0277484
0.020323
0.0432838
0.00352572
0.0362205
0.0390039
-0.102314
-0.064585
0.0249941
0.0171905
-0.0562682
0.000453538
-0.381581
0.0456948
0.0436587
-0.129612
-0.0243997
0.0196089
0.0645765
0.0206434
0.0305751
0.033924
-0.347284
0.0338888
0.0386215
0.0199725
0.0486701
-0.341954
0.0195806
-0.0506568
0.00426405
-0.101127
0.224479
0.0654856
-0.0242929
-0.325843
0.0310167
0.0398579
-0.0315096
0.031267
0.0307408
0.0141187
0.0391736
-0.0240614
0.0191781
-0.026984
-0.0576521
-0.0791195
0.0399645
0.049469
-0.353981
-0.310031
0.317683
0.0714753
-0.0176567
0.0635648
0.0389268
-0.329794
-0.321707
0.0126678
0.0347564
0.349159
-0.020969
0.0346053
0.136622
-0.351206
-0.0973833
-0.0678271
0.137952
-0.033879
-0.0332749
0.0341592
0.034455
-0.0654017
-0.368397
-0.371982
-0.119562
0.26097
-0.00878904
0.0195504
0.0312895
-0.0508978
-0.0213217
0.0345866
-0.390786
0.035181
-0.0323008
-0.342436
0.0304457
0.355495
-0.00979412
0.0953721
0.0309352
0.0791078
0.0351038
0.048347
0.0295049
-0.274225
0.0197706
-0.022136
0.0345807
0.0823433
-0.0210567
-0.0378771
0.107291
-0.314722
0.191107
-0.0963606
0.0604556
-0.149729
-0.11325
0.000269324
0.252704
-0.228584
0.0344621
-0.389577
-0.0753447
0.00547725
-0.00111975
-0.0567562
-0.346913
-0.00477389
-0.0285375
-0.0370578
0.036717
0.209047
0.0272309
-0.0318908
0.014146
-0.0592365
0.0890713
-0.112611
0.0371034
0.0448384
0.00572799
0.0639488
0.217025
-0.374896
0.0303984
0.0422118
0.0191426
-0.0491212
-0.0906202
-0.0321807
0.0515555
0.239128
0.0616575
-0.0454496
-0.00293779
0.0995278
0.0346106
0.00606958
-0.339365
-0.0906157
0.0310293
-0.0238193
-0.0247884
-0.387357
-0.15787
-0.129458
-0.0599572
0.0283455
0.0386547
0.0650748
0.0441298
-0.0283826
-0.371914
0.159866
0.0343976
0.0425413
-0.375718
-0.051181
0.0329521
-0.0205444
-0.0522948
0.205571
-0.06396
0.0509295
-0.00747328
0.0636211
0.0248921
-0.0502412
0.0213548
-0.393606
-0.000266135
0.0476531
-0.355199
-0.185994
0.0577244
0.0229304
-0.00474674
-0.0903962
-0.105794
-0.171093
-0.00324246
0.00514183
0.0504964
-0.347343
0.0796427
0.111637
0.385832
0.0373665
0.032262
-0.00580452
0.0198369
-0.219259
0.0259818
-0.0664112
0.067987
0.0351006
0.0247561
0.0293353
0.0222719
0.0250264
-0.115083
0.0452592
-0.0994728
-0.0289357
-0.0460761
0.107849
-0.0308257
0.0445407
-0.356158
0.0380089
-0.0698174
0.0732601
-0.00402767
-0.0351201
0.0400121
-0.0525025
0.0203502
-0.000613477
-0.374703
-0.110294
-0.0438685
0.166175
0.0224689
-0.336303
-0.0869143
0.00461874
-0.00560212
0.039175
-0.335037
-0.0448888
-0.339301
-0.0310688
-0.00365202
0.0673803
0.0380364
-0.331825
-0.11073
-0.132404
-0.0812235
0.0626226
0.534925
0.0618586
-0.0158762
-0.373772
-0.0181025
0.0448776
0.0376309
-0.0324696
-0.121852
-0.135545
-0.0229182
-0.00630122
-0.0982842
0.0351889
0.0354894
-0.00673655
-0.331295
0.0381392
0.0296978
0.0214264
0.0346491
-0.176784
0.0175227
-0.0516659
0.0180761
-0.0280935
-0.0307998
0.0371885
0.0259281
-0.0876934
0.054841
-0.0260134
0.123375
-0.369462
0.226535
0.0391686
-0.098247
0.0765212
0.0106526
-0.00302396
-0.0277435
-0.224203
-0.105449
-0.0781244
0.0220869
0.079948
0.0650402
0.0272
0.0393907
0.029468
0.0131259
-0.00825131
0.106868
0.272831
-0.359799
0.0344555
-0.219508
0.020115
0.0393507
-0.0699368
0.0367203
-0.0780503
0.0399615
0.138622
-0.0337749
0.0487026
0.364203
-0.0191931
-0.0519529
0.069358
-0.0665024
0.0586242
0.0272352
-0.0683662
-0.0171559
-0.00504483
0.0400985
-0.0485715
0.0193569
0.0402269
0.0183594
0.0500396
-0.0662369
0.0178483
0.0167923
-0.340429
0.103963
0.187183
0.0148496
0.0326068
0.00845835
0.025826
0.0133876
0.122778
0.000361597
-0.0198598
-0.356786
-0.134889
-0.0311194
0.154241
-0.108104
-0.34264
0.0660018
0.0623243
-0.0973133
0.000740874
0.039538
-0.0519373
0.0286521
-0.325249
-0.34228
-0.136892
-0.204131
-0.0645913
-0.12085
-0.124494
0.0661356
0.0481394
0.00638667
-0.127274
-0.161693
-0.175772
-0.104807
0.0217214
0.0215204
0.0449597
-0.0315562
0.0103089
0.0782745
-0.0227627
-0.0870457
-0.0217772
0.0401215
0.030148
-0.341494
-0.151541
-0.0317849
0.0224718
-0.0334038
-0.0077298
-0.0205884
0.0210241
0.00673964
-0.0511627
0.0394576
0.020903
-0.147964
-0.0985747
0.0403049
-0.0520718
0.039157
0.042974
0.0174201
0.05224
0.0174991
-0.247406
0.125514
-0.0560788
0.0208306
-0.0405944
0.0246525
0.0405956
0.0147616
-0.0204142
0.35481
0.121785
0.0261831
0.0288
-0.0239056
-0.0184472
-0.0620567
0.0280163
0.0375458
-0.0787787
0.0194628
0.141219
0.0244532
-0.124939
0.0227997
0.0148659
0.150032
-0.0277539
-0.0370938
-0.0980851
0.0787889
-0.115907
0.0430768
-0.354614
-0.125621
0.0421569
-0.0504192
0.0147366
-0.0145376
0.386153
0.00511588
-0.0392175
0.020742
0.0569269
-0.341869
0.0833236
-0.0201362
0.0511667
0.185503
0.0355298
-0.0167449
-0.00316328
-0.046781
-0.104967
-0.0953368
-0.0397433
-0.381076
0.0531948
-0.0234935
-0.0519512
0.0283368
0.0383147
-0.0978086
-0.00763735
-0.166875
-0.0498785
0.179244
-0.335358
0.0262864
0.0272113
0.0369482
-0.0175779
-0.0179074
0.0380669
0.000879638
-0.0540167
0.0195293
0.0208147
0.0277968
-0.0368762
0.0746324
-0.348211
-0.0331886
0.0155334
-0.0553926
-0.0689933
-0.01212
0.0243041
0.0471286
0.0285054
-0.0588559
0.0408406
0.0260677
0.047616
-0.0401403
0.0391063
0.0233168
0.0411793
0.0981381
0.0150164
0.0170456
-0.0449305
-0.0338638
-0.0229716
0.0197041
0.000782951
-0.0749068
-0.094817
0.0339601
-0.0260479
0.026645
-0.114551
-0.303891
-0.0609642
0.0789561
0.0375727
0.0642264
0.0190075
0.0308612
0.0620691
0.078579
0.153292
-0.335162
0.0662349
0.00573842
-0.0328152
0.532117
0.0108274
-0.00142486
0.139545
0.0289148
-0.155586
-0.024877
0.0465769
0.0290014
0.183035
0.153988
0.123481
-0.034666
0.0075385
0.0344446
0.0364082
-0.00373424
-0.377929
0.124243
0.0373862
0.0600105
-0.0916407
0.0306426
0.0106046
-0.126681
0.029293
0.0777812
-0.0187511
-0.121846
-0.22028
0.0342463
0.0601951
0.0357408
0.0583518
-0.332717
0.17092
0.0381273
-0.00673684
-0.0749501
-0.342759
0.0984351
0.067966
0.0472236
-0.0778522
0.00970287
-0.00708901
-0.0645615
-0.111324
0.0265959
-0.258035
-0.366198
0.0410552
-0.259677
-0.266557
0.013443
-0.151046
-0.00334833
-0.364466
-0.333305
-0.0295025
0.0358195
-0.0243332
-0.0529434
0.0929369
-0.395567
-0.0196964
-0.0398705
0.187084
0.0311898
0.0691184
-0.116396
-0.0126398
-0.0261514
0.00178459
-0.300115
-0.0273145
-0.143053
0.0829127
0.0358457
0.0303897
-0.0456172
-0.063469
0.029194
0.0175483
-0.0489652
-0.0508092
-0.0802649
0.00473987
0.0244674
0.510646
0.0227279
0.0434309
0.0383697
0.029465
0.0247196
-0.194892
-0.0518422
0.105373
0.0396851
0.030099
-0.0216136
0.0402026
0.0194008
0.120495
-0.00680955
0.0397929
-0.0217849
-0.0419195
0.0279655
0.170082
-0.0123435
0.0331396
-0.0469101
-0.0918154
0.137334
0.0616538
0.0205807
0.118949
0.0348283
0.0310842
0.0733706
-0.222466
-0.0494255
0.0311153
0.00775331
0.0805565
0.0773731
0.115781
0.123343
-0.088994
0.513312
0.0147499
-0.0337183
0.0430339
-0.104477
-0.234852
-0.00145702
0.0440043
0.0296783
0.062299
0.0394891
-0.00533197
0.164931
-0.0986229
0.105972
0.00527364
-0.0214444
0.0183695
-0.0294894
-0.0579152
-0.0134658
-0.00640905
0.0377963
0.0692991
-0.37755
-0.0304768
-0.0853416
-0.33186
0.0669812
0.459571
0.031873
0.0370717
0.0298113
0.0136952
0.0135792
-0.147801
0.043124
-0.102522
0.0283675
0.0377612
-0.36322
0.0568132
0.0384554
0.09795
-0.0200348
-0.321534
-0.0313437
-0.0342465
-0.0116163
-0.121852
0.187531
-0.0587114
-0.327908
0.118595
-0.116187
0.184444
-0.103669
-0.0438617
0.0422689
-0.170171
0.0296898
-0.226743
0.01274
0.0287553
0.00513982
0.0346658
0.0452831
-0.057408
-0.119089
0.166001
0.0458756
-0.158373
0.0333367
0.0118092
0.00153733
0.0895654
-0.0994232
0.0272005
-0.0436728
-0.333955
-0.0547533
-0.026061
-0.256102
0.164962
-0.0558021
0.0483565
0.168943
-0.374896
-0.101681
0.0961613
0.342117
0.0442077
-0.0832418
-0.0227672
0.0298825
-0.0693992
0.177963
-0.368768
0.0283017
-0.177533
-0.0807217
-0.356886
0.507339
-0.0206579
-0.0430343
0.113822
-0.0367324
0.0141608
-0.163552
-0.334731
0.0147014
0.10778
0.0492151
-0.0930514
0.00587841
0.0473999
-0.0144118
-0.0628556
-0.019584
0.188389
0.0191013
-0.0148482
-0.044844
0.0200568
0.0926623
-0.165012
-0.021587
-0.209837
-0.0616639
-0.0218032
-0.0352259
0.0446265
-0.0367657
-0.232072
-0.0524364
0.00800285
0.00138424
-0.0157228
0.0303405
-0.0993935
-0.0166388
-0.0196056
0.0376824
0.0376962
-0.0431385
0.0410811
0.0293739
-0.102965
0.0382885
0.0066089
0.0143523
0.347225
-0.011266
0.0301234
-0.0544302
-0.190062
0.0684266
-0.0228103
0.0426675
0.0448404
-0.303403
0.0921756
-0.0648438
-0.225305
0.0210121
0.00678688
0.0393938
-0.133314
-0.0690852
0.0416006
0.0508329
-0.0362801
0.0527204
0.122014
-0.153575
-0.0623999
0.0326634
-0.34231
0.192276
-0.184007
-0.0064746
-0.00868438
-0.0200739
-0.0611017
0.0419286
0.0241711
0.0170945
0.00508753
0.0260551
-0.059582
-0.0861402
0.0184601
0.0211814
0.0304912
-0.0139482
-0.0300123
0.0256289
-0.368038
0.0238492
-0.120836
-0.105805
0.51632
-0.372483
0.0343812
0.0376629
0.051962
0.0404381
-0.0856447
-0.149319
-0.0203331
0.039151
0.0317735
-0.00103875
0.0246144
0.0133843
-0.0317874
-0.140833
0.518686
0.0213755
0.0385461
0.0198787
0.00774629
-0.0560756
-0.157615
-0.0171679
-0.0583172
-0.0418804
-0.1532
0.189701
-0.346065
0.0683057
-0.0837006
-0.0224087
-0.110679
0.0654589
0.0318499
-0.212668
0.366461
-0.0366553
0.0491746
0.354168
0.0231209
-0.244863
0.0476233
0.116391
-0.365513
-0.0188741
-0.184259
0.0299238
0.0346246
-0.019996
0.0039587
-0.184152
-0.2069
0.0595326
-0.0130433
-0.0148013
-0.0060063
0.115524
-0.0726964
0.211463
0.0160224
0.0633259
0.105741
0.0251709
-0.00747877
-0.118151
0.0169708
-0.0378863
-0.0469771
0.0203028
0.0596476
0.0918308
0.152271
-0.104928
0.00239139
-0.00115583
0.0824727
-0.0601145
-0.0229295
-0.00732319
-0.365269
-0.243363
-0.00701639
-0.145639
-0.0163925
-0.326347
0.0846862
0.0923611
0.0361075
0.0349879
-0.0458467
0.0289343
-0.00476468
0.0280301
0.0463184
0.121828
0.0578387
0.117554
-0.0566116
0.0170094
-0.40034
-0.0224701
0.0203101
-0.0771204
-0.123405
-0.264334
-0.0871083
0.051033
-0.0817784
-0.00439884
-0.164433
0.0534093
-0.0585538
-0.0341823
0.0399412
-0.0196424
0.0497755
-0.332005
0.158447
0.0304892
0.0108494
0.0500096
-0.0193268
0.179114
-0.080698
-0.0377275
0.039374
0.0592752
-0.0285193
0.118356
-0.004126
-0.256653
-0.0837368
-0.261564
-0.0104047
0.0390845
-0.342462
0.448228
-0.0214205
0.0442811
-0.0763182
0.0445715
0.0379732
0.042997
0.0302136
-0.0890543
0.00582249
0.0395989
-0.0348604
0.172147
0.191266
0.0189778
0.11888
0.112861
-0.245915
0.030318
0.0641929
-0.0379608
0.13886
-0.15335
-0.0651159
-0.0737964
0.0725546
-0.150787
-0.101383
-0.329401
0.0318715
-0.373728
-0.268772
0.0342915
-0.149227
-0.0545764
-0.122368
-0.0851768
0.0413027
-0.0472396
-0.198632
0.0131996
-0.175905
-0.12467
-0.0235701
-0.033136
0.0384252
-0.0332869
0.0742421
-0.058862
-0.0235928
0.0385442
0.0369333
-0.0351597
0.0876757
-0.083107
0.0270814
-0.317627
-0.124593
-0.059113
-0.162369
-0.11921
0.0104278
-0.341406
0.0845227
-0.283815
0.0692411
-0.0434958
-0.193181
0.444083
-0.0850423
-0.0499463
0.0616611
-0.123022
-0.107846
0.000968289
0.0472786
0.092703
-0.0147571
-0.305736
0.00483945
0.0694877
0.0800081
0.0420192
-0.0107576
-0.374284
0.0345527
-0.211395
0.0110774
-0.030048
0.0293906
0.0382641
-0.0525062
-0.047669
-0.0500645
-0.0350657
-0.28325
0.0297715
0.0482077
-0.259073
0.0395805
0.0250824
0.0388402
-0.123753
0.0322042
0.0251662
-0.000903132
0.00223671
-0.0757709
-0.316715
-0.0750145
0.0315712
-0.373437
0.0266044
0.102292
0.0263556
-0.0561359
-0.0926811
0.0317204
-0.338149
0.0204248
-0.198479
0.215301
0.0153792
0.0558583
-0.121743
0.0345182
1.72394e-05
-0.0367956
0.127141
0.0560509
0.0392779
-0.0686597
0.202059
-0.086401
-0.339681
0.100922
0.196717
0.180328
-0.0571829
0.00408127
0.00518759
-0.125905
0.013132
0.0216983
0.0930973
0.0382695
0.0498489
0.460431
-0.0945236
-0.010018
0.0419733
0.140803
0.13746
0.0795684
0.0535014
0.00156186
0.00291903
0.0419708
-0.102965
-0.00110171
-0.374121
0.0237023
-0.0297662
0.0393898
0.138195
0.0238665
-0.0888161
-0.0395612
-0.0199744
-0.0208244
0.16143
0.0736611
0.17206
-0.0200783
0.358736
0.118066
-0.0120804
0.0510767
-0.170097
-0.355985
-0.1237
0.18492
-0.337823
-0.0161394
-0.00280357
-0.00245668
0.0979911
-0.374356
0.038687
-0.0904847
0.0618048
0.024929
-0.0210757
-0.0727207
0.0681397
0.0154246
0.2827
-0.342226
-0.0265325
0.0513181
0.0129304
0.00941309
-0.168325
0.0598653
-0.162423
-0.0532673
0.0191536
-0.0102794
0.216738
-0.327892
0.0361634
-0.131629
-0.383478
-0.0471059
0.124287
-0.11726
0.000619815
0.0830041
-0.117183
-0.0038328
0.140133
0.0557115
0.0322675
0.0338492
-0.100076
-0.0231492
-0.367005
0.0381994
-0.344461
0.0152494
-0.355688
0.0923648
0.0243227
0.0076783
-0.33177
0.0199994
0.0264581
0.0995824
-0.0882368
0.125064
0.111442
0.0168112
-0.003235
0.0679161
-0.00146538
0.0184546
-0.0295775
0.0559773
-0.0474475
-0.0413221
0.0317379
-0.370818
0.0186142
0.0216715
-0.2929
-0.120759
-0.139481
0.0394519
-0.0363413
0.0395693
-0.0883849
-0.0427979
-0.0102722
0.228888
0.0371758
-0.0383987
0.0333722
0.112311
0.00446219
-0.050552
0.0318682
-0.113346
0.125524
-0.17284
0.0390625
-0.0349827
-0.0353292
-0.0410512
0.030286
-0.348462
-0.0318266
-0.0750789
0.0700216
0.0405795
0.181554
-0.369955
-0.0431976
-0.0565539
0.0443326
0.0363654
-0.0707874
-0.197322
0.0280293
-0.0172543
0.062465
-0.00712315
-0.102056
-0.227029
-0.053043
-0.0510486
-0.381206
0.0816053
-0.0222535
-0.0367852
0.041068
0.137526
-0.0326589
-0.109835
-0.0380369
0.0441032
0.237234
0.195207
-0.0206949
-0.0574261
0.0296486
0.0243955
-0.342364
0.0636096
0.0543269
-0.0380264
-0.0617536
-0.00220126
-0.0747521
0.0156907
-0.00385975
-0.245509
0.331628
0.224494
0.0173733
0.0245862
0.12554
0.0939404
0.00108707
0.0801082
0.0141555
-0.000958331
0.0431737
-0.017486
0.183282
-0.0449634
-0.0110234
0.0573518
0.0326179
-0.0877307
-0.0990224
0.208819
0.0391341
0.0249995
-0.00198594
-0.0427061
0.0403834
-0.0748631
-0.276754
0.0023715
-0.309511
0.173448
-0.0368146
-0.39631
-0.161738
-0.0341969
-0.0746092
-0.367927
-0.279739
-0.387512
-0.0111107
0.0979745
-0.0482913
0.0210038
0.223232
0.105771
-0.0953026
0.414526
-0.187012
0.0180051
0.0290773
0.0246649
-0.0213142
0.0138838
0.0314469
-0.234776
-0.225057
0.0437378
0.0148182
0.0125025
-0.134419
-0.069988
-0.101766
0.0783981
-0.296862
0.0274008
-0.0184477
0.03738
0.103121
-0.018203
0.0272846
0.179712
0.0661088
-0.129298
-0.0249674
0.00912523
0.409338
-0.0233656
-0.254308
0.0428127
-0.273347
0.0326863
-0.357811
-0.047732
-0.10468
0.158513
-0.108028
-0.124283
0.21429
0.020786
-0.254611
-0.0230209
0.0306686
0.0311174
-0.00959149
0.0374948
-0.0997614
0.0251492
0.0239616
0.0635974
-0.147873
0.0213744
0.0342912
0.0397419
0.0860298
0.0342047
-0.0183957
0.00921059
0.0314424
-0.109271
0.0364621
-0.0470537
0.049837
0.0402132
0.0134208
-0.0378705
0.0148023
-0.0110366
-0.335335
0.0229218
-0.103816
0.114083
0.0284746
-0.164916
0.0640549
-0.200005
-0.0422389
0.0822854
0.14811
-0.0223799
0.0168221
-0.0386552
0.0567117
0.00690171
0.11694
-0.169896
-0.071006
0.0203327
0.0490717
0.0407156
-0.0225758
0.0348768
0.0230954
-0.103956
-0.05043
-0.133142
-0.335447
0.0249921
-0.033258
-0.0615578
-0.0190957
-0.0339628
-0.0591642
-0.113382
0.0222527
-0.0818312
0.0653485
0.055998
-0.191735
-0.131757
-0.0275802
-0.0237608
-0.00605685
-0.245445
-0.0311518
0.0511891
-0.263875
0.0608421
-0.0833418
0.0612819
0.0424343
-0.0193405
0.0659545
0.0104849
0.0201107
-0.0273149
0.090224
0.0343357
0.0923579
0.0210972
-0.357324
0.00141608
-9.4132e-05
0.0240704
0.20852
0.0254347
0.107036
-0.105173
-0.0854166
-0.0716916
-0.342225
-0.0986717
-0.0394198
-0.0103635
-0.0860513
0.0397429
-0.224369
-0.0500169
-0.0117919
0.00786299
-0.0307995
-0.113465
0.149273
0.000837105
0.029675
0.0580745
0.369979
-0.0142429
-0.0244652
0.0500792
-0.101422
-0.108805
-0.0858052
-0.00130056
-0.0831255
-0.0181396
-0.0254702
-0.101214
-0.337343
0.0414537
-0.126758
-0.016384
-0.0994633
-0.021886
0.0209868
-0.0187532
0.00223669
-0.0492686
0.0342683
0.0814146
0.0401715
0.0558686
0.0455154
0.248365
0.0678523
0.00641043
-0.334623
0.0566401
-0.123017
0.0805993
-0.268944
-0.0806454
-0.359687
0.109445
0.0582025
0.0354697
0.014199
0.0508727
0.00571144
0.00849433
-0.169504
-0.117235
-0.141396
0.0184872
0.0563265
0.0393081
0.350661
0.00672557
-0.0771399
-0.197829
-0.0958924
-0.0376725
0.112202
-0.0658347
-0.089083
-0.0215388
0.0322438
0.0607254
-0.0478992
-0.0305884
-0.186908
-0.0574614
-0.0508257
-0.062387
0.149924
0.0408712
0.0235251
0.265314
-0.109526
0.0385896
-0.0975146
-0.114894
-0.34155
0.0114943
-0.0724762
0.0143911
-0.0587401
0.0280366
-0.0150976
0.0272559
0.0199873
-0.108184
-0.171352
-0.187859
0.0138081
-0.07634
-0.0332571
-0.0556593
0.100208
-0.0377318
-0.00163707
0.0334008
-0.0370022
0.163688
-0.0206169
0.0475905
0.0640687
-0.0039042
-0.37534
0.0399832
0.0284726
0.139026
-0.113265
0.0401339
-0.0552451
-0.10996
0.0308557
-0.0299749
-0.379582
0.0332201
-0.0451195
0.0422609
-0.145044
0.00854008
-0.0610565
-0.117003
0.0956875
0.0265667
0.174498
0.130506
-0.33877
-0.0500226
-0.0756823
0.0423533
-0.0134641
0.0756712
-0.0513481
0.0493727
-0.342709
0.0221144
0.0343479
0.265882
0.0444406
-0.348267
0.240805
-0.23122
-0.0196413
-0.0584639
0.0106867
0.155415
0.027899
0.00289702
-0.120302
-0.386454
-0.0400504
0.0269216
-0.284123
-0.171427
-0.348106
-0.109529
-0.0479
-0.0974887
0.179359
0.00716071
0.00858554
0.0549051
0.0311946
-0.0676203
0.0508268
0.110101
-0.0759758
0.0550771
-0.113893
0.0263329
-0.0106785
-0.026401
-0.0296477
-0.40076
-0.0204401
-0.0946398
-0.0413594
0.477038
-0.0411435
0.0301363
-0.00680885
-0.11053
-0.0839159
-0.0366786
-0.0918082
0.00894344
-0.0527998
-0.359573
-0.112835
0.00643807
0.0781025
-0.210536
-0.0210162
0.0856626
0.0286502
0.0365797
-0.348507
-0.120599
0.0129677
0.162154
0.0296309
0.0232386
0.0158101
-0.00683353
-0.0512085
0.0418528
0.0372938
0.258232
0.0342115
-0.00206935
-0.0808184
0.121407
0.0220635
-0.0812462
0.0287659
-0.341442
0.00896101
0.00519687
-0.000357811
-0.0353402
-0.0389963
-0.326686
0.0224121
-0.340541
0.0218621
0.0555603
-0.0975237
0.0543012
-0.157385
0.0138339
0.063463
0.0211665
0.435929
0.200528
-0.00460167
-0.102984
-0.0277143
0.000613348
-0.0987267
-0.0915169
-0.0255533
-0.0394759
-0.125741
0.0229093
0.34719
-0.0828247
0.127605
0.0352761
-0.033926
0.0725223
0.0247866
-0.00835536
0.16248
-0.0310463
-0.37738
0.0221428
-0.367177
0.0553718
0.0410613
0.0902173
0.062294
-0.353821
-0.00956087
0.0399951
0.00817586
0.035178
-0.0456
-0.0397391
-0.093312
-0.00798094
0.11089
-0.337432
0.110616
-0.394074
0.0857104
-0.0469343
0.0243171
-0.0823855
0.0568879
-0.0430646
-0.147387
0.0395056
0.0596939
-0.0529673
-0.342797
0.000858205
-0.00721476
-0.217438
0.0574884
0.0232259
0.0212305
-0.343711
-0.157661
0.0282036
0.00699215
0.0546265
-0.0214445
0.0305296
0.029767
-0.0707357
0.241593
-0.0379239
0.000204824
0.0568695
0.0306322
0.0384338
-0.0505208
-0.0399606
-0.242742
-0.0696356
-0.227764
-0.378828
0.0411004
0.00445551
0.0487634
0.0444253
0.0276925
-0.155662
0.00132361
-0.0906112
0.0177049
0.0298457
0.46705
-0.350427
-0.0455696
-0.117225
0.336705
-0.0425636
0.0220209
0.0984321
0.0245529
-0.092256
0.0386635
-0.0350307
0.00236687
0.00244309
0.117543
0.0391408
-0.0579738
-0.188933
0.0211592
0.0953202
-0.332471
-0.0503018
-0.341475
0.0404763
-0.228369
0.000988422
0.0958878
0.0206184
-0.320698
0.0105711
-0.0773545
-0.0275184
0.0256974
0.0401874
-0.00302335
-0.00870751
0.0447628
0.437783
0.0302521
0.0468673
0.0444422
0.0426954
-0.0504793
-0.391644
-0.0505634
0.135388
-0.0776788
0.0195204
0.051234
-0.0249707
0.0299215
-0.197302
0.0399608
0.0965651
0.0326289
0.0673874
0.0316291
0.0564896
-0.0904328
0.0278335
-0.0493354
0.0481951
-0.0110998
0.0496401
-0.0965939
-0.0621873
-0.0442533
0.0184833
0.00223007
0.0078307
-0.374708
-0.373621
-0.358673
0.121889
0.0324006
-0.0991697
-0.196478
-0.0890278
0.0112165
-0.0620389
-0.352328
0.0936118
-0.0201465
0.104847
0.0391971
-0.0616408
0.00563542
0.0423429
-0.268531
-0.0259388
-0.0150708
-0.00348779
-0.110181
-0.0211151
0.011346
0.497199
0.0158676
0.0106486
-0.0818018
0.0124978
0.425716
0.044902
-0.000862956
-0.0819576
-0.35365
0.235011
-0.00819524
0.051557
-0.0322625
0.0978088
-0.162766
0.0901659
0.0399168