/*--------------------------------*- C++ -*----------------------------------*\
| =========                 |                                                 |
| \\      /  F ield         | OpenFOAM: The Open Source CFD Toolbox           |
|  \\    /   O peration     | Version:  v2012                                 |
|   \\  /    A nd           | Website:  www.openfoam.com                      |
|    \\/     M anipulation  |                                                 |
\*---------------------------------------------------------------------------*/
FoamFile
{
    version     2.0;
    format      ascii;
    class       volScalarField;
    location    "200";
    object      ddt0(epsilon);
}
// * * * * * * * * * * * * * * * * * * * * * * * * * * * * * * * * * * * * * //

dimensions      [0 2 -4 0 0 0 0];


internalField   nonuniform List<scalar> 
18598
(
-3.76624e-05
1.73711e-05
9.84055e-11
-1.2039e-09
5.23546e-11
-1.46168e-11
1.18572e-05
1.56057e-11
1.82096e-12
1.29846e-11
9.99897e-12
1.67207e-10
3.78872e-13
3.13644e-05
-5.92442e-06
6.49334e-11
1.86111e-11
4.7232e-07
-6.02614e-07
-8.21656e-07
1.30203e-07
2.84246e-13
-2.76798e-09
3.98297e-13
1.0522e-12
-5.58761e-07
6.24609e-13
6.15375e-05
-2.48878e-12
-5.16804e-12
-3.73484e-05
4.71953e-12
1.82699e-05
1.366e-11
-2.83827e-07
-5.58502e-12
-6.07623e-11
1.16746e-12
3.50227e-12
-3.4783e-07
6.08859e-05
-1.81559e-12
3.6825e-13
5.34282e-12
-5.27834e-12
-9.15836e-07
-4.14089e-12
-2.76632e-07
-8.11347e-11
-1.31434e-12
-2.58324e-08
-1.70515e-12
2.52925e-14
-2.97383e-09
6.92431e-12
-3.82243e-12
-6.95906e-07
1.19584e-05
-1.0069e-05
6.55404e-07
-1.43486e-12
-3.26705e-12
8.30461e-12
-1.68362e-05
-7.62538e-11
6.70665e-12
-5.8226e-11
5.21752e-12
-1.46824e-12
-5.71463e-06
-4.7289e-12
8.12647e-14
2.19086e-12
-2.42296e-12
-1.66489e-12
-1.84848e-12
-1.09791e-12
4.68787e-12
4.30589e-12
5.14805e-11
-1.54433e-12
-1.86065e-12
-6.01961e-12
-5.44186e-13
-6.07998e-13
1.87587e-14
-2.5726e-12
2.20816e-07
-2.12901e-06
7.27792e-05
-5.83938e-11
-1.06683e-12
3.70457e-13
-1.22439e-11
-2.03918e-12
7.70798e-12
-8.63316e-11
-6.35594e-07
1.24891e-11
-6.0697e-11
8.71208e-07
-9.07951e-07
8.96987e-08
2.34299e-07
-1.77192e-05
-1.28822e-10
2.8199e-09
2.88362e-08
4.83814e-12
-5.23612e-05
3.23736e-11
-9.39901e-13
-3.32666e-09
-3.60611e-09
1.39547e-12
-1.78584e-06
3.0856e-11
-2.03437e-11
4.78635e-11
8.42188e-13
-1.28392e-06
-5.34696e-10
-1.69288e-06
1.22171e-11
7.56718e-14
2.65119e-05
-9.92201e-07
1.11167e-12
-6.64219e-12
6.87537e-05
-8.68811e-10
0.00014481
1.79824e-09
1.51692e-10
1.83842e-11
-1.29789e-10
-1.06853e-12
7.86281e-13
-2.83391e-12
-3.24707e-05
1.43067e-11
-2.55575e-12
6.46267e-12
0.000129042
-2.96227e-09
6.60027e-12
1.33351e-05
-1.2598e-11
-3.95778e-07
-9.12537e-13
-4.77927e-12
4.97397e-05
4.15424e-11
0.000247508
-1.02054e-11
-1.18505e-11
4.1562e-11
-1.24373e-08
-1.41704e-12
3.12626e-12
-1.15785e-10
-8.40964e-06
-1.33476e-10
1.20865e-13
0.000163409
8.35719e-06
-4.53428e-09
-5.88233e-13
-7.78513e-12
-2.23995e-12
-1.19921e-11
1.56153e-08
5.92621e-08
1.32657e-08
1.13214e-07
-6.44953e-07
5.18009e-11
-2.21218e-07
1.19744e-12
1.39938e-12
6.90102e-05
9.51058e-13
-3.13172e-11
0.000201152
-1.05346e-12
-7.63423e-13
-3.50258e-05
-1.30653e-12
-9.54749e-10
4.50799e-06
-9.51434e-10
3.85394e-11
7.21402e-13
6.69243e-07
7.72575e-11
-3.23894e-09
-3.16869e-12
-4.00003e-11
-1.76829e-12
1.33851e-05
-1.12541e-09
3.8887e-11
5.43075e-11
-2.19251e-09
-5.59301e-08
-1.19223e-12
-1.92725e-12
-4.66253e-11
-6.69798e-11
4.43199e-08
-2.49929e-12
-3.94237e-12
6.83881e-13
3.5266e-09
-3.45599e-06
1.57827e-10
5.83081e-05
5.67939e-09
-9.32467e-10
3.87381e-11
-1.30793e-08
-3.89892e-09
6.49972e-05
1.63203e-12
-5.75719e-13
-1.46586e-11
-8.42225e-11
6.25254e-05
-7.10149e-11
-3.22613e-12
1.11375e-09
0.000125952
2.11743e-12
1.73778e-11
-3.18742e-12
-5.44957e-13
-2.20551e-11
-2.9301e-09
2.55886e-12
-7.16601e-09
-2.67953e-12
4.03462e-13
-8.47785e-10
-3.20663e-11
3.51873e-12
-3.80925e-12
2.03364e-12
-5.95401e-12
-1.78168e-13
4.77495e-12
1.39653e-05
3.75045e-12
2.7212e-05
-1.38012e-08
1.95386e-13
-4.03657e-12
4.3264e-12
-1.73753e-09
-5.63354e-12
-3.34796e-05
1.11449e-11
1.11975e-11
-2.40072e-09
-5.87842e-12
1.27299e-12
-1.87937e-07
-8.00987e-12
-1.04743e-11
-2.26959e-12
-6.44819e-07
-6.0421e-12
-4.50771e-12
-7.15412e-05
-4.17031e-12
5.67751e-11
1.7263e-05
-7.05963e-13
4.45966e-07
6.17496e-07
4.068e-06
2.55695e-08
2.3638e-05
-8.07621e-12
1.26735e-08
1.39295e-07
-1.32223e-05
7.12928e-07
2.52764e-13
-8.34314e-07
6.94117e-06
-5.0178e-12
5.12374e-07
-1.98712e-11
-6.29939e-13
6.53142e-05
2.61499e-11
-6.18675e-08
4.30976e-11
4.76467e-12
5.02373e-07
3.29705e-13
-1.55346e-12
0.000159948
-5.63747e-11
-3.94631e-12
-7.19085e-08
-3.38676e-13
4.01991e-12
-4.26167e-12
-4.35536e-12
-6.40297e-12
1.29982e-12
2.5776e-06
1.50537e-11
-7.18395e-13
-2.86997e-07
-4.6981e-11
-1.07801e-11
-3.75976e-08
-2.00127e-12
1.12445e-11
-2.10624e-12
4.23193e-12
-2.73435e-14
-1.61332e-07
-8.90312e-06
1.18636e-10
2.09705e-09
1.31957e-12
-4.60761e-08
1.46994e-12
6.99672e-05
-7.67643e-12
3.89703e-05
-1.60986e-12
-6.65503e-05
1.16362e-13
1.48296e-11
-9.43024e-05
-5.85323e-12
4.80478e-12
6.09599e-12
6.32644e-06
-2.47143e-12
1.91922e-11
-1.70347e-11
-2.75199e-12
5.57741e-07
7.88416e-06
0.000185954
-3.79869e-11
4.05161e-09
-3.32802e-12
-7.07955e-05
8.08429e-05
6.77705e-12
-1.09263e-05
-1.01677e-05
4.01435e-08
-5.04058e-12
3.83456e-10
6.13695e-06
1.30341e-11
8.86153e-12
-4.05427e-05
-2.5665e-12
-2.58978e-06
6.17916e-14
4.29382e-05
4.76872e-13
-1.10428e-12
1.17909e-11
2.18158e-12
-5.97406e-13
0.000163687
4.90653e-13
2.00376e-12
1.31985e-12
-1.00924e-12
2.39684e-11
1.71749e-11
2.51831e-08
-1.85533e-08
-1.47393e-12
1.87038e-10
8.2813e-09
1.56996e-12
1.49767e-12
1.15786e-08
-8.08038e-12
1.15079e-12
-5.60697e-05
-7.08943e-12
4.55708e-10
2.28905e-08
-1.67805e-12
-1.0517e-11
1.70716e-07
-6.16001e-07
-3.23192e-12
-9.56057e-13
-1.9677e-11
2.04484e-11
-2.67654e-12
-1.55464e-11
-3.60816e-06
-2.39857e-11
-1.74352e-05
-3.0685e-12
0.000126471
-4.39251e-11
1.41599e-13
9.57252e-05
3.19712e-05
7.65591e-06
6.94672e-12
5.3222e-07
-1.75808e-10
5.57087e-07
2.4455e-08
4.96832e-12
-3.15024e-12
6.95333e-13
-3.96187e-12
-0.000162156
-4.25024e-06
1.1598e-06
-5.69101e-13
-3.06078e-12
-1.56408e-12
-2.13276e-11
2.1863e-12
-4.3861e-13
-2.49091e-12
1.285e-09
1.10756e-11
4.84866e-12
-4.80407e-12
6.364e-11
-2.37786e-11
-6.1166e-12
-2.83945e-12
-6.81851e-05
-2.74186e-09
-3.97771e-12
1.51827e-12
-1.25428e-11
9.10184e-13
-5.6179e-11
0.000278267
-3.60071e-13
-3.67893e-12
1.91457e-13
0.000152836
2.74524e-12
-7.03174e-13
9.50764e-13
8.23507e-12
8.80793e-12
-2.60677e-12
2.17398e-05
4.93487e-10
1.30862e-11
6.78402e-11
-1.44276e-12
1.27004e-11
-2.32145e-13
-3.81962e-05
1.22166e-12
1.92549e-12
-1.67491e-12
4.33535e-14
5.5718e-12
9.53035e-12
0.000120975
4.06089e-12
-3.15052e-11
-6.42963e-11
-7.25099e-13
-1.35779e-12
9.96842e-10
6.67774e-12
4.01844e-11
1.24211e-12
1.12273e-11
7.48108e-06
-1.61865e-09
8.47114e-12
-4.74798e-09
4.82741e-05
7.86457e-07
4.62212e-05
-1.15944e-09
-4.00394e-12
3.14211e-05
0.000156221
-1.23544e-12
-6.38872e-12
5.61437e-08
-4.1904e-10
-0.0013918
-8.73289e-06
3.44208e-12
5.94625e-05
-1.52457e-12
-2.71507e-12
-2.4514e-12
-6.97139e-12
0.000128187
-4.49787e-12
-5.40288e-07
8.60761e-12
-1.1755e-12
-4.04524e-05
5.44462e-07
1.68532e-06
-0.000929144
6.33192e-07
3.25206e-12
5.61619e-12
-3.28562e-06
1.19519e-10
-2.78729e-06
-5.1332e-09
3.79988e-11
-1.77921e-13
2.27475e-08
-6.20772e-11
-8.48724e-10
-1.30415e-12
-2.67957e-12
3.85616e-12
-5.15619e-12
-4.16622e-12
4.66379e-12
-4.42768e-12
-1.43094e-06
-1.21611e-12
-1.56534e-11
-6.66373e-07
8.11868e-09
-3.1173e-06
-1.42733e-12
-3.46974e-09
1.29709e-05
1.73436e-11
8.21598e-14
1.84684e-07
2.3352e-05
9.26876e-05
9.09125e-08
-7.8439e-12
1.97446e-12
-1.70124e-12
3.94211e-10
-1.26695e-12
2.60772e-11
-6.04483e-11
3.56937e-12
2.90267e-12
2.90122e-12
1.90505e-05
-2.11524e-06
-4.56844e-12
-1.42621e-06
-4.79492e-06
-1.62225e-12
-5.27224e-07
-4.85454e-13
-3.17607e-12
-1.04426e-10
-3.73298e-05
2.28118e-13
-6.75997e-11
-4.59983e-14
-3.46785e-12
-2.5408e-13
7.25363e-06
1.19292e-11
-5.56151e-12
-4.76864e-12
8.86391e-05
1.71759e-08
5.91376e-05
-1.23669e-11
-1.26704e-12
-1.98352e-11
2.12398e-07
3.05389e-07
-1.00022e-12
6.28861e-12
4.00315e-12
2.69209e-12
-3.16436e-11
-9.45402e-12
1.05811e-11
8.46568e-09
2.34417e-11
-1.60001e-05
2.75778e-10
1.0197e-11
-9.51475e-13
2.72026e-12
-7.00283e-12
1.32199e-11
-6.66547e-12
9.8031e-08
7.91829e-11
-1.15246e-08
9.58548e-12
-1.47766e-10
7.80716e-12
3.6285e-08
7.25669e-06
-4.72224e-12
-7.50404e-12
-5.83626e-10
0.000109746
-5.3651e-13
1.90498e-11
-1.35332e-11
-1.73895e-08
2.69105e-07
-6.68457e-12
0.00019197
3.29804e-11
-8.90917e-05
6.7818e-05
2.11055e-10
9.09131e-12
-4.59716e-12
3.63434e-12
5.70044e-12
6.89966e-12
-4.34019e-12
3.78305e-07
1.11991e-10
1.62274e-11
1.41746e-07
8.86278e-12
-4.43333e-12
-3.37838e-13
-3.24145e-08
6.90042e-10
-3.58074e-08
2.49341e-12
-2.93791e-12
-2.46e-07
-7.02511e-13
6.65724e-13
-3.12668e-11
-2.89633e-12
-4.67689e-07
1.15436e-11
0.000170943
-4.78369e-09
-1.06502e-06
5.13951e-12
1.19522e-08
3.14284e-12
1.24418e-12
-1.26958e-12
-1.53084e-06
-4.36803e-13
8.00806e-13
-3.40556e-14
6.79418e-13
-5.39654e-06
1.40199e-11
-1.30821e-12
-1.26202e-11
1.67421e-14
1.39754e-11
-1.85435e-06
-1.03971e-05
-1.78551e-12
-4.57185e-12
-1.10222e-06
2.46774e-08
7.95358e-07
1.15685e-11
-3.5286e-05
-7.40486e-12
-1.75982e-05
1.97194e-05
1.00891e-12
3.00003e-12
-1.73176e-05
-6.44874e-11
-6.58428e-13
7.68614e-05
7.80375e-05
1.83173e-08
8.93357e-12
1.35969e-11
7.83762e-13
-1.23859e-09
9.26994e-07
-6.02636e-05
-3.55819e-13
-1.36265e-10
1.12922e-09
-1.73784e-12
-1.98696e-05
-1.14463e-12
9.74032e-12
-8.34885e-05
2.99237e-13
0.000105666
-1.24033e-12
-2.22206e-13
-6.4869e-14
1.7153e-11
5.00322e-06
0.00011093
-2.11675e-12
1.43187e-05
5.97601e-12
-1.26393e-12
2.393e-12
-1.21669e-10
-3.58837e-13
-3.54385e-07
1.8386e-05
-1.25205e-12
1.12321e-12
8.54454e-13
3.59667e-05
1.08356e-12
2.71407e-07
3.17567e-07
-3.19591e-12
8.32936e-12
-1.21162e-05
0.000132735
5.18373e-11
-6.62035e-07
-7.65049e-12
3.25492e-11
-3.28328e-11
1.14133e-11
-7.47276e-12
1.17864e-09
-9.66149e-13
1.50065e-11
1.69707e-12
2.12884e-07
-3.78003e-06
6.67809e-05
-1.86688e-05
5.53565e-11
-2.00126e-08
-9.33486e-13
1.34976e-05
-3.89739e-07
1.306e-11
2.36802e-12
1.85471e-12
5.38013e-10
-3.25457e-07
5.15119e-12
-3.14352e-11
1.27997e-07
-2.00586e-12
9.97435e-05
-1.14153e-12
7.48048e-07
2.2015e-06
-1.51415e-12
-3.64828e-12
1.49109e-12
-4.48098e-13
1.0642e-13
1.92303e-12
1.83982e-11
-1.17289e-11
-3.54352e-06
-2.55915e-12
-1.17909e-12
3.10798e-12
-1.04757e-10
-6.98128e-05
-1.27956e-12
-2.97942e-12
-3.89885e-12
3.78572e-12
3.20359e-05
3.26461e-10
6.89879e-06
-3.58114e-12
2.69393e-12
-1.01023e-05
3.43528e-12
1.89609e-11
7.95212e-13
-1.72374e-12
-2.72516e-11
-1.94175e-12
1.11075e-11
6.21038e-08
-5.58989e-11
-7.97298e-13
-7.15068e-12
-2.67541e-12
-2.66495e-11
1.7262e-07
4.17297e-11
1.30877e-13
-3.24737e-11
-1.41512e-12
-4.88349e-12
-6.75202e-12
5.25422e-14
7.00535e-13
1.08656e-05
7.9877e-13
-1.31794e-12
-6.49416e-05
-2.29681e-05
5.38999e-05
8.65746e-05
-5.15102e-05
3.51193e-13
2.84889e-10
-4.34615e-12
-1.20387e-12
-1.73945e-12
-5.52692e-12
4.32017e-11
5.60836e-12
5.68161e-06
1.40822e-12
1.96077e-11
-1.24728e-11
-1.08188e-12
3.61046e-10
-1.53154e-12
3.28748e-05
-1.74745e-05
-2.3725e-11
1.98593e-12
-1.5881e-11
2.05129e-05
-2.36709e-12
0.000213977
-2.13466e-12
-9.76906e-09
9.26503e-08
2.23006e-11
1.81651e-10
5.06557e-06
1.46523e-05
4.7401e-12
-3.80353e-06
-1.91761e-11
2.66608e-05
-1.82561e-05
-2.2243e-12
-1.92839e-06
7.73142e-13
1.71831e-11
-1.29342e-12
3.88196e-13
-1.09693e-11
4.91334e-12
1.27073e-05
3.1539e-11
-3.76572e-11
-7.18523e-12
5.83946e-08
-7.21468e-13
0.000213438
6.96121e-12
-7.68796e-12
4.19432e-12
2.83604e-12
1.39382e-13
4.13247e-12
-1.64064e-12
-2.32092e-11
3.88146e-11
-7.75136e-12
1.47311e-10
2.89465e-05
-4.86339e-14
-9.00276e-07
1.85531e-11
3.80488e-12
-1.0427e-08
-1.16364e-11
-5.46622e-12
-1.18285e-06
-5.15605e-07
8.96047e-12
7.024e-05
-2.15303e-12
-1.04058e-09
7.0776e-13
-2.5121e-13
-4.27061e-12
-3.29564e-13
-1.11323e-11
-2.6224e-12
1.13061e-10
-5.5223e-12
-1.0887e-12
2.79746e-10
-4.70855e-12
-5.23236e-12
-3.27498e-11
0.000123739
-2.17109e-12
-1.9687e-12
3.19043e-11
7.96501e-10
-5.30689e-12
-1.01255e-12
-1.43547e-10
-2.58301e-12
-5.75181e-07
-9.86854e-12
-4.57296e-05
-3.46796e-13
-8.07801e-14
9.04748e-13
9.736e-12
1.85818e-12
-1.38877e-10
-0.00028505
-1.14517e-06
7.57509e-11
3.98227e-07
-2.22117e-08
4.12799e-13
-2.58704e-13
5.26718e-13
-1.4709e-11
0.000195283
-6.64621e-12
-2.25371e-05
-8.1592e-09
-1.31939e-10
3.40148e-09
1.16226e-06
-1.52451e-12
7.68562e-12
2.44271e-05
3.79669e-06
6.82218e-09
-1.55231e-06
5.24038e-12
-2.36798e-10
1.99426e-11
-7.33191e-12
3.36571e-05
2.85671e-12
-6.58179e-08
-1.01654e-05
-1.92382e-13
-2.98539e-12
2.67198e-11
3.23572e-11
8.81704e-08
2.33307e-05
-1.68977e-05
2.29401e-11
-2.44711e-12
6.25945e-05
3.04207e-05
2.91604e-05
-3.53401e-12
-1.91671e-05
8.66045e-06
-2.0078e-12
0.000177887
-9.34696e-12
-2.42114e-10
1.5594e-13
-8.09654e-11
-7.19819e-12
1.15409e-08
7.41405e-11
2.99138e-05
-7.11409e-09
1.25869e-11
-8.95284e-13
-2.25633e-12
-9.93543e-13
1.13406e-06
5.53339e-07
-8.07556e-07
5.44833e-11
8.18747e-06
3.04392e-11
-2.08618e-11
1.58143e-11
-1.17682e-11
-8.7582e-12
2.5323e-12
2.5257e-11
-5.45527e-12
-1.58431e-12
1.0662e-11
-6.52412e-07
2.04234e-12
4.64146e-13
-6.60322e-07
-1.85463e-06
-1.38847e-05
-1.33133e-11
-4.33605e-05
-1.44122e-10
2.25965e-09
-4.52213e-12
-1.47373e-06
2.29816e-12
6.32554e-11
7.013e-09
-4.29085e-07
-5.64376e-06
-1.68748e-05
1.88086e-05
2.39396e-11
-4.68233e-05
7.44775e-13
6.05973e-09
-8.57106e-10
8.56353e-12
5.02379e-11
-3.05e-12
-7.8898e-12
-9.34051e-05
-4.71605e-13
4.41734e-05
1.71078e-12
-1.21036e-12
-1.04654e-13
-2.90548e-12
-8.58459e-10
2.30117e-11
-1.4183e-09
-4.16469e-12
-1.64513e-11
2.51842e-12
1.31073e-06
5.09826e-13
-2.61978e-08
-8.7992e-12
-3.40974e-11
7.78334e-12
-5.77406e-07
-8.51509e-11
1.54291e-13
7.76483e-12
4.01702e-11
-9.05643e-06
-4.64125e-09
-2.22511e-12
4.42749e-09
3.08626e-05
-1.43194e-10
5.2733e-10
1.53743e-06
1.33136e-13
-1.1815e-08
-2.95438e-12
3.6831e-10
3.47219e-11
9.69457e-07
-3.58127e-05
9.14541e-11
8.40607e-05
-9.83635e-11
8.56199e-12
-1.6649e-05
2.68675e-13
1.12932e-06
0.000214659
-1.0342e-08
2.40231e-11
1.27783e-12
-1.86308e-12
-6.70286e-05
3.3198e-13
-8.41174e-13
-1.01226e-10
-4.30674e-12
-1.39792e-11
-1.51714e-12
-6.92902e-12
1.00284e-11
-1.35464e-07
1.38006e-11
-3.44444e-06
-1.37674e-12
1.09503e-07
4.68508e-12
-5.14474e-11
-3.31225e-11
1.35182e-06
5.25106e-05
-1.58312e-12
-1.82182e-10
-1.60725e-07
-1.36667e-12
-5.07122e-07
5.19844e-14
-4.29568e-12
-2.66657e-13
2.25615e-11
1.22188e-12
-4.57601e-13
-3.06224e-11
7.24843e-05
8.73518e-13
2.33025e-08
1.75727e-06
-1.53935e-13
-2.66351e-12
2.21328e-11
-5.24599e-06
-1.03628e-10
-2.9753e-13
7.62437e-05
6.31538e-11
-1.11916e-09
-2.42462e-11
2.89873e-05
-4.02403e-12
-2.78891e-12
-9.68675e-13
1.20492e-06
-7.08775e-12
-6.02294e-12
-7.47276e-12
4.97344e-13
-6.22737e-14
-1.10852e-12
-4.82959e-07
1.67203e-11
-9.34107e-13
-3.00805e-12
0.000196141
-7.73255e-07
2.31253e-12
-3.41201e-12
-1.52105e-10
2.46101e-14
-1.04823e-12
-2.96573e-12
-9.17737e-13
-1.0367e-05
3.60321e-12
-3.27455e-12
5.27197e-11
-4.17658e-12
-4.24001e-11
-2.38585e-12
8.28914e-13
6.1877e-11
-3.5563e-12
5.34248e-07
-1.09088e-06
-3.87932e-12
9.68204e-14
-1.14213e-11
2.16142e-06
-1.51321e-10
-2.83555e-12
-1.93886e-12
-8.06124e-09
7.14414e-09
-8.43452e-06
1.25615e-11
-1.83542e-10
-7.84344e-10
-3.16182e-06
3.377e-14
2.91822e-06
-2.39628e-12
1.67097e-11
-2.62309e-12
-3.05058e-12
1.63057e-08
-1.20473e-12
-2.10615e-08
-4.1078e-07
5.97353e-12
1.0033e-11
-9.04235e-13
-4.46533e-12
-5.67108e-05
1.59164e-11
-6.84004e-12
-2.10421e-05
-1.51555e-11
2.27867e-12
-5.98304e-05
-5.63048e-11
-2.35435e-11
2.28668e-11
1.5947e-11
1.21961e-07
9.75232e-13
-3.41296e-12
4.24238e-09
-1.16388e-07
-3.94194e-12
-2.19043e-06
-8.09957e-06
2.34656e-08
7.95477e-13
-1.36757e-12
5.54455e-11
9.42654e-12
7.20312e-05
7.05729e-05
7.15854e-06
-1.5774e-12
1.03417e-09
-1.59238e-13
-1.80396e-08
2.63183e-06
-3.79576e-13
3.52153e-11
5.45311e-12
2.12737e-10
9.10193e-12
1.47101e-10
5.9069e-12
-2.67622e-12
2.37753e-06
-2.24296e-12
6.05128e-14
2.76763e-05
-5.85262e-13
-5.53989e-13
2.21896e-12
-3.5482e-12
6.94442e-05
1.92239e-11
-7.38649e-13
4.21645e-12
-2.92755e-12
-5.71296e-12
3.19024e-12
1.79881e-10
7.27147e-05
4.08226e-11
-9.65611e-12
5.29729e-11
-1.25136e-07
-1.80015e-13
-2.71569e-05
5.52874e-06
6.78335e-05
3.66878e-11
2.81737e-11
-2.26895e-12
-0.000352757
-8.97105e-12
-2.46254e-11
-1.53752e-11
5.53372e-12
5.2139e-06
-2.26562e-12
-3.95487e-12
3.38394e-08
7.15463e-06
8.36532e-13
8.10297e-11
8.22602e-05
3.52416e-12
-8.45237e-06
-1.86092e-13
-6.80732e-13
1.01038e-11
9.41888e-12
1.4674e-12
-6.67803e-13
-8.59624e-12
-5.10874e-12
9.14386e-12
3.5259e-13
-4.11626e-06
7.88886e-15
9.14209e-07
1.83454e-05
9.7208e-07
2.56452e-11
1.13863e-06
-1.10746e-11
-5.41208e-07
-1.47849e-05
2.82307e-13
-2.00543e-10
6.85141e-10
-2.89067e-12
9.25506e-05
3.70634e-07
-1.7917e-12
7.96894e-11
7.9586e-13
-1.7474e-10
1.09092e-08
2.21375e-08
1.97891e-09
6.91255e-13
6.1332e-05
1.77717e-11
-3.02427e-12
7.46001e-10
-3.53066e-08
-2.15302e-13
-2.05185e-12
-7.73074e-12
5.92745e-08
3.786e-06
-7.00197e-12
-2.48332e-12
0.000155313
3.98992e-12
-1.20068e-12
-2.65834e-12
1.8012e-10
3.23473e-12
6.14727e-09
1.63718e-11
1.48047e-06
-1.01348e-10
5.05695e-11
-4.63541e-12
-2.79888e-07
-1.99392e-09
-3.63288e-12
-1.92461e-12
-5.35349e-07
7.05963e-10
7.16806e-12
-8.1184e-12
-1.52531e-11
1.42792e-09
-1.40431e-12
-4.36997e-12
-4.68302e-13
-6.92521e-10
3.34289e-13
-8.53615e-06
-1.60658e-10
-4.42719e-11
-2.57478e-13
-1.86621e-11
1.32117e-12
-6.08648e-06
2.34073e-07
-7.63061e-05
6.24736e-07
-2.41213e-12
3.68197e-08
-1.47794e-06
-2.50269e-12
4.45678e-10
1.34545e-08
-2.42227e-10
5.59566e-12
1.1659e-10
3.5809e-08
-8.2757e-11
1.41689e-09
-2.60254e-12
5.72418e-05
1.19029e-13
-2.34006e-11
3.33437e-05
-3.00091e-08
-5.97421e-12
-1.81143e-12
6.45003e-05
1.47076e-12
-1.74286e-10
-1.05331e-11
-5.08325e-13
-1.90493e-12
2.54189e-11
-1.67796e-12
3.41104e-05
7.28334e-12
0.000519279
-2.29799e-11
-6.75494e-08
4.4077e-11
4.26426e-12
-2.63403e-06
-5.59931e-06
-1.96109e-10
9.50559e-08
-5.52668e-06
-2.20742e-12
-4.95741e-07
-1.09267e-11
-7.74457e-12
-6.93953e-07
-5.87022e-13
3.08946e-06
1.4212e-10
-1.05703e-11
2.12781e-13
6.67575e-09
2.2558e-05
-1.21566e-12
-3.21996e-09
7.06404e-12
-5.66798e-07
2.78207e-11
2.82428e-13
4.79322e-11
4.62744e-11
4.61864e-11
2.44133e-06
3.22018e-06
1.37719e-11
-1.77497e-11
-3.42841e-07
1.29197e-11
-5.65184e-05
-3.90435e-05
4.34612e-13
-1.81823e-12
-1.14421e-07
-1.10342e-12
7.82053e-05
-1.57993e-12
-4.14452e-06
5.26998e-12
1.3687e-13
-3.24435e-12
-6.46698e-11
-1.00661e-10
3.32537e-05
-3.70513e-05
-5.14058e-13
-8.8956e-12
6.26196e-09
-1.15174e-06
-2.27578e-11
3.63493e-06
1.1557e-11
4.87041e-11
-3.69831e-06
1.64263e-07
-1.70287e-12
1.8144e-07
4.92606e-05
2.75037e-12
-1.0091e-11
-3.92688e-08
-2.02728e-12
3.62126e-12
-8.67562e-07
-2.18279e-12
-3.02038e-07
-1.97141e-08
-6.25526e-13
-2.75106e-07
-1.77455e-11
1.10328e-08
-8.04105e-08
-3.89066e-13
-2.08238e-12
1.4876e-12
3.94816e-06
-5.92624e-12
-7.24022e-12
-1.20258e-08
-8.95633e-06
-5.19768e-05
-1.64333e-10
4.28615e-08
7.19758e-05
3.64002e-13
1.05348e-07
1.05846e-11
6.91889e-09
-1.32662e-05
4.69063e-05
-1.45404e-05
4.10485e-10
9.87583e-07
-1.10626e-11
4.90206e-11
5.0116e-12
-1.34643e-12
5.60491e-06
-4.21768e-12
-2.80922e-06
2.10934e-11
-5.69446e-07
-3.2918e-12
-1.35579e-12
7.88386e-05
1.73039e-09
-4.98638e-06
-4.11991e-06
-7.26334e-13
-1.84873e-12
-3.82519e-06
3.1058e-12
2.9918e-12
-2.01781e-06
-2.73035e-11
-2.0536e-12
1.75482e-11
0.000118401
-3.8422e-13
7.14599e-12
3.44751e-08
-3.10845e-11
6.83638e-13
-4.58823e-05
-7.23344e-13
3.48774e-06
-1.99264e-06
-1.06792e-11
-5.74934e-13
-1.3008e-12
0.000108696
-1.50029e-05
8.56584e-09
4.55447e-12
-5.14659e-12
4.40569e-12
-1.96765e-10
0.000210511
-1.49612e-12
3.61377e-05
4.45736e-12
-2.55257e-12
6.40622e-12
2.25525e-06
5.31873e-10
-0.000315729
2.19464e-10
2.27703e-12
-1.11754e-05
-1.08694e-12
3.19609e-12
6.50737e-13
4.66067e-11
-3.36288e-12
2.93127e-13
0.000110928
-8.87462e-13
5.5723e-13
8.3839e-14
-2.0667e-12
-1.65775e-12
5.25873e-08
-1.26985e-10
-6.96481e-05
-1.11465e-11
-1.31344e-06
-1.69873e-12
-1.20279e-11
-8.6636e-12
-2.63299e-11
5.66033e-12
2.13064e-13
-5.11833e-12
-5.16574e-12
-3.09673e-05
-6.82992e-11
-1.89333e-10
-9.00092e-11
3.19685e-11
-2.60964e-12
-2.92764e-05
-1.18834e-07
3.90239e-12
-4.85906e-14
1.41872e-07
8.28768e-08
-8.41743e-12
-4.37724e-08
7.43429e-07
-1.11617e-09
-2.63757e-09
1.79446e-06
-3.0875e-10
-1.60411e-12
1.34666e-11
2.38455e-11
4.18605e-11
-2.00376e-12
7.84384e-13
3.6754e-12
7.98405e-12
-1.99837e-06
-4.2103e-13
6.99087e-12
3.36125e-11
7.00957e-05
-8.92869e-13
-7.68567e-13
1.62285e-10
1.10806e-11
1.27896e-12
-1.87059e-10
-3.5695e-05
-7.6136e-11
-1.15793e-06
-8.78589e-12
-5.56135e-12
5.33985e-15
5.49941e-12
-1.32094e-11
2.21147e-06
-6.20831e-07
-6.15233e-12
-1.22186e-05
5.05594e-06
-3.76153e-13
-4.30885e-11
7.9806e-10
-6.33443e-07
-3.44692e-12
3.37697e-09
-4.67016e-10
1.13778e-11
-1.68258e-12
1.18758e-12
-3.44936e-12
5.21944e-12
1.38544e-11
1.00319e-12
-1.85061e-07
-1.80158e-07
-4.59048e-07
-5.44099e-09
-4.72288e-05
-1.1856e-13
-9.79397e-12
1.74133e-05
3.65989e-07
-2.58471e-12
-1.1569e-11
-0.000154453
8.37974e-08
-0.000163441
-1.08499e-11
1.81757e-12
-2.48588e-12
-2.49003e-12
2.69887e-12
1.57145e-05
0.000101696
-4.12207e-11
-5.67532e-11
-2.62943e-12
8.93039e-06
-4.23306e-07
-8.20535e-12
9.4963e-13
-1.8267e-05
-6.18048e-12
2.61748e-14
-5.20914e-05
1.99656e-06
0.00015755
-6.12013e-08
0.000204252
-1.92101e-10
2.46146e-12
1.89606e-12
5.01203e-10
-2.00282e-05
-2.69414e-12
-7.4228e-09
-2.61054e-12
-2.27594e-12
-4.85265e-05
-2.34336e-12
-8.24364e-09
-5.96571e-11
3.24266e-05
4.97341e-07
-2.74552e-13
6.89959e-09
-1.88422e-12
5.38164e-06
5.18437e-12
-4.04111e-09
-4.95035e-11
0.000103117
-1.00446e-11
-1.49484e-11
-4.5163e-05
3.05945e-12
-5.8827e-12
0.000304775
-5.95919e-12
-1.21859e-12
3.95597e-12
2.34585e-09
1.77842e-13
1.33835e-12
2.23574e-13
2.5483e-11
-1.95703e-10
3.64801e-09
-1.60505e-13
-6.70362e-05
1.05952e-07
7.55032e-10
6.49235e-13
-2.17293e-05
1.15787e-10
-2.26838e-12
-1.17638e-12
8.61438e-14
-2.19804e-12
4.17471e-06
-8.23959e-09
5.56352e-06
4.31036e-13
1.95025e-08
8.38572e-11
4.38596e-05
2.60476e-09
-6.14799e-05
3.06308e-10
-7.36959e-12
-1.33727e-11
2.56957e-05
-3.29783e-12
-5.46752e-12
-8.08205e-12
-5.7517e-12
4.35751e-06
3.6142e-10
2.41295e-06
-5.24314e-12
-6.8447e-12
0.000132798
-3.87719e-07
-3.99918e-07
-6.69305e-13
2.2884e-11
-8.62788e-12
-1.66605e-05
1.95254e-12
-1.21265e-12
-1.98389e-09
7.6406e-05
-1.3786e-12
-8.66104e-13
7.22549e-10
-5.04505e-11
3.2408e-13
-6.56863e-11
8.73348e-13
5.31622e-12
-1.23111e-07
-3.1328e-06
1.68476e-11
-4.99519e-13
2.34214e-12
-5.51033e-12
0.000436417
-1.94728e-12
-1.03685e-12
1.45946e-06
-9.3154e-05
-6.23687e-08
-7.28606e-12
6.30619e-05
2.6539e-12
9.60244e-12
-1.27811e-12
-5.02335e-07
7.07679e-06
-1.89106e-12
-1.9029e-12
3.56324e-05
-1.74937e-05
1.57996e-11
3.79827e-11
-2.02672e-12
-9.93836e-12
-1.64923e-12
4.47801e-07
-8.95399e-07
6.63063e-10
-3.18571e-13
6.63759e-09
-3.43887e-11
-6.65324e-06
-6.04246e-13
-6.64383e-06
-3.99738e-07
-2.36603e-12
2.04245e-12
3.04364e-11
9.13059e-09
-9.84853e-07
-4.64528e-11
-1.08461e-11
2.36878e-11
-7.66389e-13
-3.42945e-14
-1.07377e-08
1.50176e-05
-1.28265e-10
-1.31526e-11
-5.00176e-13
-5.29912e-11
-0.000584578
-7.97927e-13
-5.35759e-13
-5.99292e-12
-2.42977e-12
3.6319e-13
-2.35194e-10
-4.56298e-12
3.05547e-10
3.73136e-08
6.45249e-13
3.27266e-12
-5.67201e-05
-5.20593e-11
2.36768e-11
5.20507e-05
-6.42003e-12
9.56641e-07
3.6765e-11
3.09253e-11
-1.10674e-12
-2.05824e-11
1.31113e-13
4.57302e-12
-2.11466e-12
-1.66083e-06
6.72815e-07
2.12512e-10
-1.78453e-12
6.9712e-08
-1.37092e-12
-3.34709e-11
-0.000184118
-3.60838e-12
8.03611e-10
3.61406e-11
6.97375e-06
-2.4891e-07
-4.82006e-12
-2.06323e-10
3.33887e-11
-8.83254e-12
8.74817e-05
-8.57636e-13
5.84455e-13
1.97668e-07
-3.30793e-10
-3.40536e-11
-2.48246e-12
-2.19239e-08
5.20157e-12
-1.46649e-12
-7.81024e-11
-3.50831e-07
-5.89982e-05
-6.36172e-13
4.7924e-11
6.04073e-05
-1.64518e-10
-1.16548e-06
-5.47127e-06
-3.23781e-12
-1.59031e-05
1.00069e-13
-1.58466e-12
1.38541e-12
-2.83145e-06
1.87088e-13
-5.82717e-12
-3.90175e-11
1.99428e-05
-2.28535e-11
-1.3838e-11
6.39811e-07
5.93483e-12
5.05641e-13
6.13024e-06
-2.28335e-11
-9.80462e-11
-3.53382e-12
8.03504e-12
-5.57964e-12
3.72067e-08
-7.59427e-11
-7.74934e-14
3.76492e-13
-2.02761e-06
1.50002e-08
-3.27195e-11
7.02084e-07
4.04718e-12
-8.30529e-06
7.06744e-12
-3.86975e-12
-6.70755e-06
-2.32996e-10
1.25965e-09
5.71666e-12
2.04519e-11
-3.7404e-12
4.63566e-13
-3.06485e-07
-2.76757e-12
7.57119e-05
5.0152e-12
-6.70913e-12
-2.20064e-12
-3.79991e-05
1.61625e-06
-3.19246e-12
7.00439e-08
-1.04958e-12
-3.9928e-12
-3.29099e-11
-5.89722e-11
1.19371e-05
1.50718e-06
3.98111e-11
-9.14159e-12
-2.45811e-11
-2.60963e-13
-3.74131e-12
2.45072e-09
-7.05076e-05
-1.12244e-11
2.15221e-05
-7.33259e-13
5.00372e-06
-2.16418e-06
1.01094e-08
4.12362e-12
-1.39889e-10
3.03968e-06
2.91394e-11
4.6335e-11
5.62727e-13
-1.49639e-07
0.000388843
-7.17227e-08
-1.61968e-05
1.27866e-11
-1.82854e-05
-5.48538e-12
-5.10382e-14
-8.72001e-12
0.00014239
-4.97204e-11
1.83294e-11
-8.43034e-13
1.69012e-11
-1.60864e-11
5.86658e-07
-7.71874e-12
-3.3066e-09
-8.35036e-12
3.06166e-11
3.09114e-11
7.08637e-08
-2.93214e-11
-1.87512e-12
-1.4027e-13
-6.51691e-06
1.75121e-08
-4.45252e-06
-4.73247e-12
5.77939e-12
3.21571e-12
0.000107238
-7.12867e-12
1.89715e-11
-1.27377e-11
3.82225e-05
1.78255e-06
-6.42874e-13
-6.506e-06
1.81775e-12
-3.68893e-11
3.61287e-09
-7.94049e-05
1.3553e-11
-4.23698e-06
-1.39353e-11
-0.000127072
2.72555e-11
-2.29077e-12
1.19957e-07
-3.11817e-05
-5.95073e-13
1.55808e-11
-2.46602e-12
-1.4883e-13
-5.48681e-12
-1.10114e-11
-1.08085e-12
4.57261e-05
1.93576e-06
-1.82057e-12
-1.23027e-12
6.41669e-10
4.32862e-06
-3.18133e-12
-2.30124e-12
1.04017e-11
8.93429e-10
7.09795e-12
-1.23398e-05
1.34722e-12
-1.1941e-12
-3.3085e-12
8.3122e-10
-2.08762e-05
5.83895e-05
-3.65766e-06
-1.25768e-05
1.07512e-09
4.01049e-07
5.9328e-05
9.24075e-10
-0.000188858
4.48826e-11
1.68152e-10
-1.10082e-12
1.69288e-09
3.13637e-09
-1.9321e-11
8.9547e-09
-0.000124941
4.6785e-08
-1.08969e-06
7.98251e-05
2.13919e-09
1.6664e-12
7.98137e-11
2.8034e-11
-2.18845e-12
4.82308e-07
-8.83309e-12
6.64603e-05
-1.33171e-12
-2.79082e-11
-8.97328e-12
-4.82286e-06
1.03567e-09
-9.3136e-11
4.70387e-13
-1.31893e-06
-3.94792e-06
-2.04213e-12
9.02824e-13
2.99671e-06
-6.43101e-10
-3.46573e-08
5.9488e-12
2.78163e-11
1.09771e-08
-2.24324e-06
-2.00058e-05
-1.85961e-06
4.88201e-06
-1.99936e-09
5.68322e-06
-8.05635e-10
-2.09041e-12
-1.9382e-11
-2.80047e-12
1.04243e-11
-9.87952e-07
-3.84061e-11
2.08755e-11
1.15049e-12
9.06102e-06
3.42563e-07
-3.04632e-12
-5.09647e-11
-1.26518e-11
3.70202e-09
-1.52025e-12
-1.11372e-11
9.54121e-11
-5.85487e-07
-7.40941e-05
-1.23344e-09
-2.11707e-11
9.78803e-10
-1.59013e-06
-1.15195e-11
6.82654e-12
7.70807e-10
-1.25359e-12
-3.39929e-11
-2.00343e-12
1.79838e-09
8.36722e-05
-2.23283e-11
2.37735e-11
-1.2471e-11
1.58539e-09
-9.03481e-06
-6.81967e-11
-2.15089e-12
-8.86288e-12
-8.24105e-10
-1.70739e-10
4.31156e-09
3.03912e-05
-1.98668e-12
-2.02422e-07
-2.90695e-13
4.14464e-05
7.27658e-07
0.000310151
-1.35934e-12
-2.4462e-12
-1.68755e-12
-2.5026e-12
5.22014e-12
2.52842e-10
-1.98725e-09
2.57733e-09
-1.13588e-05
4.20814e-13
-2.14132e-11
-1.03701e-12
5.28194e-12
-1.19414e-05
5.05818e-08
2.4531e-07
1.19946e-09
1.05626e-06
-6.96485e-13
7.86976e-12
-1.86645e-10
-7.77055e-11
-6.93386e-07
3.43484e-13
1.57446e-10
-5.12038e-08
-1.87352e-12
6.65121e-05
7.57354e-05
7.8302e-06
3.59422e-06
-9.96157e-12
-6.00527e-10
-1.64396e-12
1.35859e-11
-5.5268e-12
4.63106e-10
-0.000145769
-3.27655e-13
-7.59613e-07
1.61271e-12
1.98188e-12
2.79898e-07
-1.32137e-12
7.07667e-13
-1.17949e-12
-9.09744e-12
7.99906e-08
-7.23184e-13
-6.42523e-13
3.22105e-10
2.4644e-12
3.80806e-11
-1.03736e-06
0.000106972
6.34947e-06
9.01414e-06
3.08362e-11
-9.45942e-12
-2.60469e-07
4.74399e-06
-6.59706e-12
-4.18797e-05
1.79171e-09
-7.19499e-09
5.8681e-09
6.35287e-05
-1.75036e-12
0.000220061
-7.08299e-06
6.46836e-07
-0.000130645
1.31068e-11
-3.14584e-13
5.86671e-11
-1.2539e-11
-1.34049e-12
-2.40231e-12
-4.61323e-11
-6.38439e-05
1.58543e-06
-8.76477e-12
-1.82237e-12
-7.8426e-11
-9.18205e-12
-1.48095e-10
-5.05654e-06
-0.000120918
-1.28471e-13
3.59945e-09
-5.90579e-07
3.33022e-05
-3.48821e-13
-3.86987e-06
-1.28655e-05
8.91473e-09
-6.95985e-06
1.33682e-06
-2.71713e-12
-5.98134e-11
-2.46297e-12
1.14346e-12
4.97072e-12
-4.28028e-12
-3.64913e-11
1.55012e-11
-9.69936e-07
2.90547e-08
1.04712e-11
1.72593e-10
6.59987e-05
-7.42387e-13
0.000155588
-3.37087e-12
-8.98823e-12
7.69903e-08
-2.62199e-12
-2.51564e-11
-3.48037e-07
-1.24499e-12
-3.84771e-12
5.88828e-05
-6.16736e-12
-1.38021e-10
2.26484e-07
6.47346e-13
-0.000111033
0.000294184
0.000172979
1.16921e-13
3.12963e-11
3.65722e-13
4.11253e-12
-2.74204e-12
-4.02977e-06
4.92249e-14
-1.68244e-10
-7.66012e-12
-4.13931e-12
9.64379e-05
0.000250121
3.05868e-09
-2.38856e-11
-5.89893e-12
-4.51072e-12
2.98485e-10
-1.632e-11
-4.78705e-07
-3.88269e-12
-8.72865e-05
-3.97147e-06
2.76713e-05
-9.19856e-12
4.63821e-06
1.14322e-05
-2.91199e-08
9.06645e-09
4.45676e-12
2.90064e-14
-3.01888e-06
-4.1253e-06
8.21853e-05
9.30789e-14
6.22682e-11
-0.000115486
-7.21138e-13
-1.66811e-12
1.84302e-12
-7.34103e-13
-2.77903e-11
-1.51369e-12
-3.62704e-12
-2.33429e-13
-1.79984e-08
3.27575e-06
3.82545e-06
1.7815e-11
9.56767e-10
-3.02445e-05
1.70605e-09
-1.5816e-10
-8.5022e-13
6.49224e-08
-3.55306e-12
-1.25093e-11
3.03714e-11
-3.6487e-05
-6.89635e-12
1.69881e-05
1.27147e-08
-1.32486e-10
6.51256e-08
-9.96184e-11
0.000101905
-1.59064e-11
8.42794e-12
-4.31237e-13
-7.2058e-06
3.02192e-05
6.24905e-12
1.56742e-08
-1.63465e-11
0.00018961
-8.00481e-12
-1.41802e-12
-9.18401e-05
0.000231014
-2.68818e-11
6.68359e-07
-8.30339e-06
-7.51407e-11
-8.26619e-05
-1.34925e-11
7.65523e-05
3.8879e-11
8.12102e-13
-1.91404e-10