/*--------------------------------*- C++ -*----------------------------------*\
| =========                 |                                                 |
| \\      /  F ield         | OpenFOAM: The Open Source CFD Toolbox           |
|  \\    /   O peration     | Version:  v2012                                 |
|   \\  /    A nd           | Website:  www.openfoam.com                      |
|    \\/     M anipulation  |                                                 |
\*---------------------------------------------------------------------------*/
FoamFile
{
    version     2.0;
    format      ascii;
    class       volScalarField;
    location    "200";
    object      epsilon;
}
// * * * * * * * * * * * * * * * * * * * * * * * * * * * * * * * * * * * * * //

dimensions      [0 2 -3 0 0 0 0];


internalField   nonuniform List<scalar> 
18598
(
0.000103208
8.30888e-05
1.00284e-06
2.04388e-06
1.00651e-06
1.79471e-06
0.00524461
9.28896e-07
8.53641e-07
9.54134e-07
4.29618e-07
6.27248e-07
1.41133e-06
0.00892024
1.0036e-05
6.25416e-07
1.30875e-06
0.000177784
0.000168822
5.95237e-05
0.000176935
7.12425e-07
2.51791e-06
6.77238e-07
1.10196e-06
0.000169301
5.92353e-07
0.0100345
1.36605e-06
4.97242e-07
0.000119064
8.47707e-07
0.000105803
4.28233e-07
0.000153016
5.55244e-07
1.41131e-06
1.09889e-06
1.71489e-06
9.09377e-06
0.0103237
6.03845e-07
9.98779e-07
1.68793e-06
5.53492e-07
0.00925672
6.50108e-07
9.15425e-06
1.55716e-06
1.19561e-06
3.59036e-06
1.19588e-06
8.55396e-07
1.54879e-06
1.58811e-06
5.53879e-07
0.000277702
0.00536515
0.0064498
0.000129631
1.27586e-06
8.91948e-07
8.54226e-07
2.48727e-05
1.55428e-06
1.00097e-06
1.52731e-06
1.00214e-06
9.05637e-07
1.04919e-05
1.21392e-06
1.18647e-06
1.62452e-06
1.3717e-06
9.24158e-07
6.85349e-07
1.27194e-06
8.70582e-07
8.78162e-07
1.62739e-06
1.1926e-06
1.19255e-06
7.00484e-07
9.28458e-07
1.54132e-06
1.61991e-06
6.40904e-07
0.000173682
0.000652166
0.0111962
1.40531e-06
1.09507e-06
1.28693e-06
1.44609e-06
1.19687e-06
1.58633e-06
1.55711e-06
8.08398e-06
9.45892e-07
1.43325e-06
0.000287291
0.000283756
1.50655e-06
0.000172169
0.00563696
1.66691e-06
3.76055e-06
4.31565e-06
4.18007e-07
0.00884097
6.17443e-07
1.19351e-06
2.53091e-06
1.43369e-06
8.44345e-07
0.000152489
1.60764e-06
8.9233e-07
6.13808e-07
1.04673e-06
0.000135403
4.35259e-07
0.000158961
9.95306e-07
1.19708e-06
0.00459885
0.000576165
1.04092e-06
6.004e-07
0.0120344
4.38527e-07
0.00955691
1.42526e-06
1.70441e-06
1.68454e-06
1.66666e-06
5.89329e-07
4.7805e-07
4.76579e-07
0.00628727
1.62324e-06
4.98245e-07
1.30881e-06
0.0105806
2.50479e-06
5.84121e-07
0.00501268
8.44372e-07
0.000155063
4.96936e-07
8.39238e-07
0.000855857
5.99716e-07
0.00483474
8.03365e-07
1.43822e-06
5.98962e-07
5.69334e-07
1.2479e-06
1.07355e-06
1.65291e-06
1.41468e-05
3.65571e-06
1.44632e-06
0.00488004
0.000161299
3.08744e-06
1.52248e-06
7.21728e-07
1.35756e-06
1.9084e-06
1.41108e-06
4.84154e-06
3.06241e-06
7.08271e-06
1.09092e-05
1.28622e-06
5.89389e-06
1.03521e-06
1.02459e-06
0.0155075
4.26571e-07
1.46025e-06
0.0119582
1.57281e-06
1.09914e-06
0.00626133
9.5091e-07
2.16863e-06
0.000160051
2.53484e-06
1.61583e-06
1.05426e-06
0.000282301
1.30283e-06
3.03073e-06
7.06116e-07
9.37716e-07
4.98517e-07
0.00286177
2.18481e-06
1.65873e-06
6.51832e-07
1.29697e-06
4.01583e-06
1.5099e-06
7.08831e-07
1.39462e-06
6.48295e-07
0.000548919
1.50509e-06
4.26058e-07
1.09102e-06
2.70988e-06
0.000645593
1.71465e-06
0.000673404
2.3695e-06
2.41379e-06
5.95915e-07
3.2926e-06
3.54253e-06
0.0111384
7.02831e-07
1.09505e-06
9.27616e-07
1.54979e-06
0.0104366
1.4412e-06
4.98177e-07
2.3235e-06
0.00293922
1.23799e-06
9.53137e-07
4.98665e-07
1.58178e-06
5.83961e-07
2.11894e-06
4.25927e-07
1.28883e-06
1.0005e-06
1.56595e-06
2.16361e-06
1.46991e-06
1.06736e-06
1.55213e-06
1.3415e-06
1.20404e-06
1.07112e-06
4.13527e-07
0.00547197
8.32498e-07
0.00244806
1.94288e-06
1.28287e-06
1.20175e-06
1.03852e-06
2.38112e-06
8.36056e-07
0.00997699
4.21403e-07
8.13274e-07
1.99598e-06
8.31128e-07
1.03389e-06
1.39127e-05
4.75928e-07
9.88888e-07
5.4874e-07
1.17802e-05
4.76055e-07
1.21276e-06
0.00813039
4.76887e-07
1.62218e-06
0.00613807
9.54984e-07
0.000169248
9.67222e-06
1.97037e-05
4.02249e-06
0.00177532
8.47247e-07
1.35508e-06
0.00053814
2.00347e-05
9.45083e-06
1.5692e-06
0.000569636
0.00170698
5.37202e-07
5.88275e-06
4.31461e-07
1.12163e-06
0.0116152
1.59901e-06
2.04813e-06
1.1234e-06
4.12693e-07
0.000168234
9.60513e-07
1.01084e-06
0.00203883
1.53712e-06
5.43971e-07
2.08294e-06
1.21124e-06
8.90039e-07
8.09928e-07
5.41802e-07
1.20041e-06
1.05018e-06
1.20548e-05
4.20529e-07
1.08654e-06
0.000553598
1.38849e-06
7.3683e-07
0.000131506
1.04536e-06
9.29618e-07
9.68851e-07
4.15407e-07
1.06917e-06
5.94125e-05
0.000414658
1.68165e-06
1.33971e-06
1.0844e-06
0.000156694
4.17124e-07
0.0104626
8.17248e-07
0.00712767
6.75454e-07
0.00935609
1.47048e-06
1.30867e-06
0.000494174
5.39261e-07
1.71481e-06
4.14342e-07
0.0016403
8.18354e-07
6.04514e-07
7.85213e-07
1.43189e-06
0.00013175
0.00172153
0.0114427
1.45141e-06
2.86234e-06
1.20397e-06
0.00796531
0.0103235
1.59253e-06
0.00639698
0.000342081
4.65671e-06
1.33156e-06
1.48641e-06
0.000150713
6.04545e-07
1.60174e-06
0.00661839
1.35261e-06
0.00595628
1.0155e-06
0.00752786
1.05766e-06
1.56636e-06
1.28476e-06
9.90705e-07
1.59752e-06
0.0102373
1.01279e-06
1.24662e-06
1.02495e-06
1.21234e-06
1.59355e-06
6.79214e-07
2.30396e-06
4.35346e-06
1.54615e-06
1.70201e-06
3.68631e-06
8.62543e-07
1.22518e-06
1.33684e-06
1.32832e-06
1.0101e-06
0.00908562
1.32752e-06
1.52381e-06
2.70866e-06
1.56045e-06
4.76706e-07
0.000133791
6.96282e-06
5.46489e-07
1.51772e-06
5.27687e-07
5.05788e-07
1.32464e-06
9.19604e-07
0.000250899
5.24825e-07
0.00276799
1.42317e-06
0.00441676
9.47248e-07
1.2584e-06
0.0130612
0.00413081
0.00176297
1.36382e-06
5.64549e-06
1.54922e-06
0.000152163
1.3127e-06
4.34389e-07
1.40309e-06
1.06601e-06
5.54819e-07
0.00112977
5.48316e-05
0.000279157
1.53652e-06
1.40716e-06
1.56457e-06
5.37181e-07
1.5812e-06
1.00156e-06
1.61436e-06
1.4679e-06
1.59134e-06
9.92782e-07
5.50514e-07
7.95243e-07
9.98331e-07
1.02964e-06
4.85876e-07
0.00253835
1.25106e-06
1.21779e-06
1.24334e-06
5.34051e-07
1.07856e-06
1.32413e-06
0.00735426
1.45843e-06
5.79393e-07
1.57796e-06
0.00669853
9.8284e-07
1.53266e-06
1.59406e-06
8.312e-07
1.60101e-06
6.93326e-07
0.00481149
6.09271e-07
4.22174e-07
7.93019e-07
5.87514e-07
4.2084e-07
1.53757e-06
0.00696472
1.59417e-06
4.2468e-07
6.87816e-07
1.57529e-06
4.16875e-07
1.31713e-06
0.00303443
9.80255e-07
1.44591e-06
8.16983e-07
1.60281e-06
1.13772e-06
2.31961e-06
1.11009e-06
1.61697e-06
1.02049e-06
4.55794e-07
0.000106322
2.42246e-06
4.44303e-07
1.25091e-06
0.00230738
0.0002966
0.0108568
2.18226e-06
4.76247e-07
0.010804
0.0033799
4.77488e-07
1.70916e-06
3.55599e-06
2.31013e-06
0.0202077
1.83295e-05
8.69977e-07
0.0109191
1.49185e-06
8.75821e-07
4.96853e-07
6.72226e-07
0.00232174
1.67086e-06
5.16352e-05
1.31508e-06
1.45249e-06
0.00919808
0.000151519
3.23115e-05
0.0172639
0.000219637
4.24034e-07
4.36559e-07
0.00149426
1.69611e-06
0.00147647
5.81041e-07
1.66263e-06
1.09598e-06
2.39559e-06
5.4502e-07
2.2277e-06
1.49644e-06
1.43521e-06
4.20366e-07
1.00266e-06
8.24629e-07
8.79113e-07
5.82923e-07
0.000157712
1.21672e-06
7.60917e-07
0.000138736
2.76822e-06
0.000828409
1.55514e-06
2.69718e-06
0.00194218
1.29918e-06
1.47328e-06
2.37233e-06
0.00571738
0.0152614
3.46148e-06
7.28331e-07
1.58982e-06
1.26742e-06
2.51751e-06
4.79235e-07
1.28029e-06
6.9979e-07
4.22139e-07
4.23777e-07
4.23837e-07
0.00508991
0.00143679
1.69124e-06
0.000585267
0.0010851
1.56179e-06
6.7255e-06
1.55022e-06
4.90635e-07
1.68619e-06
0.00594695
1.37497e-06
1.41991e-06
1.28757e-06
4.8683e-07
1.36865e-06
0.00740766
1.20557e-06
9.41446e-07
7.30462e-07
0.0126385
1.85238e-06
0.0106752
1.1268e-06
1.44526e-06
8.19814e-07
0.000222577
2.63339e-06
1.26009e-06
7.15104e-07
4.17717e-07
8.2697e-07
1.52526e-06
9.23114e-07
1.32697e-06
2.80329e-06
8.09124e-07
0.000257629
6.29396e-07
1.12512e-06
1.13515e-06
7.1252e-07
6.70307e-07
8.10759e-07
9.8849e-07
9.52376e-07
1.30318e-06
2.30873e-06
8.24018e-07
1.63548e-06
8.17236e-07
7.77813e-07
0.00198378
5.78941e-07
8.18524e-07
6.26827e-07
0.0116402
1.10906e-06
1.58471e-06
8.17122e-07
1.32996e-06
0.00147585
7.63562e-07
0.0117234
4.20125e-07
0.00224702
0.00628494
1.71328e-06
7.34779e-07
1.31822e-06
1.06327e-06
1.11546e-06
1.13161e-06
1.55449e-06
0.000289736
1.12037e-06
1.62577e-06
1.46711e-06
1.29915e-06
1.12768e-06
1.57886e-06
6.16815e-07
2.35186e-06
0.000165478
8.87587e-07
1.31715e-06
3.45359e-06
1.21445e-06
1.19626e-06
1.43598e-06
1.23626e-06
0.000224358
9.37748e-07
0.00569465
1.84816e-06
9.68001e-06
8.25561e-07
6.26879e-07
9.86351e-07
1.55746e-06
4.94838e-07
0.000163879
1.3186e-06
1.05436e-06
1.46286e-06
9.70596e-07
0.000144189
1.61598e-06
1.69994e-06
7.28061e-07
5.93806e-07
4.9566e-07
2.28585e-05
0.000163479
1.57398e-06
6.03081e-07
7.99742e-06
6.69089e-07
0.000521589
1.29111e-06
0.00572623
1.43246e-06
0.000149217
0.00505579
9.79845e-07
4.21839e-07
0.00637516
5.47109e-07
4.17801e-07
0.0126335
0.0108005
6.4386e-07
1.5623e-06
1.57949e-06
1.05869e-06
2.42961e-06
0.000277708
0.000587694
1.09729e-06
1.70051e-06
1.86226e-06
5.46637e-07
0.00316243
8.39486e-07
7.41656e-07
0.00981379
1.58886e-06
0.0150505
1.23531e-06
1.25863e-06
1.31219e-06
1.28356e-06
0.00386939
0.00270516
1.61763e-06
0.00525795
8.28716e-07
7.14873e-07
1.56904e-06
1.70584e-06
1.57347e-06
8.7627e-05
0.00538569
1.64012e-06
1.1144e-06
1.08052e-06
0.00402622
1.6978e-06
0.000129123
0.000159773
1.25221e-06
1.58231e-06
0.00643464
0.0145879
6.43152e-07
0.000136764
1.69081e-06
6.1269e-07
1.37778e-06
1.58206e-06
6.4283e-07
2.13172e-06
1.55646e-06
6.11777e-07
1.02896e-06
0.000203985
0.000159034
0.00129144
0.00333909
1.63447e-06
1.32945e-06
4.94903e-07
0.00182066
0.000131851
1.69476e-06
1.00642e-06
8.13395e-07
2.06789e-06
0.00013054
1.00513e-06
1.37209e-06
3.97947e-06
1.16687e-06
0.00272161
5.70137e-07
0.000521646
0.0021049
5.66084e-07
8.46776e-07
1.24416e-06
1.48049e-06
1.24138e-06
8.57216e-07
6.8956e-07
7.37553e-07
0.000151878
4.87056e-07
6.93193e-07
5.14077e-07
5.49166e-07
0.00735573
1.11754e-06
5.77007e-07
1.44567e-06
8.16562e-07
0.00622608
1.43144e-06
0.00211343
4.32449e-07
1.57735e-06
9.07053e-05
9.62905e-07
1.60845e-06
1.0721e-06
1.56612e-06
1.43214e-06
7.30893e-07
1.56554e-06
1.91186e-06
1.10785e-06
4.78594e-07
8.08557e-07
1.41829e-06
1.42214e-06
1.08617e-06
1.08233e-06
1.23347e-06
6.8708e-07
5.38426e-07
1.24967e-06
1.18258e-06
1.58713e-06
1.5649e-06
0.00196918
1.06379e-06
1.5734e-06
0.00157755
0.00770472
0.0114768
0.00113829
0.00586547
1.58666e-06
2.06544e-06
4.92942e-07
6.24814e-07
1.24623e-06
7.35173e-07
1.66888e-06
4.16406e-07
9.73722e-05
1.37094e-06
6.88056e-07
4.53146e-07
1.19843e-06
1.78904e-06
1.30887e-06
0.00445726
0.00301712
1.08073e-06
1.06471e-06
4.66196e-07
0.00501967
1.01841e-06
0.011211
5.74019e-07
3.46742e-06
7.22064e-07
6.85837e-07
1.70126e-06
7.96136e-05
0.00181735
1.01336e-06
0.000157675
1.07288e-06
0.00665215
0.00647221
8.18425e-07
5.35923e-06
9.37543e-07
8.2383e-07
1.57928e-06
1.22889e-06
7.02462e-07
4.15595e-07
0.00426773
6.3541e-07
1.46022e-06
5.11133e-07
1.23756e-06
1.57529e-06
0.0114741
1.55955e-06
7.98672e-07
9.3049e-07
8.62674e-07
7.97099e-07
4.16783e-07
1.19524e-06
6.0499e-07
1.61269e-06
5.1112e-07
1.30507e-06
0.00546506
1.38785e-06
2.15792e-05
1.60634e-06
4.16264e-07
5.87947e-07
1.15289e-06
9.88828e-07
0.000283294
0.000289862
2.30895e-06
0.0113611
7.47241e-07
1.2156e-06
1.08076e-06
1.49354e-06
1.20391e-06
1.41004e-06
1.38827e-06
1.16057e-06
1.32224e-06
1.54306e-06
7.95245e-07
1.41727e-06
1.43338e-06
7.14253e-07
9.1615e-07
0.0144149
6.71459e-07
7.96689e-07
1.10546e-06
2.09463e-06
6.68043e-07
7.53018e-07
1.47199e-06
7.53518e-07
1.1167e-05
1.14832e-06
0.00817595
1.57455e-06
1.1025e-06
1.39495e-06
1.5615e-06
7.33975e-07
1.46679e-06
0.0029371
6.10236e-06
7.53274e-07
3.15324e-06
5.98617e-07
1.18591e-06
1.56782e-06
1.00714e-06
4.72448e-07
0.0100884
1.18024e-06
0.00052949
1.27784e-06
6.39921e-07
1.80512e-06
0.000492842
1.35502e-06
1.17858e-06
0.00712368
0.000977216
2.78295e-06
0.000183552
1.01174e-06
5.72443e-07
6.04219e-07
7.30586e-07
0.00021921
8.56304e-07
0.000181862
0.000386734
1.54725e-06
5.75243e-07
1.07043e-06
4.88305e-07
5.21453e-06
0.00865733
0.000508432
1.21842e-06
7.90144e-07
0.00946488
0.00455357
0.00458977
1.2419e-06
0.00263474
0.00676716
1.53055e-06
0.00551607
7.88419e-07
2.30877e-06
1.25265e-06
6.54736e-07
8.05418e-07
3.80041e-06
4.2436e-07
0.00399509
1.59345e-06
5.75841e-07
5.88435e-07
5.64886e-07
1.6103e-06
0.00101328
0.000209292
0.000249888
1.62369e-06
0.00165146
1.21204e-06
1.36243e-06
1.27391e-06
1.34686e-06
4.54136e-07
1.08529e-06
5.88691e-07
6.19978e-07
1.12411e-06
1.13876e-06
1.03079e-05
4.48734e-07
1.53879e-06
0.000269265
0.00636042
0.000119692
8.85535e-07
0.00961419
2.27581e-06
2.58416e-06
1.21322e-06
0.00025649
1.30406e-06
1.63253e-06
2.84404e-06
1.99341e-06
7.0331e-05
0.00301622
0.00798083
6.78351e-07
0.00960978
1.09731e-06
2.83239e-06
2.30687e-06
6.52711e-07
4.23246e-07
5.79599e-07
5.74699e-07
0.0141786
1.50157e-06
0.000294346
8.71255e-07
9.4439e-07
1.50669e-06
7.85793e-07
1.20094e-06
4.35715e-07
5.59424e-07
1.53932e-06
6.32645e-07
4.34947e-07
1.33427e-05
1.14733e-06
1.75721e-06
4.73209e-07
9.24433e-07
7.34832e-07
0.00027404
1.54551e-06
1.28825e-06
9.32003e-07
5.82751e-07
6.99828e-05
3.06597e-06
1.35885e-06
3.63326e-06
0.00618591
1.52233e-06
1.95157e-06
7.38335e-06
1.24633e-06
6.9891e-06
1.1787e-06
1.80043e-06
1.65153e-06
0.00050182
0.00576914
2.10697e-06
0.0126036
7.74312e-07
1.20123e-06
0.00281921
1.10045e-06
0.000477575
0.00946385
1.7545e-06
1.28685e-06
1.05838e-06
9.56185e-07
0.00922683
4.95033e-07
1.57681e-06
1.54571e-06
7.8037e-07
7.72562e-07
1.27005e-06
1.4258e-06
8.00574e-07
8.67413e-05
1.62121e-06
0.000156987
7.82941e-07
0.00101414
1.57976e-06
1.11845e-06
5.41982e-07
0.00027895
0.00853621
7.33588e-07
1.60984e-06
0.000263114
1.58361e-06
0.000245472
7.24825e-07
4.76035e-07
1.09682e-06
1.27757e-06
1.57836e-06
1.30404e-06
6.72039e-07
0.0112016
1.11201e-06
4.24946e-06
0.000928215
1.14326e-06
1.15646e-06
8.79324e-07
0.000216699
5.47035e-07
1.4912e-06
0.0122909
2.1583e-06
1.21566e-06
6.69291e-07
0.00457116
1.1935e-06
1.23426e-06
1.59019e-06
1.41546e-05
1.3395e-06
1.17963e-06
4.81669e-07
1.08816e-06
1.48997e-06
1.60296e-06
0.000560699
1.01961e-06
1.25594e-06
1.18141e-06
0.0110195
9.01376e-05
6.71328e-07
8.54574e-07
1.83362e-06
4.78102e-07
1.52861e-06
5.87003e-07
8.39756e-07
0.000136179
1.00199e-06
4.88928e-07
7.17822e-07
1.44107e-06
5.38946e-07
8.53336e-07
8.44735e-07
7.15762e-07
4.83282e-07
0.000181383
7.67066e-05
1.2859e-06
1.27483e-06
1.34975e-06
0.000293993
1.82941e-06
4.85329e-07
1.27952e-06
2.98463e-06
2.86895e-06
0.000209681
5.77629e-07
1.63822e-06
2.37681e-06
0.000622106
6.12046e-07
0.000292472
9.60652e-07
1.0522e-06
4.79632e-07
1.422e-06
2.25867e-06
1.06725e-06
1.7612e-06
3.85518e-06
9.99683e-07
9.7975e-07
1.51842e-06
5.83669e-07
0.00947216
8.77176e-07
9.03488e-07
0.00177492
8.80659e-07
8.42956e-07
0.00940924
6.58114e-07
1.41859e-06
5.76767e-07
7.71125e-07
7.22605e-06
1.111e-06
8.05242e-07
6.03328e-07
2.00811e-06
1.19315e-06
0.00103226
8.74324e-05
4.28975e-06
9.43183e-07
1.2311e-06
1.37737e-06
1.57072e-06
0.0112981
0.0100674
0.00165033
1.34601e-06
1.94905e-06
1.41342e-06
9.318e-07
0.000206722
1.46421e-06
1.28975e-06
1.00537e-06
1.71281e-06
9.98247e-07
1.39046e-06
1.26134e-06
1.29708e-06
0.000483371
5.44842e-07
1.40298e-06
0.0038067
1.10167e-06
1.11689e-06
8.00826e-07
5.9001e-07
0.0120443
4.90751e-07
1.53585e-06
9.99477e-07
1.47061e-06
1.42372e-06
1.29195e-06
1.94793e-06
0.0110247
5.88142e-07
7.75541e-07
2.28897e-06
5.96639e-06
1.52204e-06
0.00969745
0.000912056
0.0108195
7.38698e-07
1.02883e-06
1.14924e-06
0.00212701
1.49411e-06
1.17626e-06
8.92227e-07
1.58838e-06
0.00406264
1.23587e-06
1.28379e-06
2.26407e-06
5.19175e-05
1.08015e-06
4.4988e-07
0.01112
8.48003e-07
0.00148483
1.36563e-06
5.36291e-07
9.6269e-07
7.08411e-07
8.11646e-07
1.23651e-06
1.49199e-06
6.17539e-07
9.97896e-07
1.09521e-06
0.000637227
1.38059e-06
0.000508323
0.00628961
0.000516467
6.7723e-07
0.00016067
1.6881e-06
8.83765e-05
0.00330654
9.26003e-07
1.55471e-06
1.90496e-06
1.36934e-06
0.00956381
2.25398e-06
1.46953e-06
4.2649e-07
1.24856e-06
1.54913e-06
2.51472e-06
2.1176e-06
2.70998e-06
1.10008e-06
0.0103254
7.97504e-07
1.15079e-06
1.89524e-06
1.87214e-06
1.21213e-06
1.51508e-06
7.8202e-07
6.40595e-06
0.000839346
1.17173e-06
1.3718e-06
0.00195569
1.06442e-06
1.14594e-06
5.02552e-07
2.03049e-06
1.01171e-06
1.67391e-06
4.51074e-07
4.0519e-05
7.68983e-07
1.352e-06
1.22803e-06
4.87658e-05
2.72755e-06
5.01483e-07
9.83956e-07
3.62147e-06
1.91012e-06
9.35658e-07
1.22008e-06
7.67673e-07
2.20477e-06
5.28678e-07
1.20316e-06
6.28141e-07
2.43765e-06
1.15969e-06
0.000137393
1.53015e-06
7.49153e-07
1.4207e-06
1.35597e-06
1.04254e-06
0.000133134
0.000145984
0.00609564
0.000428043
5.71023e-07
3.51167e-06
0.000591506
5.57062e-07
1.79915e-06
5.98752e-07
7.63785e-07
1.00243e-06
1.9836e-06
2.35662e-06
7.66107e-07
2.00227e-06
1.16977e-06
0.00476912
1.18901e-06
5.16414e-07
0.00757522
1.64809e-06
1.38887e-06
1.43789e-06
0.000304793
8.7096e-07
1.74422e-06
1.39179e-06
1.0647e-06
4.76065e-07
5.31104e-07
1.61217e-06
0.00407391
1.59711e-06
0.0104941
9.06881e-07
1.96633e-06
6.74602e-07
4.47018e-07
1.96038e-05
0.000145828
1.58077e-06
2.32327e-06
5.34095e-05
1.27429e-06
8.5676e-06
1.11103e-06
7.81854e-07
9.14327e-05
6.12926e-07
1.90835e-05
1.93043e-06
4.73552e-07
1.59201e-06
2.58785e-06
0.00538885
1.56903e-06
2.5352e-06
9.37104e-07
5.89466e-06
6.7013e-07
1.23484e-06
7.87564e-07
1.61719e-06
1.66886e-06
0.0010604
0.000143151
9.80901e-07
8.87537e-07
8.94901e-06
6.72267e-07
0.00648301
0.0088562
1.0926e-06
9.9091e-07
9.79135e-07
1.56754e-06
0.0105819
1.29345e-06
0.000150714
1.27821e-06
1.55487e-06
1.4212e-06
7.46357e-07
9.6148e-07
0.00913348
0.00589427
4.26603e-07
8.97228e-07
2.54934e-06
0.000576631
5.43107e-07
8.30467e-06
1.60428e-06
9.72741e-07
0.00118921
0.000236215
1.00469e-06
1.93296e-06
0.000195886
8.21411e-07
1.52497e-06
5.21217e-06
5.53387e-07
7.12166e-07
0.000254946
4.25526e-07
0.000240023
7.92312e-07
4.42299e-07
5.7808e-05
4.68514e-07
1.7287e-06
3.48593e-06
5.8429e-07
5.95762e-07
5.88472e-07
0.000139602
6.22637e-07
6.70557e-07
1.28538e-06
0.00115949
8.53848e-05
8.01486e-07
4.57871e-06
0.00979537
1.24085e-06
3.18036e-06
5.36353e-07
2.61527e-06
0.000252601
0.00815505
0.0025587
1.86177e-06
0.000488338
5.81499e-07
1.62363e-06
1.05646e-06
9.73473e-07
0.00411221
1.16239e-06
0.00015963
7.40937e-07
9.27287e-05
6.72844e-07
1.31936e-06
0.0123396
1.21789e-06
9.0294e-05
0.00640335
1.56009e-06
5.31892e-07
0.00224959
6.18882e-07
1.31135e-06
0.000156858
1.45614e-06
1.12793e-06
6.75488e-07
0.0147849
1.10737e-06
1.26184e-06
0.000151195
2.07822e-06
4.27175e-07
0.00965615
1.59773e-06
0.00667547
1.96959e-05
7.45916e-07
1.22717e-06
1.21767e-06
0.0144198
0.00253593
3.45427e-06
1.56206e-06
1.3778e-06
9.3055e-07
1.55406e-06
0.0100172
1.34234e-06
0.00403201
9.23287e-07
1.17279e-06
1.3899e-06
5.99563e-05
1.88449e-06
0.00240794
1.32052e-06
1.12087e-06
0.00331826
1.06816e-06
9.79724e-07
8.36034e-07
1.339e-06
1.41694e-06
1.51268e-06
0.00420072
1.44453e-06
1.50617e-06
1.2893e-06
5.92401e-07
5.6996e-07
0.000422996
4.38541e-07
0.00915304
9.51087e-07
6.72283e-06
5.88013e-07
1.44986e-06
7.73813e-07
1.47004e-06
1.01043e-06
1.22886e-06
1.1684e-06
1.39285e-06
0.000109539
1.42431e-06
1.67007e-06
1.04795e-06
1.64832e-06
4.9911e-07
0.00176472
1.13783e-06
4.2066e-07
1.26494e-06
2.61052e-06
8.64724e-06
7.13086e-07
5.82648e-06
0.000135766
2.17846e-06
1.22663e-06
0.000217137
8.08189e-07
1.32995e-06
5.29137e-07
7.40822e-07
1.09434e-06
5.99702e-07
1.08796e-06
7.10469e-07
4.16079e-07
0.000377104
1.5603e-06
1.26964e-06
1.65612e-06
0.0102839
7.57723e-07
1.10063e-06
1.96249e-06
4.35505e-07
7.71612e-07
1.5142e-06
5.29372e-05
1.43055e-06
3.40826e-05
1.21192e-06
4.32633e-07
1.41355e-06
6.77117e-07
7.67346e-07
0.000282713
2.43434e-06
1.38182e-06
0.00260259
0.000913914
1.39229e-06
1.43421e-06
2.03914e-06
1.29404e-05
1.22803e-06
2.52418e-06
2.05952e-06
1.61103e-06
7.24601e-07
9.02688e-07
1.73855e-06
1.06405e-06
1.66558e-06
8.64039e-07
0.000266642
1.00832e-05
2.87337e-06
1.2639e-06
0.00746391
1.40952e-06
1.33953e-06
0.0017088
1.0564e-05
1.22463e-06
4.72155e-07
0.00857988
1.92413e-06
0.00796909
1.43654e-06
4.15946e-07
5.50736e-07
1.42544e-06
4.25066e-07
0.0075098
0.0130816
1.44269e-06
6.68135e-07
1.29801e-06
0.00866678
5.88179e-06
1.36937e-06
7.37413e-07
0.00638084
4.8008e-07
1.494e-06
0.00626216
9.7678e-06
0.00578902
0.000241314
0.00653331
9.07966e-07
1.56708e-06
8.71132e-07
1.81176e-06
0.00893864
1.47946e-06
6.42415e-07
5.00623e-07
1.41345e-06
0.00626978
8.34513e-07
8.31818e-07
1.42473e-06
0.00629731
0.000272271
1.52202e-06
2.56756e-06
1.32791e-06
0.000128057
9.21796e-07
3.90839e-06
1.54839e-06
9.86443e-05
1.43267e-06
1.49817e-06
0.00605407
1.06829e-06
1.17407e-06
0.00949839
1.53848e-06
7.12817e-07
7.32183e-07
2.32e-06
1.10709e-06
9.15536e-07
1.25295e-06
4.44609e-07
6.23617e-07
2.68205e-06
1.2837e-06
0.00857792
2.11969e-06
1.96727e-06
1.08493e-06
0.000344631
6.16601e-07
7.28414e-07
1.44875e-06
1.19725e-06
4.43886e-07
0.00014171
3.63674e-06
0.000912047
1.296e-06
3.68263e-06
4.43463e-07
0.000164846
2.54447e-06
0.00929661
2.21737e-06
7.03592e-07
7.55006e-07
0.00483603
1.15781e-06
1.21982e-06
8.905e-07
4.77322e-07
0.000914352
6.64544e-07
4.18937e-05
1.54838e-06
7.3773e-07
0.00584732
0.000235089
7.49691e-06
1.30054e-06
1.64089e-06
1.52652e-06
0.000627184
7.82897e-07
7.59076e-07
2.34006e-06
0.0100538
7.67755e-07
8.16689e-07
4.489e-07
6.68318e-07
1.27513e-06
8.94889e-07
1.09433e-06
9.64121e-07
5.01412e-06
0.00139064
5.50245e-07
1.30453e-06
4.25914e-07
7.6134e-07
0.00934636
1.48405e-06
1.53076e-06
0.000450793
0.00636252
3.93608e-06
1.37706e-06
0.0126368
9.56596e-07
1.57079e-06
1.55308e-06
6.51781e-06
0.00160708
1.44123e-06
8.51429e-07
0.00665783
0.00100199
7.27453e-07
7.19458e-07
1.54458e-06
1.34878e-06
1.55154e-06
0.000165357
0.000230602
1.93105e-06
1.27212e-06
5.6875e-06
5.28688e-07
0.000104636
1.58146e-06
0.00188198
3.1357e-06
5.78341e-07
7.43777e-07
5.78961e-07
2.73585e-06
6.04284e-06
5.38709e-07
1.43352e-06
7.21609e-07
1.22399e-06
1.46741e-06
1.63795e-06
0.00173233
5.50853e-07
1.49607e-06
1.47667e-06
1.41708e-06
0.015438
1.30226e-06
1.55413e-06
7.42941e-07
7.04595e-07
1.58841e-06
1.9765e-06
1.17892e-06
1.7858e-06
0.000411894
9.55024e-07
7.32216e-07
0.00011009
6.58191e-07
7.28048e-07
0.0083415
7.60992e-07
0.000128999
6.89768e-07
1.60728e-06
1.31559e-06
4.69986e-07
1.28483e-06
1.2533e-06
7.11986e-07
0.00333495
0.000128834
5.63842e-07
5.1816e-07
1.64168e-06
1.22578e-06
5.27267e-07
0.00104513
4.89643e-07
2.18451e-06
1.65444e-06
0.00173583
2.82826e-06
6.56231e-07
1.76764e-06
1.60332e-06
1.14436e-06
0.00497212
1.55079e-06
4.47897e-07
0.00037984
2.09289e-06
1.41807e-06
1.47844e-06
5.97462e-06
9.69189e-07
1.46416e-06
5.34832e-07
6.86402e-06
0.000168692
8.40906e-07
1.03397e-06
0.0136813
1.50611e-06
0.000255116
0.000213398
6.78274e-07
0.000185663
1.55385e-06
1.17385e-06
1.56026e-06
8.39994e-06
1.57982e-06
4.75029e-07
1.39087e-06
0.00526715
1.4191e-06
1.53713e-06
1.82474e-05
9.90591e-07
1.38515e-06
0.00619402
4.66346e-07
1.50381e-06
1.5282e-06
1.28535e-06
1.14825e-06
4.19276e-06
1.51407e-06
1.56098e-06
1.56269e-06
7.19137e-05
6.02682e-07
4.66738e-07
1.4806e-05
8.48065e-07
0.00234251
9.92802e-07
6.70679e-07
0.00234548
9.1975e-07
1.9726e-06
6.76253e-07
7.68364e-07
5.90748e-07
1.16011e-06
7.53646e-05
7.9783e-07
0.0103034
1.25027e-06
1.74998e-06
1.36725e-06
0.00585678
0.000162072
1.11096e-06
0.000680595
1.53776e-06
5.17432e-07
1.42723e-06
1.5171e-06
0.000135645
0.000460244
6.75155e-07
1.73703e-06
1.45683e-06
1.00923e-06
1.14763e-06
2.41004e-06
0.00876461
7.56908e-07
0.000498809
1.55318e-06
0.000126479
0.000377931
1.27443e-06
5.04732e-07
1.50774e-06
6.24517e-05
1.60261e-06
4.57583e-07
1.23868e-06
0.000412372
0.00310007
4.93413e-06
0.00271287
1.59096e-06
0.00262405
7.63789e-07
1.57913e-06
1.38099e-06
0.00390526
5.32751e-07
6.69833e-07
1.60593e-06
5.10181e-07
5.46238e-07
3.85967e-06
5.1756e-07
3.06611e-06
1.75133e-06
1.59686e-06
1.6271e-06
0.000393732
1.39241e-06
1.40745e-06
1.54048e-06
4.89764e-05
3.57401e-06
0.00108931
1.14163e-06
9.82906e-07
1.06191e-06
0.0107376
7.26474e-07
6.07412e-07
8.71175e-07
0.00705109
0.000129495
1.30709e-06
0.00261775
7.11712e-07
6.76415e-07
2.67678e-06
0.00873824
1.27464e-06
0.00010903
1.49858e-06
0.00806197
1.04121e-06
1.1709e-06
1.13812e-06
0.00990269
1.33241e-06
1.00878e-06
9.85066e-07
1.44377e-06
8.02136e-07
1.20384e-06
1.30084e-06
0.00789351
0.000208149
1.40987e-06
1.15561e-06
1.94582e-06
0.000141497
1.53148e-06
1.42808e-06
4.18067e-07
1.92391e-06
5.03846e-07
7.45588e-05
1.5628e-06
7.24512e-07
1.29486e-06
1.90178e-06
0.00279705
0.0114599
0.00024039
0.00646783
2.37045e-06
5.39093e-06
0.0109817
2.22431e-06
0.000694571
1.61565e-06
1.94662e-06
1.32124e-06
2.04113e-06
2.56254e-06
4.65089e-07
1.37092e-06
0.00689457
2.27557e-06
0.000251226
0.000476009
5.33712e-07
7.42664e-07
5.82712e-07
1.55752e-06
1.61464e-06
0.000141526
5.16758e-07
0.0110463
1.51527e-06
1.41258e-06
1.1477e-06
0.000196636
1.61991e-06
2.261e-06
1.19265e-06
0.000356742
1.3035e-05
5.35533e-07
1.57586e-06
0.001925
2.15363e-06
3.63812e-06
9.91888e-07
9.67591e-07
1.78989e-06
1.10367e-05
0.000379978
5.31684e-05
0.000814402
2.33214e-06
0.00174347
2.22883e-06
5.60895e-07
1.41598e-06
5.57065e-07
5.75518e-07
3.4821e-06
6.02478e-07
1.65987e-06
1.62529e-06
0.00182687
4.28166e-06
5.37263e-07
4.71923e-07
7.48667e-07
2.30522e-06
1.61721e-06
9.05051e-07
5.86753e-07
0.000257542
0.00904451
2.19849e-06
8.99889e-07
1.93233e-06
0.00011919
6.82714e-07
6.72396e-07
1.8868e-06
1.11082e-06
1.39319e-06
1.33807e-06
2.82468e-06
8.63274e-05
1.4526e-06
9.66768e-07
9.11247e-07
2.24285e-06
0.00262868
4.73567e-07
8.83248e-07
1.37698e-06
5.77141e-07
1.99568e-06
2.66125e-06
0.00647262
7.18295e-07
0.000120792
1.23862e-06
0.00770909
0.000437955
0.00393845
1.50903e-06
1.22444e-06
1.48485e-06
1.41066e-06
8.68757e-07
2.84359e-06
1.25526e-06
2.35301e-06
0.000110059
9.09399e-07
7.31094e-07
1.05881e-06
1.26911e-06
0.00368191
2.66452e-06
1.4813e-06
4.58002e-07
0.000958572
1.49771e-06
7.46998e-07
1.94563e-06
8.858e-07
8.89059e-05
1.29473e-06
1.86986e-06
3.26316e-06
5.67665e-07
0.013213
0.0139049
0.00160245
0.00633028
1.58538e-06
2.04989e-06
1.3443e-06
9.31568e-07
1.36696e-06
4.59948e-07
0.00776413
1.37318e-06
0.000110527
9.2125e-07
1.15468e-06
0.000380308
1.58741e-06
4.72007e-07
1.49742e-06
6.81802e-07
0.000135834
1.59963e-06
1.18608e-06
1.76152e-06
1.04147e-06
1.61025e-06
0.00011075
0.0111008
7.25417e-05
0.00235981
1.29275e-06
1.33877e-06
2.69732e-06
3.28508e-05
1.36517e-06
0.000997604
2.08335e-06
2.96671e-06
2.56373e-06
0.0099831
1.51253e-06
0.00561569
8.44503e-05
0.000133355
0.009515
9.41124e-07
8.09996e-07
6.62252e-07
9.04211e-07
1.47235e-06
1.42329e-06
1.40866e-06
0.00931371
1.043e-05
6.54913e-07
1.54329e-06
4.48318e-07
1.49516e-06
1.48096e-06
0.000135007
0.00503673
1.62027e-06
2.26817e-06
1.37799e-05
0.00658148
1.57332e-06
0.00327726
0.00123422
2.81972e-06
2.10412e-05
0.000144914
5.35819e-07
1.50627e-06
4.81085e-07
1.05823e-06
8.85511e-07
5.97233e-07
6.18628e-07
8.84408e-07
0.000115567
1.67916e-06
1.00026e-06
1.91641e-06
0.0127734
7.33596e-07
0.00156311
1.27054e-06
1.52906e-06
2.53138e-06
1.46212e-06
4.6559e-07
2.30011e-05
1.5187e-06
1.5403e-06
0.00905569
5.70882e-07
1.52171e-06
0.000127936
1.58337e-06
0.00674824
0.00649424
0.00498399
1.40608e-06
9.71306e-07
1.17397e-06
4.28049e-07
1.32354e-06
0.000240006
5.34479e-07
1.6388e-06
1.50786e-06
8.96385e-07
0.00752207
0.000337762
1.21331e-06
1.54601e-06
1.18327e-06
5.36066e-07
1.78597e-06
6.09424e-07
1.61831e-05
1.04836e-06
0.0053122
0.000630448
0.00485131
1.38828e-06
0.00112184
0.000134969
1.71046e-06
2.79044e-06
9.6187e-07
1.06955e-06
0.000232101
2.67998e-05
0.00253237
1.56026e-06
1.66355e-06
0.00892006
1.25745e-06
5.95941e-07
1.06795e-06
1.56904e-06
6.12702e-07
1.62061e-06
1.89563e-06
9.03085e-07
1.17187e-06
2.59836e-05
2.48234e-05
1.59454e-06
2.02029e-06
0.00556788
2.05173e-06
7.78486e-07
1.20947e-06
2.98933e-06
4.25268e-07
9.08042e-07
1.61655e-06
0.00733359
7.37803e-07
0.00578994
3.04277e-06
1.60428e-06
7.9094e-07
1.49401e-06
0.000934435
8.40741e-07
1.6486e-06
1.22897e-06
0.00450426
0.000111631
1.01215e-06
2.25281e-06
7.05451e-07
0.0115919
7.00087e-07
1.29269e-06
0.00104566
0.00564632
4.66449e-07
1.72715e-05
0.000162864
1.50381e-06
0.00707862
1.19594e-06
0.013448
1.43146e-06
1.59677e-06
1.73763e-06
0.000143188
0.00303922
1.4688e-06
6.8355e-07
8.95063e-07
0.0129774
1.22059e-06
4.75786e-07
0.0103276
1.56448e-06
2.41911e-06
0.000115938
1.43575e-06
1.77733e-06
0.00993368
2.50287e-06
9.17724e-07
0.00174171
1.16412e-06
0.0025841
0.000315153
1.44544e-06
8.40709e-07
1.27019e-06
8.17724e-07
1.11246e-06
1.44752e-06
7.56959e-07
2.27792e-06
1.48619e-06
1.33163e-06
6.19062e-07
6.99787e-07
1.42415e-06
0.00927903
8.86093e-07
1.04964e-06
0.00906586
0.00679597
1.32591e-06
1.32677e-06
1.40392e-06
1.50365e-06
7.06224e-07
1.45835e-06
1.51962e-06
0.0050098
0.0116444
1.40878e-06
6.52459e-07
4.95388e-07
8.86343e-07
8.11397e-07
2.56166e-05
6.565e-07
1.26252e-06
2.16294e-06
8.83188e-07
0.00719488
1.38086e-06
0.000106818
4.76578e-07
1.25459e-05
1.77674e-06
0.00579495
2.68637e-06
4.75441e-07
1.41218e-06
1.74152e-06
1.68487e-06
1.01034e-06
4.71494e-07
0.00592879
1.45021e-06
1.05173e-06
0.0135164
1.34373e-06
0.00721117
4.14254e-07
1.58788e-06
1.45917e-06
5.77124e-07
4.16664e-06
0.00947528
0.0122017
0.0120269
0.00063889
0.00763949
2.29862e-06
8.33235e-07
1.70656e-06
8.82752e-07
1.62579e-06
0.00613069
0.00651416
8.94524e-07
1.59737e-06
5.22701e-06
0.000151283
1.2354e-06
2.6399e-06
7.76736e-06
1.31774e-06
1.5731e-06
5.57315e-06
0.000614915
1.32206e-06
0.00478112
1.3386e-06
9.05611e-07
7.25663e-07
6.4707e-05
1.32001e-06
1.16094e-05
2.06856e-06
1.67787e-06
0.000940504
1.38915e-06
9.63717e-07
1.03126e-06
1.04582e-06
0.0120702
1.62033e-06
1.16035e-06
0.0123194
1.55865e-06
1.3445e-06
0.00572488
6.35382e-07
6.89537e-05
0.00798226
0.000216377
1.92792e-06
1.52958e-06
1.61938e-06
9.44435e-07
1.30091e-06
0.00262441
5.73854e-07
2.59439e-06
8.03191e-07