/*--------------------------------*- C++ -*----------------------------------*\
| =========                 |                                                 |
| \\      /  F ield         | OpenFOAM: The Open Source CFD Toolbox           |
|  \\    /   O peration     | Version:  v2012                                 |
|   \\  /    A nd           | Website:  www.openfoam.com                      |
|    \\/     M anipulation  |                                                 |
\*---------------------------------------------------------------------------*/
FoamFile
{
    version     2.0;
    format      ascii;
    class       surfaceScalarField;
    location    "200";
    object      phi;
}
// * * * * * * * * * * * * * * * * * * * * * * * * * * * * * * * * * * * * * //

dimensions      [0 3 -1 0 0 0 0];
oriented        oriented;


internalField   nonuniform List<scalar> 
27642
(
-0.176956
0.0394518
0.137504
-0.11118
0.0482253
0.0629548
0.350901
-0.372201
0.0213
-0.11971
-0.149883
0.269593
0.388023
-0.0371216
0.467667
-0.0316835
-0.435983
-0.0215486
0.0816391
-0.0600906
-0.557454
0.557454
0.494866
-0.397906
-0.0969606
0.430567
-0.381398
-0.0491695
0.338714
-0.575209
0.236495
0.0567969
0.302793
-0.35959
-0.353384
0.49476
-0.141376
0.0964979
-0.021807
-0.0746909
0.0287787
-0.174663
0.145884
0.362366
-0.305569
-0.241179
0.320316
-0.0791375
0.40877
-0.354271
-0.0544988
-0.238195
-0.100343
0.338539
-0.51189
0.310046
0.201844
0.352966
0.0558037
0.528472
-0.245926
-0.282546
0.194078
-0.0666119
-0.127466
0.187657
0.272092
-0.459748
0.150445
0.24931
-0.399755
0.101672
-0.339868
0.554168
-0.313418
-0.24075
-0.0278747
0.00505613
0.0228186
-0.197546
0.416911
-0.219365
-0.223292
0.52801
-0.304717
-0.148178
0.358553
0.136314
-0.0194469
-0.0917332
0.514514
-0.1758
-0.396955
0.110228
0.286727
0.291207
0.168256
-0.459463
0.341149
-0.215198
-0.125952
-0.259757
0.410202
-0.0142003
0.214559
-0.200359
0.439485
-0.0814296
-0.358056
-0.0117293
-0.0161454
0.368563
0.131987
-0.50055
0.139045
-0.417713
0.278669
-0.213535
0.199335
-0.23565
0.53979
-0.30414
0.0985681
-0.00207016
-0.480552
-0.0268428
0.507395
0.0747901
0.364695
0.265084
-0.0736051
-0.191479
0.265024
0.0865259
-0.35155
-0.0354531
0.179092
-0.143639
0.293961
-0.405747
0.111787
0.148427
-0.472249
0.323822
0.340422
-0.148356
-0.192066
-0.0578167
0.277825
-0.220009
-0.230068
0.521275
0.140416
-0.39189
0.251474
-0.00099822
0.00381541
-0.00281719
-0.00600895
0.00705759
-0.00104864
-0.471028
0.301836
0.169192
0.142495
0.187756
-0.33025
0.535698
-0.348858
-0.18684
0.468337
-0.31991
0.124459
-0.123168
-0.00129129
0.250713
0.0143712
-0.287766
-0.0912945
0.379061
-0.0754828
-0.181597
0.257079
0.0676353
-0.355402
-0.538819
0.267701
0.271118
-0.152414
0.150647
0.00176665
0.0863432
-0.31685
0.230507
-0.498497
0.171996
0.326501
0.31737
-0.0525963
0.154907
-0.352453
0.248489
-0.531979
0.28349
-0.557954
0.265883
0.292071
-0.208452
0.350947
-0.434615
0.342824
0.0917907
-0.41866
-0.0159551
0.0710529
-0.252129
0.181076
-0.119591
0.384615
0.380486
-0.53867
0.280823
0.257846
-0.377583
-0.161236
-0.107344
-0.272949
0.380293
0.0537455
0.263625
-0.455464
-0.0250885
0.472462
-0.119496
-0.105057
-0.135837
0.240895
0.0576772
-0.0109218
-0.0467553
0.185035
0.156114
-0.165438
-0.218968
0.384406
0.235382
0.189883
-0.425265
0.326123
-0.165443
-0.16068
0.22052
-0.340111
-0.255041
0.197224
0.239254
-0.256007
0.0167527
-0.159677
0.00726367
0.105822
0.324745
-0.101865
0.266037
-0.164172
0.383481
-0.243065
-0.23559
-0.1563
0.0382014
-0.305942
0.267741
0.344898
0.127564
-0.00860502
0.0564447
-0.0478397
0.251792
-0.0376824
-0.214109
0.148301
-0.156399
0.00809784
-0.10318
0.145745
-0.0425651
0.407502
0.0553025
-0.462804
0.0467211
-0.0548676
0.00814657
0.0444033
0.317963
-0.201025
0.421545
0.181668
0.0124101
0.306012
-0.267811
0.497587
-0.139035
0.266036
0.0849973
-0.351034
-0.0750056
0.247177
-0.172171
-0.480995
0.0764578
0.404537
-0.298689
0.343093
0.272549
-0.417954
0.145405
-0.137277
0.403313
-0.333855
0.440085
-0.106231
-0.157524
0.430797
-0.273274
0.422945
-0.2839
-0.349422
-0.149075
0.00585918
-0.0750096
0.0691504
0.24187
-0.348026
0.106156
0.39774
-0.125191
0.501584
-0.133021
-0.0160732
-0.0285066
0.0445799
0.211011
-0.544866
-0.0874009
0.0830844
0.00431652
0.419033
-0.216278
-0.202755
-0.178139
0.202936
-0.0247975
-0.216734
0.00319889
-0.291132
0.286129
0.00500335
0.225572
0.328596
0.391582
-0.447889
0.0563074
-0.0778859
0.469468
0.0173032
-0.0105651
-0.0067381
-0.22785
0.302794
-0.0749434
0.237495
0.222541
-0.460036
-0.130287
0.340937
-0.21065
-0.0945759
0.0194498
0.0751261
0.156747
0.00601073
-0.162758
-0.266168
-0.190422
0.45659
0.0410048
-0.0496099
-0.454904
0.475294
-0.0203902
-0.30016
-0.0967954
-0.249964
0.487459
0.315093
0.182494
0.229287
-0.164258
-0.0650284
0.59704
-0.359326
-0.237713
0.0108419
-0.0903886
0.0795467
-0.450267
0.308776
0.141491
0.131421
0.194702
0.24668
0.350359
-0.524825
0.204226
0.320599
0.152124
-0.399907
0.247783
0.409893
-0.166268
-0.243625
-0.254454
-0.0366781
-0.0285787
-0.146084
0.165584
-0.0172833
-0.454377
0.100993
0.00304672
0.00236997
-0.0054167
0.387932
-0.333205
-0.0547268
0.170487
-0.0205841
-0.149903
0.217966
-0.323285
0.105319
-0.356822
-0.181847
0.13391
0.283001
0.467667
0.216069
0.202963
-0.448593
0.389992
0.0586008
-0.0267546
0.235174
-0.208419
-0.388431
-0.0601616
0.0696405
-0.32753
0.257889
-0.11989
-0.218844
0.338735
0.363899
-0.294259
0.229738
0.168001
-0.139854
0.369592
0.0521114
4.64247e-05
0.53458
-0.236084
-0.298496
-0.280843
0.227057
0.0537867
-0.0784525
0.0788279
-0.000375333
0.131789
0.272223
-0.404012
0.232189
-0.397627
0.00963689
0.00766627
-0.345009
0.509587
-0.164578
0.177118
-0.176894
-0.000223856
0.345633
0.0422987
-0.102729
0.166537
-0.0638083
0.163825
-0.23883
-0.255323
-0.162631
0.234789
0.148692
0.199655
-0.319545
0.0199148
0.150573
-0.233165
0.532907
-0.299742
0.1398
-0.428799
0.288998
0.115245
0.259894
-0.375139
0.180099
0.0246734
-0.204773
0.190362
-0.187549
-0.00281284
-0.245274
0.216883
0.0283915
0.464166
-0.207714
-0.256452
0.45772
-0.213949
-0.243771
0.104718
-0.140171
0.218912
-0.322426
0.103514
0.295307
0.371376
-0.18634
0.260467
0.2037
0.308427
-0.0665568
-0.0956049
0.314517
0.186008
0.328507
0.0390418
-0.285945
0.246903
0.00660882
-0.12717
0.120561
0.139124
-0.244181
-0.210071
0.0319326
0.174325
0.0549623
0.118911
-0.366143
0.247232
-0.219637
0.116908
0.457415
-0.419514
-0.0379004
0.110555
0.253344
-0.144685
0.15542
-0.0107346
0.0585925
-0.000915361
0.259444
0.273464
0.340367
-0.301326
0.444627
-0.304826
0.221879
0.0173749
-0.0483883
0.0214032
0.0269851
0.155821
-0.257686
-0.299827
0.415072
0.159787
-0.0246861
-0.1351
0.120932
-0.136451
0.0155184
0.23658
-0.462361
0.225781
-0.21517
-0.166228
-0.473256
-0.222762
0.313432
-0.0906701
-0.455925
0.189757
0.101677
-0.221387
0.503844
-0.216473
-0.287371
0.22736
0.23036
0.446809
-0.165105
-0.281704
-0.262962
0.394752
0.00196015
0.175157
-0.257928
-0.0229159
0.169223
0.24067
-0.0835122
-0.224874
0.308386
-0.520124
0.238639
0.281484
-0.308497
0.0845753
0.223922
-0.396866
0.13161
0.265256
0.438148
-0.423412
-0.0147353
0.00202099
-0.00301921
0.166262
-0.468489
0.302226
-0.0450305
0.22513
0.242726
0.0188501
-0.261576
-0.262916
0.498298
-0.241062
-0.100484
0.341546
0.461934
-0.419095
-0.0428393
-0.25297
0.363525
0.46862
-0.153527
0.0360239
-0.0826276
0.0466038
0.411618
0.107473
-0.51909
-0.137937
-0.419517
-0.0548068
0.297532
0.49182
-0.325557
0.106843
0.355092
0.385428
-0.140692
-0.244736
-0.382893
-0.0887729
0.471666
0.149814
0.271462
-0.421276
0.552284
-0.384222
-0.168062
0.153959
0.231468
-0.423447
-0.0147944
0.438241
-0.222154
0.0856827
0.0101531
-0.0958358
-0.00569601
-0.417751
0.222688
-0.233866
0.0111781
0.00197878
-0.000510903
-0.00146788
-0.365966
-0.130469
0.496435
0.396617
-0.0517192
0.47238
-0.0823875
0.320359
-0.0825477
-0.237811
0.0131477
-0.116328
0.0771812
-0.0980143
0.0208331
0.306068
0.162269
0.451011
-0.234941
0.228473
0.0799538
0.0265073
0.0979521
0.120912
0.351468
-0.333964
0.245098
0.0888654
0.328991
-0.207883
-0.121107
-0.170307
0.106015
0.0642923
-0.556167
0.169143
0.387024
0.556508
-0.329788
-0.22672
-0.210449
-0.36476
0.152934
-0.34249
0.189556
0.016586
-0.0326593
0.0914711
0.155705
-0.26179
-0.0547032
0.316493
0.348126
-0.195192
-0.0659582
0.504106
0.342695
0.053922
-0.509554
0.289025
0.220528
-0.438017
0.0930081
0.142193
-0.0212604
-0.249183
0.173701
0.577028
-0.398881
-0.178148
0.0295222
-0.291312
-0.228832
-0.154013
0.382845
0.136419
-0.407801
0.271382
-0.150279
-0.299987
0.401488
0.17554
-0.233803
0.318378
0.205171
0.191282
-0.396454
0.0688033
0.251556
0.0234085
0.388209
0.0933932
0.246974
0.166841
0.16215
0.164881
0.206495
-0.309812
0.49327
-0.183459
0.204662
-0.486322
0.281659
-0.213924
-0.443355
0.318414
0.12494
-0.438145
0.0721791
-0.222059
-0.224453
0.446512
0.275165
0.138484
-0.413649
-0.222973
-0.288917
0.373611
-0.32192
-0.0516913
0.001539
0.17551
-0.177049
0.237061
-0.253703
0.347096
-0.393518
0.235994
-0.0932739
0.500776
-0.046403
-0.00198529
-0.369903
-0.0850011
-0.00717056
-0.0030279
0.0101985
0.467357
-0.2797
0.103983
-0.0679594
0.529553
-0.35386
-0.175693
-0.34894
0.107761
-0.0504694
0.210023
-0.159554
-0.154679
0.198231
0.0163277
-0.343822
0.480276
-0.136453
-0.20727
0.0188908
0.188379
-0.312943
0.450453
-0.13751
0.0176794
-0.377006
-0.441542
0.13173
0.335136
-0.122072
-0.213065
-0.266366
-0.0517646
-0.155505
-0.0752352
0.0761441
-0.000908854
0.0980208
-0.295227
0.197206
0.123054
-0.116445
0.0978201
-0.338882
-0.0107483
0.0964309
-0.041028
-0.053548
0.189668
-0.26749
0.077822
-0.00016335
-0.0058456
0.256386
0.117225
0.0680977
0.0811362
-0.149234
0.340466
-0.105947
-0.234519
-0.13833
0.348614
-0.210283
0.170074
0.175559
-0.299459
0.317138
0.174066
-0.250047
0.0759812
-0.0343899
0.0282276
0.00616231
-0.246656
0.380566
-0.0820601
0.0605115
0.439492
-0.320392
-0.1191
-0.010702
0.00353144
-0.405107
0.149784
0.0883522
-0.283179
0.194827
-0.116256
-0.214358
0.330614
-0.183017
0.474266
-0.291249
0.35881
0.202072
-0.0065796
-0.0808213
-0.430811
0.331917
0.0988945
0.597723
-0.178698
-0.419025
0.50448
-0.141653
-0.362827
-0.144239
-0.243691
0.38793
0.246781
-0.15531
0.25998
0.18287
-0.44285
-0.266414
0.108422
0.157992
0.172816
0.268484
-0.375828
-0.169734
-0.0300862
0.19982
0.0208994
-0.300346
-0.171902
0.364505
0.233218
-0.272206
0.395064
-0.122858
0.200204
-0.296033
0.0958294
0.281861
0.15763
-0.00789352
0.0546146
0.297343
-0.0971393
0.202091
-0.239634
0.212879
0.203729
-0.308184
0.104455
-0.397687
-0.202936
-0.283386
0.176966
-0.16589
-0.0110766
0.153403
-0.104461
0.473047
-0.178594
-0.294453
0.558524
-0.430376
-0.128148
0.209455
0.13101
0.286501
0.158125
-0.151845
0.189135
0.283912
-0.00738631
0.10713
-0.0997439
0.122104
0.213032
0.00543079
-0.00238406
-0.138341
-0.290458
-0.147631
0.461572
-0.313941
-0.00688561
0.0465898
-0.0397042
-0.0597083
0.0655675
-0.0637754
-0.106532
-0.211019
0.447598
0.415816
0.245549
-0.0362322
-0.209317
-0.280137
0.381514
-0.3469
0.0746938
0.585861
-0.317115
-0.268746
-0.211024
-0.107836
0.31886
-0.129942
-0.465718
0.0981411
-0.14861
0.0852057
-0.0369804
0.382224
-0.14071
-0.241514
0.148364
-0.456225
0.307861
-0.313123
0.102098
0.28218
-0.193827
0.484316
-0.174437
-0.309879
-0.314184
0.244849
0.069335
-0.467512
0.18181
0.285702
-0.284905
-0.154292
0.439197
0.150996
0.197618
0.254793
-0.0651253
0.263792
0.155568
0.262117
0.156431
-0.418548
-0.480995
-0.134368
0.382857
-0.186864
0.491843
-0.304979
-0.201598
0.160524
0.0410748
0.425035
-0.197675
0.099213
-0.331139
0.231926
-0.292019
0.341158
-0.0491393
0.191948
0.292368
0.286908
-0.453177
-0.222602
-0.0944633
0.317065
-1.90518e-05
0.000413371
-0.000394319
0.297014
0.232539
0.520645
-0.233019
-0.287626
-0.252147
-0.0818165
-0.000852065
0.000833014
0.39132
-0.359453
-0.0318673
0.455961
-0.307597
-0.292476
0.228819
0.063657
0.174241
0.294379
-0.0934241
-0.186198
-0.371756
0.0771153
0.00452381
-0.0132708
0.470686
0.438131
0.0292845
-0.467415
0.422709
-0.160593
-0.219295
0.499774
-0.280479
0.461539
0.0792516
-0.256536
0.177285
-0.0241986
-0.0101913
0.278026
0.120409
-0.398435
0.225522
0.309058
-0.353818
0.488128
-0.13431
0.167013
-0.480355
0.313342
0.204549
-0.548371
-0.17098
-0.17796
0.088023
0.0251067
0.366213
0.289846
-0.191825
0.128933
0.428521
-0.256875
-0.035601
0.253988
-0.394441
0.140453
0.146262
0.0135251
0.432389
-0.0364828
-0.395906
0.234878
0.184088
0.0192759
-0.338458
0.319182
-0.14147
-0.191735
-0.0628901
-0.31154
0.330816
0.187687
0.237348
-0.0336436
-0.0643707
0.406439
-0.210417
-0.196022
-0.0174838
-0.0373487
0.0548325
0.0134681
-0.456532
0.450836
0.0396786
-0.0571625
-0.065124
0.0314805
-0.534418
0.0922096
-0.476994
0.384784
-0.446468
0.139307
0.307161
-0.102429
0.219337
0.00244178
-0.0363964
-0.0867718
0.466104
-0.12328
0.0111341
-0.0228635
-0.154479
0.379554
-0.225075
0.308676
0.227022
0.482435
-0.190375
0.462466
-0.0364425
-0.100008
-0.381835
0.0969295
-0.0670558
0.377102
-0.301267
0.258381
0.130775
-0.389156
-0.0288221
-0.0260455
0.0956302
-0.375768
-0.2986
0.157129
0.00725224
-0.00481045
-0.117416
0.291744
-0.174328
0.0203901
-0.341044
0.320654
-0.29115
-0.181532
0.190721
0.168387
-0.166848
-0.00266982
-0.178862
-0.173931
-0.350894
-0.0971591
-0.148115
-0.0985487
-0.261348
0.359897
-0.423362
0.338339
0.0850228
-0.212361
0.47122
-0.258858
-0.154301
0.0518716
0.167992
-0.32247
0.21756
-0.339632
-0.52759
0.265658
0.261932
0.270846
-0.435951
0.335659
0.15616
-0.293497
-0.125163
0.498598
-0.223254
-0.275344
0.130638
-0.373071
-0.181361
-0.261577
0.442937
0.477393
-0.235896
0.10732
-0.133622
0.0263012
-0.0775385
0.0983716
-0.114487
0.318215
0.182832
-0.176821
0.174756
-0.252096
0.0773391
0.22413
0.0961866
0.40594
-0.437624
0.0196443
-0.325586
0.00365024
-0.000536643
-0.0031136
0.049258
0.00285344
-0.399656
-0.0237059
-0.278302
-0.193383
0.471684
-0.0853656
0.393846
-0.289981
-0.103865
-0.0162485
0.177293
-0.161045
-0.493963
0.181609
0.312354
0.220783
-0.324172
0.10339
-0.301378
-0.117024
0.418402
-0.208092
-0.319497
0.223649
0.280195
0.551768
-0.328119
0.00523445
-0.00141904
-0.196721
0.194051
-0.180913
0.208018
-0.0271051
-0.181185
0.181618
-0.271427
0.0898097
0.392184
-0.119962
0.148388
0.119235
-0.521809
0.384703
0.137106
-0.0026621
0.0303038
-0.0289086
-0.00139517
0.265768
-0.409811
0.144043
-0.214417
-0.00078047
-0.185721
0.484567
-0.298846
-0.523316
0.206698
0.316619
-0.136705
0.402473
-0.0194157
0.0238502
-0.0044345
-0.265484
-0.184934
0.450418
0.111965
-0.460823
0.194489
-0.47279
-0.0503277
0.0474822
0.00284546
0.369092
-0.250181
-0.0269342
0.0483374
0.405698
-0.312524
-0.0931737
-0.124039
0.38242
-0.160719
-0.377165
0.286363
0.0908017
0.452675
-0.147092
-0.305582
0.288805
0.105041
0.309983
-0.407054
0.0970707
-0.334233
0.112174
0.273735
-0.4354
0.161665
0.0883703
-0.269967
-0.441458
-0.0080135
0.449471
-0.314244
0.136284
0.135204
-0.027884
-0.235624
-0.189354
0.424978
0.148225
-0.411154
0.262929
0.48593
-0.256745
-0.229185
0.411332
-0.0632061
0.405045
-0.151057
-0.177083
0.487066
-0.166957
-0.263579
0.430536
-0.412585
0.176961
0.426787
-0.276972
0.148786
-0.474132
0.325346
-0.300858
0.0782557
-0.103823
-0.16259
0.488995
-0.153336
0.193273
-0.230955
0.355214
0.133781
-0.307762
0.456548
-0.0917532
0.207571
0.209398
0.2892
0.260543
-0.431448
0.170904
0.294034
0.191896
0.000445891
0.000782147
-0.00122804
-0.125696
0.384175
-0.258479
0.079749
0.167033
-0.152042
-0.341717
0.111324
0.230394
-0.17783
0.263576
-0.444937
-0.0590027
-0.295319
-0.193968
0.489287
-0.103457
0.00112672
-0.192241
0.0225073
0.464965
-0.182404
-0.282561
0.189902
0.107441
-0.223616
0.392839
0.2823
0.129031
0.385868
-0.0986408
-0.287227
0.198667
0.170849
0.264318
0.14138
-0.00170076
-0.22615
0.468095
-0.167585
-0.300511
0.231456
0.109482
0.0433781
-0.425004
0.341492
0.0835124
0.151689
-0.468959
0.317271
-0.166031
0.149782
-0.213824
0.315496
0.382823
-0.246405
0.278217
-0.088315
0.256409
-0.021235
-0.353618
0.199606
0.494747
-0.177405
-0.317342
0.0967142
0.193132
0.106497
-0.35654
0.250042
-0.283829
-0.0933358
-0.337533
0.00191342
-0.092302
-0.340717
0.286014
-0.319911
0.111722
0.208189
-0.157712
-0.165876
0.474692
-0.308816
-0.143362
0.414824
-0.460291
0.332894
0.127397
0.348678
0.179332
-0.229411
0.314409
0.396938
-0.414305
0.0173662
-0.149366
0.374029
-0.224663
-0.26368
0.35589
-0.340996
-0.168558
-0.135782
0.437014
-0.301232
0.119631
0.183163
0.220504
-0.0222729
0.271582
-0.465734
0.152316
0.52155
-0.368245
-0.153306
0.0185078
-0.346038
0.425608
-0.277383
-0.126524
0.398257
-0.271733
0.493969
-0.347864
-0.146105
0.322601
-0.0549535
-0.267648
-0.473637
0.319516
-0.231151
-0.339217
0.222961
0.031597
-0.00129323
0.320537
-0.136173
-0.184365
0.149847
0.275761
0.0385044
-0.0884829
-0.14912
0.343676
0.00197746
0.00508013
0.321163
-0.43712
0.115957
0.393112
-0.486386
-0.0353922
-0.00410463
-0.0422984
0.485313
-0.342843
-0.14247
0.15032
0.114569
-0.264889
0.253561
-0.173812
-0.367834
0.218468
-0.10353
0.036918
0.135353
0.246872
-0.118013
0.157464
-0.319114
0.220565
-0.285889
0.113001
0.172888
-0.079327
-0.26139
0.291461
0.176935
-0.468396
-0.13666
-0.0340338
0.170694
-0.299402
-0.169087
0.320434
-0.488152
0.167718
0.0489325
-0.022406
-0.380951
-0.0440535
0.0476944
0.0015636
0.336684
-0.230187
0.328443
-0.476074
0.395865
0.00107339
-0.383314
0.11783
-0.00737726
0.096814
-0.0894368
0.133465
0.00872722
0.216362
0.0993128
-0.00148832
0.00350931
0.488791
-0.31455
-0.423009
-0.330008
0.230195
0.0998131
-0.124227
-0.161662
-0.391689
0.128727
0.31772
-0.0176619
-0.300058
0.00216192
0.50788
-0.185279
-0.322601
0.276954
0.135327
-0.412281
-0.324335
-0.0725313
-0.00393851
0.0644058
-0.0604673
0.213072
0.00743212
-0.101428
0.403265
-0.159907
-0.233611
0.215959
0.0933438
-0.309303
0.171767
0.0830263
-0.00490663
0.0068841
0.000852916
-0.0480613
0.0472084
0.482196
-0.278928
-0.203268
0.0321593
0.503718
-0.208543
-0.295175
0.357576
-0.192696
-0.0907798
0.262547
-0.427958
-0.0258856
0.453844
0.145399
0.0127918
-0.158191
-0.313342
0.0884682
0.302924
0.200794
-0.170315
-0.269292
0.359475
-0.0901833
0.42757
-0.137426
-0.290144
-0.268195
0.223164
0.0194186
-0.156079
-0.156648
-0.0954806
0.0533469
0.181168
0.266605
-0.447773
0.221406
-0.04665
-0.306663
0.382487
-0.144378
-0.0723566
-0.0170807
-0.377126
0.394207
-0.292343
0.46601
-0.173668
-0.22007
0.208586
0.0114842
-0.408091
-0.285186
-0.0837676
0.368954
0.160437
0.197139
-0.211927
-0.0622038
0.274131
0.399998
-0.250543
-0.149456
-0.032673
-0.0813913
0.114064
-0.491738
0.191221
0.300517
-0.0783214
0.306795
-0.0971343
0.215162
-0.118028
0.31403
-0.503474
0.189444
0.462874
-0.156806
0.0472246
-0.339244
-0.395953
0.132747
0.263205
0.455819
-0.112001
-0.343818
0.13551
0.259784
-0.395294
0.27822
0.151522
-0.429743
0.273251
0.147495
-0.420746
0.131072
-0.408441
0.27737
0.28085
-0.467714
0.103885
-0.457703
0.411806
-0.230638
0.248412
-0.460773
-0.0255787
0.0159709
0.00960784
-0.412511
0.178681
0.23383
0.521651
-0.348982
-0.17267
0.212263
0.0953315
-0.307594
-0.46918
0.176837
0.00513117
-0.00391929
-0.00121188
0.372417
-0.221421
0.101255
-0.198389
0.375412
-0.0851589
0.438325
-0.288478
0.184693
-0.474686
0.289994
0.256094
-0.131496
-0.124598
0.418518
-0.422867
0.302905
0.289189
-0.192475
-0.260125
-0.169987
0.430112
0.149142
-0.257428
0.108286
0.0485084
-0.260436
-0.362504
0.122507
0.239998
-0.173858
0.475512
-0.301654
0.305456
0.160554
-0.230682
0.352786
0.0956928
0.193496
-0.230784
-0.258639
0.489422
0.100193
-0.347137
0.246944
0.157388
0.298431
0.396351
-0.118131
0.292703
0.156444
-0.449146
0.294972
-0.0790134
0.384348
-0.281287
-0.103061
0.0839755
-0.306737
-0.083147
-0.142271
-0.109825
-0.317092
0.489049
-0.171957
0.0841289
0.229303
0.0736059
-0.106279
-0.0119931
-0.0135856
-0.00364979
0.0501603
-0.0465105
-0.0547902
-0.213405
-0.0161751
0.0307041
-0.014529
-0.113663
-0.0263959
-0.193674
-0.173131
0.18505
0.250219
-0.435268
-0.204415
0.399953
-0.126702
0.152519
0.0898221
0.443096
-0.0860646
-0.357031
0.267142
0.0111993
-0.278341
-0.140634
-0.37949
0.308049
0.135365
-0.443414
-0.344491
0.424975
-0.0804844
0.16783
-0.368855
-0.163236
-0.0168733
0.18011
0.110514
0.167702
-0.0648994
0.0152849
0.0496146
-0.148004
0.106295
0.0417091
0.361739
-0.124347
-0.237391
0.438746
-0.162403
-0.276343
-0.497822
0.350895
0.146927
0.0021057
-0.375115
-0.0556961
-0.00183987
-0.0733953
-0.305651
-0.186087
0.158508
0.29518
-0.525964
-0.0721491
0.380198
-0.16782
-0.0242228
0.192042
-0.0593924
0.326534
0.150168
0.0712389
0.084449
0.255248
-0.339697
-0.404929
0.269146
0.147451
0.214287
0.000503987
-0.00541062
0.00502654
0.00185756
0.109496
-0.422439
-0.181728
0.16661
0.0151178
0.112992
-0.337093
0.224102
0.181886
0.306905
-0.113533
-0.235711
0.349244
-0.461515
0.158464
0.303051
0.13257
-0.433947
0.0102513
0.432845
-0.103845
0.0964673
0.537152
-0.334855
-0.202297
-0.0681703
-0.10364
-0.269402
0.373042
0.156446
0.311649
-0.336842
-0.0860251
0.0722483
0.219699
-0.0693794
0.15037
-0.441462
0.291092
0.343768
-0.230776
0.165758
0.483863
-0.302133
-0.18173
0.510933
-0.117821
0.373949
-0.206119
-0.0627462
0.36567
0.0300697
0.192618
0.286415
-0.390055
0.21831
-0.305281
0.086971
-0.138132
0.119106
0.0190266
0.480212
-0.137632
-0.34258
0.0821684
-0.335774
0.253605
0.111161
0.144933
0.231779
-0.456232
-0.458198
0.122315
0.335884
0.211068
0.140558
-0.351626
0.279582
-0.37066
-0.271746
0.142879
0.00338222
-0.0410407
0.0373909
0.192962
0.28284
-0.475802
0.387106
-0.199418
-0.305692
-0.136784
0.442476
-0.370086
0.295191
0.0748953
-0.334037
0.233553
0.277594
0.135249
-0.412844
-0.231464
0.319413
-0.0879488
0.157829
0.242169
-0.082548
0.220467
0.0879189
0.176481
0.307382
0.160332
0.212085
-0.305131
0.185423
0.119709
-0.147977
0.41386
-0.439141
0.1593
0.279841
-0.0533618
0.0542147
0.15065
0.316707
0.448103
-0.297733
0.129897
-0.369426
0.239529
-0.0011753
0.146574
0.357638
-0.28118
-0.376127
0.116001
-0.0410137
-0.161811
0.202825
-0.244898
0.43786
-0.232912
0.315081
-0.144201
0.355269
-0.0158876
0.0427127
-0.026825
-0.307227
0.47424
-0.400873
0.141116
0.23108
0.263711
-0.486058
0.296747
0.189311
-0.210671
0.169657
-0.121629
0.128492
-0.00686292
-0.0432997
-0.138428
0.508647
-0.172905
-0.335743
0.14691
-0.476698
-0.30651
0.244819
0.249928
-0.118799
-0.135595
-0.365822
0.509743
-0.14392
0.0812446
0.278144
0.106204
0.32364
-0.0672539
0.37624
-0.264916
0.208897
0.273299
-0.264427
0.283278
0.196776
-0.307439
0.110663
-0.137281
0.374527
-0.237246
-0.511477
0.281226
0.23025
-0.00369603
0.00594093
-0.0022449
0.18322
0.0781968
-0.261417
-0.0896787
-0.0439429
-0.0174012
-0.292143
0.309544
0.360808
-0.276359
0.444361
-0.322046
0.305391
-0.368137
0.461866
-0.267377
-0.19688
0.265684
-0.0784884
-0.319417
0.224455
-0.241856
0.162994
-0.28041
-0.123331
0.214994
-0.247473
0.347666
0.279851
0.241699
-0.108129
-0.00301673
-0.0299952
0.0330119
0.0484228
0.275218
-0.266831
0.344301
-0.0774691
0.161245
0.286858
0.0206788
-0.0156226
-0.0309111
-0.0339884
-0.0612366
0.0547886
0.00644792
0.135826
0.159146
0.100758
-0.108144
-0.00328611
0.00831266
-0.298629
0.205542
0.0930869
-0.00268494
0.00505491
0.45287
-0.291625
0.149034
-0.00615497
-0.452775
0.149506
0.303268
-0.488181
0.280466
0.460526
-0.15507
-0.0771827
0.121424
-0.0442409
-0.481768
0.236426
0.245343
0.0698129
-0.00590972
-0.0639032
0.146023
-0.294379
0.404011
-0.0285491
-0.375461
0.278109
-0.497403
0.487634
-0.173604
0.269993
0.237887
-0.25685
0.174637
0.082213
0.0801694
-0.349461
0.128606
-0.374557
-0.0889712
-0.144895
0.219507
-0.0693399
-0.316725
0.0498939
0.333564
-0.173127
-0.32507
0.106226
0.338939
-0.132006
-0.206933
0.0430709
-0.387562
0.100205
-0.417298
0.14359
-0.426953
0.283363
-0.37525
-0.0527084
-0.162284
-0.250227
-0.0329204
0.465309
0.0784405
0.0481793
-0.12662
0.309186
0.138743
-0.44793
0.245458
-0.166206
-0.370943
0.230233
-0.00406338
0.00390003
0.154549
-0.437606
0.283057
-0.452683
0.302475
0.150208
0.0691645
-0.077058
-0.0175554
0.165794
-0.148238
0.0102377
0.121976
-0.234824
-0.259966
0.368573
-0.331702
0.114584
0.217118
0.05509
-0.211738
-0.133465
0.0437866
-0.320343
-0.133713
0.454056
0.437476
-0.282927
-0.0502686
-0.0977359
-0.0224325
0.440855
-0.180875
0.000380902
0.0687836
-0.147694
0.397004
0.12241
-0.00748425
-0.114925
0.0425921
0.106442
0.174078
-0.464396
0.290318
-0.553818
0.258499
0.284018
-0.517037
-0.0251754
0.429186
0.00452712
-0.00408123
-0.443505
0.161266
0.282239
-0.25167
0.446691
-0.31132
-0.135371
-0.179918
-0.352061
-0.0594788
-0.310607
0.279047
-0.450724
0.171676
-0.358499
0.240128
0.118372
0.148418
-0.465533
0.452638
-0.0781621
0.280406
-0.192066
0.507455
-0.315389
-0.37016
0.310767
0.259681
-0.403492
0.143811
0.308972
-0.111444
-0.197529
-0.459238
0.342962
0.116276
-0.152639
-0.46633
0.283926
-0.136155
0.148274
-0.448637
-0.140087
0.458502
-0.390409
0.0111142
0.379295
0.278342
0.159983
0.169046
-0.0147798
-0.154266
-0.383938
0.0317557
-0.108938
0.00162965
0.00350152
0.241991
-0.256438
0.0144472
0.0725144
-0.222397
-0.00178976
0.170503
-0.168714
0.285854
0.175718
-0.0201748
-0.145715
-0.311461
0.402378
-0.0909175
-0.186081
0.0228444
0.0171339
0.199749
-0.113366
0.312172
-0.198806
-0.000633446
0.0322304
0.169045
-0.148572
-0.0204728
-0.00849402
-0.0418337
0.4125
-0.414003
0.00150344
-0.370843
-0.140634
0.113754
-0.00662401
0.315607
0.00452447
-0.320131
0.303886
-0.10711
-0.0808316
0.00757783
0.0732538
-0.0454507
-0.218977
-0.224621
-0.100449
0.181618
0.257128
0.081432
-0.459015
-0.0776194
0.0862709
-0.00865148
-0.268174
-0.194445
0.462619
-0.394392
0.267868
0.204406
0.0463074
-0.165076
0.395399
-0.230323
0.433474
-0.020974
-0.335842
0.0458605
0.190318
0.13022
0.30027
0.160256
-0.103313
0.421033
0.238675
-0.240375
-0.140532
-0.264397
0.223283
-0.388358
-0.075232
0.205311
0.0725145
-0.25223
-0.110274
0.51563
-0.243079
-0.272551
-0.388159
0.254832
0.133327
0.0133818
-0.00291683
-0.010465
-0.281263
0.472576
-0.191313
-0.0571477
0.250421
-0.376805
0.1067
0.270105
0.228257
-0.34179
0.35722
-0.228614
-0.176528
-0.291991
0.468519
-0.106039
-0.353199
-0.0375705
0.353177
-0.32718
0.102558
-0.205745
-0.0114923
0.217237
0.260192
-0.149677
-0.433338
0.266381
0.0376926
-0.00269981
-0.0349928
0.283713
0.147414
-0.431127
0.124825
-0.0215116
-0.103313
-0.074821
0.249458
-0.134283
0.393965
0.408898
-0.251069
0.1039
0.259961
-0.363861
-0.282216
-0.0992369
0.381453
-0.102907
0.424071
-0.100762
0.0449919
0.00249033
0.145771
-0.163327
0.274056
0.11305
-0.295346
0.445996
-0.0459517
0.0944769
-0.337366
0.242889
0.289904
-0.154078
-0.273984
-0.0670119
-0.303148
0.232992
0.407489
-0.219729
-0.187759
-0.324064
-0.169899
0.133728
0.214285
-0.348013
0.385964
-0.147325
-0.31692
0.228457
0.0884639
-0.225093
0.0172099
-0.140461
0.356726
-0.216265
-0.111102
-0.316165
0.00470449
0.00705471
0.0690893
-0.3059
0.288238
0.0708491
-0.361795
0.290946
0.374289
-0.238779
-0.254019
0.221723
0.0322966
-0.293379
0.474987
-0.270278
0.371621
-0.101342
0.503681
0.163472
-0.159264
0.243077
-0.380499
0.137421
-0.138613
0.385837
-0.364044
-0.0217926
-0.0928687
0.341194
0.292301
0.14166
-0.433962
0.271996
-0.447403
0.175407
0.0252057
0.360631
0.167779
-0.156744
-0.197527
-0.461915
0.238942
0.211458
-0.334422
0.122965
0.32811
0.156458
0.206934
0.0956247
-0.302559
0.380403
-0.231711
-0.0955625
-0.158457
0.487547
-0.314186
-0.0216552
0.0191429
-0.0110557
-0.378574
0.0963581
0.511255
-0.324122
-0.187134
0.206311
0.079818
0.202981
-0.225392
0.0224112
-0.230323
0.256385
-0.0260625
-0.475883
0.399663
0.0762205
0.138889
-0.267391
0.452083
0.110434
0.234112
-0.344546
-0.467236
-0.122529
0.351144
-0.228615
0.264375
-0.162697
0.188276
-0.411893
0.0991344
0.209838
0.309268
-0.105419
-0.203849
0.386051
-0.142974
-0.145602
-0.277397
0.422999
0.0864971
-0.29337
0.206873
0.276519
0.0819155
-0.0780983
-0.00381716
0.368071
-0.264171
-0.386306
-0.0551519
-0.265846
0.181494
0.0843518
-0.436344
0.302645
0.133698
0.444279
-0.172283
0.00429605
-0.342932
-0.145249
-0.198954
0.294647
0.204945
0.30631
0.279656
0.157522
-0.437178
0.0410687
0.0851111
-0.12618
-0.123919
-0.292223
-0.149239
0.311382
0.113498
0.185004
-0.298502
-0.221688
-0.117634
-0.145665
0.263299
-0.227856
0.307205
-0.0793487
0.0891294
0.0356952
0.36364
-0.38072
0.141036
0.249715
-0.390752
-0.366966
0.145317
0.221649
0.179314
0.0742476
0.034937
0.0027556
-0.0298763
0.0268908
0.0029855
0.073051
0.146456
0.128894
0.245632
-0.00678866
0.147394
-0.140605
-0.287654
0.407802
-0.120148
0.481606
-0.32516
-0.396498
0.13426
0.262237
-0.125684
-0.263162
0.388846
-0.106397
-0.388559
0.103373
-0.189443
0.0216233
0.452656
-0.206635
0.238701
-0.344212
0.105511
0.233183
0.0961493
-0.329332
0.202219
-0.30925
0.10703
0.466151
-0.17469
0.418475
-0.140881
0.00267232
0.0671406
-0.388512
0.102567
0.252249
-0.377945
-0.148063
0.429072
-0.281009
0.300343
0.193626
0.0360858
0.220066
-0.337449
0.0671707
0.157248
-0.441148
-0.122297
0.294039
-0.171742
-0.132663
0.318085
0.383812
-0.0558797
-0.327933
-0.173112
0.192853
-0.0197411
0.0544879
-0.246819
-0.443527
0.154012
0.289515
0.0467439
0.217631
-0.192843
0.149543
0.294531
0.16143
0.0164494
-0.0452715
0.171466
-0.258675
0.0872095
0.00796296
-0.0383155
0.0303525
-0.165624
0.212283
-0.352743
0.136714
0.272184
-0.0373564
-0.0842723
0.0558499
-0.239074
0.183224
0.284579
-0.313756
0.0291772
-0.290086
-0.162598
-0.248523
0.0427785
-0.159137
0.0910652
0.0680718
-0.279737
-0.0431921
0.322929
0.331852
-0.120394
-0.159687
0.359975
-0.200288
0.0362281
0.308629
-0.344857
-0.190607
-0.353423
-0.00696344
0.360386
-0.035058
0.0241362
0.443612
-0.306774
-0.136839
0.0765127
-0.414072
0.126656
0.287416
0.457191
-0.164488
-0.172249
0.45734
-0.285091
-0.497618
0.199602
0.298016
0.300174
-0.0131406
-0.266596
-0.176743
0.232593
-0.21821
0.44558
-0.22737
-0.264028
0.449517
-0.278319
-0.171198
-0.237553
0.315972
0.16424
-0.000521503
-0.00152847
0.00204998
-0.309473
-0.250468
0.251191
-0.411098
0.15185
0.0561678
0.445932
-0.273699
-0.172232
-0.173073
0.192492
0.456959
-0.442339
-0.0146198
-0.163145
0.283759
-0.120614
0.154702
-0.107573
-0.0471288
-0.0888259
0.278356
-0.18953
-0.00569523
0.297945
-0.46553
-0.390982
0.265298
-0.27133
-0.210438
-0.168052
-0.365591
0.533644
0.238236
0.00731293
0.199597
0.0108818
-0.210479
-0.226035
0.274543
0.129207
-0.424442
0.288012