/*--------------------------------*- C++ -*----------------------------------*\
| =========                 |                                                 |
| \\      /  F ield         | OpenFOAM: The Open Source CFD Toolbox           |
|  \\    /   O peration     | Version:  v2012                                 |
|   \\  /    A nd           | Website:  www.openfoam.com                      |
|    \\/     M anipulation  |                                                 |
\*---------------------------------------------------------------------------*/
FoamFile
{
    version     2.0;
    format      ascii;
    class       volScalarField;
    location    "400";
    object      nut;
}
// * * * * * * * * * * * * * * * * * * * * * * * * * * * * * * * * * * * * * //

dimensions      [0 2 -1 0 0 0 0];


internalField   nonuniform List<scalar> 
18598
(
0.00776015
0.000763834
0.00570721
0.00266528
0.0055394
0.00654579
0.0176987
0.00673714
0.00676347
0.00610352
0.00668613
0.00796917
0.00669736
0.02434
0.00305963
0.007382
0.00352783
0.0156333
0.0101939
0.0144833
0.015065
0.00680654
0.00113775
0.00672394
0.00676192
0.0107254
0.00670888
0.0175386
0.00681944
0.00676494
0.00577147
0.00676098
0.00052225
0.00668925
0.0160844
0.00679232
0.00232158
0.00675725
0.0023223
0.00651633
0.017056
0.00672885
0.00678245
0.00200967
0.00677226
0.0258275
0.00673299
0.00601771
0.00193495
0.00684244
0.000625703
0.00684241
0.00673787
0.00244978
0.0039713
0.0067867
0.0123264
0.017597
0.00802068
0.01593
0.00678321
0.0067365
0.00676217
0.000441793
0.00165451
0.00665556
0.00201406
0.00668298
0.00673873
0.000713165
0.00651467
0.00671444
0.00361977
0.00682468
0.00674016
0.00673333
0.00679346
0.00676712
0.00675394
0.00261708
0.00684117
0.00684278
0.00673964
0.0067362
0.00673907
0.00507972
0.00673136
0.014459
0.0133609
0.0228872
0.00217974
0.00661882
0.00671123
0.00449698
0.0068375
0.00313131
0.00188355
0.000727068
0.006109
0.00254194
0.0120026
0.0107881
0.00403759
0.0137319
0.0122947
0.00150154
0.000716275
0.000367614
0.0067066
0.0138817
0.00789681
0.00683379
0.00117839
0.00307893
0.00676616
0.0110534
0.00275833
0.00673729
0.00767278
0.00675945
0.0116408
0.00345609
0.0131243
0.00677583
0.00671478
0.0135678
0.00389332
0.00676304
0.0067261
0.0170996
0.00268996
0.00674808
0.00410004
0.00205278
0.00217672
0.00176601
0.00670853
0.00678882
0.00679256
0.00617422
0.00303621
0.00678509
0.00505174
0.00561596
0.000723137
0.00680804
0.0144086
0.00673617
0.015
0.00677916
0.00676442
0.0107704
0.00686348
9.62086e-05
0.00671272
0.00455378
0.00689566
0.00503013
0.00682219
0.00681157
0.0015542
0.0017935
0.000706308
0.00666867
0.0112593
0.00924209
0.000823066
0.00674736
0.00673835
0.00681841
0.0028774
0.00411864
0.00536707
0.00225024
0.00549682
0.00641504
0.00239975
0.0079974
0.00676238
0.00676452
0.00896812
0.00667973
0.00274971
0.0102763
0.00673527
0.00665535
0.00615208
0.0067369
0.00136614
0.00945264
0.000860522
0.0026041
0.00676061
0.0132632
0.00234567
0.000810009
0.00679756
0.00610226
0.0067956
0.00956247
0.00136842
0.00235258
0.00690587
0.00451238
0.000625624
0.00682471
0.00680591
0.00303038
0.00691564
0.00422714
0.00595187
0.00668842
0.00676107
0.000703071
0.0120973
0.00175221
0.00900737
0.00912504
0.00108031
0.00673956
0.00822421
0.000614286
0.0227765
0.00679673
0.00677846
0.00624172
0.0017172
0.0209479
0.00218137
0.00679929
0.00187821
0.0226819
0.00670511
0.00615758
0.00677217
0.00550463
0.00680966
0.0019499
0.00668852
0.00456313
0.00672026
0.00673307
0.00141656
0.00245368
0.00681032
0.00368598
0.00669678
0.00657342
0.00683226
0.00668268
0.0180235
0.00674294
0.00900939
0.00271526
0.00671204
0.00676186
0.00672848
0.00892115
0.00676996
0.0277465
0.00679854
0.00674042
0.00618555
0.00675899
0.0067279
0.0130238
0.00680545
0.00676334
0.00677643
0.0124573
0.00680608
0.00655712
0.0245069
0.00680527
0.00259074
0.0111228
0.00671896
0.0129015
0.00570394
0.00847953
0.000492447
0.00035843
0.0067662
0.00430032
0.00617315
0.000509974
0.00574497
0.00681096
0.00873115
0.00284371
0.00678245
0.0120643
0.00668679
0.00554463
0.0176554
0.00256856
0.0147797
0.0054169
0.0066843
0.0122718
0.00671695
0.00673977
0.0207838
0.00212307
0.00678029
0.0153318
0.00679331
0.00683707
0.00670496
0.00677807
0.00661043
0.00672591
0.010361
0.00679484
0.00678588
0.00656395
0.0023674
0.00673584
0.0143769
0.00672745
0.0061899
0.00671931
0.00670572
0.00675368
0.014387
0.00622083
0.0024447
0.00438222
0.00679671
0.0119447
0.00670919
0.0210702
0.00673853
0.0191529
0.00672032
0.0284862
0.00671527
0.00411414
0.001783
0.00678416
0.00179593
0.00676083
0.0153865
0.00667284
0.00691141
0.00673569
0.00683379
0.0148072
0.014425
0.0140516
0.00275341
0.000759829
0.00677542
0.0241306
0.00451429
0.00358817
0.00813481
0.00504011
0.000684782
0.00384212
0.00190591
0.0086364
0.00721677
0.00335439
0.00525518
0.00681069
0.0181128
0.00678102
0.0191917
0.00675619
0.00443874
0.00620641
0.00671755
0.00672298
0.00715581
0.00672547
0.00673359
0.00677791
0.00678142
0.00236684
0.00664848
2.42281e-05
0.00100799
0.00674171
0.00223213
0.000661375
0.00673376
0.00673425
0.00349721
0.00621429
0.00677905
0.0159696
0.00571795
0.0015816
0.00232714
0.00598132
0.00680688
0.0127384
0.000519469
0.00677378
0.00642286
0.00680296
0.00674508
0.00523384
0.00618855
0.00731231
0.00679712
0.0145306
0.0068344
0.0127242
0.00614174
0.00672541
0.0149348
0.0134526
0.00296929
0.00667474
0.0119493
0.00149119
0.0153351
0.00417511
0.00669165
0.00683669
0.00675743
0.00677904
0.00181112
0.000487331
0.01483
0.00672068
0.00683753
0.00386809
0.00682119
0.00443457
0.00672664
0.00669636
0.000856054
0.00298308
0.00671972
0.00676959
0.00671172
0.00673399
0.00673785
0.00675055
0.00182457
0.00473284
0.00671512
0.00615805
0.00681735
0.00681978
0.00375373
0.00854866
0.00671399
0.006692
0.00681025
0.00878137
0.00683243
0.00671985
0.00387566
0.0067682
0.00419872
0.00673215
0.0163416
0.00674046
0.00677614
0.00671332
0.00669954
0.00677752
0.00361458
0.00608912
0.00673002
0.00667932
0.00672212
0.00671956
0.00676598
0.00451088
0.000322903
0.00683201
0.00343284
0.00674113
0.00409764
0.00684183
0.00167533
0.00671299
0.00236093
0.0067764
0.00674062
0.00862095
0.00108385
0.00673517
0.00478926
0.000391167
0.00791443
0.0248557
0.00117804
0.00680117
0.026477
0.0002374
0.00679911
0.00655541
0.0103174
0.000980533
0.00609731
0.000410893
0.00675267
0.0165532
0.00682028
0.00673991
0.00679141
0.00672643
0.0205669
0.00666463
0.0147753
0.00368488
0.00673395
0.0151283
0.0152033
0.00655668
0.00706882
0.0066828
0.0067247
0.00673013
0.0131378
0.00439732
0.0131934
0.0048764
0.00315646
0.0068467
0.00894074
0.00620168
0.00109525
0.00682373
0.0068353
0.00670646
0.0067223
0.00676149
0.00675994
0.00669654
0.014613
0.00678773
0.00675901
0.0105842
0.000627482
0.000654341
0.00579748
0.000931344
0.0185661
0.00397569
0.00669747
0.00198067
0.0185556
0.0101372
0.00807584
0.00670038
0.00411823
0.00682038
0.000934296
0.00675272
0.0036939
0.00677794
0.00670603
0.00668872
0.00669602
0.0170491
0.014589
0.00156739
0.0057084
0.00862122
0.00673749
0.000779216
0.006737
0.0067677
0.00149621
0.00337234
0.00672241
0.00181444
0.00671982
0.00677144
0.00672363
0.00828608
0.00670288
0.00673919
0.00670137
0.015804
0.010105
0.0227895
0.00546539
0.00673616
0.00673566
0.0117101
0.0102777
0.00681883
0.0068222
0.00671116
0.00671137
0.00213296
0.00673866
0.00326267
0.000572189
0.00671546
0.0115206
0.00678691
0.00538285
0.00683683
0.00681884
0.00672574
0.00671379
0.00675787
0.00829251
0.00352317
0.00425322
0.00674589
0.00158669
0.00674835
0.00738281
0.00309926
0.00669542
0.00671264
0.00678569
0.00763621
0.00684624
0.00262083
0.00671413
0.00113531
0.0140971
0.00676478
0.00847886
0.00690028
0.0018598
0.0103242
0.00287417
0.00670043
0.00646719
0.00680332
0.00549997
0.0055699
0.00409579
0.00919431
0.00580071
0.00280909
0.00974607
0.00495512
0.00556178
0.00671982
0.00561804
0.00097656
0.0108257
0.00683589
0.00503972
0.00273519
0.00679923
0.00672112
0.00302357
0.00681542
0.013148
0.00615915
0.00035902
0.0104391
0.0168172
0.00671311
0.00603461
0.00676789
0.00672021
0.00676313
0.0110592
0.00671777
0.00672292
0.00663328
0.0067194
0.0166838
0.00267477
0.00217355
0.00669974
0.00671171
0.00673089
0.00647562
0.0103113
0.0067264
0.00673564
0.0154712
0.0068476
0.00814542
0.00513484
0.00253959
0.0057763
0.0087386
0.00406297
0.00671777
0.00669666
0.00701602
0.00615917
0.00671577
0.0153118
0.0221087
0.00504745
0.00252361
0.00241551
0.0067215
0.000714394
0.0148724
0.0130114
0.00684642
0.00130589
0.00903735
0.00670428
0.00607377
0.00674103
0.00670318
0.00104322
0.00672022
0.00915958
0.00680861
0.00671615
0.00671724
0.00670147
0.00236686
0.0229223
0.00569774
0.0180051
0.00676111
0.00681323
0.00476751
0.00122288
0.00673122
0.0126791
0.0182832
0.00673164
0.00675091
0.00683378
0.0151096
0.00158877
0.0166071
0.010675
0.0067869
0.00344954
0.00584862
0.00999513
0.0067736
0.0121146
0.00195066
0.00679852
0.00237284
0.00336725
0.00673625
0.00320383
0.00449897
0.0067987
0.00673695
0.00956498
0.0144263
0.0135084
0.00565544
0.00215807
0.00425568
0.00672882
0.0191406
0.0166052
0.00211821
0.00673278
0.00675668
0.00147341
0.0163753
0.00651374
0.00255329
0.0145663
0.0068201
0.0203569
0.0066912
0.00762068
0.0136759
0.00669081
0.0067509
0.00621764
0.00676175
0.00672098
0.0068339
0.00676832
0.00673014
0.0143951
0.00675742
0.00672811
0.00673304
0.00565801
0.00456069
0.006844
0.00673191
0.00681476
0.00675166
0.0187863
0.00173543
0.0122629
0.00669099
0.00397229
0.00763937
0.00671853
0.00219694
0.00682492
0.00674004
0.00340441
0.00673738
0.00360999
0.0136218
0.00324308
0.00673365
0.00675493
0.00683123
0.00331156
0.0108492
0.00293678
0.00672063
0.00677292
0.00670745
0.00678049
0.00661959
0.00540355
0.00399898
0.0166614
0.0067121
0.00561178
0.0167535
0.00482513
0.0216626
0.0145702
0.0032157
0.0067315
0.0017256
0.00676997
0.00671559
0.00681673
0.00673337
0.00245241
0.00678549
0.00376486
0.00669492
0.00708103
0.00672545
0.00682857
0.00180327
0.00652535
0.0187325
0.0117605
0.00591117
0.00677686
0.00679902
0.0152481
0.00672685
0.0118945
0.00669184
0.00065493
0.00904852
0.00699641
0.00289432
0.00361263
0.0195409
0.00658864
0.0169877
0.00592732
0.00573758
0.00581047
0.00671087
0.000586402
0.00682692
0.00675936
0.00675393
0.00672128
0.00678188
0.00678717
0.00172226
0.00677875
0.00288999
0.0068007
0.00953349
0.00674044
0.0100514
0.00273897
0.00668171
0.00683003
0.00675865
0.00682018
0.00671934
0.00682289
0.00680333
0.00269374
0.00680555
0.00330302
0.00184646
0.00673725
0.000708605
0.00209789
0.00670011
0.00481598
0.00624243
0.00677382
0.0105733
0.00900837
0.00151577
0.0209936
0.00671926
0.00449164
0.00672066
0.00675866
0.00674404
0.00672128
0.0062904
0.00682303
0.00383839
0.00424695
0.00682033
0.00206926
0.0067944
0.00673671
0.00625961
0.00886926
0.00671894
0.00669762
0.00195007
0.00336378
0.00673816
0.00674069
0.00140757
0.00672561
0.00263496
0.00630118
0.00958949
0.00673887
0.00675338
0.00671401
0.00260515
0.00670438
0.001685
0.00888942
0.000847199
0.00670298
0.0112736
0.00502056
0.00672178
0.00672054
0.00672755
0.00680069
0.00901827
0.00661773
0.00464102
0.0051086
0.00677268
0.00368292
0.0105846
0.00679822
0.00667163
0.0183935
0.00508148
0.000990458
0.0160011
0.00662025
0.00462684
0.00680877
0.00670359
0.0141734
0.00675995
0.0159785
0.0105644
0.006721
0.00669145
0.00518739
0.00673161
0.00988494
0.011774
0.00419321
0.00460202
0.00668736
0.0179672
0.0184047
0.0189988
0.00677846
0.0146289
0.00550714
0.00401098
0.0101195
0.0067001
0.0014717
0.00671012
0.00695212
0.00675976
0.000453476
0.00755205
0.00999591
0.000217522
0.00681002
0.00670222
0.00669083
0.00673883
0.00858951
0.0109465
0.0125121
0.00291525
0.0185751
0.00453423
0.00301842
0.00265263
0.00386116
0.00672762
0.00670396
0.00718912
0.00673626
0.00684285
0.00672327
0.000449188
0.00670555
0.00302145
0.0154507
0.00724669
0.00452084
0.00678635
0.0199397
0.00123114
0.000798976
0.00673677
0.0146032
0.00504986
0.00254424
0.000872402
0.00841909
0.00418846
0.013795
0.00987586
0.00672451
0.0216081
0.00676639
0.000742489
0.00128219
0.00671704
0.00699235
0.00669213
0.00681
0.00604667
0.00672029
0.0144237
0.00670528
0.00673936
0.00675979
0.0067536
0.00491839
0.0066947
0.00551126
0.0041802
0.00677894
0.00668508
0.00375857
0.00675831
0.00945291
0.00680027
0.00614916
0.00670078
0.0147474
0.00173057
0.00671258
0.00622846
0.00693703
0.00663703
0.000664858
0.00680476
0.000563526
0.0188333
0.00118739
0.00189573
0.00174828
0.00672494
0.000876193
0.00680497
0.00198334
0.00221351
0.00922596
0.00267587
0.00292911
0.01635
0.00670746
0.00668524
0.0149744
0.00684418
0.0120649
0.0114251
0.00104707
0.00273614
0.00677554
0.00674188
0.0255123
0.00673172
0.00672791
0.00163595
0.00681692
0.00670665
0.00681557
0.00553993
0.00675794
0.0126955
0.00227944
0.0169171
0.00682055
0.00971316
0.00394904
0.00411168
0.00684689
0.0139917
0.0187292
0.00670947
0.0015735
0.014985
0.0067571
0.0115747
0.00670592
0.00679661
0.00684435
0.00366881
0.00236709
0.00624862
0.00668733
0.0211954
0.0067175
0.000493617
0.00896003
0.00676227
0.00683111
0.00678653
0.0134005
0.00609937
0.00676234
0.0176623
0.00102357
0.00484591
0.00671575
0.0190893
0.0067947
0.00677055
0.00672827
0.00365822
0.0035008
0.00669083
0.00675454
0.00682715
0.00664229
0.00590691
0.00932362
0.00601787
0.00682305
0.00681227
0.0141528
0.0128808
0.00693928
0.00683335
0.00143653
0.0067457
0.00676149
0.0067051
0.0067546
0.00568118
0.00683226
0.00677292
0.00280671
0.00680965
0.00683994
0.00670804
0.0067091
0.00330187
0.00674868
0.0158682
0.0140952
0.00680932
0.00671983
0.0056735
0.0128737
0.00139658
0.0067641
0.0068187
0.000626797
0.000517545
0.0140033
0.00674584
0.00184738
0.00128617
0.0141138
0.00672605
0.0136462
0.00671643
0.00391725
0.00674
0.00682292
0.00252236
0.00679637
0.0080151
0.0114597
0.0068327
0.00675139
0.00429194
0.00669902
0.025663
0.00678016
0.00673965
0.0172022
0.00772714
0.00671094
0.0243102
0.00688451
0.00364422
0.00673812
0.00674997
0.000395537
0.00675434
0.00666831
0.00487405
0.0173188
0.00680469
0.0102962
0.00993755
0.000382788
0.00672545
0.00677231
0.00278561
0.00235538
0.020275
0.0202478
0.0168628
0.00679652
0.00298625
0.00673436
0.00854942
0.00740359
0.00673046
0.00373805
0.00655228
0.002886
0.00672407
0.0029837
0.00629977
0.00681528
0.0128903
0.00669915
0.00672223
0.00808346
0.00674663
0.00684736
0.00676612
0.00673644
0.0174539
0.00674517
0.0067587
0.00677092
0.00683158
0.00555459
0.00668978
0.00105981
0.0242245
0.00701222
0.00668128
0.00250481
0.00037144
0.00671976
0.0177117
0.00393158
0.0191923
0.00670505
0.00475256
0.00683384
0.00599836
0.00362445
0.00567891
0.00635527
0.00210729
0.0107721
0.00641841
0.00680157
0.00394876
0.0157635
0.0068314
0.00671041
0.0212909
0.00671842
0.00974673
0.00673817
0.00670206
0.00671216
0.00672613
0.00667605
0.00645503
0.00387742
0.00671412
0.00676497
0.00683786
0.0133384
0.00673666
0.00904371
0.00886479
0.00726529
0.00668223
0.0105766
0.00122451
0.0147968
0.00518785
0.0067245
0.00156639
0.00112852
0.00683805
0.00480705
0.0105833
0.00673244
0.00748456
0.00672856
0.00124599
0.00196163
0.0111741
0.000694739
0.00671847
0.0175541
0.00676298
0.00676458
0.00124781
0.0121731
0.0068113
0.00481119
0.00669124
0.000496472
0.00263901
0.00571621
0.00683662
0.0209953
0.00678988
0.00683989
0.00679225
0.00117912
0.00683184
0.00485241
0.00671182
0.0126695
0.00662426
0.00242331
0.0061321
0.0141923
0.000680803
0.00678542
0.00671682
0.0169135
0.00171866
0.00675771
0.00608144
0.00670165
0.00264497
0.00671448
0.00678953
0.00672083
0.00217891
0.00675514
0.0143826
0.00146264
0.00670219
0.00673257
0.00356997
0.00671574
0.0135863
0.0161122
0.00298727
0.0142759
0.00673283
0.000867406
0.0136696
0.00669247
0.0024581
0.00494424
0.00670156
0.00662593
0.000964298
0.00442959
0.00666423
0.00272521
0.00682757
0.0164259
0.00671207
0.00673616
0.0190684
0.00555153
0.0060561
0.00680598
0.000654943
0.00671002
0.00122501
0.00561657
0.00597459
0.0067319
0.00674945
0.00565434
0.0149238
0.00342556
0.00590342
0.00615437
0.0150612
0.00679953
0.00669966
0.0153908
0.015968
0.00133578
0.00470211
0.00372473
0.00680357
0.00415604
0.00556662
0.00666268
0.0127647
0.0067254
0.0152876
0.00103807
0.00679031
0.00672195
0.000998107
0.00166711
0.00583664
0.000802058
0.00675539
0.0176555
0.00679995
0.00674512
0.00696416
0.00341835
0.00179038
0.00989804
0.00962934
0.0067563
0.00690419
0.000828691
0.00681909
0.00610625
0.0125103
0.00683771
0.00674906
0.00593136
0.00675979
0.0224256
0.00652848
0.0156418
0.0063431
0.0050713
0.00683683
0.00670393
0.00601919
0.0137169
0.0034586
0.00668266
0.00627911
0.00113456
0.0120451
0.00688772
0.000895843
0.00661979
0.00608951
0.0077509
0.00890536
0.00678454
0.00962979
0.00339675
0.00675324
0.00254856
0.000645448
0.00669311
0.0067271
0.0133467
0.00668121
0.0104325
0.00533336
0.00670652
0.00220716
0.00679831
0.00515694
0.00542357
0.00669396
0.00672415
0.0066947
0.00780086
0.0067371
0.00673553
0.00466441
0.00789386
0.00436472
0.00563539
0.000576256
0.0216162
0.00672091
0.00469195
0.00673926
0.000872121
0.0131532
0.0173177
0.0126644
0.00131625
0.00993752
0.00677594
0.0026858
0.00608311
0.0067177
0.00836426
0.00673439
0.0164876
0.00674805
0.0130856
0.00673481
0.00679254
0.0167461
0.00454437
0.00615301
0.0116288
0.00549168
0.00672048
0.0101182
0.00671691
0.00463632
0.0168657
0.00362399
0.00683839
0.00676287
0.0104828
0.00684596
0.00622344
0.0163205
0.0029476
0.00667969
0.0245674
0.00555181
0.012762
0.0126155
0.00673974
0.00676702
0.00677603
0.00774988
0.0129245
0.000836805
0.00268513
0.00680715
0.00683182
0.00164603
0.0114203
0.00679015
0.0136444
0.0068321
0.00680901
0.00666013
0.00653286
0.00127956
0.00912916
0.00253189
0.00544286
0.00678534
0.00678348
0.00671836
0.00671031
0.00210406
0.00683655
0.00672051
0.0135951
0.00677273
0.00671445
0.00674659
0.00672287
0.00669122
0.0141352
0.00670029
0.0244883
0.00676447
0.00666753
0.00672679
0.00496313
0.00671251
0.00296007
0.00672304
0.00672961
0.00672831
0.0062905
0.00174554
0.00241141
0.00171408
0.00360469
0.00295202
0.00680378
0.0146061
0.00811837
0.00671056
0.00671181
0.00907457
0.00615198
0.00672352
0.00685941
0.00944678
0.00802099
0.00450832
0.0105112
0.0054932
0.00681363
0.00673929
0.00670193
0.00403739
0.0067407
0.00671945
0.00670657
0.00679589
0.0171868
0.00681868
0.00628483
0.00254896
0.0197174
0.00682373
0.00652289
0.00115711
0.0066876
0.00673072
0.00167461
0.00300704
0.00259311
0.00404334
0.00579826
0.0066839
0.00671915
0.00676512
0.00672162
0.0141614
0.00653772
0.00679604
0.007931
0.00490342
0.00672181
0.00283822
0.00348374
0.00332385
0.00605169
0.000820865
0.00227261
0.00297958
0.00670299
0.0064673
0.0014496
0.00589661
0.00662455
0.00670626
0.0153349
0.000443088
0.0093701
0.00118695
0.0203026
0.00671702
0.0062588
0.0129795
0.0085912
0.00649988
0.00679709
0.000732169
0.00875367
0.000369637
0.00525148
0.00670272
0.0067855
0.00682805
0.00672041
0.00209387
0.0140001
0.00265358
0.00681328
0.00683726
0.0115704
0.000785398
0.00628352
0.00671483
0.00624055
0.00677651
0.00671211
0.00765726
0.0119767
0.0125096
0.00994598
0.00975817
0.00316606
0.0036085
0.00672644
0.00221187
0.0262515
0.00662654
0.00603228
0.00680244
0.00681082
0.00449454
0.00671211
0.00816793
0.00249659
0.00904492
0.0142002
0.0067154
0.000927283
0.00679378
0.00734948
0.00683413
0.00124606
0.00204488
0.000595601
0.00539855
0.00386359
0.00523866
0.00684171
0.00669717
0.00861543
0.00315925
0.00670455
0.0065507
0.00131371
0.00671903
0.00683446
0.00671335
0.00670754
0.00674083
0.000659398
0.0067496
0.0141756
0.00598744
0.00365948
0.00682075
0.00336006
0.00678878
0.00671011
0.00677767
0.00671367
0.00671245
0.00839431
0.000689188
0.0135353
0.00550561
0.000593643
0.0067069
0.00346841
0.000772769
0.0197645
0.000968713
0.0067578
0.00669954
0.0169762
0.00675838
0.00600259
0.00622305
0.00678387
0.0130968
0.00572764
0.00461933
0.00341585
0.00663664
0.0116274
0.00825157
0.000480027
0.00674154
0.00226885
0.00246387
0.00417032
0.00675859
0.00682289
0.00106586
0.0219369
0.00672695
0.00673016
0.00379195
0.00680487
0.00671251
0.00323957
0.00671998
0.00671473
0.000758241
0.00185853
0.00674619
0.00674484
0.00668303
0.00672482
0.00584821
0.00682045
0.00682186
0.0144218
0.000900737
0.00820726
0.00678813
0.0149506
0.00683137
0.00314022
0.00466186
0.0004553
0.0101785
0.00681249
0.00670975
0.0189024
0.0058343
0.00732876
0.00525386
0.00521115
0.00570339
0.00681979
0.0115252
0.00905679
0.00125413
0.00676876
0.000472014
0.00691841
0.0108373
0.00680033
0.0182109
0.00648206
0.00669362
0.00674359
0.00515821
0.00102787
0.0156931
0.00690469
0.00507383
0.00334332
0.0068002
0.00673575
0.00371889
0.0164453
0.00603202
0.00337459
0.00671691
0.00286415
0.00726015
0.00673607
0.00681439
0.00664124
0.00675334
0.00579027
0.00111384
0.00674214
0.00206419
0.0126333
0.00671144
0.00684982
0.000835573
0.00681122
0.00798016
0.017233
0.00670338
0.0156147
0.00474865
0.0028033
0.00678629
0.00679478
0.00653815
0.00624817
0.00670919
0.00142627
0.016227
0.00476048
0.00674413
0.00486129
0.00680712
0.00686058
0.00614679
0.00675888
0.000975062
0.00188555
0.00131645
0.0162672
0.00673355
0.00108974
0.00261946
0.00642752
0.0148831
0.0068096
0.00668303
0.00616866
0.00242752
0.00301505
0.00681448
0.000573817
0.00671912
0.00677418
0.00697673
0.00594208
0.000543646
0.00672481
0.00401749
0.00598915
0.00171395
0.0151273
0.0154577
0.00671746
0.0139106
0.00671929
0.00683836
0.00348906
0.00167947
0.0067782
0.00672604
0.00179932
0.0194429
0.0036579
0.00223609
0.0128632
0.00672843
0.00672284
0.0108318
0.00696504
0.00182108
0.00453722
0.00628309
0.00670202
0.00086201
0.00222158
0.00676323
0.00681444
0.0147858
0.00566585
0.00691182
0.00820184
0.00672909
0.00957723
0.0067538
0.00671033
0.00533653
0.00325262
0.00243709
0.0067143
0.00675455
0.00673653
0.00673085
0.0144251
0.00673415
0.0221667
0.00493053
0.00178865
0.00682785
0.00734684
0.0102881
0.00643054
0.0126712
0.00672557
0.00675636
0.00311174
0.00208656
0.0102076
0.0143085
0.00678161
0.00174583
0.00285393
0.00683285
0.00674846
0.000806542
0.0162613
0.00664207
0.00323244
0.00252188
0.00864865
0.0139045
0.00335336
0.00675649
0.00162869
0.0153411
0.00303611
0.00670299
0.00634895
0.0123741
0.000370405
0.00370993
0.0139291
0.00275036
0.0144642
0.00675355
0.00552375
0.00677326
0.0221224
0.00692773
0.00681038
0.00529982
0.00673583
0.00689058
0.0113437
0.00680087
0.00166743
0.00170368
0.00265678
0.00225427
0.00745282
0.00259315
0.00682661
0.00672717
0.0154998
0.000537556
0.00902875
0.00671357
0.00669181
0.00684087
0.0193737
0.00670596
0.00681692
0.00673562
0.0192263
0.0146631
0.00673906
0.00334007
0.00670251
0.00679422
0.00247179
0.0211599
0.00667696
0.00521934
0.00319897
0.00175034
0.00475974
0.00683328
0.00873917
0.0264336
0.00671633
0.00619405
0.00674768
0.0067187
0.00675
0.00512211
0.00663509
0.0131337
0.00794319
0.00680388
0.006759
0.00374049
0.00762695
0.00503765
0.00680517
0.00679877
0.00282263
0.00677443
0.00556482
0.00322764
0.00682704
0.00680798
0.00216933
0.0143773
0.0163033
0.0150094
0.0069909
0.00118502
0.006344
0.0169735
0.00239278
0.00618413
0.00221152
0.00102594
0.00678098
0.00272386
0.000802164
0.00681017
0.00867141
0.000774559
0.00373049
0.0136887
0.000698216
0.00469384
0.00671384
0.00696972
0.00666212
0.00613835
0.0116414
0.00679843
0.0185082
0.00671212
0.00326912
0.00637897
0.0147721
0.00143321
0.00125986
0.00671188
0.0171312
0.000471026
0.00677436
0.00393228
0.0018871
0.00135174
0.00115225
0.00683263
0.00611578
0.00442914
0.00055156
0.00380854
0.00561123
0.00660655
0.00126461
0.000707335
0.00168859
0.0066909
0.00381711
0.00669058
0.00681163
0.00633087
0.00681096
0.00260507
0.00498263
0.00313125
0.00625784
0.00676814
0.00713245
0.00664956
0.00118877
0.00659137
0.00678594
0.00615104
0.0147121
0.0220175
0.00113055
0.00646513
0.00210371
0.01027
0.00673742
0.00671343
0.00139245
0.0064806
0.00222253
0.00681474
0.00103164
0.000653211
0.00325642
0.00631417
0.00627612
0.00234282
0.00417866
0.00604941
0.00671105
0.00644455
0.00379722
0.00233682
0.000690545
0.0189866
0.00672545
0.0155407
0.00629939
0.0132174
0.0151915
0.00140712
0.00680419
0.00670785
0.00682602
0.0068314
0.00671187
0.00106739
0.0036525
0.00151367
0.00358578
0.006428
0.00670655
0.00683719
0.00635434
0.0151815
0.00753205
0.0119822
0.00404737
0.0111009
0.00671908
0.00676692
0.00156629
0.002495
0.0142403
0.00648639
0.00152185
0.00447577
0.00679599
0.0143477
0.0135847
0.00706083
0.00779774
0.00222261
0.00111072
0.00680908
0.00675655
0.00681064
0.00812257
0.00142047
0.00673893
0.0142255
0.00672097
0.00613675
0.00598665
0.00679658
0.00673516
0.00681496
0.00673618
0.00957833
0.00674151
0.00683408
0.00222736
0.00683673
0.00268332
0.0134673
0.0190275
0.005997
0.00198008
0.0028441
0.00565927
0.0165479
0.00929325
0.00675611
0.0157792
0.00245421
0.00168063
0.00125041
0.0181618
0.00680976
0.0102768
0.00400166
0.0113412
0.000549532
0.00622061
0.00681675
0.00681011
0.00621845
0.00677507
0.00681126
0.00272494
0.0214962
0.0147908
0.00673773
0.00632637
0.00668941
0.00370654
0.00178317
0.0124343
0.0265421
0.0044839
0.00157738
0.00725747
0.0190298
0.00680063
0.00169541
0.000939311
0.000922138
0.000490116
0.0106757
0.00676051
0.00217662
0.00678134
0.00676544
0.00671986
0.00671738
0.00679446
0.0041809
0.0126436
0.00651245
0.00626304
0.00116384
0.0148772
0.00670412
0.00716244
0.00682503
0.00277976
0.00360666
0.00683103
0.00685533
0.00600574
0.00491371
0.0042525
0.0204285
0.00681113
0.00182884
0.016087
0.00570121
0.000509252
0.00972724
0.0115608
0.00672012
0.00610206
0.00671321
0.00671178
0.00683878
0.0159016
0.00679916
0.00144805
0.00417113
0.00644294
0.0244673
0.000726614
0.000647524
0.00178073
0.00671876
0.00674727
0.00152167
0.00679858
0.00678887
0.00683793
0.0270525
0.0137063
0.0186416
0.0063781
0.000485702
0.00978092
0.00900723
0.000918727
0.00676096
0.00684414
0.0155882
0.017367
0.0226809
0.00672608
0.00674624
0.000571334
0.00676625
0.00671766
0.00679674
0.00679489
0.00680998
0.0063653
0.00662324
0.00671524
0.00573397
0.00758224
0.00901101
0.00259966
0.00353563
0.00186354
0.0031092
0.00657384
0.00680527
0.00142078
0.00668525
0.00673863
0.0027413
0.0194906
0.00651178
0.015155
0.00466843
0.00169339
0.00515236
0.00170114
9.47942e-05
0.00317766
0.00191898
0.00675824
0.0260841
0.00241596
0.00683405
0.00321887
0.00680121
0.00295916
0.00677851
0.00664187
0.00251814
0.0103253
0.00682076
0.00414889
0.0156583
0.00191745
0.0224315
0.00536154
0.0140856
0.00674824
0.00236167
0.00139076
0.00905455
0.0135343
0.00201317
0.00675375
0.00669394
0.0140545
0.00675721
0.00670852
0.0201728
0.00671868
0.00117312
0.0124224
0.00531628
0.00209525
0.0178512
0.010129
0.00674152
0.00468892
0.00482812
0.0125011
0.00239482
0.00211698
0.00682604
0.00671562
0.00673767
0.00684631
0.00672023
0.00666127
0.00173198
0.00311987
0.00680052
0.00679026
0.00669879
0.00673844
0.014181
0.00673844
0.00635708
0.0199363
0.00675927
0.0068066
0.00671417
0.00200912
0.00432151
0.00670183
0.00681628
0.00300844
0.017898
0.0185263
0.00366495
0.00681467
0.00468291
0.00676605
0.00483489
0.0154297
0.00681361
0.00672015
0.00188544
0.00670796
0.0169544
0.00576394
0.00810591
0.00672167
0.00339963
0.00236168
0.00291024
0.00107642
0.00671662
0.00682232
0.00123956
0.00319186
0.00671092
0.00671909
0.000616728
0.00365461
0.00683606
0.00442466
0.00670201
0.0138718
0.00669292
0.00671844
0.00165103
0.00680146
0.000527969
0.0274267
0.0155932
0.00271793
0.0134525
0.0028417
0.00173422
0.00673692
0.00158288
0.00577575
0.00221434
0.00557006
0.00705274
0.00462845
0.00308663
0.000458057
0.0109465
0.00611033
0.000729337
0.00031924
0.00677534
0.00307925
0.000687983
0.0158888
0.00683617
0.0186657
0.00673178
0.00671753
0.00682677
0.00673117
0.006766
0.00358438
0.00308086
0.00314168
0.0151761
0.00544893
0.00682997
0.00665557
0.00672047
0.0179903
0.00458351
0.00608021
0.0169851
0.00665521
0.00677948
0.0160547
0.00671628
0.0152945
0.00918789
0.0160741
0.00167781
0.00250579
0.00133513
0.00671269
0.00683585
0.00222236
0.00680023
0.000855421
0.00669808
0.00672926
0.00673945
0.000782718
0.0067239
0.00216314
0.00681396
0.00683272
0.00721483
0.0210367
0.000753383
0.00184326
0.00668597
0.00671509
0.00139993
0.0207183
0.0164289
0.0158113
0.00227144
0.00544175
0.000741418
0.000692064
0.00257393
0.00123234
0.0166585
0.00327294
0.000452099
0.0149414
0.0100066
0.00059961
0.0036425
0.00674343
0.00672873
0.00673342
0.0139408
0.00683297
0.00169426
0.00681386
0.000539688
0.00673996
0.00270392
0.00673171
0.00682575
0.0150972
0.00670016
0.00154078
0.00363968
0.0173758
0.00221234
0.0144728
0.00679263
0.0216958
0.00669502
0.00671951
0.00961575
0.00228339
0.00328143
0.00675131
0.00681044
0.00103647
0.00191951
0.00682142
0.006812
0.00192531
0.00346858
0.00682224
0.00680652
0.0065506
0.00220214
0.0229371
0.00655481
0.00675161
0.00130739
0.0212257
0.00682497
0.00681732
0.0183998
0.00350437
0.00665161
0.00683696
0.00671018
0.00344662
0.00671896
0.00228383
0.00595497
0.00671402
0.00677718
0.00065279
0.00456788
0.000771644
0.000970589
0.00297255
0.00682279
0.00675972
0.00672094
0.000886125
0.00670537
0.000455333
0.00753424
0.00672435
0.0067027
0.0068057
0.00671561
0.00145399
0.00608124
0.00670728
0.00160148
0.00162791
0.00672577
0.00671288
0.00683642
0.00514589
0.00676489
0.00673002
0.001072
0.00788808
0.000960276
0.00370921
0.00690897
0.00841101
0.0153853
0.0130717
0.00193577
0.00550984
0.000511052
0.0109835
0.0066922
0.00668743
0.01298
0.00172155
0.00681646
0.0277879
0.00778474
0.00671967
0.00156894
0.00683208
0.00619398
0.00926398
0.0086238
0.000416001
0.00862117
0.00244742
0.00366471
0.00678131
0.000870136
0.00676509
0.0129516
0.00844944
0.0274865
0.00677718
0.00620224
0.010928
0.0158507
0.00672082
0.00668419
0.000604524
0.00347424
0.00675284
0.00155044
0.00237442
0.00260389
0.00675107
0.00235822
0.000502332
0.00730037
0.00412659
0.00197072
0.00307398
0.00804741
0.00674314
0.00667949
0.00682602
0.0257718
0.00671638
0.00470282
0.00078889
0.00657482
0.00661986
0.00290901
0.00201565
0.0035878
0.00310765
0.00671843
0.0067345
0.00662658
0.0119081
0.0225891
0.0098776
0.00629446
0.00293188
0.00676314
0.00674967
0.000667492
0.00290578
0.00170039
0.0035188
0.00276116
0.00674722
0.0032537
0.0135207
0.0107379
0.00671547
0.0106821
0.0142727
0.0068026
0.00335369
0.000764841
0.00110465
0.00188301
0.00120782
0.00796034
0.00431173
0.00304258
0.00679022
0.00677963
0.0151488
0.001836