/*--------------------------------*- C++ -*----------------------------------*\
| =========                 |                                                 |
| \\      /  F ield         | OpenFOAM: The Open Source CFD Toolbox           |
|  \\    /   O peration     | Version:  v2012                                 |
|   \\  /    A nd           | Website:  www.openfoam.com                      |
|    \\/     M anipulation  |                                                 |
\*---------------------------------------------------------------------------*/
FoamFile
{
    version     2.0;
    format      ascii;
    class       surfaceScalarField;
    location    "400";
    object      phi_0;
}
// * * * * * * * * * * * * * * * * * * * * * * * * * * * * * * * * * * * * * //

dimensions      [0 3 -1 0 0 0 0];
oriented        oriented;


internalField   nonuniform List<scalar> 
27642
(
-0.161182
0.012837
0.148345
-0.099172
0.0379357
0.0612363
0.359502
-0.380325
0.0208238
-0.0954793
-0.148258
0.243737
0.394354
-0.0348525
0.466849
-0.0314995
-0.435349
-0.050361
0.117692
-0.067331
-0.557458
0.557458
0.493733
-0.396505
-0.0972274
0.427626
-0.383619
-0.0440069
0.339154
-0.576447
0.237294
0.0499969
0.300649
-0.350646
-0.351462
0.492046
-0.140584
0.0553808
-0.0085285
-0.0468523
0.00866023
-0.168362
0.159702
0.355589
-0.305592
-0.235731
0.317932
-0.0822007
0.407865
-0.362621
-0.0452445
-0.305851
-0.0247532
0.330604
-0.480549
0.33565
0.144898
0.349844
0.058021
0.527836
-0.246183
-0.281653
0.195247
-0.0641847
-0.131062
0.18791
0.271452
-0.459362
0.149891
0.248238
-0.398129
0.032864
-0.338715
0.55415
-0.313704
-0.240446
-0.0221267
0.0182256
0.00390107
-0.195837
0.415111
-0.219274
-0.224012
0.528604
-0.304592
-0.152522
0.357223
0.13651
-0.00997344
-0.0891985
0.515637
-0.176483
-0.425193
0.165841
0.259352
0.291864
0.167717
-0.45958
0.333991
-0.208795
-0.125196
-0.258668
0.40856
-0.0174855
0.218421
-0.200936
0.405429
-0.0982674
-0.307161
-0.0211157
-0.00101091
0.368886
0.131524
-0.50041
0.138817
-0.41618
0.277364
-0.217002
0.199517
-0.236241
0.540146
-0.303905
0.0610604
-0.00567966
-0.479149
-0.0267067
0.505856
0.0946678
0.310761
0.266321
-0.0792509
-0.18707
0.263489
0.0862275
-0.349717
-0.0462828
0.193437
-0.147154
0.292284
-0.403599
0.111314
0.148741
-0.469929
0.321188
0.345495
-0.168578
-0.176917
-0.0562419
0.277251
-0.221009
-0.229714
0.521577
0.0701486
-0.405996
0.335847
-0.0158795
0.0244711
-0.00859158
-0.00505111
0.0130139
-0.00796278
-0.4722
0.360805
0.111395
0.14115
0.186709
-0.327859
0.533012
-0.347057
-0.185955
0.466437
-0.317696
0.112908
-0.113895
0.000986009
0.245561
0.0207601
-0.285161
-0.0927968
0.377958
-0.0703407
-0.184609
0.25495
0.0689971
-0.354158
-0.53575
0.266258
0.269492
-0.14067
0.15764
-0.0169701
0.086645
-0.315805
0.22916
-0.496724
0.171256
0.325468
0.316563
-0.0514354
0.155107
-0.350945
0.247333
-0.529245
0.281912
-0.55605
0.265008
0.291042
-0.207392
0.348543
-0.432772
0.340755
0.092017
-0.416624
-0.0161483
0.0690299
-0.252058
0.183028
-0.11916
0.38265
0.378512
-0.536769
0.279945
0.256825
-0.375314
-0.160436
-0.106529
-0.272922
0.379451
0.052596
0.263967
-0.454034
-0.0251151
0.485351
-0.135506
-0.180314
-0.106271
0.286586
0.0167094
0.00549076
-0.0222001
0.179676
0.154315
-0.164741
-0.21668
0.381422
0.234431
0.189597
-0.424028
0.324462
-0.163089
-0.161373
0.219218
-0.338379
-0.254295
0.198053
0.234255
-0.256521
0.022266
-0.161292
0.0206216
0.100242
0.327384
-0.096958
0.261672
-0.164714
0.388085
-0.317936
-0.345659
-0.0603367
0.020291
-0.269367
0.249076
0.331421
0.15393
0.0378225
0.0726899
-0.110512
0.247404
-0.0474401
-0.199964
0.151986
-0.15281
0.000823426
-0.101267
0.139533
-0.0382654
0.408057
0.0558668
-0.463924
0.0660254
-0.023239
-0.0427864
0.0415245
0.314064
-0.200217
0.419435
0.186859
0.00838809
0.276297
-0.256006
0.496412
-0.139189
0.320826
0.00652732
-0.327353
-0.0729624
0.246771
-0.173808
-0.480993
0.0764148
0.404578
-0.297017
0.338541
0.271315
-0.416292
0.144978
-0.0637585
0.384584
-0.338943
0.439487
-0.100544
-0.243393
0.464069
-0.220676
0.421448
-0.282631
-0.348277
-0.148447
0.000869716
-0.101279
0.100409
0.367222
-0.408682
0.0414602
0.39615
-0.124836
0.501442
-0.132555
0.00748167
-0.0325141
0.0250324
0.203652
-0.542595
-0.0767237
0.0770877
-0.000364013
0.416276
-0.23098
-0.185296
-0.177151
0.203795
-0.0266443
-0.21765
0.000647975
-0.283137
0.268886
0.0142513
0.225877
0.328273
0.391612
-0.448507
0.056895
-0.0785551
0.470167
0.0482152
-0.00529723
-0.0429179
-0.229336
0.302833
-0.073497
0.23828
0.22216
-0.46044
-0.131007
0.337637
-0.20663
-0.0939211
0.0262535
0.0676675
0.16387
0.00375096
-0.167621
-0.265105
-0.190908
0.456012
0.0965918
-0.0587693
-0.453061
0.473357
-0.0202956
-0.26436
-0.160833
-0.249688
0.487968
0.3139
0.182511
0.261903
-0.185271
-0.0766326
0.592776
-0.357207
-0.235569
0.00188545
-0.0858451
0.0839596
-0.450146
0.306972
0.143174
0.129031
0.195431
0.243474
0.349303
-0.524
0.1944
0.3296
0.150866
-0.397779
0.246913
0.408134
-0.165716
-0.242417
-0.24007
-0.0430674
-0.0139248
-0.154437
0.162329
-0.0103425
-0.451997
0.100535
-0.0133256
0.0146202
-0.00129463
0.314855
-0.290963
-0.0238912
0.181924
-0.0267074
-0.155217
0.218526
-0.3226
0.104074
-0.355496
-0.181274
0.132526
0.282586
0.466849
0.197999
0.218277
-0.446222
0.346037
0.100185
-0.0442722
0.216735
-0.172463
-0.344586
-0.101636
0.0985772
-0.306314
0.207737
-0.117929
-0.225941
0.343871
0.342032
-0.243455
0.228637
0.167514
-0.139459
0.368096
0.0545368
-0.0112172
0.535942
-0.236893
-0.299049
-0.277845
0.227317
0.0505279
-0.0756762
0.064977
0.0106992
0.131014
0.272313
-0.403327
0.23019
-0.394931
0.0080878
0.0401274
-0.343131
0.506862
-0.16373
0.182086
-0.181806
-0.000280925
0.292305
0.0225499
-0.106935
0.174483
-0.0675476
0.16561
-0.238573
-0.254193
-0.162099
0.295667
0.0924182
0.210651
-0.32858
0.0238067
0.158117
-0.233438
0.532302
-0.298864
0.131434
-0.420985
0.289551
0.114701
0.260576
-0.375277
0.142492
0.0224453
-0.164937
0.194259
-0.19218
-0.00207899
-0.246345
0.216314
0.0300314
0.466797
-0.209417
-0.25738
0.446419
-0.197457
-0.248962
0.105925
-0.152208
0.219463
-0.321712
0.10225
0.294398
0.363669
-0.183992
0.262518
0.204278
0.351789
0.015433
-0.0942257
0.313688
0.186711
0.328926
0.0387451
-0.28407
0.245324
0.00967861
-0.126537
0.116858
0.113229
-0.293543
-0.210618
0.0334669
0.205949
0.0559546
0.155066
-0.355579
0.200513
-0.228526
0.121591
0.457109
-0.419197
-0.0379126
0.139686
0.202346
-0.148717
0.153006
-0.00428881
0.020822
-0.00411263
0.259683
0.272619
0.338218
-0.299473
0.436312
-0.304878
0.22205
0.0122051
-0.0108016
0.0113495
-0.000547816
0.156473
-0.253431
-0.300216
0.414917
0.158322
-0.022597
-0.135725
0.113104
-0.100821
-0.012283
0.235079
-0.459528
0.224449
-0.212358
-0.171261
-0.4737
-0.223493
0.312914
-0.089421
-0.455259
0.190154
0.103356
-0.198836
0.504838
-0.217099
-0.28774
0.21176
0.234659
0.44534
-0.164655
-0.280685
-0.262981
0.393995
0.00179352
0.180293
-0.257483
-0.020362
0.168687
0.239447
-0.0817637
-0.225693
0.307457
-0.517072
0.237135
0.279937
-0.307419
0.0846247
0.222794
-0.395088
0.131234
0.263854
0.439009
-0.424513
-0.0144959
0.00357917
-0.0194587
0.167244
-0.466923
0.299679
-0.0326162
0.175108
0.205641
0.0362607
-0.241902
-0.262412
0.496844
-0.23969
-0.100092
0.339782
0.460377
-0.417597
-0.0427804
-0.209699
0.349385
0.467552
-0.153652
0.0481351
-0.0485635
0.00042837
0.411323
0.108759
-0.520083
-0.137911
-0.419547
-0.0705032
0.276144
0.490579
-0.323334
0.106534
0.353843
0.395899
-0.127534
-0.268365
-0.382774
-0.0897238
0.472498
0.149532
0.270255
-0.419786
0.552715
-0.38411
-0.168605
0.16594
0.229959
-0.423408
-0.0155467
0.438955
-0.220774
0.123993
-0.0289355
-0.0950575
-0.00505929
-0.418349
0.221938
-0.235127
0.0131886
0.0265163
-0.00879003
-0.0177263
-0.36384
-0.129864
0.493704
0.425023
-0.0936014
0.490263
-0.144226
0.249304
-0.067167
-0.182137
0.0100476
-0.111315
0.0788551
-0.0891598
0.0103047
0.303708
0.162729
0.442747
-0.244748
0.34839
0.00339888
0.0230964
0.0898121
0.168432
0.321831
-0.333256
0.245468
0.0877877
0.40103
-0.189535
-0.211495
-0.26145
0.0898844
0.171565
-0.556676
0.16965
0.387026
0.566441
-0.306023
-0.260418
-0.21116
-0.365287
0.149785
-0.334896
0.185111
0.0249984
-0.0175167
0.0892497
0.157521
-0.280266
-0.0172523
0.297518
0.338841
-0.189056
-0.0663894
0.505398
0.323254
0.101768
-0.506803
0.287438
0.219365
-0.435769
0.0926377
0.107488
0.00561602
-0.246884
0.176543
0.577537
-0.398841
-0.178696
-0.0155091
-0.264757
-0.228125
-0.152958
0.381083
0.136703
-0.406679
0.269976
-0.152223
-0.297923
0.401487
0.17605
-0.232512
0.317136
0.20438
0.190672
-0.395051
0.0525709
0.196733
0.0222752
0.389048
0.0928678
0.24535
0.127781
0.273249
0.160674
0.202994
-0.308817
0.491684
-0.182868
0.142789
-0.501219
0.35843
-0.213217
-0.439807
0.319277
0.120531
-0.435656
0.0718161
-0.222118
-0.224827
0.446945
0.273989
0.138041
-0.41203
-0.248548
-0.232001
0.31884
-0.271195
-0.047645
0.0033489
0.175295
-0.178644
0.24529
-0.252097
0.344965
-0.421881
0.178488
-0.0939415
0.501999
-0.00880682
-0.00199482
-0.368335
-0.0847256
-0.0249657
0.0111351
0.0138305
0.467072
-0.279162
0.0708039
-0.0226688
0.528464
-0.353338
-0.175126
-0.345035
0.109303
-0.00174376
0.18957
-0.187826
-0.155189
0.198898
0.019523
-0.345308
0.481438
-0.13613
-0.238942
-0.0262698
0.265211
-0.310528
0.450052
-0.139523
0.0172437
-0.374451
-0.440321
0.131505
0.333791
-0.120558
-0.213233
-0.329411
-0.00966587
-0.229276
-0.0659314
0.0554185
0.0105129
0.094354
-0.292169
0.197815
0.122117
-0.112438
0.0973453
-0.337036
0.016689
0.107304
-0.04617
-0.0477511
0.191425
-0.267625
0.0761997
0.00845586
-0.013507
0.206853
0.111987
0.0833272
0.0793066
-0.162634
0.335879
-0.104577
-0.231302
-0.155457
0.354433
-0.198976
0.150068
0.142237
-0.296611
0.313854
0.17565
-0.250094
0.0744434
-0.0316711
0.0766801
-0.045009
-0.246326
0.378851
-0.100971
0.0506101
0.437866
-0.319014
-0.118852
-0.0104156
-0.0145501
-0.403513
0.14932
0.0865732
-0.282319
0.195745
-0.117477
-0.211016
0.328493
-0.182517
0.472724
-0.290207
0.358352
0.20149
0.00184838
-0.0785721
-0.429374
0.330708
0.0986655
0.59555
-0.177845
-0.417704
0.502564
-0.14129
-0.361274
-0.143252
-0.242942
0.386194
0.246282
-0.157032
0.257575
0.185122
-0.442696
-0.232235
0.102152
0.130083
0.189252
0.268472
-0.375001
-0.168964
-0.031703
0.200667
0.0136115
-0.298157
-0.171772
0.363447
0.232103
-0.268095
0.370499
-0.102404
0.198539
-0.29272
0.0941809
0.280588
0.157277
0.0470946
0.0189308
0.294033
-0.0954937
0.190038
-0.221109
0.176837
0.204376
-0.307576
0.1032
-0.398321
-0.137102
-0.364117
0.173989
-0.175348
0.00135849
0.153874
-0.103186
0.473285
-0.178513
-0.294772
0.558694
-0.430486
-0.128208
0.206235
0.129644
0.284457
0.151855
-0.121127
0.189131
0.284154
0.0939969
0.0950204
-0.189017
0.120608
0.213184
-0.00219549
-0.0111301
-0.12825
-0.292735
-0.147004
0.460007
-0.313003
0.01197
0.027961
-0.039931
-0.0969685
0.0978382
-0.16833
-0.0931199
-0.209905
0.444984
0.438907
0.242416
-0.0424318
-0.199985
-0.252535
0.401545
-0.32702
0.0589248
0.58701
-0.318027
-0.268983
-0.211099
-0.106357
0.317456
-0.129524
-0.465955
0.142612
-0.144356
0.0780847
-0.0401489
0.38547
-0.109917
-0.275553
0.147744
-0.455278
0.307534
-0.311757
0.100659
0.281385
-0.194811
0.485123
-0.174404
-0.310719
-0.313583
0.245601
0.0679823
-0.465941
0.181313
0.284628
-0.283603
-0.153577
0.43718
0.165457
0.188976
0.254914
-0.0634885
0.262823
0.156036
0.261323
0.156336
-0.417659
-0.480993
-0.133837
0.381171
-0.187545
0.492484
-0.304939
-0.233202
0.140345
0.0928572
0.413152
-0.201392
0.0988933
-0.329392
0.230498
-0.290198
0.341131
-0.0509328
0.191867
0.293256
0.285443
-0.451159
-0.235105
-0.0845119
0.319617
-0.0167401
0.02643
-0.00968988
0.296571
0.231894
0.520887
-0.233296
-0.287592
-0.252472
-0.080784
-0.0254894
0.00874926
0.390177
-0.357814
-0.0323627
0.455014
-0.307271
-0.291797
0.229527
0.0622705
0.174293
0.29326
-0.0919746
-0.185696
-0.370354
0.095706
0.021986
-0.0132548
0.470364
0.439646
0.0280494
-0.467695
0.421838
-0.160515
-0.219554
0.499801
-0.280247
0.461921
0.0769572
-0.255477
0.17852
-0.0572644
0.0255933
0.278058
0.119701
-0.397758
0.226285
0.309658
-0.352653
0.486743
-0.134091
0.166529
-0.47953
0.313001
0.20432
-0.549628
-0.166412
-0.178622
0.0807405
0.0255339
0.364643
0.286924
-0.19257
0.128878
0.42858
-0.257241
-0.0345562
0.252647
-0.39242
0.139773
0.147191
0.0111308
0.429726
-0.0362582
-0.393468
0.23464
0.18355
0.0192095
-0.338503
0.319293
-0.147713
-0.14325
-0.0646561
-0.311602
0.330811
0.17388
0.239272
-0.0234776
-0.0656822
0.438462
-0.145783
-0.292679
0.00117551
-0.0163921
0.0152166
0.012453
-0.456581
0.451522
0.0237129
-0.0225374
-0.0604358
0.0369582
-0.535136
0.091789
-0.475977
0.384188
-0.467653
0.147066
0.320586
-0.10707
0.228661
-0.0152577
-0.03584
-0.0780545
0.463959
-0.123204
-0.00420634
-0.0169094
-0.152969
0.378351
-0.225382
0.307183
0.225829
0.482736
-0.190485
0.461938
-0.00757415
-0.0932468
-0.380223
0.0966195
-0.0150899
0.35074
-0.297419
0.258169
0.130016
-0.388185
0.0180791
-0.0413181
0.146826
-0.399361
-0.269632
0.121918
0.00354621
-0.0188039
-0.0808001
0.30901
-0.22821
0.0204734
-0.341094
0.320621
-0.291128
-0.194528
0.237129
0.170095
-0.166746
0.0371693
-0.231697
-0.164091
-0.359909
-0.0988597
-0.147485
-0.0978945
-0.260117
0.358011
-0.44742
0.341367
0.106053
-0.205934
0.469877
-0.263943
-0.159816
0.0527454
0.168628
-0.321597
0.217704
-0.338262
-0.528021
0.265921
0.2621
0.269848
-0.434503
0.333439
0.157139
-0.29235
-0.124274
0.498677
-0.223506
-0.27517
0.199708
-0.371377
-0.181567
-0.260665
0.442232
0.50203
-0.317075
0.105917
-0.130466
0.0245487
-0.0764827
0.0867875
-0.113212
0.317588
0.189816
-0.186065
0.201376
-0.326424
0.125048
0.21948
0.0984522
0.403866
-0.435366
0.0338396
-0.303206
0.0228707
-0.0108592
-0.0120116
0.0411173
0.0134195
-0.397168
-0.0502526
-0.277822
-0.19341
0.471232
-0.0840559
0.391745
-0.288797
-0.102948
-0.0280778
0.191569
-0.163491
-0.494644
0.182263
0.312381
0.223344
-0.329457
0.106113
-0.301513
-0.116325
0.417838
-0.20845
-0.319571
0.224179
0.280659
0.552571
-0.328392
0.00947594
0.0149951
-0.222761
0.25993
-0.185602
0.209861
-0.0242593
-0.280901
0.166191
-0.268119
0.101928
0.391375
-0.119062
0.160064
0.118453
-0.522431
0.384733
0.137698
0.00733416
0.0446344
-0.0990807
0.0544463
0.265347
-0.408674
0.143327
-0.2111
0.00230533
-0.184985
0.483124
-0.298139
-0.523967
0.207435
0.316532
-0.135975
0.401322
0.00732797
0.0275908
-0.0349188
-0.263878
-0.183724
0.447602
0.111567
-0.458624
0.194462
-0.472284
-0.0294055
0.0422894
-0.012884
0.372832
-0.217766
-0.00282382
0.0141733
0.398909
-0.310105
-0.0888036
-0.123257
0.381425
-0.160377
-0.401441
0.352906
0.0485343
0.472568
-0.166745
-0.305823
0.28769
0.104056
0.31008
-0.406429
0.0963492
-0.334416
0.112298
0.27283
-0.434388
0.161558
0.0843919
-0.269001
-0.439431
-0.00796122
0.447392
-0.309287
0.130665
0.132036
-0.026119
-0.234811
-0.189251
0.424061
0.0996052
-0.42365
0.324045
0.486057
-0.256834
-0.229224
0.400239
-0.0613977
0.402953
-0.150306
-0.17626
0.486339
-0.169059
-0.261877
0.430936
-0.411602
0.176792
0.425314
-0.275782
0.1602
-0.493416
0.333216
-0.306118
0.0710123
-0.091337
-0.140898
0.488077
-0.154637
0.18007
-0.22751
0.35301
0.135067
-0.312753
0.472953
-0.0657981
0.30112
0.209654
0.289023
0.25966
-0.430426
0.170767
0.294003
0.192054
0.0231557
-0.0108023
-0.0123534
-0.125175
0.3823
-0.257125
0.077611
0.16867
-0.151943
-0.315742
0.0989512
0.216791
-0.249031
0.262662
-0.444229
-0.0494227
-0.298103
-0.192066
0.490169
-0.09059
0.00102695
-0.19311
0.0241455
0.464455
-0.182425
-0.28203
0.188004
0.106029
-0.222505
0.391191
0.273164
0.127075
0.376345
-0.0938909
-0.282455
0.199621
0.0928024
0.261139
0.13777
-0.00330882
-0.226027
0.481562
-0.204887
-0.276675
0.227205
0.110432
0.0414495
-0.424155
0.341116
0.0830389
0.148725
-0.481922
0.333196
-0.177982
0.149904
-0.249329
0.282193
0.381813
-0.245111
0.275096
-0.0870921
0.215503
0.00123274
-0.351923
0.198965
0.493125
-0.176735
-0.31639
0.0932506
0.193674
0.105537
-0.354717
0.24918
-0.332107
-0.0693332
-0.339565
0.009423
-0.0952681
-0.311471
0.294219
-0.308364
0.157703
0.150661
-0.157596
-0.17946
0.491295
-0.311836
-0.143123
0.413378
-0.459362
0.33253
0.126833
0.348631
0.179973
-0.258804
0.265332
0.395592
-0.413162
0.01757
-0.148812
0.372707
-0.223894
-0.262153
0.353942
-0.339021
-0.167782
-0.170869
0.443843
-0.272974
0.118116
0.184717
0.225168
-0.0262693
0.271045
-0.465631
0.151926
0.521037
-0.367829
-0.153208
-0.0100931
-0.296221
0.424077
-0.324472
-0.125818
0.397474
-0.271657
0.49299
-0.347149
-0.145841
0.306383
-0.0993111
-0.207072
-0.492213
0.354539
-0.355669
-0.336509
0.219032
0.10738
-0.0627453
0.318831
-0.134089
-0.184742
0.0960542
0.328023
0.00337147
-0.133556
-0.148218
0.344121
0.00234817
0.0106657
0.326388
-0.439498
0.11311
0.393567
-0.487508
-0.0205441
-0.00373199
-0.00507483
0.488242
-0.356068
-0.132173
0.148505
0.116029
-0.264533
0.252983
-0.175372
-0.366547
0.217735
-0.103608
0.0394232
0.121849
0.263621
-0.119993
0.13283
-0.317472
0.219577
-0.282895
0.119593
0.163302
-0.0491207
-0.26235
0.291302
0.176904
-0.468206
-0.124429
-0.0539043
0.178334
-0.296927
-0.169996
0.319735
-0.487472
0.167737
0.124381
-0.0221345
-0.380458
-0.0436965
0.0510493
-0.00993199
0.334985
-0.229448
0.327676
-0.47468
0.394772
0.000819314
-0.381117
0.117238
-0.0703134
0.185022
-0.114708
0.127305
-0.0198171
0.21702
0.0982564
-0.0130408
0.01662
0.487701
-0.313408
-0.422443
-0.329338
0.231006
0.0983321
-0.130172
-0.152724
-0.390976
0.127995
0.272059
0.0367624
-0.308821
0.00982987
0.50571
-0.184569
-0.321141
0.275835
0.134808
-0.410642
-0.322744
-0.0723431
-0.00533211
0.108418
-0.103086
0.214128
0.0110395
-0.0417906
0.402595
-0.252943
-0.168938
0.214663
0.092602
-0.307265
0.173525
0.0813884
-0.0206862
0.0230343
-0.0104408
-0.0395843
0.050025
0.48343
-0.279576
-0.203854
0.0285267
0.503244
-0.208469
-0.294775
0.350805
-0.190131
-0.0889684
0.262494
-0.427289
-0.0258557
0.453145
0.145934
0.0115634
-0.157498
-0.312633
0.0869402
0.302786
0.200457
-0.169511
-0.345225
0.383268
-0.0380426
0.448323
-0.136725
-0.311598
-0.20172
0.169104
0.0245274
-0.148957
-0.158256
-0.093802
0.0547569
0.180997
0.266214
-0.447211
0.295675
-0.0942989
-0.372563
0.386458
-0.146217
-0.0714331
-0.0170326
-0.37486
0.391893
-0.291313
0.465037
-0.173724
-0.220798
0.192067
0.0287311
-0.414354
-0.281864
-0.0862636
0.368128
0.157092
0.193713
-0.153807
-0.0770227
0.23083
0.397938
-0.249263
-0.148675
-0.0052597
-0.0782532
0.0835129
-0.491969
0.191477
0.300492
0.00389892
0.344491
-0.197016
0.275492
-0.0784756
0.314072
-0.503758
0.189686
0.46109
-0.157382
0.0485319
-0.33873
-0.394833
0.131775
0.263058
0.454274
-0.111391
-0.342883
0.135856
0.258341
-0.394198
0.277443
0.151791
-0.429234
0.272471
0.147648
-0.420118
0.119958
-0.417725
0.297768
0.280748
-0.468293
0.103617
-0.456269
0.411317
-0.23032
0.25537
-0.461304
-0.0986897
0.0246474
0.0740423
-0.410388
0.177842
0.232547
0.520506
-0.348129
-0.172377
0.212701
0.0936244
-0.306326
-0.468168
0.176855
0.00974865
-0.0191185
0.00936985
0.378714
-0.213257
0.0639315
-0.260948
0.37585
-0.0837371
0.424832
-0.328778
0.18426
-0.473194
0.288933
0.256597
-0.130196
-0.126401
0.416676
-0.421862
0.3028
0.286234
-0.192983
-0.25903
-0.169411
0.428441
0.146996
-0.257175
0.110179
0.0653287
-0.219136
-0.354294
0.127389
0.226906
-0.174461
0.476179
-0.301718
0.304399
0.160638
-0.230675
0.351282
0.0924616
0.193772
-0.205005
-0.284264
0.489268
0.108568
-0.34506
0.236492
0.156663
0.29761
0.395941
-0.118499
0.292492
0.156394
-0.448885
0.293083
-0.0784204
0.382798
-0.28025
-0.102548
0.0827817
-0.306275
-0.0816278
-0.133245
-0.193179
-0.315244
0.486314
-0.17107
0.082857
0.230057
0.0738058
-0.0790655
-0.0209063
-0.0777834
0.0122338
0.0180933
-0.0303272
-0.0458922
-0.155828
-0.103328
0.105881
-0.00255307
-0.112918
-0.0413294
-0.179469
-0.173799
0.184749
0.249685
-0.434434
-0.203851
0.39939
-0.12692
0.154135
0.0887576
0.443579
-0.0855054
-0.358073
0.224709
0.0602919
-0.285001
-0.139749
-0.377323
0.313472
0.130907
-0.444379
-0.345332
0.42562
-0.080288
0.166814
-0.367031
-0.162147
-0.0186964
0.180844
0.109082
0.166015
-0.109196
0.0605249
0.0486713
-0.165626
0.165595
3.04474e-05
0.356427
-0.127689
-0.228738
0.436992
-0.161877
-0.275115
-0.499206
0.351398
0.147808
-0.00557301
-0.373782
-0.0555919
-0.0093618
-0.0565696
-0.305634
-0.186335
0.166729
0.31132
-0.516324
-0.0677885
0.381261
-0.167131
-0.0258464
0.192978
-0.101685
0.326394
0.209401
0.0862744
0.0862246
0.251996
-0.33822
-0.414924
0.244054
0.151006
0.205421
0.00160532
-0.0222915
0.00912714
0.0139072
0.111054
-0.421583
-0.198139
0.192118
0.0060218
0.111892
-0.335737
0.223845
0.18191
0.305791
-0.112663
-0.235955
0.348619
-0.460058
0.157772
0.302287
0.131905
-0.433417
0.00957415
0.434005
-0.180337
0.110024
0.537618
-0.335101
-0.202518
-0.0648522
-0.103232
-0.26954
0.372772
0.183898
0.297663
-0.336518
-0.0853441
0.0668254
0.219162
-0.0706573
0.152404
-0.442457
0.290053
0.342358
-0.230466
0.165802
0.482586
-0.301884
-0.180702
0.512154
-0.118587
0.372143
-0.205329
-0.0622515
0.365038
0.027707
0.194231
0.286679
-0.389911
0.23213
-0.313911
0.0817813
-0.213054
0.131253
0.0818007
0.478699
-0.136776
-0.341923
0.0403736
-0.304996
0.264623
0.109707
0.14689
0.232009
-0.456835
-0.466988
0.117381
0.349608
0.208427
0.141568
-0.349995
0.278324
-0.373884
-0.360422
0.141821
0.00536999
-0.00962668
0.0218605
0.192378
0.281869
-0.474248
0.376246
-0.202366
-0.30462
-0.13631
0.44093
-0.368936
0.294949
0.0739868
-0.332298
0.232206
0.277187
0.134574
-0.411761
-0.231041
0.316891
-0.08585
0.157023
0.240915
-0.0739876
0.22116
0.0862969
0.175447
0.307139
0.172817
0.205897
-0.304006
0.186153
0.117853
-0.147415
0.412423
-0.428701
0.153909
0.274792
-0.0589256
0.0484848
0.150897
0.316175
0.448938
-0.296534
0.138819
-0.363639
0.22482
-0.000366743
0.146301
0.357216
-0.280801
-0.374658
0.115629
-0.0394784
-0.154436
0.193914
-0.243799
0.436177
-0.244408
0.284782
-0.144585
0.353012
0.0362458
0.0188074
-0.0550531
-0.306509
0.473038
-0.399264
0.140596
0.229893
0.263025
-0.485388
0.296069
0.189319
-0.202983
0.163504
-0.0975483
0.109784
-0.0122362
-0.0384973
-0.159642
0.507902
-0.172854
-0.335049
0.179062
-0.485085
-0.318263
0.243874
0.24925
-0.118246
-0.135233
-0.365914
0.51123
-0.145317
0.0677259
0.276983
0.105814
0.291589
-0.0847354
0.354418
-0.255467
0.208964
0.274466
-0.23458
0.270841
0.270873
-0.324744
0.0538707
-0.135944
0.372933
-0.236989
-0.508208
0.279461
0.228747
-0.0266138
0.0149083
0.0117055
0.131187
0.156745
-0.287932
-0.0858032
-0.0446624
-0.0911243
-0.288314
0.379438
0.359466
-0.273242
0.449261
-0.331881
0.305328
-0.367579
0.461298
-0.266837
-0.14344
0.196011
-0.0778163
-0.318689
0.201888
-0.293012
0.227701
-0.308501
-0.122748
0.215253
-0.237902
0.34647
0.279514
0.241522
-0.126286
-0.0190111
0.00107863
0.0179325
0.0641319
0.227457
-0.271588
0.342366
-0.0707774
0.162716
0.286222
0.0182001
2.55019e-05
-0.0859331
-0.023263
-0.112534
0.0680678
0.0444658
0.134972
0.158112
0.217795
-0.123798
-0.0271342
0.0362613
-0.297697
0.206339
0.0913579
0.0136769
0.000943311
0.453507
-0.290791
0.150847
-0.00902595
-0.451384
0.148863
0.30252
-0.491439
0.282021
0.459599
-0.155201
-0.0784522
0.118189
-0.0397371
-0.482021
0.239556
0.242465
0.0970103
0.0254022
-0.122412
0.124441
-0.29302
0.404387
-0.0293999
-0.374987
0.277842
-0.497396
0.487929
-0.173856
0.268967
0.236743
-0.266588
0.136365
0.130222
0.0313094
-0.376534
0.210336
-0.420151
-0.0910966
-0.14403
0.289583
-0.0801822
-0.316485
0.0448966
0.327756
-0.170664
-0.33143
0.105489
0.333668
-0.12972
-0.203948
0.042775
-0.388107
0.0995496
-0.414794
0.145747
-0.425846
0.280099
-0.374629
-0.0526599
-0.161492
-0.248896
-0.0327579
0.462484
0.0754309
0.0420904
-0.117521
0.309246
0.138849
-0.448094
0.24432
-0.167362
-0.379676
0.269759
-0.0127201
0.0211759
0.100654
-0.418677
0.318023
-0.444536
0.295748
0.148788
0.0690775
-0.0219829
-0.0323612
0.178765
-0.146404
0.013658
0.118572
-0.233405
-0.260351
0.404467
-0.327914
0.114219
0.213695
0.0534227
-0.211678
-0.13005
0.0442466
-0.33713
-0.130578
0.467708
0.40796
-0.307306
-0.01068
-0.154946
-0.0116832
0.441355
-0.183781
0.0453491
0.0237284
-0.147152
0.39539
0.12134
-0.0101554
-0.111184
0.0453068
0.10554
0.174293
-0.464159
0.289867
-0.554172
0.256069
0.283911
-0.517207
-0.0244762
0.428863
0.0211351
0.00202061
-0.442527
0.16061
0.281916
-0.189333
0.444154
-0.309115
-0.135039
-0.179027
-0.350218
-0.0587338
-0.310202
0.278117
-0.449878
0.171761
-0.341579
0.229508
0.112071
0.148286
-0.466314
0.449769
-0.0765364
0.280785
-0.192748
0.508553
-0.315804
-0.392362
0.290677
0.258673
-0.401836
0.143163
0.325808
-0.145838
-0.17997
-0.460209
0.342974
0.117235
-0.144244
-0.465747
0.283322
-0.0840093
0.142799
-0.447398
-0.133147
0.452424
-0.390043
0.0134485
0.376595
0.316952
0.107879
0.179476
-0.0221868
-0.15729
-0.38227
0.0266932
-0.105145
-0.0102838
0.0200324
0.23449
-0.255086
0.0205963
0.0591241
-0.207382
0.0326899
0.163227
-0.195917
0.285096
0.174911
-0.035593
-0.139755
-0.30983
0.400302
-0.0904722
-0.186769
0.0246222
0.0153454
0.200968
-0.0349521
0.343426
-0.308474
0.0613737
0.0460061
0.171119
-0.148881
-0.022238
0.00912388
-0.0385293
0.411881
-0.413161
0.00127953
-0.368497
-0.139711
0.171867
-0.0768464
0.314057
0.00437965
-0.318437
0.321052
-0.0501792
-0.0634871
0.00229166
0.0611954
-0.0290332
-0.205547
-0.228762
-0.102668
0.181035
0.255958
0.0810684
-0.456382
-0.0810334
0.0427854
0.038248
-0.267907
-0.194312
0.462218
-0.393621
0.267804
0.20618
0.039381
-0.16544
0.394831
-0.229392
0.432626
-0.0207445
-0.333891
0.0450934
0.190482
0.128349
0.29924
0.160359
-0.157105
0.429163
0.237919
-0.241227
-0.198328
-0.216595
0.222401
-0.38784
-0.100396
0.206142
0.0711092
-0.241231
-0.113063
0.517036
-0.243614
-0.273421
-0.384329
0.251922
0.132407
0.0120857
-0.0249887
0.012903
-0.280441
0.471557
-0.191116
-0.0627547
0.242825
-0.386375
0.114084
0.272291
0.228539
-0.341203
0.397223
-0.186887
-0.176449
-0.291286
0.467736
-0.10718
-0.353029
-0.0372655
0.351323
-0.333248
0.104486
-0.204281
-0.0143322
0.218613
0.257153
-0.148072
-0.433476
0.264417
0.00815844
0.0207589
-0.0289174
0.282724
0.146867
-0.429591
0.121957
-0.0238428
-0.0981138
-0.144948
0.281313
-0.133666
0.392339
0.406792
-0.249769
0.104139
0.258749
-0.362888
-0.322256
-0.0765743
0.39883
-0.0992337
0.425622
-0.0998832
0.0233105
0.0189789
0.141715
-0.174077
0.260998
0.115248
-0.294847
0.445744
-0.0520087
0.0939858
-0.335568
0.241583
0.288084
-0.153112
-0.27392
-0.103269
-0.289093
0.229091
0.405672
-0.218654
-0.187017
-0.324091
-0.170554
0.132928
0.213466
-0.346394
0.38395
-0.146815
-0.316492
0.229134
0.0873578
-0.28045
0.0909154
-0.147839
0.362316
-0.214477
-0.11009
-0.314506
0.00467686
-0.00193685
0.0573553
-0.284578
0.321341
0.0745341
-0.364453
0.289919
0.373327
-0.237471
-0.253181
0.208418
0.0447636
-0.293396
0.47566
-0.270397
0.370924
-0.100527
0.50372
0.164163
-0.101725
0.241548
-0.378821
0.137273
-0.139234
0.388059
-0.357206
-0.0308528
-0.0913051
0.342632
0.291356
0.141547
-0.432903
0.271097
-0.4463
0.175203
0.03246
0.355599
0.168393
-0.181033
-0.181588
-0.440109
0.191562
0.210502
-0.332162
0.12166
0.327351
0.155774
0.205773
0.0935576
-0.299331
0.375865
-0.283447
-0.104544
-0.148638
0.488183
-0.312851
-0.0210393
0.0242597
-0.00871015
-0.394584
0.072328
0.509943
-0.324671
-0.185271
0.199428
0.0694578
0.192022
-0.234169
0.0421475
-0.268396
0.294086
-0.0256901
-0.475553
0.399705
0.0758477
0.100312
-0.266409
0.450669
0.120658
0.228018
-0.348676
-0.467858
-0.121137
0.349753
-0.228615
0.241864
-0.138508
0.187655
-0.410159
0.127688
0.19812
0.342081
-0.119174
-0.222907
0.38439
-0.142842
-0.145338
-0.276235
0.421573
0.0847624
-0.292425
0.207662
0.276294
0.0347761
-0.0739807
0.0392047
0.367131
-0.262991
-0.384475
-0.054956
-0.309388
0.168652
0.140735
-0.428593
0.293173
0.13542
0.443212
-0.172115
-0.0462573
-0.346356
-0.145083
-0.199164
0.291625
0.202655
0.307287
0.278735
0.157667
-0.436402
0.0342864
0.084778
-0.119064
-0.123429
-0.290289
-0.152169
0.32415
0.152899
0.138175
-0.291074
-0.220521
-0.10054
-0.169664
0.270204
-0.153667
0.279363
-0.125696
0.0846367
0.0373199
0.361574
-0.378606
0.14008
0.248993
-0.389073
-0.374322
0.155937
0.218385
0.180921
0.0720621
0.0261316
-0.0179732
-0.0242654
0.00270342
0.021562
0.0529548
0.236628
0.127662
0.245271
-0.00569433
0.146222
-0.140528
-0.287308
0.406722
-0.119414
0.501136
-0.317238
-0.409951
0.0653512
0.3446
-0.124932
-0.262944
0.387877
-0.109904
-0.386962
0.105098
-0.190335
0.0232042
0.451162
-0.201505
0.236058
-0.342364
0.106306
0.232215
0.0948368
-0.327052
0.227174
-0.317443
0.0902689
0.466136
-0.174834
0.417351
-0.140164
-0.0437718
0.140782
-0.386106
0.102037
0.250878
-0.376053
-0.149432
0.428917
-0.279486
0.299805
0.193185
0.0341563
0.220191
-0.336822
0.0664254
0.15693
-0.439561
-0.123171
0.293732
-0.170561
-0.13076
0.316913
0.38145
-0.0554557
-0.325994
-0.174897
0.20076
-0.0258622
0.01709
-0.244296
-0.444433
0.154959
0.289475
0.0522746
0.18959
-0.207595
0.169097
0.2942
0.160815
0.046995
-0.0289159
0.117334
-0.297691
0.180357
0.0225003
-0.0275248
0.00502446
-0.165653
0.211569
-0.359408
0.136025
0.270767
-0.0228042
-0.0747441
0.0536684
-0.237837
0.184169
0.279834
-0.312932
0.0330972
-0.285293
-0.159243
-0.249375
0.0450941
-0.190663
0.152575
0.0380881
-0.277868
-0.0440872
0.321956
0.329563
-0.119061
-0.130439
0.355937
-0.225498
0.0316126
0.333
-0.364612
-0.189817
-0.354269
-0.00664876
0.360918
-0.00671656
0.0122073
0.441666
-0.303944
-0.137721
0.0437626
-0.412717
0.125834
0.286883
0.457098
-0.164607
-0.171825
0.45591
-0.284084
-0.497117
0.199733
0.297384
0.297829
-0.0123339
-0.265534
-0.177597
0.231266
-0.218473
0.445488
-0.227015
-0.262856
0.447384
-0.276908
-0.170476
-0.265178
0.315347
0.163352
0.00520005
-0.0206436
0.0154436
-0.35177
-0.248354
0.188007
-0.44095
0.149638
0.0602227
0.427252
-0.247154
-0.180098
-0.147708
0.172236
0.45443
-0.439955
-0.0144753
-0.153048
0.274877
-0.121829
0.154746
-0.105364
-0.0493822
-0.0895083
0.277581
-0.188072
-0.0109046
0.264883
-0.46977
-0.390035
0.265103
-0.269101
-0.21292
-0.167119
-0.363603
0.530722
0.228495
0.0139212
0.176443
0.0337806
-0.210224
-0.178129
0.243458
0.128877
-0.422927
0.286999
0.135928
-0.0189657
0.0228668
0.45723
-0.15799
-0.378762
0.262349
0.116414
-0.147043
-0.000518391