/*--------------------------------*- C++ -*----------------------------------*\
| =========                 |                                                 |
| \\      /  F ield         | OpenFOAM: The Open Source CFD Toolbox           |
|  \\    /   O peration     | Version:  v2012                                 |
|   \\  /    A nd           | Website:  www.openfoam.com                      |
|    \\/     M anipulation  |                                                 |
\*---------------------------------------------------------------------------*/
FoamFile
{
    version     2.0;
    format      ascii;
    class       volVectorField;
    location    "400";
    object      U_0;
}
// * * * * * * * * * * * * * * * * * * * * * * * * * * * * * * * * * * * * * //

dimensions      [0 1 -1 0 0 0 0];


internalField   nonuniform List<vector> 
18598
(
(1.02674 -0.0628231 0)
(1.00787 0.145596 4.20982e-20)
(1.03906 0.00760213 -4.72555e-22)
(0.934981 0.0694822 -7.34493e-21)
(1.04051 0.0144119 1.93268e-22)
(1.01313 0.00020009 0)
(0.552076 -0.119868 0)
(1.00111 -2.01653e-05 -6.13356e-24)
(1.00851 0.00140904 -1.59829e-22)
(1.0174 0.0202251 9.23521e-22)
(1.00775 -0.000568702 3.71038e-23)
(1.00137 0.0102334 2.83301e-22)
(1.01447 0.000546231 -1.47129e-21)
(0.473954 0.018869 0)
(1.0835 -0.0420741 0)
(1.00244 0.00634432 -8.79084e-22)
(1.01286 0.00528583 -4.19996e-22)
(0.843324 0.00591732 0)
(0.843336 -0.163467 3.60193e-21)
(0.901641 -0.0993159 6.06399e-23)
(0.842608 -0.0209705 6.78069e-22)
(1.00924 0.000271426 -1.66639e-22)
(1.06972 0.0311371 7.33767e-21)
(1.00704 0.000169687 -5.10086e-22)
(1.01202 0.00481343 -6.37363e-22)
(0.841136 -0.155609 -3.7064e-21)
(1.00671 -0.000236215 2.88158e-22)
(0.175878 0.221111 -2.41981e-20)
(1.0221 0.00977983 8.52576e-21)
(1.00934 -0.000781579 2.41582e-22)
(1.03808 -0.0566103 0)
(1.00844 0.00138824 -1.21251e-23)
(1.01234 0.148554 -1.19573e-20)
(1.00792 -0.000598208 4.18591e-23)
(0.866822 -0.10573 -3.52663e-21)
(1.01 -0.000531228 0)
(1.00782 0.0299396 -1.60541e-23)
(1.01187 0.00456978 5.91108e-22)
(1.05621 0.0501546 2.54832e-22)
(0.90575 -0.0624803 0)
(0.191204 0.213989 2.7507e-20)
(1.00745 -0.00026886 -1.47708e-22)
(1.01031 0.00381357 -1.77593e-22)
(1.05489 0.0492254 0)
(1.00931 -0.000414548 -2.81333e-22)
(0.434961 0.00632383 -5.45366e-21)
(1.00311 -3.0944e-05 0)
(0.912026 -0.0741507 0)
(1.02941 0.0546486 -1.8693e-21)
(1.01545 0.00911371 1.2521e-21)
(1.10364 0.0244758 0)
(1.01553 0.00950824 2.75379e-22)
(1.01 0.00136347 5.99827e-22)
(1.01862 -0.0469661 0)
(1.04403 0.0123635 4.98146e-21)
(1.00984 -0.000475805 -2.89739e-22)
(0.85773 0.190644 6.27349e-21)
(-0.0165612 0.289788 -2.45042e-20)
(0.0780682 0.0764253 7.18348e-20)
(0.868018 0.122392 0)
(1.01757 0.0133797 -2.86322e-22)
(1.00287 0.000101405 -4.40212e-23)
(1.01019 0.00103109 2.84051e-22)
(0.989732 0.0871101 -1.07202e-20)
(1.027 0.0533366 8.4658e-23)
(1.01278 0.00179481 -3.04411e-22)
(1.03521 0.0442323 -3.71285e-21)
(1.01226 0.00229492 6.57167e-22)
(1.00407 0.000154745 0)
(1.04202 -0.0369674 3.91408e-21)
(1.01783 0.0108374 0)
(1.01291 0.00260898 1.71294e-21)
(1.04356 0.00661958 1.05082e-20)
(1.02249 0.0101024 -4.31257e-21)
(1.00264 0.000101223 -1.20568e-23)
(1.00367 2.21544e-05 -2.20457e-22)
(1.0176 0.0131108 0)
(1.01054 0.00278176 -4.28301e-24)
(1.01068 0.00317519 -1.18269e-21)
(1.05598 0.0346793 -7.94539e-21)
(1.01541 0.00889121 -1.95118e-21)
(1.01547 0.0091967 0)
(1.00215 -8.10835e-06 -3.59551e-22)
(1.00396 0.000133881 -3.30923e-22)
(1.02283 0.00235435 5.80194e-21)
(1.04312 0.00763739 -1.03002e-20)
(1.00335 -3.30762e-05 0)
(0.842439 -0.0523163 1.43613e-20)
(0.857465 -0.156754 -6.87247e-21)
(0.146385 0.0882777 1.4457e-21)
(1.00665 0.0290066 -9.24752e-23)
(1.01084 0.0106761 0)
(1.01517 0.00226661 4.62243e-21)
(1.03064 0.0209001 -1.14762e-20)
(1.01543 0.00876481 0)
(1.04492 0.013152 0)
(1.03358 0.0501535 -5.27367e-21)
(1.04065 -0.0295296 -4.22381e-21)
(1.01494 0.0193463 -8.06096e-22)
(1.01699 0.0347608 0)
(0.848918 0.181534 1.0921e-20)
(0.866127 0.225358 -5.30108e-22)
(0.937262 0.0534424 -8.06151e-22)
(0.84075 -0.0728073 -4.19588e-21)
(0.582487 -0.279582 0)
(0.985097 0.0701037 9.81578e-22)
(1.04473 0.0210835 5.13165e-21)
(1.03924 0.0821142 1.8293e-20)
(1.00887 -0.00076785 -8.3162e-23)
(0.286532 -0.291818 0)
(1.00233 0.00463 4.72219e-22)
(1.01534 0.00853092 -7.94668e-22)
(1.07263 0.0351259 0)
(0.941613 0.0421049 5.31986e-21)
(1.00854 0.0013705 1.20106e-22)
(0.868858 -0.151876 -5.701e-22)
(1.05428 0.0301985 7.94694e-21)
(1.00112 -9.41562e-06 1.13624e-22)
(1.00399 0.00281038 1.69619e-22)
(1.0108 0.00401449 0)
(0.878855 -0.154462 0)
(1.01637 -0.0128799 5.03089e-24)
(0.856219 -0.146936 3.96922e-23)
(1.01019 0.0036749 1.76142e-22)
(1.01318 0.00261396 0)
(0.601425 0.0150393 5.22618e-21)
(0.90883 0.244588 0)
(1.01078 0.00404878 -3.6981e-22)
(1.00737 -0.000281553 -1.30652e-22)
(0.299056 0.236287 -3.56466e-20)
(1.01491 -0.0132118 -2.98895e-22)
(0.756637 0.139461 -1.55904e-21)
(1.01603 0.0762069 -4.27123e-23)
(1.06704 0.0311409 0)
(1.0553 0.0471643 3.17191e-21)
(0.97282 0.0545678 0)
(1.00672 -0.000238417 0)
(1.01059 -0.000983013 5.74079e-22)
(1.0108 -0.000982957 -5.55792e-22)
(0.297504 -0.199248 -2.55705e-21)
(1.05383 0.0166728 0)
(1.00989 -0.000860107 2.66645e-22)
(1.0123 0.0102478 3.85793e-22)
(0.776924 0.159621 -7.76815e-21)
(1.08756 0.0460765 -2.44101e-22)
(1.01077 -0.00107341 8.12915e-22)
(0.552843 -0.296742 -5.64148e-22)
(1.0018 2.68475e-05 0)
(0.864116 -0.118408 7.79307e-22)
(1.00976 -0.000858844 0)
(1.00849 0.00135556 -1.34041e-22)
(1.1232 0.0603787 6.94927e-21)
(1.00842 -0.00188682 1.00154e-21)
(0.994131 0.171233 -2.36902e-20)
(1.01389 -0.00184549 -2.91115e-22)
(1.0297 0.0205146 4.77077e-21)
(1.00859 -0.00202383 5.12833e-22)
(1.01555 0.0213238 -4.20981e-22)
(1.01705 0.00943706 0)
(1.01183 0.00541099 0)
(0.977138 0.0619948 2.84462e-22)
(1.07492 -0.0416003 6.23174e-22)
(1.049 0.0185797 -4.35097e-21)
(1.01432 0.000486917 0)
(0.0490611 0.217658 0)
(0.8419 0.0685053 0)
(1.10214 0.0373359 -9.5626e-22)
(1.0325 0.00908486 0)
(1.00222 -1.81708e-05 -1.19334e-22)
(1.0216 0.00969925 0)
(1.01191 0.000296612 0)
(1.00899 0.0718914 4.04437e-23)
(0.974808 -0.12959 0)
(0.891959 0.10845 -9.0324e-21)
(0.95542 -0.121232 0)
(0.898697 -0.0900777 8.94188e-22)
(1.04129 0.0278984 0)
(0.909901 -0.0775434 -1.81577e-21)
(1.01064 0.00394528 -1.7688e-23)
(1.0106 0.00391543 -3.80384e-22)
(0.632882 0.210152 5.0573e-21)
(1.0074 -0.00040984 -3.07779e-23)
(1.03036 0.0307368 4.81728e-21)
(0.639455 0.180353 1.14213e-20)
(1.02262 0.00147364 -7.7173e-21)
(1.01142 0.0099181 0)
(0.305377 -0.228121 0)
(1.00312 8.73642e-05 -8.65681e-23)
(1.07634 0.0480021 0)
(0.835821 0.0562079 3.86564e-22)
(1.09125 0.052406 6.71539e-21)
(1.05514 0.0318158 8.3057e-21)
(1.01096 0.00413085 4.49726e-22)
(0.840941 0.150382 -1.30858e-20)
(1.04753 0.0242507 0)
(1.10183 0.0376733 3.70738e-21)
(1.00902 0.000205992 -1.61736e-22)
(1.00321 0.0236515 0)
(1.01022 -0.00092737 0)
(0.660585 0.0411456 5.17685e-22)
(1.07396 0.0433289 0)
(1.06162 0.0198928 0)
(1.02037 0.00125076 0)
(0.997211 0.055294 9.43751e-22)
(1.1079 0.0138735 0)
(1.03214 0.00994216 6.38781e-21)
(1.00922 0.000257555 -1.68696e-22)
(1.00748 0.0264909 1.03769e-22)
(1.01963 0.00234917 0)
(0.901483 0.258759 3.52452e-21)
(1.03228 0.0105592 -2.9421e-21)
(1.00791 -0.000598406 -3.05701e-23)
(1.01212 0.00870281 1.52433e-22)
(1.06839 0.0735943 -2.16512e-22)
(0.844834 -0.183 6.78452e-21)
(1.06856 0.0306109 4.78012e-21)
(1.14353 0.0940813 7.70028e-21)
(0.964552 -0.105321 -7.00537e-24)
(1.08812 0.050163 -4.43461e-21)
(1.00268 -5.54689e-05 -3.64248e-22)
(0.920847 -0.0925405 -1.04152e-23)
(1.05728 0.0166929 -2.00858e-21)
(0.163373 0.0632898 3.58205e-22)
(1.009 0.000211222 1.58272e-22)
(1.01213 0.00845188 7.22768e-23)
(1.00237 0.0186482 -1.56886e-21)
(1.03224 0.0513135 5.27255e-21)
(0.0836007 -0.0322172 -5.44159e-21)
(1.0171 0.0361429 -1.39576e-21)
(1.01037 -0.000948686 0)
(1.06154 0.0404536 0)
(0.757166 -0.0961443 -3.58292e-22)
(1.01156 0.000773313 1.75742e-21)
(1.01935 0.0185039 -9.40582e-22)
(1.00952 -0.000794332 1.33568e-22)
(1.03769 0.00785987 0)
(1.01068 -0.000876958 -4.44467e-22)
(0.933933 0.0814623 6.43704e-21)
(1.00704 -0.00028719 9.53514e-25)
(0.994223 0.0515862 1.08513e-21)
(1.00916 0.00226123 3.26393e-22)
(1.02222 0.00155613 8.02727e-21)
(1.07652 0.0509103 0)
(1.03149 0.0318111 -3.69348e-21)
(1.01166 0.00531419 0)
(1.04021 0.0133912 0)
(1.01342 0.000592174 0)
(1.0175 0.0110034 7.89291e-23)
(1.01197 0.0058561 -2.72245e-22)
(1.00799 -0.000486577 -1.2666e-23)
(-0.0213438 0.284684 0)
(1.01114 -0.000558698 -2.95532e-22)
(0.662334 -0.0011547 2.07505e-23)
(0.934365 -0.0557765 0)
(1.01501 0.00211141 -2.20144e-21)
(1.01628 0.0107695 5.73556e-22)
(1.01005 0.00291595 -8.43815e-22)
(0.935662 -0.0881456 1.41566e-21)
(1.0086 0.00132344 0)
(0.334044 -0.128644 0)
(1.01255 -0.00223493 -8.17208e-23)
(1.00144 -1.43404e-05 5.21173e-22)
(0.9249 -0.059428 0)
(1.01127 -0.000427321 5.31127e-22)
(1.00994 0.00292211 -4.66779e-22)
(1.02509 -0.0292186 4.88209e-21)
(1.01249 -0.00136596 1.41324e-22)
(1.00993 0.00344356 6.11823e-22)
(1.00953 -0.000413584 -2.93042e-22)
(1.03116 -0.0099991 -2.79719e-22)
(1.01188 -0.0012271 5.9047e-22)
(1.01762 0.0110299 -2.84453e-23)
(0.664658 -0.166313 1.74695e-20)
(1.01167 -0.00127753 -6.19212e-22)
(1.05409 0.0359921 0)
(0.0481712 0.274244 -5.485e-20)
(1.00608 0.000375029 0)
(0.842123 -0.106061 -4.56431e-21)
(0.99054 -0.138399 0)
(0.798829 0.030746 6.61229e-21)
(1.04425 0.081739 -2.53109e-20)
(1.00065 0.164196 0)
(1.01031 0.000842908 -8.48151e-22)
(1.00336 0.064431 0)
(0.887482 0.255181 0)
(0.987809 0.0877135 -7.27446e-21)
(0.997381 -0.145996 -4.15878e-22)
(1.03164 0.00512427 -2.76888e-21)
(0.908054 0.226035 -1.41811e-22)
(0.862643 -0.271798 0)
(1.00986 -0.000411617 5.93473e-22)
(1.03307 -0.0489742 0)
(1.00775 -0.000565723 -4.00319e-23)
(0.995188 0.0106419 0)
(0.263251 0.238363 4.47441e-20)
(1.05299 0.0313618 7.40016e-21)
(0.946923 -0.120221 0)
(0.993074 0.0102842 -9.4081e-22)
(1.00808 -0.00048413 -3.07186e-24)
(0.838792 -0.127543 -2.0842e-21)
(1.00669 0.000471878 2.24742e-22)
(1.00236 2.21874e-05 0)
(0.820365 -0.0897133 0)
(1.03612 0.0448288 1.01251e-22)
(1.00973 -0.000402139 0)
(0.930056 -0.121134 3.57743e-22)
(1.01552 0.00752776 -2.09175e-21)
(1.01048 0.00236429 0)
(1.01358 -0.00192782 0)
(1.00968 -0.000411485 -2.90873e-22)
(1.01727 0.0110347 -4.69165e-23)
(1.0102 0.00292309 4.63521e-22)
(0.792209 0.0222298 -6.44409e-21)
(1.01281 -0.00231592 -1.05884e-23)
(1.01196 0.00810615 -1.33356e-22)
(0.906741 0.231597 1.33763e-22)
(1.00725 0.0265224 1.72568e-22)
(1.00198 -1.94178e-05 2.56057e-22)
(0.886307 0.154352 0)
(1.01019 0.00291379 -4.01146e-23)
(1.01126 0.014956 -8.63507e-22)
(1.00595 0.000359553 -2.15704e-22)
(1.00648 -0.000192845 -1.93678e-23)
(1.01116 0.00413308 -3.1209e-23)
(0.899239 -0.0912214 4.45767e-22)
(0.805332 0.00237612 0)
(1.0585 0.0403581 -6.71661e-22)
(0.999273 0.0597116 -9.41802e-22)
(1.01191 0.0078697 7.75279e-24)
(0.853793 -0.16346 2.36477e-21)
(1.00901 -0.000768785 7.18812e-23)
(0.0697493 -0.00175503 0)
(1.0021 1.4376e-05 0)
(0.00915291 0.254807 -2.31075e-20)
(1.0069 0.000161056 2.65431e-22)
(0.394322 -0.122619 1.42637e-20)
(1.01797 0.000973879 -3.10256e-21)
(1.01235 0.00776981 1.43082e-22)
(0.994094 0.240372 -3.07173e-21)
(1.00991 -0.000399479 6.14039e-22)
(1.05625 0.0505328 5.35886e-21)
(1.0109 -0.00119334 3.93705e-23)
(0.864199 -0.167352 -7.01676e-21)
(1.01326 -0.00236348 -6.10628e-22)
(1.00787 -0.00066856 -1.15186e-21)
(1.00136 -2.90569e-05 0)
(1.02647 0.0106691 -1.85505e-21)
(0.875668 0.144141 3.57351e-21)
(0.869954 -0.193404 7.02672e-21)
(0.554958 0.166974 -3.34826e-21)
(1.02823 0.0312975 0)
(1.06697 0.077631 2.24529e-22)
(1.01623 0.0108168 0)
(0.726919 -0.115006 -1.71217e-20)
(0.813893 0.157765 0)
(1.05007 0.0189457 -1.34108e-20)
(0.0715464 0.118879 0)
(0.806307 -0.0293419 8.08179e-22)
(1.12161 0.0122558 0)
(1.01238 0.0167478 9.41428e-23)
(1.02772 -0.0385453 2.43564e-21)
(0.826431 0.0353329 0)
(1.00665 -0.000327757 -6.32771e-22)
(1.05057 0.0179948 1.46508e-20)
(0.416342 -0.349841 2.30476e-21)
(1.02125 0.0092856 4.54403e-21)
(0.551521 -0.133445 -1.08601e-21)
(1.01052 0.0040702 2.47371e-22)
(0.0233907 0.252126 0)
(1.01096 0.00408384 -4.01526e-22)
(1.04275 0.0146546 0)
(1.01516 0.00873482 0)
(1.00892 0.00204266 3.30863e-22)
(1.01835 0.000144053 2.83054e-21)
(0.744668 0.150933 5.29851e-21)
(1.00948 0.00268601 1.02276e-21)
(1.00101 1.00305e-05 7.97651e-23)
(1.01061 0.00414102 2.41928e-22)
(1.01542 0.00714978 2.29107e-21)
(1.05221 0.0299211 0)
(1.01347 -0.00336301 -2.39716e-22)
(0.891773 -0.000940553 3.87783e-21)
(1.12119 0.0199553 0)
(1.02321 0.00230986 -2.97993e-21)
(1.06539 0.033695 4.19701e-21)
(1.05296 0.0177115 2.16435e-21)
(1.00989 0.00159768 -1.229e-21)
(1.00076 -1.38008e-05 1.34419e-22)
(0.959622 0.040693 3.1982e-21)
(1.01633 0.0182404 0)
(1.01042 0.00396221 0)
(0.297852 -0.290598 -1.15605e-21)
(1.01562 0.0177805 -5.17567e-22)
(1.0248 -0.0448942 -5.47855e-21)
(0.9016 0.0933482 -2.60271e-21)
(1.03557 0.008155 -1.0995e-20)
(1.01219 -0.0014347 0)
(0.891996 0.172113 0)
(1.07089 -0.0241309 0)
(1.00947 -0.000409323 6.23943e-22)
(1.03268 0.00977541 -3.88957e-22)
(1.01274 0.000819427 4.44845e-22)
(1.00358 -5.35051e-05 0)
(1.01252 0.0156979 4.24953e-23)
(1.00103 0.017117 4.67636e-24)
(0.8185 0.0258194 0)
(1.01247 0.000693604 -4.51708e-22)
(0.740165 0.367798 7.83352e-21)
(1.02589 0.0106648 5.20927e-21)
(0.0327684 0.216806 0)
(1.00561 0.0245879 -5.41576e-22)
(1.01411 0.00144016 1.12483e-21)
(0.404049 0.226021 5.39141e-20)
(0.632206 0.0496393 -2.66927e-20)
(0.871473 -0.268251 8.19341e-21)
(1.0104 0.000681384 0)
(1.03793 -0.0362126 0)
(1.00128 0.0532466 8.61793e-22)
(0.877859 -0.0719762 -2.05195e-21)
(0.966799 0.0458551 -2.34331e-21)
(1.00787 -0.00062045 -2.95616e-22)
(1.02544 0.0124328 -7.75434e-21)
(1.01114 0.00418475 0)
(1.00951 -0.000460076 4.74824e-22)
(0.988613 0.253313 1.42377e-21)
(1.00969 0.142357 -4.5649e-20)
(0.832114 0.0629304 -8.53181e-21)
(1.01957 0.00108243 -2.06129e-21)
(1.02555 0.0120817 3.79051e-21)
(1.04201 0.0134402 8.9834e-21)
(1.01467 0.00158228 0)
(1.04082 0.00993309 0)
(1.00934 0.00266192 -3.04283e-22)
(1.01638 0.000232702 3.63997e-21)
(1.0306 -0.0341314 0)
(1.05022 0.0197775 1.53137e-20)
(1.009 0.00220295 -3.27163e-22)
(1.00927 -0.000412357 -3.07612e-22)
(1.00661 0.000690598 -1.81705e-22)
(1.00084 -8.18988e-06 2.20223e-22)
(1.00194 6.88669e-05 1.94972e-23)
(1.00912 -0.000719927 -2.4032e-22)
(0.966478 0.262916 0)
(0.992824 0.0482823 -1.07692e-21)
(1.01668 0.011189 4.06241e-22)
(1.02024 0.00909049 -4.60603e-22)
(1.01418 0.00150044 0)
(1.01195 0.00568055 0)
(1.03584 0.0494908 0)
(0.166796 0.241076 -1.16097e-19)
(1.01783 0.00107932 1.2097e-23)
(1.00597 -0.0001214 4.15698e-22)
(1.03207 0.00488269 0)
(0.135998 0.244499 1.64178e-20)
(1.01112 0.00385706 5.88043e-23)
(1.01934 0.0010974 0)
(1.04138 0.00880413 1.38447e-20)
(1.00855 0.00130707 -1.89431e-22)
(1.05079 0.0185794 -1.55857e-20)
(1.00363 1.55272e-05 0)
(0.560318 -0.0854515 -5.74585e-21)
(1.00254 -5.90449e-05 3.82813e-22)
(1.01301 -0.00274017 0)
(1.00669 0.000696565 5.84559e-23)
(1.00632 -0.000185619 0)
(1.0132 -0.00280763 9.04482e-24)
(1.04323 0.0215255 0)
(0.36232 -0.326865 -2.12424e-20)
(1.02196 0.000791826 0)
(1.00743 -0.000400632 -2.70785e-23)
(1.00447 4.12509e-05 -1.12112e-22)
(1.01842 0.000282279 0)
(1.01095 -0.00128619 -4.65405e-23)
(1.01133 0.00769326 9.46283e-22)
(0.992196 0.160845 0)
(1.01112 0.00380315 -6.04154e-23)
(1.02788 0.0306857 0)
(1.00143 -1.56862e-05 -3.65971e-22)
(1.04236 0.00831237 -5.78632e-21)
(1.01399 0.00842824 -6.93417e-22)
(1.06151 0.0394172 3.46825e-21)
(1.00666 0.000424899 -3.19266e-23)
(1.05507 0.0322263 -3.19762e-23)
(1.01053 0.004074 2.84674e-22)
(1.00401 -4.65851e-05 7.08204e-24)
(0.86291 0.0908729 -5.46538e-22)
(1.0871 0.0501243 -1.80514e-22)
(1.0046 -9.22769e-05 2.45677e-23)
(0.990589 0.0461777 -1.21908e-21)
(1.00549 0.169673 3.21432e-20)
(0.878886 0.231951 -7.8337e-21)
(0.194925 -0.0313767 1.58722e-21)
(1.07523 0.0461745 0)
(1.01131 -0.00108801 5.70499e-22)
(0.239758 -0.025068 -8.60939e-22)
(1.00747 0.174727 -7.20909e-20)
(1.01113 -0.00113747 -3.65484e-22)
(1.01168 0.000262204 0)
(1.06876 0.00528002 0)
(1.08408 0.0561872 -6.18369e-24)
(0.266812 0.14714 2.1767e-20)
(0.996089 0.0959367 1.14302e-20)
(1.01023 0.00230938 5.6165e-22)
(0.222616 0.211603 3.2471e-20)
(1.02862 0.00822809 -1.86259e-21)
(1.00287 9.52478e-05 -4.07497e-23)
(1.01014 -0.000925279 -2.99797e-22)
(1.00712 0.000159347 8.19879e-22)
(0.785807 -0.083904 -1.55734e-21)
(1.01583 0.000229296 -3.79276e-21)
(0.91092 -0.100639 0)
(1.01118 0.0096038 -9.46315e-22)
(1.02044 0.00329768 0)
(0.258981 -0.265597 0)
(0.8719 -0.0936578 3.93761e-21)
(0.876161 0.0777704 1.80607e-21)
(0.232773 0.163404 -2.54018e-21)
(1.09063 0.172726 -6.99935e-21)
(1.00532 -0.000117981 0)
(1.00494 -0.000110435 -1.96499e-23)
(0.791878 -0.100071 -2.89603e-21)
(1.05912 0.0415661 6.46834e-21)
(0.798411 -0.150101 -2.3046e-21)
(1.01899 0.022076 5.53187e-22)
(1.06217 0.0204053 -2.85341e-20)
(1.01272 0.00690837 -2.84645e-22)
(1.05917 -0.0408686 -1.40473e-21)
(1.01509 0.0125081 3.35495e-22)
(1.08082 0.055517 0)
(1.02931 0.00843598 -1.11224e-21)
(1.02695 0.0110449 0)
(1.00639 -0.000199622 2.98822e-23)
(1.00926 0.0024074 0)
(1.01148 -0.000378612 5.31899e-22)
(1.01094 0.0033405 3.79548e-22)
(1.00622 -0.000166573 0)
(0.860068 -0.133266 2.2076e-21)
(1.0156 0.00740371 1.67461e-21)
(1.00825 0.000643934 2.06768e-22)
(0.905264 0.172372 -1.637e-21)
(1.0556 0.0640375 -1.73741e-20)
(1.00053 0.157036 -2.34688e-20)
(1.03581 0.00894797 7.50221e-21)
(1.09087 0.0401451 1.95687e-22)
(0.936217 -0.106899 0)
(1.01444 0.00595826 -3.79257e-22)
(1.01543 0.00040568 2.57363e-21)
(0.936342 0.0607897 0)
(-0.0231277 0.268004 -1.30654e-20)
(0.589396 0.211205 -1.9676e-20)
(1.04836 -0.0736645 7.38182e-22)
(1.00586 0.000169106 -9.24648e-23)
(1.0417 0.00974862 0)
(1.01768 0.00959312 1.93897e-21)
(1.07753 0.106524 0)
(1.00933 -0.000728102 -3.56681e-22)
(1.03614 0.00919849 -1.08456e-21)
(1.00857 0.000176264 0)
(1.00637 -0.000202861 -7.99185e-23)
(1.00711 -0.00028859 5.46813e-23)
(1.0068 -0.00024359 0)
(-0.00499607 0.287005 -5.82289e-20)
(0.822495 -0.126637 -1.75778e-20)
(1.05128 0.0547646 0)
(0.913748 0.241654 8.33665e-21)
(0.743332 -0.0222809 -1.55818e-21)
(1.02282 0.00189343 4.77692e-21)
(1.08206 -0.020817 -6.08057e-22)
(1.02263 0.00200654 0)
(1.00954 -0.000822726 2.69572e-22)
(0.978534 0.0649291 1.87858e-22)
(0.530242 -0.387719 5.95037e-21)
(1.01766 0.00298774 0)
(1.00752 0.0322333 -2.9093e-22)
(1.01493 0.00159729 2.29953e-21)
(1.00972 -0.000849061 0)
(1.01767 0.00306231 -1.95524e-21)
(0.181187 -0.183754 0)
(1.00766 0.000443178 0)
(1.00211 9.77272e-05 3.73326e-23)
(1.00581 0.000178054 -2.61717e-22)
(0.374308 0.227172 -1.07531e-20)
(0.980491 -0.0945487 1.59364e-22)
(0.114913 -0.0303894 6.71124e-22)
(1.00407 0.0173223 -1.1268e-21)
(1.02054 0.0035363 1.28829e-21)
(1.0015 -3.60179e-05 5.44754e-22)
(0.916917 0.125561 1.8821e-21)
(1.05141 -0.0098456 9.28538e-22)
(1.01747 0.00954581 1.57856e-21)
(1.0097 0.000353962 0)
(1.00623 -0.000181952 3.07781e-23)
(1.00679 0.000799443 -5.9237e-25)
(1.03669 0.0414273 0)
(1.00209 9.13269e-05 -6.94739e-23)
(1.00982 0.00761583 -7.17034e-22)
(1.05269 0.0602434 1.78694e-20)
(1.00687 0.00079821 5.84095e-23)
(0.980278 0.151845 -7.93901e-21)
(1.01307 0.00131164 -4.38948e-22)
(0.990885 0.00857796 5.54912e-22)
(1.01391 0.00848015 6.97798e-22)
(1.00959 0.00028477 -4.69903e-23)
(1.01385 -0.00280359 -2.44959e-22)
(1.00679 0.00075884 -7.95182e-23)
(1.0098 0.0033052 -3.97094e-22)
(1.0534 -0.0060864 8.48642e-22)
(1.03769 0.0431481 1.86518e-22)
(0.887099 0.0075754 -3.94546e-21)
(1.01192 -0.000867351 -5.30793e-22)
(0.988153 0.0621849 -8.14407e-22)
(1.01211 -0.000773668 -5.13969e-22)
(1.0513 -0.00166405 -1.13561e-21)
(0.883241 -0.257452 6.41832e-21)
(1.00622 -0.000165472 0)
(1.00678 0.000774692 -5.32247e-23)
(1.01287 0.00128276 0)
(0.182518 0.218396 -2.70362e-20)
(1.01303 0.00708121 7.61285e-22)
(1.05052 0.030905 -7.30638e-21)
(1.00685 0.000812954 1.05249e-22)
(0.956825 0.0271031 0)
(0.834027 -0.17502 1.90202e-20)
(1.00841 0.000697625 -2.79447e-22)
(0.690899 0.174958 -1.06276e-20)
(1.01509 -0.00491091 1.44075e-22)
(0.986293 0.260767 0)
(0.0786462 0.272228 3.27917e-20)
(1.06662 0.0338195 0)
(1.00597 0.000203168 9.02748e-23)
(1.01547 0.0171285 0)
(1.01158 0.00509261 0)
(0.991748 0.00578948 0)
(0.996743 0.013857 -8.71235e-22)
(1.04115 0.0145196 0)
(0.866801 0.22256 -4.20078e-21)
(1.00356 0.0165152 0)
(1.05374 0.0156498 0)
(1.03426 -0.0672152 3.53768e-22)
(1.01328 0.00996249 2.68599e-22)
(0.996224 0.0134008 0)
(1.01957 0.000550985 0)
(1.04274 0.0212323 1.36335e-22)
(1.07308 0.101636 -1.53668e-21)
(0.839583 -0.160124 -4.41474e-21)
(1.01032 0.00223501 4.27226e-22)
(1.01489 0.0164135 0)
(0.876908 0.095326 6.96924e-21)
(1.01567 0.00787146 1.12431e-21)
(1.01283 0.00154575 0)
(1.02676 0.0295613 -3.78869e-21)
(1.01664 0.00875506 -3.7707e-21)
(0.91484 0.106039 -4.48452e-21)
(1.01297 0.0164603 7.70468e-22)
(0.998131 0.175779 4.70363e-20)
(0.986974 -0.0948319 -5.61017e-21)
(0.93969 -0.167647 1.57872e-21)
(1.00685 0.000827283 0)
(1.04847 -0.0080812 2.46084e-22)
(1.00995 0.00341728 3.56926e-22)
(1.01957 0.000819787 0)
(1.00933 -0.000783056 0)
(0.860104 -0.159691 0)
(1.01609 0.00265772 0)
(1.01033 0.00270978 6.47864e-22)
(1.01328 0.00039143 0)
(1.00665 0.000477468 7.29212e-22)
(0.903882 -0.0435008 3.47273e-21)
(1.05256 0.0168906 1.40815e-20)
(1.05424 0.0525999 -5.78742e-22)
(1.00595 0.000194896 9.1308e-23)
(1.00683 -0.000249179 -5.99484e-22)
(1.00405 -8.2143e-05 0)
(0.886666 -0.0723404 -1.17793e-21)
(0.994871 0.146751 0)
(1.0211 0.00107043 -2.45844e-21)
(1.00242 -4.24081e-05 -3.42481e-23)
(0.902338 -0.149998 0)
(1.05114 -0.0120245 2.20416e-22)
(0.888281 0.285426 0)
(1.01449 0.00834281 -2.76525e-22)
(0.589984 -0.390854 -9.67406e-21)
(1.02887 0.0170049 0)
(0.986062 0.150708 1.79944e-21)
(0.74013 0.291346 0)
(1.00603 0.000418299 -9.97524e-22)
(1.00684 -0.000240479 0)
(0.134914 0.0222155 -7.24467e-20)
(1.01983 0.00826971 1.35556e-22)
(1.00923 -0.000851589 0)
(0.353531 0.229687 9.35175e-22)
(0.0805134 0.0321837 0)
(1.02662 0.0277587 0)
(1.04642 0.0215207 -1.66458e-20)
(1.05007 0.0295015 7.05871e-21)
(1.01031 0.00261952 0)
(1.06986 0.0359519 -7.36807e-21)
(0.82964 0.0280096 2.80678e-21)
(0.943931 -0.0696993 0)
(1.01269 0.0068777 6.95119e-22)
(1.01886 0.0765714 -2.23658e-22)
(0.984927 -0.0926161 -1.39023e-22)
(1.00544 -8.31205e-05 0)
(0.649509 -0.0702822 -2.72382e-20)
(1.01079 -0.000584458 1.49083e-21)
(1.00614 0.000286201 3.73816e-22)
(0.828262 -0.431199 8.14738e-21)
(1.01975 0.000485526 -2.69929e-21)
(0.617416 0.210303 2.05712e-20)
(1.01647 0.00848377 0)
(1.01439 0.00182337 3.3222e-21)
(1.01587 0.00275452 -1.6789e-21)
(1.00701 0.000404526 -1.72936e-22)
(0.83322 0.301674 -4.06203e-21)
(0.789202 -0.102224 0)
(1.03648 0.00396431 -7.60027e-21)
(-0.0205879 0.275049 0)
(1.00839 0.00124583 0)
(1.00942 0.000323574 3.01645e-22)
(1.04035 0.0112741 -8.25407e-21)
(1.02129 0.0774337 0)
(1.02201 0.00123034 -5.32432e-21)
(0.845439 -0.107177 0)
(-0.0228004 0.267207 1.56402e-20)
(1.01693 0.000184577 0)
(1.01214 0.00455161 1.75741e-22)
(1.01212 0.00597494 4.08975e-22)
(0.65777 0.036544 -1.82779e-20)
(1.05408 0.0527846 -2.31167e-21)
(0.869132 0.112042 -1.41724e-21)
(0.851268 -0.174953 -2.25571e-21)
(1.01703 0.0122758 -5.39461e-22)
(1.04919 0.0206178 1.26964e-20)
(0.215358 -0.0156293 1.26596e-19)
(0.594102 0.210765 0)
(1.01665 0.00195023 0)
(0.903413 0.172956 0)
(1.05171 0.0544324 2.37702e-21)
(1.01142 0.000512031 0)
(1.009 0.0234114 -5.93579e-22)
(1.04909 0.0209396 -1.25533e-20)
(1.00197 -4.13904e-05 2.52162e-22)
(1.06227 0.043286 6.53881e-21)
(1.03992 0.0126259 0)
(1.01131 0.000487868 4.96623e-22)
(1.00262 5.34149e-05 -1.62406e-22)
(0.900359 0.155888 2.55652e-22)
(1.02648 0.0481901 -7.53502e-21)
(0.694639 0.0314046 1.15481e-21)
(0.634725 0.00113989 1.76778e-20)
(1.05748 0.0327724 9.83834e-21)
(0.953846 0.0296272 0)
(1.00429 -9.11623e-05 2.01257e-22)
(0.922452 -0.0664569 -6.86608e-21)
(0.884661 0.1151 1.12016e-21)
(1.05656 0.0471325 -5.48331e-21)
(1.00422 0.000197145 -2.33968e-23)
(1.00825 0.00113278 2.43571e-22)
(0.99062 0.109172 -3.80895e-23)
(0.881901 0.122402 -5.09736e-21)
(1.01383 -0.000493324 2.32488e-22)
(1.00858 0.0224924 0)
(0.830361 -0.0873342 0)
(1.01499 0.00955726 0)
(0.753139 -0.0754894 -1.23069e-20)
(1.00605 -0.000124469 0)
(0.881888 0.269289 -3.56648e-21)
(0.907595 -0.22947 1.11587e-20)
(1.00599 -0.000105623 -7.34983e-23)
(1.01033 0.000390919 8.85846e-22)
(1.01915 0.00855569 4.34003e-22)
(1.02399 0.00474675 0)
(1.01454 0.00344487 0)
(1.01014 0.00176796 0)
(1.00835 0.000170843 0)
(1.00724 0.000361623 0)
(0.913008 0.0400413 1.81128e-21)
(1.0093 -0.000766327 2.5391e-22)
(1.00422 3.81906e-05 1.11523e-22)
(1.00385 -8.51584e-05 -2.27871e-22)
(1.01706 0.0131463 -1.38528e-22)
(0.650605 -0.41279 4.2879e-20)
(1.0133 0.00793197 3.05103e-22)
(1.00347 -5.29242e-05 0)
(1.02944 0.0146261 -1.17732e-21)
(1.00811 0.00114957 0)
(-0.00806164 0.248373 0)
(1.03288 -0.0271491 0)
(0.891435 -0.244489 2.8347e-21)
(1.0079 -0.000622636 1.8144e-22)
(1.04112 0.0109569 8.98285e-21)
(0.991682 0.138232 1.39783e-21)
(1.00847 0.00195941 2.33567e-22)
(1.0519 0.0395706 1.0792e-21)
(1.01186 0.00561016 4.86818e-22)
(1.02324 0.00182296 -4.87803e-21)
(1.02628 0.0288681 -1.88142e-21)
(1.00322 1.83111e-05 -2.40557e-22)
(1.04765 0.0236994 4.3965e-21)
(0.844945 -0.0717185 0)
(0.991033 -0.0148269 -1.14706e-21)
(1.00874 -0.000615669 2.39281e-22)
(1.00818 0.00110701 -2.33422e-22)
(1.02539 0.0103425 -1.71018e-21)
(1.0251 0.0278705 1.89666e-21)
(1.01785 -0.0507167 0)
(1.0042 -0.0185773 -9.33635e-22)
(1.01432 0.00339157 2.68831e-21)
(1.00849 0.000144722 0)
(1.00534 -9.14806e-05 5.88116e-22)
(1.01688 0.012235 0)
(1.01693 0.0111615 0)
(1.03739 0.0070023 3.9909e-21)
(1.04066 0.0121037 4.4954e-21)
(0.917083 -0.164292 0)
(1.00851 0.000667976 -9.95181e-22)
(1.03708 0.00798068 0)
(0.815621 -0.0703235 2.91224e-21)
(0.654532 -0.400186 -3.02428e-20)
(0.222117 0.154877 -1.47897e-21)
(0.698199 0.0459494 0)
(0.610437 -0.413388 -6.2182e-21)
(1.02219 0.00111387 0)
(0.998731 0.110992 0)
(1.00955 -0.000824414 0)
(1.0048 -2.35871e-05 -2.99118e-22)
(1.01702 0.00890675 1.32446e-21)
(1.00736 0.000336859 1.6732e-22)
(1.06163 0.016556 0)
(1.01173 -0.00158368 2.30525e-23)
(1.0228 0.177801 -1.78374e-22)
(1.01341 0.000625974 1.15003e-21)
(1.01743 -0.0101503 5.78311e-22)
(1.00894 -0.000690582 -3.21291e-22)
(1.01539 0.0084464 -5.30784e-22)
(1.07215 0.0383499 0)
(1.01489 0.0155332 1.35219e-21)
(0.53489 -0.237477 -9.57909e-21)
(0.67411 0.248861 -1.3778e-20)
(0.998629 -0.00781554 -4.44028e-22)
(1.0114 0.00468056 0)
(1.01423 -0.00120571 -2.7433e-22)
(0.564157 -0.054225 7.80074e-21)
(1.00964 0.00272176 4.8697e-22)
(0.612357 0.162638 -1.49376e-21)
(1.00606 -0.000126384 0)
(1.10687 0.0293648 7.13918e-22)
(1.01755 -0.0426536 2.12351e-22)
(1.01782 -0.0101623 -5.68049e-22)
(1.06345 0.0359628 1.92693e-21)
(1.00886 0.172558 0)
(0.9402 0.0165684 9.23867e-23)
(1.01179 0.000967907 -4.77297e-22)
(0.876662 -0.0642431 -3.40659e-21)
(1.00134 -0.00773072 2.15999e-21)
(0.240669 -0.00194941 -1.2855e-19)
(0.261045 -0.0749345 0)
(1.01254 -0.00154495 5.07895e-22)
(1.16688 0.0178992 -2.45914e-21)
(1.01051 0.00296806 3.39627e-23)
(1.00832 0.00122816 0)
(1.02564 0.00214826 1.89461e-21)
(1.01365 0.00168819 3.13636e-21)
(1.00865 0.000203769 4.86247e-23)
(1.0119 -0.00154114 1.05899e-24)
(0.833773 0.297794 2.90512e-21)
(1.01401 0.00148316 0)
(1.02928 0.0328431 0)
(1.01117 -0.00041392 0)
(1.04347 -0.0498788 -3.35285e-22)
(1.02358 0.00163755 -1.69233e-21)
(0.655402 0.168715 0)
(1.04542 0.0213562 1.64344e-20)
(1.01686 -0.00208814 -8.53938e-22)
(1.01059 0.00285476 5.88991e-23)
(1.01018 0.00202026 5.90406e-22)
(1.0102 0.000883555 0)
(1.0094 -0.000858985 0)
(1.01525 0.00818554 5.03974e-22)
(1.01098 0.000142689 0)
(1.05277 0.0378037 -7.16076e-21)
(1.01109 -0.000441887 0)
(1.04385 0.0396407 0)
(0.947263 0.316927 3.08354e-21)
(1.01921 0.00423476 0)
(0.959251 0.108022 -1.05169e-22)
(1.05063 0.0399054 7.55767e-21)
(1.00675 -0.000226167 1.88979e-23)
(1.03481 0.0192729 -5.89137e-24)
(1.01547 0.0154054 1.47174e-21)
(1.01006 0.00357063 1.4736e-22)
(0.878967 0.227387 6.9138e-23)
(0.8856 0.248445 6.06606e-21)
(1.06381 0.0391297 -3.16773e-21)
(0.164711 0.1649 0)
(1.00498 0.000121095 0)
(0.98982 0.0404949 2.74016e-21)
(1.01077 0.00260142 1.84694e-21)
(1.02419 0.00429393 -3.1338e-21)
(1.0164 0.0109739 -4.00634e-22)
(1.01812 0.00247184 9.51925e-22)
(1.02438 0.0195974 0)
(1.0148 0.00937928 0)
(1.0432 0.0439299 3.95582e-22)
(1.03929 0.0141149 -4.09317e-21)
(1.0102 0.000890844 4.21764e-22)
(1.03531 -0.0251982 1.64334e-21)
(1.02864 0.0148758 4.04258e-21)
(1.00295 1.49438e-05 -1.44445e-22)
(0.995089 0.0125359 0)
(0.668527 0.206783 1.80089e-20)
(1.00685 0.00016179 -5.36298e-22)
(1.01632 -0.000892653 2.79532e-22)
(0.996087 -0.0208683 0)
(1.06285 0.0428378 -4.03197e-22)
(1.00193 -2.49301e-05 4.55633e-22)
(1.00275 1.94933e-05 -1.31497e-22)
(0.983665 0.0222793 -1.82097e-21)
(1.00435 9.00705e-05 0)
(0.960239 0.0928969 -2.46091e-22)
(1.01482 0.0155674 -5.30998e-22)
(0.276179 -0.288413 0)
(1.01809 0.000306587 0)
(1.0119 0.00446739 0)
(1.01443 0.000552817 1.95941e-22)
(1.04676 0.0238586 0)
(1.00616 0.000254089 2.03795e-22)
(0.986509 0.0223887 -1.45123e-21)
(0.811906 0.00425627 5.79344e-21)
(1.15494 -0.00194799 0)
(1.00616 0.000326996 8.96683e-23)
(1.03479 -0.0564576 0)
(1.03915 0.0180198 6.00564e-24)
(1.01263 0.0016482 0)
(1.01973 0.00079079 -2.22773e-21)
(1.00946 0.00271013 -1.10844e-21)
(1.01473 -0.00161799 -5.64087e-22)
(0.699175 0.143684 -3.50252e-21)
(1.01675 0.0113161 3.94931e-23)
(0.805337 -0.0497024 -7.29355e-22)
(0.962441 0.0180828 -1.29302e-21)
(1.01611 0.00229921 0)
(0.945057 -0.0425873 7.51382e-21)
(0.822787 0.200984 9.87204e-21)
(1.02105 0.00860026 0)
(1.00863 0.000557784 2.37115e-21)
(-0.0377257 0.311807 1.26573e-20)
(0.822052 -0.20689 4.0219e-21)
(1.0567 0.0673161 2.85519e-22)
(0.869385 0.133551 0)
(1.01216 0.00129247 -4.02861e-22)
(1.03055 0.0169475 0)
(1.01085 9.49054e-05 0)
(1.00569 0.000146679 1.75997e-22)
(0.745516 0.0202904 4.40334e-21)
(1.00847 0.00142908 3.14657e-23)