/*--------------------------------*- C++ -*----------------------------------*\
| =========                 |                                                 |
| \\      /  F ield         | OpenFOAM: The Open Source CFD Toolbox           |
|  \\    /   O peration     | Version:  v2012                                 |
|   \\  /    A nd           | Website:  www.openfoam.com                      |
|    \\/     M anipulation  |                                                 |
\*---------------------------------------------------------------------------*/
FoamFile
{
    version     2.0;
    format      ascii;
    class       volScalarField;
    location    "150";
    object      ddt0(ReThetat);
}
// * * * * * * * * * * * * * * * * * * * * * * * * * * * * * * * * * * * * * //

dimensions      [0 0 -1 0 0 0 0];


internalField   nonuniform List<scalar> 
18758
(
24.7069
-8.35886
-0.0158089
17.5415
-47.4383
0.0741324
1.21321
-5.85787
-55.4952
-45.3247
-5.80057
-46.8932
31.2769
-8.0382
0.557473
-0.800114
-88.0868
0.00894548
0.138615
-9.41185
23.2954
30.7477
0.116307
0.0134128
38.9894
-31.1085
40.0746
30.5548
-28.3352
4.24394
-14.5578
78.6984
-3.41492
5.23727
-33.3518
-2.64416
-5.70813
-39.3957
1.49158
-0.973825
-14.741
10.134
-10.582
6.18025
0.0647043
-26.0745
22.2421
34.8876
0.661541
38.3402
-5.08442
-3.48602
68.5202
29.0738
-68.0725
21.2035
-1.89449
-9.12326
233.238
-1.17538
0.348676
5.03196
362.051
639.999
-0.0101546
3.51292
0.323892
-0.0779815
32.9852
0.0254186
-2.18497
-10.7439
0.476074
-45.7133
-55.6278
-7.45222
-203.22
-26.9824
-59.7364
-26.133
-10.6181
-4.42083
-138.306
-90.7506
-9.179
-37.801
13.1154
-59.2064
248.58
-33.6585
5.88711
-0.14475
10.7436
0.58715
0.698079
-0.0905946
-0.223079
71.0756
23.7508
-0.0626357
-13.0335
-13.8408
-0.109836
0.0391569
3.09281
19.2103
257.918
4.14773
1012.84
34.6717
0.566617
-243.803
18.4105
-0.00551302
-11.2876
62.8172
57.2743
-0.612819
99.2982
-3.37811
-0.0957165
-175.534
-14.7304
-0.191719
-0.880842
10.563
-4.73185
-0.229563
9.86756
-2.5985
265.842
-0.0672733
13.6189
0.522376
-1.36682
-0.109443
1.49001
4.31074
33.0857
-9.06394
15.8987
-4.89439
58.528
105.49
-1.36988
-8.52586
2.187
5.65696
-7.84818
-33.7967
-3.6539
-0.944638
0.644223
-34.9644
-13.9577
73.4057
32.4085
-1.08855
-44.991
-7.79225
5.28597
-0.586397
0.217526
1.79323
-26.7761
-0.871936
-0.471594
1.64639
-3.02301
-22.4288
-0.457954
0.0333186
45.4539
6.53131
479.44
-0.286732
0.0403997
87.4904
6.32621
0.497821
-0.00560332
8.78741
-50.735
0.886582
-26.1648
0.757862
8.51355
11.1688
0.646166
5.94928
-0.845737
1.01155
32.389
-136.823
0.00152975
-3.47118
67.0544
1.08487
0.733759
0.0408567
-0.470653
-4.51474
356.494
-0.589782
0.332677
0.337302
-0.864868
-51.5296
-3.14411
-1.67443
0.0758059
18.8609
10.2695
10.8973
-6.26644
-0.277459
-0.237786
24.8745
0.0779806
-11.839
-40.9441
1.87701
41.427
-3.9631
535.433
14.3094
-51.8513
-60.3634
4.95417
-0.749855
-17.9004
12.1394
263.498
-0.101462
0.665632
2.57391
-9.16247
0.542478
36.5205
0.700594
0.0819928
-25.639
43.4685
-0.0231943
-28.5133
317.405
-0.215962
0.082927
-0.913286
-0.149119
-0.349805
-5.22266
-4.3232
2.37703
0.0819403
205.584
-0.73698
-10.2904
-0.2791
-206.932
19.1628
-0.259095
-0.321834
22.1644
-158.854
-84.1798
-0.317033
38.3013
0.128468
-1.14935
-8.43636
-5.79205
-0.904958
-0.566015
1.97856
-9.25577
8.25652
0.0701669
4.91374
5.60736
0.147896
-0.057223
0.505022
0.996558
1.43193
-0.469203
0.0321062
92.323
0.234178
0.183173
0.0489131
0.527972
-3.38319
-0.0597767
-0.10389
-5.73466
10.5832
-0.0612654
0.00734966
-1.17728
1.21228
-0.194459
-0.12269
19.9502
-44.6967
-0.0224962
21.6335
19.8532
3.0722
54.0119
0.361211
696.014
54.4564
20.7357
28.5137
7.07333
-0.00951584
40.4246
-74.056
0.215555
35.8515
-77.1883
-42.4043
0.115384
-0.0581095
-1.97386
23.5881
-0.286258
-0.262608
-40.3223
3.67704
0.557501
0.115903
-0.592911
0.409912
0.0492776
8.95987
-1.48109
-3.71728
-1.3801
7.21251
-1.78986
-199.168
19.8657
24.7206
26.4933
62.8287
-0.000952612
0.298477
-43.6815
1872.7
1.34819
32.9828
0.139992
-0.279982
-140.695
42.9948
-6.25455
18.1887
3.39381
1.40973
51.2636
-343.441
-1.51143
-115.065
-200.62
0.147069
18.2424
7.88821
73.6753
0.513853
54.3315
103.225
24.2098
-11.546
37.6198
0.069962
5.73994
-2.50209
-21.5592
-9.94637
0.33898
-0.0555013
-1004.76
-1.57163
8.60793
56.4994
-0.61366
1.02088
-40.1733
16.0228
-0.501279
-0.386655
-0.433559
-34.7383
-0.125866
3.20478
-0.0486984
0.106459
0.0321513
-2.74886
-8.96527
-33.3425
0.215492
-116.39
-106.387
-3.22305
-44.5553
61.4318
-3.28669
0.0423328
-8.3309
-4.70257
-3.91372
30.257
89.87
-89.757
-1.50753
49.9216
0.212181
4.34708
-0.0340922
0.797514
585.166
-3.08764
-0.0833501
0.706266
-46.1265
-0.0445103
-21.6592
0.0603932
71.9391
0.0741673
-0.0810966
-10.5484
-16.1877
-1.95113
0.198947
-3.70669
0.240445
-225.499
-134.003
0.0796053
4.59455
-0.022771
-12.6484
-68.0738
0.131956
-30.7418
0.0892964
6.74098
-0.0086058
53.9752
-8.3662
0.266954
0.374821
-36.9148
0.0475483
-12.7314
-9.47191
-0.81826
0.0477362
0.480625
-52.956
18.5306
-0.316869
12.6845
-41.2175
417.427
31.2134
413.342
42.1308
-0.375501
56.7785
-12.9889
-40.4704
-5.59911
-10.1231
-93.626
16.2233
-0.193835
-2.24026
0.0706808
0.285225
0.0214505
0.17006
-476.069
0.0972453
-0.0171234
-73.3046
-0.0767069
0.048658
-0.52066
-9.473
-77.5211
19.814
-0.943939
-7.56914
0.0293577
18.3041
-11.9492
20.7043
31.9849
-0.0693562
0.0315976
18.806
0.653046
-52.7369
-1.97572
-477.085
1.33386
0.0230541
0.00457728
-4.0304
-5.78142
-10.2109
-18.9302
-14.1022
13.7813
0.117759
-0.093366
-0.127116
0.0640269
-0.760549
0.0817125
27.2444
0.00637569
-141.859
-429.803
0.0246704
0.0154746
0.226683
5.02626
-5.14484
-312.998
-0.0803745
20.1635
4.39532
-40.4348
-3.28896
-2.47514
-0.92171
3.55452
2.67824
-0.437801
-22.295
0.105435
-0.639283
-0.886807
3.8401
-0.00526873
-0.293684
0.0476304
-0.0354011
-0.28056
-3.5687
-1.77702
-0.82446
100.819
-0.23458
-1.46303
22.6904
20.8601
7.88528
-6.06723
-0.883405
0.0347866
-0.573568
13.0658
-131.394
-11.0602
3.27072
37.0171
-0.607613
14.0448
-1.65244
-0.0213392
2.69225
0.0106937
0.0708816
35.906
-0.10117
6.95233
-72.2516
-0.10684
0.435797
0.72687
-0.587721
486.838
-60.7035
0.0807589
0.0311853
-24.2219
0.636513
-2.95528
-0.319924
-184.696
29.8838
37.7039
0.187622
-1.35185
-0.0147842
0.0570759
0.0486971
45.1586
-0.0955192
37.3612
2.69525
-2.67553
-6.88722
-147.638
-176.821
-0.154868
-30.2304
14.4972
0.369214
9.68968
-0.150952
-0.0160019
27.4247
54.4268
0.0333749
-0.163743
0.000499071
0.0420676
6.29562
224.818
-2.07647
43.9901
-5.9601
-15.1202
0.00156012
-0.0378221
-142.179
-153.179
-0.457165
49.6842
-1.08437
-0.590515
0.129919
0.105147
-104.785
9.59283
-0.0168503
-47.1966
-0.260912
0.368237
40.3768
0.705845
-0.221371
7.94382
0.239609
-37.4233
245.285
-0.233199
4.55663
26.7452
-0.384604
-18.4197
-0.416068
105.643
21.7602
-0.645832
0.132774
-4.58051
-5.32761
-0.854384
11.7641
16.0159
-13.3241
-11.7654
91.5319
0.029828
8.5281
-2.46455
80.4405
3.53944
-14.276
17.2333
-34.0633
9.34653
-615.299
0.691704
47.7139
0.0735601
54.3099
9.48921
-0.0741228
9.7038
-496.707
-51.6026
-6.45478
-1.77574
-0.0188579
-6.54071
-5.89293
12.3012
-80.7958
-0.283491
-8.85843
-12.3364
-0.950727
1.3878
-0.004435
70.2569
0.162193
0.126632
-29.3212
0.0669553
1.92025
-45.3585
-27.266
-63.6559
0.67005
-0.601477
15.5708
1.14628
-6.27025
3.92202
-8.25951
-3.3566
-4.74999
-0.00256035
1.97334
-0.0193337
99.8275
-13.9855
-1.32067
0.404878
-0.0103673
-7.18236
-11.5137
-50.4799
8.35378
-85.6638
-22.8878
-0.0245466
-75.5248
-0.141782
2.23376
0.961178
1.58543
-3.5898
-17.1383
0.314677
0.830222
-5.77929
-0.0190249
0.0796515
-9.80904
4.41979
-0.776608
-0.0412584
-0.0512978
-242.183
34.5122
82.6366
0.280379
-6.95232
1.50191
-1.29043
20.9616
-51.1225
-0.174555
36.3046
-110.338
4.87452
-92.7758
1.75398
5.2814
-0.175757
-0.40652
-12.8121
-1.44891
92.1897
0.278916
0.519716
-0.231914
-1.70684
170.096
-195.54
55.1739
0.0516806
-6.86934
-24.6194
-24.8245
-34.5629
-0.292182
-0.652321
-33.7468
0.171239
-32.445
-0.73175
0.293124
-5.52605
0.918544
-8.43715
-0.100169
-0.175345
28.0399
-0.0650036
1.12472
-18.8706
0.0133715
-285.655
20.8605
-140.75
-58.0305
-11.4176
3.89798
0.0282967
-0.767631
-2.29461
0.252619
0.0691885
-0.11438
0.0376715
-2.21338
428.31
-15.4289
-182.357
-12.9505
0.214331
-2.12462
-27.5024
17.2545
0.0611246
37.7596
0.160794
1.4986
-9.03691
20.0923
-0.1353
176.437
41.111
-87.0574
-0.0348588
165.147
-5.41798
-14.9193
-1.51037
4.59077
-1.99297
0.0318213
47.6393
-114.938
-0.197929
-8.23212
-12.1819
0.589927
0.0205315
-0.0471696
0.154188
-0.0792959
-18.6952
14.9537
-1.11933
-1.99933
36.2799
1.35822
-0.49395
-5.94842
-2236.47
12.2775
4.44319
1.12082
0.00685278
1.82002
11.7983
0.047602
-0.740424
-13.273
0.292285
-4.35944
1.78555
0.0840932
0.419491
10.234
1.09972
0.0216928
-24.8821
0.0104695
35.9631
17.889
0.306068
-0.307405
-0.046518
-7.84884
-22.0938
0.0101195
-12.8926
18.2742
46.2894
100.565
-3.60627
37.0839
0.0125804
-357.099
0.356039
-0.0547073
-59.8221
144.509
0.610525
43.3928
-10.8902
-0.0103645
56.2427
0.00826301
0.375633
3.81711
3.89043
0.214634
-11.0591
0.146614
-0.110897
-56.8674
-5.09307
0.029436
-0.293861
-4.93577
0.684955
1.29463
28.5135
217.518
-31.4301
34.053
36.1679
-0.502504
-0.0257726
0.0912325
-1478.02
0.0874451
0.0729917
3.57219
0.415771
-6.89079
-1.38139
0.773494
0.208738
0.00808476
-73.5059
-9.19319
-0.0274475
-1.23574
61.0123
-6.79982
-3.31009
12.2115
-0.0885516
-1.22587
-77.7874
-0.0342427
20.326
7.75144
-0.0264086
64.35
0.80201
0.0839127
-0.269069
1.1638
0.302945
35.4183
0.609998
0.106576
92.1395
-24.9982
-6.14506
-10.5587
22.2846
-0.176494
102.9
-0.0324185
-0.290952
-0.169197
-0.818295
43.8804
1.75038
11.6545
-1.75031
-3.66122
0.0533843
-47.171
-7.59298
-3.48914
-44.7868
0.0369158
-0.000419259
-0.340919
52.5696
-10.1301
-1.36715
-107.957
-0.220516
0.00470966
85.4143
0.65442
-508.091
0.114582
18.2374
0.126781
0.36175
0.167965
0.00274852
31.5732
-4.51138
-93.4281
19.7417
-0.0585688
1.69537
-10.8601
0.6472
45.289
-0.191531
-125.172
23.546
-6.70212
-2.05146
-2.39411
0.19055
1.00526
0.126223
15.3223
-104.534
0.42161
5.48103
2.54286
0.13083
1.42625
0.148065
-26.7649
-1.71863
-5.95535
-0.0398659
-8.50136
-43.0965
-166.289
0.377106
-0.287704
56.1511
2.06894
-0.0308624
-9.85934
-0.0353843
-0.0403868
-0.468271
-0.755832
29.3536
-5.65325
-0.00165405
-0.246015
24.6373
-5.18565
18.9558
-17.5305
5.66387
0.447184
-0.0042374
-0.822212
-2.37561
-8.52875
-31.3096
-0.709723
28.0331
-19.7738
37.4538
17.9494
3.54568
-0.789665
-7.45227
0.328056
1.94586
-6.67534
0.745043
0.0344023
15.0506
-31.1292
0.0678482
-0.102092
-0.353265
16.0495
2.80583
-14.3153
14.851
10.911
1.47828
5.75089
-0.380273
10.1971
-4.71827
-1.30784
5.01151
13.0205
-0.229183
-0.896839
-4.71217
0.0159632
0.0721387
0.00445621
-11.7044
42.4357
151.838
7.76092
-11.0641
9.5624
-145.344
23.1266
-0.909419
-287.596
-1.21733
0.967631
3.36058
0.0596995
-0.669134
3.17723
-2.74125
-53.8141
16.3495
0.0725313
-0.0395617
-24.6594
-2.12323
26.0858
-0.0838427
1.04094
-0.0510505
9.63014
99.5293
8.32626
-0.280121
0.0398483
-0.296894
72.8318
5.23383
-0.101692
29.611
0.27974
0.247039
17.3695
30.2549
11.755
0.0827702
0.0414958
-1.31808
0.0483425
2.12648
18.5412
1.5905
-89.1005
-24.1516
-0.856791
0.119737
6.20756
3.12059
-29.9874
23.8826
20.7056
-6.15499
313.087
7.27575
0.0256959
-0.480474
0.179531
-24.98
-0.299995
0.0571595
-70.102
-4.41299
15.7954
-1.01392
5.52636
-50.3469
4.45065
2.96954
0.635738
1.99508
417.936
0.0598904
23.1243
-47.0178
-0.0371519
-1.27786
15.9163
7.61608
-0.00864855
-3.80702
-2.16452
-1.14411
1.22761
-8.63767
-24.5683
-9.09343
1.82874
1.01127
18.3665
-143.986
-124.791
-0.698302
-3.29832
1.05433
-32.0936
0.218862
2.43551
1.77553
29.4672
-21.2958
-47.1058
47.4875
-103.697
-0.915582
-0.0103218
11.4353
8.39743
21.4675
0.00179345
38.9517
15.7745
0.000312171
-0.250364
-4.268
31.833
1.1826
-10.9484
-76.5589
5.98518
51.8561
-189.687
29.0655
-8.04798
-7.3715
0.389244
-37.43
0.448773
-0.117897
3.96836
-0.229436
-660.365
0.0554307
0.374263
14.8469
-5.41849
-0.140407
-73.2491
-0.010219
2.13699
-0.0499946
-0.418906
0.0191709
-9.32023
2.34328
7.84737
-76.0477
-62.5933
1.18011
2.54036
-0.159133
-0.125817
10.356
17.7272
3.45874
-0.493897
4.08051
20.3564
-0.00323214
0.043478
-0.0813796
0.123201
5.00418
0.225861
-2.56127
4.74031
0.124992
-18.504
-24.3237
8.24441
2.6442
-0.0900785
-20.3841
6.76217
3.08073
53.4715
-0.9367
13.3533
26.2706
5.1064
-0.483404
7.34749
35.8691
0.300494
-0.146451
-14.6831
-13.1195
-44.7752
0.31928
64.6967
0.00932334
0.198338
0.114003
25.1901
115.938
-33.5023
0.324611
0.00168272
-0.63536
0.0641788
-27.59
0.018049
6.5729
29.8164
20.3671
-0.49082
0.0218153
0.306533
5.46518
-1008.84
-0.0329431
37.9261
16.2538
0.0962973
0.452445
-0.00525126
3.39185
0.367034
0.0473622
-0.145003
-52.345
1.39541
46.2314
0.0689384
0.489742
-628.264
-26.4941
122.429
0.382565
0.769595
23.4384
-112.597
13.0555
31.7857
-0.665027
-20.6176
-99.1391
-0.242705
-0.482014
-0.0586825
0.0671613
313.22
-2.32162
22.5853
3.52566
-0.00225238
3.43457
7.7779
48.3692
-0.0236414
20.2157
-49.3501
-27.5539
59.2013
-0.193364
-0.0372803
-1.60299
-21.1027
-0.261044
0.119434
-16.7357
-0.245142
0.269212
-22.2704
105.621
41.458
-3.49897
-0.841814
0.882792
13.3638
-3.36949
-169.825
0.604855
-0.188256
24.8451
31.9474
-0.647972
-3.1647
-13.2782
-32.9804
-0.261321
-6.08009
512.371
4.5994
-5.9836
9.06577
-9.55682
9.76789
67.4585
-6.08039
38.1441
-54.5984
46.3796
4.55181
-0.0937844
-374.881
188.337
267.781
4.91313
82.9311
-51.5175
-21.2942
0.134417
0.0364071
1.32824
1.0359
0.230203
-0.00712133
-1.33388
-0.928327
-2.8946
-0.241494
-0.153053
1.01028
-203.607
-0.317832
-10.099
29.3927
-18.2305
-0.0277048
-558.944
34.7128
46.3632
1.58536
0.0473577
3.79975
-11.4188
24.5812
178.086
0.0525923
6.01853
0.646694
-0.160491
-36.187
48.3655
5.72375
-2.65188
-0.0997726
-1.19353
-0.0053028
-0.0650277
15.97
9.32413
0.0311264
-205.071
313.936
0.23184
-0.014705
-0.490762
42.0756
-0.512574
-221.82
17.5752
3.93973
0.10532
-2.4055
-0.227227
-1.46364
-11.2091
28.8576
-862.841
-10.2877
-0.195548
3.45019
3.28262
-5.05659
-0.30487
1.23054
-5.42717
-0.617735
-4.0967
-0.0110051
13.2077
-77.176
0.13798
0.0639213
16.5056
0.175282
-0.852631
0.453747
39.089
-0.0277692
3.63205
22.7567
67.6254
-478.769
-7.22256
1.91239
3.07114
-9.8363
-0.0473977
0.0412796
4.48443
43.6655
-0.749257
-0.58769
-131.161
-0.465051
27.744
-16.8132
0.0613393
-308.845
0.491088
12.6301
-36.1281
-12.4469
16.9381
3.7795
13.874
18.0341
-0.0125167
-12.6982
9.77
0.123687
323.882
-47.308
1.76547
3.35916
37.6105
54.2259
-1.09896
-22.8435
3.91373
-0.789752
-5.36868
-1290.22
-34.4541
-0.0639339
-21.17
-22.4182
0.270764
9.85752
16.018
16.7306
-296.792
-267.843
2.66655
-25.3055
-145.689
0.10109
1.1589
8.845
-117.92
-3262.07
2.04449
48.9255
1.75568
-0.565999
69.3287
-4.24227
-51.7555
28.6137
-1.63732
-1.52547
-18.8881
3.87638
20.5666
70.4911
-0.0309273
1.40521
-10.702
-0.0136605
42.4172
-142.154
0.686787
-198.494
19.4772
14.6612
-14.016
-2.21864
-10.2384
-75.9885
146.079
1.35551
0.24773
23.5387
18.2965
2.85336
1.52392
-1.21952
-348.962
0.0991512
-22.1901
17.0103
-0.223541
0.929668
-0.00445641
37.5393
-1032.34
-9.48388
-1.33785
14.896
22.3239
-0.379524
-2.95738
0.208192
5.8993
100.771
-0.0142918
0.117033
216.829
2.35463
-0.852862
-21.025
-708.815
13.0201
437.921
-0.116757
1.06711
-18.2005
-0.0252938
0.017079
2.32052
0.527217
0.0625083
-0.169103
-0.0556621
-6.3665
0.474932
-76.1104
1.08967
-0.380496
-45.3357
0.126057
-9.88825
-0.15911
1.49667
-225.148
0.233046
2.98136
0.925362
-62.3659
0.017034
-0.0721401
-4.61467
-71.8287
14.3911
-0.0526885
-356.105
59.0119
-9.56994
-541.758
-76.7918
0.292041
-0.105544
20.9387
24.0493
-0.020477
474.047
19.4833
-0.102539
339.114
6.16709
25.2194
141.218
101.137
0.762762
-0.0550356
0.030144
1065.62
5.72563
23.3853
-57.1107
22.2486
55.3457
-1.82624
30.975
-0.0760644
0.49766
31.0385
1.58984
-0.333391
0.930175
-24.4759
-0.177107
-74.4657
-2.48908
-24.65
-196.702
92.1031
-5.757
-0.146282
0.328414
-0.126647
5.26414
111.113
-7.65371
-0.756426
0.348357
-2.10118
-0.0592715
-53.1042
0.168573
0.00652303
16.6885
-0.492426
-0.00438512
12.6909
-17.139
-50.5053
4.16375
1.21029
213.251
0.329341
25.65
-44.7195
-248.598
0.164265
1.68275
-51.5462
-0.0329691
53.1094
-67.8789
101.263
23.4422
0.0644824
19.9583
0.474016
6.24368
0.685281
-0.00327072
-3.93398
0.0281461
0.119234
-1.99977
0.0928504
-0.492548
3.43247
3.62393
0.086211
-1.55091
0.407577
-6.46124
0.419704
-0.0549531
22.8466
58.5946
-5.09882
-1.27763
-0.02272
0.148636
0.0822468
0.0293504
-20.8646
-0.0101651
0.0616133
-2.26055
-0.236481
13.6492
0.687077
34.8756
-2.26296
69.2115
-92.8034
0.919439
8.44175
-48.9227
-216.472
-2.02895
285.219
0.0244345
-3.80727
2.02201
267.865
227.535
-0.0597775
71.4649
9.9108
-0.17515
33.0647
41.0176
-18.172
-0.230534
6.98338
-136.512
-24.5196
-96.9855
-0.118486
-1.41855
0.5822
-3.61811
-3.27687
13.5506
-20.8478
0.000441772
461.042
66.2996
-191.383
0.083204
-25.7809
1.75605
-10.0317
5.39502
-44.6982
42.0323
-0.870706
2.23371
-0.0738962
-47.0315
-6.97465
15.9383
2.15861
18.0101
15.1448
0.909971
-0.00872926
0.0262177
0.000428981
23.1616
-0.0646768
-19.1597
27.4967
-34.0144
-42.085
1.06763
615.649
0.292962
-0.092457
15.7968
-13.759
60.2102
-11.3221
-79.6384
-65.9401
9.00576
82.9127
-6.84065
-185.265
0.543468
-0.243669
26.047
0.505444
12.975
-1.24624
-3.75091
10.5923
-18.0378
71.6398
26.444
13.8586
-5.88514
-136.304
-2.56314
-0.0146279
-0.0578461
-0.963056
-4.02637
14.1746
-24.0555
-8.29687
-4.85153
-0.0846715
55.8993
0.0444103
13.2774
0.735787
-0.0219623
-0.729054
61.2007
277.451
-13.7431
16.2522
-0.0689625
3.80508
-17.5558
0.688599
-14.1786
11.3826
-0.01758
-33.6516
-0.109876
-0.226885
-0.884032
82.0306
-1.55645
-3.88057
-15.3523
-5.30704
-168.99
-19.488
2.22557
6.90985
0.188524
1.51094
0.016543
0.0211826
0.867464
-242.391
1.05676
-2.37099
-1.27934
47.0924
22.7945
2.06023
-0.0181074
113.128
10.6838
-48.5145
0.863271
-17.8483
-0.196403
1.70953
3.98473
29.444
1279.04
-40.6807
31.1332
-0.0430608
0.296738
0.247115
-0.0587638
1.35433
-0.153032
8.91656
-0.214344
-21.0756
-1.99505
-24.3926
-0.666453
-0.929764
1.00027
-13.4166
1.70811
-42.1515
0.0212532
16.6155
25.8793
-28.1158
-21.9995
12.461
32.4718
0.0426025
0.996584
34.5319
-40.3594
-58.6373
25.3147
370.285
-66.1087
-6.79113
-4.88161
-0.937982
39.5792
-22.1102
45.8225
9.55805
-2.09723
-236.653
-15.0194
-3.35031
-26.0494
-2.36669
0.15128
0.307168
-5.66075
8.82925
4.14383
-17.7877
-128.147
8.17578
-0.0464272
55.251
-126.085
-14.7964
35.6394
16.4196
-9.54516
-8.71578
-271.779
-2.53293
-34.4353
36.1802
75.4526
16.6541
6.62446
2.2208
-1341.1
0.290352
-9.22176
52.9325
0.346818
-23.4919
-8.28664
-31.9634
23.329
21.2508
42.3711
0.0345264
107.365
-0.202056
-2884.65
-0.750265
12.7312
1.2907
9.39443
17.6758
-28.491
-145.702
14.5557
-1.51449
41.7061
0.634568
9.56794
-17.8374
-0.471646
68.9431
0.239284
0.000195894
-89.1139
-0.0304132
-0.00958502
-76.0794
-18.7202
-0.0069574
78.7811
-181.852
-53.474
-0.117823
0.568784
16.8882
-9.0036
0.267401
0.123491
0.0450238
22.2313
31.0228
27.7947
-31.3487
0.37555
-0.00842954
-102.838
-22.699
33.8184
-59.5242
0.799181
6.71794
0.0790028
-25.5469
2.14737
16.0758
-83.7499
4.43575
0.613272
-12.0104
41.606
-5.11362
-8.13456
26.1564
1.07401
-0.0642826
26.2341
292.23
0.859184
-0.208082
-9.87161
0.00828466
-0.0452935
45.3979
-0.0492819
417.653
31.5301
30.8656
0.267494
102.231
77.5632
-0.467775
0.853895
-9.88534
227.601
36.8938
-30.0494
13.7037
13.1784
-6.19214
-383.85
-6.49819
-32.3975
-0.362386
-19.3096
-0.149861
1.57883
0.295002
-53.5879
-1.04252
-6.01649
9.8843
0.354657
-0.0703168
-1.09598
19.2347
37.8874
6.22026
0.341875
-0.123463
-2.05305
8.1333
0.030973
0.798353
32.6505
-3.32277
8.05325
-0.282879
4.05565
-235.146
86.1867
22.4717
2.43362
10.9543
-3.19792
0.161824
-19.4159
0.532231
-5.80079
-57.9302
-0.0162672
5.63915
-112.022
0.0487048
-1.27535
-1.65286
10.8189
-0.0161524
-10.6682
8.22213
0.00112713
-0.103371
130.303
7.29643
17.0463
2.87275
-2.45697
0.307233
-38.018
-30.6493
0.17173
2.40986
-0.0173257
41.7092
14.7116
-0.425606
-0.276932
-0.026258
36.4647
-13.9059
-0.283186
-2.40501
-154.179
52.6491
-20.8417
5.18553
-0.000768463
-12.4766
52.0846
6.84415
-154.049
-13.9341
21.2227
1.81139
-0.0122258
14.7601
-41.2991
6.76875
-0.320103
0.170173
0.387411
-327.23
-4.06801
1.76137
4.14039
410.972
0.780218
0.167917
0.173735
12.4397
-0.0479737
-0.747618
0.318983
-0.504095
-49.0894
-0.137597
-0.172116
-5.10204
-0.962516
40.8283
123.23
-23.5597
-23.0018
0.374193
-22.7175
-59.9665
20.4368
2.87772
-52.6622
-2.92602
-0.0616153
291.946
0.0562999
-23.4065
125.106
-0.111055
-30.1981
-0.0391464
0.489006
-0.547468
0.428132
-5.58824
-203.488
75.3021
6.70193
-4.45169
0.281263
35.8808
0.476514
-1.29304
1.5346
-5.38574
-0.0330281
-0.0531046
2.53793
-14.1143
0.943059
-0.232331
2167.73
21.1081
15.3887
5.64443
5.95295
6.34793
3.91931
26.9988
0.307321
-45.5007
5.56534
64.1945
49.4742
8.81822
6.79193
-0.353297
-44.755
-4.6286
-0.138056
-1.97814
479.565
0.911695
-21.3121
0.0604795
80.2031
20.2749
-32.9699
0.0473536
3.22081
-13.4642
-0.796128
0.0892624
-17.8429
2.18792
2.3698
0.0380689
-40.5156
879.48
-169.601
-1.77955
-113.979
0.478326
-0.0275509
59.0812
448.249
-0.329646
8.85912
8.65077
0.149115
48.753
9.54995
-8.59283
-29.2812
-1.30966
41.9196
3.37544
-98.8054
0.000389899
0.0681377
-6.02985
-0.144374
-19.68
-17.7018
-2.42271
2.0907
-3.89453
0.174639
2.11818
0.136529
-24.5208
3.01446
-0.0675153
-27.6933
-31.9959
30.499
-0.626861
-151.574
-10.1894
-1.47166
-37.3457
-0.00790461
3.00997
-0.0322808
10.6556
0.00146164
13.5431
-2.3625
0.394612
0.165086
-119.629
9.4966
-0.53463
-0.312227
-0.0223087
4.25676
26.6675
2.44489
82.935
-1.67124
-58.7383
-0.17928
0.162366
-7.86726
19.0118
-11.479
4.72675
18.926
0.0648339
4.23571
1.14379
-0.080363
0.043873
-32.6911
0.00972962
-0.622967
-498.417
10.0984
-1251.28
0.0504964
0.0456207
0.898059
38.8911
0.539729
-26.0812
0.204185
29.0986
0.00880545
-12.7332
9.82282
-3.48104
-11.7669
276.676
10.2478
-8.44301
21.5436
-34.2561
41.0683
-337.852
-169.429
-3.08436
3.28668
-31.493
9.24993
-3.87286
78.8535
-193.893
-35.3193
6.88747
-0.227522
-0.758447
-0.727566
-7.31096
301.724
-14.49
-0.0315132
-2.25003
1.41254
-1.00491
3.3382
0.236343
8.09073
274.325
6.8632
-12.9826
-66.7173
7.82933
1.72408
0.200813
32.202
10.8331
-0.155499
20.9181
-2.57891
-4.86231
3.88449
-318.616
36.6262
19.6029
-10.1319
1.6056
8.70483
-20.5703
30.6184
0.0156185
0.0175457
0.42884
-0.434953
-409.301
-1.32354
-27.0429
6.13182
35.919
318.363
-20.4225
-3.82091
5.97953
0.0718053
295.513
-0.423803
122.741
-31.2814
-31.8283
-37.2438
0.239294
0.875589
41.2329
5.25094
-1.33455
0.204428
0.146812
-1.25203
2.88006
-0.337848
-1.39058
118.342
15.677
0.0273571
0.938794
-0.318703
-17.5896
5.82103
8.34991
2.00356
0.053073
57.3974
0.5458
-4.18389
2.18853
0.0329554
2.20676
-0.00528998
-18.2586
-8.7586
-42.0882
-13.7025
0.171234
0.73651
-10.711
-0.884815
56.173
-34.6672
-57.1936
-84.8327
27.5257
-0.35239
0.800678
-3.99419
-10.9407
28.6544
-37.6837
74.9712
1.1699
-20.4053
0.177962
13.1631
0.444178
-7.18143
6.57552
11.828
-82.1752
-0.159694
0.905923
-265.519
-31.0249
-8.73369
1.35507
83.559
0.00750459
3.92828
0.271304
0.560961
0.00144836
-3.11615
33.0003
5.25843
-7.24101
1.53669
-6.39885
1.04048
-5.57844
-1.18023
0.236166
-37.5533
-0.0895847
-2.17296
-17.4182
-45.8101
-1.49854
8.17941
-105.791
-23.0969
61.2558
666.294
0.0638955
30.1579
-255.862
-0.293826
0.308478
0.620767
1.68534
-3.26223
0.0861181
-0.822006
6.55638
0.577649
1.19293
-7.50182
48.5888
1.58575
0.833232
0.0434771
9.3025
-18.4573
0.650372
-0.142115
-1.67619
27.4617
-12.3162
1.04841
-1.80573
2.48926
-7.66512
-422.992
-0.569655
0.732691
-0.390552
0.0802283
-0.25804
-0.726667
4.99576
20.0893
-3.20893
376.372
4.04246
0.0519219
0.0389819
-19.6767
-15.7694
0.878042
42.9776
1.53518
0.0697569
-1.01312
-0.492832
34.2806
36.2433
-14.1558
1.14527
-2.78564
43.237
-288.694
-5.94532
0.100388
-12.3201
-1.71932
0.146988
-14.7141
-0.344264
-27.1829
60.3269
4.99752
72.8278
22.6433
114.557
18.1713
-13.1358
-135.319
-6.20999
0.977473
241.485
0.840276
71.1176
0.952935
-0.352532
-3.91807
-5.4227
-28.0763
0.0313125
0.243615
-0.070542
0.358527
-0.756716
50.781
-0.0090906
-0.329264
-17.2167
-4.53016
0.478698
-1.6056
1.4815
21.3858
67.2634
-44.7712
-0.305748
-18.5355
-4.90547
36.7814
-13.7861
40.4817
-0.542706
-77.2995
4.9354
36.4678
-17.6918
-0.882456
308.557
72.2209
-1.00076
1.91439
7.63332
-26.9168
104.786
0.26503
0.042117
590.562
-0.0317229
24.1014
105.356
27.3741
69.3435
-40.4708
0.0650303
9.07173
39.6037
1.06254
8.69605
-1.17661
-306.471
0.263374
-6.19662
2.94384
107.733
3.10312
0.995481
-0.928401
1.84625
7.61596
-3.92232
-22.2075
-1.96318
0.782825
144.871
-326.88
-0.0347609
11.3772
3.36363
0.395954
14.4339
-1.27732
-0.386761
3.78461
1.83399
1.21884
4.84427
-0.27813
-7.08167
281.286
5.49649
-2.24741
5.1684
61.7336
-1.81247
-23.8357
3.44404
6.62369
-0.963838
-5.66479
11.8412
0.0816097
-0.00492585
-0.541286
28.4452
1.2691
5.8868
8.96265
-7.92426
26.0462
3.76265
-966.593
-4.52828
53.6149
103.564
1.22886
0.83211
-34.3127
49.479
6.4304
-3.15314
15.45
2.11416
19.6857
17.7054
-0.165565
-3.45828
6.45231
-71.6759
-0.151576
18.5216
-43.0179
-16.8719
-60.6008
152.754
2.24468
18.1081
-5.74027
-12.7417
-98.9557
-2.43016
8.02269
-256.26
4.68673
-25.6596
0.0200777
-2.73316
79.9033
45.4713
1.50297
26.093
-0.658095
33.2978
0.00900429
4.92763
0.170934
0.0269983
48.6436
-0.899914
1.30499
150.569
-0.632781
-0.650547
311.643
-28.6947
-3.84487
0.0480372
127.784
3.948
-225.924
149.922
-28.5691
-5.00691
-8.37242
-412.944
1.1322
0.276786
-30.4847
318.975
-56.0171
-9.51519
0.980887
-0.0153735
-3.16074
26.3776
150.497
0.536487
-30.3682
0.635972
1.24796
1.68679
-0.151761
-21.7679
-452.948
-0.0117784
191.67
0.00532129
49.1789
382.838
1.103
-68.0925
0.109186
-264.753
10.9402
1.40028
0.83455
-4.12101
1.689
-0.244348
-26.6836
7.23896
9.82884
-1.37308
125.59
115.105
39.2865
9.42474
-15.7719
-0.00250328
-3.06083
141.7
19.2118
-10.0408
-12.5141
-1.24493
0.181037
186.668
393.689
23.3127
0.0247455
0.560559
99.6718
83.5989
-5.50415
0.319496
0.223999
0.188049
-0.15108
0.0408673
-0.0884112
0.0415256
43.8971
1.0121
-6.34209
3.72046
0.453353
1.26218
157.155
-2.83927
31.7125
-0.566389
0.114847
39.2214
22.446
0.349906
0.55463
0.0164111
7.3795
90.1908
45.9544
-0.421672
0.377942
28.5976
-0.138384
0.339966
-8.58982
-0.150646
-10.773
16.5518
-33.2198
-1.66928
-42.232
-231.72
0.661192
0.33967
45.8409
7.15653
48.0821
44.9936
-4.03309
49.9544
1548.45
157.022
0.784278
6.39406
5.58961
126.524
18.9498
135.028
-48.9245
-0.0184575
15.4781
118.739
17.2894
0.175224
-0.00771523
17.0466
32.3145
-0.476485
228.603
-12.5783
1.20558
-2.04313
0.0733038
-11.0841
30.6612
596.905
-79.4384
-58.8444
-0.292361
38.4962
65.5026
206.81
-0.477094
-33.9181
-0.304939
47.2025
-12.2213
-28.117
-61.3769
1.23439
-0.323863
-0.391395
1.62416
-0.141002
19.4052
42.2212
-721.674
-41.6494
13.6032
21.0435
-0.831338
0.996424
0.992728
2.31712
-0.338221
0.245954
-13.6152
2.46161
41.8243
0.0398813
-3.80446
-29.7144
-1.92323
68.1327
-0.0718939
-3.22716
-1104.48
-31.0961
-2.28758
-0.315048
15.0724
-0.0128064
0.212078
-8.64576
18.4224
56.1227
-48.2595
-0.463751
-13.4612
3.55324
-25.4467
-5.44978
0.279207
-0.282355
-6.70926
25.1823
-3.19918
-0.33296
0.894485
4.18141
-12.6026
-0.373216
12.2407
13.6902
511.918
-0.296159
23.845
38.2302
41.3243
16.0414
-0.104871
-29.1253
10.1371
93.9283
-0.24386
0.205082
-0.404861
1.05155
-1.18321
7.57008
-641.352
14.8301
-10.0539
-0.005863
-922.048
-202.717
441.386
1.1484
-44.74
0.373472
-2.83215
22.679
-0.0608519
24.6578
-17.1106
-1.97466
0.279108
0.891611
-0.518966
142.626
114.223
21.0854
39.8932
-0.00759998
-20.9255
-0.625268
31.0289
-94.1879
-39.0423
-0.124514
-47.9989
-50.4737
-60.2408
32.8702
-64.0586
475.133
-0.562537
-21.502
0.0471748
118.603
57.0548
4.5439
0.936836
3.1701
-2.91535
0.0858898
-7.24066
43.4461
0.047261
0.135054
0.199886
1.3259
105.445
-12.2644
-1.72931
5.30063
-16.6058
1.28357
-5.22428
10.1214
-0.393075
7.80576
-14.9091
2.37415
21.0651
0.479999
78.6999
-16.6635
-18.4552
-28.2528
-71.094
-119.216
-42.1554
2.52265
-23.0742
-97.5861
-1.36394
-0.161445
13.2083
0.0173421
-0.914608
1.04397
-0.750922
4.24257
-6.83098
302.9
-35.3968
76.2991
44.5465
0.313875
-12.6575
-11.6716
-7.44189
56.5732
39.2581
1.91951
2.31279
-485.032
59.4291
3.10268
145.776
-38.4843
-0.655749
-0.0493486
27.8561
-37.9062
354.993
0.102591
0.173949
-385.911
-33.6443
9.55536
0.248173
28.4055
-0.00101516
-3.61725
-5.06959
0.595284
144.213
1.84391
5.1551
0.0790422
22.2334
-1.7993
-474.59
0.0577735
20.1063
0.644369
53.9523
6.32546
-8.22651
1.55052
-63.8103
15.589
-354.119
-22.0277
22.8718
45.2889
-17.6959
-10.13
24.188
1.73294
-5.41129
-142.645
35.584
30.1312
18.759
-22.8576
-5.59525
-13.5053
-70.2729
0.655743
-31.2278
92.7008
27.3723
77.6444
-9.60847
0.366316
0.4904
34.6318
59.9039
-37.6354
-3.05469
-0.299277
12.6459
14.4916
20.5122
23.6976
0.0411451
13.9763
-0.187808
27.0282
0.0373953
2.73542
7.58471
-11.3808
3.37979
-13.2044
-4.17515
15.9528
-114.59
59.2373
0.0545102
1.89442
16.3848
288.35
133.186
-2.3598
16.8763
12.9193
25.9175
24.8028
60.745
122.004
12.2459
0.199339
-18.574
-15.2672
-0.251673
-74.9082
131.468
0.12907
10.4195
-0.0163439
2.40346
0.0802765
-4.30166
-2.52477
7.37887
19.4934
-1030.5
-0.135907
7.30686
0.310127
6.96767
0.304907
-61.9939
-460.572
64.4733
0.152014
-49.6086
-0.515493
1.68416
12.774
0.700765
-29.4569
-10.4772
12.9798
-75.8592
-1.12462
3.27509
-4.51211
6.49144
0.713523
14.11
-7.51112
6.0732
3.95934
0.186228
16.9672
3.47703
-2.53197
19.3601
-2.91152
10.2768
-15.4994
0.435348
-62.2308
-44.8443
0.0107545
4.72867
-65.5123
239.033
19.0579
-29.2222
-0.064379
-1.67671
-9.58379
-8.15062
-18.7617
-18.9445
14.1636
-4.028
23.6334
1.90045
0.164558
-103.398
-23.7799
-6.5461
3.33818
5.97173
-1.78587
14.6653
1.18891
7.22028
14.5854
29.02
-33.3882
15.992
-66.327
54.3482
116.904
-1.37964
-0.549452
-149.9
7.8278
-70.3759
-1.17856
28.5723
-12.8675
13.6084
2.24166
-25.2624
4.75123
29.4869
-37.3156
0.116577
0.613033
5.1559
16.9894
0.120023
-0.117734
73.4906
0.868379
-18.7281
-96.8114
-14.7759
-8.30201
-26.5725
1.34884
2.39702
-0.246228
-3.75141
1.50682
0.40234
74.1102
10.379
-20.7269
-7.81392
-23.4123
4.76539
-17.9849
27.1216