/*--------------------------------*- C++ -*----------------------------------*\
| =========                 |                                                 |
| \\      /  F ield         | OpenFOAM: The Open Source CFD Toolbox           |
|  \\    /   O peration     | Version:  v2012                                 |
|   \\  /    A nd           | Website:  www.openfoam.com                      |
|    \\/     M anipulation  |                                                 |
\*---------------------------------------------------------------------------*/
FoamFile
{
    version     2.0;
    format      ascii;
    class       volScalarField;
    location    "150";
    object      ddt0(gammaInt);
}
// * * * * * * * * * * * * * * * * * * * * * * * * * * * * * * * * * * * * * //

dimensions      [0 0 -1 0 0 0 0];


internalField   nonuniform List<scalar> 
18758
(
-6.42042e-08
7.3854e-13
1.10559e-15
-1.5017e-07
1.13175e-07
-5.99653e-15
-3.83411e-16
-4.63674e-15
-1.76781e-08
1.17001e-08
8.82822e-13
3.67414e-14
-2.50487e-07
-3.62084e-14
-2.45891e-15
-9.92225e-15
-9.7904e-15
-1.24909e-13
-8.14883e-15
-5.70507e-15
-1.85056e-14
0.00104417
7.23243e-15
-4.17518e-14
0.00394763
4.49783e-06
-9.531e-08
-1.2933e-11
-3.03825e-09
8.42858e-15
7.58975e-15
4.19182e-08
6.68471e-16
3.01631e-10
-4.26996e-07
6.16155e-15
-2.4139e-08
5.13899e-08
-6.58834e-12
-5.14952e-11
8.34573e-15
-3.64435e-09
2.3765e-14
1.06606e-09
-3.10283e-14
1.44471e-14
-1.72624e-10
3.18162e-09
2.18671e-14
-1.6861e-07
9.58704e-12
-2.93652e-14
-1.46247e-07
2.93651e-15
-8.54498e-05
-2.46498e-07
-3.86068e-10
3.97209e-14
-9.61065e-10
2.33457e-10
-2.72119e-15
9.54274e-10
-0.000119466
-2.58184e-06
-8.10263e-15
-2.35479e-14
5.67934e-15
-4.03677e-14
5.09989e-11
-2.81896e-13
2.49307e-14
5.57835e-09
-3.68792e-16
-6.82103e-15
2.7085e-08
-6.81584e-15
-3.44921e-05
-5.45971e-15
-2.37722e-08
-4.03648e-15
2.40102e-08
-8.11813e-13
2.31655e-14
-4.08833e-11
-8.28195e-10
2.50623e-06
-2.64014e-14
3.65461e-14
-2.30723e-05
-1.24175e-06
-3.06365e-14
4.5792e-14
-4.18255e-11
-5.80619e-15
3.45385e-14
2.59751e-15
9.39374e-12
-1.67569e-12
-5.0621e-16
-7.47411e-15
8.50514e-14
3.6593e-11
8.13774e-13
-5.74246e-16
-3.27621e-14
-4.7107e-15
1.09123e-08
1.28482e-14
-8.19226e-05
3.47821e-14
-3.87516e-15
-2.63443e-06
2.94787e-09
-8.41664e-15
1.71166e-12
-1.37807e-06
-9.47845e-14
2.31847e-10
0.000199939
-1.20981e-09
1.21715e-14
-0.000457248
-8.24993e-10
9.94767e-14
-4.95191e-15
3.46587e-14
-9.11062e-11
1.06645e-13
-2.54518e-05
1.03544e-14
-6.34687e-10
-4.39469e-14
-1.22737e-15
-3.56527e-15
-4.60857e-11
-6.91973e-15
3.32108e-08
4.39726e-11
3.1646e-08
3.86004e-08
-1.55452e-09
-2.43724e-14
1.05638e-14
8.72846e-05
-1.83828e-14
-1.48096e-13
-6.09219e-14
-2.2557e-06
-3.23703e-11
-2.79497e-09
-7.74092e-15
8.22752e-15
-3.33956e-14
5.14563e-07
-2.66002e-14
-3.31257e-08
-8.56703e-11
-4.62817e-05
-1.67639e-09
-2.10865e-13
9.87367e-14
-1.7258e-12
-2.88563e-14
-2.14863e-14
-4.72161e-13
-5.84086e-09
-1.596e-12
4.60167e-15
1.00181e-14
-1.31968e-14
-1.67522e-14
-1.84808e-16
-3.3583e-08
-7.6456e-15
-9.98538e-06
-2.86658e-16
9.95272e-15
0.000112355
2.17098e-08
-1.61824e-15
-8.63711e-14
4.58746e-15
-4.6303e-05
-4.85033e-15
-4.38111e-11
-7.67702e-15
8.4019e-15
-3.16279e-10
3.03812e-14
4.1279e-11
-1.61657e-14
-6.53213e-15
2.71588e-13
-4.5536e-06
-2.23256e-14
3.59926e-14
1.12841e-06
4.51284e-15
-3.11342e-15
2.27383e-14
9.81584e-10
-3.00097e-06
-3.33326e-05
1.81157e-15
-1.03227e-14
-1.31606e-14
3.44378e-12
-1.39358e-07
-3.54013e-14
-2.8573e-14
-5.31837e-15
-1.09977e-11
1.94722e-09
8.99367e-12
-3.84026e-14
1.00815e-11
-3.15995e-14
-5.9688e-11
3.97141e-16
-2.93338e-15
3.73148e-06
-2.95874e-10
-2.33459e-15
2.00351e-05
2.27879e-06
-3.54219e-14
4.10263e-08
4.18898e-06
1.84755e-14
1.27883e-12
2.53134e-07
1.64626e-13
2.07042e-06
-7.27911e-15
4.90068e-15
-7.28035e-10
-1.26778e-09
-6.29468e-15
-1.41627e-06
3.21075e-14
-8.77809e-15
-1.08988e-09
-1.65219e-07
-7.11769e-15
4.18388e-10
-0.000893445
4.51346e-15
3.76688e-14
3.05932e-08
2.89902e-15
2.35867e-14
-2.20037e-11
3.35338e-14
-8.73941e-10
-1.55107e-15
5.22353e-05
-3.45537e-09
1.1072e-09
8.2893e-15
8.61334e-08
1.72877e-09
1.2013e-13
-1.32319e-14
-1.01623e-13
3.68352e-07
8.41723e-07
4.44314e-13
2.10047e-07
-7.24527e-15
8.14139e-15
6.07679e-05
1.96178e-15
3.73492e-14
2.17802e-13
3.44416e-09
-3.02243e-16
1.89368e-15
-3.83013e-15
-5.18409e-11
4.77135e-15
-3.58585e-16
4.6426e-15
3.87512e-15
3.92604e-14
-4.07794e-15
3.37101e-14
-1.09569e-15
-3.00585e-07
1.69274e-15
1.13026e-14
3.46617e-15
4.35862e-14
-6.48329e-10
-1.59427e-14
-1.68949e-15
2.76795e-08
-2.80321e-15
8.07165e-15
-3.17176e-14
-4.54249e-15
-1.22679e-15
-4.87559e-15
3.15542e-14
-1.09158e-08
1.27087e-11
-1.24679e-13
-1.52195e-06
-2.09976e-14
-1.49146e-09
5.92515e-07
-4.3788e-15
8.66579e-06
2.04286e-06
-6.95359e-10
-1.1556e-09
2.80278e-10
7.77567e-13
-8.08319e-08
0.000672235
-6.82858e-15
-3.38518e-11
-3.67692e-10
-5.44872e-07
-8.62731e-15
3.47033e-13
-3.99099e-15
-3.64795e-14
-4.5461e-15
-2.05011e-14
-1.3472e-10
2.58852e-09
-9.50716e-15
2.13165e-14
-7.37332e-09
1.53109e-15
4.76385e-16
5.78609e-15
2.10129e-09
-2.28715e-15
5.66169e-12
-7.51551e-16
-7.44732e-15
-0.000132379
-2.7536e-09
3.89978e-10
-1.54913e-07
1.41033e-14
5.81454e-15
-4.63898e-15
1.70944e-11
0.00324317
1.88188e-15
3.31443e-08
9.19072e-15
-3.54069e-14
-1.93923e-08
-4.1003e-11
3.49022e-14
3.184e-09
-1.1833e-10
-2.31533e-10
-2.50219e-06
-0.00011311
2.5971e-14
8.97488e-07
1.12504e-05
6.83785e-15
1.48109e-14
-1.10209e-14
2.6077e-12
2.47252e-15
-3.81077e-06
2.23428e-06
-3.91591e-11
-5.73549e-14
6.94467e-08
-1.01509e-15
2.59748e-11
-6.8818e-06
-7.32419e-12
1.05365e-14
5.48916e-16
-1.25712e-15
0.0189572
-3.23953e-15
8.3509e-14
2.22811e-05
3.30405e-14
-3.96266e-15
1.71631e-14
4.52069e-14
3.63014e-15
-1.9485e-15
-1.78348e-17
1.16222e-08
-2.5407e-15
-2.01755e-11
2.03994e-14
7.15286e-15
-1.49773e-14
-1.56216e-08
-5.19291e-15
-5.07588e-12
-5.26726e-15
-4.85021e-14
-2.94838e-13
3.40642e-14
2.57068e-11
4.24198e-06
3.19336e-08
-2.78644e-14
-1.77486e-14
-1.57159e-15
-1.0315e-15
6.72102e-07
1.39529e-13
6.05846e-12
-5.64808e-10
-0.000168098
-9.57775e-16
-3.15178e-14
3.38107e-15
4.32349e-14
8.35635e-07
-8.4336e-15
-2.5908e-14
4.29123e-14
2.02738e-11
-1.91419e-14
1.1196e-08
5.62519e-15
3.85236e-07
-2.54696e-14
-1.84431e-14
-3.48958e-12
-1.81297e-14
6.86861e-17
3.44245e-14
3.40651e-14
3.51438e-14
1.51785e-08
-4.8325e-08
-5.15798e-16
4.93325e-13
3.9319e-15
3.68013e-09
-1.45283e-06
-2.47516e-14
4.1971e-15
2.99878e-15
3.01611e-14
-1.50691e-15
3.7814e-07
-4.54394e-08
-3.5808e-14
-5.31987e-15
7.90171e-11
-1.68668e-15
-7.60269e-15
6.62451e-08
-5.06635e-15
-2.52933e-16
1.27173e-14
1.07887e-07
-4.57869e-11
7.44308e-15
-3.45716e-15
-2.96206e-06
-0.00332001
1.86292e-14
-0.00101577
2.19266e-15
-6.93426e-10
9.18477e-07
1.49157e-10
8.48331e-14
3.17799e-14
-2.50084e-14
1.69702e-10
-2.2098e-09
3.68965e-14
-1.14664e-14
-1.09013e-15
-2.23235e-15
4.35943e-15
-6.34198e-15
2.94943e-05
1.51908e-15
2.33024e-15
3.56986e-11
2.77925e-14
3.21581e-14
-1.85726e-11
1.35041e-08
-3.16738e-09
2.42069e-14
2.23437e-12
4.98719e-12
6.05047e-16
-4.28028e-15
8.40444e-05
-2.27037e-09
9.12722e-12
3.96483e-14
7.50321e-16
-3.67134e-10
-7.24246e-15
3.36274e-10
1.67819e-09
1.01373e-10
-2.50697e-15
-6.33705e-15
1.11158e-14
3.05383e-15
2.97106e-14
-4.94589e-08
3.30787e-10
-1.03117e-08
6.07496e-15
-1.42689e-14
-9.97258e-15
-9.95143e-15
-1.21994e-15
1.28811e-12
-3.73972e-14
3.47008e-15
8.52013e-16
3.23602e-12
-7.47186e-06
1.901e-14
-2.57335e-15
-4.46003e-15
3.54973e-14
-5.36412e-11
-5.33123e-09
3.60487e-14
1.31729e-13
3.02464e-14
-3.74809e-14
-1.65351e-11
3.66503e-09
3.4784e-08
2.95811e-15
-4.42324e-14
-2.52555e-14
-3.86105e-13
3.14705e-14
3.08096e-13
6.58236e-16
-2.61137e-14
3.45868e-14
4.32522e-12
-3.62838e-14
3.38602e-14
-1.13284e-13
-9.36935e-12
-1.86766e-14
-1.36873e-14
-6.39368e-10
2.72765e-15
1.21585e-11
-1.02509e-11
-2.45904e-09
-3.21064e-10
-3.75789e-11
8.37299e-15
-2.86558e-14
-3.22311e-14
-2.07492e-11
1.22196e-09
-2.85143e-13
6.11622e-15
-7.5687e-15
-5.76807e-14
-6.13715e-14
-1.34991e-10
1.02035e-14
4.58416e-13
-3.27207e-13
-3.7541e-16
1.35899e-09
1.0079e-14
6.27678e-14
-4.81458e-07
-5.95263e-15
-5.24633e-15
3.10989e-14
-4.91777e-10
-1.41967e-05
1.44232e-09
-1.58103e-15
-3.31743e-14
8.12167e-11
1.01208e-14
-3.42511e-11
-1.04735e-14
3.50224e-08
1.40728e-13
-5.96689e-14
2.49896e-14
1.32012e-14
2.94215e-14
3.08218e-15
-4.10732e-16
-2.47014e-08
4.16139e-12
-1.08399e-12
-4.39547e-09
3.46963e-14
-1.70131e-09
-5.39153e-05
3.01755e-09
-5.07012e-15
-9.07248e-07
3.8633e-14
4.31833e-15
6.18401e-16
-7.5429e-09
-1.12267e-14
-7.49206e-09
-4.7325e-13
-2.9125e-14
2.99637e-14
5.18926e-15
-7.17548e-15
-3.35036e-15
-1.22919e-07
-1.81093e-14
2.79248e-09
-1.19374e-08
1.18605e-07
-3.95424e-14
4.36179e-14
-3.43715e-13
0.0842763
-2.56138e-11
3.70559e-14
-3.21809e-15
1.24401e-14
-7.85916e-15
-4.09982e-15
1.09935e-09
-8.54955e-15
-6.7605e-15
4.98318e-12
2.20146e-15
1.00009e-14
1.62394e-15
1.09063e-15
-1.34631e-16
-3.70034e-09
7.38544e-15
5.46085e-09
-4.60481e-07
2.70224e-13
1.3632e-14
1.68651e-11
-2.30127e-14
2.65859e-05
3.84395e-12
0.000100236
2.86836e-15
3.45135e-14
-7.96569e-08
7.06397e-09
-7.5901e-11
-1.62021e-07
-2.81014e-14
-1.45938e-14
2.58714e-08
4.07606e-15
-7.62029e-08
1.92033e-14
1.81506e-09
-2.06053e-14
9.07726e-12
-1.59922e-09
-5.01038e-15
-2.89327e-14
-1.00692e-05
1.14192e-10
0.000495605
-1.97674e-15
3.03784e-17
-2.9659e-14
-1.72743e-15
-1.8945e-08
3.09434e-14
-1.61942e-14
0.000126054
3.06039e-06
-1.20855e-13
-3.30305e-14
2.85899e-14
9.3029e-15
-4.16797e-08
-2.57755e-10
5.17159e-09
-8.55817e-13
-1.14661e-05
6.06241e-08
3.59611e-14
2.05902e-15
1.74075e-14
-5.60185e-10
2.08329e-14
2.36078e-14
-3.0266e-09
5.50456e-17
-2.85309e-10
-2.05776e-14
8.91061e-11
-4.90301e-11
-5.95314e-15
-1.21161e-14
-6.71496e-15
3.60483e-14
1.83044e-15
-1.06187e-14
3.61307e-15
-1.31162e-15
2.48646e-14
1.82923e-15
-9.59887e-15
-4.27724e-15
2.07336e-09
0.000390938
-3.61065e-14
-4.61743e-15
4.07068e-15
2.409e-10
-3.23235e-14
1.18539e-11
1.48443e-14
-6.21828e-11
4.15597e-15
-5.4135e-18
5.05788e-15
-1.08597e-14
7.82074e-10
1.03315e-14
4.52917e-14
-8.72116e-15
1.17031e-15
1.58332e-14
-2.57194e-14
2.28007e-15
3.91499e-14
-2.58429e-14
7.32036e-16
-4.50604e-14
2.76084e-10
3.24226e-14
-1.23873e-14
5.79016e-10
6.42902e-12
5.31452e-08
-2.89387e-14
-2.16301e-07
2.01087e-14
3.98562e-16
5.27656e-15
2.14841e-14
-5.76914e-15
-3.00603e-14
1.1252e-09
2.25682e-09
3.41499e-12
-7.68772e-15
5.40136e-15
5.02178e-14
-2.81394e-10
-2.33169e-14
-8.78403e-15
-2.35136e-12
-2.35057e-15
1.0572e-14
7.12636e-15
2.84052e-15
4.32764e-10
1.63711e-05
2.192e-14
3.41361e-16
6.71057e-15
5.50552e-15
-5.18563e-08
1.09049e-06
1.80704e-15
1.86516e-15
9.43268e-15
3.79838e-14
-1.01162e-14
-1.15087e-11
-3.3172e-14
-3.81172e-14
-2.25865e-15
-2.58816e-09
7.7037e-15
-2.29014e-14
9.9582e-15
1.39065e-14
-9.33588e-15
1.08039e-14
-6.33465e-15
0.000953147
5.94235e-14
0.000100419
-5.41076e-06
2.5527e-15
-2.65287e-14
4.41437e-14
-6.41535e-15
-6.4745e-15
2.56817e-10
7.41102e-15
-6.23192e-15
1.70062e-15
-4.18389e-15
1.51005e-05
8.43232e-05
-2.9024e-09
-6.7338e-09
1.00212e-14
3.0129e-14
-3.67919e-14
-1.52302e-14
-4.15692e-14
-1.39823e-11
1.3015e-09
2.91609e-14
-6.89281e-08
-1.23979e-11
-2.69548e-15
2.01145e-08
1.2893e-06
3.22742e-12
2.67124e-14
-2.31067e-09
5.06469e-15
4.05258e-09
9.57101e-11
-8.51921e-09
-4.5519e-15
-9.59466e-15
2.84621e-11
2.20644e-06
3.47964e-14
1.03263e-14
9.84578e-11
-7.94479e-15
3.05583e-14
4.86069e-15
1.1196e-14
2.66372e-14
2.24656e-08
-5.10936e-16
1.87748e-15
-1.69367e-15
1.03686e-09
-6.54003e-16
3.39479e-14
-2.82252e-14
-0.0110166
-2.92942e-15
2.69793e-09
1.71038e-10
-2.31072e-15
-4.20775e-15
1.33384e-16
-3.78896e-15
1.92264e-14
1.51302e-08
-5.61629e-15
-1.61431e-15
-3.52941e-14
-1.48922e-15
1.17631e-16
4.40376e-13
4.6958e-15
-1.95714e-15
2.07024e-14
1.7502e-14
-3.51185e-15
-3.73425e-14
1.36414e-14
2.62155e-14
-5.0429e-15
3.95951e-15
-1.84948e-15
-3.98418e-16
-8.43997e-15
-8.89308e-14
6.59871e-08
6.91333e-08
-1.92331e-15
7.20668e-07
-1.77158e-15
2.77888e-10
4.1865e-14
3.0282e-15
-0.000418274
0.000114072
1.0197e-14
-2.47515e-08
1.04698e-07
-2.00583e-14
-8.75263e-15
2.26899e-14
-4.07036e-14
-3.87695e-14
-1.59465e-13
-1.7145e-14
2.95202e-10
1.05023e-14
-1.07327e-13
-3.45996e-14
-3.10512e-12
3.50505e-14
2.05787e-14
1.31248e-14
-2.20964e-14
1.519e-09
2.06548e-15
5.10604e-07
-1.63443e-14
1.60896e-05
-1.03373e-14
3.47605e-15
6.68187e-15
6.82958e-15
0.000143691
3.43059e-14
6.87672e-15
-3.5472e-14
3.22325e-10
3.26907e-10
-1.08425e-14
-8.37003e-15
1.40921e-09
3.03231e-14
2.85127e-11
1.1835e-13
3.6655e-14
-4.97056e-16
0.00031088
1.62286e-15
6.73905e-14
-2.96605e-12
7.61486e-15
-4.5781e-15
-1.77716e-06
1.13691e-14
1.07908e-15
2.18663e-14
5.73194e-15
3.21939e-14
4.18927e-14
3.2737e-14
1.14758e-14
4.36524e-15
8.79531e-12
-6.36915e-15
2.11158e-15
1.60652e-14
-2.09601e-10
-3.91957e-14
5.49127e-15
8.25015e-08
-5.38753e-11
-2.35391e-14
8.3338e-08
-2.72031e-15
5.73997e-15
2.92618e-14
-4.3624e-15
1.73134e-09
3.46442e-11
4.02481e-09
-2.51915e-15
-1.06785e-14
-7.77246e-15
-4.09809e-13
2.46402e-11
-6.23686e-10
4.63355e-06
4.17232e-15
5.53599e-16
-3.62858e-15
-9.50839e-08
2.9544e-10
3.44913e-14
-1.70617e-10
4.89087e-15
-3.15273e-15
-1.36757e-14
-1.17681e-14
-0.000492227
2.40157e-14
4.2488e-14
2.9856e-14
8.42003e-15
3.94816e-14
-9.04245e-16
1.95906e-14
1.10223e-07
5.08045e-12
8.64055e-17
-3.73198e-14
-3.11509e-14
-2.31931e-15
6.15476e-15
-2.7523e-14
1.35982e-14
4.16084e-14
-2.1079e-15
1.14312e-13
1.88828e-09
1.90536e-09
1.95235e-14
-2.02033e-15
2.61284e-16
-1.96291e-14
2.53172e-09
3.85394e-14
-5.14738e-17
-1.42072e-14
-8.35561e-15
6.19373e-16
-1.00968e-12
3.7665e-14
5.35965e-14
-6.85646e-15
4.60226e-15
4.43895e-15
1.64056e-11
8.84092e-10
3.64567e-14
1.07692e-14
-1.72391e-10
-4.47361e-14
2.47204e-14
4.79951e-09
-1.78168e-15
2.93666e-15
-1.60521e-10
-4.55545e-09
-0.000126942
-9.25122e-08
-7.43598e-16
-1.57432e-09
5.85127e-10
8.41997e-11
-3.6987e-10
5.68823e-08
3.28801e-14
-1.01915e-15
-2.98476e-16
-5.43152e-09
4.27567e-08
8.07435e-15
-1.93766e-06
-7.77641e-11
3.03386e-14
-3.51445e-13
-2.62808e-07
-1.61907e-09
-1.67699e-14
1.28955e-14
-5.24426e-11
-1.50121e-15
1.77638e-15
2.93808e-14
1.06157e-09
3.7233e-14
8.44275e-15
7.06156e-10
3.22305e-14
1.0284e-14
2.94076e-14
5.94317e-16
-2.05852e-09
-4.26429e-09
-1.95155e-17
-1.38299e-07
1.08285e-14
-3.64238e-14
-1.06958e-15
3.61236e-11
3.2391e-10
-5.12794e-15
-1.08221e-15
1.34587e-14
-3.07942e-14
-5.98229e-15
-5.0821e-15
2.81767e-15
1.55085e-15
-3.72552e-14
-5.25436e-15
-3.99809e-10
2.79614e-13
1.54786e-06
-8.78564e-16
-2.44078e-15
3.13506e-09
8.09289e-15
-1.69358e-09
5.27519e-05
-4.12766e-15
1.05928e-14
4.38771e-15
-7.74804e-15
2.76055e-15
3.63781e-14
3.21867e-11
3.14233e-08
4.76461e-11
-7.25086e-15
-4.50553e-15
1.15994e-07
-1.11008e-09
2.62771e-14
-1.15485e-14
3.95033e-16
2.07248e-14
-9.80798e-06
-2.15168e-10
-2.57269e-15
2.20148e-14
3.15686e-14
-4.36024e-15
-2.84186e-11
-4.7462e-10
2.65962e-14
3.72003e-12
5.67354e-15
5.77231e-09
3.05365e-14
-2.32411e-14
4.68279e-12
-2.58112e-15
-3.77868e-14
2.13556e-15
2.25397e-15
-8.91863e-15
-3.87095e-14
1.86529e-15
5.52427e-09
4.32303e-11
1.06102e-13
3.71247e-15
1.62837e-14
2.98207e-14
1.21901e-06
-8.63238e-10
3.35009e-10
5.25208e-13
-1.7858e-07
-1.01979e-10
-8.20557e-14
5.66075e-15
9.11378e-15
-4.95539e-08
7.28944e-16
-8.60926e-16
2.54712e-11
1.71405e-14
-2.16873e-10
-7.02304e-15
-1.40022e-09
7.72171e-15
5.02474e-10
1.50054e-11
-4.87517e-15
7.62871e-15
0.000293303
-1.49423e-15
2.57132e-14
3.99086e-14
2.17528e-14
-5.47517e-15
-1.13695e-14
-6.76366e-12
3.52698e-15
5.20498e-14
-1.50066e-14
6.84969e-14
-1.99176e-12
4.04629e-11
6.7503e-06
3.06365e-07
7.00857e-16
7.56162e-15
-4.15151e-15
-2.52543e-10
0.000170322
4.44694e-15
1.53885e-08
5.37734e-15
-3.3941e-14
-3.18853e-14
3.26447e-15
2.48146e-14
-2.7661e-14
2.54384e-12
-7.8e-15
-3.24406e-11
4.17088e-09
-1.31833e-14
8.3111e-16
-1.08177e-10
-2.23805e-14
3.58073e-14
1.56798e-14
-1.11949e-15
1.62894e-14
6.22655e-16
4.66882e-15
4.25975e-14
6.80185e-10
-1.69664e-08
2.26481e-11
-2.43066e-11
3.33751e-10
-3.99387e-14
-6.76237e-13
3.14359e-14
-2.15111e-14
2.51323e-14
-3.79807e-14
2.05104e-15
-7.00816e-15
1.85149e-14
4.69105e-10
-5.13366e-15
-0.0008092
-3.27786e-14
-5.94417e-15
2.84158e-14
-2.80569e-11
2.8672e-14
4.84691e-11
-2.89385e-14
-2.60492e-14
3.72907e-14
-2.38522e-16
9.57999e-17
8.33042e-10
-8.09143e-12
-8.1666e-15
-6.55854e-05
4.34179e-14
-9.04387e-15
-3.32787e-14
9.16291e-16
9.69328e-16
-1.11212e-13
-3.04001e-14
-2.57241e-09
-2.727e-14
-4.61617e-15
-4.67258e-10
1.51307e-15
-5.04973e-15
2.04897e-14
-3.70517e-13
-1.35829e-15
-9.34896e-12
-7.44824e-11
1.93468e-10
5.3069e-15
-2.50385e-11
-8.40469e-09
-6.5246e-15
-1.34254e-08
5.16102e-14
3.09304e-08
2.02277e-10
4.56938e-15
2.48433e-14
-4.10698e-14
-1.20418e-14
-9.81831e-11
1.01906e-14
1.05064e-09
-2.6292e-10
-4.71846e-15
-1.37504e-14
-4.12327e-15
-1.3929e-08
-1.39303e-11
0.000476348
-4.64405e-14
-2.51892e-14
7.06252e-15
7.10115e-15
1.42573e-14
-1.96192e-15
-1.00681e-07
1.0452e-06
1.11928e-16
-5.38442e-13
-3.61567e-09
-1.32088e-15
7.05817e-06
5.76419e-15
3.48579e-14
5.40558e-12
8.99933e-10
-1.20395e-13
2.6919e-14
6.86039e-12
1.62093e-12
0.000211246
-1.43114e-15
3.8127e-08
-1.27254e-09
-2.59343e-15
2.83459e-14
3.31545e-14
-2.84287e-15
2.44959e-14
-2.98322e-14
-5.044e-15
-1.38475e-09
9.16189e-15
1.20085e-07
5.62786e-16
-2.78963e-15
0.000294722
1.47768e-09
-0.000337977
-3.34031e-15
-9.46582e-14
1.15946e-10
4.11359e-15
2.55606e-10
7.99885e-15
-2.31068e-14
9.17425e-09
-1.52121e-11
6.76221e-15
1.12547e-14
3.1391e-13
-2.44309e-16
-0.000508553
5.33e-15
-3.9351e-14
-0.000478885
-7.28262e-14
4.46839e-11
-3.80655e-14
1.04434e-14
-4.21898e-15
-1.09664e-14
3.02741e-05
-7.76186e-07
1.45953e-05
1.44321e-15
1.67621e-14
4.02005e-14
4.03806e-06
1.32392e-14
3.92168e-15
-8.80143e-07
-3.72883e-14
3.45377e-15
3.32184e-13
1.76757e-12
-1.70687e-11
-2.53149e-10
9.87719e-09
4.16127e-14
2.31622e-15
4.12146e-15
-2.31458e-10
-1.93815e-15
6.52554e-15
1.42207e-08
-5.28976e-15
2.62033e-08
4.75396e-17
1.6347e-08
4.876e-08
-1.35471e-16
3.69939e-14
0.000115739
1.77795e-14
-3.78957e-15
-4.47672e-15
-4.76041e-15
-1.00479e-14
-4.70094e-08
-2.74411e-10
3.20027e-14
7.54698e-14
-1.18673e-09
3.66515e-14
-2.44732e-14
0.00215694
-3.40532e-09
1.76105e-10
2.34469e-08
3.68008e-08
-2.15776e-14
-3.17356e-14
3.50329e-14
4.16353e-14
-1.2808e-14
9.61395e-15
3.34869e-14
-1.33667e-15
8.17597e-13
-4.19453e-11
2.34318e-14
1.45747e-14
1.81423e-15
3.51363e-14
0.00181696
1.9827e-15
-1.05359e-10
1.69573e-09
3.49891e-15
-3.00961e-14
0.000316837
7.27333e-07
1.00148e-14
-2.98733e-14
1.82849e-14
4.44289e-13
-8.1465e-12
-2.75162e-14
-1.16736e-08
-9.8093e-15
1.57482e-08
-1.02854e-14
2.88046e-16
9.64312e-15
7.73854e-05
4.09137e-14
3.33256e-14
1.92098e-15
1.83809e-14
2.35703e-15
-8.85697e-15
2.21402e-14
-2.15718e-07
1.26882e-15
1.92321e-11
-0.00163395
3.30779e-14
1.53867e-15
-2.26149e-14
-1.53422e-14
2.96116e-14
8.64665e-06
2.06622e-10
3.75378e-14
-3.66109e-14
-2.77952e-14
3.83021e-15
2.72299e-14
-7.39062e-15
5.30077e-14
3.3141e-06
-3.11851e-14
1.5778e-15
-2.85612e-11
-3.20473e-14
6.53352e-09
1.44285e-14
2.60805e-14
-4.90915e-15
-7.47218e-15
3.89042e-14
8.84281e-15
5.58637e-09
2.7254e-14
1.51556e-14
-2.65732e-14
-2.94825e-14
-4.56471e-15
-3.21992e-14
-4.79982e-09
3.12386e-14
-1.30971e-15
-2.45381e-08
3.50724e-10
-3.45246e-05
0.00736099
-2.36284e-08
-7.1138e-09
-1.59871e-07
-1.08222e-10
4.26106e-14
2.42661e-14
-3.57558e-14
-6.81825e-12
5.91437e-07
-3.41418e-14
1.48919e-07
-2.45674e-09
-1.06698e-08
-5.19074e-06
6.23362e-14
0.000667264
3.89885e-14
-1.95465e-15
0.000823151
3.8031e-14
3.18404e-12
-2.77498e-14
-1.08358e-15
1.01061e-08
2.65898e-14
-8.31766e-10
-4.77961e-08
-3.62395e-14
-5.16964e-09
3.31035e-14
2.61793e-15
2.02856e-15
3.6535e-15
5.57101e-10
-1.2956e-15
-3.38724e-14
-3.07159e-15
-1.71852e-14
-9.50267e-12
0.00748122
-1.56615e-09
9.09476e-16
-2.35868e-06
1.74537e-10
-1.46176e-12
9.92886e-15
-4.19693e-15
-1.97647e-10
-2.69075e-05
6.28421e-12
-3.51343e-14
-1.98583e-09
2.67095e-06
-5.27794e-16
1.30186e-10
7.40558e-15
-0.00123101
0.00230015
2.0014e-16
4.04475e-06
-3.92579e-14
4.01749e-15
6.88231e-14
-6.79387e-15
-7.66616e-10
1.77218e-14
-6.45437e-15
2.96652e-14
-1.04e-12
-7.29385e-15
2.53081e-17
3.36586e-11
3.14293e-15
-2.23372e-11
-1.59059e-15
-5.84082e-15
3.40022e-08
6.9031e-12
-3.5311e-14
6.12261e-12
2.55764e-10
1.98203e-14
-3.96389e-14
-8.36642e-15
3.95262e-08
5.57638e-12
1.66421e-11
-3.08203e-14
-7.28597e-15
-1.38266e-06
-1.02657e-06
1.60562e-15
-1.1929e-14
3.16198e-14
1.67139e-05
-1.07091e-14
5.88146e-09
-7.93394e-15
-2.83858e-12
1.69512e-14
2.99146e-14
-2.31879e-11
0.00144834
-2.46648e-14
2.45828e-12
3.32267e-15
1.04696e-09
3.54269e-15
2.49042e-14
-2.11966e-14
-1.95724e-14
-4.47603e-11
3.16958e-14
-3.75752e-14
9.23203e-05
2.36487e-09
-1.59142e-14
3.26547e-05
-0.000564169
-3.25425e-07
-0.000113866
1.56528e-15
4.68443e-15
-4.20927e-15
-1.55664e-14
-4.83324e-15
-4.13895e-14
-2.6632e-15
-3.18355e-16
-4.97055e-14
-1.65297e-14
1.26115e-16
1.78019e-14
-2.79456e-13
1.21348e-06
-2.25838e-08
-1.92369e-10
1.67279e-14
1.23514e-14
6.65796e-15
-2.88254e-14
5.06356e-07
-8.85814e-15
-7.73459e-15
7.22392e-15
-3.49863e-07
8.13313e-16
7.69086e-15
-3.79534e-16
1.17818e-09
-2.32873e-15
7.28601e-15
1.12039e-06
7.0574e-08
-7.01351e-14
0.000982863
2.04583e-11
-1.49914e-12
-2.06735e-15
-3.5507e-09
3.79985e-09
3.14332e-14
-4.65384e-06
-7.42484e-07
2.69216e-16
8.00502e-06
-2.7826e-14
2.85178e-15
-3.1421e-07
-9.85871e-08
1.5093e-14
1.31154e-14
6.57806e-15
-5.88834e-06
1.74588e-11
-3.88032e-10
9.40271e-09
-6.89472e-14
2.30676e-10
-1.67134e-09
-4.97975e-15
-3.06434e-15
-9.03824e-09
-2.21397e-09
-7.80068e-15
3.15308e-15
-5.36302e-14
-2.26286e-08
2.93928e-14
1.42434e-10
2.71832e-09
2.32286e-16
-2.97396e-11
4.08565e-14
-6.05818e-11
3.8522e-14
-8.53815e-15
7.7222e-15
-2.3349e-14
2.55071e-10
1.1689e-13
9.66678e-15
8.95568e-15
-2.01231e-15
2.82906e-14
2.53469e-08
-1.21633e-13
1.72149e-14
9.55523e-09
-2.38891e-14
-3.82823e-14
1.94528e-12
-2.02913e-14
8.51264e-14
-3.07369e-14
-3.53788e-14
-5.34472e-08
8.02018e-09
2.76594e-15
-3.76176e-06
2.50422e-05
-3.30855e-14
5.60144e-10
-5.48561e-07
3.82099e-16
2.27941e-14
2.60226e-08
-1.01841e-12
-6.27547e-14
3.43112e-14
5.84541e-14
6.75778e-10
1.17037e-14
-1.29134e-14
7.17899e-15
5.55839e-15
3.05036e-15
2.43251e-15
-3.67371e-14
-3.70254e-15
-1.44127e-15
-6.87869e-16
-1.73257e-15
3.17963e-14
-1.79302e-14
2.2188e-14
-2.29048e-12
4.14844e-14
5.78952e-15
7.31855e-10
-3.95233e-15
1.55517e-13
-3.38001e-12
6.71849e-14
-3.52398e-13
9.79492e-15
2.0224e-15
-5.4646e-09
-3.67246e-14
2.54906e-14
1.74502e-14
1.51692e-14
1.65063e-15
5.39102e-15
4.3103e-09
-1.74709e-14
-4.05208e-14
-3.06583e-11
-3.41222e-14
-1.16205e-11
-3.15633e-06
-0.000178311
1.99802e-10
9.46034e-15
-4.19076e-15
-5.83392e-15
4.16563e-15
-6.99007e-07
-2.35441e-08
-1.15869e-14
-1.87433e-06
-1.48742e-12
3.00712e-14
-3.04969e-07
-1.94172e-14
6.28499e-11
5.05763e-15
-1.65726e-11
-9.17011e-05
-7.81267e-09
-9.07264e-13
-1.46421e-14
-1.10615e-10
3.01843e-15
4.76125e-09
-4.70539e-09
2.69236e-14
1.39079e-09
3.68164e-15
-1.76144e-05
7.02533e-09
2.49452e-07
-6.18427e-15
-4.34344e-15
8.10565e-15
-7.53912e-10
4.86719e-14
-7.65074e-16
-8.22554e-09
-5.48381e-11
1.73411e-14
-7.67039e-14
7.66144e-12
-2.86262e-11
-4.34024e-14
3.52979e-15
2.78528e-15
6.42389e-15
-9.09053e-15
-7.16434e-15
4.28928e-15
2.85322e-14
7.16264e-15
1.50926e-15
-1.18265e-13
-3.46301e-10
3.13007e-12
-2.11554e-14
2.46288e-14
2.09657e-05
-5.87914e-15
1.84753e-16
-3.22932e-07
2.10035e-13
0.00028615
-6.78594e-15
0.000303613
-0.000619713
-7.58441e-08
7.39906e-16
1.18164e-14
-5.64432e-13
2.41056e-14
2.54618e-07
5.67408e-11
-2.91371e-14
3.23511e-14
5.05341e-15
3.46082e-14
-4.88632e-15
1.22094e-14
3.72518e-08
2.22643e-14
3.55465e-08
4.01539e-08
-2.96556e-06
-2.86002e-14
4.98341e-15
-1.91725e-14
-1.95805e-15
-6.3014e-15
7.03313e-15
5.08222e-14
-1.85104e-14
-5.40719e-14
6.41677e-15
5.50642e-07
-1.97666e-15
2.17502e-14
-2.16049e-14
2.84651e-14
-3.08945e-09
8.70726e-16
-1.04735e-07
3.07866e-11
-7.02208e-15
1.46929e-14
9.51369e-07
2.26882e-13
4.75469e-10
3.3183e-08
2.00239e-07
2.24031e-15
-3.3584e-12
3.05653e-15
-3.48325e-14
1.56188e-08
0.000111309
-2.79795e-14
2.20321e-15
4.77628e-09
-1.1065e-06
-1.18916e-08
-7.30196e-09
-6.15845e-15
-1.23629e-15
-4.05192e-14
-4.32346e-14
-9.41352e-16
-4.16404e-15
3.47257e-14
1.53874e-07
2.9679e-14
-3.15312e-09
3.84515e-10
4.00031e-14
2.23326e-11
-2.49675e-14
-1.92592e-15
-2.51574e-08
2.30004e-14
-8.11758e-15
2.902e-14
-1.74454e-13
1.70999e-16
9.0255e-12
-4.98361e-15
-9.05218e-16
-0.00200083
1.12576e-14
-2.75619e-14
3.37431e-15
2.60768e-15
1.53277e-14
-4.09691e-14
-9.7958e-15
-2.55533e-15
1.87362e-15
-7.87161e-15
-1.1275e-09
6.29515e-15
-1.28723e-08
-7.28997e-15
-2.31356e-14
1.36003e-14
-8.4558e-15
3.87488e-14
1.62794e-05
5.59583e-17
-7.88291e-15
-4.12199e-07
5.52638e-09
-2.28929e-15
3.49081e-15
9.01933e-11
-8.73966e-13
1.77166e-07
1.85179e-14
9.91743e-09
4.59283e-07
8.33614e-14
-4.20842e-05
-0.000257313
2.6745e-10
-8.11359e-15
4.21859e-14
-3.59944e-14
-6.65286e-14
-3.10377e-09
3.59051e-14
2.4315e-14
1.17745e-09
-3.12856e-14
4.35709e-15
1.04317e-10
7.88185e-15
1.79714e-15
5.51613e-11
2.01916e-15
-2.91344e-10
4.00877e-15
-1.14645e-14
-1.53815e-05
1.41533e-06
-4.35432e-15
-5.62496e-15
0.000582987
1.19094e-14
-2.6322e-14
2.56354e-14
-1.5529e-09
-1.50053e-14
9.28596e-10
-2.87795e-14
2.58715e-07
-7.17033e-15
1.58091e-10
-2.88797e-09
-4.31273e-15
3.37201e-14
0.00139567
8.52709e-12
-4.90519e-15
1.32686e-13
-2.6888e-14
-4.66622e-12
-2.56373e-14
5.50521e-14
3.55209e-09
-1.22585e-05
-1.10284e-08
2.28758e-14
-1.01874e-12
-6.43861e-14
0.000795554
5.78973e-10
-3.40255e-11
-1.37661e-14
8.48479e-09
-3.16615e-15
6.85064e-07
1.27421e-11
-3.04981e-14
8.99806e-10
1.15397e-15
2.63111e-14
-3.3808e-14
-1.62172e-10
1.05738e-15
-6.93834e-14
1.08492e-11
6.55402e-15
3.91794e-14
1.06265e-15
2.94647e-15
-1.25519e-12
-4.17526e-11
-2.41494e-14
-2.00412e-09
1.20432e-07
2.3363e-11
-8.15627e-15
4.20011e-14
2.97435e-15
-3.7716e-15
-9.27088e-15
-3.54889e-16
-6.92515e-15
-6.39949e-09
-1.18758e-15
1.57159e-11
-4.13438e-14
-2.48743e-14
-1.05392e-15
0.00304054
1.67269e-06
-2.08638e-11
2.26904e-08
-2.30806e-15
3.1491e-14
-2.54667e-15
7.15281e-15
-4.59323e-08
-6.34201e-08
1.71935e-08
2.90181e-14
1.17205e-09
-6.25602e-15
-2.74452e-14
-1.73021e-15
-6.95225e-15
-1.92283e-15
2.78843e-09
1.31499e-15
-3.36971e-14
-0.000528747
4.77534e-15
-1.37049e-13
2.73345e-11
-2.83203e-14
4.38572e-15
-5.66037e-10
1.3926e-15
-6.37535e-10
-9.93366e-10
-1.65228e-09
-1.99253e-13
-1.20987e-12
7.06854e-16
1.00554e-14
1.98103e-09
-2.10099e-09
0.00044256
6.46381e-16
1.62566e-05
-3.74535e-14
-1.23858e-12
-8.60352e-10
0.00235895
6.03279e-16
-9.46713e-09
-5.53278e-15
1.17319e-08
-4.62599e-15
2.01398e-16
-1.85727e-12
4.29502e-14
2.78263e-14
-2.69185e-15
7.62972e-09
2.01333e-11
1.89743e-16
1.38631e-14
-2.32056e-07
9.24002e-10
6.71099e-10
-2.02467e-14
-1.03858e-14
-3.80184e-15
-7.84192e-12
8.1353e-16
2.61679e-14
2.02619e-08
1.51332e-09
-2.87528e-12
1.70217e-14
1.48468e-08
-2.54937e-05
-1.41255e-14
-4.23143e-06
9.78868e-10
-1.74244e-15
3.53363e-09
5.49985e-15
-1.20678e-06
2.46229e-14
9.75256e-15
-2.54125e-10
-4.76963e-15
3.1308e-14
-1.84903e-12
-2.25362e-15
-2.52932e-15
-1.22168e-14
3.41517e-14
2.78984e-15
-3.00764e-14
-1.2947e-11
-7.22204e-15
3.00871e-15
5.41746e-12
2.09473e-10
-1.36407e-10
9.75829e-15
2.49326e-14
1.96676e-10
0.000200119
2.41185e-16
2.87462e-15
1.17961e-14
3.47103e-15
1.96356e-12
4.57911e-14
-2.10778e-07
-8.70146e-15
-5.18711e-15
4.16442e-08
-1.36371e-16
-1.3474e-09
-1.41357e-11
6.17348e-05
3.14932e-14
2.25086e-14
5.84609e-16
-3.75939e-14
7.31282e-16
2.26695e-13
-5.1021e-10
-1.29594e-11
-4.53028e-07
1.99412e-14
1.35353e-14
2.86304e-14
-4.31132e-14
1.04381e-10
5.63036e-15
7.05683e-16
4.0596e-16
-1.23424e-14
2.81001e-09
2.47294e-17
-1.89921e-15
-7.28868e-15
-8.30283e-06
-4.68054e-14
-5.18391e-14
1.0178e-14
-6.3453e-11
1.38972e-14
-1.63407e-15
3.77547e-14
2.07691e-15
0.000841804
1.10439e-15
-1.10357e-14
-2.23169e-14
-2.61855e-10
1.08028e-09
-0.00151502
-1.85896e-09
9.05662e-08
-2.48158e-14
-1.11787e-14
6.61735e-12
-1.3499e-08
-1.8809e-06
-9.94752e-10
-2.81095e-14
1.58119e-14
-8.57029e-10
7.50208e-15
-6.94787e-09
6.50321e-10
2.47274e-14
3.03301e-14
-8.4535e-17
1.74624e-14
2.26933e-09
8.2827e-15
-4.14605e-15
-9.17869e-12
6.90383e-07
6.74368e-15
9.05516e-15
-2.91656e-12
-3.22743e-08
-4.31054e-14
2.89802e-14
-1.43567e-14
-5.49948e-15
-3.91103e-15
5.99728e-15
-1.12221e-15
-9.55765e-16
-8.9056e-15
-4.75048e-15
0.00216531
-5.61632e-15
-3.91954e-15
1.49592e-15
4.71786e-13
-3.08504e-12
-1.87701e-11
2.41739e-14
1.35054e-10
-6.42568e-08
-4.79116e-13
-1.43993e-07
8.94114e-16
1.79208e-10
3.19104e-14
-2.474e-15
-1.86127e-08
8.155e-16
-4.47488e-15
-1.22179e-14
1.31539e-06
1.96152e-14
1.56829e-09
9.63452e-15
-1.8363e-14
7.12548e-08
4.37458e-09
-3.36503e-15
4.8827e-11
-2.17534e-14
-8.09058e-15
2.06601e-14
-3.03722e-14
-2.61536e-14
2.13435e-14
3.62819e-14
1.085e-10
-5.96281e-05
-9.8523e-12
-3.20253e-12
-1.6067e-07
6.63987e-15
3.967e-14
3.23627e-11
8.34297e-05
2.60134e-14
-3.3543e-14
2.71872e-13
3.37113e-15
-5.07255e-13
1.37507e-14
-7.66719e-14
2.06628e-12
-4.43711e-15
3.93275e-05
6.08771e-15
-5.97795e-06
3.87415e-15
-5.04595e-15
4.94251e-15
4.93753e-15
2.59935e-14
1.95506e-14
-2.61671e-15
3.77629e-14
3.557e-14
3.21899e-14
1.50549e-14
1.64724e-14
-9.90734e-13
1.02473e-15
5.476e-14
-1.59214e-13
-3.17913e-08
-9.62401e-11
2.38256e-15
7.10392e-09
7.72229e-13
1.53053e-14
3.24786e-14
2.52875e-14
-4.46e-16
-6.58529e-15
-1.68245e-13
-4.92712e-15
1.05887e-08
2.44094e-15
1.23788e-14
-1.64013e-14
0.000101804
-3.46453e-15
-7.95508e-15
-1.85106e-14
-4.26264e-14
-3.55988e-12
3.14287e-14
1.73282e-11
-5.74629e-07
2.31199e-10
1.85408e-11
-2.0498e-15
3.69154e-15
3.75924e-14
-9.43982e-12
-9.05577e-13
4.37365e-14
-2.51117e-06
1.16311e-14
-8.24466e-15
-1.09038e-14
-2.82231e-14
-3.612e-14
5.23691e-08
2.52941e-12
-9.8523e-12
0.00147718
-7.64506e-15
0.00702349
-2.71719e-14
-4.25001e-16
-2.20953e-14
3.84704e-07
2.99326e-15
-3.42027e-13
3.31128e-14
-2.58758e-10
-4.0625e-15
3.44697e-14
5.68929e-08