/*--------------------------------*- C++ -*----------------------------------*\
| =========                 |                                                 |
| \\      /  F ield         | OpenFOAM: The Open Source CFD Toolbox           |
|  \\    /   O peration     | Version:  v2012                                 |
|   \\  /    A nd           | Website:  www.openfoam.com                      |
|    \\/     M anipulation  |                                                 |
\*---------------------------------------------------------------------------*/
FoamFile
{
    version     2.0;
    format      ascii;
    class       volScalarField;
    location    "150";
    object      ddt0(omega);
}
// * * * * * * * * * * * * * * * * * * * * * * * * * * * * * * * * * * * * * //

dimensions      [0 0 -2 0 0 0 0];


internalField   nonuniform List<scalar> 
18758
(
-0.00151734
0.0141943
6.39086e-08
-0.00163497
0.000633
-3.90072e-06
2.33312e-06
6.32843e-05
0.000189436
-0.000199099
0.00117601
0.230799
-0.0197142
-2.02713e-05
2.18053e-06
-3.06148e-07
0.382966
2.01885e-06
1.68864e-06
2.9244e-06
-0.0994518
-1.5006
-4.49305e-06
3.76337e-07
-1.8913
0.376504
-0.454288
-0.00988537
-0.0155943
-0.0253642
-0.523527
-0.557178
1.12868e-05
-0.0874467
0.001029
-0.00631376
0.00432309
0.000620745
-0.236578
-2.48469e-06
0.00847001
-0.000198325
0.0258154
9.23669e-06
-1.78654e-06
-0.526766
-0.000101781
-0.00137896
-0.111623
-0.00395786
-0.00492929
-0.669985
-0.00455887
-0.000219651
0.0607182
-0.0110797
1.03291e-05
3.95696e-06
-0.00251335
1.23281e-05
2.40821e-06
-3.43232e-05
-1.32923
-0.111465
2.34956e-07
-0.0288493
-9.87775e-07
2.48415e-06
-0.0107235
1.83958e-06
-0.621872
0.0113583
-3.51037e-06
0.000368143
-0.000840375
-0.710614
0.317437
0.0699047
-6.30064e-05
0.112982
-0.00789209
-0.161633
0.357137
0.00538574
0.000179519
-0.0136242
-0.000430709
0.000459076
-1.16545
-0.011569
0.31984
-4.5657e-06
-0.0111636
-0.053367
-2.66082e-06
-8.28458e-07
-1.40737e-07
-0.00404973
-0.0396336
-5.10151e-07
-0.593528
0.000561608
2.45551e-06
-7.33358e-07
-0.0336069
-0.0699338
-0.00725106
0.262129
-0.987274
-0.230453
-1.36074e-07
1.29836
0.000353128
-2.26926e-06
0.000526372
0.00633514
-0.00494203
4.48995e-06
-0.172813
0.000223808
1.56648e-08
0.300469
0.0001411
2.96447e-06
-0.127571
-0.00022031
-7.70195e-06
2.70125e-06
-0.000285251
-1.42135
0.00128994
1.44384e-06
-1.94023e-05
0.338548
-7.35568e-07
2.34813e-06
0.0458932
7.6428e-05
0.0079751
0.00949731
0.000424722
-0.0123247
0.00100714
-0.660163
-0.211737
-0.00103617
-0.0899067
-0.00254783
0.00808735
0.243142
-2.19877
-0.54883
-5.07081e-07
0.000115428
-0.00394466
-0.485333
-0.017091
0.00833457
-0.00397447
0.010771
0.416319
5.20164e-06
0.547267
-0.107956
-0.282248
-8.7761e-07
4.88886e-06
-0.0858199
-1.60879
0.0231214
-0.263413
1.74291e-07
-0.0186646
-0.0186159
-0.952291
2.14896e-06
-1.86054e-06
0.190224
-0.135916
-8.24446e-05
2.02799e-06
-0.000167958
0.101263
9.01496e-05
0.0840103
-4.77043e-07
-0.0287012
0.000750217
0.0370791
-0.114367
-0.491049
-4.05485e-07
-0.00440063
0.478986
-6.38243e-07
0.000139437
-0.0100623
-6.77568e-07
0.0849832
-3.97748e-07
0.000340578
0.018132
-0.967678
-5.83043e-07
-1.65196e-07
0.650057
7.47592e-06
0.000770728
-1.74915
-0.912481
-2.70433e-06
0.00334609
0.00035141
-7.98255e-05
2.89015e-06
-4.35644e-07
5.22762e-06
-0.00506902
-2.97139e-06
0.0225636
0.270997
-4.95543e-06
0.0013729
0.0262837
-1.02073
-0.0238757
-0.0111294
0.0311767
0.365187
6.72451e-06
0.351219
-0.00199655
-0.768783
2.96649e-06
5.09004e-07
-1.74195e-05
-0.00188703
-0.17785
0.00836713
-3.59727e-05
2.50217e-07
-0.000522135
0.0040775
2.46165e-06
0.198782
0.480543
4.87655e-07
1.17079e-06
1.09334e-05
9.18557e-07
-0.224891
-8.77981e-06
0.0132063
-1.46689e-05
-2.57886e-06
-0.150964
7.14404e-06
-0.00891522
4.53686e-07
0.920987
0.000322192
3.48099e-06
3.30724e-07
-0.00157391
0.526196
0.23386
3.4803e-06
0.0142139
-1.573e-06
4.74708e-06
-0.0130141
-0.0913907
4.64576e-06
5.58998e-06
0.0010351
5.72011e-06
9.3845e-05
-1.85946e-06
-7.42195e-05
-0.000130648
1.07352e-06
4.81767e-07
7.46137e-07
-0.136759
1.95726e-06
5.26412e-06
9.33061e-07
-0.00248065
-4.97807e-07
-5.43389e-07
2.403e-06
8.02835e-05
-4.78525e-07
2.1786e-06
-1.04509e-07
0.000373807
-0.0149573
-4.63044e-06
8.42383e-07
0.367582
-0.000114301
2.20727e-07
3.77398e-07
-0.363107
0.0981893
1.94417e-06
0.0114852
-0.0686833
-0.000108327
-0.0248716
5.39731e-07
-2.51979
0.0140951
-0.0024765
-0.00599771
-0.102736
2.32145e-06
-0.407862
0.0264979
-1.28589e-06
-0.00220476
-0.00169644
0.585452
1.07975e-06
2.40076e-06
-1.07608
-0.0507804
2.20468e-06
-0.170146
0.00141748
-0.0004765
0.184093
1.08789e-06
7.55752e-07
1.17568e-06
-2.19249e-06
-3.34567e-05
-8.4827e-05
0.000122785
9.58447e-06
-3.10027e-05
1.63037e-05
0.508174
-0.349717
1.74034e-05
-0.366932
-0.163161
2.18956e-06
-0.0040862
0.100082
-1.15522
-0.0550537
0.00361366
-2.18981e-07
-0.323273
1.14951
-0.00163283
6.3804e-05
-0.00075159
-2.12487e-05
1.6012e-05
0.00478959
0.492499
-0.0552152
-0.0110509
0.559399
4.73124e-07
6.13531e-05
-0.000166416
-0.00357367
-0.155901
0.0172339
-0.561119
-0.01153
-0.0104943
-0.00193931
-2.09838e-06
-0.0235867
0.000609916
0.0504418
-0.0211588
-3.44328e-07
-1.51772e-07
-0.766577
-0.0622073
-0.0341166
-0.126052
-0.230107
-1.92796e-05
0.162312
-0.164323
-1.37393e-07
-3.84556e-05
-6.47118e-06
-0.000259553
-3.35795e-07
-8.14496e-06
-5.24772e-07
2.04752e-06
1.66995e-06
6.06295e-05
-8.41384e-06
0.216495
0.00120496
1.48794
1.34389
0.468511
0.414949
-0.0115056
0.000193338
-2.77166e-06
0.00506639
2.1672e-05
9.34306e-06
-0.0781919
-0.00129551
0.540868
7.31607e-06
0.143849
-9.28537e-07
-0.000124939
1.02358e-06
0.358591
-1.06512
-0.0395111
6.38185e-07
0.127489
0.00894507
1.04876e-05
-0.000708232
-1.46189e-06
-0.467253
-3.03261e-06
2.17544e-06
-0.2779
-0.000241783
-2.335e-05
-2.04041e-06
5.57726e-05
0.000144901
1.96286
0.328949
-3.25945e-06
-0.00490521
7.35823e-07
-0.000587191
0.00897314
-9.94187e-07
-0.0680438
-2.65992e-06
9.21594e-05
-9.46422e-07
-0.0148824
0.000380558
-4.37628e-07
-0.20323
0.0901799
9.91732e-07
0.000334131
0.000148485
-8.31456e-07
-2.29897e-06
8.45541e-06
0.080686
0.394352
9.8946e-06
0.000259517
0.432915
0.283704
-0.0871523
0.129128
-0.113508
2.98401e-06
-0.00556419
-0.00229658
0.0010294
-1.46985e-05
0.0175733
0.0478857
0.000216921
-3.47047e-07
4.29255e-06
-4.18606e-07
-1.33978e-06
-3.13709e-07
-2.51222e-06
0.0618729
4.20105e-07
-1.85516e-07
0.00103218
1.85115e-06
-2.3749e-06
-9.42359e-06
0.000133552
0.0161806
-0.0907571
8.28207e-06
0.00347374
-1.30509e-06
0.000882824
-0.00994124
0.119324
-0.0153111
1.35123e-06
-6.98994e-07
0.32964
0.319623
0.0140717
1.90888e-05
0.823474
-0.147731
1.05258e-06
-8.21593e-07
-0.634918
1.24844e-05
0.0176682
0.00509951
-0.00142542
-0.000607239
1.25676e-06
1.87044e-06
5.04353e-06
-4.2858e-06
6.34125e-06
-2.51668e-06
-0.101652
1.13085e-06
0.577218
0.53568
1.19294e-06
1.20973e-06
3.37858e-07
0.000159152
-0.000106491
0.668499
-4.96479e-07
-0.238049
0.000148491
0.00116275
3.72983e-06
3.49574e-05
3.3048e-05
-1.82401e-05
-3.60984e-06
0.164372
-0.0059358
1.00105e-06
5.79596e-06
4.96961e-05
0.218252
1.25139e-06
-4.6899e-07
-2.59727e-06
7.64482e-08
4.48355e-06
4.22506e-06
-1.9562e-05
-6.76579e-07
-0.00893437
-6.82276e-07
-1.04956e-05
-0.00439793
-0.00825797
-9.63404e-05
-1.20586e-05
4.50792e-06
-2.09931e-06
-1.79139e-07
7.75464e-05
0.413584
0.020114
5.06528e-05
-0.190174
4.38064e-06
-0.00433824
6.21473e-06
1.25375e-06
-0.00179039
1.5172e-06
-4.12414e-06
-0.307373
8.05279e-07
0.000125995
-0.000602475
1.35005e-06
1.35265e-06
0.287133
4.59906e-06
-0.234444
0.0647485
1.02054e-06
-1.62794e-06
0.00374556
0.000146837
-0.000120938
1.99128e-06
1.19987
-0.163487
-0.105742
1.38643e-06
0.45946
-7.67265e-07
-2.51823e-06
-1.12542e-06
-0.000268817
-0.107962
-0.00904795
-7.22791e-05
8.5176e-05
0.000279624
0.673513
0.249103
-5.44687e-07
0.0261199
4.72706e-05
-0.205622
0.000291461
0.00262115
1.32886e-06
-0.000178543
-0.000732982
5.92009e-07
1.63269e-06
1.516e-06
2.06984e-06
7.89412e-05
0.00771237
0.00502492
-0.366216
0.00253218
2.89502e-05
-5.97532e-07
6.48416e-07
0.574235
-1.55407
-1.46088e-05
-0.00386156
-0.611068
0.199268
-1.59654e-06
-3.49027e-06
0.00198101
-0.0323279
-8.25876e-07
0.110001
3.2651e-06
3.47868e-06
-0.00333522
8.51396e-06
7.91691e-06
-0.000203393
6.29137e-07
0.000551012
0.0822602
-0.000826823
-0.0276787
-9.03485e-05
4.84081e-06
0.0638775
-1.29295e-06
-0.0621721
-0.0680822
4.35717e-06
-0.0578821
0.000116883
-1.71094e-05
-0.0233424
-0.0323116
-0.0427749
0.0586728
0.000142471
-0.586917
9.65274e-07
-0.0931418
0.600252
-0.00182133
-4.70444e-05
-0.0377404
4.42891e-05
0.0036035
-0.296441
2.27315
-9.75647e-07
-0.173767
-7.78238e-07
-0.00573987
-0.0179869
1.67621e-06
-0.00192588
-0.0323321
-0.087931
0.000367858
-1.48082e-05
-3.88716e-07
6.71945e-05
0.000339729
0.00030526
-0.00358475
3.83091e-06
0.0735826
0.000129913
6.06684e-06
-9.00729e-05
8.4657e-07
-0.0421334
9.26358e-07
2.08234e-06
0.171752
8.43733e-07
-3.51611e-05
0.1987
0.000517033
-0.0131184
-1.05039e-06
3.93209e-06
-0.0024235
-6.07043e-06
-0.00524986
-9.12768e-05
2.11925e-05
-6.3403e-07
1.05925e-05
-7.4915e-07
0.025839
9.96798e-07
0.0910245
0.0232475
-2.20981e-05
-0.204268
1.28708e-06
0.000218003
0.000300862
0.574969
0.000151216
0.468711
0.0513582
1.01134e-06
0.301547
2.15119e-07
-0.29809
-4.94274e-06
2.25067e-05
-0.12136
0.0246751
1.7275e-07
-1.05687e-05
4.5766e-06
-2.23204e-06
-8.13588e-07
-0.00428818
0.0851209
1.12948e-06
-2.12966e-06
3.86985e-07
2.02774
-0.00945051
-0.0176508
9.03321e-07
0.0402458
3.03641e-05
5.15764e-06
0.00183801
0.142397
-4.22533e-07
-0.000794052
1.04296
0.000484068
0.154506
2.83273e-07
-0.000107894
-1.11658e-06
3.00461e-07
0.000538506
1.02705e-05
-0.000601478
-1.39525e-06
0.205759
-1.09863e-06
-0.000154857
-0.0144717
0.0442271
-0.004509
-3.56671e-06
1.01816e-05
0.0523863
0.0737921
0.00473755
-5.75263e-07
2.28645e-06
0.000438942
0.835181
0.110578
6.43477e-06
-1.1947e-07
2.60438e-05
-9.46764e-06
-0.000177437
-1.94436e-06
1.06286e-06
-0.0822579
8.05641e-07
1.51839e-06
0.0255154
1.47195e-06
2.05826
-0.00431399
1.40794
0.85485
-0.00356923
0.0749937
-1.58023e-06
1.45913e-06
4.82847e-06
-4.08032e-06
-9.76464e-07
6.76405e-07
-1.79682e-06
2.48953e-05
0.0989565
-0.0106026
1.31277
-0.00196163
6.81449e-07
0.000717849
0.00109779
-0.00101819
-2.81938e-06
-7.94468e-05
9.29826e-07
-0.0592543
0.153096
-0.199221
2.01177e-06
-0.00897559
-0.016389
0.130976
0.540037
-0.188644
-7.63737e-06
0.00171181
-4.40021e-06
-0.0975696
4.29734e-06
-6.96145e-07
-0.00569935
0.431832
-6.90054e-07
0.022404
0.00782407
6.04343e-07
-2.44522e-06
1.25849e-06
-8.23471e-07
1.14123e-06
3.98722e-05
0.000703923
2.45261e-06
1.84533e-06
-0.27375
-0.0511765
1.79164e-06
0.0170732
-0.259953
-4.38004e-05
-3.75698e-05
-8.05898e-06
-1.64676e-07
-7.82585e-05
-4.85819e-05
-1.28922e-06
-8.27634e-06
1.6426e-06
3.41098e-06
-0.132957
0.000199828
-1.91845e-06
-6.38435e-06
-0.0945355
-1.17893e-06
-8.49743e-08
-0.29701
-9.33353e-07
-0.00198737
-0.000180406
1.20443e-06
-8.33002e-07
-1.57938e-06
8.22523e-06
-0.00406404
-2.25361e-06
0.0177348
-0.00184642
0.00356317
0.0158322
8.2211e-06
-0.0181204
9.93468e-07
1.16988
0.000110874
3.82511e-07
0.00744566
-0.0940652
1.0396e-05
-0.414149
0.112479
6.09165e-07
-0.00216923
1.42716e-08
1.58131e-05
-5.74824e-06
1.20378e-05
-3.43062e-07
0.025257
-3.17791e-07
3.18075e-06
0.222967
6.53613e-06
-9.1256e-07
-9.82064e-07
-0.0903168
-9.21654e-06
4.8992e-05
0.000813636
-1.27203
0.140414
0.02018
-0.137497
1.98964e-06
7.55459e-07
1.06987e-06
2.80788
-1.42706e-06
-3.19681e-06
-0.000144005
2.10098e-07
-0.203029
6.8997e-06
4.79665e-07
-0.0164409
-1.78971e-06
0.0101105
-0.565403
6.1345e-07
1.90381e-06
-0.581192
-2.24784e-06
0.776105
-0.0800192
5.0434e-07
-4.38731e-07
0.0484673
5.11807e-07
-0.000266244
-0.0265226
-2.30373e-07
-0.19191
7.07626e-07
-9.59557e-07
1.62291e-06
-0.000350747
3.16437e-05
-0.139933
2.07678e-07
8.43303e-07
-0.0182686
0.0577908
-0.00385652
0.00118112
0.0128448
-0.0668116
-1.06105
-7.24623e-07
-0.11358
2.3911e-07
-0.279045
-0.341407
-5.86672e-06
0.000243644
1.02926e-05
-0.00546047
-7.44956e-07
0.492756
7.05692e-06
0.0460739
-0.0159868
-1.61543e-06
-1.38359e-06
-4.32374e-07
-0.423558
-0.235018
4.95637e-06
0.849763
2.01352e-07
-5.28304e-07
-0.270309
1.76698e-06
-0.957053
-1.69453e-06
0.000117864
1.07442e-06
-1.9719e-06
6.16321e-07
-4.1588e-07
-0.0059528
0.00108882
0.0002578
0.000941335
1.25798e-05
7.9667e-07
-0.0718549
1.43047e-06
-0.20573
2.79548e-05
0.484215
-4.55389e-05
0.00640932
1.46168e-05
1.36639e-05
-3.71231e-07
0.0181096
-3.87051e-06
-0.0411328
0.00223078
-1.07626e-06
-0.000173002
2.54508e-07
8.35168e-07
-9.13148e-05
-2.07777e-07
0.0579916
5.44474e-06
-1.84146e-05
-2.48414e-07
8.76111e-05
0.381841
1.0425
-1.10483e-06
-6.72845e-07
-0.000205615
1.47752e-05
-1.73768e-06
0.000549771
-2.51775e-05
-1.11915e-06
3.83784e-06
7.67103e-06
0.00425112
0.0113586
1.23884e-06
1.46575e-06
-0.00898938
5.43134e-05
-0.318982
0.247026
-2.84567e-05
1.04761
-3.45449e-06
8.63738e-07
4.21384e-05
0.000155409
0.0046509
5.32809e-06
-0.00215055
0.0766882
-0.00401649
-0.0112391
0.0218839
0.134575
6.95528e-05
3.04215e-06
-3.16105e-06
-0.0268614
6.33853e-07
-8.87069e-07
0.00112162
0.0454487
-1.32679e-06
-1.96441e-07
-0.321359
5.76972e-06
-0.000125873
-0.00172891
0.000153318
-0.00222342
-4.76146e-07
-9.3964e-06
6.53201e-07
-3.77218e-05
-8.15647e-05
-6.74877e-06
-1.98702e-05
-0.0331685
2.51625e-06
2.03224e-06
0.00475942
-1.65418e-06
-2.12698e-06
-1.3156e-06
0.000126296
-0.000227009
-0.242046
-0.0104949
-0.0387323
-0.0159295
1.76304
-0.0494869
-9.39704e-05
2.55456
-0.0134782
-3.84845e-06
-2.09617e-05
2.04198e-06
-1.56634e-06
0.000124064
4.77206e-05
-0.003693
-0.00130794
-7.02115e-07
-2.25859e-07
0.00180392
-0.000164544
-0.0492148
-7.13773e-07
-2.59514e-05
2.12556e-07
0.0400255
-0.00544023
-0.00173108
0.112708
-4.92675e-07
-2.93912e-07
-0.00921936
-3.36872e-05
-3.37513e-07
-0.00724002
8.26764e-06
-0.000120833
-0.0500588
-0.00668311
6.63702e-05
-2.67217e-06
-1.09439e-06
-1.49175e-05
1.56175e-06
-0.0184213
-0.0035053
0.050258
0.383513
0.0928432
4.48098e-06
0.31399
0.371482
-0.00209999
0.00847825
-0.22779
1.98781e-05
0.00699143
-0.0045441
0.000106946
1.73505e-06
-2.09266e-06
1.88049e-06
0.00305929
-7.23557e-07
-2.64976e-06
0.0249167
-0.598239
-0.346412
0.00424828
-0.00803884
0.268659
-3.18796e-05
-7.35236e-05
1.18494e-06
0.138651
-0.0023011
-1.72012e-06
4.12862e-05
0.407537
-0.272475
-0.683851
-0.000914008
-0.0021876
8.61454e-07
0.575899
7.97059e-06
-0.00123499
-0.0888817
0.000104261
0.0570977
-0.000995086
4.29184e-07
-3.07558e-06
-0.0683124
0.501605
0.0966648
8.76122e-06
9.52022e-05
-9.35895e-05
0.11148
-7.29262e-06
-0.0039556
-9.5263e-06
-0.0673494
0.0543831
0.000198071
-0.00398337
0.00285472
0.27694
8.89027e-07
0.00030168
0.49132
-0.00113274
-1.35692e-07
-0.214675
-0.0593552
-2.54332e-06
6.03866e-07
0.00219937
-2.49563e-05
-0.000621417
-0.0129416
0.0412827
-9.80026e-05
-0.00118578
1.42687
0.00194361
2.96606e-05
7.80159e-05
-0.0434792
0.000195855
-1.30157e-06
2.49782e-06
0.0655327
-1.12591e-06
3.75789
-9.63125e-07
8.15129e-07
-0.0331501
-4.28662e-06
-5.88533e-07
0.0391714
-5.5776e-07
8.41949e-06
5.87792e-07
3.77947e-06
-1.65346e-06
-0.0173342
-1.37819e-05
-0.0251552
-0.0291163
0.359485
-0.159937
0.0001012
2.95924e-07
-1.05028e-06
0.514787
-8.38545e-05
-5.63432e-05
-0.00154678
-0.000172398
-0.230437
3.63375e-07
-5.72571e-07
3.5375e-07
-1.2739e-07
-1.34626e-05
9.42095e-07
3.95358e-05
-1.22347e-05
1.47388e-06
0.0464768
-0.00223182
-0.0161549
-0.00046677
1.03121e-06
0.00110298
-0.0295904
0.121243
-0.179119
0.0409088
-0.0416523
-0.00233585
0.305701
-0.000238947
2.06636e-05
0.000254051
-0.127147
2.5223e-06
0.0216592
0.0228428
0.0419092
-2.21019e-06
-0.217924
-1.70036e-07
1.11363e-06
-4.65837e-06
-0.00288547
1.4115
0.543554
-5.28539e-07
1.41374e-06
7.35601e-06
9.32251e-08
0.00227924
1.57454e-07
0.351407
-0.00448802
-0.000531791
5.54584e-06
-2.47715e-06
4.20818e-07
0.0523752
-0.311315
1.56552e-06
-6.96399e-05
-0.304268
-9.71238e-08
4.75468e-07
1.18498e-06
-1.10074e-05
-2.25989e-06
-2.11756e-06
-1.30001e-06
0.317562
0.000102139
-0.0104827
-8.74292e-06
-1.21458e-06
0.0785242
0.000186668
-1.68409
-1.69831e-06
0.000496879
-0.0285583
0.287998
0.000445632
-0.00810243
0.110475
0.000549288
0.00141108
4.22976e-06
-7.17388e-07
1.97405e-06
1.08712e-06
-0.0719075
0.00118588
-9.95385e-06
-0.00219807
1.73955e-06
-1.11358e-05
-0.000889654
-0.240591
-8.37288e-07
-0.00146588
0.519605
0.00976604
-0.422578
2.06948e-06
1.73411e-06
-0.821025
0.0016393
2.06127e-08
-2.20771e-06
0.022722
-6.75852e-08
1.27688e-06
0.0275621
-0.00847076
-0.000109707
3.57419e-05
0.000170388
-0.182022
0.000138295
0.0123493
1.69613
7.69577e-07
1.74455e-06
-0.012409
-0.000336355
-0.000640285
7.97029e-05
0.00216901
0.00193697
-6.11317e-07
2.27156e-05
0.0570471
0.00103777
-3.02302
-0.0179456
0.000589724
-0.0336821
-0.096118
-3.29966e-05
-0.142899
0.682382
-0.000178418
0.0642531
-1.73114e-06
0.0679254
-0.00749909
-0.40323
-0.000996446
-0.0188156
0.000969483
0.0601995
3.53676e-07
-5.68055e-07
-0.329737
-7.82619e-05
-2.01657e-06
1.86765e-07
2.37144e-05
-6.43944e-07
-1.16212e-05
2.73024e-06
-1.88545e-06
0.195893
0.0809492
3.24214e-06
9.48495e-06
0.00398742
0.0434179
2.43858e-07
0.0339781
-0.0146666
-0.00213355
-6.73106e-06
9.84625e-07
0.0674267
2.52895e-05
-0.00426366
-0.00325144
1.5103e-06
-0.00282444
0.37585
8.83915e-07
0.152486
-0.118924
0.350975
-1.18439e-05
1.53713e-06
1.75268e-06
2.20701e-06
3.74784e-07
-0.0435867
-0.197129
2.7403e-07
0.354277
-1.87799
-3.95252e-07
2.46761e-06
2.69947e-07
-0.129388
0.192709
0.0239347
-0.00045885
-0.000112351
0.212405
0.0110954
4.402e-07
3.66091e-06
0.000308464
0.000989884
2.63174
0.0283871
1.17571e-06
0.0860495
0.00199055
0.0012442
3.01944e-07
-2.98156e-06
2.37954e-05
2.18026e-06
6.50484e-05
1.3629e-06
-0.00457444
0.270521
-2.72449e-06
1.125e-06
-0.000810728
1.36892e-06
4.23555e-06
4.2543e-05
-0.0794374
7.59862e-07
-0.00120152
0.223086
-0.00417222
-0.0483269
0.00727127
-0.000226596
-8.7613e-05
3.92261e-05
2.15136e-06
-1.1221e-06
-2.08201e-05
-0.0187925
0.000119134
7.84717e-05
0.0120937
2.05138e-06
-0.361458
-0.00102729
-6.12462e-07
2.22125
-1.42763e-06
-0.000150129
0.0406947
-0.530014
-0.000155538
7.56504e-06
-6.61903e-05
-0.00290435
-1.33557e-06
0.0198789
-0.145752
9.06493e-07
-0.00471297
0.1968
-5.59166e-06
9.59198e-05
-0.0677573
-0.00869897
2.12098e-06
0.0479991
-1.42971e-05
-2.98215e-07
-0.039615
-0.0261241
0.206717
1.59095e-06
-0.0327921
0.00173184
-4.7272e-07
0.000965888
-0.00081691
-8.12087e-06
0.0181745
2.05381
-0.0212932
-0.00274821
0.0163125
7.8799e-07
-0.0606465
-0.0182255
0.0286589
2.84948
-8.01549e-06
0.0772188
-6.93805e-06
3.06008e-06
0.00152111
5.46141e-05
0.0815943
-0.0647245
6.10002e-06
-0.0418269
-0.142435
0.0628575
-0.00152281
-0.00503588
-7.03333e-07
-9.24755e-05
0.000168692
-9.22685e-07
-0.361843
1.63126
0.138503
0.258849
-0.00573956
-0.0396836
-0.426106
5.80598e-06
0.00101604
1.09174
-0.00904414
-2.96769e-06
-2.24593e-06
-0.00730244
0.00179903
0.000393619
1.32265e-06
1.07491e-06
0.00106652
-2.61076e-06
-0.00495556
-0.0413087
-4.79432e-06
0.493245
-6.14919e-07
0.644863
1.2382
-0.17612
-4.99004e-05
-0.0629547
-0.000113253
2.2878e-06
7.84332e-05
0.0212097
7.64871e-05
-0.337714
-8.59953e-07
-1.73662e-06
-0.0825471
-0.0679053
4.25136e-06
0.0205165
2.45213
-0.249325
-1.07449
-1.98298e-06
-2.83253e-06
0.0736355
-8.17831e-07
-2.02497e-06
0.000164648
-9.23288e-07
2.01181e-06
-2.13575e-06
-1.86525e-06
-8.15957e-05
-3.2064e-07
0.000294968
-0.000333593
-2.22019e-05
0.40439
-0.199288
0.000211984
1.43399e-08
1.49294e-06
0.0212088
1.47665e-07
7.38599e-07
-8.76636e-08
0.0207118
5.342e-07
-3.45499e-06
3.94428e-05
0.039025
-0.041211
-2.58638e-06
0.00819772
-0.0137859
0.000251407
0.0127656
0.0525005
-4.48051e-06
-1.14933e-06
0.00227405
-0.00117578
5.97134e-06
-0.433752
-0.460481
1.44311e-06
-2.06404
-2.96546e-05
-0.00485485
-0.512708
-0.0709862
-0.120072
-1.80664e-05
-5.90456e-07
-0.820848
-7.55864e-05
-0.257816
0.000442432
-0.0536614
0.510114
5.02957e-06
-0.00392377
-8.61883e-08
0.0395841
-0.0037154
-0.0616032
2.55802e-06
-4.11403e-06
-0.00885919
-1.07437e-07
-0.112445
3.88415e-05
0.0450255
1.61648
0.000866652
-0.0204703
-0.233972
-7.78927e-07
-2.55044e-06
1.11764e-06
-0.0572502
0.0091785
-1.63567e-05
1.4386e-05
4.2167e-06
1.76908e-07
0.00484321
-9.85399e-07
1.11198e-06
0.00687023
5.26901e-06
1.52009e-06
-0.000145776
-0.220965
0.0576174
0.234481
-2.61187e-06
-0.00185867
-0.00184353
-4.77175e-05
0.0119234
0.0930216
-0.0530159
2.08067e-05
-0.000550702
2.36511e-07
-0.00298723
-0.000237095
-0.00681619
-0.0576149
-1.68488e-06
-0.00533156
-2.12087e-06
-0.0194348
-0.0515449
1.29721e-06
-5.77499e-06
-3.06932e-07
-4.50316e-08
0.524569
-3.54208e-06
7.9169e-07
-2.84095e-05
-7.37043e-06
-6.69354e-08
4.0928e-05
1.5844e-06
2.92339e-05
5.4577e-08
-6.28318e-07
-0.290007
-0.191194
-0.0286635
-1.338e-06
-1.10672e-06
-9.30443e-07
-1.29745e-06
-3.50466e-07
0.00247014
1.19234e-06
9.50745e-07
2.06941e-06
-1.45422e-07
-0.00183268
7.52458e-07
-0.0230809
-0.145645
-0.00148962
1.31395
3.569e-06
-0.101602
0.0142907
0.185984
1.23251e-05
-0.28476
-3.18384e-07
6.04394e-06
-7.10893e-06
-0.00113302
-0.00373827
1.35163e-06
-0.00181771
-0.000263158
-2.76122e-06
-0.00877179
-0.128167
0.00138742
-1.94732e-06
-2.14325e-05
-0.378265
0.00147405
1.24678
1.49924e-06
-2.10996e-05
-9.22889e-07
0.000600187
-7.31514e-05
-0.0184488
0.00190011
1.67724e-06
-1.32453
-0.0097184
0.0188621
-7.00057e-07
0.000166998
-0.292924
-3.47352e-05
-2.71731e-05
0.000820426
-0.407746
2.19148e-06
-6.69e-06
2.26525e-06
0.000120042
-7.48533e-06
-0.0421277
-8.6021e-06
-0.000259482
-0.000725687
0.307631
1.42042e-06
4.35837e-07
2.27829e-07
0.00111362
-7.38595e-08
-0.0866775
-0.159405
0.000279826
0.120626
1.62721e-06
-2.54024
-4.32797e-06
5.03702e-07
-0.00631058
-0.000293564
-0.0035078
0.0382965
1.99095
-0.106127
-0.00103153
-0.0013331
1.28086e-05
0.537859
-1.77228e-06
-0.000194584
-0.00894697
8.15854e-06
-0.039448
-0.00218089
0.00284598
-0.0436442
0.0536559
-0.443604
-0.092178
-0.019004
0.000438841
0.000607426
2.48794e-06
1.8227e-06
4.39459e-07
-0.23413
-0.730807
-0.0502783
0.00019596
0.000134968
-0.00908105
1.33042e-06
-0.00500745
-3.74627e-07
-0.00120329
-1.57846e-07
-7.22193e-07
0.000231257
-0.00251739
-1.99166
0.00133576
-7.29926e-05
2.39082e-06
-0.00231895
0.00898625
2.59218e-07
-0.00498483
-0.268513
-8.8964e-07
0.00194405
1.85995e-07
0.141352
4.30257e-05
-1.41401
1.07599e-06
6.6151e-08
-0.000273707
0.00183724
1.47511
-0.00351138
-0.00360194
0.000110158
-3.77613e-06
-4.60133e-06
2.56543e-05
1.30068e-06
1.65162e-06
1.44829
0.330741
0.000466356
1.65311e-05
-0.000328768
-1.51954e-05
-2.41301e-06
-1.51377e-07
-0.00487824
-0.0458667
0.181373
-9.84803e-06
0.0313796
9.28415e-08
0.010325
-0.00014882
0.00065306
2.09558
0.135971
-0.0529083
-6.50393e-07
-3.5722e-06
1.02179e-06
-2.27684e-06
5.49027e-07
-1.66372e-06
0.465814
1.87597e-06
3.83639e-05
1.65569e-06
0.00291092
-3.19023e-07
0.223518
0.778158
0.0325059
-4.94729e-06
0.999203
1.15817e-06
-0.0483676
-0.37504
0.000399424
0.0533332
-9.29458e-05
-0.01059
-3.83052e-06
-0.000144649
-0.000174105
-0.00494687
-0.00334372
-0.0872554
0.0234365
0.0186274
-0.00217931
3.67213e-05
1.36522e-06
-0.19841
5.53013e-05
-0.316968
-3.36373e-05
-0.023182
1.50319
0.0421908
-2.22225e-05
0.0887092
0.000124223
-4.30148e-06
-2.35046e-08
1.87578e-05
0.00891611
8.01843e-07
0.00131571
0.0104412
0.00426877
-7.37516e-07
-0.00029064
2.51364
0.0788183
-0.100619
-7.65281e-05
0.00298151
-0.456855
0.988076
1.89877e-05
0.00309091
-0.0717238
0.00613979
-0.0209325
0.000242152
3.05795e-05
0.995732
1.80183e-06
0.0249489
-0.00552701
8.57268e-07
0.0642961
0.00170357
0.0159657
0.000312459
-0.0119628
-0.0021904
6.59165e-08
-0.00522329
-5.93684e-07
-0.171054
0.000118509
0.54616
0.0230179
-0.0851976
-0.0416887
0.00448249
1.30329
-6.79571e-05
-0.000307299
-0.086255
-0.00096387
1.64131e-05
5.85202e-05
1.90721e-06
-0.000275212
-3.0119e-07
-7.88794e-07
0.689527
2.01261e-07
2.03479e-07
3.02386e-05
4.1209e-05
8.38292e-07
-0.0121488
-0.39021
-0.00673555
-6.51364e-07
1.79661e-06
-0.000741942
1.51247e-05
-1.15036e-07
1.09857e-06
4.02406e-08
0.0965013
-6.08185e-06
-0.00106747
0.000440566
-1.98723e-06
-7.01828e-07
1.40175
0.0255954
4.69592e-05
0.00524795
1.01378e-05
8.18156e-05
1.30293e-06
-0.000685714
-0.199163
-0.00133903
0.0090999
7.2697e-05
-1.68487e-06
0.000178024
-0.164807
0.0102705
0.0155242
-3.05177e-05
-1.80104e-06
7.83179e-07
-6.42715e-05
-0.139056
0.197025
3.1183e-06
0.0207477
-7.71449e-07
2.13237e-06
-0.00918704
-2.36951e-06
-0.363186
-0.00784294
-0.102298
6.34767e-07
-5.06453e-05
-0.00443052
-0.397833
-3.33524e-06
-9.8001e-05
0.0479526
-0.108888
0.119329
-0.066668
0.600295
6.56797e-05
0.107765
-9.00699e-06
-0.0028234
-0.140981
0.00222316
1.05074e-06
-8.25231e-08
-1.55353e-06
0.360841
-0.026644
0.000156985
-0.126205
-1.05656e-06
1.14007e-06
2.30191e-06
-0.00508835
-0.00517962
-0.0560836
-1.13609e-06
-2.27343e-05
-6.75131e-05
-0.452472
7.75626e-07
-0.021228
-9.69132e-05
0.00118623
0.516387
2.38637e-07
-0.0884954
0.204057
-0.225862
-0.526826
7.10769e-06
1.45401e-05
0.000424576
-0.228361
-3.68587e-05
-4.15834e-06
-2.78701
0.0867651
-8.23764e-07
-3.54935e-05
1.21231
-7.26248e-07
0.277244
-0.183987
-0.000119294
4.92523e-07
0.000222819
-0.0001221
0.0793316
3.97013e-07
-0.00196475
-8.89234e-06
-0.265767
0.120841
2.15575e-06
4.32858e-07
0.0568013
0.000322043
-1.99745e-06
-6.70783e-06
5.74019e-07
-0.00354124
-0.000190858
-0.129083
-6.26239e-09
-2.15517e-06
-0.00012552
1.09543e-06
-0.00292314
-4.60475e-05
0.021335
-0.0876364
0.0445204
-2.66755e-05
6.10053e-07
-0.0648788
-0.000281847
0.000498547
1.67705
0.00625198
-0.0592098
0.232267
1.21045e-06
-0.119027
0.0765635
1.92201e-05
-2.02878e-06
-1.21129e-06
-1.00847e-06
1.60491
0.00624586
-9.89312e-07
0.0373475
-0.862679
0.995673
-7.07686e-07
-2.52935e-06
-0.401962
7.26567e-07
3.02901e-06
1.33487e-05
2.62346e-06
0.669192
-3.37607e-06
-0.14818
0.00603888
1.25189e-05
-0.0192523
0.038004
0.104004
-0.0204476
1.73271e-06
0.000225022
0.00218158
-0.333134
0.0418399
0.0927306
2.06733e-06
-1.2296e-06
-0.000460991
-7.27471e-07
0.137818
-0.472114
1.52382e-06
-0.0978719
2.20969e-06
-0.0133512
-1.58073e-05
-0.000509457
-1.48105e-06
1.79931
-0.0147856
0.113514
-2.46459
-1.92267e-06
-0.394736
1.197
-1.91568e-05
-0.0543965
1.14062e-05
-1.21168e-07
-9.37362e-07
0.00038875
0.00018733
-3.68693e-06
2.33276e-06
0.125976
-0.0034477
0.000255584
0.0706921
-0.00194527
-0.000263979
-3.86391e-05
-0.00520529
-1.75467e-07
0.00792268
-0.677464
-0.112688
-0.129561
-2.43303e-05
-4.19491e-05
6.18303e-05
-0.0042687
0.000112934
-1.38775e-06
-0.0124795
-0.897418
0.889691
0.00174882
-6.67396e-07
-0.00442305
0.00144403
0.000324199
-2.00361e-07
-4.97416e-05
1.33399e-05
-0.000407292
7.04021e-07
0.020186
5.56437e-06
0.0551145
-2.3441e-06
0.091718
-0.867021
1.77953
4.95376e-07
-0.0138232
-3.92293e-06
1.67497e-06
-0.00568789
-0.914116
2.1772e-06
-9.21103e-05
0.130077
-3.14298e-06
-0.004049
-0.0483597
0.000582084
0.0115329
3.19756e-06
-0.0660263
-0.000593822
1.91126
2.19487e-07
-3.76809e-06
-0.0579718
-1.77039e-06
0.0620508
0.000246323
-0.000110523
-0.107272
-2.44878e-05
-1.28619e-06
-9.89332e-05
2.00116e-07
0.0595524
0.0455356
2.38378e-06
0.0703356
-0.0109683
-0.0133236
2.35025e-06
0.148566
0.0181005
0.000195548
0.00113867
2.06865e-06
-0.0786168
5.00725e-07
0.463858
5.26242e-08
-5.42667e-05
0.00014454
-1.34817e-06
5.80878e-07
0.0119998
6.82165e-05
2.94749e-06
-0.000952331
2.02368e-06
-0.000711479
-0.000329164
-0.0625646
-0.00620512
1.95062e-05
0.00102416
2.49129e-06
9.71756e-07
0.000212652
0.596914
0.0157881
-0.00803351
-0.294083
5.55123e-07
-7.24174e-06
-1.09686e-05
1.22305e-06
-2.08362e-06
0.321809
2.16107e-06
-3.52625e-05
0.151389
-2.40726e-05
1.59056
1.73109e-05
4.44655e-07
0.282215
-0.0985704
-1.85416e-06
-0.000348443
9.3886e-06
-0.0115198
-7.27279e-08
1.01449e-05
-0.099723
2.06072e-05
0.0123125
-0.0181043
-9.84233e-05
4.20617e-05
-0.404907
0.000134815
-0.00305779
-1.30076
1.23922
0.000171461
-0.000760715
9.75523e-05
-0.182716
5.41583e-05
-0.434382
0.150166
0.162515
0.156302
-5.48249e-05
1.29995e-06
-4.29018e-07
0.00339065
-0.212682
0.05916
0.104678
7.52128e-07
-0.131617
-6.18372e-05
-0.0402168
-1.90206e-06
0.00129458
-0.00032224
-2.01307e-05
7.25524e-05
0.0488722
0.000185336
-1.35826e-05
6.84963e-05
-0.00589512
-3.10402e-05
1.04292e-06
-0.355249
-1.6301e-07
2.83195e-05
-7.57792e-06
1.93403
-0.0038078
-0.044094
0.000744251
6.79242e-05
0.164793
0.000320772
-0.0100331
1.51594e-06
-1.08129e-06
-0.0974754
0.0715978
-0.0778827
1.44433e-05
0.000126309
0.0721884
-0.0111787
-0.00169728
0.0262488
-0.0301945
-0.0782677
7.67383e-07
-0.727687
3.66072e-06
-7.05743e-05
0.0958996
-0.00683518
-0.00541377
1.02086e-06
-0.0815744
-0.00429929
-0.040209
0.00399403
-2.4105e-07
2.31889e-07
4.10625e-06
-0.0746632
-5.67527e-07
-0.0290409
-0.00874998
-0.0489852
-2.16326e-06
-0.00897937
-0.0740859
0.046778
-0.000781063
7.03834e-06
2.78774e-06
1.60754e-06
-0.00032443
9.34966e-07
0.000121309
-0.204552
-1.07483e-06
6.27581e-05
0.132352
0.0501061
0.0252129
0.000323892
0.00161005
-1.51964e-06
-0.157488
0.000125125
0.0824202
0.00166952
0.0549273
0.000682141
0.0107071
-0.00830484
1.58255e-06
1.11128e-07
-2.03979
0.0160172
-0.016469
0.041627
-0.00206766
-6.31657e-06
-0.0117728
-1.06554e-06
0.0282454
-1.0182e-06
0.000148697
-0.00968079
-9.04103e-05
0.0234379
-1.51223e-07
-0.11191
2.1325
0.000869226
0.000752606
-0.0586923
-0.000292921
-3.2214e-07
0.112801
-0.0836597
-0.165981
5.74006e-07
1.20732e-06
-0.40326
-0.0504739
-1.97152
3.27854e-06
0.000112103
-2.97747e-06
0.000355371
-1.1652e-05
6.40459e-07
0.0274087
1.30954e-06
-0.631905
9.93043e-05
0.481981
1.75711e-07
-0.109091
0.926157
0.00894904
-2.04604
-0.278241
3.86194e-07
-0.000292041
1.20458
-1.56395e-07
-5.92586e-06
-3.17832e-06
-0.0428721
-1.63339
-2.33904e-06
0.0907961
-0.00139478
1.37729e-06
-0.0457634
4.63852e-05
-0.00580416
-0.034633
-0.0076301
-1.79029e-06
0.419213
0.00113915
1.39434e-07
0.120449
-0.00258426
-0.0485349
-0.0560347
-0.000531373
-0.337451
-0.00961003
0.000400602
2.04616
-0.0688161
0.0944027
5.30664e-05
-2.17161e-06
-1.37717e-06
6.43522e-05
-0.0150899
-0.0276312
-0.754811
-0.200062
-0.000347916
-2.32351e-06
-2.28629e-06