/*--------------------------------*- C++ -*----------------------------------*\
| =========                 |                                                 |
| \\      /  F ield         | OpenFOAM: The Open Source CFD Toolbox           |
|  \\    /   O peration     | Version:  v2012                                 |
|   \\  /    A nd           | Website:  www.openfoam.com                      |
|    \\/     M anipulation  |                                                 |
\*---------------------------------------------------------------------------*/
FoamFile
{
    version     2.0;
    format      ascii;
    class       volScalarField;
    location    "150";
    object      p;
}
// * * * * * * * * * * * * * * * * * * * * * * * * * * * * * * * * * * * * * //

dimensions      [0 2 -2 0 0 0 0];


internalField   nonuniform List<scalar> 
18758
(
0.0024901
-0.00504676
0.00274865
0.00238134
0.00716185
0.000477308
-0.00202993
-0.00636011
0.00694549
0.00678576
-0.00263364
-0.0267772
0.00847111
-0.0155836
-0.00168186
-0.000739022
-0.0239749
3.34894e-05
-0.00164361
0.00405084
-0.0169236
-0.0160941
0.000512265
0.00105639
-0.0130816
-0.0117098
-0.0359685
-0.00714985
-0.0243604
-0.00989987
-0.0575728
-0.02991
-0.00624399
0.0132379
0.00745805
-0.011358
0.00846584
0.0072361
-0.0800035
0.000497663
-0.0221117
0.00691406
-0.0073023
0.00345253
0.000496958
-0.033696
0.00685218
-0.022628
-0.0901122
0.00244213
-0.0028814
-0.0272103
0.00220336
0.00596716
-0.0281366
0.0084547
0.00268497
0.00372613
-0.0222139
0.0026658
0.000743099
0.00344554
-0.0217793
-0.0230256
0.00082492
0.000257251
0.00280377
0.00164692
-0.00488489
6.81621e-05
-0.0272784
-0.0120826
0.000284297
0.00476389
0.0184967
-0.0446679
-0.0144276
-0.0157396
0.00691742
-0.00451565
-0.0329879
-0.0662298
-0.0170335
0.0130103
0.00351803
-0.0337269
-0.0304822
0.00552266
-0.0243292
-0.0358441
-0.0406213
-6.32847e-05
-0.0387696
-0.0824801
0.000265324
0.00287888
0.000275277
-0.0262197
-0.0176321
0.00226281
-0.0294514
0.00899656
0.00160897
0.00288634
0.0029848
-0.0140512
-0.0233709
-0.0384584
-0.012605
-0.0176384
-0.00110793
-0.0272296
0.00477073
0.00299946
0.00936396
-0.0187569
-0.0253494
0.00252671
-0.0307097
0.00327166
0.00302416
-0.0166652
0.00348642
0.00308873
-0.166132
0.00597793
0.00343883
0.00310427
-0.0239226
-0.178238
-0.0226268
0.00209285
-0.00755298
0.00197195
0.000419617
0.00298019
-0.0235182
0.00345941
-0.0234403
-0.0322765
0.00484768
-0.0291618
-0.0302001
-0.015532
-0.17164
-0.0411708
0.00402176
-0.0243875
-0.00401958
-0.0966473
-0.186481
-0.151731
-0.00940441
0.00749798
-0.0195768
-0.0204999
-0.037781
-0.02372
0.0153677
-0.00617358
-0.0302412
0.0031748
-0.0811315
0.00686946
-0.00554436
0.0025649
0.0031524
-0.0449485
-0.182735
-0.0330231
-0.128943
0.00274166
-0.0238592
0.00077751
-0.0155472
0.00325737
8.93768e-05
-0.00974687
0.0116777
-0.0170505
0.0014841
0.00593752
-0.0282221
-0.0210042
-0.103665
-0.00412124
-0.0106702
0.0092457
-0.0751042
0.0165108
-0.146642
-0.00397951
-0.00597306
0.00552614
0.00108467
-0.019535
-0.0250824
-0.0090861
-0.0672869
0.00161728
0.00275703
-0.0235093
0.0258269
-0.000772991
-0.00113709
-0.0734211
0.00383037
0.00754672
-0.183422
-0.16597
0.00177721
-0.0352686
0.00284267
0.00470866
0.00317817
0.000329909
-0.00136449
-0.0361599
0.000510083
-0.0243444
0.007329
0.00300174
-0.0290213
-0.0245167
0.0242146
-0.000412366
0.0201177
-0.0426309
-0.0332765
0.00379463
-0.0137178
-0.0396258
-0.0130325
0.00296634
0.00121776
0.00301028
0.0154048
-0.107962
-0.0276456
-0.00526669
-0.00130105
0.0148985
-0.0208712
0.00233887
-0.100601
-0.0419661
0.00108129
0.0031405
0.00261652
0.00237592
-0.124831
0.0034647
0.00217015
0.00298939
0.000321867
-0.0431033
0.00260568
-0.0110127
-0.00176179
-0.0353418
0.00484022
0.00309782
0.00100018
-0.00579921
0.00489804
0.00431018
0.00312367
-0.0235463
-0.00972395
0.00360971
-0.0242597
0.0076143
0.00346768
0.0036982
0.00146589
0.0028731
-0.013587
0.00048564
0.00478695
-0.0149017
0.00311758
0.00211213
-0.00172445
0.00907091
-0.00193652
0.00367013
0.000158535
-0.0209955
0.00295495
0.00292284
0.00235578
-0.0163238
0.00269459
0.0021952
0.00210367
0.00259161
-0.00127363
-0.000149931
0.0010843
-0.166151
-0.0226631
0.0027699
0.00275806
-0.0474219
1.01878e-05
0.00143996
0.00282944
-0.0127915
0.00350278
0.00863025
-0.00186924
0.000560153
-0.0255211
-0.0160292
-0.0255296
0.0116641
0.00155147
-0.0342446
-0.0264214
0.00275254
-0.0158027
0.0143227
-0.0946289
0.00174287
0.00158158
-0.170079
-0.00106156
0.00343111
-0.154104
0.0132159
0.00471817
-0.00918399
0.00171651
0.00260182
-0.00185363
0.00300081
0.00297633
0.00261781
-0.00705426
0.00389407
0.0027057
-0.00621001
-0.00333595
-0.0527312
0.00344551
-0.0382428
-0.0155233
0.00340031
-0.0301545
0.000813795
-0.0248309
-0.0250027
-0.0159666
-0.00415119
-0.140548
-0.044957
0.0080363
-0.00632232
0.00477324
0.00482959
0.00347313
-0.0272671
-0.000158874
-0.0183643
0.0219592
-0.00292823
0.00116062
-0.0251659
0.006196
-0.024605
-0.101293
-0.0204715
-0.0173076
0.0101498
-0.0247045
-0.0151672
0.000271629
-0.00392074
-0.0232817
-0.00188042
-0.0158411
0.00281331
0.00102829
-0.0200242
-0.0227197
-0.00452527
-0.025359
-0.160146
-0.00572449
-0.0297225
-0.0174118
-0.00086898
-0.0135042
0.0036555
0.00364635
0.00305941
0.00489965
-0.00535846
0.00209417
0.00238096
0.00248021
0.000171442
-0.0599445
-0.0337376
-0.0723294
-0.070759
-0.185776
-0.0464357
-0.024504
0.0026343
0.000948525
-0.00941681
-0.01285
-0.00455294
-0.0186507
-0.023651
-0.00752072
0.00263216
-0.00437927
0.000614694
-0.0226753
0.00130488
-0.0476938
0.0019917
-0.0279332
0.00212564
-0.0167548
-0.0417757
-0.00194327
0.00369188
0.00168202
-0.0139223
0.00188005
0.0022234
-0.00335781
-0.0344649
-0.00492746
8.60873e-05
-0.00481212
-0.00490469
-0.0402074
0.00166581
0.000650824
-0.00188018
0.00126655
0.00258236
-0.0440184
-0.00352221
-0.0521337
0.000654388
-0.00434597
0.00272133
-0.0173916
0.00254543
-0.00512555
-0.124449
-0.000871505
0.000145613
-0.0241021
0.00609588
-0.00080656
0.00263063
-0.00212984
0.0096322
-0.0478686
-0.00978128
-0.018798
-0.0074597
-0.0118341
-0.0134039
-0.0415677
-0.013156
0.00245602
-0.0235229
0.0135866
0.00403022
-0.00572851
-0.0243952
0.00239728
0.00463314
0.00273255
-0.00195022
0.00304086
-0.00343148
0.00304381
-0.00316676
0.00974237
0.002956
0.00114051
-0.0444886
0.00196553
0.00267051
0.000650036
0.00607815
0.00270219
-0.0232402
0.00385481
-0.00303842
0.00015505
-0.0309246
-0.0222819
-0.057936
0.00853272
-0.00136344
-0.00432411
-0.0518468
-0.00531255
0.00244161
0.00265603
-0.00307444
0.00695871
0.000118436
0.000118124
-0.054447
0.00292293
-0.0308591
0.00267596
0.00373415
-0.0175125
0.00315842
0.00315261
-0.000388702
0.000848344
0.00376342
0.000402095
-0.0193226
0.00156069
-0.00686578
-0.0100801
0.000114415
0.00155156
0.00296661
-0.0193591
0.00874929
-0.00205318
0.00217135
0.0216908
-0.00252294
0.00418341
0.00332116
0.00247017
0.00268625
-0.00941058
-0.00937989
-0.143164
-0.101136
0.00310208
0.00373084
-0.0157357
-0.0399435
0.00133431
0.000291588
-0.00312274
0.00118163
0.00361416
0.00330291
0.00292706
-0.000711576
-0.0214639
0.00205378
0.000498275
0.00956256
-0.0618151
0.00473761
0.00345367
0.00282064
0.00269514
-0.000455155
0.00328823
-0.000834114
-0.00292879
-0.0165744
-0.0232794
0.00286093
-0.0307766
0.00344474
0.00150419
-0.0386778
0.000144241
0.000861591
-0.0353555
0.00276424
-0.0196603
0.0228945
0.0027847
-0.0032981
-0.0555255
0.00249761
0.0101565
0.00157719
0.0024219
0.00270106
0.0127496
-0.00319859
0.00863335
0.0031865
-0.0374768
-0.028708
-0.0105264
0.00317637
-0.167995
0.00105457
0.00174625
0.0016268
0.00244874
0.00967184
0.00657626
0.00304935
-0.0201384
0.00340174
-0.00437146
1.22994e-06
0.000345592
0.00248471
-0.0209424
-0.117061
-0.00855154
0.00484829
0.00337679
0.00236202
-0.0221776
0.00242693
0.00341079
0.00136807
0.00331665
-0.00996498
0.00456022
0.00229535
-0.0307593
0.00504636
0.00650225
0.00174911
0.00311413
-0.00669317
-0.0202887
0.00061416
-0.0271705
-0.156481
-0.146291
0.00170041
0.00070646
0.0141937
-0.0122871
0.00100699
0.00150677
0.00296164
0.00207932
-0.0291116
-0.0020344
-0.00978569
0.00353267
0.00307705
0.00360455
0.00356876
-0.0375266
-0.0178938
0.00466638
0.00364517
-0.0280316
0.00034681
-0.0296021
-0.0228976
0.00309009
-0.0201929
0.00362678
0.00346268
-0.0244611
0.000780145
-0.000432538
0.0071157
-0.00318377
-0.0252039
0.0016082
-0.00825734
-0.182318
0.00794342
0.00298824
-0.0366959
-0.0204152
0.0189264
-0.0129052
-0.0429722
-0.00849922
-0.0214656
0.00164666
-0.026098
-0.0245481
0.00285651
-0.0170363
-0.012999
0.0098996
0.00588434
0.00309605
0.0011254
-0.00677207
0.00252108
0.00882007
0.0194928
0.0036757
-0.0226264
0.00618021
0.00367353
-0.0288506
0.00138874
0.00196483
-0.00159791
0.00334671
-0.102625
0.00309347
0.00486134
-0.00698
-0.0405702
-0.047971
-0.00455295
0.00324423
-0.00676168
0.00277696
-0.0121163
-0.0235502
0.00315115
-0.0121627
0.00385116
0.00106085
-0.0441188
0.00137799
-0.00115617
-0.0248564
-0.017029
-0.0296291
0.00150123
0.00468224
0.00536611
-0.0242422
-0.0243555
-0.00526263
-0.0135581
0.00122881
-0.00452018
0.00283921
-0.00976032
0.00294036
-0.0088761
0.00635212
-0.0123935
-0.0012708
0.000840011
-0.00531809
0.00322593
-0.0043989
-0.0222884
-0.0860838
0.00308158
0.00320986
0.00285252
-0.0332789
0.00848204
0.00533669
0.00310342
0.00155571
-0.00846309
0.00339412
-0.0323454
-0.0196132
0.000252342
-0.0281185
-0.0113705
0.00129626
0.000625574
-0.00472543
-0.00655814
0.000278159
0.00244884
-0.0236421
0.00379765
-0.0229228
-0.00332064
0.00786853
0.00240735
-0.0235635
-0.0240368
0.00937722
-0.0251978
0.00091259
0.00379912
-0.0136975
0.000933764
0.0182026
0.00254181
0.0025362
0.00416568
-0.102309
-0.00967946
0.00309179
-0.00105956
-0.00301484
0.000757016
0.00355963
0.000248754
0.00276791
-0.0112983
-0.00156282
-0.00340735
-0.0139122
0.00319863
-0.0429843
0.00068452
-0.00246415
-0.0910609
-0.0293416
-0.0912117
-4.15208e-05
0.0024938
0.00352283
0.00306186
0.000391867
0.00278087
0.00259798
-0.00685503
-0.0269484
-0.0230433
-0.0047251
0.00247102
0.0022709
-0.00282257
0.000749132
-0.00612297
0.00180801
0.00463088
0.0024207
-0.0958459
0.0098382
-0.0315449
0.00291029
-0.0235091
-0.0245724
0.00121285
-0.106961
-0.025568
0.00197701
0.00145
0.000450609
0.0136154
-0.00257223
0.00181934
-0.0153223
-0.0283798
-0.000257983
0.00306596
-0.00721608
-0.00201888
0.000904162
-0.00222529
0.00399988
-0.00155938
0.00606731
-0.0143759
-0.00033973
-0.00236863
-0.0396304
-0.102016
-0.0014511
-0.0246888
-0.00323403
0.0035969
0.00296595
0.00304531
0.00014389
0.00401028
0.00358942
0.00251287
-0.00901242
0.00592512
-0.0039424
0.00679688
-0.012734
0.0025832
0.00406032
-0.0571333
-0.00882672
0.00177916
-0.0199087
0.000181528
-0.0168596
-0.0227148
-0.00363118
0.00271334
0.00318833
0.00448341
-0.0409926
0.00264732
-0.0288961
-0.00675339
-0.0235928
-0.0217192
-0.00301925
0.00922471
0.00159583
-0.00567694
-0.0167826
0.00378589
-0.0199816
-0.0437342
0.00415044
-0.0197568
-0.0175412
0.00156343
-0.0284715
0.00177457
-0.00200598
-0.0101511
0.00530725
0.00276388
0.00207628
0.000773689
0.0036445
-0.0207922
0.00334337
0.000472104
0.0027562
0.0098936
0.00411778
0.00284166
-0.0134871
0.0253731
-0.0103829
-0.0370253
-0.018756
0.00321337
0.00128875
-0.00379248
-0.0428124
0.00298682
0.00338029
-0.0156551
0.00240422
-0.0108845
-0.00355827
-0.00680621
0.0158616
0.000526755
-0.0432979
-0.0343984
0.00124671
-0.000227376
-0.0211476
0.00308306
-0.188276
-0.0548364
0.00310071
-0.00512944
0.00834421
0.0030797
-0.0163478
-0.00513362
0.00100834
-0.0203602
-0.00205579
0.00392637
-0.00148669
-0.00071154
0.00546693
-0.0313685
-0.00219904
0.00158378
0.00221278
-0.0141857
-0.04029
0.00497898
0.00237382
-0.11219
0.024596
0.000980148
-0.116992
0.00301265
-0.0457538
-0.0342419
0.00301037
0.00254161
-0.00335572
-0.0113582
0.00330914
-0.0329226
0.00332941
0.0141353
-0.0322519
0.0026146
0.00102347
-0.000324663
-0.0161585
-0.0149094
0.0031441
-0.0465123
0.00189107
0.000324641
-0.0232309
-0.0027653
-0.000584101
0.00326162
-0.0135353
0.00178514
0.0033006
0.00151304
0.00334725
0.000323382
0.00488853
0.00716571
-0.0138972
0.00462691
-0.00155869
-0.0332705
-0.00240337
-0.0294454
-0.00303741
-0.0204691
-0.0205178
-0.00497843
0.00263666
0.00268259
0.000709497
-0.0374792
0.000747259
-0.0233098
0.0173833
-0.00340069
-0.0282287
-0.00232605
0.00306797
0.00457987
0.00360428
-0.0273782
0.00326329
0.00235481
0.00256264
-0.016362
-0.0161004
-0.0412583
0.00301713
0.00263129
0.00279184
0.00445854
0.000636631
0.00270921
0.00131356
-0.000170839
0.00247867
0.00255142
-0.0221956
-0.0301996
0.00239496
0.00244509
0.0116483
0.00543054
-0.0467645
0.00912558
-0.00741033
-0.0645482
0.00256359
0.002543
0.00253846
-0.00371615
0.00568496
0.00254461
-0.0169485
-0.00380053
0.00326611
0.012762
-0.0339884
-0.142932
0.00909962
-0.0064888
-0.00550922
-0.0424213
0.00237886
0.00249077
-0.0204341
0.00188188
0.00253309
0.00273693
-0.147882
-0.0251505
0.00282772
0.002396
-0.0142872
0.00313299
-0.00527827
-0.0244819
0.00270169
0.00886539
0.00282517
-0.00905906
0.00368225
-0.0402752
-0.0122915
-0.00180494
-0.0208112
0.00100541
0.00257736
0.00203631
-0.0109666
0.00283015
-0.00402483
-0.0246553
-0.040269
-0.0113076
-0.0473963
-0.00195669
0.00285472
-0.0358364
-0.0231555
0.00251536
-0.0152676
0.00237444
-0.00560124
-0.011085
0.00529907
0.0198009
0.0105892
0.00250113
0.00279638
0.0153521
0.00284051
-0.00157757
0.00271193
0.00160526
0.0023247
-0.0303904
0.001166
-0.0165368
0.0125935
0.00184284
0.00223608
-0.0167512
0.00469561
0.00195779
0.00825275
0.00437577
0.00250797
-0.0123898
-0.00155376
0.00835126
0.00186747
0.0028207
-0.0047159
0.00333715
-0.0109987
0.00207694
-0.0456411
-0.000965333
-0.0982213
0.00441976
-0.0874052
-0.0373691
-0.0312637
-0.0313377
-0.0388085
0.00680997
-0.00408574
-0.0237897
0.00916694
5.62706e-05
0.000804021
0.00317504
0.0150237
0.00267901
0.00191129
0.00223133
-0.0545795
-0.0506088
-0.0219799
-0.0302153
-0.0272065
0.00471385
0.00465493
-0.00209923
-0.0343511
-0.0359109
0.000322886
-0.0128454
-0.0587219
-0.133487
-0.159309
-0.00528697
0.00924889
0.00133489
-0.189167
-0.0118385
-0.0078713
-0.00906675
0.00887087
-0.0223116
-0.0237261
-0.0048813
0.00012601
-0.0268021
-0.00235252
-0.0242614
0.00413784
0.0025272
0.00483691
-0.00120908
-0.00285082
-0.00544377
-0.00748558
-0.0128758
-0.00109828
0.00219771
-0.00200054
0.0180383
-0.152677
0.00132814
0.00837989
-0.0340182
-0.0158307
-0.000973179
-0.032211
-0.0318017
0.00116323
-0.00231503
0.00145807
0.00280581
0.00354089
-0.017261
0.00147599
0.0030231
-0.0273312
-0.049351
-0.0197752
-0.0016693
-0.0026826
-0.0130969
0.00276813
0.00348507
0.00274466
3.7192e-05
0.00283457
-0.0685416
0.00308224
0.00310122
-0.015822
0.00347155
0.00196375
0.00174289
0.00108029
-0.0120627
0.00314417
0.00269602
-0.00659522
-0.0345014
0.00375286
-0.00424845
-0.0300127
-0.0283807
-0.0246883
-0.00751582
0.00313943
0.00279531
-0.0343825
-0.0135373
0.00303896
-0.00531514
-0.00473385
-0.0443886
0.000108507
0.00305689
0.0030734
0.0035793
0.00412788
0.00160678
0.00516302
0.00493872
-0.00306045
-0.00210444
0.000982444
-0.00788251
0.00358145
0.00314463
0.00275418
-0.00804168
-0.0363286
-0.0197011
0.0159623
-0.0164064
0.0114926
-0.0364268
0.00356305
0.00832284
-0.0233275
-0.138767
0.00260865
0.00401298
-0.00324224
-0.0270053
0.000249298
-0.011686
0.00192083
-0.00218894
0.000498015
-0.0303431
-0.0249694
-0.063542
-0.00841672
0.000176307
0.00253322
0.00251608
0.00649519
-0.00375946
-0.0396428
-0.0154183
0.00480083
0.004601
0.000913555
0.00148273
-0.0978967
0.0255644
0.00126904
0.00219404
-0.0096623
0.00250222
-0.00381475
0.00290115
0.00409076
-0.00625606
0.00300286
0.00317357
-0.00553523
-0.0190487
-0.018106
-0.00278363
-0.00990352
-0.0290257
0.00352848
-0.0236569
-0.0103049
-0.0365486
0.0017222
0.00068134
0.00876381
-0.000326406
-0.138158
0.00364544
0.00828925
-0.00055741
-0.000277832
0.00301686
0.0019348
0.0214684
-0.00287825
-0.0196378
0.0205519
0.00300047
0.00374452
-0.00894799
-0.0236846
0.00098112
-0.0314387
-0.0119175
-0.0298429
0.0215158
0.00280945
-0.00117903
-0.16487
0.0063205
0.00241698
0.00139687
-0.0235649
0.00309834
0.00315523
-0.095619
-0.0198403
0.00468669
0.00517319
0.0029444
-0.0349174
-0.0252471
-0.184827
-0.0325884
-0.00149856
0.00306431
0.00274689
-0.00360011
0.00239454
-0.0115261
0.00227681
0.00287555
0.00259281
0.00407686
-0.0311509
-0.00178557
-0.191567
-0.0103148
-0.0257425
-0.0142675
0.00378684
0.00277271
-0.0227498
-0.0398976
0.00266973
-0.0296712
0.00247191
-0.0145072
-0.0215546
0.00362941
0.00236639
0.00564468
0.00511569
0.00210147
0.00215333
0.00181086
-0.0247462
0.00420935
0.000655348
-0.00119304
0.0044867
0.000438192
-0.00262634
0.00265169
0.00011199
6.07908e-05
-0.0196106
0.0026556
0.00346802
0.00446651
-0.0269847
0.00121304
-0.0282918
0.00879285
-0.0243599
0.00268431
0.00167837
-0.104635
0.00464372
-0.00725932
-0.0216712
0.00319943
0.00240254
0.00274911
0.00215052
-0.00335869
-0.0219386
-0.0370871
-0.00258268
0.00215224
-0.00287927
0.00290609
-0.00143711
-0.00193216
0.0200742
0.00159469
-0.00213764
-0.0267517
0.00297912
-0.0067946
-0.00155415
-0.0207276
-0.143199
0.00619969
0.00476671
-0.0195519
0.00773309
-0.0234059
0.00278322
0.00300476
-0.0188969
-0.0268511
-0.0392869
-0.00205819
0.00279536
-0.00342693
-0.0196307
0.00247724
0.00230977
-0.00770802
0.00368649
0.00293863
-0.00377761
0.00317874
0.00507749
-0.000685191
0.000282715
-0.001022
-0.0149109
0.00317416
0.00297335
0.00280647
-0.0117822
0.00309748
0.00371696
-0.0531146
-0.0298851
0.0180292
-0.0308106
0.00349925
0.00234332
0.00352101
0.00297996
0.000276434
0.00226596
0.00183614
0.00405417
-0.00713065
0.00318949
0.00246289
-0.0113988
0.00937729
0.00210762
-0.0782464
0.00350622
-0.0140395
-0.0156237
-0.083587
0.00615788
-0.0123884
-0.0259743
0.00521505
0.00110273
-0.0248293
-0.00399251
0.00308158
-0.0219599
-0.0226576
0.00132775
-0.00756797
-0.0111116
-0.0205811
-0.00409216
0.00017564
-0.0219235
-0.000428276
0.000908008
-0.0225253
-0.00586057
0.00285913
-0.0227652
0.0117137
0.00134916
-0.00570472
-0.0120143
0.00276871
0.00866709
-0.0497335
-0.00752915
0.00826358
0.00602103
0.00307418
0.0167651
-0.00593907
-0.0266482
-0.0532531
0.00164903
0.00457769
0.00195631
0.00280171
-0.0225011
-0.00417895
0.000329386
-0.0104139
-0.00703519
0.0199215
0.0042974
-0.079695
-0.0168562
-0.0166238
0.00100343
0.00340659
-0.0146335
0.000862829
-0.0354317
-0.0499154
0.00678012
-0.000993424
0.0131745
-0.0131425
-0.0863908
0.00331122
0.0028449
-0.0364199
-0.0207274
0.0022454
0.000778267
0.0084813
0.00421786
-0.00560513
-0.00173427
-0.00209097
0.00585473
0.00128989
0.0176773
-0.00823273
0.000589435
-0.0388694
0.000998109
-0.00989806
-0.0339237
-0.0153292
0.00458494
-0.0228001
0.00282263
0.00323331
-0.00766301
-0.144344
-0.00384273
0.00286217
0.00206286
0.00152328
0.0252415
0.0155653
-0.00669535
-0.02287
-0.0490231
-0.0131707
-0.0199852
0.00310671
0.00241828
0.00127033
0.000934034
0.000950529
-0.00698782
0.00225463
0.00293236
0.00314835
0.000645766
-0.0185811
-0.00103162
0.00651835
0.00585608
0.00242668
-0.00879947
-0.139963
-0.000706339
0.0028184
-0.00282147
0.00458845
-0.00396118
-0.00198729
-7.42916e-05
-0.0398955
0.00385064
0.00254365
-0.00218162
0.0020696
-0.0120283
0.00332551
0.00438463
0.00583813
-0.00420836
0.0190394
0.00205783
0.0033619
-6.28306e-05
0.00222223
0.0022922
-0.000376499
0.00949979
0.00783412
-0.00295821
-0.00949305
0.0025441
0.0019872
0.008567
0.0033761
-0.0883165
0.00344923
0.000206076
-0.0212476
0.00462906
-0.0471096
0.00263368
-0.01877
-0.00867388
0.00267022
-0.0330074
0.00207526
0.00168227
-0.0146132
-0.0780874
0.00279434
0.000989418
0.0191376
0.00393316
-0.0212238
0.00269297
-0.0073728
-0.0335708
-0.0217361
0.00664291
-0.147142
0.00352843
0.00327918
-0.00264711
0.00249417
-0.00729596
-0.0049905
-0.00192236
0.000242279
0.00283217
0.00273596
0.00355272
0.00302877
0.00789393
-0.00767181
0.00298334
0.0060372
-0.0876993
-0.0117776
-0.0384533
-0.00740006
0.00603662
0.00242388
-0.0294655
-0.0375265
0.0089704
-0.145522
0.000825598
0.00844017
0.00121137
-0.0230121
0.00264693
-0.0196075
-0.0217431
0.00297736
-0.00260093
0.00230415
-0.00881029
-0.0128569
0.00302771
-0.00605503
0.0028449
0.00291109
-0.176336
0.000597305
-0.000977381
-0.0147191
0.00385458
0.00162086
-0.00658749
-0.00299687
0.0046504
-0.00375661
2.72835e-05
-0.043945
-0.0173935
0.0109913
0.00207101
0.00111703
0.00122591
0.00183993
0.00178888
0.0124106
0.00167665
0.00310747
-0.00199758
0.00247448
-0.0221389
-0.00237287
0.0143121
-0.0375482
-0.0279421
-0.0395204
-0.0064766
-0.0396689
0.00422532
-0.0275857
0.00276437
-0.00604164
-0.00301627
-0.00252912
0.00151825
0.00617721
-0.022011
0.00228511
0.00306087
0.00788447
0.000944332
0.00584433
-0.0210343
0.0100828
0.00322899
0.00471092
0.026465
0.00235394
-0.0585336
0.00231399
0.00502997
-0.00113473
0.00286684
0.00739081
-0.019762
0.0110985
0.00293872
-0.00445696
0.0020891
0.00341719
0.000417844
0.00252046
-0.0196485
0.00274855
-0.0117032
0.000962248
-0.0262389
0.000347581
0.00383603
0.00300527
0.0100049
0.0034592
-0.0359746
0.00183666
-0.0302923
-0.0117592
0.00132091
0.00331593
0.00305865
0.00120454
-0.0137643
0.00281123
-0.0925496
0.00536815
0.00917213
-0.004715
-0.00268316
-0.00473352
0.000729645
0.00308608
0.00576029
0.00974479
-0.0288347
0.00430289
-0.0669499
-0.00802991
0.00564718
-0.0223081
0.00121399
-0.00418185
0.000119771
0.00205377
0.0108375
-0.00761623
-0.0110724
0.00154166
0.0014108
-0.0131219
0.00198752
0.00811202
-0.0110581
-0.0291075
0.00268942
0.00480659
-0.00190619
0.00295196
0.00196165
-0.0147621
-0.0374472
-0.0135288
-0.000328361
-0.00386365
-0.00523852
0.00218449
0.00360605
0.00304559
-0.00811344
-0.00163228
0.00196079
0.00274372
-0.0338424
-0.0119676
0.00941412
-0.0150502
0.00299392
0.00372504
-0.0611016
0.00236702
0.0183277
0.00929128
0.000910021
-0.0413144
0.00307498
-0.136668
0.00272605
-0.0255564
0.0005437
-0.00491133
0.00678214
0.00581953
-0.0169755
0.00228559
-0.00802933
-0.0202016
0.000635074
0.00118685
-0.00307908
0.00291965
-0.00312499
-0.0144685
-0.0346268
0.00449003
0.00324924
0.00668189
0.00474284
-0.00914989
0.00208948
-0.0216784
-0.0176453
-0.00399266
0.004101
-0.00174599
0.0031364
-0.0333298
-0.0184971
-0.0289299
-0.0586882
-0.0197882
-0.0102527
0.00204355
0.000752394
0.00176756
0.000790059
-0.00151298
0.000521812
-0.0363812
0.00196973
0.00350813
-0.00291161
0.0132594
-0.000650998
-0.150065
-0.0212068
-0.00192536
0.00213712
-0.0551467
0.00290709
-0.0158193
0.022145
0.00356135
-0.000594397
-0.0215971
-0.0314204
0.00334875
0.00208876
-0.0266719
0.0160139
-0.0228351
-0.0151792
-0.0309506
-0.0209351
0.00785538
-0.0112519
0.00276867
-0.0343825
-0.0154057
-0.0386093
0.00314272
0.0198174
-0.0338881
-0.0233511
-0.00591615
-0.0116728
-0.00854268
0.000671502
0.00226339
-0.00172575
-0.0276608
-0.00206311
-0.0166726
0.00787814
-0.0236238
-4.72136e-06
0.00659678
-0.0661329
-0.0136606
-0.0155616
-0.0176592
0.00260905
-0.028454
-0.00545932
-0.00780831
0.0165312
-0.0112634
-0.0276581
0.0162078
-0.0102312
-0.00263046
-0.0336272
0.00148366
0.0038875
-0.0333781
-0.00183037
-0.00140674
-0.028755
-0.0222286
0.00269825
-0.0243714
0.00261177
0.0030585
-0.0185926
0.00235354
-0.0179945
0.000801299
-0.00452424
-0.111215
0.00602162
-0.00991962
-0.0281039
-0.00811356
-0.0194506
0.00279889
-0.00775333
-0.0237525
-0.0171419
0.00508839
0.0030301
0.00670049
0.00160796
0.000730473
-0.00361965
0.00199814
0.00328713
0.0061784
0.0050874
0.00168481
0.00219301
-0.0232972
-0.0460695
0.00273672
-0.000246376
-0.021702
0.00132473
0.00177514
0.00187204
0.0030237
-0.0185008
-0.0177293
0.00652978
0.00561653
0.00185679
0.00191926
-0.0525297
-0.0271392
0.000439766
0.00259713
-0.00772123
-0.0109338
0.00213035
-0.032827
0.0180536
0.00915212
0.00291587
-0.0249637
0.00233108
-0.00231962
-0.0137464
-0.0221086
-0.0237549
-0.0171975
0.00236674
0.00311438
-0.017022
0.0203412
-0.0487652
0.00303213
2.3288e-05
0.00190701
0.00218213
-0.0128583
0.00315496
-0.0246279
-0.0138177
0.00424287
0.00135384
0.0076399
-0.0270551
-0.0276652
0.00233789
0.00349162
-0.0340149
-0.0104619
-0.0211777
-0.0119174
-0.0153291
0.00549379
-0.0134962
-0.0145616
0.00124683
-0.0221114
0.0025816
0.00285211
-0.00864439
0.00219656
-0.0391139
0.0186147
-0.00355879
-0.0121632
0.00224328
0.00289628
-0.00568056
-0.0196892
0.00284272
0.00208209
-0.00410955
-0.00521664
-0.00567418
-0.0481563
0.00288834
-0.0186522
0.00223039
0.00235144
-0.00912933
0.00237135
0.0189937
0.00404553
-0.0124921
-0.0185372
0.00296163
-0.0234322
0.00276666
-0.132675
0.00560075
0.000886922
-0.192737
0.000896017
0.000840261
-0.0177131
-0.00994691
0.00306867
-0.168746
-0.042733
-0.0143846
0.00123688
-0.00263432
0.00649701
0.012396
0.00312674
0.00790983
0.00455132
-0.0463388
-0.0509711
-0.00174429
0.00229745
-0.0197645
0.00376916
-0.00649259
0.00386089
0.0021392
-0.0213353
-0.01613
0.0142471
0.00182167
0.00271722
0.00219573
-0.00225033
0.00252814
0.00460734
0.0054522
-0.00184786
-0.0231838
-0.0121509
0.00287634
-0.0404775
0.00670262
-0.0320241
-0.0401442
-0.0241988
-0.0134591
-0.0336974
0.00289716
-0.0404642
0.000429575
-0.0103298
0.00319228
-0.00405797
-0.00406085
-0.0164773
0.00212336
-0.00134866
-0.0255247
-0.0081343
-0.0475545
0.00123518
0.00328987
-0.0515353
0.00215307
-0.00231906
-0.00192487
0.0028986
-0.0186848
-0.000275094
-0.0242175
-0.0138543
0.00316722
0.0180116
0.0179715
-0.0856639
-0.0167915
-0.0027987
-0.000810236
0.00669593
0.00513442
-0.0165599
-2.58446e-05
-0.00034736
-0.00438706
-0.0222236
0.00306973
-0.0754322
-0.0316932
0.00226509
-0.0559249
0.00297128
-0.136464
0.00332944
0.00100563
-0.00851086
-0.0264368
-0.0142396
-0.0862586
-0.189564
0.00217519
-0.0414936
-0.064347
-0.00483049
-0.0685063
-0.00786198
0.00216178
0.0023383
-0.00428064
-0.00325692
-0.0073858
0.00237738
0.0163212
-0.024947
-0.0056866
-0.0287028
-0.0161683
0.00792137
0.004769
0.000943502
0.00227618
-0.0385306
-0.0599225
0.011053
-0.0102125
0.00459744
-0.0258897
-0.00680091
0.00237365
-0.00425925
0.000190493
-0.17665
-0.0210574
-0.0289332
0.00123704
-0.00808434
-0.0198378
0.0107187
0.00353506
0.00303472
0.00458965
-0.00180273
-0.0237765
-0.0006236
-0.00370464
-0.0123731
-0.0353177
0.0032724
-0.000359965
-0.00570589
-0.056222
0.00207223
-0.0457169
0.000834418
0.00296081
-0.0136395
-0.0121663
0.0028875
-0.0148029
-0.0811055
0.000715937
-0.013742
-0.0154616
0.00601496
0.00170667
-0.00224895
-0.0226076
-0.0152839
-0.0836447
0.00285786
0.000875137
0.00801816
0.00320575
0.00206686
-0.00135105
-0.00125969
-0.0416823
-0.0054077
-0.0044365
-0.0120165
0.00185303
0.0120667
-0.0780241
0.00298586
-0.000513202
0.00256777
0.00629033
0.00289727
0.00133669
-0.00251057
-0.00645299
-0.0257069
-0.00403761
-0.0210588
0.0022351
-0.0384581
0.00284581
0.00222161
-0.00780104
-0.00865427
0.00302582
0.0188911
-0.0124601
0.00274898
-0.00203724
0.00298922
0.00756945
-0.0207867
-0.0409819
0.00334964
0.00276922
0.00961171
0.00252095
0.00168464
-0.00199174
-0.00628804
-0.000902414
-0.00208887
0.0097741
0.00301022
0.00392035
0.00415969
0.00233324
0.00269065
-0.078216
0.00159062
0.00464774
-0.0119216
0.00340121
-0.054518
-0.00307055
0.00302116
-0.0394123
0.0124293
-0.00899843
-0.0426404
-0.00175475
0.000416717
0.00147075
-0.00219865
0.00552514
0.00419194
-0.00115777
-0.0362586
-0.0153299
-0.00796417
0.00469304
0.00185867
-0.0131088
-0.00633516
-0.00164826
-0.00757425
0.00253484
0.00599695
0.0120451
0.00504032
-0.0335076
-0.0147101
0.010361
-0.0741699
0.00212285
-0.00382836
-0.000375896
-0.00402297
0.00451238
-0.0211023
-0.132324
0.00204989
0.0159817
0.0021494
-0.0261643
0.00181191
-0.00275699
-0.0231519
0.00451158
0.00520703
-0.0407123
-0.0115995
-0.00685346
-0.0150734
0.000917853
-0.00987054
0.00273373
0.0212606
-0.0028402
-0.00829863
0.00390907
-0.0457674
0.00231849
-0.0169756
0.000638354
-0.0121168
-0.0752669
-0.00140184
-0.00278311
0.00294625
-0.000635286
0.0148606
-0.158196
0.00246898
0.00331505
0.0016647
-0.0324853
-0.00417352
-0.022128
-0.000889327
0.00465715
0.00594481
0.0029865
0.00581538
0.00307834
-0.0266995
-0.0251639
-0.0356441
-0.036766
-0.00184562
-0.0780742
-0.012386
0.000570213
0.00396214
0.00180658
-0.00362499
-0.000575801
-0.0386997
0.00310869
-0.0154031
-0.0240366
-0.0155303
0.0026846
-0.0686686
0.0186058
-0.000423773
-0.021332
-0.0101083
-0.0119084
0.00245678
0.00675401
-0.00397695
0.00546866
-0.0171427
0.0016495
-0.00789089
-0.135925
0.00119225
-0.00231681
0.00303239
0.00165501
0.00328624
-0.114711
0.00347564
0.0109071
-0.0229648
0.000587553
0.00846135
-0.0440274
0.00603107
-0.00274643
-0.00088163
-0.189075
-0.00111722
0.00876702
-0.0200775
-0.0209069
0.00349157
0.0216113
-0.00434303
0.00323458
-0.00402207
-0.0213398
-0.0170052
-0.0114991
-0.0421718
0.00307672
0.0122772
-0.0524556
0.002615
-0.00361586
-0.0602541
0.00688169
0.00282755
-0.0641348
0.0171883
-0.123383
0.00207136
-0.000321094
-0.040709
0.00547254
-0.192416
-0.00414726
0.00588299
-0.00928894
-0.00482767
-0.00481958
0.0030105
-0.0152876
0.00277476
-0.0356269
0.000902682
-0.0132242
0.00205049
0.000864891
-0.0412252
-0.027859
-0.00896213
0.00394604
0.00330613
-0.0143018
-0.0139072
0.00240444
-0.00662158
0.00244699
-0.0862177
-0.184028
-0.00612057
-0.16492
0.000870355
-0.00200927
-0.0501663
-0.0165538
-0.0139028
-0.0957892
-0.0682268
0.000145511
-0.0402336
0.0023993
0.00233991
-0.149532
0.00838296
-0.0106244
-0.0319793
0.00393188
-0.00769651
-0.00324479
-0.00162189
-0.037536
0.0197946
-0.125441
-0.014255
0.00212291
0.000513648
-0.00674679
-0.00396746
0.0172637
-0.0431255
-0.0142904
-0.0295619
0.0021005
0.00192895
-0.000927826
0.000446421
-0.00157092
-0.0156025
2.92982e-05
0.00299712
-0.00930433
-0.156287
-0.0138706
0.0180449
-0.0254119
-0.00358568
-0.180451
-0.0101507
-0.0392546
-0.0156326
-0.00166931
-0.00124179
-0.000749433
-0.00175829
-0.0265634
0.00119377
0.000253574
0.000803131
0.00227663
-0.0220121
0.00347649
-0.0184741
-0.0350663
-0.00146741
-0.0197924
0.00486052
-0.00401725
0.00474648
0.00781855
-0.0190388
-0.0101063
0.00310457
-0.00564011
0.00212224
-0.0155297
-0.0030148
-0.131267
-0.0029477
-0.000576789
-0.146368
-0.0278578
0.00281506
0.000274433
0.00188375
-0.0240172
-0.00459741
0.0027677
0.00198697
-0.0142314
-0.0313536
-0.0473673
0.00311139
-0.0285479
-0.00339217
-0.0125904
-0.00128405
-0.014871
0.000505531
0.00151321
-0.0222949
-0.0161675