/*--------------------------------*- C++ -*----------------------------------*\
| =========                 |                                                 |
| \\      /  F ield         | OpenFOAM: The Open Source CFD Toolbox           |
|  \\    /   O peration     | Version:  v2012                                 |
|   \\  /    A nd           | Website:  www.openfoam.com                      |
|    \\/     M anipulation  |                                                 |
\*---------------------------------------------------------------------------*/
FoamFile
{
    version     2.0;
    format      ascii;
    class       surfaceScalarField;
    location    "150";
    object      phi_0;
}
// * * * * * * * * * * * * * * * * * * * * * * * * * * * * * * * * * * * * * //

dimensions      [0 3 -1 0 0 0 0];
oriented        oriented;


internalField   nonuniform List<scalar> 
27882
(
0.515013
-0.36996
-0.145054
0.512679
-0.247649
-0.265029
0.27189
-0.533067
0.261177
0.162176
0.352838
-0.224694
0.346996
-0.122303
-0.426164
-0.102088
0.528252
0.185908
0.187717
-0.373625
0.119444
-0.330854
0.21141
-0.339068
0.114374
0.249478
-0.372566
0.123088
0.379941
-0.56083
0.18089
0.521094
-0.156052
-0.365042
-0.368403
0.0902006
0.278202
0.332797
-0.165905
-0.166892
0.105467
-0.430798
0.325331
-0.428762
0.148302
0.28046
0.119767
0.401327
-0.313341
-0.168447
0.382168
-0.276701
0.176237
0.136945
-0.313182
-0.458947
0.241468
0.217479
0.0275266
-0.100595
0.0730684
0.0867971
-0.512961
-0.333881
0.54045
-0.206569
0.0930663
-0.0655397
0.154471
-0.0701501
-0.0843212
-0.319263
0.106304
0.212959
0.251294
-0.157679
-0.0936157
-0.188017
0.0323103
0.155707
0.498546
-0.395202
-0.103344
-0.173542
0.181241
-0.00769815
-0.139733
-0.179529
0.307288
-0.187844
0.0616758
-0.0921575
0.0304817
-0.168806
0.335179
-0.166374
0.251152
0.247394
-0.283594
-0.0848086
0.178191
0.10095
0.124787
-0.225737
0.395139
-0.47648
0.0813412
0.485944
-0.323019
-0.162926
-0.188979
-0.162809
0.351788
0.491447
-0.201635
-0.289812
0.469354
-0.336056
-0.133298
0.52056
-0.361657
-0.158904
-0.163091
0.0541206
0.10897
-0.336031
0.147053
-0.195735
0.0328657
0.162869
-0.00136782
0.00272393
-0.00135611
0.51203
-0.361758
-0.150271
0.570587
-0.190647
-0.0159407
-0.0321491
0.0480898
0.186775
0.325255
-0.394401
0.170852
0.223549
0.0674301
-0.124968
0.0575376
0.365862
-0.275661
0.48499
-0.462219
-0.0227709
-0.155148
0.331385
-0.193686
0.1695
0.0241861
0.365916
0.119074
0.489127
-0.0789521
-0.410174
0.334509
0.134845
0.133712
-0.223681
0.0262431
-0.191313
0.16507
0.0242372
0.464889
0.063194
-0.0440437
-0.0191503
-0.0180885
0.402082
-0.383994
0.625944
-0.299306
-0.326638
0.0629939
0.188301
-0.544951
0.23161
-0.0404199
0.0244792
0.0296873
0.0759815
-0.105669
0.145275
-0.399187
0.253912
0.164176
-0.281278
0.117102
0.231998
-0.266725
0.0347275
-0.0502671
-0.123275
-0.000377339
0.174618
-0.174241
-0.356031
-0.0426457
0.398676
-0.0895898
0.380689
0.110757
0.142928
-0.145363
0.00243509
-0.113371
0.214321
-0.333271
-0.0227598
0.00439086
0.208441
-0.212832
-0.543407
0.261616
0.281791
-0.122563
0.0188198
0.103743
0.196534
0.0548432
-0.137641
0.301817
-0.101501
0.235212
-0.131495
0.00893159
0.0398757
0.00657691
-0.0464527
-0.350048
0.509163
-0.159115
0.143277
-0.156775
0.0134978
-0.00307271
0.00170488
-0.248706
0.393981
0.523406
-0.101523
-0.421883
-0.339212
-0.134961
0.474173
0.183301
-0.169616
-0.013685
0.386692
-0.379639
-0.00705254
0.178421
-0.38061
0.202189
-0.0801889
-0.0829022
0.323576
-0.225249
-0.098327
0.316227
0.309717
0.428828
0.0945782
0.031247
0.031947
-0.347905
-0.111041
-0.156253
-0.0394817
-0.00804085
0.0479166
-0.164928
0.256868
-0.0919403
0.460498
-0.255572
-0.204926
-0.13857
0.441881
-0.303311
0.168698
-0.142455
0.284818
-0.473606
0.188788
0.476876
-0.473333
-0.003543
0.116838
0.206737
-0.181653
0.0274269
0.154226
0.181232
0.00206896
0.555429
-0.264362
-0.291067
-0.0254333
0.177913
-0.15248
-0.346167
0.494684
-0.148517
0.551041
-0.387175
-0.163866
0.149118
-0.149495
-0.209693
-0.333714
-0.508146
0.0741821
0.433964
-0.0120933
0.00198002
0.0101133
-0.223995
-0.170406
-0.504189
0.342495
0.161694
-0.422137
-0.086009
-0.0741775
-0.0932722
0.16745
0.0105477
-0.00562019
-0.16082
-0.526704
0.274807
0.251897
-0.23357
0.242886
-0.00931587
-0.00285857
-0.0140314
0.01689
-0.141417
0.536556
-0.352338
0.481578
-0.12924
0.131371
0.0984053
-0.229776
-0.40526
-0.0634513
0.468711
-0.197662
0.0258978
0.171765
0.13403
0.0088978
0.436904
-0.152086
0.50945
-0.218723
-0.290728
0.201371
-0.185572
-0.015799
-0.251912
0.086984
-0.0040374
-0.00805589
0.172585
-0.16158
-0.0110043
0.052173
-0.020926
-0.0418611
0.16195
-0.120089
-0.232472
-0.328358
-0.000966886
0.127537
-0.12657
-0.0109014
0.0121209
-0.00121944
-0.00638499
0.00812503
-0.00174005
0.054249
-0.258827
0.204578
-0.371927
0.0986774
0.27325
0.221453
0.264492
0.121657
-0.141539
0.15703
-0.0137523
0.0645691
-0.138747
-0.230889
-0.0304811
0.26137
0.280206
-0.0099632
0.0612866
-0.0513233
0.35556
0.0302748
-0.385835
-0.00881022
0.00956075
-0.00075053
0.0223958
0.0297772
-0.146597
0.0546395
0.0919579
-0.547818
0.247858
0.29996
0.414154
-0.0585941
-0.0556613
0.0109363
0.044725
0.00282651
0.0077212
0.454343
-0.41621
-0.0381329
-0.0104593
0.00154292
0.00891635
0.408347
-0.136457
-0.170989
0.178461
-0.00747197
-0.154803
-0.265035
0.164827
0.0920415
0.135808
-0.392133
0.256325
0.142449
-0.391155
0.0787478
-0.134126
0.0553783
0.087954
-0.0262782
0.229339
0.0474676
0.520632
-0.245041
-0.275591
-0.132932
-0.175593
0.308524
-0.0552017
0.122632
0.142318
0.164679
-0.119116
0.00875034
0.110365
0.421628
-0.316687
-0.104941
-0.306203
-0.0889994
0.35505
-0.290981
-0.0640687
-0.00398424
0.00091153
-0.108192
-0.0538504
0.162043
0.00193728
-0.00832227
0.277659
0.143969
0.0599968
-0.177722
0.117725
0.188277
0.0127404
-0.201017
-0.53949
0.219578
0.319912
0.235575
-0.314853
0.0792781
-0.174646
0.0150933
0.159553
0.317404
-0.263155
-0.00302869
-0.000955543
-0.494327
0.0769694
0.417358
-0.193202
-0.256606
0.449807
0.197969
-0.1334
-0.140385
-0.0504599
0.190845
-0.148087
0.427651
-0.279564
-0.401803
0.263233
-0.00832773
-0.000482491
0.0938909
-0.364426
0.270535
-0.0367475
0.00787554
-0.00497526
0.554846
-0.375726
-0.179121
-0.106541
0.149939
-0.043398
-0.466951
0.273749
-0.136604
0.426578
-0.289974
0.107529
-0.326189
0.218661
0.164227
-0.503439
0.00230003
0.390127
-0.392427
0.0504884
0.34199
-0.444078
-0.126364
0.435597
-0.309233
-0.0576015
0.245878
-0.172396
-0.280306
0.452702
0.180145
0.0212258
0.0504881
0.147481
0.0471885
-0.187574
-0.343626
0.398759
-0.0551334
0.244238
-0.0122401
-0.0656801
0.126145
-0.0604654
0.0507406
-0.0607039
0.345619
-0.251728
0.0493876
0.105084
0.155678
0.0169069
0.259138
-0.0943113
0.06203
-0.414368
-0.483196
0.147824
0.335372
0.275657
-0.448053
0.0478103
-0.199174
0.151363
-0.00107807
0.001489
-0.000410931
-0.171795
0.00281684
0.168978
-0.343042
0.26221
0.0808317
0.102418
0.322812
-0.425231
-0.144507
0.192318
0.0214506
-0.216032
0.194582
-0.342335
-0.170108
0.512443
0.113511
-0.114478
0.196256
-0.0591253
-0.137131
-0.477785
0.342014
0.135771
-0.26186
-0.199806
0.461666
-0.204873
0.49609
-0.291217
0.370701
-0.192281
-0.00850233
-0.00195695
0.516127
-0.252668
-0.263459
0.362407
-0.548612
0.186205
-0.17225
0.447908
0.463073
-0.0731445
-0.389928
0.163492
-0.00452579
-0.158966
0.379843
-0.573369
0.193527
0.106145
-0.076458
-0.396526
-0.0276868
0.424213
-0.249253
0.0129524
-0.235166
-0.238441
-0.363379
0.437561
-0.10243
-0.375355
-0.123401
0.183398
0.189931
-0.103735
-0.0861968
0.0550956
0.134836
0.0285665
-0.391945
-0.176212
0.0669955
-0.325823
-0.226565
0.35719
-0.130625
0.166807
-0.168035
0.00122794
-0.0505095
-0.000102402
0.0506119
-0.354092
0.127527
0.0883294
-0.332327
0.243997
0.121562
0.35091
-0.472473
0.316473
-0.208944
0.217722
-0.0298622
-0.18786
0.492846
-0.150856
-0.421274
0.284671
0.161561
0.171236
0.200448
-0.462308
-0.311824
-0.176198
0.488022
-0.434473
0.379428
0.0550446
-0.0384576
0.0247271
0.0137305
-0.24489
0.356169
-0.26784
0.397591
-0.435882
0.0382906
-0.161067
-0.0549658
-0.151923
0.378799
-0.226875
0.276905
-0.439294
0.096959
0.0952474
-0.293029
0.197782
-0.121777
-0.340442
-0.534683
0.258958
0.275725
-0.558703
0.263122
0.295582
0.208259
0.250115
-0.458375
-0.458531
0.114905
-0.438162
0.088114
-0.454427
0.120545
-0.00660298
-0.0138441
0.0204471
0.114967
-0.233771
0.118804
-0.597953
0.338538
0.259415
-0.393068
-0.204885
0.081003
-0.199325
0.118323
0.308566
-0.4889
0.180334
0.2807
0.239931
-0.16471
-0.240665
0.405375
-0.282026
-0.0658794
-0.0936422
0.428151
0.119176
0.246686
-0.405411
-0.0290618
-0.18393
0.130271
0.0536599
-0.148748
0.0587425
-0.16432
0.105577
-0.082237
-0.10578
-0.0434866
-0.0486709
-0.616828
0.300131
0.316697
0.225583
-0.209995
-0.0155885
-0.185548
0.166461
0.0190869
0.0403526
-0.424792
0.384439
-0.118513
0.177255
-0.210358
-0.0205314
-0.0111995
0.138736
0.161289
-0.459097
0.297809
-0.300601
0.00538048
0.434559
-0.117273
0.0627796
0.340495
-0.403275
-0.0069608
0.000445628
0.00651517
-0.0289442
0.187723
-0.158779
0.419396
-0.292415
-0.126981
-0.00956394
-0.00577072
0.0153347
0.448526
-0.287237
-0.167976
-0.365777
-0.0307494
0.120896
0.35598
-0.197698
0.316824
-0.119126
0.0451579
0.328192
-0.37335
-0.0847654
-0.246089
0.156079
-0.410945
0.254866
-0.298809
0.10111
-0.172291
0.269542
-0.0972514
0.0544727
-0.132158
0.202512
-0.121509
-0.0797347
-0.325525
0.0262578
0.346342
0.0403497
-0.267291
0.33007
-0.0296089
0.175429
-0.14582
0.489911
-0.181345
0.102422
-0.0725956
-0.0298262
0.534662
-0.202051
-0.332611
0.181247
-0.161902
-0.0193449
-0.417566
0.100878
0.00216243
-0.00179831
-0.00036412
0.241537
-0.244205
0.0026674
0.109416
-0.33172
0.222304
-0.273213
0.100923
0.298157
0.121238
-0.410347
0.300698
0.109648
0.139536
-0.475592
-0.156702
-0.223269
0.236009
0.553718
-0.236636
-0.317082
0.216593
-0.184839
-0.0317535
-0.025029
-0.19824
-0.141182
0.230174
-0.021364
-0.20881
0.152753
-0.285684
0.190135
-0.00890354
0.00164586
-0.0337886
-0.147864
0.109122
0.150016
-0.188404
0.194419
-0.00601568
0.133953
-0.456972
0.0210094
0.160238
-0.0145841
0.477657
0.0127209
-0.048923
0.0362022
-0.135133
0.356186
-0.514807
0.158621
0.233603
0.320115
0.378035
-0.396124
0.22334
0.31711
-0.066335
-0.03426
0.298026
-0.174638
0.403758
-0.22912
0.186709
-0.0199016
-0.00498077
-0.0734995
0.298291
0.204576
0.255922
-0.281711
-0.147051
0.301444
-0.19785
-0.103593
-0.355774
0.159479
0.196294
0.460654
-0.296852
-0.163802
0.285001
0.26604
-0.374408
-0.0359393
0.267315
-0.407659
0.140344
-0.421521
0.109697
-0.534505
0.294894
0.239611
0.159146
-0.488056
0.328909
0.259477
-0.252573
-0.00690405
0.148954
-0.217329
0.0683747
-0.212487
0.187806
0.0246806
0.0395002
0.126619
-0.16612
0.171718
-0.132218
0.0247614
-0.0192659
-0.00549548
0.229463
0.0218149
-0.164855
0.14304
-0.267123
0.475382
0.430747
-0.0356724
-0.395075
-0.395557
0.193921
0.158547
0.142897
-0.345288
0.211951
0.133338
-0.272271
0.178925
0.177309
0.0128266
0.417739
-0.304778
-0.112961
-0.373246
-0.200123
0.140229
-0.0857565
0.284645
0.235915
0.211846
-0.0968787
0.559227
-0.288494
-0.270734
0.00273536
0.000470346
-0.00320571
-0.128835
0.3074
-0.206434
-0.352269
-0.00158824
-0.00797569
0.130468
-0.147321
0.0168528
-0.504091
0.402341
0.10175
0.316661
0.143992
-0.252319
0.469664
-0.217345
0.21785
-0.108728
0.221808
-0.513406
0.291598
-0.356853
-0.17783
-0.11018
-0.0364174
-0.0146156
-0.197871
-0.0830783
0.384367
-0.241918
-0.310016
0.208766
0.101249
0.164534
0.0768762
-0.241411
0.175242
-0.159259
-0.0159834
-0.195193
-0.170951
0.366144
-0.608104
0.359952
0.248152
-0.0313228
0.225942
0.333285
-0.31459
0.359748
0.0429654
0.121982
0.294096
-0.416077
0.114569
0.0666717
-0.241999
-0.366105
0.257805
-0.093271
0.526865
-0.229147
-0.297718
-0.194453
0.160664
0.198239
-0.495851
0.297613
0.353612
-0.0862969
-0.000685347
-0.000460075
0.00114542
-0.15107
-0.33783
0.127434
0.373624
-0.501057
0.192342
0.0378321
-0.00439094
-0.293496
0.297887
0.285646
-0.433733
-0.465324
0.0823194
0.383005
0.503169
-0.324011
-0.179158
-0.0200159
0.168547
-0.148531
-0.0583616
0.0101152
0.0482464
0.213749
0.0755287
-0.289278
0.239572
-0.116463
-0.123109
0.187747
-0.212776
0.13505
-0.0563019
0.338454
-0.361846
0.0233926
0.0189489
0.177308
-0.0662915
0.404745
-0.510143
0.331086
0.179057
0.163109
-0.141295
-0.173451
0.243473
0.0137139
-0.257187
0.219997
0.0872905
-0.441968
0.315604
0.392689
-0.378539
-0.0141502
0.138338
0.298566
-0.514646
0.21812
0.296526
0.310331
-0.122614
0.457768
-0.120842
-0.336925
0.431101
-0.30912
0.0802478
0.37752
0.01117
0.334197
0.249821
-0.359785
0.109964
-0.31745
-0.158525
0.475975
-0.544212
0.365401
0.178811
0.125153
-0.141489
0.016336
-0.152405
-0.374299
-0.259604
0.455715
-0.196111
0.358533
0.125752
-0.484285
0.239692
-0.244083
0.0257669
0.366922
-0.222447
0.463915
-0.208347
0.175465
0.395123
0.347114
0.0352334
-0.382348
-0.200703
0.0253432
0.175359
-0.153038
0.106185
0.0468533
-0.0675754
0.0561088
0.0114666
-0.222685
0.034281
0.385704
-0.383404
-0.356345
-0.061221
-0.0431744
-0.0151872
-0.00862929
0.512756
-0.316385
-0.196371
0.508507
-0.142591
0.0960947
-0.350939
0.254845
-0.0160619
0.525025
-0.137054
0.484169
-0.064219
0.0278526
0.0363663
-0.140802
-0.185387
0.144165
-0.0101353
0.19588
0.316875
0.49031
-0.173649
0.11039
0.129182
-0.457803
0.257998
-0.133392
-0.255462
0.388855
-0.504877
0.217049
0.287828
-0.530524
0.309423
0.2211
0.0466287
0.29899
0.0805721
-0.442229
0.294826
-0.366913
0.0720866
0.266722
-0.439645
0.172922
0.342713
0.0750259
0.217082
-0.0293351
0.49316
-0.119536
-0.163866
0.430589
-0.423954
0.106504
-0.251325
0.185622
0.0657032
0.341199
-0.143708
-0.197491
0.0763049
-0.271498
-0.2483
-0.13231
0.0100423
-0.118235
-0.181313
0.227709
-0.0463968
0.233227
0.0102463
0.29646
0.100563
-0.397023
0.469584
-0.310438
-0.471995
-0.187577
0.272721
-0.0851438
-0.290956
0.103379
-0.0309269
-0.0033288
0.0342557
-0.00440651
-0.114709
-0.247059
0.447507
-0.285698
0.285795
-0.190548
-0.0055621
-0.0500992
-0.533471
0.244977
-0.284255
0.448482
0.357038
-0.345868
-0.430045
-0.114167
-0.135613
-0.254512
0.390125
0.452068
-0.155608
-0.124963
-0.187181
0.312144
0.433947
-0.00347864
0.172978
-0.376719
0.128419
0.33602
-0.477436
0.197207
-0.205974
0.00876714
-0.0245183
-0.0430571
-0.426522
0.293369
0.133153
-0.21732
-0.286869
0.428269
-0.269551
-0.158718
-0.39417
0.134565
0.270064
0.119877
-0.38994
-0.409619
-0.44622
0.313563
0.132657
-0.499763
0.162891
0.336872
-0.307438
0.220477
0.086961
0.144148
-0.318614
0.174467
0.292959
0.13531
0.139056
-0.168665
0.482031
0.0571596
-0.401736
0.344576
0.16026
-0.0045819
-0.209935
-0.335016
-0.232919
-0.297605
-0.209293
-0.117013
0.326306
-0.110438
-0.422628
-0.013995
0.24957
0.0386365
0.177956
0.503507
-0.133564
-0.369943
-0.125743
0.389911
-0.264168
-0.000293332
0.223285
0.332144
-0.349574
0.225784
0.12379
0.485064
-0.19023
-0.294834
-0.519285
0.165836
0.353448
0.249715
0.277149
-0.191784
0.196175
0.0827931
-0.293387
0.210594
0.212868
0.128331
0.388441
-0.252634
-0.174337
0.318485
-0.340462
0.440278
0.159865
0.302537
-0.462402
0.0171158
-0.0237188
0.490904
-0.216755
-0.274149
0.276112
0.278734
0.245728
-0.382957
0.137229
0.503234
-0.352928
-0.150306
0.111113
-0.164963
0.231311
-0.170784
-0.060527
0.284062
0.163324
-0.447386
-0.172535
0.284991
0.155561
-0.0322906
-0.123271
0.34066
-0.244565
-0.272224
-0.160931
0.433155
0.252421
-0.417131
0.0560923
-0.228118
0.172026
0.000803656
-0.0704714
-0.163099
0.435857
-0.312616
-0.123241
0.0826176
-0.350205
0.267587
0.250203
0.253031
-0.177552
0.167533
0.0100181
-0.338037
-0.181248
0.340153
-0.257536
-0.360418
-0.173053
-0.0463141
-0.340804
0.387118
-0.0726974
-0.155308
0.228006
-0.147612
-0.176481
0.324093
0.505501
-0.143094
-0.322677
0.304791
0.131066
0.123183
0.216574
-0.339757
0.385294
-0.139565
0.184192
-0.483139
0.298948
0.450738
-0.108025
0.0360868
-0.117947
0.172993
-0.195626
0.022633
0.00349768
0.00462735
-0.003794
-0.0271329
-0.39076
0.138441
-0.434451
0.48419
-0.0497392
-0.00191709
-0.363634
0.359659
0.00397513
0.195244
0.29566
0.165791
0.32412
0.240972
-0.367261
0.126289
-0.146714
0.0189962
-0.187441
0.168445
-0.130781
-0.37331
-0.0772074
0.368192
-0.461834
-0.445557
0.315687
0.12987
-0.464692
0.16784
-0.318563
0.152303
0.00795702
0.189892
0.207913
-0.397804
0.270697
0.155881
0.220556
0.156025
-0.181458
-0.470043
0.185788
0.00987805
0.385051
-0.0902252
0.368415
-0.127443
-0.331293
0.484658
-0.153365
0.298807
0.23719
-0.138785
0.243154
-0.397957
-0.12375
0.29961
-0.216817
0.100767
-0.240501
0.289523
0.159516
-0.449039
0.017493
0.0440051
-0.0614981
0.0235903
0.00117114
0.32241
-0.212995
-0.445188
0.272938
-0.25014
-0.16607
0.255189
-0.199097
-0.189781
-0.0807095
0.270491
0.0840664
-0.227445
0.143378
0.181132
0.00287861
-0.184011
-0.106584
-0.225103
0.331687
-0.335123
0.36711
-0.0319869
-0.0879958
-0.406332
0.186937
-0.0139444
-0.138679
-0.495037
0.204908
0.290129
0.076571
-0.194293
0.117722
-0.0772938
-0.0997532
-0.0719769
-0.164489
0.236466
0.140938
-0.265901
-0.174089
-0.134615
-0.138598
0.448354
0.237024
0.118025
0.26253
-0.183888
-0.0786423
0.153401
-0.402927
0.249526
0.183451
-0.170313
0.216307
0.140882
0.0251028
0.161996
-0.187099
0.298779
0.135475
-0.434254
0.357151
0.100087
-0.457238
0.149753
0.229675
-0.31654
0.270226
0.122261
0.48725
-0.311051
-0.176199
-0.120576
0.532996
-0.243723
-0.289273
-0.0263067
0.14799
-0.0121374
0.208887
-0.326846
0.117959
0.23351
-0.356831
0.123321
-0.0406109
0.207454
-0.166843
0.238247
-0.362192
0.123945
0.0106489
-0.374283
0.165541
-0.243684
0.0781425
-0.29595
0.291579
-0.12464
-0.166939
0.338348
-0.345881
0.00753275
-0.263128
0.482706
0.061677
0.433837
-0.135058
0.0235338
-0.13506
-0.0780991
0.0121229
0.0225562
-0.0346791
-0.290251
0.34741
0.134102
-0.426517
0.166222
-0.238199
-0.116427
0.032345
0.0840819
0.17004
-0.243365
0.0733252
0.114714
-0.419492
0.0899611
-0.360061
0.2701
-0.445661
0.000977869
0.444683
0.203363
0.329633
-0.47384
0.312122
0.161718
0.245181
-0.161114
0.354906
-0.116659
0.319721
-0.23287
-0.0868512
0.0480022
-0.0197596
-0.0282426
0.559665
-0.326063
-0.299385
0.148654
-0.33601
0.187356
-0.0900182
0.131103
-0.409335
0.278232
0.374411
-0.165523
0.343853
0.0917443
-0.0370208
0.0254968
0.011524
-0.291919
0.458375
-0.166456
-0.271558
0.402661
-0.161343
-0.312497
0.060648
0.114594
0.038127
0.193184
0.41314
-0.286392
-0.126748
-0.45874
0.140919
0.317822
0.253635
-0.406651
0.153016
0.231911
0.0878102
-0.120582
-0.0128963
-0.422285
0.162834
-0.435058
-0.0154808
-0.00207277
-0.273561
0.275633
-0.329506
0.451068
0.475432
-0.300316
-0.175116
-0.102699
-0.233419
0.336118
0.0470208
0.195865
-0.284843
0.447678
0.497281
-0.33146
-0.165821
0.212277
-0.0199349
-0.132929
0.349236
-0.00024278
-0.130759
0.431756
-0.300997
0.00274935
-0.0228035
0.0200542
0.507826
-0.35603
-0.151796
-0.06823
-0.000546627
-0.103923
-0.255862
0.168943
0.0179944
0.482913
-0.052166
0.349817
-0.011469
0.0592648
0.295665
-0.35493
-0.154091
0.407727
0.0646401
-0.254421
0.286566
0.152591
-0.439157
-0.431294
0.291453
0.139841
-0.01007
-0.271208
0.00975761
-0.0101922
0.315942
0.177362
-0.469282
-0.450028
0.173408
0.276619
0.105651
-0.315445
0.209794
0.318783
-0.170129
-0.0866218
0.454813
-0.135181
-0.256937
0.392118
-0.406754
0.374005
-0.224252
-0.390793
0.26505
0.280717
-0.465128
0.181734
0.283394
0.0862744
-0.1454
0.00265669
-0.18454
0.181884
-0.149636
0.138436
-0.202714
-0.218154
0.420868
-0.0287526
-0.00826818
-0.250104
0.394145
-0.144041
-0.060593
-0.240079
-0.115694
0.290619
0.167756
0.265112
-0.440224
0.175112
0.502464
-0.323752
-0.178712
-0.41528
0.454092
-0.038812
-0.262044
0.127429
-0.142539
-0.0487742
-0.0819059
-0.0711321
0.201056
-0.203129
-0.478436
0.311298
0.167138
-0.153211
-0.253151
0.406361
-0.230472
0.0491598
0.202956
0.0565204
-0.0582323
-0.135743
0.193975
-0.445252
0.069526
-0.418092
0.145455
0.272637
0.181085
0.316196
-0.0186753
0.00749337
0.0111819
-0.0659503
-0.150612
0.216562
0.17117
0.444376
-0.458591
0.0142145
0.138979
-0.142246
-0.0226086
0.198703
0.276729
-0.000441022
0.225483
-0.268704
0.0432218
0.189505
-0.296345
0.106839
0.523923
-0.173013
0.498113
-0.162093
0.0272293
0.0607247
0.196456
0.0976942
-0.294151
0.324725
0.157719
-0.482444
-0.0492803
-0.135982
0.185262
0.0525626
-0.134154
-0.261742
0.395895
-0.259469
-0.289143
-0.191274
0.437901
-0.246627
-0.241851
-0.16356
-0.136589
-0.254627
0.391216
0.236508
-0.398566
0.162058
0.159845
-0.38784
0.227995
0.0965514
0.25113
-0.347681
0.143641
-0.340861
0.19722
0.211521
-0.200965
-0.0105566
0.338817
-0.355013
0.0161962
-0.0879847
0.284441
-0.210897
-0.121952
0.332849
-0.0046472
-0.0140281
0.012569
0.369599
-0.198242
-0.243726
0.032463
0.0778498
-0.110313
0.321859
-0.295839
-0.0260198
-0.448087
0.268749
0.179338
0.451782
-0.161163
0.322201
-0.459256
-0.123629
0.307495
-0.183866
0.021545
0.300314
-0.418158
0.453758
-0.0356
0.123892
0.14883
0.336795
-0.193154
-0.110433
0.294681
-0.184248
0.00742119
0.040581
-0.0221517
0.239874
-0.521907
0.299503
0.222404
0.234106
0.132689
-0.366796
-0.0779587
-0.180179
0.258138
0.21082
0.285254
-0.46218
0.176926
0.0750639
-0.0691717
0.285316
0.143731
-0.429047
-0.0861544
0.196545
0.197914
0.0143629
-0.398711
0.258183
0.140528
0.270855
-0.429216
0.15836
0.215223
-0.431472
0.216249
0.310282
-0.173337
0.142213
0.0093454
-0.151558
-0.0458977
-0.419426
0.13353
-0.336244
-0.181634
0.142745
0.020364
0.261933
-0.03645
0.30835
-0.202699
-0.332408
0.224407
0.108001
-0.150121
-0.277361
-0.0735782
-0.0725516
-0.160993
0.380958
-0.219965
0.0828311
0.0534042
-0.136235
0.00409883
0.159393
0.266332
-0.394603
0.128271
-0.233199
0.0879759
0.145223
0.125369
-0.425607
-0.033761
0.459368
0.196441
-0.177445
-0.163185
0.44844
0.372388
-0.223273
0.150575
0.0980471
-0.292979
0.194932
-0.28276
0.323113
0.480383
-0.185342
-0.295041
-0.319662
0.455167
-0.135505
0.386248
-0.232847
-0.217039
0.381526
0.491878
-0.391316
-0.153312
0.418424
-0.159627
0.430482
-0.0430883
0.367968
-0.133861
0.283497
0.15449
-0.437986
0.189882
0.0216396
0.201707
-0.154519
0.192505
-0.393646
0.201141
0.166836
-0.171362
-0.0369319
-0.329981
0.255049
0.497448
-0.429051
-0.0683967
-0.28826
-0.110452
0.150523
0.0306094
0.278043
-0.518447
0.240404
-0.31503
0.440508
-0.125478
-0.256428
0.196323
0.0601049
0.501445
-0.32036
0.348286
-0.103105
0.207019
0.106315
-0.313334
0.212358
0.111326
-0.323685
-0.131039
-0.094882
0.225921
0.268833
0.125105
-0.393938
-0.0221683
-0.130456
0.412394
0.0850541
0.341092
-0.00227539
-0.246522
0.155464
0.0910583
0.0763937
-0.00362918
0.0297396
-0.24594
0.167981
-0.291691
0.475883
-0.0898319
0.324831
-0.234999
-0.254271
0.343639
-0.0893672
-0.405949
-0.0396078
-0.0681022
-0.188326
0.164018
-0.338656
0.198779
0.274874
-0.473653
0.13737
0.171547
-0.308918
-0.381463
0.139612
-0.211157
0.371002
0.421883
-0.0350287
-0.217544
0.287277
-0.18923
-0.224488
0.336222
-0.111734
0.10909
-0.433101
-0.468575
0.329749
0.138826
-0.0958948
-0.279469
0.375364
0.370679
0.143296
-0.00108293
0.234751
0.0753743
-0.310126
0.310655
0.169727
0.0106216
-0.00254085
-0.00808077
-0.00296621
0.204673
-0.195879
0.491506
-0.295626
0.00211929
0.0766776
-0.463853
-0.0432679
-0.020951
-0.32791
0.171476
0.498088
-0.247886
-0.0845094
0.291528
0.373327
-0.362678
0.115145
-0.352998
0.237853
-0.0379292
-0.0784977
0.360836
0.131042
-0.19699
0.131805
-0.112985
-0.384454
-0.0308255
0.306914
0.138783
-0.445697
0.405197
-0.135134
-0.0153495
0.237892
0.110395
0.230591
0.137824
0.283712
-0.0087052
0.454277
-0.31163
-0.142648
-0.419203
0.258272
0.318354
-0.180984
-0.122846
-0.268459
0.391305
-0.0755347
0.107998
0.205741
-0.38893
0.183189
-0.256861
0.0799513
0.176909
0.158167
0.290359
0.355024
-0.149283
-0.141313
-0.327262
0.348983
-0.233838
0.184882
-0.182225
0.338581
-0.10383
0.240387
-0.0660529
-0.174334
-0.208188
0.0273106
0.180877
0.136962
-0.391629
0.254667
0.221463
-0.37613
0.154666
0.447896
-0.296263
-0.151633
0.179218
0.245895
-0.425113
-0.343812
0.119324
-0.0253493
-0.426478
0.451827
-0.213504
-0.124897
-0.126428
0.267947
-0.515596
0.13526
0.499876
-0.340125
-0.159751
-0.411263
0.0916005
-0.0307695
0.0232071
0.00756244
-0.383567
-0.0508837
0.108616
0.276435
0.199626
0.0244207
-0.224047
0.300343
-0.150732
0.175835
-0.248512
0.427731
-0.201653
0.488451
-0.286798
-0.145589
-0.172075
0.317663
0.126767
0.263514
-0.390281
0.0828539
0.345544
-0.114953
0.296796
-0.10729
0.240386
-0.369723
0.129337
0.0579993
-0.223904
0.112054
-0.0797094
0.298896
0.218078
0.136828
0.271532
-0.437202
0.16567
0.271523
-0.441527
0.170004
0.384853
-0.247891
-0.13996
-0.261883
0.401843
-0.315298
-0.180553
0.199772
-0.311645
0.111873
0.155093
-0.286858
0.190016
0.289787
-0.479802
-0.113071
0.0629628
0.0501086
0.0115726
0.132592
-0.368669
-0.151356
0.482442
0.16718
-0.183106
0.015926
0.0247404
-0.288168
0.263428
-0.145006
-0.0213212
0.166327
-0.208214
-0.122704
-0.14205
0.264754
-0.00142903
-0.00689871
-0.338451
-0.157115
0.495567
0.437874
0.321574
0.174516
-0.0916713
-0.201716
0.278018
-0.42181
0.143792
0.167597
-0.431959
0.103838
-0.189993
0.400834
-0.179134
-0.2217
0.435703
-0.285485
-0.150218
0.181877
-0.014697
0.0291967
-0.00510827
-0.0240884
0.0368388
-0.0401676
-0.323754
0.180046
-0.31657
0.172101
0.144469
0.0897008
0.193705
-0.283406
0.253891
0.0595801
-0.313472
0.206459
0.294986
0.529654
-0.219567
-0.310087
0.175884
-0.190995
0.0151116
0.299722
-0.376309
-0.041849
-0.176108
0.00285633
-0.000693905
0.163998
-0.238664
0.0746658
0.0377537
-0.333195
0.295441
-0.163086
-0.315349
-0.180144
-0.0767168
0.34781
0.087893
0.247942
-0.337774
-0.0736438
0.37288
-0.132494
0.260821
0.0374038
-0.298225
0.532075
-0.203883
0.258954
-0.135062
0.231033
0.107023
-0.338055
-0.251517
0.421327
-0.16981
0.257214
-0.246581
-0.0106331
0.251532
-0.400118
0.148587
-0.177929
0.367821
0.417683
-0.110769
-0.217453
-0.304454
-0.285927
-0.202711
0.488638
8.82944e-05
-0.221339
0.22125
0.435261
-0.163738
-0.190319
0.332292
-0.141974
0.019704
0.0037516
-0.374943
0.390417
-0.0154745
-0.118437
-0.0408215
-0.366438
0.249165
-0.303252
0.341005
-0.189873
0.047334
-0.36805
0.190121
0.236767
-0.36326
0.126493
0.0953813
0.190414
-0.1444
-0.197393
0.287094
-0.173078
0.173167
0.272051
-0.247311
0.08745
0.17508
0.191459
0.00574803
0.295167
0.234487
-0.510433
0.186179
0.324255
-0.248245
0.302346
-0.0541008
0.19888
-0.398494
0.032056
-0.291445
0.509565
0.315351
-0.115579
-0.422679
0.269468
0.169653
0.281229
-0.377124
0.23414
-0.157569
0.0259821
0.000604073
-0.0265861
0.248801
0.136493
-0.22049
-0.167793
-0.288184
0.146834
0.252304
-0.399138
-0.167847
0.414117
-0.147786
0.183498
0.0347154
0.338612
0.186326
-0.195074
0.00874855
-0.0710948
0.331916
-0.156247
0.378055
0.447417
-0.0453343
-0.210207
-0.0974751
0.307682
0.157941
0.249181
-0.407122
0.371931
0.00553233
0.179349
-0.0205646
-0.0102049
-0.191455
-0.254765
-0.0207069
-0.093771
0.269974
0.144143
0.00298111
0.00657965
-0.000271986
-0.047217
0.047489
0.002734
0.0264627
0.13953
-0.067337
-0.0721934
-0.167565
-0.0141237
-0.321908
-0.368334
-0.131429
-0.156295
0.148445
0.00784972
-0.253577
-0.415705
0.247258
0.250198
0.136769
-0.386968
-0.138753
-0.0253186
-0.222927
-0.157684
-0.137125
-0.376281
0.0554684
-0.371853
-0.0377478
0.0656004
-0.141925
-0.0230176
0.164943
-0.424999
0.182535
0.242464
-0.148728
0.129224
0.0195047
0.15709
0.148437
-0.305527
0.427471
0.147683
-0.412862
0.26518
0.127645
0.267456
-0.395101
0.0180186
-0.140851
0.1598
0.374361
-0.447505
0.222049
-0.0321675
0.186165
-0.0715966
0.000724676
-0.00252298
0.00571308
-0.0022154
-0.0521516
-0.145145
0.197297
-0.0201329
0.197602
-0.177469
0.201514
0.232323
-0.0228951
0.255062
0.00215221
0.238656
0.165102
0.222261
-0.413535
-0.222944
-0.100809
0.0128988
0.120236
-0.133135
-0.0135497
0.222132
-0.0645045
-0.334682
0.270146
-0.492594
0.428277
-0.0646685
-0.0484029
-0.277933
-0.11667
-0.166481
-0.314327
0.168739
0.194287
0.206547
0.435471
-0.419449
-0.0160219
-0.41049
0.133972
0.276518
-0.282994
0.160291
-0.411466
0.0840017
0.327464
-0.357603
0.520495
0.301248
-0.154464
-0.146784
-0.330693
0.0875892
0.243104
-0.179275
0.020945
0.0116196
-0.0325646
-0.227537
0.237146
-0.337103
0.0999564
-0.0521211
0.0482684
0.00385263
-0.211912
0.181225
0.0306879
0.16017
-0.118759
-0.301143
0.419902
-0.164033
0.434179
0.25064
0.136155
-0.386795
-0.160278
0.42604
-0.265761
-0.290314
-0.206128
-0.187613
-0.279337
0.50279
-0.206459
-0.296331
0.114545
-0.00839925
0.279132
0.122545
-0.401677
-0.164024
0.0269386
0.169502
0.25566
-0.279367
0.023707
0.197479
-0.0215956
-0.303823
0.0998576
0.203965
0.194961
0.104649
0.3427
0.0949277
-0.437628
0.10735
0.193898
-0.140337
-0.250652
0.390989
-0.258444
-0.151551
0.409996
0.240061
0.100598
-0.331977
0.481597
-0.14962
0.0113887
0.147619
-0.159008
0.180224
0.278623
-0.458847
-0.143054
-0.215316
-0.211084
0.4264
-0.253994
-0.175664
0.429658
-0.127918
0.322561
-0.267093
-0.479883
-0.0810416
-0.175662
0.256703
0.256191
0.127067
-0.383258
-0.412053
0.142503
0.32924
-0.0614783
-0.0838844
0.269558
0.101127
-0.370686
0.273015
-0.418507
0.145492
-0.0390827
-0.085885
-0.143823
0.300913
-0.0199802
0.00443999
0.0155402
0.165068
0.0799407
-0.245008
0.45263
-0.291456
-0.161174
-0.428073
0.0960955
-0.00297164
-0.0491494
-0.172289
0.142427
-0.281864
0.423251
-0.150236
0.236673
-0.166843
-0.0698293
-0.163247
0.485514
-0.163313
0.472949
-0.185714
-0.287235
-0.169038
0.461658
-0.29262
0.383408
-0.256641
-0.276094
0.361027
-0.0849328
0.314863
0.132139
-0.447002
0.419051
-0.147
-0.203336
-0.171072
0.131962
0.267172
-0.399135
0.508673
-0.152488
-0.217589
0.46125
-0.243661
0.115076
-0.413207
0.298131
0.239654
0.263135
0.403525
-0.147334
-0.427431
-0.00714698
0.434578
-0.03143
-0.0403953
0.000758213
0.039637
0.0366867
-0.37181
-0.00639197
0.032374
0.3946
-0.285985
0.187085
0.00437403
-0.0406672
-0.417915
-0.0945736
-0.184888
0.169151
0.0157373
-0.00356656
-0.00218545
0.00575201
-0.146481
-0.264418
0.4109
-0.231845
-0.0644037
0.296249
-0.339342
0.145386
0.0210753
0.249186
0.31058
-0.379484
0.0689039
0.407152
-0.260318
-0.144955
0.448161
-0.361364
-0.017968
-0.169473
0.0126697
0.156028
0.000124641
0.125428
-0.125552
0.110603
-0.335706
-0.487431
0.277495
0.457384
0.497247
-0.34501
-0.152237
0.107853
-0.329651
0.221798
-0.276699
0.394197
-0.117498
-0.0340903
-0.0351225