/*--------------------------------*- C++ -*----------------------------------*\
| =========                 |                                                 |
| \\      /  F ield         | OpenFOAM: The Open Source CFD Toolbox           |
|  \\    /   O peration     | Version:  v2012                                 |
|   \\  /    A nd           | Website:  www.openfoam.com                      |
|    \\/     M anipulation  |                                                 |
\*---------------------------------------------------------------------------*/
FoamFile
{
    version     2.0;
    format      ascii;
    class       volScalarField;
    location    "150";
    object      ReThetat_0;
}
// * * * * * * * * * * * * * * * * * * * * * * * * * * * * * * * * * * * * * //

dimensions      [0 0 0 0 0 0 0];


internalField   nonuniform List<scalar> 
18758
(
580.153
140.539
592.365
575.014
525.807
611.215
590.522
532.602
528.664
514.779
150.975
106.589
345.587
545.768
590.331
597.675
123.698
630.666
591.967
587.088
132.814
420.09
606.925
610.705
219.62
74.9797
90.8125
384.211
578.23
128.652
53.5224
100.238
538.108
45.5869
531.045
128.404
337.53
536.292
61.4542
625.367
110.964
502.863
133.044
579.63
595.348
55.6253
509.647
539.055
26.9095
566.388
147.23
29.142
555.863
586.039
572.966
357.41
611.64
588.722
508.648
612.493
593.342
578.137
159.927
379.253
588.436
34.5345
595.45
624.808
380.168
630.575
28.8045
50.5196
592.17
548.856
430.154
51.8838
231.79
179.072
515.344
138.274
589.977
61.944
169.616
469.752
560.344
577.637
538.072
556.39
124.52
577.629
30.1108
582.943
578.786
26.7114
593.425
608.603
628.231
513.762
159.442
597.873
51.7947
580.98
624.969
608.52
34.3639
138.166
545.57
29.259
300.338
92.8646
597.588
396.538
512.233
595.722
582.146
344.828
511.82
616.19
311.699
543.351
600.55
233.125
556.351
614.165
31.0882
587.935
589.754
614.019
594.968
29.4784
533.764
577.956
480.349
26.3595
625.697
598.848
235.185
557.968
405.195
591.055
497.616
106.001
521.516
285.89
31.3845
524.634
32.125
594.695
148.288
58.6416
30.3413
28.0771
585.952
549.769
113.92
68.7601
576.24
595.057
504.231
142.88
30.6765
611.835
26.5554
31.8048
55.1297
613.496
612.155
30.3047
29.8719
95.8013
27.1718
587.738
585.913
104.562
168.302
601.999
593.084
213.359
50.9903
572.605
626.173
591.958
576.73
566.539
49.535
596.092
128.25
584.363
26.5066
52.7727
27.7731
596.231
405.007
167.555
627.886
566.617
400.144
589.601
26.4262
607.15
560.58
588.776
241.001
598.06
597.876
26.5237
605.796
536.063
29.9134
28.5869
598.146
582.164
552.612
595.38
589.509
628.074
594.162
579.144
616.636
113.688
126.567
610.196
518.507
586.845
244.155
124.542
414.56
563.563
30.5303
606.284
69.8772
527.165
133.362
592.038
601.718
610.153
357.412
27.4698
387.831
558.656
596.995
368.279
410.45
595.284
53.82
604.091
600.89
610.625
606.398
597.844
27.1205
582.757
128.667
608.912
599.996
371.196
613.38
45.8546
597.429
165.76
515.396
613.703
599.585
405.9
236.723
248.559
613.42
410.832
584.716
587.294
300.321
32.3923
587.916
607.914
585.576
589.444
501.025
620.117
596.316
543.358
610.924
582.922
595.553
29.8882
590.934
608.225
631.043
418.771
609.179
608.914
590.692
573.073
611.49
604.749
596.437
586.728
127.192
573.069
605.805
33.4886
541.863
603.008
606.118
68.3393
200.551
626.345
561.155
135.173
572.735
350.834
595.969
204.966
408.962
426.097
574.494
47.3017
625.317
75.4107
575.921
594.839
425.925
503.992
66.0118
601.585
625.237
28.8975
114.587
609.697
30.0183
384.2
477.574
26.0362
601.867
612.895
599.328
599.046
586.359
543.106
530.728
604.626
586.492
564.134
212.388
68.4887
565.117
71.2321
147.938
609.931
521.709
191.997
410.043
111.336
373.576
596.647
28.4811
109.57
571
563.638
475.73
597.779
582.837
395.781
243.15
114.845
390.471
222.475
601.142
521.684
592.47
516.475
27.145
356.063
104.027
321.868
111.49
366.737
597.032
39.3801
594.949
164.955
116.221
602.111
608.728
529.709
111.662
103.265
296.031
30.316
558.609
103.351
88.6463
597.344
542.53
593.337
572.754
597.165
597.892
596.304
573.384
595.275
606.989
460.231
70.0132
562.798
86.2961
82.8451
34.756
74.9553
586.506
595.478
608.694
129.649
542.039
560.248
236.801
508.678
126.27
612.898
267.942
593.873
539.323
626.947
26.2648
288.769
107.143
597.363
26.01
569.991
595.974
579.43
597.183
94.4044
596.723
605.104
51.467
565.19
558.277
593.789
542.383
515.61
133.68
346.331
587.046
36.6049
627.113
528.513
563.257
605.445
57.9934
589.892
510.461
592.64
354.995
568.921
595.675
28.1799
187.041
630.822
520.536
584.574
597.763
602.956
587.907
230.306
39.1128
577.835
484.495
202.852
393.277
132.173
537.253
126.4
617.41
582.969
373.685
490.547
541.821
108.107
346.092
496.173
607.945
591.567
609.244
605.359
609.04
605.996
424.486
589.384
627.741
549.399
584.503
591.932
624.886
586.447
369.932
122.49
605.249
149.912
603.496
526.803
589.695
45.6941
321.963
596.507
597.731
40.6145
26.1064
404.213
612.213
279.28
30.1891
631.12
607.752
31.8946
587.576
592.123
411.341
574.584
477.709
610.806
602.747
578.388
598.299
606.956
590.449
103.492
625.977
158.865
240.163
630.793
625.953
584.35
513.856
590.44
264.258
597.373
55.5847
475.344
499.673
603.966
610.497
602.543
574.432
574.935
36.7406
45.2215
610.775
607.299
573.677
30.1964
626.754
627.739
606.036
627.52
608.939
605.584
593.408
597.952
497.108
597.392
624.721
347.214
49.7624
508.811
588.252
599.439
586.889
594.84
551.83
181.071
152.08
572.105
120.48
599.558
526.144
588.204
606.171
536.149
630.361
602.07
93.7005
593.169
569.817
404.056
602.827
594.642
26.3259
616.605
494.158
289.827
600.786
592.627
492.651
538.941
591.441
602.101
127.937
111.43
129.57
610.483
34.8236
628.232
597.551
596.726
516.517
51.4341
343.356
608.429
566.31
545.088
194.174
363.752
600.004
501.704
533.064
27.729
488.126
428.781
608.949
504.767
497.838
603.83
609.254
626.601
610.274
498.719
456.318
130.012
98.1882
430.335
576.783
596.721
611.675
154.913
324.652
624.747
517.223
28.3034
35.9908
592.738
596.462
484.66
134.469
628.445
205.884
594.63
575.265
524.73
594.872
575.913
562.227
610.316
569.854
458.076
542.508
92.8395
592.829
608.61
320.781
627.404
309.913
96.9412
594.46
241.705
544.09
584.183
230.129
105.7
108.229
222.87
541.777
101.805
625.819
44.7304
35.3578
560.586
608.604
92.8406
538.063
480.336
64.6099
263.975
589.563
120.306
605.097
512.742
585.345
606.802
493.677
329.276
451.1
577.82
593.417
627.685
560.631
578.154
583.112
373.865
608.103
326.784
580.833
588.135
542.94
626.926
251.341
597.296
610.686
53.8231
611.003
596.328
136.116
576.329
536.49
598.911
587.662
423.05
587.812
134.316
544.292
586.423
550.501
590.813
627.995
30.4368
626.931
57.5156
572.114
569.59
28.3582
610.425
487.202
579.445
65.8753
547.431
131.668
122.577
596.315
148.616
618.205
63.4765
587.404
566.919
28.566
121.423
597.346
584.479
541.951
613.353
599.244
117.817
33.2556
611.177
613.629
618.151
133.795
339.525
384.249
610.285
378.684
565.061
587.263
540.583
162.147
599.994
520.377
105.915
597.496
230.164
591.728
480.882
600.666
616.511
527.036
587.605
502.862
604.964
27.1062
596.061
543.421
571.623
330.645
510.849
606.164
592.211
114.45
287.854
498.174
605.883
598.778
545.123
26.7742
126.607
611.362
597.087
562.262
584.816
558.807
594.675
600.56
133.126
597.839
593.593
117.036
610.885
610.773
376.778
192.29
75.1054
99.5535
33.7693
594.524
597.59
592.635
611.482
599.432
612.26
608.255
561.467
420.326
589.475
132.47
568.485
599.167
470.275
465.954
415.308
593.59
576.666
616.825
28.8453
68.1031
87.7659
592.286
573.653
591.917
251.338
26.697
266.854
586.72
580.602
624.165
48.1577
577.579
624.532
434.76
209.172
595.625
126.996
95.7997
597.53
596.294
598.463
603.234
589.99
579.34
488.37
590.474
577.084
96.6484
29.2261
591.533
104.722
501.816
585.728
604.868
611.15
613.798
593.63
583.862
600.052
572.285
583.079
576.58
29.4618
496.682
601.911
603.12
71.4872
589.504
624.704
44.0139
599.327
483.893
523.76
595.429
606.757
613.578
587.685
530.649
600.677
95.6888
412.12
577.096
248.427
566.067
358.502
625.798
197.498
573.375
604.25
584.096
367.21
579.469
79.7878
57.2348
612.479
525.085
624.66
585.83
496.155
561.582
601.871
343.351
600.464
608.494
127.238
602.039
599.558
607.008
30.9808
602.854
605.836
489.21
132.852
107.172
379.586
110.606
602.703
627.323
595.663
302.228
587.926
605.233
532.188
617.192
65.7459
574.812
582.849
59.9651
596.071
563.072
51.331
627.341
590.518
262.618
591.683
36.9754
71.1862
611.649
592.659
307.9
609.651
534.513
100.358
619.011
160.354
598.011
603.638
590.422
462.35
556.651
101.251
579.502
600.934
290.989
123.009
533.76
575.248
343.471
26.8339
93.4427
629.062
26.8944
594.158
30.9897
99.5955
610.968
520.355
575.064
135.463
608.599
62.0232
603.73
60.4871
574.642
610.193
628.014
594.436
85.1562
65.9445
594.987
104.534
594.422
599.76
149.568
594.27
287.856
607.59
531.685
602.056
607.443
600.693
608.532
382.692
571.355
511.198
477.641
575.58
593.866
95.583
597.946
106.381
600.227
137.671
519.515
136.443
613.016
611.059
600.155
27.3244
599.032
92.754
466.549
604.957
543.246
598.537
610.791
593.649
608.82
101.465
594.876
589.504
593.791
546.997
60.6244
124.573
588.024
606.382
592.528
579.232
597.28
567.755
584.037
594.683
617.086
614.778
535.925
592.886
595.617
617.196
298.372
596.41
55.291
77.9237
565.502
26.5903
582.953
614.154
608.318
537.136
441.795
615.677
485.439
112.499
623.044
299.954
32.5398
39.1397
588.626
581.249
592.944
88.1162
617.271
595.889
505.152
302.996
602.134
609.64
29.0251
552.872
556.013
563.071
533.872
615.186
590.562
546.633
593.592
590.343
552.092
573.163
579.508
100.754
579.77
594.572
89.7656
628.022
604.41
596.625
554.505
575.817
185.204
594.05
88.8314
127.463
104.562
114.377
562.046
470.541
87.9878
588.309
572.535
591.32
593.16
552.892
597.153
383.667
338.642
593.109
618.83
541.433
551.249
120.688
603.935
584.953
598.279
380.446
282.682
491.707
27.4148
596.997
598.316
434.406
509.195
598.689
349.045
576.651
515.819
135.4
386.436
588.98
591.133
592.103
566.165
611.59
94.9299
381.215
27.8062
155.04
49.1399
576.375
26.5801
30.1412
31.7644
585.578
56.9908
516.349
148.241
572.939
587.404
630.65
594.997
587.411
544.226
606.414
597.618
371.044
32.0858
53.8359
96.3866
593.04
100.66
500.503
546.974
593.627
30.6813
474
606.916
485.987
62.4448
28.238
28.7424
450.49
401.421
627.058
35.6533
576.506
102.786
91.4095
587.882
592.658
583.368
591.205
591.509
117.805
168.19
537.608
579.388
604.285
593.915
119.264
567.721
99.7347
566.192
109.714
162.979
545.939
363.019
411.907
36.0057
627.034
578.043
30.9326
497.42
597.475
93.7427
110.534
596.106
599.354
132.498
557.848
589.351
44.6666
343.204
605.355
518.4
108.863
501.818
543.985
544.727
130.127
550.175
610.114
602.205
379.113
607.685
178.394
615.188
610.245
98.6311
576.811
597
349.84
627.99
530.029
614.116
599.255
603.855
589.734
606.235
102.149
569.889
105.657
27.767
518.532
611.988
607.47
31.7888
508.435
608.995
100.606
461.797
55.3777
617.877
615.334
611.812
609.143
599.18
623.796
597.9
598.878
595.338
160.378
628.496
100.002
590.381
614.027
562.099
40.7544
29.0766
131.594
28.2202
94.4333
338.735
29.7179
549.376
574.074
504.714
29.3294
602.219
320.584
158.31
573.609
594.041
131.605
599.119
597.923
599.326
527.97
396.555
66.3367
590.513
630.141
615.241
620.9
551.791
598.483
30.3662
443.203
461.398
574.779
595.794
624.369
45.0029
517.385
598.722
591.466
66.8976
620.719
596.277
617.131
600.15
602.866
599.776
613.861
123.945
543.578
363.598
564.251
580.615
558.698
579.436
148.807
584.57
545.613
206.937
200.518
578.72
378.22
40.4293
548.087
514.21
582.316
595.384
614.092
602.279
523.844
439.896
538.103
536.374
614.458
605.396
453.777
98.4494
628.737
530.952
106.952
586.524
96.3972
587.984
582.191
29.0589
565.268
604.854
596.426
592.926
612.442
610.52
45.7811
476.713
584.665
598.539
600.759
28.5716
548.973
33.4692
112.141
594.332
602.648
311.795
457.362
526.374
547.168
506.299
557.103
605.822
590.209
516.592
431.637
31.7984
128.116
503.563
92.0133
304.833
601.594
110.119
66.7638
553.053
34.6665
593.758
576.337
495.009
188.713
507.532
365.069
499.974
113.507
599.151
624.52
28.1881
593.726
596.068
596.672
579.088
625.726
566.409
602.073
594.674
27.1967
277.273
598.734
573.929
325.306
95.5076
627.358
640.48
367.782
506.783
587.646
601.081
43.4636
581.305
419.203
507.867
610.607
526.699
26.5377
601.897
111.619
230.716
30.0628
567.528
604.332
593.849
600.769
596.668
104.959
66.148
614.411
250.153
296.092
585.107
582.096
597.639
117.861
34.3002
487.114
442.18
543.463
26.6789
100.902
610.145
600.275
513.154
505.475
404.564
102.361
607.938
368.486
96.2148
570.726
604.272
583.482
590.777
602.038
559.979
610.962
407.203
177.445
587.909
581.671
478.568
610.331
599.644
591.567
118.937
611.125
578.39
45.0989
566.982
382.863
592.858
596.577
597.232
560.351
615.479
599.185
586.871
345.224
554.215
550.472
478.387
616.713
72.5228
342.371
593.306
122.999
609.81
547.253
550.093
35.8516
539.021
527.398
555.348
420.422
627.375
47.8596
48.1579
610.888
521.919
119.967
588.783
544.688
130.203
492.335
575.009
130.856
531.272
595.114
118.329
731.043
114.216
608.761
231.315
564.432
624.643
422.609
485.257
569.999
587.051
120.216
137.564
444.195
449.871
610.879
41.3312
100.857
597.095
393.049
588.598
262.992
588.562
601.3
502.418
559.608
239.124
109.087
574.92
30.7409
53.976
31.3858
499.548
444.337
628.825
597.813
535.194
629.456
82.801
99.8209
27.3948
288.745
327.926
129.859
37.02
596.099
571.21
79.5066
487.406
588.296
596.337
306.292
397.751
489.724
594.387
580.306
581.511
596.054
349.912
103.06
625.517
27.3415
614.923
41.7565
418.435
35.0472
566.299
118.632
602.857
601.7
549.568
30.4151
442.222
139.87
592.288
596.367
462.844
42.5889
573.498
589.728
312.916
52.528
239.415
606.178
587.923
108.798
629.284
613.878
514.273
593.097
595.429
606.963
596.876
531.034
597.354
528.163
564.978
612.088
63.8154
29.0347
520.525
618.626
594.707
482.083
595.999
593.943
587.415
574.496
603.881
574.122
543.313
353.957
133.431
605.164
562.111
386.752
492.16
468.153
334.948
604.492
593.966
425.855
461.391
570.975
288.658
74.77
596.049
118.285
587.242
385.845
133.084
281.713
26.96
593.615
599.431
306.346
554.929
82.5804
565.11
122.652
47.4485
611.788
531.538
598.817
364.05
416.874
27.9947
602.101
588.826
342.314
578.154
294.503
611.112
134.221
133.911
491.927
39.7883
29.3536
609.729
605.522
587.393
327.094
133.336
565.873
578.261
580.184
618.442
536.465
609.354
615.807
347.099
570.268
616.288
542.955
39.9309
62.3698
29.8192
584.637
502.857
543.772
542.544
574.713
340.38
30.0346
618.278
438.435
627.445
503.345
552.643
483.956
118.296
590.07
386.58
617.289
132.234
127.577
615.787
544.156
585.648
580.132
34.6264
589.179
586.583
572.331
578.417
611.72
542.428
594.588
578.861
598.774
600.023
81.4585
132.833
37.2126
618.957
627.445
626.062
618.171
624.876
559.004
625.223
611.179
593.641
604.917
506.357
599.766
290.48
31.5654
521.808
87.2216
581.293
76.3236
380.664
529.111
605.943
222.14
592.448
586.332
588.518
514.368
486.969
603.211
593.7
590.799
594.957
375.969
112.185
570.292
605.336
551.879
408.368
575.462
80.7675
603.019
601.089
586.436
547.153
480.078
100.262
564.07
616.297
242.579
629.49
460.844
599.57
555.985
29.1023
603.482
577.569
487.875
80.0096
626.468
601.854
614.67
547.584
579.606
106.842
588.252
540.108
487.3
26.9489
611.517
615.479
627.32
482.793
618.638
42.3166
125.461
557.65
126.811
596.236
179.363
587.113
611.526
405.87
394.125
580.648
102.991
123.298
254.596
573.028
503.345
582.788
191.333
587.26
592.655
313.911
573.49
132.969
130.158
133.19
94.5139
108.434
113.095
146.629
593.175
583.72
612.593
586.659
616.095
599.809
26.7447
29.9197
130.625
514.088
522.628
137.374
602.53
621.861
615.509
451.769
597.435
624.718
579.648
526.926
109.725
574.096
493.383
615.163
570.894
65.479
617.638
460.471
61.6631
629.236
561.707
611.96
33.18
593.512
111.56
581.135
580.178
509.422
403.47
119.566
643.004
131.834
562.502
588.665
588.636
603.621
616.512
594.098
161.372
27.3489
484.721
606.972
581.154
553.381
592.237
592.784
505.353
123.054
143.912
602.881
135.52
612.443
583.431
557.241
521.334
395.902
122.601
139.949
624.125
589.61
602.139
595.523
587.032
596.454
31.2774
591.099
573.462
567.675
553.494
598.515
37.1364
26.597
124.013
588.248
79.0131
616.695
139.85
77.2435
562.195
119.78
539.287
585.304
605.857
598.005
525.661
488.659
475.662
115.867
464.336
589.3
459.211
551.207
594.241
98.2377
532.56
103.507
585.651
30.3972
159.067
91.8195
548.178
72.4506
521.88
596.481
619.247
549.947
584.205
595.644
141.288
524.645
476.351
599.659
576.659
167.078
100.765
110.931
524.553
514.874
32.8207
203.096
569.223
519.031
119.9
575.988
290.056
504.071
489.639
680.023
624.059
125.415
554.834
586.607
168.258
100.853
50.041
538.874
592.608
594.004
615.489
471.913
588.619
809.092
615.301
32.6431
31.3367
101.676
103.113
589.91
113.959
533.745
444.555
118.655
26.0746
554.182
583.123
602.298
559.998
623.528
599.555
76.1221
599.476
612.167
504.351
578.662
625.199
620.521
336.997
544.333
597.482
587.375
512.815
581.594
599.447
602.129
615.759
286.927
515.545
397.561
571.712
592.991
624.832
412.199
581.843
365.442
523.661
575.376
458.766
602.261
541.321
71.9721
266.645
480.325
560.291
617.144
482.238
118.547
98.9922
120.67
518.369
616.699
611.297
522.57
385.449
26.2523
614.58
124.66
624.713
600.908
409.48
606.368
336.393
412.857
141.752
624.93
499.848
513.903
28.2924
616.72
574.51
491.565
148.957
234.789
112.398
32.4859
594.285
573.785
511.181
646.443
26.8721
559.308
603.673
594.463
620.344
77.0585
29.521
510.118
46.7446
619.358
603.543
581.131
400.993
441.228
41.7194
602.207
562.866
457.354
50.8751
616.893
122.648
604.263
571.567
31.5621
604.442
60.6866
285.931
149.05
65.0167
606.373
547.68
548.12
28.471
438.875
587.81
31.7862
248.846
629.61
553.007
89.9925
615.268
32.7572
31.3597
517.04
627.229
523.825
523.2
27.72
612.05
543.187
566.281
53.5882
28.8058
594.789
618.659
559.621
537.066
602.922
602.275
603.504
494.103
541.813
65.8056
587.331
591.714
603.833
552.337
545.488
560.504
319.167
147.859
108.048
575.062
617.076
84.6644
536.341
586.15
106.026
592.566
101.955
30.8034
617.174
84.3089
221.701
549.423
607.123
602.837
601.104
195.035
103.589
586.346
33.9511
160.979
26.9844
626.196
612.393
52.2524
603.411
580.974
561.29
601.55
240.058
580.394
27.1043
131.516
609.884
282.29
556.562
51.4964
275.359
595.907
531.029
458.381
62.9473
298.883
223.898
578.884
601.29
536.022
615.275
53.7186
131.625
602.706
69.2891
615.875
29.9868
601.479
104.542
549.146
123.475
337.702
37.0386
30.9814
620.494
77.0521
26.7137
564.988
27.5857
564.825
623.034
593.468
488.649
525.866
586.148
601.561
586.336
503.773
427.341
36.8682
446.325
592.322
597.971
397.263
618.792
579.276
50.7272
256.641
125.673
560.124
558.204
548.682
629.027
540.182
599.838
32.3814
180.314
26.5264
585.024
591.076
478.171
267.179
581.411
615.602
566.334
555.275
503.943
591.091
135.379
591.027
28.7894
612.583
195.039
290.392
110.058
618.739
557.038
588.587
615.692
423.902
249.369
602.23
565.161
38.172
590.305
443.123
109.152
574.341
140.805
582.054
222.454
488.663
93.322
617.264
607.377
34.3991
607.343
107.358
526.216
469.679
29.613
549.436
600.822
556.597
599.697
57.0945
30.2916
615.621
129.332
614.066
295.631
594.207
366.608
151.291
486.482
519.295
591.201
31.8079
622.434
32.2915
617.441
612.443
522.323
590.589
609.832
473.456
532.894
601.562
102.837
614.993
413.813
525.589
76.1674
597.23
603.48
537.063
602.08
602.079
525.027
34.4764
150.372
103.155
66.1201
615.948
603.51
602.435
603.459
618.687
58.8451
624.84
546.55
595.713
585.697
590.72
603.219
615.874
26.1772
245.986
588.285
529.781
560.544
292.907
599.101
549.974
106.487
599.761
162.581
437.643
568.315
550.314
70.1034
552.794
437.938
348.959
114.669
525.444
555.73
448.262
54.0732
589.636
116.516
234.784
62.1195
33.8727
616.607
588.914
595.689
147.498
472.446
319.017
39.1359
619.584
65.5536
615.804
32.3603
593.654
434.216
482.293
570.786
587.654
567.067
506.3
566.886
576.099
393.547
528.797
603.632
88.7226
569.407
565.837
602.986
165.203
573.347
101.518
477.362
534.842
36.2486
513.38
379.62
615.964
595.427
30.658
31.2556
471.283
602.768
556.48
37.7556
382.506
512.03
167.469
121.404
105.369
616.214
247.632
612.163
567.409
94.0006
583.308
580.638
584.832
26.7474
418.354
194.007
424.735
599.074
599.037
588.252
83.4774
613.482
109.618
542.577
138.398
618.618
28.1121
31.4972
118.865
98.2153
553.738
590.875
598.964
570.611
588.501
589.206
30.1204
598.613
546.951
35.6594
114.371
126.922
536.77
467.755
608.77
28.0782
568.473
27.0182
504.754
195.818
553.311
564.249
90.3435
596.566
595.98
30.9547
145.975
323.478
588.155
484.154
608.34
417.534
603.926
399.796
601.788
566.086
95.9443
558.994
570.024
612.61
31.0818
136.29
565.706
470.47
27.0328
546.371
617.616
30.4366
31.9793
28.3922
603.459
578.028
89.9062
40.4336
33.0511
579.302
590.876
588.985
493.872
567.748
609.945
290.678
603.527
29.0832
555.737
82.0136
619.483
46.2222
92.2306
591.923
170.92
474.686
612.222
420.974
248.706
604.903
569.546
589.302
28.8072
30.3488
603.702
31.6777
430.098
596.173
26.7423
547.55
430.16
29.369
26.5012
597.102
31.7915
572.058
617.683
31.3118
415.166
138.818
40.3635
583.351
27.0339
143.341
486.89
182.211
33.028
35.6987
562.668
621.443
597.243
537.551
100.562
282.377
29.9634
296.574
544.005
621.627
603.469
535.85
119.558
597.831
121.038
103.097
616.12
548.895
31.8134
440.77
291.577
54.6253
594.136
30.2888
129.418
204.266
550.53
556.38
167.951
587.755
577.254
593.546
557.001
184.197
47.8804
597.707
462.487
87.093
464.794
524.794
123.269
141.875
32.1874
598.033
303.971
28.6611
482.186
558.245
613.047
566.276
563.592
55.6272
586.844
36.771
584.249
591.112
28.1421
86.4913
617.787
596.78
127.883
118.067
593.563
609.202
593.77
508.06
678.594
538.015
612.345
592.328
560.019
111.214
160.929
131.981
591.068
331.184
30.9113
132.311
584.509
82.0893
771.368
271.201
618.517
539.483
30.8996
594.462
430.86
28.9797
604.24
550.267
574.852
447.725
485.853
86.3416
571.628
523.881
602.761
425.433
118.212
591.531
425.57
126.906
345.199
609.979
31.0479
54.2921
427.636
540.522
591.751
578.524
526.01
428.314
290.84
590.333
609.832
591.697
205.714
547.816
605.818
127.901
118.194
578.742
34.3164
32.5448
616.964
36.8901
44.9535
27.5984
30.8755
609.251
131.126
485.509
597.601
587.146
51.1684
157.755
27.2572
482.805
590.984
503.043
36.9696
550.105
51.5945
626.576
590.888
29.5389
109.593
512.622
72.2099
557.384
589.251
228.259
98.3948
579.688
127.728
469.187
488.603
589.174
591.945
536.711
142.662
32.4868
82.8774
404.955
138.312
109.44
485.11
603.008
565.883
583.517
72.0998
614.428
573.305
136.186
588.275
74.845
332.822
28.267
594.033
591.846
120.175
503.294
565.348
557.278
123.697
468.156
534.087
615.643
591.153
183.621
122.954
563.71
89.1999
102.357
410.634
577.404
136.282
599.43
26.8127
402.531
27.2108
594.892
569.25
620.053
590.814
159.05
56.9142
74.7487
615.771
582.518
119.459
126.103
272.718
542.598
552.308
51.4706
601.381
594.982
601.98
120.788
204.541
67.3255
493.245
26.4149
616.288
566.603
360.259
566.908
596.183
113.805
595.989
584.345
562.69
584.183
88.2646
711.814
629.802
474.66
603.375
520.08
384.524
585.635
76.8844
26.1135
522.68
742.756
580.503
27.3351
591.99
591.065
609.593
593.66
452.228
523.314
579.276
468.582
475.007
374.389
140.399
590.957
617.962
133.995
581.87
463.996
35.2652
513.593
26.9171
603.458
675.531
557.665
135.066
616.318
108.197
460.974
581.937
545.8
570.736
558.98
572.779
558.941
555.122
554.762
599.407
549.36
26.8511
260.129
506.193
594.547
32.8992
270.523
595.63
576.161
558.141
570.64
81.6565
157.44
617.726
26.5884
596.416
50.8114
417.962
441.501
561.259
573.397
588.317
614.948
580.051
116.873
102.729
447.109
100.213
585.328
586.849
523.632
148.771
586.955
557.246
542.048
592.573
465.954
580.641
521.057
483.166
556.987
471.602
26.2453
498.256
432.911
532.534
85.2627
551.95
494.416
600.983
516.501
565.379
100.553
43.5764
601.762
35.2492
112.662
102.398
562.764
64.598
26.9186
28.9756
626.608
418.846
527.493
631.961
108.887
157.281
597.287
114.753
490.779
464.794
600.217
326.068
564.087
385.896
580.83
585.751
569.218
499.559
604.829
567.216
27.8646
607.64
307.156
424.147
417.005
515.627
121.589
413.35
593.427
606.718
27.4808
545.873
604.796
596.193
113.834
30.63
402.333
593.244
526.85
144.766
105.853
469.122
603.201
362.593
574.947
488.88
522.263
606.429
55.0729
607.229
26.134
105.986
425.065
348.188
350.003
616.903
546.468
144.101
560.672
590.898
597.583
574.76
39.2943
70.1924
208.075
613.605
26.1778
414.257
124.089
593.36
490.779
509.16
532.748
591.307
408.027
117.34
401.827
515.567
607.365
501.355
493.434
476.875
618.221
554.171
593.857
585.344
29.39
31.6328
194.334
425.75
555.123
628.224
426.204
216.123
304.05
530.369
581.591
592.514
568.055
414.202
609.378
61.1225
581.862
37.6145
618.905
28.2914
581.9
188.218
179.998
244.668
384.427
628.423
45.7833
616.349
390.775
86.2956
572.452
611.823
114.361
80.3106
543.816
397.532
606.032
529.427
619.759
556.401
615.705
173.111
339.258
38.0338
26.1655
587.083
133.016
602.236
579.658
356.118
619.012
599.953
598.034
601.36
438.264
557.201
525.58
575.551
586.604
603.205
545.72
519.332
584.42
531.057
526.932
546.653
106.139
576.824
567.917
88.3798
633.572
489.466
573.872
531.401
452.448
293.063
50.341
90.133
613.717
603.531
536.055
624.877
593.049
446.929
619.022
29.9487
36.5213
341.728
529.793
570.015
487.258
604.586
92.0586
591.991
569.412
255.06
274.712
582.108
128.558
222.57
133.143
378.512
505.106
518.095
611.779
624.655
121.878
63.2874
209.903
566.378
597.284
217.44
646.765
557.244
624.745
313.527
618.122
520.22
589.835
597.273
515.854
29.2578
604.014
622.371
513.781
40.2876
281.655
615.176
571.907
564.517
350.134
50.632
514.678
34.6308
167.908
126.169
187.921
95.4716
426.721
415.621
270.645
560.453
392.939
128.38
594.063
558.213
396.487
585.218
525.918
560.599
551.013
544.21
71.6478
27.4184
421.176
488.021
37.3302
415.436
540.267
624.519
618.1
277.591
520.62
59.2026
517.501
611.899
514.17
486.199
402.892
108.414
587.141
52.6428
590.464
328.694
625.096
604.929
50.8787
121.314
32.751
131.502
563.848
582.067
192.855
326.266
622.127
31.1822
321.672
105.028
560.979
141.338
411.342
400.156
288.007
84.3421
138.705
541.982
582.018
606.067
593.693
575.954
581.784
82.7288
536.934
603.2
500.732
624.631
600.618
616.53
563.889
28.8336
528.112
271.75
508.255
30.4197
551.5
594.254
537.201
593.306
568.7
308.157
496.062
597.885
550.586
596.122
33.6689
566.255
584.683
398.277
559.288
32.6136
83.5077
142.999
579.294
492.601
570.263
26.3452
406.58
36.2567
38.9561
56.229
605.837
178.208
38.4051
54.8558
595.929
27.8328
567.765
521.323
592.63
518.662
509.764
615.634
79.9709
526.364
264.808
550.905
122.476
566.999
39.2078
587.324
133.824
547.709
42.3791
312.948
591.831
41.6863
29.0428
597.702
289.428
562.381
526.998
593.59
551.804
606.999
548.376
36.8015
718.916
434.402
341.064
364.167
581.34
547.785
503.551
246.131
600.816
552.618
239.197
563.168
78.2794
534.514
297.184
586.801
54.9421
600.454
502.442
35.3211
432.333
59.4326
616.638
588.536
64.4978
118.438
572.846
600.193
508.524
33.8241
58.6441
506.475
573.048
551.011
545.425
586.372
30.7991
31.9637
28.2487
27.708
618.539
521.596
456.05
46.2562
449.882
546.886
577.809
582.498
525.237
624.025
340.621
588.004
278.673
85.9954
521.774
592.63
583.944
38.6905
487.254
550.5
284.989
581.568
579.374
301.519
40.6121
43.6702
559.026
31.3289
555.045
147.667
531.48
598.831
125.784
250.908
548.669
535.376
596.099
554.339
470.006
273.541
534.823
449.982
579.005
533.211
580.016
251.94
598.957
320.069
313.859
260.785
605.368
291.656
27.9729
136.381
265.608
561.416
488.983
524.065
524.817
39.3022
27.6097
62.0641
568.071
245.354
583.598
53.25
599.717
595.859
567.018
91.8157
544.128
492.596
165.833
72.7033
593.678
526.429
494.276
596.676
130.783
604.473
126.173
552.559
594.603
306.53
105.624
538.616
543.92
568.217
407.518
450.656
567.935
79.501
601.119
206.189
291.776
588.185
133.389
503.001
588.42
356.637
570.576
38.7307
577.922
586.073
616.761
603.953
138.768
542.555
129.621
582.007
598.249
607.656
161.855
70.1209
571.879
502.955
578.172
564.565
593.107
523.347
583.347
412.478
572.477
375.69
539.324
611.012
537.552
272.419
574.812
599.698
597.015
532.428
585.116
582.931
589.429
127.484
619.787
29.2261
540.589
615.043
162.314
509.342
583.315
258.611
592.95
591.664
129.004
600.099
552.575
511.856
98.543
248.453
411.804
518.344
50.6931
526.237
519.839
524.119
597.76
43.0753
791.239
524.719
531.487
596.301
519.52
125.472
309.261
573.069
608.794
607.765
529.333
591.253
547.031
592.482
406.671
532.121
180.007
45.1305
185.272
587.705
410.181
603.825
525.759
611.693
499.055
595.489
594.618
594.923
100.268
607.881
58.8046
522.971
393.911
582.885
30.3762
578.804
592.696
590.356
531.419
270.977
75.791
506.427
235.695
560.912
557.995
50.6328
600.222
594.14
28.3375
246.032
261.607
593.228
599.318
598.434
612.028
64.6055
63.1408
603.434
602.256
109.867
595.325
600.652
448.118
548.302
383.198
564.162
66.2998
510.29
80.3328
119.5
92.7536
64.5487
364.998
214.421
523.464
611.775
450.855
583.173
130.676
116.016
590.977
583.197
470.134
590.341
601.746
592.388
129.395
593.071
597.78
600.615
569.979
587.781
590.143
537.327
27.7645
572.162
580.022
498.218
597.473
541.072
550.935
128.389
564.208
130.631
603.855
532.965
600.692
61.8894
43.1245
594.963
62.4432
450.11
110.379
79.4599
605.681
593.206
584.743
463.755
519.271
608.526
591.993
99.6146
539.508
181.985
571.662
604.65
576.51
538.118
568.637
571.587
318.604
423.014
437.161
603.629
593.43
492.868
598.743
607.269
568.974
570.409
605.756
553.233
591.622
43.3382
596.837
78.3203
599.402
550.779
597.731
570.963
551.35
73.5753
515.288
586.825
595.263
568.181
576.797
555.447
34.3409
595.6
283.144
570.636
299.206
398.192
588.141
50.6703
599.778
593.033
56.8505
579.787
555.455
68.782
205.614
589.231
590.786
578.363
561.481
499.43
588.941
45.7482
598.266
601.03
544.241
495.555
596.82
578.614
611.903
594.711
603.449
39.5686
599.614
573.918
561.908
567.711
586.736
37.7127
455.58
61.379
591.906
470.444
594.211
277.808
584.52
605.385
275.502
556.985
92.5711
264.91
126.529
458.995
287.645
449.533
416.343
449.57
107.161
215.117
88.3032
595.32
584.975
65.9351
557.358
591.104
107.353
169.835
600.212
586.174
603.948
605.61
595.177
604.126
551.205
280.985
602.711
532.201
582.299
105.078
576.951
273.244
65.9055
579.511