/*--------------------------------*- C++ -*----------------------------------*\
| =========                 |                                                 |
| \\      /  F ield         | OpenFOAM: The Open Source CFD Toolbox           |
|  \\    /   O peration     | Version:  v2012                                 |
|   \\  /    A nd           | Website:  www.openfoam.com                      |
|    \\/     M anipulation  |                                                 |
\*---------------------------------------------------------------------------*/
FoamFile
{
    version     2.0;
    format      ascii;
    class       volScalarField;
    location    "350";
    object      nut;
}
// * * * * * * * * * * * * * * * * * * * * * * * * * * * * * * * * * * * * * //

dimensions      [0 2 -1 0 0 0 0];


internalField   nonuniform List<scalar> 
18232
(
0.00690787
0.00577951
0.00738778
0.00065011
0.00642374
0.00121128
0.00481565
0.00659079
0.00671301
0.00452022
0.00641598
0.00611113
0.0118861
0.00509615
0.0027168
0.00025506
0.000657291
0.000641904
0.00653428
0.0008609
0.0208704
0.00520046
0.00997258
0.00662028
0.00690013
0.00674896
0.00558513
0.0311309
0.00678056
0.00245194
0.00674886
0.00162385
0.0056429
0.00217935
0.000780144
0.0065693
0.0182552
0.00629088
0.0115026
0.00680018
0.00392956
0.00687332
0.00821618
0.0066244
0.0020078
0.0024845
0.00851858
0.00563148
0.00226349
0.000625063
0.000870266
0.00198127
0.00684561
0.00108471
0.00695615
0.0067499
0.000562389
0.00685858
0.00414431
0.00200627
0.00126945
0.00421266
0.0154831
0.00458987
0.00571767
0.00655697
0.0110628
0.00199019
0.00628121
0.00452356
0.00680769
0.00679652
0.0282555
0.00688351
0.000718117
0.00687517
0.00562966
0.0137154
0.0174908
0.00571464
0.000770155
0.000793828
0.0011337
0.00468161
0.00677785
0.0023712
0.00640053
0.00659356
0.0277702
0.01541
0.000990028
0.00695599
0.000960378
0.00733215
0.0057215
0.00468292
0.00670641
0.00695262
0.00670383
0.00140183
0.00365625
0.00380454
0.00693912
0.00689819
0.00680607
0.0328816
0.00353993
0.00528145
0.000357743
0.0056987
0.00397203
0.00571028
0.000816882
0.000959743
0.00688971
0.00211061
0.00118461
0.0289832
0.00259575
0.00654792
0.00678813
0.0195379
0.00648131
0.00216426
0.00686801
0.00645679
0.00107259
0.0138695
0.00110663
0.00384798
0.00600044
0.000807405
0.00694667
0.00679889
0.00204866
0.00677324
0.000785476
0.00108379
0.0123697
0.00135149
0.00678046
0.0161235
0.00487985
0.00126757
0.00647991
0.00280047
0.00108344
0.00154956
0.00665975
0.00635144
0.000671131
0.00693944
0.00192438
0.00109422
0.0242114
0.000668522
0.00508357
0.000900437
0.00607182
0.0164196
0.00686446
0.00574785
0.0265913
0.00232953
0.0049417
0.00680341
0.00170674
0.00493736
0.0067481
0.000680072
0.00673392
0.00237658
0.00103137
0.00687924
0.00684898
0.00679869
0.00872829
0.00277141
0.00691794
0.00679924
0.0069537
0.00235965
0.00124717
0.0100466
0.00688049
0.00689923
0.00654364
0.0161344
0.00261954
0.000718665
0.00218845
0.0078259
0.00689296
0.00691712
0.0062599
0.00687229
0.00173911
0.00285456
0.00104885
0.00686962
0.00650216
0.0069432
0.0054812
0.00685562
0.00246221
0.00600507
0.00288603
0.00669935
0.00570708
0.00689829
0.00678165
0.00663127
0.00682435
0.004935
0.00527692
0.00119358
0.00569202
0.00674876
0.0121043
0.000684904
0.000995183
0.0049577
0.0199387
0.00229634
0.00571344
0.00694985
0.00626945
0.00634926
0.00197159
0.000819989
0.00754736
0.00678063
0.00686105
0.00684964
0.00573021
0.00691323
0.00570285
0.000801024
0.00305627
0.00630211
0.0132765
0.00690195
0.00632448
0.00610838
0.00708045
0.00658372
0.000794945
0.00356362
0.00685415
0.0068665
0.0158715
0.000942034
0.0263249
0.00068007
0.000904388
0.00646395
0.00183744
0.000705259
0.00688659
0.00680952
0.0109571
0.00681976
0.00208222
0.00641931
0.00664809
0.00069381
0.00352137
0.0062467
0.00690709
0.00174337
0.00670644
0.00577544
0.000839565
0.00576819
0.00124931
0.00688433
0.000789353
0.00664365
0.00693759
0.00105686
0.0148001
0.00096446
0.00648488
0.00687571
0.00543103
0.00687963
0.00644566
0.00694421
0.014849
0.00073376
0.0131405
0.000999623
0.00677319
0.00624649
0.00627129
0.00600697
0.00692686
0.00678712
0.00657242
0.0308684
0.00630904
0.00122614
0.0260394
0.00685872
0.00688718
0.00678826
0.00208995
0.00101701
0.00666892
0.00692982
0.00648247
0.00112777
0.0282551
0.00695618
0.00617209
0.00122169
0.00685027
0.00622787
0.00518365
0.00681007
0.00669551
0.00344686
0.000758177
0.00680474
0.000956226
0.0080427
0.00588899
0.00665859
0.00666485
0.00678521
0.00556731
0.00111806
0.00156684
0.00179256
0.00105178
0.00096364
0.0069343
0.00670047
0.0047349
0.00244562
0.00158301
0.000780374
0.00575646
0.00165029
0.00543297
0.00159479
0.00154569
0.00690947
0.00284722
0.00687492
0.00694634
0.00203214
0.00399325
0.00673797
0.00161821
0.00688897
0.00356444
0.00676932
0.00674118
0.00294565
0.00662488
0.00208733
0.00177771
0.0064984
0.00669474
0.00694885
0.00665318
0.00273053
0.00376543
0.00686331
0.0065933
0.00549387
0.00139799
0.00663694
0.0057486
0.00679724
0.0141527
0.00687794
0.00677459
0.00366958
0.00308123
0.0069306
0.00229213
0.000801331
0.00672323
0.00673459
0.0022372
0.00571048
0.0029963
0.00677397
0.00584605
0.0168784
0.00691192
0.00653953
0.00632604
0.00154339
0.00603166
0.00689894
0.00279859
0.0015955
0.00091524
0.00678495
0.00179335
0.00103973
0.0021516
0.00177554
0.00350447
0.00188729
0.000894535
0.00568435
0.0188017
0.00296013
0.00947057
0.00296302
0.00671971
0.00649057
0.00197512
0.00212333
0.00674288
0.00629532
0.00609934
0.0074345
0.00239702
0.00576389
0.000917493
0.00581109
0.0017939
0.00643619
0.00331963
0.015605
0.0166369
0.00166048
0.00296806
0.00668211
0.00678596
0.00692995
0.00121646
0.0010155
0.00671612
0.00194989
0.00658642
0.00644027
0.0253761
0.00652132
0.00664067
0.00300903
0.00256381
0.0209782
0.00683484
0.0020177
0.00277459
0.00595092
0.00207291
0.00680024
0.0068957
0.00689314
0.00665118
0.0106368
0.00434555
0.00680238
0.00566325
0.00647763
0.00609555
0.00659082
0.00131601
0.00599617
0.00679605
0.00942314
0.00680854
0.00678791
0.00390175
0.00165613
0.0140597
0.00189416
0.00782886
0.00661219
0.00661034
0.00684325
0.00869386
0.00692955
0.00690919
0.00676144
0.00498075
0.00676789
0.00695537
0.00695199
0.00148628
0.00472597
0.00115791
0.00188845
0.00440852
0.0166789
0.00305193
0.00677073
0.0210085
0.00665968
0.00234466
0.00692195
0.00606836
0.00676889
0.0288493
0.00659977
0.00691409
0.00669653
0.010123
0.00686564
0.00346294
0.0068793
0.0211763
0.00659445
0.00172472
0.00678161
0.00591004
0.00668521
0.0151489
0.00213393
0.00665516
0.00675949
0.00683583
0.00681768
0.0067683
0.00668717
0.00666636
0.00692201
0.00692846
0.00696002
0.00127122
0.00643735
0.00640956
0.00261541
0.00694959
0.0217886
0.019654
0.00692967
0.00163384
0.00188561
0.0165036
0.0069523
0.0142546
0.0067582
0.00692728
0.00720208
0.0058688
0.00200522
0.00250601
0.00677002
0.00585753
0.00677176
0.0196979
0.00682949
0.00428375
0.00191402
0.00068833
0.00653184
0.0011605
0.00340623
0.00691833
0.00694647
0.00694183
0.00181891
0.000986067
0.00693207
0.00666268
0.0210612
0.0114953
0.0129784
0.00308074
0.00559171
0.00112232
0.00319762
0.00693282
0.00284185
0.00692848
0.00633617
0.00693537
0.0067158
0.00684072
0.00596709
0.00690808
0.000463439
0.00594293
0.00659568
0.00109966
0.0134991
0.0217906
0.00690914
0.00148223
0.0069176
0.00191055
0.0067658
0.00671543
0.00677659
0.0139809
0.00622254
0.006917
0.0256671
0.00678801
0.00106043
0.000951782
0.00676324
0.00288099
0.0111568
0.000685284
0.00665398
0.00646039
0.00684661
0.00669647
0.0069248
0.00782981
0.00595423
0.0270688
0.00692852
0.00188186
0.0106433
0.00667813
0.0152798
0.00732844
0.00571543
0.00674274
0.00683238
0.006936
0.00682471
0.0019315
0.00883943
0.0048166
0.00120379
0.00736171
0.00157998
0.00333868
0.0057662
0.00269464
0.00233854
0.0068121
0.00517706
0.00814004
0.002246
0.00406705
0.00677458
0.00670186
0.00572375
0.00246374
0.00286389
0.00688348
0.00669435
0.00863678
0.00537199
0.00511645
0.00615001
0.00569656
0.00685825
0.000908863
0.00688956
0.000870967
0.00116844
0.00693327
0.00691181
0.00636381
0.00329577
0.0069304
0.00645161
0.00284711
0.00249083
0.0066096
0.00690283
0.00151989
0.00144349
0.00308986
0.00301821
0.0067961
0.00623252
0.014376
0.00673923
0.00631412
0.00699813
0.00695042
0.00675605
0.000800124
0.00254361
0.00693678
0.00665558
0.0064206
0.00672914
0.000720576
0.00610678
0.00639059
0.00443164
0.0207399
0.00577826
0.00318594
0.006562
0.00555859
0.00683358
0.00658155
0.00163115
0.00551642
0.00612018
0.0066556
0.00686522
0.0153701
0.00139136
0.0101689
0.00637645
0.00667679
0.00637392
0.00122442
0.00614318
0.000791505
0.000984823
0.00692566
0.00223963
0.00650938
0.00581626
0.0021796
0.00680454
0.0297107
0.00180837
0.00559157
0.000914722
0.00692959
0.00129446
0.00252888
0.0181683
0.00626614
0.005644
0.00289613
0.00593871
0.00649515
0.00623872
0.000810291
0.00678613
0.00407801
0.00584716
0.006694
0.00683541
0.022864
0.00176868
0.00544887
0.00640461
0.00575731
0.0032161
0.00141395
0.0187806
0.00584308
0.00438873
0.000273588
0.00312404
0.00390354
0.00480632
0.00327166
0.0117883
0.00185062
0.00656454
0.00466018
0.00688844
0.0275352
0.0289466
0.00686036
0.000992036
0.00584102
0.000952203
0.00649986
0.00691166
0.0016627
0.0164457
0.00660009
0.00492031
0.00167515
0.00626036
0.00666687
0.00467998
0.00090801
0.00562496
0.00433175
0.00695808
0.0049663
0.00680351
0.0056642
0.000739091
0.000759751
0.00687012
0.000389788
0.00635689
0.00440252
0.00641183
0.00321871
0.00453127
0.0018125
0.00934326
0.00680302
0.00691853
0.00143429
0.00121182
0.00689515
0.00579218
0.00611568
0.00693692
0.00689509
0.00438241
0.00569191
0.00792796
0.00084094
0.0058297
0.000974328
0.00675353
0.000926973
0.00561337
0.0056686
0.00139395
0.0067958
0.00676031
0.013464
0.00250238
0.0190113
0.00269339
0.00662696
0.00566894
0.006651
0.026348
0.00668676
0.00651053
0.00685307
0.00278362
0.00678142
0.00160641
0.0069517
0.0286497
0.0068107
0.00380714
0.0045146
0.00670688
0.00690684
0.00682712
0.00679556
0.00180116
0.00692295
0.00165505
0.00106882
0.00786014
0.000967915
0.00694169
0.00695964
0.00111926
0.00462644
0.00166717
0.00242813
0.00097234
0.0303294
0.0119577
0.00486795
0.00693796
0.00534881
0.00131304
0.00686613
0.00195733
0.00643739
0.0236436
0.00366266
0.0282475
0.00349253
0.00665094
0.00462818
0.00617969
0.00400887
0.00662389
0.011506
0.00581851
0.00692685
0.0259552
0.00675345
0.00320169
0.0028997
0.00277725
0.000997326
0.00634921
0.00512996
0.00687289
0.00629603
0.00625861
0.00469224
0.0010743
0.000799434
0.00663011
0.0067868
0.0136
0.00231242
0.00194325
0.00106586
0.00452964
0.000967488
0.00425953
0.00677985
0.00553473
0.00247866
0.00482516
0.00455089
0.00691844
0.00631174
0.0067937
0.00099481
0.00680424
0.00613588
0.00658116
0.00658623
0.00373234
0.00670496
0.00686631
0.00664496
0.00681444
0.00691978
0.00695617
0.00177493
0.00692965
0.000894459
0.0280745
0.0303773
0.00679363
0.0204105
0.00163987
0.00868134
0.00644146
0.00604474
0.0302767
0.00683026
0.00132056
0.00604277
0.00587869
0.000698162
0.00189263
0.0057143
0.00174875
0.00695096
0.00625184
0.00193471
0.00694295
0.00692277
0.006943
0.0221428
0.0199609
0.000785649
0.0067318
0.00670439
0.00672738
0.00545074
0.00683858
0.00661192
0.00724841
0.00693464
0.00249006
0.00613431
0.00693399
0.0281972
0.00693533
0.00492823
0.0135462
0.00606431
0.00664232
0.00618404
0.00114208
0.0432723
0.00512055
0.0226513
0.000965634
0.00676923
0.00693642
0.0056237
0.00139042
0.00685018
0.00689036
0.00570197
0.00666074
0.0108
0.0289214
0.00066246
0.00125801
0.00339005
0.00158557
0.00665187
0.00349562
0.00548833
0.00666828
0.00901021
0.00660777
0.00234861
0.00552695
0.000863804
0.00694383
0.00441739
0.00685581
0.00408159
0.00147885
0.00367976
0.00428585
0.00686608
0.00223257
0.0283172
0.0068061
0.00225787
0.00110505
0.00649776
0.00679592
0.00693547
0.00638743
0.00110417
0.00693134
0.0128022
0.00164066
0.00858365
0.00694001
0.00099726
0.00579118
0.00689897
0.00687087
0.00685517
0.00604885
0.0015397
0.00666087
0.00592674
0.00281422
0.000716778
0.00371418
0.00654918
0.00676701
0.00692823
0.00286833
0.00640561
0.00660059
0.00112581
0.00680899
0.00125515
0.00651033
0.0120351
0.0125168
0.00341636
0.00692671
0.00642421
0.00687023
0.000727607
0.00692968
0.00692301
0.0429249
0.000767077
0.0068642
0.00635661
0.0418739
0.00662812
0.00660505
0.00349656
0.00180944
0.0068954
0.00464213
0.0334064
0.00680139
0.00635153
0.00161247
0.00694238
0.00146569
0.00672683
0.00217935
0.00309873
0.0068265
0.00606377
0.00693348
0.00648927
0.00682706
0.00657129
0.00687727
0.00225782
0.00637541
0.0023635
0.00675309
0.00208849
0.00679475
0.00131825
0.00146005
0.00111108
0.0176523
0.00681811
0.0045514
0.00683132
0.0433436
0.00689315
0.0181826
0.00488721
0.00729536
0.00114979
0.018261
0.00112314
0.00266301
0.00148283
0.00637629
0.00543181
0.00544108
0.021149
0.00157481
0.00389117
0.00106267
0.00634543
0.00799467
0.00691531
0.0059797
0.0092231
0.00689188
0.00693206
0.00273205
0.00694052
0.00677033
0.0111661
0.00693203
0.000921857
0.00679082
0.00344049
0.0118464
0.00682527
0.00686789
0.00675946
0.00655301
0.000765966
0.00578115
0.0248395
0.00626627
0.00609049
0.00693613
0.00674927
0.00672467
0.00691556
0.00676839
0.0139095
0.00686444
0.00688156
0.0068334
0.00713299
0.00609854
0.00128071
0.00416278
0.00581843
0.00680819
0.000852192
0.00693168
0.00687645
0.00691245
0.00100515
0.00691524
0.0232683
0.00693096
0.00688375
0.00339926
0.0068098
0.00693047
0.00483773
0.00117138
0.00497115
0.0112714
0.0017759
0.0069177
0.00683885
0.0029411
0.00459014
0.0350854
0.00330928
0.0069249
0.0265697
0.0021287
0.00281082
0.00693409
0.00138955
0.00443947
0.0108196
0.0064668
0.00187967
0.00693158
0.00577933
0.0043153
0.000895748
0.00682863
0.000796349
0.00688561
0.00693791
0.0429949
0.00361519
0.00665692
0.00646832
0.00685126
0.0135348
0.0069335
0.00693166
0.0205772
0.00671543
0.00653736
0.00613186
0.00693347
0.00635545
0.00692849
0.00114769
0.00684352
0.000993927
0.00675509
0.00113034
0.00353425
0.00681601
0.000768043
0.00686509
0.00671944
0.00463115
0.00411559
0.00855305
0.00133121
0.00688248
0.00689581
0.0401418
0.00681118
0.00103692
0.00656488
0.00652084
0.00563297
0.00693048
0.00605893
0.00430167
0.00142824
0.0399944
0.00234213
0.00604623
0.000767763
0.00590501
0.00686737
0.00608522
0.0069191
0.00668382
0.00677123
0.00684809
0.00523602
0.00676062
0.000655377
0.00522942
0.00676727
0.00116553
0.00658309
0.0140454
0.00662151
0.00900155
0.00694013
0.00594127
0.00137432
0.00587516
0.0076666
0.0065598
0.0116391
0.00284618
0.00137879
0.00110659
0.00217592
0.0238455
0.00692336
0.00652072
0.00693535
0.0069402
0.00693196
0.0110653
0.00683329
0.00687443
0.00444409
0.000275183
0.017684
0.00358428
0.000770676
0.00690028
0.00690943
0.00641191
0.00679871
0.00659061
0.00687532
0.00673676
0.00655521
0.000936443
0.00159395
0.00693566
0.00591252
0.00615438
0.0121443
0.0146175
0.00394658
0.00301975
0.00090838
0.00195954
0.00406417
0.00472154
0.00410883
0.0238554
0.00680948
0.00675945
0.00654417
0.00609862
0.00230612
0.00684534
0.00675739
0.00667718
0.00689925
0.00598328
0.0166939
0.00686156
0.00178863
0.000886017
0.0185226
0.0153763
0.00625199
0.00615584
0.00137626
0.00669576
0.00592965
0.00201417
0.00619222
0.00382863
0.00689059
0.00102727
0.0061509
0.00469948
0.00657235
0.00174373
0.0064683
0.00673326
0.00534143
0.00679902
0.00680236
0.00550138
0.00530709
0.00663481
0.0421188
0.00660416
0.00233799
0.00694705
0.00215983
0.00589061
0.00215369
0.00574983
0.00120452
0.00677113
0.0253963
0.00687317
0.000829533
0.00118877
0.00108723
0.00692872
0.00297688
0.00679045
0.00675432
0.0154191
0.00675683
0.00235174
0.0064617
0.000796016
0.00196737
0.00671045
0.00416881
0.00694912
0.00479092
0.00732376
0.00684414
0.0182923
0.00684302
0.00184659
0.00677149
0.00427023
0.000673109
0.00210476
0.0133643
0.00616553
0.00158586
0.00104376
0.00480825
0.00692162
0.00877754
0.00383464
0.00690403
0.00662794
0.00116881
0.00235185
0.00669282
0.000758805
0.0121191
0.0064452
0.00179216
0.00101718
0.00603276
0.0055202
0.00679126
0.000463564
0.0121615
0.0068588
0.018976
0.00692706
0.00692697
0.000913861
0.0385194
0.00675864
0.00687864
0.000915579
0.00585893
0.00132479
0.00145603
0.00694526
0.00412846
0.00361948
0.00145949
0.0020286
0.00607974
0.00677278
0.0138922
0.0014526
0.00422453
0.00631232
0.00681921
0.00694121
0.00690602
0.00150231
0.00392856
0.0149944
0.0068108
0.0101328
0.000968764
0.0129527
0.00388519
0.00236845
0.00472797
0.00315045
0.00668153
0.00692144
0.00188319
0.00107145
0.00652046
0.00679916
0.00852887
0.00349733
0.0163692
0.00258201
0.0251177
0.00631679
0.000869719
0.0166834
0.00445055
0.00616689
0.0059288
0.0068959
0.0311134
0.00489537
0.00075037
0.00299979
0.00678862
0.0426688
0.0205671
0.0126312
0.00608378
0.00217088
0.00616785
0.0010348
0.00687838
0.00527396
0.0100792
0.041316
0.00685838
0.00693464
0.00403623
0.00692135
0.00674826
0.00752925
0.000816803
0.019844
0.00412073
0.00435348
0.0045629
0.0292271
0.011239
0.00689211
0.00687732
0.00693889
0.00485902
0.00355256
0.00246187
0.00622495
0.00749448
0.0050029
0.00316445
0.00482496
0.00171418
0.00633081
0.00647878
0.00638609
0.0302951
0.00681972
0.00168149
0.00214421
0.0107374
0.00612544
0.00138375
0.00687944
0.003871
0.00102195
0.00239671
0.00436699
0.0365367
0.00298559
0.00184034
0.00130925
0.000910391
0.00275744
0.00488575
0.00410165
0.00622086
0.00623687
0.0061583
0.00983518
0.00670569
0.0069433
0.00440201
0.00579466
0.00690522
0.00546233
0.0246305
0.00343249
0.00617854
0.00918457
0.0195363
0.00581976
0.00815848
0.00682638
0.00516574
0.000882964
0.00610764
0.00613395
0.00526075
0.00299119
0.00615324
0.00632336
0.00376006
0.00432673
0.00373231
0.00651689
0.000801443
0.0156913
0.0119008
0.00420099
0.00610526
0.0294444
0.00688585
0.0129685
0.00618822
0.00692897
0.0102912
0.0423629
0.0032582
0.00189957
0.00654642
0.0267378
0.00424359
0.00204605
0.00572365
0.00671298
0.00563444
0.0157866
0.00211492
0.00693513
0.0045331
0.00164788
0.0313089
0.00131485
0.00650764
0.00618481
0.00692626
0.00683955
0.00691159
0.0109936
0.000760127
0.00694971
0.00677712
0.00685643
0.00623928
0.00732358
0.0056047
0.00109179
0.00686453
0.00417182
0.00676794
0.00234492
0.00686443
0.00694032
0.000842217
0.000970297
0.00381431
0.00632842
0.0278975
0.0230869
0.000717683
0.00678521
0.0150199
0.0173027
0.00102922
0.00768166
0.000846355
0.00683246
0.0142834
0.00187178
0.010194
0.00678697
0.000867186
0.00622369
0.00464674
0.00673871
0.00689568
0.00125902
0.006255
0.0050404
0.000673929
0.00653358
0.00174025
0.00639396
0.00352514
0.00689268
0.014918
0.0067799
0.00295407
0.0066907
0.00080376
0.000930492
0.00198317
0.00681478
0.00220005
0.00588026
0.00150571
0.00722632
0.00434718
0.0069368
0.0169976
0.00617568
0.0236268
0.00647963
0.00490796
0.018405
0.00677273
0.0189321
0.00222102
0.0069236
0.00186292
0.00144791
0.00651879
0.00689701
0.00421252
0.00691994
0.00646806
0.00371697
0.00661198
0.00746966
0.00661257
0.000837244
0.00679805
0.00604103
0.00182462
0.00120882
0.00672314
0.00668191
0.00680181
0.00678128
0.00688099
0.00654735
0.0168136
0.0209964
0.00141673
0.00435167
0.00574286
0.00419738
0.000729166
0.025881
0.00689448
0.00655848
0.00223849
0.00569852
0.00427508
0.00612584
0.0177148
0.00645551
0.000902972
0.00692255
0.00463515
0.00111821
0.00632367
0.00671896
0.00678557
0.00693749
0.00684303
0.0064809
0.00355957
0.00693791
0.0067779
0.00212815
0.00672739
0.00389166
0.000910255
0.00227538
0.00492189
0.00815673
0.0065296
0.0084365
0.00665119
0.00410783
0.00199721
0.00593361
0.00613463
0.00624439
0.00677549
0.00738729
0.0028861
0.0196042
0.0207173
0.000937704
0.00622303
0.00611978
0.00676209
0.00120605
0.00687852
0.0122447
0.00687842
0.00636763
0.0273189
0.00680015
0.00654562
0.020222
0.00229219
0.00639112
0.0171823
0.00331807
0.0231273
0.00642953
0.0068234
0.00678411
0.000832059
0.0260695
0.00610526
0.00104134
0.00111627
0.00318714
0.00959382
0.00113127
0.00692963
0.00116939
0.00679184
0.00434322
0.00103073
0.00610271
0.00960922
0.00605303
0.00529899
0.00692968
0.00411697
0.00611038
0.00677319
0.00156863
0.00681951
0.00443575
0.00677214
0.0150678
0.00779133
0.0044547
0.000839536
0.00292321
0.00149222
0.00685255
0.00637387
0.0069145
0.0023643
0.00106379
0.0100043
0.00692388
0.00678281
0.00686388
0.00643322
0.00686946
0.00735582
0.00703499
0.00679199
0.00644268
0.00602347
0.00102833
0.00215333
0.0237006
0.00666821
0.00678732
0.00693585
0.000806421
0.00458794
0.00159476
0.0305342
0.0312699
0.00633324
0.0302721
0.0131008
0.011737
0.00650459
0.0252286
0.00675362
0.00113981
0.00650374
0.00665361
0.00662589
0.00649445
0.00607616
0.00855349
0.0287438
0.0014368
0.00657846
0.00680026
0.00693131
0.00131696
0.00533693
0.00687809
0.00688981
0.00597244
0.006947
0.00336122
0.00287511
0.00637514
0.00610523
0.00418811
0.000864301
0.0068239
0.000705537
0.00653796
0.00489126
0.00220217
0.00672297
0.00127509
0.00094035
0.00466445
0.00681486
0.00693128
0.00611963
0.00667834
0.00663615
0.0324065
0.00649222
0.0069161
0.00686436
0.00637106
0.00595745
0.00675818
0.00705275
0.0204097
0.00110507
0.00581797
0.0064627
0.00925101
0.000965557
0.00650415
0.00114258
0.015775
0.00446958
0.00670681
0.00260883
0.00447432
0.00976915
0.000773532
0.00687578
0.0069432
0.000702487
0.0085375
0.00631157
0.00687281
0.00183283
0.00602991
0.00136261
0.000997066
0.00395177
0.0151366
0.00694152
0.00642352
0.00661652
0.00334712
0.00508052
0.00677974
0.00118357
0.00536175
0.00557597
0.00623427
0.00401268
0.0012225
0.000668218
0.00576173
0.00226363
0.00692708
0.00081023
0.00667817
0.0018598
0.00575753
0.00659041
0.0247617
0.00691696
0.011624
0.00685649
0.00581299
0.00687485
0.0230055
0.000865775
0.00144091
0.00333818
0.00693635
0.00132892
0.0061139
0.00630666
0.0205475
0.00106129
0.00680703
0.00300027
0.00678795
0.00573769
0.00656426
0.0066898
0.00660308
0.0304685
0.00691474
0.00671636
0.00104302
0.00850809
0.00679475
0.0134511
0.00654519
0.00586323
0.00658869
0.00549682
0.000799606
0.00227232
0.00232963
0.00331604
0.00680047
0.00647073
0.00611841
0.00691057
0.0184177
0.00678868
0.00089475
0.0146612
0.00167744
0.00681708
0.00693815
0.00685832
0.00668828
0.00694057
0.00314227
0.00902003
0.00583172
0.00101032
0.0067269
0.00631283
0.0066748
0.00152909
0.0105261
0.000705354
0.00364153
0.000607253
0.00307539
0.00508701
0.00297795
0.000774624
0.00307551
0.00695533
0.0213855
0.00448465
0.00660374
0.00676527
0.0102091
0.00687275
0.00426784
0.00683801
0.00537169
0.0129166
0.00861988
0.00684913
0.00116419
0.00681824
0.00660601
0.00692492
0.00694347
0.0237388
0.0069035
0.00665695
0.0149309
0.00642143
0.00361347
0.00668459
0.00694868
0.030258
0.00333162
0.0068612
0.00444039
0.0258066
0.0113195
0.00672168
0.0153792
0.00293955
0.0134754
0.018822
0.00680846
0.00519053
0.00651462
0.0060387
0.00187308
0.00551978
0.00676803
0.00694602
0.00577929
0.0204608
0.00686364
0.000865046
0.00679278
0.00682666
0.0078528
0.00694129
0.00171756
0.000893925
0.0213139
0.00685085
0.00679532
0.00142723
0.00690838
0.00094013
0.000919426
0.00153051
0.00676301
0.00821508
0.00332775
0.00686712
0.00693168
0.00624565
0.025568
0.0063242
0.00599087
0.0011143
0.00182715
0.0064754
0.00161736
0.002838
0.00659417
0.0251968
0.00513422
0.00584041
0.00614511
0.00684128
0.00237632
0.00677762
0.00691215
0.00598573
0.0068445
0.00691376
0.0018281
0.00678316
0.00690354
0.00362025
0.00681918
0.00546555
0.00688871
0.0024334
0.0067352
0.00692168
0.0056324
0.00143339
0.00680371
0.00692488
0.00663093
0.00566996
0.00544375
0.00649761
0.00652996
0.00677349
0.00678885
0.000949795
0.00690469
0.00318997
0.00472271
0.00160054
0.00267359
0.00692272
0.00631763
0.00699127
0.00808183
0.00662586
0.000802375
0.00995801
0.00374798
0.00635149
0.00657487
0.00681306
0.00679155
0.00154872
0.00483697
0.00646266
0.00857656
0.00533987
0.00630918
0.00682667
0.0067847
0.00691032
0.000769251
0.00179507
0.000724065
0.00124932
0.00123438
0.00267549
0.00219423
0.000886259
0.00676945
0.00226276
0.00299524
0.00160463
0.00688427
0.00654761
0.00684329
0.00325081
0.00628335
0.00666582
0.0100883
0.00656631
0.00670895
0.035317
0.0058934
0.00294477
0.00684951
0.00594657
0.00688091
0.00285759
0.000830002
0.00556837
0.00678521
0.00635788
0.00343059
0.00455301
0.00563839
0.00546414
0.0161433
0.00612844
0.000902036
0.00685062
0.00120628
0.0258145
0.00288243
0.00464344
0.00902032
0.00713588
0.00678624
0.00690393
0.00336575
0.00840871
0.0103711
0.00619263
0.00546586
0.00678511
0.00137131
0.00330499
0.00634294
0.00654227
0.00593337
0.00618419
0.0379261
0.00431149
0.0105447
0.00682088
0.0388707
0.00679547
0.00688573
0.00692596
0.00209527
0.00846563
0.00495315
0.00620868
0.0032269
0.00111686
0.00326598
0.00570745
0.0168789
0.006892
0.0414313
0.00335443
0.0048763
0.0256208
0.0069188
0.00679241
0.00317019
0.00599122
0.00686533
0.00132646
0.00232217
0.00498006
0.0057714
0.0183277
0.00692042
0.000588899
0.00676779
0.00666844
0.00689846
0.00695171
0.0061016
0.00676333
0.00207095
0.00454756
0.00080641
0.00681156
0.00678873
0.00101827
0.0031213
0.00498691
0.0154962
0.00518205
0.00675513
0.00660337
0.0013651
0.00624137
0.0068208
0.00631478
0.00684131
0.0300813
0.0016493
0.00321784
0.00064203
0.00286258
0.00598688
0.0019451
0.00692546
0.0095017
0.00691099
0.0024223
0.00687465
0.0011259
0.0069036
0.00676553
0.00139717
0.0068696
0.00688545
0.00687737
0.00599001
0.00527323
0.00684977
0.00336227
0.00671923
0.00511439
0.000823265
0.00723794
0.00683726
0.000812703
0.00082136
0.0200052
0.000727727
0.004143
0.00757843
0.00144125
0.00171299
0.00689991
0.00676486
0.00307172
0.00504543
0.00629206
0.00692718
0.00678654
0.00695327
0.00673408
0.00596487
0.00548813
0.0240393
0.00687416
0.00684951
0.0069337
0.0196309
0.00635847
0.00154691
0.00693713
0.00677829
0.00689721
0.000870635
0.00569132
0.0145903
0.00646172
0.0183827
0.00647165
0.000759362
0.00138913
0.00688811
0.00679963
0.0161691
0.00604437
0.00484012
0.00406826
0.0182579
0.00574834
0.00675336
0.00415234
0.00115404
0.00679612
0.00173086
0.00107703
0.00681273
0.00679169
0.00145298
0.00672905
0.00562321
0.0154913
0.00404785
0.00540272
0.00677537
0.00644146
0.00204232
0.00217663
0.000795811
0.00302982
0.00692827
0.000690551
0.00671628
0.00675511
0.0064744
0.00159466
0.0007918
0.00680034
0.00348434
0.00695772
0.00680402
0.00281667
0.00287794
0.0393172
0.0066718
0.0236047
0.00685396
0.0091905
0.00111142
0.00678684
0.00435243
0.00163413
0.008528
0.00587451
0.00691696
0.00679037
0.00488561
0.0069011
0.00442454
0.0159493
0.00688273
0.0221308
0.00403168
0.00268862
0.00567996
0.00661755
0.00136152
0.0150212
0.00358813
0.00659743
0.0095126
0.00121744
0.00163045
0.0058836
0.00546435
0.00276147
0.0046476
0.000844215
0.00102297
0.00670071
0.00661373
0.00315424
0.000895367
0.000763166
0.0223659
0.00130441
0.0213495
0.00178723
0.00173087
0.00647791
0.00190334
0.00296082
0.000881152
0.00680178
0.00349551
0.00663983
0.027361
0.00689342
0.00653768
0.00097906
0.00605126
0.00677576
0.0188848
0.00631307
0.000827202
0.00688527
0.00693341
0.00133214
0.0395075
0.000805058
0.00327236
0.000619834
0.00651928
0.00448402
0.00692016
0.0224139
0.00657753
0.000956389
0.00557836
0.0022785
0.00688977
0.0249539
0.00476412
0.0186419
0.00506384
0.00694946
0.00362728
0.0169599
0.00706032
0.00676309
0.00104306
0.00151778
0.00997911
0.00688374
0.00284801
0.0152322
0.0243008
0.00694236
0.00669753
0.000959911
0.00774434
0.00679149
0.0430366
0.00235968
0.00658529
0.00224867
0.00183622
0.0035344
0.00635433
0.00375317
0.00717918
0.00602704
0.00636318
0.00249409
0.00078597
0.00453183
0.00711884
0.00687879
0.00676062
0.000780083
0.00683382
0.0067709
0.00102929
0.00218253
0.035244
0.0066083
0.00659422
0.00294955
0.00309354
0.00442682
0.00128131
0.000924475
0.00253447
0.00662931
0.00679055
0.00692615
0.001436
0.00694965
0.00236384
0.00688688
0.00690864
0.00294696
0.00416239
0.00692295
0.00691333
0.0045439
0.00149061
0.00241754
0.00677525
0.00214269
0.00676979
0.00670269
0.00667508
0.00687431
0.00318048
0.00370156
0.0055897
0.00676873
0.00692178
0.0042728
0.00668703
0.00678321
0.00676199
0.00679808
0.00426053
0.0256161
0.00688162
0.0102856
0.0156915
0.00685237
0.0063725
0.00469884
0.006779
0.0067919
0.00171956
0.00240834
0.000776245
0.00625171
0.0139418
0.000643958
0.00660095
0.00689834
0.00632033
0.00107451
0.000974313
0.00238317
0.00679976
0.00684695
0.0013569
0.00805053
0.00775327
0.00533193
0.00794852
0.00692604
0.00158824
0.00199727
0.020167
0.00688093
0.00679937
0.00669077
0.0155449
0.00170833
0.00121629
0.0380344
0.00357908
0.000820804
0.00390303
0.00114159
0.00650815
0.00671134
0.000965582
0.0048849
0.00412094
0.00629307
0.00554033
0.00151082
0.00505011
0.00686806
0.00693767
0.0029017
0.0066932
0.0100984
0.00814784
0.00545008
0.00125788
0.00117511
0.00674102
0.00278149
0.00138213
0.00139234
0.00597702
0.00451105
0.0123644
0.00692469
0.0097074
0.00531545
0.000805796
0.00366612
0.00693014
0.00597564
0.00555141
0.00369598
0.00677514
0.00147545
0.00669133
0.00324231
0.0258031
0.00166038
0.00129438
0.00100224
0.00691143
0.0034494
0.00213405
0.00653301
0.00681371
0.00685514
0.0225748
0.00342058
0.0014784
0.00362728
0.00680722
0.00685932
0.00100959
0.000860934
0.00687691
0.00693746
0.00364844
0.00686857
0.00679748
0.00216387
0.00672061
0.0069445
0.00604936
0.00463243
0.00130131
0.00641457
0.00232672
0.00684724
0.00689532
0.00139146
0.00132166
0.00564036
0.00678814
0.00562957
0.00664557
0.00598302
0.000647613
0.00409568
0.00147427
0.00458091
0.00666635
0.042176
0.00137467
0.00405673
0.00693213
0.00155155
0.00574238
0.00136158
0.00688204
0.00683858
0.00360797
0.00638624
0.00305799
0.00236067
0.00676527
0.00675633
0.0113622
0.00693606
0.00662296
0.00686374
0.00409923
0.00301442
0.00524393
0.00685059
0.00113906
0.0246883
0.000960633
0.019427
0.000731459
0.00654198
0.00683035
0.0068997
0.0046396
0.00191495
0.00687609
0.00534232
0.00103266
0.000881635
0.00634743
0.00689699
0.00688698
0.00545997
0.00785606
0.00693094
0.00644361
0.000590749
0.00561462
0.016889
0.00119424
0.00681041
0.00679329
0.00648619
0.0228782
0.0064482
0.00685545
0.00578387
0.00169637
0.00665722
0.00676602
0.00153361
0.00691195
0.00667395
0.000692908
0.00615699
0.00581625
0.00728248
0.0168661
0.0068678
0.000900995
0.0309071
0.00282778
0.0166574
0.00449693
0.000757932
0.00708708
0.00677597
0.00197134
0.00319926
0.00680867
0.00651955