/*--------------------------------*- C++ -*----------------------------------*\
| =========                 |                                                 |
| \\      /  F ield         | OpenFOAM: The Open Source CFD Toolbox           |
|  \\    /   O peration     | Version:  v2012                                 |
|   \\  /    A nd           | Website:  www.openfoam.com                      |
|    \\/     M anipulation  |                                                 |
\*---------------------------------------------------------------------------*/
FoamFile
{
    version     2.0;
    format      ascii;
    class       volScalarField;
    location    "350";
    object      omega_0;
}
// * * * * * * * * * * * * * * * * * * * * * * * * * * * * * * * * * * * * * //

dimensions      [0 0 -1 0 0 0 0];


internalField   nonuniform List<scalar> 
18232
(
0.0217733
0.721544
3.42823
0.0805677
0.0257592
0.485519
0.374076
0.0230241
0.0224394
0.39911
0.0257492
0.0229783
0.447104
0.289347
0.0692705
0.134241
0.0526574
0.60628
0.0236111
0.350298
3.21739
0.34339
0.422517
0.0239335
0.0218004
0.0227845
0.0291801
0.377193
0.0204457
0.520393
0.0227841
0.587116
0.0485264
0.0238223
0.076595
0.0228814
3.26495
1.74951
1.24346
0.0213193
0.073691
0.0216106
3.33477
0.0239031
0.0578283
0.0256209
2.03719
0.0465577
0.0689237
0.559244
0.0517998
0.0647591
0.0209521
0.0814381
0.0215561
0.0220706
0.185601
2.07374
0.0226207
0.0618773
0.0955482
1.13449
1.02702
0.457644
0.0303051
0.0238085
1.21705
0.0254988
0.0262363
0.0225545
0.0216602
0.0197843
0.389512
0.0216427
0.0938019
0.0216094
0.0300072
1.11272
1.05472
0.0522065
0.135007
0.0747602
0.177901
0.0526824
0.0197582
0.269421
0.0259309
0.0232338
0.293924
4.13169
0.0365102
0.0218312
0.0897772
2.3337
0.0302727
0.0513288
0.0232827
0.0217754
0.0233362
0.0305411
3.92469
1.0801
0.021493
0.0207301
0.0216508
0.385206
0.0236561
0.201387
0.707471
0.584671
0.388017
0.0293741
0.0876996
0.31225
0.0207034
0.0285985
0.0301386
0.396571
0.560671
0.0238927
0.0197821
0.368622
0.0238991
0.212208
0.0215822
0.023962
0.032599
3.96325
0.107741
0.0604268
0.0274224
0.075744
0.0212886
0.0212282
0.0253087
0.0204279
0.0813115
0.0590522
3.40595
1.40518
0.0204509
3.24165
3.11401
0.180576
0.0236418
0.0235945
0.0324898
0.142201
0.0240671
0.0262054
0.128601
0.0212399
3.26823
0.0376219
2.24079
0.114738
2.92784
0.0588475
0.0270667
3.34166
0.0225727
1.44759
2.22978
0.292608
0.526242
0.0212536
0.109983
1.44754
0.0214905
0.116095
0.0231232
0.231784
0.107184
0.0216395
0.02041
0.0207859
0.603595
0.0237091
0.0208073
0.0207915
0.0214313
0.511344
0.0334463
0.644111
0.0205551
0.0211004
0.0231403
3.36837
0.0690379
0.0755097
0.0250722
1.35842
0.0212292
0.0210665
0.0229931
0.0214181
0.110004
0.0234772
0.0335183
0.0215807
0.0251713
0.021743
0.0223041
0.0204011
0.0236474
0.0273352
0.0639785
0.0224791
0.0254278
0.0205933
0.0204894
0.0235448
0.020995
0.0600664
0.0222981
0.248003
0.0294224
0.021503
0.465067
0.136957
0.0383533
0.0623698
0.379593
0.236219
0.0348457
0.0216575
0.02669
0.0250712
0.0569193
0.0767024
0.55364
0.0204922
0.0204441
0.0209339
0.0300621
0.0207912
0.0305955
0.110098
0.0358204
0.0258145
3.0913
0.02171
0.0251441
0.0322146
2.27353
0.0223924
0.0546027
0.034704
0.0209781
0.0204331
3.16868
0.0548492
2.99464
0.0589474
0.0767272
0.461236
0.0259665
0.1861
0.0212553
0.0212748
0.447915
0.02101
3.86234
0.0246494
0.0237629
0.105321
0.0707418
0.0263582
0.0216981
3.84169
0.0226615
0.0296551
0.126243
3.22692
0.201678
0.0216668
0.191943
0.0237775
0.0217781
0.18827
1.16731
0.389237
0.978959
0.0204182
0.0543519
0.0220887
0.0241942
0.021981
4.46547
0.176822
4.76423
0.432151
0.0204319
0.0254273
0.0259079
0.0274954
0.0218938
0.0205187
0.0246334
0.401598
0.0250671
0.157844
3.05299
0.0209597
0.0204577
0.0212866
0.024133
0.0576332
0.023423
0.0212897
0.0237915
0.099646
0.295787
0.0214875
0.0277616
0.208186
0.0226613
0.0259733
0.0423021
0.0198377
0.0238822
0.891527
0.101193
0.0212474
0.0995241
1.57532
0.0228682
0.0240931
0.0234958
0.0212735
0.0470592
0.103806
0.221932
0.023967
0.0560246
0.102041
0.0214572
0.0235318
0.041153
0.141129
0.137317
0.169417
0.0291884
0.129795
0.0389654
0.0574882
0.359733
0.0218999
0.0238135
0.0205124
0.0218023
0.0744488
0.0550299
0.0233868
0.0261343
0.0205555
0.934643
0.021503
0.0236877
0.0230965
0.0236352
0.179997
0.0710226
0.0235332
0.0238908
0.0218172
0.0222284
0.0233149
0.0622346
0.0221873
0.0221819
0.0299614
0.253687
0.0241304
0.0299376
0.0214938
4.6803
0.0200003
0.0229756
0.927031
0.0943896
0.0217628
0.0238112
0.058471
0.0199302
0.0198194
0.0340954
0.0472823
0.0286549
0.0229976
0.0302255
0.362859
0.0211354
0.0231129
0.0254107
0.0271524
0.628805
0.0219733
0.794165
0.0317902
0.115986
0.0207075
0.0303294
0.0315542
0.265187
0.072117
0.0293336
0.170527
0.082058
0.0329108
0.466947
0.0286762
0.233633
0.0229942
0.0238717
0.0252435
0.0269187
0.267478
0.0208074
0.0254997
0.0271953
1.34265
0.248781
0.0504392
0.0345169
0.0475862
0.117942
0.0241121
0.0228103
4.52024
1.14918
0.0259753
0.0232026
0.0219776
0.0207154
0.0206195
0.122442
0.0458015
0.021062
0.059911
0.0237557
0.0241217
0.384111
0.0233545
0.0238632
0.0235342
0.0762104
1.16552
0.0210181
0.0242383
0.67648
0.0279062
0.118664
0.0214862
0.0216223
0.0216235
0.0241526
0.498577
0.0386928
0.0214846
0.0230033
0.0240615
0.0281937
0.0225848
0.0330624
0.0289764
0.0213033
0.448091
0.019824
0.019776
1.02829
0.0322097
4.30226
2.37381
1.09845
0.022005
0.0219966
0.0217387
0.229476
0.0212361
0.0207263
0.0215069
1.02426
0.0205794
0.021496
0.0213542
0.119218
0.817358
0.224804
0.0291758
0.0297835
3.73806
4.76953
0.0205987
0.373231
0.0237906
2.1741
0.0221322
0.0280695
0.0204529
0.284153
0.0222222
0.0210694
0.0239682
3.4443
0.0204814
0.038561
0.0213028
3.86951
0.0236663
0.0545275
0.0217248
0.0322624
0.0214945
1.8825
0.0297394
0.0221004
0.0215075
0.0217212
0.0209389
0.0204106
0.0215366
0.0238455
0.0221345
0.0217446
0.0218373
0.0704443
0.715307
0.024373
0.07609
0.0216779
3.02605
0.370137
0.0211862
0.130859
0.0289631
0.782451
0.0213578
0.464119
0.0214275
0.0212605
1.54318
0.031264
0.0341173
0.272535
0.022851
0.0284403
0.0206143
4.15369
0.0210319
0.0535969
0.0273871
0.0584701
0.0235057
0.114955
0.0534737
0.0209835
0.0219385
0.0217629
0.0380627
0.0349376
0.0217151
0.0216344
0.368907
4.39396
0.350235
0.0560464
0.0514421
0.23584
0.170135
0.0211354
1.45688
0.0212073
0.0316531
0.0210371
0.0217691
0.0204163
0.0285121
0.0207325
0.184826
0.0278531
0.0223058
0.253877
1.8897
1.13958
0.0213403
0.148851
0.0223281
0.0264016
0.019694
0.022808
0.020463
4.34052
0.0276833
0.0213667
3.79113
0.0229317
0.0593693
0.374359
0.020415
0.0461458
0.517665
0.192056
0.0241786
0.0268175
0.0209461
0.0213793
0.0213144
2.61349
0.0342225
1.13908
0.0222526
0.0282845
1.03749
0.0215731
3.71115
2.70628
0.0372864
0.0231245
0.0224757
0.020817
0.0209589
0.0581843
1.31813
0.0387431
0.205225
0.319035
0.0783927
0.0598412
0.0288538
0.133632
0.0237844
0.0227874
0.631422
0.415331
0.0593893
0.0556322
0.021114
0.0235424
0.0373948
0.348137
0.137267
0.020553
0.0239335
0.4359
0.0315521
0.145596
0.0283567
0.0353595
0.0204468
0.0469643
0.0205881
0.0684088
0.22325
0.0215005
0.0210462
0.0252042
0.174289
0.0223237
0.0256355
0.0836574
0.0490216
0.0240393
0.0211325
0.0578321
0.138755
0.0840586
0.0237383
0.0198117
0.028178
4.65928
0.0231746
0.0268635
0.0877472
0.0218099
0.0214244
0.0365068
0.0415465
0.0210159
0.0242826
0.0255595
0.0214777
0.135999
0.0264698
0.0245307
0.0252105
2.92745
0.0292275
0.0229029
0.0240127
0.0420721
0.0211117
0.0223787
0.75295
0.034863
0.0268284
0.0219625
0.0216172
0.360585
0.0370371
0.463145
0.0247869
0.0236735
0.0268494
0.201863
0.0262118
0.0573308
0.0626225
0.0214705
0.0285669
0.0244138
0.0289818
0.0238042
0.0215106
2.87397
0.0260244
0.034337
0.0521183
0.0216302
1.66797
0.0434605
4.17933
0.0301594
0.0375776
0.0238251
0.0277084
0.022593
0.0274513
0.151845
0.0205229
0.0275855
0.0315529
0.024107
0.0216341
0.386415
0.0263873
0.0309847
0.024567
0.601834
0.0233084
0.121333
0.374509
0.0285275
0.23337
0.574064
0.718128
0.0256889
0.266226
0.0604236
2.65112
0.0310029
0.0246738
0.0531038
0.0216703
1.83994
2.80543
0.0216003
0.113737
0.0326603
0.321203
0.0236933
0.0210564
0.127671
3.59332
0.0220333
0.0324613
0.127613
0.0266589
0.022152
0.092404
0.0746717
0.0401628
1.12464
0.0217825
0.0340011
0.0212128
0.0440683
0.0696608
0.190623
0.0224744
0.164332
0.0248508
0.0512425
0.0245333
0.023264
0.155865
0.0288299
0.331963
0.0204999
0.021513
0.156374
0.0980332
0.0210699
0.0286192
0.0287392
0.0216529
0.0205937
0.0491577
0.0388343
0.399972
0.0850997
0.0279301
0.0361135
0.0214323
0.0351069
0.0365777
0.0454607
0.0368436
0.0211974
0.0206397
1.19195
0.0305296
4.18008
0.140843
0.0233936
0.0358903
0.0244417
1.85005
0.0227987
0.0234407
0.0222526
0.0255354
0.0228185
0.133375
0.0216457
0.411951
0.0198356
0.033209
0.0341676
0.0219802
0.0204938
0.0216138
0.020487
0.0515867
0.0214878
0.0432742
0.105913
4.20731
0.0858561
0.0215993
0.905097
0.0321387
0.0252389
0.0278655
0.0247286
0.112204
0.409822
2.66766
0.50366
0.0216609
0.024965
0.0300494
0.0199554
0.0379914
0.0242724
1.15541
0.197069
2.32714
0.0287251
0.0244232
0.0569656
0.0275337
2.95251
0.0234128
0.430443
0.0284114
0.0212619
0.282185
0.021427
0.0592187
0.0254832
0.0408191
0.0832572
0.0252885
0.022426
0.0213663
0.0253515
0.0259229
1.49032
0.124129
0.0688904
0.0242221
0.0204584
0.439338
0.298463
0.0263644
0.0347687
0.466043
0.35597
0.0529284
0.0217893
0.043321
0.0302078
0.0398147
0.0282728
0.0212488
0.0256549
0.0215924
0.125892
0.0215931
0.0281328
0.0247823
0.0247263
1.03424
0.0236471
0.0209561
0.0214444
0.0205306
0.021592
0.0217295
0.0526439
0.0211488
0.0857506
2.98462
0.531418
0.021596
3.99483
0.129501
0.33112
0.0242878
0.755407
0.530731
0.022672
0.0277883
0.0275357
0.0345358
0.078049
0.0538265
0.0314341
0.195564
0.021728
0.0271173
0.0273527
0.0210747
0.0212363
0.0210823
0.447521
0.42892
0.071677
0.0233594
0.0217732
0.0234328
0.422305
0.0212178
0.0225843
0.339924
0.0212296
0.287007
0.0269523
0.020672
2.00049
0.0207283
0.0390319
4.20945
0.0273654
0.0217431
0.0253696
0.122583
0.492032
0.510939
1.15621
0.0548586
0.0204594
0.0214954
0.589475
0.0356113
0.0204041
0.0218287
0.030561
0.0213057
1.14395
1.98385
0.301157
0.0297849
0.325679
0.141894
0.253593
0.0244602
0.0378351
0.0211915
0.378674
0.0220388
0.024287
0.358567
0.0550506
0.0216792
0.0522094
0.0203924
0.0544651
0.0277539
0.0280599
0.0250427
0.0221711
0.0305953
2.92663
0.0211321
0.127902
0.0349495
0.0237342
0.0210896
0.0214821
0.0250298
0.222476
0.0211499
2.98589
0.0334587
0.415942
0.0212204
0.0405396
0.0308875
0.0228483
0.0204205
0.021474
0.0293946
0.0482135
0.0212487
0.0467416
0.0494978
0.094571
0.447872
0.0230285
0.0231687
0.0208679
0.0312277
0.0261762
0.0247918
1.03476
0.0213388
0.0311901
0.025022
1.0742
0.531209
0.148829
0.0216743
0.0250583
0.0204281
0.0915972
0.0210969
0.0215907
0.448363
0.12596
0.0209588
0.0278014
0.441285
0.0239682
0.0226581
0.822029
0.027179
0.0218592
0.059192
0.457219
0.0209206
0.650576
0.02848
0.0211677
0.0405588
0.0205823
4.68535
0.0246472
0.0211671
0.618121
0.02199
0.0255518
0.0227118
0.0228789
0.0204131
0.0268979
0.0261487
0.126539
0.0215034
0.20477
0.0208993
0.179844
0.237377
0.0462722
0.475354
0.0205332
0.152847
0.021194
0.485473
0.0204516
4.46655
0.117525
0.26406
0.0309582
3.16635
0.222316
0.257341
0.0294883
0.0252994
0.0455476
0.084752
1.11162
0.0278141
0.0443676
0.0894239
0.0253246
0.449772
0.0210248
0.032874
0.416214
0.020458
0.0209178
0.0259779
0.0214181
0.0204392
1.11805
0.0209123
0.166522
0.0215018
4.75012
0.55121
0.0213142
0.0225508
0.0230253
0.0251145
0.227584
0.0324503
0.514228
0.0266074
1.1786
0.0219498
0.0235471
0.0205998
0.0216361
0.0204049
4.68834
0.0204373
0.0217085
0.02119
0.780444
0.0270947
0.0288322
0.220843
0.0283384
0.0208923
0.0977132
0.0206541
0.0216467
0.0215539
0.0874887
0.0210158
2.88204
0.0206155
0.0209914
0.10908
0.0208908
0.0206617
0.229343
0.131201
0.273429
0.345385
0.0283247
0.0221654
0.0223171
0.0248789
0.0561191
0.536463
0.87764
0.021403
1.12935
0.312079
0.0237696
0.0207318
0.0266691
0.245984
1.05796
0.0238308
0.0238811
0.0210954
0.0323281
0.0234432
0.12856
0.0217896
0.0850689
0.0204626
0.0214931
0.469628
0.0423173
0.0243234
0.206397
0.0204463
1.16824
0.0206907
0.0207808
0.467419
0.0231362
0.0234191
0.229066
0.0206927
0.0260582
0.0210479
0.0478524
0.0204134
0.294772
0.0219027
0.0348975
0.0740861
0.0214918
0.0584503
0.0217177
0.0225192
0.0235969
0.0282391
0.333711
0.0450545
0.0217972
0.0218897
0.400682
0.0216827
0.12146
0.0246412
0.0250594
0.0268004
0.0213271
0.027203
0.0559232
0.0561897
0.390257
0.197183
0.0324623
0.0691793
0.358683
0.0217171
0.0313285
0.0213638
0.0236459
0.0197219
0.0214329
0.0732569
0.0196913
0.21445
0.0277655
0.0217973
0.0317036
0.0224819
4.66371
0.0227963
0.456863
0.022225
0.0272963
0.0510231
0.0281567
0.281778
0.0246483
0.410805
0.0248855
0.0374156
0.129261
0.0243018
0.443013
0.0207982
0.0250606
0.0208109
0.0216781
0.0207798
4.17662
0.0198926
0.0216863
0.0276311
0.149298
0.427283
0.0234252
0.109358
0.0208819
0.0209226
0.0241632
0.0229733
0.0223277
0.0217705
0.0225159
0.0230725
0.121594
0.0288948
0.020751
0.0222151
0.0268008
3.00545
4.72681
0.103275
0.0256903
0.360188
0.0383203
0.560254
0.0223698
0.0462213
3.09676
0.0212332
0.0204611
0.0233651
0.0310409
0.319899
0.0226982
0.0214327
0.0238029
0.0210542
0.0879352
4.56756
0.0226063
0.104747
0.0413667
3.11292
2.55248
0.0256891
0.0283402
0.0665602
0.0223337
0.0271564
0.215324
0.0252363
0.0233053
0.319876
0.0603338
0.0284145
0.0582941
0.0232328
0.0431584
0.024222
0.0230932
0.23797
0.0220145
0.0219467
0.036817
0.145262
0.0216117
0.461447
0.0227709
0.136591
0.0216804
0.0236709
0.0278602
0.0288063
0.0358464
0.0356792
0.0222067
1.15134
0.0214181
0.0564893
0.0488323
0.035992
0.0223253
0.699897
0.021181
0.0214087
2.58548
0.0214149
0.290701
0.0240342
0.101598
0.027843
0.0212444
0.325858
0.0221572
0.0549125
0.432462
0.0211355
2.42355
0.416478
0.0283825
0.0197301
0.0516904
0.157488
0.0295683
0.633567
0.0265093
0.0276874
0.252865
0.112436
0.0218128
1.34273
0.283617
0.0214187
0.0220394
0.093948
0.139213
0.0240855
0.129289
0.451326
0.0915431
0.028536
0.0361595
0.0274827
0.0249826
0.0205503
0.528202
0.434564
0.0214221
4.15008
0.0210096
0.0211828
0.346669
0.377075
0.0213589
0.0224848
0.148564
0.571737
0.0283498
0.034095
0.0215461
0.146605
0.549708
0.0394181
0.0249807
0.0617669
0.0229829
0.645344
0.0305789
0.0225555
0.0253544
0.0217002
0.0222411
0.0216012
0.0261637
0.227027
4.66383
0.0209386
1.95988
0.0694028
0.628671
0.0367941
4.84434
0.0407004
0.0254726
0.0219546
0.0209879
0.0252416
0.0443134
0.0245502
0.021721
0.071512
0.0720513
3.43922
0.0526141
0.279832
0.025388
0.0600168
4.4127
0.0551945
0.0299461
0.0277173
0.0223727
2.22887
0.0223129
0.0654072
0.0938022
0.0216381
0.409813
2.9956
2.00898
0.0271748
0.324422
0.227121
0.274706
0.0213128
0.376437
0.381909
0.411428
0.317589
0.0213712
0.308359
0.0209881
0.0232037
0.823133
0.202545
1.17216
0.141293
0.0436159
0.321153
2.74024
4.06644
0.0218575
0.0213084
0.0217538
0.433221
0.076152
0.325824
0.0280877
4.48288
1.19208
0.652379
0.0402649
0.325009
0.0288053
0.0247592
0.0279914
0.460688
0.0225128
0.0259795
0.0245371
0.6008
0.0289211
0.0657274
0.0228451
0.762156
0.449917
0.146087
0.0956265
0.487106
0.023295
0.0268725
0.180491
0.140358
0.318288
0.0672114
0.0232081
0.418446
0.0269605
0.0283128
1.67693
0.0208093
0.021604
0.0495616
0.60182
0.0204986
0.576138
1.12448
0.0787294
0.0274818
0.921593
4.05774
0.0334721
0.320896
0.0230628
0.0350753
0.159974
0.0273167
0.0261912
0.0342404
0.0930304
0.027924
0.0260831
0.203643
0.0567887
0.258376
0.0234702
0.0411907
0.457047
0.350469
1.3083
0.02624
2.93536
0.0211804
0.649826
0.0289768
0.0220069
1.09655
0.428531
0.0293138
0.0269067
0.0239298
2.25002
0.0332313
0.0305021
0.0303112
0.0212774
0.0808283
1.98718
0.0383462
0.0217992
0.880012
0.403621
2.49101
0.142857
0.0242774
0.0255881
0.0220513
0.022629
0.0222317
0.380017
0.119682
0.0218625
0.0204604
0.0224989
0.0254035
0.0829502
0.0310372
0.150814
0.0215359
0.0369638
0.0212772
0.152522
0.0216024
0.022236
0.120386
0.196253
0.0253189
0.0267393
3.05048
3.5583
0.0706188
0.0214246
1.93612
4.08105
0.0446594
0.33637
0.0514514
0.0223649
4.58284
0.0397738
1.4132
0.0211596
0.0669801
0.0266016
0.0897406
0.0233277
0.0223757
0.0306605
0.0264811
0.0371809
0.10728
0.0234749
0.0257464
0.0243872
0.0687803
0.0213897
2.4408
0.0208779
0.103927
0.0235728
0.0410196
0.036594
0.0415353
0.0211506
0.0272622
0.0610349
0.145511
1.51337
0.0590924
0.0212304
3.65101
0.0253901
3.99693
0.0275922
0.0272075
2.46866
0.0212835
0.463919
0.0370483
0.0211825
0.0313712
0.0279012
0.0239755
0.0211822
0.480123
0.020979
0.0243818
0.0999663
0.0221321
0.300247
0.0223831
0.0735577
0.0215177
0.0273352
0.173586
0.235311
0.0230964
0.0232648
0.021108
0.023076
0.0209924
0.0235511
4.34888
0.364022
0.0474435
0.0228119
0.0324589
0.0724613
0.0817462
3.3723
0.0211899
0.0236615
0.303966
0.0599155
0.458865
0.026477
0.349444
4.10585
0.0417511
0.0217973
0.0667434
0.241691
0.0263727
0.023084
0.0230571
0.0213706
0.0229057
0.0271791
0.112741
0.0215831
0.0209349
0.064102
0.0237398
0.0881132
0.344005
0.0256985
0.047467
0.432126
0.0252738
0.453371
0.0230504
0.0233375
0.0290798
0.0783941
0.0266844
0.0279928
0.0249973
0.431678
0.122256
0.470196
3.0022
0.0552557
0.0268269
0.0265035
0.0218901
0.0265618
0.0200084
0.660874
0.0215856
0.0253229
2.2796
0.0211129
0.0229698
0.467844
0.0239958
0.0247429
4.45314
0.146324
2.99493
0.634386
0.0217524
0.0233087
0.174352
3.41735
0.0298999
0.193118
0.152675
0.338768
4.07378
0.142404
0.0211539
0.219398
0.0215009
0.0895706
0.140716
0.0285742
0.387734
0.0285442
0.486077
0.0212055
0.0557945
0.62578
0.0228227
0.104923
0.0217406
0.0542671
0.0213974
0.479041
0.807287
0.0959921
0.321314
0.130827
0.0280801
0.0212395
0.0274041
0.0211356
0.0250873
0.0603121
0.341056
0.0202657
0.021492
0.0210504
0.0259318
0.0204809
0.767359
0.0498109
0.0211749
0.0241152
0.0267738
0.0372021
0.025364
2.34179
0.0236461
0.0208853
0.0222459
0.0733828
0.0967428
0.134978
0.280481
2.397
0.0259586
0.280783
0.663775
4.23177
0.0250046
0.338656
0.0203972
0.964087
0.0241303
0.412574
0.0218093
0.0225437
0.0308974
0.40828
0.311871
0.0388967
0.0234114
0.0212222
0.02195
3.3462
0.0624007
0.0218512
0.0222611
0.0307617
0.0216258
0.117671
0.162594
0.0320073
0.0265974
0.0471904
0.0758951
0.0213192
0.0774542
0.0236895
0.022729
0.0243928
1.17984
0.237431
0.0718301
0.235629
0.0224497
0.0219087
0.0268256
0.0210038
0.0238116
0.401515
0.024741
0.550797
0.0212665
0.0320442
0.0266862
0.0228541
0.278274
3.34424
0.0917799
0.0588421
0.0257437
0.836572
0.0513417
0.0281388
0.337042
1.90308
0.0232919
0.021345
0.039539
0.0248133
1.40196
0.136937
0.0213686
0.0217965
0.0432664
0.0610191
0.0259986
0.0219625
0.0276838
0.0650116
0.0267246
0.303582
0.163104
4.58546
0.0214639
0.0256751
0.0239205
0.0764976
0.104726
0.0208989
0.0341934
0.0402378
0.0324834
0.0258128
2.88827
0.305254
0.0561013
0.0373065
0.0278549
0.0209575
0.0657581
0.0215649
0.225577
0.59478
0.0238509
2.9633
0.0207401
0.649614
0.0207815
0.029202
0.0225351
3.78289
0.0350606
4.94708
0.0604593
0.021186
0.0293477
0.050902
0.0806954
1.1718
0.340927
0.0210946
0.0251815
0.0227032
0.133217
0.0234326
0.0233416
0.022921
0.31142
0.0215506
0.0230541
0.037335
0.787817
0.022992
4.22662
0.0261634
0.0279471
0.0229362
0.0499788
0.0706439
0.0377467
0.0271809
0.0234182
0.0210743
0.0238684
0.0284191
0.0210728
1.17408
0.0214359
0.0608376
2.41462
0.0277576
0.0211471
0.0210419
0.0215073
0.37136
0.0215042
0.023274
2.45762
0.0283042
0.0725424
0.022702
0.0256524
0.0207948
0.0312793
0.650247
0.114907
0.225242
0.153246
0.0226874
0.0222515
0.0241567
0.064422
0.0257385
0.0217741
3.9919
0.149039
0.0231913
0.0215281
0.0453107
0.0208102
0.0758964
0.0249001
0.0330299
1.18714
0.0510529
0.0227934
0.043311
0.021292
0.0238271
0.0202804
0.0214761
3.07789
0.0215147
0.0234473
4.18756
0.0257549
3.86853
0.0235571
0.0221761
2.67862
0.0765103
0.0226169
0.450179
3.69887
2.18004
0.0211268
0.364727
0.0240475
1.2117
4.0818
0.0208141
0.0630282
0.0234518
0.026975
0.02886
0.0808216
0.021538
0.0214811
0.029026
3.95222
0.0225813
0.06955
0.020546
0.0198707
0.0533265
0.0222649
0.189768
0.336502
3.09143
0.0215401
0.0232821
0.0280519
0.0210801
0.0414325
0.334564
0.0430279
0.0216481
1.55925
0.156472
0.0215344
0.0220928
0.0261055
3.42941
0.0253255
0.100964
0.237616
0.160186
0.0232871
0.063501
0.118976
0.0232141
3.28075
0.337331
0.0312525
0.2252
0.021493
0.115428
0.0208955
0.0207057
0.0221957
0.0211623
0.0207108
0.0255183
0.0205337
0.0207877
0.0432088
0.0225173
0.0322938
0.0208435
0.100922
0.0221387
0.0207993
0.0273268
0.0920959
0.0222023
0.022003
0.0230074
0.0660732
1.2164
0.0442671
0.026186
0.0204749
0.0215048
0.0678247
0.0223099
0.136879
0.0829179
0.248893
0.17083
0.0220924
0.659857
0.690402
0.907083
0.0218505
0.138275
1.89073
0.240729
0.0246397
0.0226026
0.0202655
0.0222458
0.141108
0.0388726
0.0247188
0.0665521
0.036944
0.0255077
0.0218182
0.0214666
0.0202895
0.0479526
0.116099
0.127437
0.0364953
0.108141
0.305936
0.306261
0.0346017
0.0201106
0.035673
0.0234309
0.0281693
0.0214378
0.0242892
0.0223881
0.0231639
0.0254758
0.0217454
3.32774
0.024299
0.0233011
0.496594
0.0323965
0.103085
0.0215315
0.0274954
0.0223697
0.132085
0.041695
0.0278083
0.0201509
0.0252709
0.0252303
0.0245473
0.0296246
0.537826
3.71463
0.0271356
0.209233
0.0215114
0.0572931
3.46768
0.122831
0.29453
0.548135
0.0227663
0.0201934
0.02103
0.0227286
1.01436
0.615799
0.0305122
0.0689605
0.0208047
0.223972
0.168805
0.0247482
0.0233009
0.376004
0.0261719
0.47979
0.0328245
1.91868
0.0216101
0.537247
0.0210489
0.0224914
0.0220447
0.160189
0.117822
0.362312
0.0248078
0.0225893
0.0312326
0.0240086
0.082421
4.29877
0.0209913
0.409038
0.0247998
0.0376679
2.12529
0.0207391
0.0213853
0.0235945
0.028781
0.0217439
0.0327726
0.0287162
1.22097
0.0291671
3.94683
0.0211447
0.144954
0.0215522
0.0218213
0.0215176
0.0215844
0.0305781
0.0200629
0.102449
0.0656545
0.0950043
0.0228937
0.0214823
0.14033
0.0251025
0.029133
4.56723
0.0221862
0.0213646
0.0241132
0.264588
0.0318206
0.021606
0.0248311
0.0216402
2.74857
0.258913
0.111859
0.192168
0.177465
0.0273031
0.105747
0.0219593
0.929365
0.0207702
0.0364943
0.0221623
0.150369
0.0211209
0.0225889
0.0387281
0.0208121
0.0208445
0.0215894
0.0286613
0.266158
0.0212421
0.0251479
0.0229368
0.0243636
0.192944
0.10475
0.0215562
0.101344
0.0720337
0.366641
0.0551363
0.0921852
0.678796
0.222688
0.0273999
0.0207276
0.0213495
0.0678291
0.0366782
0.0256177
0.0221342
0.0208915
0.0218341
0.0225369
0.0279944
1.05519
2.90839
0.02261
0.0227777
0.0209514
4.1716
0.0264839
0.0336756
0.0211347
0.0207873
0.59942
0.0536774
0.0308635
2.20201
0.0234147
0.480609
0.0243037
0.118164
0.0473621
0.021485
0.022058
3.88672
0.0268228
0.0386879
0.674741
0.348293
0.0288967
0.0232325
0.0971804
0.213928
0.0208374
0.166563
0.135458
0.0224615
0.0223769
0.0264954
0.0227358
0.0296695
1.21432
0.272912
0.507636
0.0207607
0.0240068
0.0270181
0.0270476
0.0489407
0.11447
0.0261451
0.0657184
0.0233356
0.0224662
0.0250428
0.0341744
0.0555329
0.0225668
0.0432235
0.021679
0.0202397
0.0484408
0.199882
0.366822
0.0236607
2.14107
0.0214622
0.103472
0.0390272
0.0214861
0.0230772
0.0320382
2.4787
0.0279367
0.0203382
0.0212523
0.0225044
0.0223743
1.11073
0.320886
0.0215336
0.33245
0.347568
0.0231665
0.0295775
0.0224261
0.0403925
4.77821
0.0611003
0.0222428
1.35149
0.193433
0.0282951
0.0287661
0.0227645
4.85835
0.0884393
0.0513774
0.0947953
0.0219445
0.0233878
0.0226233
0.0804459
0.0497132
0.351785
0.106257
0.436199
0.0271001
0.0304002
0.0250398
0.052192
0.0423021
0.0667935
0.0210685
0.0694302
0.0222417
2.17644
0.0215666
0.0252329
0.033214
0.026914
0.0221312
0.332575
0.0254836
0.0399679
0.0215319
0.0213255
0.0270375
0.457519
0.0912015
0.031136
0.0665794
0.0241364
0.0224446
0.0206315
0.346555
0.024134
0.0325201
0.360973
0.0241873
0.0214814
3.76414
0.0830766
1.18449
0.0715165
0.021911
0.0635193
0.45765
0.56977
0.0203132
0.177511
0.0396485
0.29031
0.0216184
0.038075
1.15666
0.378356
0.0215256
0.0254603
0.0335056
0.438068
0.0212142
0.422027
0.0346158
0.022586
0.0236436
0.111802
0.878222
1.38514
0.0761117
0.0242196
0.0286103
0.0252266
0.0458873
0.086355
4.18324
0.598193
0.0214485
0.0197008
0.0482474
0.0229244
0.0214034
0.402378
0.0267015
0.350151
0.0225008
0.0224368
0.0826572
0.105247
0.0905387
0.0711212
0.292229
0.316185
0.0232352
0.0201794
0.0204793
0.0457959
0.0221595
0.240324
0.0216182
0.0215997
0.0229234
0.149978
0.0219084
0.0210689
0.117992
0.0898357
0.100546
0.0203305
4.62001
0.0215651
0.0217876
0.157364
0.0209215
0.0513702
0.0230273
0.0299168
0.0215149
0.0221154
0.0442641
0.0231806
0.0211373
0.0214166
0.0202042
0.0684257
0.344808
0.0209561
2.36283
1.19365
0.0217195
0.0246857
0.0230314
0.0214546
0.0201753
0.0293562
0.0647759
0.0625456
0.47155
0.689386
0.425151
0.0224201
0.0215655
0.0262824
0.187108
0.368536
0.0611558
0.0219309
0.0214819
0.0386401
0.0379978
0.0762564
0.0246711
1.83685
0.0205587
0.0415939
0.0276249
3.88619
0.0219466
0.0224783
0.0235436
1.21097
0.124133
0.0310535
0.458021
2.46348
0.166051
0.277575
0.139381
0.0236396
0.0716899
0.0717663
0.0497974
0.116586
0.251995
0.0992999
0.0275768
0.0222426
0.0222366
0.0213393
0.0230674
0.0235365
0.334351
0.0557197
0.576763
0.183197
0.104112
0.0228895
0.10255
0.082497
0.0379638
0.027098
0.291491
0.311207
0.0212822
1.59272
0.467197
0.0355024
0.0558525
0.0217081
0.0265837
0.0324133
0.024933
0.0209641
0.151051
0.0218838
0.0235422
2.42673
0.0283711
0.0438151
0.224672
0.0223009
0.0423103
0.0251409
0.0232091
0.0216245
0.0205959
3.31651
0.041684
0.0972123
0.214456
0.0215914
0.315498
0.239647
0.157098
0.0206616
0.021415
0.0246068
0.0227251
0.0210842
0.0332302
0.0233795
0.02153
0.0244761
0.0896652
0.0315445
0.0244311
0.0254516
0.0216531
0.0214708
0.0273626
0.345549
0.0296263
0.0211535
0.0913585
0.0238093
0.0261998
0.100743
0.225002
0.262636
0.397997
0.0212336
0.404992
0.125731
0.412668
0.0206616
0.0445051
0.0284159
1.06614
0.0218574
0.0207186
0.0280243
0.0246333
0.0228438
0.0232418
0.0215027
0.0196978
4.49134
0.0218266
0.0230391
0.0212092
0.0803803
0.0231876
1.19665
0.0213228
0.137253
3.21321
0.0414495
4.15684
0.186896
0.0231435
0.0215332
0.021866
0.277451
0.0252855
0.0214036
0.0233712
0.107522
0.0717666
0.0221671
0.0219243
0.0210773
0.0221383
0.32364
0.0210511
1.92427
0.109746
0.0360077
4.42112
0.202305
0.0209316
0.0202185
0.322092
3.17462
0.024422
0.0218328
0.029653
0.105238
0.0228542
0.0213954
0.0289552
0.0223065
0.0237375
0.0383036
0.028512
0.541553
4.23711
1.19637
0.021042
0.0411568
2.61881
0.0236389
4.34787
0.0584553
0.118822
1.18581
0.0201329
3.33318
0.0247516
0.0229302
0.0245928
0.100215
0.0753855
0.021376
0.0614271
4.68082
0.83475
2.96697
0.122802
3.39556
0.022675
0.0863218
0.0640571
0.02091
0.0326002
0.0653218
0.0215731
0.0862968
0.328448
0.0629644
0.021459
3.60451
0.0889766
0.0215434
0.0283852
0.0402564
0.0234288
0.020343
0.369019
0.355412
0.0323114
0.0213843
0.0209889
0.0221309
0.0229641
0.285395
0.0816714
0.0256037
0.0852261
0.0211542
0.296916
0.0369154
0.0216456
0.0524795
0.0253227
4.25031
0.0956112
0.32025
0.421578
0.0413676
0.0247024
3.67149
0.0210327
0.113422
0.0223185
0.0464576
0.0218806
0.0507884
0.252225
3.20838
2.13749
0.185742
0.0222898
0.02091
0.0228938
4.14133
3.9956
0.0639134
0.085892
3.25405
2.31291
0.0223931
1.14634
0.376191
0.021736
4.03274
0.0240935
0.0686712
3.84709
0.0200655
0.064308
3.26314
0.0615958
0.0223564
2.47046
0.0230496
0.404234
4.39696
0.040612
1.39026
0.402864
0.23582
0.102858
0.0253049
0.0832437
0.0856867
0.021406
4.33534
0.0227616
0.0215034
2.3194
0.144907
3.05472
0.0585309
2.9324
0.0201302
0.0200865
0.0214491
0.224294
0.0204226
0.232856
1.68201
0.193726
0.0200914
0.0309271
0.0291477
2.54211
0.275116
0.112102
0.09548
0.39693
0.378342
4.26912
0.0322893
0.0224644
0.040741
0.253564
0.400666
0.140652
0.0214975
3.01395
0.0228438
0.023514
0.146503
0.0244959
0.0281432
0.0288726
0.028686
0.0201888
0.0211564
0.10882
0.0234124
0.022007
0.023331
0.180251
2.81201
0.0270248
0.0282379
0.0612563
3.22516
2.30541
0.0277837
0.162117
0.102203
0.0613253
0.0206863
0.0231051
0.0225955
0.0219221
3.44952
2.83692
2.37273
0.114483
0.0222327
0.402124
1.46947
1.93923
0.0215482
0.0571702
0.0215912
0.0209196
0.0207473
0.035668
0.0274049
4.06661
0.042617
0.230374
0.025011
0.284009
0.0231591
0.0238065
4.04338
0.0329751
0.0227175
3.69268
0.0210704
0.0308245
0.282317
0.0288321
0.0230164
0.0240418
0.0252711
3.18751
0.0282064
0.214234
0.0213031
0.0207147
0.0274497
0.0215989
0.098446
4.70837
0.0214684
0.0269451
0.025508
0.241757
0.0312021
2.75192
0.0304749
0.199458
0.0709572
2.34917
0.252925
0.185558
0.038374
0.210057
0.0214104
0.0201595
3.29392
0.041038
4.31477
0.27746
0.0229265
0.170742
1.10011
2.84948
0.0223297
0.0216707
2.85225
0.0219411
0.0236617
0.499089
3.80881
0.0209552
0.0211092
0.0221431
0.0423151
0.0226118
0.0422289
0.154059
0.0250464
4.52323
0.192631
0.314343
3.96054
0.0441658
0.0490995
1.37281
0.200246
3.535
3.32686
0.0228903
0.125609
0.0228515
2.41144
0.432315
0.0717324
0.14337
0.0215755
0.0254944
0.0273179
0.0225126
4.44879
0.0214956
0.0216378
0.0301351
0.53312
0.167402
0.399995
0.0201965
0.0331906
3.79559
0.0694199
0.0214862
0.0634249
0.020973
0.117048
0.14349
0.025377
2.03916
0.117057
0.290134
0.180057
0.0214352
0.0209257
0.0216396
0.37271
1.5874
0.0237199
2.89679
0.0324668
0.0210731
0.024758
0.0930771
0.024486
0.0321851
0.0785541
2.33921
0.0229779
0.0229343
0.239548
0.0222962
0.0208956
0.0227874
0.0215492
0.030326
0.0213441
0.0228798
1.21019
3.47865
0.0234282
0.0709058
3.15675
0.114007
0.261301
0.177991
0.1846
0.0211711
0.0843781
0.236334
0.0275225
0.113012
0.0229022
0.0226078
0.233062
0.0243006
0.256921
0.0230393
0.0243924
0.0232193
0.0778989
0.0220495
0.0206182
0.122004
0.105504
0.0220599
0.101288
0.0251781
0.142929
0.0799379
0.031235
0.0209123
0.0228014
1.62843
0.300516
0.0200806
0.0222727
0.0344845
0.0431881
0.025528
0.204478
0.0221012
3.14221
0.0215467
0.0266037
0.0669514
0.34878
0.273388
0.0227518
0.0215
1.082
0.0560053
0.022687
0.582239
0.0219368
0.147421
0.171753
0.022424
0.040909
0.171126
0.318298
0.179149
0.035435
4.86758
0.0213817
0.0689812
0.139825
0.0228662
0.0201985
0.0331795
0.350081
0.167206
0.0246504
0.152501
0.0222825
0.0227409
0.0221832
0.0226669
0.0222294
0.0486206
0.0338978
0.354701
0.0957775
2.79884
0.0547912