/*--------------------------------*- C++ -*----------------------------------*\
| =========                 |                                                 |
| \\      /  F ield         | OpenFOAM: The Open Source CFD Toolbox           |
|  \\    /   O peration     | Version:  v2012                                 |
|   \\  /    A nd           | Website:  www.openfoam.com                      |
|    \\/     M anipulation  |                                                 |
\*---------------------------------------------------------------------------*/
FoamFile
{
    version     2.0;
    format      ascii;
    class       volVectorField;
    location    "300";
    object      ddt0(U);
}
// * * * * * * * * * * * * * * * * * * * * * * * * * * * * * * * * * * * * * //

dimensions      [0 1 -2 0 0 0 0];


internalField   nonuniform List<vector> 
18598
(
(-0.00619558 0.020801 7.17025e-21)
(-0.0080092 -0.015641 0)
(3.16411e-07 2.41662e-05 -3.23304e-22)
(-0.00729981 -0.0187276 8.76311e-20)
(-0.000108996 0.000398821 0)
(-0.00379422 0.000962875 2.03464e-21)
(-0.0092203 -0.0291872 0)
(-7.89618e-05 -0.000549327 0)
(-0.0330201 0.0314337 2.53615e-20)
(-0.0641375 0.00339793 1.53161e-20)
(-0.000460755 -0.000778336 8.65391e-21)
(0.00909313 -0.000273452 5.4948e-19)
(3.08452e-05 0.000103505 4.10131e-20)
(0.0091857 0.00136463 -5.49251e-19)
(-0.000113423 -0.00067442 9.8253e-21)
(0.00810214 0.0114476 0)
(0.0177432 -0.0067644 9.24378e-20)
(-0.00418755 0.00396336 0)
(-0.00200177 -0.00203411 0)
(-0.0207077 0.0117558 2.41246e-21)
(-0.000839826 -0.000244518 -3.41782e-22)
(-0.000488876 0.000555064 1.21814e-20)
(-0.0269373 -0.00773538 -1.32407e-20)
(-0.000329684 0.000686106 -2.52913e-21)
(-4.38314e-05 0.000233349 1.19884e-20)
(0.0219988 -0.00655307 5.16662e-20)
(-0.0274034 -0.00475669 0)
(-0.000165354 -0.000237093 -1.18306e-20)
(-0.0258841 -0.00367662 -9.55383e-20)
(-0.00397166 0.0212473 8.76743e-20)
(-0.0369125 0.0185065 0)
(-0.000111961 -0.000564014 0)
(-0.00120571 0.000716276 6.59899e-21)
(-0.00879225 -0.00462311 2.70425e-20)
(-0.0108236 -0.0236425 0)
(-0.0322279 0.0196783 -4.41164e-20)
(-0.000148658 0.000304695 3.7817e-21)
(-0.000433499 -0.000661124 0)
(-9.7692e-05 0.000376678 -1.40249e-20)
(-0.0341871 0.00184205 -1.09273e-19)
(-0.017913 -0.00107014 0)
(-0.0940972 0.216206 -4.38576e-19)
(-0.00635843 -0.0416867 -3.01389e-19)
(0.00907734 0.000741916 0)
(-0.00501079 0.0117242 -2.33907e-20)
(-0.00103965 0.000481285 -3.45254e-20)
(-9.6873e-05 0.000106699 0)
(-0.000171559 -0.0261936 -4.75188e-20)
(0.000310498 0.000388807 1.70266e-20)
(-5.0123e-05 0.000237722 0)
(-0.000130742 -4.71746e-06 1.23424e-20)
(-0.00311018 0.0195344 0)
(0.00385034 -0.0222123 2.26308e-19)
(-0.0049904 -0.0010275 8.08438e-20)
(-0.000489397 0.000647747 -1.4251e-20)
(-0.000200535 -7.6639e-05 -1.7821e-20)
(-0.000279531 -0.000149524 -6.27046e-22)
(-7.75124e-05 -3.25177e-05 2.49739e-21)
(0.000272557 0.000273829 2.62727e-20)
(-0.0164261 -0.00761997 0)
(0.0308099 -0.000112906 4.8755e-21)
(-0.0100332 -0.000358785 1.37303e-20)
(-0.000192636 -5.83599e-05 1.38049e-20)
(-0.000419343 0.000853461 9.17757e-21)
(-0.024936 -0.00039642 -3.2412e-20)
(0.0002896 -0.0201294 8.45672e-20)
(0.000337521 0.000314274 -6.11832e-20)
(-0.000129974 0.00224658 -4.62545e-20)
(0.0147084 0.00546708 0)
(-1.42616e-05 5.00114e-05 2.78005e-20)
(0.000183306 0.00310636 -2.60888e-20)
(0.00131453 0.0326314 -2.99815e-20)
(0.00161781 -0.0257844 0)
(-0.00625731 -0.0308929 0)
(-0.000175004 -0.000495105 5.25153e-21)
(-0.0167464 0.00159205 0)
(-0.000161817 -0.000614246 6.50517e-21)
(-0.00020949 -0.000105903 -9.29601e-21)
(-0.00713992 -0.0355702 7.77813e-20)
(1.10731e-05 0.00399669 2.66112e-20)
(-0.0293843 0.012081 -7.61925e-20)
(-0.00235327 -0.000167208 1.8425e-20)
(-0.000147036 -0.000729017 0)
(0.0249189 -0.00636494 0)
(-0.00111365 0.00127765 0)
(-0.0358905 0.0194589 -3.92833e-21)
(-1.78112e-05 4.74819e-05 -4.01589e-20)
(0.00789707 0.00396872 0)
(-0.000278176 -6.76451e-05 -7.65954e-22)
(0.00276584 0.0112052 0)
(-0.00236705 -0.000820961 9.74965e-21)
(-0.00442212 -0.00296341 0)
(-0.000432164 -5.32224e-05 2.35996e-20)
(-0.00448338 0.0269213 0)
(-0.0135535 -0.0216749 0)
(-0.000331077 0.000794514 -1.96955e-20)
(0.00412401 -0.00861673 -3.98476e-20)
(-0.000294626 -0.000605761 -3.7224e-22)
(-0.0263523 0.0116853 0)
(-0.00748218 -0.00702685 2.83878e-20)
(-0.000361616 2.77728e-06 5.71877e-21)
(-8.55692e-05 -3.64027e-05 0)
(-0.00429402 -0.000424527 -2.04684e-20)
(0.000805939 0.0093642 5.25039e-20)
(0.00946225 0.00284508 -1.26361e-19)
(-0.00108351 0.00243781 -1.15998e-19)
(-0.0153827 0.00871671 -5.18637e-20)
(0.0345611 -0.00124607 6.16519e-20)
(-0.000154344 -0.000296302 -1.1945e-20)
(-0.0245206 0.00133183 1.56168e-19)
(-0.00196617 -0.00591891 0)
(0.0297287 -7.40482e-05 9.50678e-21)
(-0.000128709 -0.000652468 0)
(-0.00301303 0.00234712 1.30114e-19)
(-0.00561629 -0.00228916 -8.98705e-20)
(-0.000757387 -0.00199474 0)
(-0.0283694 0.0114305 7.13716e-20)
(-0.00422149 -0.00266707 3.4998e-20)
(-0.00212647 0.00605826 0)
(-0.000175286 0.000317249 -3.79392e-21)
(0.0143567 -0.000451344 1.7913e-19)
(-0.000185005 0.0005719 -1.87651e-20)
(-0.000241249 0.000848755 4.90345e-20)
(-0.0075072 0.00287195 0)
(0.0129964 -0.0109928 0)
(-0.00124625 0.00184418 0)
(-0.000591513 0.00198179 0)
(-0.00830543 0.0077927 0)
(-0.0323238 0.0184483 0)
(-7.60064e-05 0.000350409 0)
(4.10964e-05 5.23952e-06 2.03615e-21)
(-0.00297448 0.00452085 -3.17222e-21)
(0.0020254 -0.011999 1.39315e-19)
(-0.00147481 -0.00393085 5.51186e-21)
(-0.0645029 -0.00144522 0)
(-0.000138487 -1.28297e-05 -1.18088e-20)
(-0.00738764 -0.0193189 0)
(-0.00018385 -0.000337651 1.23205e-20)
(-8.56653e-05 0.000249542 2.3016e-20)
(0.0138913 -0.011358 1.60838e-19)
(-0.0326316 0.031992 0)
(-0.000861934 -0.000102291 -1.81663e-20)
(-0.00026972 -9.20315e-05 1.84025e-21)
(0.0106038 0.00204074 0)
(-0.00046363 -0.000421507 2.35657e-21)
(-0.00133517 0.000242821 -4.88207e-20)
(0.02585 0.00579532 0)
(-0.00493774 0.00564362 1.40538e-19)
(-0.000367952 -0.000760425 1.07689e-21)
(-0.000213067 -0.0145944 -4.60848e-21)
(-0.00207772 0.00150634 1.22406e-19)
(4.62867e-05 0.0032138 -3.53536e-20)
(-0.000556859 -0.0004338 1.13184e-20)
(-0.0451212 -0.00227745 -1.95429e-20)
(0.000102408 0.000781512 -8.32416e-21)
(-0.000431577 -0.000410099 -2.10166e-21)
(-0.0450187 -0.00103153 6.20167e-20)
(-0.00149246 0.00164768 -1.32282e-20)
(7.02927e-05 0.0001532 -1.5188e-20)
(-0.00213124 -0.000588498 -1.4976e-19)
(-0.0104433 -0.00388213 1.01139e-21)
(0.0336866 -0.0401003 -2.36192e-20)
(0.000384058 0.000522785 3.45074e-20)
(-7.94444e-06 0.000288931 2.02369e-20)
(-9.09706e-05 0.000351736 3.43734e-20)
(-0.0322005 0.00282407 1.02519e-19)
(-0.0270305 -0.00145588 3.70071e-20)
(-3.31862e-05 -0.00075357 0)
(0.0188943 0.0188979 0)
(0.0118146 0.0150423 -8.39626e-21)
(-0.000239765 -0.000633515 0)
(-0.0308044 -0.0701815 9.3935e-20)
(0.011541 0.00280034 1.57088e-19)
(-0.0085116 -0.0185382 -1.20482e-18)
(-0.00177232 0.00177094 5.82001e-20)
(-0.000528601 0.000497306 -6.69331e-22)
(0.00813366 -0.00104999 -3.42948e-19)
(-0.000776719 -0.00142221 -3.08142e-20)
(-0.00274914 0.000405971 -1.15143e-21)
(-0.0398662 -0.0026131 -1.13157e-19)
(-0.0076794 0.0148936 0)
(-0.0207644 -0.0227659 -8.58586e-20)
(-0.0248122 0.0188876 0)
(-0.00132787 0.000834119 0)
(0.0191404 -0.00122308 2.25222e-20)
(-0.00901627 0.00262848 -5.57224e-21)
(0.00886396 0.0055969 0)
(-0.0225382 -0.00964184 0)
(-0.000259657 -9.4739e-05 0)
(-0.038442 0.057004 2.64244e-19)
(0.00109649 0.00138367 3.50217e-20)
(-0.000176308 0.000695126 6.92369e-20)
(-0.00952437 -0.0287282 -4.20425e-20)
(0.021471 -0.00277273 7.8372e-21)
(-0.00146069 -0.00452464 0)
(-0.000229004 0.000625397 1.65319e-21)
(-0.0258857 -0.00177601 3.50481e-20)
(0.0369219 -0.000873793 -7.31829e-20)
(-0.00861502 -0.00282441 4.41483e-19)
(0.0261659 0.028296 7.66121e-20)
(0.0179679 -0.0135791 0)
(-0.000209044 -6.55924e-05 9.32294e-21)
(-0.0170135 0.0515799 -1.16671e-19)
(-3.63507e-06 -7.42472e-05 4.25009e-24)
(-0.000423397 -0.00136008 -1.53954e-20)
(-0.00268375 0.00548356 2.36139e-19)
(-0.0362347 -0.075232 5.07672e-19)
(-0.000570691 -0.000392391 -1.13464e-20)
(-0.00126247 0.00286496 0)
(-0.00211188 0.000896371 2.55282e-20)
(-0.00913411 0.0202866 -7.37508e-20)
(0.0137378 -0.00630764 0)
(-0.000208916 0.00016213 -4.58744e-20)
(-0.0127923 0.00552998 0)
(0.00312637 0.00688311 3.1584e-20)
(-0.00601755 -0.00752981 -1.02502e-19)
(0.00211517 0.0050019 3.24944e-20)
(-0.000934832 -0.000461938 -2.19779e-20)
(-8.04513e-05 -0.000661551 0)
(0.00891295 0.0183647 -2.90837e-19)
(4.62552e-05 8.68639e-05 0)
(-0.000510037 -0.000804631 -2.95071e-21)
(-0.00179954 0.00121401 6.72582e-20)
(-0.000233189 -0.000174551 0)
(-0.0135719 -0.00238974 -1.23968e-19)
(-0.00153079 4.90244e-05 3.47803e-20)
(-0.000255036 0.00124214 -2.08991e-22)
(-0.000305563 -0.000186093 -8.12719e-22)
(0.014481 0.000173755 -1.76968e-19)
(6.26715e-06 0.00028273 2.10124e-20)
(0.00511163 -0.0129845 0)
(-0.0171271 -0.00773702 6.43251e-20)
(-0.000638112 -0.000836274 -2.90372e-24)
(-0.000767497 -0.000744534 0)
(-0.000954073 0.00866114 3.94207e-20)
(-0.0250438 0.0111766 1.92321e-19)
(-0.00150166 0.000829157 1.347e-20)
(-0.000684114 0.00243192 1.53589e-21)
(-0.000416877 0.000659732 4.0293e-20)
(-0.00260619 -0.00155074 0)
(-0.00101006 0.00318453 0)
(-0.0124985 0.0180744 3.33077e-22)
(0.0317183 0.000606425 5.60683e-21)
(0.000272605 0.000278391 0)
(0.00465358 0.00984404 1.09876e-19)
(-0.00161559 0.00082494 -7.23824e-20)
(0.0018825 -0.0637376 1.23128e-19)
(-0.000591826 -0.000335242 2.02555e-20)
(-0.00404898 -0.0036795 1.18552e-19)
(-0.000260742 0.000595821 2.79832e-20)
(-0.04101 -0.00350489 -1.33196e-19)
(0.010858 -0.00472539 3.83625e-19)
(0.00666658 0.00401127 0)
(-0.00682662 -0.00839502 2.33857e-19)
(-0.00881338 0.0029851 -5.65e-20)
(-0.0251955 -0.00541217 -9.9073e-20)
(-0.00234373 -0.00309229 -3.33433e-20)
(0.00933081 0.00902287 -1.69799e-19)
(-0.000116036 -0.000286464 0)
(0.0252555 -0.00611957 7.18783e-20)
(-0.00258445 0.00389053 -1.25232e-21)
(-0.0026138 0.000370888 6.72894e-21)
(-0.00500086 -0.0177311 9.81935e-20)
(-0.00908531 -0.019888 -7.18058e-19)
(-0.0410959 0.0455176 -3.67979e-20)
(-0.00173573 0.000237693 0)
(5.75548e-05 0.000100762 0)
(-0.0568096 0.0116319 0)
(-0.00481973 -0.0105701 1.81689e-19)
(-0.00194215 0.00202405 4.61275e-20)
(-0.000181338 0.000178471 2.48132e-21)
(4.86218e-05 1.63788e-05 1.59749e-20)
(-0.00677877 7.9943e-05 0)
(-0.000652131 -0.000463261 -1.23328e-20)
(0.0682637 -0.0138468 -2.97239e-20)
(-0.00921664 0.00585825 -1.04228e-19)
(-0.0280665 0.00252006 -1.00012e-19)
(0.0189587 -0.00703557 -7.10009e-20)
(-0.0198276 0.00485027 -3.15931e-20)
(0.00141536 0.000836669 -1.08193e-19)
(-0.010478 0.00862949 -1.67618e-21)
(0.00505558 0.00855254 1.48896e-19)
(-0.00237596 -0.000623602 -1.54374e-20)
(0.0598026 -0.0247892 0)
(0.0118525 -0.0125052 -8.40428e-20)
(-0.00138709 -0.00541233 -6.42825e-21)
(-0.00513339 0.000424468 1.57287e-19)
(-0.00680011 0.0124351 -1.9596e-20)
(-0.000307532 0.000574129 2.56835e-20)
(0.00990831 0.00555613 4.38587e-20)
(-0.0157142 -0.0589638 0)
(-0.0226839 -0.0258236 0)
(0.0178487 -0.0018573 0)
(0.0027259 -0.0293158 2.08347e-19)
(-0.0393611 0.09826 7.54779e-19)
(-0.004137 0.00202596 -6.98044e-20)
(0.00026198 0.000376594 -7.28491e-21)
(-0.00509506 0.00235605 0)
(-0.00226034 -0.00627554 -4.12291e-20)
(-0.00877871 0.00862383 -5.96384e-20)
(-0.032419 0.0112393 -1.74882e-19)
(-0.0593897 0.00354584 0)
(0.00815314 0.0659292 -7.98919e-20)
(0.00915644 -0.0102848 -8.60895e-20)
(-0.00126712 0.000378866 0)
(-0.0162984 0.0137402 2.26667e-20)
(-0.0373388 -0.00241861 1.22059e-19)
(0.00165772 -0.0064515 -1.17961e-20)
(0.0282529 -0.000212326 0)
(-0.0143343 -0.019966 -2.97757e-20)
(0.0200473 -0.0176247 1.97948e-19)
(-0.000994594 0.00303321 -8.62834e-20)
(-0.00669455 -0.00280346 7.52025e-20)
(0.0267131 -0.000636319 2.05103e-20)
(-0.00320727 0.000694629 0)
(-0.00536258 0.00373551 0)
(-0.00188724 -0.00892149 2.20167e-19)
(-0.00152225 0.0021304 1.06874e-19)
(-0.00013257 -9.05335e-05 0)
(0.015026 0.0117445 1.1495e-19)
(0.000253658 0.00192156 -4.65919e-20)
(-0.00591266 -0.00793828 -2.47414e-19)
(-0.000305199 0.000631113 5.26605e-22)
(-0.00215091 -0.000852358 -2.2199e-20)
(-0.00139865 0.00063114 0)
(0.0301246 -0.0136641 0)
(-0.000151452 -0.000524816 4.504e-22)
(0.0223654 -0.0559873 0)
(-0.00463921 -0.00397072 1.32513e-20)
(-0.00166337 -0.000209759 4.58083e-20)
(-0.00108653 0.00255776 0)
(0.00123091 0.00236009 -6.3495e-21)
(-0.0481383 -0.00155234 -1.52353e-19)
(-0.0420049 -0.00237647 1.0428e-19)
(-0.000190817 0.000260817 -1.80933e-20)
(0.0190826 0.0353643 0)
(-0.00325721 0.000678628 0)
(0.031356 0.000326369 1.24826e-21)
(-0.0194139 0.00435131 0)
(-0.000123284 9.34899e-06 -1.2553e-20)
(-0.00590402 -0.00088729 -8.16466e-20)
(-0.0100662 0.00113045 -1.18231e-19)
(-0.0167084 0.00211688 4.19829e-19)
(0.0207935 -0.0031359 1.58897e-20)
(-0.000616696 -0.00136228 0)
(-0.0646834 -0.095796 0)
(-0.0158317 -0.00892692 -9.65069e-20)
(0.0186012 -0.0155267 0)
(-0.0382911 0.0344728 4.38884e-22)
(-0.0380393 0.0018441 -2.95696e-19)
(-0.00140164 -0.000965715 1.05247e-21)
(0.000116096 0.00532411 1.01055e-19)
(0.000774352 0.0095789 0)
(-0.0373258 0.0382748 0)
(-0.0208539 0.0137711 9.00944e-20)
(-0.000566557 0.000722549 2.00863e-20)
(0.0123671 0.016933 0)
(-0.0452511 -0.001419 2.40416e-20)
(-0.00935549 -0.0359438 1.1454e-19)
(-0.000294877 0.000526344 -2.75052e-20)
(-0.000210477 -0.000263745 3.19347e-21)
(0.020416 -0.00383638 4.94387e-20)
(-0.000219181 -0.000371332 9.85314e-23)
(-0.000189723 0.00021959 -5.78298e-21)
(4.15148e-05 1.91107e-05 0)
(-0.00051901 0.000407719 7.61694e-22)
(-0.0466309 -0.00162709 -9.05367e-20)
(-0.022088 -0.0478402 -2.35415e-20)
(2.69564e-05 -0.00430978 -9.94477e-20)
(0.00776064 -0.00166046 -1.07011e-19)
(-0.00188144 0.0264014 -4.17982e-20)
(-0.173281 0.103461 4.71941e-19)
(-0.00136025 -0.000363616 -1.38668e-21)
(-0.0304434 0.00267983 -4.52333e-20)
(-0.000112769 -0.000723493 -1.79534e-22)
(-0.0255182 -0.0263192 -1.72658e-21)
(0.0270539 -0.0207617 2.53897e-20)
(-0.00153746 0.000528288 -7.11496e-21)
(-0.000279156 -0.000133662 0)
(-0.0348599 0.00200721 0)
(-0.0199339 0.0112301 -3.14223e-19)
(-0.000193572 -0.000295029 -6.60292e-21)
(-0.00379114 0.00607081 4.25366e-20)
(-0.00947278 0.0173614 0)
(-0.000172284 0.00306828 0)
(0.0203828 -0.00680378 6.52438e-20)
(-0.000331526 -0.000365624 0)
(-4.12449e-05 -8.73315e-05 -2.91725e-21)
(4.11972e-05 7.33254e-05 1.24712e-20)
(0.00229875 -0.0018059 -2.23416e-21)
(0.00317183 -0.0184569 0)
(0.00133759 -0.00415492 8.52147e-21)
(-0.00020927 0.000180274 1.17132e-21)
(-0.000552967 -0.00394443 -2.65176e-20)
(0.024462 -0.00940074 4.78403e-19)
(-0.00149541 -4.95838e-05 2.52181e-20)
(0.000116816 0.000735112 6.64871e-20)
(-0.000195735 -0.000279253 -3.55689e-21)
(-0.0298628 0.00771223 0)
(-0.00177619 -0.00494448 -6.87555e-21)
(-0.00180713 0.00448078 0)
(-0.000264686 1.20612e-05 0)
(-0.000164014 0.000540062 -2.65894e-20)
(-5.25008e-05 -4.44908e-05 0)
(-0.0457256 -0.000405973 4.97611e-20)
(0.0229225 -0.00634932 -1.00478e-19)
(-0.0659693 0.0358196 1.85821e-20)
(-0.0193658 -0.010495 0)
(0.0123251 -0.00582861 -4.07961e-20)
(-0.0187163 -0.0400293 -1.27553e-19)
(-0.000134504 -0.000367402 -1.05826e-20)
(-0.0773561 -0.0874567 1.51419e-20)
(-0.000161641 -0.000783522 -7.67299e-21)
(-0.00131296 -0.00117134 8.09721e-21)
(0.00641258 0.00803959 -1.7679e-19)
(-0.000308798 0.0311863 9.24374e-20)
(-0.00500458 0.00783339 0)
(-0.0058747 0.00680445 -9.37989e-20)
(-0.0412176 0.134261 9.74551e-19)
(0.0035621 -0.0117555 3.59183e-20)
(-0.00222355 -0.000881592 4.88783e-21)
(-0.000358976 -0.000176731 0)
(-1.09861e-05 -0.000565677 -2.23799e-20)
(0.00811541 0.0196376 0)
(-0.000507999 0.00202791 4.68445e-20)
(-0.00194425 0.0014297 6.46715e-22)
(-0.000572168 0.00307737 -4.42824e-20)
(0.000729067 -2.82083e-06 1.68431e-20)
(-0.000630096 -0.0136515 -9.52126e-21)
(-0.0713686 0.0326989 0)
(-0.000366745 0.000681072 -3.00367e-20)
(-0.0152308 -0.027132 0)
(-0.000803241 0.00106101 4.00521e-20)
(-0.0301564 0.0110915 4.1748e-20)
(-0.0430177 -0.0335325 0)
(-0.0181369 0.0147815 3.21537e-20)
(0.000209378 0.000207862 0)
(-0.00017693 -0.000282033 3.32776e-21)
(-0.0555323 -0.0490147 3.10769e-20)
(-0.00025033 -0.000117381 -7.89602e-21)
(0.0230996 0.0021206 0)
(0.0398504 -0.0369595 0)
(-8.90279e-05 -0.000503821 -8.13644e-21)
(-0.000152442 0.001015 0)
(-0.000866036 -0.00114806 0)
(0.0122263 0.00480051 -5.97535e-20)
(0.0265516 -0.0217599 4.4771e-20)
(-0.0306793 0.00378485 7.95597e-20)
(-0.00522153 -0.00557591 -3.80877e-20)
(-0.0338969 0.00695594 0)
(0.000219801 0.000249738 -3.12629e-21)
(0.0021837 -0.009341 0)
(0.0513744 -0.03444 0)
(2.45161e-05 -2.54115e-05 5.64651e-21)
(-0.239858 -0.00190495 1.51927e-19)
(0.00322077 0.00460326 -6.89291e-20)
(-0.00195142 -0.00283295 -1.3539e-20)
(-4.8434e-05 -0.000453003 2.8221e-20)
(-0.00263678 0.00158112 3.37371e-21)
(-2.72624e-05 -0.000425778 -2.27296e-20)
(-0.0197799 -0.0117193 0)
(-7.46007e-05 -0.000549679 9.29055e-21)
(-7.57417e-06 -0.000174728 -2.91394e-20)
(0.00598291 -0.00244211 9.91753e-20)
(-0.00596138 0.00381713 1.75355e-19)
(-0.000308701 -0.0003591 0)
(0.00461455 -0.0297344 -1.27325e-19)
(-0.000273253 7.01287e-06 0)
(-0.0229974 -0.00395624 -1.67258e-21)
(0.00146873 0.000684706 0)
(-0.000420349 0.000351605 -2.97565e-21)
(-0.0010025 -0.000278346 2.92365e-20)
(-0.00033789 0.000568258 0)
(-0.00202561 0.00937052 8.95971e-20)
(-0.000357621 -0.000231802 0)
(-0.000218927 0.000625927 5.82781e-20)
(0.0111879 0.0376465 4.19111e-21)
(-0.00227891 0.000597445 5.88893e-20)
(0.0233261 -0.00464504 1.76791e-20)
(-0.0060794 -0.0092136 -6.75984e-20)
(0.000161147 0.0003977 -5.28333e-20)
(-0.0288769 -0.035421 0)
(-0.0126149 -0.00360761 0)
(-0.00304059 0.00794676 -2.13422e-20)
(-0.000100529 -0.0004325 0)
(0.000494829 0.00272637 -5.03156e-20)
(-0.000108534 -0.000702012 -2.06575e-20)
(-0.000119525 -0.000633891 4.52752e-21)
(-0.000628657 0.00355952 1.01659e-19)
(-0.000351094 -0.000828387 0)
(-0.0036535 0.00192531 -1.06729e-21)
(-0.0206887 0.0134891 -1.18275e-19)
(-0.00924016 -0.0244829 0)
(0.0132771 -0.0537869 -6.25606e-21)
(-0.0301862 0.0171811 5.12378e-20)
(-0.0017814 -0.00521358 -8.04735e-21)
(-0.00197054 0.0121112 3.75995e-19)
(-0.00725805 -0.00625127 5.25999e-20)
(-0.0262914 0.0119509 7.62354e-20)
(-0.000120633 2.00093e-05 -3.21771e-21)
(-0.00604098 -0.00919628 -2.58798e-20)
(-0.0405614 0.0990317 0)
(-0.000744895 -0.00156598 3.31647e-21)
(-0.0215694 -0.0419768 0)
(0.000166268 0.00163668 -2.79253e-20)
(-0.0010208 0.000121909 -3.46345e-20)
(-0.00362146 0.00483733 -2.32468e-19)
(-0.000675564 -0.00121393 -4.67544e-21)
(-0.0005789 -0.000839982 -1.31839e-22)
(0.0335965 -0.000449734 0)
(-0.00106956 0.00908943 -7.44558e-23)
(-0.00109924 0.00260428 0)
(-0.000709592 0.00236638 -5.9003e-20)
(-0.000223365 0.000510906 -3.8019e-22)
(0.00308077 0.0133785 0)
(-0.000629975 -0.000177252 0)
(-0.000516695 0.00139817 5.079e-20)
(-0.0193021 -0.00649986 4.49571e-22)
(-0.00552671 -0.00287208 -3.46152e-20)
(-0.00207364 -0.00270896 1.094e-20)
(-0.000893843 -0.000257115 4.96115e-21)
(0.0150761 -0.00643906 0)
(-0.00233108 0.000543769 -1.73108e-20)
(-0.00133067 0.0020489 4.36949e-20)
(-0.000858081 0.00268687 0)
(-0.134208 0.209839 -1.48489e-18)
(-0.00134049 0.00121267 -4.29871e-20)
(-0.000420758 -3.98702e-05 6.3929e-21)
(0.215222 -0.400841 2.26751e-19)
(-0.0419345 -0.00199674 -3.98984e-20)
(-9.44387e-05 0.000419651 3.97373e-20)
(-0.00178807 -0.00451115 -1.89538e-19)
(-0.000518279 -0.00107469 -1.51182e-22)
(-0.000903418 0.00152063 6.47906e-20)
(-0.0115845 0.0297802 -1.18805e-18)
(-0.00217323 -0.0104408 2.57364e-20)
(-0.0381044 0.0340793 -3.39201e-21)
(5.55027e-05 1.53219e-05 -1.89539e-20)
(-0.00112117 0.00100154 2.3865e-20)
(-0.0208549 0.0408129 0)
(-0.00130451 0.0014592 7.67527e-20)
(-0.0152736 -0.0240582 7.55423e-20)
(-0.00151911 0.000232123 7.19801e-20)
(-0.000347863 -4.32203e-05 0)
(-0.000595972 -0.00106208 0)
(-0.0147166 0.00554029 0)
(-0.000377766 -0.00144481 -1.23315e-20)
(-0.0126242 -0.00287609 0)
(1.24578e-05 1.02003e-05 -2.67423e-20)
(0.0193336 -0.148974 0)
(-0.06189 -0.0032966 1.71077e-20)
(-0.0158075 -0.00413498 -1.81901e-19)
(-0.0267136 -0.00253324 4.46571e-20)
(-0.000635313 -8.26495e-05 -6.42071e-22)
(0.0371199 -0.0629717 6.33105e-19)
(-0.000249804 0.00166255 1.13446e-21)
(0.00366123 -0.00798598 1.05729e-19)
(0.0351923 -8.20945e-05 0)
(0.000303957 0.000171185 -1.67302e-22)
(2.36438e-05 5.50453e-06 0)
(0.0218682 -0.00548618 1.43621e-20)
(-0.013114 0.00649162 -3.62308e-20)
(-0.00254788 0.010974 0)
(-0.00294928 -0.000518723 -3.90602e-20)
(-0.000337647 0.000125873 -1.57676e-20)
(-0.0403177 0.0115098 6.72657e-20)
(-0.000661062 -0.0016427 7.02612e-21)
(0.00742893 -0.0176268 5.63179e-20)
(0.000246614 -0.00185336 2.68046e-20)
(-0.000803977 0.00286799 0)
(-3.65731e-05 0.000526852 -1.14801e-20)
(-0.009502 -0.113415 3.25828e-20)
(-0.000243405 -0.000176228 -8.27662e-21)
(-0.00278489 0.0153145 3.93805e-20)
(-0.0403599 -0.0025839 1.1347e-19)
(-0.0404581 0.00982534 -1.33672e-19)
(-0.000429586 -0.000339576 0)
(0.00607547 0.010774 1.41584e-20)
(-0.000461958 -0.000479821 3.32743e-21)
(0.00137249 0.00494428 -9.67723e-23)
(-0.0484243 -0.111993 -1.08554e-19)
(-0.0131045 0.000100866 0)
(0.0031316 0.00380878 7.55375e-20)
(0.000148234 0.000338453 4.70322e-20)
(0.0156118 0.0288445 -6.34553e-19)
(-0.00265408 0.00425966 7.09344e-20)
(-0.000372756 0.00013454 0)
(-0.0207896 -0.00785722 0)
(-0.000251787 -7.14019e-05 -7.70863e-23)
(-0.18076 -0.015499 0)
(-0.0271158 -0.00125147 0)
(-0.00252592 -8.72184e-06 5.00832e-20)
(-0.0398363 0.010658 1.42655e-19)
(-3.65229e-05 -0.000420152 -1.15177e-20)
(0.0038256 -0.0463949 0)
(0.0223384 -0.00227252 -3.14148e-20)
(0.00799355 0.000660764 1.41474e-20)
(-0.000257282 -6.31759e-06 2.35539e-21)
(-4.37442e-05 -0.000664086 -8.02628e-21)
(-0.000799043 -0.00119197 4.75564e-21)
(-0.00391298 0.000676495 3.47605e-21)
(6.24304e-05 1.0084e-05 -1.95394e-20)
(-0.00155222 0.00267589 -2.84625e-20)
(-0.00133604 0.00124784 0)
(0.000535197 0.000440518 -2.30363e-20)
(-0.00490868 -0.00382301 6.76409e-20)
(-0.000555779 0.000426048 0)
(-0.00267316 0.0205191 -4.03554e-20)
(2.54464e-06 -4.33409e-05 3.50107e-22)
(-0.000448104 4.38414e-06 0)
(-0.00970605 -0.00313657 -1.3885e-19)
(-0.0364963 0.0029197 7.28984e-20)
(-0.00167841 -0.00753662 0)
(-0.000537034 0.000289923 2.32678e-20)
(-0.0375642 0.0121998 0)
(-0.000449863 -0.000444947 1.23332e-20)
(-0.00178231 0.00148369 -8.23722e-20)
(-0.000339993 0.000120856 -1.92277e-20)
(0.00113936 0.00214751 -3.39929e-20)
(-0.0406294 -0.0142248 4.96829e-19)
(0.0279481 -0.0204832 -2.33288e-20)
(-0.000659014 -0.000474602 -6.93632e-21)
(-0.000179102 0.000184695 -1.97957e-20)
(-0.0130232 0.0053638 5.31041e-20)
(6.11166e-05 0.00021181 -6.06826e-20)
(0.00109625 0.00170049 -3.78853e-20)
(-0.0238026 0.00317061 -6.80681e-20)
(-0.000144384 -0.000256806 0)
(-1.44884e-05 -0.000698354 0)
(4.85642e-05 0.000240911 3.35895e-20)
(-0.000180577 -0.000248969 3.80539e-21)
(-0.000139429 0.00414809 0)
(-0.000325461 -0.000174339 -3.28606e-21)
(0.00281469 -0.00842454 -8.40661e-20)
(-0.000271477 0.0036465 -6.15575e-20)
(-0.000383325 -0.000455926 0)
(-0.00267746 -0.00341467 -2.76841e-21)
(0.000226551 0.000656949 0)
(0.0079272 -0.00162683 6.61581e-20)
(-0.0196277 -0.0177974 -1.3244e-19)
(-0.00169713 -0.00118093 2.22959e-20)
(-0.000251558 -0.000304327 2.86202e-22)
(-0.00196763 0.00144317 1.18883e-19)
(-0.00816192 0.0174536 0)
(-0.000322362 -0.000154994 6.73653e-21)
(-0.00123134 -0.00162663 -8.53201e-20)
(4.60433e-05 7.20749e-05 0)
(2.36157e-06 -0.000101137 1.46045e-20)
(0.0225679 -0.00233377 9.12658e-21)
(-0.00475705 -0.00731087 1.36879e-20)
(-0.000753961 -0.00153756 9.45639e-21)
(-0.000142777 -0.00058699 0)
(-0.00145127 0.000914264 -4.12423e-20)
(-0.000213144 0.000194735 2.79861e-20)
(0.000592002 0.0025769 0)
(-0.0109224 -0.00393609 1.53339e-19)
(0.0206997 -0.00301672 -2.74105e-20)
(-0.0262639 0.00148032 -2.05981e-19)
(0.00125358 -0.0412968 -2.06442e-19)
(-0.0199742 0.0302895 -7.42311e-21)
(-0.000585641 0.00150769 -4.54026e-20)
(-0.00603035 0.00226823 4.65478e-20)
(0.000594759 -0.00240249 0)
(-0.00304533 0.00721346 1.61892e-20)
(-0.0112859 -0.0229313 0)
(0.0125831 -0.00539855 9.45486e-20)
(-0.000346154 -0.000374094 -1.39112e-20)
(-0.000207542 -0.000267176 -2.3194e-21)
(0.00663766 -0.0022008 0)
(-0.000443194 -0.000530791 -9.07404e-21)
(-2.36112e-05 0.000298873 0)
(-0.0141075 0.00687554 -9.26339e-20)
(0.000266719 0.000621355 -4.32986e-20)
(-0.00182743 -0.00465492 7.75274e-21)
(-0.00403244 0.0035542 -3.31591e-20)
(-2.30434e-05 -7.20859e-05 6.94476e-22)
(-1.71701e-05 0.000284471 0)
(-3.35027e-05 -0.000436859 -7.93274e-21)
(-0.00637812 -0.0962815 0)
(-0.0108815 0.00447109 4.14249e-19)
(-0.00454277 0.00147476 5.41073e-20)
(-0.000522019 0.000343299 2.84335e-20)
(-0.000911522 -0.000146982 -6.68135e-21)
(-0.000237078 5.19493e-05 -9.69115e-22)
(-0.000882482 0.00385176 -2.69851e-20)
(0.00847044 0.00572636 0)
(-0.000746809 -0.00447626 -3.17737e-20)
(0.0138506 0.00477347 0)
(-1.55928e-05 -0.00068873 -3.93307e-21)
(-0.000470032 -0.000372992 -2.58281e-21)
(0.00106055 0.00126877 0)
(-0.00140445 0.000275601 -2.66576e-20)
(-0.000187953 0.000153927 0)
(-0.00126758 -0.0956569 1.6034e-19)
(-0.000452656 -0.0018061 0)
(-0.0178234 -0.0183886 2.33028e-19)
(-0.0122786 0.00331124 1.34333e-19)
(0.000185473 0.0131275 0)
(-0.00029186 -0.00126788 6.41634e-20)
(0.000228662 6.01417e-05 2.21883e-20)
(-5.71899e-07 -5.19152e-05 -1.41138e-22)
(-0.00110855 -6.51589e-05 0)
(-0.000216411 -0.000160806 1.52337e-20)
(-0.024084 -0.00496254 -7.19321e-20)
(0.00185989 0.0132954 -3.2346e-20)
(0.000222176 0.00141583 7.99809e-21)
(-0.000566113 0.0114809 0)
(-0.0021236 0.0152168 0)
(-0.0280101 0.00192545 0)
(-0.000191973 0.000309028 0)
(-0.013009 0.00509597 0)
(-0.000119123 -0.000633131 -1.25007e-20)
(-0.0442864 -0.00162526 -1.01885e-19)
(-0.001204 -0.00243514 0)
(0.0163159 0.00391639 8.72285e-20)
(-0.0188951 -0.0457001 -4.5733e-20)
(-0.0626461 0.0110825 3.56851e-20)
(-0.00158727 0.00470524 8.52173e-20)
(3.79954e-05 -0.000116937 7.22537e-21)
(-0.00348333 0.00419717 0)
(-0.00157197 0.000369333 -4.8058e-20)
(-0.000118994 -0.000314067 9.20453e-21)
(0.0204304 -0.00365203 6.96542e-20)
(-0.0252448 -0.00176875 0)
(-0.0018086 0.00483893 0)
(-0.00136218 -0.000196342 0)
(-0.00018847 0.00014791 0)
(-0.0236761 0.00103228 -8.43862e-20)
(-0.000686343 -0.0010621 -6.62197e-21)
(-0.000168323 0.000217772 2.61916e-20)
(0.0692125 0.0719564 7.4751e-20)
(-0.00124287 -0.00273169 5.32774e-22)
(-0.0269417 7.82865e-05 1.4678e-19)
(-0.0520907 0.00682417 -1.08195e-20)
(-0.000193388 0.000369775 0)
(-0.0131131 0.0023378 1.11747e-19)
(-7.20712e-05 -0.000599936 0)
(-0.000192582 -0.000234406 1.73594e-20)
(0.0160075 0.00139917 -1.66694e-19)
(0.001239 -0.0221777 0)
(1.13311e-06 -1.19939e-06 -4.37206e-21)
(-0.0108013 0.0311495 7.58755e-20)
(-0.00014191 -0.000631982 -1.03471e-20)
(-0.00528227 -0.00201451 0)
(0.0309349 0.00492062 -1.64545e-18)
(-0.00411982 0.00564262 1.13808e-19)
(0.0328736 7.66133e-06 0)
(-0.00822844 -0.00377765 0)
(0.0106099 -0.0117598 1.05804e-19)
(0.00178164 0.0146048 -2.8924e-20)
(-0.0487379 -0.0177716 0)
(-2.18694e-05 -0.000572548 -1.32029e-20)
(-0.00373511 0.00488136 4.02922e-21)
(-0.0347466 0.0481591 -2.2959e-19)
(-0.0377704 -0.00301808 0)
(-3.52444e-05 0.0185915 2.91547e-20)
(-0.00433107 -0.000682329 2.48194e-20)
(0.0226927 -0.00214792 -2.86693e-20)
(0.0227193 -0.00719418 2.27545e-21)
(-0.0250983 0.0211709 -1.78036e-19)
(-0.00674928 0.0310734 1.92579e-19)
(-0.0544014 -0.0217213 2.13021e-20)
(-0.000589326 -8.39933e-05 -1.83375e-20)
(-0.000419668 -0.000619513 0)
(-0.0189139 0.0078565 1.07379e-19)
(-0.000427139 -0.000150334 6.09619e-21)
(-0.0460103 -0.00218025 6.1344e-20)
(0.00516854 0.00734227 -9.45661e-20)
(-0.000844113 0.00137155 -6.36134e-21)
(-0.107186 0.413241 1.12549e-19)
(-0.0019369 0.0102406 -5.21494e-20)
(0.00128291 0.00201733 7.57351e-21)
(-0.0019414 0.000396832 -5.45182e-20)
(-0.000200823 0.000306762 1.505e-20)
(5.7918e-05 -0.000177857 -1.56684e-20)
(-0.000576567 -0.000436655 1.39031e-20)
(-0.0322444 0.0270367 0)
(0.000372623 -0.00625445 6.06648e-20)
(-0.000135427 -1.44995e-05 7.20457e-21)
(-0.0206083 -0.00619432 -7.73993e-20)
(-0.000242577 -4.38261e-05 2.31949e-22)
(-0.00677217 0.0532976 -4.43228e-20)
(0.0011758 -0.00232705 1.13002e-19)
(0.014135 0.00505171 4.8385e-20)
(-0.000436939 0.00144186 1.25071e-20)
(0.0177115 0.00398177 -1.05141e-19)
(-0.000103829 0.00145653 6.4446e-22)
(4.69844e-05 1.0502e-05 -1.17927e-20)
(-0.0012561 0.00173383 0)
(-0.0032663 -0.00874033 -1.24291e-20)
(0.0014962 -0.000489985 1.58238e-20)
(-0.000133261 -1.67136e-05 6.53296e-21)
(-0.000168281 -0.000296501 3.17976e-22)
(-6.72869e-06 -2.64118e-05 8.56674e-22)
(-0.00323014 0.00452308 -6.69315e-21)
(-0.000100427 -0.00022393 1.95295e-20)
(-0.00888876 -0.0120687 1.82142e-19)
(-0.0715934 0.0378865 -1.2958e-19)
(0.0159081 -0.00709318 0)
(0.00680912 0.00208045 0)
(0.00117488 0.0016665 5.31277e-20)
(-0.0107436 0.0350039 0)
(-0.0346714 0.0102448 -4.8878e-20)
(-0.000260703 -1.97044e-05 2.95649e-21)
(-0.000744182 0.00164401 -6.10302e-20)
(-0.000385401 -0.000425398 0)
(-0.000702515 -0.000913626 0)
(-0.00965342 -0.0143693 -3.91137e-19)
(-0.000118547 -0.000613018 0)
(-0.000123749 0.000301546 0)
(-0.00112037 -0.00153399 5.14572e-20)
(0.0227895 0.101979 1.38632e-19)
(-0.000940492 0.00047822 -4.81823e-20)
(-0.00226716 -0.0054966 0)
(0.021382 -0.00443445 9.48118e-20)
(-0.00620593 0.0023821 1.40063e-20)
(0.00255541 0.0409107 0)
(-0.000354767 -4.49202e-05 -3.01101e-21)
(-0.000198231 4.84183e-05 -6.95921e-21)
(-0.0497857 -0.00540292 0)
(-1.40719e-06 -2.91923e-05 3.58047e-21)
(-0.00111703 -0.000970285 -1.46033e-21)
(0.00196973 0.00174497 3.17272e-20)
(-9.99086e-05 -0.000220795 0)
(3.81323e-05 0.000243693 1.00267e-20)
(-0.000155822 -0.000226765 2.42354e-20)
(-0.0103934 -0.0150517 0)
(-0.0330686 -0.00493167 2.77579e-19)
(-0.000326638 -0.00154523 1.24e-20)
(-0.00122982 0.00112617 -3.63418e-20)
(-0.0140723 -0.0765878 0)
(0.00374986 0.00337667 -5.75458e-20)
(0.000278008 0.000351981 -2.7155e-20)
(-0.000312839 0.00062706 0)
(5.04468e-05 1.00295e-05 -1.81071e-20)
(-0.000601944 0.00633485 0)
(0.0147095 -0.00607189 -1.09829e-20)