/*--------------------------------*- C++ -*----------------------------------*\
| =========                 |                                                 |
| \\      /  F ield         | OpenFOAM: The Open Source CFD Toolbox           |
|  \\    /   O peration     | Version:  v2012                                 |
|   \\  /    A nd           | Website:  www.openfoam.com                      |
|    \\/     M anipulation  |                                                 |
\*---------------------------------------------------------------------------*/
FoamFile
{
    version     2.0;
    format      ascii;
    class       volScalarField;
    location    "300";
    object      ddt0(omega);
}
// * * * * * * * * * * * * * * * * * * * * * * * * * * * * * * * * * * * * * //

dimensions      [0 0 -2 0 0 0 0];


internalField   nonuniform List<scalar> 
18598
(
0.00224046
0.0244625
-2.03008e-08
0.0107907
-3.35116e-06
0.00177069
-0.00641004
1.03428e-07
0.088527
-0.167955
-1.90491e-06
-0.0905317
-1.21541e-06
-0.0914813
2.49139e-07
0.0830899
0.285166
0.000717201
8.05239e-05
-0.528845
-6.11809e-06
4.88153e-06
-0.00631198
3.50086e-06
5.67459e-07
0.304061
0.0265205
-1.34687e-06
0.0698226
0.00776255
0.00136246
-1.35174e-08
0.000111432
0.0146861
-0.0121118
-0.0717808
1.04184e-06
-4.4066e-06
-3.22236e-06
0.236075
-0.020474
-1.07327
0.105268
-0.121854
0.000256804
-7.90681e-05
4.47842e-07
-0.36436
3.34668e-07
6.79852e-07
-7.5659e-07
5.70224
0.141876
-0.00191023
4.60731e-06
-6.49893e-07
-8.47493e-07
-5.78101e-08
-6.34574e-08
-0.0072858
-0.232041
-0.0391298
-2.30796e-07
-6.50233e-06
0.0217765
1.1227
3.06204e-07
1.20594e-05
0.733869
6.18869e-08
-0.000455636
0.00145203
0.345368
0.100476
9.43598e-07
-0.00245361
1.06549e-06
-7.89409e-07
-0.0389122
-0.000358006
-0.576901
3.32439e-05
-5.45358e-07
0.29042
0.00012662
0.0346885
2.14481e-07
-0.0956466
-8.67406e-07
-0.00348289
0.000152326
-0.0343743
0.000976114
-0.00754478
-3.7575
-1.04992e-05
0.319172
-7.60081e-06
-0.478239
0.0247362
-2.01167e-06
-5.82718e-08
0.00153039
-0.00519644
0.0118647
8.49112e-05
0.0115188
-0.327663
3.25248e-07
-0.00480761
5.53311e-05
-0.249309
6.06704e-07
-0.000427424
-0.0224124
5.28059e-05
-0.497379
0.00217261
-0.000733591
1.23412e-06
0.042404
1.17608e-06
-3.53669e-06
-0.000851597
0.462685
-1.61018e-05
-0.000252657
-0.00700559
0.00918918
6.03365e-07
-1.70068e-05
-0.0264133
0.196864
-9.53212e-05
2.38404
-2.03405e-07
0.0178194
-1.61307e-06
7.15264e-07
-0.017123
-0.00783663
9.09724e-06
-2.38716e-07
0.15792
-2.11812e-06
-0.000131479
-0.839512
-0.0362573
-1.22241e-05
-0.000353705
1.92095e-05
0.000410597
-1.76566e-06
0.204207
-1.9585e-06
-1.31234e-06
0.361479
1.69244e-05
-1.17158e-06
-9.02873e-05
-0.065734
-0.00537014
-3.02541e-07
-8.34191e-07
3.94405e-07
0.148486
-0.025419
-2.9113e-07
0.00799862
0.0176012
1.29842e-06
-0.0269955
0.125035
0.0106385
-0.000320803
1.61906e-06
-0.0551425
2.48193e-05
-0.000723372
0.270539
-0.00194529
0.0116424
-0.0210227
0.000152745
-0.15159
-0.000388219
-0.0530606
0.418471
1.05714e-06
-0.0387826
7.44613e-05
2.34056e-06
-0.0342863
-0.0466449
-0.00211721
2.50446e-06
0.0750536
-0.353549
-0.0490148
0.0717974
-0.25206
-7.33511e-07
-0.00874993
-7.15458e-08
0.000806171
-0.607247
-0.558799
1.46439e-06
8.65536e-05
-0.000418227
0.00477971
0.210991
5.43024e-07
-0.052366
0.0783186
-0.00532066
0.0414453
7.14172e-05
2.66296e-07
0.0465147
-9.36492e-07
-4.78241e-06
7.19981e-06
1.20708e-06
-0.000276637
1.81078e-05
-1.1884e-05
-1.93001e-06
-0.00714082
-3.99232e-07
0.0825105
0.222281
-3.05434e-06
-5.29404e-06
0.0542448
-0.674091
5.53662e-05
-0.00125222
-1.88874e-06
0.000457898
0.00019314
-0.00583077
-0.219841
-1.06277e-06
-0.00404197
1.51934e-05
-0.0148997
4.25701e-06
-0.00296283
1.50948e-06
0.303023
0.0238863
-0.0954685
0.226558
-0.00832048
0.0151041
0.00200394
0.871288
-1.18029e-06
0.27109
-0.000920468
0.0290501
0.657759
-5.99791
-0.697909
-4.18309e-05
-1.10806e-06
-0.0499071
-0.00806937
-0.000212945
7.19545e-07
-3.59046e-07
-0.00491871
1.99848e-06
-4.6203
-0.648164
0.298399
0.314543
-0.005373
0.0442623
-0.0131356
0.544778
-0.000450478
-0.980442
0.502427
-0.000913361
-0.0243606
-0.0273339
-4.78833e-07
-0.0464226
-0.0682119
0.994518
-0.167705
-0.0292939
3.51472
-0.00640766
-1.55132e-06
-0.0283744
0.00277276
-0.00132479
-0.595631
-0.152289
0.0026577
0.431037
1.70647e-05
-0.00377938
0.303843
-0.000151171
-0.218967
-0.0798707
-0.611024
-0.000268947
0.0291995
-0.205538
-0.00486464
0.0119702
0.043802
-0.000186699
-7.27194e-07
1.89924
1.66584e-05
0.193177
3.44768e-06
-9.67815e-05
0.000341454
0.273304
8.53219e-07
-0.0456385
-0.00555948
0.000163268
0.000196771
3.84198e-05
1.49088
0.250511
1.04391e-06
0.0137079
-0.000540928
-0.263259
-0.00270697
2.9223e-06
-0.00134696
-0.00557585
-0.143759
-0.0238794
-6.28285e-06
1.00661
0.299522
-0.285697
-0.304406
0.204991
-0.000185676
0.000701065
0.000805977
-0.030404
-0.000650219
4.74742e-05
-0.00629658
0.353945
-0.0855037
2.8317e-06
-1.45631e-06
0.0866832
9.1769e-07
8.45337e-07
8.27762e-06
2.64169e-08
1.36527
-0.698238
0.0203625
-0.036673
0.00266303
-2.89456
0.00064682
0.341997
2.18485e-07
-0.774209
-0.107973
0.000344787
-7.46315e-07
0.349484
-0.453682
5.38266e-07
-0.00522108
-0.0129979
5.04941e-05
-0.834751
-3.12893e-06
-5.33215e-08
-1.10949e-06
0.000762439
0.0403402
-0.000727531
-4.68757e-07
-2.07589e-05
-2.65072
-2.32488e-05
0.00129257
1.59258e-10
0.000421685
0.000717683
2.44818e-05
-3.76685e-07
-1.50809e-06
-1.40816e-08
0.655319
0.286533
0.729667
0.464364
0.147451
-0.038172
5.67631e-07
0.738462
2.13446e-07
-0.000555905
0.106261
0.00980233
-0.00416521
0.00209175
-0.185862
-0.00626297
1.98782e-05
-2.90338e-06
-6.677e-07
17.0654
-0.000236265
-6.91724e-05
-0.000202424
-0.000221985
-0.0104179
0.366187
-1.01169e-06
0.422585
3.36635e-05
-0.000334132
-0.0260162
-0.146704
-2.13115e-06
1.17743e-06
-0.0972006
-4.41505e-07
0.525608
-0.989264
2.08737e-07
-5.90297e-07
9.05905e-06
-0.462253
-0.236764
0.165963
-0.00141962
0.325743
-2.22115e-06
0.339658
-1.09484
7.13112e-09
2.66141
0.00460597
-0.000437318
-2.08026e-07
-0.000262623
-7.33363e-08
0.0448497
-2.10874e-07
8.19201e-09
-0.0670378
-0.0142346
-2.94703e-06
0.046692
1.62591e-07
-0.0607809
8.69234e-05
-1.7356e-06
1.81597e-05
-7.77083e-07
-0.546748
-2.77351e-06
-1.6429e-06
0.0114168
-0.000353669
-0.261405
0.0216232
-1.75035e-06
1.86262
0.0224309
0.00421898
-3.14634e-07
0.000109247
4.06919e-07
2.55774e-07
0.00284805
2.5752e-08
-1.74942e-05
0.00564095
0.00668308
-0.0316547
-0.0802498
0.000339535
-0.0600995
-0.0762103
-0.507622
1.07731e-06
0.272376
0.143631
-1.14605e-05
-0.488335
-2.01421e-06
-8.68884e-06
0.146762
-1.18473e-05
8.07883e-06
-0.282857
0.00105797
-5.47144e-06
0.000157877
-3.73937e-06
-0.00331778
3.93319e-06
3.04675e-06
0.15655
-0.0860974
-5.8175e-05
9.11771e-05
0.227388
-3.32799e-06
-2.11369e-05
0.000122789
2.72139
-4.16391e-05
-2.43601e-06
-5.06374
0.247348
-2.35981e-06
-0.00643186
-6.28253e-06
9.28842e-05
0.0708106
0.207689
0.703706
-2.864e-06
3.28618e-05
0.927925
-1.00808e-05
-0.27916
7.6032e-05
2.7518e-06
2.71416e-06
0.126129
8.22801e-06
-0.0417583
-1.52161e-07
1.06334
-0.225205
-1.14504
0.0471629
-1.15102e-05
5.39728
-1.61454e-06
0.276653
-0.31075
4.19375e-06
4.03176e-09
-0.386975
-0.0177655
-0.00416912
-0.000749931
8.47616e-07
-0.198698
-5.78633e-06
4.4584
-3.62805e-05
0.000201065
-1.82226e-06
-0.188157
-8.68169e-07
-0.00927987
0.426978
-0.170812
-4.96695e-07
0.0299233
-2.25903e-06
-3.03775e-05
-0.291304
-0.018491
0.176734
-2.32182e-06
-0.389812
0.171408
2.75994e-06
0.00355442
-5.91929e-07
8.14338
0.0176803
-9.04752e-05
-0.198587
2.58202e-07
-0.0948874
-0.0574789
0.0328177
5.90041e-08
-2.98771e-07
2.97446e-06
0.000790483
-3.11904e-06
-8.08139e-05
-1.75186e-06
1.40166e-06
-0.0291133
-3.59533e-06
-0.00272105
8.12568e-09
4.17746e-06
-0.064384
0.194394
-1.41078
-2.58497e-06
-0.246588
-2.48837e-06
-0.000341467
7.6314e-07
-5.50353e-05
2.77533
-0.215472
-1.58079e-06
7.69858e-07
-0.0311767
-7.08434e-07
1.42603e-05
0.0179757
3.49307e-07
1.26693e-08
-5.32957e-07
-5.05527e-07
8.01803e-05
-2.07416e-06
0.0297749
-3.71402e-05
-3.17747e-06
0.00288703
8.96355e-05
-0.135133
-0.352725
-9.43911e-05
1.38812e-06
-0.00020554
0.039572
-2.10321e-06
0.00941976
-1.14428e-06
1.39557e-08
-0.065679
0.106811
-3.91446e-06
7.35087e-07
-9.74453e-05
4.30035e-07
0.000172536
-0.0208256
0.0746063
0.0379012
0.00061792
-0.142705
-7.7855e-06
0.000749559
-0.00240215
0.00953029
-0.000241265
0.108118
-3.07675e-06
7.7294e-07
-0.0932411
-1.56006e-06
-1.3735e-06
0.0601547
-2.51157e-06
0.0397422
-0.000303187
7.80677e-08
-1.21914e-06
1.98556e-07
-0.238701
-0.622661
0.00888218
-1.00608e-06
0.000158804
6.94397e-09
0.0128185
-0.127576
-0.000290978
0.88156
-1.33481e-07
1.58274e-06
7.15293e-05
-4.16606e-05
7.24072e-07
-0.0122902
-1.97804e-05
-0.149439
0.00124577
0.0622433
1.78967e-06
-1.03456e-06
-1.79011e-08
-0.0191608
-1.99547e-07
0.0752625
0.000222012
-1.96915e-05
0.00497636
0.047123
0.475757
1.34272e-06
0.13913
6.87652e-07
0.43955
-0.000558423
-0.105085
-0.017173
-0.0712809
0.000493643
2.35207e-08
-0.00466388
0.00490568
-1.42042e-06
0.0414228
0.123745
-0.000622217
-8.60014e-05
6.73756e-07
-0.0425946
1.35499e-05
1.22218e-06
0.198122
-3.42913e-05
0.033752
-0.103776
8.07198e-07
-0.0378259
-5.86899e-08
1.21913e-06
-0.953029
-0.0139991
1.20793e-08
-0.153887
4.2996e-07
0.00509722
1.17406
0.104487
-0.25565
-0.0143231
0.483487
-0.00295051
-0.271473
-7.23087e-07
-0.0039128
-0.674036
0.286152
-0.00104287
0.0180758
-0.0882417
0.357702
-1.01724
-0.446034
-0.315223
1.32953e-06
-4.64604e-06
0.00894684
-1.59141e-06
0.445548
0.00741867
-2.24952e-05
1.5751
-0.00198167
3.12827e-05
0.000441542
1.10449e-06
-2.43846e-08
8.17536e-06
-0.0903438
-0.0021255
-2.97155e-07
0.147732
-8.50335e-07
0.0209414
0.0758458
-0.354829
4.16119e-05
-0.0751272
-2.91767e-05
1.55578e-06
0.000146575
0.0782858
0.0134031
-3.18221e-07
1.07536e-06
-5.65894e-08
0.00438891
-6.58308e-08
-0.104331
-0.2928
-0.226332
0.206434
-5.01263e-06
-0.04057
-0.0193536
-5.06775e-08
-0.000160704
-6.06224e-06
-1.42131e-05
-0.0466362
5.49055e-07
7.34845e-07
-1.35857e-06
0.0415393
3.70719e-05
0.0805282
-0.46874
-0.00643061
0.000724608
8.53869e-07
2.00363e-07
-0.861905
-4.18454e-09
-5.4852e-05
-6.46063e-06
2.55288e-07
7.7458e-08
3.95852e-07
-0.0440816
-0.0586358
2.61415e-05
0.000274821
0.0139032
0.515184
-2.38652e-06
-3.44708e-06
-1.7566e-06
-0.00016119
-0.214713
-0.0459699
0.0234834
0.205872
-7.87965e-06
-0.0113937
5.86847e-07
-0.000434343
-0.000332797
3.16626
-0.084065
6.58688e-06
-0.202379
1.43769e-05
-9.42022e-05
-5.70052e-05
2.59323e-06
-4.89014e-07
0.0131393
0.00895732
4.14315e-06
0.001387
0.419021
0.0526069
-0.0375347
0.0644424
6.76797e-07
2.39681e-05
-3.40371e-06
1.33725e-07
0.122526
-0.282788
0.0350249
-0.00159641
-2.66974e-06
0.0286015
-4.90137e-08
-0.0738403
2.15737e-07
5.97186e-07
0.0487487
4.6262e-07
0.000137899
0.0952075
-1.07752e-05
-1.86078e-07
-4.90474e-06
-0.000185443
0.000208767
-0.529982
-0.368764
-4.48657e-06
-0.000367322
2.94388e-07
-0.947232
0.0358132
4.93811e-06
-9.44312e-06
-2.07962e-06
0.000636487
-0.0300585
-1.19485e-06
0.521016
0.00796686
-7.11052e-08
-0.214715
0.0174812
-7.44435e-06
0.50295
-5.03066e-08
-7.27331e-08
-0.0805894
-28.5806
-0.000280013
-0.104356
2.36727e-06
-0.0333968
-8.43519e-08
4.74918e-07
-9.95533e-06
-1.49914e-06
0.000238294
-9.41846e-07
0.00358508
-3.15616e-06
2.32471
0.190262
-0.00668714
-4.65119e-07
-0.02022
-0.0401718
-0.0256878
5.02865e-07
1.53894e-06
-0.837559
4.10944e-06
-9.39667e-07
-0.00960917
0.0201437
-1.64002e-06
-0.00168991
-1.43052e-06
0.0110059
0.324433
2.47316e-07
1.09854e-06
-9.02849e-09
0.109201
-9.79374e-07
-2.52939e-07
-3.98711e-07
0.0179844
-4.01902e-06
5.0549e-06
-1.01114e-06
-0.00920918
-4.65211e-05
-4.79907e-07
0.0133288
-6.59095e-06
0.25065
-0.000296182
-1.26267e-06
0.578352
-1.30727
0.0211185
-0.320504
1.81145e-07
-0.0869807
1.7389e-06
-0.0785131
0.0284878
8.04455e-07
-0.000322696
-1.52514
-0.307182
0.0301961
2.07201e-05
-0.144919
3.73008e-05
0.00284911
0.471477
0.0167917
-2.97612e-07
-2.00072e-07
1.40053e-05
-3.45598e-08
1.7636e-05
-0.000140626
0.0877505
0.00379755
0.0645097
-1.85796
0.00102632
-0.18997
-0.446273
-8.01499e-08
-0.5677
-0.0186547
0.000158552
-0.0996412
0.493054
-0.0687986
-0.164522
0.0125778
1.46125e-05
1.92474e-07
-0.00156489
4.6116e-08
0.0120224
0.045438
-0.000481108
1.19953e-06
-0.0493811
-0.000126839
-0.0196299
3.39136e-07
3.58187e-06
1.07153e-05
-4.71237e-06
-0.0763285
0.121837
-0.210915
9.44312e-05
1.63032e-05
-0.0119922
-4.06867e-06
-2.27848e-07
5.50804e-06
9.20675e-07
-0.290742
-0.00531351
1.62101e-06
-0.0637101
-4.29743e-05
0.110685
0.469794
-2.41706e-07
0.0621376
0.00158097
8.91208e-07
-3.931e-07
0.000325107
-2.85469e-07
-0.0464139
-0.684372
4.97384e-06
0.151009
0.00438706
0.00199016
0.159365
1.88499e-09
-8.76391e-08
2.54841e-06
0.00691269
-0.00744459
-9.12698e-05
-0.551608
-0.00248926
3.19054e-05
-4.68322
0.000148476
0.0775761
7.73059e-06
8.25658e-07
-0.435236
-0.00504894
-2.71962e-05
-0.0231447
-0.0127364
-5.84532e-05
0.119128
-6.51008e-07
-0.166889
1.34807e-06
0.294144
1.103e-06
-0.2383
-0.000455898
-0.402508
1.89936e-05
-0.575746
-9.3057e-09
-0.0683576
3.09204e-05
-2.64117e-06
0.00304676
-2.4257e-06
-0.00232952
-0.241538
-1.72719e-06
0.0105759
0.00698318
0.0268302
3.39756e-05
0.00646122
3.20604e-06
0.000230246
-0.174051
-3.66301e-06
0.409431
0.490416
0.0408008
4.39064e-07
0.161447
4.34471e-06
-2.47291e-06
-3.98197e-06
-0.031589
-0.0160312
7.68703e-08
-0.0356189
-0.872572
1.06041e-06
-0.293812
0.353209
0.0143358
4.06937e-06
0.00154539
-0.256078
-0.119261
0.00996241
0.000643028
0.000174679
0.000133915
-5.48811e-05
0.0849268
-9.87319e-10
7.5532e-07
-5.18939e-06
-5.30266e-07
-1.26249e-06
6.86591e-06
0.347477
-0.661833
-6.07882e-08
0.246636
0.00318258
-1.3512
-2.26832e-06
-0.000634654
-0.0195278
0.00105442
-0.00881945
-0.0306374
-3.15301e-08
-1.04427e-05
-0.000412474
-2.4317e-07
2.62993e-06
-3.86752e-05
1.60945
0.23271
-0.000716528
-2.302e-06
-2.22913e-06
6.48399e-07
-2.0502e-07
-1.32413e-05
0.19789
-0.030005
-0.191422
4.44329e-07
7.17647e-06
-4.3464e-05
0.00192704
3.47975e-05
0.473664
-2.39709e-06
-0.331888
0.0384373
-0.000105195
-1.69918e-06
1.79744e-05
-1.974e-08
0.00146103
0.000893631
-0.000263421
0.0034045
-0.145977
-5.77957
0.000788627
-0.00174387
0.00103572
0.0678142
-3.05665e-06
-0.529259
-0.293867
-0.000283889
-0.00986349
-0.000232358
-2.53106e-05
-7.43065e-06
0.0184
2.33854e-06
0.00176341
-1.37604e-05
-0.343748
-4.3436e-06
0.00165839
0.00229194
-0.00206577
0.00419802
6.12334
-4.67151e-06
-1.26457e-06
1.16607e-05
-0.0424656
7.195e-07
-2.83218e-06
-0.00264836
-0.00375259
-0.00891335
-0.0279564
0.0042684
0.249985
-3.71204e-06
-5.82071e-08
8.59956e-06
0.000899198
2.00864e-05
-0.0150308
-1.36667e-08
-3.56008e-06
-0.0198871
-0.0200149
6.34721e-07
-0.001001
0.00198556
0.0984391
8.17036e-07
1.32506
-3.36484e-06
-0.291349
-0.000121578
0.30917
0.00104238
-0.0241781
-3.47124e-07
-0.00199578
0.935272
-0.00160846
-8.37507e-06
0.0346641
4.91383
0.162357
4.91935e-07
0.0670166
0.00908385
-1.26832
0.0111418
0.208241
0.38664
5.7194e-06
-1.40058e-07
-3.38429e-07
4.91794e-07
3.21117e-05
-1.22717e-06
5.35619e-05
-2.60953e-05
-1.05367e-06
-0.301798
-0.0329735
-1.78168e-07
0.0892274
1.26617e-07
0.0244967
8.72661e-08
4.01159
-1.09987e-07
-4.70912e-07
0.0113049
-0.000127902
-0.295694
-2.42963e-06
2.80862e-06
-1.64601e-06
0.36759
-2.26589e-09
-5.74851e-08
-0.0395331
-0.111146
-1.02958
-7.22067e-06
-0.00082699
-0.0672579
3.28868e-06
1.75496e-07
0.000279903
-7.74849e-07
6.25589e-07
-0.124486
0.561181
-0.00302273
-9.19634e-06
9.32255e-06
4.5814e-05
2.92411e-09
0.475319
0.00480606
5.49261e-07
4.15113e-06
0.84216
-0.0491026
1.3973e-07
0.000796243
0.000293833
-0.545923
-6.78582e-05
-0.0145724
-0.0158321
-0.00515414
0.377741
-7.16154e-07
0.0587501
0.00580997
-3.27212e-06
-5.89745e-07
-1.17488e-06
-6.97708e-06
9.33465e-06
-0.0776052
-5.0991e-05
0.00155156
-0.33748
0.0159259
-0.0328491
0.000133473
-1.89817e-05
1.3044e-09
5.54258e-07
-8.93534e-06
0.000339636
0.00405154
-3.6982e-08
7.35291e-08
2.9005e-08
0.352261
0.200874
0.00105331
-0.0118008
4.59904e-07
4.18185e-05
0.264101
-0.000262159
-0.000660389
0.347829
-0.0555323
-0.878243
-0.00053672
-5.29746e-07
3.46598e-06
-0.0559825
-5.02115e-05
-5.17997e-07
-0.000564798
0.0140866
3.70468e-06
-1.77701
-0.0123291
-1.63033e-06
0.33151
0.00106421
0.124417
0.240825
0.0120895
2.33718e-05
-0.000147232
-0.0523025
-1.90579e-06
-4.80233e-06
1.16621e-05
-9.73405e-05
-0.0224354
-0.0540576
0.294532
-3.02606e-06
-0.0127859
-5.25348e-08
-0.00187114
-0.272958
4.56618e-05
0.196991
0.0592174
-6.23748e-06
4.54295e-05
-0.0300092
1.31142e-05
-2.90974e-06
0.0188066
3.72673e-06
2.4559e-07
-0.177463
-0.00942606
0.000433815
-0.00124136
1.54386e-06
-0.036006
0.00524458
0.0144692
0.052747
-1.46539e-06
-0.0745783
0.135323
-0.00231071
-0.000101628
0.332073
4.651e-07
0.851564
-0.258803
-0.0409995
5.11784e-05
-6.61407e-05
-4.40306e-07
3.36835e-07
-0.00363874
0.0419771
0.000514466
9.93449e-07
0.0190479
-7.66301e-07
-5.16158e-06
0.407755
-0.152702
-0.658878
4.48392e-06
0.0991303
5.19617e-07
-0.0382209
5.40709e-06
0.00333805
2.77242e-06
-9.76104e-06
-0.471332
0.029516
9.38423e-06
1.07763
-0.029439
0.0416435
5.73063e-05
-0.112096
0.0373583
-0.00010433
-1.9281e-06
-0.000128599
-0.00013758
6.27712e-07
-0.0308319
0.00115575
0.0104454
-22.7131
-5.47888e-06
0.0911589
0.0735884
5.55392e-08
2.32611e-07
-0.0247694
2.02111e-06
-0.000154292
0.147585
0.00113624
-1.76837e-06
-0.174917
-1.7632e-06
-1.18076e-07
1.36938
-1.62791e-07
-0.00469019
0.00583353
-1.05005e-07
2.20566e-07
7.56669e-06
0.0223056
-0.0460971
1.91856e-06
5.2709e-08
-1.04262e-07
0.00271441
-6.23536e-05
0.353444
1.97033e-05
1.88865e-06
0.00309348
0.00407199
-0.0405658
0.0101882
-2.59366e-05
-0.00301299
-0.000113031
-4.97224e-06
1.32336e-05
0.0266844
-1.57371
2.24442e-05
-5.17963e-08
2.04488e-08
-9.50984e-08
-0.611812
-0.255948
-2.41162e-05
-2.64888e-06
2.97029e-06
3.16314e-06
-0.000165065
-0.166933
1.30417
-8.88082e-07
-0.0256868
2.71865e-05
-0.00179957
3.97413e-08
8.016e-07
-0.0353671
0.0272518
0.0642649
3.90187e-07
-7.97326e-09
0.0096189
5.92949e-07
0.488535
-6.53388e-07
0.0184945
-0.0531171
0.000602991
-0.0303095
-2.65999e-06
0.0622905
-1.9735e-06
-0.0040743
4.53618e-07
1.07809e-05
0.00560449
9.17925e-09
0.00886959
-0.00906022
-0.562404
-0.668525
-0.669686
-1.30763e-06
-3.24769e-06
1.85824e-05
-0.00340366
-0.000886072
7.71947e-05
-1.3825e-06
-7.93586e-07
-0.0106772
-2.96709e-06
-0.00398252
0.00763167
-0.148189
-0.461591
-8.60922e-05
0.00144842
0.187982
-1.60599
-1.91535e-06
-0.0651834
-0.330446
4.41387e-05
-0.312345
-1.96874e-05
-1.60666e-06
0.0102447
0.00319496
2.52622e-06
-0.453335
0.00238632
0.0226187
1.34733e-07
-0.118827
0.028378
0.101062
-0.219811
0.0156203
0.623002
-2.55425e-06
-9.32963e-06
-0.00540601
5.76129e-07
-0.16913
1.4312e-06
5.57689e-06
0.35664
9.86928e-07
0.286476
2.46474
-9.37648e-08
2.0565e-06
0.0027413
-0.754476
-0.00317381
-2.34363e-06
-1.23663e-05
-0.00305784
0.00188678
-0.161572
4.50854e-05
-1.35079e-05
0.370452
-1.36671
0.00082969
-0.0251938
0.000324736
0.0377986
0.132193
3.21491e-07
-0.501341
0.46439
0.00561996
-8.74157e-05
7.44722e-07
3.42818e-07
6.30915e-07
-4.09258e-06
-0.291005
-2.19456e-06
-0.0706561
-7.98928e-06
2.07952e-06
-6.72223e-06
3.24305e-07
0.0202173
-0.00322548
-4.31676e-05
5.92354e-07
7.39041e-07
0.000280351
0.0402824
-2.47082e-05
0.00150085
-1.83171e-07
-7.94992e-06
0.000435734
-20.2005
7.79935e-06
0.421637
-0.000294356
-0.000314792
-3.64597e-05
-0.269335
-1.61956e-06
-2.06359e-06
-0.00032889
1.02228e-06
-0.107351
3.57696e-07
0.00633694
8.27545e-08
-0.0100248
-0.00868117
0.0277444
0.000356137
-1.01124e-08
0.0135602
2.73308e-07
4.57109e-06
2.11849e-05
-9.77139e-06
9.54104e-06
0.0539387
0.0140167
5.03943e-07
-4.04676e-05
0.00707761
-0.210865
1.63388e-06
-0.000453666
-0.421829
-0.857089
-0.032306
6.10698e-05
0.00294892
3.47198e-08
2.82874e-06
-0.0253896
-3.71053e-06
0.371009
-0.00496182
5.7487e-07
-2.35772e-06
-0.014666
0.329127
-0.0932594
-6.13596e-08
3.5231e-08
2.98651e-05
-0.109144
0.0308269
-1.86913e-05
-0.0087803
-4.54056
0.11464
0.000327016
-0.0216936
0.0439312
0.00398314
0.552025
-0.0879505
-1.71179e-07
-4.6665e-08
0.10443
0.0817725
8.5838e-07
-0.0123292
-0.0415021
-0.436742
-2.91193e-06
0.078541
1.47634e-07
-0.336787
-8.89488e-07
0.0343845
-6.67985e-08
0.000500095
-0.164248
1.57808e-06
0.00112115
-5.97372
-1.86494e-06
-0.0261104
-3.23174e-06
0.00298606
1.65178e-06
0.330427
-2.6828e-06
-0.00122755
2.21978e-06
-0.669052
0.424163
-7.66767e-08
0.00468158
-0.0261871
6.4672e-07
-0.000406786
0.349955
-2.43638e-05
2.26268e-06
7.97988e-07
1.3983e-05
0.0302366
0.000121617
6.18091e-07
2.16348e-06
0.0180561
9.99045e-08
0.00261725
0.000530221
-6.15036e-06
0.000783141
-2.60991e-09
-1.57343e-06
4.85129e-07
-0.000195572
1.66472e-09
7.01224e-07
-0.0167831
0.22299
-0.529068
-2.151e-06
0.174257
-0.00198328
-2.10789
0.30782
0.254649
8.55292e-07
-2.697e-07
-1.56629e-05
-4.27135e-06
-0.10442
-2.09995e-05
-0.0527279
4.90395e-05
0.0156919
4.85843e-07
-2.03231e-06
-0.398639
-1.3086e-07
-0.00640541
0.623591
0.264035
-2.09588e-05
-0.000980764
0.00018292
0.0100955
0.000103862
-0.0294995
-1.60689
-0.000129161
-0.535937
5.00214e-07
0.00410055
-1.95307e-06
-0.0924024
-0.00059246
0.0318443
0.233423
0.000309259
-7.0651e-06
-0.000737628
1.2378e-07
1.55276e-05
0.107731
0.000329122
0.000143584
-2.79556e-08
1.68989e-05
0.0107633
0.0667798
-0.00393466
-0.259283
-0.0438558
0.00475088
-0.192279
4.77398e-09
-3.64825e-06
-6.30483e-07
2.4089e-06
-0.000108813
-0.000881582
-8.20962e-07
0.27938
-0.0337361
0.0459246
0.198319
-1.00478
-0.00393775
-0.0103161
-2.23832e-08
0.00182326
0.0615106
-0.00269655
0.0899032
1.13635
0.458368
-0.348654
-0.105813
-0.0517679
0.000276021
3.55876e-08
0.593169
-0.0453461
1.18546e-05
-0.00569791
0.000322388
-0.0427045
0.475799
-0.00724981
-4.55433e-05
1.64289e-05
-0.0408189
0.0836899
4.58117e-07
5.05353e-08
-0.00306829
-1.59852
6.31279e-06
7.36507
-4.58533e-06
-2.09342e-06
-0.00236778
0.000136814
-2.45812e-06
1.10458e-06
0.386891
7.21039e-06
-0.286784
-0.0264799
-6.34093e-09
-0.0764285
-1.61485e-07
9.42646e-07
-0.129829
-0.0700752
1.21231e-06
2.88647e-07
-0.612176
0.0386923
-1.24941e-05
1.6851e-07
0.00880129
0.000672366
-24.4867
-0.000931196
-0.000920339
2.32645e-07
0.130839
-1.24309
-6.22454e-06
0.0110269
-0.19688
0.000293689
0.306205
0.143365
0.439468
1.42976e-06
-0.00942746
-7.41387e-05
2.74231e-09
0.025134
0.453746
0.0114867
9.17341e-07
-0.089481
2.87025e-07
-1.81024e-07
-0.0432324
1.48755e-05
0.0367455
-2.41267e-06
-1.4972e-08
-0.506139
-0.0491458
-1.12104e-06
-1.84151e-05
2.68734e-06
0.131306
-0.186169
-0.000779176
-0.223467
4.47548e-06
-3.211e-05
2.49613e-06
-1.80301e-06
-0.0986127
0.155796
-0.915383
-0.0198232
-1.16085
-9.23774e-06
-0.00186787
-0.00143591
-0.000260377
8.64682e-08
-0.00413202
-2.65645e-06
5.08271e-05
-4.78513e-06
4.41801e-05
1.35124e-06
0.194211
-5.15053e-07
-8.39099e-06
0.0377731
0.00150159
0.00349142
-7.39553e-07
0.00575666
-3.60755e-06
-0.000105905
-3.12586e-08
-1.55787e-06
0.336243
0.162015
0.000651448
-0.0047534
0.195071
1.36703e-07
-0.000687375
2.1372e-08
-4.10551e-05
0.00140739
-0.000121397
-4.82999e-06
-0.0496378
-0.250557
0.0408912
-0.0153605
-7.48843e-07
5.54797e-06
-0.00826136
-0.00125267
-0.0149537
-0.000355157
-0.206082
-0.190886
5.20196e-06
8.42784e-05
0.0416375
7.34155e-07
-0.0911564
0.182671
-0.460003
0.000133443
3.37089
-0.466986
-0.192421
-1.08218e-07
8.70327e-07
-1.61101e-07
2.5186e-06
-0.193701
0.122316
0.004866
-0.0117467
-1.01031e-06
-6.10051e-07
2.16476e-07
-0.0456197
1.90019e-06
-1.1909e-06
0.0270471
-0.578675
-0.000151071
-3.04437e-07
1.13607e-07
0.0344021
4.78487e-06
-0.0012932
-7.27605e-05
2.84406e-06
-1.18486e-06
-0.0197984
5.98127e-07
1.9506e-07
-1.66403e-07
0.0997516
0.000417982
-0.0748164
0.00421673
7.97326e-07
1.30614
-1.21581e-07
-0.979691
-2.04193e-07
-4.05009
-6.3935e-06
-1.5443e-05
-3.50727e-06
-6.76273e-05
0.00237385
-3.60052e-08
-4.46224e-07
8.8297e-08
0.153763
0.000217136
-1.84734
-0.0011711
-1.90566e-06
0.0428946
-0.00106435
8.22005e-07
9.68857e-07
-0.0424663
-1.85736e-07
-0.735648
-6.47613e-06
-2.70047e-08
-0.031997
-0.341839
-0.000945716
0.000489646
0.00038145
2.57773e-05
2.7536e-05
0.00742512
-1.63627e-06
-0.00912345
1.30489e-06
-0.000509776
-0.169244
0.0114306
1.97197e-07
-6.93952e-07
-0.624307
1.60951e-05
0.00129176
0.00513502
2.16183
-0.192564
0.0175493
-0.097252
3.08913e-07
-2.16396e-07
-0.670049
0.0513061
-4.03673e-06
0.0755342
3.04743e-06
5.71307e-06
-1.81008e-08
0.10424
-2.77636e-06
-0.00212483
-0.658602
0.171775
2.27609e-06
0.00153282
-0.808381
3.99251e-05
4.00857e-05
-0.000578461
-1.07582e-09
-0.0158701
-0.0343306
0.000106745
0.0824469
4.00123e-05
0.385731
-0.118334
-1.09269e-06
9.10611e-07
0.00359179
-6.01464e-06
-1.64363
-0.0137582
9.08266e-05
0.00027065
-0.000180542
0.00802718
7.6973e-07
0.320739
0.0131734
0.302848
3.72253e-08
-1.32875e-05
-0.165314
3.75587e-05
-0.0608739
1.67719e-07
6.00334e-07
0.00178453
-9.97082e-05
0.00394962
-0.223075
-0.154318
0.105489
0.00527001
-7.67676e-08
-9.53003e-07
-1.19865e-06
0.00587844
0.206253
-0.00269549
-1.43246
0.0293996
-1.44441e-08
-0.00362732
0.0595503
9.07192e-07
-4.87609e-05
6.06779e-05
0.688318
0.000343298
-0.0511336
-8.88983e-08
-0.0242264
-2.34232e-07
-0.136639
-0.00308108
0.0132527
-0.00252644
0.107771
0.158947
-0.0122835
0.00412454
0.000990168
2.55448e-07
0.378635
0.0809008
9.45125e-06
-0.0122096
4.57765e-07
-6.56371e-08
-2.08122e-06
-0.105177
-0.000472923
1.91513e-05
0.00711817
0.0140515
-4.16156e-06
-1.28183e-06
-0.0934296
0.00105917
0.00299413
-0.0408305
5.00794e-05
-6.63796e-05
-4.38892e-06
-7.88266e-07
4.85771
-1.49793e-06
-5.46823e-06
0.101228
7.50195e-07
-0.00318634
-0.272879
0.0572722
-0.564958
0.0135137
0.00281049
2.87895
2.74927e-05
-0.000450378
0.000692221
0.000616224
9.36675e-05
6.29961e-07
0.000821031
0.227855
-9.70136e-07
7.20308e-07
0.0476509
1.65827e-06
-0.00539048
0.0855259
5.14638e-07
-0.000800189
-1.01711e-06
4.61532e-07
0.544567
9.32641e-06
-4.716e-05
-1.32326
-3.68884e-07
0.00155512
-0.696576
7.96968e-07
0.00166454
0.131435
0.116796
-1.218e-06
7.67143e-07
-0.00531065
5.14125e-07
-0.275792
-0.0374905
-0.408616
3.68729e-07
-0.022167
-1.34341e-06
-2.22054e-07
2.70639e-07
-2.20391e-07
1.09848e-06
0.18034
-4.28093e-07
-0.863778
7.04222e-07
0.299215
-7.28386e-07
0.15968
0.582684
-0.00266548
2.60583e-07
2.96848e-05
0.00676155
4.78533e-05
0.0243806
0.0265391
-1.05472
8.41068e-05
5.29434e-05
5.22783e-05
5.50899e-05
0.0198752
0.000100433
0.000471206
1.78569e-08
-0.437643
-0.0671961
0.00219841
0.0181789
0.000320918
6.15885e-08
6.0403e-07
-6.20586e-05
-2.62256e-06
0.00977482
-2.06598e-07
0.000874362
-0.310978
-5.45695e-06
0.225637
-4.69213e-06
-0.0193291
6.8984e-05
-0.149882
-1.73068e-09
-0.281931
-0.00486495
-1.17443e-06
-0.00655408
0.0956088
-1.19492e-05
-0.356819
-1.06673e-07
3.96345e-05
-1.36837e-06
-0.0786478
-0.0230811
0.46988
-0.0559772
0.00506459
-0.00104203
2.95268
0.00856599
-2.47718e-05
0.154499
-0.00559239
-0.0520779
-0.189914
0.000142099
-0.392129
-0.000387219
-0.00785408
0.000212575
2.69424e-07
-0.0273493
1.57927e-08
-0.595521
0.000938745
-2.02812e-09
1.14831e-05
1.86368e-06
8.47638e-07
6.11591e-07
-1.65385e-06
-6.99575e-07
-0.17283
-0.0358893
6.47542e-07
2.49387
-0.0967182
-0.00281714
0.000204446
0.0138188
6.10442e-06
2.09806e-07
-4.69329e-06
-0.00494917
-0.243363
0.0015258
0.0772656
1.59837e-07
0.150318
1.01008e-08
1.23655e-06
4.70178e-05
0.0119308
1.31459e-06
-0.00249874
-0.000362974
0.100105
-9.52202e-07
-0.00258632
0.0136691
-0.000217388
0.00561455
-0.217157
-0.0739272
-0.0188865
-7.37104e-06
-0.00112121
-0.00586191
5.55819e-07
0.00173316
0.28678
-0.233772
-0.12624
-0.0175106
3.74862
2.33783e-05
-5.12648e-06
-6.87014e-05
-3.77734e-08
1.04136e-06
-0.0680263
0.4059
-0.172398
-5.2429e-07
0.203957
0.00845906
0.00016183
0.0019545
0.083171
-3.95363e-08
-3.25729e-05
0.0174296
1.07109e-05
0.110972
-0.482358
-0.574529
-0.0296348
5.07659e-07
1.35289e-07
0.0163591
-0.128205
0.215296
0.37504
-6.71639e-07
0.208572
0.0191406
3.21909e-07
-2.47178e-06
-0.303372
7.58867e-06
0.231187
1.47366
-0.0559373
0.0428561
-0.465979
-0.399463
-0.00230984
0.0065207
-0.00769346
0.352229
0.00245949
1.00807e-06
3.17628e-07
-0.161485
-0.078878
0.00148225
0.372816
4.41356e-06
-0.00829012
-0.038596
0.000825478
-0.00233496
-2.57888e-07
-0.00408799
1.05487
-0.100587
2.80607e-07
4.68567e-09
-0.0526896
0.0522238
2.6907e-10
-0.0421561
-1.61468e-06
-1.50517e-06
1.32415e-06
0.033649
6.83081e-07
0.0397057
-0.080762
-0.086466
2.64823e-07
8.66972e-07
-1.29283
-0.00118011
-1.22479
0.0208773
-6.11291e-07
0.34597
-0.00155254
-0.000460655
2.08837e-07
4.41121e-06
0.110278
-0.0151991
0.159823
0.23527
-0.285922
-6.43655e-06
0.0242255
0.0570262
-0.00312482
0.0551597
8.36054e-06
0.309592
-8.70734e-07
0.0666161
0.000506721
-1.64871e-06
-1.2003e-08
-0.000791064
-0.0300889
-0.199434
-0.704305
0.0859755
-0.0247523
-0.000136811
-2.11232e-07
-0.0594781
0.000590129
-1.24645e-06
-0.309823
0.00543648
-1.03543e-06
0.0184363
0.0539911
8.90398e-07
-3.13106e-07
-5.47504e-07
0.0518046
-0.0122765
-1.83578e-08
0.107135
7.96238e-08
1.93064e-05
3.76524e-07
9.01254e-07
0.00658219
-2.69856e-06
-7.08053e-05
-1.33625e-07
-0.0187291
0.521053
0.0990253
0.560494
0.4255
0.322139
-0.000294687
-0.011482
0.0701039
0.100049
-0.0020802
0.0743291
9.45577e-08
-3.40429e-06
-0.324051
0.0403883
0.534818
-0.184226
0.0899777
-1.08494e-05
0.00116341
0.0412189
0.341645
2.15991e-06
-0.102293
0.510266
0.635407
-0.00199613
-0.929735
-2.17785e-10
7.92239
-2.00507e-06
-5.89832e-08
-0.0302356
0.00648221
0.0110664
0.00615291
1.03266e-06
0.017279
-6.90817e-09
0.00693655
-2.22424e-05
-0.000272471
0.00390238
0.0428044
-4.48306e-07
-0.0216455
-2.76563e-08
-2.12353e-06
0.271271
0.249722
-5.37364e-08
0.446289
5.73915e-07
-0.0448571
0.345601
0.206024
-0.0544913
0.063064
0.0760502
-0.0145413
-1.16769e-06
0.016701
0.433817
0.0011138
5.15175e-08
0.222314
-0.000226891
-0.0636279
-4.2764e-07
-3.10449e-06
-0.0118131
0.0707554
0.173198
-0.0373215
0.0115541
-4.22582e-06
0.0771594
-0.00137089
0.233228
7.47445e-05
-0.280699
-0.00523942
-1.55133e-07
-0.245305
-2.56912
0.025157
0.372493
-1.3507e-07
1.28773e-07
-0.031769
7.08232e-05
-1.54341e-07
-0.29781
-1.58731e-09
-0.0739489
1.59886e-07