/*--------------------------------*- C++ -*----------------------------------*\
| =========                 |                                                 |
| \\      /  F ield         | OpenFOAM: The Open Source CFD Toolbox           |
|  \\    /   O peration     | Version:  v2012                                 |
|   \\  /    A nd           | Website:  www.openfoam.com                      |
|    \\/     M anipulation  |                                                 |
\*---------------------------------------------------------------------------*/
FoamFile
{
    version     2.0;
    format      ascii;
    class       volScalarField;
    location    "300";
    object      omega_0;
}
// * * * * * * * * * * * * * * * * * * * * * * * * * * * * * * * * * * * * * //

dimensions      [0 0 -1 0 0 0 0];


internalField   nonuniform List<scalar> 
18598
(
0.055389
0.26854
0.0222927
0.067443
0.0216423
0.0350968
0.0452507
0.0221609
0.251488
4.72834
0.0219428
8.7197
0.0215228
7.52621
0.0221351
0.0907828
5.57711
0.0341268
0.0237337
8.81533
0.0219354
0.0217527
9.22075
0.0217589
0.0216218
5.85207
0.342721
0.0219892
0.338023
0.0533712
4.03341
0.0221681
0.0228643
0.0661066
0.0443392
0.265187
0.0216557
0.0219398
0.0216383
7.92514
0.110219
0.441717
0.192256
8.48816
0.0250657
0.0224276
0.0216353
0.558813
0.0215991
0.0216238
0.0217937
2.60181
0.141783
0.134831
0.0217499
0.0218271
0.021988
0.0221391
0.0215605
0.0345788
9.54943
0.25093
0.0219916
0.0217514
0.182084
1.54894
0.0215612
0.0229014
1.66762
0.0215764
0.0263353
0.0397804
0.901899
0.142604
0.0220758
0.103736
0.0221008
0.0218244
0.0523323
0.0263227
9.6252
0.022501
0.0219764
5.99662
0.0228232
4.16641
0.0215829
6.42133
0.0219656
0.0303884
0.0252184
0.127358
0.0250021
0.0908553
18.9659
0.0218019
5.50605
0.0219253
9.01863
0.0703865
0.0219698
0.0221299
0.0291779
0.0375005
0.0484653
0.0232136
0.0795235
6.44284
0.0219808
0.182058
0.0322685
6.77594
0.0221141
0.0290687
0.127529
0.0224026
9.42409
0.0334023
0.029058
0.0216596
7.6809
0.0217432
0.0218451
0.0328292
6.27006
0.0243677
0.0243592
0.0532457
0.252596
0.0216218
0.02154
0.0597581
8.20668
0.0250159
1.41349
0.0217968
0.0649076
0.0219837
0.0216333
0.0834467
0.238647
0.0218399
0.0219808
9.43646
0.0218967
0.0230826
0.715771
0.121059
0.0219161
0.0320359
0.0231841
0.0289949
0.0218678
7.33367
0.0217956
0.0219001
7.7159
0.0245136
0.0215172
0.0276361
0.0598317
0.0918534
0.0216089
0.0215975
0.0216236
7.03991
0.285892
0.0221724
0.0527741
0.0575324
0.0220697
0.0415356
7.38527
0.146979
0.0257275
0.0217483
6.84813
0.0224316
0.0269835
6.2272
0.0572925
0.305374
0.0577366
0.0228554
8.69174
0.0317684
5.29065
6.03655
0.0220136
0.157953
0.0224667
0.0217318
0.0587496
4.76615
0.0289558
0.0216832
8.78957
9.42651
0.0565828
0.194563
4.47196
0.0218204
0.0402636
0.0222846
0.0246557
9.08105
0.43624
0.0218722
0.0243537
0.0241728
0.0576137
5.2553
0.0217153
0.0681141
0.116787
0.0304389
0.117059
0.0219155
0.0221287
0.0656299
0.0214838
0.0219259
0.0230528
0.0220214
0.0394702
0.02191
0.021844
0.0219241
9.73669
0.0215921
8.28098
5.69762
0.0219245
0.0219451
0.270743
10.2317
0.0227739
0.0321541
0.0217411
0.0250293
0.0244315
0.0530542
9.81249
0.0215539
0.0901847
0.0226951
0.0408962
0.0218392
0.0317557
0.0216868
7.28409
0.296277
6.39314
8.18132
0.0444003
9.17283
0.0387187
5.43567
0.0220005
5.96814
0.0269141
0.0528539
3.39591
15.6207
0.722475
0.0224035
0.0214815
4.63771
0.109257
0.0251764
0.0216963
0.0220103
0.0506274
0.0218365
27.9797
10.3503
8.14714
5.74831
0.10538
0.0556597
0.052192
24.9984
0.0235729
25.6188
6.49742
0.0310298
0.102387
0.0907749
0.0216953
5.30776
0.100837
0.413428
6.91367
0.365808
10.8
0.0339366
0.0215549
0.264507
0.039877
0.0554046
11.0718
4.74387
0.0395201
5.96814
0.0254944
0.0837753
6.26565
0.0325609
7.44019
0.314314
18.312
0.0242793
0.283943
5.84221
0.0535398
0.0482056
0.0646373
0.0243802
0.0220045
3.95003
0.0228129
8.31649
0.0219391
0.024411
0.0229715
7.17937
0.0221054
0.0817226
0.0299894
0.0225858
0.0246794
0.0227681
19.5626
6.45985
0.0216864
0.0990718
0.0232472
7.07048
0.103303
0.022331
0.0490676
0.238131
0.125602
4.81147
0.0220874
3.75178
5.59911
4.46587
0.209004
6.53465
0.0239307
0.0288113
0.0309033
0.0962411
0.112895
0.0219009
0.0555005
7.45492
0.0960031
0.0216865
0.0219752
5.06413
0.0220704
0.0216904
0.0215221
0.0217501
33.2262
4.83798
0.0534192
6.17899
0.0520606
0.637593
0.0248852
7.78123
0.0221295
0.669496
7.3432
0.0229456
0.0219795
8.12776
8.52737
0.0220589
0.0328744
0.0592246
0.0261482
4.98942
0.0219444
0.0222703
0.021493
0.0310705
0.246238
0.0261915
0.0218543
0.0220746
20.9559
0.0220682
0.0245027
0.0219795
0.179899
0.023167
0.0260355
0.0219882
0.021677
0.0222641
9.80161
5.86128
3.26032
6.33827
5.11197
0.0537784
0.0220537
3.42025
0.021977
0.0259485
0.0926056
0.0347471
0.0438795
0.0287352
21.231
0.0292306
0.0224823
0.0219031
0.0220831
2.64983
0.0243945
0.0253101
0.0245888
0.0229842
0.0456557
3.80993
0.0217295
0.334072
0.0223727
0.171896
0.0792673
4.44347
0.0215364
0.0220631
0.124637
0.0218597
20.4044
9.17854
0.0221632
0.0219262
0.0220573
4.88971
7.1221
6.47493
0.0267561
0.284533
0.0215376
5.57026
11.5417
0.0222759
3.76662
0.0269867
0.0230832
0.022061
0.0251779
0.0220572
0.262136
0.0221693
0.0222637
6.12975
0.100669
0.0219476
0.388981
0.021993
8.68851
0.0241362
0.0217738
0.02192
0.0216992
22.4765
0.0219033
0.0216847
0.0547454
0.0255435
5.7282
0.0691085
0.0215269
6.31666
0.0923721
0.0393065
0.0221699
0.0231581
0.0221302
0.0221314
0.029099
0.0219135
0.0235665
0.108365
0.0346141
0.112021
4.13314
0.0252589
0.0944843
0.0907435
9.22196
0.0217572
8.09276
0.135441
0.0220756
4.5631
0.0229372
0.021912
6.81268
0.0221424
0.0219652
6.6101
0.0389926
0.0245051
0.0232488
0.0216752
0.0321521
0.0218293
0.0223603
5.95075
9.10761
0.0223162
0.0223835
5.31698
0.0254011
0.022445
0.0242867
3.3038
0.0228852
0.0218948
3.60661
6.48773
0.0216397
0.107364
0.0219569
0.0231588
0.249254
8.23393
0.460628
0.0217791
0.0219095
0.809085
0.0229667
0.343605
0.0232169
0.0218561
0.0220476
6.42474
0.0220526
0.111246
0.021557
0.415801
4.70622
20.6484
0.299922
0.0219179
2.642
0.0225493
5.40007
8.81721
0.0216086
0.0222691
5.46772
0.0700896
0.0298648
0.0274641
0.0217565
9.95478
0.021936
4.25366
0.0220909
0.0248193
0.0217643
0.149253
0.0219811
0.0501805
8.58051
9.86678
0.0219048
0.0535986
0.0219084
0.0241841
0.177663
0.10828
7.49627
0.0215257
28.1341
7.12631
0.0218107
0.217673
0.0219861
7.7557
0.311592
0.0231327
9.88786
0.022061
0.111418
4.7479
0.0555963
0.0217732
0.0221546
0.022106
0.0255796
0.0216784
0.0260921
0.0221954
0.0217301
7.21804
0.0217661
0.0520417
0.0222752
0.0218118
8.96101
6.36875
3.89083
0.0217643
9.82877
0.0218363
0.0242864
0.0217538
0.0225079
12.4445
6.97964
0.0218682
0.0216998
0.0681252
0.0215657
0.0226279
0.158107
0.0219803
0.0221728
0.0215707
0.0219776
0.0241322
0.0219188
0.268361
0.0232123
0.0219301
0.0534231
0.0227925
9.53897
0.394229
0.0228893
0.0220627
0.0241689
0.063318
0.0218935
0.0411644
0.0214924
0.0222724
4.77578
8.61787
0.0219459
0.0221154
0.0229275
0.0217128
0.0241873
7.61732
5.1158
0.197729
0.0275651
0.150142
0.0222849
0.0549941
0.0281138
0.0855136
0.0384375
5.06548
0.0218969
0.0220251
8.04324
0.0218713
0.0216072
6.34916
0.021717
6.09723
0.023511
0.0222499
0.021605
0.0220573
0.208052
10.9203
0.0515574
0.0217716
0.0227318
0.0219915
0.0451142
7.02462
0.0235091
0.705876
0.0221657
0.0219057
0.0225191
0.0220482
0.0217086
0.0440356
0.0220409
0.361449
7.57363
0.0703135
0.0222747
0.0215129
0.0222778
0.0665406
0.0219858
7.08755
0.0316892
0.0229532
0.0624585
0.0716454
11.0603
0.0216695
6.52705
0.0221141
8.08557
0.0242933
5.40293
0.0431096
4.67223
0.029076
0.0222676
0.0324356
0.0296322
0.02198
4.91364
8.59966
0.028809
0.0238113
0.0217117
0.190682
0.0221501
0.0216852
0.378849
0.0227859
0.196142
4.75425
0.0216763
0.25053
0.0221593
0.0220351
0.475151
0.0659277
0.0222697
0.25278
0.0221204
0.0532742
0.632755
6.45976
6.79572
7.27783
6.30682
0.0378705
0.22184
0.022091
0.0316188
2.21083
15.6457
0.0270047
0.0510015
4.75949
6.18817
19.4106
0.737742
4.49719
0.0219393
0.0219323
0.0792301
0.0218772
9.62914
0.0415975
0.0225552
0.297597
0.0364927
0.0226693
0.0229612
0.0216792
0.0222713
0.0218317
0.214584
0.0263827
0.0218452
6.09573
0.0219871
0.0551963
0.0553164
5.03673
0.0224263
5.41646
0.0224629
0.0216959
0.0236904
8.61979
0.0436594
0.0218524
0.0220382
0.0222717
0.0516856
0.0220075
11.8296
0.149672
4.56486
10.5655
0.0224579
0.141843
0.359845
0.0219534
0.0231769
0.0219158
0.0220702
13.275
0.0221179
0.0216345
0.0249008
0.0817923
0.0224245
5.62358
5.31182
0.0334591
0.0272913
0.0217907
0.0219883
0.979483
0.0222763
0.0226911
0.0227633
0.0220096
0.0215783
0.0220268
15.0986
9.36615
0.0220579
0.0226306
0.295361
5.42993
0.021515
0.02171
0.0218984
0.0288176
4.60789
0.291045
0.0871039
7.29868
0.021922
0.0542145
0.0219789
0.0295889
0.0246723
0.989804
4.70966
0.0219162
5.22846
0.0217423
0.023044
0.0302074
0.0219063
0.0218173
0.056467
0.0507518
0.0217995
0.0592081
6.96591
0.2696
0.213514
0.0825642
0.0220476
0.0219308
0.0216501
0.0220329
8.74855
8.88506
0.0904196
0.0247741
0.0219754
0.273885
0.0221145
6.47692
0.0220226
0.0217849
0.334827
0.0216516
0.0295973
0.219911
0.0218317
0.0222641
0.0218661
0.0248311
0.14641
11.5196
4.54697
0.0216655
0.0252315
0.0220346
3.94144
0.186207
0.0216182
0.0238419
0.0220354
0.0258324
0.0742792
0.0217019
8.98488
0.0888255
0.0222693
7.23244
0.104274
0.021934
6.83756
0.0221116
0.021584
6.25526
2.09228
0.0244508
0.445375
0.0217068
0.482682
0.0221642
0.0217475
0.0225945
0.0215211
0.0263388
0.021832
0.0295981
0.0217031
0.915891
0.334151
0.08995
0.021977
4.32435
0.0810893
0.0941846
0.0221194
0.0223499
0.798724
0.021832
0.0217163
0.0452084
0.134709
0.021554
0.0257108
0.0219765
0.0426318
6.0595
0.0220602
0.021663
0.0216392
0.0867934
0.0218946
0.0222423
0.0222382
0.113796
0.0218616
0.0217635
0.0218371
0.0405415
0.0224595
0.0219823
0.463301
0.0219647
9.39763
0.0235551
0.0219785
10.2051
3.05202
0.0581547
9.35755
0.0215702
6.6736
0.0216744
4.72989
0.0561757
0.022056
0.0234948
3.19589
0.983906
0.140827
0.022101
9.75816
0.0230072
0.0338002
0.29364
0.0469047
0.0215006
0.0216005
0.0243915
0.0222408
0.0219336
0.0227118
0.477868
0.0573235
0.10285
1.33141
0.0300978
4.64586
9.64107
0.0221583
12.2587
0.047383
0.0224474
0.386274
9.61398
14.1397
9.63067
0.0431045
0.0293687
0.0216328
0.0283635
0.0222517
0.164037
0.299477
0.0229376
0.0224399
0.0709621
0.023
0.113928
0.0220493
0.0216706
0.0219258
0.0219125
0.187198
8.81624
5.6759
0.0225313
0.0223085
0.0494934
0.0216167
0.0214522
0.0220638
0.0216387
5.66549
0.0281648
0.0220951
0.171044
0.023103
9.22359
10.359
0.0218805
0.253695
0.0289279
0.0241346
0.0214574
0.0481191
0.0221806
4.79518
6.18842
0.0217683
8.66063
0.0418531
0.0333412
6.66371
0.0219395
0.0217781
0.0216684
0.0391021
0.047721
0.0232457
5.20763
0.0242862
0.0222219
0.905629
0.0232344
0.369207
0.0219348
0.0224431
4.65179
0.0509516
0.0273343
9.23271
0.0402805
0.0237876
6.38545
0.0214973
7.18185
0.0218583
5.44941
0.0218039
7.09247
0.0229593
9.75075
0.021957
10.4448
0.0217394
9.07996
0.0223202
0.0219102
0.0395916
0.0219629
0.0702343
0.469554
0.0219366
9.11145
0.0410814
4.869
0.0219032
0.0266048
0.0218392
0.0455397
7.08971
0.0219479
0.892622
6.95396
8.1595
0.0216324
7.07379
0.0228322
0.0219139
0.0219367
4.96321
0.0465963
0.0216319
0.21093
1.02936
0.0220512
4.6314
8.24984
0.0405569
0.0223995
0.048909
9.20155
0.168545
0.052544
0.0374254
0.0226013
0.0221277
0.0236275
0.151583
0.0222618
0.0220286
0.0219351
0.0218197
0.0219776
0.0219249
7.60065
16.9827
0.0216563
7.04811
0.0483771
0.79782
0.0217368
0.0259617
0.0488743
0.0417547
0.0353923
0.347928
0.0222862
0.0219346
0.0223973
0.0221847
0.021912
0.0227351
0.600169
0.194672
0.112336
0.0217719
0.0223378
0.0217109
0.0221753
0.0218399
10.1897
0.387981
10.1128
0.0220497
0.0217873
0.0240994
6.30315
0.0231675
6.45946
0.0219584
0.554071
6.30569
0.0232132
0.0219335
0.0218991
0.0221989
0.0467679
0.0391182
0.0252583
0.0374444
0.360109
1.16998
0.136621
0.0251016
0.0253027
0.328501
0.0219562
0.69878
4.57516
0.0225157
0.0517718
0.0276327
0.0218812
0.0222209
0.0481585
0.0217396
0.0323201
0.0223384
9.25318
0.0219449
0.0313965
0.0258563
5.00007
0.0758396
11.3218
0.0216894
0.0214675
0.0221274
9.32933
0.0216291
0.0219298
0.0297663
0.034767
0.0622635
0.100159
0.119065
5.805
0.0215939
0.0221531
0.0217983
0.0498323
0.0219584
0.112971
0.022261
0.0215934
0.101775
0.0394757
0.0217793
0.0408127
0.0481416
1.13748
0.0216382
1.90799
0.021667
5.54148
0.0230383
11.6503
0.142864
0.0602702
0.0218155
0.0281353
28.7075
0.0306391
0.0220985
0.111998
43.4161
5.22957
0.0216386
5.04095
0.130047
2.11299
0.124857
7.91526
5.75638
0.0217214
0.0220603
0.0218392
0.0219154
0.0224854
0.0219752
0.023545
0.0218759
0.0219778
5.56557
0.141364
0.0216293
0.293604
0.0217898
0.420911
0.0219937
0.520947
0.0219825
0.0218364
0.0484279
0.0232689
3.46038
0.0231833
0.0216718
0.0218975
20.5881
0.0222767
0.0222583
0.196726
5.86774
5.35057
0.0216891
0.0264476
0.0675739
0.0218458
0.0218685
0.0225993
0.0215239
0.0220579
4.59091
2.76413
0.0676336
0.0219604
0.0225026
0.0224378
0.0222848
6.94082
0.0511625
0.0217747
0.0217978
11.2813
0.082136
0.0220368
0.136212
0.0279138
0.489079
0.0229757
0.053073
0.0480722
0.0921246
6.26396
0.0218913
0.0666644
0.0502542
0.021937
0.0218056
0.0219765
0.0223361
0.0219323
6.28621
0.0253972
0.0452232
4.48497
29.1642
0.240064
0.0239255
0.0219225
0.0221802
0.0221183
0.0219548
0.0228042
0.0315924
0.0222853
0.0222223
0.0222769
6.10122
6.37213
0.0460983
0.0974533
0.0216952
0.0242263
8.1002
0.0225478
0.0286213
7.67124
0.328913
0.778456
0.0294588
0.021753
0.021695
6.53939
0.0246916
0.0219918
0.0411309
0.166313
0.0215215
2.89816
0.198673
0.0218155
7.61361
0.0245472
8.7892
0.320415
0.0561825
0.022566
0.0282425
0.089973
0.021927
0.0218703
0.0221019
0.0220716
0.0929363
0.108099
6.18394
0.0217192
0.0761716
0.0221484
0.0392075
0.342322
0.0220481
6.48073
0.0802769
0.0219689
0.0244974
0.0964417
0.0222904
0.0223377
0.0760278
0.0218005
0.0216256
4.69161
0.0387594
0.0306495
0.0245752
0.0216993
0.108554
0.0867202
0.0436937
0.0754105
0.0215591
0.0691532
5.60728
6.59036
0.0257573
8.74783
0.0220018
0.618371
18.5883
1.33491
0.0225161
0.0223482
0.0219892
0.0219569
0.243478
0.0628966
0.11164
0.021802
0.0863604
0.0215179
0.0218761
5.82136
9.76933
0.48775
0.0220129
5.15091
0.0216143
0.0675986
0.0218862
0.122368
0.0217175
0.0220025
8.4125
0.0732824
0.0221175
1.14018
0.060621
6.26747
0.022402
4.81661
0.0833821
0.022051
0.0218844
0.234102
0.0239439
0.0219197
0.220771
0.0258181
0.0554996
45.2349
0.0218408
0.122208
0.838732
0.0219785
0.0216868
0.252704
0.0218873
0.0280373
6.39268
0.112761
0.0219645
9.7987
0.0219794
0.0219824
1.87382
0.0219702
0.0471847
0.0412659
0.0218907
0.0218014
0.0218422
0.148014
0.568583
0.0217905
0.0221026
0.022269
0.0400737
0.0226347
6.02853
0.0221893
0.0219132
0.159241
0.0418629
0.100712
0.054419
0.0231924
0.0472744
0.0226455
0.0344323
0.021757
0.0413177
0.672862
0.0220634
0.0221522
0.0219808
0.0219567
9.6564
5.61164
0.0230668
0.0217486
0.0220208
0.0224095
0.023097
14.9433
9.34526
0.0219296
0.0973903
0.0226076
0.0428219
0.0221932
0.0220235
0.0767916
0.35411
0.0813426
0.0220144
0.0222592
0.0361759
0.0217678
6.56964
0.0216364
0.0898503
0.107788
0.0255416
0.259149
0.0219508
0.274086
0.0218829
0.050741
0.0220194
0.0219421
0.0374155
0.0222711
0.0422459
0.0365954
12.7526
10.89
9.69185
0.0217392
0.0219259
0.0222399
0.0283177
0.0273232
0.0238171
0.0218718
0.0218426
7.95264
0.0219534
0.0467611
0.0418652
16.1642
9.0787
0.0230358
0.0387776
6.44098
1.16675
0.0218496
8.64472
9.01236
0.0237687
9.1476
0.0218414
0.0222369
0.168672
0.032478
0.021677
22.705
0.0318293
0.0999105
0.0216264
5.48789
0.0423463
0.12267
9.80165
0.161544
0.647243
0.0221567
0.0230029
0.0337278
0.0218501
0.132266
0.0218961
0.0218752
9.31691
0.021683
3.25824
5.13552
0.0219603
0.0219638
0.0419659
19.5641
0.0344894
0.0219647
0.0226013
0.0338323
0.0309381
7.1703
0.0275345
0.0226104
8.20018
12.2545
0.169992
0.0527935
0.0260489
7.21607
6.44182
0.0216317
12.1021
0.214032
6.8757
0.0257199
0.022015
0.0221526
0.0218159
0.0219248
0.707499
0.0219717
0.122186
0.0219646
0.0216855
0.0245555
0.0220674
6.44408
0.050651
0.0222487
0.0220067
0.0217017
0.0260792
0.0645015
0.0222386
0.0267201
0.0218622
0.0223186
0.0309984
13.5737
0.021843
7.4493
0.0240053
4.82406
0.0261399
7.22656
0.0216253
0.0220143
0.0226367
0.0216197
5.18398
0.0216128
0.034452
0.0222753
0.0513869
0.0921409
0.14883
0.0232255
0.0221981
0.059785
0.0221172
0.0217303
0.0218496
0.0221231
0.021947
0.0905594
0.0682045
0.0216271
0.0219048
0.0672354
0.20434
0.021866
0.024712
5.46052
4.11556
0.0763055
0.0225905
0.103178
0.0222815
0.0218169
0.0480118
0.0219235
6.10188
0.0402122
0.0217204
0.0218667
0.0709406
7.51788
0.111688
0.0220568
0.0220674
0.0221604
7.8828
0.114256
0.0232413
0.0702648
0.744534
0.264945
0.022217
0.0693951
7.37479
5.13832
10.271
0.273806
0.0221693
0.0221494
6.60091
14.84
0.0216137
0.0980029
6.10492
9.36102
0.0218878
8.61434
0.0219935
2.53007
0.0219244
0.173419
0.0221631
0.0221981
18.5682
0.0218782
0.0238266
0.951695
0.0219718
0.129435
0.0219496
0.068817
0.0220645
6.43413
0.0216063
0.0275477
0.0225403
9.36823
7.50553
0.0222769
0.0331112
6.11021
0.0217382
0.0240245
5.65722
0.0226287
0.0219687
0.0220381
0.0220706
0.18874
0.0280274
0.0218954
0.0220107
0.0454489
0.0220565
7.014
0.0247938
0.0240164
0.0393914
0.0222708
0.021964
0.0219755
0.0224298
0.0220638
0.0220888
7.98338
5.87871
10.5693
0.0218654
6.81402
0.0300658
6.34777
5.48123
18.792
0.0216486
0.021812
0.0219856
0.0217444
5.37434
0.0218638
0.176692
0.0224066
0.119014
0.0217233
0.0217425
4.54493
0.0217459
0.0524667
13.4752
8.88727
0.0218465
0.024203
0.0262901
0.160573
0.0226017
0.0959017
2.11292
0.023398
0.600877
0.0217423
0.0395378
0.0219157
6.34847
0.0264832
0.0687113
5.57211
0.0259814
0.0220281
0.0258445
0.0222621
0.0219509
5.30984
0.0260878
0.0240338
0.0222763
0.021911
0.0725137
10.5517
0.0339114
6.96964
2.57223
0.0372515
11.0257
0.0222894
0.0221555
0.0218081
0.0217691
0.0242367
0.137195
0.0215052
6.32017
0.0793258
0.151266
7.16501
0.730903
0.041904
3.19389
0.0222356
0.119645
6.39197
0.0329374
7.17066
0.736621
7.16639
0.34684
4.87064
0.253789
0.0387039
0.022064
0.542117
0.119014
0.021842
0.0520618
0.0263946
0.0646649
7.15404
0.029769
0.0222027
0.0218304
0.121719
6.57867
0.0229309
0.0222152
0.0332519
2.33783
0.0218745
1.20089
0.0218491
0.0229998
0.0478206
0.0220982
0.021956
0.0221428
6.33832
0.0218413
4.66816
0.0482364
0.0221674
0.0641788
0.0222118
0.0218084
0.360286
6.17504
0.0216666
0.0221216
0.477667
0.146534
0.0221569
0.0220084
0.0263529
0.048563
28.921
0.0369429
0.0258556
0.0214414
5.42852
6.27525
0.0219566
0.173153
4.95212
0.0224472
6.36878
5.13973
8.7572
0.0220796
0.0708214
0.0231626
0.021571
0.233008
4.43808
0.070099
0.022052
5.8767
0.0216007
0.0218538
0.279237
0.0219938
0.173884
0.0219369
0.0222532
10.8006
0.272543
0.0214717
0.0218353
0.0219998
0.253127
8.1339
0.271805
0.298406
0.0224153
0.0230706
0.0218406
0.0221688
21.3342
8.68161
10.8266
0.0812429
3.80711
0.0218253
0.024183
0.0313114
0.0240488
0.0221413
0.0294831
0.0219346
0.0221127
0.0219338
0.0222118
0.0218263
8.06973
0.0221912
0.0218514
0.163748
0.0266261
0.052536
0.0218503
0.0789747
0.0219448
0.0231519
0.0222525
0.0216528
5.66567
5.07844
0.0269032
8.51655
0.286377
0.0219295
0.0299976
0.0218627
0.0224915
0.0258924
0.0229929
0.0219635
0.0754785
18.2647
6.5332
0.156583
0.0218222
0.0218002
0.0268574
0.026515
0.0693102
0.0224033
4.58669
0.323681
0.0217674
0.0249446
5.35921
0.0217647
0.339502
5.50661
10.8468
0.0273467
7.02167
4.64943
0.289694
0.0215778
0.0220574
0.0217431
0.0218614
8.19915
6.40669
0.164805
0.0469368
0.021649
0.0217061
0.022016
6.44614
0.0217729
0.0218739
6.21337
9.89531
0.0227554
0.0219906
0.0221145
0.260904
0.0217305
0.0253818
0.0231415
0.0220262
0.0219759
0.319671
0.0220284
0.0216207
0.0221642
6.5043
0.0267963
0.158659
0.038312
0.0218679
18.0561
0.0222227
17.8579
0.022168
0.963261
0.022
0.0218904
0.0218457
0.0251082
0.0461081
0.0219748
0.0215933
0.0221474
8.66797
0.0236799
2.20963
0.0323922
0.0218658
0.295038
0.0251913
0.0216461
0.022088
0.0860377
0.0221859
5.18288
0.0220327
0.0222793
0.0918433
10.2195
0.038445
0.0225737
0.0355259
0.0226782
0.0219801
0.0472777
0.0219331
0.0457047
0.0217089
6.12538
4.76669
0.0406807
0.0219764
0.0215287
11.4889
0.0218446
0.0287251
0.0367388
42.9511
6.67349
0.0381458
9.47539
0.0219947
0.0218535
9.83949
0.270766
0.0219719
0.107401
0.0223856
0.0223028
0.0222744
0.148611
0.021935
0.0392752
0.439827
7.09454
0.0217151
0.0287147
0.772526
0.0220884
0.025765
0.0238945
0.0222541
7.40883
0.155558
0.0224942
0.221174
0.0253289
0.763753
0.258353
0.021807
0.0220722
0.0398307
0.022527
5.72744
0.264655
0.0222598
0.023799
0.0225064
0.0485671
0.0219364
6.43075
0.0780883
5.52238
0.0215644
0.0235316
13.5862
0.0221673
7.02174
0.0216184
0.0220709
0.0454452
0.0223826
0.0359404
0.324439
4.60994
6.81224
0.0345228
0.0221364
0.0215065
0.0219184
0.0478383
0.287107
0.0640039
0.386557
5.17092
0.0222076
0.0355942
8.46094
0.0220586
0.0230942
0.0257217
1.91052
0.0279893
0.320696
0.0218472
0.280894
0.0215834
11.3321
0.0368455
0.0601573
0.0475553
18.0322
0.233234
0.196676
0.0773256
0.0336193
0.0221312
11.6328
8.73765
0.021825
0.0362224
0.0220157
0.0216132
0.0216171
0.191458
0.048935
0.0218844
0.0490383
0.167372
0.0216579
0.0215013
14.9512
0.0258111
0.0390819
0.152524
0.0225661
0.0224438
0.0219081
0.0220719
7.93847
0.0215193
0.0216985
0.309537
0.0220419
0.0308705
0.299333
0.15558
5.46167
6.28332
0.0253753
1.13879
0.0220505
0.0450034
0.0275473
0.0266099
0.0222935
0.0220583
0.0279356
6.48465
0.0218652
0.0220086
1.38929
0.0219131
0.0565942
0.244248
0.0216021
0.030689
0.0218855
0.0216231
18.9493
0.0218587
0.0222438
3.92522
0.0214414
0.0628335
0.405284
0.0218248
0.120275
0.292463
0.287665
0.0215376
0.0220913
16.223
0.0217207
4.64524
0.168738
11.2309
0.0216451
0.0659542
0.0214175
0.0222291
0.0220491
0.0218486
0.0217994
6.37593
0.021636
4.2126
0.0220539
9.13508
0.0219761
0.118184
0.841547
0.0452662
0.0220435
0.0221426
0.0426646
0.0223743
0.275769
0.0876591
39.3198
0.0221195
0.0227755
0.0225346
0.0239422
0.064322
0.0231121
0.0245338
0.0222778
13.6258
0.23758
0.0440513
0.247631
0.023997
0.0219857
0.0220837
0.0221471
0.0219361
0.048581
0.0221742
0.0264779
4.64016
0.0217132
0.25481
0.0219194
6.9223
0.0277438
7.57745
0.0222767
4.52031
0.0267161
0.0216233
0.0388805
0.130015
0.02444
11.1356
0.0219722
0.0219523
0.0215359
0.123406
6.1148
6.4998
0.367825
0.110685
0.0256041
0.71116
0.0587444
0.0228995
0.158624
0.0449255
0.0870734
4.80869
0.0306298
10.3434
0.0256882
0.0975312
0.022597
0.0221062
0.0804105
0.0219315
2.41013
0.0231285
0.0222708
0.0218474
0.0216777
0.0220235
0.0216191
0.021933
0.0218221
0.161858
6.13465
0.022081
9.36811
6.58974
0.0264697
0.0244723
0.146428
0.0218485
0.0221286
0.0219146
0.0498767
5.37366
0.0476892
0.300475
0.0221068
0.287145
0.0218728
0.0219335
0.0224199
0.0619737
0.0220745
0.0327483
0.0248374
0.11086
0.0219736
0.0263388
0.0545295
0.0467795
0.154304
5.75662
5.52136
0.120842
0.0219671
0.0234993
0.0261292
0.0217176
0.113274
6.45332
10.4659
2.42579
0.146112
0.904271
0.0220215
0.0216811
0.0238697
0.0215814
0.0218649
5.29456
6.31289
0.327546
0.021812
6.88077
0.0276861
0.0224607
0.0267713
0.211653
0.0219899
0.0231627
0.0519656
0.0218005
0.193091
8.14332
12.2212
0.0793453
0.0218015
0.0222551
0.139783
7.086
5.48751
5.72925
0.0215306
5.44686
0.0795312
0.0221362
0.0219887
5.03912
0.0218493
7.52847
4.72753
0.0904056
0.0670709
10.1121
10.853
0.0258464
0.0344089
0.215507
7.70704
0.0320506
0.0220585
0.0216057
4.92061
6.60623
0.0442178
5.88794
0.0217002
0.038328
0.218434
0.0249242
0.0330585
0.0221901
6.34888
0.56079
6.30355
0.0221278
0.0222799
0.171405
0.106757
0.0219775
0.645002
0.0219366
0.021516
0.0220476
0.0527316
0.0217058
8.06519
9.41749
1.04283
0.0220345
0.0216443
4.15658
0.0290605
4.74869
0.0414962
0.0219291
4.4686
0.0322907
0.0381605
0.0219292
0.02169
0.114447
0.11817
6.03071
6.4381
0.374952
0.0216824
0.198596
0.210666
0.0836346
0.237056
0.0223525
6.63917
0.02194
9.02007
0.027365
0.0220362
0.0218994
0.0272045
6.37517
5.77936
4.86178
8.82663
0.14751
0.0237213
0.0221967
6.70508
0.0279344
0.0215306
10.6962
0.0386723
0.0219471
0.174001
0.241188
0.0220648
0.0215644
0.021812
0.29707
6.98492
0.0222538
7.86843
0.0219893
0.0220712
0.0221068
0.0220531
0.101658
0.0219368
0.0235857
0.0221728
0.0523575
11.7332
0.112585
0.610634
5.87624
6.719
0.0281086
0.0739395
0.593982
0.332512
0.0316303
8.77124
0.0220281
0.0218972
12.1539
6.95038
0.658516
10.2016
6.4443
0.0221183
0.0251056
6.30177
6.77368
0.0219084
0.303737
0.595365
5.01001
6.71606
0.571781
0.0222943
16.3029
0.0215983
0.0222618
0.0717748
0.0337183
6.14161
0.0695161
0.0216875
0.232122
0.0222879
0.0283544
0.0219239
6.28966
0.0379242
9.04035
0.0220947
0.0813633
0.0216751
0.0219282
6.33861
6.36083
0.0221498
7.17065
0.0217006
0.327895
0.434617
6.39744
6.45593
0.0829078
5.28904
0.0860835
0.0215153
8.25836
1.14254
0.0299412
0.0221841
6.30376
6.22565
2.47637
0.0218652
0.0219813
5.01875
0.170866
6.74022
0.160532
0.0670037
0.0219336
8.60117
0.0316664
6.62533
0.0226249
7.13574
0.0250263
0.0221691
0.288875
0.419137
0.0533691
6.5792
0.110726
0.022012
7.76982
0.0225926
0.0219772
0.247302
0.0222709
0.114441
0.0219339
0.0216445
0.0220059
0.0256875
0.0243974
6.30202
0.0274452
0.0217212
0.0218098
0.0217926
4.33927
0.0691044
4.81392
0.026107
6.30301
0.0220942
0.0224482
0.064295
6.89855
4.91557
0.0219166
7.91006
5.08662
0.253735
0.0460909
0.0632824
0.639044
0.0921943
0.0560267
10.3718
0.283248
0.0217322
6.61436
6.58404
0.0763845
0.0220297
0.0218811
0.248428
5.78308
0.028795
0.353145
0.0218819
0.0219536
8.6853
0.0220127
0.143437
0.0449855
0.0219168
0.0219425
0.151188
0.0321487
0.0216057
0.0270715
6.40256
4.69363
4.49777
0.0218748
10.9262
0.0218072
0.0218725
39.9659
0.0220259
0.440235
0.0219165
0.476932
0.145417
2.96121
0.0223417
4.52774
0.0870241
6.73556
0.0219291
9.29605
0.0219621
0.0237872
0.0218085
0.362624
0.38827
0.0220784
0.0247433
0.0215303
0.022026
0.0245794
0.0220594
0.0971709
0.0297949
0.0220286
5.95207
0.0220692
0.0240609
0.0217454
0.0219823
0.0222785
0.0219134
0.0220309
0.0218041
0.0223753
0.244895
7.55135
0.538447
0.022214
0.101144
8.76349
0.0221184
0.0748529
0.0836439
0.0227498
0.0253399
0.0219314
6.46257
0.021821
0.0336417
6.47123
0.0873577
0.0233005
0.0269206
0.060064
0.0218903
0.0325842
0.0221585
6.58002
0.0229981
0.0782118
0.0218264
6.71002
0.0660665
0.0800342
0.0218978
0.0222769
0.0220896
0.0221886
0.0219547
0.576276
0.0217302
7.23767
0.0220546
0.024735
4.91768
0.0632082
0.0291006
0.225246
6.56429
0.0230987
0.0216589
0.0329377
0.022088
0.0219762
0.0229561
0.0216403
0.350799
0.0323061
0.0221259
0.0219291
0.0217089
0.0258597
0.0220792
0.255503
0.247444
0.0220212
4.85193
0.0216531
0.349749
0.0218573
0.0218661
0.0429541
0.28293
0.0221596
0.0295359
0.021452
16.5793
0.0239445
0.0225127
0.0260873
25.0425
14.2598
0.0655284
0.0261024
0.0219684
0.0233048
6.96939
0.0218575
0.0257464
0.724164
0.0219418
4.93772
0.0655454
0.0680574
0.0238569
0.0228967
0.0220276
0.0222585
6.62037
0.0220644
0.022907
0.0906482
0.0219388
0.0384786
0.022649
0.116946
0.0218736
0.798448
0.0223933
0.025055
0.0220467
0.831131
17.1607
0.0220441
0.0264412
8.49642
0.047908
0.0282109
12.9794
0.0221327
0.0636835
6.5773
8.43645
0.040766
0.0220224
0.0219229
0.0222862
0.0220066
0.286921
0.0229274
0.474548
0.229657
0.0217143
0.0556076
3.19431
0.0220344
0.0698506
0.0661423
1.12154
0.0226931
0.0350307
0.021751
0.0221277
0.0219436
6.49314
0.0939842
0.117925
0.0222983
0.0216451
0.0220332
0.0215114
17.793
0.0218192
0.0608217
0.0222722
6.74793
0.0223086
0.0220529
0.0868628
10.3336
0.0219027
0.0299587
0.222081
0.211267
0.0215703
0.0228973
0.0677653
0.0220057
6.62913
5.88669
0.024784
0.0322064
0.021943
0.0219193
0.315909
0.0217142
4.13093
0.0218109
0.249699
0.0217997
0.0219154
5.74717
0.023807
0.022403
0.0217791
0.0294407
0.0260589
0.0301763
0.0218353
6.64609
0.183818
0.0238076
0.0660061
0.0243043
0.0217012
0.0236421
0.021706
0.307891
0.055768
0.369076
0.0428654
0.02167
0.120282
0.0221629
4.73957
0.0254634
7.4342
0.0225349
0.0926129
5.18937
8.58129
0.0243146
0.0364369
0.237943
0.145629
9.08012
0.0220267
0.0266711
0.0228823
0.0493169
0.0242035
9.28797
0.0221668
0.0218183
0.0222071
0.0218897
0.0222298
6.42714
0.0218375
0.021933
6.42367
0.0219753
0.0220009
0.0700233
7.65144
0.907281
0.0370453
0.0312805
0.0266501
12.236
6.10961
0.0221055
0.0633853
6.38153
0.0214521
0.0242765
0.021991
6.39238
0.0913513
0.227612
20.3547
0.0220816
0.0219263
0.0303275
0.027856
0.0220638
4.81842
0.0363432
0.0219065
0.0219199
6.04833
0.0220909
0.0309611
0.0230842
0.022036
0.0219834
4.61513
0.026796
0.08843
0.0227331
0.0219067
1.62641
0.0220283
0.0222452
8.14148
0.0217504
0.022119
10.1166
0.0217081
0.104157
0.0237901
0.230686
0.0240774
0.220139
0.224172
0.144827
0.0222243
6.41066
0.0219131
0.0218365
4.70104
0.0260717
5.05132
7.45815
0.0216275
0.0220198
0.12788
0.0819048
0.0826768
0.0219906
0.0216256
6.47081
0.0286267
0.0214855
0.0219309
0.0882747
0.0220615
8.298
0.0751121
0.0379947
0.0230706
0.0227663
18.9744
0.0220291
0.0216262
0.138282
0.0317132
0.0219937
0.0219595
0.02224
0.0217251
0.0795838
0.199036
0.0219359
0.0214766
0.0224468
0.0219245
0.0523591
0.0218921
0.0220486
0.0221285
6.31641
0.0216083
6.64697
7.72179
1.72468
5.59148
0.0223178
0.0771926
5.23195
0.025643
0.021887
0.0220179
0.0275853
0.022053
0.672225
0.531081
0.0223433
0.0259172
0.0220958
0.0290451
0.0309226
0.263077
0.03919
0.265866
0.0214921
0.789384
0.297245
0.0687668
0.0219453
0.958263
0.0219944
12.9045
8.7495
0.0219335
5.09338
0.0222353
0.0600793
0.022131
0.0537505
0.059823
10.6439
0.0215039
0.0952094
0.0882641
0.0467641
0.0219103
0.0217296
4.44858
0.429278
0.0224466
0.0222102
0.0268213
0.0281677
0.845002
0.0217848
0.226485
0.046332
6.95151
7.09724
35.6018
0.0224074
0.0217952
0.107421
0.0215952
0.0282937
0.0219616
0.0901064
24.6106
0.254775
0.0309735
4.87293
0.0219276
0.0358675
0.0882677
0.105893
11.2934
8.11327
0.0218967
0.0221739
0.077711
0.143334
7.48812
1.29813
0.0219852
0.0220136
0.0270642
0.0903908
4.58995
0.0218863
6.16707
0.0219126
7.24363
0.197881
0.0222161
15.8278
0.0221704
5.26299
38.4148
0.0254364
0.31172
0.470772
9.43214
22.1788
0.0228136
10.4612
0.0274806
0.72088
0.0219969
0.257012
0.021983
0.0399679
10.2407
0.0820061