/*--------------------------------*- C++ -*----------------------------------*\
| =========                 |                                                 |
| \\      /  F ield         | OpenFOAM: The Open Source CFD Toolbox           |
|  \\    /   O peration     | Version:  v2012                                 |
|   \\  /    A nd           | Website:  www.openfoam.com                      |
|    \\/     M anipulation  |                                                 |
\*---------------------------------------------------------------------------*/
FoamFile
{
    version     2.0;
    format      ascii;
    class       volScalarField;
    location    "200";
    object      ddt0(epsilon);
}
// * * * * * * * * * * * * * * * * * * * * * * * * * * * * * * * * * * * * * //

dimensions      [0 2 -4 0 0 0 0];


internalField   nonuniform List<scalar> 
18540
(
2.70139e-10
8.57962e-11
9.59886e-11
1.03562e-08
2.96588e-10
-3.09041e-11
-9.52121e-11
-1.97779e-05
3.95205e-11
6.26226e-10
2.58421e-10
5.28794e-08
-7.16616e-09
-0.000276828
3.63819e-10
8.19028e-11
1.78525e-10
-7.75833e-11
7.02983e-11
-9.67719e-11
-3.9683e-09
8.01024e-11
-3.00553e-11
2.59787e-10
2.76019e-11
3.94288e-10
-2.78903e-10
-0.000214332
2.88591e-09
-0.0011087
0.0016207
1.22411e-10
-1.04455e-10
4.9528e-09
3.25293e-10
-1.20651e-10
-7.1606e-06
-8.23442e-11
4.68347e-11
-6.70621e-10
-2.17201e-09
1.68741e-09
5.67081e-10
3.07499e-11
-1.03157e-10
2.24068e-11
-3.73799e-05
-5.97263e-11
-3.12224e-10
1.54477e-08
4.99998e-06
1.40566e-09
6.53871e-11
-1.7632e-09
1.44073e-08
0.000967163
-7.61319e-10
-3.9402e-10
3.7884e-10
-3.7267e-09
2.76611e-10
1.61603e-10
-3.54045e-10
-1.56189e-11
5.07213e-11
7.91372e-12
-1.87084e-10
1.45917e-08
-1.39884e-08
-1.11607e-11
3.39341e-12
3.0857e-09
9.35642e-09
-1.45033e-12
-1.11165e-10
5.52108e-05
-1.17424e-08
1.40016e-10
2.65565e-11
1.54252e-06
-9.12512e-11
-2.54586e-12
8.10568e-11
1.78218e-11
3.14028e-10
-1.28064e-10
-5.4318e-09
8.51215e-11
1.95714e-10
1.95496e-08
-3.73264e-07
0.000179279
-3.85654e-09
3.96715e-10
-1.52826e-11
5.66993e-11
-4.88311e-10
-1.93884e-11
-1.62992e-05
-5.96853e-11
-7.468e-11
5.6772e-09
-5.31765e-11
4.75351e-11
1.75454e-11
-7.84965e-11
-4.36346e-11
1.10571e-08
1.95579e-09
4.84755e-11
-3.64989e-10
-1.01229e-11
1.35688e-10
2.88121e-10
-4.14336e-11
-1.60864e-12
-4.12854e-11
1.45296e-10
5.63855e-11
4.00543e-11
-1.23508e-10
0.000126119
1.83217e-05
-3.11435e-10
4.41887e-10
1.77139e-09
-3.77327e-11
-3.09154e-07
-7.96471e-12
4.24413e-11
0.00034
1.40729e-11
1.66744e-10
1.2541e-05
-6.179e-11
4.86135e-10
7.67877e-13
-1.99717e-10
1.73831e-10
8.96022e-12
-6.96752e-11
2.11673e-11
3.51821e-10
5.89262e-10
1.12806e-08
5.68156e-09
9.67451e-09
3.02423e-05
6.98499e-13
4.07859e-11
-1.87791e-05
-1.63387e-10
3.84202e-11
-3.22035e-10
6.28236e-11
1.0705e-10
5.18396e-06
2.30803e-11
4.01813e-11
-3.34818e-05
8.50215e-07
-3.79115e-05
6.11925e-09
0.000539076
8.79532e-09
1.40061e-10
-1.15575e-09
-2.13556e-10
-3.60724e-11
4.33006e-10
1.37943e-08
-1.10835e-10
-6.12358e-10
0.00015684
-4.18656e-07
1.69502e-06
9.36741e-11
0.000491334
5.30759e-11
3.89675e-11
-5.21084e-05
2.00597e-09
8.20307e-11
7.48483e-11
7.59495e-11
-1.33381e-09
0.000575249
-5.47026e-06
-8.263e-09
-2.48547e-09
-3.75105e-09
0.000440787
5.01975e-10
-3.35854e-05
5.34222e-11
2.62578e-10
3.82434e-07
-2.7864e-05
6.62813e-12
6.90885e-09
2.71857e-10
0.000452307
-6.69713e-11
2.32756e-10
2.73018e-11
4.53332e-11
1.88747e-07
5.24988e-09
1.28383e-06
7.30372e-05
2.53723e-10
5.93527e-11
1.67266e-11
1.28007e-10
-5.05602e-09
0.00111119
1.5571e-10
-5.43376e-11
1.43962e-07
-5.18984e-05
7.79769e-09
-1.64908e-10
4.3393e-05
2.94791e-09
5.16647e-10
-1.31917e-11
4.45555e-07
-8.84878e-09
9.02178e-08
1.36907e-09
2.50349e-09
-1.03967e-09
2.99526e-05
-2.61114e-09
-1.48765e-08
-2.04902e-09
-3.16198e-09
4.59886e-10
-1.74605e-10
5.79419e-10
1.65296e-10
1.78023e-09
-7.34808e-11
-3.95972e-11
-4.93314e-12
-3.93771e-10
-4.45038e-10
-7.59514e-11
-1.29017e-10
-4.10215e-10
-1.05714e-10
3.4678e-05
-4.52246e-11
-1.32827e-10
-4.78924e-06
7.7042e-09
6.89041e-08
2.31214e-05
1.42474e-08
-4.19174e-05
1.5152e-05
-1.97301e-05
5.7928e-06
-4.1784e-11
1.87282e-10
-4.15076e-05
1.49593e-10
-9.30893e-11
-2.52522e-05
7.5474e-11
5.47856e-11
3.17176e-09
1.55929e-11
2.56742e-11
-1.93383e-11
-2.71421e-10
2.07463e-11
-1.87368e-09
6.17586e-06
2.2453e-11
6.72142e-13
4.83637e-11
-1.35034e-05
1.04681e-10
1.08167e-09
0.000367165
-3.26607e-11
-3.5501e-10
1.23968e-08
-0.00235425
1.91026e-10
-3.41725e-10
-1.08713e-08
-1.23815e-09
-1.63421e-10
2.30826e-11
7.75261e-09
5.08836e-11
4.09159e-10
-1.64433e-10
4.34651e-12
4.93582e-11
9.20638e-11
-0.00149175
-3.06153e-09
5.34833e-11
-2.19377e-09
-1.08151e-11
-3.22259e-07
-4.32453e-11
-4.76826e-10
2.99325e-10
1.93555e-10
5.74897e-11
-1.82829e-09
3.05695e-10
4.61266e-08
-5.90254e-10
5.47203e-12
-6.0547e-08
5.26851e-10
-2.07603e-10
-2.54185e-10
3.42604e-11
-0.00148352
2.02286e-10
-5.3984e-11
8.52036e-09
7.83595e-11
-1.01744e-10
1.54209e-10
8.12812e-11
1.28725e-11
2.40275e-10
6.86015e-11
3.28138e-10
1.07913e-06
1.76755e-10
5.97403e-09
-4.7315e-10
-9.04477e-10
2.7363e-10
2.96274e-10
2.422e-10
-2.42664e-10
0.000362861
-1.09595e-09
6.12834e-05
2.58693e-10
-3.04619e-10
4.96325e-11
-2.80437e-11
5.38327e-10
-3.17945e-07
1.47806e-10
-3.65002e-06
4.33184e-10
1.87058e-10
0.00218236
3.23991e-11
6.93729e-11
4.62258e-10
7.3366e-09
-3.72319e-09
4.78152e-09
9.76894e-11
-3.81981e-11
-1.85512e-10
2.07242e-11
2.59146e-08
6.52763e-12
-7.06059e-06
8.07677e-11
-0.0012496
7.85366e-07
4.40255e-05
-5.73806e-10
3.28354e-09
-2.0706e-10
-1.24862e-10
-3.40324e-05
7.1046e-11
7.4379e-10
9.67793e-11
-6.61659e-09
4.01581e-10
2.80812e-10
-1.49467e-10
1.84696e-07
-1.69034e-08
2.21589e-10
-6.75773e-09
2.11784e-11
-0.000918005
-3.02504e-06
-3.46026e-09
2.19566e-11
5.05764e-11
0.000344476
8.10349e-11
-1.21582e-11
-0.000926169
-4.34728e-09
-3.60058e-09
4.83695e-11
-3.49759e-10
-1.60456e-10
4.08465e-08
6.41825e-11
2.52677e-10
9.70154e-05
8.25077e-11
-6.10166e-11
3.81985e-10
-1.9125e-09
-3.25571e-06
6.77757e-11
-5.73704e-09
-1.60596e-10
6.56995e-07
-0.00175984
1.32707e-10
3.6882e-11
-1.36673e-10
6.13797e-09
-7.34852e-10
9.83398e-11
1.5831e-11
-4.31941e-08
-8.34505e-11
4.92195e-10
6.56512e-10
4.21948e-11
-7.64142e-11
-2.42664e-11
4.25574e-11
-1.34526e-11
5.55647e-07
-5.58157e-11
4.76244e-10
-0.00170839
-4.43645e-07
7.99491e-05
-6.67214e-10
9.20452e-12
9.58942e-11
3.50682e-10
2.50668e-05
4.16901e-11
7.26331e-11
-5.23893e-09
-6.31452e-12
-1.98625e-11
-4.91205e-11
3.46689e-11
-7.04748e-11
0.000302249
1.7666e-10
-1.91099e-09
1.67112e-10
8.86725e-11
7.75397e-11
3.79966e-07
3.29045e-11
0.00068764
-1.05201e-08
1.37856e-10
5.32053e-05
7.60689e-11
1.30356e-05
-1.54151e-10
5.92148e-06
3.93713e-11
-9.57864e-10
7.79952e-13
1.04793e-10
-9.84227e-06
-2.19333e-10
6.89159e-11
4.98875e-11
-8.16844e-09
6.85977e-12
-6.08107e-09
-1.25174e-06
-3.32729e-10
2.97095e-10
-8.56378e-09
3.22188e-10
9.09153e-05
7.7375e-11
-7.77722e-09
-3.46657e-11
1.92292e-09
-6.121e-10
-0.000119076
-1.50705e-09
-2.64137e-09
4.99961e-11
-8.61043e-12
7.47631e-12
2.41067e-07
1.05906e-11
3.58444e-05
3.94376e-11
1.22789e-05
5.55232e-12
-1.21394e-11
1.01148e-10
-9.91784e-11
2.9576e-11
-2.0797e-10
5.56265e-05
-4.83914e-10
-8.41992e-06
1.16906e-10
-4.92351e-09
-5.55218e-11
8.7437e-12
-1.34323e-09
2.59679e-11
1.63347e-10
-1.10678e-10
-1.75213e-11
0.000354351
-2.89106e-09
8.37979e-06
1.03741e-10
-2.79284e-11
-6.06563e-12
7.19451e-05
1.17143e-11
-1.34636e-05
4.28004e-10
1.16864e-11
1.75847e-11
-1.81843e-11
-1.70425e-11
7.62348e-12
1.64547e-10
2.46726e-09
2.00173e-08
-1.13793e-10
-4.49049e-05
1.70232e-13
6.95249e-11
2.42403e-05
-1.07234e-09
-4.62172e-12
0.00113197
-1.8706e-09
-1.11797e-09
3.41201e-11
2.55974e-05
-2.20891e-09
9.15044e-12
-3.35857e-09
5.01489e-05
1.32557e-11
-2.68387e-05
-7.31064e-11
5.70314e-10
4.92897e-05
-2.85979e-07
2.22085e-11
-0.000275354
1.7315e-11
1.33802e-09
-2.04925e-10
-5.6401e-11
-4.08413e-09
-2.94052e-10
6.86137e-05
0.000137024
1.25995e-09
-8.20236e-09
-7.77661e-09
-6.70682e-08
2.92142e-09
1.50517e-11
-7.97489e-05
3.36168e-08
1.19063e-11
2.09209e-11
-1.57835e-05
3.1225e-11
1.3624e-10
-2.12592e-11
-3.79251e-12
3.91183e-10
-2.10925e-10
4.93223e-10
3.40129e-09
3.95627e-11
-4.13093e-11
1.00731e-10
-7.5663e-08
-7.49406e-11
2.66748e-11
1.34893e-08
1.492e-10
6.26019e-11
2.37307e-08
5.45726e-10
2.19604e-11
-2.20308e-12
1.23574e-06
4.74507e-11
-8.99748e-10
1.14515e-10
4.34089e-11
2.84064e-11
-1.58028e-09
-4.16664e-07
3.2581e-06
2.11991e-10
-2.57569e-11
2.76854e-10
2.89885e-10
5.71403e-11
-2.88878e-10
-7.11311e-10
1.66565e-10
3.17214e-10
-3.89979e-11
-3.16061e-09
2.36255e-10
1.18598e-10
-2.26717e-06
1.00078e-11
1.48968e-10
-1.7616e-10
-2.61211e-11
6.24801e-11
-2.02926e-10
1.32296e-11
1.98931e-09
-1.18377e-10
1.06507e-07
4.1271e-06
2.35678e-10
-1.48545e-05
-3.24384e-10
-4.24122e-11
-6.25935e-09
-0.000410115
-4.86848e-09
6.71463e-12
0.000113127
-4.65129e-11
2.96422e-10
3.38965e-09
-0.000411542
8.51932e-11
2.23489e-10
-1.34093e-09
5.1912e-10
3.07086e-11
-1.83589e-10
1.81495e-10
3.95847e-10
1.81005e-11
8.38156e-05
1.01134e-10
3.81853e-11
4.80536e-10
-3.79699e-11
-2.68914e-12
1.65448e-09
0.000589211
4.10267e-11
4.85674e-10
-2.39353e-10
-1.2553e-10
1.25277e-09
-5.94217e-11
7.91997e-11
1.4004e-10
-1.82825e-05
2.47054e-09
6.25556e-11
3.56029e-10
-3.52789e-10
-1.17286e-10
1.86074e-09
1.78243e-10
-2.06397e-09
8.23153e-06
-1.22003e-10
-3.79808e-12
-1.31289e-10
-1.18037e-06
-1.54381e-11
9.75172e-11
-5.91675e-11
-3.36236e-05
3.20807e-05
-0.000336814
-6.76016e-09
-4.75031e-11
8.13882e-11
-6.61052e-09
4.76528e-11
5.10726e-10
4.35883e-10
-7.14607e-10
-7.02303e-05
-8.08441e-11
-1.9662e-09
1.05353e-07
5.14625e-12
-1.48286e-11
5.39156e-10
1.71667e-11
4.21941e-09
4.81619e-10
-3.9365e-11
1.75754e-11
-3.23683e-10
2.74715e-11
-2.17768e-09
-3.31828e-09
-3.35026e-10
-8.90129e-06
6.40676e-11
-0.000155452
3.6972e-11
-8.42309e-07
-0.000170186
-5.29795e-11
8.0019e-10
3.37834e-10
1.2545e-10
-0.000146054
7.80268e-10
1.6143e-10
-2.01823e-05
1.87617e-10
-2.25585e-11
3.97865e-11
7.25817e-11
6.86525e-09
-1.2679e-07
-2.56744e-09
3.3843e-11
5.56121e-10
6.73386e-11
3.60645e-11
2.64777e-10
-5.10345e-10
1.43703e-11
9.71659e-10
-1.93973e-10
2.95318e-09
1.50058e-12
8.69556e-12
1.45971e-05
-0.000137906
7.3676e-09
-1.6959e-05
-4.2858e-11
-1.43536e-05
-2.33867e-11
0.000303914
1.95141e-11
-7.13958e-11
8.50599e-10
1.447e-07
-1.9025e-09
-7.86082e-11
-1.63978e-10
-7.74974e-12
-1.28632e-09
-2.57114e-11
5.42044e-09
6.71426e-10
2.66814e-07
4.26789e-05
-1.42097e-09
7.41906e-10
4.17317e-06
-1.39439e-10
-7.39209e-05
-1.73426e-10
5.36331e-11
4.73175e-09
-2.06773e-10
-2.83668e-10
-7.36058e-09
2.56866e-10
1.52079e-08
-2.65539e-10
-2.71707e-11
-5.33323e-11
6.37844e-11
3.36177e-11
-3.464e-11
0.000108441
8.40619e-11
2.91841e-10
-1.27384e-10
-3.91934e-06
3.64784e-10
5.04892e-11
7.98424e-09
0.000617926
5.0532e-13
-6.07938e-11
0.000597229
8.39929e-09
-6.82775e-06
-2.8066e-10
3.34661e-06
-1.11702e-10
2.55678e-11
1.49058e-11
-4.2993e-11
2.09309e-10
-1.98291e-05
-3.09911e-10
-2.29352e-10
2.8881e-05
-2.49142e-06
5.27179e-11
6.13213e-10
-1.29373e-10
4.69447e-08
-1.9599e-10
8.84424e-09
-1.75339e-06
-1.15286e-05
-8.25125e-11
-1.75057e-05
-1.26514e-10
3.0806e-05
9.63486e-10
3.36209e-11
2.40282e-11
-7.38108e-09
1.90615e-11
4.95398e-07
-2.73359e-09
3.43861e-09
-3.31666e-10
-5.11544e-11
3.20293e-10
2.87053e-10
-2.36198e-05
-6.08583e-09
-1.16418e-12
-1.44708e-11
1.02705e-09
-3.58229e-10
1.15769e-08
1.48407e-09
8.90155e-11
7.09522e-11
3.62343e-12
-8.03101e-12
9.53734e-10
2.08065e-10
4.04061e-10
-5.11526e-09
-1.08547e-09
-2.58591e-11
2.64621e-11
-2.3497e-10
-4.25137e-11
0.000143829
0.000150259
8.55228e-12
-1.04728e-10
8.23915e-12
3.83163e-10
-4.01685e-12
7.30742e-11
-2.76601e-09
-3.79705e-11
3.5266e-10
-5.86249e-11
-1.04616e-10
8.00025e-08
-8.11414e-11
-1.72218e-10
-1.93814e-10
-0.000153823
-2.46542e-06
-1.14588e-10
0.000114439
1.14356e-11
0.000103983
-2.96487e-10
4.43925e-11
-1.97802e-10
-3.67604e-10
-2.54195e-10
-3.86286e-06
2.67554e-10
-3.29285e-10
-2.3384e-11
-5.99453e-09
-1.95949e-05
-5.72164e-12
2.2079e-11
4.08562e-10
3.2342e-10
-1.45067e-10
8.72463e-07
-3.21017e-10
-4.28265e-11
1.16468e-10
1.17808e-09
2.01528e-10
1.87567e-10
1.44619e-10
1.64656e-11
-3.4564e-10
-1.29192e-10
-4.80236e-09
7.13582e-11
8.87137e-11
9.18548e-09
4.24316e-09
2.0719e-09
5.44089e-11
2.9453e-11
6.36617e-05
-2.38459e-10
3.99336e-10
-3.8109e-11
-1.28785e-10
2.23106e-11
1.27035e-09
7.38298e-06
0.000176139
-0.000515854
0.000422193
-2.41315e-11
-0.000121559
-5.61871e-10
-1.26781e-10
-7.31895e-11
-1.47388e-05
2.36592e-10
-1.86979e-09
-5.80386e-09
-3.49979e-05
-2.23656e-10
1.04222e-11
5.32347e-05
3.8394e-10
-2.17093e-10
5.11134e-07
5.76859e-05
0.000241309
-4.47797e-10
-1.78429e-06
-1.64276e-10
-4.00456e-09
3.97959e-11
1.40097e-08
4.51204e-11
-1.40231e-10
2.6774e-09
3.71036e-10
-6.23504e-05
-5.10596e-11
4.14209e-05
-1.89568e-10
-2.57297e-09
7.29073e-09
-7.52666e-10
1.16427e-09
3.84926e-11
4.15052e-12
-1.85136e-09
-6.83438e-12
-1.96115e-09
-0.000344312
0.000496837
2.92505e-05
2.1321e-10
5.31635e-05
-2.42217e-08
4.14003e-06
4.7542e-10
3.74424e-09
-2.50574e-09
1.67874e-10
-6.39485e-11
4.82818e-11
6.45971e-10
1.95351e-10
1.92528e-10
2.51066e-11
2.48313e-10
1.09454e-10
2.184e-11
4.65958e-10
8.95027e-11
2.88297e-06
-6.09583e-07
2.15986e-09
7.15164e-11
-4.81322e-09
7.30952e-10
4.24772e-10
-1.10795e-10
0.000557214
-2.26552e-10
-1.42204e-10
-7.20667e-11
0.000573641
5.16491e-11
-1.93307e-05
-6.14102e-10
3.56251e-11
0.000127263
-3.21341e-10
-1.70443e-10
3.01115e-10
2.74907e-11
-1.21896e-10
7.49086e-10
2.24773e-10
3.1513e-08
7.04804e-11
-3.83775e-09
-3.52824e-10
3.58685e-11
2.05787e-07
1.20369e-10
3.16032e-06
2.80517e-11
2.09376e-11
2.49329e-10
3.26826e-11
2.16159e-09
-3.47057e-10
-1.80956e-05
8.44694e-11
2.75435e-11
3.98949e-11
1.54518e-09
-4.36946e-10
-2.8759e-10
1.0885e-10
-2.69439e-09
2.83644e-10
3.15145e-10
-6.96827e-09
-4.60794e-10
-3.88348e-05
1.25792e-10
1.44289e-10
5.44913e-10
3.18585e-08
-9.1251e-09
5.15265e-11
-2.32501e-10
6.36662e-10
3.71439e-12
-3.17665e-05
1.20727e-10
2.2643e-11
-1.90444e-07
-4.78897e-09
1.30645e-11
9.75219e-09
1.32269e-10
-2.32274e-05
-9.98397e-11
-2.87636e-10
8.28341e-10
9.2369e-09
6.09564e-11
3.33307e-05
1.72996e-10
5.74608e-10
-1.82186e-10
-8.73341e-11
-1.78879e-11
3.31725e-10
3.68584e-11
-1.42147e-10
-1.26189e-10
2.19684e-10
-4.08563e-11
-2.15905e-10
9.62501e-09
-2.69036e-09
1.95884e-10
-0.000442052
-1.38905e-10
6.68548e-10
-0.000286036
-1.12787e-11
-1.02023e-10
2.40752e-07
4.91493e-11
-1.11567e-10
-2.916e-10
8.80288e-09
2.00718e-08
4.64871e-11
-1.6164e-10
3.09838e-10
0.000848121
7.66105e-10
1.73672e-10
2.11677e-09
4.53817e-09
-3.16891e-10
-2.57339e-07
8.33507e-10
0.000556579
3.5485e-11
-8.80137e-10
-4.51486e-09
2.37456e-10
9.63902e-10
3.27184e-05
2.14294e-08
6.40454e-07
-2.8068e-09
6.99145e-11
-3.84309e-12
1.30529e-10
7.31546e-10
3.47933e-10
-3.21584e-11
-1.5876e-07
3.65304e-11
-1.56867e-11
8.64946e-11
-1.33378e-10
-2.42411e-09
-5.83058e-10
8.10325e-11
3.65724e-10
4.40719e-05
3.28945e-11
-3.20176e-11
7.25175e-11
-1.59925e-10
2.32813e-10
2.0769e-10
-1.83924e-09
4.57498e-12
-5.82863e-07
-5.43463e-11
1.19677e-10
1.21676e-08
-6.27049e-12
-2.09743e-10
5.41835e-11
-1.90106e-09
-2.59617e-10
1.65167e-05
-2.41114e-09
5.1116e-09
2.63977e-11
6.05574e-11
8.57251e-11
-5.1296e-11
-1.77955e-11
-8.83105e-11
1.08101e-10
1.20967e-08
-1.33232e-07
6.69689e-11
1.47294e-11
-4.74358e-09
3.56509e-12
4.5906e-11
-1.21756e-10
-2.0115e-10
4.81004e-05
-1.22174e-05
-3.26254e-11
5.77515e-05
4.05761e-10
-9.37225e-12
1.39173e-10
6.86481e-11
-2.80778e-12
-1.90019e-11
2.99312e-09
-2.99386e-10
1.83952e-10
-3.55592e-11
-9.53333e-11
-1.09545e-11
4.16592e-11
-1.0049e-11
-1.30202e-10
-5.57376e-10
-3.36874e-10
-5.71077e-09
-1.42259e-10
3.53011e-06
1.26864e-05
-0.00168678
-4.89661e-10
-1.55158e-10
-2.76664e-10
6.63448e-10
-4.91369e-10
-2.47095e-10
2.51754e-05
-3.65192e-11
-2.6793e-10
1.0661e-08
2.30351e-11
-6.42319e-05
-6.89714e-11
3.79133e-06
-2.11697e-11
-9.0137e-12
3.51241e-10
1.58045e-10
5.66009e-11
-1.1409e-11
7.03292e-05
-2.84477e-11
-9.94625e-10
2.24387e-10
-4.17592e-09
2.03545e-11
-2.92618e-10
3.68632e-10
-5.11025e-10
1.32585e-09
-7.69448e-11
4.78716e-11
-4.77054e-11
3.36516e-11
1.20973e-10
-1.45169e-09
-3.68259e-10
6.05542e-13
2.12082e-11
-2.32743e-09
1.04631e-09
1.30631e-10
5.07326e-06
-1.01723e-07
1.65401e-09
2.12769e-09
7.64362e-11
-1.89712e-05
1.19335e-11
2.8918e-08
-1.71972e-10
-4.11205e-11
8.68177e-11
1.09549e-08
-5.4938e-10
3.90389e-11
8.32915e-11
4.2735e-11
3.28734e-11
4.19251e-08
4.64807e-09
-2.94155e-09
3.75921e-07
-6.4703e-07
4.44752e-11
-1.3047e-10
-1.26205e-06
-4.87704e-09
6.0549e-11
5.44925e-11
7.10056e-08
0.000102894
-1.50481e-11
-4.43197e-11
-5.51808e-11
2.58572e-05
-6.25252e-12
-6.46731e-11
-6.21792e-11
2.67475e-08
1.10902e-09
3.81137e-10
7.95846e-11
-1.12834e-10
-7.60362e-07
3.50383e-09
-1.30716e-10
-6.43472e-09
9.48746e-10
1.04137e-07
0.000741016
6.42542e-10
1.46442e-09
-1.51823e-10
1.14701e-10
1.1489e-05
3.32503e-09
-6.93553e-12
-2.6395e-10
-6.48304e-09
-2.22825e-10
6.86889e-11
3.75715e-09
1.83936e-11
2.86191e-09
2.96848e-08
-1.19657e-10
5.13818e-05
0.000397945
1.03392e-10
2.41251e-10
0.00010793
3.37137e-11
2.57428e-10
1.34692e-10
3.40638e-05
-3.87094e-07
-3.02633e-05
2.16652e-11
3.01666e-11
5.48601e-05
-4.57753e-11
9.7545e-11
-1.02448e-11
4.67624e-11
-2.44359e-08
-1.36937e-10
-8.60689e-12
6.90962e-05
7.14087e-10
-2.36125e-11
-9.75049e-11
3.9228e-07
-3.30935e-10
1.0522e-11
1.56055e-09
2.8466e-10
1.13111e-10
4.68954e-11
1.20256e-09
3.99758e-11
-2.30113e-10
-1.83339e-11
5.05102e-11
3.77875e-11
-2.14395e-11
-4.14562e-11
9.4256e-05
3.40741e-05
3.97427e-10
-1.39642e-09
-5.38958e-11
8.26348e-11
2.14712e-09
-1.15507e-11
-2.79048e-09
1.78568e-10
1.51548e-06
9.34063e-06
-3.43309e-11
-1.95142e-10
4.12275e-10
-2.90571e-08
6.1512e-11
9.6065e-10
-1.78721e-11
-0.000171891
-5.43476e-10
2.33405e-11
-3.78793e-11
-7.43582e-11
7.33297e-08
3.7315e-10
-8.68952e-11
6.67857e-11
-1.99634e-11
-8.26294e-11
6.24541e-10
-1.07243e-10
3.55039e-10
-8.8819e-05
-1.47171e-10
-2.31908e-10
5.66084e-12
-5.89458e-11
2.53256e-11
-2.61829e-10
5.03672e-05
-4.30383e-10
8.59694e-11
2.96439e-10
2.40023e-09
1.07559e-11
0.000525183
-2.08376e-09
-1.03037e-12
7.91438e-10
-4.63736e-10
0.000288409
4.3184e-10
3.14899e-10
-2.86578e-10
-0.00118505
-9.05918e-05
-2.31614e-10
4.09789e-06
-3.9375e-09
-3.06368e-09
-3.33162e-10
1.27942e-10
-2.2989e-09
-3.50835e-11
-4.06953e-11
7.50932e-11
5.01481e-05
-1.81512e-11
-4.86672e-11
-2.74195e-11
2.90128e-09
1.56939e-09
-7.14336e-05
4.35638e-12
-7.2018e-10
2.59687e-11
-8.47587e-05
-5.85951e-10
5.15609e-06
5.38596e-05
1.47159e-09
-1.34693e-10
-5.00236e-10
2.07362e-10
1.12507e-10
-6.87819e-11
-3.90995e-11
4.32291e-09
1.33353e-11
6.00978e-11
3.22857e-10
4.24147e-10
4.83646e-10
-4.22382e-11
-4.50633e-11
-5.65283e-09
-3.95855e-08
-3.8283e-10
3.42089e-09
1.21142e-11
-4.50382e-11
-4.90293e-11
-2.13026e-05
-6.0605e-11
1.39934e-09
0.000330684
-1.02956e-10
2.22963e-10
-2.97308e-11
-3.07396e-10
-3.08122e-11
6.32088e-12
-2.70595e-10
3.98421e-10
-6.1004e-11
-2.42601e-05
7.79841e-11
9.44137e-05
1.82362e-06
2.17084e-11
1.13317e-10
1.8367e-08
3.9125e-11
-1.66063e-10
-4.74426e-11
-3.54497e-11
6.3033e-11
-2.72199e-12
-4.15328e-10
6.18837e-11
-6.24648e-12
1.35629e-11
-4.55311e-11
4.84535e-10
3.23155e-10
2.60562e-10
-6.89339e-11
2.60434e-06
1.48422e-10
2.42995e-11
4.21364e-09
1.82648e-10
1.73972e-08
3.52813e-10
-1.06237e-10
4.48397e-11
8.91611e-05
-2.14551e-07
-7.73002e-05
-3.21236e-10
-8.77346e-10
8.57066e-11
-8.59932e-11
1.69824e-10
1.24341e-10
1.5158e-11
8.81969e-12
0.000711866
3.4284e-11
-1.89991e-11
0.000100866
1.59802e-10
-1.8398e-11
1.25961e-11
-1.05923e-10
5.79215e-11
1.64354e-11
1.85904e-06
-7.73446e-06
-9.92684e-11
9.61912e-10
6.26338e-10
0.000882279
-6.38543e-10
-1.96151e-10
-2.56634e-11
7.60927e-08
0.00046286
2.63587e-09
-1.16373e-08
-2.09199e-09
9.38851e-10
2.95123e-10
1.2159e-05
0.000308578
0.000354745
4.19352e-10
1.60204e-10
-1.80614e-05
5.42493e-12
-0.00232294
-3.77596e-11
3.25822e-10
-4.41962e-10
9.95813e-11
3.73741e-09
2.33878e-10
-3.30667e-09
-4.92618e-05
1.24093e-10
5.23073e-05
-3.68671e-12
-8.60294e-11
-2.40462e-09
-0.000129573
4.361e-11
-1.9621e-10
-2.17214e-11
-6.6295e-11
2.65242e-05
7.68037e-06
3.82209e-10
-1.8604e-09
8.48478e-11
8.16558e-11
0.000205577
1.11785e-10
-2.49486e-09
0.000103042
0.0001196
4.69476e-05
2.65064e-11
-1.91669e-11
-4.68912e-12
5.3275e-10
-6.47969e-10
-6.09869e-08
-9.50344e-10
-2.06436e-09
-5.71472e-10
1.18423e-11
9.82038e-11
-0.000358911
-2.95767e-11
3.67303e-10
3.94767e-09
1.92823e-10
1.0079e-10
0.000354053
9.22744e-06
-6.71135e-09
-6.07849e-12
-2.94622e-11
-4.3674e-12
1.97074e-10
-1.07492e-12
8.10806e-11
-3.5093e-09
-9.1051e-09
3.41483e-10
-3.21593e-08
-1.81962e-10
-0.000207425
2.53783e-11
-8.13576e-08
4.00112e-10
-4.09338e-10
4.36885e-11
-2.12036e-10
5.77879e-12
4.27037e-09
5.3309e-09
1.68427e-10
1.18232e-10
6.82568e-11
1.03977e-10
4.85081e-12
1.42019e-11
-0.000466653
1.4324e-10
4.03456e-11
1.92497e-10
1.27031e-10
1.83251e-08
1.69671e-10
-9.29915e-11
-4.76478e-09
1.79843e-09
9.85607e-10
4.17876e-09
8.05324e-05
1.74903e-10
3.66518e-09
0.000921495
-3.55716e-11
-3.41491e-09
-4.81105e-11
2.00513e-10
4.93073e-06
-3.78566e-08
-2.36391e-11
4.98819e-11
-8.26151e-07
6.38263e-05
2.27501e-11
2.58162e-09
-1.12924e-09
-5.03988e-12
-1.33017e-10
-4.04849e-11
-6.76993e-09
3.52082e-09
-2.02977e-10
3.06183e-11
6.96681e-11
1.13268e-10
0.000221438
-5.97141e-11
8.60358e-11
8.01233e-05
-5.79344e-09
-2.84488e-10
2.26106e-07
8.1194e-11
7.47533e-10
-2.66797e-10
-2.07744e-10
3.16533e-11
0.000512761
-4.9544e-09
3.86046e-12
0.000132336
-9.04014e-11
-6.76191e-06
2.60094e-10
-1.11529e-10
-3.09425e-08
3.53588e-09
1.81585e-06
-2.14796e-05
-3.36343e-05
-1.20298e-08
-3.93735e-11
-1.53563e-10
4.50465e-09
6.32986e-11
1.80656e-10
2.73586e-07
1.17489e-05
1.52446e-05
-2.28612e-05
8.82305e-10
1.45666e-08
-8.10134e-11
7.13332e-11
4.14947e-10
-3.67839e-11
4.03377e-09
-1.81133e-10
-1.11306e-08
6.18221e-11
-6.78326e-10
-2.3462e-10
-4.48688e-10
-1.42083e-10
-1.48661e-11
9.79607e-10
-1.97432e-10
-7.81524e-11
0.000100779
6.58343e-11
0.000456905
5.60835e-13
1.17128e-09
-8.20131e-11
-2.97302e-11
-1.29469e-08
-3.54407e-11
5.41038e-08
-8.36805e-06
-2.53702e-11
2.89432e-10
3.98201e-11
3.11886e-05
2.463e-12
3.6063e-11
2.4679e-10
5.1925e-12
-2.53555e-11
-1.86045e-10
-4.29739e-09
1.1966e-09
-5.93732e-10
3.16827e-10
3.26062e-09
8.32702e-10
7.09686e-05
5.0681e-11
-1.85298e-11
6.81401e-11
3.94557e-05
-1.57905e-11
-2.10142e-11
6.43529e-11
6.96211e-10
3.26927e-10
-6.0588e-09
-4.95361e-09
7.42462e-13
-3.71055e-10
-3.8843e-11
-2.10012e-05
-2.50908e-10
-4.52761e-11
-7.96251e-06
-1.35352e-08
-3.36652e-10
-6.11496e-08
5.38958e-11
1.57339e-08
-5.41796e-05
5.97439e-10
6.53138e-11
-7.86416e-11
7.08501e-06
6.43806e-12
-4.31969e-11
8.91138e-12
6.59283e-10
1.14124e-10
-2.26434e-10
2.87533e-11
1.56766e-10
3.4281e-09
-1.19932e-10
-9.04373e-11
-3.08773e-08
2.92201e-09
1.64222e-10
-3.51073e-10
1.83716e-09
9.87466e-05
4.9613e-10
-3.06163e-06
5.34869e-11
0.000134003
-8.93345e-07
-7.73358e-11
-1.33654e-07
2.52441e-10
0.000121105
-2.05642e-11
6.02249e-10
0.000204175
1.35373e-10
1.14949e-10
5.478e-06
2.78552e-05
7.29162e-10
-3.88587e-09
1.61539e-08
9.03004e-07
-1.62403e-09
-6.75457e-12
4.4668e-11
-2.41951e-10
-2.3905e-10
5.04382e-11
4.82972e-11
3.14522e-10
-1.50519e-10
-9.60461e-06
0.000233594
3.45906e-11
5.28115e-06
7.82047e-11
6.68802e-11
-2.96181e-11
-7.84031e-11
8.17102e-10
2.58442e-09
2.54439e-11
6.14581e-11
2.86587e-05
0.000284072
4.11932e-10
-2.75858e-10
1.08567e-09
1.69972e-10
-4.48652e-09
-4.87033e-11
-2.88734e-10
5.27288e-07
-0.000333863
4.98168e-05
6.62988e-09
1.5697e-11
-3.4824e-10
4.41709e-08
-9.50883e-10
-3.08468e-10
-3.14155e-09
-4.83118e-09
-7.58009e-08
1.17037e-10
-8.47817e-07
-1.29964e-09
3.54689e-10
5.18427e-07
-9.58232e-12
-2.3125e-10
2.40135e-13
1.45949e-11
6.87605e-11
-2.4493e-10
-4.29295e-09
1.11479e-10
1.01719e-10
-1.67044e-05
-0.000724361
4.16549e-10
-1.20826e-11
2.09339e-10
-7.96615e-10
-3.67231e-10
7.80094e-05
5.33647e-06
1.74535e-10
2.09993e-08
-3.41647e-05
7.02854e-11
-3.15659e-10
-1.06805e-05
-2.65458e-12
-1.86614e-08
4.22977e-06
1.82968e-11
5.17993e-06
-3.47395e-09
-1.94569e-09
5.55264e-10
9.70368e-10
-1.82549e-10
8.08603e-11
6.71719e-12
-1.00495e-10
-1.91498e-10
1.15684e-08
-8.40258e-10
1.1027e-11
1.03727e-10
2.19713e-08
-3.78547e-10
-1.97966e-10
2.08337e-11
1.98495e-10
1.03363e-10
0.000776573
1.89944e-09
1.38591e-11
2.97127e-09
0.000121662
9.04131e-11
1.03013e-06
2.96747e-07
2.8792e-10
1.37498e-11
-2.58734e-11
2.31108e-09
1.04838e-10
3.60562e-05
3.74019e-11
6.32014e-11
9.8381e-12
-8.84856e-09
1.27841e-09
1.68857e-06
-4.51458e-09
2.10356e-10
9.06628e-10
-1.85011e-09
-3.40341e-11
0.000522899
1.71767e-11
-4.35016e-11
-5.96324e-11
-1.49075e-09
5.34894e-11
1.4989e-11
1.03542e-10
-2.12366e-10
1.96849e-11
3.27967e-10
6.69276e-11
7.27835e-10
-4.18665e-11
3.75198e-12
8.49461e-12
-3.43568e-11
1.0344e-10
0.000287566
-9.89539e-07
-7.76554e-09
-1.49431e-11
-4.30591e-11
7.16531e-11
-2.13194e-10
3.24038e-11
2.92372e-11
-2.34477e-10
-2.25309e-11
9.9669e-11
-3.5878e-11
9.58971e-11
4.90237e-08
3.05555e-08
7.81257e-11
4.47114e-07
3.21567e-11
3.78933e-10
-6.71605e-11
2.37039e-05
2.85197e-11
3.09443e-10
2.76427e-09
4.4777e-10
-6.80525e-11
2.94746e-09
-5.42236e-11
-9.64793e-11
-2.10452e-08
1.29836e-10
5.52253e-09
1.20515e-08
-1.59012e-09
-5.01774e-10
-1.21531e-10
3.57955e-08
-1.92423e-07
2.1336e-07
-2.89388e-10
-3.32228e-05
3.32052e-12
2.83929e-10
4.26023e-12
-4.37708e-12
1.75259e-09
-1.92384e-09
-1.05726e-10
-2.78281e-10
-5.34297e-10
2.01187e-06
6.74879e-05
4.02867e-10
-1.23828e-10
0.000358278
1.02285e-10
3.2817e-11
-1.8199e-11
0.000768785
4.94959e-09
-4.79393e-09
-6.95092e-09
-4.1449e-11
4.60522e-08
-0.00026959
-1.0107e-10
6.20433e-11
2.80194e-11
-1.00221e-10
-1.75091e-09
7.40044e-11
-3.35262e-08
-1.85071e-08
-5.94843e-05
-1.78233e-10
6.20496e-06
-6.61004e-05
-0.000235245
1.87479e-08
2.56019e-11
9.93762e-11
-1.13081e-10
7.21906e-09
0.000365804
-2.40732e-10
8.5131e-09
-5.16005e-11
1.04825e-08
1.90379e-07
-5.53038e-08
2.88192e-09
2.60606e-09
1.44713e-10
8.2215e-11
-3.70039e-10
1.34864e-10
-4.12133e-08
6.71694e-09
7.66278e-09
-6.32754e-11
-2.47782e-11
-4.88091e-09
1.49693e-06
-0.000308197
-1.0057e-10
3.38769e-11
8.04754e-11
-9.11995e-11
3.30376e-11
-3.82666e-09
-3.08949e-10
-9.68258e-11
1.56282e-10
-4.79342e-07
5.1064e-11
-5.61218e-10
-2.40808e-10
1.49177e-10
-1.20167e-11
-3.47019e-10
7.28877e-11
-6.45336e-09
1.17033e-10
-1.48541e-11
-2.86072e-10
7.66534e-11
-1.40454e-09
-4.2489e-11
1.81155e-05
1.19119e-10
-2.19314e-11
1.0107e-09
2.40787e-05
2.46517e-11
-2.66761e-10
-4.70223e-09
1.97804e-11
8.63593e-11
8.94786e-09
-6.45672e-11
1.27267e-10
0.000937916
-5.68392e-12
8.60696e-05
-1.08302e-10
-3.26347e-11
-6.85706e-10
0.000122135
4.31095e-05
-1.47106e-08
-3.97952e-09
-4.05581e-09
-1.30665e-09
-1.28301e-11
6.76978e-10
-5.3199e-09
0.00133336
2.05433e-05
-5.05087e-08
-1.3057e-09
-2.13773e-05
-1.96023e-11
2.1371e-06
-6.42717e-05
8.59603e-05
1.4816e-12
1.68551e-10
-2.48775e-10
5.64401e-10
-1.51926e-09
8.5577e-11
-2.6688e-10
5.27868e-11
-1.36021e-10
2.66154e-10
-9.04852e-12
-5.40867e-09
-0.000645886
-2.29445e-10
3.35423e-11
-6.48268e-10
0.000404207
5.71569e-11
-2.39275e-10
8.73534e-11
-1.1429e-11
-1.85679e-09
9.4649e-05
-2.06938e-09
-5.64007e-06
0.000608903
1.77065e-13
-1.85354e-08
6.77299e-11
7.54564e-09
3.22301e-10
5.43054e-10
7.47825e-12
8.76164e-11
-1.8694e-06
-4.43451e-11
5.07136e-11
2.3986e-10
-1.10145e-10
1.77995e-10
0.000580757
-1.84726e-10
-4.83276e-11
-2.81354e-14
1.06443e-09
-9.66665e-11
-8.66492e-08
3.20267e-11
0.000243127
-6.90172e-12
1.21532e-11
-1.53504e-10
-6.16846e-08
1.24343e-10
-1.21697e-10
-0.000541148
1.1331e-10
4.92877e-11
3.80982e-09
7.61238e-11
2.69251e-08
1.6054e-10
-1.50927e-10
-1.46237e-09
-4.93152e-09
9.7639e-11
-2.62716e-09
0.000199112
1.05637e-10
-7.77077e-11
-6.99301e-11
1.45017e-09
1.14715e-10
-2.60584e-07
-8.35172e-10
-1.38556e-08
-7.98373e-07
-0.000109328
-9.34563e-09
-1.58867e-10
3.6073e-09
4.37719e-10
7.66405e-11
-2.10075e-09
3.41451e-09
1.74679e-08
-2.06042e-09
8.63175e-06
-1.13401e-10
7.28287e-09
4.95648e-10
2.71098e-10
7.15933e-06
-8.56187e-11
1.13381e-11
8.03704e-05
1.07988e-10
-6.39932e-11
-6.94768e-11
8.69763e-05
-1.94154e-09
-1.97084e-09
6.95491e-11
2.83727e-10
4.10748e-10
-8.85144e-09
7.83843e-10
-3.53258e-09
-2.88988e-11
-2.15508e-10
-1.5802e-12
2.15725e-10
-9.01134e-11
-7.1564e-11
-3.05981e-09
-6.06962e-10
-3.23013e-11
2.26684e-11
8.75103e-07
2.18736e-10
4.81435e-09
3.51628e-10
-1.78681e-08
-1.34597e-10
1.37185e-11
2.92922e-11
-1.74946e-09
7.59716e-09
1.06494e-10
-1.83206e-09
-7.67724e-10
-1.35012e-07
3.26498e-09
1.89788e-10
-5.4631e-09
-1.98802e-10
5.14354e-11
-2.33005e-11
1.08319e-10
3.53594e-09
-3.04843e-10
-1.45773e-09
-9.91436e-11
-9.5832e-10
-0.000166658
-3.69569e-10
7.58321e-10
1.15102e-09
0.000229564
6.52529e-10
3.55158e-11
0.00198425
-5.88716e-09
2.55688e-11
1.42355e-09
1.20109e-09
0.00036648
-9.49058e-10
1.92616e-11
-1.23694e-11
-3.1718e-10
0.00019665
0.0018642
3.19825e-10
-6.42823e-10
-2.38026e-09
-3.25846e-10
1.75159e-10
1.0351e-09
-0.000434379
1.96025e-10
-8.69963e-09
1.11079e-10
0.000171884
5.52391e-09
9.37409e-11
-2.64221e-10
-2.73116e-11
2.98235e-10
-2.62009e-09
1.86502e-10
4.80918e-08
-7.42876e-08
-4.43098e-09
4.32357e-11
-2.44447e-10
1.94145e-10
-5.47432e-08
0.000111199
-2.12927e-10
3.04478e-10
5.68604e-05
-3.20508e-11
-2.84563e-06
-2.8534e-10
7.90568e-11
1.90806e-10
-1.28688e-11
6.24305e-07
3.73102e-11
1.69798e-10
-2.35813e-05
-8.24669e-10
-1.08354e-09
-2.54644e-08
9.78278e-10
1.02021e-10
6.86323e-05
-7.97512e-10
-1.25857e-09
7.80251e-11
6.25788e-10
1.82546e-10
4.83286e-05
-3.25975e-11
2.56413e-10
2.80179e-10
2.80197e-09
1.00109e-08
0.000338993
-9.75178e-11
9.52054e-11
4.63199e-09
2.59993e-13
0.00226215
2.73671e-10
2.54642e-09
2.82278e-10
-8.15092e-08
-1.95579e-09
1.38385e-10
9.90719e-11
1.20554e-10
0.000121674
-1.49696e-11
8.65395e-11
-2.36291e-10
-3.94532e-08
4.41914e-10
-2.54481e-09
-7.03575e-08
1.45608e-11
2.28103e-09
3.07207e-05
-8.15794e-11
5.04821e-09
2.42503e-07
-2.33967e-11
-3.25376e-11
7.00922e-11
2.66234e-10
7.61139e-11
-3.7096e-10
-2.67324e-11
3.38157e-10
-1.08145e-10