/*--------------------------------*- C++ -*----------------------------------*\
| =========                 |                                                 |
| \\      /  F ield         | OpenFOAM: The Open Source CFD Toolbox           |
|  \\    /   O peration     | Version:  v2012                                 |
|   \\  /    A nd           | Website:  www.openfoam.com                      |
|    \\/     M anipulation  |                                                 |
\*---------------------------------------------------------------------------*/
FoamFile
{
    version     2.0;
    format      ascii;
    class       surfaceScalarField;
    location    "200";
    object      ddtCorrDdt0(phi);
}
// * * * * * * * * * * * * * * * * * * * * * * * * * * * * * * * * * * * * * //

dimensions      [0 3 -2 0 0 0 0];
oriented        oriented;


internalField   nonuniform List<scalar> 
27551
(
-0.000146043
6.1177e-05
8.48663e-05
0.000487781
-0.00112421
0.000636342
-5.19936e-06
9.34343e-07
4.26682e-06
0.00196674
-0.00144393
-0.000522818
-1.47028e-05
4.80852e-05
-3.33809e-05
-0.000133243
0.000124586
8.65769e-06
-3.72583e-05
5.9825e-05
-2.25639e-05
0.0177184
-0.0567442
0.0390257
-3.77269e-05
4.56783e-05
-7.95744e-06
-8.06397e-05
-4.88093e-05
0.000129448
3.58548e-05
-5.85565e-05
2.26993e-05
-0.00344304
0.00111133
0.00233171
0.0010064
0.000430786
-0.00143719
0.021821
-0.0218642
4.38692e-05
4.12782e-05
3.26439e-06
-4.45404e-05
-2.71319e-05
-1.05973e-05
-5.63338e-06
0.0014689
-0.00146326
-2.1265e-05
-6.73487e-06
2.79998e-05
3.35987e-06
1.62703e-06
-4.98527e-06
-7.076e-05
3.34996e-05
0.000136063
-0.000271117
0.000135055
1.911e-05
-5.82194e-06
-1.32851e-05
-1.45093e-05
2.96219e-05
-1.51104e-05
5.46703e-05
-2.47859e-05
-2.98844e-05
-5.35957e-06
3.2928e-06
2.06466e-06
-1.468e-05
5.59598e-05
1.25766e-05
2.07364e-06
-1.46506e-05
0.00773926
0.00184349
-0.000892911
-0.000950583
0.0225009
-0.000679896
0.00359354
-0.00343146
-0.00016206
9.62573e-06
1.06696e-06
-1.0691e-05
2.56885e-05
8.83014e-05
-0.000113991
0.000708229
0.00125554
-0.00196376
-3.95998e-05
2.48976e-05
0.000801789
-0.000935645
0.000133829
-0.0123679
0.00635575
0.00601191
2.76335e-06
2.28234e-05
-2.55873e-05
-0.000290662
-0.000289279
0.000579937
-0.000145372
2.31662e-05
0.000122207
0.000132092
-0.000166176
3.407e-05
-0.00103949
0.00152724
-3.22082e-06
-1.91031e-07
3.41402e-06
2.14505e-05
-0.000109147
8.7698e-05
0.00028226
-0.000274565
-7.70001e-06
-4.42449e-07
-2.9999e-06
3.44386e-06
-0.0202667
0.00251194
0.0177545
-0.000885764
0.00133182
-0.000446075
-0.000743236
-2.39096e-05
0.000767129
0.00105599
-0.00234716
0.00129118
-0.000336571
-0.0120314
2.62565e-06
-2.53536e-06
-9.00805e-08
-4.03289e-06
-4.01782e-07
4.43434e-06
-0.000111209
0.000110631
5.68342e-07
0.00165476
-0.000832665
-0.000822096
0.00162851
0.00196505
-0.000156392
1.10215e-05
-1.69341e-05
8.38746e-05
-6.69357e-05
-0.000101937
-4.41071e-05
0.000263927
-0.000127864
2.22969e-05
3.63718e-07
-2.26591e-05
-5.88968e-06
-9.1799e-07
6.80778e-06
-4.03594e-06
-3.87199e-06
7.90619e-06
-3.05255e-06
5.11211e-06
-2.06044e-06
-4.84428e-06
8.20636e-06
-2.39325e-07
-1.27085e-05
1.29481e-05
-0.00111564
0.00047353
0.000642128
0.00108349
0.000571257
-0.00120329
-0.00223974
1.35563e-06
-4.41119e-06
3.61823e-06
-4.20144e-06
5.83714e-07
0.000997207
0.000846288
-0.00141719
-0.000695244
0.00211244
1.54397e-05
-6.24163e-06
-9.21309e-06
-0.000593317
-0.000149943
0.0121723
0.0216079
-0.000424688
0.00143109
5.08414e-05
-4.75764e-05
4.42685e-06
-8.08229e-07
-0.0155703
0.059677
-0.0441067
0.000269111
1.31376e-05
8.08082e-06
-2.86804e-05
2.06015e-05
1.81257e-05
9.8549e-07
-2.54743e-05
1.00676e-06
2.44531e-05
6.65818e-05
-3.07277e-05
-3.65764e-06
4.50019e-06
-8.4146e-07
-0.000527183
-0.000104466
0.00063165
9.93167e-06
-3.05524e-07
-0.000145824
6.24066e-05
8.34127e-05
0.00268901
-0.00163302
0.0205861
-0.0103657
-0.0102204
0.000322078
-0.000350182
2.80977e-05
-4.15262e-07
-0.0011018
0.00110221
-6.96017e-06
4.36131e-06
2.59876e-06
-3.37662e-06
-2.13727e-06
5.51343e-06
0.000771584
-0.000572348
-0.000199285
-0.000695237
0.000168054
8.98831e-06
-9.53327e-06
5.44401e-07
0.0357889
-0.0318121
-0.00397675
3.52487e-05
2.45796e-05
-5.13285e-06
-1.00031e-06
6.13383e-06
-0.00352989
0.00179333
0.00173666
4.83561e-05
-1.31056e-05
-8.50578e-06
3.99461e-06
4.51142e-06
-5.32903e-07
2.09815e-05
-2.04484e-05
-8.50974e-06
-3.53082e-05
-3.54533e-05
0.00393457
-0.00218351
-0.00175035
-0.000322694
-0.000606786
0.00092948
4.31137e-06
-2.53529e-06
-1.77604e-06
0.000117274
-2.89211e-05
-8.83526e-05
1.08668e-05
4.5663e-06
-9.40575e-05
-5.17701e-05
1.37777e-06
-4.59694e-06
7.20163e-06
-8.20211e-06
1.48429e-06
5.71822e-06
-0.000152842
2.24486e-05
0.000130401
-2.36102e-05
6.51714e-06
1.70928e-05
-0.000121846
3.49041e-05
8.69438e-05
-1.06364e-06
-4.13448e-06
-1.32634e-06
1.03133e-05
3.26664e-05
0.00028941
0.000995797
3.28909e-05
-0.00102869
-4.51195e-06
7.67066e-06
-3.1582e-06
-0.000237498
1.50632e-05
0.000222427
-0.00256153
-0.000968328
-8.13199e-05
4.60101e-05
0.00686913
0.013717
-3.24372e-07
-4.52717e-06
2.72889e-05
-3.53361e-06
0.00229333
0.00173546
-0.00402877
-0.000100395
8.14121e-06
-4.78416e-06
-3.35679e-06
0.000953216
4.25814e-05
1.31223e-06
6.563e-06
-7.87149e-06
3.34056e-05
-7.00765e-06
4.84329e-06
2.16491e-06
3.57982e-05
8.14753e-05
3.55177e-06
4.5891e-06
-7.02102e-06
-0.000121634
-1.16105e-05
-4.23437e-06
-2.773e-06
2.39664e-06
1.91473e-06
-4.46362e-06
2.67595e-05
-0.00132332
-0.00102385
-0.000665977
-0.000356343
0.00102231
0.000643421
-0.0593689
0.0437985
-3.95439e-06
2.53122e-06
1.42274e-06
-2.38354e-06
1.76992e-06
6.17532e-07
-0.000228057
0.000273624
-4.55706e-05
-0.0010875
0.00166501
-0.000577529
3.57342e-05
-6.36207e-06
-2.93762e-05
-1.90797e-05
2.18432e-05
5.86731e-06
-3.13478e-05
-4.34079e-06
4.21872e-06
1.23499e-07
-0.00709384
0.00489477
0.00219866
-0.000166279
2.03814e-05
0.000145902
1.06128e-06
3.34221e-06
-4.40351e-06
-0.0193902
0.0324941
-0.0131039
-0.00725314
0.00242144
0.00483144
0.00071197
-9.55666e-05
-0.000616396
-0.000939107
0.000273125
-0.0218835
-0.0216199
0.0435032
-0.00109663
-0.000446437
0.00154305
-6.31567e-05
-0.00010312
-7.77611e-05
-0.000243908
0.000321672
-6.54803e-06
2.03594e-06
-1.08198e-05
2.52122e-06
8.29838e-06
-3.16644e-05
-0.00020584
0.00377934
-0.0031957
-0.000583618
7.69234e-07
-0.000523747
0.000495334
2.84087e-05
-0.00142184
-0.00132913
0.00275095
0.00719216
0.00266874
-0.00986092
-0.00517482
-0.00191934
-4.86228e-06
8.28422e-07
-0.000362635
8.37362e-05
0.000278899
5.86242e-06
-5.90365e-06
3.72157e-08
-4.42572e-06
5.48766e-06
9.11995e-05
0.000620771
-0.00111755
0.000794852
-2.49774e-05
3.66116e-05
-1.16313e-05
-3.7239e-06
-6.14706e-07
-3.01801e-05
-8.33595e-06
3.8518e-05
0.000294298
-0.000372059
0.000132727
0.000389823
-0.000522548
0.00898447
-0.00113831
-0.00784617
0.00184828
-0.00305156
-0.000193098
0.000162271
3.08258e-05
0.00105001
-0.000686209
-0.00036381
0.00705005
-0.0289335
8.09085e-06
3.33169e-06
-1.14237e-05
-0.0323489
0.0500673
-1.692e-05
-6.94149e-05
8.63388e-05
-6.94846e-06
1.05933e-06
-0.00777296
0.00351762
0.00425474
-0.000316967
0.000100508
0.000216461
2.83345e-06
-4.84382e-06
2.01102e-06
0.000407166
-0.00150383
4.92504e-06
-2.78563e-05
2.29321e-05
0.000628166
-0.000495439
0.000227099
-0.000110641
-0.000116451
2.4197e-05
-2.38297e-05
2.18768e-05
-1.1354e-05
-1.05209e-05
-5.41982e-06
2.08484e-06
3.33664e-06
0.0102604
-0.0123747
0.00211429
-0.00141024
-0.000829575
0.00223982
0.0133363
-0.00307585
-0.028931
0.0104002
0.0185316
4.82709e-06
6.74935e-07
-5.50011e-06
1.81776e-05
8.60646e-06
-2.68851e-06
-5.91851e-06
-4.29997e-05
-0.000182245
0.000225246
-0.000178246
-1.03049e-05
0.00018855
0.00281048
-0.00187206
-0.000938495
0.000414212
-0.000704856
0.000501108
-0.00138687
-0.00304829
0.00415962
-0.0422636
0.0228734
0.000897046
-0.000225359
-0.000671687
-0.000504426
0.000348842
0.000155583
-0.0185766
-0.00210194
0.00254003
-0.000438106
-2.35725e-05
0.000102848
-7.92767e-05
-1.0988e-05
-1.2623e-05
-0.00518253
-0.000832531
0.000391999
0.000440532
-0.00320803
0.00342915
-0.000221144
-0.00036385
0.000751977
-0.000388129
-0.000983894
0.00169213
-2.09738e-05
6.10456e-06
1.4869e-05
-0.00762704
0.00411717
0.00350986
-0.00028365
0.000105403
-0.000714248
0.000713833
1.10144e-07
0.000131997
0.000189503
-0.000234112
4.46104e-05
-5.61503e-05
2.00458e-05
3.61047e-05
0.00010063
-0.000605056
-2.6122e-06
-4.34744e-06
0.00151578
-0.00152141
-0.000607755
0.000333843
0.000273916
3.14849e-05
2.52202e-06
-3.40069e-05
3.47e-07
2.2797e-06
1.01522e-05
-1.03921e-05
4.5782e-06
-8.61299e-06
-0.00313688
0.00292668
0.000210167
-1.38326e-05
-0.000101564
0.000115388
-6.61265e-06
3.80982e-05
-0.0014221
-0.000654828
0.00207693
-1.39974e-05
-9.51497e-05
-0.0164018
-0.0125289
1.82832e-05
-3.38728e-05
1.5582e-05
3.3214e-06
-5.41204e-06
2.08856e-06
0.0189888
-0.0168484
-0.00214024
0.000818445
7.85999e-05
-0.0028783
0.0230617
-0.0205157
-0.00254596
0.00151876
0.00117025
-0.0213775
-0.0208861
-0.00322958
0.0226839
-0.0194543
0.0222393
-0.0337597
0.0115204
0.00689489
0.012094
-0.00080488
0.000366418
0.000438422
-0.00015829
-4.69082e-05
0.0002052
-0.00917686
-0.0110899
-1.13906e-06
5.2686e-06
-4.12846e-06
-3.10973e-05
-5.02252e-05
-1.89693e-05
-0.000297995
1.24901e-06
1.08561e-06
-2.33425e-06
2.38139e-06
1.00599e-05
-1.24397e-05
-0.00283236
-8.43906e-06
8.00755e-06
4.31616e-07
2.40054e-05
-2.45381e-05
-2.77301e-06
4.12657e-06
-5.55192e-06
4.41303e-06
-9.58828e-05
6.47853e-05
0.000158803
-0.000165416
6.61783e-06
0.0155578
-0.0187874
-0.000472569
-0.000573341
0.00104593
7.86611e-07
2.10205e-06
-2.8868e-06
2.34898e-05
-1.8565e-05
-0.000142543
-0.000155845
0.000298387
5.21614e-06
-5.5579e-06
3.45024e-07
-0.00240521
-0.000731724
-0.000742745
0.00117425
-0.000431466
8.20361e-07
-2.20842e-05
8.69791e-06
-8.06792e-05
7.19849e-05
0.00121779
-0.00439597
-0.000443267
0.00483898
3.21098e-06
-0.000161503
-0.000372205
0.000438544
-6.63418e-05
-0.000557566
-0.000274966
-0.000384937
0.000141029
-6.32645e-07
2.73626e-06
-2.10326e-06
-2.66881e-06
4.04647e-06
-0.00240108
3.94245e-06
-1.10904e-06
-2.02732e-05
-3.5877e-05
-0.000560026
-0.000295848
0.000855872
-1.72513e-06
1.29537e-05
-1.12296e-05
-0.00189085
0.00123601
5.40206e-06
-1.85361e-07
-0.00203508
-0.00236109
-3.59532e-06
-2.03855e-06
5.36057e-06
0.00173926
0.0021956
-1.37973e-06
-2.82112e-06
0.01304
-0.00617091
-1.01719e-05
8.43992e-06
-1.82137e-05
2.62947e-05
-9.59073e-05
7.23353e-05
5.21994e-06
-8.38632e-07
-4.37931e-06
-2.7362e-06
-2.6811e-06
-0.000120241
9.02986e-06
2.22058e-06
5.81991e-07
0.00214811
-0.0025523
0.000404174
-0.000420774
1.43807e-05
0.000406389
-1.46753e-06
4.56549e-06
-3.09575e-06
-0.000218249
-0.00298975
3.86878e-06
-1.34916e-06
-2.51977e-06
1.85397e-05
-5.96226e-06
3.36842e-06
-1.91966e-06
-1.45079e-06
2.05931e-05
-6.68488e-06
-1.39074e-05
-0.00431857
0.00228369
2.2999e-07
-2.29506e-06
2.0656e-06
7.94788e-05
0.00014761
-0.000565183
-0.000459961
0.00102513
2.00664e-05
-2.18806e-05
1.81272e-06
0.000729675
7.20978e-05
-2.96777e-05
5.68828e-06
2.39889e-05
-1.95261e-07
2.07888e-05
6.34471e-05
4.16989e-05
-0.000105146
-7.29806e-07
5.8011e-06
1.47823e-07
-5.948e-06
0.000227168
-0.000258843
-0.00991673
0.0109953
-0.00107861
7.86911e-06
8.0092e-06
-1.588e-05
-0.000291361
0.000870839
-0.000579484
2.48513e-05
-4.30631e-05
-0.000386091
-3.46843e-05
3.79411e-06
3.54942e-06
-7.34365e-06
-2.14666e-05
-8.21148e-06
7.36028e-06
-2.02039e-06
-5.34193e-06
-7.01951e-05
-0.00583634
-0.00499182
0.0108276
0.000285899
8.39916e-06
-0.0365694
0.0487417
5.22059e-06
9.11781e-05
-8.24796e-05
-1.32003e-06
-1.06366e-06
-2.51868e-05
1.06781e-05
-0.000108107
2.74663e-05
0.00516715
0.00787287
-0.0022148
0.00112729
0.00316091
0.030495
-6.3419e-06
1.44326e-05
-8.05448e-06
1.59192e-05
0.0128657
-0.00651008
-5.48011e-06
2.80993e-06
-1.92089e-07
5.39588e-06
-5.2028e-06
-3.5184e-05
0.000262348
-0.000806592
-0.0011086
0.0019152
-0.00021724
-1.68719e-05
-0.000632909
0.000341546
-2.12633e-05
4.88154e-05
-2.75506e-05
-2.86095e-06
-1.17729e-05
1.46324e-05
-1.54126e-05
2.3354e-05
-7.9426e-06
-1.72856e-05
1.3267e-05
4.02098e-06
-0.00325396
0.00176546
0.0014889
-3.41092e-05
9.75554e-05
-0.000565005
0.00954947
0.000299116
0.000472457
0.0172517
-0.0177466
0.000494726
0.00370756
-0.000272091
-0.00343546
0.0172587
-0.0211483
0.00388959
1.32629e-05
-1.11892e-05
-0.000712829
0.000731973
-1.91549e-05
2.23083e-05
4.98078e-06
3.92106e-06
-2.27551e-05
1.8834e-05
-0.0031064
-0.00452063
5.25348e-06
5.47784e-07
-2.1974e-05
6.86486e-05
-4.66752e-05
1.99037e-05
-1.33852e-05
0.000166921
-0.00136963
0.00120269
4.48562e-05
2.17246e-05
-0.00036691
0.000507368
-0.000140459
1.52806e-05
-1.81421e-05
-0.00373559
0.000341932
0.000400566
-0.000742498
-0.000472489
0.000105581
-5.6028e-05
0.000113819
-5.77896e-05
3.85549e-05
-1.44212e-05
-2.41346e-05
-0.00469021
0.000371417
-0.0198978
0.00937226
0.0105256
0.000575995
-0.000680461
-7.57376e-06
5.43533e-06
8.72909e-05
-7.71166e-05
-1.01756e-05
0.0111488
-0.0169854
8.93346e-06
-3.39063e-05
-1.3225e-05
-1.6874e-06
1.49163e-05
0.0209364
-0.00368474
-0.000126642
0.000982561
-0.000855939
0.00108973
-3.97329e-06
-0.00108576
-2.07063e-06
-3.28991e-06
0.000101548
-0.000118486
2.22914e-05
-1.39627e-05
-8.32889e-06
-0.000671009
1.91369e-06
7.41742e-08
-1.98815e-06
0.00116163
-0.00107108
-9.07751e-05
-0.0309371
0.0171056
0.0138315
4.42603e-06
-1.0346e-05
5.90942e-06
1.23593e-05
9.9322e-06
2.04617e-06
-2.67874e-06
0.00130582
-0.0010628
-0.000243033
0.00621406
-0.00677907
6.7348e-06
-8.96474e-06
2.21999e-06
0.00115131
-0.0009844
-3.83975e-06
-6.97965e-06
0.0115038
0.00550593
-0.0170097
-0.0153682
-0.00237856
8.15399e-06
-3.14465e-06
-5.00984e-06
-3.11141e-06
-1.01116e-05
0.00145768
-0.000424805
-0.00103286
-0.00160208
0.000795491
-1.88974e-06
1.60771e-05
-1.41875e-05
-2.09356e-06
2.32377e-06
-0.000596278
-0.00431131
0.00906547
-0.00475419
-6.37853e-06
-5.68832e-07
8.81881e-05
1.46598e-05
-2.20056e-05
1.75417e-05
1.24242e-05
-6.81836e-06
-5.60314e-06
1.5442e-05
-2.71368e-05
1.16945e-05
-8.09245e-07
4.10216e-06
9.31404e-06
5.64696e-06
-5.97106e-06
0.0113716
-0.00452391
-0.00684744
-0.00014818
0.000142079
6.07889e-06
0.000130933
-3.96103e-05
-9.13226e-05
-0.0146361
-0.000732343
0.00462607
0.00674548
-0.000952244
0.000209518
0.00067855
0.000483039
2.32664e-06
1.43107e-06
-3.754e-06
-0.000127798
-0.000117398
0.000245196
3.19557e-06
4.95806e-06
-0.019816
-0.00610354
0.0259197
-1.82039e-05
-5.84843e-06
2.40581e-05
-3.51435e-06
6.34187e-06
-2.84039e-06
-0.000121113
6.50855e-05
2.40307e-05
1.45182e-05
-9.78822e-06
1.11017e-05
-0.00070228
0.00135436
-0.000652088
-1.6799e-05
1.09786e-05
0.000755405
-0.00590617
-0.00741376
0.0133197
2.13104e-05
0.000890382
0.000415428
-1.71761e-07
2.45508e-06
-2.28281e-06
1.62173e-05
3.68757e-06
1.04817e-05
-1.87589e-06
-0.00138802
-0.0120349
0.0134229
-2.11474e-05
1.60481e-05
5.0989e-06
0.00322572
-0.000415251
-0.00420373
0.00122586
0.00297785
-0.000174707
-0.0227961
0.0172887
0.00550742
-6.83626e-06
1.12545e-05
0.00879716
0.00639287
-0.01519
-0.00105013
-6.55121e-05
0.0103688
-0.0117569
-6.76692e-06
5.45699e-06
1.30995e-06
3.10473e-06
-6.46202e-07
-2.45831e-06
-6.73824e-06
2.90939e-06
3.8298e-06
-0.000160398
0.0218031
0.0139858
0.000319571
-0.000553501
0.000233932
0.000418762
2.72728e-06
1.75436e-06
-4.48045e-06
-0.00060152
5.91021e-05
0.000542416
-3.79018e-06
-2.94725e-06
-0.000346985
-0.000134152
0.000481136
0.000814589
0.00539946
1.29257e-06
-3.72088e-07
-2.67654e-06
3.04667e-06
-0.000227491
0.000569423
3.43976e-05
-0.0101061
-0.0121655
0.0222716
1.6635e-06
2.50905e-07
-1.90748e-05
0.000595069
-2.4642e-05
2.57102e-06
2.2066e-05
0.00189274
-0.00320751
0.00131478
0.000255716
-0.000207905
-4.78113e-05
0.0214187
-0.00791431
-0.0135042
0.00104885
-0.00320711
0.00215825
7.72538e-05
-0.000282372
0.000205119
-8.87509e-06
-1.57707e-05
1.14541e-05
5.20716e-06
-1.66608e-05
4.88927e-05
-1.64827e-05
-3.24091e-05
0.00136592
0.000720626
-0.00208655
3.16253e-06
6.66378e-07
-3.82741e-06
-0.00306478
0.00271113
0.000353696
1.77885e-05
1.02315e-06
-1.88083e-05
0.0131215
-0.00432431
-3.88952e-07
-1.85183e-06
2.23635e-06
-8.25734e-06
-2.52462e-06
1.07671e-05
4.62396e-05
-4.16304e-05
-4.60982e-06
-3.00478e-06
1.44585e-05
2.80634e-06
-2.82237e-06
1.62286e-08
0.000974636
-0.0023765
-0.0006882
0.000203565
5.21503e-05
0.00710533
0.00828542
-0.0153907
0.00103592
-0.000518772
-0.000517156
-0.000144789
0.000134486
-0.000273363
0.000951875
2.48542e-05
-4.61178e-05
-0.00315488
-8.04944e-06
-9.23472e-06
8.12899e-07
2.11272e-05
-5.68569e-06
-1.01611e-05
1.90281e-06
0.00308227
-0.000788946
0.000931689
-0.00387454
0.00294328
0.0184548
-0.0120345
-0.0064203
3.94224e-05
-1.6308e-05
-2.31145e-05
3.31962e-05
-9.61431e-06
-2.35849e-05
-2.51656e-05
0.000165334
-0.000140168
-0.00724
-0.0155559
-3.50919e-06
3.06785e-06
-0.0418889
-0.0148553
6.96634e-05
-2.48076e-05
9.6528e-07
2.47118e-05
-2.56761e-05
-2.15463e-05
3.99472e-07
1.69751e-05
-1.15534e-05
-5.42513e-06
-1.36014e-05
6.76769e-05
-5.40772e-05
2.95302e-05
3.66028e-06
-2.35765e-05
-4.27774e-06
0.000328126
-0.00045399
0.000125861
0.0067896
-0.003047
-0.00374261
0.000397422
0.000638524
-0.0537264
3.34947e-06
-1.86187e-07
-2.44697e-06
1.6713e-05
-1.42619e-05
-0.00155004
0.00293837
-0.00138832
-7.94217e-05
3.87397e-05
4.26267e-06
-5.91377e-06
1.65141e-06
0.0159976
-0.0278209
0.0118231
-0.000128952
8.71394e-06
-7.71052e-06
-3.44121e-05
1.02623e-05
2.41501e-05
0.00394349
0.0191182
-0.000934869
-0.00227225
1.81143e-05
-1.86571e-05
5.42741e-07
0.000840106
0.000209898
-0.0188433
0.0116034
1.08227e-05
6.146e-06
-0.0192781
0.0101011
-0.000201266
4.84168e-05
2.49626e-05
-1.94908e-05
-5.47247e-06
-0.00065589
0.00202182
5.46305e-06
1.6415e-05
-0.00109689
0.000309299
1.59372e-06
8.55782e-06
-0.000730921
0.000367071
5.6225e-06
1.97503e-05
-2.53732e-05
1.91144e-05
8.81185e-05
-0.000107233
-0.000226345
-4.47718e-05
-1.69323e-05
2.25543e-05
-0.00220526
-0.000171231
-0.0114639
-0.000531172
-0.000199751
-0.00107384
0.00035959
1.05958e-05
-0.00171843
0.00129374
-0.00191075
-0.000191201
-2.21989e-05
1.10719e-05
1.11276e-05
-0.00932104
0.0279198
-0.0185986
0.00925563
-0.00408845
5.4046e-06
-6.32931e-06
9.25435e-07
2.68445e-06
1.21942e-07
0.000249013
-0.000391556
-3.53584e-06
5.36813e-07
2.76384e-06
-3.13692e-06
5.90485e-05
-8.36386e-05
2.45891e-05
-5.57902e-06
5.08177e-06
4.95815e-07
-8.24865e-06
-2.93781e-07
8.54118e-06
1.93155e-06
-8.73654e-06
6.80121e-06
3.49569e-06
-0.00182226
0.000745433
0.00107683
2.54665e-05
-7.69377e-05
5.14689e-05
-4.90662e-05
6.02195e-05
-1.11674e-05
-6.31053e-06
2.79571e-06
-0.00770893
0.00339767
-0.000158471
0.000180914
-5.26313e-06
9.05719e-06
0.0014214
0.00536815
3.29418e-05
-8.91084e-06
-4.17237e-06
5.33967e-06
-1.16466e-06
0.00620862
1.27975e-06
2.58895e-06
-2.57721e-06
-2.46088e-05
2.71854e-05
3.17219e-05
-3.42975e-05
-0.00708236
0.000174798
0.00690738
1.07513e-05
-1.35591e-05
2.8093e-06
-0.000509367
3.79652e-06
-1.06895e-06
1.23137e-05
-1.5612e-06
5.25269e-06
4.36397e-05
-0.00253538
0.00160051
0.000115649
-8.69586e-06
-0.000106954
0.000904441
-0.0108212
6.5864e-06
-2.09075e-05
1.43258e-05
-7.69916e-05
2.55137e-05
5.14764e-05
-7.82538e-07
-1.20508e-05
1.28329e-05
9.48205e-05
2.14117e-05
-0.000116234
1.70615e-05
-3.71714e-06
4.45126e-06
-7.32454e-07
-6.30011e-06
-1.09795e-05
1.72818e-05
9.38846e-06
-1.34783e-05
4.08938e-06
-0.000374359
-8.45576e-05
0.000458903
3.59738e-06
1.24477e-06
-4.8411e-06
0.00114812
-5.83991e-05
-0.000472616
-0.000141101
0.00061373
2.39387e-06
-1.14414e-06
0.0140679
-0.0191757
0.00510746
-5.73561e-06
4.37227e-06
1.36412e-06
-4.64859e-06
5.77104e-06
-1.12577e-06
-5.97845e-06
3.08316e-05
-2.03255e-05
1.90609e-05
1.2686e-06
-3.74497e-06
3.55323e-06
-0.000536681
0.000269933
0.000266745
3.40159e-05
0.000662639
0.00159939
-0.00226204
2.4147e-05
-0.00372431
0.00350597
0.00524448
0.0132104
-1.26361e-05
1.18537e-05
-0.000238647
1.05855e-05
9.32238e-05
-4.92197e-06
-1.8839e-06
-3.09136e-06
4.97272e-06
0.000357683
3.46762e-05
-0.00039236
-0.00126344
-0.0116422
0.0129057
-0.000382316
0.000162386
0.000219931
-2.29772e-06
-1.6584e-06
0.00166042
-7.02507e-05
2.11715e-05
-0.000385823
1.14615e-05
-0.00064524
-0.00117702
0.0165836
-0.017847
-0.000128513
8.82711e-05
4.02431e-05
-4.82584e-05
-1.02986e-05
-0.00180077
-0.000734615
-2.48135e-06
-1.95241e-05
5.19778e-06
-5.59978e-06
4.03519e-07
0.00128675
-0.000645028
-0.000641707
1.21782e-05
-3.69643e-05
-8.26244e-07
-7.42144e-06
-2.48322e-06
2.09666e-06
-0.0146445
-0.0162925
3.26384e-05
9.90018e-07
5.0958e-05
1.87048e-05
2.33682e-05
4.4308e-05
2.26566e-05
-2.16915e-05
-0.00151598
0.00217861
0.0110056
-3.26487e-05
-8.98243e-06
-1.93749e-05
1.68934e-05
-3.13923e-06
6.39424e-06
-3.25353e-06
-4.32109e-05
1.05613e-05
-0.000316223
-0.000291532
-0.000129562
9.54557e-05
-1.5429e-05
1.52349e-05
3.57674e-06
3.63026e-06
-7.20604e-06
0.0010183
0.021221
0.00053704
-0.000208913
5.09335e-06
7.66045e-07
-6.66095e-05
6.3036e-05
3.57452e-06
8.17491e-05
2.13156e-06
-2.87041e-06
-0.000126691
-0.000397278
-0.00326545
0.00366274
-7.49549e-06
2.39958e-06
5.09512e-06
-2.64961e-05
-0.000139681
-0.015042
0.00300705
7.10519e-06
2.58336e-05
-6.15129e-06
-0.000103667
-2.48509e-05
0.0111906
0.00433394
-0.0155239
-4.68398e-05
5.41642e-05
-7.32525e-06
-8.1599e-06
-3.8685e-05
2.68544e-06
-3.54084e-06
8.60024e-07
0.0126863
-0.0055809
7.90732e-06
-0.00174145
0.00173353
-0.000905461
0.000731335
-0.000339337
-7.246e-06
-1.30784e-05
-5.09896e-07
-4.19476e-06
4.70467e-06
0.000174842
-0.00052183
-1.218e-05
-7.27964e-06
0.000102945
-4.89057e-05
-5.40398e-05
7.49309e-05
-2.39735e-05
0.000404249
-0.00100873
0.00060447
0.0154604
-0.00509165
-4.54402e-06
4.79076e-06
-2.45858e-07
-0.000128836
-0.00474733
0.00256426
-0.000115354
-3.28259e-05
3.18785e-06
-1.40422e-06
-1.78418e-06
8.66999e-06
5.94095e-06
-1.46099e-05
-5.07144e-06
3.18697e-06
-0.000404716
5.66007e-05
0.000348114
5.30922e-05
-1.13964e-05
-4.16959e-05
3.98295e-06
-1.29438e-06
0.000457124
0.000829629
9.2989e-06
-0.000381506
-7.40605e-06
0.000311424
-0.00087145
0.000101935
0.000161992
1.89882e-05
-1.57274e-05
-3.26126e-06
0.0153139
-0.00124598
-5.97511e-06
-7.92664e-07
-0.0095316
0.0225536
-0.013022
-6.14554e-06
4.37376e-06
1.77272e-06
0.000122234
-0.000159212
3.69769e-05
0.00592881
-1.21121e-05
9.49996e-07
1.11623e-05
3.67752e-05
1.82307e-05
-5.50065e-05
-0.000147193
3.75787e-05
0.000109614
-7.47592e-06
1.68677e-05
-0.000855063
-0.000690484
0.00154554
-9.36568e-05
4.69739e-05
4.66827e-05
3.25216e-06
-3.76206e-06
0.0177881
-1.35048e-07
2.35554e-06
3.69452e-05
-0.000116531
7.95855e-05
-1.7571e-05
6.21781e-06
2.20455e-06
-5.26697e-06
3.06319e-06
0.00168642
-0.000715413
-0.000971022
-0.000997807
-0.00163585
0.000199423
0.00143595
1.69933e-05
-1.98523e-05
2.86213e-06
5.23631e-05
-1.55881e-05
-3.3745e-06
6.86842e-07
2.68709e-06
1.12536e-05
-3.95634e-06
-7.29587e-06
5.34912e-05
4.94538e-05
0.000504632
4.90635e-06
-4.74946e-07
-4.43001e-06
-4.09121e-05
-5.2745e-05
-3.51327e-07
-2.31551e-06
2.66732e-06
0.000477083
5.99671e-05
-4.59554e-06
4.16091e-06
4.29229e-07
1.946e-05
-2.61449e-05
0.0196499
-0.00276083
-0.0168885
0.00977648
8.54734e-05
0.00160095
-0.00716519
8.24478e-05
3.32159e-06
3.19158e-06
-6.51223e-06
-0.00030603
-6.09032e-05
0.000366936
1.1066e-05
-1.35091e-05
-0.00507234
0.0103982
-0.00532628
1.47345e-06
1.71286e-06
2.3591e-06
-8.27406e-06
5.91343e-06
-0.000428414
0.00069087
-0.000262461
-0.000190308
-0.00353386
-0.000710715
0.00111496
-7.52122e-05
-8.29835e-05
4.39494e-05
3.90165e-05
5.3766e-05
7.08202e-05
-0.00018037
-0.000103279
-1.51933e-05
-6.18018e-05
-0.00012923
0.000314102
-0.000184868
-0.000316028
0.000280838
0.00231647
-0.00570516
0.00338989
-0.00223823
0.000256101
-0.00132742
-5.19228e-07
-1.92023e-06
2.4393e-06
-0.00494078
-0.014235
-7.13579e-05
-0.000203209
0.010088
0.00110178
2.21626e-05
-1.82418e-05
-0.00144894
0.000976373
0.000111859
-0.00171396
2.01625e-06
-2.08464e-07
-1.80729e-06
6.38286e-05
-5.60159e-05
-7.79942e-06
-2.42826e-05
0.00153344
-0.00150917
0.000128554
-0.000158102
2.95444e-05
0.00617477
-0.0054811
-0.000693669
-3.88431e-06
5.6417e-06
-1.75618e-06
-3.71164e-06
-8.87909e-07
2.96525e-06
-1.48505e-06
-1.47838e-06
0.000723094
-0.000424006
5.21282e-05
-6.90452e-05
-6.45038e-05
-1.84881e-05
-0.0368513
0.0222068
3.90328e-06
-4.94755e-06
1.04262e-06
3.99431e-05
0.000360804
-0.000400752
-0.000639818
0.00100622
-0.0157842
0.0108884
0.00489582
5.05542e-06
-0.000321089
-2.8967e-06
-3.71823e-06
6.61718e-06
0.000491575
0.00063653
-0.00112811
-0.000349051
0.000646474
-0.000297426
-1.09532e-06
-2.20712e-06
3.30165e-06
-5.38616e-06
4.28793e-06
1.09959e-06
-0.000328788
-3.38454e-05
-0.00135845
0.0274623
-0.00565925
-0.000557487
0.00020665
0.000350834
0.0017988
-0.00245471
1.23339e-05
2.29191e-06
6.72638e-07
3.28796e-06
1.48789e-07
-3.43933e-06
0.0003577
0.000996642
-4.39095e-05
0.000172461
3.60179e-05
0.000237609
-0.000228958
-0.000328533
-3.0832e-06
2.56403e-06
0.0146728
-0.0196133
-0.00981903
0.0021194
0.00769963
8.71381e-07
-5.04267e-06
5.91889e-06
0.000125013
3.15601e-05
-1.08612e-05
-2.07029e-05
-0.00704242
-0.000741249
0.0077837
-5.09539e-06
1.61587e-05
0.000762046
-0.000894637
0.000132579
-0.0114272
0.00160819
0.00890333
-0.0318002
0.0228969
-3.48177e-06
5.62295e-06
-2.13996e-06
-0.0188795
-0.000280243
0.000208881
-8.16772e-05
0.00279281
-4.09434e-06
3.28444e-06
2.45268e-05
-1.79373e-05
3.01357e-06
-9.72729e-07
-2.03907e-06
0.00294948
-0.000519713
-0.0024298
-3.31821e-06
-5.12041e-06
-0.00852008
0.00766815
0.000851126
-0.000213848
9.19035e-05
0.000121945
-0.000657946
-5.48928e-05
7.84638e-06
-1.29485e-05
0.000942444
-1.32865e-05
-0.000407838
0.000447777
-0.00396411
-0.000620595
-9.16377e-07
3.44778e-06
5.40781e-05
-0.000109608
5.5531e-05
0.00374101
1.49933e-06
1.86775e-06
-0.00100733
0.000703214
0.000304109
-2.79578e-05
0.000185239
-0.000157283
7.09102e-06
-3.51348e-06
-2.14937e-05
-6.55054e-05
8.69957e-05
7.70701e-05
-2.29903e-05
2.82386e-07
-2.79617e-05
0.000934736
-0.000906767
-0.000182758
0.000396907
-0.000214151
3.86836e-05
-1.17985e-05
-2.68865e-05
0.00102467
-8.10801e-05
6.24852e-05
1.85935e-05
2.23764e-05
-4.73118e-06
4.32988e-06
-2.03915e-06
5.88545e-06
-4.25579e-06
-1.63048e-06
0.014861
-0.0037125
0.0170321
0.00576873
-0.0228006
5.31268e-07
2.50691e-06
-3.03972e-06
0.000739173
-0.000334888
-0.000404328
3.37147e-06
-4.83691e-06
-5.65699e-05
8.16675e-05
-2.50985e-05
0.000122918
3.63104e-05
-0.00015923
9.33727e-05
-0.000114863
0.000392749
0.00023221
-0.000624974
-7.91719e-06
1.04383e-05
-6.40942e-05
-3.18133e-05
1.16396e-05
1.99288e-05
0.000877133
0.00127098
-0.00275782
0.000205527
5.02544e-06
0.000263349
-0.000206981
-5.63698e-05
0.0010757
-0.00193078
-0.00720247
-0.00858171
1.92008e-06
2.09969e-06
-4.02174e-06
0.0172747
0.00583214
5.47767e-06
-7.23962e-08
-0.0247559
-0.0120954
8.77154e-05
-3.35063e-06
7.34619e-06
-1.83894e-06
3.75811e-06
8.76501e-06
5.99696e-05
-6.87261e-05
0.000178593
0.000259948
7.66353e-05
3.19711e-05
6.71298e-06
0.000142225
8.91669e-05
-0.000231391
-3.42954e-06
-0.000455289
-0.000618549
-4.82402e-05
0.000169386
-0.000121142
-9.41368e-06
-1.5295e-06
1.09446e-05
-8.98625e-07
5.16236e-06
1.8361e-05
4.67145e-06
5.81011e-06
3.29752e-06
-9.73613e-07
-0.0149567
0.00813507
0.00682156
-2.09695e-05
3.87351e-06
-2.59401e-06
4.00987e-06
-6.66915e-07
0.000153124
-0.000684296
3.09695e-05
-3.68977e-06
-2.72794e-05
-2.43354e-05
-5.80028e-06
3.01344e-05
1.04156e-05
-3.47518e-05
5.75901e-06
-4.12997e-06
-0.000113646
1.20763e-05
-2.21479e-05
0.000240225
0.00270923
-2.56888e-07
-1.73837e-06
1.99637e-06
4.19509e-06
0.000713044
0.000441695
-0.00115474
-0.000317982
0.000188752
-0.000225135
0.000558977
1.01947e-06
1.44858e-05
-4.42506e-06
-0.00716497
0.0244397
-4.41963e-06
7.97045e-06
-4.76735e-05
1.85993e-05
2.90747e-05
3.24293e-06
-2.15815e-06
-8.24739e-07
4.72633e-06
2.38992e-06
-1.18024e-05
0.00015665
-0.000173963
1.73126e-05
0.0145112
-0.000486479
-0.0140247
-0.01737
-0.017468
-0.000295278
0.0177638
0.000473559
1.70104e-05
0.0132326
1.95323e-06
-5.37744e-06
6.19526e-06
-8.24223e-07
-2.51351e-06
2.16242e-06
0.000180747
-0.000486775
-8.61008e-06
6.88004e-06
1.72963e-06
4.37229e-05
6.69035e-05
-0.000419298
0.000285145
0.0141746
0.0183195
2.85173e-06
-1.97844e-05
-1.63883e-05
-1.29478e-06
1.76816e-05
-0.010851
0.050201
-0.0393501
-4.07047e-06
-1.0649e-06
5.13501e-06
0.000240029
-9.78057e-05
-0.00162048
0.0133546
0.00150631
0.00310374
-0.0013683
1.68741e-05
-7.97319e-07
0.000159776
-3.75429e-05
5.67301e-06
4.63158e-07
-6.1346e-06
0.000298869
-0.000415802
0.000116932
2.76993e-05
1.17228e-05
-0.00168875
4.14156e-05
-4.0373e-05
-1.0398e-06
-1.41856e-05
6.12261e-06
8.06311e-06
0.00115614
-0.0010443
-5.54437e-05
-1.1165e-05
0.0125658
0.00194537
-5.27566e-06
1.79397e-06
0.0032483
-2.42817e-06
4.30173e-06
-1.87272e-06
0.000717946
-0.000325202
0.000305657
0.000161134
-0.000137967
0.00159268
-0.000445179
-0.0011475
-3.76991e-06
-2.05581e-06
5.82629e-06
8.86017e-06
-1.63305e-05
0.000132312
2.40026e-05
-8.11363e-06
-1.58869e-05
8.94883e-06
-0.000174367
-0.0166226
-0.000845166
-0.000735778
-0.000695859
0.00143163
0.00648488
0.0107738
2.48849e-05
0.000154531
-0.000179419
-0.0172048
0.00432609
0.00184868
-0.00051585
0.0115112
0.000858572
-0.00107816
0.000219587
-0.000411323
0.000679338
-0.000268023
0.000171214
-5.41472e-06
3.89131e-06
7.36236e-06
9.64659e-06
-4.76755e-05
3.8029e-05
-3.13078e-06
1.92663e-06
1.20442e-06
-2.48714e-06
-8.70596e-06
1.06363e-05
4.0847e-06
2.25663e-06
-0.00064774
0.000175144
4.27516e-06
7.23367e-06
-1.15092e-05
8.57968e-07
0.00087923
-2.06548e-05
2.51407e-07
-1.39211e-05
1.3672e-05
-0.000527894
-0.000517296
0.00104519
2.42254e-05
9.14229e-05
-0.000323103
0.000832562
-0.00050947
2.76846e-05
-3.73004e-05
0.000257249
-0.000362646
0.000105396
5.17042e-05
-0.000100514
-8.1663e-05
1.7569e-05
-1.87768e-06
-1.16263e-06
3.04147e-06
0.000237044
-0.000586097
1.62178e-05
7.27106e-06
0.000418592
-0.000418374
-2.2722e-07
-2.54998e-06
-4.51917e-06
7.06935e-06
0.00350637
-0.00316093
-0.000345434
2.35806e-06
-6.1297e-06
-0.000127357
7.91142e-05
5.25248e-05
0.000108609
-3.13291e-06
-2.60208e-06
-0.011048
-0.0126823
0.0237303
-3.68207e-05
-2.91053e-06
3.97323e-05
-1.2372e-06
-1.81376e-05
0.000675704