/*--------------------------------*- C++ -*----------------------------------*\
| =========                 |                                                 |
| \\      /  F ield         | OpenFOAM: The Open Source CFD Toolbox           |
|  \\    /   O peration     | Version:  v2012                                 |
|   \\  /    A nd           | Website:  www.openfoam.com                      |
|    \\/     M anipulation  |                                                 |
\*---------------------------------------------------------------------------*/
FoamFile
{
    version     2.0;
    format      ascii;
    class       volScalarField;
    location    "200";
    object      p;
}
// * * * * * * * * * * * * * * * * * * * * * * * * * * * * * * * * * * * * * //

dimensions      [0 2 -2 0 0 0 0];


internalField   nonuniform List<scalar> 
18540
(
-0.0481312
0.00207534
-0.00155043
-0.0248352
-0.0195848
0.000377671
-0.00884818
-0.0186067
0.00196118
-0.0241285
-0.0287829
-0.0183058
-0.0643428
0.013536
-0.0190481
0.00194548
0.0022391
-0.00566802
0.00190285
-0.00856507
-0.0749574
0.000452732
0.00161768
-0.0315224
0.00158797
-0.0197477
-0.0189848
-0.0843674
-0.0361979
0.0164981
-0.0691273
0.00103475
-0.00748055
0.00154238
-0.0200255
0.00240922
0.00453039
-0.0131397
0.00204505
-0.0580553
-0.0787768
0.0021012
-0.00839437
-0.00423385
0.00231399
0.00161056
0.0035152
0.00228854
0.00256065
-0.0200741
0.00379885
0.00170551
0.00121597
-0.0793694
-0.0177348
-0.0676174
-0.0594111
-0.0139497
-0.049241
-0.0731862
-0.025352
-0.00179089
0.000206424
0.0016042
0.00189603
0.0018679
0.00239315
-0.0173246
-0.0206595
0.00159413
-0.000737375
-0.034926
0.00129178
0.00182929
0.00256307
-0.0124911
-0.0621294
-0.0187219
-0.000714253
-0.0168552
0.00228405
-0.00909178
0.000265746
0.00183335
-0.0293432
-0.000821154
-0.0806091
0.000911222
-0.000164227
-0.0214184
-0.00241621
-0.15623
-0.0610359
-0.0120747
0.00182852
0.00252378
-0.0824129
-0.00567615
-0.00354447
-0.0088745
0.00181156
0.00438706
-0.00911688
0.00177978
0.00187098
0.00182073
-0.00852521
-0.00106958
0.00239197
-0.00244293
-0.0408208
0.00184979
-0.000187683
-0.00842634
0.00180611
0.00179606
0.00222519
-0.00516002
-0.00385949
-0.00153405
-0.00551767
-0.156592
-0.098783
-0.00212511
-0.0170467
0.00420754
-0.00823289
-0.000869679
0.00187749
-0.0281972
-0.0917633
-0.00414765
7.13452e-05
-0.0990341
0.00168693
-0.0200841
0.0002129
-0.0403071
0.000135249
0.00178971
0.000366561
0.000131628
-0.00242917
-0.0247359
-0.0214282
-0.0123892
-0.024167
-0.0168231
0.00179359
0.00175511
-0.121274
0.00240123
0.00192302
-0.0129939
0.00185039
0.00134057
0.00917625
0.00220385
-0.00150467
-0.0120543
0.0105578
-0.114677
-0.0114204
-0.0209986
-0.00662667
0.00215655
-0.00683583
-0.00207928
-0.00130943
-0.0163808
0.00413767
-0.000835897
-0.00298019
-0.0911105
0.00120944
0.00771095
0.00141261
-0.149565
-0.000416517
-0.00158969
-0.116465
0.00258639
-0.00560262
0.00142454
-0.00941823
-0.00644015
-0.144266
0.00216497
-0.0194432
-0.0810601
-0.00333635
-0.0162353
-0.0128424
-0.0176299
-0.0154139
-0.00188328
0.0160986
-0.131151
-0.000742867
-0.00690399
-0.00751326
-0.144304
0.00227338
-0.0260643
0.000115128
0.00108954
0.00299609
0.0031675
0.00303406
0.0149561
-0.00283561
-0.00913394
-0.0127228
0.00209821
-0.097548
-0.052941
0.00202452
0.00232501
-0.0201416
-0.0146113
-0.026991
0.000268094
-0.0153641
0.0049358
-0.0212646
-0.00536545
0.00184848
-0.0617888
-0.00138972
0.00200254
0.00146822
-0.019839
-0.000481538
-0.0987945
-0.0614657
-0.0789316
-0.0822389
-0.0316461
0.000386892
-0.0118294
0.00238275
-0.0417991
-0.033807
0.00167754
0.00185546
0.000168306
0.00583648
-0.01459
-0.0337486
0.00300808
-0.00449739
0.0140757
0.00184644
-0.00182073
0.00972536
-0.0272329
0.0109639
-0.00537988
-0.0200232
-0.0160975
0.00273032
-0.00953115
0.0078475
0.00242794
0.00216473
0.00273349
-0.000371686
-0.00817944
-0.13083
-0.00714456
0.0017247
0.00276259
0.00116884
0.00188556
0.00159768
-0.000354775
-0.00787248
-0.0834252
0.0025348
0.00241377
0.00180481
-0.00776367
-0.114654
-0.002729
0.00521375
-0.118348
-0.00578427
-0.00700001
0.00445306
0.0185925
0.00212532
-0.00285963
-0.0640475
-0.00709607
-0.0027081
-0.00809037
0.00136042
-0.000821244
-0.0318021
-0.0443344
0.00192196
0.00290767
-0.00274889
0.0175531
-0.0825693
-0.00174668
-0.00128909
-0.000698348
-0.00199168
0.00191467
-0.00873154
-0.0218098
-0.0011187
0.000867477
-0.0789959
0.00143013
0.000842446
-0.00352241
0.00115165
-0.00093139
-0.00182757
-0.0185482
0.00168309
0.00175476
0.0195163
0.00178875
0.00225568
-0.0134517
-0.00682821
0.00238308
-0.0193951
0.00174963
0.00104505
-0.00285381
0.000124892
-0.0161603
0.00355156
0.00187256
-0.013711
-0.00846208
-0.00384695
-0.0024204
-0.0189275
-0.00217716
-0.00781758
-0.0208978
-0.00622597
-0.0141256
-0.00123356
-0.0066963
0.00168534
0.0015972
-0.0234328
-0.000432283
0.00257839
-0.00329184
-0.0129947
0.00186355
0.00583122
-0.00806585
-0.00090785
-0.0162929
-0.00494476
-0.0836922
-0.0144441
-0.000879748
-0.0160022
-0.00581848
0.0007254
-0.00221863
0.00109403
0.0019671
0.00262841
0.0201439
-0.0261245
-0.00220513
-0.0195875
-0.011475
-0.0275269
-0.00128855
-0.00691324
2.99716e-05
-0.0339341
-0.00513614
-0.0047534
-0.0290701
0.00285911
-0.0157347
0.0104714
-0.0858103
0.00274009
-0.101916
0.00192579
0.0130393
-0.00472358
-0.0797134
0.00183805
-0.00484894
-0.020839
-0.00584521
0.0016794
0.0193778
-0.00542975
-0.00214454
0.00156143
-0.0139485
-0.00102836
-0.0640078
0.00180916
0.00234928
-0.00692729
0.00185172
-0.00107903
-0.00295282
-0.000886656
0.00204758
0.00173858
-0.00497165
-0.00124368
-0.000150559
0.0209096
-0.00351128
0.00166322
0.00247318
-0.00534659
-0.0123176
0.00179677
0.00254836
0.00425136
-0.00188732
-0.0214668
-0.0240882
0.00162872
-0.0137589
0.00152222
0.00164826
0.00186729
0.00565347
0.00220024
-0.0299707
0.0226582
0.00614471
-0.117741
0.00241689
0.00110018
0.0021321
-0.0034279
0.00133091
0.00165868
0.00181965
-0.100589
0.00191077
0.00170271
0.00256587
0.000491165
0.00251072
0.00703377
0.0019053
-0.000587441
-0.00165516
-0.00492496
-0.0131281
0.00338133
0.00178463
-0.0512191
0.00391387
0.00209312
-0.00192568
0.00186068
-0.000185603
0.00234756
0.00380499
-0.00205341
-0.00413025
-0.0013245
0.00206228
-0.00379424
0.000604795
0.00231744
0.00111777
-0.0747622
-0.00133203
-0.0646785
0.00187092
-0.00201705
0.00155808
-0.0868189
-0.0310455
-0.00480655
0.00162811
-0.0777368
0.0019437
-0.015024
-0.0503798
0.00456374
0.00370185
-0.062197
0.00193774
-0.00706812
0.000149554
-0.066784
-0.000475628
-0.0613812
0.000499322
0.000233043
0.00179432
0.0017982
-0.000482515
-0.0067951
-0.00411599
0.00230651
-0.0659544
-0.0491283
-0.00086085
0.0027483
-0.0956124
0.00243184
-0.000716894
0.00379032
0.000766511
-0.00209735
-0.0140729
0.00178284
-0.0950484
-0.00031326
-0.0030137
-0.00203913
0.00195126
-0.00381813
-0.00311143
0.00165282
-0.0186814
-0.0295948
0.000135007
0.00179028
0.00192743
-0.000406961
0.00195104
-0.00755419
-0.0375399
0.000958207
0.00280955
-0.0170371
-0.000554074
0.00104163
-0.0673553
-0.0651549
-0.000706477
-0.0240752
-0.0807096
-0.0199303
0.00178927
-0.00369485
0.00356263
0.00154553
-0.00313798
-0.00268836
0.00193474
0.00184322
0.00224824
-0.0185982
-0.0141034
-0.0646805
0.000117849
-0.104665
0.00185107
0.00220996
-0.0160386
-0.00499425
-0.0764077
-0.0162867
-0.0675584
0.0132735
0.00204645
-0.0634667
-0.102734
-0.062897
0.00446794
0.00176614
0.00424263
0.000225067
-0.00123007
-0.00433077
-0.115631
0.00161276
0.00161807
-0.000338
-0.0064867
-0.0144151
-0.014472
-0.019055
0.00451457
-0.006199
-0.00571122
0.00180742
0.00244199
0.00222642
-0.00230106
0.00157867
0.00192976
-0.00112289
0.000890819
-0.00177576
0.00155494
0.00158144
0.0088977
0.000803243
-0.00333361
0.000977916
0.00077489
0.000105922
0.00355001
-0.109735
0.00277648
0.00121601
0.00114269
-0.00150585
-0.0226921
-0.00674783
-0.0012917
-0.0187127
0.00152205
0.00281969
0.000962511
-0.00193988
0.00213346
-0.00694625
-0.00161568
-0.00103977
-0.0061706
-0.00813344
0.0016263
-0.000924768
-0.00191215
-0.0328685
0.00237823
0.00181958
0.00077099
-0.00134543
-0.00164039
-0.118545
-0.00724083
-0.0011056
-0.068755
0.00723183
-0.0660233
0.00180838
-0.0920041
-0.00599236
0.00274606
0.00419672
0.00643709
0.00219754
-0.0285558
0.00344498
-0.0239736
-0.00112503
0.000284677
-0.0310966
-0.0144225
0.00178718
-0.00830739
-0.000532678
0.000433037
-0.0292559
-0.000450732
0.000129114
0.00216966
-0.0226925
-0.000325733
-0.0233197
0.000509241
-0.000302372
-0.0430207
0.00117372
0.00173377
0.00040128
-0.00814953
-0.0377119
-0.000451148
-0.01987
-0.0144335
0.00124754
0.00743612
-0.00200788
-0.0802924
0.00292444
0.00191589
0.00177086
0.0021514
-0.0129417
0.00197644
0.00197048
0.00134266
0.000456792
-0.0988741
-0.105958
-0.0610688
0.00161615
-0.0104726
-0.065742
-0.00027104
-0.0465778
-0.029716
-0.0443238
0.00429933
-0.000916225
-0.0807386
-0.000200636
0.00221308
-0.00590422
-0.0175826
-0.00109942
-0.0273094
-0.0330656
0.00133791
0.000664337
-0.00307361
0.00170962
-0.0461797
-0.0719832
-0.000830193
-0.000311063
-0.00214822
0.00462053
-6.75937e-05
-0.111033
0.00456728
0.00176535
-0.0431172
-0.0408732
0.00156447
-0.102742
-0.0344508
-0.0101812
-0.0183066
0.00137144
0.000159777
0.000209859
-0.00114545
-0.0296962
-0.0660226
0.00217877
0.00031076
-0.0422615
-0.00634306
0.000336681
-0.0455947
-0.00283895
0.000694142
-0.0348605
-0.00214494
-0.0364085
0.00168675
0.00176714
0.00723485
0.00701963
-0.027995
0.00975044
0.000394938
-0.111262
0.0010507
-0.000277428
-0.00571444
0.00186509
-0.0439571
0.00124951
-0.0443446
0.00243222
0.00209554
0.000301815
-0.0980703
0.00109028
-0.0991199
-0.0155928
0.00219988
-0.0686372
0.00231918
-0.00142378
-0.00327858
0.00234171
-0.0131285
-0.00143903
0.00254758
-0.00494949
-0.00114001
-0.0112527
-0.00439658
0.000312223
0.00414924
-0.00154947
0.00167001
0.00118076
0.00260671
-0.0153069
0.00209872
-0.00898849
-0.00748334
0.00271017
0.00246495
0.00429969
-0.0148861
0.000523185
-0.0110282
-0.140289
0.00181281
-0.00131421
-0.149378
-0.0266013
-0.00150954
0.00194199
-0.0654595
-0.0149788
0.00122212
0.00181365
0.00261049
0.000145229
-0.123368
0.00193503
-0.0012638
-0.00413311
0.00185861
-0.00114341
-0.0301701
0.00173239
0.00716442
0.00111634
-0.019038
0.00132031
0.00215769
-0.00159012
-0.00697502
0.00236055
-0.0582307
0.00151885
0.00121571
0.00170526
0.00199356
0.00118951
-0.00962638
-0.071237
-0.0107174
0.00111867
0.00231781
-0.0232751
0.00276848
0.000494827
-0.0766444
0.00179559
0.00186732
-0.016036
0.00172904
-0.0190525
-0.0308998
0.000431309
0.0015432
0.00185981
-0.00427858
0.00283069
-0.0018805
-0.0274744
-0.00514286
-0.0551273
0.0016277
0.00130515
-0.00207815
-0.00119521
-0.0173214
-0.00703668
-0.0068235
0.00246672
0.00113811
-0.0299016
-0.017992
0.00159566
-0.00470439
-0.00145121
-0.0215749
0.00171482
0.000686383
0.000996555
0.00227427
-0.000882405
0.000245684
-0.104362
0.00330986
-0.00679733
-0.0159736
-0.00124206
-0.0109253
-0.0145567
0.00176892
-0.00667995
-0.0138136
-0.00249182
0.000478201
-0.0274765
0.00164756
0.00175937
-0.0656766
-0.136171
0.00176726
-0.000895558
-0.0293561
-0.0135473
0.00112662
0.00389479
-0.0125255
-0.00157435
-0.0013944
0.00223489
-0.00258743
0.000553329
0.000629295
0.00191456
-0.0141266
-0.00587897
0.00229607
-0.0101935
0.000497868
-0.00932699
-0.0969474
-0.0404465
0.000296818
0.00173135
-0.0206959
-0.00249121
-0.0405437
-0.0070341
-0.00723079
0.00177297
-0.0222376
0.00342037
0.00713076
0.00874705
-0.148202
-0.005376
0.00404913
-0.00153719
0.00175728
-0.00241669
-0.111603
-0.00344642
-0.0781706
-0.0655288
-0.00984668
-0.0159839
6.8602e-05
-0.0050232
-0.00283301
0.00170253
0.00467625
-0.0153659
-0.0917247
-0.0125199
-0.112807
-0.00271402
-0.0849817
-0.00201871
-0.0169999
-0.0131033
0.000550859
-0.00528413
-0.0196918
0.00485621
-0.0016388
0.00834571
-0.000728408
-0.00437373
-0.014156
-0.0578502
0.00163452
-0.00182256
0.00161503
-0.0820067
0.000119136
-0.0830984
0.00924448
-0.124238
-0.00279807
-0.0174424
-0.0034546
0.00476368
0.00399941
0.00184001
-0.0136833
-0.0812815
-0.00351681
0.000404106
-0.00193616
0.00175809
-0.00192534
-0.0149328
0.00183831
0.00211516
-0.00590408
0.00164956
0.0018231
0.000678247
-0.0874367
-0.111075
-0.0392894
0.0019721
-0.0844827
-0.0246806
-0.0207872
-0.00124156
-0.141706
-0.00770422
0.00240591
-0.00164361
-0.0965555
-0.00181121
-0.134958
-0.0563704
-0.000926277
0.0116411
-0.0346755
-0.0231717
0.00191115
0.00176757
0.00165192
-0.0332438
-0.0180718
-0.0574179
-0.00392682
0.00235497
-0.0109676
0.00126973
0.000104475
-0.00590364
-0.0243879
-0.00102557
-0.00678713
-0.00334323
0.00157032
-0.0386185
0.00192172
-0.00354627
-0.00096505
-0.00990842
-0.00179795
0.00171083
-0.0225046
-0.00652292
0.000485267
0.0070128
0.00194854
0.00191875
-0.00459031
-0.00562276
-0.131221
-0.000862758
-0.0035104
0.00286785
0.00579221
-0.0713641
0.0017747
-0.00729637
-0.0181701
0.00162025
-0.0108594
-0.00926421
7.88884e-05
-0.000204633
-0.0753756
0.00220289
0.00433453
0.00218866
-0.138502
0.000187347
-0.00103591
0.00277272
-0.0103231
-0.000854832
0.000258818
-0.00761433
-0.0105785
-0.00105037
0.00202128
0.00195256
-0.00590314
-0.00458214
0.00234689
0.0021292
-0.00475217
-0.00126463
-0.00126007
-0.0198106
-0.0616724
0.000362297
0.0177199
-0.00171003
-0.02257
0.0154855
0.00156101
-0.00558032
0.00408502
0.000378837
0.00201789
-0.00685546
-0.012365
-0.00774649
0.000308588
-0.00155288
0.0041935
-0.0896245
-0.0447807
0.000402799
-0.0997915
-0.0128151
-0.0346792
0.00555703
-0.0186456
-0.124395
0.00185319
-0.0191873
-0.0737901
-0.0291078
0.0012683
-0.0144982
-0.00654275
-0.00120584
-0.00148674
-0.00635036
0.000815568
-0.00105401
-0.00420087
-0.00322629
0.000291265
0.000841982
-0.00114556
0.00162068
0.00185267
0.0023721
0.00616689
-0.000970926
0.00143754
0.00269417
0.00208862
0.00107244
0.00209848
-0.00339361
-0.0115231
0.00380274
-0.00662631
-0.0652554
0.00224068
0.00415623
-0.00160157
0.00168288
-0.00634277
-0.00674422
-0.0181467
0.00155777
-0.0648548
-0.0187407
0.00223112
-0.00139549
-0.0284674
0.0015256
0.00169828
-0.00118746
0.00156149
0.0018978
0.000510943
0.00267593
-0.0549473
0.0030071
0.000812026
0.00182455
0.00147392
0.00184197
-5.40956e-05
0.00100197
-0.0499838
-0.0124308
-0.00141262
0.00122129
-0.00208009
-0.0205976
0.0018023
-0.000138905
0.00161934
-0.00109145
0.00221412
-0.0363905
0.000604071
-0.0417933
-0.000494088
-0.00090899
0.00167566
0.00225213
-0.00710149
-0.0276264
-0.0143082
-0.0102814
-0.0590573
-0.000952356
0.00413198
-0.0635804
0.0165041
0.000354603
0.00108951
-0.0161785
-0.0126808
-0.00698208
-0.0116445
-0.00311924
-0.00295388
-0.0132267
-0.00866135
0.0015789
-0.12971
0.00197132
0.00120473
-0.00640365
0.0019416
-0.0166953
0.00203433
0.00199854
0.00187232
-0.00329442
0.00168329
0.00244411
-0.0428154
-0.0852485
0.00195592
-0.0012396
-0.00337
0.0024645
0.00161989
0.00128227
-0.0185014
0.0019659
0.00161924
0.00237309
-0.0667108
-0.00225843
-0.0132741
0.00117566
-0.0600772
-0.0131346
0.00214851
-0.0890088
0.00472413
-0.0318759
-0.0340604
0.000925002
-0.12339
0.001794
-0.00224514
-0.00091874
0.000901917
-0.00164204
-0.0199996
0.00234372
0.00206359
0.00185386
0.00177567
0.000989793
-0.00121475
-0.0289665
-0.0899054
-0.0240816
0.00279859
0.00150589
0.00242238
-0.107854
-0.0854885
-0.0240496
0.0016477
0.00481042
-0.0863615
0.000121191
-0.036029
-0.00104042
-0.00657684
0.0018
0.00187079
0.00100316
-0.00272393
-0.0138157
0.00166165
0.00141869
0.000615212
0.00448958
-0.0265661
0.0017425
0.0032663
-0.0343282
-0.00026399
-0.0196707
-0.0141513
-0.0409191
-0.00287495
-0.00115412
-0.00311566
-0.0964791
-0.0158804
-0.050904
-0.0647029
-0.00159981
0.00190674
-0.0275272
0.00153792
-0.0378086
0.00177909
-0.00122782
-0.102306
-0.0267008
-0.0189958
-0.00592845
-0.0893003
0.00122072
-0.000426803
-0.00121
-0.000945881
-0.0103599
-0.117758
0.00153524
0.00186243
-0.102076
0.00159441
0.00159984
-0.00509476
0.00140765
0.00321537
0.000484898
8.03828e-05
-0.00465751
-0.0231474
-0.000907898
0.00204522
0.000648946
-0.0112786
9.35854e-05
0.0020855
-0.0176485
-0.00130086
0.00193206
-0.0229589
0.00155248
-0.0353991
0.00153772
-0.0178423
0.00149583
0.00153515
0.00187952
-0.00529815
-0.0137748
-0.00228978
-0.00697423
-0.000312854
-0.00629279
-0.0342145
0.0015518
-0.0635388
-0.0118658
0.00335622
0.0176335
0.00152189
0.000112034
-0.0413538
-5.53388e-05
0.00268143
-0.0118439
0.00155326
-0.102508
-0.0570167
0.00155665
0.00155795
-0.00439876
0.00541374
-0.00918946
0.00234894
0.00157289
0.00193937
-0.0047109
-0.0440576
0.00205087
-0.0415627
0.0067051
0.00135856
-0.0361802
0.0018859
0.00167354
9.66417e-05
-0.00265962
-0.0546393
-0.0113432
0.00183942
-0.0456411
0.00330683
-0.00179964
-0.0200593
-0.0591725
-0.000984902
0.0015315
0.00177006
-0.127574
-0.00306602
-0.00279086
-0.0105896
0.0126613
0.00863021
-0.00644987
0.0187991
-0.0857716
-0.072409
-0.018171
-0.00171396
0.00203529
0.00165425
0.0022024
-0.0448055
-0.00587017
0.00177293
0.00203459
0.00151017
-0.037899
0.00204135
0.00386019
0.00189425
-0.00689629
-0.023271
0.0088756
-0.0148085
-0.00414955
-0.00317294
0.00155406
0.00275006
0.00370215
-0.0187925
0.000427525
-0.0472508
0.00193651
-0.0529789
0.00190106
-0.00203418
-0.0221771
-0.0136883
-0.017096
0.00187647
-0.00122797
-0.0680581
0.00279513
0.00734381
-0.0695632
9.10045e-05
0.00153912
0.000968824
0.0136455
0.00108773
0.00217996
-0.0162326
0.00193397
-0.000467481
0.00226628
-0.00350295
0.00177528
-0.00293433
0.00234596
0.00202977
0.00248127
-0.130133
0.00094266
-0.155117
0.00492188
0.00173201
0.00233835
-0.00688527
0.000186546
-0.0494763
0.00157273
-0.0160789
-0.00128842
0.00207114
0.00362519
0.00171959
0.00187595
-0.00786041
0.00117837
0.00206639
-0.0134826
-0.00154278
-0.00261138
-0.00115841
-0.00133626
0.000655576
-0.0117311
-0.0234472
-0.00296266
-0.0439589
-0.00418482
0.00184605
-0.155525
0.00210061
0.0054745
0.00214767
-0.0562082
0.00183905
0.000222224
0.0027302
-0.000346698
0.000832073
0.0015423
-0.0179771
0.00184137
-0.00111141
-0.0717299
-0.00254982
-0.00118859
0.00173151
0.000423458
0.00235274
0.00163411
0.00932029
0.00565664
0.00269386
-0.0347236
-0.0327868
-0.0301105
-0.00738811
-0.00648964
-0.0181776
0.00116724
-0.00411313
-0.0314363
0.00266565
-0.0773834
0.00174497
-0.000572868
-0.00118711
-0.100305
0.00142188
0.00172837
0.000504502
-0.115945
0.00177396
0.0253978
0.00163806
0.000333945
0.00224144
0.00234633
0.00131702
-0.000130196
-0.0914902
-0.104683
-0.0014183
-0.00256391
-0.00455022
0.00202164
-0.0593897
-0.131216
-0.00674275
-0.00587435
0.000754392
0.00187632
0.00855349
-0.000360558
-0.0324921
-0.0586613
0.00178889
-0.000508979
-0.0102237
-0.00126169
-0.0722368
-0.00558722
-0.00624385
-0.0817154
-0.00127354
0.00148908
0.000503618
0.00189983
-0.000869662
0.00313045
-0.00678385
-0.0866513
-0.0104477
0.00150819
0.00240446
0.00948247
0.00269009
-0.0182223
0.00481464
-0.00266552
0.00110038
-0.0876693
0.00144919
-0.0676423
0.0014995
0.00146362
0.00182361
0.00246228
0.00191308
0.00233121
-0.0862464
-0.0836605
0.00186302
0.000929741
0.00117711
-0.145841
-0.00121837
-0.00132036
-0.015532
-0.0132073
0.000675352
-0.00527482
0.00152246
-0.0284994
-0.0112038
0.00179778
0.00247285
0.00186396
-0.00591899
-0.00311056
0.00188755
-0.103689
-0.00374103
0.000802513
0.000536049
-0.000527285
-0.0116656
-0.000904571
-0.0439406
-0.00529533
-0.0425369
-0.0308157
0.0046328
-0.00164546
0.00239957
0.00268278
-0.0275501
0.00184031
-0.0928622
-0.00137971
-0.00133375
0.00302915
0.00972766
-0.00100863
-0.00121839
6.00288e-05
-0.0594013
0.00190199
0.00246921
-0.0625679
0.000912646
0.00242485
0.000678123
-0.073454
0.00264369
-0.0136799
-0.00518916
0.00184572
-0.0131022
-0.0925344
0.00212677
0.000721862
-0.000449087
-0.06151
0.0022583
0.00198285
0.00164378
-0.0408335
-0.000219814
-0.0161321
0.00182375
-0.0296532
-0.0730879
0.00177555
-0.123207
-0.0177474
0.00230656
-0.0171647
-0.0013015
-0.00663065
0.00239583
-0.0627913
-0.137938
-0.129669
-0.0632343
0.00184512
-0.00128242
-0.0144768
0.00205208
-0.0367238
0.00301732
-0.00733551
-0.0863207
0.00186159
0.00420464
-0.00627105
-0.00135696
0.000609184
-0.000690058
0.00183988
0.00301375
-0.000148318
-0.00274776
-0.000615464
-0.0559258
-0.0434562
-0.00416767
0.00189696
0.00189383
-0.0108019
-0.00184484
0.00207898
-0.0889054
0.00159834
-0.140777
0.0017672
0.00224819
0.00109479
0.00168255
0.00548651
0.00186241
-0.0385098
0.00446473
-0.0234444
0.00236089
0.000489889
-0.0516581
0.00186631
0.000442936
-0.0434287
-0.00987551
0.00190097
0.00141553
0.00240167
-0.0121044
-0.00689878
-0.00240284
-0.0375906
-0.0298808
0.002656
-0.000371214
0.00190102
-0.00134029
-0.0997406
0.00185601
0.00262972
0.00158191
0.00185666
0.00196774
-0.00506229
-0.0645837
-0.0502066
-0.055688
0.000736104
-0.125398
0.00190177
0.00184117
0.00226381
0.00526074
-0.0355469
0.0120794
0.00184152
0.00379897
0.00489551
-0.0147666
0.00136862
0.00155972
-0.0688978
7.93191e-05
-0.0012974
0.00195088
-0.0345642
-0.00792621
-0.00174052
-0.00268153
-0.00106461
-0.0305412
-0.0106457
-0.00122614
0.00874198
-0.0213196
0.0018485
-0.00931732
0.00242964
-0.00595323
0.00685294
0.00764609
-0.0155479
-0.00857343
-0.000399988
0.00184557
-0.10603
-0.00135484
-0.0737847
0.0018487
-0.0431467
-0.0101869
0.00239496
0.0024516
0.0174248
-0.100745
-0.0345034
0.00435013
-0.0411413
-0.0962111
0.000355982
0.00102208
-0.00130626
-0.00544054
0.00239734
0.00180087
0.00165301
0.00224755
0.00247144
-0.113301
-0.154338
-0.000172059
0.00365843
0.00231258
0.0018137
-0.00278177
0.00099175
-0.033675
-0.0325302
-0.00784003
0.000205942
-0.0705018
-0.126625
0.00137726
0.00232669
-0.0114128
-0.00155575
-0.0764612
0.00154024
-0.0109605
0.0015659
-0.114528
-0.00946228
-0.0127199
0.00112628
-0.0133621
-0.00190535
-0.00638923
-0.00111446
-0.0914965
0.00859219
-0.108571
-0.00437221
0.00432814
-0.0653451
-0.000741509
0.00412635
0.00152564
-0.016353
-0.0011715
-0.00848839
0.00237591
-0.0135252
-0.0658193
0.000694452
0.00116475
-0.00493492
-0.125643
-0.000960832
0.00153682
-0.0127295
-0.0606168
-0.00111527
-0.0841861
-0.000451217
-0.028412
-0.00656219
-0.0163853
-0.0177293
-0.0172508
0.000176104
-0.000731197
0.00264931
-0.0029063
0.00168734
-0.00455044
-0.0057615
0.00164329
-0.000886963
0.00229581
0.000504693
0.00101247
-0.000783221
-0.00113918
-0.00218926
0.00490074
-0.0562581
0.00145254
-0.000160824
-0.00277047
-0.00558833
-0.0100778
0.0017202
-0.00224934
0.000742563
-0.0219463
0.00203795
9.79572e-05
-0.0265343
-0.0137239
-0.00217003
0.00751087
0.00290746
-0.013122
0.00149984
0.000204592
0.00215939
0.00128336
-0.000908995
0.000610641
-0.0002533
0.00192939
0.00695536
-0.0943672
-0.00115393
0.00394594
-0.00046743
-0.0284266
-0.00829558
0.00190912
-0.133141
0.00151479
-0.000775114
0.00212339
0.00253203
-0.000990791
0.00170296
-0.0050183
-0.0474592
0.00108852
-0.00235257
-0.00352767
-0.0349794
-0.00323944
0.00267039
0.00151906
-0.0103562
0.000269598
-0.146896
0.00014047
0.0023681
-0.00100439
0.0020905
0.00198611
-0.0442544
0.00167713
0.00182713
-0.00365081
0.00144395
0.00172269
-0.00131973
0.00178717
0.00404884
-0.0954654
0.000438628
0.00313019
0.00142593
0.00241783
-0.000941356
-0.00272744
-0.00547031
-0.000865781
-0.0393496
-0.01619
0.00184575
-0.0386225
0.00211832
0.00238086
0.00263746
-0.0049753
0.00745747
0.0106105
-0.0870081
-0.00909477
0.00211576
-0.0532547
0.000636067
0.000478376
-0.0109553
0.00330064
0.00184929
-0.0452656
-0.013671
0.00010517
0.00204001
0.00241916
0.000814858
0.00215807
-0.02232
0.00175623
-0.0160206
-0.0291944
-0.0471256
-0.154031
-0.0095115
0.00158273
0.00205056
-0.0993933
0.00194516
-0.0946361
-0.0622948
0.00184147
-0.0975006
-0.0186444
-0.0124057
0.000887464
0.00185163
0.00213896
0.00258386
0.00182945
0.00207099
0.00801179
0.000718409
-0.000688556
0.00170134
0.0037683
-0.11507
0.00149896
0.00182007
-0.0121821
-0.00377875
0.00253908
-0.0882625
0.00100929
-0.0257671
0.00183505
-0.022091
0.00398548
-0.00140719
0.00517147
-0.025568
0.00259192
0.00225473
-0.0136633
-0.00248041
0.00181678
-0.018869
-0.0196435
0.00210867
0.00188426
-0.0583831
-0.000938127
-0.101955
0.00102267
0.00228423
0.00159415
0.00187616
0.00160697
-0.00368153
-0.0414872
-0.00010126
0.00189489
0.000917508
0.00182179
-0.0134073
-0.0484703
-0.000560669
0.00147279
-0.0156039
0.00184717
0.010402
0.00188766
-0.00161392
0.000197684
-0.00154791
-0.0854849
0.0011303
0.00167622
0.00184459
-0.00125662
-0.0343757
-0.0962836
0.0017247
0.00234025
-0.0810459
0.00183137
0.00229653
-0.0242793
-0.000433748
0.00195098
-0.0220701
0.00184543
-0.00408346
-0.000936856
0.00187693
-0.100987
-0.0120938
-0.00167065
0.00822184
-0.0924626
-0.0564174
-0.0960443
0.0015153
0.00168116
0.00257296
-0.017221
-0.00276667
0.00417839
-0.0665937
-0.00496797
0.0022528
0.0169115
0.00366646
-0.0143499
0.00180108
-0.00144265
-0.0423417
-0.000736085
-0.0855998
0.00204789
-0.0167602
-0.000946709
-0.00432776
-0.0260956
-0.00123733
-0.0829097
-0.11804
-0.00181275
0.00171112
-0.0102621
-0.142217
5.33782e-06
-0.0267988
0.00192866
0.0015132
-0.0082448
-0.0248007
-0.057612
-0.00186526
-0.0959721
0.00224472
0.00269728
0.00209372
0.00254937
0.00199806
-0.0322858
-0.000977901
-0.0184569
0.00444168
0.00230689
0.0018795
-0.0100175
-0.000351766
-0.0216511
-0.100644
-0.021989
0.00203317
-0.0011288
0.00122175
0.000563872
0.00318646
-0.00126493
-0.023746
0.0017464
0.00180609
-0.000796898
0.00966493
-0.00148222
0.0023774
-0.111752
0.00227267
0.00209157
-0.0367663
-0.000382927
-0.0509974
0.00205361
-0.00558165
-0.0840698
0.00568131
-4.01654e-05
0.00225158
-0.0144118
0.00185268
0.00102819
0.00226615
0.00267377
-0.00230449
0.000813966
-0.0482828
-0.00242856
-0.106264
-0.121778
-0.0571922
-0.0410165
0.00671775
-0.0267801
0.00228817
-0.0701642
-0.10201
0.00346532
-0.0755067
-0.0848325
0.00216237
0.00259981
-0.000889564
0.00116124
0.00349218
0.000795366
0.00190803
-0.0153502
0.00244578
0.000890291
0.000916092
-0.0242005
-0.0763466
-0.0613455
0.00178956
-0.00147325
-0.00864538
-0.0797178
-0.0280905
-0.0590869
-0.00128292
0.00107199
0.00139357
-0.00254843
-0.0217509
-0.0229215
-0.0572929
-0.0261016
0.00183153
-0.0105544
-0.0948912
-0.000776925
-0.0330552
-0.00351743
-0.0700544
-0.000775826
-0.00140101
0.00175151
-0.0598294
0.00246672
0.00268542
0.00438386
-0.00378694
0.000680544
0.00735997
-0.0285382
-0.0742336
-0.0042894
-0.00128144
0.00174881
-0.00033432
-0.036093
-0.012991
-0.0589527
5.99921e-05
0.00222822
0.019285
-0.00037455
-0.0440201
-0.00144659
-0.0158639
-0.0241825
0.00183697
-0.0242222
-0.0734234
0.00182518
-0.0423723
0.0018586
-0.154882
-0.00979299
0.00183527
0.0015079
-0.000416319
-0.0184165
-0.0189354
-0.00340116
-0.00728293
-0.0707238
0.00206367
-0.0171324
-0.0349509
-0.135207
0.00244139
-0.0777402
0.0024485
-0.01057
-0.00399157
-0.0104523
0.00275351
0.00163723
-0.0473399
-0.0734941
-0.020891
0.00792323
0.00181703
-0.00553028
0.00183188
-0.0119633
0.000170692
0.00267246
0.00195751
-0.00208634
-0.00129868
0.00244142
0.00226223
0.00121065
-0.0224889
-0.00147819
-0.001642
0.00146588
-0.0994469
-0.0357916
-0.000924197
-0.124597
0.00219554
-0.0104403
0.00251706
-0.0314887
0.00169913
0.00101839
-0.0568285
-0.0573932
-0.00134751
0.00270667
-0.00152935
-0.00685671
0.00135424
0.00276212
-0.000343626
0.00251387
-0.0175823
-0.139102
-0.00198879
0.00187111
-0.0332668
0.000713073
-0.0287126
-0.00259066
-0.0105427
-0.00215983
-0.00391311
-0.0687335
-0.013997
0.00195447
0.00114639
-0.0122849
0.000888251
0.00192123
-0.00047563
0.00290181
-0.0101782
-0.0769867
0.00663484
-0.00102009
-0.0401256
-0.00431081
0.00212997
-0.0263661
-0.0980114
0.00189129
-0.00169838
-0.0229622
-0.00237513
-0.00219765
0.00163163
0.001373
0.00170078
-0.000659923
-0.0192693
-0.102325
0.00409094
-0.0479347
-0.00209991
-0.0311915
0.0019102
0.0113916
0.00192249
-0.0110334
-0.00110269
0.00237974
0.00439045
-0.0979816
0.000949976
-0.00190404
-0.00180002
-0.0115721
-0.0213484
0.00242997
0.00151502
-0.0127786
-0.0101739
-0.0465565
-0.0231338
0.00223528
-0.00169813
-0.00061253
-0.0321718
0.000743577
0.00103114
0.00524616
0.00234042
0.00222804
0.00112584
-0.0106172
-0.00154258
-0.0792849
-0.0211756
-0.0248076
0.00209555
-0.0118284
-0.0111816
0.00331556
0.000933137
0.0033798
0.0013059
-0.00271389
0.00134149
-0.0161118
-0.0108837
-0.00166051
-0.00113298
-0.0193791
0.000632835
-0.000558862
0.00288001
-0.000807873
-0.0484866
0.00240995
-0.0466416
0.00368466
-0.0396208
0.00221019
0.00228703
-0.00204327
0.00177161
-0.0113466
-0.0124022
-0.0187649
0.00891345
-0.044495
-0.000302526
0.00486999
0.00188082
-0.154971
-0.102736
-0.0946584
-0.0511565
-0.00105496
-0.0551558
-0.0121153
-0.0100658
-0.0947958
-0.0205254
-0.00507109
-0.0125015
0.0025692
-0.00194729
-0.00163414
0.0018832
0.00207811
0.00240757
-0.00165215
0.00159602
-0.0162805
-0.0136337
-0.1007
0.00187638
-0.046717
0.00513454
-0.0413374
-0.0236634
-0.00401981
-0.0425733
0.00185611
0.00148538
-0.0766584
-0.00190878
-0.0293633
0.00273227
0.00144949
-0.0221544
0.00217548
0.00137053
-0.0140024
0.001085
-0.0281734
-0.0135793
-0.00548488
0.00210876
0.00134314
-0.00155373
-0.00461047
-0.0110477
0.0099512
-0.0917711
-0.00160599
-0.0516961
-0.00126848
-0.00477125
-0.00950783
-0.00279207
0.00201638
0.00141849
0.00187685
-0.0401012
-0.0150909
-0.003114
0.00228981
-0.00626251
-0.000558551
0.00274723
-0.105177
0.00184085
0.00114645
-0.0114191
-0.00806096
-0.012422
0.00248629
0.00291063
0.00188936
-0.134704
-6.56217e-05
-0.0680274
-0.00264119
0.00122569
-0.0978324
-0.0471736
0.00218387
-0.0010182
-0.00735965
0.00127208
0.00220818
-0.00139307
0.00261332
0.00150884
-0.00927459
-0.0746694
0.00373983
0.00238553
-0.00669411
-0.00509147
-0.000192581
0.0011503
-0.000354653
-0.0024062
-0.103602
-0.0948537
-0.000750651
0.00159052
-0.0821603
0.00418733
-0.0422962
0.0038509
-0.0120654
-0.00268067
-0.0970483
-0.0502575
-0.016706
0.00197091
-0.00537045
-0.0014512
0.00229394
0.00186681
-0.0117626
-0.0560159
-0.0588095
-0.000753963
-0.00510272
-0.00466731
-0.104602
-0.0181377
-0.011673
0.00107876
-0.00154727
-0.015339
0.00160955
-0.00162728
-0.0159972
0.00198643
0.00134999
-0.00582399
-0.0521634
0.00119862
0.0073676
-0.0124444
0.0056343
-0.0140523
-0.0214367
-0.00456986
0.00149888
-0.00419948
-0.0160681
0.0011542
0.000526895
-0.152398
0.0025404
0.00235933
-0.0292959
0.00127665
0.00208187
0.00936252
0.00194433
-0.0971153
0.00862111
-0.0432323
-0.000363989
-0.0076512