/*--------------------------------*- C++ -*----------------------------------*\
| =========                 |                                                 |
| \\      /  F ield         | OpenFOAM: The Open Source CFD Toolbox           |
|  \\    /   O peration     | Version:  v2012                                 |
|   \\  /    A nd           | Website:  www.openfoam.com                      |
|    \\/     M anipulation  |                                                 |
\*---------------------------------------------------------------------------*/
FoamFile
{
    version     2.0;
    format      ascii;
    class       volScalarField;
    location    "400";
    object      ddt0(omega);
}
// * * * * * * * * * * * * * * * * * * * * * * * * * * * * * * * * * * * * * //

dimensions      [0 0 -2 0 0 0 0];


internalField   nonuniform List<scalar> 
18649
(
0.513602
-0.00168839
0.000100876
0.00476123
0.0439691
0.000476112
0.639562
0.0614819
0.00913363
1.35286e-05
-0.17527
0.0545211
-0.303577
-2.80942e-05
7.03939e-06
0.000925909
1.46179e-06
0.00184177
0.176826
-0.583251
-0.809178
-7.88853e-05
0.81695
0.00417968
-7.70388e-07
-0.524847
0.000192137
0.0267401
0.114122
3.56189e-06
6.50696e-05
-0.0132588
2.40566e-06
-5.30754e-05
-6.67237e-05
-1.85753
-0.000794166
-6.18589e-06
-1.07656e-06
0.319829
0.013989
-0.009091
0.00469265
-0.450305
-0.000453648
3.4662e-06
-0.159219
0.00123779
-0.423292
-5.45473e-06
0.67671
0.00245978
-0.878335
-0.802878
1.71975e-06
-0.265401
-0.0935195
0.0117139
-0.0311715
-0.000426187
0.465072
1.25545e-06
0.00181416
0.00139752
1.41568e-05
-0.0064065
5.1195e-05
-0.0988586
0.00931869
0.0250387
-0.0384837
2.18313e-06
-0.126972
0.000529868
-4.60799e-05
-0.729794
0.00624309
0.00467959
0.000776988
-0.234129
2.6889e-06
-0.100074
-0.00884924
-0.874611
-0.0285271
-5.18083e-07
-0.000983749
0.000867704
0.0108747
0.000219402
0.000465141
-1.97076e-05
-0.000119638
-0.569751
-8.208e-05
0.0370879
-0.000268852
0.418514
-0.00871581
8.05521e-05
0.754797
0.00667705
-2.47879e-06
0.803304
-0.00171376
0.00276352
6.94063e-08
0.000115975
-0.00500223
-6.1405e-06
-3.92238
0.00333179
5.17069e-06
-0.000398723
-0.0221496
0.000237798
1.38119e-06
0.0214404
-0.43256
9.71196e-06
-0.0152724
-0.000188386
-0.0388794
6.08202e-06
0.0336272
-1.73093e-06
-1.16787e-07
-0.545442
-0.000163221
0.0527467
-1.4712e-05
-0.00621753
-1.59807e-05
-0.0732895
-0.00175304
-5.59611e-06
-0.683402
-0.0937077
0.00186744
0.010168
2.81507
3.77833e-05
-1.10224e-06
-2.36612e-07
4.70683e-06
0.0326457
-7.72739e-07
8.85216e-06
0.997378
0.00723947
0.0835466
-1.0631e-05
0.115559
-2.38247e-05
-7.70309e-07
9.40175e-07
-0.0365677
-0.369476
3.86101e-07
2.47743e-05
-8.60968e-06
0.487095
-0.0525228
-2.30907e-05
-0.0304246
0.0251617
-2.073e-05
-1.868e-06
6.61006e-05
7.39221e-05
-1.97999e-05
0.268953
0.00817533
-0.00447533
-1.66924e-05
0.566161
1.24734
0.00015835
2.19902e-07
0.0571605
0.15137
1.10052e-06
-2.33922e-09
-0.741047
0.00149362
-0.00338235
-1.18331e-05
5.27477e-05
-0.000107324
-0.00277156
-24.3708
-0.000117844
-0.125148
3.48334e-05
-2.09056e-06
-1.2764e-06
4.46862e-05
0.0304738
-0.000944779
-9.62561e-08
9.71728e-06
0.0226311
-0.103403
-0.000308051
0.0140461
0.0185419
2.54152
-0.211702
5.7184e-06
-0.11196
2.81346e-05
0.00026034
-2.87218e-05
-0.238505
0.000206298
2.84155e-06
0.00686539
-4.07349e-05
0.0610292
-8.44498e-05
-0.0191924
-4.3302e-05
3.59744
0.139479
-0.646539
0.154891
3.57239e-05
3.6817e-05
-0.911753
0.376933
-0.00241661
6.09098e-07
1.34911
-0.00265923
-0.627716
-0.456529
-0.0444142
-0.0517659
-1.25686e-05
0.912634
-3.2267e-06
-0.0628633
-0.00223778
-1.14199e-06
-0.000496052
-0.00263358
-0.905462
-1.06326e-05
-0.0117357
-0.0272055
1.3891
0.608542
0.000265506
2.68801e-05
-0.000382562
-0.20313
1.76729e-05
1.84819e-05
-0.000196679
0.000292199
-1.11819e-05
0.0220006
-0.0429968
3.85472e-06
-1.34181e-06
-0.0720092
0.583322
-2.94651e-06
-0.279386
-3.70363e-06
0.053892
0.104393
-0.903507
-0.940977
0.105977
3.35785e-05
-1.22813e-06
0.129614
0.236537
0.00765543
-3.19292e-06
-3.44555e-05
0.164318
0.00256732
-0.965069
0.997343
1.67242e-05
0.0103882
4.4944e-06
1.46137e-06
-0.0207487
0.599962
0.37698
0.142654
1.70701
-0.00108668
0.0870246
0.678752
-1.8462e-06
0.540897
9.13587e-07
0.00024887
-0.000104682
1.55089e-06
1.13569e-05
0.0882875
-4.20689e-07
0.00101092
-0.226649
-0.000469296
-0.489531
-0.000146175
1942.51
9.63674e-06
7.1338e-06
-1.34968e-05
3.81434e-05
-8.52933e-09
-0.00605356
-0.245333
9.29499e-06
-4.31559e-06
0.00501098
-3.29992e-08
3.76271e-06
7.34679e-06
-8.25995e-06
0.000228836
-0.0796066
-0.0120844
-0.0909871
-3.34354e-06
3.3245e-06
-0.000302233
8.75738e-07
1.96073e-06
-1.28055
0.0117903
2.08036
-0.000152618
0.25217
6.22403e-07
-0.000397597
-2.29935e-05
-0.000662077
3.51789e-05
-2.53384e-06
-3.09089e-06
0.00123182
0.000679368
2.74982e-05
-0.892792
1.93316e-05
8.59909e-06
-0.223202
3.33012
9.06715e-05
-0.434037
0.422664
0.0633775
0.516776
-0.000339191
0.577528
-3.43223e-06
-0.711781
-32.0729
-0.00016324
0.00133593
0.00609719
0.000104463
-1.79338e-06
-2.43777e-06
9.845e-06
-0.080627
-0.00110051
-0.601622
-0.0757674
-0.357617
-0.902691
-6.35007e-05
-2.64979e-08
-0.00449417
1.74193e-05
23.7102
-2.84446e-11
-7.20331e-06
0.552695
0.392113
3.75108e-05
-5.02236e-06
0.478562
-0.00787626
0.000142453
-1.99921
-5.61486e-05
0.000972313
2.21111
0.000247691
6.88934e-07
-1.15456
-0.0825339
0.00282509
-1.9479e-06
9.23431e-06
-0.0761664
-1.33134
-3.48788e-05
1.4165
-4.67869e-06
4.97334e-06
0.424728
4.16269e-06
-0.06979
0.0004604
0.0368505
-0.847489
-0.581943
0.605788
1.98865e-06
0.312146
-1.10427e-05
0.0770358
0.081792
-0.650648
-0.830076
-2.83313e-06
3.71087e-06
2.97709
0.00174187
-0.00053763
-1.01832
0.000275744
-0.000540707
-5.05491e-07
0.0621379
-1.59067
0.351417
5.62704e-06
-9.39229e-05
-0.135609
0.626555
0.00191873
-0.00200011
-5.03686e-06
-3.95678e-06
0.0118909
-0.517867
1.56215e-06
1.11434e-05
-0.0464962
3.72026e-06
-1.28109
-1.18654e-05
0.817985
-0.00494738
-0.681118
0.000877395
-0.798747
-0.0955745
0.000629718
0.00849829
-0.000555717
0.000958631
-9.89033e-05
-7.50484e-05
0.00286789
-2.61616
6.20535e-06
0.000210471
0.525607
-4.27101e-06
4.78565e-07
0.232666
1.48432e-06
-0.294265
3.88634e-05
0.000150019
1.27396e-05
-0.000124103
-5.8883e-06
-3.2282e-07
-0.696428
1.54379e-05
-0.00152811
2.71191e-06
-0.00112738
-0.514185
8.65991e-08
0.0266346
-0.00219148
0.656153
-0.38547
-0.283515
-0.615895
0.000163002
-0.0677235
-0.00293517
-0.87268
2.06655e-05
-0.100326
0.000491639
-0.139332
-0.00064486
-0.0360651
-3.70248e-08
-0.538989
0.0698461
0.394189
4.16163e-05
0.221461
0.000640327
-0.000689541
1.43212e-06
0.074061
0.136221
-2.89536e-06
3.16102e-06
-0.33689
4.97229e-06
0.181153
5.4372e-06
0.000562187
0.000148007
0.00335382
1.62953e-06
-0.172409
-1.58441e-07
0.0526048
8.95152e-06
-0.5153
2.93725
-0.791012
1.03286
0.000149779
2.86208
-0.00177247
-0.105165
-0.115326
5.40285e-07
-0.00176408
0.041322
0.000175794
-0.00250524
-1.5316e-05
8.91018e-06
0.00024171
-1.8749e-06
-1.67252e-07
2.38126e-05
-0.356728
-4.53812e-06
1.58028e-05
0.000105892
0.00198585
1.02552
-0.474827
6.56225e-05
0.000859199
0.0327012
-0.0648894
2.15375e-06
-0.410101
0.244806
-0.955605
0.0462309
-0.0016618
-0.000797488
-0.00069502
0.00189148
1.04092e-07
4.09407
-2.18784e-05
-2.4588e-05
6.46863e-07
-1.58305
-0.639416
0.0468803
-0.000694529
-1.12326e-07
-0.0731007
-0.0117437
13.5378
0.00174092
-0.00549086
-0.0492439
-9.20123e-07
-0.246856
0.00134328
0.000155665
-8.27782e-05
-0.541419
-0.0177149
3.53709e-05
-0.107739
0.0024669
-0.00094518
-0.223993
1.02517
-3.80799e-06
-0.17165
-0.000901545
1.13621
3.30133e-06
-0.884373
0.00107803
-0.000381552
2.73857e-06
-0.673187
0.00812877
0.00079117
0.00855238
0.398101
-0.000684094
0.0328513
-1.91303e-05
0.0110347
0.0805347
-4.04426e-07
2.57969e-06
0.00464804
-0.000142499
0.00113301
2.75409e-05
-4.56186e-05
-1.35769
-2.07706
0.0894731
-2.12836e-08
-0.338233
-7.85176e-07
-1.01226
0.00280932
-3.83228e-08
-8.97618e-06
-0.000222753
3.95045
-0.00021863
-0.0360861
0.018404
0.00879411
1.68654e-05
-2.67466e-05
-0.000143064
-0.544789
1.08963e-05
-0.00378969
-3.53292e-06
0.283351
-1.07774e-06
-0.000561475
3.86673e-05
-4.56476e-06
0.90958
0.0694939
0.520096
0.000607099
-0.821185
-0.00133474
-1.82067e-06
-0.000453153
-0.00631238
0.000169264
9.35784e-06
-0.588029
0.211512
-5.4599e-06
0.132621
-0.732839
-2.31611e-05
2.65679e-05
-0.0145
5.08818e-05
-2.05287e-06
49.0742
-0.0284502
-0.237497
-0.656041
1.38605e-05
-0.430161
7.94127e-06
4.41949e-06
-4.37277e-07
0.00393878
-1.41095e-07
-3.65891e-05
0.00311363
0.89156
-5.91331e-05
3.9648
0.00202
1.03389e-06
0.689988
0.00066149
-0.351433
-0.000491769
0.641487
2.40798e-06
-0.000374771
-3.24944e-07
0.560736
4.68091e-05
-0.00905858
-0.929857
-0.049769
-0.0190483
0.0615504
0.000958573
-0.678849
1.12334
-0.0132309
-0.000363877
9.19928e-06
-0.179359
0.478192
2.51437
-0.00935253
0.0287365
1.97787e-05
0.00237799
-0.00984955
-0.113692
-3.73728e-06
-0.00110435
-0.0832175
-0.567392
-0.586734
0.0562658
-3.75006e-06
-1.43583e-05
-0.369081
-0.404089
1.45233e-06
-0.000586693
-6.40687e-07
52.3911
-5.67462e-06
1.22926
0.0665623
3.5702e-06
1.74138e-06
-0.0445648
-7.48889e-06
-0.00114847
-1.54588e-05
5.24173e-06
-3.75145e-05
4.18674
0.0412288
-0.221173
0.440557
1.11485
-1.87467
-3.1069e-07
2.92134
0.0012564
-0.000538737
0.761208
1.0947e-05
1.10401e-05
5.2289e-06
-7.34174
0.247295
1.26007
6.08067e-06
-0.0103967
2.70208e-06
-1.25056e-08
2.50769e-06
1.01591e-05
-0.0018992
0.258592
-0.00109789
7.13845e-06
0.310607
18.9202
0.00933866
7.44718e-06
0.289573
0.140575
-3.49799e-06
0.0157851
0.328451
0.00352789
-0.0132278
-1.26081e-05
0.000233637
-0.0115693
-0.00611376
-1.24017
0.000114572
0.992939
0.0187455
-0.661731
5.97633e-05
0.127478
-0.260939
0.024183
-0.017786
-1.07956
1.54476e-05
0.765365
-0.704547
3.74298
-1.81016e-05
-1.5623e-06
0.00291253
0.0466335
8.12305e-05
-0.0530102
-0.000177822
-0.383345
-2.78758e-05
0.0191351
-1.49921
-4.99359e-06
0.253912
-0.0093453
0.0547625
-0.0045472
0.296716
8.97486e-06
0.0654533
-0.0169347
-0.365866
-0.616664
-2.8688e-05
-0.871979
-0.199186
-9.51706e-06
-0.753936
0.0579817
1.6667e-06
-0.168717
-1.23122
-0.000475967
-0.00476481
-0.170434
-6.53578e-06
-0.646525
8.89086e-05
-2.34073e-05
1.79136e-05
0.00104969
6.4854e-06
3.4967e-06
-1.89734
-3.26052e-07
-0.000223085
-6.57929e-05
0.401711
-0.00371981
9.09895e-06
1.14078e-05
-0.65795
3.03124e-06
-0.98771
-0.279662
-0.0121462
0.585987
-0.00115388
0.00103847
-0.86964
0.0152626
0.00271752
5.20125e-06
-0.0119377
-0.000782434
-0.169191
1.83079e-05
1.09297e-05
-0.00106917
-1.46064e-05
-0.0426999
-0.004443
-3.51272e-05
3.858e-06
-0.000384061
-0.000805505
-2.0165
-4.61009e-05
-2.72558e-06
0.934657
2.40699e-05
0.898762
-0.00993396
-0.0040966
0.35458
-6.8672e-06
-0.278453
1.21628e-05
0.0239095
-0.400771
0.0433533
0.00356465
7.8269e-07
0.0410411
0.000114046
-0.00925901
-0.179172
2.89734
-0.313385
-0.00363993
-0.000474526
0.000250867
1.16007
0.0216651
-3.67264e-06
0.552001
-2.3665
-3.07595e-06
0.0321055
0.0991898
0.825528
8.59791e-06
-0.064494
0.0740929
-0.144921
-0.393635
-0.185153
0.217444
-0.0032189
2.59097e-07
-0.000567628
-0.00221943
6.62806e-06
-0.000366196
-0.228197
8.52581e-05
-0.0164941
0.0131534
0.327801
-1.13319
0.00259837
-0.807753
0.00850511
-0.0349114
-6.28667e-09
0.0164889
2.29004e-06
-0.872063
-0.635739
-3.69975e-07
-0.0145159
7.32747e-05
-1.08952
-0.147818
-0.350482
1.53839
2.174e-06
0.000157042
1.02892
0.0855106
-0.752031
4.39754e-06
1.38671e-05
1.26287e-06
0.000493141
-0.00490696
1.81403e-05
-1.73031e-06
0.000456721
-4.24201e-05
-3.22515e-05
-0.20262
6.55044e-06
-0.000362596
-1.74768e-05
8.65695e-05
-0.0696027
0.231471
-138.191
-0.576735
-1.08639
-0.456894
0.76422
-0.000580123
0.0227367
0.661747
8.59992e-05
3.2335e-06
7.27196e-06
-3.84799e-05
-1.63199
0.0520055
-179.146
-0.0542718
0.000615591
-0.229014
-0.0107171
-0.199871
0.0116259
0.0106149
-0.000299905
3.70815e-06
1.87487e-05
-1.01949e-07
2.16687e-05
0.0268304
1.0602
-0.022463
0.0714717
-0.0506298
-0.694823
-0.00260257
3.95849e-06
-0.0257881
0.00117842
0.00664663
1.38159
-0.000558488
0.205607
-0.633048
0.318898
0.270428
2.78415e-06
-7.70467e-06
0.000384083
-0.246863
-0.000507203
1.04592e-05
5.32457e-05
-6.59234e-05
6.46758e-06
-0.228272
5.9401e-05
-1.16953e-09
1.27035e-05
0.258204
0.000962985
0.000131493
-0.0210524
-2.06512e-06
0.10415
-0.000188744
0.0050746
2.53461e-05
-0.369738
-0.000182406
0.0507163
-6.12574
0.630749
-9.82613e-08
-1.8286
0.00843467
0.000586619
0.00143144
0.000165426
-0.0584746
0.000841408
-1.43828e-05
-0.0655312
-0.281948
0.000134671
-0.200346
-0.241677
-9.12947e-06
-6.48823e-05
0.000818166
0.000123385
1.12602e-05
-0.762103
2.39095e-06
-1.08898e-05
2.04801e-05
0.575497
2.85556
0.0014237
-0.165568
-0.000672892
1.67135
-0.100935
0.000317335
-2.7754e-06
0.0140616
-5.82132e-05
-0.251751
-0.913168
3.35197
5.89898e-06
0.0370285
-0.0687713
2.16369e-05
0.043927
-0.117443
-0.598426
-4.48939e-05
2.57402e-08
0.0418681
-0.00185518
-3.36145e-06
-0.000373138
6.84085e-05
3.03253e-05
-0.0013778
-6.40086e-05
-0.225833
0.0184789
1.21695e-06
0.735421
3.703e-08
-0.981341
-0.0017912
-1.86182
-1.83602e-05
-0.145349
0.0267698
5.29667e-06
-0.236432
-2.37815e-05
0.0277749
-1.70399
-2.65872e-05
0.0642759
2.77829e-05
7.65815e-06
-1.49235
-1.38063e-05
1.38113
0.00288831
-2.06114e-06
-0.538363
7.66325e-06
-0.0217369
2.74037e-07
-0.000769332
7.93365e-06
0.00334646
2.41828e-07
-1.79365e-05
-2.84712e-06
1.3567e-05
0.000146782
0.616148
4.56763e-06
-0.0405796
0.032118
0.000132952
-0.335316
1.50622e-05
1.78089e-06
-0.436504
-0.0393147
-0.535954
-0.479708
0.000867284
-0.000551944
-0.00272384
-1.25571e-05
0.00980531
-2.07058e-05
0.000407005
-0.148155
0.0667287
0.00164494
0.000180717
-75.4394
-0.251116
0.00776958
-3.20547
-0.000528786
-0.236513
-0.0184617
2.46699
0.192612
-1.23264
0.00283231
0.273331
-0.113573
-0.00418572
1.29853e-06
4.56479e-07
0.0824991
0.000398501
-0.769347
0.229956
-0.00211754
-1.53655e-05
1.57645e-05
-0.411683
-0.53293
0.0013144
0.82064
-0.000254267
0.000117134
-0.00128823
2.10214e-05
1.71312e-05
0.0424697
0.000234655
0.00554014
-0.10465
0.701678
0.00034282
-1.21882e-07
-0.0251472
0.034237
2.05944
1.43652e-05
-0.75986
0.192408
-0.00770605
1.07605e-06
-0.395742
4.08939e-06
0.000160115
0.00018024
1.44524e-06
-0.0356047
3.73749e-06
-6.40349e-05
-6.74609e-09
0.000611529
0.0996325
-0.276666
3.53551e-06
-0.520001
-0.0785962
0.326761
0.0502697
-0.186808
-3.46245e-06
3.10864e-06
-0.0459709
7.46671e-05
-3.55307e-07
-2.25377e-05
-0.000163082
0.00693388
-1.73715e-05
-0.12458
-0.00988693
1.05686e-07
-0.000206399
2.56985e-06
-2.87344e-07
0.0164553
-0.351524
7.91201e-06
-0.719871
-0.0901396
-1.60602e-05
0.559738
8.64211e-06
-0.100014
1.13634e-06
2.47805e-06
0.322623
-0.911731
-9.60586e-06
-0.243066
-0.00104299
-0.0144608
-8.60423e-05
-0.000188391
-0.153518
0.0013621
0.462335
-0.469126
8.52868e-05
-0.068086
0.00162926
-0.625472
0.336259
0.000311415
-0.504326
-4.60521e-05
1.38289e-05
3.60963e-07
-0.0136388
0.0358561
4.02138e-05
1.26307
-0.125961
0.0035274
0.425148
-2.01288e-06
-0.103889
-1.939e-05
0.0268477
-0.000130617
3.69089e-06
0.00305588
-0.111712
4.00522
-0.000619724
0.020213
-0.663615
0.000274377
0.0186047
-0.968667
4.36032
-0.46329
-0.0870295
-0.0318987
-0.0186221
6.41179e-06
1.74616e-05
-0.894579
-0.14516
1.50365e-05
-0.170582
-0.554284
-0.0110076
0.793353
0.143697
-0.423665
-0.56542
-0.000124373
-0.130879
6.35947e-05
0.0371104
-0.0861336
0.239792
-0.87299
-0.0304625
0.556162
0.0369965
0.00135888
1.87519e-05
1.14567e-05
-0.00191858
7.16296e-07
-2.98367e-06
0.551411
0.962814
0.0151721
1.89196e-06
-2.71011
-0.0858411
-0.0279468
0.230035
0.000808006
0.0672909
0.616741
4.55676e-06
-0.219635
-0.132341
-1.01016e-05
3.25822e-06
-0.131987
-3.91602e-06
-0.844943
-0.000241976
-4.62003e-06
2.76962e-05
-0.260689
-0.96275
0.006093
-0.796759
7.81911
-0.0794577
-0.271701
1.35128e-05
0.110744
-1.49301
0.357739
-2.59854e-05
-0.0694837
-0.114007
-2.30872
3.25387e-06
-1.47045e-06
-0.513234
-1.36605
0.0225712
-0.844495
-0.628479
-0.142876
1.10528e-05
-3.11662e-06
8.23153e-06
0.0157808
0.365713
-0.000126639
-0.000105773
-0.0892343
0.0305498
-0.00785432
8.98113e-06
6.97591e-06
-6.08871e-06
-0.00477279
3.42938e-06
0.0872305
5.19223e-06
-8.27094e-06
0.549652
-0.81145
-0.384882
2.34415e-05
0.0013202
0.27398
-0.000274521
1.18087e-05
-1.4495e-06
-6.67909e-06
1.67551
3.49479e-06
4.2028e-06
-0.000257638
-1.38402e-07
-5.38749e-06
-0.0534466
-3.1974e-06
-0.0321151
-0.0476013
1.98486e-06
-1.04404e-07
-2.14359e-05
0.0277709
-0.0100099
-5.22955e-08
1.86132e-07
0.0186974
-0.416132
1.39231e-05
0.0382637
-0.000160753
2.02799
-7.57702e-05
-0.018238
3.54994e-06
-0.0946056
-0.773096
-0.11156
-6.92064e-09
2.36627
-0.00686448
-3.54692e-05
0.00400295
2.26883e-07
1.49042e-06
0.0334081
0.00145438
0.00423619
-0.000245439
7.58683e-06
-2.36583e-07
0.00690676
1.73943e-06
3.59752
-0.430403
0.000833151
-0.000251173
-8.48543e-05
-0.204641
-2.59139e-06
-1.32874e-06
-3.5355e-07
-0.00071633
0.000534742
-0.000397927
0.309655
-6.24023e-07
0.0091789
4.07866e-06
-8.40073e-05
-0.000530741
-0.00985693
1.34403e-05
-4.3553e-06
-0.0100076
-0.00160148
-8.34537e-05
4.01133
-1.67471e-05
-0.135804
-0.165273
7.87527e-07
-0.442461
0.0832283
-26.736
0.0179511
0.00109544
7.66876e-06
-1.40565
0.173337
0.000177268
-1.47419e-05
-0.000684551
3.72377
9.60746e-06
-7.05021e-06
-3.84677e-06
-7.7642e-07
-0.0640308
2.5934e-05
0.000270098
8.16748e-06
2.5335e-06
0.00877095
-0.00515774
-9.0481e-05
1.03239
0.0218248
1.17304e-05
7.11966e-05
2.5045e-05
0.00636834
3.71365e-05
-0.0114682
-8.88417e-06
-9.4289e-05
-0.447629
0.109334
1.19358e-05
1.28336e-05
-2.17528e-06
2.39818e-06
0.000190262
2.95562e-06
-6.01794e-05
0.847811
0.00841592
-0.734729
-0.0657007
8.18733e-06
1.62179e-06
0.0224604
-0.00040842
0.0567736
-1.82627e-05
-1.32562
-6.5989e-06
-1.57854e-05
-0.00177777
0.000646302
-1.41451
0.0159538
0.579632
1.03067e-07
-0.000767135
2.18758
-0.143805
-0.0872438
1.52253
2.66635e-06
-0.00258508
-0.000225808
-0.000332617
7.61357e-08
5.79064e-05
1.31327e-05
0.000305423
-0.0234255
2.37952e-06
4.99102e-06
-1.26608
-0.000369662
6.30207e-06
1.05509e-05
-0.637199
-0.102554
-2.68158e-06
0.00150088
-0.00247121
-0.0284703
0.184591
-1.30796e-06
0.000495684
7.89788e-07
-0.0202503
-0.00965012
1.92146
2.82024e-05
-0.898307
7.62761e-08
2.62368e-05
2.48472e-05
3.09696e-08
3.46384e-06
2.29628e-05
-0.0853617
0.21408
-3.20837e-08
-0.535509
0.627857
9.48734e-06
2.24507e-06
-1.02245
-0.0395441
0.00463643
-0.00897248
0.00678546
1.06263e-05
-5.69473e-05
-0.25689
-5.42554e-05
-0.0458177
-0.358591
-1.31105
-0.000132036
-0.00173025
0.00724589
0.0020573
0.000369418
0.0087003
-0.000408731
-0.906164
-7.50494e-09
1.20565
0.0012875
0.134253
1.73798e-05
0.687108
1.89327e-05
0.020591
-3.32398e-05
0.0412536
1.87349e-06
0.0815578
0.0877128
0.000101034
-0.0827499
-0.0809909
1.3334e-05
0.337859
-2.16569e-05
-0.000139095
4.00088e-05
-0.0788506
-2.42005e-05
-0.464567
0.0930691
-0.640237
-8.6023e-07
-3.48686e-06
0.000733115
-0.945669
-0.000284727
0.00522219
4.1078e-07
-0.182184
0.000370631
-0.012398
0.0724445
-2.6279e-05
-0.869293
0.000684565
0.0215114
1.50039e-06
0.000223556
0.00328587
-0.000649627
0.00619129
-1.76639e-05
2.58835e-05
0.0727678
-7.79345e-06
-7.95912
0.0341283
0.00490819
-0.55669
-0.000227314
0.994697
0.383851
-0.531533
-0.528256
0.00010844
0.183768
0.837089
-0.00217139
-6.30412e-05
9.09565e-05
-1.88451e-06
0.000900475
-0.13621
0.00264014
-0.0017429
0.0672872
-0.89892
3.13244e-06
0.00208804
-0.0573343
-0.39227
-0.0063649
2.63953e-05
-0.000108742
3.13905e-06
0.427896
-0.00182489
0.0755159
1.04055
0.00285455
0.000407655
-2.36856e-05
0.0155477
0.000185668
0.145537
0.00295012
-3.57262e-06
-0.521779
-0.000259021
0.000295951
-0.00117672
-0.118637
-0.000629636
4.06585e-06
1.48016e-05
0.000188484
0.0981032
-2.30075e-06
3.69206e-06
0.572465
0.00950296
4.14394e-06
2.17547e-06
0.0028014
0.0865928
-0.00675086
0.0159717
5.77111e-05
3.82523e-06
0.00491502
-0.0143929
-0.347248
0.0240937
-0.0597012
-1.15444e-05
3.09612e-06
-0.0131949
2.10053e-07
-4.02586e-06
-4.09198e-06
-0.000684761
-0.000366241
0.000521779
-0.413869
0.0778722
-0.104335
-0.833542
-0.0301045
1.1628e-05
0.0587157
0.0797037
0.0296481
-4.69217e-05
-2.96271e-06
0.325652
2.55182e-05
0.000556841
-2.52013
-1.43339e-05
2.45224e-06
0.171403
0.0011755
-0.00814941
-3.78396e-05
3.58439e-06
0.525188
0.00505739
-1.75102e-05
4.10232e-06
1.58934e-06
-0.694588
0.024594
0.0040725
1.10422e-05
1.49464e-07
-0.683024
-0.199463
0.000374345
2.34353e-06
-0.00016892
0.000121166
0.00381233
-0.0178762
-0.20544
3.79859e-07
8.05855e-06
-0.884693
0.00397228
0.000503054
0.0106775
0.000194185
9.09304e-05
-0.225219
-1.3961e-05
0.0740329
0.624293
4.96386e-06
8.55528e-06
-2.22409e-06
1.41994
-4.61831e-06
-0.0950599
-0.121888
0.308718
-5.46564e-09
0.0249748
-0.276746
3.37353e-06
-0.691251
3.66503
-0.488921
1.00011e-05
2.79163e-05
-0.000431833
-4.34974e-05
0.00930304
-0.0100715
2.02736
1.16872e-05
3.08641e-05
-0.713603
-0.576823
0.00132011
1.23022e-06
0.00343645
-1.56939e-07
1.60015
0.00159086
-1.07545
0.00593456
0.00120704
-1.38312e-08
3.00448
1.65297
-1.85283e-05
2.50677
0.0744467
3.26514
0.000657739
8.34052e-06
-0.326161
0.149673
-0.00711595
-0.641033
-0.00182067
-0.0262354
-0.00114417
-0.00137964
-5.1693e-06
6.59384e-06
-0.000448811
-0.0738769
0.080613
0.0628441
9.531e-05
0.588202
4.06967e-07
-0.179587
-2.64665e-06
-0.121119
0.364483
-7.57418e-07
0.00157148
-1.05441e-05
-8.90083e-06
1.49641e-06
-0.715157
0.0197755
1.57965e-05
-0.135525
-3.61985e-06
0.00106199
-0.191355
4.05723
0.000702338
-0.00740879
-6.70725
-0.159047
-0.584853
-1.91539e-05
4.65453e-05
3.37811e-06
1.96859e-06
8.80987e-07
-1.04428
1.68254e-06
-5.89415e-05
2.49712e-06
-0.00273058
-0.000679852
0.0036337
-0.00136047
3.6754e-07
-0.0146531
1.22338e-05
-0.0011911
-0.000456231
0.378881
2.74074e-06
-0.000153359
0.000316569
-0.000164649
-0.20765
-0.00013026
-7.73987e-06
1.43406e-05
0.116084
-4.46749e-06
-2.01065e-05
-1.02666
0.069545
1.70376
0.000458985
-0.046042
-0.162829
-0.000224149
9.91791e-05
0.0652887
2.83473e-06
1.20616e-05
-1.7865e-07
0.0868874
-0.563213
3.14886e-05
0.00201807
-2.38792
0.0043221
-6.75196e-06
0.000327249
-0.954149
4.61879e-06
0.190441
5.42314e-09
-0.0016128
0.512981
0.00216007
0.435769
-0.00901715
0.00321976
0.00900401
1.79582e-05
-0.000551148
0.00727289
-1.58451e-05
0.299866
-3.43825
0.00016363
2.19698e-07
0.00328962
-0.000914934
-0.372872
-0.255463
-0.406625
-2.22285e-05
-1.79741e-05
-0.382784
6.70325e-06
-0.0100815
0.00283133
-1.37113
0.0516127
-0.000684521
0.00119193
0.0253362
0.209155
-0.00667119
-0.0979696
7.56705e-05
0.00194463
-0.000136715
-0.139053
0.000524452
-0.881122
0.02057
-3.45063e-05
-0.0743627
-0.000303595
-4.55158e-07
-0.00057417
-0.00032637
0.511541
1.61404e-05
-1.54702e-06
3.56976e-06
0.698119
3.94677e-06
-0.281994
-0.197933
-1.16071e-05
5.20436e-06
-0.271068
-6.55941e-05
-0.946072
-0.787211
-0.61126
0.0344989
-0.260839
0.16769
2.48917e-05
-1.32486e-05
0.0172269
-2.61529e-06
-0.811695
2.04875e-05
0.0133477
0.00133472
0.0119466
-0.740221
0.00639802
2.27967e-05
-2.06974e-05
0.0517078
0.14581
0.0359223
-0.915038
0.000894735
-0.189743
-1.08731e-06
-0.16044
13.4386
0.105567
0.0746469
-0.0997563
4.14517
-0.565272
-6.34054e-05
0.0190145
-0.000492931
-1.65454e-05
-0.00143591
-3.61058e-06
7.41121e-05
-0.982492
-1.66917e-05
0.272082
0.37518
-0.350809
-0.152599
-0.00122528
-0.000736198
0.000662315
7.73094e-07
-0.44396
0.201517
0.113678
1.02687e-06
-0.734535
0.116714
0.00114598
-4.1874
0.00546936
1.02873e-06
-0.000229671
47.9277
-1.17685
-4.33127e-05
-8.07229e-07
0.0062951
-1.12605e-06
-0.67064
0.107002
-0.000239844
1.07454e-05
0.309447
-4.56619e-06
-4.86367e-05
0.00097498
0.97559
0.0520152
0.0175226
0.000532447
0.00377366
0.0143415
-0.00021472
-0.18598
-0.0177553
-0.0310615
-0.00961006
-0.975436
0.0012556
-0.622539
4.01142
0.000384862
-0.000327452
-0.901543
-1.05406
-0.430135
0.0104094
2.5019e-05
0.000105141
0.00118356
-8.77274e-06
-0.00257931
-0.0676709
-0.728174
-0.00016191
3.16926e-05
1.24781e-05
7.79991e-05
-0.51386
-1.34863
-4.43886e-06
-0.589729
-0.167065
-0.931773
0.00242583
-0.438622
-0.000345198
-5.65691e-06
-0.694211
-1.12721e-06
3.30281e-05
-0.000256234
0.0973552
0.0134795
2.98965e-05
0.0240139
0.0987412
-7.87522e-07
-0.00273908
0.000357436
5.89699e-05
0.0779072
-0.250292
1.35817e-05
-0.745263
0.348579
-1.16601e-07
-0.309718
-0.619597
-0.0506061
-0.000246799
-0.000209136
0.343117
0.000141145
2.54822e-06
4.40145e-06
0.00930704
0.0145749
-0.116703
1.03948
-2.36922e-05
-0.000302232
-1.10385
0.227909
-2.38719
-3.05475e-06
0.0249752
9.23038e-07
-0.11179
-0.0549486
1.36975
-0.000281809
-2.80036e-09
4.37661e-06
9.0712e-07
0.230515
-0.000222645
1.12418e-05
4.77135
2.8344e-07
-2.39621e-06
-0.000503856
0.279518
-0.776669
0.186781
-4.18845e-07
-0.893714
3.44264e-06
-4.08832e-08
0.0373772
0.634601
-0.518015
0.15748
0.000633869
-0.0983229
-0.0338955
1.76291e-06
0.0210998
-2.57753e-06
-6.48981e-06
3.05598e-06
9.5489e-06
-1.66254e-05
-2.44589e-06
-0.00113465
0.640753
-3.34219e-05
-1.73477e-05
-7.61588e-07
0.000523186
-0.0376585
5.136e-06
2.25756e-06
1.04725e-05
0.725689
4.16408e-07
-2.29582e-05
0.000409137
5.15726e-07
-0.477311
-2.14082e-05
-1.10921
0.10919
-0.00112662
0.194706
-6.07765e-06
-0.027884
-0.55451
4.27386e-06
-1.04119
0.083128
-0.00675171
3.24323e-05
5.09334e-06
-0.29176
0.428068
-0.00356931
4.22329e-06
-7.49696e-05
-0.108656
-5.10277e-05
0.687206
-5.12604e-06
-4.91806e-05
-5.45291e-05
-0.0139772
0.000132651
1.60912e-06
9.23892e-06
0.0128214
0.0140919
0.0123682
0.0110817
-0.814559
-2.4386e-05
-0.898266
3.96515e-06
0.00214304
-0.131859
0.00626696
0.0790244
-0.750417
-0.000320016
-0.00026481
5.71025e-06
6.75434
-0.975044
0.000341926
0.272816
-0.864076
-2.75962e-06
2.03106e-05
0.110353
-0.296767
-0.0824094
0.00395989
3.08213e-05
3.91616
-7.16796e-08
3.02845e-06
0.000223512
-0.000249992
1.73404e-05
0.00018021
-1.18405e-06
1.24643e-07
0.0003472
4.94731e-06
-0.154032
-2.9138e-05
-0.00318891
9.79896e-06
8.61855e-06
-0.936884
-0.00214384
-0.962066
0.000487622
-0.0025348
0.00975167
-4.12263e-05
-1.31483e-06
0.00169042
0.0231765
0.0191175
1.05958
-0.18143
0.112722
-7.27174
-7.48147e-05
-0.139515
1.10999e-05
9.75566e-07
0.511382
0.00092615
-0.729171
4.68704e-07
1.66779
0.703528
-0.00324698
-1.38177
-0.0015718
0.94899
-2.83428e-06
2.61839e-06
2.24924e-06
-1.04176
0.0143295
0.00675599
5.6156e-06
0.000266979
1.35771e-05
-4.18812e-05
-0.0199778
0.208476
6.32171e-05
0.351307
2.49787e-06
-0.000839212
0.127783
0.173521
6.61389e-06
-0.00707351
6.18338e-07
-0.0672128
-0.496985
-0.0033865
-0.00598155
-0.000147201
0.0400859
-1.7628
-0.0419707
-0.000408476
-0.000222226
-7.65744e-05
-0.00125772
0.00158853
1.26307
-0.00227629
0.0114823
2.64534e-06
7.02007e-05
0.00481756
5.91061e-06
2.40619e-06
-0.00350952
0.0137152
3.52386e-06
-0.016289
0.00273607
3.53148
0.0762446
0.13602
-0.010486
0.0132149
-6.1827e-06
7.03371
3.81583e-06
7.22263e-07
-1.67362e-06
-2.81535e-05
0.00302336
-0.00167136
-1.27824e-05
0.0393995
0.00205877
-0.217334
-0.633605
0.0291055
0.0174369
1.52597e-05
-0.082601
0.054278
-0.000242157
1.71912e-05
0.0734145
-0.907765
-1.11349e-05
8.43055e-05
-0.451357
0.00367978
-0.000191491
0.105218
-1.92807
7.6083e-06
-5.85879e-06
-0.613998
-0.871651
-0.30272
-0.00137742
4.14073e-06
-0.713372
9.16213e-06
8.32728e-06
-1.04641e-05
-0.000153704
-0.00233918
2.87126e-05
-0.632578
0.000213357
0.0222685
-1.10776e-06
-5.1068e-06
2.09194e-05
-0.102538
9.60504e-05
0.0155669
1.55024e-05
-0.0144521
0.433723
-0.156563
1.1537e-05
-0.000270344
-0.087958
-3.00758e-05
-0.0212049
0.472754
0.0432701
0.000109589
2.94684e-06
-2.8664e-05
1.08632e-05
-9.48658e-05
0.0882548
-0.283208
0.00117472
1.23399
5.12818e-05
-0.0888297
1.96801e-06
-1.19275e-05
-0.298282
-1.10376
2.18027e-06
0.00059091
-0.0957711
-9.40243e-06
-0.819576
0.00022631
-0.950213
-7.09193e-07
0.2501
-2.43506
0.00059637
-7.47244
-0.180587
-1.14374
-0.308323
0.00383722
0.118137
1.06664
2.63656e-05
1.62053e-06
-2.21888e-05
0.302788
5.72652e-06
-0.000186737
2.46746e-06
0.0170234
2.18697e-06
2.9957e-06
-0.17107
3.37184
-0.00243646
-0.844816
-0.417299
1.78501e-08
-0.164174
0.305322
0.00126417
1.90107e-06
-3.10425e-06
-0.000809348
-0.575041
-0.4391
0.0413726
-1.93407e-05
0.066441
-0.0833074
-0.164343
-0.484434
8.98538e-06
-0.00607495
-3.94861e-06
-6.8039e-06
-0.583632
-0.151065
-0.00716608
1.90811e-05
-3.71933e-07
0.00488014
0.54007
0.245544
0.597352
-7.2151e-06
1.82406
7.47917e-06
0.268241
-1.04464
3.18265
9.08297e-06
1.01476e-05
4.5027
2.0102e-06
-0.0470062
-1.91393e-05
-0.197516
-3.56835e-05
0.00369119
-0.360637
-0.000109647
-0.820834
0.000872394
-0.0575384
3.78262e-06
0.203188
9.8234e-06
-0.145067
0.369861
-1.00382
-0.0390563
-3.54844e-05
-0.0042498
0.196711
0.00155485
0.0132349
-0.529246
0.00124454
1.88757e-06
-0.0748406
-8.0374e-06
0.000244843
-0.221757
-8.57569e-08
-9.55706e-07
-1.11739
-0.0949566
0.247878
1.07038e-05
0.875917
4.13097e-06
0.000542293
0.214956
0.000575869
-5.61284e-05
-0.059208
0.885432
-0.470226
-0.922156
1.11342e-05
0.107838
-0.130724
0.369683
0.00317122
0.0245023
0.275598
-1.02898
-0.0172472
-1.53208e-06
-2.57655e-05
0.000949743
-2.92323e-05
1.40212e-06
-0.000412856
-2.68139e-05
-0.329106
-0.253436
0.00787127
1.69463e-06
-0.000310325
0.000174709
8.99463e-06
-1.79934
-0.048332
1.02688
-0.11898
1.00952e-05
5.67994e-06
-0.00938163
5.46956e-05
0.952424
-1.70076e-05
6.53893
-0.130498
-0.467861
0.0048753
-1.3899e-05
-0.00202199
0.126473
0.0170498
1.24996e-05
-0.256782
-1.9765e-08
6.15846e-05
0.00291694
-0.000445477
2.98256
0.178754
0.000726069
-0.46632
-0.294887
0.00157878
-0.178867
0.0770146
0.0284095
-0.0433139
2.41271e-06
0.0712939
-0.931581
-4.83476e-05
0.246309
0.0110028
0.00408262
0.011518
-0.000148444
0.0117782
-4.94286e-05
6.90774e-06
-8.28388e-06
-0.00225425
-0.235525
-0.891627
2.06861e-06
-0.495571
0.00387886
0.0114518
0.0620342
1.22292
4.35775e-06
-0.18919
-0.119232
-2.86861e-05
-0.0199851
7.95547e-07
-0.000482858
-8.16969e-05
0.00252199
-0.961344
-0.00105132
-0.213335
-7.07143e-06
-2.70793e-06
0.0482906
0.0282377
0.567174
4.27338e-06
-1.03819e-05
0.417968
-0.881251
-1.03136
0.349189
0.196302
-0.370343
0.0197802
-0.000118411
0.328257
4.18806e-06
0.642132
-0.178751
-1.09106
0.29566
0.598544
2.10812e-06