/*--------------------------------*- C++ -*----------------------------------*\
| =========                 |                                                 |
| \\      /  F ield         | OpenFOAM: The Open Source CFD Toolbox           |
|  \\    /   O peration     | Version:  v2012                                 |
|   \\  /    A nd           | Website:  www.openfoam.com                      |
|    \\/     M anipulation  |                                                 |
\*---------------------------------------------------------------------------*/
FoamFile
{
    version     2.0;
    format      ascii;
    class       surfaceScalarField;
    location    "400";
    object      ddtCorrDdt0(phi);
}
// * * * * * * * * * * * * * * * * * * * * * * * * * * * * * * * * * * * * * //

dimensions      [0 3 -2 0 0 0 0];
oriented        oriented;


internalField   nonuniform List<scalar> 
27740
(
-0.000860428
0.000431018
0.000429361
-0.000857857
0.00112452
-0.00026663
0.000495878
-0.000752133
0.000256268
-0.000852261
0.000955172
-0.000102928
-0.000618583
0.000208783
0.000409779
-0.000991848
0.000365549
0.000626325
0.0109148
-0.00490084
-0.00601384
0.00149207
-0.000313979
-0.00117813
-0.000166962
-0.000507508
0.000674463
-0.00134967
-0.000725477
0.00207514
0.00467345
-0.00482743
0.000154
-1.31523e-05
0.00275792
-0.00274476
-0.00812183
0.000221264
0.00790055
-0.000366239
0.000862125
0.000176835
-0.000316568
0.000139737
0.0012227
0.000472499
-0.00169519
8.98406e-06
2.232e-05
-3.12982e-05
0.00167261
-0.000449917
0.00383435
0.00375419
-0.00758849
-0.00353757
0.00296734
0.000570226
0.000304408
-0.000217641
-8.67499e-05
0.000466179
-0.00067317
0.000206964
0.00349255
-0.00147997
-0.00201257
0.00189438
0.00203342
-0.0039278
-0.000170407
0.000141064
2.9342e-05
-0.00234302
-0.00119454
0.000397532
-4.2665e-05
-0.000354848
0.00286307
-0.00287621
-0.00646989
0.00229505
0.00417486
0.000241897
-6.50953e-05
-0.000176778
0.00078404
-0.000376795
-0.000407253
0.00320717
-0.00513828
0.0019312
3.42907e-05
-0.000160389
0.000126099
5.28407e-05
0.000703389
-0.000756247
-0.000548957
-0.000191183
0.000740215
-0.00499808
0.00219071
0.00280734
0.000161066
0.00128393
-0.00144496
-0.00038476
7.35441e-05
0.000311243
0.000216705
-4.57125e-06
-0.000212102
0.00454728
-0.0030552
0.00111628
-0.00128324
-0.00163634
0.00353068
0.000753079
-0.000230142
-0.000522942
-0.000562362
-0.000128841
0.000691214
-0.00107868
0.000220835
0.000239956
1.90403e-06
0.000192731
-0.000863623
0.000670884
1.57869e-05
-0.000868054
0.00809178
-0.00656075
-0.00153105
-9.0093e-05
-0.000114257
0.000204375
-0.0277465
0.0120542
0.0156922
0.00124277
-0.00136207
0.000119289
-0.005134
0.00415914
0.000974856
-0.00335835
-0.00664358
0.0100019
0.000187085
-0.000152798
0.00132674
0.00676507
-0.0044607
0.00466158
-0.000200897
0.000561196
-0.0013269
0.000765703
0.000466779
-0.000594274
0.000127507
-0.00124415
-0.000105523
-0.000443127
-0.000417304
0.000141219
0.00016951
-0.00031078
5.30102e-06
0.000747782
-0.000133899
0.000914518
-0.000780653
-0.000526301
0.000141521
-0.000963838
0.000829952
0.000322276
0.00021048
-0.000532759
-0.00519314
0.00459786
0.000595303
-0.00068149
0.00103892
-0.000357447
-0.000968979
-0.00300117
0.00397019
-0.00249346
0.0022799
0.000213578
0.000133784
0.000130218
-0.000264043
-0.00653777
0.0021638
0.00437397
0.00121982
-0.000471865
-0.000747974
-0.00100673
6.12969e-05
0.00094543
-5.59063e-05
0.000360319
-0.00127279
0.00284769
-0.00157488
0.000489964
0.00151867
-0.00200867
-1.202e-05
0.00123184
-0.00980405
0.0072388
0.00256522
-1.15515e-05
2.05309e-05
0.000947951
-0.000755214
0.000897212
-0.00113806
0.000240841
-0.00321512
-0.00191889
0.00189137
-0.003474
0.00158262
1.77867e-05
0.000198932
0.000444671
1.7027e-05
-0.000461672
1.88189e-07
0.00124258
-0.0020769
0.00105452
0.00102239
-0.00121981
0.0010491
0.000170696
0.0017112
-0.000740067
-0.000971136
0.0010348
-0.000645472
-0.000389314
0.000464468
-0.000757467
0.000292995
-0.00372726
0.00462312
-0.000895857
0.000494683
-2.84905e-05
0.0051214
-0.000447905
0.000552592
0.000435505
-0.000988116
0.00297414
-0.00209754
-0.000876602
0.00114411
-0.00103882
-0.000105308
-0.000188283
0.000585783
0.00240618
0.00108635
-0.000155598
0.00032062
-0.000164972
-3.00125e-05
4.36185e-05
-1.35908e-05
-0.0120982
-0.0156483
0.0011034
4.07071e-05
0.000202023
-0.00156409
-0.000372836
2.86411e-05
0.000344264
0.000614726
-0.000285899
-0.000328835
0.000195638
-0.00035122
0.00102438
-0.00138001
0.000355637
-0.00309524
-0.00190285
0.0021557
-0.00503838
0.00288267
4.12779e-05
0.000423185
-0.00110994
0.000587996
0.000521958
-0.00480203
0.00426729
0.000534736
0.000552774
0.000220169
-0.000772939
3.17746e-05
0.000155296
-0.00318354
-0.00293703
0.00612051
-0.000522634
-3.9712e-05
0.000281324
-0.000347238
6.58924e-05
0.0003479
0.00011888
-2.60439e-05
-0.00013067
0.000156703
-0.0033306
0.000297679
-0.00016393
0.00330152
-0.000751206
-0.00255036
-0.000146798
-2.36072e-05
4.09469e-05
-4.09301e-05
-0.00174797
-0.00258706
0.00433509
-7.56341e-05
4.95922e-05
0.00294931
-0.00613285
0.000108278
0.000216958
-0.000325232
0.00104776
-0.000150564
0.000277552
-6.75163e-06
-0.000270837
-0.000269132
-0.000325127
-0.000441861
0.000602925
0.000261805
-0.000201794
-6.00372e-05
-8.66024e-05
0.000128077
-4.14984e-05
-0.00477448
0.000313768
0.000341729
0.00136946
-0.000562451
0.00105241
0.00399768
0.00935875
-0.0133564
0.000272006
0.000154658
-0.000426672
-1.28781e-07
0.000105102
-0.000104991
0.000240257
-0.000119514
-0.000120767
-0.000623089
-0.000307129
0.00093025
0.00220731
-0.00373583
0.00152848
0.000107492
-0.000107621
0.000276205
-2.23516e-05
-0.000253841
-0.00337679
-4.46483e-05
0.0034214
0.000421908
7.7705e-05
0.0041157
-0.00419339
-0.000208542
5.1312e-05
0.000157243
3.41866e-05
0.000802252
-0.000836452
-0.000257994
-0.000267442
0.00052542
-0.000546336
0.000512641
3.36751e-05
9.18763e-05
0.000148377
0.00144911
0.000365856
-0.00181498
-0.0035618
-0.00624224
0.000156309
-0.000108529
-4.77838e-05
1.15909e-05
0.000186981
-0.000198579
0.000717299
-0.000377899
-0.000339384
0.000697359
0.00246271
-0.00316007
0.00060067
-0.0002528
-0.000564655
0.000306666
0.00312697
0.00017452
-0.00125833
-0.00354373
9.18043e-05
-0.000464641
0.000302351
-0.000272147
-3.02179e-05
-0.000127083
-0.000419266
-0.00065241
0.00120519
0.000378131
-0.000269863
-0.00209586
0.00237451
-0.000278594
-0.0015461
0.00210731
-0.000259883
-0.00035873
-0.000568653
0.000264896
0.000303768
-0.00888738
0.0075799
0.00130748
-0.000112721
-0.00326406
0.00101325
-0.000738068
-0.000275176
3.79339e-05
0.00011838
0.00337852
-0.00434749
-0.000470484
0.00397728
-0.00350675
6.39011e-05
9.37949e-05
-0.000157701
-3.1188e-05
3.54973e-05
-4.31597e-06
0.00345573
-0.000840268
0.00134113
-0.000500855
0.00302087
-0.000725745
-0.00229515
-0.000609463
-1.36246e-05
0.000259841
1.21732e-05
0.000379587
0.000562826
-0.000942412
-0.000150203
-0.00247767
0.00262783
-0.00154024
-0.00448409
0.0060244
-0.000643073
0.000217744
0.000425306
0.000225483
-4.20851e-05
-0.000183398
0.000589472
-0.000552064
-3.74187e-05
2.9328e-05
-4.88943e-05
1.95651e-05
0.00042166
-0.000226459
-0.000195228
-0.000560671
0.00100536
-0.00598513
0.00239928
0.00358592
0.000295395
-0.00130211
-2.03629e-05
-1.08308e-05
-0.0001407
0.000416885
-0.00058665
-0.00154285
0.00212949
-0.00425647
-0.000936645
-0.000789884
-0.000802981
0.0015929
-0.00106222
-0.00101466
0.00179092
-0.00131846
-0.000472392
0.000617527
0.00522207
-0.00583961
-0.000495346
-0.000368281
0.00035503
0.000259692
0.00091162
6.53958e-05
-0.000977025
0.000607015
-0.000658025
5.1009e-05
0.00101188
-0.000965073
-4.6846e-05
-0.000538503
0.000454217
8.42956e-05
9.14494e-05
0.000134011
-0.00100964
-3.17597e-05
0.00104139
-0.000352549
0.000261845
9.06688e-05
0.00109959
-0.00294019
0.00184062
0.000256541
-0.000138391
-0.000118159
0.00193008
-0.0026813
0.000630951
-0.00089865
0.000267637
-0.000318071
0.000559491
-0.000241431
0.000344385
-0.000397763
5.33597e-05
-0.000277739
0.000134659
0.000143103
0.000236625
-0.00233246
-0.00288618
-0.000694378
0.00358053
0.00422742
0.00294352
-0.00717094
-0.000187697
-0.000164873
0.00055525
7.56868e-05
0.00453542
-0.00276423
-0.0017712
-0.00486849
-0.00401883
0.000599428
0.000490097
-0.00108952
-0.00026927
0.000230735
3.85516e-05
-0.0033329
6.17183e-05
0.00327123
-0.000237205
0.00162056
-0.00138335
-0.000925516
0.00389286
0.00404552
-0.00179631
-0.00224921
-0.000754629
0.00220377
-0.00106406
0.00211717
-0.00105314
3.50962e-05
0.000242455
0.00130265
-0.000920872
-0.000381732
2.57772e-05
-3.04892e-05
4.71192e-06
-0.00282395
0.00363353
-0.000809588
-0.000945037
0.00154446
-8.79098e-05
0.00015181
-8.55584e-05
-0.000543617
0.000393439
-0.00224158
-0.000646631
0.00288822
-0.000432256
0.000443823
0.000579738
-0.000687988
0.000108249
5.57422e-05
-0.00604086
-0.00311636
0.0031812
-6.49453e-05
0.00805767
0.00285708
0.000930287
0.0020906
0.000254806
-0.000803759
0.000261865
-0.00110214
0.00163032
-0.000454884
-0.00117541
0.00037535
-3.09477e-05
0.000121863
0.000485139
0.000918059
-0.000330151
-0.000756599
-0.000623437
7.72386e-05
0.000112053
-0.000189247
0.00195252
0.000203172
0.000959123
-4.7506e-05
-0.000525208
0.000350584
0.000174524
5.02405e-05
-2.09052e-05
0.000800456
0.0001475
-0.00925393
0.00110482
0.00814909
5.4036e-05
0.000367625
-0.0063648
0.00982062
-6.99885e-05
5.21576e-05
1.78196e-05
-0.0010523
0.00325959
0.00499263
0.00396192
-0.00895458
0.0013203
0.000417503
0.00016228
0.000836667
0.00299767
0.000551226
3.82548e-05
3.29042e-05
1.73317e-05
0.0001964
-0.00831826
0.00767703
-0.00344955
-0.00115853
0.00308859
-0.000460693
-0.000148751
0.000247255
9.28835e-06
-0.000739254
0.000773426
-0.00164765
0.00116937
0.000478268
0.0106246
-0.0117978
0.0011732
-0.00316943
-0.000163453
-0.000382985
-0.000296955
0.000679937
0.00198791
-0.0032607
2.35683e-05
0.000319718
-0.000343291
-0.000180816
5.81352e-05
0.000122676
-0.000462462
0.000144397
-0.00280826
-0.000308088
-0.00864203
0.00410237
0.00453973
-0.000788821
0.000353544
0.00466964
-0.00732013
0.0026505
0.00156092
-0.0012842
-0.000276751
-0.00551996
0.00559766
-0.00456848
-0.00190141
-2.67034e-05
-2.21891e-05
-0.0020195
-0.00723431
0.000107927
-1.80186e-05
-8.99119e-05
-0.000588154
0.000640998
-0.000240093
0.00079264
0.000251485
-0.00015963
-2.19309e-05
0.000303248
-0.000670305
-0.000393767
0.00028537
0.00155923
-0.000724587
-0.000834656
-0.000720682
0.00283787
0.000998776
-0.00338595
0.00104293
-0.000715917
-0.00052823
-0.00319439
0.00458321
-0.00138892
0.000285229
-0.00010839
-0.00065042
-0.000234177
-0.00090405
0.000341167
0.000562874
-1.03336e-06
-1.16986e-06
2.20312e-06
3.81253e-05
0.000573564
-0.0014416
0.000868063
-0.000258769
-0.000328269
0.000587113
0.000414721
0.00030258
0.000453381
0.00066291
-1.37823e-05
4.79768e-06
8.98188e-06
9.31075e-05
0.000158367
0.000237198
0.000124686
-0.000361879
-1.12899e-05
-0.000449374
-0.000618792
0.00103765
-0.000418852
-0.00369458
0.00508674
-0.00139217
0.00132987
0.000461084
0.000819883
-0.000655351
-0.00016453
0.000250622
5.1699e-05
-4.95379e-05
-0.000442273
0.000491809
-0.00058144
0.000862557
-0.00028111
0.000140295
-0.000105751
-3.45492e-05
5.12013e-05
-0.000354153
0.000302906
0.0116335
-0.0064343
-0.00519916
0.0035868
0.000197473
-0.0037843
0.00724888
0.00827132
-0.0155202
0.000332653
-0.00112251
0.00365141
-0.00295406
3.17701e-05
-0.00146338
0.000587139
0.000876237
-0.000614141
0.000921554
-0.000221467
-0.000700085
0.000259248
-0.000177746
-8.14793e-05
0.000159623
-0.000105577
2.19667e-05
3.81128e-06
-0.00118094
0.000511761
0.000669188
0.000802714
-0.00103992
-0.000268071
0.000341921
-7.38659e-05
0.00729209
2.1603e-05
-0.00731365
-0.000216567
-5.15095e-05
-5.64472e-05
0.000293643
0.000790004
-0.00050036
-0.000289674
-0.00283418
0.00421026
-0.00137606
-0.000509493
-0.000394552
0.00194941
0.00118542
-0.00313483
0.000391551
0.00365397
0.00105997
-0.00221851
0.00467834
0.00370805
-0.00838641
0.000659714
0.000261846
-0.00353318
0.00821155
-0.000263853
4.72714e-05
-0.00190242
0.000944309
0.000958103
0.00624446
-0.00943887
-0.000972587
0.000256646
0.000898461
-0.000827097
-7.13522e-05
0.00426577
-0.000679045
0.000479275
0.000304753
-8.59794e-05
-0.000557104
0.000160165
-5.50783e-05
8.15083e-05
-0.000483897
0.000402426
0.00287751
-0.00356786
0.000690295
-0.000910503
0.00029174
-0.00381169
0.000963554
-0.000771343
-0.00019223
-0.00274062
0.00463536
-0.00189474
-0.00205174
0.00246509
-0.000413368
0.0012527
-0.000374947
-0.000877748
2.78344e-05
1.31253e-05
-0.00120968
0.000640706
0.000568979
-0.000245077
0.000243564
1.51932e-06
0.0014332
-0.00297344
4.70587e-07
-9.58263e-07
4.86204e-07
0.000157993
-0.000366522
-0.000384547
-0.000243563
0.000628151
-0.00421089
-0.0044312
0.000345075
-3.18955e-07
-0.000344752
-9.01478e-05
0.000170038
-7.98625e-05
0.000493355
-0.00325343
0.00276009
0.0022899
-0.00141892
-0.000871007
-0.000335091
0.000451861
-0.000116778
-0.0208456
0.0197935
0.00105206
0.000935364
-0.00027792
-0.000657448
0.000992103
-9.36151e-05
0.00297858
0.00296281
-0.00594142
-0.000431388
0.000115572
0.000315811
0.000131064
0.000188649
-0.00867676
0.00721103
0.00146577
0.00288413
-6.65014e-06
-0.000334172
0.000208302
0.000125901
0.000233251
-0.000348388
0.000115152
0.000198532
-0.000248071
0.0027476
-0.00348318
0.000735573
0.00347659
0.00815694
0.000185794
-0.000324185
-0.00319073
-0.00259684
0.00578757
-7.3495e-05
0.00012444
-5.09449e-05
-0.00039734
-9.88038e-05
0.000496137
0.00475775
0.00368226
-0.00844006
-3.57196e-05
0.000257624
-0.000221924
-0.00568817
0.0019936
-0.000664708
0.000233318
-0.00388462
0.00247993
0.00140469
0.000147595
-0.00219934
0.00751338
0.001747
0.00583289
-0.000172451
-0.000100941
0.000273413
0.000173374
4.58267e-05
-0.00021921
3.61713e-05
-0.000300036
-0.006957
0.00715346
-0.00206692
0.00130624
0.000760667
-0.00194119
0.000594498
0.00134673
0.00728515
0.000634221
-0.0079194
7.04584e-05
8.97156e-05
1.97946e-05
-0.000353873
0.000845252
0.000457441
-0.00079696
0.00214855
-0.00135161
-0.000601261
-0.000862135
-2.71293e-05
-0.000660821
0.00044743
-0.000102356
8.53582e-05
0.000413683
-0.000499027
-5.10244e-05
3.2263e-05
1.87544e-05
0.00538415
-0.00243483
-0.00705783
0.00707951
0.000324681
-0.000151302
-0.000551793
0.000174994
0.0003127
0.000722107
-0.000612994
0.000228453
-0.000545978
-5.93059e-06
0.000551889
0.000984433
-0.00206096
0.00107654
-0.00028707
0.000196954
-4.09436e-06
-6.94061e-05
-0.00119625
0.00225619
0.00222682
-0.00397479
-4.21781e-05
0.000171052
-0.00012888
0.000609654
-0.000435723
-0.000173928
0.00385342
-0.00137448
-0.00247894
6.34319e-05
-0.000274401
0.000210949
0.00158994
0.000169505
-0.00175945
7.99325e-05
-3.59767e-05
3.59732e-05
-0.000297407
0.0025873
0.000828926
-0.00209672
0.00126781
-0.000722441
-0.000248234
0.000970676
0.00655526
-0.00991363
5.82087e-05
0.000905332
0.000421452
-0.000373638
-4.78232e-05
-0.000949981
0.000442473
-0.000609688
0.000695031
-0.000316566
0.00116778
-0.000851218
0.000346718
0.000905978
0.000269408
-0.000314072
4.46679e-05
-0.00172952
8.18832e-05
-0.00842406
0.0014422
0.00698178
-0.000127722
-5.30848e-05
0.000586267
-0.000507709
-7.85535e-05
-0.000146524
-0.000399468
5.41715e-05
-5.23789e-05
-1.80434e-06
3.17297e-05
0.000127907
0.000250721
-0.00720778
0.000199477
-4.80407e-05
-0.000151433
0.000617995
0.000437808
-0.0010558
-0.000221443
-0.000349332
0.000570757
-0.000896649
0.000334317
0.000562316
-0.000633159
0.000337646
0.000295516
-0.00106351
0.00101079
5.27126e-05
0.000722349
0.000213042
-6.514e-05
-5.67823e-05
0.000121948
-0.00361948
0.000219878
0.00339951
-4.75096e-05
-0.000349817
0.00237682
-0.0031408
0.000764043
0.000718021
-0.000303293
-0.000820991
0.000780563
4.04206e-05
0.000550535
-0.000679383
-0.000130555
6.54148e-05
-0.0082838
0.0078485
0.000435338
0.00124456
-0.000601003
-0.000643541
0.0111105
-0.0065342
-0.0045762
0.00157644
-0.00118645
-0.00038993
-0.00110684
0.00189679
-0.000789884
-0.00162714
0.000755485
0.000871661
-0.000194953
-0.000868561
0.00257694
-0.00264134
6.43576e-05
-0.000719581
0.00200573
-0.000415793
0.000166371
0.000259654
-0.000426028
0.00340501
-0.000633829
-0.00277123
-0.00062853
0.00126004
-0.000631512
6.32055e-05
-0.00235626
0.00176963
0.00399802
-0.00270593
-0.00129207
-6.36605e-06
-7.4182e-06
-0.00127434
0.00186912
-0.000594795
-0.00149518
0.00154864
-5.34712e-05
0.00750658
-0.00274882
-0.000292884
-1.38192e-05
0.000306714
-0.00231982
0.00529841
6.48397e-05
-0.000365572
0.000300736
0.000635803
-0.00038907
-0.000246696
6.00361e-05
-0.000589909
0.00052987
-0.00180898
-0.000257954
-1.14643e-05
0.00244805
-0.00243657
0.000511651
-0.000770411
0.000361347
0.000248293
0.000469598
-8.70492e-05
0.0002951
-0.000208082
0.00074183
0.00223234
0.000172407
0.000100415
-0.000272869
-0.000896758
-9.50807e-05
-0.000557202
0.000514543
0.00147301
-0.000407361
-0.00106566
3.44213e-05
0.000165066
-0.0012878
-0.00520901
0.00649677
7.14454e-05
-1.98531e-05
-5.15883e-05
0.00348205
-0.00845253
0.00497046
8.83135e-05
-0.000381191
-0.000852229
-0.000774912
0.00471091
-0.0124446
0.00773371
-0.00174223
-0.00198501
-0.00174009
-0.000289094
0.00202918
0.000167356
0.000418901
0.00125927
-0.00409344
0.00096626
-0.00128282
0.00604791
-0.0033483
-0.00269954
4.85269e-05
0.000341918
-0.000389272
4.73508e-05
0.00147163
0.000905194
-0.00110048
-0.00278415
-8.08152e-05
-0.00048102
0.000561838
0.00128571
0.00361167
-0.00489738
-0.000150905
0.000530366
-0.00037947
-0.000299611
-0.000576094
0.000495284
0.00010953
-0.000105331
-4.19161e-06
8.41985e-05
-1.27546e-05
-0.000648457
0.000497576
-0.00127212
0.000196661
0.00107546
7.59049e-06
-7.75803e-05
0.000267875
-6.61902e-05
-0.000201678
-0.00107406
-0.000145743
0.000856009
-0.00116039
0.000304366
0.000378219
0.00519798
-0.000574919
-0.000178257
0.000344619
-0.000576145
-0.00337544
0.00136205
0.00201341
0.00328219
0.000715845
0.000275736
0.00042083
0.000275452
-0.000696287
0.00368676
-0.00855526
0.000588209
0.000112188
-0.000700399
-0.00242469
0.00371039
-0.000565452
0.000542306
0.000317235
-0.000859572
0.000270012
-0.000998504
0.000728475
-0.000839211
0.000340691
-0.00056213
0.00598733
-0.0013177
0.000194475
0.000132512
-0.000326987
-0.000228364
0.000569052
-0.000209581
0.000176479
3.31118e-05
-0.00692768
0.00460586
0.00232184
-0.0010735
-0.00270883
-0.00106177
0.00377059
-0.00163149
0.00299357
-0.00136207
0.000371839
-0.000230427
-0.000141389
-0.000852609
0.00360023
-0.000700799
-0.000263063
0.00396508
-0.00844914
-0.000136803
-0.0006842
-0.00102973
0.00267832
-0.00164857
0.00249682
-0.00488215
0.00238536
0.000119916
-1.19919e-05
0.00115901
0.000737809
6.32636e-05
0.000792774
-0.000947036
2.5715e-05
0.000921286
0.00053291
-0.00106596
0.000533033
0.00295666
0.00323413
-0.00619078
0.00111156
-0.00104541
-6.61275e-05
-0.000646279
-0.00212155
0.000833769
6.21066e-05
-0.00078468
0.00136596
0.000194958
-0.000208299
0.000129567
7.86793e-05
0.00360918
-0.0069472
0.00333804
5.95449e-05
-0.000295495
0.000235937
0.00337014
0.00267769
0.000769249
-0.00150932
0.0252436
-0.00676051
-0.0184832
0.000311461
0.000201187
-0.0022633
-0.00329672
0.00556003
-0.00013188
0.00160489
-0.00129106
0.000700222
0.000590834
-3.0196e-05
8.41767e-05
-5.39784e-05
0.00184389
-0.000899598
0.00264973
-0.00158067
-0.00106905
0.000298957
0.000749916
-0.0010489
-0.00018703
0.000533554
-0.000346527
-0.00148079
-0.00145325
0.00293404
-0.000945039
0.000343772
-0.00425874
0.0015499
-0.000730643
7.52872e-05
0.000655353
-0.00219396
0.00633828
0.00046056
-0.00679886
0.0012397
-0.000874141
-0.00012862
-3.17711e-05
7.6353e-05
-0.00110609
0.000761142
-5.93713e-05
-0.00070177
-0.00073629
0.000681747
5.45567e-05
2.46201e-05
0.000243249
1.18898e-05
-0.000315026
0.000303149
-0.00408302
0.0134418
-0.00322338
0.00621133
-0.00298795
-0.0011375
-5.78884e-05
0.00119538
-5.44287e-06
4.40768e-06
-0.000211357
0.000829348
-0.000182646
6.83859e-05
-0.00546983
0.00516889
0.000300877
0.000596109
-0.000165204
-4.43754e-05
0.000445768
-0.000125923
-0.000319852
-0.000537073
-0.00575554
0.00173198
0.00402359
0.000286555
0.000542939
-0.000829478
0.00161814
0.000958806
0.000179755
0.000456063
0.00271203
-0.00203419
-0.000677809
-0.000367374
6.24721e-06
0.000361119
0.000232202
1.50601e-05
0.000827948
9.01036e-05
0.00542949
0.00159434
-0.00702385
0.000295515
-0.00015432
-0.000366096
0.00115399
-0.000787885
-3.96614e-05
9.65632e-06
-0.0150124
0.0194861
-0.00447362
5.99128e-05
-5.56841e-05
-4.23388e-06
0.000971283
-0.000977276
5.98913e-06
-0.000807201
0.000560948
0.000246252
6.17592e-05
0.000758186
0.000970653
-0.00246585
-0.00154986
-0.000590047
0.00213995
-6.53946e-05
-0.0021718
0.00490818
-0.00273637
-0.00068488
0.00145412
0.000184477
-0.000189052
0.000454783
-0.00116641
0.000711635
7.27294e-05
-0.00141168
0.000125635
0.00128604
0.000322263
1.13765e-08
0.00773625
-0.00230676
0.00139207
-0.00772446
0.00633231
-4.02736e-05
-0.000202766
0.000243025
8.12179e-05
-0.00082047
-0.000543531
0.00066601
-0.000122543
-0.000246524
-0.000484122
0.000664199
-0.000652636
-1.15562e-05
-0.000934136
-0.000412075
0.00134618
0.00140055
-0.000867622
-0.000237628
0.000297164
-0.000790866
0.00222407
-0.000896608
-0.00159684
-0.000143808
-6.44991e-05
0.00630433
0.0014319
0.000269757
-0.000259893
-9.87376e-06
0.0012321
0.00134649
-0.00257859
-0.000154152
-0.000118011
0.000275601
-0.0001595
-0.000116095
1.00093e-05
0.000174473
0.00086517
4.93374e-05
-1.55088e-05
7.36396e-06
8.14559e-06
-0.000329039
-0.000239627
-0.00259372
0.00509052
-0.000271754
-0.000561417
0.00083316
0.000736336
-0.000882059
0.000145741
-0.00820963
0.000889487
0.00100134
-0.00113814
-0.000135606
0.000167371
-0.0101818
0.00753315
0.00264867
0.000371966
-0.000843837
0.000960957
-0.00418434
-0.000852136
3.20098e-05
0.000820137
-0.00137999
0.00524788
-0.00386792
-0.000337351
0.00024164
9.56807e-05
-0.000278041
-0.000667
-2.33513e-05
-7.47721e-06
3.08209e-05
0.000958372
-0.000550535
-0.000407829
-0.000212723
-0.000188012
0.00108816
-0.000900137
0.00380482
-0.00218242
-0.0016224
0.000699758
0.00308908
-0.00378882
-0.000683756
0.0006427
4.10233e-05
-0.00199322
-0.000125953
0.00148364
-0.00135759
-0.000297946
0.000211332
-0.00887769
0.00619255
0.00268515
0.000170423
-0.00121353
0.000147539
0.000389317
-0.000829123
0.000333784
-0.0079557
0.00593616
-0.00607572
0.00669325
0.00339642
0.00172495
-0.00062048
-0.00208547
0.000340762
-5.65812e-05
0.000478056
0.000329733
0.00600848
0.000235793
0.000554203
0.000210781
0.000161037
0.000715549
-7.61256e-05
-0.000639403
-0.00493648
0.00439994
0.000536542
-0.00989562
-0.000105346
0.010001
-0.000102395
-0.00183878
-0.0013761
0.00332816
-0.00195209
-8.23238e-07
-9.40574e-05
9.48871e-05
0.000260387
-0.00120746
-0.00073398
0.000117927
0.00034653
-0.000464483
4.77241e-05
5.11556e-06
-5.2843e-05
0.00131602
-0.00034238
-0.000973651
-1.81224e-05
0.00781644
0.00237461
-0.010191
0.000593344
-0.000533289
-0.00931922
0.0140302
-0.00166629
0.00104577
0.00019925
-0.000221607
-4.35557e-05
-0.000419233
0.000462774
0.0021287
-0.00214016
0.000220022
-0.000248951
2.89088e-05
0.00105807
0.000186517
0.000211097
-0.000199213
-7.9115e-05
4.89193e-05
-0.000391005
0.000425878
-3.48812e-05
-0.00725963
0.00853645
-0.00127687
-0.00601365
0.000939635
0.0050741
-0.00143998
0.00373503
0.00781044
8.36568e-05
-0.00182374
-0.00733707
0.00655239
0.000784674
-8.73793e-06
3.65833e-05
0.00374663
0.00691217
-0.0106588
0.000720661
-0.00116372
0.000443065
0.000437999
-0.00117637
0.000738371
0.00136479
-0.00455553
-0.000207766
3.00229e-05
0.000282353
-1.29503e-05
0.000354792
-1.28744e-05
0.00662677
-0.00690458
0.00423521
0.00344183
-0.000964381
0.00109904
0.000288359
-5.27639e-05
-0.00023559
-0.000579836
0.0048456
-0.00022881
0.000246611
0.000220459
-0.00021044
-0.000268507
0.000319705
-0.000248413
0.0016945
-0.00144609
-0.000513616
0.00322563
0.00838228
-0.0233946
0.000593682
-0.000959678
0.000125561
0.000150045
-0.00565934
0.00254286
0.00527361
0.000310183
0.00078939
8.51609e-05
0.000105589
-0.000190718
-0.00410114
-0.00460191
0.00870303
-0.00105847
-7.9036e-05
0.000318665
-0.000107826
-0.000767911
0.0010306
-0.000262696
-0.0033337
0.00382706
-0.00168749
0.00108955
0.000597959
-0.000359122
-0.000220716
-0.000338935
0.000436231
-9.73107e-05
0.00017919
0.00083271
0.00139577
0.00200926
0.000780521
-0.000903068
0.000122526
0.0119433
-0.00531809
-0.0066251
0.00037766
-0.000167179
0.0131454
0.00288459
-0.00459159
0.001707
-0.0017346
-0.000186034
0.00192065
0.000611976
5.22155e-05
6.63042e-05
0.000735946
0.00423849
-0.00514189
0.000903403
0.00405023
-0.00192249
-0.00212768
0.000540156
0.00135121
-0.000150991
0.000739169
-0.000137153
-0.000210102
-0.000277692
0.00860871
-0.0023044
-0.000472112
-0.00528343
-0.000308565
-0.000271809
0.000507884
-0.000138038
-0.000369885
0.00290804
-0.000461469
0.000273215
-0.00215357
0.00285332
-0.000699552
-0.000152575
0.00645617
-0.00697164
0.000515431
0.000824819
-0.000554797
0.00157789
0.00247233
-0.00635482
-0.000572855
-8.71576e-05
-9.55028e-05
-0.00235194
0.00371674
0.000158179
-0.00114536
0.000987198
-0.00331734
0.00194125
7.39837e-05
-0.000928938
0.000854939
0.00837991
-0.00414469
0.000156324
9.62859e-05
-0.000252568
-0.000758999
0.00415545
-0.00350367
0.00270011
0.000803563
0.00108914
0.00269824
-0.00378738
-0.00150222
-0.000285088
0.000378101
-9.30307e-05
0.000223506
-0.0139514
0.00247638
0.0114751
0.000251288
-0.000253415
2.17092e-06
-0.00498417
0.000848326
0.00413582
0.00320659
0.000832983
-0.00403953
-1.87488e-05
6.64684e-05
-0.00358563
0.00706774
-0.00520014
0.00100624
0.000272318
-0.00127856
0.00196118
-0.00212987
0.000168709
-0.00332731
0.000555485
0.00277183
0.000309638
-5.83346e-05
0.00143319
-0.00251185
0.00107866
0.000143467
-0.000478626
0.000335115
-2.39201e-05
-0.000311187
0.000375647
-9.32457e-05
-0.000245823
0.00115193
-0.000906102
0.000210724
0.000278329
-1.92163e-05
-0.000259114
-0.000218392
-0.00711868
-1.16475e-05
-1.17292e-05
-0.0012961
-0.000501787
-6.81018e-05
0.000569911
-0.00247609
-0.00547967
-0.000723786
0.00482607
-0.00410225
0.00024301
-8.66574e-05
-0.000319064
0.000297114
0.00283187
-0.00139871
0.000262734
0.000267676
-0.00456434
0.00574402
-0.00117962
0.00222134
-0.00198471
0.00147109
0.00152248
-0.00605065
-0.00223318
0.000400117
-0.000648531
-0.00132875
0.000483455
0.00084529
0.00198733
0.00103372
0.00502322
-0.000524647
0.000398732
7.47747e-05
0.000245823
-0.000320596
0.00107652
0.000394584
0.000605142
0.000175424
-0.0041806
0.000164053
-0.00053029
-0.000298204
4.64744e-06
0.000293569
0.000274238
0.00128498
0.000562964
0.000754775
0.00284108
-0.00359586
-0.00472866
0.00330971
-0.000592512
0.000568463
2.41232e-05
-0.000349901
0.000209224
0.00141112
-0.000532093
-0.000879039
-0.000311895
0.00148129
-0.00422597
0.00644726
0.000163404
0.000242696
-0.000406103
-6.89669e-05
5.94525e-05
9.49537e-06
-0.00229173
0.000741905
0.000330941
-0.000267167
-6.37751e-05
-0.0111036
0.00852294
0.00258074
-0.00311714
-0.00166055
0.00477768
-0.00134499
0.000971333
0.00491874
-0.00901989
-2.71805e-05
-0.000311786
0.00101137
0.000660564
-0.000462044
0.000682982
-0.000609026
-0.00301887
-0.00154544
0.00712226
-0.0014267
0.00130347
0.000123203
3.18187e-05
8.17927e-05
-0.00011363
-0.00168243
0.0023654
-0.00055548
0.00105136
-0.00100156
-4.98159e-05
-3.59159e-05
0.00119495
0.000447028
0.000350567
-0.000797624
-0.00384399
0.000915601
0.00292841
-0.0023111
4.58793e-05
0.0022652
0.000606558
-0.0010158
0.000409225
0.000560058
0.000254882
-0.000814981
0.00130331
1.0922e-05
-0.00131422
0.00322754
-0.00160993
-0.0016176
0.000150043
-0.000309194
0.000159158
-0.0130141
0.0105036
0.00251067
0.00488549
-6.23591e-05
-6.62085e-06
0.00063402
0.00665945
-0.00626505
-0.000394378
0.0140106
-0.0067617
-0.000406133
0.000202044
0.00207783
-0.000876316
0.00997972
-0.00910327
-0.00188088
-5.96993e-05
0.00194057
4.76118e-05
0.000510807
-0.000558398
-0.00490625
-0.00176117
0.00666732
-0.000128217
-0.000807646
-0.000214725
-0.00209639
0.000153587
-2.7428e-05
-0.000126161
0.00114139
-0.00110592
-3.54849e-05
-5.98012e-05
0.00202093
-0.000140333
-0.000126976
0.000267293
7.49113e-05
0.000931334
0.00179602
-0.00242798
0.000631986
0.000708669
1.36579e-05
-0.0018344
0.000900241
-0.000407422
-0.00261258
0.00301999
-0.00031671
-0.00270215
-0.00427651
0.0168843
-0.0126078
0.000942525
0.00190523
0.00105947
0.00956509
0.00119922
0.00156627
-0.00276546
0.00155081
0.00178898
-0.00333982
-1.08717e-06
-8.0302e-08
0.000271016
7.72642e-05
-7.80844e-05
0.00934235
-0.0020572
-0.00124416
0.0024762
-0.000274343
4.78634e-05
-0.000808282
0.000345816
-0.000338244
0.0110427
-0.00471246
-0.00633025
0.0013382
-0.00137411
0.00222919
0.00385271
0.000720287
-0.00457294
0.00028706
-0.000141564
-0.000145478
-0.00019425
0.00101421
0.00256867
0.00242397
0.000308134
0.000242864
-0.000551016
0.000181552
0.000105507
-6.61091e-05
-0.000232072
-0.000159136
0.000194329
-3.51982e-05
-0.000300841
0.000860902
-0.00201515
-0.00271356
3.34317e-05
-0.000205874
-1.54474e-05
-4.03604e-08
-0.000106421
0.000508482
-0.000443644
0.00044941
-0.000126952
-0.000322483
0.00187291
0.00236557
2.94627e-05
4.53101e-05
0.000688707
-8.35809e-05
0.000221825
-0.000254623
3.28136e-05
0.000611074
9.76009e-05
0.000783969
-0.00504114
0.00425718
0.0110547
-0.00460406
-0.00645066
0.00158378
0.000323174
-0.000195085
0.000221433
0.00791267
-0.00813414
0.000867728
-0.0021421
0.000356566
0.00563079
0.000164882
-0.000530462
-0.00370991
0.00246922
0.00124073
-0.000771531
0.00277085
-0.00199934
0.000598613
-0.000434552
-9.27914e-05
9.22024e-05
6.01131e-07
0.000158993
-0.000196768
0.00501733
-0.00414599
-0.00087134
-0.00256959
0.00534267
0.000683115
-0.00602581
0.00344038
-0.000794659
0.000638629
0.000991686
-0.00323239
0.00282496
0.00285087
-0.00409498
-0.000758823
0.00100607
0.00151054
0.00171699
-0.000677659
-4.24587e-06
-0.000198164
0.000202427
-8.63977e-05
-0.000220952
0.000307382
-4.23792e-05
4.23692e-05
-1.51455e-05
0.000244229
-0.000229088
0.00107994
-0.000714064
-0.0005505
-0.00138745
0.000458491
0.00394321
0.00271624
0.000608331
-5.46205e-05
-0.000553656
0.000120675
-0.00510482
0.00121102
-0.00152294
2.25692e-05
0.000247175
0.000772882
-0.00427655
-0.000163466
0.000671337
0.000835557
0.000494345
0.00375122
-0.00634805
-0.000283411
0.000934309
-0.000650886
0.00827939
-0.00915572
0.00070286