/*--------------------------------*- C++ -*----------------------------------*\
| =========                 |                                                 |
| \\      /  F ield         | OpenFOAM: The Open Source CFD Toolbox           |
|  \\    /   O peration     | Version:  v2012                                 |
|   \\  /    A nd           | Website:  www.openfoam.com                      |
|    \\/     M anipulation  |                                                 |
\*---------------------------------------------------------------------------*/
FoamFile
{
    version     2.0;
    format      ascii;
    class       volScalarField;
    location    "400";
    object      omega_0;
}
// * * * * * * * * * * * * * * * * * * * * * * * * * * * * * * * * * * * * * //

dimensions      [0 0 -1 0 0 0 0];


internalField   nonuniform List<scalar> 
18649
(
2.58696
0.0262472
0.0230065
1.91436
0.282776
0.028658
4.01355
0.261479
0.0666366
0.0232541
0.22812
2.9857
0.70914
0.0229008
0.0220345
0.0478511
0.0218496
0.0476899
0.219438
3.3631
4.65431
0.0231303
6.26831
0.166867
0.0219073
3.13784
0.0225685
2.89292
0.662034
0.0216402
0.022655
0.090662
0.0220458
0.0259343
0.0230482
7.65866
0.0301531
0.0222602
0.0218466
0.256434
0.0694616
0.163711
0.0730504
2.53456
0.0265922
0.0216331
1.9667
1.85813
14.9189
0.0219105
3.81727
0.0342536
7.44035
5.74737
0.0220509
14.8668
2.53477
0.0906495
1.9483
0.0231035
2.23526
0.0220336
0.071456
1.76943
0.0222581
1.7313
0.0223218
2.57883
1.80806
0.323551
2.80678
0.0220182
0.0986181
0.0267125
0.0250708
4.22606
0.0414921
0.0323053
0.0264069
0.328441
0.0218613
1.851
1.75247
7.74647
0.062952
0.0218363
0.0325893
0.0331895
0.0494949
0.0277043
0.0338463
0.0224845
0.0221047
4.90226
0.0229885
0.213479
0.0229701
0.204501
1.80255
0.0225126
5.83395
0.0473655
0.0218271
3.78885
1.8614
0.0345292
0.0221965
0.0229099
0.0469583
0.024855
5.73128
0.0862248
0.0220912
0.024656
0.189325
0.0236303
0.0220594
2.78316
2.56349
0.0219488
1.85049
0.0227414
0.0894955
0.0220213
2.32699
0.0219048
0.0222938
3.37718
0.0226571
2.84478
0.0220366
1.72339
0.0219784
2.39857
0.0307174
0.02222
2.89222
2.54784
0.0334742
0.032001
1.08504
0.0221807
0.0218603
0.0219901
0.0221824
3.26838
0.0218545
0.0220811
7.06454
1.84747
0.350069
0.0222295
1.82499
0.0223172
0.0224638
0.0219927
0.160381
0.247328
0.0220448
0.0221282
0.0221156
0.638192
1.94402
0.0223259
2.36159
0.189089
0.0221934
0.0220098
0.022501
0.0235004
0.0220459
3.05112
0.0863185
0.28204
0.0222329
5.10036
8.32379
0.0269269
0.022051
0.353313
0.514136
0.0217331
0.0222639
6.42675
0.0289781
0.0477794
0.0221882
0.0221748
0.0407004
0.0385126
4.11378
0.0223411
1.9175
0.0221614
0.0218346
0.0222093
0.0319338
0.0652303
0.0254515
0.0222693
0.0220888
0.151175
2.6006
0.0296332
0.0519983
0.0770766
4.26002
2.06475
0.0228366
5.48879
0.0221653
0.0247092
0.0226176
2.25013
1.721
0.0220842
0.0557487
0.0219904
2.30901
0.0221945
0.0919752
0.0220737
3.21341
2.09362
3.54541
3.95679
0.0221004
0.0221875
6.82475
5.24252
0.0414946
0.0219506
8.74333
0.0468818
3.50894
0.569299
0.142654
0.242068
0.0219696
1.00198
0.0217957
2.47644
0.0410855
0.0217353
0.0248313
0.0383098
4.97795
0.0221291
25.1839
0.0635131
10.0161
3.91452
0.0466423
0.0231087
0.02946
2.46348
0.0220765
0.0221685
0.024804
0.0248445
0.0219642
0.0847522
4.2685
0.0221484
0.0218418
1.80049
4.86216
0.0222112
6.40481
0.0218351
3.35309
0.11017
6.63426
24.8454
0.22415
0.0221489
0.0218436
0.263591
3.79822
2.33873
0.0221823
0.0219771
1.77765
0.0303381
9.45221
6.89632
0.0224052
0.0417617
0.0222344
0.0217256
0.0875718
6.50119
4.59961
0.725271
1.39439
0.0235124
0.443212
1.28654
0.021832
5.02578
0.0220253
0.0261495
0.0228377
0.022
0.0219307
0.243517
0.0222235
0.0552473
0.262712
0.0256783
3.01632
0.0231054
9.7113
0.0220385
0.0224091
0.0219619
0.0229105
0.0222751
1.74687
2.37801
0.0222131
0.0221165
0.0692532
0.0222402
0.0220052
0.0222684
0.0221848
0.0349829
2.88601
0.0744185
3.95765
0.0220112
0.0221335
0.0710048
0.0220317
0.0215356
6.39393
0.0307122
6.99827
0.0300145
0.648779
0.0220361
0.0248849
0.0226808
0.0244716
0.0220555
0.0222218
0.0217998
0.0332167
0.0468725
0.022045
0.678964
0.022038
0.0222391
4.16964
3.64221
0.0229933
2.86265
0.570356
2.28512
4.34165
0.02413
4.17931
0.0220356
3.73181
6.79577
0.0229857
0.0266142
0.0311467
0.0226143
0.0223524
0.0218546
0.0220667
2.41939
0.0355386
3.39679
4.15812
0.566005
4.57071
0.0240323
0.0222891
0.0415301
0.0219617
4.50508
0.0222714
0.0222334
1.94414
4.68801
0.0230869
0.0219287
1.8887
0.0555009
0.022221
4.4608
0.0227242
0.0264341
6.76537
0.0251717
0.0222375
6.05252
2.408
0.0462138
0.0220099
0.0221385
2.46758
6.198
0.0220077
4.94064
0.021837
0.0221306
3.99841
0.0218437
2.96303
0.0254266
0.164465
4.13555
1.03355
5.03973
0.0219644
11.5476
0.0220335
0.325518
0.0869728
3.52354
5.39281
0.0218498
0.0217276
1.13493
2.26661
0.025011
23.3772
0.0230223
0.0244653
0.021852
2.90068
0.954112
6.6734
0.0226928
0.0224968
2.65066
1.95257
0.0261974
0.023402
0.0219351
0.0218354
2.30752
3.24786
0.022062
0.0220405
5.53283
0.0219098
4.87014
0.0219188
10.6705
0.0532832
3.62208
0.0303985
5.84888
5.50435
0.0274848
0.0659719
0.024191
0.0590983
0.0239504
0.0220775
0.0307195
2.72462
0.0217345
0.0234428
1.92141
0.0218475
0.022221
0.411685
0.0219208
2.43602
0.0224869
0.0228654
0.0219867
0.0290709
0.0226651
0.022291
0.903347
0.0221411
0.0431491
0.022124
0.031423
2.58556
0.0222817
5.91322
0.027815
4.08974
5.20874
4.9961
4.11998
0.0297321
0.100312
0.0420871
3.36031
0.022221
0.128616
0.0246272
0.146989
0.163009
0.0702277
0.0222348
0.740261
0.183878
4.12337
0.0222292
5.66222
0.0247156
0.0912729
0.0221184
0.0939919
2.68035
0.0222214
0.022007
5.18122
0.0219415
0.183533
0.0219345
0.0292392
0.0226297
0.0412559
0.0219223
0.320626
0.0222744
4.5238
0.022254
3.51983
5.86078
5.03412
2.29973
0.0233383
3.25043
0.0581298
3.49701
5.21285
0.0219357
0.0435317
0.15709
0.0230634
0.249514
0.0225697
0.0222046
0.02305
0.0220869
0.0222798
0.0226022
14.5426
0.0218379
0.0220136
0.0280935
0.0250123
0.855066
4.84851
0.022218
0.0724728
0.429861
0.068503
0.0221264
2.8487
5.20693
5.66007
0.248479
0.0410208
0.0243048
0.0305894
0.0337747
0.0225694
0.864061
0.0220185
0.0225666
0.0217908
5.29544
3.49304
3.57148
0.0327261
0.0220067
2.46006
1.72511
5.1604
0.0324922
0.0476104
4.13161
0.0220655
4.98902
0.0250642
0.0238049
0.022844
1.17293
1.8005
0.022492
0.279448
0.0308596
0.0232588
2.69873
0.689529
0.0220224
3.61365
0.0335765
3.61741
0.0224648
10.7242
0.0407442
0.0305334
0.0224892
3.56289
0.0597701
0.0671506
0.0740789
2.40685
0.0248492
3.48609
0.0224562
0.0328665
4.18154
0.0284966
0.0220404
0.0500886
0.0231033
0.0678349
0.0220053
0.0220396
1.08359
1.29989
2.0267
0.0222658
2.45725
0.0219091
0.442295
0.0473947
0.0217979
0.0222561
0.0230355
3.33531
0.022827
0.103874
0.0944318
0.0444075
0.0221581
0.0219671
0.0245023
4.98817
0.0220347
0.0328155
0.0218218
4.10177
0.0222705
0.0242256
0.0226037
0.0218448
7.8752
0.176861
2.59266
0.0268518
9.31704
0.0330939
0.0218503
0.0324121
1.84623
0.0254091
0.0222975
5.16302
5.50421
0.0220803
1.74764
8.63253
0.0224778
0.022578
0.0705261
0.0227926
0.0220225
7.50767
2.78213
2.94264
5.27158
0.0220281
19.5639
0.0220067
0.0219943
0.0218383
1.80134
0.0222059
0.0222604
3.9816
2.08866
0.0235054
4.02683
0.0334229
0.0220635
4.36595
0.0268978
0.784248
0.0231644
0.588405
0.0215753
0.0251044
0.0222835
0.305051
0.0221657
1.74021
6.04253
0.201121
1.83838
2.24416
0.0295387
2.99995
9.18322
0.0932216
0.022944
0.0222241
1.99568
5.15445
5.76065
0.200083
0.074082
0.0220652
0.0275398
4.32784
5.27859
0.0220044
0.0248084
2.58021
4.73276
3.33243
0.152827
0.0223221
0.0237156
2.52644
2.53784
0.0218796
0.029528
0.0218506
3.59846
0.0221224
7.36458
0.071694
0.022078
0.0222193
2.68361
0.0220342
0.0270773
0.0220336
0.0221345
0.0220446
3.0763
0.111975
0.536672
4.42565
2.4238
5.91993
0.022283
5.46286
0.0267384
0.0272425
3.49286
0.0220493
0.0220793
0.0219233
4.60685
3.66915
3.87898
0.0220158
0.0309234
0.0218348
0.0218439
0.0215411
0.0246481
0.0448045
4.11001
0.0325672
0.0219985
0.225463
11.5139
0.052901
0.0219993
3.326
1.97176
0.0220023
1.82226
1.28253
0.0487847
0.0288252
0.0221711
0.0245398
0.127339
1.79294
0.712572
0.0223005
3.65937
3.44497
2.8499
0.0225697
1.87418
0.284293
2.74552
0.0599479
7.17159
0.0219713
2.03573
5.44884
3.86989
0.0222904
0.0220175
0.0286246
0.387363
0.0224932
0.194648
0.0231643
0.632801
0.0302578
2.72105
5.39898
0.0219213
1.67256
0.0588677
0.141431
0.106242
3.53286
0.0220228
0.182821
0.0952745
0.511928
3.41667
0.0221221
4.434
4.28621
0.0220262
4.14079
0.258496
0.0218877
4.63371
6.17172
0.0228943
0.0437018
2.52501
0.0220289
3.51697
0.0221868
0.0220204
0.0220697
0.0344938
0.0220043
0.0216141
6.14026
0.0222911
0.0254893
0.022465
5.32484
0.0427153
0.0220253
0.0219318
3.56099
0.0225057
1.4185
3.01816
0.0321585
5.52574
0.0244825
0.0298793
8.3159
0.242117
0.029725
0.0220057
0.030199
0.0308698
0.64123
0.0228422
0.0220311
0.0545879
0.0222244
2.80176
0.0566357
0.022468
0.0220912
0.0290115
0.0298609
2.10582
0.022079
0.021849
3.87636
0.0220216
0.589182
17.3117
0.0280876
3.3323
0.0221734
2.39173
0.0221474
0.105658
1.34467
0.292253
0.0426378
0.0219934
0.104541
0.0229297
1.73455
4.86401
14.1344
0.451164
0.0572916
0.0232278
0.024746
2.26502
2.74818
0.0220098
4.20866
1.22392
0.0218506
0.0770962
0.521556
7.99682
0.0219427
2.72698
4.38106
2.40988
2.58812
4.59531
5.93379
0.0584045
0.0220591
0.0268134
0.0422551
0.0220211
0.0229059
2.36622
0.0226768
0.0751229
2.92979
0.861017
3.67279
0.0422865
9.92291
0.228594
0.109661
0.0222815
1.86101
0.02208
5.6356
21.2277
0.0222036
0.0860152
0.0221487
7.94472
4.70886
0.705091
9.77743
0.0217133
0.0226278
2.22338
0.103455
5.07859
0.0217043
0.0220241
0.0220846
0.024722
0.0580104
0.0219614
0.0219171
0.0269055
0.0249507
0.0221892
0.263689
0.0220202
0.0298269
0.0220286
0.0226097
0.26722
6.01919
9.91154
2.73825
6.83633
0.797517
0.600746
0.0246906
0.0603837
2.4659
0.0227565
0.0220326
0.0220828
0.0227838
1.29541
0.0981341
7.41731
0.0619755
0.027312
2.44047
2.85974
17.8772
0.0990775
2.72218
0.0234647
0.0220294
0.0220602
0.0222937
0.0220213
0.174758
2.19114
0.108627
0.464177
3.21884
3.98256
0.0289653
0.0220307
0.102863
0.0284938
0.0774921
7.89919
0.0303143
4.35617
11.2127
0.284085
2.32809
0.0216064
0.0219579
0.028497
2.11113
0.024322
0.0221472
0.0226378
0.0270185
0.0220294
2.09413
0.0237118
0.0222807
0.0219584
0.272533
0.0247811
0.0270646
1.79738
0.021838
0.522411
0.0301873
0.054807
0.0220218
2.65637
0.022179
0.149423
1.91037
4.12955
0.0219078
4.701
0.0349055
0.0239836
0.0345829
0.0230998
0.0735074
0.0245496
0.0219548
2.47889
0.504883
0.0235618
2.44242
2.10499
0.0220302
0.0220967
0.0380063
0.0224478
0.0227992
5.55641
0.0215463
0.0220348
0.0222337
5.25586
3.04345
0.0346663
4.68585
0.0411992
1.78575
4.26635
0.0235025
0.0221946
0.241539
0.0234972
4.59794
5.45099
3.69204
0.0220401
0.0579222
2.44947
0.0220197
5.05671
2.37898
3.44585
0.0221266
0.0220802
5.68372
0.0284804
0.021776
0.0309191
0.0225074
0.0225221
0.0240618
0.0221647
2.39592
0.0581976
0.022058
0.575492
0.0220727
9.07761
0.0563672
9.1396
0.0226576
6.57676
0.138838
0.0220696
0.526137
0.022007
3.52463
4.78793
0.0234841
2.87521
0.0220225
0.0220435
4.86612
0.0220689
12.1996
0.043213
0.0221985
3.17535
0.0219194
0.0686044
0.0221009
0.0231925
0.0232123
0.0338257
0.0221081
0.0219824
0.0219208
0.0220439
0.0225835
4.01126
0.0220877
4.20814
1.77231
0.0239186
2.27789
0.0219539
0.0219552
2.63756
2.87724
0.447276
5.4563
0.0251516
0.0233116
0.0480262
0.0220155
0.0302641
0.0222699
0.0707906
4.23677
0.173354
0.0284187
0.0248291
4.32933
2.38107
0.0353523
2.79624
0.0321824
0.215659
2.85586
22.3849
4.19164
5.85991
0.0581528
2.48798
5.97753
0.0475085
0.0220233
0.0220239
6.00368
0.024759
0.528855
4.18286
0.0418138
0.0247239
0.0220528
17.8905
3.14941
0.040529
2.41672
0.022972
0.0232815
1.79837
0.0220127
0.0220507
4.82518
0.0229025
0.0654802
2.36461
4.394
0.0229576
0.0222808
2.59007
0.0954535
7.45628
0.0219626
8.01547
0.467537
1.83584
0.022181
2.6989
0.0218453
0.0244382
0.022509
0.0220709
0.141202
0.0219929
0.0221859
0.0222878
0.0232719
3.47098
6.59425
0.0221785
4.69079
0.104669
5.11445
3.72078
3.52753
0.0218404
0.0219474
0.456863
0.0233654
0.0222885
0.0219543
0.0248526
0.132154
0.0221702
2.60209
1.76414
0.0222746
0.0245887
0.0220085
0.0220785
0.147479
2.45019
0.0220551
3.86693
2.52039
0.022006
5.12411
0.0220769
2.56721
0.0220183
0.0215869
2.58444
5.90578
0.0221492
2.3754
0.0238666
2.63323
0.0232656
0.0590117
2.42331
0.0288559
0.691224
2.94238
0.0229021
0.20597
0.0329717
3.46064
4.88705
0.0231182
4.85893
0.0228217
0.0275389
0.0221231
0.0660155
1.7214
0.024922
9.4214
2.50052
0.0427941
5.14639
0.0222368
2.35185
0.0220284
0.153401
0.0228555
0.0218328
0.075913
2.51338
3.47445
0.0304794
0.0985087
3.69779
0.0241941
0.104138
5.11263
4.95233
2.95195
2.58157
0.197977
0.0615422
0.0219261
0.0220651
5.97886
2.49922
0.0220759
0.228117
3.21587
0.0508196
4.91384
0.263946
4.76966
3.259
0.0263472
2.40264
0.0305288
0.0982552
2.55709
3.90538
5.45887
0.102218
2.38043
2.77964
0.0249851
0.02202
0.0224342
0.0279036
0.0219969
0.0218362
0.636599
21.6187
1.83554
0.0220234
6.2853
2.49737
0.101602
0.445364
0.0321548
3.6762
1.98887
0.0220341
4.43992
0.114928
0.0219841
0.0216063
2.40361
0.0219453
11.7555
0.0230757
0.021976
0.0225459
2.42517
1.05174
0.0527135
0.569878
5.15352
4.48324
4.62058
0.0220278
0.28975
4.0494
9.93208
0.0221579
0.109164
2.35755
8.97858
0.0220364
0.0222716
3.28997
0.431822
0.0532311
9.55843
3.91397
2.45456
0.0220657
0.0220091
0.0221171
0.0848889
0.798464
0.0230067
0.0221395
0.232229
0.13196
0.0614204
0.0221076
0.0225809
0.0220088
0.0624278
0.0216328
0.110053
0.0223228
0.0221247
7.1313
4.05174
4.70322
0.0220482
0.0349947
3.89143
0.0231169
0.022555
0.0217938
0.0225949
8.29502
0.0220126
0.022024
0.0223893
0.0221895
0.0219731
2.41559
0.0217745
0.0936205
0.263276
0.0220026
0.0222942
0.0226199
0.144594
0.105465
0.0222766
0.0220941
0.0560192
0.508581
0.0224003
0.0687094
0.0278322
9.33421
0.0240501
0.0635723
0.0219265
4.18617
4.33135
0.236611
0.0222718
6.4504
0.0412491
0.0220985
0.0877223
0.0222777
0.0220083
0.0982051
0.0498879
0.043141
0.0221922
0.0221486
0.0219847
0.0681195
0.0216093
5.27638
3.22143
0.0332501
0.0299747
0.0224865
0.219837
0.0222277
0.0221518
0.0224004
0.0581928
0.0274346
0.0252056
5.40289
0.0221052
0.0945294
0.0216255
0.0230559
0.0242299
0.0928112
0.0220551
0.0219696
0.025423
0.0288993
0.0221272
4.257
0.0220749
2.5451
0.568365
0.0220988
3.08713
2.97518
3.75486
1.87827
0.0284145
0.0219991
0.96316
0.170961
0.0263175
0.021941
0.0382325
2.29999
0.0220141
0.0219758
0.022232
0.0222756
0.27297
0.0220144
0.0238232
0.0221093
0.0219451
0.0293576
0.0446066
0.0260428
1.01234
0.115033
0.0220407
0.0231573
0.0220486
0.0527726
0.0226183
1.70861
0.0219872
0.0220926
3.1765
0.101471
0.0220404
0.0220626
0.0218274
0.02202
0.0290077
0.0216537
0.0221131
5.38383
0.0644244
3.78959
0.207428
0.0220763
0.0220019
0.0616538
0.0245584
0.311346
0.022016
5.97788
0.0219688
0.0219875
0.0291877
0.152655
4.4263
1.8888
3.85559
0.0220141
0.0237043
4.75804
3.92399
2.46364
13.9351
0.0216176
0.0832258
0.0237595
0.0233824
0.0220867
0.0264771
0.0219913
0.0229628
2.93951
0.021817
0.0219355
2.31549
0.02527
0.0220603
0.0220737
17.5666
0.11398
0.0218194
0.0660755
0.0297833
0.182938
0.790255
0.0222746
0.0656086
0.0219317
0.0983846
0.0462705
3.32042
0.0220471
4.47974
0.0220667
0.0228347
0.0220573
0.0222808
0.0220508
0.0219975
2.2091
4.09731
0.0222742
4.12657
5.83568
0.0218112
0.0219319
4.16166
0.235293
0.102809
1.7622
0.0438302
0.0219838
0.0220433
3.68824
0.0221684
0.134583
2.5563
5.95438
0.0227072
0.0249042
0.438734
0.0684761
0.0395102
0.0594745
0.0315919
5.30436
0.0222711
9.68075
1.82307
3.51106
0.0220818
0.615832
0.0231188
0.226992
0.0221899
0.114853
0.0219285
0.489865
0.474502
0.0226109
4.3364
2.61949
0.0220756
2.87383
0.0219505
0.0232895
0.0220823
0.415574
0.0220125
5.51704
0.52698
14.5285
0.0222723
0.0221271
0.0308774
5.73771
0.0304115
0.0715806
0.0220243
6.12281
0.0240357
0.0992989
1.72988
0.0221067
4.23916
0.0553465
0.138738
0.0220757
0.0268699
0.0339885
0.0233384
0.0559789
0.0220493
0.0220376
0.263796
0.0219381
8.11358
0.177145
0.058264
2.61833
0.028541
2.49661
1.8264
3.47245
3.54984
0.0227019
0.571336
3.85862
0.02808
0.0223018
0.0232502
0.0222339
0.0252314
0.260774
0.0390335
0.0640619
0.119798
4.83865
0.0217364
0.0737886
3.21671
5.21024
2.16213
0.0220463
0.0221283
0.0217423
3.95342
0.123247
0.157171
7.30884
0.0459099
0.0322171
0.0219506
0.0443824
0.0234096
3.36179
0.0417787
0.0218005
11.6821
0.0359907
0.0881095
0.0352963
5.42544
0.0240245
0.0216868
0.0221046
0.0251635
5.60558
0.0218321
0.022122
0.815269
0.0391605
0.0219148
0.0216698
0.0389765
0.132544
0.0513188
0.127457
0.0227358
0.0219108
0.0389357
0.0946347
2.36798
0.0941893
0.760943
0.0220699
0.0216658
2.61086
0.022156
0.0218259
0.0218889
0.024092
0.0373249
0.0315703
6.3642
0.499545
0.087781
12.7554
0.433598
0.022057
1.77825
0.164746
0.435875
0.0221002
0.0217673
5.47513
0.0266595
0.0245481
4.02433
0.0219873
0.0220286
4.20065
0.110327
0.0736918
0.022095
0.0216972
7.52311
0.26205
0.022055
0.0276046
0.0220303
5.05001
0.148842
0.0448108
0.0221076
0.0221508
3.67707
2.49794
0.0247802
0.0219761
0.0228919
0.0229843
0.0389412
3.24618
2.0183
0.0219335
0.0220883
5.73885
0.0370455
0.0233715
0.0283008
0.0236154
0.0225196
2.35216
0.0221738
0.194198
4.50239
0.0220855
0.0220848
0.0221591
7.72819
0.0218119
2.51461
3.61809
0.346253
0.0222829
0.438026
2.20443
0.0215769
3.69297
1.55775
5.77216
0.0223195
0.0220687
0.411527
0.022277
4.04218
0.262929
5.40735
0.0220223
0.0303044
5.62719
3.69342
0.0301342
0.022129
0.0589418
0.0221223
2.27393
2.659
7.28555
0.0664098
0.0252451
0.0222769
4.47171
10.2536
0.0220324
2.55781
0.151298
5.26698
0.026272
0.0220568
4.16416
1.72906
0.0401656
0.683554
0.0245034
0.118215
0.0421649
0.0427368
0.02224
0.0220332
0.0272334
2.48905
3.52285
7.77556
0.0288373
4.15798
0.0222884
1.8767
0.0220378
2.45784
5.51709
0.0220669
0.0279497
0.0219375
0.0220186
0.0220153
0.507495
1.7983
0.0220134
4.88024
0.0220776
0.0294659
8.48375
3.23841
0.0422961
0.0615575
1.78261
6.07575
0.524773
0.0219803
0.0222052
0.0220284
0.0219807
0.0220559
7.73223
0.0216102
0.0228808
0.0216149
0.0256689
0.0242021
0.0698401
0.0310399
0.0221144
1.70401
0.022043
0.0256124
0.0317832
1.83598
0.0217296
0.0222273
0.0233004
0.0229833
2.35137
0.0799466
0.0220473
0.0220313
0.192473
0.0218937
0.022073
3.92413
0.204232
14.8496
0.0246491
2.34536
2.43336
0.0287982
0.0229551
2.95601
0.0215887
0.0220784
0.0221326
0.668494
5.05342
0.0238933
0.0851511
6.38902
0.0293757
0.0219911
0.0237844
4.99831
0.0220177
5.40027
0.0222775
0.0592652
3.52057
0.0251347
1.86416
0.168534
0.718195
0.0560395
0.0219553
0.0232567
0.0480911
0.0220376
7.81835
28.0721
0.0225045
0.0222881
0.0382254
0.0265472
0.423343
1.04925
3.1867
0.0220501
0.0221881
2.45335
0.0221979
0.0468434
0.0311847
0.854072
2.85209
0.305589
0.0276914
0.127835
2.26439
0.0790014
0.0818906
0.022393
0.040346
0.0223901
1.93424
0.0239514
7.91749
0.0690687
0.022017
1.3227
0.0233505
0.0221554
0.0434566
0.0282909
4.25991
0.0219956
0.0226183
0.0220314
4.51494
0.0217297
2.88052
2.51231
0.0220282
0.021734
2.43102
0.023572
7.15601
4.1342
3.5685
0.0660412
2.36548
0.522549
0.0220533
0.0219977
0.0585767
0.0220847
5.26796
0.0223753
0.11003
0.0369479
0.0573573
4.03758
0.0614702
0.0220257
0.0219784
2.92653
2.97187
2.8072
4.42049
0.0298249
2.4879
0.0221369
2.48424
3.93944
0.240505
0.100136
0.673109
1.78585
3.40822
0.0220312
0.0690263
0.0242166
0.0220777
0.023588
0.0218462
0.0228015
9.38233
0.0219837
0.330236
0.560942
2.85573
0.55311
0.0356519
0.0325999
0.0237861
0.0220271
5.32332
4.11215
0.133014
0.0222199
6.31009
0.388208
0.0308444
3.47321
2.6951
0.0220661
0.0222733
5.98383
5.15303
0.0221131
0.0219445
0.0536549
0.0217875
3.96601
0.328712
0.040418
0.0221331
4.15205
0.0218962
0.0244745
0.0270371
2.83247
0.0976562
0.0495514
0.026883
0.0575837
0.13175
0.0228543
2.33649
0.128415
2.55399
0.0574902
4.12933
1.74903
14.5966
2.43846
0.0240255
0.0296254
5.11057
8.31754
2.59367
0.0501635
0.0221652
0.0228789
0.0874653
0.0220367
1.72997
4.33655
8.00784
0.0230244
0.0234411
0.0222075
0.0244675
2.55929
4.96137
0.021826
4.61509
4.39134
4.50233
0.0463641
4.74048
0.0228483
0.0220853
5.08023
0.0219543
0.0228029
0.0226935
4.20699
1.84493
0.0273115
0.0669759
4.60246
0.0222728
0.0491635
0.0344079
0.0244566
3.57304
3.31093
0.0220814
3.8542
8.9724
0.0221972
2.90039
3.57906
0.140621
0.0273602
0.0261811
3.31886
0.0239368
0.0219401
0.0220417
0.107834
0.0433823
2.43188
8.71747
0.0223644
0.0234371
5.78196
4.45841
6.18676
0.0221971
0.0998664
0.0218831
3.31241
2.49196
13.2862
0.0372231
0.0222699
0.0216957
0.0220901
3.21772
0.0227801
0.0219994
5.62024
0.0221503
0.0218358
0.0327011
3.20636
5.78634
0.551651
0.0221433
6.11167
0.0217145
0.021507
0.171209
4.87031
5.33215
15.5966
0.0260825
2.58464
0.414124
0.0219951
0.545618
0.0222041
0.0220246
0.0219622
0.0220996
0.0220637
0.0218537
0.037431
5.29245
0.0220061
0.0219778
0.0235213
0.040739
0.115151
0.0220915
0.0221373
0.0220204
4.51449
0.0219313
0.0219588
0.0249364
0.0222425
0.272706
0.0220486
5.83237
3.57272
0.0319083
4.36309
0.021901
0.135446
3.293
0.0220716
1.59876
0.226178
0.105348
0.0222746
0.0217912
3.79417
4.25567
0.0595435
0.0218037
0.0241055
2.4157
0.0222787
4.50181
0.0219783
0.022109
0.0221046
1.72572
0.024261
0.021945
0.0220399
0.0677552
0.0818495
0.0302053
0.233748
7.79837
0.02219
5.64122
0.0220624
0.0672199
0.414126
0.0306118
3.24695
2.53065
0.0331804
0.0223001
0.022056
2.53867
6.14914
0.0247019
4.63201
4.29248
0.0220651
0.0220234
0.394471
0.298306
0.377133
1.69201
0.022198
3.80426
0.0222769
0.0220349
0.0224378
0.0265976
0.0220529
0.0232108
0.0221657
0.0221718
0.0239546
0.0220311
2.35547
0.0220816
0.112042
0.0220053
0.0223476
0.546851
3.08295
5.75578
0.0271595
0.0954639
0.0395591
0.0222452
0.0222428
0.0292577
0.068459
0.0830683
7.78323
4.52574
0.125067
16.178
0.0226569
6.00589
0.0220217
0.0264389
5.8402
0.0279522
4.1173
0.0221238
12.1371
2.3792
0.0692647
5.14671
0.0581236
7.97715
0.0217985
0.0215714
0.0220349
8.8537
0.136986
0.0320678
0.0220278
0.0234709
0.0220917
0.0224625
4.27831
0.686408
0.0226893
0.312431
0.0220243
0.101855
0.442379
4.06738
0.0216941
1.73939
0.0218762
4.41518
3.39501
0.0461228
0.0725502
0.0249111
0.124742
4.70814
4.8938
0.0245645
0.0270815
0.0239297
0.0327255
0.0282323
2.00617
0.0355589
0.0940148
0.022041
0.0223276
0.0436949
0.0223687
0.0219419
0.0578467
1.71926
0.0216403
0.0752072
0.0683603
1.35627
0.193943
4.85139
0.147081
0.0350765
0.0220684
5.86811
0.0218974
0.0222794
0.0221342
0.0222046
0.0346507
0.0314239
0.0223083
0.141628
0.0283385
0.216121
6.20725
0.0541722
1.74187
0.0220467
2.45193
0.0877672
0.0274617
0.0223258
0.0922566
5.0481
0.0219331
0.0293685
7.46378
0.0387406
0.0234264
0.176332
4.54924
0.0220715
0.0219288
3.72496
4.27345
4.68807
0.03454
0.022025
3.65443
0.0218235
0.0220171
0.0221374
0.0234912
0.0551462
0.0221614
4.01014
0.0276696
0.0772378
0.0219312
0.0221776
0.0234437
2.63571
1.84982
4.13324
0.0226037
1.73001
0.57764
1.96788
0.0220312
0.0245052
2.48363
0.022283
2.59125
1.8678
1.74577
0.0227805
0.0216001
0.0219624
0.022563
0.0224386
1.756
6.78903
0.0331416
3.45993
0.0230126
2.38987
0.0219678
0.0220334
3.4451
5.07644
0.0216785
0.0280052
0.454717
0.0222589
4.12262
0.0305153
7.08104
0.0221114
8.03982
27.8688
0.0241773
7.30702
2.39489
9.11739
0.442102
0.0719624
0.08553
3.344
0.0220217
0.0220656
0.0220154
3.99805
0.0220366
0.0225216
0.0222066
0.0686918
0.0220265
0.0216107
4.55157
4.27285
0.139904
4.29971
5.41301
0.0222837
0.431649
4.9081
0.0386116
0.0219594
0.0219058
0.0294501
5.23793
17.3267
5.55979
0.0219488
3.47358
2.64272
2.0656
3.12838
0.0223518
0.131875
0.0217973
0.0220445
3.56303
0.280976
0.0674007
0.0220458
0.0221285
0.0388305
2.15192
1.72295
5.00034
0.0222606
3.26916
0.022097
0.539806
2.22645
1.92519
0.0219862
0.0220827
5.75034
0.0219548
1.56664
0.0219506
0.394663
0.022168
0.0675261
3.49644
0.0241533
4.20561
0.0417467
4.3706
0.0220229
3.15193
0.0226299
2.81169
4.74797
11.1309
1.7334
0.0220838
1.75765
0.275599
0.0409975
0.115526
6.33218
0.0254314
0.0219589
3.31907
0.0229934
0.0229878
2.495
0.0222787
0.0222781
7.37042
4.63182
4.34488
0.0221041
6.84113
0.0220299
0.0266163
3.84776
0.0245728
0.0223553
1.78495
2.12163
0.287491
8.02886
0.0220191
0.114013
1.10812
2.60413
0.0406665
0.122922
3.42361
6.59139
2.48891
0.0217754
0.0238747
0.0296196
0.0229789
0.0220436
0.0283091
0.0220583
2.40333
2.57427
0.0346238
0.0218186
0.0224809
0.0342831
0.0220895
8.15302
0.259445
2.99281
0.196826
0.0220991
0.0220692
0.402835
0.0224793
6.71237
0.0220224
6.48916
0.248642
2.81218
0.0724558
0.022368
0.060755
4.56508
0.0845968
0.0220254
3.77444
0.0218594
0.0266135
0.0412393
0.046096
6.78616
2.81248
0.0463011
5.83968
2.44587
0.0334306
2.19784
0.111111
4.68924
0.0590636
0.021581
3.13264
5.07208
0.0269736
5.20415
0.0539897
0.045869
0.0500295
0.0290781
1.68498
0.0220968
0.0217053
0.0220626
0.122149
2.35024
6.07956
0.0219268
4.84135
0.197771
2.76927
1.69515
1.87253
0.0221429
2.99907
2.26973
0.0223336
0.0552928
0.0222342
0.0235009
0.0221108
0.0350512
5.38511
0.0329606
12.8212
0.0219497
0.0220252
0.203015
0.175091
4.07656
0.027001
0.0226926
4.24122
3.38979
4.30882
1.8291
1.74202
9.51614
0.0605494
0.022365
4.20324
0.0220118
2.76836
2.4363
0.770383
4.27563
6.86654
0.0220084
0.0222964
14.5253
0.172952
0.0893024
0.0222149
0.0223952
1.87188
4.65744
5.15688
0.0529444
0.0300456
0.0219358
0.0220129
0.0219591
0.022176
0.0417785
0.0220882
1.78207
7.75144
0.022154
0.0220218
0.0219419
0.676051
0.0519173
5.58827
0.022025
0.0226847
0.357061
0.0219825
0.373653
0.0771405
0.0781882
0.140028
4.9561
0.0220781
5.20734
0.0430087
0.0220742
0.0410986
0.0225409
3.739
0.0241334
1.70343
4.05437
0.0220068
2.98157
0.0240404
0.174426
0.0613286
0.271937
0.0749501
2.96957
0.0217186
2.39474
0.0290054
4.12622
0.0242047
10.1523
0.109496
0.0290779
1.69638
0.301434
0.0220211
0.0262518
9.80794
0.0513033
3.69566
0.0463265
3.01838
7.59894
6.11777
4.40909
1.72516
0.0222165
0.0220101
2.54945
4.3987
4.08872
0.0220319
0.0220326
0.0615669
3.98131
3.77456
3.50325
2.4413
3.93536
0.0493301
0.0218414
0.022753
0.0385736
0.0476525
0.0216892
0.38137
0.21669
0.580983
5.83752
0.021972
0.0218067
4.48585
0.0626717
0.0221106
3.35675
1.90897
1.07582
0.0237563
2.43333
3.02516
2.85967
2.64934
0.0221111
0.0345968
2.51532
0.0337791
0.0282979
0.307088
0.543676
0.0394755
0.0583462
0.0217791
3.36666
3.73212
4.40052
0.0220658
0.0477795
2.53985
0.39069
6.47319
3.4485
9.00452
0.0220558
0.03619
0.140898
5.83245
0.0247472
0.0335771
0.0222587
0.0220061
0.0222449
1.74569
4.99996
3.29065
0.0681952
2.37663
0.0221357
0.0244027
0.0239042
0.0369727
0.0229687
0.0791548
0.0280792
0.0286937
0.0222507
0.0240684
1.16983
3.0508
0.0220383
0.0222311
4.7638
4.98919
0.0235548
0.0388951
0.0253826
0.0218391
0.02228
3.96086
4.81702
0.388261
0.158109
4.42898
0.0610418
1.68477
5.70738
5.63229
4.03015
0.0221859
0.42979
3.9827
0.0221562
3.61798
0.0220979
2.48047
0.022143
2.37029
4.31894
0.0219125
2.80354
0.0531416
3.94706
0.0399183
0.0221367
27.4083
0.0220369
0.0219713
1.69645
8.16487
0.0218065
0.607822
0.0630997
0.0229798
0.0229614
0.0298262
2.53868
0.0240663
1.74527
0.126374
0.0221185
2.48054
4.68356
2.3996
0.0246798
0.0222145
0.0222382
2.5015
0.0230687
0.0275485
12.7229
3.75973
0.0248765
4.35419
0.0300613
0.0237188
3.60281
0.0220701
0.779254
2.09101
11.0987
6.00166
0.318668
0.0222309
0.0224618
2.29364
0.0294636
0.0235044
6.09702
7.34729
2.86418
0.0219597
0.0220739
0.0300616
0.447168
0.0293069
0.0246666
0.0287432
0.0220488
0.046532
5.65258
3.43074
0.2302
0.0221968
0.0407665
0.0220257
10.5777
0.3614
0.0222436
0.022705
0.0296212
4.2631
0.0633072
0.0228808
0.0312046
4.74979
0.0320064
4.10062
0.0338224
0.0221404
0.021819
4.3652
0.0737302
3.86743
5.19083
2.69174
2.47908
0.0305944
2.77301
3.79123
2.45754
2.55847
11.4655
2.4954
0.905005
0.0226021
0.0230912
5.32101
0.0217609
0.087625
3.68204
4.77565
0.022287
5.31333
0.0925875
0.0296621
0.166446
0.119351
4.39507
0.0221849
2.84554
6.95392
3.87387
4.7162
0.0227995
0.0223819
2.51472
0.0682886
3.88475
2.44908
0.0220328
0.0222535
4.87091
2.54696
0.465447
5.8601
2.52423
4.43254
0.0221123
5.43632
0.0328792
0.0220141
0.0238287
4.29011
0.022104
3.07101
0.0271884
3.33685
3.4857
0.260799
4.42473
0.250673
1.77838
2.70374
2.59445
0.16674
0.526409
0.029376
0.022289
8.27471
4.47705
2.3011
0.0220242
2.39989
0.0235331
2.4484
2.4916
0.0216873
4.55863
0.0235132
3.30702
4.92937
5.52552
4.20108
4.35103
0.0834336
3.86852
0.0236289
0.0271459
0.278544
0.022016
0.0222169
0.0976548
0.0222738
2.70621
0.176236
3.21196
2.53193
3.013
0.0338607
3.99011
0.68121
0.120922
2.42396
0.0219951
0.427203
3.63714
3.27655
0.106615
0.0215783
0.0946565
0.0222508
0.0443618
0.201804
3.79831
0.0217799
6.04745
2.21925
5.83489
4.84422
0.0273603
0.715468
3.62165
0.0331007
0.0238439
0.0222392
2.70841
0.0595235
3.38469
0.0265254
4.41191
0.0256198
3.48131
2.13125
0.0379764
3.92202
2.42496
0.0319989
0.022049
18.3557
6.19381
5.21227
0.0265091
3.80788
0.0221345
0.0222012
3.59167
4.28588
2.62428
3.56354
0.312556
0.262738
0.022124
0.143954
5.18528
3.71946
0.0220464
0.0315772
0.0965241
6.93146
5.62125
1.95746
0.0436448
6.0461
4.72631
0.0220924
0.0236459
7.29042
5.84768
0.0244954
0.0230642
4.25563
0.0219233
0.0220454
0.0434689
3.43362
0.0221267
2.89487
0.0219708
0.0220889
0.0221326
0.0222065
0.0220655
1.85524
0.0276076
1.61876
2.36899
2.61183
3.85714
0.0230553
5.69028
0.0218733
0.0460395
10.2138
0.0404274
0.0227276
0.0268587
0.0217801
0.123962
0.0220672
0.0289979
4.11851
4.63232
4.41676
0.0529346
3.21812
0.533155
3.02436
0.0220231
4.00335
0.0220254
0.510604
0.340795
0.103107
0.0220824
0.375088
0.0434492
0.022206
0.531219
0.0219587
0.0502927
0.02235
0.188441
7.12707
0.022602
0.0278166
0.4746
1.07004
0.105487
4.08685
0.0265096
8.04705
2.72541
0.0228464
0.0218528
0.0343037
2.95382
0.454917
0.162859
0.0221667
0.0221792
0.0713598
4.97892
1.69068
3.76582
5.0287
0.0220542
3.75783
0.0221903
0.0264125
0.0219713
0.0400437
0.0308889
0.0290312
0.0327278
0.389655
0.0219259
0.0245433
3.34613
0.022055
3.96223
4.42024
4.16785
0.0385218
2.09944
0.0218211
0.0220394
0.0220482
0.0540278
5.39805
5.76828
0.278757
0.0300412
0.0222946
4.42438
0.0220174
4.16715
0.0266902
0.0219856
0.0221974
3.76526
5.98459
0.766178
0.0275729
0.0221667
0.0225431
0.0215555
2.52602