/*--------------------------------*- C++ -*----------------------------------*\
| =========                 |                                                 |
| \\      /  F ield         | OpenFOAM: The Open Source CFD Toolbox           |
|  \\    /   O peration     | Version:  v2012                                 |
|   \\  /    A nd           | Website:  www.openfoam.com                      |
|    \\/     M anipulation  |                                                 |
\*---------------------------------------------------------------------------*/
FoamFile
{
    version     2.0;
    format      ascii;
    class       surfaceScalarField;
    location    "400";
    object      phi_0;
}
// * * * * * * * * * * * * * * * * * * * * * * * * * * * * * * * * * * * * * //

dimensions      [0 3 -1 0 0 0 0];
oriented        oriented;


internalField   nonuniform List<scalar> 
27740
(
0.00657392
-0.00421923
-0.00235469
0.183773
-0.212955
0.0291817
-0.0899684
-0.163966
0.253934
0.00815366
-0.00985623
0.00170257
0.0213699
-0.0364294
0.0150595
0.122181
-0.238076
0.115895
0.00457634
-0.0116597
0.0070834
-0.13151
0.142317
-0.0108071
0.0432832
-0.178999
0.135716
-0.166479
0.184585
-0.0181063
0.00529758
0.102793
-0.10809
-0.000207514
0.0171187
-0.0169111
-0.0267842
0.122166
-0.0953815
-0.270425
0.180457
-0.338807
0.234503
0.104303
0.217544
-0.160799
-0.0567444
0.317782
-0.491105
0.173323
0.0553293
0.162214
0.122229
-0.063482
-0.0587469
-0.00460387
0.00830449
-0.00370062
-0.00226181
0.00390968
-0.00164788
-0.0916721
0.248682
-0.15701
0.0257837
-0.0117769
-0.0140068
-0.116378
-0.0117867
0.128165
0.163021
-0.385748
0.222726
-0.0107663
0.00616242
-0.119126
-0.148161
0.267287
0.0167358
-0.0169433
0.0214886
0.111165
-0.132653
0.556776
-0.342261
-0.214515
-0.153189
0.303843
-0.150654
-0.10826
0.0983852
0.00987524
-0.216903
0.437661
-0.220758
0.103643
-0.188078
0.0844356
0.240471
-0.0786802
-0.161791
-0.0188766
-0.000761107
0.0196377
0.123822
-0.104845
-0.0189765
0.205722
0.0377742
-0.243496
0.214862
-0.449217
0.234356
0.00211409
-0.133624
0.187559
-0.144276
0.00986702
-0.126245
0.131217
0.0342539
-0.165471
-0.0185593
0.0163342
0.00222504
0.197363
-0.0135896
0.366465
0.190311
-0.0028171
0.00999874
-0.00718164
-0.000752728
0.00890639
-0.0901068
0.0474255
0.0426812
-0.239987
0.413258
-0.173271
0.00099971
0.0224016
-0.0234013
-0.000343404
0.153894
-0.15355
0.0238757
-0.0164165
-0.00745929
0.0403759
0.00289042
-0.0432664
-0.473779
0.256876
-0.025488
-0.0646188
-0.018518
0.017027
0.00149101
-0.053995
-0.0923602
0.146355
-0.00593577
0.00512656
0.000809214
0.0448033
-0.211282
0.00322944
0.00334448
-0.201615
-0.17029
0.371905
0.165737
-0.0345197
0.000744494
-0.00863333
0.00788883
0.323312
-0.11759
0.00925488
-0.00851039
-0.350273
0.216325
0.133948
-0.0172224
0.0171457
7.6687e-05
0.00602071
-0.00851379
0.00249308
0.0140989
-0.1222
0.108101
-0.0202741
0.0187367
0.00153738
-0.241015
-0.0784853
0.319501
0.0414496
0.0438864
-0.085336
-0.0786538
0.213122
-0.134468
0.186437
-0.0516601
-0.134776
0.00221174
-0.00447355
0.0970612
-0.00639035
-0.0906709
-0.175863
0.00783707
0.168026
-0.242442
0.163788
-0.0102651
0.0687104
-0.0584454
0.443874
-0.126092
-0.0106269
0.00780978
-0.0099711
0.0124242
-0.00245306
0.0115575
0.0123183
-0.105094
0.0602135
0.0448806
0.400727
-0.185865
-0.12833
0.0106237
0.117706
0.181673
-0.182017
0.0160448
0.132877
-0.148922
0.12012
0.106286
-0.226406
0.155251
-0.21011
0.0548594
-0.0962093
0.222375
-0.126165
-0.320602
0.220213
0.10039
-0.0149232
0.0239968
-0.00907364
-0.270938
0.179266
-0.102954
0.108251
-0.209076
0.125625
0.0834516
0.0525288
0.0226491
-0.075178
-0.00875519
0.00732636
0.00142883
0.162817
-0.281943
0.0172028
0.00858087
0.119581
-0.102106
-0.0174747
0.469232
-0.201003
-0.26823
0.0266945
-0.0256947
-0.00857106
-0.000184126
0.167475
-0.0135817
0.38459
-0.45057
0.0659792
-0.191167
-0.071876
0.263043
0.0899855
0.0295953
0.00149024
0.180983
-0.182473
-0.0189984
0.000121829
-0.0722442
0.0247513
0.0474929
-0.230446
-0.0901564
0.146474
0.0113927
-0.157867
-0.177915
0.102814
0.0751015
-0.0926883
0.270982
-0.178294
-0.273696
-0.200083
-0.00785121
-0.00356332
0.0114145
-0.0194071
0.000847833
-0.233242
-0.115363
0.348605
-0.00496752
-0.000968248
-0.280004
0.231006
0.0489985
-0.0668108
-0.401101
0.160085
-0.00919093
0.0128904
-0.00369944
0.369853
-0.206831
0.182585
0.293605
0.00297475
-0.00778298
0.00480823
-0.183484
-0.0965202
0.00139461
-0.00924582
-0.1236
-0.13849
0.262091
-0.0117787
0.00180758
-0.234878
-0.100591
0.33547
0.00594526
-0.000818703
0.113292
0.0105297
-0.210593
0.433892
-0.223299
0.0164252
0.000362755
-0.016788
-0.0163955
-0.00212251
0.203687
-0.0484358
-0.162907
-0.0129561
0.00516526
0.0343053
-0.0394706
0.115104
-0.275113
0.160009
0.429436
-0.313386
-0.11605
-0.457853
0.334027
0.123827
-0.383565
0.405773
-0.022208
0.00592024
-0.0192687
0.0133485
0.112285
0.317151
-0.426911
0.281574
0.145336
-0.0217054
-0.00180406
0.0235095
-0.00255035
0.0278238
0.096043
-0.123867
-0.256732
0.50717
-0.250438
-0.000140238
-0.0121814
0.0123216
-0.388488
0.250215
0.138273
0.316702
-0.249879
-0.0668228
-0.300957
-0.156896
-0.0510294
0.0308312
0.0201982
-0.0715542
0.0612891
-0.547893
0.327425
0.220468
-0.274867
0.0313813
0.243486
-0.137916
-0.220588
0.358504
-0.124848
0.0716171
0.0532305
-0.00650826
0.00154074
-0.178661
-0.209826
0.00657603
-0.015767
-0.075939
-0.101976
0.303231
0.0813594
-0.376125
0.304271
0.0718541
0.236476
0.080226
-0.293664
0.200976
-0.258267
0.134666
0.0203479
-0.0241095
0.00376169
-0.17841
0.124415
-0.00917336
0.0305432
0.28425
-0.165812
-0.118438
-0.0197681
-0.0441968
0.0639649
-0.000105261
-0.0216001
-0.159025
0.191946
-0.0329208
-0.235392
-0.312501
0.111871
-0.0977726
-0.00384174
0.117653
-0.113811
-0.386803
0.437276
-0.0504723
-0.140876
-0.256884
0.397761
-0.000961617
0.214003
-0.0505616
-0.163442
0.123429
-0.180494
0.0570648
0.0578996
-0.441465
-0.147752
0.262855
0.194701
-0.0341052
-0.160596
0.0328091
0.0685649
-0.101374
-0.0599023
0.0553228
0.00457942
0.30058
-0.152299
-0.148281
0.000346188
-0.00562455
0.00527836
0.26313
0.0653479
-0.328478
-0.454793
0.240087
0.214706
-0.142503
0.429437
-0.286934
-0.0111526
-0.117177
-0.00507483
-0.0736997
0.0787746
0.053126
0.133311
0.284755
-0.425631
-0.217086
-0.209825
0.0494904
-0.163077
0.113587
-0.0143587
-0.00286374
0.134479
-0.0399897
-0.0944895
-0.13251
0.148555
-0.0335832
0.0750535
-0.0414703
-0.0993236
-0.0109478
0.110271
0.00574421
0.00425453
0.117088
-0.308255
-0.00983215
-0.000209721
0.0100419
-0.292845
0.211314
0.0815309
-0.210956
0.198583
0.0123734
0.279515
-0.184129
-0.0953857
0.00551976
-0.00517358
0.0114246
0.000682378
-0.012107
0.209777
-0.375484
0.165707
-0.0613205
0.100583
-0.0392622
-0.323162
0.167693
0.155468
0.0132916
-0.000401185
-0.275597
0.2163
0.0592975
-0.0289758
-0.12472
0.153696
-0.109644
0.294297
-0.184653
0.0421674
-0.0187347
-0.0234328
0.0234736
-0.00312579
-0.00828737
0.00199938
0.00628799
0.0016724
0.0122427
-0.0139151
-0.0884775
0.298255
-0.170914
-0.104684
-0.0199598
0.00825489
0.0117049
0.0690061
-0.0887742
-0.18091
0.193173
-0.0122626
0.197187
-0.376402
0.179215
-0.021978
0.000944682
0.0210333
-0.243321
0.140372
0.102949
0.00218436
0.00612013
-0.0706722
0.111138
-0.0404654
-0.0282762
-0.0227532
0.0289547
-0.00682466
-0.02213
0.154904
-0.389783
-0.106074
0.056171
0.049903
-0.228737
-0.171017
0.399755
-0.0177677
0.0177232
4.45354e-05
-0.169008
-0.0119016
-0.489561
0.102757
0.147964
0.12219
-0.0893813
-0.000333386
0.00953182
-0.00919843
-0.0367906
-0.238077
-0.0310381
0.0323586
-0.0013205
-0.0967541
0.0916793
-0.0198691
0.0211383
-0.00126914
-0.0032265
0.00780285
0.179103
-0.0556743
0.0772399
0.163231
0.195611
0.0183921
0.0212269
-0.00578645
-0.0154404
-0.33285
0.223206
-0.208227
-0.0846182
-0.136939
0.148331
0.00140096
0.179582
-0.356781
0.196323
0.160458
-0.0497493
-0.0224948
-0.00960843
-0.000223722
0.195968
-0.303823
0.107855
-0.236676
-0.218117
-0.00818057
-0.00244631
-0.0145634
0.042216
-0.0276526
-0.423776
0.281273
-0.00507643
0.00411482
0.235933
-0.441266
0.205333
-0.0125755
0.0184958
-0.111647
0.118044
-0.00639725
-0.00840234
-0.00666273
-0.0243754
0.0906528
0.031576
-0.0972366
0.360367
-0.458094
0.221418
-0.114644
0.08786
0.0127974
-0.011125
0.0111069
0.00218463
-0.354621
0.412521
-0.195433
-0.127729
0.0127321
-0.0128723
0.00307145
-0.160041
0.156969
-0.0444791
0.0649113
-0.0204321
-0.0198188
-0.00215922
-0.422398
0.235378
0.18702
-0.00688414
0.103945
0.390826
-0.166761
-0.224066
-0.228731
-0.188634
0.417365
0.128248
-0.157224
-0.0200725
0.000203353
0.0145797
0.0123405
-0.0269202
-0.0154623
0.0153921
0.107447
0.00510773
-0.112555
-0.203917
0.0721967
0.131721
-0.0945003
0.122324
0.121621
-0.100132
0.397882
-0.157795
-0.0504661
0.0359026
-0.441352
0.0909905
0.350361
0.126977
-0.0233344
-0.106082
-0.102994
-0.493823
0.192866
-0.421423
0.188181
0.000239531
0.0287152
0.180233
0.157652
-0.213379
0.0557271
0.0227149
-0.0295395
-0.134952
-0.00439312
-0.00637317
-0.142101
0.186905
-0.000481634
-0.0369635
0.0374452
-0.199191
-0.139616
-0.172183
0.352092
-0.118528
0.301663
-0.183135
0.49251
-0.450216
-0.0422947
-0.000354098
0.0172331
-0.0188675
0.00163444
-0.538139
0.324856
0.213283
-0.350826
0.212909
0.166021
0.0215381
0.234037
-0.501336
0.267299
-0.298184
-0.195639
0.0710635
-0.247474
0.17641
-0.458353
0.103732
0.0143819
-0.108595
0.0942133
-0.0094318
0.00858113
0.000850665
0.032371
-0.0659542
-0.00854037
0.00839575
0.000144628
-0.273645
-0.10248
-0.487528
0.357732
0.129796
-0.13006
-0.0359655
0.166026
-0.501245
0.385459
0.115786
-0.00078399
-0.454879
0.455663
-0.00691995
0.0086834
-0.00176345
-0.138126
0.156382
-0.0182559
-0.0857539
-0.0200999
0.105854
0.0590514
0.0754279
-0.0797207
-0.0451268
-0.17382
-0.129905
0.240932
-0.111027
0.0960307
-0.0801105
-0.143085
0.223196
-0.370536
0.286208
0.0843276
-0.120212
-0.303563
0.178829
-0.407566
-0.165399
0.202349
-0.0369501
-0.131292
-0.112029
0.362403
-0.219524
-0.142879
-0.106485
0.112787
-0.00630268
0.222583
0.13982
0.273728
-0.202665
-0.00893758
0.00850975
0.000427822
-0.121729
0.0342879
0.0874407
-0.263578
0.145051
-0.00759993
0.0125727
-0.00497282
-0.102687
0.0320145
0.0147377
-0.00363075
0.0118934
-0.0199307
0.00803732
-0.24069
0.16058
0.0139714
-0.00207801
0.375702
-0.153119
-0.00494799
-0.0033184
0.0082664
-0.0427577
0.042276
0.0655514
-0.207653
-0.165011
0.0509066
0.114104
-0.154186
0.0160601
0.144014
-0.297203
0.104767
0.195813
-0.115497
-0.197889
0.238841
0.144835
-0.383676
0.018035
-0.0158555
-0.00217951
0.102249
-0.0878667
-0.00610301
-0.00979798
0.00898755
0.000810436
-0.119319
-6.08815e-05
0.11938
-0.00348464
-0.00666017
0.0101448
0.137548
-0.285893
0.148345
0.426908
-0.244323
-0.133345
-0.0654635
0.198808
0.3835
-0.196222
-0.187278
-0.00857382
-0.0513285
-0.465602
0.0517536
0.413848
-0.465582
0.208851
0.00463444
0.00387933
-0.00851377
-0.0136992
0.0282789
-0.269561
0.236284
0.0332763
-0.267747
-0.114665
0.382413
0.0486229
0.0494177
-0.0980407
-0.13403
0.133594
0.000435674
0.164985
-0.269547
0.104562
0.00746435
-0.0266003
0.019136
0.195503
0.136853
-0.332357
-0.0223295
-0.142682
8.54272e-06
0.0114822
-0.0114908
-0.132023
0.22911
-0.0970866
-0.38564
0.218879
0.00606888
-0.0157483
0.00967939
0.0113565
0.00667856
-0.149086
-0.0317741
0.18086
-0.173292
0.330805
-0.157513
-0.341793
-0.145735
0.016145
-0.0149325
-0.00121248
0.00482584
-0.0117458
-0.160195
0.327889
0.0990362
0.00566014
-0.104696
0.428378
-0.214413
-0.213965
0.182904
0.168588
-0.351491
-0.0147856
0.00703799
0.00774761
-0.399224
0.22854
0.170684
-0.00821685
-0.00121494
0.0855307
-0.217554
0.0036027
-0.107326
0.103723
-0.00681296
0.00332832
0.0156812
-0.0631874
0.0189906
0.177088
0.165357
-0.342445
0.000441528
-0.00304979
0.00260826
0.120839
0.254863
-0.0267725
-0.0878718
-0.00190308
-0.116804
0.118707
-0.00651958
6.0068e-06
0.00651357
-0.00317139
-0.0265365
0.0297079
0.271615
-0.387112
-0.00719945
-0.453129
-0.0752826
-0.0307914
-0.0139005
0.00508512
0.00881535
-0.220749
0.0908438
0.00285103
0.0295076
-0.0502735
-0.219287
0.0906328
-0.201632
0.111
0.22117
-0.455783
0.234614
0.00678695
-0.00539234
0.120084
-0.0072967
-0.00366189
0.00410342
0.154031
0.149812
-0.201697
0.105487
0.0102671
-0.00563262
0.0152411
-0.0150517
-0.000189416
-0.231626
0.185807
0.0458188
0.13172
-0.399467
0.243054
0.185324
0.0100413
0.00469633
0.00835827
-0.00538353
0.284354
-0.489725
0.205371
0.159877
-0.326358
0.166481
0.0184212
-0.000149775
-0.0182714
-0.376459
0.181605
0.194854
-0.0127835
0.000100187
0.0126833
-0.354652
0.00743717
-0.00743717
-0.120287
-0.0137427
-0.00141584
-0.00606301
0.00747885
0.15395
-0.0153973
-0.138553
-0.00813178
0.0485077
-7.10825e-05
-0.0097269
-0.193663
0.0975879
0.0960746
-0.130187
-0.0488121
0.212808
-0.122175
-0.198806
0.146569
0.0522364
0.275959
-0.138411
-0.156564
0.272087
-0.115523
0.133431
-0.13036
-0.00475257
0.0299994
-0.0252468
-0.433256
0.204525
-0.11233
-0.152319
0.264649
0.000370136
0.014871
-0.201499
0.412945
-0.211446
0.258933
-0.379145
-0.124089
0.097317
-0.158646
-0.210734
0.36938
0.0192523
-0.00147971
-0.0177726
0.233173
-0.406109
0.172937
-0.172402
0.2959
-0.123498
-0.21252
0.374928
-0.162408
0.0962539
0.124241
-0.220495
0.325448
-0.129944
0.487613
-0.188267
-0.299346
-0.0438623
0.0481789
-0.00431653
-0.111759
0.294663
0.00531981
0.0736037
-0.0789235
-0.147872
-0.202954
0.0507833
-0.197271
0.146488
0.016581
-0.000246778
0.212053
0.27556
0.0611536
-0.0878326
0.026679
-0.203492
0.204893
-0.00140104
0.00197473
0.00723264
-0.00920737
0.0197739
-0.00431874
-0.0154552
-0.00931448
0.0208676
-0.0115531
0.01458
-0.00847962
-0.00610043
0.20563
-0.109376
-0.110271
0.129646
-0.0193756
0.059828
-0.0127485
-3.49837e-05
0.127012
-0.219753
0.0927414
-0.00107899
-0.101094
0.102173
0.193286
-0.16479
-0.0284953
0.0245023
-0.0964758
0.145966
-0.117539
0.122897
-0.00535806
0.389709
-0.155672
-0.0122692
-0.015988
0.0282571
-0.0166621
0.110133
-0.0934711
-0.0065361
-0.0082495
0.315249
-0.229859
-0.0853901
-0.0133695
0.0133781
0.118474
0.0147277
-0.133201
-0.10477
0.151088
-0.0463174
-0.427056
0.267876
0.15918
0.114133
-0.116036
-0.0187316
0.0159234
0.00280819
-0.304593
-0.233546
0.370915
-0.211039
0.0104594
0.374469
-0.170267
-0.204201
-0.0318173
0.0843461
0.20646
-0.382049
0.175589
-0.0486301
0.170812
0.119533
-0.267694
0.0803277
-0.151458
0.0711301
0.219908
-0.378554
-0.0610204
0.058048
0.0029724
-0.312938
-0.150603
0.463541
0.00311159
-0.000990315
-0.00212127
0.260749
0.0544998
0.00810249
0.00647755
-0.0864816
0.12076
-0.034278
0.000681563
-0.0156047
-0.015327
0.0146484
0.000678674
-0.262726
0.150395
-0.100377
-0.0213516
-0.0489093
-0.149897
0.00109643
0.00117333
-0.00226975
0.000447172
-0.172978
-0.185657
0.358635
0.0627342
-0.0574143
-0.106082
0.109684
-0.296707
0.0958204
0.200886
-0.142078
0.0562075
0.0858705
0.118565
-0.272837
0.154273
-0.125713
-0.215833
-0.0808734
-0.456652
0.484252
-0.0276007
0.201132
-0.514071
0.275122
-0.156557
0.0103351
0.0011568
-0.0114919
-0.196402
0.432336
-0.204851
-0.116926
0.321777
-0.131124
0.251244
-0.241817
0.126723
0.115094
-0.0386971
0.0130176
0.0109792
0.219242
-0.0922304
0.0356767
0.00287393
-0.114506
0.111632
-0.132423
0.0148841
0.20986
0.000594534
-0.00626149
0.00566695
0.0808728
-0.0118667
0.00159413
-0.00458551
0.00299139
-0.0693455
-0.0727325
0.0256926
-0.128774
-0.0928954
0.221669
-0.224901
0.0339724
0.190929
0.038288
0.348794
-0.115621
-0.00484777
0.112295
-0.144643
-0.153509
0.298152
0.232855
0.115939
-0.209424
-0.160711
0.370135
0.0165887
0.0126919
-0.0292806
-0.00636383
-0.0053432
-0.0128552
0.0181984
0.170747
-0.159873
-0.0108743
-0.353334
0.197432
0.155903
0.000237269
0.0159077
0.00704401
0.00221087
0.0647332
-0.00941036
-0.0895866
0.14037
0.0968065
-0.0318888
-0.0649177
0.00567074
-0.0199671
0.0142964
-0.467208
0.0258557
0.0127524
0.00811516
-0.0876488
-0.154168
-0.00809105
0.146893
-0.138802
-0.227962
0.149356
0.0786057
-0.0413215
-0.00135427
0.0426758
-0.00877529
0.00697713
0.00179816
-0.170731
-0.0503981
-0.0106223
0.0159419
0.138008
-0.00322524
-0.200692
0.00483435
-0.00627441
0.00144006
-0.0850902
0.0555582
0.029532
-0.12773
0.281115
-0.153386
0.00252533
-0.0014289
-0.178346
-0.0317643
-0.00601977
0.0260626
-0.0200429
-0.169041
-0.0808379
0.0177639
0.0120206
-0.0297845
0.155524
-0.0751966
-0.154193
0.224405
-0.0702123
0.049353
-0.420483
0.37113
0.00298089
-0.00629929
-0.0126129
0.147004
-0.134391
0.173002
-0.0439884
-0.129014
-0.126766
-0.0346358
0.161402
-0.0166195
0.0149715
0.00164802
-0.0639237
-0.156825
-0.0194982
0.014155
-0.166788
0.297344
-0.130556
0.00784063
-0.0143005
0.00540645
0.008894
-0.0875177
-0.150559
0.325387
0.112274
0.0570535
0.039753
-0.15176
0.324567
-0.172806
0.0319609
0.135501
-0.167462
0.107887
-0.312738
-0.129111
0.250645
-0.121534
0.0332274
0.00107787
-0.033228
-0.0529887
0.0862167
-0.00318581
0.0115384
-0.00835257
0.270705
0.221806
0.00185066
0.0174016
0.23537
0.177887
0.0767349
-0.0265094
-0.0502255
0.0300176
0.15235
-0.361774
-0.35217
0.25814
0.0940296
0.191176
0.128894
-0.113649
-0.0152452
0.112446
-0.224298
0.111852
-0.135403
0.0251321
-0.130306
0.0255364
-0.0826321
0.113007
-0.0303748
0.326377
-0.0891132
-0.237264
-0.35141
0.155977
-0.16166
0.0247216
-0.000894706
-0.0153878
0.0162826
-0.371957
0.170342
-0.0083503
-0.104746
0.113096
0.196488
0.272744
-0.0298307
-0.000786241
0.030617
-0.253921
-0.199931
0.453852
-0.144844
-0.0178968
0.162741
-0.178531
0.311025
-0.132493
-0.397902
-0.000577216
0.0985765
-0.115239
0.000890345
0.0176564
-0.0185467
0.0383383
0.00569806
-0.022929
0.0172309
-0.211579
0.0332327
-0.246203
-0.203015
-0.104185
-0.104209
0.208394
-0.00144892
-0.126204
0.246796
-0.120592
-0.212957
-0.137316
-0.0226259
0.0217312
0.0616647
-0.0181984
-0.0434663
-0.286926
0.352609
-0.0656837
0.000910583
0.0118215
0.00221953
-0.00276112
0.000541585
-0.285947
0.119159
0.271433
-0.0202323
-0.251201
-0.0131206
0.148818
-0.135698
-0.0913912
-0.13657
0.138728
-0.266458
-0.065412
0.0568381
-0.00814967
-0.0121244
-0.00139572
0.00623007
-0.00197327
-0.0206526
-0.302585
0.159139
0.143446
-0.0234529
-0.0150543
0.0385072
0.21774
0.086531
-0.382549
0.305134
0.0774152
-0.420222
0.17402
-0.00877554
0.000142215
-0.475093
0.466558
0.00853519
0.13221
0.152039
-0.0137885
0.0194592
0.015193
-0.014843
-0.000350044
0.146474
0.0955559
-0.24203
0.126536
-0.121428
-0.16143
0.0718433
0.187979
-0.461675
0.0180569
0.00495021
-0.0230071
0.224559
-0.0114379
-0.0877007
0.0544727
0.142602
0.0628971
-0.205499
0.0365361
0.0447433
-0.0812794
-0.457466
0.452481
0.00498537
0.136131
-0.200055
-0.476895
0.275767
0.201128
0.0999446
-0.0170039
-0.0829407
0.0512644
0.00189985
-0.0114454
0.00954554
-0.0160444
0.00425144
0.0117929
-0.123965
0.134083
-0.0101172
0.00601749
-0.00682753
0.000810039
-0.00385913
0.112885
-0.1131
0.000215478
-0.0016727
0.0180979
0.111467
-0.0698289
-0.0416385
0.0263674
-0.0357535
0.185109
-0.078442
0.00951781
-0.00377359
-0.0133802
-0.0370859
0.00492042
-0.104244
0.00458354
-0.107537
0.127575
-0.00467717
-0.131695
-0.0490559
-0.144607
-0.00592463
-0.00837582
-0.00135113
-0.00758645
-0.162706
-0.190628
-0.0965515
-0.126023
0.222575
-0.0139832
0.015483
-0.00149979
0.00676764
-0.00215924
-0.0046084
-0.00115442
-0.00536516
-0.019696
0.131784
-0.112088
-0.0159905
0.390954
-0.374964
-0.119699
0.111608
-0.0175564
-0.00346179
-0.0043537
0.0078155
-0.506828
0.300205
0.206623
-0.0292665
0.203659
-0.174393
-0.236924
-0.0513303
0.0650878
-0.0137575
-0.239629
-0.187426
0.0303872
-0.116869
0.120358
0.00721629
-0.0670788
0.348653
0.135374
-0.332188
0.196815
-0.00942581
-0.0093058
-0.378395
0.175703
0.202692
-0.0446364
-0.158856
-0.253982
0.12487
0.364872
-0.315519
0.239717
-0.304691
0.0649738
-0.0128148
-0.0529968
0.0658116
0.0847281
-0.0572561
-0.027472
0.118612
-0.00744712
-0.00759021
-0.016428
0.00110099
-0.00943983
-0.0130088
0.0224487
-0.02066
0.447568
-0.107065
-0.00760678
0.114672
0.0743598
0.0682903
-0.14265
0.136699
0.0767075
-0.213406
0.00390355
0.0951326
0.217617
0.068591
-0.271731
0.115166
0.195202
-0.36818
0.0357922
0.00637528
0.00157273
0.0112246
0.00822279
-0.0269575
-0.324427
0.155663
0.168764
-0.155942
0.00175509
0.159709
0.241018
-0.327978
-0.0922446
-0.421087
0.420303
-0.134528
-0.0522989
0.186827
0.024695
-0.107327
-0.031961
0.00213023
-0.118936
0.110586
-0.299556
-0.0829925
-0.048905
-0.0466309
-0.00469936
0.0269777
-0.0882982
0.040848
-0.262892
0.222044
-0.0102229
-0.00286901
0.0130919
0.00859135
-0.0117772
-0.338486
0.17578
0.00730686
-0.00887795
0.00157109
0.110911
-0.0622885
-0.142086
-0.0373165
0.179402
-0.139667
-0.0162748
-0.159567
-0.204176
0.363743
-0.0418603
-0.169096
-0.107601
0.106522
-0.00724681
0.0059373
0.00130952
-0.0940834
-0.0256554
0.119739
-0.0892934
0.305619
0.0206747
0.00757164
-0.0195787
0.0120071
0.012214
-0.000165215
-0.0120488
0.0275254
0.243908
0.000344986
-0.0125264
-0.0724223
0.140655
-0.0682328
0.0257104
-0.0146602
-0.0110503
-0.0621473
-0.0429469
0.00693174
-0.00533762
-0.297528
0.182165
0.000141306
-0.0306049
0.0286316
0.110875
0.018019
0.171013
0.158396
-0.00972799
-0.127314
0.137042
0.10803
0.276904
-0.114087
-0.126632
0.00266623
0.203729
-0.0611273
0.0355784
0.0547589
-0.0903374
-0.0569464
-0.167955
0.0126755
0.0130349
-0.00763706
0.0242258
0.443681
-0.20831
0.105388
-0.101485
0.10911
-0.121799
0.012689
-0.140549
0.120853
-0.1332
0.110922
0.0222779
0.0135073
-0.0119346
-0.134902
-0.157932
0.292834
0.111222
-0.106639
0.0564178
-0.060885
0.00446721
0.119907
-0.114931
-0.00497581
-0.006057
0.262507
-0.145964
-0.116543
-0.00699355
0.0271894
-0.0155453
-0.0116441
-0.0905591
0.241461
-0.150901
-0.0010363
-0.00526846
0.00630476
-0.11941
0.00230527
0.117105
-0.206677
-0.30015
0.00075885
0.00235274
0.0108947
-0.12522
-0.122867
0.248087
-0.020466
0.159631
-0.139165
-0.0142508
0.0112972
0.00295364
-0.229895
0.139335
0.00480934
-0.00667866
0.00186932
-0.0937824
0.258767
-0.305012
0.130747
0.174266
-0.150048
-0.121682
0.193056
-0.024139
-0.168917
-0.258708
0.287254
0.155543
-0.442797
-0.0233894
0.0139495
-0.297964
-0.178931
0.102906
-0.165544
0.301362
-0.135818
-0.060595
0.0472148
-0.099607
0.00335599
0.096251
-0.294401
0.159499
-0.221562
-0.199861
0.00646613
-0.00165679
-0.153103
-0.119734
0.0344144
-0.0457276
0.0113132
0.0216098
0.00186383
-0.167981
0.00810785
0.0965072
-0.0353536
-0.183325
0.0487972
-0.145872
0.230752
-0.0848794
-0.0107184
-0.000277243
-0.110882
0.123446
-0.0105617
0.0490408
-0.239454
0.190414
-0.152968
-0.0150128
-0.0253605
-0.171911
-0.000707254
-0.106126
-0.164299
0.376531
-0.190076
-0.186456
0.190138
-0.0324859
0.202576
0.00227305
0.015271
-0.0175441
0.121654
0.0119399
0.262935
-0.164879
-0.0980556
0.176778
-0.393864
-0.0776064
-0.115291
0.192897
-0.0234631
-0.136578
0.0253218
-0.003712
0.181359
-0.314696
0.133337
0.199091
-0.432952
0.233861
0.012572
-0.0116816
-0.298607
0.131314
0.167293
0.0118761
0.10977
-0.121646
0.0294336
0.0420012
-0.0714348
0.14775
-0.050162
0.00129431
-0.0115172
-0.343758
0.184192
0.0157534
-0.0640196
-0.277774
-0.137606
0.00440581
-0.0116839
0.0460983
-0.102445
-0.161109
-0.00261607
0.163725
-0.193444
-0.219059
0.412503
-0.122964
-0.0146422
0.129261
-0.0113343
0.0107148
0.000619481
0.00236686
0.0103855
-0.046981
-0.0359847
0.0829657
0.0584429
0.0308197
-0.0892626
-0.136707
0.162497
-0.0257903
0.0958495
0.148884
-0.244733
-0.143869
-0.0441745
0.188043
1.24054e-05
0.0144719
-0.0144843
0.0226731
-0.0134414
-0.00923176
-0.198053
0.324181
-0.126128
0.0457816
-0.00760251
-0.0381791
0.0260006
0.424067
-0.224976
0.0253042
0.0903769
-0.126839
0.0364622
-0.0983758
0.0126218
0.152907
0.00113156
0.0176052
-0.0164358
-0.00729624
0.023732
-0.0199888
0.00296128
0.0170275
0.00299602
-0.00796302
0.004967
0.0125361
0.00544636
-0.0179824
0.0123864
-0.01476
-0.155663
0.0189563
-0.513929
0.219747
0.294182
0.0539967
0.0902971
-0.144294
0.139262
-0.159728
0.148433
0.148237
-0.296669
0.109418
-0.234638
-0.0147981
-0.000738726
0.0155368
0.190062
0.135386
0.104094
-0.117214
-0.000911505
-0.0161692
0.0170807
0.0438006
-0.0554844
-0.0205106
-0.00443365
0.0249442
0.0822993
-0.0886897
0.0174346
-0.0619137
-0.11312
0.00176975
0.111351
-0.133562
0.00417702
0.129385
0.0281844
-0.4784
-0.00120693
-0.350882
0.334892
-0.0363977
0.0332263
0.0266072
-0.05006
0.0628621
0.366575
0.157427
-0.0291786
0.227349
-0.042761
0.00105794
0.0417031
0.0157509
-0.013384
-0.0485541
-0.0432565
-0.048925
0.0921815
0.210272
0.201517
-0.411789
0.0909924
0.0146608
0.00515729
-0.116804
-0.00167647
-0.00648298
0.00815945
0.420315
-0.210044
0.192888
0.183643
0.470445
-0.253707
-0.216738
0.0480953
-0.191964
0.143712
-0.0220575
-0.157137
0.334225
-0.128121
-0.346972
0.125266
-0.0231744
0.141648
-0.297473
0.154896
0.142576
0.0338909
-0.106313
0.227036
-0.177995
-0.188099
0.162738
-0.11363
0.248638
-0.135007
0.320224
-0.130162
-0.146804
0.112753
0.0340511
-0.0985495
0.0388441
0.0597054
-0.000324191
0.0185661
-0.0182034
0.0198643
-0.0393493
0.019485
-0.0281318
0.0158626
-0.115409
0.110561
-0.103252
0.11798
0.0886578
-0.00844984
-0.080208
0.0168916
-0.000379435
-0.0165122
0.192291
-0.298417
0.427541
-0.446188
0.0186475
-0.354004
0.271119
0.0146855
0.0560571
-0.0707426
0.103542
-0.0523222
-0.014246
0.0665682
-0.0233135
0.14289
0.00428189
0.016945
-0.0170733
0.0161618
-0.0437454
0.0703525
0.00895512
-0.0467045
0.0128196
0.00985354
0.168046
-0.190014
0.254803
-0.0647885
0.179618
0.169677
-0.349295
0.240069
0.236121
0.158396
-0.30154
0.143143
-0.00519618
0.0360274
-0.00037112
-0.0222257
0.133148
0.119936
-0.0295588
-0.00562402
0.00541359
0.000210433
0.00465324
-0.00568954
-0.175175
0.151712
-0.168173
-0.134413
0.000852785
0.055565
0.120436
-0.130164
-0.00790584
0.0402768
-0.0722699
0.0779301
0.180997
-0.0175179
-0.163479
-0.0209539
0.00451807
-0.00514142
0.00736096
-0.063482
0.0130839
-0.00556204
0.0232184
-0.129337
0.41659
-0.240631
-0.11615
-0.197046
0.11944
-0.00972374
0.00847926
0.00124449
0.0840339
-0.313679
0.24966
0.217182
-0.128227
-0.0889542
0.122287
0.10901
-0.299024
-0.00617787
-0.00354588
0.112354
0.169568
-0.281922
-0.0187672
-0.446835
0.218922
0.164577
0.00887578
0.0910688
0.141626
-0.0723458
0.209045
-0.00797112
0.00634392
0.0016272
0.48162
-0.268553
-0.213066
0.130585
-0.0263544
-0.10423
-0.0110398
0.120597
-0.109557
-0.0739732
-0.139406
-0.140593
0.29899
0.00465967
-0.00406514
0.159152
0.0521622
-0.14003
-0.0230469
-0.0666416
0.0538268
0.00231164
-0.203583
-0.172875
-0.00137853
0.0192335
-0.0178549
-0.151675
0.0891854
0.06249
0.0919812
0.154861
-0.246842
-0.0888993
0.10821
-0.0193111
0.339638
-0.224368
-0.115269
-0.0676949
0.100667
-0.0329723
0.130842
-0.227394
0.328043
-0.0175304
0.0257359
0.0941708
0.142986
-0.244569
0.101583
-0.0127757
0.00770814
0.00506756
0.00449905
0.00501876
0.12783
-0.134166
0.269516
-0.13535
0.151199
-0.184058
0.0328588
-0.169731
-0.116216
0.108493
-0.214575
-0.0277145
-0.0484631
-0.406416
-0.171438
-0.206956
-0.283402
-0.0756431
0.0983224
-0.0226792
0.110972
-9.66685e-05
-0.0610232
0.171469
-0.110445
0.0182152
-0.00567918
0.146915
0.00860962
0.110673
-0.000800824
-0.0191663
0.254731
-0.111745
-0.406736
0.367959
0.0387775
-0.110817
-0.00859328
-0.0980948
-0.0142361
0.00550711
0.00872902
-0.0115625
0.00146406
0.0100985
0.127147
-0.0278003
-0.0993472
-0.346594
0.157839
0.188755
0.118256
-0.115782
-0.00247447
-0.000804758
0.0185279
-0.16295
-0.161477
-0.00492617
0.000238766
0.0046874
-0.00769059
-0.0247991
0.00428849
-0.158379
-0.145444
0.526611
-0.303035
-0.223577
0.0208641
0.137554
-0.0262093
-0.111345
-0.363303
0.49693
-0.133628
-0.217459
0.0632657
-0.159525
-0.112186
0.271712
0.109832
-0.181528
0.131921
0.0496067
-0.302465
0.180958
0.121508
-0.0145857
-0.00354298
0.472333
-0.0310697
0.272157
0.254454
-0.00494816
0.00534429
-0.000396128
-0.106585
-0.0490786
0.0162352
-0.00871363
0.129362
-0.307894
-0.0990589
0.0520779
0.0237695
-0.134919
0.11115
0.382304
-0.214636
-0.167668
0.109386
-0.106512
0.159718
-0.304361
-0.0119266
0.0152463
-0.0166248
0.289087
-0.122992
-0.166095
0.00364956
0.014206
-0.0178556
0.142392
0.21157
-0.353962
-0.211556
-0.135038
-0.000534515
0.33864
-0.148884
-0.189756
0.00829379
-0.00829379
-0.158475
-0.00263468
-0.379907
-0.0268293
-0.00727826
0.0101244
-0.00284609
-0.217846
0.39945
0.0147477
-0.0824426
-0.518169
0.291454
0.226715
-0.137592
0.243396
-0.105804
0.443394
-0.439585
-0.0038089
-0.140896
0.0798732
-0.288123
-0.230045
-0.352881
0.212053
0.140828
0.211394
0.232287
-0.21587
0.361082
-0.145212
-0.141081
0.285095
0.00905813
0.213224
-0.383835
0.170611
0.00936245
-0.0094821
0.000119649
-0.000490769
-0.159686
0.27204
0.00501746
-0.15748
-0.200795
-0.234537
0.435332
-0.00978023
0.00542652
-0.00972677
0.00150991
0.0848534
-0.0515571
-0.0332963
-0.01371
0.0157339
-0.00202388
0.131499
-0.138394
0.00689476
0.211781
-0.178481
0.10051
0.0779712
-0.158999
-0.146014
0.0970641
0.0593182
0.327966
-0.192592
0.166857
-0.134896
0.0178928
0.00929657
-0.172415
-0.209555
0.158994
-0.225683
0.0233125
0.202371
-0.0635009
0.0111787
-0.0146961
0.0173188
-0.00262264
-0.0923733
-0.0593021
-0.0294138
0.0246612
-0.014513
-0.0922384
0.106751
0.112958
-0.100164
-0.0127942
-0.0148003
-0.0643885
0.0284038
0.0329444
0.00235526
-0.0352997
-0.00433949
0.0201381
-0.0157986
-0.144547
-0.0108178
0.155365
0.000631196
-0.0172507
-0.00024598
-0.0859289
-0.0925525
-0.148099
-0.150508
-0.308643
0.399633
-0.0514985
-0.047051
-0.0340424
-0.191641
0.0581394
0.0185955
0.00098344
0.154726
-0.00781176
0.0783905
0.0510532
-0.129444
-0.144943
0.32456
0.0228763
-0.0125411
-0.00335086
-0.00542975
0.00878061
-0.00546039
-0.0941466
0.00184389
0.0150477
-0.293946
0.142185
-0.11563
-0.147096
0.00576763
-0.00682421
0.00105658
-0.213909
0.37406
-0.160151
-0.358971
0.139447
0.000494505
0.00801525
-0.127815
-0.0739492
0.201764
-0.0173271
0.0775406
0.0133604
-0.0151042
0.00174375
-0.00294247
0.0209994
0.0642619
-0.192077
0.330911
-0.481514
-0.0214744
0.0220167
-0.000542226
-0.137321
0.13885
-0.00152981
0.0136637
0.0795971
-0.0932607
-0.353359
-0.0752511
0.0735324
0.00171873
-0.0452263
-0.0507908
0.0960171
-0.000993998
0.0526075
0.273127
-0.325735
-0.00736821
0.00233822
0.00502999
-0.239515
-0.202775
0.160915
0.129794
-0.299525
-0.245565
-0.244159
-0.123061
0.0157638
0.107297
0.362321
0.0652198
-0.0941776
-0.113091
0.207269
-0.229338