/*--------------------------------*- C++ -*----------------------------------*\
| =========                 |                                                 |
| \\      /  F ield         | OpenFOAM: The Open Source CFD Toolbox           |
|  \\    /   O peration     | Version:  v2012                                 |
|   \\  /    A nd           | Website:  www.openfoam.com                      |
|    \\/     M anipulation  |                                                 |
\*---------------------------------------------------------------------------*/
FoamFile
{
    version     2.0;
    format      ascii;
    class       surfaceScalarField;
    location    "100";
    object      ddtCorrDdt0(phi);
}
// * * * * * * * * * * * * * * * * * * * * * * * * * * * * * * * * * * * * * //

dimensions      [0 3 -2 0 0 0 0];
oriented        oriented;


internalField   nonuniform List<scalar> 
26997
(
0.00126675
0.00568211
-0.00694886
-1.4831e-06
3.45985e-06
-1.97692e-06
-0.000326299
0.000307483
1.88181e-05
-9.16e-05
-5.46938e-05
0.000146294
0.00264861
0.000396633
-0.00304524
3.79124e-05
-2.43528e-05
-1.35595e-05
9.90915e-06
-7.14404e-06
-2.76504e-06
-3.21173e-06
7.81679e-06
-4.60441e-06
-2.58617e-06
-2.54657e-05
2.80524e-05
0.00706641
-0.00579966
-2.41647e-06
9.33027e-07
0.000116801
-1.19788e-05
-0.000104823
8.66642e-06
-2.94993e-08
-8.63706e-06
-5.96363e-05
-8.28806e-07
6.04649e-05
-1.1666e-05
1.16113e-05
5.47602e-08
4.93738e-06
5.41878e-07
-5.47892e-06
0.000189938
-0.000264638
7.46991e-05
-1.30973e-06
-2.73708e-06
4.04748e-06
3.30172e-06
3.31208e-06
-6.61396e-06
0.00146191
0.00276514
-0.00422706
2.45201e-06
3.81671e-07
-2.83341e-06
3.19502e-05
-3.19501e-05
-5.90895e-06
2.63644e-06
3.27253e-06
-1.93232e-06
2.14732e-06
-2.16206e-07
0.00322925
-0.00977835
0.00654911
0.00884538
-0.011415
0.00256957
3.41255e-06
-6.62342e-06
0.00571526
-0.00146279
-0.00425252
1.46031e-07
1.43989e-06
-1.58595e-06
2.86786e-06
-5.44591e-06
2.57799e-06
3.1495e-05
-2.07795e-05
-0.0205341
0.0161906
0.00434343
-0.000403995
0.000127422
0.000276575
0.00768961
-0.00446035
0.000986382
0.00136184
-0.00234822
-3.77748e-07
-1.72304e-06
2.10068e-06
-2.83506e-06
-1.99543e-05
2.27896e-05
3.78418e-05
-1.82467e-05
-1.95952e-05
-7.8187e-05
8.46452e-05
-6.45908e-06
-3.49727e-05
0.000151774
3.31658e-05
-3.5752e-05
-4.12148e-06
-2.20591e-06
6.32754e-06
2.6463e-05
-4.30636e-05
1.66007e-05
5.21509e-06
-1.91337e-06
-0.00103676
0.00349273
-0.00245597
2.74552e-05
-2.71876e-05
-2.6745e-07
-2.2763e-07
2.58526e-06
-2.35781e-06
0.00030506
-0.00171123
0.00140618
-2.34862e-05
-8.71663e-06
3.22027e-05
-0.00179619
0.00325809
0.017043
0.00329644
-0.0203394
0.000318062
-0.000128124
-2.70838e-05
3.59764e-06
6.90235e-06
-4.93208e-06
-1.97028e-06
2.50744e-05
2.3809e-06
-2.42405e-06
8.48939e-07
1.57484e-06
0.00298477
0.000182549
-0.00316735
-6.60345e-07
1.67426e-06
-1.01393e-06
0.00237201
-0.00138562
-8.932e-07
-1.5312e-06
2.54293e-05
0.000163529
-0.000188959
1.35991e-05
-1.52734e-05
1.67453e-06
2.94927e-05
-3.79546e-05
8.46198e-06
2.41487e-06
-1.60595e-06
-8.0901e-07
4.52995e-06
-5.93574e-06
1.40581e-06
-5.54239e-07
1.16299e-05
-1.10755e-05
-8.07724e-06
8.23793e-06
-1.60522e-07
-7.77582e-08
5.01539e-06
0.000613639
-0.00045095
-0.000162691
5.75513e-05
-2.70074e-05
-3.05439e-05
1.00333e-05
-1.36698e-06
-0.000195689
0.000104089
-0.000436942
0.000716479
-0.000279536
-4.0978e-05
1.55125e-05
3.51406e-05
2.24106e-05
0.00040816
-0.000356823
-5.13376e-05
4.28221e-05
-0.000774082
0.000731262
-0.000166708
0.000419187
-0.000252482
0.00031348
0.000414644
-0.000728129
-8.77424e-05
0.00016179
-7.40497e-05
-1.14251e-06
3.5947e-06
-0.000240692
0.000217059
2.36328e-05
0.00345123
-0.000802626
5.05835e-05
-2.41417e-05
-2.64418e-05
-2.22898e-05
1.71595e-05
5.13029e-06
0.000165399
-0.00013997
-0.000582319
0.000219586
0.000362733
7.34722e-07
1.68013e-06
-1.43819e-06
4.13908e-06
-2.70095e-06
-0.000649947
0.00069277
3.25571e-05
1.80264e-05
-0.000127065
0.000103338
2.37271e-05
2.64873e-06
-3.89576e-06
2.45747e-06
-2.06388e-05
-2.03395e-05
1.28475e-06
-2.70791e-06
1.42315e-06
-2.14061e-05
0.000339677
-0.000318271
-1.26292e-06
6.0264e-07
-0.00107088
0.000425413
0.000645461
0.000334635
-0.000306074
-2.85617e-05
2.01984e-05
-7.08909e-05
5.06924e-05
7.11371e-06
2.10415e-05
-2.81546e-05
5.68772e-06
-2.82003e-06
0.00373482
0.00198039
-4.91328e-05
1.53857e-05
3.3747e-05
0.00149619
0.00148855
-4.36823e-05
3.28445e-05
1.0838e-05
9.45496e-06
-3.37097e-06
-6.08392e-06
-6.28362e-05
-0.000130641
0.000193477
-3.33359e-07
-1.59637e-06
1.92974e-06
0.000347001
-0.000113525
-0.000233476
-0.00391085
0.000275473
0.00363538
8.23625e-05
0.000373944
0.000239697
-3.27756e-06
3.36365e-06
-8.51673e-08
0.00217813
0.00155665
0.000330121
-0.000496831
2.07208e-05
-3.79757e-05
1.72553e-05
-2.48342e-07
-1.68432e-06
6.43292e-05
-3.60901e-05
-2.82391e-05
-5.66813e-09
2.87518e-06
-2.86988e-06
3.70542e-05
2.72751e-05
-9.82655e-06
3.05479e-05
2.06375e-05
-1.15213e-05
-9.11605e-06
-2.02508e-06
3.59349e-06
-1.56788e-06
-3.09048e-06
6.74007e-06
-3.64994e-06
-6.13694e-06
3.04628e-06
0.000364366
-0.000299313
-6.50523e-05
3.16252e-05
-2.75514e-05
-4.07377e-06
-2.12673e-06
6.28321e-07
1.49844e-06
5.57829e-06
4.33089e-06
-3.56605e-07
-1.59674e-06
1.95337e-06
-0.00168469
0.00116926
0.000515434
6.00347e-05
-3.98367e-05
-0.000170915
-0.000233081
0.00462342
-0.0024453
2.97292e-06
8.76567e-06
-1.17395e-05
0.000756864
-0.000443388
3.50695e-05
-3.44428e-06
0.000158326
-0.0124364
0.012278
-4.36517e-06
-2.12105e-06
6.48646e-06
-3.82767e-06
3.82208e-06
-5.71783e-06
7.11106e-07
5.00665e-06
0.000748632
0.00444018
-0.00518882
-4.77858e-05
3.95689e-05
8.21707e-06
0.00133524
-0.00503207
0.0057807
1.94683e-05
-2.23033e-05
1.71619e-05
-8.04286e-05
6.32676e-05
0.000253847
-0.00020869
-3.45108e-05
0.000243202
1.21885e-06
2.23978e-06
-3.45877e-06
-0.0126549
0.0128132
-0.000276347
0.000169256
0.000107093
-0.000211423
0.000253536
-4.21138e-05
-3.78911e-05
5.50535e-05
-3.27936e-06
2.87011e-05
-2.54207e-05
1.64336e-05
-1.40808e-05
-2.35147e-06
-0.000208897
-2.52707e-06
-2.09508e-06
-1.18333e-06
6.00667e-06
8.39835e-06
-1.44048e-05
-0.000323216
5.00459e-05
0.00027317
-0.000207953
0.000119571
8.83762e-05
3.46167e-05
-8.1536e-06
-1.72679e-06
1.37028e-06
0.000262899
-7.75036e-05
-0.000185395
0.000372238
-0.000488851
0.00011661
5.43509e-06
2.38166e-06
-0.000280665
0.000166611
0.000114053
-2.45339e-05
2.12548e-05
-0.000518925
1.00977e-05
0.00050883
-0.00869655
-0.0137012
0.0223977
1.2173e-05
-4.97482e-06
-7.19848e-06
0.000160884
0.000968529
-0.00112941
-4.18355e-05
4.05673e-05
1.26815e-06
0.001673
-0.00348487
0.00181188
2.04173e-05
0.000144982
0.00923464
0.0083764
-0.017611
-1.61674e-06
2.46557e-06
2.27535e-06
3.64164e-07
-2.63957e-06
1.52439e-05
5.39368e-06
-6.20613e-05
-6.50026e-05
-0.00703715
0.0162718
0.000469282
7.21159e-05
-0.000541398
1.23321e-05
-2.34933e-06
-9.98241e-06
-1.30724e-05
3.53119e-05
-2.22394e-05
1.25475e-06
-8.97941e-06
7.72296e-06
2.77717e-06
-2.49486e-06
-2.82823e-07
4.29332e-06
9.13139e-07
-5.20604e-06
-3.70797e-05
4.29644e-05
-5.88448e-06
1.11804e-05
5.2538e-06
2.26638e-06
1.00659e-05
0.00106904
-0.000599757
1.8411e-06
1.74618e-07
-2.01581e-06
-0.000492455
0.000169236
-0.000318769
-1.72194e-05
0.000335987
2.65574e-05
-0.000345327
0.000575295
0.000640815
-0.00121611
1.61085e-06
-5.97594e-06
-6.99494e-06
-1.08217e-06
-0.000140678
2.19985e-05
0.000118682
-0.000138242
-0.000932638
-0.000143384
-0.000137283
2.10441e-06
1.26007e-06
-9.57177e-07
-1.43433e-06
2.39134e-06
-0.000142611
-3.6765e-05
0.000179376
4.82783e-07
-4.62405e-06
4.14137e-06
-0.000188206
0.000133512
0.000171389
-5.81647e-05
-0.000113224
0.000379196
0.000166743
-0.000545942
4.56615e-06
7.60641e-06
7.57601e-06
-0.000150187
0.000134623
0.00038065
-1.45376e-06
-8.05833e-06
5.28923e-06
2.76919e-06
4.13995e-06
-6.26093e-06
0.00198692
-0.00168185
3.45551e-06
3.44687e-06
1.26195e-05
-1.43989e-06
2.89381e-06
2.96048e-06
-5.85404e-06
-0.000172931
-6.776e-05
0.00628931
-0.011076
0.00478672
6.1128e-05
-4.79579e-05
-1.31701e-05
-1.58696e-05
1.30991e-05
2.77054e-06
1.90457e-06
-6.35303e-08
-9.04662e-05
-0.00494161
1.19531e-05
1.64607e-06
-3.2473e-06
7.73577e-06
-4.48867e-06
-0.000734778
0.00032769
0.000407086
-1.70301e-05
1.00096e-06
1.60292e-05
2.27003e-05
-2.0188e-05
-2.51218e-06
-6.26932e-05
4.17774e-05
2.09158e-05
0.00670428
0.0021411
-2.39132e-05
-3.87799e-05
-0.000156956
0.000209324
-5.23645e-05
0.00776436
-0.00147505
-0.0151373
0.0229016
3.0929e-05
-4.42872e-05
1.33586e-05
-0.000197939
6.87038e-05
0.000129236
0.000142812
-6.95022e-05
-7.33102e-05
-9.14785e-06
8.5937e-06
1.42829e-06
-6.10649e-05
2.00271e-05
2.6733e-06
-0.00448875
0.00439827
-1.32881e-05
-2.58151e-06
-6.69151e-05
3.84384e-05
2.84769e-05
0.0011876
-0.000706927
-0.000480667
-2.98609e-05
-0.000208494
0.000120751
3.15175e-05
6.39498e-06
0.0063666
-0.0174426
-3.93925e-06
6.83319e-06
-4.05777e-06
-5.36905e-06
9.42653e-06
-1.75516e-05
0.00012535
-0.000107799
-3.345e-06
-2.67475e-06
2.18403e-06
4.90481e-07
-1.80075e-06
5.9407e-06
-2.16761e-06
7.0083e-07
1.46679e-06
-1.16982e-05
7.6408e-06
2.40882e-06
-1.12404e-06
-0.000174947
0.000136799
3.81482e-05
-0.000165429
-9.51873e-06
1.16558e-07
2.6605e-06
3.32077e-05
-5.05595e-05
1.73517e-05
-1.37457e-06
-1.30022e-06
-4.38445e-05
-1.24952e-06
4.50943e-05
0.000902276
5.46724e-05
-0.000956951
-2.36578e-06
7.80054e-06
-3.28584e-05
1.97861e-05
0.00220184
0.00453491
-0.00673676
9.44896e-06
-5.57942e-06
-3.86926e-06
1.24907e-06
-2.20642e-06
0.000428407
-5.61701e-05
-0.0139535
-0.00658059
0.000731439
-0.000437317
-0.000294121
-9.10849e-06
8.70242e-06
4.06209e-07
0.0168241
0.000218982
-1.22635e-05
-1.00262e-05
2.38831e-06
1.07145e-06
-0.00031502
0.000293614
1.00347e-05
-4.45642e-06
-0.000147764
-0.000434555
1.15091e-05
-7.65073e-06
-3.85833e-06
-2.32762e-06
-1.39201e-06
0.000133484
0.000230882
-0.00021034
0.000305096
-9.47577e-05
-9.09367e-05
7.33847e-05
-9.52379e-06
8.43449e-06
1.08941e-06
1.37029e-05
-9.8085e-06
-3.89394e-06
7.36561e-05
-0.000136492
0.00405995
-0.00119093
-0.00286895
-2.03256e-06
1.65479e-06
2.67468e-06
3.50637e-06
-6.18049e-06
-6.25461e-05
2.6456e-05
2.2167e-05
9.78323e-06
1.3238e-05
-9.06798e-06
-4.16999e-06
-0.0043062
-4.19999e-05
-2.05462e-05
0.00129165
-0.000389373
2.88827e-05
-2.83348e-05
-5.47437e-07
-1.34845e-05
0.000556633
-0.000543142
0.000578709
-5.10143e-05
-0.000527694
-7.14444e-05
-6.74384e-06
5.62101e-06
-1.74319e-06
-3.87774e-06
9.58825e-05
0.000635557
-0.000123266
0.000137152
-1.3886e-05
5.1803e-06
-8.72348e-06
3.54317e-06
2.74717e-05
-2.03576e-05
6.22697e-06
7.47622e-06
3.68961e-06
-2.54026e-06
-1.14935e-06
5.10762e-07
-2.5357e-06
-4.26589e-07
-3.07949e-07
7.34403e-07
-9.84932e-06
-1.65971e-06
1.1509e-05
5.97235e-06
4.06239e-06
4.30858e-05
1.95641e-07
-4.32816e-05
-3.79581e-05
1.30917e-05
2.48664e-05
-0.000197386
0.000204962
4.31956e-05
4.96497e-06
4.48407e-06
-0.000868095
-0.000598641
0.00146674
-1.05371e-05
9.83254e-06
7.04637e-07
-0.000109736
-8.27067e-06
2.85081e-05
-3.43368e-06
-2.65214e-05
-1.14366e-05
2.88594e-07
3.40086e-06
-0.00047028
0.000143983
-2.00549e-06
-9.60479e-07
2.96598e-06
-0.00014595
8.77849e-05
-2.67532e-05
-1.6929e-05
3.20607e-05
-4.67505e-05
1.46897e-05
-8.78798e-06
1.10129e-05
-2.22485e-06
-4.98625e-06
-1.64583e-06
6.63214e-06
8.10919e-06
3.3999e-06
-1.21368e-06
-1.58286e-06
2.79694e-06
-6.77021e-05
-7.82475e-05
0.000198572
-0.000202461
3.88933e-06
-1.6612e-05
2.92211e-05
-1.26086e-05
6.95212e-06
-5.34807e-06
-1.60418e-06
-0.000470039
0.000456555
1.00266e-07
-5.27089e-07
-2.55736e-05
-0.000171813
1.58833e-06
2.22099e-06
-5.41384e-06
3.19267e-06
-1.91529e-06
1.58199e-06
0.000524189
0.000843079
-0.00136727
-1.36875e-06
-3.53507e-07
1.72224e-06
-2.10005e-05
8.52296e-06
1.24775e-05
-3.79903e-05
-1.11425e-05
0.000439414
-1.10059e-05
1.60979e-05
-1.69456e-05
8.47709e-07
0.000113048
2.97633e-05
-5.45322e-07
-4.75079e-07
1.02028e-06
-0.000440579
-0.00105097
0.00149154
-2.77903e-06
-3.12989e-06
-5.69121e-06
1.20893e-05
-0.00272453
0.00413338
-0.00140881
-0.000106583
-1.66836e-05
4.45872e-05
-5.42631e-05
9.67583e-06
7.38568e-06
-2.02839e-06
-5.35711e-06
7.31151e-06
3.44659e-05
-3.91602e-06
-0.00133802
0.0019133
-3.46884e-05
2.78146e-06
2.57268e-05
-9.95406e-07
-1.92265e-06
2.9181e-06
-1.31585e-05
7.84915e-06
5.309e-06
5.86017e-06
3.0121e-05
-3.59805e-05
1.67174e-05
-6.69684e-06
-1.00205e-05
-1.87274e-05
9.38596e-06
9.34188e-06
4.07094e-06
-7.31811e-06
5.50155e-05
0.00110348
-0.00115849
4.61379e-06
2.33825e-06
3.89151e-05
-7.98584e-06
9.19333e-06
-1.05025e-05
0.000329075
-1.39113e-05
-0.000315165
-3.93099e-06
-1.22273e-06
-3.38622e-05
5.82079e-05
-2.43457e-05
2.41134e-06
-1.5477e-06
-8.63824e-07
-9.56945e-05
1.78193e-05
7.78754e-05
-0.00320732
-0.00156456
0.00477184
-6.44353e-05
3.0573e-05
4.54613e-07
1.47946e-06
-1.93404e-06
-3.63705e-05
4.54233e-05
-9.0534e-06
-4.29402e-05
-5.27541e-05
-2.08621e-06
2.46799e-06
0.00128105
2.82316e-05
2.99762e-05
0.000560577
0.000300178
-0.000860757
3.43998e-05
-1.72194e-05
-1.71804e-05
7.30269e-08
-2.29009e-06
2.21722e-06
0.00651038
-0.00779012
0.00127976
0.000151329
-0.000128941
-2.23872e-05
-3.29051e-06
4.68489e-06
-1.39438e-06
5.25405e-05
-2.60915e-05
-2.6449e-05
-2.34246e-06
1.34719e-06
-0.000216348
-2.06994e-05
0.000237047
2.28788e-05
2.96615e-05
-2.17136e-05
4.97581e-05
-2.80446e-05
-6.78696e-06
-1.53858e-05
5.07065e-05
-3.53208e-05
-2.01595e-06
2.0891e-06
-9.80896e-06
8.88342e-06
9.25743e-07
3.62429e-07
-3.74421e-05
-0.000613242
0.000176302
0.000970709
-0.00975358
0.00878286
3.29726e-05
-4.83584e-05
-1.24424e-05
9.70564e-06
-0.00506119
0.00205252
0.0030087
0.00121555
-0.00123367
1.81234e-05
3.87736e-06
1.22206e-05
-1.69353e-05
-1.01485e-05
0.000527733
-0.00150887
0.000981139
-8.39393e-07
-1.86855e-06
-1.75114e-06
2.30947e-06
-5.58357e-07
-2.14994e-06
-1.68218e-05
1.89718e-05
4.03215e-06
2.61437e-07
2.27504e-06
-1.10629e-05
-2.13653e-05
4.42994e-06
0.00237552
0.00351174
-0.00588726
-0.00266577
0.00504131
-0.000114148
-2.35889e-05
0.000137738
-4.5929e-06
1.30242e-06
9.44308e-07
-1.29785e-06
2.02261e-05
1.12689e-05
4.36428e-06
-2.51438e-05
-0.000533594
0.000450822
8.2774e-05
-7.15941e-08
2.31344e-06
-2.24181e-06
2.82408e-05
1.15223e-07
-2.83559e-05
3.79111e-06
1.83e-06
0.000265703
0.000949851
-1.83875e-05
2.30679e-05
-4.68038e-06
-4.18615e-06
7.14681e-06
-4.60953e-06
-8.54945e-06
0.000160704
-0.000178597
1.78921e-05
-0.000868805
0.000590124
0.000278683
0.0021703
-0.00243544
0.000265153
0.000253806
-3.05734e-05
-0.00022323
-0.000186162
0.000493647
-7.61691e-05
-0.00041226
0.000488428
0.000304571
-0.00038074
4.02731e-06
-5.45061e-06
1.4234e-06
7.81078e-05
-0.000597032
0.000791113
-0.00165921
-4.08218e-06
-3.78854e-05
1.51484e-06
5.39398e-05
-0.000788719
-0.00026512
-0.000268473
-6.65421e-06
7.90879e-06
9.43254e-07
1.46799e-06
2.22703e-05
5.97049e-06
2.88308e-06
-1.08197e-05
7.9367e-06
-2.55679e-05
1.16709e-05
1.38976e-05
0.000152282
0.000169826
-0.000322109
-7.25513e-06
2.48102e-06
4.77399e-06
1.29396e-06
-5.47997e-06
-9.73715e-06
-8.99036e-06
8.08114e-06
5.15684e-06
-5.87453e-05
2.0884e-05
3.78617e-05
2.75966e-05
-1.01775e-05
-1.7419e-05
5.94849e-06
-1.05504e-05
-1.11561e-06
0.000481357
1.60211e-06
-4.74206e-06
3.14043e-06
-2.90855e-06
1.34094e-06
-0.000790667
9.53532e-05
0.000695314
-6.36314e-06
3.71126e-07
5.9923e-06
0.0015851
-0.000429905
-0.00115519
2.44183e-06
-2.43904e-06
-2.66249e-09
-2.86925e-05
2.34018e-05
5.29139e-06
0.00010986
-8.94427e-05
0.000397364
0.000790245
-2.15025e-06
6.28044e-05
-0.000176951
1.40887e-05
-2.57744e-05
1.16858e-05
4.85477e-05
-3.96041e-06
0.00309444
0.000993594
-0.00408802
8.39055e-05
9.17783e-06
-9.30815e-05
-9.73131e-05
0.000280908
-0.000183596
0.00129228
0.000203874
-1.96618e-06
7.14621e-06
0.000192233
0.000215928
-0.000339114
0.000130425
-1.11644e-05
0.000171868
-1.99854e-05
-2.5901e-05
4.5886e-05
9.05485e-06
6.28393e-06
-1.53357e-05
-2.3905e-05
1.20679e-07
2.37844e-05
-3.14226e-06
-6.38151e-06
-6.20701e-06
-1.08285e-05
1.70359e-05
5.80418e-06
-2.01306e-06
0.00011897
1.53277e-05
-0.000134298
-0.00726772
0.0136343
1.47347e-06
8.24336e-05
2.2744e-06
-1.60361e-05
1.37599e-05
7.63387e-06
-9.04725e-07
-6.72921e-06
1.20748e-06
1.14274e-06
-2.35012e-06
2.33535e-06
-8.38171e-07
-1.49712e-06
-6.58618e-06
8.68363e-07
-1.9436e-06
-1.0156e-07
2.04522e-06
-3.78263e-06
1.89121e-06
1.89214e-06
-0.000418124
-0.000188372
-9.56509e-06
1.50672e-06
-2.22373e-06
7.16916e-07
1.1247e-05
-1.74543e-05
-7.85771e-06
-1.25065e-06
7.45272e-05
0.00571359
-6.57788e-06
-7.85081e-07
5.31505e-06
-1.51075e-06
-8.29818e-06
-1.0372e-05
-2.15781e-05
7.28863e-05
-0.000148697
7.58108e-05
-0.00015797
0.000350785
-0.000192816
0.00255758
-0.00038728
-1.46067e-06
1.56827e-05
0.000344282
-0.000359961
-6.43128e-07
-1.52447e-06
1.52447e-06
1.10951e-05
-0.00314798
0.00354462
-0.00141898
0.000153896
-3.49254e-05
1.23004e-05
0.000328258
-0.000194774
-1.81087e-07
-1.76215e-06
-5.57339e-08
2.49751e-06
2.49924e-05
1.28495e-05
8.25094e-06
1.20411e-06
8.25055e-05
-0.000298854
-4.09551e-05
9.30295e-05
-5.20754e-05
-0.000172887
-0.000695918
0.000676294
-0.000115717
-8.71107e-05
-0.0004505
0.00053761
0.000258192
-0.000242513
1.0029e-05
-2.82757e-05
-4.67004e-06
-3.35539e-05
3.8224e-05
7.51844e-05
-0.00011614
-6.00643e-07
-5.47764e-06
6.07873e-06
0.000243499
-0.000321003
6.79886e-06
-4.89525e-05
4.21539e-05
0.000350198
0.000126894
-0.00047709
0.000147126
2.06455e-06
-5.57891e-07
6.0133e-06
1.62085e-06
1.941e-05
-5.32129e-06
-2.85778e-05
5.68092e-05
-0.000554081
5.085e-06
0.000548997
3.59787e-05
1.25689e-05
2.91395e-06
8.69744e-06
4.21647e-05
1.63952e-05
-5.85596e-05
-1.00292e-05
8.17264e-07
9.21218e-06
3.31435e-05
-3.19321e-05
-1.58537e-05
-5.46693e-05
8.90697e-05
-7.73217e-05
-1.1748e-05
5.81062e-05
9.32227e-05
-1.31002e-05
7.73864e-06
5.36096e-06
0.00311545
-0.0155518
-3.22911e-06
4.39112e-08
3.18491e-06
2.42249e-05
4.65783e-06
-0.000236367
-0.000252484
4.66063e-05
-1.84366e-05
-2.81697e-05
-9.48953e-06
5.0082e-06
4.48127e-06
2.76551e-05
-0.000235607
-5.46965e-06
5.392e-06
-7.85566e-05
-0.000220757
-2.93793e-05
5.2258e-05
-2.27083e-06
1.37911e-06
8.91725e-07
-0.000164266
-5.10929e-05
-0.00882593
-0.0107955
0.0196213
7.72373e-06
-2.22753e-06
-5.49602e-06
0.0174538
-0.0227381
0.00528431
-0.00108194
-0.00397923
-3.31859e-06
-4.73953e-06
5.81545e-06
-1.78832e-06
-2.25732e-06
-1.52533e-06
-1.02547e-05
1.32271e-05
-2.08623e-05
-8.09522e-06
2.89574e-05
0.00218415
0.0140065
2.99361e-05
-2.40753e-05
-2.89586e-06
4.50606e-05
0.00342616
-0.00612375
0.00269758
-4.30147e-05
2.83569e-05
1.46578e-05
-1.8112e-06
-1.08725e-06
2.89806e-06
5.19614e-06
-0.000341453
8.53985e-05
0.000256054
1.77022e-06
-3.30321e-07
-0.00035338
0.00182838
3.43625e-05
-4.86966e-06
0.000367411
0.000189225
3.53521e-07
3.74529e-05
-3.78063e-05
3.00523e-07
1.66601e-06
-1.96657e-06
3.00529e-06
-1.33961e-06
-1.66571e-06
1.38802e-06
1.61728e-06
-0.00125256
-0.0101624
0.000300835
0.000136254
0.0037267
1.85211e-05
-1.88857e-05
3.6469e-07
-3.88288e-05
2.96086e-05
9.22047e-06
4.7961e-06
-2.47518e-06
-2.3209e-06
1.06933e-06
2.55203e-06
-3.62143e-06
9.30114e-05
-0.000163245
7.02341e-05
-4.48498e-05
2.48643e-05
0.00427828
-0.00235549
-0.00192277
0.0109808
-0.0182485
-0.000134733
0.000147368
-1.26357e-05
-2.09157e-05
1.15324e-05
9.38365e-06
-1.84282e-05
-1.95263e-05
-0.00298222
0.00317873
-0.000196528
-7.76669e-06
7.34747e-06
4.1906e-07
1.20816e-05
-2.54708e-06
-9.53428e-06
5.51333e-05
-4.52635e-05
-9.86957e-06
1.00242e-05
-8.1095e-06
-1.91471e-06
-1.69634e-05
3.26449e-05
-1.56814e-05
-1.03607e-05
-1.05547e-05
0.000208989
0.000473506
0.00560599
-0.00607946
-0.000137509
-0.000203944
5.30713e-05
-2.21194e-05
-3.09514e-05
-0.0012864
0.00144728
0.000654615
-0.000126881
-1.62646e-06
7.28757e-06
-5.66065e-06
0.00312117
0.00115711
-2.92079e-06
1.10998e-06
-3.51716e-06
-0.000199204
0.000820893
-0.00122224
0.000401351
-1.29259e-05
-1.15358e-06
-8.15518e-06
3.87934e-07
7.25114e-06
-2.81134e-05
-3.35506e-05
0.000674255
-0.00020825
8.69998e-05
0.000121252
1.37612e-05
0.000154243
-2.89333e-05
-0.000125308
0.000206765
9.7949e-05
-0.000304713
1.70273e-06
3.0934e-06
0.00229644
-0.000384093
-0.00191234
1.95822e-06
3.8574e-06
1.97804e-05
-2.07482e-05
9.67745e-07
0.000279158
-0.000309392
3.02336e-05
1.44063e-06
2.33578e-07
1.79148e-07
-1.93035e-06
-1.58614e-05
1.62657e-05
-4.04119e-07
-0.00940103
0.000704426
0.000246399
-0.000166684
-7.97135e-05
1.86852e-06
7.51784e-06
-6.69569e-05
0.000140613
-9.07231e-05
8.20054e-05
8.71794e-06
3.53889e-05
7.69685e-06
5.33929e-05
-3.86513e-05
-1.47416e-05
0.00485813
-0.00280558
-4.70852e-05
0.000253852
-1.01248e-05
0.000263932
3.39984e-06
-2.18083e-06
-8.53336e-07
2.07998e-05
-2.27862e-06
8.14236e-05
-2.62905e-05
4.19817e-05
-6.00279e-06
1.47703e-06
-4.60207e-06
3.12492e-06
-2.26492e-06
2.45071e-06
1.2647e-06
-2.47844e-06
-4.20414e-06
7.08722e-06
5.86527e-05
-0.000415475
-3.87791e-06
0.00533165
-2.68799e-06
3.75724e-06
-8.40299e-05
-0.000124867
-0.000320894
0.00149016
-1.02435e-05
2.08844e-06
-6.07038e-06
7.85129e-05
0.000523382
-0.000601895
-0.00837328
0.00133619
-0.000325485
-0.00204184
0.00236732
-0.000339844
1.96975e-06
5.75407e-06
3.16168e-06
-3.5048e-06
4.51554e-05
8.2375e-06
4.43662e-05
-3.12744e-05
-2.21593e-05
-2.92869e-06
2.50882e-05
-1.19531e-05
-1.52345e-05
-5.01829e-05
0.000336539
-0.000286354
-6.09212e-06
-1.82607e-05
0.000851069
-0.00539029
-0.00757701
0.00611421
0.0080712
0.000699384
-0.00877058
-5.81415e-06
-4.18161e-06
9.9956e-06
-3.17803e-05
-7.04845e-06
8.51349e-06
3.85804e-05
-7.64708e-05
-1.28918e-05
5.24096e-06
-4.78824e-05
7.44407e-05
0.00140069
-0.00158553
0.000184845
1.68599e-05
-1.49883e-07
-1.671e-05
0.000480111
2.45647e-06
3.44605e-06
2.35812e-06
9.63203e-05
8.40486e-05
-0.000180369
0.00281845
-0.00149598
-0.00132247
-8.61658e-06
2.80236e-06
0.00150051
-0.00158116
8.0646e-05
0.000223955
-0.000364251
0.000140299
1.27639e-05
-3.99866e-06
-4.51379e-05
7.08609e-05
-2.57235e-05
-1.99976e-06
-6.24389e-06
3.83046e-05
-2.83522e-05
-3.39636e-07
0.00155718
-5.66686e-05
-0.000268933
0.000535081
-0.000266151
2.54581e-05
0.00028902
-0.000314478
0.000479705
-0.000795476
0.000315768
-0.0235053
0.00980415
4.44914e-06
4.3868e-05
-4.83168e-05
-3.93686e-06
-2.94069e-06
-2.24836e-07
-1.0389e-06
1.26372e-06
3.35194e-05
-0.000303112
-0.000335389
0.000638503
-8.78733e-07
2.56113e-06
-1.6823e-06
6.56378e-06
-5.44427e-05
-5.45533e-05
1.57723e-06
5.29784e-05
0.000428301
-0.000258475
8.59941e-06
-0.000143828
9.09499e-06
-1.33925e-05
-6.51773e-07
1.40443e-05
-5.53663e-05
-3.5357e-05
0.00461239
-0.00151795
-0.000604583
0.000134543
3.06525e-05
0.000790241
-1.34399e-05
4.74584e-08
0.00010796
-7.15445e-05
-3.6416e-05
0.00010996
4.42847e-05
1.29338e-05
-4.53571e-06
-2.36169e-06
0.000541075
-0.000462562
7.2223e-06
2.27148e-05
0.000839303
0.00197915
0.000335288
-0.00290503
0.00257954
-3.58288e-05
3.6034e-05
-2.05159e-07
-1.83592e-05
-6.9848e-06
2.53438e-05
2.7872e-05
-3.2542e-05
5.0253e-06
-4.96181e-06
-6.37548e-08
4.19021e-05
0.00077953
-0.00110042
2.51757e-05
-1.79524e-05
1.73864e-07
-9.25441e-07
-4.52533e-06
-0.000101596
0.000103072
2.57546e-05
1.6227e-05
-2.91309e-06
-3.02265e-06
-8.86014e-05
-0.00026408
0.000352685
3.3442e-07
-1.93119e-06
-0.0110776
0.0120483
2.58717e-05
1.84946e-05
1.1851e-05
2.3066e-07
-0.000101599
0.000197919
0.00034119
2.58167e-05
9.38041e-07
-2.67547e-05
1.85742e-05
-1.71421e-06
-0.00013444
0.000175876
-4.14354e-05
-4.01509e-06
4.72618e-06
1.49729e-05
-3.9506e-05
4.78914e-05
-3.67364e-05
3.47546e-05
1.98377e-06
-9.42993e-06
-0.00122944
0.00123887
3.41557e-06
-2.90496e-06
-4.55906e-06
5.35142e-06
-7.92405e-07
-1.25539e-05
1.40894e-05
-1.5353e-06
-5.95339e-06
1.22277e-05
-6.27431e-06
2.41447e-05
5.73984e-07
2.52427e-05
-0.000116349
0.00010437
0.00652954
-0.0089778
0.00244826
0.00663381
-0.00219363
-7.65572e-05
-0.000131693
0.000237172
-0.000143192
-9.39804e-05
0.000178752
2.18635e-05
0.000175119
-0.000196982
2.51004e-05
0.000357893
-0.000382994
5.52155e-05
-0.000124718
0.00662612
-9.65546e-05
-3.85549e-06
2.94909e-06
9.06508e-07
9.02612e-07
-6.38044e-06
-3.95439e-07
-1.21584e-05
-3.9654e-07
-5.4156e-05
-0.00477759
3.0846e-06
-2.46614e-05
-1.83532e-05
1.65658e-06
6.78852e-07
-3.87068e-06
-0.00075104
-2.64135e-06
3.0365e-06
3.78838e-07
-0.000183463
0.000205326
-9.79415e-06
-1.12064e-05
7.13055e-06
-6.22779e-06
-2.49563e-06
-2.0213e-06
1.34953e-06
6.72185e-07
5.05325e-05
-3.30178e-05
-1.75144e-05
0.000300601
-2.30878e-05
3.80612e-05
6.16409e-09
5.01885e-06
-0.000254768
0.0010343
0.000138963
4.20676e-05
2.87928e-05
-0.00106925
-0.00101084
0.00208009
-8.81293e-07
2.48696e-06
-1.6056e-06
-0.0043133
4.33473e-05
-5.27421e-06
-3.80729e-05
-1.36364e-05
-2.81992e-05
0.00700873
-0.00923506
0.00222632
-0.000100269
3.33123e-05
0.0140962
-0.000151863
0.000452698
8.81636e-07
6.90233e-06
-7.78393e-06
1.5768e-05
-4.13503e-06
-1.16328e-05
1.76908e-06
4.39998e-06
-4.97053e-05
4.53051e-05
2.02945e-05
-2.89617e-06
-1.73955e-05
-1.06919e-06
-1.33462e-05
1.44155e-05
3.5118e-05
1.54144e-05
-0.000221875
0.000212431
-4.75216e-06
0.000123129
-3.01174e-05
-6.86835e-06
3.49742e-06
0.000204616
7.97157e-05
-0.000284335
-1.34753e-05
1.18144e-05
3.26243e-05
1.99241e-06
-2.16587e-06
3.61736e-05
-1.04187e-05
-0.000466986
0.000420994
4.59948e-05
3.04885e-05
-5.60941e-06
-2.4879e-05
3.41472e-07
-4.63899e-05
2.8385e-05
1.80056e-05
7.7238e-05
-0.000174551
-0.000238119
0.000263578
0.0148952
0.00336438
-0.0182596
-1.04272e-06
-9.78459e-07
0.000148351
-0.000417284
0.00100118
-0.00385548
0.0028543
6.29829e-05
-5.4579e-05
-8.40427e-06
-7.67871e-06
-1.64496e-05
2.41284e-05
-0.00173763
0.00178569
-4.80538e-05
-1.28082e-05
2.6164e-05
-1.33551e-05
1.68371e-05
-1.8987e-05
-1.47743e-05
-3.16155e-05
0.000610871
-0.000234651
-0.000376224
-4.63764e-06
4.90171e-06
-2.64289e-07
0.000656133
-0.000328444
1.12044e-06
1.28834e-06
9.5714e-05
0.000141458
1.21711e-05
-1.03026e-05
-0.00369475
-0.00111392
0.00480873
0.00529403
0.00712892
-5.47117e-06
8.33404e-07
4.16763e-06
-2.94364e-06
-1.22381e-06
1.07595e-05
-2.67838e-06
-1.60838e-05
7.90665e-05
-0.0139338
0.0231687
-0.00923489
-2.43575e-06
1.71681e-06
7.18918e-07
-0.00727782
0.0125719
2.67389e-05
3.74967e-06
-5.35498e-06
7.9599e-07
1.94552e-05
0.000321174
-0.000331297
-0.00468219
0.0102882
-1.74896e-05
1.07929e-05
6.25563e-05
-3.89969e-06
5.2599e-06
-1.36004e-06
0.00184257
0.00251155
-0.004354
-2.00901e-05
1.70273e-06
0.000641604
-0.00213758
-0.000158646
0.000151192
7.45357e-06
0.000678952
-0.0017974
0.00111845
-1.24976e-05
4.57776e-05
-3.32801e-05
-1.23885e-06
4.04096e-06
-4.65194e-06
6.11027e-07
0.000464924
0.000113784
-7.06075e-06
-1.91861e-06
0.000276195
-0.00029429
1.80943e-05
-2.19499e-06
1.61564e-05
-1.39613e-05
0.000953794
0.00365861
-5.81595e-05
0.000131046
-4.51637e-05
8.42895e-06
1.54784e-05
-1.06038e-05
-4.87396e-06
0.0252999
-0.0296523
0.00435246
-3.1449e-06
1.12542e-05
0.000158767
-0.00014949
-9.27746e-06
-4.21728e-06
1.0444e-05
-3.95531e-05
1.26364e-05
2.69171e-05
-0.000163125
0.000367738
-2.7887e-06
5.46366e-06
5.35184e-05
-0.000511084
0.000457567
0.00204208
-0.00323296
0.00542845
-2.39281e-06
5.84841e-06
1.21787e-05
-1.32478e-05
4.32229e-06
1.37122e-06
-5.6934e-06
-2.85166e-08
2.61363e-06
6.75194e-06
4.00763e-06
-2.31761e-06
4.13534e-06
-1.81758e-06
-0.000219488
-0.00128938
4.63415e-06
-1.05875e-05
-0.000937665
0.000293264
0.000644419
-0.000208001
-0.000100511
8.90923e-06
-0.000110505
0.000228243
-7.18337e-05
-0.000156411
1.55519e-06
-1.73594e-06
2.20318e-05
5.56493e-06
0.000303128
-0.00093971
0.000636583
0.000818368
-0.000518189
-0.0051309
0.000804993
0.00432579
1.06868e-06
-4.10701e-06
3.03829e-06
0.00116396
-0.000212948
-0.000951007
-8.41825e-06
-1.61082e-06
2.86135e-07
0.00393266
0.000968264
-0.0049009
0.000161772
-8.84039e-05
-7.33674e-05
-0.00252069
0.00336
3.38729e-06
-0.000289186
0.000342707
0.000147235
0.000230769
-0.000378001
-1.23677e-06
6.48842e-06
-5.2516e-06
1.70931e-06
5.67637e-06
3.74625e-06
-8.88285e-06
5.13659e-06
-4.18051e-05
4.26707e-05
-8.65649e-07
-8.11864e-06
2.13866e-05
-1.32669e-05
-2.00379e-06
1.5979e-06
4.0596e-07
-6.6294e-06
7.69799e-06
-3.49439e-05
2.80245e-05
6.9196e-06
0.00482433
-0.00387053
4.99266e-06
-3.73735e-06
-1.25531e-06
0.00314624
-0.00577772
0.00263148
0.000958211
-0.00155685
0.000122213
-0.000775296
6.83708e-05
0.00589138
-0.000108862
-0.00578252
0.00111087
-0.000470056
0.000169954
0.00010624
7.83199e-06
2.87692e-05
-3.65977e-05
0.000128218
-0.000119308
4.41998e-05
-1.09921e-05
-8.36836e-06
-4.12522e-06
1.24943e-05
7.35328e-06
1.02896e-06
-8.38285e-06
-1.12778e-05
-0.000283602
-0.000208852
0.000173088
-0.000448778
0.00027569
-3.05328e-06
-4.67663e-06
7.72988e-06
0.00250109
0.00339029
0.000176884
-0.000314393
-1.91821e-05
-3.16793e-05
5.08616e-05
4.61295e-05
-2.0293e-05
1.26143e-05
1.70575e-05
-0.00283139
0.00317237
-0.000340991
-5.37564e-07
2.09254e-06
7.34685e-05
-0.000521625
0.0013647
0.00460979
0.0015664
-0.00617619
-0.000368846
0.00450093
-2.30381e-05
-3.57071e-05
-0.00191505
-1.22192e-05
-4.72635e-06
2.40329e-06
-4.42084e-05
-5.77435e-06
-9.61608e-06
1.53904e-05
9.00404e-07
3.26733e-06
0.00107307
0.00189269
-0.00296578
-2.29345e-05
3.07682e-05
-6.72968e-06
-4.14155e-07
4.83391e-05
8.84597e-05
-1.45686e-06
-7.09866e-07
2.16672e-06
3.00689e-05
2.55546e-06
-3.24864e-05
3.10089e-05
1.47769e-06
-8.71879e-06
0.00484
-0.00640458
1.1265e-05
-2.40728e-05
-3.84477e-05
-5.3978e-06
-0.00126466
-0.00981298
-1.12012e-05
0.00471264
0.00960706
-0.00717235
-0.00243477
-4.83598e-06
0.000133056
-2.64544e-05
5.41194e-06
-8.46519e-06
0.00783629
0.000234908
-0.000902204
-3.3778e-06
1.68626e-06
1.69192e-06
-2.42957e-05
2.84041e-05
-4.10824e-06
-0.000506634
0.000405889
0.000100741
0.000894085
-0.00141571
-5.25128e-06
-0.000692083
0.000188897
-1.08054e-05
-0.000178091
0.000143762
4.51372e-05
1.75368e-06
-8.05816e-07
-9.48402e-07
-0.00539598
-0.0043576
0.00577525
-3.23659e-06
4.58342e-05
-4.25977e-05
3.09585e-06
-2.73914e-05
-2.80071e-05
-6.93661e-06
-7.32767e-05
0.000112532
-3.92548e-05
-1.4292e-05
-1.5693e-06
-0.00019781
-0.000308825
-5.04418e-05
1.6147e-05
3.42948e-05
-0.0178365
0.00901054
0.00293804
1.89126e-05
1.72612e-05
0.000549023
-0.000600036
7.65564e-06
-1.78347e-05
1.01792e-05
-1.96564e-05
-1.98968e-05
2.80489e-05
-2.63315e-05