/*--------------------------------*- C++ -*----------------------------------*\
| =========                 |                                                 |
| \\      /  F ield         | OpenFOAM: The Open Source CFD Toolbox           |
|  \\    /   O peration     | Version:  v2012                                 |
|   \\  /    A nd           | Website:  www.openfoam.com                      |
|    \\/     M anipulation  |                                                 |
\*---------------------------------------------------------------------------*/
FoamFile
{
    version     2.0;
    format      ascii;
    class       volScalarField;
    location    "100";
    object      k;
}
// * * * * * * * * * * * * * * * * * * * * * * * * * * * * * * * * * * * * * //

dimensions      [0 2 -2 0 0 0 0];


internalField   nonuniform List<scalar> 
18166
(
0.00466927
8.18201e-05
0.000748448
0.000114174
0.000496802
0.000100683
7.59161e-05
7.55176e-05
8.69662e-05
0.00436807
8.20377e-05
0.000103653
9.09716e-05
8.93002e-05
8.86305e-05
8.09397e-05
0.0299402
6.31695e-05
9.03088e-05
5.36763e-05
8.9331e-05
8.27507e-05
9.01209e-05
8.51494e-05
0.00266732
0.0025289
7.56639e-05
0.00450072
8.54622e-05
7.91118e-05
4.39208e-05
0.00289311
7.69487e-05
0.00281983
0.000812299
8.82566e-05
6.42998e-05
5.02118e-05
7.60286e-05
0.000103686
8.67403e-05
9.06929e-05
5.52156e-05
9.03516e-05
0.00165044
6.47696e-05
8.39673e-05
0.000269387
4.42728e-05
6.54877e-05
0.000713638
0.0301959
4.4206e-05
7.84547e-05
6.47345e-05
8.57857e-05
0.005291
8.6779e-05
0.000370604
8.60374e-05
6.11036e-05
6.94008e-05
6.16695e-05
8.87161e-05
7.95084e-05
7.01879e-05
7.39497e-05
8.08219e-05
0.0181055
5.94697e-05
9.08351e-05
0.000114659
8.75256e-05
8.68109e-05
5.94099e-05
7.56369e-05
0.0412404
0.00908669
0.000976601
7.4076e-05
8.94088e-05
6.87431e-05
0.000803801
5.83978e-05
6.6566e-05
6.13266e-05
5.64212e-05
8.88183e-05
7.94325e-05
0.0377712
5.82386e-05
6.01868e-05
9.07855e-05
7.96223e-05
8.67494e-05
8.75533e-05
0.000150113
8.63675e-05
0.00215329
0.043727
7.10532e-05
6.27065e-05
7.88554e-05
0.00403015
5.8884e-05
0.00422217
5.95946e-05
7.49201e-05
4.43615e-05
8.54953e-05
0.0240315
0.00500307
0.0259778
0.0173854
8.55853e-05
0.00376414
0.0097713
8.31223e-05
8.51514e-05
5.18136e-05
8.16453e-05
5.16966e-05
8.30268e-05
6.80716e-05
8.11923e-05
8.75925e-05
8.76338e-05
6.31721e-05
6.06298e-05
8.83784e-05
7.58091e-05
8.89643e-05
6.63612e-05
7.09143e-05
7.67708e-05
0.00340719
7.37856e-05
0.000806334
6.06752e-05
0.0034815
7.91954e-05
8.14077e-05
8.86937e-05
0.00472629
4.42284e-05
0.00256284
0.00421714
6.42862e-05
6.1794e-05
0.0437831
6.64349e-05
8.99232e-05
0.00378444
0.0243023
0.000116178
6.20031e-05
6.83813e-05
7.91362e-05
0.000117409
8.56589e-05
7.46743e-05
6.19714e-05
0.0256291
5.86407e-05
8.91966e-05
6.70485e-05
8.42919e-05
7.55359e-05
0.0237137
6.83482e-05
6.60313e-05
0.000939059
7.42063e-05
0.000139193
5.78376e-05
0.00126595
6.13125e-05
0.000318726
8.55454e-05
8.91592e-05
6.80453e-05
6.02787e-05
0.00021972
0.025496
8.3776e-05
5.9371e-05
7.50659e-05
8.94178e-05
8.37173e-05
6.25103e-05
7.90664e-05
8.39268e-05
0.0287541
8.58571e-05
6.17941e-05
0.00205038
0.00176675
7.36173e-05
7.94296e-05
7.41489e-05
6.77826e-05
0.00304612
0.0236868
8.56979e-05
8.64384e-05
0.000113543
8.11819e-05
0.000115157
0.00011024
5.71563e-05
7.40348e-05
0.000112314
0.000110473
5.71338e-05
9.0027e-05
7.91373e-05
0.000121937
7.82698e-05
7.88041e-05
7.69973e-05
6.85746e-05
0.00125021
8.98474e-05
7.02676e-05
8.56074e-05
0.00515721
6.93654e-05
7.54209e-05
4.67155e-05
6.96225e-05
6.98385e-05
5.23058e-05
0.00225872
5.2354e-05
0.0241435
0.00099524
0.00134666
5.9918e-05
6.68683e-05
0.00010047
7.04536e-05
8.93732e-05
6.97137e-05
0.00471832
7.03484e-05
5.15418e-05
0.00240526
5.16443e-05
7.42959e-05
0.000101621
0.0019244
7.67831e-05
7.51254e-05
9.9565e-05
8.13933e-05
8.40969e-05
7.89667e-05
8.75454e-05
7.49275e-05
8.75909e-05
8.57141e-05
8.54774e-05
8.96179e-05
5.76247e-05
8.45794e-05
7.81487e-05
0.000172801
7.54032e-05
5.92587e-05
0.00228957
7.44484e-05
8.6678e-05
8.41675e-05
0.0029423
6.53093e-05
7.31684e-05
0.00129557
6.66405e-05
8.16646e-05
0.000144932
7.55559e-05
5.64198e-05
9.45919e-05
8.62707e-05
8.83554e-05
6.33559e-05
0.000119733
9.87163e-05
7.33551e-05
7.94728e-05
4.44329e-05
8.97231e-05
8.84685e-05
8.4015e-05
5.18517e-05
7.69016e-05
4.86264e-05
0.00571029
5.20027e-05
0.000163075
8.82954e-05
7.65504e-05
0.0205195
7.58563e-05
7.94671e-05
6.5123e-05
9.31541e-05
7.53207e-05
6.25877e-05
7.93334e-05
8.13811e-05
8.12184e-05
8.55287e-05
7.43761e-05
7.53758e-05
5.96224e-05
5.96774e-05
0.000115962
0.00012025
7.43317e-05
0.00422137
8.41105e-05
0.0243362
8.3952e-05
6.4461e-05
5.98113e-05
8.14166e-05
0.000792814
8.07952e-05
0.000109887
5.98374e-05
5.69068e-05
7.20507e-05
7.87097e-05
9.42673e-05
8.30019e-05
0.000108375
8.57374e-05
6.8706e-05
7.71307e-05
7.60642e-05
8.54302e-05
0.000115043
8.10012e-05
8.78048e-05
8.57125e-05
0.000718623
8.50474e-05
6.81291e-05
5.90436e-05
8.35571e-05
5.38152e-05
0.000100958
8.57461e-05
0.000319175
9.02638e-05
7.48663e-05
6.87163e-05
0.00268879
9.3227e-05
6.6834e-05
7.62199e-05
5.20047e-05
8.78022e-05
7.73944e-05
5.20074e-05
6.43721e-05
8.26036e-05
7.33193e-05
8.22751e-05
6.85856e-05
7.03262e-05
7.56156e-05
0.00694577
7.70852e-05
6.4905e-05
6.33195e-05
6.46498e-05
6.97039e-05
8.53099e-05
5.12443e-05
8.48852e-05
0.000104875
0.00311902
5.13646e-05
8.61004e-05
8.85943e-05
0.000105026
8.93007e-05
0.000909802
5.11005e-05
0.00010328
8.67023e-05
8.71613e-05
0.0049212
0.000110593
7.96868e-05
5.09328e-05
8.22293e-05
0.000113519
5.0774e-05
5.06241e-05
7.88938e-05
5.5039e-05
8.70267e-05
7.36578e-05
6.32979e-05
8.74744e-05
0.00652491
5.50513e-05
6.29923e-05
0.0053883
6.64599e-05
5.17459e-05
4.42129e-05
0.00982873
8.77218e-05
8.67549e-05
6.61018e-05
8.38309e-05
7.23175e-05
4.42595e-05
0.00261178
0.00248054
6.74141e-05
7.98401e-05
8.49622e-05
4.40853e-05
4.41283e-05
7.00166e-05
8.73889e-05
4.93383e-05
7.93095e-05
6.61204e-05
6.83685e-05
7.69929e-05
7.3483e-05
0.00012441
0.0282503
7.30874e-05
0.0236163
0.00143154
9.6706e-05
9.53682e-05
7.84729e-05
6.62047e-05
0.00241652
8.1157e-05
8.87226e-05
4.76514e-05
6.98076e-05
7.53086e-05
8.47243e-05
4.9223e-05
4.6831e-05
8.27755e-05
6.42702e-05
7.66593e-05
7.72863e-05
7.04166e-05
4.8398e-05
5.57332e-05
6.41658e-05
9.01216e-05
8.87472e-05
6.44619e-05
8.41907e-05
8.15117e-05
7.05202e-05
7.95905e-05
6.30237e-05
8.22292e-05
8.26076e-05
6.15384e-05
0.00163217
8.34198e-05
6.72544e-05
5.1758e-05
6.69097e-05
0.0166374
8.08914e-05
5.78045e-05
0.00380151
7.514e-05
7.5876e-05
6.64684e-05
0.000124863
5.31671e-05
7.96816e-05
6.86399e-05
7.34594e-05
7.08906e-05
7.93587e-05
9.6068e-05
0.00273614
8.07972e-05
7.38963e-05
9.08752e-05
8.70917e-05
8.50773e-05
8.88295e-05
8.81435e-05
8.95255e-05
0.00539018
6.68493e-05
8.81367e-05
7.08799e-05
7.33561e-05
6.70472e-05
0.00222161
7.86339e-05
8.14786e-05
7.39039e-05
7.70226e-05
0.00013292
0.000123765
7.46431e-05
8.59028e-05
0.0153073
8.75826e-05
7.87055e-05
0.000314162
6.66935e-05
9.58505e-05
0.0243956
6.35467e-05
8.79506e-05
8.19304e-05
5.00419e-05
7.45829e-05
0.00011358
7.39643e-05
0.0314011
0.000104392
6.39571e-05
0.0142101
5.05351e-05
6.12104e-05
7.4155e-05
8.03344e-05
6.68467e-05
0.0001038
6.67219e-05
0.000124348
8.82833e-05
9.08022e-05
5.76412e-05
5.09887e-05
9.97803e-05
6.67291e-05
8.8516e-05
6.7332e-05
7.24031e-05
8.59682e-05
4.43389e-05
5.1031e-05
0.000104588
0.000108731
7.32372e-05
0.0036175
8.17463e-05
8.83423e-05
8.49893e-05
5.8696e-05
7.49386e-05
0.0239699
8.05717e-05
6.30201e-05
5.06795e-05
8.70903e-05
6.76171e-05
5.07117e-05
0.000791293
7.56214e-05
0.0037007
0.00552063
9.01663e-05
7.84987e-05
8.96293e-05
7.35681e-05
7.19432e-05
0.00265449
8.20877e-05
6.72087e-05
0.000575251
5.47512e-05
8.04564e-05
6.8489e-05
9.13252e-05
8.55918e-05
0.0210131
6.19345e-05
7.67939e-05
8.67991e-05
8.88844e-05
9.28117e-05
9.13511e-05
0.00291056
0.000143189
0.0040176
6.53051e-05
8.48394e-05
8.20164e-05
8.00747e-05
8.35943e-05
5.31874e-05
2.08868e-05
0.00332125
0.000105679
6.95675e-05
6.1898e-05
3.46614e-05
7.82297e-05
7.36609e-05
6.34342e-05
7.37943e-05
9.21984e-05
6.94937e-05
6.66334e-05
0.00285043
9.1209e-05
6.17748e-05
0.000159422
0.0128534
7.49793e-05
3.91707e-05
8.05222e-05
7.51274e-05
0.0454783
6.16093e-05
7.93437e-05
7.83978e-05
7.18109e-05
0.0443089
9.42907e-05
8.68745e-05
6.0661e-05
6.60767e-05
8.15265e-05
5.9937e-05
7.83698e-05
4.43116e-05
0.000114439
8.67385e-05
8.64111e-05
6.86566e-05
0.00112142
6.81989e-05
6.99128e-05
4.43341e-05
9.01205e-05
5.94426e-05
6.07372e-05
0.00447636
6.58962e-05
0.0230527
8.97559e-05
8.57231e-05
6.50759e-05
6.3567e-05
6.68215e-05
8.79605e-05
8.98897e-05
8.27913e-05
4.77606e-05
7.59429e-05
6.82681e-05
0.00408095
7.98767e-05
0.00011521
6.613e-05
7.85906e-05
8.05586e-05
0.000185458
0.000139617
0.000957564
7.02669e-05
7.55238e-05
9.03678e-05
6.06735e-05
5.95275e-05
6.24965e-05
6.50301e-05
0.000126632
0.00010019
0.000336848
0.00285998
0.00486413
0.00268083
7.45076e-05
8.4603e-05
7.36865e-05
6.21182e-05
9.50542e-05
0.00171855
9.76332e-05
9.18847e-05
8.63833e-05
8.68081e-05
7.92119e-05
8.88363e-05
6.569e-05
7.46826e-05
0.0306265
5.96e-05
7.38752e-05
7.37598e-05
7.92792e-05
5.92411e-05
8.24294e-05
0.0309721
0.000153196
8.77223e-05
7.61125e-05
0.000805897
8.69313e-05
8.79604e-05
8.16913e-05
8.79143e-05
8.70086e-05
9.46887e-05
8.517e-05
0.00141558
8.08973e-05
6.40982e-05
6.29181e-05
0.000105931
9.1181e-05
8.97805e-05
0.0179791
7.58124e-05
6.18125e-05
9.12258e-05
0.000106749
6.06074e-05
7.45013e-05
8.74091e-05
0.000186121
8.20596e-05
6.01485e-05
0.0328325
0.000593003
5.24855e-05
7.22322e-05
5.82866e-05
7.83698e-05
8.71049e-05
6.5713e-05
8.18744e-05
8.54111e-05
7.85982e-05
8.06322e-05
6.6615e-05
8.02292e-05
0.0123502
8.88343e-05
0.00654497
5.9427e-05
7.43491e-05
8.95415e-05
6.40875e-05
6.76485e-05
9.16197e-05
9.80206e-05
8.86439e-05
6.8055e-05
7.39199e-05
8.08307e-05
0.00444582
8.09675e-05
7.8302e-05
7.03903e-05
7.09234e-05
4.42333e-05
6.59188e-05
0.000104889
0.00644667
0.00417965
9.29541e-05
0.000109925
0.0238066
7.42965e-05
0.000134226
9.89483e-05
0.0066291
8.83221e-05
8.03071e-05
7.02908e-05
8.09977e-05
0.0027528
7.45305e-05
5.56849e-05
8.48784e-05
7.9551e-05
0.00539538
7.67367e-05
8.08705e-05
7.42006e-05
6.82841e-05
8.00873e-05
8.54049e-05
8.84218e-05
6.14295e-05
0.000127159
6.79818e-05
7.83434e-05
6.55873e-05
1.73403e-05
7.37349e-05
2.04874e-05
8.37957e-05
0.000149558
5.94107e-05
5.80339e-05
0.00719951
4.43975e-05
0.00329693
0.000138683
6.67268e-05
6.93464e-05
8.24662e-05
7.31986e-05
7.7861e-05
7.13848e-05
6.13274e-05
0.00637404
7.944e-05
8.32743e-05
7.53638e-05
7.89902e-05
7.41473e-05
5.82288e-05
8.26043e-05
6.67103e-05
5.94218e-05
6.36438e-05
8.80914e-05
7.52379e-05
5.78401e-05
8.69053e-05
0.0040815
8.84027e-05
0.000168763
0.000247301
7.06696e-05
6.43558e-05
7.10108e-05
8.31389e-05
6.60624e-05
7.50433e-05
7.20133e-05
7.81972e-05
4.67142e-05
8.74681e-05
0.000109731
7.00187e-05
7.6036e-05
0.00538488
7.82931e-05
8.85735e-05
4.85952e-05
7.04683e-05
0.00637694
8.74035e-05
0.00577328
6.35351e-05
7.81603e-05
9.82703e-05
0.0230554
0.00199632
6.86982e-05
8.9843e-05
7.90258e-05
7.24743e-05
6.90419e-05
6.45557e-05
0.000111455
0.0232659
5.87185e-05
8.76592e-05
8.00276e-05
0.0202443
7.50362e-05
0.0307969
6.75649e-05
0.0195665
0.000136474
8.1026e-05
8.35926e-05
0.00325017
9.39079e-05
0.000108884
7.93554e-05
7.48634e-05
7.8986e-05
8.39897e-05
6.06334e-05
5.19052e-05
0.00488971
7.80702e-05
6.92809e-05
7.90433e-05
8.49296e-05
4.85018e-05
7.74538e-05
0.00783769
7.09232e-05
0.0040456
0.0424517
8.07977e-05
0.000118465
8.7606e-05
6.40147e-05
9.54005e-05
0.000100662
0.00173799
9.57798e-05
0.00606253
7.25918e-05
9.96601e-05
7.42438e-05
0.0223121
6.15479e-05
8.99676e-05
6.06964e-05
0.00013059
7.58321e-05
7.60961e-05
7.45222e-05
5.97739e-05
8.16809e-05
8.60254e-05
9.54421e-05
6.28188e-05
0.0198794
7.78228e-05
0.00280182
0.00348106
9.98828e-05
0.00262871
0.0049199
7.35607e-05
0.0274038
7.82723e-05
8.09956e-05
5.86225e-05
8.34517e-05
8.01926e-05
0.000111502
6.17786e-05
0.000174534
8.82991e-05
0.00526134
9.18836e-05
5.46302e-05
0.000104184
6.42893e-05
8.18666e-05
0.00194298
8.74746e-05
6.83853e-05
0.000977434
0.00385581
0.00138912
0.00422173
5.58744e-05
0.00415122
5.37071e-05
5.98311e-05
8.82537e-05
8.84489e-05
0.00252626
7.80794e-05
7.56579e-05
8.53815e-05
8.74154e-05
5.80099e-05
6.23927e-05
8.98925e-05
7.87672e-05
0.00244779
8.29695e-05
7.8093e-05
0.00617636
7.4111e-05
0.0031183
0.0013349
8.07938e-05
7.22382e-05
8.83778e-05
0.0429151
0.00259932
0.0279806
8.91987e-05
6.39089e-05
7.42188e-05
0.0006229
7.33834e-05
6.55162e-05
8.11803e-05
8.10037e-05
8.53869e-05
0.00637859
7.38598e-05
4.43533e-05
6.41031e-05
6.2932e-05
6.1875e-05
6.8964e-05
7.43497e-05
5.01396e-05
0.000442357
6.18398e-05
6.65213e-05
0.0180468
6.90066e-05
7.53518e-05
4.99004e-05
8.49098e-05
5.36118e-05
7.35843e-05
0.000108038
8.4591e-05
7.19375e-05
5.64639e-05
0.00551879
5.36428e-05
7.20783e-05
6.3081e-05
5.08831e-05
8.91698e-05
0.0231447
0.00157038
5.96093e-05
8.42012e-05
8.4239e-05
8.93037e-05
8.55136e-05
0.000130752
8.87501e-05
0.00423352
7.63051e-05
8.67214e-05
6.94802e-05
6.96174e-05
0.0102135
6.66067e-05
0.00315128
6.37271e-05
0.0228923
5.47292e-05
0.00125009
5.81577e-05
6.00979e-05
6.47929e-05
4.42431e-05
5.47151e-05
8.79232e-05
7.90704e-05
0.00554101
6.4171e-05
0.00336459
5.84342e-05
7.76442e-05
8.66391e-05
0.000116639
0.00267431
8.56096e-05
0.000101399
8.16121e-05
7.87032e-05
8.49843e-05
8.7204e-05
7.92838e-05
8.77891e-05
7.16562e-05
9.22266e-05
0.00580994
0.005841
7.17737e-05
0.00537572
0.000122579
0.00348888
0.000108314
7.75237e-05
8.28265e-05
0.0198298
8.89666e-05
6.00472e-05
6.9537e-05
8.00889e-05
0.0359175
8.32688e-05
0.0254605
8.56935e-05
7.06187e-05
7.8101e-05
6.07059e-05
8.15577e-05
6.643e-05
6.69555e-05
6.33003e-05
6.97176e-05
6.17617e-05
8.6577e-05
7.64547e-05
9.51785e-05
7.76653e-05
0.0351749
8.14269e-05
8.39962e-05
8.61929e-05
0.00125154
7.95921e-05
7.37829e-05
9.17315e-05
8.74429e-05
4.72256e-05
7.77792e-05
8.91022e-05
5.26983e-05
5.27921e-05
8.30987e-05
0.00011989
9.69357e-05
6.4688e-05
7.97034e-05
5.94299e-05
7.83371e-05
8.68756e-05
8.46334e-05
6.84478e-05
9.73222e-05
0.0373774
8.81922e-05
7.47526e-05
8.93985e-05
8.37133e-05
0.000118597
8.28391e-05
7.18444e-05
0.000101616
0.0198975
7.76602e-05
6.84825e-05
6.31785e-05
0.000119148
6.36742e-05
6.16458e-05
8.81114e-05
8.28185e-05
8.84762e-05
8.20562e-05
0.000119144
7.16353e-05
0.00751506
0.000135556
6.98159e-05
0.000172086
8.16817e-05
0.000561135
9.44211e-05
6.48986e-05
6.73274e-05
5.87878e-05
0.0224802
7.65139e-05
6.70574e-05
6.48335e-05
8.76601e-05
8.73046e-05
7.93791e-05
0.0159251
0.00645747
5.09725e-05
7.89916e-05
9.29282e-05
0.015378
5.75368e-05
7.34228e-05
0.000107126
5.00404e-05
7.58316e-05
5.03052e-05
0.000105366
9.52555e-05
6.23365e-05
8.40597e-05
7.72783e-05
8.36134e-05
6.66713e-05
7.80614e-05
8.57337e-05
6.99115e-05
0.04131
0.0229928
9.04117e-05
5.01579e-05
6.65238e-05
0.00250249
0.000439417
5.0439e-05
8.86538e-05
9.94999e-05
8.95297e-05
8.0498e-05
7.13583e-05
4.79212e-05
9.35656e-05
5.78495e-05
9.00499e-05
0.0133363
0.000117059
5.59873e-05
8.32629e-05
8.94331e-05
7.58962e-05
5.80108e-05
0.00331235
6.97749e-05
6.49037e-05
5.72877e-05
9.04828e-05
7.99634e-05
8.25557e-05
7.08746e-05
0.00610302
0.0401193
8.67673e-05
8.48785e-05
6.26513e-05
0.0160104
8.49544e-05
0.0137999
6.83116e-05
5.96526e-05
0.0171831
6.71082e-05
7.31507e-05
0.000122959
0.000182938
6.42347e-05
7.37718e-05
7.95784e-05
4.95331e-05
8.09575e-05
9.43634e-05
7.90108e-05
9.05814e-05
6.40401e-05
5.92656e-05
0.000136303
0.000101407
4.96434e-05
6.40948e-05
8.01247e-05
8.86703e-05
0.0110146
8.96399e-05
0.00414672
9.06559e-05
6.23099e-05
7.88156e-05
4.7138e-05
0.00011405
8.71224e-05
0.000231667
8.54937e-05
0.00201578
0.0180701
6.1012e-05
6.0421e-05
4.987e-05
7.98539e-05
5.97223e-05
6.53426e-05
8.29598e-05
8.67099e-05
5.89357e-05
0.000398641
5.04001e-05
6.68848e-05
6.10837e-05
0.00946392
7.77865e-05
7.71691e-05
8.34931e-05
0.000110879
4.99852e-05
7.01327e-05
8.49793e-05
7.04558e-05
7.79477e-05
4.99657e-05
7.79709e-05
6.0364e-05
5.86856e-05
0.000131199
4.91924e-05
0.0118793
5.58551e-05
0.00238459
0.00160596
5.46485e-05
8.96046e-05
5.3101e-05
8.08498e-05
7.91813e-05
9.67223e-05
9.69685e-05
4.93023e-05
4.80806e-05
7.17493e-05
5.87767e-05
6.22562e-05
7.87461e-05
8.95197e-05
0.000110901
0.0404967
7.33692e-05
8.38597e-05
6.23934e-05
8.55264e-05
6.55318e-05
6.91113e-05
7.91695e-05
8.27439e-05
7.23907e-05
5.04826e-05
0.000175829
5.82079e-05
8.4901e-05
7.17728e-05
8.18835e-05
8.94213e-05
9.93304e-05
4.96999e-05
9.11357e-05
0.007974
0.00972772
6.76928e-05
0.00659927
4.42701e-05
6.18696e-05
0.0267129
0.0371983
8.29074e-05
8.49982e-05
7.46453e-05
0.00588093
0.0113494
7.20475e-05
8.51643e-05
7.98314e-05
8.78114e-05
0.000935005
0.00159969
7.37091e-05
6.21609e-05
6.17723e-05
9.92781e-05
4.93603e-05
6.91968e-05
7.74489e-05
8.83545e-05
7.93515e-05
4.98152e-05
8.86009e-05
7.72933e-05
6.75901e-05
0.019029
9.16565e-05
8.73704e-05
0.000728386
0.00476839
6.36858e-05
9.38961e-05
9.19557e-05
7.57912e-05
4.78114e-05
9.69366e-05
9.6742e-05
4.90255e-05
2.19089e-05
0.000188707
8.53947e-05
7.18798e-05
8.28284e-05
7.3978e-05
7.17015e-05
0.000285713
0.00876053
4.94738e-05
4.8697e-05
7.95624e-05
8.70822e-05
0.0119809
7.57328e-05
4.91374e-05
5.69248e-05
8.90289e-05
4.88613e-05
8.46887e-05
4.88095e-05
0.0074272
5.48462e-05
0.026459
0.0171575
8.93319e-05
8.26707e-05
6.99317e-05
8.73102e-05
8.7289e-05
7.09614e-05
0.000200822
1.99191e-05
0.0187611
6.97384e-05
0.00107946
9.01905e-05
3.61489e-05
8.63409e-05
9.70606e-05
8.29316e-05
7.08199e-05
8.88782e-05
6.62352e-05
9.98946e-05
0.00387564
6.2868e-05
8.9972e-05
7.8961e-05
5.92041e-05
0.00729052
8.9474e-05
0.000112218
0.0120854
5.53373e-05
4.89739e-05
5.94455e-05
5.14376e-05
7.86921e-05
8.42078e-05
8.69022e-05
8.40261e-05
0.00496847
8.93615e-05
7.89428e-05
6.80866e-05
9.62055e-05
8.20674e-05
4.85332e-05
7.67307e-05
5.1589e-05
4.83795e-05
5.9771e-05
5.88062e-05
5.82917e-05
0.00328719
0.00285851
4.85005e-05
7.02223e-05
5.24245e-05
5.253e-05
6.10883e-05
7.52965e-05
0.000113442
6.35411e-05
0.000142688
5.11717e-05
6.53541e-05
8.3833e-05
4.86543e-05
5.4826e-05
7.80105e-05
0.000105102
8.53872e-05
0.0128539
7.20134e-05
8.4564e-05
9.99128e-05
7.62109e-05
7.44011e-05
0.00203906
0.00795475
0.00010539
4.82309e-05
7.80379e-05
6.97771e-05
0.000104494
0.000158669
0.000113596
0.000223481
9.18426e-05
9.46201e-05
0.000103018
4.50364e-05
6.10276e-05
0.000116476
8.33113e-05
0.000706998
7.79435e-05
8.86651e-05
8.5418e-05
0.0235651
4.82177e-05
4.51041e-05
9.56852e-05
4.83569e-05
5.92375e-05
6.15537e-05
5.10902e-05
7.78128e-05
8.48369e-05
6.18985e-05
7.04421e-05
8.64655e-05
0.000468283
0.013003
6.42553e-05
8.86459e-05
6.65186e-05
0.000145521
0.00165988
8.2318e-05
0.01923
8.89941e-05
0.00108435
8.97357e-05
7.78842e-05
8.02065e-05
8.54197e-05
8.9025e-05
8.82419e-05
0.000212998
8.38833e-05
5.91196e-05
0.000577241
9.73227e-05
6.98465e-05
6.75048e-05
7.88056e-05
7.92545e-05
0.00289616
9.04164e-05
8.56188e-05
7.85115e-05
0.000108258
0.00200482
8.84079e-05
7.29575e-05
8.47629e-05
8.39954e-05
6.42274e-05
0.013798
0.0200244
4.13723e-05
7.31998e-05
7.07986e-05
0.000115841
7.98613e-05
6.93831e-05
5.5272e-05
0.0084494
7.10433e-05
8.84246e-05
0.000100824
8.33727e-05
0.000134091
8.6554e-05
8.61001e-05
7.74667e-05
8.50309e-05
8.29167e-05
9.19558e-05
8.37566e-05
8.89814e-05
6.95826e-05
9.44217e-05
6.38488e-05
8.39161e-05
7.24902e-05
7.94163e-05
7.71665e-05
8.22665e-05
5.26081e-05
0.00142129
5.41079e-05
7.18147e-05
0.00010682
5.92572e-05
0.0197627
7.79208e-05
8.9756e-05
7.34083e-05
7.18165e-05
4.72786e-05
8.51726e-05
0.0391833
0.0160432
9.51176e-05
7.93643e-05
7.9389e-05
0.00697625
0.0226922
0.0452972
7.77366e-05
4.80793e-05
8.65015e-05
7.73564e-05
7.85865e-05
7.79783e-05
4.72234e-05
8.16728e-05
9.54476e-05
0.0186335
4.56709e-05
7.71472e-05
8.76254e-05
7.08569e-05
0.0271414
0.0111042
9.06404e-05
8.89537e-05
4.4378e-05
0.00044547
0.0185424
7.82754e-05
8.81291e-05
6.16609e-05
0.000647975
7.77125e-05
0.000101821
0.00875513
5.57466e-05
0.000102863
8.16529e-05
8.02831e-05
6.94757e-05
7.69348e-05
0.000179678
7.11873e-05
5.68802e-05
0.0140622
8.4097e-05
7.7745e-05
8.71923e-05
5.36232e-05
0.0238202
4.42565e-05
8.51471e-05
0.00956194
7.88765e-05
6.18775e-05
5.97958e-05
5.36386e-05
0.0101961
5.68959e-05
7.19313e-05
0.000119781
5.02376e-05
7.31613e-05
8.76318e-05
7.71349e-05
9.52075e-05
7.72334e-05
6.90073e-05
0.000100722
7.93184e-05
4.42697e-05
6.90931e-05
8.34305e-05
0.00666991
8.40549e-05
6.61453e-05
5.03147e-05
0.000128234
4.79502e-05
5.96226e-05
5.02236e-05
6.60277e-05
7.04139e-05
7.73172e-05
0.00098673
8.36731e-05
5.75057e-05
8.4954e-05
8.08864e-05
7.5326e-05
5.02634e-05
8.46006e-05
6.86594e-05
9.30982e-05
8.21376e-05
8.27459e-05
0.00200535
0.00357063
0.0428069
5.98576e-05
0.00366124
8.69249e-05
0.00411234
8.34231e-05
6.42018e-05
5.27818e-05
6.79148e-05
3.21577e-05
8.4365e-05
5.69845e-05
8.56977e-05
5.64212e-05
6.35965e-05
8.69578e-05
8.78299e-05
8.44265e-05
0.0245626
7.77153e-05
5.94496e-05
0.000699716
4.95823e-05
6.25846e-05
5.82925e-05
6.21102e-05
8.52817e-05
0.000135535
7.55187e-05
7.15423e-05
6.3862e-05
0.000102194
6.43046e-05
6.60626e-05
0.000103374
5.51116e-05
9.02942e-05
5.64989e-05
8.77378e-05
7.57169e-05
5.51263e-05
7.36414e-05
0.000352037
0.00297584
8.45492e-05
8.30235e-05
4.97727e-05
4.43278e-05
8.72719e-05
0.000143378
5.72382e-05
8.19972e-05
0.0015312
7.03849e-05
8.70809e-05
8.31084e-05
0.0100309
7.23191e-05
7.40269e-05
6.24683e-05
8.06818e-05
8.05128e-05
8.99605e-05
9.05705e-05
6.12891e-05
8.08767e-05
7.92488e-05
7.40131e-05
5.0637e-05
0.019693
6.40826e-05
6.1673e-05
8.82269e-05
0.000548693
8.34191e-05
7.16134e-05
0.0213694
7.31093e-05
4.61279e-05
8.89872e-05
7.4699e-05
8.78127e-05
6.79811e-05
0.00731827
9.48162e-05
7.17547e-05
0.00153172
8.52324e-05
7.11661e-05
0.0166339
0.0364047
4.90614e-05
5.51846e-05
7.78441e-05
8.16706e-05
7.94198e-05
0.00368919
6.82322e-05
8.94067e-05
4.74059e-05
0.00482647
7.8898e-05
0.00615679
7.50031e-05
8.65893e-05
7.96308e-05
0.00133222
7.38505e-05
5.39074e-05
8.05954e-05
6.85265e-05
7.74481e-05
7.10585e-05
8.53982e-05
6.53908e-05
6.36457e-05
0.00158775
9.16681e-05
5.00655e-05
7.12049e-05
6.96438e-05
0.000101446
6.92563e-05
8.87143e-05
5.75151e-05
7.91168e-05
8.0891e-05
6.96894e-05
0.000119927
0.0100248
5.59631e-05
6.37791e-05
0.00260403
6.80954e-05
5.61217e-05
5.61833e-05
8.95035e-05
8.08889e-05
0.000637113
7.29343e-05
7.33792e-05
7.6362e-05
7.74071e-05
8.63258e-05
7.67883e-05
0.000185576
8.48218e-05
0.0218727
7.27673e-05
7.68738e-05
7.15567e-05
0.000644056
8.71489e-05
8.66783e-05
9.81327e-05
0.0229215
0.00012848
5.32625e-05
4.75305e-05
0.00154072
8.50688e-05
8.8441e-05
8.25416e-05
5.68694e-05
8.54925e-05
8.53212e-05
7.69695e-05
9.45233e-05
5.6755e-05
4.70387e-05
0.000101017
7.90011e-05
6.45592e-05
0.000787906
0.000105431
9.0393e-05
8.98976e-05
0.00242177
0.00202432
0.0110422
8.9492e-05
0.00160775
8.47026e-05
4.61864e-05
0.0045218
8.30651e-05
0.0115246
8.68162e-05
8.18137e-05
7.60859e-05
5.58294e-05
8.67012e-05
8.93316e-05
0.000395324
0.00012876
0.035086
0.00422914
7.40088e-05
8.85233e-05
6.3268e-05
6.88438e-05
4.82312e-05
5.89177e-05
7.73026e-05
0.033791
0.000100854
5.63338e-05
7.75352e-05
0.000117027
0.0156871
7.14146e-05
7.18057e-05
5.14826e-05
8.32248e-05
5.88007e-05
8.64755e-05
0.00013323
4.95926e-05
4.74743e-05
8.96081e-05
8.76686e-05
8.4705e-05
0.000124951
0.000155289
6.92974e-05
7.97271e-05
8.69586e-05
8.42222e-05
8.71171e-05
7.04408e-05
0.000388446
6.33893e-05
8.29796e-05
7.78585e-05
0.00697744
8.6354e-05
0.00140952
0.0332239
8.94366e-05
9.79588e-05
0.000311558
8.21839e-05
6.73134e-05
8.4766e-05
6.04422e-05
8.2905e-05
4.74598e-05
5.65852e-05
0.000402716
7.92337e-05
4.57743e-05
6.8396e-05
5.67751e-05
0.0156882
0.00290934
6.72725e-05
0.00792393
6.89901e-05
5.07389e-05
5.89164e-05
0.00273209
0.000105814
8.0415e-05
8.72566e-05
7.5556e-05
5.65628e-05
0.00309558
5.9784e-05
8.36078e-05
1.36849e-05
0.00519372
4.7695e-05
4.75708e-05
8.63405e-05
4.44434e-05
0.00186
4.06304e-05
6.71444e-05
9.10786e-05
0.0228534
8.24099e-05
0.000683603
8.62993e-05
4.78557e-05
7.94643e-05
8.68849e-05
5.56792e-05
6.30209e-05
8.86129e-05
9.35648e-05
0.0118099
5.12627e-05
5.87334e-05
0.00725121
7.37167e-05
8.14742e-05
0.000100565
8.08035e-05
8.80363e-05
5.66099e-05
0.000246189
8.43008e-05
9.48839e-05
7.2971e-05
0.00242491
0.00305222
8.44378e-05
6.93458e-05
8.76152e-05
9.16694e-05
5.05696e-05
9.01917e-05
5.79804e-05
6.94209e-05
8.35806e-05
0.000107382
6.59748e-05
7.9654e-05
4.6343e-05
8.91361e-05
0.020231
0.010153
7.92173e-05
8.6032e-05
5.86055e-05
5.84919e-05
7.0072e-05
4.77783e-05
7.06681e-05
4.80428e-05
8.43239e-05
8.25034e-05
6.81802e-05
8.78658e-05
8.65561e-05
0.000104119
0.00545821
0.000225209
0.00182177
8.7203e-05
0.00309821
5.99894e-05
5.0711e-05
4.77934e-05
8.0589e-05
5.79179e-05
7.70652e-05
0.0312445
8.80058e-05
6.19502e-05
6.20493e-05
4.62118e-05
0.00413299
2.30498e-05
7.89523e-05
7.9208e-05
0.000101518
8.36276e-05
4.74748e-05
0.00170974
0.00241066
6.75274e-05
8.70529e-05
6.06325e-05
0.0366157
8.31809e-05
7.46326e-05
0.02332
0.000178543
7.0729e-05
0.000101917
8.87222e-05
5.79773e-05
5.65041e-05
6.93117e-05
0.0141634
7.00527e-05
7.07486e-05
0.0153977
5.7657e-05
7.81859e-05
5.14083e-05
8.14875e-05
6.68811e-05
0.000110516
8.09706e-05
7.79055e-05
0.000104162
7.95365e-05
8.26575e-05
8.63233e-05
5.59122e-05
8.91448e-05
6.13177e-05
8.90343e-05
6.76246e-05
8.96677e-05
5.89285e-05
0.0231451
0.000105296
9.32699e-05
0.000103041
8.16393e-05
9.51317e-05
6.33046e-05
8.60141e-05
7.56107e-05
5.91843e-05
8.80836e-05
7.39707e-05
6.98447e-05
8.96191e-05
0.00472118
6.66111e-05
8.75844e-05
5.20194e-05
8.19575e-05
6.56902e-05
7.77491e-05
7.72507e-05
6.88605e-05
0.00667802
4.76823e-05
0.0105513
8.45827e-05
6.90354e-05
6.70182e-05
8.82083e-05
8.22228e-05
5.75958e-05
5.77936e-05
0.0190489
5.9175e-05
0.0119766
0.000144709
0.00405391
9.47497e-05
0.0138057
7.13809e-05
4.73124e-05
8.3011e-05
5.64781e-05
5.47944e-05
9.90882e-05
7.5516e-05
0.000497542
8.34426e-05
8.69116e-05
8.441e-05
6.14081e-05
7.432e-05
6.92565e-05
6.00652e-05
4.59757e-05
8.72459e-05
0.0367232
8.47277e-05
0.00975071
8.27246e-05
7.99566e-05
8.6439e-05
5.83004e-05
6.78258e-05
8.09525e-05
8.82835e-05
7.80526e-05
5.62181e-05
8.07974e-05
0.00554079
0.0372045
8.50546e-05
7.01358e-05
8.94287e-05
6.02925e-05
4.97556e-05
0.000205159
6.48774e-05
0.000194788
0.023733
8.9365e-05
5.0326e-05
9.28416e-05
8.6328e-05
9.44866e-05
0.000113005
7.08448e-05
7.61402e-05
9.7977e-05
9.28826e-05
0.000106093
0.0027554
8.95489e-05
6.43989e-05
8.75531e-05
8.10621e-05
4.723e-05
8.61315e-05
5.23403e-05
6.32395e-05
5.10304e-05
7.76303e-05
0.000816438
8.15524e-05
0.000405935
8.05226e-05
0.000100814
5.82899e-05
8.61669e-05
8.6157e-05
0.000454148
7.12834e-05
5.8191e-05
0.0113717
0.000594167
7.97045e-05
0.000157633
0.00759502
8.74609e-05
8.51735e-05
7.8291e-05
7.42587e-05
0.000127524
7.14681e-05
0.000100189
4.9895e-05
0.000120116
7.77054e-05
0.000104422
0.00171143
8.1301e-05
4.59211e-05
0.041298
0.00217921
6.84873e-05
8.58869e-05
6.12749e-05
7.28051e-05
4.5801e-05
8.33699e-05
7.66653e-05
7.48761e-05
0.00165391
8.28485e-05
8.86375e-05
8.29591e-05
8.64297e-05
8.65788e-05
9.89722e-05
6.05913e-05
8.86765e-05
7.57693e-05
7.96345e-05
0.0197951
7.51795e-05
8.76706e-05
6.77253e-05
0.00884832
0.0002831
9.46413e-05
6.33804e-05
4.59044e-05
8.68131e-05
7.43566e-05
5.44243e-05
5.00912e-05
8.07845e-05
5.11215e-05
0.0162593
7.93568e-05
8.65374e-05
0.0237263
0.000116483
9.19368e-05
6.99697e-05
8.37496e-05
4.62768e-05
8.17992e-05
4.42703e-05
0.0237877
8.59515e-05
7.61775e-05
8.68811e-05
6.41187e-05
9.04752e-05
8.88975e-05
7.89693e-05
7.41873e-05
6.21072e-05
0.0105756
8.68052e-05
4.74922e-05
0.0202101
5.66934e-05
7.0118e-05
4.71844e-05
7.92998e-05
7.94382e-05
6.7991e-05
0.000123286
0.00369054
0.0229049
8.76227e-05
0.0444021
8.60502e-05
5.44061e-05
0.0423193
8.76143e-05
8.82199e-05
8.41274e-05
0.000183418
6.0619e-05
8.94295e-05
0.0283783
7.84758e-05
5.50674e-05
8.59982e-05
9.05511e-05
7.73081e-05
0.000105689
5.17751e-05
7.708e-05
8.69787e-05
8.90175e-05
8.43908e-05
5.65327e-05
6.03761e-05
6.46879e-05
7.15236e-05
5.94596e-05
4.64865e-05
7.52897e-05
7.11828e-05
0.0211867
8.38057e-05
4.95017e-05
8.11175e-05
8.27897e-05
6.69362e-05
8.30301e-05
6.75857e-05
8.31447e-05
3.52046e-05
6.8566e-05
0.00010814
8.17965e-05
8.00444e-05
8.74256e-05
5.6991e-05
0.0450695
8.49527e-05
8.32669e-05
8.47785e-05
0.00738619
8.03137e-05
7.33074e-05
4.99198e-05
9.35253e-05
7.44041e-05
8.63559e-05
5.96247e-05
5.97868e-05
8.16919e-05
8.20442e-05
6.17257e-05
8.99022e-05
8.01308e-05
5.73353e-05
8.06152e-05
6.01251e-05
6.81539e-05
0.0379976
7.12081e-05
6.85215e-05
6.03799e-05
3.17027e-05
7.88483e-05
6.1043e-05
8.27427e-05
6.89783e-05
5.42313e-05
6.29454e-05
7.1129e-05
8.54809e-05
0.00951986
5.95318e-05
5.94572e-05
4.5465e-05
5.77087e-05
8.18273e-05
0.000143178
8.61791e-05
8.55445e-05
0.0307145
6.87212e-05
0.000133219
8.72023e-05
0.000462325
9.0379e-05
0.0288825
6.05779e-05
6.15653e-05
6.19346e-05
8.4782e-05
7.48006e-05
9.07489e-05
7.77041e-05
8.5976e-05
9.43483e-05
5.91291e-05
8.79959e-05
4.35806e-05
8.43335e-05
8.85178e-05
5.22765e-05
7.14126e-05
9.42964e-05
5.63287e-05
0.00257544
8.77535e-05
8.11025e-05
5.51984e-05
0.00605308
1.79859e-05
5.9698e-05
0.000507061
9.32792e-05
0.0191758
0.0266806
8.33253e-05
0.000101673
0.000106588
0.00542368
8.19923e-05
7.91855e-05
9.62209e-05
0.0201179
8.38869e-05
9.02825e-05
0.00208342
0.000106936
6.02764e-05
0.000754126
9.01838e-05
0.00280651
6.91801e-05
7.39911e-05
4.97121e-05
0.000100963
8.15473e-05
9.29979e-05
0.0234291
8.18873e-05
5.12343e-05
8.49972e-05
6.86891e-05
9.36412e-05
6.10849e-05
8.43963e-05
0.00194309
0.0236393
0.00047277
8.42991e-05
7.76379e-05
7.24993e-05
0.00711789
8.76564e-05
6.64399e-05
6.19639e-05
4.43065e-05
9.54943e-05
0.023215
8.45854e-05
6.25214e-05
6.83264e-05
0.0273513
8.97899e-05
6.50995e-05
6.92115e-05
7.22814e-05
4.98445e-05
0.000693629
8.66379e-05
0.0234684
0.022145
0.0409346
8.26007e-05
0.0221491
0.00039025
8.50646e-05
0.0025235
8.02866e-05
8.69625e-05
0.00651366
0.00245771
0.0213369
0.0235468
0.00750095
6.80013e-05
0.000114803
0.00820904