/*--------------------------------*- C++ -*----------------------------------*\
| =========                 |                                                 |
| \\      /  F ield         | OpenFOAM: The Open Source CFD Toolbox           |
|  \\    /   O peration     | Version:  v2012                                 |
|   \\  /    A nd           | Website:  www.openfoam.com                      |
|    \\/     M anipulation  |                                                 |
\*---------------------------------------------------------------------------*/
FoamFile
{
    version     2.0;
    format      ascii;
    class       volVectorField;
    location    "100";
    object      ddtCorrDdt0(U);
}
// * * * * * * * * * * * * * * * * * * * * * * * * * * * * * * * * * * * * * //

dimensions      [0 1 -2 0 0 0 0];


internalField   nonuniform List<vector> 
18618
(
(-0.0169856 0.00795264 -5.71939e-22)
(0.00460943 -0.0406507 1.58512e-21)
(-5.27916e-05 -0.000102693 0)
(-0.0552228 -0.0118632 4.57044e-22)
(1.9031e-05 2.394e-05 -5.14271e-23)
(-0.00317775 -0.0213586 1.24201e-21)
(4.34641e-05 -0.000266009 5.23838e-21)
(0.0115349 -0.0446664 -4.76624e-21)
(0.00113882 0.00143474 -4.64836e-22)
(2.21735e-05 -3.08269e-06 1.2229e-21)
(0.000188854 -7.06727e-05 -1.97584e-22)
(-5.77866e-05 -9.32812e-05 -8.16965e-23)
(-0.0705046 -0.0124361 0)
(-0.000719635 -0.00101854 2.48521e-22)
(1.94893e-05 1.99804e-05 4.57196e-23)
(-0.000198586 -4.89549e-06 -1.0495e-21)
(7.88977e-05 4.74537e-05 0)
(0.00164769 0.0158342 3.16897e-21)
(4.0782e-05 2.87341e-05 0)
(-0.0019792 -0.000208105 -1.60661e-22)
(-0.00436214 -0.0170537 -5.15902e-23)
(-0.000101807 -0.000519936 -1.4183e-22)
(-0.00019853 -8.47024e-06 1.03771e-21)
(0.0031588 0.000385714 -2.11704e-21)
(4.73833e-05 -3.98833e-07 1.93986e-21)
(-0.00775228 -0.00485937 -7.09021e-22)
(-0.0183732 0.00384135 1.51487e-21)
(4.19682e-05 1.81333e-05 -9.89249e-24)
(-0.000196155 -6.63701e-06 -2.74698e-22)
(-6.34756e-05 5.48078e-05 1.18738e-22)
(4.61131e-05 -3.50291e-07 0)
(-0.000495465 0.000235786 0)
(3.37503e-05 -2.33855e-05 0)
(0.00435566 0.0060086 0)
(0.00469156 -0.0235494 0)
(0.000126306 -0.000139879 6.96472e-24)
(7.08808e-05 -2.92931e-06 -1.74361e-21)
(0.0412188 -0.00920723 0)
(-0.00150352 0.000157749 4.50843e-22)
(-6.0336e-05 5.1858e-05 -1.21689e-22)
(-0.0644243 -0.0296838 -2.67512e-22)
(-0.0173786 0.00204871 -8.12248e-22)
(-0.000314608 8.66286e-05 -8.08348e-22)
(0.0237879 -0.0103006 4.41541e-21)
(0.00122813 0.00177669 4.08766e-22)
(5.14754e-05 -3.55658e-05 -3.57793e-21)
(0.0278434 -0.0428853 3.58746e-21)
(-0.000247242 -7.89924e-05 0)
(-0.0146382 -0.0247848 0)
(0.00168126 -0.031031 1.50705e-20)
(4.51957e-05 1.81644e-05 4.32101e-23)
(0.000265845 3.13898e-05 1.29666e-22)
(-0.048755 -0.00148801 1.89088e-22)
(-0.0658886 -0.039335 1.07712e-23)
(-8.36014e-05 1.29579e-05 4.1373e-22)
(-0.0451068 0.106776 0)
(-0.000618706 -0.0012264 -2.50464e-22)
(-0.00179031 -0.000525096 2.94461e-22)
(0.00350694 0.00636064 0)
(-0.00132308 -0.00024157 0)
(-5.16646e-05 3.95288e-05 -1.39397e-22)
(-3.89186e-05 9.77258e-06 1.72252e-22)
(-0.00179872 4.92369e-05 0)
(4.49588e-05 -1.49796e-05 0)
(0.00923989 0.00379738 -5.9327e-21)
(0.0386466 0.0109033 -1.46328e-20)
(-9.76446e-05 -2.74542e-05 3.41982e-22)
(0.000269822 -0.000232277 -1.42676e-21)
(-0.000173253 3.60899e-05 2.4572e-23)
(-0.025195 -0.0602378 2.2932e-21)
(0.000174434 -7.00862e-05 2.55644e-21)
(-0.0141213 -0.0101896 -3.69336e-23)
(0.00063536 -0.00103916 1.99029e-21)
(0.00143516 0.00600798 4.76282e-21)
(3.28383e-05 -3.82776e-06 1.82905e-21)
(0.000177783 -0.000227791 2.84183e-21)
(-0.0192672 -0.0117528 -5.74819e-23)
(-0.00218179 -0.033043 -6.36948e-21)
(-0.000168828 3.37635e-05 0)
(-0.0168821 0.014804 -5.24345e-21)
(0.00102083 0.00531903 -1.87744e-23)
(0.00512612 0.0180056 6.80171e-21)
(0.0015157 0.00602304 0)
(2.30241e-05 -1.67923e-06 -1.91962e-21)
(3.44457e-05 -2.39206e-05 0)
(-0.000325738 7.6449e-05 3.98556e-22)
(0.00419741 0.000349755 1.43645e-22)
(2.19868e-05 -3.44469e-06 1.65156e-21)
(0.000334323 -0.0034798 -1.87854e-21)
(0.00248841 0.0162996 0)
(0.000536361 -0.00107144 -7.16083e-21)
(0.0137992 -0.0219521 0)
(0.0235873 -0.0230217 -1.1357e-21)
(-0.0209675 -0.00950821 3.41467e-21)
(-0.0151709 0.0214827 5.09798e-22)
(0.000159409 -0.000239531 -3.63283e-21)
(7.99047e-05 -7.89427e-06 0)
(0.076823 0.00862516 7.33615e-22)
(-0.000885234 -0.000997206 -2.62032e-22)
(-5.01791e-05 -8.30711e-05 3.36165e-22)
(-0.0170967 0.017516 -5.01619e-22)
(4.48672e-05 -1.44293e-05 -1.86273e-21)
(-0.00554269 -0.023505 0)
(-0.000506528 0.000304503 -8.78156e-22)
(1.70255e-05 -3.63367e-07 -2.3675e-23)
(-0.0176473 0.00256061 3.00531e-21)
(-8.21275e-05 1.45302e-05 -6.29025e-22)
(-0.000201301 -1.1722e-06 1.67343e-22)
(0.00869769 0.00472918 0)
(-0.000129789 -3.95746e-05 2.5022e-22)
(0.0127606 -0.0629797 5.76555e-22)
(3.74742e-05 8.67198e-06 0)
(4.0135e-05 -1.9721e-05 -3.27824e-21)
(1.44623e-06 9.09962e-05 0)
(8.81054e-05 -1.51715e-05 1.2627e-22)
(-5.55148e-05 -7.5595e-05 -3.19929e-22)
(-0.000100068 -2.06915e-05 -3.81686e-22)
(-0.00822814 0.00071105 0)
(5.05242e-05 -3.26285e-06 -1.02196e-21)
(-0.000121292 -0.00401458 -7.34044e-21)
(0.078772 0.0274234 -5.90021e-22)
(3.9268e-05 -1.95077e-05 0)
(-0.0359329 0.111258 -5.80854e-22)
(0.0042462 0.0172981 -9.35883e-21)
(-0.0173188 0.0103368 -4.38126e-22)
(0.0233552 -0.00810316 1.28415e-21)
(-0.0740378 -0.0530437 -3.83166e-22)
(0.00121389 0.0090035 4.51408e-22)
(0.000270933 -5.97739e-05 -5.13188e-21)
(-0.000805916 -0.000556711 1.85909e-21)
(-0.000914764 -0.00135305 5.65656e-21)
(3.72203e-05 7.98457e-06 0)
(0.00724486 0.0179388 1.59448e-20)
(-0.00843082 -0.0320193 3.82971e-21)
(8.58883e-05 -1.0577e-05 -4.38546e-22)
(-4.13872e-05 5.50896e-05 8.06445e-23)
(3.86974e-05 1.93181e-06 3.9293e-22)
(2.31971e-05 -8.35628e-06 -3.09863e-21)
(-0.0185624 -0.0344733 -4.62327e-21)
(-0.000155505 -9.64715e-06 0)
(4.74161e-05 -7.54882e-07 0)
(-0.000167968 -5.87749e-06 0)
(-3.60083e-05 9.71937e-06 1.59079e-22)
(7.67545e-05 -5.83815e-06 -1.76191e-21)
(-0.000295254 4.63679e-05 -5.02581e-22)
(-0.00725902 -0.003675 0)
(7.36392e-05 -1.08775e-06 0)
(4.71966e-05 2.34875e-05 -4.46266e-24)
(-0.0170923 0.00197023 -2.67988e-21)
(0.000133883 -0.000306571 0)
(-0.000425052 -0.001178 2.50153e-22)
(-0.0074651 0.00123851 -3.7445e-21)
(-0.0200886 -0.0372206 5.08767e-21)
(-0.000199223 -1.90874e-06 5.42849e-22)
(-6.88682e-06 2.31522e-05 -1.17356e-22)
(-0.0274507 -0.011169 1.69274e-22)
(-0.0166056 -0.00266216 2.13229e-21)
(0.0291069 0.0132703 -3.9416e-21)
(0.0040232 0.00236678 2.77288e-22)
(-0.000216311 -0.000143215 0)
(8.59997e-05 -6.97576e-05 0)
(-0.00966753 -0.117784 -5.72459e-21)
(2.30133e-05 -7.8182e-06 0)
(0.006936 -0.0286633 1.69447e-21)
(-0.000159808 5.81985e-05 -3.1827e-22)
(0.0646382 0.0259157 -3.00222e-22)
(-5.30496e-06 2.17682e-05 5.30609e-23)
(-0.000137595 -1.07919e-05 -4.98033e-22)
(0.000930244 0.00556565 3.75956e-21)
(3.79922e-05 -1.9956e-05 0)
(3.20441e-05 -4.21103e-06 0)
(-0.000155763 -0.0001306 0)
(-0.000969766 -0.00145231 -5.74277e-21)
(-0.000280356 -0.000846508 3.89745e-21)
(0.0260627 0.0213975 0)
(0.00021996 -0.000232089 -2.86673e-21)
(-0.0133321 -0.0140909 0)
(0.00156169 0.00906964 -4.5691e-21)
(-0.000147316 -0.000124192 0)
(-0.000174831 3.91637e-05 1.1761e-23)
(-3.77685e-05 -0.000627654 1.64182e-23)
(-0.000304894 -0.000908563 0)
(0.00014947 -0.000128583 1.28827e-24)
(0.00015562 -5.79931e-05 -3.21469e-23)
(-0.0743081 -0.043939 -1.09641e-22)
(-2.58076e-05 5.20678e-06 2.29543e-23)
(-0.00101353 -0.000334354 5.0779e-22)
(1.53792e-05 -0.000603429 1.09887e-21)
(-0.0149279 -0.0109484 0)
(-0.00719644 -0.0245156 0)
(0.000170221 0.000134593 -6.24289e-22)
(-0.000292665 -0.000728163 3.21255e-21)
(0.0316771 0.0155532 4.23896e-21)
(-0.000152224 -1.00436e-05 -4.71271e-22)
(0.00890444 0.00674471 -1.45283e-21)
(-0.0013362 -0.00634952 -5.65848e-22)
(-4.17723e-05 -0.000678055 -1.19835e-21)
(0.041264 0.131321 -2.30457e-21)
(2.28218e-05 -1.3422e-06 0)
(-0.00797916 0.00771 5.83721e-21)
(0.0323323 -0.0265477 0)
(-0.0127236 0.00677499 6.08472e-22)
(-0.00156427 -9.11256e-05 2.98195e-23)
(0.00012454 -1.69024e-05 0)
(0.000857 0.00605759 3.98216e-21)
(0.00559799 0.0061389 4.2985e-21)
(-0.014407 0.0210764 -6.57911e-21)
(-0.00630074 0.00128278 3.39117e-21)
(5.54316e-05 -1.85901e-05 0)
(-0.00417968 0.00398941 -8.6103e-21)
(-0.00956125 -0.0373768 0)
(-1.79256e-05 5.21607e-06 1.43411e-22)
(-0.0103266 0.00120436 3.00212e-21)
(-0.0179679 -0.00820938 1.65947e-21)
(0.000164914 -4.4374e-05 0)
(0.000146057 -9.72297e-05 -6.82158e-23)
(-8.0936e-06 -0.00973487 8.72848e-23)
(0.00102165 0.00579683 0)
(3.95822e-05 -2.02216e-05 -2.30325e-23)
(-0.00994699 0.00242116 2.43278e-21)
(0.000189168 -4.41911e-05 0)
(7.71154e-06 2.6333e-05 1.49221e-21)
(-2.85018e-05 5.38231e-06 -2.29718e-23)
(-0.00300757 0.000212402 1.96323e-21)
(-0.00223411 -0.000131425 -2.85253e-21)
(-0.0015453 0.000813954 5.77723e-21)
(0.000174955 -3.42192e-05 0)
(-0.000163704 5.60453e-05 5.1564e-24)
(0.00670033 -0.065206 3.59097e-22)
(0.00374196 0.00157546 -4.59175e-21)
(-0.00144979 -0.00756066 0)
(0.00989569 -0.0265725 1.37284e-22)
(4.63569e-05 -6.23298e-07 0)
(0.000250139 -0.000251851 1.56625e-21)
(4.59572e-05 -4.38313e-07 0)
(-0.000735476 -0.000582377 3.77878e-21)
(-0.00129289 -0.000438914 3.32738e-22)
(0.000640453 -0.00326582 5.02299e-22)
(0.000161365 -8.35863e-05 -3.38986e-23)
(-0.0104218 0.0183456 4.81188e-22)
(-0.000120083 -0.00045273 -5.21067e-21)
(-0.00038139 0.000157928 2.32614e-21)
(2.50597e-05 -1.65172e-05 0)
(0.000802747 -0.0033079 0)
(-0.0202293 0.0130067 3.73332e-22)
(0.000302405 4.89736e-05 -1.34321e-22)
(0.00348859 0.000534454 2.02323e-21)
(0.00815237 0.00380544 2.30332e-21)
(-1.35479e-05 3.70493e-06 0)
(0.000256634 -4.68333e-05 8.24448e-21)
(-0.0395764 -0.0158923 -2.05257e-22)
(-0.00106322 -0.0172538 2.40467e-23)
(0.000124055 -8.3777e-06 0)
(0.0223329 -0.0535289 0)
(5.7017e-05 -1.4693e-05 5.56695e-21)
(-0.000197955 4.87331e-07 0)
(5.93973e-05 -9.89529e-06 2.21933e-21)
(0.00447422 0.00269335 0)
(8.31816e-05 8.01685e-05 1.19964e-23)
(0.00202917 -0.00107303 1.39153e-22)
(-0.00311838 6.2579e-05 -3.55961e-21)
(5.95629e-05 -1.34474e-05 -6.21262e-21)
(-0.00264809 -0.0228572 0)
(-0.0172528 -0.0400461 0)
(-0.00437758 -0.0165835 -3.51826e-23)
(1.43702e-05 -4.38026e-05 0)
(-6.64918e-05 -0.000378497 -2.39973e-21)
(-0.011882 -0.0229797 0)
(5.66593e-05 -8.54686e-06 -2.7852e-21)
(0.000151568 -5.76877e-05 0)
(0.00020061 -0.000247537 0)
(-0.000194811 -0.000138672 1.49771e-24)
(-6.34895e-05 4.43611e-05 0)
(4.00774e-05 1.40675e-05 -1.75999e-24)
(-0.000245727 -9.61045e-05 0)
(0.0500966 0.09497 -3.9585e-21)
(-0.00221572 6.39904e-05 -6.09369e-23)
(-0.000254328 -8.84655e-05 -3.51494e-22)
(0.000842516 0.0065776 -2.07177e-21)
(-5.90521e-05 4.3964e-05 1.46429e-22)
(7.80916e-08 1.95315e-05 1.33395e-21)
(-0.000186108 -0.000131863 -2.94902e-22)
(0.0260885 -0.0478623 4.81551e-23)
(0.00822413 0.0043371 0)
(-0.00158468 0.000609156 -7.11397e-21)
(0.00361467 -0.139746 3.45985e-22)
(-0.00100149 0.00100881 6.363e-22)
(-0.00600535 -0.00379557 0)
(-6.40201e-05 -0.000501216 -6.65233e-23)
(-0.0177133 0.00685948 0)
(-4.25488e-05 5.04795e-05 -1.9116e-22)
(-0.00161967 0.000324313 -6.21909e-22)
(4.66742e-05 -4.88321e-07 0)
(-0.00108204 0.000849385 -1.32381e-21)
(-0.0154506 -0.0014395 -2.58357e-22)
(-0.000194752 -9.85343e-06 -3.0063e-22)
(7.68978e-05 5.91603e-05 -4.18865e-23)
(3.97318e-05 -1.90289e-05 -2.4508e-21)
(0.0402148 0.131372 -5.79457e-22)
(-0.00696519 0.00071378 -1.46973e-23)
(-0.0219934 -0.0717092 -2.26958e-21)
(0.0927262 0.0356548 -2.58108e-21)
(-0.0151016 -0.0428712 0)
(-0.000146403 -0.00132425 -1.19401e-23)
(0.00416015 0.00182823 4.28458e-21)
(-0.00706951 0.00803453 -4.64086e-21)
(0.00676756 -0.125986 1.04587e-20)
(0.000296661 0.000165551 2.3857e-23)
(4.04341e-05 -1.89773e-05 2.55379e-21)
(-0.000330741 -0.000777063 -1.68822e-21)
(8.62401e-05 8.98915e-06 0)
(2.64909e-05 -6.26828e-07 -2.28728e-21)
(-1.77844e-05 1.67087e-05 1.4598e-21)
(-5.82565e-05 3.64542e-05 -1.52711e-22)
(0.00011867 -0.000284921 -3.83482e-21)
(0.00173719 -0.132075 -7.26735e-21)
(0.00773676 0.00162821 1.53659e-20)
(-0.00135892 -0.0143676 -1.20326e-21)
(1.86931e-05 -4.46555e-05 -3.29514e-21)
(3.66374e-05 1.83254e-06 0)
(1.50172e-05 -4.8284e-07 0)
(0.00952174 0.0057355 1.54134e-21)
(9.33376e-06 -0.000549799 2.36819e-21)
(0.0138854 -0.115636 -4.13145e-23)
(1.7225e-05 -3.63679e-05 -1.90581e-21)
(-0.00220034 -0.00746383 1.13846e-21)
(0.0247321 0.160462 0)
(-0.000251482 -0.00010534 0)
(-7.55872e-05 -0.0013616 -2.71749e-21)
(-0.000958709 0.000183162 0)
(-0.000126581 -5.91764e-06 4.5652e-22)
(-5.22455e-06 8.94854e-05 0)
(-0.000294315 -0.00062562 0)
(8.30649e-05 1.11391e-05 0)
(0.000830815 0.0023949 4.87216e-22)
(1.71241e-05 -3.34839e-05 -1.36849e-21)
(0.0172177 -0.0217258 0)
(0.000748638 -0.00263536 -1.07661e-21)
(-0.00915678 0.0292606 -8.72558e-21)
(0.0024142 0.0286257 8.89199e-21)
(-2.43816e-05 9.29498e-05 -3.85916e-22)
(0.000821609 0.00714821 2.04336e-21)
(0.000851678 0.00196398 0)
(0.000119012 -0.000144761 0)
(-0.000179166 4.13489e-05 0)
(2.57754e-05 -7.08475e-07 1.48467e-21)
(0.00197719 -0.00754829 -6.02163e-23)
(2.7735e-05 9.21384e-07 0)
(-0.0086723 -0.126408 6.41566e-22)
(5.82413e-05 -1.74943e-05 0)
(0.0378771 0.0441004 6.39157e-23)
(0.00420868 0.0033564 3.86011e-21)
(-1.13198e-05 2.48345e-05 0)
(2.4226e-05 -4.15241e-06 2.21157e-21)
(0.0235552 0.0249808 -9.53948e-21)
(-0.00200095 -0.00322258 7.13284e-21)
(-0.000197463 -8.24107e-07 3.54114e-22)
(-0.00561066 -0.00157666 1.75608e-21)
(-0.000205826 -0.000135855 0)
(0.00256618 0.00097036 1.77327e-21)
(0.0278566 -0.0301906 -1.05795e-21)
(-0.0230511 -0.0323996 -8.9122e-22)
(-0.00369434 -0.000550465 -3.24955e-21)
(0.00310076 -0.00707959 3.88372e-22)
(-0.0235931 -0.0342064 0)
(-0.0173031 0.20921 -3.11427e-21)
(-0.000821016 0.000160403 0)
(0.00016658 -5.77352e-05 -2.14628e-21)
(0.00330047 -0.010789 6.49399e-22)
(-0.000300844 3.79315e-05 -5.58798e-22)
(3.27999e-05 3.71695e-06 4.77997e-22)
(2.33992e-05 -7.92726e-06 2.58661e-21)
(-0.0115545 -0.117252 7.15296e-22)
(0.0344674 0.0488051 2.68695e-22)
(-0.000104553 -0.000570211 1.06426e-22)
(0.000320746 0.000212512 -1.51312e-22)
(0.0138154 -0.11431 -1.68844e-21)
(3.67167e-05 7.2286e-06 -5.69962e-24)
(-0.00313808 -0.0437254 -6.7099e-22)
(0.0334937 -0.0199238 0)
(0.000933942 -0.00284923 0)
(-0.000399294 0.000214465 0)
(-0.0002557 0.00617998 7.69904e-21)
(-0.0202465 -0.0240047 -5.5626e-22)
(4.06474e-05 3.29883e-05 2.47199e-23)
(3.86246e-05 -1.80194e-05 -1.01694e-23)
(-0.000177891 7.7896e-05 2.37903e-22)
(-0.00510742 -0.00153075 1.64443e-21)
(6.88286e-05 -5.98276e-05 0)
(2.52142e-05 -4.24012e-06 2.25614e-21)
(-0.000276565 -0.00015333 1.98938e-22)
(0.000542938 -0.0280838 2.10725e-21)
(4.81314e-05 -3.50584e-05 3.55929e-21)
(-0.00027999 -0.000143511 -1.99486e-22)
(0.000956117 0.00627807 -6.74789e-21)
(-0.0424256 0.0936335 -3.72244e-21)
(-0.000195139 -0.00370276 8.77139e-21)
(-0.0153201 0.0174723 -4.17982e-21)
(-0.000161985 5.04673e-05 4.55501e-24)
(0.000497734 -0.00039797 0)
(3.70165e-05 -1.92673e-05 0)
(-0.0484349 0.0166986 -2.45262e-21)
(0.00416734 -0.0403987 -6.92138e-22)
(-0.00545156 0.000752896 0)
(-0.000175804 7.24945e-05 6.43453e-24)
(0.000277391 0.00547114 -3.61542e-21)
(0.000177217 -1.45562e-05 0)
(0.000609645 6.9725e-05 0)
(-0.000128673 1.09142e-05 0)
(-0.00495279 0.00216029 2.58711e-21)
(8.89001e-05 -1.94782e-06 4.65236e-22)
(-0.000931924 0.00685768 3.03863e-21)
(0.0486766 0.0156408 4.67951e-21)
(0.0253117 0.00337453 -9.63739e-22)
(-0.000328523 -0.000597136 1.92425e-22)
(-0.00384451 -0.000327853 8.88252e-24)
(1.31297e-05 7.93494e-05 0)
(0.000369901 0.000347853 -6.96908e-21)
(2.30499e-05 -1.08503e-05 -3.03345e-21)
(-0.0461535 0.00677144 1.27273e-21)
(2.35381e-05 -7.5227e-06 -1.24682e-21)
(4.67463e-05 -1.23381e-06 -1.40833e-21)
(-0.00228631 0.000521207 8.7768e-23)
(0.0020271 -0.0676151 0)
(-0.0825323 -0.0596168 -1.23691e-21)
(-0.000126148 -4.62121e-05 -1.19146e-22)
(0.000550079 -0.000350942 0)
(0.0231459 -0.00408496 -4.05096e-22)
(-7.15348e-05 1.41039e-05 0)
(0.000189576 -2.53015e-05 1.946e-21)
(-3.74307e-05 4.02265e-05 0)
(3.63561e-05 1.13256e-05 7.02768e-24)
(0.000163833 -7.1374e-06 0)
(0.0105931 -0.0249765 -2.08105e-22)
(-0.004347 0.00198241 -4.14639e-21)
(2.30902e-05 -1.15534e-05 3.39604e-21)
(-0.000962149 -0.00124063 9.85925e-22)
(8.55372e-05 1.3274e-06 -2.63857e-22)
(-0.0178868 0.00014111 -2.09624e-21)
(5.38254e-05 5.37553e-07 -5.9242e-22)
(0.04255 -0.0159501 0)
(0.0460595 0.018665 -7.32752e-21)
(-0.00216375 0.00175646 0)
(-0.00228714 0.00144302 0)
(0.000984581 0.00835299 0)
(0.000324292 0.000375412 2.14682e-21)
(0.105546 0.0363343 -4.32456e-21)
(-0.0131164 0.000354014 2.23609e-21)
(2.45855e-05 -4.76028e-05 -1.76718e-21)
(0.000850386 0.00102012 6.25447e-21)
(5.35061e-05 4.57521e-07 -8.46934e-22)
(-0.0206305 0.00459014 -2.13922e-21)
(-0.0121164 0.0946458 2.86241e-20)
(3.33839e-05 1.0596e-06 -2.70914e-21)
(-0.00182964 -0.00347868 -2.22332e-21)
(-0.012137 0.0255755 8.98298e-23)
(4.68924e-05 -4.98143e-07 -1.44929e-21)
(0.0133002 -0.137799 2.48213e-21)
(-1.46449e-06 -4.84347e-05 0)
(0.00620033 0.0175854 -3.89572e-21)
(-0.0151973 0.0862291 -2.50605e-20)
(0.0001148 -2.29071e-05 0)
(-0.0148215 -0.0563981 1.1307e-21)
(-7.16954e-05 0.000144717 -1.56153e-22)
(-0.00352669 0.00164752 -6.1705e-21)
(3.74365e-05 -0.00154754 -2.81439e-21)
(-0.0214751 -0.0123164 -2.9583e-21)
(5.18643e-05 -2.78406e-05 8.60286e-22)
(8.29431e-05 -0.135291 5.0517e-23)
(0.000272438 0.000249414 -2.21323e-22)
(-0.000290006 -4.67645e-05 9.4976e-22)
(4.24568e-05 2.64163e-05 0)
(0.0333368 -0.00705856 -6.26992e-22)
(0.00114849 -0.00139683 -6.91219e-21)
(4.64139e-05 -7.05536e-07 -1.22918e-21)
(-0.000163655 4.40629e-05 0)
(-0.000165215 4.88535e-05 -3.66211e-22)
(-0.0123605 -0.0602072 -1.79446e-21)
(-0.0138667 0.00105322 -5.24019e-21)
(-0.000911565 -0.000508858 -4.62764e-22)
(0.000389973 0.015872 4.80898e-21)
(-0.00382044 0.0015274 0)
(0.000116471 -2.98108e-05 1.01498e-21)
(4.99486e-05 -4.12059e-06 -1.13561e-21)
(-0.000175069 -1.30729e-05 -2.86945e-22)
(0.0129314 -0.134605 -2.20267e-21)
(6.84097e-05 -1.77985e-06 -8.64606e-22)
(5.34698e-05 -0.000285535 -3.43464e-21)
(-0.0153048 -0.00736733 1.38232e-24)
(-0.0278836 0.100893 -8.83228e-23)
(-0.00422739 -0.00300144 0)
(-0.000286028 -5.78099e-05 0)
(-0.00211344 -0.00501179 -1.01788e-21)
(0.000411426 0.00171272 3.71946e-21)
(-0.0439022 0.0274792 0)
(-0.000164837 1.04153e-06 1.92064e-22)
(0.00546223 0.00650053 -4.98314e-21)
(4.98841e-05 -4.59159e-06 1.11814e-21)
(-0.000426071 -0.000741061 2.35239e-22)
(-0.00419833 0.000340556 1.31368e-21)
(-0.0162599 -0.00736331 1.03352e-20)
(4.78071e-05 1.16229e-06 2.41769e-23)
(0.0563428 0.0292104 7.91147e-22)
(4.34659e-05 -2.07594e-05 0)
(2.42486e-05 -7.33733e-06 1.37459e-21)
(-0.00197637 -0.000275854 2.98856e-21)
(-7.56067e-05 1.46063e-05 -2.74789e-22)
(3.69431e-05 1.0367e-06 -3.44624e-22)
(-0.000128504 1.29208e-05 0)
(-0.0078617 -0.125757 -3.01317e-21)
(0.0369197 -0.0421608 -7.799e-22)
(-0.00408416 -0.00334865 0)
(0.00167313 -0.00946967 0)
(2.34633e-05 -3.25228e-05 -4.17058e-21)
(-0.000166474 4.27997e-05 4.89873e-24)
(-0.0026354 0.00139329 -1.23088e-22)
(-0.00911301 0.0758516 0)
(2.34887e-05 -6.86319e-07 -2.01703e-21)
(0.0274198 -0.0670558 0)
(0.000119036 0.000149146 0)
(0.0339113 0.0120729 5.64817e-21)
(0.00104856 -0.001698 1.37162e-21)
(-0.000124916 5.74626e-06 -3.01422e-22)
(0.0045871 0.00381528 0)
(-0.0122296 0.0231004 0)
(-0.00550789 -0.00290558 0)
(-0.000201239 2.9014e-05 0)
(-0.00413401 -0.000311027 7.00544e-22)
(0.0695157 -0.00615193 8.0137e-22)
(0.0197022 -0.0894466 0)
(1.15021e-05 8.59969e-05 2.97915e-23)
(-0.000781059 -0.000791547 0)
(5.78797e-05 -3.93249e-05 -4.01177e-21)
(-0.000698109 -0.001233 6.65746e-23)
(5.02186e-05 -4.04767e-06 1.20081e-21)
(-0.0161327 0.0150158 0)
(0.00610606 -0.00406318 2.96475e-21)
(3.37696e-05 3.01954e-06 -2.61829e-22)
(-0.00170059 0.0120216 -4.86139e-21)
(-0.000716675 0.00650703 0)
(-0.00204239 0.0741489 7.23592e-21)
(0.0308725 0.0241715 1.06551e-21)
(0.00158407 7.07002e-06 -7.41086e-22)
(0.00418765 -0.00619943 -6.11581e-22)
(-0.000398698 -0.000518213 -6.67288e-21)
(5.49036e-05 -3.17509e-06 2.74239e-21)
(0.0164176 0.0496953 0)
(-0.0187957 0.102367 0)
(0.0273797 -0.0108889 5.93643e-22)
(-0.00085844 -0.00115769 3.76578e-21)
(-0.000328569 -0.000672187 -1.01137e-22)
(0.000286599 0.000304874 4.3193e-22)
(3.67923e-05 -2.20933e-05 -1.48865e-23)
(-0.0019308 -0.00198346 5.04526e-21)
(-0.00180185 -0.00186642 -4.51195e-21)
(5.27962e-05 -4.43205e-07 0)
(-0.00127378 -0.00108746 1.04088e-21)
(0.00870496 0.00304029 7.01889e-21)
(0.000664998 4.45953e-05 0)
(0.00100841 0.00103151 -2.43285e-21)
(3.61105e-05 1.28696e-06 0)
(0.0317825 0.0308148 1.52002e-23)
(2.73783e-05 -3.31139e-05 0)
(-0.0273873 -0.0177848 2.03433e-22)
(9.24327e-05 -4.32935e-05 0)
(2.52569e-05 -2.10389e-06 1.67856e-22)
(0.000280893 -0.00630634 -4.14577e-21)
(4.41673e-05 -1.94115e-05 -2.33529e-23)
(5.57802e-05 -2.54528e-05 -1.72657e-21)
(-0.0530181 0.00413104 3.62394e-21)
(2.4247e-05 -7.80398e-06 -4.15038e-21)
(-0.000336736 0.00647662 -8.2163e-21)
(-0.0465497 -0.0287657 0)
(0.00136881 -0.158109 0)
(-0.00010707 -0.00151448 3.04219e-21)
(0.000410936 0.00186889 1.16468e-23)
(0.00471445 0.00387818 1.54923e-21)
(0.00019705 0.000144904 1.52993e-21)
(-5.69359e-05 0.00010034 0)
(0.00378224 0.000231824 -2.34874e-21)
(-0.000514735 -0.00424815 2.90661e-23)
(-0.000309209 4.23582e-07 -2.46741e-22)
(-0.0150751 0.000184688 0)
(0.0118483 0.0161286 0)
(5.52102e-05 -2.77873e-05 0)
(3.1521e-05 -1.45803e-06 2.37519e-21)
(5.90611e-05 -4.62994e-06 1.66539e-21)
(-0.000150426 -0.00353542 -4.79371e-22)
(-1.04895e-05 -5.3265e-05 0)
(0.0022104 -0.00113588 0)
(0.00135633 -0.000281856 -1.13415e-21)
(0.00745148 0.019231 -8.13436e-21)
(0.00187472 -0.00122074 0)
(0.00480226 -0.0376116 -2.09842e-22)
(-0.000388534 0.00178164 -1.15364e-22)
(-0.00117103 0.0124242 -1.76456e-21)
(-0.000181081 -3.20937e-07 0)
(-0.00226517 -0.00226537 -2.59378e-23)
(-0.0125046 -0.151858 1.85229e-21)
(0.00100545 -0.00195203 -1.04416e-21)
(-0.00891829 -0.114863 2.89829e-21)
(-0.000116166 -2.45522e-05 1.98661e-22)
(0.00610361 -0.00714758 -8.85359e-21)
(-0.00334938 0.00236471 -2.95055e-21)
(5.08425e-05 1.26896e-06 -4.26802e-21)
(0.000102961 -3.55748e-05 -4.74836e-22)
(-0.00896344 0.0216561 -5.4989e-22)
(-0.00049726 0.000193972 0)
(-4.00531e-05 4.66274e-05 -5.75084e-23)
(-0.000188012 4.62697e-05 -5.24629e-23)
(-0.000650971 -0.00139089 -7.30179e-23)
(0.000552695 0.00319944 3.16938e-21)
(0.00189759 0.00622512 1.12623e-21)
(-7.52185e-05 0.000158243 -3.11264e-22)
(-0.00568356 0.00111498 3.63508e-21)
(-0.0172884 -0.00693503 3.86413e-21)
(-0.000903954 0.00214748 1.39172e-22)
(-0.0113374 0.000499665 0)
(9.98969e-05 -4.34571e-05 -1.70383e-21)
(7.65751e-05 -2.28824e-06 0)
(0.00149168 -0.00125389 -5.07893e-21)
(4.3458e-05 -3.71347e-05 -1.18714e-23)
(0.000229914 -9.31432e-05 6.52983e-21)
(-0.019119 0.00658765 2.83091e-21)
(4.03421e-05 -8.9285e-06 -2.65334e-21)
(-0.0156517 0.00717393 2.68082e-21)
(0.000146706 -6.9816e-05 4.82067e-21)
(-0.0108053 -0.001384 -2.36659e-21)
(0.015892 -0.00192611 -3.02389e-21)
(-0.000304973 1.06183e-05 7.78163e-22)
(-0.000165075 3.89888e-05 5.11019e-22)
(4.59621e-05 -5.17647e-07 1.31841e-21)
(0.0494135 0.0372853 -6.11048e-21)
(-0.00125378 0.00235014 -1.43596e-22)
(0.00412323 0.0285264 -1.55949e-20)
(0.000161977 9.52167e-06 8.40423e-22)
(-0.000197403 -4.14541e-06 2.8723e-22)
(-0.000551026 0.000236773 -8.27614e-22)
(-0.000119021 1.40242e-05 3.05543e-22)
(-0.000196425 4.22678e-06 0)
(-0.000123399 1.3888e-05 3.52037e-22)
(2.21018e-05 -7.80055e-07 -2.15641e-21)
(-0.00744215 -0.0207479 2.5231e-23)
(-0.0675832 0.0744734 2.36683e-21)
(-0.000185545 7.07185e-06 0)
(-0.000264734 0.00205969 5.3267e-23)
(0.0429525 0.0160882 0)
(1.43651e-05 -0.000218805 7.51064e-24)
(-0.000133952 8.88358e-06 -4.90373e-23)
(-0.00402866 -0.00599501 0)
(0.00240183 0.000768729 -1.11249e-21)
(3.1282e-05 -9.64364e-07 -2.55196e-21)
(5.02395e-05 -3.55446e-06 1.23866e-21)
(5.24806e-05 1.03141e-06 -5.28492e-22)
(0.0291027 0.0252334 -9.83843e-23)
(3.97076e-05 -1.84491e-05 0)
(0.00633039 -0.146599 -1.33744e-22)
(0.00173526 4.56149e-05 1.27043e-21)
(2.83278e-05 -1.6306e-05 -2.08774e-21)
(-9.19956e-05 -0.000478179 0)
(-0.0414583 -0.0305631 0)
(3.84686e-05 -2.22263e-05 -9.83166e-23)
(0.000336935 0.0031924 0)
(-0.0247434 -0.0463739 -1.88592e-21)
(-1.97777e-06 0.00602457 2.61531e-23)
(-0.00139856 -0.00400269 2.3473e-21)
(5.38237e-05 -3.4195e-07 -7.24486e-22)
(0.00132331 -0.00114681 -5.2681e-22)
(-0.0120126 0.0011068 3.4055e-22)
(-0.000162537 8.24774e-06 2.82253e-22)
(0.00164983 -0.00158244 6.53079e-22)
(-0.000175577 -0.000134155 0)
(-0.00194892 -0.000573734 2.96786e-21)
(0.0194999 -0.022382 5.16905e-22)
(-0.00897149 0.00295988 -2.62984e-21)
(-0.000167687 3.78179e-05 -4.25286e-22)
(0.00280783 0.00539423 1.46297e-21)
(2.06847e-05 -4.80198e-05 1.85768e-21)
(0.0453737 -0.0298603 0)
(3.60526e-05 -3.79894e-06 -1.97343e-21)
(-0.000723465 -0.0006602 3.84916e-21)
(0.00147624 -0.00145297 0)
(0.018197 -0.0261306 0)
(0.00473385 0.00737312 -1.13854e-20)
(-0.0838481 -0.0708955 -2.22564e-21)
(-0.000135874 -0.00012653 -1.23347e-22)
(-0.0256745 -0.0317168 -2.39665e-21)
(-0.000787066 0.000135747 0)
(0.000929309 0.00679993 2.18053e-21)
(3.37524e-05 -2.04185e-05 2.22094e-21)
(0.00420857 0.000836531 -4.84034e-21)
(3.97575e-05 -3.40912e-05 0)
(5.93065e-05 -2.49465e-05 4.42652e-22)
(0.000132749 2.64091e-05 3.98219e-21)
(-0.00235591 -0.00167988 -5.20564e-24)
(0.00014907 1.31134e-05 -2.49403e-21)
(1.66247e-05 -4.24841e-07 -2.0194e-21)
(-0.000175745 2.57772e-06 5.48971e-22)
(-0.000276877 -0.00105718 0)
(-0.000171491 -1.38789e-05 2.89425e-22)
(0.000114857 0.000179238 0)
(-0.00187379 0.000551741 1.65183e-21)
(-0.000128428 -0.000120674 3.55837e-22)
(-0.000166973 -0.000127987 0)
(0.032997 0.0225222 1.44857e-22)
(-0.000171765 -5.8045e-06 -3.17064e-22)
(-0.022189 0.0129312 -6.60618e-22)
(3.88572e-05 2.02363e-06 0)
(0.00020618 -1.8032e-05 -1.02711e-21)
(4.33295e-06 8.46139e-05 0)
(-0.0091261 -0.00505771 6.84372e-21)
(-9.83874e-05 -0.000113594 2.11596e-22)
(0.0212547 0.0255339 0)
(0.00352571 -0.00177203 -3.79065e-22)
(0.0520111 0.0679051 -1.33623e-20)
(0.0167355 0.00194337 0)
(2.88788e-05 -1.66358e-05 0)
(0.000127157 -2.90798e-05 8.24957e-24)
(6.20512e-06 1.18949e-05 0)
(-0.000207927 -0.000994236 -1.68246e-23)
(2.23464e-05 -3.0557e-05 7.04353e-21)
(5.34792e-05 -4.8088e-07 -3.88594e-22)
(3.33921e-05 -2.09792e-05 0)
(-0.0186759 0.00216665 3.02502e-21)
(8.73094e-05 6.78049e-05 0)
(-0.00288286 0.0228286 -8.89573e-22)
(0.00023336 -0.124823 7.06064e-21)
(0.00678009 -0.00661706 0)
(-9.28225e-05 -0.000120194 -1.93975e-22)
(8.16808e-06 1.09342e-05 1.82209e-22)
(-0.0174648 -0.00221473 -2.51821e-22)
(-0.0327143 0.0509374 -2.03676e-21)
(0.0233367 0.0515697 0)
(-0.0571498 -0.0269435 7.14927e-22)
(0.0248756 -0.00805581 -7.9995e-22)
(0.0124967 0.0200702 0)
(-0.0429485 0.0167912 2.17561e-21)
(0.000596319 0.00141534 0)
(-0.00399661 0.0223802 0)
(5.04529e-05 -1.77039e-06 8.30856e-22)
(1.78554e-05 5.50339e-07 0)
(-0.000206947 2.99263e-05 1.11424e-22)
(-0.0197868 -0.0233637 1.95721e-22)
(3.088e-05 -0.000252427 0)
(4.02332e-05 -2.97522e-05 -3.12831e-21)
(0.00098791 -0.00145899 -5.1147e-24)
(-0.000715209 -0.000489671 3.39705e-22)
(0.0512828 0.0488209 6.15511e-21)
(-5.1656e-05 6.009e-05 2.16016e-23)
(0.0266059 -0.000693473 2.88251e-22)
(7.7141e-05 -0.00345107 -9.11786e-22)
(0.0533239 0.0675161 1.31401e-20)
(-0.00489239 -0.00113212 3.26061e-21)
(0.00592534 -0.00351145 -2.73568e-21)
(-0.00540808 -0.124858 8.35008e-23)
(-0.00191067 0.000310753 1.65084e-21)
(5.03555e-05 -2.20849e-06 -2.7207e-21)
(-0.000492043 0.000131809 -5.35221e-22)
(-0.00378995 -0.000601454 0)
(-0.00139622 0.00850881 -3.20931e-21)
(-0.0170816 -0.000413708 0)
(-0.000120565 7.04645e-07 -2.76942e-22)
(-9.13824e-06 8.15597e-05 3.13527e-23)
(0.0637246 0.0627135 1.13181e-22)
(0.00190042 0.0004445 -5.7843e-22)
(0.0188761 -0.106142 -7.74517e-21)
(3.1018e-05 -3.01441e-05 -9.87356e-22)
(0.0192224 0.000912309 0)
(0.000138536 1.66925e-05 4.43058e-21)
(-0.0283862 -0.0365656 0)
(3.61662e-05 -2.31345e-05 5.69566e-21)
(-0.000158356 8.94098e-06 6.58186e-22)
(-0.000289041 -0.000166141 0)
(5.61102e-05 7.31593e-05 0)
(0.000325646 0.000121077 0)
(5.24498e-05 -8.13145e-07 1.69054e-21)
(3.45755e-05 -2.28904e-05 -5.37949e-21)
(0.00121945 0.00850711 -4.72702e-21)
(-0.00104834 0.00823027 0)
(-0.000154861 9.42625e-06 0)
(0.00478247 0.00795032 8.06079e-21)
(-0.00104413 -0.00114773 1.49581e-21)
(0.0049472 0.00424937 -1.47235e-21)
(-0.00480886 -0.000862533 -1.65467e-21)
(0.00148381 0.200178 1.29555e-21)
(-0.000303486 -0.000168978 0)
(-0.00496955 0.00303459 -4.17398e-22)
(-0.0255385 -0.0302146 0)
(-0.000241213 -0.000112224 6.17271e-22)
(0.05595 0.0590126 8.06798e-22)
(2.37984e-05 -3.28879e-06 -2.74237e-21)
(-0.000307656 -0.000609993 0)
(-0.000442496 0.000447165 -3.45034e-21)
(-0.000123787 -1.032e-06 -8.29316e-22)
(-0.0261456 -0.00278306 -4.87163e-21)
(4.34531e-05 -2.69524e-05 0)
(-3.08499e-05 9.65249e-05 2.83214e-24)
(-0.0171998 -0.0220416 1.32368e-21)
(2.40019e-05 -3.57251e-06 4.16769e-24)
(4.23304e-05 -0.000484395 2.30947e-21)
(5.21104e-05 -7.90309e-07 -1.68575e-21)
(-0.0156696 -0.047368 -5.87326e-21)
(-0.000198487 -9.54248e-07 0)
(0.000143276 0.000179481 -1.16673e-21)
(-0.00268883 0.00083251 -1.59079e-22)
(4.09284e-05 -1.8267e-05 0)
(0.000124131 -0.00032422 2.81181e-21)
(0.000116931 -0.000122385 0)
(0.00010988 -3.56051e-05 2.08292e-21)
(5.50272e-05 1.17823e-05 1.5459e-21)
(-0.0507401 -0.112009 -3.50968e-23)
(0.000322072 -5.85547e-05 -3.22239e-21)
(2.90312e-05 -0.000195779 0)
(-7.28897e-05 0.000189384 0)
(-1.41844e-05 8.01844e-05 -1.08154e-22)
(5.44043e-05 -2.57143e-05 2.58453e-21)
(0.00305135 0.00813453 -2.06138e-21)
(0.00117634 -0.000897045 0)
(0.000487192 0.00555225 3.94097e-21)
(6.50114e-05 -1.50038e-05 1.1774e-21)
(2.54758e-05 -1.66622e-06 -2.62253e-21)
(-0.00860455 -0.0576522 8.18886e-22)
(5.00615e-05 -4.58099e-06 -2.32362e-21)
(0.00293619 0.00569702 1.3856e-21)
(0.00187998 -0.00267018 0)
(3.2526e-05 -0.000211472 4.60378e-23)
(0.000114005 3.57992e-05 2.46136e-21)
(-0.0169413 -0.0094144 -3.59505e-21)
(0.000119058 0.00115148 0)