/*--------------------------------*- C++ -*----------------------------------*\
| =========                 |                                                 |
| \\      /  F ield         | OpenFOAM: The Open Source CFD Toolbox           |
|  \\    /   O peration     | Version:  v2012                                 |
|   \\  /    A nd           | Website:  www.openfoam.com                      |
|    \\/     M anipulation  |                                                 |
\*---------------------------------------------------------------------------*/
FoamFile
{
    version     2.0;
    format      ascii;
    class       volScalarField;
    location    "100";
    object      epsilon;
}
// * * * * * * * * * * * * * * * * * * * * * * * * * * * * * * * * * * * * * //

dimensions      [0 2 -3 0 0 0 0];


internalField   nonuniform List<scalar> 
18618
(
4.85792e-05
0.0103777
4.41638e-07
0.000113907
8.67496e-07
2.76499e-05
1.73963e-06
0.0112005
6.48813e-07
1.58503e-06
1.60671e-06
4.4289e-07
9.25463e-05
4.90486e-07
8.65011e-07
5.047e-07
7.86111e-07
0.00779486
8.00882e-07
8.87885e-07
1.62466e-05
4.23889e-07
5.03544e-07
1.92315e-06
1.1511e-06
1.64872e-06
4.79028e-05
8.1167e-07
5.07268e-07
6.93317e-07
1.17819e-06
1.44005e-06
1.43603e-06
2.15092e-06
0.000111449
1.00939e-06
1.21875e-06
4.90261e-06
1.11348e-06
6.90687e-07
0.00226038
2.75223e-05
5.18828e-07
0.00558689
6.49119e-07
1.61615e-06
0.0132577
4.84109e-07
9.33819e-05
0.00848706
8.08294e-07
9.64331e-07
6.51215e-05
0.00178832
6.69616e-07
0.00362298
4.90806e-07
8.81105e-07
2.10399e-06
1.0978e-06
6.78186e-07
6.96588e-07
8.88442e-07
1.31928e-06
2.70617e-06
0.00172693
4.90422e-07
1.67079e-06
5.58881e-07
0.000247907
1.60616e-06
1.6072e-05
1.88e-06
0.0119641
1.41761e-06
1.67941e-06
2.15934e-06
0.00898161
5.59883e-07
0.00888233
0.0202621
0.00617289
0.0108681
1.59494e-06
1.42937e-06
5.16483e-07
2.06605e-06
1.59384e-06
1.39336e-06
0.00724917
1.8873e-06
1.6737e-06
0.00566671
2.21426e-06
0.000100292
1.68871e-06
1.22858e-06
4.14267e-05
4.93346e-07
4.43195e-07
0.000102823
1.3239e-06
2.01316e-06
1.44795e-06
2.31846e-06
0.0167596
6.58991e-07
5.05197e-07
2.60924e-06
4.67688e-07
0.00036199
8.61042e-07
1.55056e-06
7.36486e-07
9.9439e-07
4.44579e-07
5.06548e-07
0.0123491
1.13415e-06
2.97942e-06
2.67089e-05
1.53739e-06
0.0040735
0.00650756
6.50428e-05
1.45309e-06
0.0022039
0.0102906
1.60589e-06
2.31944e-06
2.41729e-06
8.63314e-07
0.00548847
5.80196e-06
9.92543e-07
6.69941e-07
9.06427e-07
1.58637e-06
0.0072406
5.91433e-07
1.29466e-06
6.01367e-07
7.06249e-07
1.22571e-06
5.13331e-07
1.6263e-06
1.21348e-06
8.03869e-07
0.0170361
1.71767e-06
4.87781e-07
0.0127546
0.00700598
5.06417e-07
7.33427e-07
7.6242e-05
0.0148701
0.00011063
1.99153e-06
4.66867e-07
4.28962e-07
0.000211669
1.58838e-06
2.23176e-06
5.81952e-07
9.89548e-06
7.35239e-07
5.96197e-07
0.0199198
1.56213e-06
1.43216e-06
4.57201e-07
2.4755e-06
2.00911e-06
5.77226e-05
1.67531e-06
8.02017e-06
0.00947064
4.5671e-07
5.59912e-07
1.86121e-06
2.0329e-06
1.00471e-06
9.88352e-07
0.00266765
7.68904e-07
8.72623e-07
1.83565e-06
1.03524e-05
4.99005e-05
1.17599e-06
1.98885e-06
0.000260295
5.71789e-07
2.68712e-06
7.84549e-07
1.87308e-06
0.000637466
1.61416e-06
0.0179631
8.36203e-06
0.00604002
1.1091e-06
1.57074e-06
0.0181712
0.00382886
0.00731485
0.0110404
1.55448e-06
0.00290332
2.69809e-05
8.07625e-07
0.0154212
0.00879019
9.86891e-07
9.99369e-07
8.0343e-07
0.0185157
1.55173e-06
0.0172702
1.23398e-06
1.45267e-06
7.54961e-07
6.86702e-06
1.47377e-06
1.49742e-06
1.2345e-06
5.79458e-07
0.000126424
1.96023e-06
0.00290592
2.06543e-06
1.33063e-06
1.67737e-06
1.1891e-06
2.26283e-06
1.0961e-06
5.82382e-07
9.95685e-07
2.26203e-05
1.8565e-06
1.43213e-06
1.62575e-06
1.38025e-06
0.000124799
9.65205e-07
1.9627e-06
0.00356796
8.19044e-07
1.59971e-06
6.08149e-05
4.8717e-06
1.56067e-06
0.00616149
1.54155e-06
5.14989e-07
1.53106e-06
2.04883e-06
7.74821e-07
1.94545e-06
6.75036e-06
1.53098e-06
2.00252e-06
0.0113487
6.50879e-06
1.38327e-06
1.8131e-06
6.11822e-05
1.5186e-06
1.60125e-06
1.68219e-06
4.63589e-07
6.87374e-07
8.16186e-07
4.80609e-07
0.000695914
7.29306e-07
4.83031e-07
0.0165345
6.84499e-07
1.44102e-06
4.6361e-07
0.0065229
0.00357487
1.48753e-06
0.000285577
6.12966e-07
1.57886e-06
4.2123e-07
2.35668e-06
6.71674e-07
1.12056e-06
1.17525e-06
6.1173e-07
0.0152233
5.03868e-07
7.82011e-07
1.5257e-06
0.000599229
0.0105223
0.000250335
0.000400252
0.0109146
2.08713e-06
2.01493e-06
0.0179996
0.00016681
9.49122e-07
1.53585e-06
2.01812e-06
9.71806e-07
1.99565e-06
1.43181e-06
6.8162e-07
1.71741e-06
0.000172935
0.00279524
8.16133e-06
1.38337e-06
9.55314e-07
2.26844e-06
2.77879e-06
1.82719e-06
0.000134121
1.39643e-06
1.04469e-06
0.000505425
4.79384e-07
2.06163e-06
5.95256e-07
6.44627e-07
7.33064e-07
1.96962e-06
9.66097e-07
6.45598e-07
1.40772e-06
2.04386e-06
5.82174e-07
0.00774481
0.00622228
6.53926e-07
0.0148154
6.44748e-07
4.14972e-07
5.58655e-07
1.97335e-06
7.46142e-07
1.36183e-06
0.000280532
1.55064e-06
0.000170262
2.02926e-06
1.4413e-06
1.5306e-06
3.99033e-05
3.65866e-06
5.21105e-07
1.73834e-05
4.66947e-07
1.82876e-06
7.64541e-05
0.00709832
7.6188e-06
7.34055e-07
0.00727167
0.000300495
5.95489e-07
1.60133e-06
2.8931e-06
5.11825e-07
8.44131e-07
1.57018e-06
0.000277106
0.000179226
4.23053e-07
9.48727e-07
0.000264847
8.23785e-07
3.06249e-05
5.32829e-06
1.36696e-06
1.43884e-06
0.0213744
8.91369e-05
7.95772e-07
1.49994e-06
5.84269e-07
1.3384e-05
4.34129e-07
1.51055e-06
4.76554e-07
2.30428e-06
1.62113e-06
4.77643e-07
0.0168808
0.000319845
2.86682e-06
0.00824068
5.77153e-07
1.27119e-06
1.49631e-06
0.00171377
2.45848e-05
0.00735576
5.82581e-07
0.0226653
1.22353e-06
1.62286e-06
6.27029e-07
1.63984e-06
9.82336e-07
0.020226
0.00788307
1.40412e-06
8.47298e-07
8.67928e-06
7.45954e-07
1.55859e-06
1.60975e-06
0.00127202
1.57204e-06
1.49437e-06
7.35366e-07
0.000117941
0.00418975
4.65879e-07
1.26955e-06
1.34764e-06
6.66781e-07
1.58217e-06
6.71602e-07
8.24805e-07
1.22254e-06
1.94755e-06
1.62249e-06
1.60723e-06
2.42495e-06
9.8304e-07
0.0168817
1.05075e-06
7.37664e-06
0.00748329
5.28688e-07
5.27305e-07
0.011652
1.55063e-06
0.000596394
0.0161265
1.37056e-06
1.62712e-06
1.06684e-06
0.0139672
0.00630816
1.4697e-06
3.57018e-06
0.00730421
1.15832e-06
0.00021244
4.46876e-07
0.00575133
0.00650844
1.57005e-06
0.00771758
6.31366e-07
0.000212786
2.08576e-06
0.00955768
1.59418e-06
0.000352167
9.40828e-07
4.9445e-07
8.03144e-07
2.32873e-06
1.95747e-06
1.1595e-06
5.72594e-07
5.74635e-07
0.00724291
0.0168703
8.66435e-07
0.0084388
0.000124475
1.58134e-06
1.12104e-06
5.22413e-07
0.000158089
1.21559e-06
1.73748e-06
1.65466e-05
0.00480398
7.20885e-06
4.92495e-07
5.78404e-07
1.61382e-06
0.00177021
6.79648e-07
0.00400499
1.11036e-06
4.8378e-07
1.15401e-06
0.00299471
1.04324e-06
6.85339e-06
1.34481e-06
1.55469e-06
1.4594e-06
6.59405e-07
1.06426e-06
6.21046e-07
0.000214078
0.000242016
6.82838e-06
7.41032e-07
1.41284e-06
5.69892e-07
7.49026e-07
0.0073619
1.9741e-06
0.00013272
7.65837e-07
0.000820908
1.03363e-06
7.00566e-07
2.07755e-06
0.0072189
1.56021e-06
5.28082e-07
1.1439e-06
4.97293e-05
0.000179703
7.43357e-07
2.28353e-06
1.30049e-06
4.28557e-07
1.12239e-06
0.00954756
2.94859e-06
8.53746e-07
0.0121084
0.0209506
0.00769144
0.000113049
1.25954e-06
0.00558595
2.02897e-06
1.50731e-06
5.38917e-05
0.0054552
1.83302e-06
2.36118e-06
2.00145e-06
9.40659e-07
1.5921e-06
3.2456e-06
3.10268e-06
1.04283e-06
4.98979e-07
2.60088e-06
1.63262e-06
1.64194e-06
1.01824e-06
0.000147881
1.41293e-06
7.73063e-05
1.59954e-06
1.53739e-06
3.90068e-06
1.34159e-06
1.58169e-06
0.00447027
1.55491e-06
0.02072
0.000334584
0.000414588
2.11103e-06
1.61996e-06
0.00326802
1.18007e-06
8.79476e-07
2.01084e-06
5.81316e-07
5.0412e-07
0.0167052
1.4913e-06
1.58948e-06
1.52299e-06
1.51869e-06
5.8395e-07
4.4691e-07
1.96334e-06
1.26623e-06
0.00546425
1.01988e-06
0.000116394
1.1754e-06
0.0112472
5.95519e-07
4.41196e-07
0.000472355
1.03727e-06
0.000211784
4.9183e-07
4.00842e-06
1.61617e-06
1.49552e-06
1.58851e-06
3.43074e-05
5.943e-07
8.72252e-07
5.55047e-07
4.27792e-07
0.0140066
5.89517e-07
6.29409e-07
0.00948023
0.0091097
1.17509e-06
0.0151911
1.59785e-06
1.21639e-06
1.93507e-06
1.63463e-06
1.61891e-06
0.0138171
1.48534e-06
2.26369e-06
1.6117e-06
0.00960158
0.00539166
5.05835e-07
5.68417e-07
1.17514e-06
0.0004527
1.17703e-06
0.00604542
1.21268e-06
5.10959e-07
5.95635e-07
6.23351e-07
5.28839e-07
6.16801e-07
1.98035e-06
2.01884e-06
9.16459e-05
5.51498e-07
1.18374e-06
0.00138785
1.03329e-06
6.31758e-07
0.0108918
1.81825e-06
1.58777e-06
1.13233e-06
1.0096e-06
2.10637e-06
1.51315e-06
0.000256109
1.25751e-06
1.55663e-06
1.8473e-06
0.00023619
1.58631e-06
0.0139804
0.000155272
0.0214774
3.53591e-06
1.17128e-06
1.90933e-06
0.0163433
5.86113e-07
2.01472e-06
4.6063e-07
1.44766e-06
2.02731e-06
0.0175604
5.65023e-07
0.00452163
1.37173e-06
8.63236e-05
1.39723e-06
2.24235e-06
1.98091e-06
2.3066e-06
0.00449909
0.00393343
4.53761e-07
0.00830026
5.08602e-07
0.0152294
1.47218e-06
2.0384e-06
1.63621e-06
1.57655e-06
1.54176e-06
7.24189e-07
1.21036e-06
2.25831e-06
6.46015e-07
4.23108e-07
5.08891e-07
1.1588e-06
1.4908e-06
4.53381e-07
4.60161e-07
2.25755e-06
6.17273e-07
0.00013859
9.36842e-07
1.58168e-06
7.39091e-07
1.69004e-06
4.47482e-07
1.78758e-06
6.91465e-07
0.00843549
1.18562e-06
1.54929e-06
5.25356e-07
7.6382e-07
4.22565e-07
1.41758e-06
1.17523e-06
1.43928e-06
0.0164173
7.79393e-07
0.00720992
0.00195428
3.84881e-06
4.46787e-07
7.64919e-07
0.0157028
0.00182671
0.0012288
0.00125953
7.95851e-05
0.00517339
0.00161553
1.6148e-06
0.00762848
1.15438e-06
1.42833e-06
5.27186e-07
1.82155e-06
1.0315e-06
1.62175e-06
1.97524e-06
8.62946e-07
0.00111864
8.74681e-07
1.48421e-06
2.70514e-06
0.00859105
1.33636e-05
2.80841e-06
0.000211595
1.48087e-06
1.14686e-06
5.89873e-07
7.4769e-07
0.0169691
0.0167744
9.26845e-07
7.2843e-07
1.25308e-05
1.76655e-06
0.000126323
1.42843e-06
1.21733e-06
1.55087e-06
5.45125e-05
1.60211e-06
5.83446e-07
4.76515e-07
7.71288e-07
9.57451e-07
1.17359e-06
1.60661e-06
0.0106678
0.0170369
5.91842e-07
0.00473684
4.9622e-07
0.00334841
1.32587e-05
0.000399594
4.77884e-07
1.20495e-06
0.00780152
4.7689e-07
0.00733497
1.54643e-06
4.7939e-07
1.46653e-06
8.94034e-07
0.00960906
1.35222e-06
6.52208e-07
2.17321e-06
1.55264e-06
1.79628e-06
1.17668e-06
0.0101223
5.12919e-07
1.16597e-06
7.42273e-07
1.52255e-06
1.72481e-06
1.64958e-06
1.58088e-06
1.49752e-06
0.00152332
1.60993e-06
4.24347e-07
1.12464e-06
7.2709e-07
1.30076e-06
2.15246e-06
1.84807e-06
0.0221971
1.25701e-06
1.56649e-06
0.000174566
1.11221e-06
0.0046298
2.27253e-06
4.23459e-07
1.18694e-06
0.00577425
9.33748e-07
1.61361e-06
9.63973e-07
1.14645e-06
1.41672e-06
1.2432e-06
0.0103655
1.55227e-06
1.35661e-06
1.201e-06
0.00542823
4.54991e-06
7.24879e-07
1.20386e-06
0.000163885
7.32402e-07
0.00681728
5.8995e-07
1.26325e-06
0.00099945
1.48541e-06
0.00559363
1.77096e-06
0.0159033
1.41187e-06
5.29089e-07
7.72015e-07
1.61141e-06
8.13564e-07
1.54227e-06
0.000455075
0.00981865
1.28493e-06
1.28588e-05
0.000264338
0.0104614
0.000494529
2.30527e-06
1.04187e-06
4.43261e-07
0.00102487
4.8085e-07
3.34477e-06
1.76908e-06
0.00679338
4.74073e-07
1.29501e-06
5.8867e-07
7.54323e-07
0.00015288
1.26657e-06
5.67555e-06
8.05048e-07
1.74721e-06
0.00814754
1.25449e-06
8.19065e-07
8.52435e-07
0.000447925
0.000196454
0.00163609
2.78975e-06
1.20705e-06
0.0084547
1.19821e-06
5.7753e-06
1.14808e-06
4.80914e-06
2.64338e-06
1.84227e-06
9.65427e-05
6.38031e-05
7.20945e-07
2.34531e-06
0.0183404
0.00360261
0.00352134
0.00662422
0.000285381
1.75618e-06
1.7648e-06
0.00761967
1.2545e-06
1.63429e-06
1.25674e-06
0.000327578
0.000354133
0.010444
1.64381e-06
9.83316e-07
5.81478e-07
1.16957e-06
7.58589e-07
1.54721e-06
1.23819e-06
4.24701e-06
1.28893e-06
0.00813372
1.60501e-06
9.991e-07
1.15583e-06
0.015369
3.12676e-05
1.61146e-06
0.00508502
1.24532e-06
0.000159963
1.05189e-06
9.60667e-07
1.24147e-06
7.87785e-07
7.09257e-07
1.34013e-06
0.000520118
4.42012e-07
4.29272e-07
0.0153942
0.00518637
9.44288e-07
1.50873e-06
1.12765e-06
0.00845148
5.3421e-07
1.62973e-06
0.00012363
1.14834e-06
0.00356198
6.18375e-07
1.60743e-06
7.34529e-07
0.0102149
1.48183e-06
1.40404e-06
1.5663e-06
0.00734954
1.52543e-06
6.20252e-07
1.34673e-06
1.43442e-06
0.000285754
7.06589e-07
0.00482257
7.89423e-07
1.12474e-06
3.34166e-06
1.00953e-06
5.17787e-07
7.6707e-07
7.86403e-07
1.48531e-06
0.00783581
0.00505572
2.20856e-06
1.63215e-06
1.14234e-06
1.54374e-06
1.26617e-06
1.26515e-06
2.8461e-06
5.92105e-07
0.00794555
1.19966e-06
5.93371e-07
1.77087e-06
6.2355e-07
1.19565e-06
3.20008e-06
1.22554e-06
4.40409e-07
8.53697e-07
6.75283e-07
5.83708e-07
5.17701e-07
1.22777e-06
3.7671e-06
9.63178e-07
7.37835e-06
0.00019987
8.04102e-05
7.4738e-07
0.000412252
6.72717e-07
1.49338e-06
1.8862e-06
0.000186479
5.83761e-07
1.92267e-06
6.00131e-07
4.76575e-07
7.46411e-07
4.15976e-07
1.35768e-06
1.48079e-06
1.42454e-06
3.2931e-06
0.000122471
6.26427e-07
5.84477e-07
1.0267e-06
7.76677e-06
1.51126e-06
0.00737957
1.5368e-06
1.39372e-06
1.1709e-06
1.27575e-06
5.00235e-06
1.0118e-05
6.26349e-07
5.17988e-07
5.42674e-07
1.30912e-06
0.000559704
7.88779e-07
1.6767e-06
1.52664e-06
4.3113e-07
4.51416e-06
9.67494e-07
8.00211e-07
1.63459e-06
5.82475e-07
0.015394
3.15494e-06
5.08937e-07
0.000106061
9.56646e-07
3.0016e-06
6.86148e-07
1.60815e-06
1.46765e-06
2.11628e-06
8.13032e-07
8.1246e-07
1.43607e-06
1.61119e-06
5.45141e-05
5.58138e-07
4.44054e-06
1.14593e-06
1.22795e-06
1.43875e-06
0.0182455
0.000800783
5.82673e-07
0.00421838
1.55137e-06
2.20564e-06
0.0058128
5.0967e-05
0.00646386
6.26865e-05
0.0135556
7.56879e-07
0.000191605
0.000383394
0.0077525
1.66656e-06
0.000289352
9.95041e-05
6.02997e-07
1.23539e-06
0.000222611
8.26592e-07
0.00881108
1.20154e-06
0.00790541
0.000195418
0.00178099
9.28334e-07
6.69301e-07
8.15556e-07
1.25717e-06
0.000269331
1.65884e-06
8.5673e-07
1.621e-06
1.59186e-06
1.49041e-06
0.000178821
1.62133e-06
5.54556e-07
4.95962e-07
0.00586082
0.00920114
2.26392e-06
5.69972e-07
0.0016573
1.5393e-06
4.25007e-07
4.93101e-07
4.331e-07
1.13804e-06
8.0544e-07
0.00718873
0.00550172
4.23963e-07
1.86352e-06
0.000654848
0.000123304
7.69896e-07
5.87338e-07
1.02649e-06
1.3669e-06
1.00183e-06
0.0089966
1.84268e-06
8.74162e-05
1.48127e-06
5.53648e-07
1.19353e-06
4.36504e-07
2.10992e-06
4.70994e-07
5.53473e-07
7.46979e-07
0.000106218
1.19529e-05
4.96391e-07
8.46319e-07
1.3543e-06
1.03434e-06
0.00250355
8.92001e-07
9.11185e-07
6.13212e-05
9.12814e-07
0.00710226
0.000292811
1.80594e-06
4.61858e-05
0.0138507
0.000234636
2.16751e-06
3.89614e-06
1.43105e-06
1.10206e-06
1.54478e-06
7.51516e-07
8.336e-05
1.42272e-06
1.28675e-06
1.24241e-06
1.25003e-06
3.26427e-06
1.42611e-06
0.00543967
1.63158e-06
1.80801e-06
8.9024e-07
6.69483e-07
1.64367e-06
2.1379e-06
1.1056e-06
8.81063e-07
8.46863e-07
4.8186e-07
7.87073e-05
1.43886e-06
5.12224e-07
1.56083e-06
1.30918e-06
4.24383e-07
2.10082e-06
0.0086255
4.22526e-06
1.10083e-06
7.88717e-07
3.07047e-06
0.0125235
0.00283061
1.65359e-06
7.30462e-07
0.00821262
1.64595e-06
1.39584e-06
1.63176e-06
2.41562e-06
7.50009e-07
0.00513272
1.45638e-06
1.61781e-06
1.62814e-06
4.68572e-07
7.53089e-07
4.4306e-07
0.000130063
0.000122288
0.0225217
1.02062e-06
0.000291165
2.13464e-06
7.44736e-07
6.36845e-07
5.71071e-06
1.34057e-06
0.00697705
2.23737e-06
0.00010169
1.73344e-06
2.17357e-06
1.87591e-06
8.71812e-07
0.00190989
7.35211e-07
0.000172954
0.000556148
7.47432e-07
1.30964e-06
2.10751e-06
0.000296652
1.15722e-05
1.43202e-06
0.00312698
6.76385e-07
0.00520439
1.69207e-06
0.00378516
0.00478743
7.60095e-07
1.33181e-06
1.79209e-06
2.09956e-06
0.0067838
3.94704e-05
4.44035e-07
5.54125e-07
1.09373e-06
1.60469e-06
1.59631e-06
3.39729e-05
1.4331e-06
0.0115825
7.40883e-07
1.98282e-06
1.41426e-06
3.39007e-06
4.20291e-07
4.24505e-05
4.86985e-07
1.70087e-06
4.20482e-07
6.69068e-07
7.39641e-07
1.86199e-06
1.43213e-06
1.53892e-06
0.00165892
8.27268e-07
5.23656e-07
0.000144394
1.17449e-06
2.12322e-06
0.00543734
0.000135624
1.46108e-06
5.83989e-07
1.109e-06
0.000247137
1.60007e-06
7.31154e-07
1.34108e-06
9.01858e-05
4.48621e-07
0.000103478
1.59809e-06
0.00356438
2.01481e-06
1.34474e-06
1.15066e-06
9.76154e-07
2.27374e-05
0.0116054
0.000121825
1.01413e-06
0.0101427
0.000688732
0.00704283
7.88603e-07
9.29972e-07
1.9635e-06
8.93803e-07
7.63928e-07
5.6388e-07
1.01624e-06
8.76872e-07
5.55334e-07
5.54794e-07
8.91764e-07
5.44331e-07
4.72497e-07
1.23485e-06
8.33657e-07
0.0127251
1.33245e-06
4.46562e-07
0.000180231
1.43088e-06
7.05548e-05
0.000271642
2.8975e-06
0.00388362
7.69005e-07
0.00162408
9.23502e-07
0.000252068
7.33763e-07
0.00219355
3.00575e-06
0.0102665
7.61182e-07
1.18961e-06
0.00131378
2.7922e-06
2.47703e-06
4.62749e-07
1.28199e-06
6.79138e-06
1.19352e-06
1.30077e-06
9.42109e-07
8.4472e-07
0.00732486
1.48482e-06
9.3699e-07
1.69051e-06
1.22952e-06
0.00719266
1.50625e-06
6.03975e-07
1.10456e-06
4.98356e-07
4.33845e-07
0.00825588
0.000273489
4.14102e-07
7.40581e-07
0.000266518
1.61334e-06
7.2139e-07
7.29555e-07
1.38834e-06
8.19271e-07
4.21354e-07
9.51666e-07
8.46365e-07
5.32932e-07
1.63081e-06
0.000148537
0.000138255
1.17974e-06
7.41237e-07
5.04147e-07
0.00918284
3.63871e-06
1.72431e-06
5.31596e-07
2.93759e-06
2.137e-06
7.67161e-07
5.11594e-07
7.20352e-07
3.09798e-06
7.40153e-07
0.00396732
6.19675e-05
0.000856862
5.65607e-07
2.00371e-06
0.000228249
0.0149955
6.09524e-05
0.0130253
1.48898e-06
0.0134963
1.20871e-06
2.87932e-06
6.09267e-07
5.14732e-06
8.80458e-07
1.46529e-06
1.61764e-06
0.00024518
1.00972e-06
0.0139599
0.00121256
8.62965e-07
5.41374e-07
1.64052e-06
1.48824e-06
1.43773e-06
1.14983e-06
0.000490045
8.75131e-07
1.63082e-06
5.18145e-07
0.0091298
1.63189e-06
8.4996e-07
1.41891e-06
5.90618e-07
1.43332e-06
0.0223589
1.03763e-06
1.40042e-06
2.08556e-06
0.00189864
8.29165e-07
0.000118852
7.21056e-07
5.05277e-07
0.000186885
7.55732e-07
1.40167e-06
6.01502e-07
5.17307e-07
1.64969e-06
8.49283e-07
1.09294e-06
0.0165147
1.53184e-06
9.48575e-07
1.71071e-06
0.000143229
5.54413e-07
3.51326e-06
4.70845e-07
3.85254e-06
5.99983e-07
8.76628e-07
0.000145166
7.8177e-07
1.20366e-06
6.57795e-07
0.00980484
0.00325019
6.63523e-07
1.29064e-05
4.29639e-07
5.58422e-07
0.00823918
1.20296e-06
1.03028e-06
1.82095e-06
1.71269e-06
1.89264e-06
1.92386e-06
9.18815e-07
1.62657e-06
5.59934e-07
6.0244e-06
6.99157e-05
1.52551e-06
1.08933e-06
4.75157e-07
1.25125e-05
1.5752e-06
0.000115876
0.0111945
1.63327e-06
4.64655e-07
1.36359e-06
3.35688e-06
8.6554e-06
4.67093e-07
4.16287e-07
2.34345e-06
1.25684e-06
6.01895e-07
1.5319e-06
0.0176607
1.51366e-06
0.00886845
6.23843e-07
0.000225586
4.27631e-07
1.64546e-06
7.75205e-06
0.00134333
8.32944e-05
7.48385e-07
8.28433e-07
2.01476e-06
5.90628e-07
8.72722e-07
0.00122484
8.6589e-05
2.26078e-06
4.98723e-07
0.0114314
0.000915792
0.00428789
1.52425e-06
7.6415e-07
1.33291e-06
1.62147e-06
0.00026363
1.16833e-06
5.07923e-07
0.00917145
0.000426986
0.000326776
1.82625e-06
7.49106e-07
4.17783e-06
0.00653892
0.0127723
5.03278e-05
9.22285e-07
2.29888e-06
7.28822e-07
8.71691e-06
0.000272112
0.00785245
1.98359e-06
0.00676715
5.20634e-07
6.59821e-07
1.54122e-06
0.0115039
1.0772e-06
7.29823e-07
0.000141994
1.4303e-06
1.64396e-06
6.2542e-07
1.41383e-06
1.0414e-06
0.000368504
6.62044e-06
5.77445e-07
1.27971e-06
1.6277e-06
2.2393e-06
1.5764e-06
1.09911e-06
0.00289242
1.22291e-06
0.000157878
0.00185478
0.000217846
6.36076e-07
1.01393e-06
0.00632066
0.000187484
7.20232e-07
0.0102978
0.0145882
1.02897e-06
0.00325039
1.49385e-06
1.2432e-06
1.85548e-06
1.46742e-06
0.00575258
4.25027e-07
7.68199e-07
1.29551e-06
2.36216e-05
0.00294958
1.4827e-06
1.45569e-06
0.00742372
0.00956267
7.43717e-07
0.000167416
3.46119e-05
5.45832e-07
6.65886e-07
1.33375e-06
2.88276e-06
1.20196e-06
2.1626e-06
0.0156838
6.25411e-07
1.78835e-06
0.000315822
1.68053e-06
1.81964e-05
7.7394e-07
2.45178e-06
0.0117332
0.00343059
1.40434e-06
1.58658e-06
0.0109379
0.00445817
7.4153e-07
7.85948e-07
5.13712e-05
1.58104e-06
1.58374e-06
1.51344e-06
0.000255778
5.07162e-07
6.80058e-07
8.03173e-06
1.35612e-05
1.56484e-06
8.76939e-06
2.59573e-06
1.23756e-06
9.00955e-07
1.77028e-06
7.32527e-07
2.8508e-06
9.85034e-05
0.00023065
7.21398e-07
9.57947e-07
0.000126826
1.5283e-06
4.90668e-07
3.56166e-06
1.07411e-06
1.62496e-06
0.00732628
1.58132e-06
1.1041e-06
2.82925e-06
1.72228e-06
1.52189e-06
0.00486293
0.000266558
9.91092e-07
1.36989e-06
0.00658079
1.63509e-06
0.00277681
8.52823e-07
1.62108e-06
1.3951e-06
3.71679e-06
0.00920623
1.59688e-06
7.74281e-07
2.84908e-06
1.73466e-06
9.89131e-07
2.06425e-06
6.64042e-07
1.52083e-06
1.57117e-06
1.63075e-06
5.53602e-07
1.07284e-06
1.23274e-06
1.8763e-06
0.00578526
1.65444e-06
1.76915e-06
1.36449e-06
1.70252e-06
9.54276e-05
1.53013e-06
1.42158e-06
7.38924e-07
2.8479e-06
0.0144933
1.94613e-06
1.15635e-06
9.70929e-07
0.00838195
9.07865e-07
1.52744e-06
0.000208979
1.20872e-06
1.4412e-06
0.0240491
1.47746e-06
6.95106e-07
8.17657e-05
5.33166e-06
1.51433e-06
0.000202947
1.44222e-06
6.35089e-07
1.5008e-06
0.0156801
1.33992e-06
1.41318e-06
1.08147e-06
1.36328e-06
0.00413501
1.60773e-06
1.81033e-06
4.15468e-07
1.65642e-06
1.52291e-06
4.88401e-07
0.00175847
1.06433e-06
2.65463e-05
4.90443e-06
5.55443e-07
1.38444e-06
6.31398e-05
3.44445e-06
1.44088e-06
1.58972e-06
0.019782
1.11217e-06
0.00742517
0.019203
1.25192e-06
2.34181e-05
0.023874
2.095e-06
1.44903e-06
9.97918e-07
9.48631e-06
1.28517e-06
0.00779829
1.60885e-06
6.91784e-07
3.12243e-06
2.34025e-06
1.83246e-06
1.43169e-06
0.00330645
0.00870995
1.05978e-06
9.62699e-07
7.17504e-07
2.16712e-06
1.42256e-06
6.57604e-07
0.000256009
0.00335177
4.26882e-06
0.000225692
2.27325e-06
1.19537e-06
1.12776e-06
7.453e-07
4.10654e-07
0.000252706
1.01331e-06
1.61219e-06
1.74492e-06
1.30228e-06
0.00344799
1.46779e-06
0.00343559
0.00378159
1.81407e-06
1.69128e-06
1.14766e-05
8.79982e-07
1.3528e-06
0.00762283
4.59165e-07
2.17957e-06
0.00785231
1.9889e-06
0.000262142
4.855e-07
0.000360399
0.000131581
0.000239383
0.000336108
4.50369e-07
0.000229017
0.000333037
3.06894e-06
6.05728e-06
1.42503e-06
0.00674911
1.35371e-05
0.000119787
0.000124609
1.05587e-06
0.00393378
0.000420394
0.00621966
0.0076136
0.000120609
0.00832693
0.00377711
1.53944e-06
1.19895e-06
0.00790928
6.89e-07
1.55723e-06
4.55317e-07
0.0134105
1.89474e-06
1.18364e-06
0.00717674
1.12092e-06
0.000368058
1.7836e-06
1.73771e-06
6.8518e-07
4.56861e-07
0.000245035
0.014772
7.32407e-07
1.40571e-06
3.21188e-06
1.47156e-06
1.66119e-06
7.18912e-07
8.71413e-07
8.71814e-07
6.79226e-07
0.0123024
1.83349e-06
2.52194e-05
0.000253856
7.6946e-07
0.0116352
1.03451e-06
1.56451e-06
7.16654e-07
7.2565e-07
1.9221e-06
7.68139e-07
8.11786e-07
0.000323624
9.71685e-07
1.66927e-06
1.37842e-06
1.12814e-06
3.06931e-06
1.44097e-06
4.49897e-07
7.65473e-07
1.19963e-06
7.40726e-07
7.18897e-07
6.18652e-07
2.16851e-06
0.00786978
1.4711e-06
1.52322e-06
1.5278e-06
1.34799e-06
0.00406004
1.10338e-06
0.000167761
1.47402e-06
1.95147e-06
5.12111e-07
8.40488e-07
7.80708e-07
1.22658e-06
0.000116054
0.0219421
0.00957906
6.61248e-07
4.34947e-05
2.30768e-06
0.000116094
6.36507e-07
1.90075e-06
0.0154381
6.18616e-07
0.00143547
0.00651739
0.00622934
1.48937e-06
1.5301e-06
7.26617e-07
2.7724e-06
1.23133e-06
0.00813943
0.00257302
8.9608e-07
0.000190082
1.03264e-06
4.38708e-07
0.00338595
1.39275e-06
1.1065e-06
0.0168896
0.00861658
2.23171e-06
1.10322e-06
8.13372e-07
4.43675e-06
8.39298e-07
3.99124e-06
9.04445e-07
5.44543e-07
1.04522e-06
1.62263e-06
2.75114e-05
0.000211835
1.2104e-06
5.51247e-05
7.34028e-07
0.0134886
0.0128142
2.48962e-06
0.000148647
1.63009e-06
0.0175762
1.65088e-06
1.43547e-06
1.50491e-06
6.99015e-07
4.37787e-05
1.50551e-06
5.78668e-07
6.01642e-07
0.00145651
1.24513e-05
0.00831204
9.35831e-06
1.10022e-06
1.33471e-06
0.0193352
0.000100311
1.22818e-06
1.00399e-05
0.00507781
5.6853e-06
0.0051005
2.17022e-05
2.33506e-06
8.97953e-07
6.35028e-07
0.00769671
0.00414825
2.27658e-06
8.6064e-07
8.13188e-07
0.00705607
1.27048e-06
6.49192e-07
0.0153312
0.00170459
1.86843e-06
1.63739e-06
1.85253e-06
0.000226544
6.20788e-07
1.10408e-06
7.07549e-07
1.61855e-05
1.41326e-06
2.38197e-06
1.38727e-06
0.000127901
0.00558253
4.11776e-06
0.00838757
1.69888e-06
1.41921e-06
1.8745e-06
0.000169846
2.03513e-06
6.54761e-07
8.80093e-05
9.59346e-05
7.15717e-07
1.33677e-06
1.4274e-06
5.96281e-06
2.04359e-06
0.00836065
1.3039e-06
1.72606e-06
1.68106e-06
0.000103042
7.37439e-06
2.18171e-05
4.70899e-06
1.31847e-06
0.000107525
1.4174e-06
0.00267632
1.61752e-06
1.60307e-06
0.0233225
1.01772e-06
4.64829e-06
4.23691e-07
1.43465e-06
1.36074e-06
0.00015901
0.015568
1.56447e-06
0.00963126
5.37263e-07
0.000142225
4.73512e-07
0.000136964
1.10014e-06
7.1889e-07
5.96807e-07
1.10799e-06
0.000160435
1.59095e-06
1.70898e-06
0.0120078
0.00369795
0.00649143
6.91441e-07
1.49257e-06
1.5247e-06
2.03989e-06
2.58065e-06
1.43826e-06
1.34424e-06
0.000131009
0.00651091
0.0116768
0.000173487
1.02272e-06
0.00538484
0.00015204
1.39275e-06
1.10035e-06
1.48221e-05
1.61618e-06
0.000165161
6.82679e-07
0.00561662
1.05858e-06
6.00659e-07
6.9088e-06
0.000510068
1.42164e-06
0.0188161
2.31951e-06
1.41971e-06
0.00289202
1.65255e-06
1.41442e-06
1.16639e-06
1.35932e-06
1.87049e-06
2.6956e-05
0.0162495
1.69954e-06
1.18562e-06
0.00468573
7.08756e-06
5.69502e-06
1.09991e-06
1.25638e-05
7.55132e-07
1.94541e-06
2.28779e-05
0.00668936
1.65729e-06
0.000408108
0.000133331
1.51024e-06
0.0131548
1.89024e-06
6.8272e-07
1.82314e-06
3.49406e-06
0.0152575
2.20354e-06
9.1007e-07
1.97955e-06
5.95001e-07
7.4528e-07
7.74471e-07
1.42525e-06
0.0112728
1.95994e-06
2.54721e-06
1.28702e-06
0.000279838
1.22596e-06
1.60256e-06
2.15999e-05
1.2255e-06
0.000209177
0.00850341
0.000375974
0.0191581
1.57071e-06
1.51989e-06
1.86921e-06
2.931e-06
6.4624e-07
7.13366e-07
6.43519e-06
4.75922e-05
0.00634924
6.78919e-07
1.6911e-06
0.00212935
1.57605e-06
0.0127384
1.07853e-06
7.62339e-07
1.57801e-06
8.32335e-07
9.39166e-06
1.40473e-06
1.49487e-06
7.60795e-07
1.9387e-06
5.15829e-07
5.1293e-06
1.4733e-06
1.55484e-06
0.00174412
1.04049e-05
2.00718e-06
1.2735e-06
1.65757e-06
2.04614e-06
1.70716e-06
2.48458e-05
6.66722e-07
0.00012941
1.6057e-06
0.000436232
1.37827e-06
7.4756e-07
1.34114e-06
1.35392e-06
1.71538e-06
7.54302e-07
1.97172e-06
1.11681e-06
9.26816e-07
1.59373e-06
1.04519e-06
1.21765e-06
1.70367e-06
0.00817724
0.00530224
0.0189436
0.0176874
1.60789e-06
1.63059e-06
1.13613e-06
0.010723
0.0072625
1.74489e-06
1.02079e-05
9.80784e-07
4.65851e-06
1.28441e-05
6.2581e-07
3.89191e-06
1.04007e-06
1.49229e-06
1.98628e-05
7.60857e-07
1.21252e-06
0.00605259
0.01955
1.64088e-06
1.93846e-06
7.22773e-07
9.04556e-07
0.000123023
1.24812e-06
6.01774e-07
0.00583831
0.00735832
0.000155751
3.08444e-06
0.0144632
1.42119e-06
0.000255258
0.000940042
0.000338255
1.46872e-06
0.0152346
1.58874e-06
1.63271e-06
8.04338e-05
1.85069e-06
0.0091801
1.23879e-06
0.00414734
0.000167396
1.42605e-06
4.6708e-07
1.34717e-06
1.91432e-06
1.82599e-06
6.73504e-06
0.000849582
0.000245718
0.000108844
0.0186482
7.24511e-07
1.61922e-06
2.8574e-06
0.000289511
1.48112e-06
1.25829e-06
2.09236e-06
9.98839e-06
1.52199e-06
6.76375e-07
0.000355898
0.0125787
3.36033e-06
6.89118e-07
0.0130711
1.03566e-06
4.79647e-07
1.7039e-06
0.000247989
5.88881e-06
2.32794e-06
4.17998e-07
7.79347e-05
4.81269e-07
6.6812e-07
0.0121373
0.000117117
7.08027e-07
1.39741e-06
1.18566e-06
1.20146e-06
1.0256e-06
9.11447e-07
7.16326e-07
0.000167307
1.62088e-06
1.09297e-06
1.17607e-06
6.18165e-07
7.00429e-07
0.0153624
3.75366e-06
1.5021e-06
0.00822847
2.88174e-05
0.00534889
0.0048811
8.93361e-07
5.65282e-06
5.36757e-07
1.67075e-06
0.0144908
0.0065328
1.56815e-06
0.00404428
0.0057812
0.000506639
0.00554439
0.0187396
0.0243193
7.26904e-07
5.28166e-05
9.00231e-07
0.000184275
5.55229e-07
1.21312e-06
1.89468e-06
0.000192075
5.82785e-07
1.50388e-06
1.4035e-06
1.51452e-06
0.0234184
1.49687e-06
0.00731383
1.327e-06
6.24041e-07
0.00839861
1.48969e-06
0.00390279
7.61658e-07
2.13095e-06
0.0106979
7.05741e-07
0.0161842
7.33767e-07
1.50104e-05
0.0235865
0.0202037
7.60241e-07
0.000254902
1.06136e-06
1.25149e-06
6.76497e-07
7.96738e-07
0.000182908
7.98826e-06
7.14165e-05
1.65708e-06
1.41869e-06
8.8769e-07
0.000103563
0.00183424
0.000102503
0.00324269
7.26062e-07
0.00826745
0.0111023
1.5403e-06
0.00609808
1.92584e-06
0.000148723
1.21337e-06
6.0334e-07
0.0013156
1.09964e-06
1.82029e-06
1.21892e-06
0.00912651
4.12561e-07
1.53536e-06
4.12786e-07
1.52826e-06
7.87424e-07
0.000382783
0.0134949
1.58565e-06
3.79805e-06
1.01704e-06
0.00020578
1.40722e-06
1.02046e-06
0.00593076
0.000205507
6.76875e-07
8.50135e-07
0.000459775
4.60295e-07
0.00389115
6.19323e-07
4.85578e-07
1.42224e-06
0.0135715
0.000179856
7.69226e-07
0.000181618
0.016989
1.64679e-06
1.45453e-06
7.67749e-07
1.8221e-06
0.0095398
0.0143659
0.0039642
0.0137014
1.30411e-06
1.93311e-06
1.40775e-06
0.0085784
0.0106727
9.08274e-07
6.55063e-07
2.27373e-05
1.24332e-06
1.56229e-06
1.74324e-06
0.000161122
0.0153369
1.48684e-06
1.46974e-06
1.78228e-06
0.000111969
1.35079e-06
5.50669e-07
0.00949427
9.72956e-07
5.36054e-06
8.3647e-07
9.2583e-07
1.45104e-06
5.48375e-05
9.28643e-07
1.06156e-06
2.05333e-06
0.0139719
0.0134462
9.18581e-07
0.00699804
1.4588e-06
7.27038e-07
2.94675e-06
9.94604e-07
1.32051e-06
4.6737e-05
1.18352e-06
1.40734e-06
1.77749e-06
1.95066e-06
1.46711e-06
8.63724e-07
1.10278e-06
0.000117894
1.43243e-06
1.28206e-06
1.51249e-06
0.00493596
1.46936e-06
1.51121e-06
1.56772e-06
1.50356e-06
0.000119771
1.80464e-06
0.0083668
7.2113e-06
6.4869e-06
0.0150057
1.52955e-06
1.9778e-06
7.89978e-07
0.000268076
1.01324e-06
0.0133286
0.0184563
0.000129848
1.06239e-06
5.89365e-07
6.89126e-07
0.00302088
0.00569072
7.95114e-05
6.9672e-07
1.90557e-06
8.03708e-07
0.0196422
0.00715252
0.00174499
5.99094e-07
0.0067156
0.00978055
7.26886e-07
0.0174322
0.00298328
0.00188549
1.56083e-06
1.6945e-06
2.37e-06
5.14991e-07
1.90337e-06
0.000110519
0.000166879
1.5865e-06
0.000266637
0.00643745
4.45381e-06
1.45954e-06
0.00806931
1.71964e-06
7.83916e-07
0.0195166
8.10255e-07
1.33871e-06
0.00929701
0.000121048
8.4316e-05
0.0159813
0.00532369
1.58284e-06
4.38993e-06
7.13386e-07
6.91862e-07
0.00561318
1.70329e-06
5.36643e-07
7.16767e-07
9.28988e-07
1.46004e-06
1.57727e-06
0.00160616
1.62471e-06
2.19216e-06
0.00846291
1.14508e-06
5.66618e-07
1.64635e-06
4.93481e-07
0.0202148
0.000694785