/*--------------------------------*- C++ -*----------------------------------*\
| =========                 |                                                 |
| \\      /  F ield         | OpenFOAM: The Open Source CFD Toolbox           |
|  \\    /   O peration     | Version:  v2012                                 |
|   \\  /    A nd           | Website:  www.openfoam.com                      |
|    \\/     M anipulation  |                                                 |
\*---------------------------------------------------------------------------*/
FoamFile
{
    version     2.0;
    format      ascii;
    class       surfaceScalarField;
    location    "250";
    object      ddtCorrDdt0(phi);
}
// * * * * * * * * * * * * * * * * * * * * * * * * * * * * * * * * * * * * * //

dimensions      [0 3 -2 0 0 0 0];
oriented        oriented;


internalField   nonuniform List<scalar> 
27740
(
-0.000185757
9.60981e-05
8.96534e-05
-0.000214999
0.000218943
-3.94821e-06
9.21015e-05
-0.000170218
7.81067e-05
-0.000207324
0.000276135
-6.88117e-05
-0.000291962
0.000151729
0.000140234
-0.000266522
0.000117379
0.000149181
0.00193817
-0.00126879
-0.000669393
0.000901461
-0.000266311
-0.00063516
-8.15073e-05
0.000100585
-1.90858e-05
-0.000103821
-6.7736e-05
0.000171555
0.000386666
-0.000642552
0.000255893
2.46664e-05
0.000549331
-0.000573993
-0.0028822
0.00265013
0.000232072
-8.05975e-05
0.000172684
3.05326e-05
-6.73357e-05
3.68013e-05
0.000130982
0.000113183
-0.000244151
-1.32263e-06
9.46655e-06
-8.14418e-06
0.000273765
-0.000142789
-0.000552617
0.000370157
0.000182467
-0.000678886
0.000863373
-0.000184486
-9.97959e-05
-5.30718e-05
0.00015287
9.82055e-05
-0.000139229
4.1017e-05
0.000651105
-0.000271124
-0.000379986
0.000566707
0.00127862
-0.00184529
-3.58403e-05
3.31034e-05
2.73491e-06
-0.000736795
5.79097e-05
6.51346e-05
4.19324e-05
-0.000107072
0.000597337
-0.000572679
-0.00123172
0.00056671
0.000664991
3.67301e-05
-7.84311e-06
-2.88902e-05
0.000131946
-9.00354e-05
-4.19061e-05
0.000344812
-0.000376515
3.17048e-05
4.70046e-07
-3.68141e-05
3.63437e-05
1.76291e-05
0.00015735
-0.00017499
-0.000109844
-6.86092e-05
0.00017845
-0.000266133
-2.51392e-05
0.000291271
9.61602e-06
0.000192384
-0.000202013
-9.85653e-05
1.48677e-05
8.36957e-05
3.74555e-05
4.05552e-06
-4.15158e-05
0.000637989
0.000263471
-0.000113133
3.1614e-05
-0.0010782
0.00164493
-0.000213058
-5.16276e-05
0.000264632
-0.0003371
8.62891e-05
0.000250812
-0.00020948
-5.5175e-06
3.99673e-05
-3.22924e-06
-5.28555e-05
-0.000144979
0.000197837
5.0742e-05
-0.000258069
0.00113242
-0.000881595
-0.000250831
-9.39252e-06
-2.64319e-05
3.58249e-05
-0.00449739
0.000906955
0.00359044
0.000248362
-0.000286024
3.76476e-05
-0.00107425
0.000935673
0.000138568
-0.000478793
-0.000811607
0.00129039
3.98202e-05
-3.93502e-05
0.000254776
0.000877652
-0.00090192
0.000981427
-7.95038e-05
-5.63832e-05
-5.16954e-05
0.000108054
0.000103133
-0.00015301
4.98793e-05
-0.000171848
6.80256e-05
-0.000105931
-7.98262e-05
1.57029e-05
4.6948e-05
-6.26453e-05
-0.000334506
0.000121428
3.27299e-06
0.000239163
-0.000242444
-0.000120887
2.23285e-05
-0.000261213
0.000264489
6.47852e-05
2.29336e-05
-8.77167e-05
-0.00108747
0.00089108
0.00019641
-0.000169356
0.000246736
-7.73806e-05
-0.000201196
-0.000726488
0.000927667
-0.000428855
0.000489099
-6.02495e-05
4.44556e-05
1.17076e-05
-5.6159e-05
-9.96658e-05
-0.000193239
0.000292902
0.000267253
-0.000128047
-0.00013922
-0.000131706
-7.93302e-05
0.000211045
-0.000192119
9.23236e-05
-0.000301592
0.000227526
7.40654e-05
0.000310812
-6.1716e-05
-0.000249099
7.7304e-05
0.000189939
1.55191e-05
-0.000327984
0.000312452
-6.85554e-06
5.53415e-06
0.000183809
-0.000236666
0.00031201
-0.000304468
-7.54178e-06
-0.000817981
-0.000256267
0.000334321
-0.000310835
-2.34887e-05
-2.42823e-06
3.98782e-05
8.66856e-07
0.000185751
-0.000186621
7.15812e-06
0.000241206
-0.000335504
7.12878e-05
0.000264215
-0.000287814
0.00023372
5.40899e-05
0.000283117
-4.14857e-05
-0.000241642
0.000161392
-6.86891e-05
-9.27097e-05
9.41768e-05
-8.48082e-05
-9.37111e-06
-0.000340789
0.00142141
-0.0010806
0.000132405
-3.42058e-05
0.000581635
-0.000194977
8.17381e-05
8.6574e-05
-0.000168318
-0.000277375
-5.80875e-05
0.000335457
0.000250969
-0.000195427
-5.55446e-05
-4.47827e-05
0.000109923
0.000455433
0.000195675
-0.000250127
0.000309448
-5.93202e-05
-1.14029e-05
1.05573e-05
8.45544e-07
-0.00334011
-0.00115727
0.000242333
8.63377e-06
-0.00010109
-0.000184933
-8.20026e-05
-1.97479e-05
0.000101746
0.000161349
-8.04916e-05
-8.08639e-05
-0.000263482
1.33554e-05
0.000151922
-0.000255593
0.00010367
-0.000308784
4.26489e-05
0.000289327
-0.000243435
-4.58898e-05
8.3447e-05
1.07339e-05
-0.000219096
0.000157709
6.13872e-05
-0.000819033
0.000383827
0.000435212
0.000110021
8.80298e-05
-0.000198069
-6.54381e-08
3.98892e-05
-0.000418004
-0.000641246
0.00105925
-0.00016981
-0.00016729
6.5668e-05
-7.27755e-05
7.11299e-06
2.54548e-05
7.76779e-05
0.000135024
-0.000126506
-8.52474e-06
0.000245147
6.83679e-05
-2.39061e-05
0.000340611
2.87642e-06
-0.000343483
-3.59531e-05
1.11007e-07
2.68573e-07
-2.70896e-07
-3.66074e-05
-0.000812268
0.000848869
0.0001085
2.65276e-05
0.00060974
-0.00102773
4.31465e-05
2.37922e-05
-6.69395e-05
0.000263405
4.86039e-05
5.62082e-05
3.34387e-06
-5.95532e-05
-7.18046e-05
-8.12045e-05
-0.00018788
0.000197497
8.45101e-05
-2.76025e-05
-5.69066e-05
9.59425e-05
0.00015715
-0.000253092
-0.00100682
0.0001049
-1.5919e-05
0.000299024
0.000236781
7.40286e-05
-0.000128497
-0.000153457
0.000281956
-3.38115e-05
8.10331e-05
-4.72232e-05
-8.72559e-06
2.34942e-05
-1.47705e-05
5.37316e-05
-2.68758e-05
-2.68524e-05
-8.54764e-05
-2.13972e-05
0.000106868
0.000192149
-0.000727998
0.000535831
1.87248e-05
-2.74554e-05
4.99644e-05
2.61243e-05
-7.60917e-05
-0.000593447
-3.11076e-05
0.000624556
7.29768e-05
0.000376699
0.000703534
-0.00108024
-6.53717e-05
1.16106e-05
5.37612e-05
0.000100714
0.000114162
-0.000214872
-5.20647e-05
-6.3403e-05
0.000115471
-0.000129046
0.000110689
1.83557e-05
2.46411e-05
2.90896e-05
0.000227757
1.24553e-05
-0.000240213
0.000306009
-0.000290492
3.36905e-05
-2.66218e-05
-7.06839e-06
4.39048e-05
3.97377e-05
-8.36474e-05
0.000134338
-6.59902e-05
-6.83497e-05
0.000554699
0.000110029
-0.00066473
0.000136857
-0.000111406
-0.000123628
7.15613e-05
0.000489608
-0.000148995
-0.000337378
-0.000481632
3.03418e-05
-0.000112344
6.35584e-05
-6.01292e-05
-3.42922e-06
-0.000105328
-2.37186e-05
-0.000118588
0.000228594
6.49975e-05
-2.18511e-05
-0.000205749
0.000226426
-2.06757e-05
-0.000111074
5.46833e-05
-0.000127805
-0.000164157
-0.000101496
7.61355e-05
2.5369e-05
-0.00249818
0.00203132
0.000466843
-7.55663e-06
-0.000585895
0.000178428
-0.000209301
3.08749e-05
4.71508e-06
2.89742e-05
0.00078165
-0.000982852
0.000244612
0.000898113
-0.00114275
1.44387e-05
8.08489e-06
-2.2525e-05
-2.88125e-06
1.65684e-06
1.22579e-06
-0.000176503
-0.000235293
0.00023852
-3.22274e-06
0.000212123
-1.54508e-05
-0.00019669
-0.000102894
1.74162e-05
3.98971e-05
-7.37116e-05
-0.000240388
0.00041618
-0.000175804
-0.000124348
-9.53716e-05
0.000219724
0.000347426
-0.000255518
-9.19079e-05
-0.000120548
3.32285e-05
8.73259e-05
1.62819e-05
4.01542e-05
-5.64366e-05
0.000121261
-0.000117564
-3.70063e-06
1.09181e-05
-1.25119e-05
1.59429e-06
6.96005e-05
-3.89742e-05
-3.06219e-05
-0.000166708
0.000167575
-9.57088e-06
0.000245811
-0.00023625
7.29142e-05
-0.000204617
-2.24254e-06
-6.37432e-07
-4.19605e-05
9.19295e-05
0.000213138
-0.000532514
0.000319371
-0.000777485
-0.000309982
-6.8831e-05
-0.000167038
0.000235859
-6.51963e-05
-0.0002703
0.000309179
-0.000238431
-7.07465e-05
6.38912e-05
0.00114277
-0.00120667
-0.000160877
1.58961e-05
7.14516e-05
8.9896e-05
0.0002874
2.98834e-06
-0.000290387
0.000104226
-2.94384e-05
-7.47914e-05
0.000175095
-0.000186678
1.15807e-05
-0.000135892
0.000112967
2.29263e-05
-3.21105e-05
4.83916e-05
-0.00032248
8.92583e-05
0.000233224
-6.95318e-05
5.92943e-05
1.02353e-05
6.75904e-06
-0.000255986
0.00024923
5.60038e-05
-3.79112e-05
-1.80993e-05
0.000349475
-0.000346597
8.94364e-05
-0.000106935
1.74949e-05
-7.58128e-05
0.000642746
-0.000566978
2.76287e-05
-7.92116e-05
5.15851e-05
-0.00024643
8.92328e-05
0.000157194
-0.000198069
-7.68026e-06
-0.000838951
0.000122938
0.000716015
0.000274485
0.000723608
-0.000998091
-2.71302e-05
-4.24024e-05
9.08149e-05
-1.37977e-06
0.00103137
-0.00075807
-0.000273304
-0.00154296
-0.000955227
0.000360292
4.42711e-05
-0.000404579
-4.98545e-05
6.1612e-05
-1.17585e-05
-0.000599467
2.15229e-05
0.000577929
1.14542e-05
0.000196218
-0.000207657
7.62124e-05
0.000787159
0.000857544
-0.000590102
-0.000267442
-8.76178e-05
0.000315377
-4.22025e-05
-0.00010065
0.000142859
-9.71633e-06
6.59263e-05
0.000600433
-0.000453633
-0.000146794
7.07301e-06
-3.37003e-06
-3.70144e-06
-0.000587906
0.000746121
-0.000158219
-0.000124448
0.000484729
-4.77428e-06
1.92131e-05
-6.71732e-05
-0.000260094
0.00013574
-0.000557778
-8.99513e-05
0.000647722
-3.24423e-05
7.63457e-05
0.000135363
-0.000126903
-8.45949e-06
0.000270904
-0.000280474
-0.000558259
0.000590176
-3.19101e-05
0.00112582
0.000812345
-3.9224e-05
0.000251354
5.91615e-05
-0.000169003
-2.95756e-05
-0.000205719
0.000466862
-0.000300103
-0.000166771
8.37242e-05
-5.60959e-05
2.46251e-05
7.95993e-05
0.00023986
-8.21591e-05
-0.000137602
-0.000117988
2.90745e-05
1.58823e-05
-4.49696e-05
-2.33128e-05
0.00031264
0.000273454
1.39451e-05
-0.000100083
7.54189e-05
2.4663e-05
1.26538e-05
-1.73512e-06
0.000247743
-6.39326e-05
-0.00217302
0.000572662
0.00160036
2.77452e-05
4.18551e-05
2.46231e-05
-0.000201168
-1.76559e-05
1.61166e-05
1.54163e-06
-0.000470144
0.000662298
0.000443777
-0.000391785
-5.19942e-05
0.000213388
6.24403e-05
7.29255e-05
-0.000304238
-0.000248386
0.000118818
2.43986e-06
1.16093e-05
1.04517e-06
-0.00206639
-0.000815799
0.00107251
-0.000798033
-9.81952e-05
0.00044767
-8.28075e-05
-2.00893e-05
4.33054e-05
1.2702e-05
-0.000123463
0.000224177
-0.000121501
0.000222161
-0.000100668
0.00211369
-0.0023307
0.000217006
-0.000549955
-4.95214e-05
-6.42823e-05
-7.05856e-05
0.000134866
-0.000166656
-0.000134936
-2.27113e-05
6.83846e-05
-4.56733e-05
-4.30902e-05
2.42329e-05
1.88616e-05
-0.000531942
0.000456121
-0.000558234
-2.81614e-08
-0.00137956
0.000924778
0.000454771
-7.30035e-05
-0.000186703
0.000646585
-0.00125457
0.000607973
0.000181118
-0.000112132
-6.8992e-05
-0.000816385
0.00119308
-0.000691693
-0.000540036
-9.96299e-06
-2.54921e-06
-0.000690473
-0.00148257
2.53544e-05
-3.19164e-06
-2.21619e-05
-0.000123572
0.000141197
-8.07712e-05
0.000162505
5.63542e-05
-3.17089e-05
8.28845e-06
5.73821e-05
-2.7268e-05
-1.49325e-05
6.17993e-05
9.47616e-05
7.01184e-05
-0.000164886
-4.56983e-05
-5.49539e-05
0.000230267
-0.000672099
-6.46935e-05
-9.46561e-05
-7.71938e-05
-4.37257e-05
0.000186135
-0.000142413
6.45629e-05
-3.40302e-05
-0.000127688
-5.95736e-05
-0.00019961
6.73314e-05
0.000132281
-3.43226e-07
-3.56075e-07
6.98992e-07
-5.90739e-05
0.000150546
-0.000451327
0.000300771
-1.28089e-05
-7.93152e-05
9.21199e-05
7.36769e-05
6.06606e-05
-0.000100496
-1.26408e-05
-3.30638e-06
1.36792e-06
1.93906e-06
2.98399e-05
2.65136e-05
3.27153e-05
3.81703e-05
-7.08884e-05
1.86466e-05
-0.000101459
0.000112143
0.000137354
-0.000249497
-0.000824604
0.00106927
-0.000244691
0.00012557
0.000183605
0.000252815
-0.000254162
1.34813e-06
4.92183e-05
1.43438e-05
-1.48571e-05
-8.38106e-05
9.86669e-05
0.000239345
0.000184849
-0.000424221
3.10632e-05
-2.75311e-05
-3.53172e-06
9.71062e-06
-6.21e-05
5.23999e-05
0.000119877
5.42637e-05
-0.000174171
0.000178572
-0.000244003
6.54273e-05
0.000688237
0.00152583
-0.00221409
0.000126237
-0.000195076
0.00073243
-0.000177735
4.44043e-06
-0.000297348
0.000121953
0.00017537
-2.73904e-05
0.000198209
-3.7291e-05
-0.000160923
7.16337e-05
-1.4255e-05
-5.73844e-05
6.23084e-05
-3.4565e-05
2.0622e-06
5.01145e-06
-0.000217788
-4.92771e-05
0.000267061
0.000207447
-0.00019599
-4.52847e-05
7.49374e-05
-2.96539e-05
-0.000283359
0.00301466
-0.00273127
-6.83415e-05
2.30572e-05
-3.86237e-05
7.13385e-05
0.000272817
-0.000266722
-6.10133e-06
9.73088e-05
0.000708928
-0.000806218
-9.74742e-05
-0.000102143
6.70029e-05
0.000509063
-0.000576069
0.000506351
0.000351193
0.000221523
-0.00031972
0.00112704
0.000366976
-0.00149401
0.000149973
4.82389e-05
-0.000320897
0.00144793
-4.61477e-05
-2.21935e-05
-0.000484206
0.000223951
0.000260256
0.000221797
-0.000265527
-0.000169495
7.48389e-05
0.000176768
-0.000233575
5.68074e-05
0.000247257
-6.87072e-05
4.49285e-05
8.70108e-05
-2.20398e-05
-9.85059e-05
2.74879e-05
-3.99413e-06
1.46054e-05
-9.17285e-05
7.71171e-05
0.000621265
-0.000751581
0.000130313
-0.000134236
0.000246378
-0.000762739
0.000286187
-0.00026896
-1.72303e-05
-0.000703898
0.0011217
-0.000417815
-0.000577786
0.000605305
-2.75293e-05
0.00022239
-3.12999e-05
-0.000191095
5.77624e-07
-3.10945e-07
-0.000404091
0.000475325
-7.12517e-05
-6.43821e-05
5.35303e-05
1.08519e-05
0.000110344
0.000237082
1.90668e-07
-3.5971e-07
1.6934e-07
-2.15129e-06
-6.32203e-05
-0.000116244
-3.98129e-05
0.000156059
-0.000919586
-0.000459957
0.000140805
-2.18059e-05
-0.000119001
-9.05521e-06
3.78177e-05
-2.87649e-05
0.000393379
-0.00090567
0.000512292
0.000425505
-0.000251675
-0.000173839
-9.62703e-05
8.99479e-05
6.32284e-06
-0.00200864
0.00211601
-0.000107363
0.000179755
-3.25987e-05
-0.000147158
0.00021351
-3.67436e-05
2.83123e-05
0.000100672
-0.000128984
-0.000144382
-4.28527e-05
0.000187229
1.19969e-05
5.6388e-05
-0.000175201
-0.00013217
0.000307366
0.00061609
5.17348e-06
-0.000148201
0.000237297
-8.90793e-05
4.4503e-05
-7.35952e-05
2.9091e-05
8.78005e-05
-0.000102659
0.000585849
-0.000729221
0.000143362
0.000236883
-0.000117015
2.11492e-05
-5.90597e-05
-0.000218464
-0.000886173
0.00110463
-1.76652e-05
1.79381e-05
-2.73389e-07
-5.15785e-05
-3.49871e-05
8.65646e-05
0.000492466
0.000723829
-0.0012163
2.07914e-07
5.04861e-05
-5.06899e-05
-0.00109696
0.000272357
-0.000203794
5.94021e-05
-0.00136484
0.0012752
8.96423e-05
-5.45447e-05
-0.000523247
0.00236677
0.000342928
0.0016884
-4.87564e-05
-4.82154e-07
4.92331e-05
-4.88967e-06
9.21828e-05
-8.72943e-05
1.69192e-05
-6.30687e-05
-0.00268888
0.0006225
-0.000286658
0.000462508
-0.00017585
-0.000465096
0.00013669
0.000328388
0.00117417
0.000225038
-0.00139921
5.4388e-06
2.2048e-05
3.64341e-06
-6.29431e-05
0.000516261
8.41761e-05
-0.000167634
0.000387731
-0.000220101
-0.000135816
-0.000161524
3.48856e-05
-0.000161785
0.000122117
1.86834e-05
-5.50296e-06
0.000120312
-0.000114816
-1.21518e-05
1.13279e-05
8.25243e-07
0.000966865
-0.000357125
0.000684746
0.00232994
6.33084e-05
-6.81978e-05
-0.000144991
5.49522e-05
6.42207e-05
9.71699e-05
-0.000153886
3.76417e-05
-0.000245439
9.09882e-05
0.000154456
0.000129768
-0.000175847
4.60754e-05
-4.64546e-05
3.73918e-05
4.07852e-07
-1.80748e-05
-0.00014967
0.000371192
0.000752757
-0.000789366
-1.81988e-06
3.58512e-05
-3.40301e-05
0.000130473
-8.81524e-05
-4.23233e-05
0.000288319
3.51967e-05
-0.000323517
1.85859e-05
-5.36662e-05
3.50867e-05
0.000131309
-1.61373e-05
-0.000115173
2.84273e-05
-0.000222869
0.000222869
0.000192205
0.000233299
0.000171763
-0.00049992
0.000328149
-0.000136319
-0.000119033
0.000255352
0.000679591
-0.00115839
-2.25036e-07
0.000286409
0.000225497
-0.000122128
-0.000103378
-1.58853e-05
0.000116466
-0.000130223
0.000124726
9.69397e-05
4.32485e-05
-0.000140216
2.26409e-05
0.000199755
7.98595e-05
-6.99748e-05
-9.88667e-06
-0.000216157
9.46696e-05
5.71835e-06
-0.000209696
0.000203975
-2.13145e-05
-2.17755e-05
0.000173909
-0.000123757
-5.01382e-05
-0.000106679
-0.000138756
1.73215e-05
-1.83035e-05
9.86446e-07
3.47345e-05
2.75716e-05
-0.00168992
-0.000998963
4.27667e-05
-6.62035e-06
-3.6146e-05
0.000173577
0.000218286
-0.000391867
-7.8268e-05
-6.92717e-05
0.000147543
-0.000182263
5.91791e-05
0.00012309
-0.000125187
7.74681e-05
4.77168e-05
-0.000276547
0.000190765
8.57776e-05
0.000147699
3.20368e-05
-1.38557e-07
1.87486e-07
-5.30031e-08
0.000307029
-0.00024146
-6.55689e-05
2.49664e-05
-7.65491e-05
0.000222963
-0.000281208
5.825e-05
0.000149609
-7.59341e-05
-0.000241653
0.000236957
4.69667e-06
0.000279053
-0.000192765
4.7916e-06
-4.93027e-06
-0.000711399
0.000373826
0.000337567
0.00021684
-8.23529e-05
-0.000134483
0.00201083
-0.000733821
-0.00127702
0.000565495
-0.00036997
-0.000195661
-0.000456965
0.000570176
-0.000113468
-0.000229789
0.000143049
8.6733e-05
-9.95341e-05
-0.000177014
-7.38609e-05
-0.0003644
0.000438252
-0.000359824
9.06048e-05
4.0704e-05
5.22844e-05
4.39789e-05
-9.626e-05
0.000229625
0.00025904
-0.000488665
-0.000126531
0.000223504
-9.69746e-05
-0.000297423
-0.000356579
0.000569726
0.000213993
-0.000360057
0.000146059
-1.584e-06
-1.72194e-06
0.000242561
-4.1247e-05
-0.000201313
-0.000555127
0.000584379
-2.92613e-05
0.00108674
-0.000594287
-7.29853e-05
-9.32826e-06
8.23052e-05
-0.000119791
0.000148098
0.000122853
-0.000237406
0.000114556
0.00053639
-0.0004171
-0.000119304
-4.61696e-07
-0.000111139
0.000111602
-0.000482718
0.000196062
-1.53253e-05
0.000164149
-0.000148834
6.4422e-05
-7.72311e-05
6.88033e-05
6.16746e-05
0.00010846
-2.10128e-05
5.78582e-05
-3.68429e-05
9.15725e-05
-0.000368944
2.71762e-05
2.52386e-05
-5.24077e-05
-0.000195941
-7.0569e-05
-6.54807e-05
0.000107413
0.00030125
-2.92081e-06
-0.000298343
4.85854e-06
3.79065e-05
0.000209744
-0.000276018
6.62725e-05
2.83661e-06
-2.24179e-06
-5.96352e-07
0.00142404
-0.00225028
0.000826243
-4.35932e-06
-6.86289e-05
-0.000147074
-8.27148e-05
0.000574668
-0.0019153
0.00134062
0.000684671
-0.00102545
-3.71537e-05
-0.000158838
0.000195989
4.65128e-05
0.000127401
0.000853386
-0.000756073
0.00016982
-7.28775e-05
0.00116884
-0.000620444
-0.000548391
-1.61476e-05
6.94253e-05
-7.31897e-05
3.76632e-06
-1.74229e-07
0.000223143
-0.000101248
-0.00126359
1.64645e-05
-0.000155909
0.000139445
0.000540493
0.00128494
-0.00182546
-2.80791e-05
0.00012349
-9.54051e-05
-9.90641e-05
-0.000113872
0.000130337
2.52469e-05
-2.46613e-05
-5.86403e-07
2.73282e-06
1.03872e-07
-0.000131743
0.000103671
-0.000131771
3.4972e-05
9.67989e-05
-3.68256e-07
-1.72864e-05
4.45495e-05
1.12473e-05
-5.5792e-05
-0.000200893
-8.69199e-05
0.000189416
-0.000150369
-3.90469e-05
0.00017853
0.000479489
0.000941927
-4.42631e-05
9.6551e-05
-9.51726e-05
-0.000987452
0.00043463
0.000552802
0.000368152
-0.000154163
6.58002e-05
8.63746e-05
2.85873e-05
-0.000114964
0.000918269
-0.00246122
9.94895e-05
0.000174565
-0.000274056
-0.000859144
0.00139963
-0.000364837
2.61338e-05
0.000112143
-0.00013827
0.000179308
-0.000244947
6.56311e-05
-0.000233707
7.70641e-05
-0.000155334
0.00116841
-0.00052182
4.41812e-05
2.54629e-05
-6.96444e-05
-5.65839e-05
0.000133648
-3.44692e-05
3.36473e-05
8.18908e-07
0.000781751
-0.000200694
-0.000581049
-0.000312443
-0.00011098
-0.000535546
0.000646494
-0.00028079
0.000231763
4.90248e-05
7.40976e-05
-5.24649e-05
-2.1636e-05
-0.000169287
0.000755131
-0.000216017
-4.52021e-05
-0.000352593
9.70755e-05
-7.08609e-05
-0.000170798
-0.000138089
0.000265461
-0.000127372
0.000442839
-0.000813822
0.000371055
2.8371e-05
-3.01597e-06
0.000521476
4.85332e-05
0.000114156
7.52699e-05
-0.000177228
-8.2282e-06
0.000185445
4.2214e-05
-0.000168061
0.000125845
0.000286802
-0.000100516
-0.000186285
0.00024497
-0.000172513
-7.24561e-05
-0.000139859
0.000240952
-3.12079e-05
0.000109765
-0.000246088
7.26665e-05
0.000108446
-3.88634e-05
4.33251e-05
-4.46571e-06
0.00044281
-0.000298163
-0.000144647
8.3343e-06
-5.10807e-05
4.27501e-05
0.000789341
0.000379493
0.000205474
-0.000246965
0.0042477
-0.00269652
-0.00155114
6.3033e-05
4.76586e-05
-0.000316769
-0.000702947
0.00101972
-1.51731e-05
0.000316417
-0.000413328
0.00016172
0.000251593
-4.77567e-06
2.26552e-05
-1.78795e-05
0.000487145
-0.00026319
0.000401851
-0.000263429
-0.000138419
-5.35061e-05
0.00010619
-5.267e-05
0.000331448
0.000266569
-0.000598079
-0.000134013
-0.000139304
0.000273314
-0.000283049
0.000147225
-0.00074169
0.000630699
-0.000126958
-1.93799e-07
0.000127153
-4.401e-05
0.000906788
9.3947e-05
-0.00100072
0.000240819
-0.000123415
-3.62269e-05
-5.85793e-07
0.000121337
-0.000259425
0.000175084
-4.9373e-05
-0.000125704
-0.000254823
-0.000171046
0.00042582
-7.63801e-06
5.21883e-05
5.24845e-05
-5.93268e-05
6.83925e-06
-0.00020113
4.76719e-05
0.000280406
0.00025736
-0.00053777
-0.00025419
-1.21163e-05
0.000266303
-1.59208e-06
1.24914e-06
-0.000177224
0.000350802
-4.21658e-05
1.57343e-05
-0.000349388
5.2606e-05
0.000296773
-0.000187426
-3.29864e-05
-1.4862e-06
9.55413e-05
-2.84214e-05
-6.71147e-05
-8.29196e-05
-0.00128471
0.000767417
0.000517297
7.46466e-05
8.56777e-05
-0.000160333
0.000321424
-0.000395292
0.000368861
0.000167524
0.000137717
-0.000263259
0.000125528
-9.24612e-05
2.23452e-05
7.01168e-05
5.76849e-05
-1.43785e-05
0.000135057
0.000104805
0.000700389
0.000268622
-0.000969029
6.03497e-05
-4.46466e-05
-0.000158646
0.000238727
-8.00774e-05
-9.95117e-06
-1.4519e-06
-0.00197395
0.00377943
-0.00180551
-6.19143e-06
7.49951e-06
-1.30718e-06
0.000219296
-0.000167274
-5.20309e-05
-0.000162154
0.000108793
5.33667e-05
1.6955e-05
-2.04659e-05
-4.63508e-05
-0.000508774
3.67559e-05
-0.000197575
0.000160817
-3.10447e-05
-0.000571978
0.000997217
-0.00042524
-2.36421e-05
0.000229117
3.44727e-05
-3.0414e-05
0.000258538
-0.000420802
0.000162255
4.95422e-05
-0.000170537
-4.60985e-05
0.000216649
8.26069e-05
-1.78183e-05
0.00103209
-0.000331706
0.000530279
-0.00140497
0.00087471
-2.64202e-05
-4.20787e-05
6.84999e-05
0.000115785
-0.000239248
-6.78019e-05
0.000119637
-5.18429e-05
-2.56584e-06
-0.000124381
0.000149404
-0.000149379
-2.9756e-08
-0.000410423
2.38787e-05
0.000386529
0.000170155
-0.00012794
-4.12263e-05
4.95646e-05
0.000365109
-0.000254767
-9.45257e-05
-0.000334332
-1.27942e-06
-3.75848e-05
0.000788649
0.000243435
5.23965e-05
-4.59877e-05
-6.40574e-06
0.000228683
0.000151137
-0.000379819
-3.34189e-05
-2.67062e-05
6.26941e-05
-3.72737e-05
-2.54237e-05
1.22061e-06
3.32525e-05
0.000260476
-2.13149e-05
1.36782e-06
-3.21762e-06
1.85023e-06
-3.12413e-05
-7.02599e-05
-0.000382411
0.000825284
-0.000199996
4.27593e-05
0.000157241
0.000115798
-0.000167275
5.14785e-05
-0.0013911
0.000136521
0.00011051
-0.000181368
-3.5899e-05
3.5836e-05
-0.00222673
0.00195494
0.00027179
7.47565e-05
-0.000202808
0.000527441
-0.000247033
-0.000136528
1.19232e-05
0.000124604
-0.000168131
-0.000242683
0.00041081
-5.97566e-05
4.3225e-05
1.65408e-05
-0.000111811
-0.000171241
-2.08221e-07
5.3182e-06
-5.10991e-06
-0.000315071
-0.000197953
0.000513013
-1.14264e-05
2.51716e-05
0.000251258
-0.000276429
0.000913107
-0.000655915
-0.000257194
0.000229037
0.000355087
-0.000584164
-6.88707e-05
0.000161764
-9.28978e-05
-0.000317306
2.50235e-06
0.000181039
-0.000183547
-0.000114899
0.000210841
-0.00140044
0.00127776
0.000122678
0.000225659
-0.000154764
-1.33019e-05
5.69173e-05
-0.000150504
-1.03701e-05
-0.00174553
0.00105506
-0.00105231
0.0011162
0.000352531
0.000229113
-0.000239697
-0.000120357
8.62367e-05
5.65205e-05
0.000168981
-1.15237e-05
0.000918327
3.94025e-05
0.000233413
4.27609e-05
3.13427e-05
0.000150987
-1.86633e-06
-0.000149114
-0.00103181
0.000889014
0.000142799
-0.002475
-0.000353132
0.00282814
-7.63365e-05
-0.000388765
6.4842e-05
0.000388277
-0.000453113
5.65489e-07
-2.30181e-05
2.24523e-05
-3.27705e-05
-0.000144455
-0.000347035
-7.62247e-05
5.47724e-05
2.14506e-05
1.50478e-05
-2.28514e-06
-1.27616e-05
0.000294335
-0.000135163
-0.000159201
-5.41747e-07
0.000309279
-0.000310125
8.49649e-07
0.000134833
-0.000135297
-0.00161242
0.00218708
-0.000385782
0.000146085
6.53199e-05
-3.91952e-05
-1.48493e-05
-0.000100467
0.000115321
0.000135448
-0.000150776
6.01904e-05
-5.8234e-05
-1.95995e-06
0.000173849
4.30055e-05
5.75148e-05
-5.03038e-06
-1.61557e-05
1.13802e-05
-6.81136e-05
7.75151e-05
-9.40498e-06
3.11565e-05
0.000319622
-0.000350781
-0.000293749
0.000284141
9.6115e-06
-0.000465285
0.00103199
0.00129175
0.000121982
-0.000159138
0.000582124
-0.000638168
5.60662e-05
2.85506e-06
-2.27863e-06
0.00079116
0.00107586
-0.00186703
0.000210014
-0.000214267
4.2507e-06
8.57293e-05
-0.00022387
0.000138132
0.000814156
-0.00103262
-5.69204e-05
4.26643e-05
6.51537e-05
1.47073e-05
6.32643e-05
6.16198e-06
-0.000230342
-1.60924e-05
0.000412575
0.000659935
-8.46334e-05
0.000173865
6.334e-05
-1.97241e-05
-4.36121e-05
0.000192788
5.44654e-05
-4.67516e-05
4.43171e-05
2.6381e-05
-2.51606e-05
-4.69793e-05
5.66912e-05
4.52859e-05
0.000111472
-0.000156764
-0.000101008
0.000238721
0.0026355
-0.00460951
9.89873e-05
-0.000257637
3.74463e-05
2.5247e-05
0.000247922
0.000228896
8.03843e-05
-0.000236267
0.00024303
5.43046e-06
3.40806e-05
-3.95148e-05
-0.000663258
-0.000587871
0.00125112
-0.000264174
9.9833e-06
6.76345e-05
-2.48853e-05
-0.000214694
0.000259459
-4.47652e-05
-0.000347386
0.000740764
-9.87094e-05
0.000235135
-0.000136406
0.000229577
-3.67893e-05
-0.000112975
0.000122662
-9.68755e-06
9.31255e-06
0.000165789
0.00046862
-0.000238988
0.000191654
-0.000115404
-7.62551e-05
0.0017045
-0.00286478
0.0011603
8.36149e-05
-6.06822e-05
0.000907575
0.000204657
-0.00079304
0.000588374
-0.000100917
4.08627e-05
6.00412e-05
0.000138848
1.05554e-05
-8.29749e-05
0.000197134
0.000781972
-0.000409551
-0.000372425
0.000794997
-0.000394944
-0.000400059
9.42152e-05
0.000240108
-0.000216635
0.000316119
-2.3482e-05
-4.92915e-05
-0.000109006
0.00112573
-0.000337087
-0.000704332
-0.000580379
-8.76623e-05
-5.63838e-05
5.63789e-05
0.000128362
-0.000184744
0.00102626
-0.000103691
5.8901e-05
-0.00040258
0.000631608
-0.000128704
-7.82396e-06
-0.000263023
-0.000238315
0.000501336
0.00028237
-0.000103056
0.000317532
0.000477465
0.000311295
0.000470466
-2.62934e-05
-1.58706e-05
-4.39286e-05
0.000858075
-0.000384818
0.000326142
5.86713e-05
-0.000334674
0.000399491
-2.43084e-05
-0.000506084
0.000530365
0.00120701
-0.000794447
4.05643e-05
1.36256e-05
-5.41984e-05
-0.00020182
0.000554339
-0.000313116
0.000171923
0.000141194
-0.000228758
0.000750212
-0.000521455
-0.000363231
-8.16078e-05
7.43532e-05
7.25599e-06
4.75244e-05
-0.00264729
-0.0013522
0.00399949
4.49976e-05
-4.86075e-05
3.59998e-06
-0.00119639
0.000381105
0.000815286
0.000724881
-0.000430903
-0.000293974
-4.93919e-07
1.55427e-05
-0.000668409
0.00209244
6.16784e-05
7.56571e-05
5.71844e-05
-0.000132843
0.000308582
-0.000286689
-2.18884e-05
-0.000795143
0.000243384
0.000551758
5.2525e-05
-7.53235e-06
0.000497475
-0.000586884
8.94062e-05
-6.24699e-06
-9.00234e-05
6.65126e-05
-2.20867e-05
-4.44247e-05
7.16845e-05
-6.5332e-06
-0.000132133
0.000261254
-0.000129105
4.28768e-05
5.25863e-05
-7.16305e-06
-4.54202e-05
9.7515e-05
0.000484616
-2.68618e-07
6.26946e-08
-0.000213394
-0.00011415
-8.43122e-06
0.000122571
-0.000689033
-0.0010565
0.000126806
0.000173854
-0.000300659
5.3657e-05
-1.30986e-05
-5.22063e-05
6.04958e-05
0.000690609
-0.000193135
9.7294e-05
2.62016e-05
-0.000264431
0.000268511
-4.0785e-06
-0.000195703
-2.36491e-06
0.000259307
-2.75428e-05
-0.000151445
-0.00055995
0.000145811
-0.000100531
-0.000283929
4.10263e-05
0.000242896
0.000363693
0.00188193
0.0016266
-0.000154182
0.000156677
-1.5141e-06
5.09466e-05
-4.94335e-05
0.000222776
3.65288e-05
0.000193316
4.36455e-05
-0.00116918
8.1971e-05
-0.000162571
-5.52303e-05
1.75202e-05
3.77096e-05
-9.40938e-05
0.000188849
7.60336e-05
5.1348e-05
0.000648422
-0.000699772
-0.000455989
0.000204299
-0.000116875
0.000104094
1.2789e-05
-8.72827e-05
4.53179e-05
0.0002877
-0.000111635
-0.000176077
0.00012792
9.42696e-05
-0.000194861
-8.42557e-07
1.58462e-05
5.47372e-05
-7.05878e-05
-1.6101e-05
1.71799e-05
-1.07577e-06
-9.93211e-05
0.000136077
7.04113e-05
-2.567e-05
-4.47384e-05
-0.00108736
0.000969185
0.000118158
-0.000404109
-0.00023531
0.000639417
-0.000179405
5.72683e-05
0.000640826
-0.00130409
-1.48007e-05
-9.81728e-05
0.000368835
0.000161013
-7.32128e-05
0.000458824
-0.000483157
-4.99924e-05
-0.000214436
0.0027613
-0.000217476
0.000315431
-9.79726e-05
8.82356e-06
1.80816e-05
-2.69008e-05
-8.1451e-05
0.00054026
-0.000114932
0.000222042
-0.00028666
6.46182e-05
0.000346719
0.000174646
0.000304584
0.000185765
-0.000490353
-0.000560791
0.000161738
0.000399048
-0.000279434
-5.10191e-05
0.000330428
-7.66774e-06
-0.000152624
0.000160286
0.000113655
5.13694e-05
-0.000165031
0.0001517
-0.000151779
7.65786e-08
0.000613928
-0.000302978
-0.000310955
3.8688e-05
-7.59806e-05
3.72878e-05
-0.00364387
0.0039581
-0.000314242
0.00238927
-1.73865e-05
1.29045e-06
-0.000261744
0.00090617
-0.00116664
0.000260446
0.00190801
-0.00121978
-7.32155e-05
0.000161493
0.000327606
-0.0012995
0.00328952
-0.00199004
-0.00032078
-0.000161382
0.000482151
-7.17497e-06
6.8314e-05
-6.11359e-05
-0.000683272
-0.00020349
0.000886781
0.000408566
-0.000440147
5.82334e-05
-0.000337677
3.35932e-05
-2.04202e-06
-3.15514e-05
0.000216253
-0.000203024
-1.32233e-05
8.34218e-08
0.00030847
-1.96282e-05
-3.53342e-05
5.49671e-05
-5.27491e-05
0.000128407
2.04536e-05
-0.000382027
0.000361567
0.000156726
-9.01077e-06
-0.000415829
5.39018e-06
-2.45998e-06
-0.000592589
0.000595046
-0.000313038
0.000263044
-0.000335129
0.00178185
-0.0014467
-2.83996e-05
0.000255925
0.00029803
0.00181567
2.57778e-05
0.000518798
-0.00054458
1.41197e-05
0.000410752
-0.000424882
-3.43253e-07
-1.35594e-08
3.20429e-05
1.99755e-05
-1.94103e-05
0.00161933
-0.000445164
-0.000153838
0.000382514
-5.23601e-05
1.33892e-05
-0.000576645
4.4681e-05
-6.03455e-05
0.00237905
-0.000979312
-0.00139974
0.000557219
-0.000210513
0.000274679
0.000507306
0.000221968
-0.000729265
4.88856e-05
-2.70211e-05
-2.18662e-05
-1.87749e-05
-7.13673e-06
6.06798e-05
0.000383095
4.58166e-05
0.000210007
-0.000255826
2.98419e-05
1.90471e-05
-3.15407e-05
-2.36965e-05
-3.38275e-05
4.61408e-05
-1.23134e-05
-4.90909e-05
0.000162749
-0.00030517
-0.000150832
1.78109e-06
-5.05352e-05
-1.71416e-06
3.07918e-06
-2.35614e-05
0.000170573
-4.77171e-05
9.87129e-05
-3.3984e-05
-6.47334e-05
0.000537038
0.000244932
-4.79662e-05
4.64519e-05
0.000233708
-4.03985e-05
4.75576e-05
-5.45937e-05
7.03179e-06
0.000145418
1.13034e-05
6.36103e-05
-0.00182997
0.00176635
0.000868652
-0.000609429
-0.000259222
5.4986e-05
0.000294566
-0.000137417
-4.52969e-05
0.00180949
-0.00176419
0.000263474
-2.09121e-05
0.000307141
0.000861252
-0.000110939
-0.000126469
-0.000198683
-7.80188e-05
0.000276706
-0.000130218
0.000231765