/*--------------------------------*- C++ -*----------------------------------*\
| =========                 |                                                 |
| \\      /  F ield         | OpenFOAM: The Open Source CFD Toolbox           |
|  \\    /   O peration     | Version:  v2012                                 |
|   \\  /    A nd           | Website:  www.openfoam.com                      |
|    \\/     M anipulation  |                                                 |
\*---------------------------------------------------------------------------*/
FoamFile
{
    version     2.0;
    format      ascii;
    class       volScalarField;
    location    "250";
    object      epsilon_0;
}
// * * * * * * * * * * * * * * * * * * * * * * * * * * * * * * * * * * * * * //

dimensions      [0 2 -3 0 0 0 0];


internalField   nonuniform List<scalar> 
18649
(
0.0026377
2.17831e-06
1.69203e-06
0.00377735
6.7493e-05
1.99417e-06
0.0208208
2.43599e-05
2.65623e-06
2.33847e-06
1.68707e-05
0.00539178
0.0173077
1.70016e-06
2.89771e-06
2.23307e-06
2.41241e-06
2.23448e-06
2.04114e-05
0.0176153
0.0329097
2.10365e-06
0.0064015
1.20104e-05
2.46352e-06
0.0156589
2.17277e-06
0.00549688
0.000797976
1.83692e-06
2.03061e-06
5.16528e-06
3.0537e-06
2.2438e-06
2.31733e-06
0.00669837
2.30624e-06
2.3452e-06
1.99695e-06
2.09597e-05
2.78157e-06
1.10263e-05
2.85657e-06
0.00503645
2.17541e-06
1.82937e-06
0.00997188
0.00397753
0.0513497
2.1099e-06
0.0102577
2.1248e-06
0.0594584
0.0379154
3.07773e-06
0.0550539
0.00833314
3.45553e-06
0.00708164
2.3463e-06
0.00258771
2.91703e-06
2.82844e-06
0.00459167
2.33963e-06
0.0051973
2.06384e-06
0.0086123
0.00425397
4.00003e-05
0.0047574
2.83511e-06
5.62395e-06
1.89525e-06
2.24639e-06
0.0299853
2.69719e-06
2.24835e-06
1.89204e-06
6.21064e-05
2.39547e-06
0.00854256
0.00418522
0.0622887
4.33827e-06
1.99235e-06
2.36691e-06
2.1045e-06
2.48664e-06
1.91759e-06
1.95262e-06
2.43048e-06
2.46719e-06
0.0132629
2.11424e-06
1.35403e-05
2.34418e-06
2.78143e-05
0.00439699
2.17921e-06
0.00635833
3.00757e-06
2.26855e-06
0.0106247
0.00397987
2.12743e-06
3.72052e-06
2.01772e-06
3.05038e-06
2.2614e-06
0.00594117
8.48576e-06
2.47917e-06
2.26445e-06
9.91881e-06
1.7185e-06
3.11267e-06
0.0115588
0.00490305
1.97167e-06
0.00653079
2.23274e-06
5.24207e-06
2.84801e-06
0.00872562
2.438e-06
4.27693e-06
0.017178
2.23518e-06
0.0122813
2.61171e-06
0.00436355
2.43644e-06
0.00976481
2.32492e-06
3.83664e-06
0.00450619
0.0086271
1.94216e-06
2.23349e-06
0.00197184
2.27473e-06
2.10757e-06
2.80249e-06
3.59747e-06
0.00597986
2.09666e-06
3.11569e-06
0.00705002
0.00396767
8.09895e-05
3.90557e-06
0.00403454
1.86863e-06
2.25563e-06
2.82204e-06
2.45041e-05
4.46494e-05
3.0791e-06
2.52335e-06
3.20567e-06
0.000599775
0.00741845
1.87709e-06
0.00920727
1.00131e-05
3.70048e-06
2.77634e-06
2.24514e-06
1.72034e-06
2.6205e-06
0.0177203
3.26329e-06
6.62745e-05
2.33446e-06
0.0315426
0.0082523
2.16742e-06
3.09983e-06
8.343e-05
0.000210758
1.97848e-06
4.06021e-06
0.00887283
2.05763e-06
2.20432e-06
3.6359e-06
2.25549e-06
2.02357e-06
2.45885e-06
0.0244455
2.31434e-06
0.00380697
1.88896e-06
2.31024e-06
3.76438e-06
2.351e-06
3.8313e-06
2.24503e-06
4.14146e-06
3.14569e-06
6.51695e-06
0.00838398
2.29681e-06
2.55399e-06
6.16034e-06
0.0038972
0.0111418
2.02437e-06
0.00395507
2.48861e-06
2.17937e-06
2.25691e-06
0.002905
0.00434293
2.12144e-06
3.66311e-06
2.33299e-06
0.00887594
2.4513e-06
3.67766e-06
2.34379e-06
0.0266796
0.0153628
0.0197027
0.0126945
2.10898e-06
2.46079e-06
0.05508
0.0315266
2.01909e-06
2.45e-06
0.00791174
2.2368e-06
0.0190657
0.000627696
1.94268e-05
6.17481e-05
2.45115e-06
0.00308319
2.19123e-06
0.00658597
2.01671e-06
1.99259e-06
2.25896e-06
2.46361e-06
0.0390354
2.53109e-06
0.136502
3.72433e-06
0.00927205
0.0199993
2.18241e-06
2.30965e-06
2.05658e-06
0.00525296
2.35611e-06
2.49853e-06
2.26386e-06
2.25626e-06
2.11067e-06
7.84815e-06
0.00368664
2.52961e-06
2.33434e-06
0.00778761
0.0297643
3.78879e-06
0.00887342
2.22919e-06
0.00586487
7.10276e-06
0.0531147
0.147303
2.19802e-05
1.87997e-06
2.34829e-06
0.0122377
0.0131132
0.00953941
3.60024e-06
2.35019e-06
0.00421356
2.14295e-06
0.0537814
0.00718035
1.85534e-06
2.7312e-06
3.91928e-06
1.92335e-06
3.41504e-06
0.00777187
0.0262749
0.0012645
0.00176584
2.25597e-06
0.000198202
0.00168653
2.29469e-06
0.0308125
3.03073e-06
2.2428e-06
2.3527e-06
2.84876e-06
1.98676e-06
6.22969e-05
3.86801e-06
2.39643e-06
7.35109e-05
2.24508e-06
0.0145888
2.33809e-06
0.100194
2.91459e-06
1.86307e-06
2.43797e-06
1.83817e-06
4.17796e-06
0.0041947
0.00587756
3.79486e-06
3.23584e-06
2.77702e-06
3.98784e-06
2.86841e-06
2.10922e-06
3.63383e-06
2.40556e-06
0.013145
5.95179e-06
0.00342157
2.79511e-06
3.33742e-06
2.79907e-06
3.02784e-06
1.67074e-06
0.00817723
2.24787e-06
0.0116194
2.30889e-06
0.000692784
3.04396e-06
1.78394e-06
2.25088e-06
2.02008e-06
2.98947e-06
3.84553e-06
2.20702e-06
1.93339e-06
2.23908e-06
2.93632e-06
0.0172671
2.91804e-06
2.11314e-06
0.00338772
0.0207188
1.83681e-06
0.0138298
0.0003762
0.00920826
0.0240287
2.02295e-06
0.0226224
2.89928e-06
0.0249222
0.0582206
2.34325e-06
2.26348e-06
2.23887e-06
2.03481e-06
2.29907e-06
2.11782e-06
3.03073e-06
0.00759983
2.42369e-06
0.0181666
0.00356128
0.000586837
0.0350412
1.87664e-06
4.23432e-06
2.00258e-06
2.49786e-06
0.0289984
4.1491e-06
3.93124e-06
0.0190952
0.027179
2.00313e-06
2.11242e-06
0.00272585
2.90796e-06
2.47258e-06
0.010168
1.69523e-06
2.26244e-06
0.00610115
1.99264e-06
3.93997e-06
0.00793118
0.0074989
2.17267e-06
2.65992e-06
3.34718e-06
0.00740167
0.00812371
2.32375e-06
0.00514854
2.18786e-06
2.2593e-06
0.0210853
1.95161e-06
0.0137157
1.99643e-06
9.383e-06
0.0308973
0.0192901
0.031365
2.50951e-06
0.0550567
2.8839e-06
0.0101233
4.23399e-06
0.0218884
0.0367793
2.13252e-06
1.63135e-06
0.00359222
0.00988417
1.78929e-06
0.135727
2.00715e-06
2.11109e-06
2.38319e-06
0.0129184
0.0188716
0.0261965
2.02049e-06
2.43531e-06
0.0168731
0.00433747
2.2619e-06
2.26591e-06
2.1231e-06
2.17509e-06
0.00977065
0.016239
3.13513e-06
1.77448e-06
0.0061671
2.02351e-06
0.00576206
2.11787e-06
0.00827668
2.84284e-06
0.0232982
2.28032e-06
0.0382479
0.00395285
2.16986e-06
2.65108e-06
2.11178e-06
2.46289e-06
1.8715e-06
2.57009e-06
2.14935e-06
0.0182105
1.92817e-06
1.93424e-06
0.00423518
2.22503e-06
3.82673e-06
0.00524905
2.52493e-06
0.0053922
1.84223e-06
1.82322e-06
1.75639e-06
1.94772e-06
1.69033e-06
4.25066e-06
0.000950429
2.24793e-06
2.83976e-06
3.28624e-06
2.11634e-06
0.004924
4.2039e-06
0.0332942
2.0722e-06
0.0210797
0.00710521
0.00695859
0.00461627
1.95259e-06
4.86507e-06
2.01755e-06
0.00521798
2.50741e-06
8.5675e-06
2.24906e-06
2.47769e-05
7.67394e-06
3.56949e-06
3.96281e-06
0.000706835
9.69251e-06
0.0220155
2.04974e-06
0.00516096
2.27284e-06
3.73529e-06
3.25506e-06
4.67413e-06
0.0048195
3.82821e-06
1.77637e-06
0.00701946
2.02321e-06
2.61883e-05
2.05302e-06
1.99635e-06
2.17127e-06
2.20315e-06
2.54129e-06
7.59025e-05
4.16008e-06
0.0201342
2.04377e-06
0.00450021
0.0100226
0.0130887
0.00468641
1.93634e-06
0.0183378
2.46506e-06
0.0173269
0.00375757
1.95199e-06
2.93801e-06
8.54993e-06
1.85833e-06
3.69989e-05
2.28389e-06
3.76227e-06
1.8648e-06
3.18947e-06
4.20026e-06
2.27581e-06
0.111444
2.21873e-06
2.2451e-06
1.92058e-06
2.11453e-06
0.00117762
0.0127844
2.49883e-06
2.82575e-06
7.90939e-05
3.61118e-06
3.28092e-06
0.0189521
0.0311225
0.0418352
4.27376e-05
2.02326e-06
2.0997e-06
1.9827e-06
1.94163e-06
1.83496e-06
0.00134501
2.53247e-06
1.82803e-06
1.99332e-06
0.0103568
0.0221787
0.00623168
2.22576e-06
2.67337e-06
0.00720681
0.0057197
0.0294861
2.12638e-06
3.20491e-06
0.00815109
3.06105e-06
0.00688027
2.11962e-06
2.29612e-06
2.36724e-06
0.00149692
0.00458064
1.84914e-06
5.82602e-05
2.29288e-06
2.26041e-06
0.00312993
0.000554971
2.7297e-06
0.0181483
1.95304e-06
0.0115389
2.26241e-06
0.0776662
2.18774e-06
1.80268e-06
2.69385e-06
0.0234826
2.69244e-06
2.68461e-06
2.90763e-06
0.00559199
1.79826e-06
0.0063684
1.94444e-06
2.24319e-06
0.0223113
1.9953e-06
3.02912e-06
3.36372e-06
1.89357e-06
2.66137e-06
2.25474e-06
2.62821e-06
0.00309168
0.00243601
0.00829191
4.1277e-06
0.00527979
2.09369e-06
0.00013581
2.18494e-06
1.99927e-06
2.09832e-06
2.33655e-06
0.00658118
2.36046e-06
5.02452e-06
3.84428e-06
2.72213e-06
2.29994e-06
2.35988e-06
2.26871e-06
0.030048
2.93499e-06
2.36292e-06
2.25024e-06
0.00926788
4.13798e-06
2.29127e-06
1.71726e-06
2.23364e-06
0.00707357
8.62387e-06
0.0116411
2.17146e-06
0.0732624
1.95271e-06
2.01324e-06
1.83135e-06
0.00414182
1.98009e-06
2.0751e-06
0.0318859
0.0327654
3.10319e-06
0.00432543
0.061835
1.9455e-06
1.80924e-06
3.17993e-06
2.37902e-06
2.7483e-06
0.0447934
0.00479693
0.00414212
0.0332774
2.81456e-06
0.105754
2.76013e-06
2.77923e-06
2.01753e-06
0.00428263
2.21813e-06
2.32199e-06
0.00828627
0.00433987
1.96958e-06
0.00422395
2.13834e-06
3.135e-06
0.0249139
1.89278e-06
0.00109473
2.25918e-06
0.000183011
1.72039e-06
1.80177e-06
4.22363e-06
3.88214e-05
2.2938e-06
0.0044302
0.0486278
1.10708e-05
0.006444
0.00930286
2.29187e-06
0.0044553
0.0163144
3.74131e-06
2.36161e-06
2.10259e-06
0.0104861
0.0313361
0.00557754
1.29522e-05
3.69919e-06
3.01438e-06
2.17113e-06
0.0234241
0.00377282
2.6931e-06
2.07224e-06
0.00964523
0.0194329
0.0197614
6.44991e-06
2.8562e-06
2.28937e-06
0.00500036
0.0152199
2.49903e-06
1.88551e-06
2.37095e-06
0.0467411
3.27789e-06
0.0155815
3.67734e-06
3.10241e-06
1.67643e-06
0.00486047
2.88037e-06
2.07399e-06
2.63509e-06
2.61506e-06
2.5646e-06
0.0131702
9.69161e-06
0.000572494
0.0246909
0.00455357
0.00965389
4.20926e-06
0.00916899
2.26412e-06
2.02361e-06
0.00375387
2.97525e-06
2.57858e-06
1.96317e-06
0.0341353
0.012698
0.0213243
2.74521e-06
2.24109e-06
1.97565e-06
2.03609e-06
1.67148e-06
2.21642e-06
2.69402e-06
0.00934402
2.34233e-06
2.79e-06
3.88054e-05
0.0630612
3.46531e-06
2.80265e-06
0.0131516
0.00752686
2.70553e-06
0.0041734
0.00200731
2.20559e-06
2.2317e-06
3.52869e-06
2.18407e-06
7.62393e-06
0.00518423
0.0169839
2.05763e-06
0.0110425
0.00668983
0.0051856
1.80511e-06
0.00398052
2.28772e-05
0.00528731
4.19314e-06
0.0525489
1.96675e-06
0.00423989
0.0350662
0.00825137
2.32562e-06
1.76124e-06
2.1661e-06
0.000105553
2.1721e-06
1.0378e-05
2.2529e-06
0.000389581
1.98453e-06
0.0052725
0.00997856
2.08714e-06
0.00222625
3.41091e-06
5.72564e-06
4.61309e-06
0.0131168
2.83025e-06
1.05918e-05
9.61569e-06
0.00019796
0.0209487
2.50808e-06
0.0337865
0.0212706
2.70923e-06
0.0245426
1.99916e-05
2.52033e-06
0.019389
0.00798691
2.20293e-06
2.37801e-06
0.0103507
2.70616e-06
0.0201809
2.46483e-06
2.67993e-06
2.59504e-06
2.00424e-06
2.81277e-06
1.76389e-06
0.00949422
4.26042e-06
1.98422e-06
1.92813e-06
0.0320734
2.80674e-06
2.84131e-06
1.99796e-06
0.0207742
2.29421e-06
0.00342629
0.0188853
2.23531e-06
0.0311209
2.22394e-06
1.87354e-06
0.0666866
0.000159463
2.29253e-06
2.58899e-06
2.21982e-06
2.11535e-06
0.000748166
1.71234e-06
2.91879e-06
2.3843e-06
3.8644e-06
0.00610354
2.89628e-06
2.31414e-06
3.16159e-06
2.03207e-06
2.14058e-06
0.016374
2.60432e-06
2.29396e-06
0.013518
2.62065e-06
0.00134313
0.0484939
2.17156e-06
0.0140012
3.55188e-06
0.00573335
3.38398e-06
4.6113e-06
0.00229447
0.000375732
2.18168e-06
2.87343e-06
4.56579e-06
1.82498e-06
0.00438882
0.0067957
0.0350146
0.000108861
2.5827e-06
2.2599e-06
2.16903e-06
0.00435076
0.00505234
2.62281e-06
0.0271081
0.0199668
2.28371e-06
6.50203e-06
0.000285201
0.0160783
2.00589e-06
0.00478929
0.0237115
0.00564978
0.0161286
0.0256788
0.00739235
2.59206e-06
3.13657e-06
2.26366e-06
2.33923e-06
2.80932e-06
2.20781e-06
0.00837612
1.67904e-06
3.41374e-06
0.00564276
0.00113713
0.0109023
2.75114e-06
0.0483564
1.41534e-05
4.976e-06
4.21194e-06
0.00394204
2.80219e-06
0.0393457
0.0910028
3.75485e-06
3.36876e-06
2.5212e-06
0.0570395
0.00678379
0.000587349
0.0185848
1.87857e-06
2.26773e-06
0.00455991
6.28293e-06
0.00363837
1.87114e-06
2.8945e-06
3.22154e-06
2.17522e-06
2.96107e-06
2.49871e-06
2.2292e-06
2.26432e-06
2.27168e-06
2.39298e-06
1.88619e-05
2.5794e-06
2.10231e-06
2.67897e-06
1.67355e-06
9.08302e-05
0.0327164
0.0557427
0.0046215
0.0539373
0.000904481
0.00068627
2.26779e-06
3.71732e-06
0.00506228
1.71177e-06
2.75068e-06
3.12351e-06
2.01553e-06
0.00400236
5.66004e-06
0.034456
3.51355e-06
2.16588e-06
0.00536212
0.00579626
0.0564166
1.0323e-05
0.00504107
2.25302e-06
2.84672e-06
3.01184e-06
4.27779e-06
2.27637e-06
2.7852e-05
0.00425545
4.74305e-06
0.000230563
0.0147284
0.0228109
2.13515e-06
2.83215e-06
9.56476e-06
2.16121e-06
7.16224e-06
0.00916583
1.86616e-06
0.0243802
0.0826291
6.69501e-05
0.010738
1.75916e-06
2.13018e-06
2.02956e-06
0.0112069
2.10247e-06
3.37622e-06
2.38603e-06
2.26536e-06
2.85947e-06
0.0109834
1.85818e-06
4.20075e-06
2.48131e-06
3.32478e-05
2.24548e-06
2.01621e-06
0.00482478
2.30596e-06
0.000241413
2.29613e-06
2.3996e-06
2.27001e-06
0.0171628
2.47956e-06
6.56014e-06
0.00866653
0.0221086
2.03995e-06
0.0127584
2.37852e-06
2.0319e-06
2.4766e-06
1.87889e-06
4.70997e-06
2.07236e-06
2.10877e-06
0.00677761
0.000140166
1.95572e-06
0.0119599
0.011727
2.68179e-06
2.45138e-06
1.92807e-06
1.96193e-06
2.36047e-06
0.0363609
1.6915e-06
2.89771e-06
2.34446e-06
0.0301808
0.00623279
2.16779e-06
0.0265022
2.1886e-06
0.0019568
0.00833434
1.9497e-06
3.67402e-06
1.79227e-05
1.9641e-06
0.0215415
0.0433958
0.00682128
2.92476e-06
3.27177e-06
0.00681862
2.76273e-06
0.0237545
0.0111047
0.0109922
2.54305e-06
3.21987e-06
0.0320473
2.2765e-06
2.15818e-06
1.81099e-06
2.15346e-06
2.30342e-06
2.29091e-06
2.41174e-06
0.00569601
3.4107e-06
3.11003e-06
0.00045149
3.18942e-06
0.0645529
2.58399e-06
0.00989469
1.72386e-06
0.017125
7.38516e-06
3.05158e-06
0.000182237
2.54554e-06
0.00650156
0.0133009
1.74289e-06
0.00506912
1.82324e-06
2.94384e-06
0.0060334
2.15699e-06
0.00884415
2.18922e-06
3.69666e-06
0.0168183
2.01866e-06
4.35141e-06
3.30808e-06
2.17496e-06
1.72376e-06
2.15095e-06
3.33589e-06
2.39428e-06
2.07481e-06
1.70941e-06
2.02776e-06
0.0202612
3.15939e-06
0.00378263
0.00583526
1.85687e-06
0.0128593
2.46763e-06
2.73121e-06
0.0160145
0.0130361
0.00010725
0.00726012
2.26898e-06
2.25386e-06
2.54726e-06
2.69782e-06
2.25026e-06
1.67423e-06
2.77661e-06
0.021537
8.21494e-06
2.05053e-06
1.87692e-06
0.0417838
0.00660667
2.37497e-06
0.0145171
2.3452e-06
1.39121e-05
0.00590546
0.0554754
0.00919556
0.00832914
2.58358e-06
0.00535214
0.00416512
2.54702e-06
2.63604e-06
3.00301e-06
0.0328403
1.8801e-06
0.000148828
0.00911699
2.19397e-06
2.27608e-06
2.98923e-06
0.118323
0.0162271
2.67919e-06
0.00493575
1.89634e-06
1.94584e-06
0.00572935
1.69208e-06
2.95449e-06
0.00348973
2.26678e-06
4.4196e-06
0.00715744
0.0255583
2.2741e-06
4.20502e-06
0.00574465
3.8345e-06
0.0110807
2.51018e-06
0.0426998
0.00012231
0.00429074
3.61557e-06
0.0173751
1.96771e-06
2.18593e-06
1.96196e-06
3.16629e-06
5.88652e-06
2.7308e-06
2.52087e-06
4.23707e-06
2.14529e-06
0.00911042
0.00901319
3.61767e-06
0.019902
8.6868e-06
0.0307685
0.00819975
0.0175669
2.25069e-06
1.95375e-06
0.000216855
2.16013e-06
4.23685e-06
2.35768e-06
2.2742e-06
5.97467e-06
3.52256e-06
0.00489027
0.00417192
4.16046e-06
2.2535e-06
2.67296e-06
3.2353e-06
8.66273e-06
0.015029
2.97457e-06
0.0223836
0.0085487
2.56335e-06
0.0315366
1.64473e-06
0.00827736
2.79573e-06
1.73872e-06
0.00500638
0.0471332
3.15192e-06
0.00860638
2.29279e-06
0.00563467
2.10194e-06
2.58813e-06
0.00927039
2.07221e-06
0.000484476
0.0143852
1.79611e-06
3.5814e-05
2.09847e-06
0.0190009
0.0288361
1.87281e-06
0.00857333
2.37982e-06
2.69894e-06
3.27162e-06
5.65949e-06
0.00432559
2.17466e-06
0.015279
0.00518629
2.56153e-06
0.0312471
1.91254e-06
0.00789482
2.67656e-06
8.02498e-06
2.35366e-06
1.94638e-06
2.94417e-06
0.00517134
0.00830363
1.86532e-06
3.85262e-06
0.0205733
1.79237e-06
4.14641e-06
0.0125857
0.00497388
0.0147772
0.00928162
1.01866e-05
2.98774e-06
2.03047e-06
3.02962e-06
0.0421875
0.0100051
1.71552e-06
4.24609e-05
0.0167119
2.54517e-06
0.0292012
5.07509e-05
0.00836845
0.0177295
1.90959e-06
0.0088457
1.83788e-06
8.55458e-06
0.00932817
0.0165812
0.0399479
9.89634e-06
0.00542752
0.00515396
2.20906e-06
1.66099e-06
1.79084e-06
2.06887e-06
2.88899e-06
2.34699e-06
0.000386602
0.0664992
0.00409885
2.75249e-06
0.00985923
0.00867911
9.27958e-06
0.000173771
1.94892e-06
0.00854584
0.00831425
2.86632e-06
0.00432604
1.04453e-05
2.62512e-06
1.6791e-06
0.00579101
2.15985e-06
0.0743002
2.27246e-06
2.2506e-06
2.03151e-06
0.00948995
0.0018429
2.3268e-06
0.000253388
0.00588138
0.00667418
0.0211781
1.65061e-06
2.27736e-05
0.010386
0.0065757
2.53155e-06
5.00671e-06
0.00746247
0.0063856
2.92838e-06
4.09289e-06
0.0164427
8.42492e-05
3.59926e-06
0.0737809
0.0216111
0.00538053
3.03781e-06
2.64486e-06
3.24562e-06
3.31603e-06
0.00112279
2.32218e-06
2.49596e-06
5.00388e-05
5.91859e-06
3.00554e-06
3.20636e-06
1.64849e-06
2.61693e-06
4.04106e-06
1.67981e-06
9.79507e-06
1.70527e-06
3.30599e-06
0.00807149
0.0258956
0.0201052
1.69902e-06
2.00632e-06
0.0096208
2.18117e-06
1.65763e-06
1.96656e-06
1.91321e-06
0.0133145
2.88848e-06
2.79532e-06
2.3531e-06
3.73438e-06
2.66866e-06
0.00984921
2.1703e-06
8.19541e-06
9.56402e-05
2.72575e-06
4.28086e-06
2.11803e-06
7.04627e-06
4.53237e-06
4.1766e-06
3.27752e-06
3.81766e-06
0.000290286
1.78567e-06
3.78319e-06
2.00106e-06
0.00585703
1.86173e-06
3.88573e-06
2.04348e-06
0.00411915
0.0313222
1.48209e-05
4.15854e-06
0.0125526
2.51464e-06
2.46022e-06
7.67436e-06
4.18594e-06
2.8757e-06
3.83812e-06
2.21596e-06
2.58374e-06
2.48505e-06
3.43709e-06
2.78377e-06
2.68836e-06
1.69807e-06
0.00530107
0.0156899
2.09146e-06
2.29499e-06
1.93047e-06
1.49676e-05
3.88512e-06
3.52974e-06
2.34758e-06
2.61171e-06
1.90901e-06
1.85643e-06
0.0323785
3.32908e-06
4.80754e-06
1.68418e-06
2.33964e-06
2.19368e-06
8.39279e-06
2.97429e-06
2.64551e-06
2.20535e-06
2.27817e-06
2.42812e-06
0.0130699
2.60325e-06
0.00502833
0.000264704
3.27678e-06
0.0147437
0.0157802
0.0231928
0.00388664
2.2366e-06
2.73914e-06
0.00161936
9.77334e-06
1.92168e-06
2.32857e-06
2.13786e-06
0.00276821
2.72829e-06
2.67927e-06
3.90588e-06
4.16151e-06
5.87059e-05
2.61136e-06
2.18421e-06
3.2053e-06
2.63831e-06
2.21563e-06
2.60604e-06
2.16895e-06
0.00148149
4.60856e-06
2.93926e-06
1.88727e-06
2.95242e-06
2.3314e-06
1.66358e-06
0.00484921
2.6332e-06
2.33569e-06
0.0153953
6.76448e-06
1.79048e-06
3.01346e-06
2.27394e-06
2.91265e-06
1.87879e-06
1.86642e-06
2.55291e-06
0.00935723
5.33588e-06
0.0231337
1.63493e-05
3.11153e-06
2.66217e-06
4.66517e-06
2.27467e-06
3.71151e-05
2.66631e-06
0.0083228
2.63185e-06
2.47424e-06
2.2838e-06
9.02013e-06
0.0143099
0.00385487
0.0159012
2.88569e-06
2.30416e-06
0.026159
0.00980956
0.00876904
0.0277449
1.80235e-06
7.01198e-06
2.18888e-06
2.28702e-06
3.24721e-06
1.90607e-06
2.25244e-06
2.14052e-06
0.0134562
1.97832e-06
2.0648e-06
0.0132489
1.86443e-06
2.37181e-06
3.06104e-06
0.0727114
1.027e-05
2.09659e-06
2.63078e-06
2.22847e-06
8.46976e-06
0.000821257
4.16655e-06
2.61334e-06
2.57295e-06
4.93758e-06
2.7799e-06
0.0141672
2.55806e-06
0.0315239
3.16371e-06
1.6946e-06
1.66767e-06
4.19752e-06
2.64561e-06
2.2452e-06
0.0103592
0.0151781
4.16469e-06
0.00979322
0.00642975
1.86483e-06
2.61441e-06
0.0151766
4.8299e-05
8.92192e-06
0.00423379
2.56429e-06
2.24387e-06
2.3962e-06
0.0187409
2.40493e-06
5.83501e-06
0.0161773
0.00803441
2.3696e-06
2.07828e-06
6.45754e-05
2.69289e-06
1.99253e-06
4.50796e-06
2.33659e-06
0.0418845
4.12239e-06
0.00912381
0.00451697
0.00986201
3.11864e-06
0.00107768
1.94849e-06
5.3313e-05
2.47458e-06
6.07115e-06
2.59701e-06
0.000263942
0.000140421
1.70774e-06
0.00408601
0.00492777
1.64216e-06
0.00538539
2.38774e-06
2.13129e-06
2.49065e-06
7.18412e-05
2.54362e-06
0.0340889
0.000252193
0.0665379
4.10443e-06
3.29725e-06
1.82945e-06
0.0462614
2.28884e-06
2.77601e-06
2.76486e-06
0.00448811
2.03072e-06
3.90267e-06
0.00432151
2.58866e-06
0.0287156
2.38344e-06
5.66973e-06
3.18998e-06
2.24942e-06
2.44077e-06
2.16618e-06
3.68082e-06
2.64682e-06
1.79213e-06
2.63822e-05
2.17473e-06
0.0246034
1.80088e-05
2.4469e-06
0.00492729
2.06849e-06
0.00465679
0.00458216
0.014195
0.0183515
2.37679e-06
0.000272197
0.0156241
2.13307e-06
2.3123e-06
2.08099e-06
3.90886e-06
2.26607e-06
2.02118e-05
2.46878e-06
2.58756e-06
6.83114e-06
0.0376025
1.95585e-06
6.01432e-06
0.00365172
0.0314777
0.00960519
1.8134e-06
2.43624e-06
1.94699e-06
0.00941146
1.75096e-05
6.69505e-06
0.00762116
2.19804e-06
1.94645e-06
2.31937e-06
2.44414e-06
2.07789e-06
0.0101292
2.53439e-06
2.12668e-06
0.0858064
2.10961e-06
3.36989e-06
1.87989e-06
0.0314773
2.29574e-06
1.8468e-06
3.1881e-06
2.2532e-06
0.0328929
2.28752e-06
2.24836e-06
0.000822265
2.49564e-06
2.55004e-06
1.82282e-06
2.58014e-06
9.28773e-06
2.54754e-06
5.85419e-06
2.38272e-06
1.95047e-06
2.57664e-06
3.6085e-06
0.0141011
3.83044e-06
0.000533894
2.13298e-06
1.85549e-06
0.00541073
3.55727e-06
2.14781e-06
2.34968e-06
2.1458e-06
2.12933e-06
2.16368e-06
0.00484468
0.000304547
5.69134e-06
0.0694852
0.00395497
2.98944e-06
0.00524762
8.04867e-06
0.000207954
2.25658e-06
2.05792e-06
0.0311724
2.23838e-06
2.06726e-06
0.0221815
2.44476e-06
2.85405e-06
0.0156345
4.99189e-06
2.96129e-06
2.45372e-06
1.68645e-06
0.00815252
2.66369e-05
2.60092e-06
1.99346e-06
2.84666e-06
0.00897636
8.79505e-06
2.72547e-06
3.20379e-06
3.53543e-06
0.0229416
0.0166318
1.77018e-06
2.76616e-06
1.90617e-06
1.79987e-06
1.98858e-06
0.0144239
0.0112687
2.14659e-06
3.11732e-06
0.0405317
2.29855e-06
2.15091e-06
2.22837e-06
1.85196e-06
2.16145e-06
0.00740563
3.55845e-06
1.041e-05
0.00853807
3.13913e-06
3.14019e-06
3.44825e-06
0.0143088
2.09504e-06
0.00967096
0.00333131
4.85488e-05
4.20394e-06
0.000192768
0.0131024
1.72657e-06
0.0233703
0.00754511
0.0357356
2.16609e-06
2.57622e-06
0.00017413
2.17058e-06
0.00923655
2.54671e-05
0.0222366
2.77523e-06
2.29312e-06
0.00759206
0.0196198
1.88501e-06
3.332e-06
2.95678e-06
3.39793e-06
0.0113343
0.00532647
0.0544201
2.70001e-06
2.18945e-06
4.18676e-06
0.00893978
0.0086701
2.58935e-06
0.0106061
8.45257e-06
0.0166577
1.89662e-06
2.99197e-06
0.00517261
0.00459542
2.50699e-06
0.000781129
2.23512e-06
4.71632e-06
2.31845e-06
2.19682e-06
3.94281e-06
2.88356e-06
1.86913e-06
0.0071169
0.00869496
0.0286063
1.92417e-06
0.027608
4.24054e-06
0.00262582
2.91817e-06
0.00938656
0.00676896
3.17422e-06
2.02455e-06
2.34712e-06
2.64794e-06
2.70985e-06
9.9977e-05
0.00484521
1.68196e-06
0.0036328
3.07971e-06
2.09931e-06
0.0303848
0.00390389
2.17949e-06
4.52389e-06
0.00950379
0.00436833
0.000129025
2.48394e-06
2.34373e-06
2.8885e-06
2.79344e-06
2.86562e-06
0.0588137
1.65345e-06
2.33311e-06
1.69231e-06
2.18118e-06
2.1764e-06
2.83388e-06
2.31456e-06
3.36613e-06
0.00512672
2.95882e-06
2.23876e-06
1.82089e-06
0.00439212
1.77063e-06
2.44058e-06
2.1364e-06
2.32524e-06
0.0117577
3.05964e-06
2.6553e-06
2.65316e-06
2.15717e-05
2.34839e-06
2.4581e-06
0.0144895
1.45534e-05
0.0314084
1.96054e-06
0.00756617
0.00385955
1.93554e-06
2.12568e-06
0.00527211
1.74329e-06
3.10027e-06
3.3262e-06
0.000845513
0.00499507
2.16919e-06
3.26721e-06
0.00969589
2.24098e-06
2.45562e-06
2.00014e-06
0.0383455
2.83908e-06
0.00698523
4.17817e-06
2.43441e-06
0.0159894
2.18772e-06
0.00503577
8.53302e-06
0.000809706
2.57282e-06
2.4658e-06
2.29481e-06
2.47138e-06
2.68998e-06
0.0239224
0.140166
1.97676e-06
4.23722e-06
1.9652e-06
2.16773e-06
7.84346e-05
0.00169452
0.0154271
2.65461e-06
3.62868e-06
0.014297
3.72433e-06
3.16167e-06
2.15584e-06
0.00113152
0.00521112
3.66708e-05
2.02775e-06
5.02661e-06
0.0109621
3.42433e-06
3.9803e-06
1.97956e-06
2.14211e-06
2.45151e-06
0.00940244
2.02551e-06
0.046155
2.83626e-06
2.32319e-06
0.00272419
2.29317e-06
3.55678e-06
2.17215e-06
1.93153e-06
0.00614702
2.72097e-06
1.82349e-06
2.69611e-06
0.0274741
1.82155e-06
0.0132291
0.00504851
2.72271e-06
1.82958e-06
0.00955804
2.06572e-06
0.0489456
0.0251126
0.0189861
4.1641e-06
0.00682077
0.00029954
1.67701e-06
2.57322e-06
3.60222e-06
3.11172e-06
0.0355925
2.27434e-06
4.50245e-06
2.3009e-06
2.60268e-06
0.0237282
2.72125e-06
2.73855e-06
2.4082e-06
0.00533993
0.0104316
0.00529173
0.0322615
1.87145e-06
0.0100915
3.46234e-06
0.00994899
0.0224269
2.22478e-05
8.02417e-06
0.000318016
0.014887
0.0242823
2.58347e-06
5.69081e-06
2.14218e-06
2.14037e-06
2.25847e-06
2.26332e-06
2.3373e-06
0.0530197
2.45555e-06
3.47744e-05
0.000245073
0.00534632
0.000407992
2.32706e-06
2.07586e-06
2.17489e-06
2.84182e-06
0.00479809
0.00448525
5.97354e-06
1.7883e-06
0.0383595
5.62425e-05
1.82842e-06
0.0210474
0.00543831
3.104e-06
2.46388e-06
0.00977248
0.0126923
2.27151e-06
2.12852e-06
2.50917e-06
2.02516e-06
0.0223624
6.81548e-05
2.66362e-06
2.01455e-06
0.0221461
2.38045e-06
2.12944e-06
2.2487e-06
0.0151175
6.02675e-06
2.68915e-06
1.98188e-06
2.4435e-06
5.23895e-06
2.33224e-06
0.00790183
1.59265e-05
0.00563683
4.27804e-06
0.0100193
0.00495176
0.0671914
0.0195966
2.01766e-06
1.84818e-06
0.0364009
0.0567975
0.0154062
2.7431e-06
2.00947e-06
2.14548e-06
3.80973e-06
2.67399e-06
0.0054162
0.00397806
0.00562778
2.34951e-06
1.72814e-06
3.76078e-06
1.96856e-06
0.00505538
0.0146016
2.14402e-06
0.019597
0.00815853
0.0331464
2.20386e-06
0.0195022
2.19209e-06
3.10887e-06
0.00866855
2.4782e-06
2.03414e-06
2.39339e-06
0.0142908
0.00404402
2.71268e-06
5.2779e-06
0.025779
4.15022e-06
2.42449e-06
2.16327e-06
2.27988e-06
0.00592373
0.0161701
3.11829e-06
0.0255295
0.0415965
3.76235e-06
0.0133533
0.0191891
6.0166e-06
1.86736e-06
2.17606e-06
0.0156495
1.99807e-06
2.63872e-06
2.68293e-06
4.23268e-06
2.41091e-06
0.00562666
0.00739468
2.28188e-06
2.12236e-06
0.00816786
0.0211484
0.00975711
3.68379e-06
1.02898e-05
2.4805e-06
0.00378427
0.0122962
0.0314052
1.91913e-06
4.14994e-06
1.85364e-06
3.24388e-06
0.0152101
2.37107e-06
2.72797e-06
0.00742497
3.53562e-06
2.36703e-06
1.84324e-06
0.0149134
0.00762865
0.000140785
3.41394e-06
0.0422274
1.74188e-06
1.62766e-06
1.17622e-05
0.030403
0.00731941
0.0937428
2.23893e-06
0.004973
0.00282109
2.89941e-06
0.00038004
3.7283e-06
2.73716e-06
2.49818e-06
3.18678e-06
2.61616e-06
2.31474e-06
1.92781e-06
0.0063346
2.33753e-06
2.41903e-06
1.73555e-06
2.27454e-06
4.73648e-06
3.20911e-06
3.34769e-06
2.80645e-06
0.00855194
2.55978e-06
2.37799e-06
1.776e-06
2.47986e-06
5.25368e-05
2.61014e-06
0.0080088
0.00936386
2.08064e-06
0.00541586
2.37982e-06
5.31333e-06
0.0168353
3.08903e-06
0.0055991
1.98324e-05
1.34404e-05
2.46871e-06
1.87694e-06
0.00321166
0.0201006
2.48785e-06
1.88774e-06
2.29165e-06
0.00581118
2.42501e-06
0.0269471
2.60488e-06
2.56754e-06
2.574e-06
0.00597406
1.89117e-06
2.60651e-06
2.90503e-06
3.5623e-06
3.51049e-06
2.22242e-06
0.000100833
0.0450182
3.65582e-06
0.0422028
3.01431e-06
2.64314e-06
0.00404672
2.21228e-06
0.0090814
0.0135012
2.17307e-06
2.45663e-06
2.57535e-06
0.0128524
0.0478466
2.2288e-06
0.0198569
0.0286936
2.62733e-06
2.29786e-06
0.000108448
2.86113e-05
0.00463115
0.00469881
1.70641e-06
0.00588447
4.18107e-06
2.88165e-06
2.41954e-06
2.24095e-06
2.99973e-06
2.07618e-06
3.48422e-06
3.63673e-06
2.01175e-06
2.95639e-06
0.011364
2.6039e-06
1.41417e-05
2.75872e-06
2.15186e-06
0.0159399
0.00326902
0.00786344
1.98846e-06
3.8272e-06
2.41873e-06
2.18478e-06
3.98803e-06
2.10447e-06
4.58714e-06
3.20503e-06
0.00755588
0.00431808
7.31843e-06
0.0164049
2.12377e-06
0.00425951
2.73367e-06
1.91771e-06
0.00645046
2.12576e-06
0.0239338
3.27846e-06
0.00946964
0.00263293
2.77782e-06
0.0123499
2.48701e-06
0.00853636
2.19494e-06
1.71439e-06
3.0092e-06
0.0637057
7.17147e-06
2.29457e-06
2.80987e-06
2.06863e-06
3.15958e-06
2.32323e-06
0.00657315
0.000492037
2.0393e-06
3.1296e-05
2.92796e-06
4.2177e-06
0.000155814
0.0139523
1.74315e-06
0.00517398
2.45838e-06
0.0137246
0.0170424
2.96214e-06
2.95362e-06
1.84273e-06
5.33424e-06
0.00341157
0.0283619
2.27759e-06
1.97624e-06
2.29157e-06
2.1663e-06
2.02961e-06
0.00788432
2.09962e-06
3.53841e-06
2.90144e-06
2.45607e-06
2.85188e-06
2.00048e-06
2.63244e-06
3.15081e-06
0.00433236
1.84878e-06
3.72052e-06
2.68948e-06
0.00381465
9.97681e-06
0.00656226
6.14028e-06
2.35482e-06
2.38146e-06
0.00577919
1.92709e-06
4.18868e-06
3.40163e-06
2.50023e-06
2.1718e-06
2.31558e-06
1.78655e-06
2.41987e-05
2.05151e-06
1.72578e-05
0.00863146
3.33408e-06
0.00419494
2.94562e-06
0.00819885
4.07159e-06
2.26833e-06
2.14665e-06
8.07966e-06
0.0153671
2.22284e-06
2.26319e-06
0.0354608
2.39444e-06
2.11774e-06
8.42024e-06
0.0100263
2.52547e-06
2.14023e-06
0.020112
0.0305352
0.0129998
2.30304e-06
2.87223e-06
0.024832
1.85938e-06
2.7403e-06
2.54251e-06
2.28577e-06
3.76796e-06
2.25535e-06
0.0223367
1.85479e-06
6.52634e-06
2.35798e-06
3.58689e-06
2.30909e-06
0.00849767
0.00394625
0.0225799
1.81226e-06
0.00550901
0.000549411
0.0096691
2.66948e-06
2.12526e-06
0.00900795
2.25033e-06
0.0056202
0.00472089
0.00419728
2.21836e-06
1.75536e-06
2.34795e-06
1.7611e-06
2.42559e-06
0.00420449
0.00906108
2.39971e-06
0.0126172
2.18783e-06
0.00739928
2.77599e-06
2.65911e-06
0.0171149
0.0145784
1.82832e-06
2.04688e-06
0.000215898
2.42038e-06
0.0285329
1.83489e-06
0.0576765
3.36987e-06
0.00732657
0.094754
1.79902e-06
0.0193676
0.00571104
0.0686072
7.81374e-05
2.90653e-06
4.88439e-06
0.00683397
2.61934e-06
1.77552e-06
2.67878e-06
0.00944743
2.89374e-06
2.38808e-06
3.7612e-06
2.84118e-06
2.76719e-06
1.67301e-06
0.0137386
0.0152317
7.42992e-06
0.00492362
0.00717314
4.21488e-06
8.50092e-05
0.0063635
2.12089e-06
2.74877e-06
2.18774e-06
2.26745e-06
0.00619099
0.116483
0.0325121
2.37621e-06
0.00592775
0.00929837
0.00900837
0.0218395
2.13383e-06
6.43996e-06
2.22191e-06
2.11576e-06
0.0259944
1.98275e-05
3.98282e-06
2.95191e-06
3.42816e-06
2.41124e-06
0.00271286
0.00277711
0.0310483
2.03224e-06
0.00556027
1.78329e-06
0.000441173
0.0110563
0.00955128
1.7468e-06
2.55259e-06
0.00700825
2.73376e-06
0.0031016
2.34725e-06
0.00447178
2.52624e-06
2.67765e-06
0.0175609
2.01528e-06
0.0262543
2.14104e-06
0.00389872
2.78381e-06
0.0147603
2.60986e-06
0.0126741
0.00623465
0.0830513
0.00668976
2.60162e-06
0.00451531
4.79103e-05
2.05832e-06
5.0746e-06
0.00877823
2.01846e-06
2.75889e-06
0.0160892
2.1075e-06
1.95999e-06
0.0102455
4.19119e-06
4.188e-06
0.057056
0.00668018
0.0194261
3.18838e-06
0.00678843
2.62492e-06
2.06927e-06
0.0056263
1.96758e-06
2.00387e-06
0.00652453
0.00469381
4.08623e-05
0.0648579
2.87874e-06
6.25934e-06
0.00193039
0.00278139
2.33465e-06
7.06467e-06
0.0127165
0.0541557
0.00660487
2.0275e-06
2.29746e-06
2.30074e-06
1.84992e-06
2.1618e-06
2.007e-06
2.62049e-06
0.0026119
0.00485349
2.32494e-06
1.90792e-06
2.38802e-06
2.45836e-06
3.16453e-06
0.00957011