/*--------------------------------*- C++ -*----------------------------------*\
| =========                 |                                                 |
| \\      /  F ield         | OpenFOAM: The Open Source CFD Toolbox           |
|  \\    /   O peration     | Version:  v2012                                 |
|   \\  /    A nd           | Website:  www.openfoam.com                      |
|    \\/     M anipulation  |                                                 |
\*---------------------------------------------------------------------------*/
FoamFile
{
    version     2.0;
    format      ascii;
    class       volScalarField;
    location    "400";
    object      ddt0(epsilon);
}
// * * * * * * * * * * * * * * * * * * * * * * * * * * * * * * * * * * * * * //

dimensions      [0 2 -4 0 0 0 0];


internalField   nonuniform List<scalar> 
18232
(
-0.00137313
-5.00568e-10
-7.90054e-11
2.72008e-10
-6.28118e-10
-5.0963e-08
8.66951e-11
3.39931e-11
-4.81253e-10
-7.01222e-10
-3.18115e-11
4.42077e-09
-6.18067e-10
6.81985e-05
-2.9064e-10
-1.82141e-05
-1.12333e-11
-8.56993e-12
-3.21163e-11
-2.30309e-08
-1.59584e-07
-2.07279e-10
-2.16857e-10
-2.70515e-10
-1.16641e-11
3.25321e-10
9.27136e-12
-5.38111e-08
-3.35583e-11
2.65651e-11
1.8996e-11
0.000533892
9.92777e-10
1.26388e-05
-0.00032812
-1.16949e-07
-2.64834e-05
3.54571e-11
-5.54717e-05
-5.43302e-10
-0.00439179
-1.07218e-09
-1.72603e-09
-9.06589e-05
-2.57273e-11
-0.000168361
1.19118e-10
-4.46974e-10
-3.98644e-08
4.04115e-12
-4.66609e-11
2.4692e-12
-0.00169865
-3.1458e-11
-1.22995e-09
-3.63168e-08
-6.93484e-11
7.97545e-11
0.00205566
-3.38122e-11
-3.39145e-10
1.26796e-11
-4.62642e-10
2.70182e-10
8.21099e-09
-2.33445e-10
0.00147187
0.000546474
-4.15982e-11
-4.25766e-10
-9.35533e-11
-3.80556e-10
0.000468966
-2.83748e-05
1.8373e-08
-6.66348e-06
-4.48657e-10
2.07837e-10
-0.000351044
-1.60548e-10
0.000523105
5.15451e-09
-1.61905e-10
-5.40251e-10
4.25348e-05
-3.51395e-08
-4.15792e-11
-8.64475e-12
4.39585e-09
1.91205e-09
2.19996e-11
-2.0147e-10
-1.44095e-11
-3.15944e-08
2.39767e-11
-4.32057e-10
-6.26819e-12
-1.56308e-10
4.94222e-05
4.8977e-11
-4.63414e-10
-2.061e-10
-3.13149e-05
9.01928e-11
-8.03247e-08
-8.50158e-11
-4.18097e-11
6.63829e-09
9.45381e-12
-4.96407e-10
-2.67375e-10
-1.46135e-06
-3.99877e-11
-2.42183e-10
2.22729e-11
-3.11949e-10
5.29925e-09
-0.000168405
1.59644e-10
-3.42171e-10
1.22194e-10
1.25782e-11
3.25483e-06
-2.07191e-07
8.51179e-05
-1.58574e-09
1.14019e-07
-4.08658e-12
-1.42362e-07
-1.34352e-05
-6.61092e-11
-3.17462e-10
3.87545e-10
5.8026e-11
-0.00138648
-4.55074e-06
-4.58209e-08
-6.59482e-11
-6.0388e-11
-7.99234e-05
-9.37409e-10
-7.29982e-11
-5.64418e-05
-3.7824e-11
-4.44497e-10
-3.52832e-10
-5.86216e-10
-3.52352e-12
-0.000233822
-4.36056e-09
5.09178e-06
-2.75109e-10
5.00103e-09
-4.3728e-10
1.61083e-09
-0.00440193
-6.73735e-06
7.6093e-09
-2.13506e-09
-1.48049e-11
-5.98804e-10
4.20623e-11
1.28096e-10
0.00123647
-0.000296708
-2.48718e-10
7.62617e-10
4.95744e-06
5.46589e-10
-0.000236873
-2.457e-10
1.57258e-11
-5.76613e-11
-2.19835e-10
-1.5339e-10
-0.000277055
-6.52946e-10
2.26853e-12
-0.000324066
2.84483e-10
-2.2773e-08
-5.73813e-05
1.93106e-09
-3.16862e-05
0.00155951
-1.31407e-12
-3.06542e-10
2.53018e-05
-6.82501e-10
-0.000176169
-4.71242e-10
1.02587e-10
-3.64121e-10
-0.000215415
-6.67597e-11
-2.49267e-10
-2.469e-11
-1.78407e-10
7.64708e-11
-9.38182e-11
6.05599e-13
-1.61654e-10
1.21777e-11
3.46778e-07
6.97328e-09
-9.49035e-05
-2.28129e-07
-4.48465e-06
-3.52676e-09
5.94602e-10
2.40141e-10
-4.59178e-10
-5.05313e-10
1.93144e-05
-2.6809e-05
-2.07816e-10
4.96452e-09
-3.37106e-10
-7.57814e-11
-1.19978e-10
-0.000252073
3.41496e-11
-3.44045e-05
-5.00721e-10
3.20882e-10
-1.70464e-10
-4.62061e-09
-2.41825e-10
1.17303e-10
-2.65896e-09
-7.80802e-11
3.20998e-10
-0.000279861
2.31465e-06
7.38762e-10
-0.000152988
1.47529e-10
1.19013e-09
6.80538e-12
5.77177e-12
-2.79024e-11
-8.0696e-06
2.31456e-08
-2.35512e-10
-5.5824e-05
-0.000255396
-4.38464e-15
0.00122482
4.7864e-05
-5.25485e-10
-4.60578e-08
-4.79587e-08
2.1105e-11
-3.41107e-09
-2.05387e-10
1.45915e-07
-1.56204e-05
-2.30222e-05
2.30925e-05
-2.54665e-08
-4.75824e-10
-5.54805e-12
-6.85664e-09
-3.69337e-12
-7.59825e-11
3.43123e-12
-0.000114193
3.58538e-09
-4.51668e-08
-1.59641e-06
-3.40238e-10
0.000181741
-5.77111e-10
-2.03367e-14
6.62749e-11
-0.000162755
-2.98739e-10
-3.19509e-10
5.8112e-12
0.000353062
-0.000142522
-3.54468e-10
-1.72657e-10
-0.000150976
-4.98364e-08
2.2189e-10
-3.89269e-10
-0.000117699
-3.8173e-10
5.8034e-09
1.09107e-10
1.4727e-09
-0.00017606
4.59804e-09
-3.83316e-10
-1.29206e-06
-0.000155385
-2.59641e-10
-5.78132e-11
-3.4498e-10
-1.30644e-09
4.56001e-12
-0.000327852
-5.09267e-08
3.21262e-12
2.69055e-10
4.734e-08
-1.29859e-09
-4.51632e-12
-0.00022284
-2.60171e-10
-1.94024e-10
2.87603e-08
-3.4381e-10
-2.26986e-10
-4.01762e-10
-0.000186266
2.61245e-11
-0.000151654
-1.72853e-10
-3.92798e-06
-2.49754e-10
1.85888e-08
1.54289e-05
6.80786e-11
-2.3309e-10
1.05789e-07
-2.66667e-10
-3.85153e-09
-4.21787e-10
-2.70882e-11
1.06164e-11
2.41707e-09
0.000242273
-2.73193e-08
-0.000569212
-1.4958e-06
7.34389e-05
-1.93779e-10
4.8006e-10
-3.66146e-09
-1.25113e-07
-2.33205e-13
-7.38868e-11
3.91415e-12
-3.83654e-09
0.000177859
-3.03803e-10
4.46239e-08
6.91701e-10
0.000162719
-1.56173e-10
1.29304e-10
6.33065e-12
1.37263e-09
-2.79429e-10
-3.5695e-08
0.000284326
-1.33621e-14
6.28938e-11
-1.44363e-07
-1.63005e-09
0.00200851
1.48593e-09
-0.00146632
-1.09913e-10
1.68591e-10
0.000290679
-1.08728e-10
5.45964e-05
-6.72059e-07
-1.94649e-07
-5.44148e-10
-0.0189188
-6.24981e-11
7.64679e-11
-8.10306e-11
-4.40549e-12
-1.6137e-05
2.42672e-05
-3.59098e-10
1.43213e-09
4.56213e-11
-8.09823e-12
1.42019e-05
-4.28022e-09
1.97487e-10
-4.96875e-13
1.40597e-10
-2.88653e-10
-1.65591e-09
2.82023e-10
-0.000236405
-4.78822e-09
-1.65968e-05
-5.78303e-10
1.228e-06
-7.34103e-10
2.51541e-07
-1.15709e-11
-3.21904e-07
-2.61411e-05
7.7013e-08
0.000238924
1.00237e-09
-2.13865e-12
-5.53474e-10
4.32684e-12
-2.54576e-10
-5.10276e-08
1.18287e-05
-0.00649149
-1.06254e-09
-1.90933e-10
6.18306e-05
-4.33657e-08
-2.72825e-11
2.56273e-12
-7.79388e-05
-8.80579e-11
-2.22037e-10
1.17395e-09
7.51233e-09
-4.72242e-11
-7.89829e-06
-2.84702e-09
1.8252e-08
5.48173e-09
1.95908e-10
-2.18101e-08
-1.04948e-10
-4.02107e-08
0.000184498
-3.68757e-10
2.10068e-09
-4.63448e-12
-1.36248e-10
-7.0403e-12
-2.81413e-09
1.24966e-10
-2.32164e-11
-2.6753e-08
-0.000335793
-2.24918e-09
-3.17808e-10
-1.81042e-09
-4.08261e-10
-2.97987e-11
1.29336e-08
2.57973e-10
-0.000301824
-2.24575e-10
-2.98064e-11
3.67887e-11
-1.0915e-05
-2.67296e-11
0.00305238
1.46214e-12
-1.08685e-09
-3.6818e-10
-4.72462e-11
-1.2497e-08
-3.42578e-10
-2.63848e-05
-8.76066e-11
-4.14743e-10
-3.98823e-11
-5.83346e-10
-5.41083e-10
-3.98844e-10
-4.70303e-11
-0.000300862
-6.71875e-09
3.96681e-08
-1.26997e-09
9.01082e-10
-3.14206e-10
-4.07529e-07
-0.000710549
-4.92073e-10
-5.61823e-09
-2.81784e-09
9.92125e-11
7.95658e-09
1.31283e-10
-2.43487e-10
-8.61838e-11
-4.98433e-10
-0.000127714
-4.91982e-09
-1.99462e-11
-6.34892e-08
-3.17226e-11
-1.28206e-10
-6.51384e-10
-2.79672e-09
7.39444e-11
-5.40404e-07
-1.87667e-05
4.05572e-14
9.35848e-11
-3.01794e-10
4.60219e-10
-1.67257e-08
0.00018133
-2.18008e-08
3.20341e-11
-2.48291e-10
-4.88797e-12
9.68054e-11
-0.000164588
-1.87596e-10
-1.48971e-10
-3.6682e-05
7.79212e-11
-4.82949e-12
2.0568e-11
-6.45116e-09
1.51156e-11
-1.23189e-10
1.51606e-10
-2.31407e-10
2.46134e-11
0.000787456
0.00232142
-6.10345e-11
-2.67412e-11
-3.81589e-11
-4.62014e-10
0.000278272
-1.82491e-11
1.10828e-07
-1.79061e-08
-8.74857e-10
0.000383721
-9.06104e-10
-7.295e-06
-7.53815e-12
3.48569e-05
-7.76112e-08
3.33878e-10
-1.49795e-09
1.76755e-10
-4.66594e-11
2.1375e-12
4.03055e-09
-0.000110115
2.88464e-10
-8.42316e-11
-2.38706e-08
-1.48883e-09
-2.65155e-11
-2.27547e-11
-3.32604e-11
-0.000140199
-0.000703852
-1.03016e-10
-1.56813e-09
9.78108e-10
9.59118e-06
-0.000233191
-2.9933e-13
1.23485e-08
9.23519e-12
-3.14439e-05
-1.2324e-11
-1.1556e-11
0.000100986
1.04003e-05
-5.96502e-09
-1.20374e-10
9.63161e-11
-4.70813e-05
-2.20519e-10
-7.20516e-11
-2.80768e-10
0.000851914
-2.75536e-10
-4.14454e-05
-1.60623e-10
-0.000162414
-4.04523e-11
-0.000200803
2.60657e-09
-2.9788e-11
-7.65523e-09
-5.27861e-11
-7.13023e-10
1.48247e-05
0.000844393
-2.04354e-11
-7.45838e-12
-1.29715e-08
-1.47147e-10
-2.24631e-05
-2.54634e-10
-3.00515e-09
0.00218075
-0.00024989
-3.45285e-10
-2.16433e-10
-5.54206e-11
-0.000500981
2.51671e-09
4.6738e-11
-5.32413e-10
-1.29805e-11
-0.000188792
-5.45987e-12
-7.88073e-11
1.17856e-12
-9.72549e-11
-6.13304e-12
1.23823e-09
-5.43245e-10
-2.39395e-11
4.1359e-11
-0.000220039
-1.19354e-11
9.3654e-11
5.75408e-10
5.20303e-12
8.96817e-06
-6.24842e-05
5.12236e-10
-2.02882e-08
-3.03701e-09
-0.00165981
-5.41246e-10
-3.53629e-10
-2.60669e-10
-7.18655e-11
-2.27732e-09
-4.06098e-12
-5.3233e-05
-0.000206552
-0.000287242
-8.18974e-05
-0.000323664
-1.02987e-09
-5.39875e-08
-3.59377e-06
-6.87489e-13
-1.77764e-06
1.13435e-10
-1.64731e-09
5.90892e-09
-0.00136499
-6.45578e-10
-3.0045e-11
-0.000206421
-3.20453e-10
-3.97592e-11
-1.35464e-09
-2.03207e-05
-8.41051e-09
9.46094e-10
4.41948e-09
8.43234e-09
-2.50284e-05
-5.41543e-10
-7.83963e-10
-8.17504e-10
6.90518e-09
3.07123e-11
3.80121e-08
1.57056e-09
-8.59399e-11
-2.2122e-10
-1.02703e-10
-3.16944e-11
-4.99675e-05
-4.46004e-05
-3.28693e-10
-4.69456e-05
-8.68394e-10
-6.51099e-05
2.89566e-08
-6.69486e-11
-0.00140981
-5.37617e-10
-2.75644e-10
5.91739e-05
6.84201e-10
-6.19509e-10
1.95828e-06
-8.472e-08
1.31196e-12
-3.01501e-10
-6.44222e-05
-2.99866e-10
1.97116e-10
-4.56617e-05
-0.00016042
2.10886e-09
-2.28609e-09
-0.000148391
-4.21034e-10
-1.69621e-09
0.00150708
-4.32446e-09
-2.24182e-05
1.55504e-09
0.00137642
1.22025e-09
-1.65132e-11
0.00183756
3.61591e-12
-3.24544e-11
-2.56846e-11
-0.00072098
2.3874e-08
1.02519e-10
-1.40912e-07
1.21336e-11
1.45631e-09
1.2473e-11
0.00350031
3.97483e-09
-1.23038e-09
-3.40594e-10
-4.30899e-11
1.97466e-11
-0.000443617
-2.52609e-09
-0.000256926
2.14615e-12
-8.49699e-07
6.07873e-13
2.61592e-12
-2.29896e-10
9.67541e-11
-4.51035e-10
2.06594e-10
-2.93866e-10
-4.62898e-10
1.3581e-05
-8.23745e-12
-3.09198e-10
0.00099417
-4.30023e-10
-0.000609803
-1.68143e-11
-7.27403e-07
-0.0067955
-2.66119e-11
0.000810392
-5.64295e-10
0.00115377
-2.81261e-06
9.22781e-06
-3.23477e-11
-7.39002e-11
-2.83745e-10
-4.3728e-08
-0.00037022
-1.48534e-07
-3.16044e-10
1.52481e-11
-0.00016486
0.000861897
-2.66751e-07
-2.32414e-11
2.54921e-08
-2.90571e-11
6.22789e-10
-0.000245474
-1.21654e-09
-0.000452853
-2.53944e-10
-1.05601e-10
0.000134705
-8.06215e-05
-5.27735e-11
-1.05349e-10
1.36068e-09
3.83732e-06
-2.76565e-11
-2.18788e-11
6.04587e-09
3.75811e-08
4.53223e-09
-1.14184e-09
-7.01714e-09
5.91658e-12
1.6673e-12
0.000116405
6.13827e-10
-0.000179334
9.68527e-06
-9.03677e-09
-2.31494e-08
-3.67088e-05
-2.20233e-10
-4.80235e-10
-5.64472e-10
-3.60198e-05
-2.18716e-10
-1.35608e-09
-0.000221698
-2.08896e-10
7.45202e-06
-1.45643e-10
7.01976e-12
-3.30211e-10
1.42406e-09
9.24779e-10
-4.01648e-06
-6.04909e-10
-3.1232e-10
4.2504e-05
2.32437e-09
0.00499575
0.000780764
2.13074e-08
-3.6075e-05
-8.14255e-07
9.58957e-12
-2.38333e-11
-3.69101e-08
0.00126982
-5.25556e-10
5.43628e-10
3.86718e-06
-1.11014e-09
-1.00915e-11
1.40222e-10
0.000559961
1.20565e-10
-3.5186e-05
-5.07616e-09
-1.34659e-11
3.0083e-06
2.97556e-09
0.000406457
-3.20967e-10
-1.22173e-10
-8.97567e-11
-3.22266e-06
2.08591e-11
-3.92137e-10
-8.86661e-12
-0.00154052
-1.55486e-10
-2.71557e-05
3.93743e-08
-7.0212e-10
-2.5756e-11
-4.91624e-10
-9.09779e-09
1.15718e-09
9.63339e-11
0.000137921
-0.000477361
-3.3313e-10
-4.6942e-05
4.69683e-12
-4.07574e-11
-5.14421e-11
1.7587e-11
-1.82002e-10
-1.94065e-09
1.3438e-10
-1.07e-09
-2.32897e-11
-4.24628e-10
2.95104e-10
3.04795e-11
0.0018435
-1.33145e-08
7.35604e-12
-4.01213e-11
-3.35023e-05
-0.00029983
-9.51488e-11
1.03338e-05
-4.42511e-05
-1.44923e-10
-7.3235e-12
-0.00169402
2.21633e-05
-2.0926e-08
3.38482e-08
1.17299e-05
7.3251e-11
-5.79937e-05
0.00124165
-0.000160103
-3.4931e-10
-9.26541e-10
-4.41866e-06
-9.94394e-09
-2.88075e-10
1.45612e-08
2.71026e-08
-3.30835e-07
-8.39101e-12
3.0594e-10
-5.17547e-10
8.79594e-12
-4.00324e-11
-3.50558e-05
-6.15313e-07
2.91606e-11
-6.81637e-11
0.000493554
7.42481e-12
0.000424847
-5.45765e-11
-5.93697e-10
-3.89563e-05
-6.04502e-10
-5.69523e-10
3.2585e-10
-6.62114e-11
-7.11063e-11
8.44447e-12
-0.00556352
-8.03788e-12
1.94066e-11
1.76531e-11
-6.10249e-11
-0.000795436
-7.17248e-10
-8.34932e-10
-7.55601e-11
-1.16758e-08
2.01201e-08
2.55545e-10
-6.41524e-05
1.18251e-06
8.29742e-12
-4.19478e-11
-1.06077e-09
1.30427e-09
-4.41588e-11
-4.39742e-11
5.06604e-10
-4.23344e-08
-5.64127e-10
-7.49352e-10
-6.45832e-09
-4.84579e-09
9.66768e-11
-2.70285e-10
0.000603577
-3.18503e-05
6.7954e-08
-5.34511e-10
-2.58818e-07
-2.22956e-10
4.44717e-12
-0.000362026
-0.000502193
-1.28126e-10
-3.39759e-11
1.89008e-07
-7.3831e-05
4.55276e-11
-1.53004e-10
0.000842341
-3.73338e-05
-3.30689e-09
-9.20338e-11
-3.48206e-09
-2.80452e-05
2.45742e-12
-3.5338e-13
-1.03294e-06
0.000150654
0.00113363
2.00727e-09
2.3511e-08
-2.86153e-10
-5.68216e-13
-6.25219e-11
-2.74479e-09
-2.73035e-06
-3.78213e-11
-0.000437667
-3.71031e-10
-7.99235e-06
-0.00154396
-6.7058e-11
4.16027e-07
-2.37077e-10
6.96397e-11
-6.02699e-11
1.21111e-09
-2.22952e-12
-3.50057e-11
-4.27391e-10
1.13014e-05
-2.85154e-10
-0.000310988
3.39084e-13
9.26564e-11
-8.20571e-10
-8.42524e-09
-5.95917e-10
8.11541e-05
1.18055e-09
-2.72213e-08
-2.886e-10
-2.12259e-05
-5.03052e-05
3.03558e-07
2.27843e-08
-2.03711e-07
-1.44555e-12
-0.000230869
-4.37551e-10
7.446e-11
-2.46798e-08
-0.000142959
-0.00562698
-2.16643e-10
-7.56878e-10
-1.43719e-06
-3.16366e-12
1.96147e-07
-1.95236e-10
-0.000200566
-4.2727e-11
-7.28957e-09
-5.2508e-10
-9.79845e-06
-1.28503e-12
-2.63666e-10
-7.31055e-09
5.67713e-10
2.24538e-08
0.000422129
-1.81475e-11
-4.04483e-10
-4.86863e-11
-2.5649e-09
2.5269e-09
-3.34106e-09
-5.05571e-10
1.63185e-08
-3.15297e-10
2.04598e-05
-2.64576e-10
7.11267e-10
-4.01434e-10
-5.36606e-10
-0.00518951
-5.74563e-10
4.91206e-11
-4.92691e-05
-0.000310452
9.17842e-06
0.00172291
0.000706752
8.69436e-10
-1.57525e-11
8.4319e-12
-3.78772e-10
1.84357e-11
-3.25105e-07
0.00100395
1.79553e-08
-2.61584e-11
-1.85069e-10
0.000405749
-0.000182583
-3.07182e-11
-1.08992e-09
-0.000101688
1.42094e-07
1.0666e-09
-7.04241e-10
-2.4197e-10
1.00085e-09
-3.31568e-10
-0.000160981
-4.86082e-11
-0.000450352
-1.77233e-11
-2.52545e-10
0.00178835
0.000198336
-3.74134e-10
5.99653e-11
-2.02236e-10
3.5028e-09
5.51202e-09
8.66303e-08
-1.79436e-10
-2.27867e-10
1.59332e-11
0.00136853
2.89879e-10
-3.45816e-10
7.3745e-07
-3.30145e-10
-1.07872e-10
-5.81292e-11
-1.3054e-09
-4.00611e-07
-4.06641e-11
-3.15335e-09
-5.29252e-10
-9.46326e-13
1.15439e-11
-3.36074e-11
-2.74747e-11
1.20606e-11
6.80936e-09
-3.80549e-11
-1.58925e-05
-1.24919e-09
-8.02991e-10
4.29483e-10
-1.33686e-09
2.08587e-11
0.000832183
-2.20902e-10
0.000667256
-2.14198e-11
-7.27701e-11
-8.78422e-09
3.97708e-10
0.000485826
-9.99035e-11
-1.09033e-08
0.000451597
-5.13627e-05
-5.73283e-10
2.03355e-10
4.47625e-11
-0.00104348
-6.46109e-07
-1.34173e-10
-8.07851e-11
2.63738e-10
-0.00220544
-2.00321e-09
2.13528e-05
-0.00016035
-5.54933e-11
3.73483e-11
-1.23919e-11
-0.00145605
7.53578e-09
1.6418e-08
-6.21385e-09
2.86697e-09
-5.88118e-05
-1.37812e-10
-7.9696e-08
0.000520953
-0.000221771
2.85857e-11
5.14423e-12
-5.47541e-06
0.001276
1.93541e-08
-3.58673e-08
-1.79375e-10
-9.70061e-09
-1.1522e-10
-7.40002e-11
-5.06356e-10
0.00229827
-2.4639e-11
7.00081e-11
-1.4546e-11
-2.52625e-11
-4.32734e-05
5.62472e-11
-4.39379e-08
-6.46608e-11
-3.31102e-10
3.10291e-06
3.3596e-09
-8.91849e-11
3.27922e-09
-2.4251e-10
-7.25394e-10
-3.88599e-10
0.000866239
8.97224e-09
-3.69404e-10
3.84908e-09
5.25273e-08
2.79693e-12
-2.31428e-10
-0.000313778
2.04286e-06
5.60657e-09
-2.83053e-10
-1.29636e-09
-1.69483e-10
-5.57727e-10
4.0155e-11
2.28672e-11
-1.27428e-11
-1.86215e-10
-1.0033e-10
-6.36996e-10
8.19449e-07
0.00506251
1.59088e-12
-1.78492e-05
-2.25278e-10
8.96819e-10
-3.69039e-09
-2.568e-11
1.49279e-09
-1.83055e-10
0.000241535
-8.35397e-09
-2.34084e-10
-1.58357e-05
-3.84008e-09
-6.23162e-09
-3.12036e-10
0.000565417
5.91673e-11
-2.70458e-13
-3.01271e-09
-2.94068e-08
6.80227e-11
-2.41025e-10
-8.72009e-06
-5.61048e-10
-3.73771e-11
-5.20527e-11
-3.24958e-10
1.23321e-09
2.96786e-10
-1.44596e-10
-0.00171227
2.72934e-10
1.48047e-09
6.3522e-11
-4.65992e-10
4.1352e-11
1.94427e-10
-5.35994e-10
-4.75481e-10
-4.06384e-11
-4.05909e-08
0.00211023
-3.43751e-05
-9.18634e-10
6.55772e-10
5.4724e-09
-0.00218543
-4.78073e-10
1.91083e-09
3.67144e-09
-2.06127e-08
-6.37274e-12
-0.000179582
-1.04181e-11
-0.000487499
-0.000338021
-5.68475e-06
0.00172912
0.000481784
1.07817e-08
1.23588e-08
5.19858e-11
-4.76551e-10
-2.30558e-10
1.5398e-08
7.48329e-08
-6.59289e-06
-3.64636e-06
-3.47721e-11
8.89975e-11
-6.5857e-11
-2.14322e-06
2.31815e-11
-4.00669e-10
-0.000349195
-1.09094e-06
-0.000356893
-3.51029e-11
-5.53237e-11
-0.00198674
0.001767
-1.7493e-09
-6.60604e-11
-1.86257e-05
-6.41333e-08
-2.98862e-08
-9.49315e-11
-9.76285e-11
-2.03545e-10
-1.12423e-10
-3.87445e-12
0.00139576
-5.35834e-10
-3.47805e-11
0.000544001
3.59994e-11
-2.43361e-10
-1.77709e-09
-3.74381e-10
1.56987e-11
-1.27395e-06
7.1074e-10
7.45605e-10
-1.38257e-11
-5.12005e-05
-1.32566e-10
-3.33528e-10
2.52671e-10
-2.46944e-08
-3.79296e-07
-5.51001e-10
8.09664e-11
-2.31495e-11
-1.66274e-07
9.89429e-05
-4.70869e-11
-1.93524e-11
1.34487e-12
-0.000102221
8.77799e-11
-3.6965e-10
-4.00984e-10
-4.67766e-09
-5.70139e-10
4.35171e-11
2.59312e-10
-0.000316045
-4.35271e-05
-8.06767e-06
-2.38477e-10
-4.82048e-05
2.22611e-10
0.000222457
8.42604e-09
-1.27216e-10
-6.11797e-09
-5.39071e-10
-6.8795e-10
0.000121023
-1.71567e-10
-2.61176e-09
-7.46995e-11
-7.24209e-10
-0.00189738
-6.7229e-10
-1.58722e-08
-5.89482e-10
2.25233e-08
6.18827e-12
-5.2043e-07
-3.73297e-10
-1.98175e-09
-1.68925e-08
-1.80655e-06
-1.47496e-05
0.000382872
-8.56713e-11
-0.000329337
-3.46036e-09
-2.01698e-11
-3.71888e-11
-1.38972e-05
-1.58227e-10
0.00210637
-1.86561e-05
5.80256e-10
0.000479586
2.20313e-10
-1.07801e-09
-4.64496e-10
-3.68677e-08
-4.13603e-09
1.73697e-11
-2.34668e-10
-6.09588e-09
-8.89677e-11
-1.64643e-10
-4.67368e-10
-9.63356e-09
-1.82721e-10
-0.00771886
-0.000104138
5.40349e-11
-8.72732e-05
-5.09028e-06
0.000669031
7.97153e-12
-1.58711e-10
-1.02604e-11
-1.59664e-09
-1.05558e-11
-2.22908e-09
-3.84525e-10
-2.97946e-09
4.06674e-11
-4.257e-11
5.32713e-12
7.9063e-10
-5.47114e-11
-2.1163e-10
-2.62565e-11
7.31462e-11
-1.89176e-08
-8.65486e-10
-2.2082e-10
-3.96587e-05
-2.00221e-09
-5.93729e-10
-4.54005e-05
-7.34986e-10
-4.99016e-05
-0.000747529
-0.000147305
-9.07226e-11
-1.24098e-10
-1.05551e-10
1.98021e-10
-3.69621e-11
6.66239e-10
-6.8455e-11
-3.90663e-10
0.000583713
-3.44857e-10
4.87728e-11
-0.000227868
-0.000130354
-3.44033e-10
3.98114e-08
5.82465e-09
-4.86219e-10
2.35427e-08
-2.57551e-07
-5.72904e-10
-3.72749e-10
1.17627e-09
1.68956e-10
3.31088e-10
-3.42396e-05
-1.98603e-10
3.29742e-12
-3.69222e-11
9.61026e-11
0.00114365
-4.60282e-10
-1.43675e-11
-4.32281e-10
-8.0907e-05
-3.63283e-11
-1.78508e-10
0.0014425
-1.8084e-11
-4.38676e-10
-0.000142982
8.04952e-09
-0.000435
4.12278e-12
1.95397e-10
-3.70014e-11
1.06754e-07
0.00453621
8.12996e-10
2.84125e-10
-1.23193e-10
-4.65367e-09
-0.00251013
-1.90198e-10
-2.2356e-10
1.048e-07
-0.000104376
-6.83348e-11
-4.39501e-08
-1.11938e-10
6.23021e-09
-1.0565e-10
6.72536e-05
0.00128243
-1.56558e-10
-1.45116e-05
9.62912e-06
-3.43763e-10
-1.99948e-05
-1.30744e-10
0.000992068
-0.00162188
-1.47629e-09
-3.7281e-11
-1.17468e-05
-8.82681e-05
-9.36335e-11
-0.000871233
-2.41841e-06
1.04089e-05
3.79959e-10
-2.56056e-11
-2.22702e-10
-6.38598e-06
-1.5935e-08
-1.25973e-09
-7.42131e-10
-0.00209709
-1.72205e-09
0.000651299
-3.06533e-10
-4.3839e-10
-3.36053e-11
1.7343e-05
6.55109e-05
-6.05227e-11
-1.9526e-10
-6.37795e-06
5.43603e-10
1.70571e-09
-9.36259e-11
3.21935e-10
-4.17526e-05
-3.58208e-10
2.991e-11
3.35983e-12
-4.73816e-11
-4.11493e-10
1.22263e-06
-3.44858e-08
-8.02347e-11
6.11666e-11
-4.0375e-11
-2.91992e-10
-9.2911e-10
-6.23729e-11
-5.04937e-10
-1.29098e-10
-4.98052e-12
-0.000194263
-2.55891e-07
-3.23422e-10
-5.13912e-11
-6.04154e-08
-5.15179e-10
-1.57667e-05
3.7295e-09
8.70311e-09
2.04498e-09
-1.00888e-10
-1.13616e-11
1.38565e-12
4.07298e-10
-1.1838e-10
5.45654e-05
-0.000188728
-1.55241e-11
6.83401e-11
-8.19654e-11
-3.52328e-10
-3.6966e-11
-1.14624e-10
-2.95613e-07
-3.99832e-05
-7.47011e-11
-7.80177e-05
2.74642e-11
5.76301e-09
-5.62882e-08
-1.35949e-10
5.11279e-11
-3.62716e-10
-5.48585e-10
-3.17451e-11
-5.05157e-08
-3.59176e-10
-5.24989e-05
6.61202e-10
-2.58786e-10
-0.000362407
4.78365e-10
-0.00029572
0.000195109
2.2123e-06
-1.21542e-10
-9.9586e-12
-1.39364e-10
0.00034151
1.26581e-10
-1.69737e-06
-0.00133995
5.50923e-08
-8.82268e-06
7.24863e-11
-1.71832e-09
-3.59217e-11
-4.34759e-10
-8.40404e-11
1.79413e-08
-4.11537e-10
-2.50001e-09
-4.90658e-10
-7.63085e-10
0.00116461
3.37051e-11
-2.83411e-11
-6.64772e-11
8.70653e-11
-1.45008e-05
-0.000199281
-6.52182e-11
-3.77913e-10
9.85084e-09
5.27459e-07
-5.87444e-11
-0.000374863
3.95739e-11
2.53908e-09
4.10799e-10
-6.27511e-05
1.19965e-10
2.08854e-11
6.51656e-08
-2.4017e-11
-7.11128e-05
-4.73128e-11
-7.06195e-10
-4.20811e-10
-2.02725e-13
-2.35341e-10
9.45187e-10
-5.47485e-08
2.05614e-08
1.30441e-07
1.81974e-08
6.03645e-12
-1.8e-10
-7.03092e-09
-5.59577e-10
3.11623e-09
-9.4848e-10
-0.000216396
0.000267224
6.69788e-10
-6.45941e-05
6.21841e-06
2.73326e-10
-6.98034e-09
-7.04792e-10
-7.17968e-11
0.000470695
-5.7325e-09
-4.27151e-10
3.3185e-07
9.57036e-11
-3.81175e-05
-2.88716e-08
-2.25582e-11
-5.58206e-09
1.13176e-09
0.000566659
5.83533e-11
-1.08045e-05
-2.55956e-08
0.00297865
-2.7679e-05
1.26217e-10
-0.000218444
3.29322e-09
-5.16741e-05
-1.94297e-10
-3.16168e-05
-0.00167082
-5.25443e-11
-5.44491e-10
-3.8377e-10
-7.77993e-05
-6.15238e-09
-3.56446e-10
-1.11756e-09
-7.46092e-07
-3.29755e-08
1.22359e-09
-5.31652e-10
-6.80528e-10
0.000158489
7.41182e-08
-1.04603e-10
1.4236e-05
-1.86091e-08
-1.67346e-06
-3.64764e-07
1.43354e-10
-3.01738e-08
-5.85872e-10
-1.47021e-09
-7.47517e-06
-5.05523e-11
6.23399e-11
-8.51986e-10
-3.37979e-09
-6.88025e-11
-1.40477e-09
-3.73629e-10
-3.70163e-10
-2.76976e-12
-2.27555e-11
-2.4601e-07
1.42673e-10
-3.56103e-11
-1.14941e-05
2.74137e-10
-1.79786e-10
-7.92033e-11
-1.47927e-07
-3.50001e-10
-4.72389e-11
-9.10983e-05
-3.88853e-07
4.74838e-07
4.12735e-06
-5.5336e-10
-1.73033e-10
1.47612e-05
-2.24835e-10
-2.60813e-09
-1.84853e-06
-5.53802e-11
-1.16386e-10
-5.11393e-10
6.26335e-09
-6.78833e-09
-4.86586e-10
4.02076e-08
-1.16095e-09
-2.31172e-10
-4.53442e-11
1.74196e-07
1.00014e-09
-4.03711e-10
-0.000488286
8.73659e-10
-3.1034e-07
-1.1384e-10
2.2029e-08
-4.26567e-06
7.16128e-05
2.05455e-11
6.85298e-12
-4.85721e-09
-2.08044e-10
-4.58576e-10
0.000364593
2.39213e-10
-5.76139e-09
-4.1053e-10
-3.6073e-11
-4.87257e-07
3.35086e-10
-6.96372e-10
0.000576371
-2.76646e-10
9.7766e-10
4.95496e-09
-4.02634e-05
0.00059326
-3.34649e-11
6.45624e-11
-1.27364e-10
-2.32177e-11
-2.12068e-09
-3.63544e-08
-0.000199948
-9.90032e-10
-3.76338e-10
7.76093e-09
-3.14665e-10
6.80155e-12
-1.60079e-06
0.000733818
-4.27789e-05
1.02004e-10
-1.92857e-11
-3.00997e-10
3.98999e-11
-1.35699e-09
3.21971e-08
-3.6217e-07
8.96207e-10
5.59983e-06
-2.03274e-05
1.33388e-09
-0.0064097
-1.42132e-10
-1.20479e-11
-8.47817e-11
-2.09075e-06
1.63854e-10
-4.78732e-10
-0.000303831
2.06622e-07
-2.27849e-08
-3.10232e-10
9.54646e-08
-4.2838e-10
4.33826e-05
-3.86825e-10
-6.66173e-10
0.000608578
9.88965e-11
-2.2804e-07
4.8854e-10
2.27904e-13
-0.000264498
6.85936e-08
-9.48511e-06
-5.01481e-06
-5.10403e-10
-4.88643e-10
-3.6994e-09
-4.13755e-10
-5.164e-10
-0.000116914
7.75475e-09
-3.46692e-10
-2.97822e-10
4.55807e-11
1.29778e-10
-4.19075e-08
-4.50164e-08
-6.39826e-11
1.5207e-10
-2.26376e-09
2.91486e-11
9.13051e-08
-1.06797e-11
1.06279e-07
-6.11543e-05
-2.94418e-10
-2.15863e-08
-1.21433e-12
-4.88347e-07
-0.000120012
-5.64555e-08
0.000432785
-6.85254e-07
-1.05758e-10
0.000906534
-4.38937e-10
0.00303264
3.57486e-08
-1.22914e-11
-3.25204e-11
5.4944e-09
-0.000162733
8.8866e-12
8.86049e-11
-1.50445e-12
-1.17089e-10
-5.0522e-10
-7.09361e-11
-7.30754e-11
-1.46234e-09
6.53831e-11
-0.0008791
-0.000376045
3.51216e-06
-5.77299e-09
0.00010456
7.42113e-06
-8.59298e-05
1.05952e-09
0.000585733
3.7954e-08
-7.36552e-06
-1.97291e-12
8.00796e-10
-5.3743e-07
2.11278e-09
-0.000153791
-2.72712e-10
-0.00148474
-5.48523e-10
1.01788e-09
-6.2581e-10
2.84236e-11
-5.27539e-10
1.22984e-09
1.50737e-09
-8.47246e-05
-2.47443e-11
-5.6989e-10
-1.52907e-09
-2.57038e-10
3.85367e-08
-2.91515e-06
-6.06368e-08
8.16455e-06
-7.07731e-09
-2.28155e-11
-0.000532679
6.60236e-06
-0.000171489
6.18097e-11
1.48278e-09
-1.93097e-10
-3.72094e-12
2.99967e-10
-4.20151e-10
-4.36144e-07
-4.7771e-11
-5.48213e-11
-0.000260873
1.30626e-10
7.59316e-10
-4.78206e-09
-5.34454e-10
-1.94392e-10
-4.44521e-06
-4.67666e-11
1.12318e-10
-1.28648e-09
2.21944e-10
2.88802e-08
0.000695647
0.00105745
2.6887e-09
1.83441e-08
-1.46315e-05
-0.00116638
-1.54306e-10
0.00149312
-2.41609e-05
2.02626e-12
-5.80372e-08
-1.86468e-08
0.000455619
1.78649e-09
-3.53944e-10
-0.000169655
-1.00922e-05
2.15939e-10
-1.09615e-05
-2.16684e-10
-3.41874e-10
1.35563e-05
-3.27906e-10
0.000129574
-5.90028e-10
-2.68295e-07
-8.017e-10
-5.13928e-12
-1.06317e-11
-1.90998e-08
1.06878e-09
-2.61765e-05
-1.17871e-09
0.00271727
1.01157e-08
-6.53578e-05
-2.04659e-06
-1.67858e-09
-4.96126e-11
-0.000822885
-1.10457e-09
8.5596e-06
6.97679e-11
-6.15738e-06
1.32313e-08
1.01373e-05
-2.61021e-08
2.57414e-05
-2.39761e-10
-3.76475e-05
-4.80288e-07
-7.01277e-09
5.75596e-08
-4.48121e-10
-6.72372e-08
0.00312129
7.39645e-11
-1.10325e-10
-1.0388e-10
-3.20394e-11
8.05785e-09
0.000269068
-2.0193e-13
5.75651e-08
-2.52147e-10
-2.43235e-05
-2.82211e-11
2.02002e-13
-3.04408e-09
-3.40192e-09
-0.00018723
-1.08913e-06
-2.50507e-05
4.82045e-11
-2.22807e-10
-1.55944e-05
-2.93659e-10
-3.73678e-10
-9.45548e-10
1.1215e-08
-1.40903e-11
-5.7537e-10
1.52438e-10
1.90459e-10
1.62453e-09
0.000422774
-9.23776e-07
-7.54343e-11
0.000524809
5.05425e-13
-1.60803e-10
-4.87745e-10
-1.42916e-09
-7.70537e-05
-2.18521e-10
-0.00314871
1.96254e-10
4.9545e-08
-6.57006e-10
-1.18964e-10
-3.46549e-10
-3.65426e-06
-2.6994e-11
-6.60401e-09
3.13174e-10
-6.09791e-12
-1.05238e-09
5.25987e-11
-6.40373e-05
5.84204e-09
0.000149185
-0.000149045
4.69852e-10
5.53171e-05
7.92061e-09
-2.29485e-10
-2.82129e-10
-7.23293e-10
0.000136113
2.37122e-11
-1.44005e-09
-3.822e-10
-3.74228e-10
1.28803e-10
4.22434e-06
3.64477e-09
-5.68057e-10
-4.3525e-10
3.85023e-10
-3.82827e-10
-3.48325e-10
1.20192e-10
9.74835e-11
9.28023e-11
3.9894e-11
4.91712e-09
-1.89137e-10
0.000273498
-4.61294e-12
-1.1781e-06
-6.49954e-12
1.28949e-10
-1.32642e-10
-1.63274e-09
-5.52764e-10
-1.33515e-08
-0.000224592
3.79633e-10
-8.38557e-11
8.03348e-09
-0.000192674
1.13163e-06
-4.22406e-10
-2.14754e-08
2.2191e-10
-1.49107e-05
0.000740146
2.11223e-05
5.27203e-10
-4.39575e-05
-1.27486e-09
-1.19694e-11
-2.60269e-08
7.28535e-10
0.000467487
-6.36944e-11
-9.58394e-10
-2.34154e-10
-2.67768e-11
-0.000306494
-0.000110426
-4.40245e-10
1.68809e-10
-7.60271e-07
2.62494e-05
0.0005529
3.91795e-12
9.04238e-08
-6.93319e-10
-0.000332487
-5.53192e-10
-1.69478e-05
-3.32158e-08
1.64716e-12
-2.16755e-10
8.0102e-09
0.00382645
-4.92702e-11
7.24478e-09
0.00257874
-7.16135e-10
9.23545e-11
8.92065e-09
-2.63943e-10
-5.27447e-10
-3.86177e-05
8.58151e-12
4.10752e-10
8.6245e-11
1.16949e-10
6.57231e-07
3.00027e-09
2.31084e-06
0.000714322
6.91926e-12
-0.00520325
5.79118e-11
0.00130666
-4.56162e-10
-1.04788e-10
-2.86128e-10
0.000377028
-1.03312e-10
-4.92554e-10
2.72513e-10
0.000788469
-3.02848e-10
-4.81968e-10
-5.88477e-09
-1.22843e-10
2.27424e-10
1.24289e-10
-3.55348e-10
-0.000208351
1.68604e-10
-8.78128e-09
-0.000227029
6.206e-11
0.000620549
-2.44378e-11
8.25618e-11
1.38689e-05
1.06332e-08
7.00161e-09
-1.20001e-11
-1.23537e-09
3.02042e-12
-2.30207e-09
-0.000215667
-2.51282e-10
1.07206e-09
2.36234e-12
0.00012615
-6.41575e-10
-6.62886e-10
4.60522e-11
-3.0815e-09
1.00164e-10
7.80755e-09
1.16055e-10
4.20364e-06
-1.88176e-11
8.55694e-05
-3.98915e-08
-1.77718e-09
-4.09458e-11
3.53838e-06
-1.44723e-10
-1.76039e-06
-2.29306e-10
2.11817e-11
9.84857e-10
0.000264155
-6.78055e-05
-0.000146328
1.06269e-10
4.54339e-12
-6.2978e-09
-5.3316e-06
-1.72362e-09
-1.70807e-07
-6.90634e-11
-3.78382e-08
-1.69887e-08
9.68695e-07
-3.69349e-09
3.28487e-10
0.000301926
-3.71312e-11
-0.000190567
-4.58167e-08
-7.89056e-11
-3.92288e-10
2.51112e-10
6.43517e-09
-0.000171963
-4.16519e-10
6.33382e-08
6.13994e-10
-0.000351045
5.63444e-05
-2.8972e-10
-2.40254e-10
-0.00278903
1.04793e-10
-3.1184e-10
2.19273e-07
-0.000139707
-9.45687e-09
-8.80218e-05
-1.20342e-10
-1.23661e-10
6.78475e-06
7.52481e-08
1.38212e-08
1.13154e-11
2.98116e-11
2.78194e-07
-2.50678e-10
8.86242e-11
-9.98594e-11
3.54077e-11
-8.98544e-09
-5.7684e-10
-1.20548e-06
-1.01781e-10
8.02753e-05
-1.28181e-08
-2.59874e-10
-1.30996e-09
-8.38889e-05
-3.27617e-08
1.59967e-09
-1.56885e-09
-2.60619e-10
-4.00417e-11
-1.74705e-09
5.40544e-10
-0.000108537
-2.94526e-05
2.59183e-12
2.09797e-05
3.58814e-10
-2.6911e-08
3.56441e-05
-1.57256e-05
-2.53203e-09
-3.21869e-09
0.000574704
1.22643e-06
0.00147479
-3.88325e-10
2.4737e-10
-1.95494e-06
5.31489e-11
1.23094e-09
-6.34465e-10
-6.31681e-05
1.14163e-06
-0.000114316
-6.62444e-11
-4.34092e-10
-1.06664e-09
-5.7598e-06
2.05198e-11
-3.29886e-11
0.00018942
-2.37854e-05
1.60055e-11
-5.21472e-11
3.90003e-11
2.65064e-08
-4.80197e-10
-1.8908e-06
-1.08527e-10
1.13319e-05
-5.03483e-10
-0.000351516
3.67152e-12
1.21014e-07
-4.4163e-10
-1.79658e-12
4.89748e-09
1.03878e-10
2.39809e-08
-2.90336e-10
-1.07706e-08
7.73277e-05
-0.000322495
-1.33486e-05
2.08942e-11
0.00247303
-1.54415e-09
0.00108018
-1.03534e-08
-3.69303e-08
-3.52214e-10
-8.28952e-07
0.0011746
1.39074e-08
9.27947e-12
-2.0298e-05
-0.000235903
-3.31078e-11
-4.58354e-11
-1.96716e-10
-4.97176e-10
-2.70695e-06
-3.6055e-10
3.56446e-11
-5.50337e-10
2.92479e-08
-3.49785e-10
-9.20738e-13
6.2705e-10
-4.50155e-10
-5.55289e-13
-1.28038e-07
3.64937e-11
-5.40282e-11