/*--------------------------------*- C++ -*----------------------------------*\
| =========                 |                                                 |
| \\      /  F ield         | OpenFOAM: The Open Source CFD Toolbox           |
|  \\    /   O peration     | Version:  v2012                                 |
|   \\  /    A nd           | Website:  www.openfoam.com                      |
|    \\/     M anipulation  |                                                 |
\*---------------------------------------------------------------------------*/
FoamFile
{
    version     2.0;
    format      ascii;
    class       surfaceScalarField;
    location    "450";
    object      phi;
}
// * * * * * * * * * * * * * * * * * * * * * * * * * * * * * * * * * * * * * //

dimensions      [0 3 -1 0 0 0 0];
oriented        oriented;


internalField   nonuniform List<scalar> 
27740
(
0.00737499
-0.00458692
-0.00278807
0.184695
-0.214109
0.0294142
-0.0902379
-0.163422
0.25366
0.00883061
-0.0105548
0.00172419
0.0228476
-0.0375901
0.0147426
0.123196
-0.238384
0.115188
-0.00829826
-0.00521811
0.0135164
-0.135189
0.143119
-0.0079308
0.043946
-0.178796
0.13485
-0.166033
0.184889
-0.0188555
0.00301827
0.105845
-0.108863
-1.86936e-05
0.0140263
-0.0140076
-0.0222273
0.123628
-0.1014
-0.270136
0.179898
-0.338956
0.234746
0.10421
0.216515
-0.160998
-0.0555171
0.317796
-0.491149
0.173353
0.0539225
0.162593
0.124927
-0.0652101
-0.0597173
-0.000731936
0.00410536
-0.00337343
-0.00181859
0.00381997
-0.00200138
-0.0921277
0.249293
-0.157166
0.0211851
-0.00939829
-0.0117868
-0.119937
-0.0122192
0.132156
0.163138
-0.385884
0.222746
-0.0072579
0.00652596
-0.119476
-0.148203
0.267679
0.0137067
-0.0137254
0.0268
0.107717
-0.134517
0.5566
-0.342226
-0.214374
-0.153776
0.304259
-0.150484
-0.109977
0.09996
0.0100171
-0.216959
0.437827
-0.220868
0.10365
-0.188836
0.0851858
0.24097
-0.0783668
-0.162603
-0.0133687
0.000116924
0.0132518
0.12389
-0.105733
-0.0181569
0.206162
0.0377003
-0.243862
0.214679
-0.449246
0.234567
-0.000671952
-0.134517
0.187861
-0.143915
0.00981556
-0.129752
0.130868
0.0346398
-0.165508
-0.0160342
0.0163338
-0.000299595
0.198278
-0.0135827
0.366275
0.190325
-0.00273351
0.0103476
-0.00761412
-0.000720195
0.0095508
-0.0985037
0.0535421
0.0449616
-0.239962
0.413404
-0.173442
0.02429
0.00913748
-0.0334275
-0.00153177
0.155055
-0.153523
0.0287426
-0.0208915
-0.00785106
0.0444875
0.0056712
-0.0501587
-0.473961
0.257003
-0.0276741
-0.0708296
-0.0128648
0.0119901
0.000874711
-0.0541618
-0.0916382
0.1458
-0.00627524
0.00548085
0.000794395
0.0457362
-0.21177
0.00363825
0.00373674
-0.201725
-0.170421
0.372146
0.166171
-0.0353033
0.000933071
-0.00939252
0.00845945
0.323844
-0.117683
0.0100748
-0.00914176
-0.350478
0.216089
0.134389
-0.012143
0.0117326
0.000410403
0.00664981
-0.00936553
0.00271573
0.0142204
-0.11911
0.104889
-0.017227
0.0167944
0.000432602
-0.241159
-0.0785673
0.319727
0.0415918
0.0453474
-0.0869391
-0.0796272
0.213489
-0.133861
0.187086
-0.0513395
-0.135747
0.00283577
-0.00465437
0.0987151
-0.00737263
-0.0913425
-0.177411
0.00846464
0.168946
-0.24255
0.162923
-0.0108369
0.070624
-0.0597871
0.443911
-0.126115
-0.0110961
0.00836264
-0.0106431
0.0131749
-0.00253172
0.0153657
0.0133769
-0.106858
0.0613369
0.0455206
0.400738
-0.186058
-0.128602
0.00979109
0.118811
0.181433
-0.182965
0.0177785
0.132216
-0.149995
0.121174
0.105304
-0.226478
0.154009
-0.209634
0.0556254
-0.0969971
0.22267
-0.125673
-0.320981
0.220637
0.100344
-0.0112676
0.0164481
-0.0051805
-0.271521
0.179394
-0.105593
0.108611
-0.209496
0.125243
0.084253
0.0542571
0.0224489
-0.076706
-0.00944099
0.00810365
0.00133734
0.162928
-0.282404
0.0146644
0.00652076
0.120733
-0.103444
-0.0172887
0.469292
-0.201041
-0.268251
0.0328145
-0.00852448
-0.0094249
-1.60861e-05
0.16775
-0.0126954
0.38505
-0.450457
0.0654078
-0.191929
-0.0714545
0.263384
0.0912646
0.0294682
0.000855671
0.182154
-0.18301
-0.0126001
-0.000768617
-0.0737692
0.0261188
0.0476505
-0.230841
-0.0901397
0.147506
0.0106134
-0.158119
-0.174872
0.10107
0.0738013
-0.092999
0.270665
-0.177666
-0.273755
-0.200206
-0.00314475
-0.0021238
0.00526855
-0.0189505
0.00291631
-0.233532
-0.115046
0.348577
-0.00530486
-0.000970382
-0.280466
0.231343
0.0491234
-0.0683854
-0.401398
0.160239
-0.0112391
0.0125353
-0.0012962
0.369996
-0.206858
0.182567
0.293624
0.00385245
-0.00444943
0.000596986
-0.184023
-0.0964429
0.000160141
-0.00330489
-0.123799
-0.138604
0.262402
-0.012425
0.00178186
-0.235087
-0.100674
0.33576
0.00622059
-0.000739743
0.114322
0.00956789
-0.211189
0.43405
-0.222861
0.0162768
-0.00231947
-0.0139573
-0.011597
-0.00126782
0.203384
-0.0493751
-0.163983
-0.0134284
0.0056444
0.0353673
-0.0410117
0.115194
-0.275372
0.160178
0.429484
-0.31351
-0.115974
-0.458077
0.334127
0.12395
-0.383153
0.405896
-0.0227433
0.00388374
-0.0158405
0.0119568
0.11219
0.317294
-0.427178
0.28159
0.145588
-0.0181543
-0.00139698
0.0195513
-0.0027751
0.0258534
0.0942101
-0.120063
-0.256141
0.506979
-0.250839
-0.00031136
-0.0124872
0.0127985
-0.388279
0.250474
0.137805
0.317241
-0.250343
-0.0668978
-0.301046
-0.157031
-0.0521428
0.0304489
0.0216939
-0.0731975
0.0623606
-0.548056
0.327526
0.22053
-0.275076
0.031188
0.243888
-0.138475
-0.22033
0.358805
-0.126828
0.0705956
0.0562323
-0.00685303
0.00154817
-0.178157
-0.210122
0.00335761
-0.0145967
-0.0748109
-0.100061
0.303043
0.082007
-0.376387
0.304534
0.071853
0.236953
0.0802875
-0.293231
0.200232
-0.258552
0.134753
0.0213309
-0.0253261
0.00399515
-0.177744
0.123582
-0.00840218
0.0312498
0.284722
-0.166193
-0.118529
-0.0140353
-0.049883
0.0639183
-0.000135979
-0.0180184
-0.159768
0.192954
-0.033186
-0.235448
-0.312608
0.108544
-0.0943231
-0.00405687
0.113555
-0.109499
-0.386896
0.437226
-0.0503303
-0.140855
-0.256892
0.397747
-0.0100761
0.214971
-0.0517085
-0.163263
0.122081
-0.179966
0.057885
0.0584913
-0.441644
-0.147946
0.26314
0.194722
-0.0350118
-0.15971
0.0333605
0.0689988
-0.102359
-0.0617068
0.0570177
0.00468907
0.301125
-0.152339
-0.148785
0.000256528
-0.00575693
0.0055004
0.262594
0.0658563
-0.32845
-0.454845
0.24013
0.214715
-0.142873
0.429679
-0.286805
-0.010556
-0.118046
-0.00475755
-0.0752296
0.0799871
0.0528568
0.134229
0.284772
-0.425627
-0.216999
-0.210179
0.0490793
-0.161172
0.112092
-0.00950425
-0.00263875
0.134911
-0.0392652
-0.0956459
-0.13184
0.149619
-0.035178
0.0766721
-0.0414941
-0.0985022
-0.0159127
0.114415
0.00609567
0.00425196
0.116669
-0.308599
-0.0103502
-0.000301592
0.0106518
-0.29336
0.211339
0.0820206
-0.211777
0.199321
0.0124558
0.280168
-0.184627
-0.095541
0.00569683
-0.0054403
0.0121437
0.000554559
-0.0126983
0.210133
-0.375773
0.16564
-0.0614399
0.101777
-0.0403371
-0.323426
0.167813
0.155613
0.0107671
0.00176823
-0.2761
0.217021
0.0590794
-0.0293822
-0.125372
0.154754
-0.109708
0.294658
-0.18495
0.0436975
-0.0194789
-0.0242187
0.0246883
-0.00335742
-0.00405766
0.00170302
0.00235464
0.000678447
0.00653338
-0.00721183
-0.0882594
0.298392
-0.171412
-0.104688
-0.0245086
0.0117664
0.0127422
0.0714668
-0.085502
-0.181368
0.192782
-0.0114147
0.19738
-0.37667
0.179291
-0.018348
0.00078238
0.0175656
-0.243044
0.139209
0.103835
0.00226464
0.00184072
-0.0744815
0.113347
-0.0388651
-0.0279635
-0.0241793
0.0301268
-0.00838468
-0.0217421
0.154993
-0.39008
-0.108682
0.0588717
0.0498107
-0.228776
-0.171008
0.399784
-0.0138911
0.0138123
7.87893e-05
-0.168204
-0.0131638
-0.489544
0.102648
0.148362
0.123228
-0.0898671
0.00249631
0.00967158
-0.0121679
-0.0366002
-0.238476
-0.0330198
0.0346709
-0.0016511
-0.0979864
0.0932288
-0.0167137
0.0178033
-0.00108965
-0.0118258
0.00352754
0.178725
-0.0566446
0.0769533
0.164016
0.195658
0.0193129
0.0191531
-0.00478512
-0.014368
-0.333199
0.223491
-0.208363
-0.084997
-0.138144
0.148757
0.00197606
0.180178
-0.356945
0.196255
0.160691
-0.0498239
-0.0239453
-0.0102469
-0.000103307
0.196442
-0.304146
0.107704
-0.236716
-0.218129
-0.00874314
-0.002353
-0.00724742
0.0424003
-0.0351529
-0.423892
0.281018
-0.00796136
-0.00211477
0.236013
-0.441348
0.205335
-0.0115388
0.0154226
-0.113647
0.119649
-0.00600247
-0.00914293
-0.00711847
-0.0259014
0.0919809
0.0329464
-0.0977499
0.360344
-0.458146
0.22143
-0.117471
0.0952438
0.00567439
-0.00499595
0.0112525
-0.000485426
-0.354181
0.412673
-0.195568
-0.127859
0.0129855
-0.0132968
0.00389508
-0.161007
0.157112
-0.0556997
0.0772236
-0.0215238
-0.0165551
-0.00179295
-0.422156
0.235637
0.18652
-0.00606348
0.104779
0.391019
-0.167287
-0.223732
-0.228534
-0.18875
0.417284
0.128521
-0.157903
-0.0170163
0.000302678
0.0231466
0.00685238
-0.029999
-0.0152148
0.0162583
0.103164
0.0104547
-0.113619
-0.204881
0.0727593
0.132122
-0.0922121
0.118065
0.123468
-0.0966676
0.39793
-0.157801
-0.0492138
0.0419664
-0.441461
0.0910084
0.350453
0.127576
-0.0239255
-0.105673
-0.103823
-0.494062
0.193017
-0.421445
0.187913
0.000981941
0.0291448
0.17983
0.156669
-0.213192
0.0565229
0.0226704
-0.0310551
-0.135979
-0.000587687
-0.00667021
-0.141572
0.187309
-0.000125522
-0.0382696
0.0383952
-0.199414
-0.139542
-0.171682
0.352373
-0.117777
0.301381
-0.183604
0.492514
-0.450211
-0.0423031
-0.000281303
0.0169038
-0.0167846
-0.000119205
-0.538188
0.325282
0.212906
-0.351187
0.212712
0.165785
0.0220757
0.234061
-0.501347
0.267286
-0.298289
-0.195774
0.0708931
-0.247583
0.17669
-0.45847
0.104289
0.0138736
-0.109376
0.0955023
-0.00414831
0.00334049
0.00080782
0.0315906
-0.0667686
-0.00911365
0.00866481
0.000448839
-0.273859
-0.102529
-0.487507
0.358124
0.129383
-0.129834
-0.0367375
0.166572
-0.501385
0.385561
0.115825
-0.000833732
-0.454602
0.455436
-0.0107172
0.0133909
-0.00267372
-0.138731
0.157157
-0.0184262
-0.0882598
-0.027024
0.115284
0.058593
0.0763181
-0.0831017
-0.0437262
-0.17386
-0.128849
0.240422
-0.111573
0.0961446
-0.081112
-0.142732
0.223844
-0.370778
0.286318
0.0844599
-0.120516
-0.303375
0.178828
-0.407604
-0.16444
0.202173
-0.0377324
-0.132129
-0.110915
0.362625
-0.219778
-0.142847
-0.111966
0.113923
-0.00195681
0.22286
0.139765
0.273853
-0.20296
-0.00946988
0.00857142
0.000898464
-0.117284
0.0273833
0.0899006
-0.263213
0.145436
-0.00850094
0.00994659
-0.00144565
-0.104754
0.030273
0.0129347
-0.00168215
0.00567864
-0.0228431
0.0171645
-0.241314
0.160202
0.0173161
-0.0116374
0.375901
-0.15304
-0.00235952
-0.00477929
0.0071388
-0.0439039
0.0437784
0.0664012
-0.207974
-0.16568
0.0518194
0.113861
-0.154927
0.0161959
0.143764
-0.29754
0.104873
0.196252
-0.115645
-0.197865
0.238836
0.145129
-0.383966
0.0140686
-0.0120731
-0.00199554
0.102843
-0.088969
-0.00179302
-0.0104719
0.00937168
0.00110027
-0.115308
-0.00505843
0.120367
-0.000351009
-0.0096249
0.0099759
0.136582
-0.285683
0.149102
0.426916
-0.244349
-0.132408
-0.0660239
0.198432
0.38375
-0.196432
-0.187318
-0.00846684
-0.0532399
-0.465605
0.0517573
0.413847
-0.465495
0.209354
0.00521683
0.00407841
-0.00929524
-0.00865467
0.0318013
-0.270204
0.236374
0.0338301
-0.267676
-0.114836
0.382512
0.0464619
0.0535723
-0.100034
-0.136217
0.134628
0.00158883
0.1654
-0.269902
0.104503
0.0209022
-0.0430319
0.0221297
0.19488
0.136983
-0.331863
-0.0231146
-0.142565
-0.00164718
0.0101343
-0.00848714
-0.131348
0.229231
-0.0978826
-0.385717
0.21843
0.00756669
-0.019041
0.0114743
0.00853246
0.00553618
-0.148126
-0.032525
0.180651
-0.173459
0.331124
-0.157665
-0.34215
-0.145356
0.0123462
-0.0112864
-0.00105983
0.00626341
-0.0169806
-0.160358
0.328171
0.0997417
0.0101805
-0.109922
0.428468
-0.21449
-0.213978
0.183097
0.168769
-0.351865
-0.0177048
0.00138981
0.016315
-0.399237
0.228316
0.170922
-0.00278791
-0.0013604
0.0864004
-0.217748
0.00537082
-0.10999
0.104619
-0.0064679
0.00611689
0.0116613
-0.0651432
0.0152602
0.177269
0.165361
-0.342629
0.00018722
-0.0030431
0.00285588
0.120792
0.255109
-0.0226655
-0.0948057
-0.000399913
-0.118848
0.119248
-0.00384047
-0.00113596
0.00497643
-0.00911159
-0.0280816
0.0371932
0.271581
-0.387225
-0.00721324
-0.452848
-0.0779586
-0.0307238
-0.0124577
0.00306071
0.00939696
-0.220214
0.091365
0.00322886
0.0314421
-0.0508842
-0.21932
0.0905825
-0.202074
0.111491
0.221209
-0.455834
0.234624
0.00194036
-0.00178022
0.12473
-0.0108065
-0.00403532
0.00422254
0.154741
0.149519
-0.202009
0.105011
0.0110121
-0.00579531
0.0155246
-0.0148874
-0.000637188
-0.232278
0.186556
0.0457228
0.13193
-0.399606
0.24305
0.185418
0.0103537
0.002581
0.0051466
-0.00129415
0.284422
-0.489891
0.205469
0.159366
-0.326029
0.166663
0.0125381
-0.000343785
-0.0121943
-0.376541
0.181877
0.194664
-0.0135683
3.18817e-05
0.0135364
-0.354798
0.00619328
-0.00619328
-0.120921
-0.0152961
-0.00267619
-0.00330626
0.00598245
0.154794
-0.015041
-0.139753
-0.0104506
0.0549381
-0.000228097
-0.0102438
-0.194601
0.0981993
0.0964016
-0.129458
-0.0493381
0.213349
-0.122766
-0.198631
0.145805
0.0528258
0.27581
-0.139228
-0.156987
0.272417
-0.11543
0.134469
-0.130574
-0.00491261
0.0313072
-0.0263946
-0.433166
0.204632
-0.113063
-0.151738
0.264802
0.000565652
0.0149589
-0.201573
0.413037
-0.211465
0.258793
-0.379309
-0.126883
0.104218
-0.158783
-0.21073
0.369513
0.0188262
-0.0030439
-0.0157823
0.233451
-0.405828
0.172377
-0.1717
0.295633
-0.123933
-0.212048
0.374647
-0.162599
0.0973245
0.12333
-0.220654
0.324943
-0.130063
0.487599
-0.188265
-0.299334
-0.0455336
0.0499627
-0.00442904
-0.111902
0.294999
0.00428103
0.0749605
-0.0792416
-0.148507
-0.20268
0.051868
-0.1982
0.146332
0.0139581
0.00237565
0.211942
0.275656
0.0669892
-0.0892828
0.0222936
-0.204466
0.205143
-0.000677019
-0.0108202
0.0145709
-0.00375077
0.0192501
-0.00582262
-0.0134275
-0.0103194
0.0194861
-0.00916664
0.0154905
-0.00894212
-0.00654841
0.205843
-0.108518
-0.109456
0.131097
-0.0216401
0.0603744
-0.0136426
7.43231e-05
0.126725
-0.219986
0.093261
-0.00241001
-0.102175
0.104586
0.193841
-0.165773
-0.0280674
0.0256042
-0.0948988
0.143978
-0.118343
0.124488
-0.0061457
0.389721
-0.15566
-0.0135663
-0.016024
0.0295902
-0.0151009
0.108437
-0.093336
-0.0141044
-0.00360047
0.31553
-0.22973
-0.0858004
-0.011442
0.00979486
0.117839
0.0158658
-0.133705
-0.105263
0.151958
-0.046695
-0.427076
0.268267
0.158809
0.116081
-0.116481
-0.0174765
0.0133077
0.0041688
-0.304967
-0.233221
0.370662
-0.211296
0.0089307
0.374572
-0.170555
-0.204016
-0.0322667
0.0865238
0.206302
-0.382171
0.175869
-0.047804
0.171
0.119862
-0.268065
0.0789521
-0.151261
0.0723087
0.219917
-0.3787
-0.0626999
0.0591661
0.00353381
-0.312964
-0.150576
0.463541
0.00219239
0.00701785
-0.00921024
0.260725
0.0548051
0.00861915
0.00687138
-0.0861323
0.125766
-0.039634
2.85977e-05
-0.0112962
-0.0140465
0.0145174
-0.000470865
-0.262823
0.149759
-0.101725
-0.0155586
-0.0496495
-0.148982
-0.00424395
0.00238463
0.00185932
0.000258029
-0.173297
-0.185332
0.358628
0.0627781
-0.058497
-0.106722
0.112093
-0.296772
0.0964307
0.200341
-0.144948
0.0548023
0.0901454
0.118729
-0.273406
0.154677
-0.125175
-0.215433
-0.081339
-0.456771
0.484371
-0.0275996
0.201112
-0.514076
0.275705
-0.156976
0.0111365
0.00176051
-0.012897
-0.196413
0.432427
-0.205017
-0.117018
0.322035
-0.130192
0.251366
-0.242489
0.127448
0.115041
-0.0398892
0.00891149
0.00753665
0.219441
-0.0927164
0.036337
0.00729196
-0.116337
0.109045
-0.13406
0.0157169
0.209617
0.000244208
-0.0063184
0.00607419
0.0782354
-0.00676858
0.000853752
-0.00502286
0.00416911
-0.0686154
-0.0763323
0.0265181
-0.128753
-0.0934857
0.222238
-0.225376
0.0349838
0.190392
0.0389433
0.348472
-0.115021
-0.00957303
0.112737
-0.144785
-0.153665
0.29845
0.233056
0.115415
-0.209258
-0.160881
0.370139
0.0191666
0.010785
-0.0299516
-0.0050357
-0.00245495
-0.0123116
0.0147666
0.172019
-0.160734
-0.0112848
-0.353641
0.197623
0.156018
0.000287056
0.0120592
0.00758629
0.00248855
0.0668126
-0.00979492
-0.0893025
0.14117
0.0976362
-0.0332681
-0.0643681
0.00636214
-0.0162644
0.00990225
-0.467329
0.0258675
0.0131703
0.00631578
-0.0881264
-0.154363
-0.00735822
0.14695
-0.139592
-0.228131
0.150229
0.077902
-0.042816
-0.000723015
0.043539
-0.00936252
0.00773429
0.00162823
-0.170191
-0.0522642
-0.0104357
0.0156932
0.139101
-0.00357312
-0.201308
0.00511697
-0.00654115
0.00142418
-0.0874192
0.0563234
0.0310959
-0.127733
0.28134
-0.153607
-0.00234319
-0.00190076
-0.178784
-0.0308502
-0.025033
0.0275192
-0.00248617
-0.169332
-0.0810107
0.0195817
0.015676
-0.0352577
0.155714
-0.0767615
-0.15303
0.223714
-0.0706846
0.0493809
-0.420572
0.371191
0.000300333
-0.00507962
-0.0143763
0.147984
-0.133607
0.17283
-0.044635
-0.128195
-0.126569
-0.0355997
0.162169
-0.0145927
0.0151475
-0.000554745
-0.0629678
-0.157246
-0.0157256
0.0132706
-0.166231
0.297341
-0.13111
0.00803628
-0.0181759
0.00266322
0.0155127
-0.0885898
-0.149794
0.325511
0.112316
0.0565087
0.0411275
-0.152502
0.324716
-0.172215
0.0328031
0.134992
-0.167795
0.107943
-0.31296
-0.129382
0.250916
-0.121535
0.0342224
0.0011449
-0.0353285
-0.0532561
0.0885847
-0.0021009
0.0111135
-0.00901261
0.270719
0.221795
0.00348467
0.0153415
0.23559
0.177815
0.0787026
-0.0268501
-0.0518525
0.0305989
0.152513
-0.361771
-0.352637
0.258282
0.0943541
0.191644
0.126549
-0.110081
-0.0164676
0.112068
-0.224675
0.112607
-0.136757
0.0273001
-0.130827
0.0255644
-0.083495
0.113785
-0.0302895
0.326729
-0.0891886
-0.237541
-0.351676
0.156109
-0.162345
0.024201
-0.00257247
-0.0181306
0.020703
-0.372212
0.170487
-0.00770036
-0.105793
0.113494
0.196527
0.272766
-0.00893268
-0.0193975
0.0283301
-0.253871
-0.199988
0.453858
-0.145884
-0.0171506
0.163035
-0.177997
0.310675
-0.132678
-0.397986
-6.19323e-05
0.0985496
-0.11365
0.000881589
0.018532
-0.0194136
0.0385096
0.00858534
-0.0279113
0.0193259
-0.211158
0.0323747
-0.246397
-0.20285
-0.104506
-0.103178
0.207683
-0.00125887
-0.125315
0.246605
-0.121289
-0.213356
-0.137122
-0.0275557
0.0249832
0.0592957
-0.0119255
-0.0473702
-0.286929
0.352804
-0.0658754
0.00066829
0.0123172
0.00186309
-0.00300228
0.00113919
-0.285894
0.119664
0.270855
-0.0196805
-0.251174
-0.0108059
0.148265
-0.137459
-0.0920326
-0.136099
0.138938
-0.266671
-0.0671198
0.058653
-0.00641867
-0.0108083
-0.00126883
0.0063858
-0.00435863
-0.023197
-0.302845
0.159305
0.143539
-0.026224
-0.0160783
0.0423024
0.217874
0.0866601
-0.38281
0.305253
0.0775564
-0.420242
0.173845
-0.0094311
3.85777e-05
-0.475118
0.466586
0.00853202
0.132291
0.152431
-0.00869942
0.0150616
0.01527
-0.0143791
-0.000890935
0.145895
0.0962569
-0.242152
0.130361
-0.119906
-0.162014
0.072712
0.188088
-0.461844
0.0289199
-0.0016466
-0.0272733
0.224149
-0.0106609
-0.0901693
0.0548408
0.143161
0.0628799
-0.206041
0.0377396
0.045716
-0.0834556
-0.457205
0.452304
0.0049007
0.136444
-0.199412
-0.47688
0.275688
0.201192
0.10109
-0.0157548
-0.0853356
0.051357
0.00196615
-0.0121454
0.0101793
-0.0200117
0.00734088
0.0126708
-0.124617
0.132396
-0.00777876
0.00652851
-0.00714586
0.000617352
-0.00210401
0.11296
-0.113816
0.000855926
0.00101153
0.0152652
0.119306
-0.0762958
-0.0430099
0.0265853
-0.0349519
0.185181
-0.0787835
0.00990497
-0.0038093
-0.00721468
-0.0419991
0.00986073
-0.108363
0.00263126
-0.108224
0.128045
-0.0035563
-0.131942
-0.0495537
-0.145047
-0.00344391
-0.014732
-0.00176627
-0.00770361
-0.162862
-0.190779
-0.0972791
-0.125941
0.22322
-0.00921831
0.0100612
-0.000842863
0.0164181
-0.00584359
-0.0105745
-0.000338903
-0.00350156
-0.0200862
0.130326
-0.110239
-0.0159886
0.391049
-0.37506
-0.119698
0.11234
-0.0154658
-0.00328935
-0.00411224
0.00740159
-0.50689
0.30022
0.206669
-0.0303248
0.203907
-0.173583
-0.236937
-0.0527843
0.0671041
-0.0143198
-0.240195
-0.186882
0.0385332
-0.124665
0.122207
0.00583772
-0.0672505
0.34884
0.135448
-0.331823
0.196375
-0.0104447
-0.00703179
-0.378684
0.17591
0.202774
-0.0454141
-0.159052
-0.254216
0.124835
0.364944
-0.315563
0.240036
-0.305057
0.0650214
-0.0135514
-0.0541638
0.0677152
0.086011
-0.0585433
-0.0274677
0.119739
-0.0120227
-0.0159907
-0.0159818
0.00193528
-0.00323511
-0.0193468
0.0225819
-0.0206899
0.447606
-0.10638
-0.0120674
0.118448
0.0735518
0.0692318
-0.142784
0.136235
0.0777436
-0.213979
4.38399e-05
0.0996979
0.21782
0.0684982
-0.27204
0.115053
0.194917
-0.368213
0.037182
0.00651551
0.00029684
0.00537755
0.00847695
-0.0279558
-0.324691
0.155756
0.168936
-0.156788
0.00186089
0.159931
0.240807
-0.328127
-0.0921149
-0.420879
0.420046
-0.134831
-0.0527538
0.187585
0.0251435
-0.108639
-0.0319967
0.0230641
-0.1194
0.111699
-0.299672
-0.083138
-0.0507486
-0.0478101
-0.00497424
0.0282597
-0.0896996
0.040744
-0.262978
0.222234
-0.00387895
-0.000554267
0.00443322
0.00920528
-0.0113062
-0.338761
0.175899
0.00794104
-0.00975831
0.00181727
0.1121
-0.0656378
-0.141171
-0.0380743
0.179245
-0.141082
-0.0157056
-0.159056
-0.204741
0.363797
-0.0420139
-0.169763
-0.109766
0.107356
-0.00758427
0.0065617
0.00102257
-0.101033
-0.0235237
0.124557
-0.0897427
0.305832
0.0077815
0.00439653
-0.0155926
0.0111961
0.0129655
-6.09935e-05
-0.0129045
0.0269659
0.243889
0.000438639
-0.0129258
-0.0762073
0.142231
-0.066024
0.0210003
-0.0118693
-0.00913095
-0.0626131
-0.0442444
0.00766497
-0.00681121
-0.297415
0.18237
0.000382663
-0.0362605
0.0319019
0.106793
0.0197552
0.171505
0.158614
-0.010073
-0.127824
0.137897
0.104487
0.277324
-0.114395
-0.124724
0.000106692
0.20425
-0.061089
0.0372624
0.0556632
-0.0929256
-0.0580433
-0.167333
0.0102945
0.0107058
-0.00494795
0.0241146
0.443771
-0.208182
0.105086
-0.105042
0.110911
-0.123268
0.0123566
-0.139147
0.119061
-0.132854
0.113261
0.0195923
0.00522667
-0.00492983
-0.135042
-0.158026
0.293068
0.111652
-0.109021
0.0578717
-0.0617966
0.00392492
0.120666
-0.11826
-0.00240567
-0.00444222
0.262857
-0.146347
-0.11651
-0.00712858
0.0383912
-0.021643
-0.0167483
-0.0907633
0.241705
-0.150941
0.00507775
-0.00721699
0.00213924
-0.122706
0.00468339
0.118023
-0.206679
-0.300211
0.006711
-0.00451861
0.0138301
-0.125595
-0.123074
0.248669
-0.0219912
0.160762
-0.138771
-0.0103902
0.00962343
0.000766803
-0.230117
0.139353
0.0021829
-0.00351155
0.00132865
-0.093715
0.259115
-0.305318
0.130821
0.174497
-0.150423
-0.121617
0.193256
-0.0251444
-0.168111
-0.258928
0.287018
0.155573
-0.442591
-0.0240252
0.0207901
-0.29793
-0.17895
0.103915
-0.165061
0.301395
-0.136334
-0.0580816
0.0508669
-0.100165
0.00244746
0.0977171
-0.294632
0.15959
-0.221299
-0.200146
0.00282421
-0.000641312
-0.153558
-0.119848
0.0361555
-0.0475267
0.0113712
0.0228129
0.00187539
-0.169263
0.00852848
0.09652
-0.0295308
-0.183985
0.0491535
-0.144772
0.230368
-0.085596
-0.0123062
0.00109566
-0.116866
0.124139
-0.0111786
0.0490741
-0.239682
0.190608
-0.154117
-0.0151459
-0.0263183
-0.171881
0.00443119
-0.106374
-0.163762
0.376767
-0.190228
-0.186538
0.190036
-0.0333673
0.202013
0.00138597
0.0124143
-0.0138003
0.123745
0.0108825
0.26346
-0.165338
-0.0981225
0.177092
-0.394091
-0.0787636
-0.114853
0.193617
-0.0241894
-0.136817
0.0264092
-0.00359624
0.18126
-0.314984
0.133725
0.19915
-0.433034
0.233884
0.0132069
-0.0123253
-0.298945
0.131469
0.167476
0.0164522
0.103706
-0.120158
0.0331341
0.0435436
-0.0766777
0.148661
-0.0504621
-0.00162409
-0.00225486
-0.343711
0.184655
0.0138599
-0.0646511
-0.277499
-0.139297
0.00644392
-0.0110825
0.047238
-0.107729
-0.159955
-0.00404157
0.163997
-0.193467
-0.219144
0.412611
-0.122458
-0.0168396
0.129681
-0.0119708
0.0114017
0.000569099
0.00458542
0.00858487
-0.049186
-0.03707
0.086256
0.0609963
0.0299094
-0.0909057
-0.135159
0.162602
-0.0274423
0.0958621
0.14959
-0.245452
-0.144511
-0.0442957
0.188807
-0.000662848
0.0143307
-0.0136678
0.0187631
-0.0109238
-0.00783937
-0.198239
0.324511
-0.126272
0.0558517
-0.0130783
-0.0427734
0.0236963
0.424154
-0.225003
0.0268482
0.0874387
-0.122329
0.0348906
-0.107229
0.0189688
0.153273
0.00168152
0.0151129
-0.0193843
-0.0125995
0.0319839
-0.0176717
0.00280036
0.0148714
0.0029124
-0.00802402
0.00511163
0.0178525
0.00458308
-0.0224356
0.0123274
-0.0137344
-0.155666
0.0205072
-0.514089
0.219795
0.294294
0.05306
0.0912705
-0.14433
0.138981
-0.160972
0.148554
0.148355
-0.296909
0.109713
-0.235308
-0.0157728
0.0022237
0.0135491
0.189529
0.135413
0.106133
-0.116939
-0.0004093
-0.0134418
0.0138511
0.0458154
-0.0568979
-0.0213625
-0.0133096
0.0346721
0.0827814
-0.0901541
0.016265
-0.0719648
-0.112553
-0.00104853
0.113602
-0.13291
0.00195012
0.13096
0.02819
-0.478401
-0.0014245
-0.350959
0.334971
-0.0449647
0.0358531
0.0277411
-0.0539651
0.0631443
0.366534
0.158322
-0.0298017
0.22763
-0.0543923
0.00597317
0.0484192
0.0150768
-0.0104914
-0.0496796
-0.0462028
-0.0497968
0.0959996
0.21006
0.201632
-0.411692
0.0910782
0.0138546
0.00449189
-0.118139
-0.00171827
-0.00671318
0.00843146
0.420187
-0.210127
0.192982
0.183785
0.470601
-0.253875
-0.216726
0.0482166
-0.192728
0.144964
-0.0212187
-0.157141
0.33441
-0.128121
-0.346997
0.125371
-0.0239832
0.141822
-0.297921
0.155028
0.142893
0.0309623
-0.10717
0.227258
-0.178183
-0.189092
0.162774
-0.113835
0.248861
-0.135025
0.319742
-0.130213
-0.149462
0.117656
0.0318056
-0.103076
0.0439173
0.0591585
-1.56977e-05
0.0155278
-0.0178473
0.0197843
-0.0476762
0.0278919
-0.0294069
0.0158407
-0.115833
0.10626
-0.102762
0.118627
0.0894655
-0.00815839
-0.0813071
0.0166234
-0.00212968
-0.0144937
0.191647
-0.29802
0.427637
-0.446284
0.018646
-0.354179
0.27141
0.0151817
0.0574997
-0.0726814
0.104452
-0.0540487
-0.0144899
0.0685386
-0.0231487
0.1434
0.00286879
0.0162843
-0.0136605
0.0132512
-0.0471051
0.0748462
0.0102448
-0.0475129
0.0103792
0.00838397
0.168621
-0.19002
0.255
-0.0649803
0.179645
0.169882
-0.349527
0.240105
0.236086
0.158493
-0.301774
0.143281
-0.00636054
0.0368094
-4.84245e-05
-0.0199909
0.133252
0.115754
-0.0283156
-0.00604718
0.00558557
0.000461606
0.00556241
-0.000484653
-0.176292
0.152102
-0.168262
-0.134583
0.00168857
0.0561831
0.120833
-0.130906
-0.00854488
0.0401354
-0.0738796
0.0840601
0.181194
-0.0183854
-0.162809
-0.0287915
0.00940712
-0.00613946
0.00800255
-0.0640788
0.0118146
-0.00574833
0.0242804
-0.129364
0.416382
-0.240825
-0.11612
-0.197693
0.11893
-0.00998613
0.00847543
0.0015107
0.0845963
-0.314058
0.249407
0.217595
-0.129022
-0.0885735
0.122292
0.10919
-0.29921
-0.00611538
-0.00387074
0.112994
0.168803
-0.281797
-0.0187701
-0.446835
0.219028
0.164722
0.00725441
0.093836
0.142501
-0.0733416
0.209577
-0.0084222
0.00703301
0.00138919
0.481683
-0.268601
-0.213081
0.126512
-0.0264881
-0.100024
-0.0104715
0.121055
-0.110584
-0.0746373
-0.138554
-0.140738
0.299231
0.0045894
-0.00434519
0.15961
0.0517295
-0.137966
-0.023206
-0.0686909
0.0551395
0.012098
-0.203423
-0.173119
-0.000764383
0.019655
-0.0188906
-0.153068
0.0898656
0.0632026
0.0928058
0.15453
-0.247336
-0.0901488
0.108536
-0.0183874
0.339855
-0.223962
-0.115893
-0.0690088
0.102443
-0.0334344
0.130678
-0.227957
0.328184
-0.0136041
0.0238267
0.0968392
0.142382
-0.244614
0.102232
-0.0114193
0.008128
0.00329133
0.00458691
0.00531806
0.127869
-0.134198
0.269907
-0.135709
0.150129
-0.183726
0.0335961
-0.169173
-0.116721
0.109299
-0.214972
-0.0305893
-0.048375
-0.406227
-0.17144
-0.207244
-0.283876
-0.081555
0.097014
-0.015459
0.108086
-0.00129303
-0.0624393
0.17252
-0.110081
0.0220373
-0.00418478
0.148556
0.00715713
0.107555
-0.00246526
-0.0137991
0.254907
-0.112525
-0.407165
0.367863
0.0393019
-0.112114
-0.0105919
-0.0987193
-0.0246887
0.00823218
0.0164566
-0.014827
0.0042677
0.0105593
0.125973
-0.0295605
-0.0964125
-0.346728
0.157739
0.188989
0.120133
-0.117089
-0.00304342
-0.000810711
0.0146231
-0.163062
-0.16163
-0.00533904
0.000582308
0.00475673
-0.00835861
-0.0358619
0.0144994
-0.158277
-0.145869
0.526771
-0.303184
-0.223587
0.014965
0.137713
-0.0253621
-0.112351
-0.363336
0.496954
-0.133618
-0.216812
0.0637825
-0.15959
-0.11251
0.2721
0.109903
-0.181983
0.131602
0.0503811
-0.302902
0.181358
0.121544
-0.0139158
-0.00313478
0.47251
-0.0341589
0.272279
0.254492
-0.00531003
0.00645631
-0.00114627
-0.104942
-0.0507245
0.0219543
-0.00663473
0.129542
-0.307539
-0.102062
0.0528764
0.0250571
-0.138137
0.11308
0.382493
-0.214851
-0.167642
0.11127
-0.103978
0.159879
-0.304664
-0.011329
0.0151341
-0.0158985
0.288715
-0.123318
-0.165397
0.00316454
0.0116364
-0.0148009
0.142704
0.211139
-0.353844
-0.211818
-0.134911
-0.000677055
0.338897
-0.149088
-0.189809
0.00803203
-0.00803203
-0.158687
-0.00126862
-0.379841
-0.0273239
-0.00363889
0.00712364
-0.00348475
-0.217639
0.399516
0.0143873
-0.0833961
-0.518314
0.291623
0.226691
-0.137966
0.243983
-0.106018
0.443169
-0.439346
-0.0038234
-0.141724
0.0792843
-0.288302
-0.230012
-0.353174
0.212225
0.140949
0.211639
0.232132
-0.215372
0.360754
-0.145382
-0.141593
0.285357
0.00269622
0.213172
-0.384036
0.170864
0.00992894
-0.0101582
0.000229271
-0.000324521
-0.15893
0.271924
0.00518608
-0.157642
-0.200795
-0.234637
0.435433
-0.00929318
0.00518094
-0.00376725
0.000979337
0.086667
-0.0523462
-0.0343209
-0.0124622
0.0160442
-0.003582
0.132352
-0.138641
0.00628917
0.21247
-0.179359
0.101987
0.0773718
-0.159103
-0.146215
0.097583
0.0595741
0.327617
-0.19217
0.167409
-0.134606
0.0241719
0.0142194
-0.16971
-0.210232
0.158523
-0.226142
0.0240787
0.202063
-0.0654721
0.0114234
-0.0156795
0.0153309
0.000348531
-0.0931781
-0.0598901
-0.0303159
0.0254033
-0.0139312
-0.0933119
0.107243
0.115053
-0.0995339
-0.0155191
-0.0122745
-0.0674581
0.030388
0.0131171
0.0214424
-0.0345594
-0.00216027
0.0210401
-0.0188798
-0.143204
-0.0124235
0.155628
0.00273421
-0.0173269
-0.000317924
-0.0855333
-0.0938258
-0.148221
-0.150724
-0.308721
0.39973
-0.0509964
-0.0520794
-0.0348126
-0.191329
0.0593005
0.0194021
-0.0188797
0.154803
-0.00624617
0.0776549
0.0520955
-0.12975
-0.145166
0.324811
0.0253328
-0.0141963
1.04982e-05
-0.00585837
0.00584787
-0.00465914
-0.0955055
0.00307231
0.0135511
-0.294056
0.141555
-0.116319
-0.146504
0.00632936
-0.00709475
0.000765389
-0.21349
0.373688
-0.160198
-0.359172
0.139394
-7.24833e-05
0.0086439
-0.128293
-0.0739619
0.202255
-0.017164
0.0785009
0.0105193
-0.012363
0.00184372
0.00371328
0.0252067
0.0642745
-0.192567
0.330954
-0.48153
-0.0173149
0.0177168
-0.000401933
-0.137774
0.139209
-0.00143573
0.00827991
0.0903885
-0.0986684
-0.353573
-0.0871525
0.0898753
-0.00272279
-0.0475496
-0.0509217
0.0984712
-0.000687911
0.0522635
0.273343
-0.325606
-0.00745426
0.00213736
0.00531691
-0.239307
-0.203504
0.16149
0.13034
-0.299514
-0.245704
-0.244187
-0.121052
0.0132731
0.107779
0.362388
0.0652495
-0.093874
-0.113576
0.20745
-0.229297
0.469402
-0.149029
0.250455
-0.101426
0.00665124
-0.0132162