/*--------------------------------*- C++ -*----------------------------------*\
| =========                 |                                                 |
| \\      /  F ield         | OpenFOAM: The Open Source CFD Toolbox           |
|  \\    /   O peration     | Version:  v2012                                 |
|   \\  /    A nd           | Website:  www.openfoam.com                      |
|    \\/     M anipulation  |                                                 |
\*---------------------------------------------------------------------------*/
FoamFile
{
    version     2.0;
    format      ascii;
    class       volVectorField;
    location    "450";
    object      U;
}
// * * * * * * * * * * * * * * * * * * * * * * * * * * * * * * * * * * * * * //

dimensions      [0 1 -1 0 0 0 0];


internalField   nonuniform List<vector> 
18649
(
(-0.152537 -0.0241352 -6.51391e-23)
(1.03226 -0.130594 3.50501e-21)
(1.07262 0.00985303 0)
(-0.221577 -0.074287 -1.44428e-19)
(0.488733 -0.21752 1.22746e-19)
(1.13325 -0.0630275 -2.3374e-20)
(0.208087 0.055878 -5.51783e-20)
(1.37417 -0.245334 -2.0039e-20)
(1.23854 0.0291126 2.16243e-20)
(0.962925 -0.0703296 -1.04598e-21)
(1.30123 -0.336612 8.74487e-20)
(-0.373853 -0.0672387 -2.86357e-20)
(1.30792 0.0675979 -9.02581e-20)
(1.07157 0.0082272 0)
(0.993304 -0.0267936 0)
(1.20849 -0.0291298 3.19331e-20)
(1.01687 -0.00231549 -5.72792e-22)
(1.20794 -0.0299792 1.36685e-20)
(1.17451 -0.457957 4.7293e-20)
(-0.0636253 -0.03228 -1.74416e-19)
(-0.0274028 -0.0776841 -1.15993e-20)
(1.05957 -0.0679383 0)
(-0.406299 -0.086336 0)
(1.30617 0.114818 0)
(1.01888 -0.0161368 0)
(-0.106989 -0.0381779 -3.78415e-20)
(1.04589 -0.0612427 1.27995e-22)
(-0.361857 -0.0657411 -8.43007e-20)
(1.4609 -0.164885 0)
(1.03114 -0.00144461 -9.37788e-22)
(1.06491 -0.0464303 1.53264e-21)
(1.09198 -0.366442 8.9826e-21)
(1.00628 -0.0115131 -7.57887e-23)
(0.973118 -0.120968 -3.08643e-20)
(0.988348 -0.0840536 6.95722e-21)
(-0.289808 -0.0452925 -4.32105e-20)
(0.883984 -0.0973757 6.93729e-20)
(1.02211 -0.0577349 2.04206e-21)
(1.03735 -0.013248 6.52852e-22)
(1.36458 -0.262012 -5.71923e-20)
(1.24499 0.0315056 -6.58362e-20)
(1.30126 0.118202 -3.07851e-21)
(1.24119 0.0556818 -3.06849e-21)
(-0.35109 -0.0725578 -2.84337e-23)
(1.03653 -0.13002 1.4568e-21)
(1.03137 -0.00117169 -1.01532e-21)
(-0.151442 -0.0961126 -1.40101e-19)
(-0.214353 -0.0763978 1.03664e-19)
(1.06918 -0.331006 -3.81322e-23)
(1.03599 -0.0199476 -4.38676e-22)
(-0.280191 -0.453746 5.57739e-20)
(1.14299 -0.110407 -3.85256e-21)
(0.300367 -0.11937 3.25739e-20)
(0.706131 0.107647 0)
(1.00599 -0.0106263 -5.14408e-21)
(1.03402 -0.32567 1.18029e-19)
(-0.208967 -0.0374364 0)
(1.27191 0.0224936 0)
(-0.135527 -0.0301331 -1.35515e-19)
(0.96562 -0.0692008 1.22452e-21)
(-0.152237 -0.0241412 -9.52791e-20)
(1.00597 -0.0250622 6.56057e-21)
(1.23667 0.0622577 0)
(-0.190759 -0.08024 -5.7639e-20)
(1.02372 -0.056979 0)
(-0.181221 -0.0827983 2.06699e-19)
(1.05338 -0.0371722 0)
(-0.198497 -0.029824 0)
(-0.174617 -0.073815 -1.07728e-19)
(1.37764 0.0309746 9.04582e-20)
(-0.370829 -0.10903 1.70296e-20)
(1.0075 -0.0274125 9.0683e-22)
(1.0799 -0.365138 2.45291e-21)
(1.12412 -0.0260251 -1.04296e-22)
(0.977198 -0.116927 2.57525e-20)
(-0.0349137 -0.0817378 1.28123e-20)
(0.878013 -0.204191 1.34651e-20)
(1.07027 -0.174003 2.9651e-21)
(1.12059 -0.0261283 -7.0033e-21)
(1.00872 -0.551688 0)
(1.01702 -0.00223421 0)
(-0.169584 -0.0941552 0)
(-0.252676 -0.0772707 2.45997e-19)
(0.336033 -0.123155 -3.11136e-20)
(0.857761 -0.315767 0)
(1.03696 -0.0123845 -8.89925e-22)
(0.896239 -0.154566 6.32133e-20)
(1.14013 -0.107609 2.89485e-20)
(1.19092 -0.151167 1.77662e-20)
(1.12989 -0.0324021 0)
(1.16056 -0.00136632 -3.33513e-20)
(0.967592 -0.0455825 0)
(1.01107 -0.0517057 -5.49474e-21)
(-0.215175 0.0603023 -7.31746e-20)
(1.05818 -0.066906 0)
(1.29631 -0.318411 1.22774e-19)
(0.971806 -0.071091 0)
(0.986104 -0.518051 1.61885e-21)
(-0.167755 -0.0673616 -5.32764e-20)
(1.0451 -0.0574189 -2.19047e-22)
(-0.403449 -0.0896395 -1.31379e-19)
(0.943685 -0.280678 0)
(1.02171 -0.00750052 1.7288e-23)
(-0.241909 -0.437688 0)
(-0.174172 -0.0677855 6.08705e-20)
(1.14691 -0.110048 -6.54762e-22)
(0.999023 -0.00787739 -7.30191e-21)
(1.07078 -0.0487486 -4.15426e-22)
(0.944786 -0.277338 -2.28918e-20)
(0.975092 -0.105099 2.17879e-20)
(-0.294988 -0.0514502 -7.84213e-20)
(0.691738 -0.276575 -1.38672e-19)
(1.01065 -0.0500196 -5.05007e-21)
(0.970031 -0.105873 -6.77133e-21)
(1.332 0.0284104 6.88909e-20)
(1.08299 0.0111939 -6.33686e-21)
(1.00545 -0.010344 -8.90016e-23)
(-0.0877706 0.00991157 0)
(-0.356763 -0.0759563 0)
(1.04527 -0.0168979 0)
(-0.137326 -0.0323346 1.3627e-19)
(1.03369 -0.072715 0)
(1.08508 -0.365668 -2.3537e-21)
(1.00679 -0.0276481 9.83208e-23)
(-0.243215 -0.0698549 4.92916e-20)
(1.01936 -0.0169925 0)
(1.00002 -0.000228923 -1.33032e-20)
(-0.0594466 -0.0184403 3.22491e-20)
(1.03307 -0.071136 -3.62674e-21)
(-0.0664839 0.0162716 5.47891e-20)
(1.00335 -0.0420715 7.78713e-22)
(-0.25125 -0.0787414 -1.5699e-19)
(1.02239 -0.032599 5.70041e-21)
(-0.1284 -0.0303355 1.06873e-19)
(0.878597 -0.103901 -2.51573e-20)
(0.999832 -0.00612952 -1.73725e-20)
(-0.367189 -0.0627164 7.71454e-23)
(-0.198904 -0.0337532 0)
(1.15745 0.00300656 3.0148e-20)
(1.0628 -0.180127 0)
(0.482843 -0.629038 -2.91498e-20)
(1.03318 -0.0468193 0)
(1.03253 -0.0152465 0)
(1.01069 -0.0162897 3.81557e-21)
(1.00063 -0.0107736 -2.06667e-20)
(-0.359668 -0.0371057 0)
(1.03307 -0.0156194 0)
(1.00344 -0.0211696 -1.64872e-20)
(-0.421554 -0.0808537 0)
(-0.176185 -0.0719672 1.22857e-19)
(1.35774 0.0593951 -5.07744e-20)
(0.999471 -0.00421421 0)
(-0.302349 -0.0690362 0)
(1.06367 -0.0162243 -5.40051e-21)
(1.03426 -0.0613981 0)
(1.01026 -0.0162225 0)
(0.603397 -0.302068 0)
(1.00746 -0.541645 -7.73488e-21)
(1.00587 -0.00556303 -2.63034e-21)
(0.992665 -0.0493358 5.49377e-21)
(1.00193 -0.0193379 1.16668e-20)
(1.38536 -0.359166 1.42143e-19)
(-0.135625 -0.0343751 -1.11398e-19)
(1.06331 -0.0163051 -5.00202e-21)
(-0.237497 -0.0695294 0)
(1.33323 0.0322458 -6.8654e-20)
(0.999062 -0.00838035 0)
(1.00896 -0.0287906 -3.07485e-21)
(1.0361 -0.0623134 2.24922e-21)
(1.081 0.0090609 -1.00685e-20)
(1.0026 -0.0427734 0)
(0.16607 -0.521924 1.40324e-19)
(1.2679 0.016116 0)
(0.487393 -0.268805 0)
(1.02498 -0.0548115 6.66211e-21)
(0.803586 0.0596513 -8.21034e-20)
(-0.42407 -0.079901 -1.20758e-22)
(1.04177 -0.133556 -4.31149e-21)
(1.00554 -0.00562041 -2.37229e-21)
(1.38409 0.0368897 0)
(1.38631 0.0537598 0)
(1.02981 -0.0044702 0)
(1.00002 -0.000794161 5.30638e-21)
(-0.00699225 0.182681 -1.45163e-19)
(1.1196 -0.0991789 0)
(1.20453 0.00362829 0)
(1.0007 -0.0103954 1.56448e-20)
(1.03383 -0.0462026 0)
(1.16815 0.0494254 0)
(0.996575 -0.230247 0)
(0.932487 -0.892076 -3.14782e-20)
(1.02581 -0.0608138 0)
(-0.152258 -0.0156283 -7.47447e-20)
(1.05761 -0.0160115 0)
(1.02019 -0.0061169 -1.78681e-21)
(1.00047 -0.00669019 0)
(0.899605 -0.146794 -2.23132e-20)
(1.0209 -0.342767 -1.36091e-21)
(0.97719 -0.116144 1.37302e-20)
(1.00002 -0.000673516 0)
(1.00319 -0.020271 0)
(1.31993 0.0168201 0)
(-0.206595 -0.029902 -7.89382e-21)
(0.897166 -0.110694 -1.90372e-20)
(1.19559 -0.164972 8.90264e-21)
(0.718951 -0.246588 1.96506e-20)
(1.49643 -0.16257 4.3182e-20)
(-0.135596 -0.0974808 9.04812e-20)
(1.06925 -0.0477327 0)
(-0.246164 -0.0571532 -1.75249e-19)
(0.992436 -0.0534347 -5.54172e-21)
(1.03596 -0.111788 1.51624e-21)
(1.02968 -0.069905 0)
(-0.15663 -0.0166333 1.64456e-19)
(-0.259348 -0.0778814 2.06658e-19)
(1.04386 -0.0315317 -4.09266e-22)
(0.847213 -0.279601 0)
(1.0281 -0.0320581 -2.74133e-21)
(-0.238217 -0.0714529 -1.10737e-22)
(1.00525 -0.0568564 1.61297e-20)
(1.25672 0.0823642 1.54794e-20)
(1.02682 -0.0443885 -2.6228e-21)
(0.333141 -0.895462 3.31487e-20)
(0.210842 -0.522503 -9.61119e-22)
(-0.0247757 -0.0387994 1.30614e-19)
(-0.132599 0.0729788 3.92286e-20)
(1.04523 -0.0325129 4.78089e-22)
(1.0053 -0.0564278 -7.03829e-21)
(0.281299 -0.117213 0)
(0.883877 0.06742 1.09376e-19)
(1.16507 0.0560546 5.37845e-21)
(1.02186 -0.0296088 2.35066e-21)
(-0.428237 -0.0771324 0)
(1.2091 -0.0411236 -3.03723e-20)
(-0.0346359 -0.0324594 1.36134e-19)
(1.40319 -0.325818 2.13796e-20)
(0.600937 -0.303033 7.62333e-20)
(0.478247 -0.194253 6.36857e-20)
(1.02196 -0.0318967 -6.6465e-21)
(1.29777 -0.524984 -1.03731e-19)
(1.02321 -0.00478493 0)
(-0.280966 -0.0674601 -4.65918e-20)
(1.16491 0.0550302 1.165e-21)
(1.02931 -0.00451268 -9.0267e-24)
(0.971581 -0.107588 1.41755e-20)
(1.00402 -0.222254 1.37233e-20)
(0.171184 -0.106912 1.47392e-19)
(0.992991 -0.0492666 0)
(0.617626 -0.318619 2.55018e-20)
(1.02249 -0.333168 -3.72171e-21)
(-0.427625 -0.0716102 8.02187e-20)
(0.181121 0.0570445 7.25313e-20)
(1.20187 0.00735201 0)
(0.988345 -0.083076 8.14038e-21)
(1.12508 -0.0923021 2.49504e-20)
(-0.342665 -0.0963025 0)
(1.02635 -0.0432312 3.13823e-21)
(0.992502 -0.0530213 0)
(0.966996 -0.105072 7.07203e-21)
(0.976575 -0.110658 -2.28804e-20)
(1.03844 -0.0235198 7.33403e-23)
(0.694671 -0.270758 8.02681e-20)
(-0.249956 -0.057781 1.62436e-19)
(0.990836 -0.0481842 1.88207e-20)
(1.01945 -0.00626941 2.16932e-21)
(-0.182766 -0.0926028 4.89117e-20)
(0.597589 0.0623108 -4.26372e-20)
(1.00043 -0.00665695 0)
(-0.115888 0.164067 -7.4895e-20)
(1.02477 -0.0112518 0)
(-0.370199 -0.0408294 2.35777e-20)
(1.12628 -0.380677 -1.51714e-20)
(0.256355 -0.115508 3.57936e-20)
(0.490559 -0.274393 0)
(1.19482 -0.438785 0)
(1.05711 -0.0150305 7.35781e-22)
(1.01911 -0.00555969 0)
(1.32256 0.0697661 -5.75695e-20)
(-0.106563 0.0656525 0)
(-0.223575 -0.0733336 -2.73241e-21)
(1.00071 -0.0107242 2.38165e-21)
(1.0268 -0.0324333 -8.91141e-21)
(-0.296174 -0.0709926 3.05767e-20)
(1.08775 -0.138317 -9.76077e-21)
(0.965371 -0.153163 1.21449e-19)
(-0.428486 -0.077778 0)
(1.06591 -0.0151376 0)
(0.878399 -0.223836 0)
(0.999859 -0.00506931 0)
(1.03248 -0.00527677 0)
(1.2522 0.0779163 -1.50751e-20)
(-0.42638 -0.0708698 3.22866e-20)
(0.402609 0.0854906 -5.7953e-20)
(0.294302 -0.157646 -1.98764e-19)
(1.4846 -0.0915422 3.24489e-22)
(1.01426 -0.0926274 -1.39868e-20)
(1.35834 0.0668013 0)
(1.48313 -0.166008 0)
(1.0206 -0.00674711 0)
(0.658968 0.0700384 0)
(1.00616 -0.00103082 -6.24861e-21)
(0.971414 -0.128024 4.26272e-20)
(0.97229 -0.071009 0)
(1.00974 -0.0162574 -7.92602e-22)
(1.04382 -0.0170099 1.22753e-21)
(0.474033 -0.195803 4.21866e-20)
(0.999841 -0.00576676 1.96358e-20)
(1.22558 0.00230405 3.58374e-20)
(0.471025 -0.15525 -5.72896e-20)
(0.973259 -0.121698 -2.69757e-20)
(-0.128837 -0.0390938 0)
(0.966696 -0.0716358 4.40641e-20)
(0.504931 -1.24914 -4.11206e-20)
(0.993703 -0.0261149 1.5008e-20)
(1.06561 -0.015197 5.08153e-21)
(1.02229 -0.0309906 0)
(1.07731 -0.0138482 1.55464e-20)
(1.00004 -0.00032329 -1.13324e-20)
(-0.260458 -0.0769053 -1.23207e-19)
(-0.323871 -0.0842129 -1.07444e-19)
(0.999409 -0.00631131 0)
(1.00169 -0.0191381 -6.30536e-21)
(1.24511 0.0360011 5.08251e-20)
(1.00025 -0.000461775 7.3942e-21)
(1.00932 -0.016204 -5.38978e-21)
(1.04838 -0.039266 0)
(1.00071 -0.0101532 0)
(0.940049 -0.19209 -3.7508e-20)
(-0.0664534 0.00532835 0)
(0.711514 -0.214747 7.1202e-20)
(-0.222058 -0.0590797 4.36205e-20)
(1.00818 -0.0278826 0)
(1.0009 -0.0168606 5.71563e-21)
(1.23259 0.0685314 1.21649e-20)
(1.00649 -0.00538705 2.6765e-21)
(1.03209 0.000256612 0)
(-0.134025 0.298221 -1.09746e-19)
(1.01413 -0.175157 0)
(1.47658 -0.0661501 7.44287e-20)
(0.892532 -0.116331 0)
(1.38578 -0.360365 -6.91331e-20)
(1.00614 -0.00545838 0)
(1.10061 0.00426055 0)
(1.03046 -0.0716303 4.22601e-21)
(1.08823 -0.0690371 6.47517e-21)
(1.00116 -0.0259753 4.91597e-21)
(1.0004 -0.00531845 -7.46156e-21)
(1.0228 -0.00426175 1.58835e-21)
(1.15529 0.00697945 -1.69402e-20)
(1.20862 -0.0416303 0)
(0.997888 -0.0280281 1.07029e-20)
(1.31581 0.0658161 -5.53914e-20)
(0.997728 -0.0284213 0)
(1.04809 -0.0401469 0)
(-0.203883 -0.0629544 -1.5743e-19)
(1.33071 0.116227 0)
(1.079 -0.0149566 0)
(-0.148957 -0.0559626 0)
(1.38741 -0.335165 0)
(-0.22617 -0.0746271 -2.19105e-20)
(0.325862 0.073056 0)
(1.08627 -0.0677144 -5.64086e-21)
(0.273749 0.0666856 0)
(0.998052 -0.0295002 0)
(0.0457823 -0.0918128 1.41345e-19)
(0.56523 -1.03101 3.42744e-20)
(0.9684 -0.0703136 -3.1228e-20)
(0.906374 -0.0706138 -4.63515e-20)
(1.01356 -0.172852 9.83695e-21)
(1.06318 -0.0438937 0)
(1.02756 -0.0615812 -3.90223e-21)
(1.03139 -0.015207 0)
(1.00122 -0.0243701 7.38641e-21)
(-0.244765 -0.0614774 -4.76322e-20)
(0.933107 -0.200594 0)
(-0.0559718 -0.0380699 -1.36974e-19)
(-0.230205 -0.0575329 1.87036e-20)
(1.46274 -0.134503 0)
(0.137722 -0.105248 -9.29954e-20)
(1.09755 -0.0254716 -7.44778e-21)
(0.999972 -0.00081804 9.03893e-21)
(1.15783 0.060468 0)
(1.01942 -0.0296505 0)
(0.873434 -0.935224 0)
(1.00007 -0.000108196 1.49673e-20)
(0.99957 -0.00439152 -1.16212e-20)
(0.0886695 -0.286221 0)
(0.440023 0.0861151 0)
(1.07612 -0.0486993 -2.47141e-21)
(1.03714 -0.0215172 0)
(1.43943 -0.329144 9.8139e-20)
(1.15168 -0.23981 -9.7259e-21)
(1.00155 -0.0552124 1.66867e-20)
(-0.510888 -0.474225 -7.38307e-20)
(1.06823 0.00742635 7.24407e-21)
(0.907858 -0.0724872 5.83614e-20)
(-0.302331 -0.0428615 2.2874e-19)
(1.10242 -0.065747 -5.17206e-21)
(0.999848 -0.00448392 -5.94464e-21)
(-0.224572 0.285708 0)
(-0.248779 -0.0636101 0)
(1.19882 0.0107543 -1.57033e-20)
(1.0081 -0.0368076 0)
(1.00088 -0.0166973 0)
(-0.247807 -0.0564801 0)
(-0.188998 0.301586 1.33135e-19)
(1.02865 -0.0339257 0)
(1.45294 -0.290744 9.00744e-20)
(1.02672 -0.0125408 0)
(1.03496 -0.0424171 -7.52473e-23)
(0.21961 0.0706283 0)
(1.03915 -0.0117224 4.38033e-23)
(-0.0493358 0.0114499 0)
(1.10225 -0.0673462 0)
(1.29594 0.0915754 0)
(0.0962403 -0.100336 1.47574e-19)
(1.29843 0.0659444 6.95792e-20)
(0.755544 0.0579513 1.22715e-19)
(1.01903 -0.0270503 0)
(-0.0618511 -0.0370122 6.04552e-20)
(0.998071 -0.0295771 0)
(1.31616 0.075411 8.22068e-20)
(1.2114 -0.274101 0)
(0.00598936 -0.0800467 8.34215e-20)
(0.514605 0.0628649 1.18995e-19)
(1.03088 -0.0145185 4.53739e-22)
(1.03127 0.0004754 -2.67447e-23)
(1.2986 -0.528898 0)
(-0.206503 -0.0797052 -4.3579e-20)
(1.10232 0.00253577 5.82921e-21)
(0.498136 -0.254057 -7.43609e-20)
(1.07368 -0.0498754 2.03141e-21)
(1.0636 -0.0889841 2.9162e-21)
(1.01812 -0.0050379 3.12593e-21)
(-0.0485564 0.0187817 4.42842e-22)
(1.30071 0.0657231 5.6358e-20)
(-0.113769 -0.021466 -3.63051e-20)
(1.06667 -0.0439504 2.94227e-21)
(0.967397 -0.0454392 -9.06065e-21)
(0.112118 -0.288918 0)
(-0.310643 -0.0668934 -1.06464e-19)
(0.906231 -0.0641237 -6.74204e-20)
(1.00784 -0.0918351 -1.68099e-20)
(1.03715 -0.0221925 0)
(1.02738 -0.0122807 1.45056e-21)
(-0.214393 -0.0762746 0)
(-0.0801868 -0.0225063 6.1465e-20)
(1.00529 -0.00895192 -3.36994e-22)
(1.05414 -0.00458986 -3.705e-21)
(-0.301451 -0.0590906 0)
(1.03965 -0.0168295 6.01742e-23)
(-0.333439 -0.0578607 2.30002e-19)
(1.03595 -0.0203229 3.01802e-22)
(-0.140924 -0.0353151 0)
(1.14617 -0.236659 -2.9064e-20)
(0.0251308 -0.0854795 7.53092e-20)
(0.960879 -0.168855 -1.75713e-20)
(0.762728 0.113746 -4.59342e-20)
(-0.232 -0.0555358 1.08818e-20)
(1.04735 -0.142197 -3.12511e-21)
(1.23821 0.0253246 -2.42758e-20)
(1.06433 -0.0915118 -1.55866e-21)
(1.22823 0.0156649 2.03119e-20)
(1.09552 -0.0225034 0)
(0.992507 -0.0457741 0)
(1.08767 -0.144862 9.00509e-22)
(0.250359 -0.643901 -7.50851e-20)
(1.03272 -0.00581035 0)
(1.0863 -0.0381502 0)
(-0.311172 -0.0664823 2.96297e-20)
(1.02587 -0.013341 -3.93212e-21)
(1.00028 -0.00568448 0)
(1.31446 0.0767763 0)
(1.01697 -0.0164215 -6.77993e-21)
(-0.340494 -0.084287 -5.71859e-20)
(1.06819 -0.0137215 0)
(1.07637 -0.0111093 0)
(1.05206 -0.00217146 0)
(1.14095 -0.0371405 -2.36609e-20)
(1.06659 0.00819879 6.04449e-21)
(1.00002 -0.000587617 1.27591e-22)
(0.54035 -0.632549 0)
(1.03585 -0.0436323 1.51358e-22)
(0.841545 -0.19057 0)
(1.00159 -0.0180513 -5.9458e-21)
(1.12132 -0.123317 3.03529e-20)
(-0.352569 -0.0679408 -1.33139e-19)
(1 -0.00119659 -1.10512e-22)
(1.10979 0.128104 1.64765e-20)
(1.10286 -0.100584 0)
(0.211281 0.0428928 0)
(-0.296095 0.151369 6.82619e-20)
(-0.313882 0.122997 0)
(-0.325173 -0.0608283 0)
(1.14423 -0.0371336 2.66153e-20)
(1.24947 -0.258202 1.10188e-21)
(1.1626 0.0585336 6.1758e-21)
(-0.33404 -0.0580184 -1.13843e-19)
(0.981459 -0.0472995 0)
(1.21326 -0.362303 -5.95778e-20)
(0.981671 -0.112005 2.20551e-20)
(0.528127 -0.108752 1.06473e-19)
(1.32348 0.0271887 -5.72055e-20)
(1.12525 -0.303028 0)
(1.00033 -0.000570081 -6.03596e-21)
(0.401394 -0.42351 -8.37151e-20)
(1.31519 0.0549454 7.10549e-20)
(0.244912 0.0741167 9.15385e-21)
(1.0523 -0.0331194 0)
(-0.315035 -0.0417242 -3.1347e-19)
(0.929791 -0.0710685 -7.02052e-22)
(1.25933 0.077698 -1.57503e-20)
(0.997498 -0.0182435 8.98745e-21)
(1.21455 -0.277902 -3.97028e-20)
(-0.329962 -0.0588545 9.42305e-20)
(0.999491 -0.00547192 -1.18196e-20)
(1.05298 -0.00391809 0)
(-0.296705 0.135713 0)
(1.0424 -0.0191928 0)
(0.985415 -0.53532 -1.58527e-21)
(1.04061 -0.0200887 0)
(1.13702 -0.0642674 2.15915e-20)
(1.04504 -0.0600018 -1.10229e-21)
(1.18599 -0.0903966 1.43832e-20)
(1.01661 -0.0153665 2.20379e-21)
(0.765283 -0.521821 -2.45762e-20)
(1.00001 -0.000920003 3.13668e-21)
(0.155991 -0.0291102 -1.48096e-20)
(1.05388 -0.0337151 0)
(-0.324368 -0.0608184 -1.57879e-19)
(1.47521 -0.011598 0)
(-0.245876 0.058907 4.63817e-20)
(-0.315832 -0.0635397 -1.12943e-19)
(1.08369 -0.0366153 0)
(1.33298 0.119785 6.63501e-21)
(1.22762 0.0146469 3.9185e-20)
(0.0425042 0.0365005 1.05558e-19)
(-0.224052 -0.0571787 -2.38548e-20)
(1.04518 -0.0153109 1.75231e-22)
(0.832537 -0.189196 2.82852e-20)
(1.29257 0.0923429 -5.14807e-20)
(1.08196 -0.0187753 8.62391e-21)
(1.30554 0.0876027 8.32515e-21)
(1.02666 -0.0680279 0)
(0.999233 -0.00687484 6.7361e-21)
(1.08113 -0.0204541 -3.16783e-21)
(1.00404 -0.000816062 4.4143e-21)
(1.00001 -0.000812403 7.38539e-21)
(1.02625 -0.0687098 4.90204e-21)
(0.196052 -0.120372 1.3568e-19)
(1.02535 -0.0120822 0)
(1.03358 -0.0331321 0)
(1.13373 -0.0309646 -8.67203e-21)
(1.068 -0.0999296 3.31612e-23)
(0.526132 -0.589254 5.18541e-20)
(-0.224135 0.0756445 3.45565e-20)
(0.980116 -0.0465591 -9.51845e-22)
(1.23673 0.0647566 1.41466e-20)
(1.43281 -0.14319 0)
(1.12029 -0.302301 0)
(1.00129 -0.0180944 1.22844e-20)
(-0.0593272 -0.099261 0)
(0.934227 0.0662885 -3.82505e-20)
(0.0319051 -0.091433 0)
(1.30522 0.0862609 -1.01544e-20)
(1.16791 0.0490852 0)
(1.06729 -0.0893878 7.15457e-22)
(1.14788 -0.0459072 6.98871e-21)
(1.15744 0.00641551 0)
(1.07016 -0.0120565 -3.38202e-21)
(1.47869 -0.080562 4.03198e-20)
(1.01494 -0.039165 0)
(1.07041 -0.0120745 -3.88356e-21)
(1.0335 -0.00933853 1.50157e-22)
(-0.47807 0.130771 0)
(0.00623921 -0.0898009 -2.38012e-19)
(-0.356707 -0.0111813 -3.86416e-20)
(1.05318 -0.177647 1.38112e-21)
(1.00919 -0.0347218 -6.86002e-21)
(-0.255635 -0.0600574 0)
(-0.171432 -0.0839378 -1.10991e-19)
(0.959551 -0.925843 2.7669e-20)
(1.12475 -0.123167 -1.43432e-20)
(0.764994 -0.0930943 -1.697e-21)
(-0.314173 0.0954504 -8.22896e-21)
(1.00553 -0.000883718 4.47841e-21)
(-0.314798 0.108627 0)
(1.06356 -0.101787 -2.76905e-23)
(0.962173 -0.083014 0)
(0.960141 -0.0571226 0)
(0.584089 -0.691553 -3.39775e-20)
(-0.162293 -0.0622225 2.82307e-20)
(1.06793 -0.0138059 0)
(0.75496 -0.520064 0)
(0.961236 -0.169429 -1.04258e-20)
(1.01169 -0.0926473 1.64458e-20)
(-0.16376 -0.0142803 -9.85869e-20)
(1.0996 -0.618026 -4.37473e-20)
(0.999565 -0.0368481 6.9019e-21)
(0.0547313 0.0393667 -9.80842e-20)
(1.16097 -0.00257042 8.89343e-21)
(-0.177001 -0.409394 -9.45006e-20)
(1.03253 -0.0627481 4.05651e-21)
(0.520058 -0.152835 -9.09112e-20)
(1.18529 -0.0866153 2.63652e-20)
(1.12176 0.0383129 -9.19681e-21)
(1.01057 -0.000469806 2.71583e-21)
(0.0262503 -0.0934148 -9.56353e-20)
(1.23174 -0.127156 2.43487e-20)
(1.24184 0.017545 0)
(1.23264 0.0821663 1.27074e-20)
(-0.307888 -0.0643907 0)
(1.10289 0.00131395 1.17183e-22)
(-0.347271 -0.00824062 7.02399e-20)
(1.06575 -0.0280269 0)
(1.05788 -0.17621 0)
(0.228255 0.0777517 -8.14247e-20)
(1.13021 -0.0676445 1.18138e-20)
(1.0068 -0.0114055 0)
(0.754582 -0.107575 -1.82917e-21)
(1.08118 -0.0260308 -8.85594e-21)
(1.22467 0.0690564 6.4037e-20)
(1.03283 -0.0319876 -3.25215e-23)
(0.997268 -0.0422956 8.73181e-21)
(0.52521 -0.620049 -4.95547e-20)
(1.23733 -0.568243 0)
(-0.221714 -0.0839654 -1.02246e-19)
(1.00009 -0.000438039 0)
(-0.344228 -0.0805029 5.99824e-20)
(1.03678 -0.019605 0)
(0.939322 -0.611565 1.14157e-21)
(1.20172 0.00815569 9.09855e-21)
(1.0337 -0.00995436 -2.19509e-22)
(1.05029 -0.0388474 -1.08411e-21)
(0.969419 -0.0745376 -1.06528e-20)
(1.44083 0.0627524 0)
(0.977638 -0.0703578 -1.84087e-20)
(1.251 -0.259853 2.35252e-22)
(1.26408 0.0718492 1.24159e-20)
(0.99764 -0.259469 1.82361e-20)
(1.03056 -0.0466437 0)
(1.02632 -0.0306561 5.2623e-21)
(0.964856 -0.102781 0)
(0.388189 0.0917788 4.29649e-20)
(1.00586 -0.0245982 6.47448e-21)
(0.925361 -0.174553 -1.67715e-20)
(1.02239 -0.00693907 2.00564e-21)
(-0.34004 -0.459511 3.17652e-20)
(1.00008 -0.00152197 0)
(0.95786 -0.0859856 2.95364e-20)
(1.06739 0.00435925 -1.75786e-21)
(1.02523 -0.0125879 2.03613e-21)
(-0.288097 -0.0529518 1.36146e-19)
(1.31304 0.048587 -3.27491e-20)
(0.189693 -0.462081 0)
(1.03838 -0.134574 6.39965e-21)
(0.421187 -0.136452 -1.92909e-21)
(1.15934 -0.00802256 0)
(1.03688 -0.0136243 2.08709e-22)
(1.12755 0.045321 2.34563e-20)
(-0.168472 -0.0637774 0)
(1.10416 -0.0592595 9.07761e-21)
(1.05203 -0.0380089 8.61239e-22)
(0.450569 0.0981557 4.20656e-20)
(0.778203 0.100928 0)
(1.00298 -0.021934 1.66622e-20)
(-0.289248 -0.0728309 0)
(0.0242683 -0.069433 0)
(1.06599 -0.0291699 2.81678e-21)
(1.06983 -0.00848311 0)
(1.23728 -0.180477 2.60982e-20)
(0.961662 -0.0512341 -1.71605e-20)
(1.00019 -0.035504 0)
(0.870793 -0.994258 0)
(-0.368043 -0.106164 -2.15647e-20)
(-0.162974 -0.0236751 0)
(0.494514 0.0969859 -9.0573e-20)
(1.00003 -0.0325013 -2.71817e-20)
(0.658668 -0.279322 0)
(1.00894 -0.0291359 0)
(1.01066 -0.0222795 -2.69474e-21)
(1.03578 -0.0133297 -2.09734e-22)
(-0.198671 -0.078386 0)
(1.0212 -0.00154242 2.48828e-21)
(1.02661 -0.0566788 -6.18688e-21)
(-0.299622 0.0837365 2.11537e-22)
(-0.316402 -0.0643907 -1.70172e-19)
(1.08436 -0.047166 1.26652e-20)
(1.49891 -0.0925161 1.36415e-19)
(1.12412 -0.128188 -8.99803e-21)
(1.00528 -0.00975857 0)
(0.386858 0.0256082 0)
(1.12573 -0.0234871 -2.25404e-22)
(1.22187 -0.556597 0)
(1.01836 -0.0878553 0)
(1.05121 -0.609652 -6.05279e-22)
(1.03254 -0.000290302 -8.59259e-22)
(1.10528 -0.000706245 -6.41362e-21)
(1.00002 -0.00107801 1.35184e-20)
(1.27076 -0.406637 7.63373e-20)
(1.03145 -0.0461187 0)
(-0.231503 -0.0797051 2.64179e-20)
(0.237589 -0.113738 0)
(1.37467 -0.0640121 -9.13108e-20)
(-0.140057 -0.0396255 9.42808e-23)
(-0.220037 -0.0776282 0)
(0.920849 -0.131723 4.43185e-20)
(-0.362916 -0.0557762 -1.65159e-19)
(1.37516 -0.289447 0)
(1.26022 0.0799625 1.71161e-20)
(0.960686 -0.0558211 5.69816e-21)
(1.04887 -0.0380769 1.05299e-21)
(-0.14094 -0.0967708 -4.6365e-20)
(0.682193 0.0807385 0)
(1.49693 -0.164498 -4.98208e-20)
(1.28299 -0.330338 -1.15045e-19)
(1.13789 -0.300317 -3.20148e-20)
(1.00109 -0.0256147 8.15001e-21)
(1.04374 -0.141016 5.28694e-22)
(0.25308 0.0816406 9.126e-20)
(-0.202925 -0.0602276 2.34653e-19)
(1.00862 -0.0339609 1.66394e-22)
(1.07987 -0.0918613 0)
(-0.162859 -0.0229949 -3.1374e-20)
(0.140738 -0.113274 -7.52804e-20)
(-0.0308107 -0.0776007 -1.27127e-19)
(1.32458 0.00689451 6.02308e-20)
(1.00792 -0.000331933 3.38532e-21)
(0.9644 -0.0879165 3.47373e-20)
(-0.354748 -0.0810378 1.26084e-19)
(-0.0920276 -0.100189 0)
(1.01537 -0.00305279 -2.67989e-21)
(1.13864 -0.00660797 -2.8547e-20)
(1.01846 -0.00567164 -2.60994e-21)
(0.749249 -1.01901 -8.44664e-22)
(0.997667 -0.0178035 0)
(1.47323 -0.0167817 -8.26319e-20)
(1.14286 -0.296823 3.66406e-20)
(1.00331 -0.0215798 1.45283e-20)
(1.05783 0.00575579 0)
(-0.331503 -0.0588423 3.5514e-20)
(0.999028 -0.0294415 0)
(1.09809 -0.104379 5.49907e-21)
(0.996674 -0.0410514 -8.87822e-21)
(1.0116 -0.000827143 9.48107e-23)
(1.00722 -0.0436428 4.43884e-23)
(1.12624 -0.742658 -2.84603e-20)
(0.900254 -0.434391 -3.30441e-20)
(1.45805 -0.152751 -3.5437e-20)
(0.348207 0.0785866 -6.42934e-20)
(-0.32191 -0.0614385 8.50916e-20)
(-0.540876 0.142225 0)
(1.00004 -0.00090779 -1.83202e-20)
(1.47369 0.00337844 0)
(0.909579 -0.0808493 5.92121e-20)
(1.11167 -0.0797511 -2.16015e-20)
(1.45903 -0.289038 -9.94795e-20)
(1.00088 -0.0266653 0)
(0.99185 -0.0440848 -2.38456e-21)
(1.044 -0.0150829 0)
(0.418021 -0.937378 -2.6444e-20)
(-0.105708 0.0623665 -9.01432e-20)
(0.381597 -0.839738 2.02204e-20)
(1.0013 -0.0351229 -2.28323e-20)
(1.00927 -0.167194 -1.02014e-20)
(1.03744 -0.0117906 -3.66138e-24)
(1.03529 -0.0135838 1.22316e-22)
(1.03173 0.000255705 -1.86538e-21)
(1.01098 -0.111419 -1.05636e-20)
(0.996285 -0.261571 -1.95264e-20)
(-0.327143 -0.452435 7.21115e-22)
(0.934422 -0.168226 1.52381e-20)
(1.01044 -0.022616 0)
(0.973073 -0.559716 -2.05282e-21)
(0.740161 -1.01584 -2.7984e-20)
(0.850924 -0.269482 1.20139e-21)
(1.00974 -0.0228711 5.89095e-21)
(-0.0604889 0.0518483 -1.15422e-19)
(-0.236295 -0.0821354 0)
(1.00879 -0.0331532 1.42848e-20)
(-0.179786 -0.0762394 -1.16666e-19)
(1.43822 -0.310696 -8.27413e-20)
(1.20164 0.023472 0)
(1.00811 -0.169761 0)
(1.00027 -0.01296 0)
(1.03321 -0.109103 -2.96136e-21)
(1.2146 -0.335399 0)
(-0.150875 -0.0508873 -1.27606e-19)
(1.31974 0.0698288 -1.74055e-20)
(1.05363 -0.0364397 -2.59367e-22)
(-0.224034 -0.430399 -5.30287e-20)
(-0.330143 0.00312649 7.96284e-20)
(-0.334744 -0.056861 -8.83919e-20)
(1.06936 -0.0075953 9.9924e-22)
(-0.30801 -0.0673817 0)
(1.38239 -0.216442 -3.28944e-21)
(-0.355723 -0.0777704 0)
(0.856191 -0.304789 0)
(0.0784435 -0.0962832 -8.10845e-20)
(1.04596 -0.0173546 0)
(-0.317037 -0.0644309 1.85699e-19)
(0.566991 0.104927 0)
(1.43703 0.0675369 0)
(1.02536 -0.0591489 0)
(1.05302 -0.00303748 0)
(1.05942 -0.150157 -2.82562e-23)
(1.38256 0.0459056 0)
(1.04582 -0.0577506 -7.09449e-22)
(1.37181 -0.0748094 1.23493e-19)
(1.02038 -0.0860011 0)
(1.19651 -0.551287 2.83093e-20)
(1.14477 -0.0527561 0)
(-0.35468 -0.0786369 0)
(-0.484397 0.15656 8.55156e-20)
(1.03787 -0.0201457 -4.41847e-23)
(1.4584 -0.274777 0)
(1.10262 -0.29585 1.06923e-20)
(1.31884 -0.000455861 -1.15003e-19)
(1.30357 -0.148397 0)
(-0.0794355 0.0583032 3.89376e-20)
(1.00316 -0.0309126 -1.03527e-20)
(1.27649 -0.314053 0)
(0.699365 -0.304114 2.89888e-20)
(1.39274 -0.311832 -1.37177e-19)
(-0.0106476 -0.0837674 0)
(1.00212 -0.0512829 0)
(0.121375 -0.104651 -1.19126e-19)
(0.419864 -0.127909 -2.77385e-20)
(0.995967 -0.0372974 -1.54354e-20)
(0.10279 -0.00380286 -1.10126e-19)
(1.32771 -0.308266 -4.89569e-20)
(1.01467 -0.00338532 -2.19886e-23)
(0.119189 -0.0371185 0)
(-0.181179 0.289901 -2.72901e-20)
(1.03913 -0.0758672 3.00037e-21)
(1.16441 -0.166915 0)
(-0.184249 -0.0431102 6.20973e-22)
(0.995342 -0.0362403 -9.3493e-21)
(-0.0207994 -0.0557834 -1.30182e-19)
(1.00297 -0.0557372 -1.73699e-20)
(1.00299 -0.038152 -1.2787e-20)
(0.992005 -0.0434565 2.41124e-21)
(1.16587 -0.0286054 -3.93251e-20)
(1.00986 -0.0224272 0)
(1.03299 -0.000985347 1.21878e-21)
(-0.543085 0.146871 9.16416e-20)
(0.99997 -0.000495962 -1.76241e-20)
(1.10418 -0.0639468 -1.5743e-20)
(1.06634 -0.0254908 5.42732e-21)
(0.753957 0.086251 4.85569e-20)
(0.889915 -0.223413 0)
(1.00274 -0.0309537 1.36997e-21)
(1.04288 -0.0175015 -2.22094e-22)
(-0.0133147 -0.0571298 -8.92521e-20)
(1.02539 -0.0652797 0)
(0.649726 -0.752046 4.58823e-20)
(0.171956 -0.578079 0)
(1.05003 -0.171766 -1.46875e-21)
(1.17579 0.124198 -2.94282e-20)
(1.01171 -0.107429 1.74018e-20)
(1.13878 0.00565842 3.3319e-20)
(0.340805 -0.120848 -3.40266e-20)
(1.34188 0.126634 0)
(0.917362 -0.138757 -4.11886e-20)
(1.01048 -0.0395993 0)
(1.04583 -0.175991 1.12206e-21)
(1.11638 -0.123823 0)
(1.46293 -0.146556 0)
(1.07155 0.00704116 0)
(1.00739 -0.0220143 0)
(1.22148 0.00858587 -3.78869e-20)
(0.999467 -0.00505866 1.23225e-20)
(-0.324835 -0.0530273 1.53001e-22)
(1.15941 -0.232627 -3.46593e-20)
(1.02268 -0.0646534 0)
(1.00316 -0.020009 -9.08872e-23)
(1.12639 -0.0841781 2.86342e-20)
(1.08295 -0.139642 -3.83184e-21)
(0.226417 -0.577204 0)
(0.985323 -0.0394478 -2.57514e-20)
(1.02261 -0.0112679 6.06375e-22)
(0.188742 -0.470141 0)
(1.00512 -0.0407452 -7.43637e-22)
(1.45667 -0.0190669 -6.25402e-20)
(1.12474 -0.425279 -2.12942e-19)
(1.04786 -0.145843 3.80029e-21)
(-0.0277384 0.0519619 6.87516e-20)
(1.00035 -0.0117787 0)
(-0.329099 -0.0818777 0)
(1.00086 -0.015618 -1.11614e-20)
(1.30314 -0.154153 -1.49898e-20)
(0.64165 -0.772211 -1.01105e-20)
(1.3472 0.114262 7.04284e-20)
(1.19231 -0.0646747 0)
(1.00853 -0.00647377 -4.1596e-21)
(1.29688 -0.161325 4.89652e-20)
(1.07766 -0.0121454 5.06334e-21)
(-0.24054 -0.078952 -1.61625e-19)
(-0.322553 0.0945795 -1.15389e-19)
(1.22072 -0.589958 -7.00582e-20)
(1.29376 -0.437483 8.20402e-20)
(1.23463 -0.0912905 0)
(1.01642 -0.09074 6.51501e-21)
(1.04189 -0.109809 1.82418e-21)
(-0.321596 -0.0621154 -1.26768e-19)
(-0.360987 -0.0885467 7.03314e-20)
(1.00945 -0.0383157 0)
(0.625159 -0.0335439 2.25759e-20)
(1.29954 0.0648153 -2.18599e-20)
(1.02318 -0.0121433 -5.90748e-22)
(0.718323 -0.24384 0)
(1.37564 0.059124 -1.52352e-20)
(1.46509 -0.0827853 6.57627e-20)
(1.04329 -0.018687 -9.26593e-22)
(-0.366103 -0.109259 0)
(0.453737 -0.0841786 -1.61379e-20)
(-0.321925 -0.0947027 1.57444e-19)
(-0.0805302 -0.0997834 0)
(0.309553 0.0909773 -4.60162e-20)
(-0.363367 -0.0286426 1.07385e-19)
(1.23685 -0.0924477 1.27575e-20)
(1.00528 -0.00629274 5.33419e-21)
(0.912403 -0.0889192 2.90645e-20)
(1.16059 -0.154361 1.0737e-20)
(1.00426 -0.031646 9.82917e-21)
(1.03842 -0.0752162 0)
(-0.26473 -0.0645405 -1.77588e-19)
(1.0663 0.00906185 -6.75669e-21)
(1.24174 -0.187018 -3.85276e-20)
(-0.357847 -0.0603436 0)
(0.733237 -0.652265 0)
(-0.493161 -0.4011 -6.7854e-20)
(0.864297 -0.207463 1.52207e-20)
(1.06674 -0.173642 -1.10942e-19)
(1.33459 -0.266161 -1.1362e-19)
(1.25611 -0.250358 0)
(1.00002 -0.000259815 1.10729e-20)
(-0.181559 -0.0747436 0)
(1.00886 -0.000768798 3.83563e-21)
(0.618039 0.0662931 -2.5215e-20)
(0.848045 -0.361022 -8.28866e-20)
(1.00069 -0.00677473 0)
(1.2489 0.0828225 1.45529e-20)
(0.991404 -0.0505884 -3.11892e-20)
(0.78414 -0.108861 1.81059e-19)
(-0.332893 0.0909892 9.9557e-20)
(1.06787 -0.634203 0)
(1.32106 -0.461078 3.27609e-21)
(1.03391 -0.00463373 0)
(1.02765 -0.0711373 4.8454e-21)
(-0.316037 -0.0638035 0)
(1.10518 -0.396231 9.70131e-21)
(-0.186501 -0.0571544 -9.37961e-20)
(1.03365 -0.00421533 0)
(1.00785 -0.0229835 1.13526e-20)