/*--------------------------------*- C++ -*----------------------------------*\
| =========                 |                                                 |
| \\      /  F ield         | OpenFOAM: The Open Source CFD Toolbox           |
|  \\    /   O peration     | Version:  v2012                                 |
|   \\  /    A nd           | Website:  www.openfoam.com                      |
|    \\/     M anipulation  |                                                 |
\*---------------------------------------------------------------------------*/
FoamFile
{
    version     2.0;
    format      ascii;
    class       surfaceScalarField;
    location    "350";
    object      phi;
}
// * * * * * * * * * * * * * * * * * * * * * * * * * * * * * * * * * * * * * //

dimensions      [0 3 -1 0 0 0 0];
oriented        oriented;


internalField   nonuniform List<scalar> 
27506
(
-0.0243054
0.015214
0.00909144
0.296128
0.206222
-0.50235
-0.249316
-0.126007
0.375323
0.00313883
-0.00458225
0.00144342
0.263225
-0.173997
-0.0892276
-0.239991
0.156917
0.083074
0.168183
0.0950416
0.0552988
-0.155406
0.100107
-0.0656332
0.0270117
0.0386215
0.155401
0.105084
-0.260485
-0.102902
-0.0684516
0.171354
-0.231696
0.339743
-0.108047
0.00559882
0.000612642
-0.00621146
0.0661647
-0.272306
0.206142
0.00561502
0.00714187
-0.0127569
-0.0337724
0.10525
-0.0714778
-0.0428397
0.101524
-0.0586842
-0.0988084
0.117314
-0.0185056
0.00246844
-0.00098726
-0.00148118
-0.0168488
-0.00763078
0.0244796
-0.0682038
0.00667081
0.061533
-0.0589369
0.146679
-0.0877421
-0.495006
0.228911
0.266095
0.00108046
0.00224081
-0.00332127
0.173361
-0.118062
0.0625293
-0.147735
0.0852053
-0.00369368
0.000147392
0.00354629
-0.0877286
-0.0607525
0.148481
0.0888631
0.120293
-0.209156
0.0620325
-0.0313241
-0.0307084
-0.0624208
0.358549
-0.419307
0.227956
0.19135
-0.0636748
-0.0548774
0.118552
-0.000953758
-0.000368609
0.00132237
-0.0873761
0.162186
-0.07481
0.00506525
-0.00192642
-0.13243
0.0734929
0.124267
-0.401814
0.277547
0.433903
-0.318883
-0.11502
-0.0213699
0.060554
-0.0391841
-0.072951
-0.341116
0.414067
0.403771
-0.130929
-0.272842
0.00983285
-0.000640767
-0.00919208
0.0317565
-0.0476398
0.0158833
0.0764538
-0.164182
0.143306
-0.0807766
0.0569508
-0.07516
0.0182092
-0.393086
0.14377
0.0123792
-0.080583
0.0839597
0.111853
-0.195813
0.298766
-0.232601
0.00954498
-0.0108679
0.0013229
-0.025439
0.00859017
-0.580361
0.436687
0.143673
0.182361
-0.117154
-0.0652063
0.0673778
-0.222792
0.155414
5.24527e-05
0.00554637
0.00416692
-0.00604513
0.00187821
-0.00719696
0.0129072
-0.00571027
-0.326024
0.010235
-0.00600092
-0.00423409
-0.121565
-0.0891123
0.210678
-0.172182
0.115983
0.0561994
-0.126491
0.0758978
0.0505935
-0.029466
0.0126688
0.0167972
0.322748
-0.106602
-0.216146
0.0797992
-0.0625739
-0.0172254
0.589864
-0.426617
-0.163247
0.0116867
-0.0123082
0.000621546
0.273332
-0.401834
0.128502
-0.15583
-0.0732128
-0.0262611
0.0994739
0.115477
-0.1528
0.0373227
0.00455518
-0.00038826
-0.0734985
0.161273
-0.0877745
-0.121577
0.0742147
0.0473627
-0.11611
0.0732704
-0.450924
0.49123
-0.0403065
-0.151924
0.0531161
-0.0491937
0.11665
-0.067456
-0.123862
0.201432
-0.0775699
-0.0245832
-0.0376428
0.062226
0.297027
0.249612
-0.546639
-0.150585
0.0480365
0.102548
0.00747895
0.00275606
0.0132088
-0.00712619
-0.00608263
0.0416668
0.233085
-0.274752
-0.13131
0.47324
-0.34193
0.0557091
0.112746
-0.168455
0.00794723
0.0052616
-0.120884
0.0904802
0.0304034
0.106379
-0.124901
0.0185215
-0.0555511
-0.0620716
0.117623
-0.468129
0.460504
0.00762501
-0.109752
0.248419
-0.138667
0.2486
-0.093199
0.205577
-0.0968216
-0.108755
-0.1984
0.148522
0.049878
-0.0166896
0.0150056
0.00168407
-0.00320178
0.000707537
0.00249425
-0.0757566
0.317025
-0.241268
-0.462351
0.478081
-0.0157297
-0.125748
0.076554
-0.0889183
0.055146
-0.00116502
-0.00654187
0.00770688
0.0555445
-0.119219
-0.282446
0.20669
0.0025979
-0.00224747
-0.000350431
-0.112043
-0.0601395
-0.167615
0.194071
-0.026456
0.00187992
-0.00187993
-0.000261652
-0.00258348
0.00284513
0.00473875
-0.455663
-0.217741
0.0846627
0.133079
0.00556099
-0.0108873
0.00532634
0.152992
-0.0193996
-0.133593
-0.0802594
0.144688
-0.0644283
-0.0696037
-0.128796
-0.168763
0.0813867
-0.188391
-0.0515994
0.00425019
-0.00178175
0.0562513
-0.0327153
-0.023536
-0.00485633
0.0100427
-0.0051864
-0.0206266
0.0396872
-0.0190606
-0.401688
0.394357
0.00733078
-0.126861
0.215724
0.25214
-0.0729352
-0.179204
-0.120528
0.0586336
0.0618947
0.0104807
-0.000647842
-0.0766691
-0.0449083
-0.103343
0.0800807
0.023262
0.106885
0.046107
-0.168351
0.0948523
0.0434927
-0.0556028
0.0121101
-0.275852
-0.117234
-0.463052
0.069403
0.393649
-0.18264
0.0797381
-0.110673
0.208171
-0.0974978
0.0581515
0.166502
-0.224654
0.229373
0.0933752
-0.0182337
-0.0112323
-0.0684168
0.134378
-0.0659609
-0.208579
0.126822
0.0817565
-0.00156708
-0.0595823
0.313343
-0.253761
-0.199485
0.479346
-0.279862
0.162299
0.089841
0.00348032
0.0400124
0.0682521
-0.178925
0.0489131
0.00733823
-0.458893
0.297082
0.161811
0.251143
-0.0863518
-0.164791
0.119678
0.227587
-0.347264
-0.00825447
0.00657226
0.00168222
0.051509
-0.0061747
-0.0453343
-0.0261814
-0.0394519
-0.0481456
0.0235624
0.23709
-0.296672
-0.411681
0.160171
0.25151
-0.00102638
0.00362429
-0.10158
0.163275
-0.0616944
0.152016
0.00262162
-0.154638
-0.544791
0.360116
0.184676
-0.400696
0.124844
0.00783377
-0.00882103
-0.329351
0.0976555
0.0518671
-0.0240929
-0.0277742
-0.0568064
-0.0637219
0.0149061
-0.00929112
0.297239
-0.113985
-0.183254
-0.46328
0.33197
-0.117483
-0.0910873
0.20857
-0.133714
-0.0783114
0.212025
0.175067
-0.119358
-0.255719
-0.0134126
0.269132
-0.0145377
0.0287477
-0.01421
0.0975208
-0.219086
0.0025531
-0.00362941
0.00107631
0.0330882
0.0184209
0.0679304
0.00897394
-0.0769043
-0.186963
0.200542
-0.0135787
0.0525628
0.0613639
-0.113927
-0.032303
0.184319
-0.0162558
0.122635
0.127483
0.0141797
-0.141663
0.00528177
-0.000295829
-0.00498594
-0.178532
0.246397
-0.0678647
-0.166193
0.248715
-0.082522
0.10449
-0.0450203
-0.05947
0.0558428
-0.136102
-0.206764
0.0892813
-0.222482
0.09862
-0.00386833
0.00118448
0.00268385
-0.37875
-0.0229387
0.0119594
0.0463141
-0.0582735
-0.186203
-0.225478
-0.238527
0.157958
0.0805686
0.043269
0.0495225
-0.0927915
-0.0400873
-0.110498
-0.183103
0.109721
0.0733816
-0.0600084
0.143731
-0.0837226
-0.0932772
0.144797
-0.0515198
-0.0358492
-0.0847347
0.120584
-0.121514
0.205474
-0.0186823
0.0167582
0.00192415
0.00213504
-0.0023967
0.216671
-0.335701
0.119031
0.00485819
0.000207056
-0.00233567
-0.00287505
0.00521072
0.193934
-0.161201
-0.0327334
-0.252723
-0.166583
-0.00766313
0.0128236
-0.00516048
0.00402303
-0.00146993
0.30547
0.123042
-0.428512
-0.112169
0.0566175
-0.168801
0.186071
-0.0172701
0.0130739
-0.0337005
-0.0472227
-0.0396417
0.0868644
0.00324867
-0.00216821
0.0458288
0.0275909
-0.0734197
0.00210507
-0.0097682
-0.0584048
0.125869
-0.0674646
-0.0219118
-0.0387699
0.0606818
0.0468134
0.014932
-0.0617454
-0.019596
0.0765468
0.00783377
0.184673
-0.17972
-0.00495279
0.171008
0.0229265
0.00874623
0.00294045
-0.0879917
-0.0703915
0.158383
0.0814001
0.124177
-0.0448402
-0.0643384
0.109179
0.114262
0.0012146
-0.237364
0.140542
-0.263376
-0.281415
-0.268322
0.140186
0.128135
-0.0728683
0.314562
-0.241693
-0.128853
0.111448
0.0174055
-0.161707
0.0601263
-0.10194
0.0660907
0.022416
-0.0124389
-0.00997709
0.058396
0.0295505
-0.0879465
0.0415651
-0.107738
0.0661733
0.179583
0.00508996
-0.0129581
-0.00572422
0.00472825
0.00208099
-0.00680923
0.295464
-0.368415
0.468875
-0.341061
-0.127815
0.211103
-0.16389
-0.0472129
-0.0758511
0.21977
-0.143919
0.121478
-0.0514267
-0.0700514
-0.00579841
0.00346273
-0.00398452
0.0127527
-0.00876822
0.168918
0.0822242
-0.00498875
0.132472
-0.0726573
-0.053834
0.0455559
-0.117561
0.072005
0.0138495
-0.0310317
0.0171822
-0.209642
-0.119709
-0.00113061
0.000444213
0.000686393
-0.134619
0.0619613
-0.00248429
0.00288629
-0.000402006
0.238297
-0.0829437
-0.155354
-0.0309558
-0.0341896
0.00828137
-0.00862098
0.000339617
0.0536778
0.157425
-0.0211892
-0.0246381
0.0458273
-0.00639564
-0.0140823
0.020478
0.421295
-0.118572
0.424042
0.0122794
-0.012505
0.00022553
0.000285361
0.00499641
0.0287622
-0.00772053
-0.0210417
0.0932135
0.154043
-0.247256
0.0907724
0.037135
-0.127907
-0.00339085
0.00848527
-0.00509442
-0.260033
0.379711
-0.0571245
0.167667
-0.110542
-0.0926821
-0.0282015
-0.237612
0.370034
-0.132422
0.184054
0.244231
-0.428285
0.0105972
0.00430891
0.0227934
-0.167769
0.144976
-0.307832
0.234963
-0.0233432
-0.00839625
0.0317395
0.365483
-0.0921513
0.0115377
0.0125343
-0.0240719
-0.157388
0.0693965
-0.00109759
-0.0036605
0.00475809
0.142698
-0.0589393
-0.0837589
-0.00269349
-0.0452375
0.0910663
0.12656
-0.0786768
-0.0478828
0.400474
-0.150862
-0.0247519
0.05047
-0.0257181
-0.192002
0.144732
0.04727
0.101754
-0.0584848
0.0832976
0.0242305
-0.0717097
0.0474792
0.044933
-0.0329736
-0.302475
0.132627
0.169848
0.0135221
-0.00719457
-0.00632748
-0.111725
0.0734584
0.0382665
0.0565763
-0.0906093
0.034033
-0.0874516
0.0719712
0.0154805
-0.382807
0.269485
0.113322
0.0146969
0.0077191
-0.324995
-0.133897
-0.0185916
0.032441
-0.432085
0.179362
9.45091e-05
-0.000387254
0.000292745
-0.185295
0.291414
-0.10612
0.00332169
-0.00671254
-0.0762284
0.0709946
0.0226363
-0.0936309
0.0190882
0.00175159
-0.0208398
-0.00440452
0.0115464
0.357624
-0.203333
-0.154291
0.0379544
-0.0598662
-0.00991539
0.00353448
0.00638091
-0.00260528
-0.00653366
0.00913894
-0.0436118
0.0431386
0.000473185
0.184924
-0.260775
-0.0103032
0.00310627
0.237075
-0.115604
-0.121471
-0.32704
0.236902
0.0901381
-0.218946
0.121485
0.0974605
-0.137636
-0.0801051
-0.376707
0.0389013
0.337806
-0.410652
0.0504151
0.360237
0.26939
-0.14403
0.0756133
-0.0395027
0.0513302
-0.0118275
-0.0999277
-0.0289258
-0.0698354
-0.0335072
-0.0148272
-0.0618418
0.115904
0.181335
0.0973038
0.340875
-0.438179
-0.00427319
0.00767203
-0.00339885
0.0714093
-0.014833
-0.162248
-0.00655277
-0.0478368
-0.160742
0.156854
0.0672013
-0.224055
0.0626627
0.0171366
-0.136755
0.0835511
0.0532043
0.0517062
-0.0363119
-0.0153944
-0.399094
0.161482
-0.123898
0.0654933
-0.123219
0.223159
-0.0999396
-0.00454075
-0.0299702
0.034511
0.00286473
-0.050451
0.0475863
0.323108
0.10043
-0.423538
-0.0539505
0.0291987
-0.0682221
-0.185783
0.254005
0.281331
0.179281
-0.460611
0.0119932
-0.0209799
0.00898678
-0.317982
-0.106171
0.424153
0.396105
-0.168518
-0.185275
0.313627
-0.128352
-0.00076625
-0.000364356
-0.0729936
-0.119009
-0.272829
-0.127867
-0.100194
-0.282613
-0.181034
-0.00592942
-0.00692982
-0.0039575
0.12531
-0.0670633
-0.0582468
-0.150288
-0.199285
0.0932127
0.310558
0.185972
-0.299957
-0.176526
0.386097
-0.209571
-0.00468624
0.00397538
0.000710857
-0.447341
0.338579
0.108762
-0.0488682
0.121692
-0.0728243
0.101986
0.0802754
-0.182261
0.420412
-0.0610077
-0.0507172
-0.117523
0.0642131
0.0424154
-0.106628
0.210478
-0.187684
0.00148597
0.00297868
-0.00446466
0.0318974
-0.0477608
0.0158634
-0.44195
0.116954
0.0930497
0.0284283
0.0554278
-0.100268
0.0753873
0.0638772
-0.139264
0.213379
0.265967
0.0369484
-0.0321313
-0.00481707
0.0473331
0.0146994
-0.405288
0.468608
-0.0633208
0.0208856
0.0621577
-0.0830433
0.0250671
-0.120682
-0.321268
-0.0712047
-0.11286
0.184065
0.00874995
0.00477211
-1.10647e-06
-0.00468513
0.235415
0.134158
-0.369573
-0.00450984
0.00239743
0.00211242
0.000453976
0.00440421
-0.433531
0.0282434
-0.0155955
0.0271332
0.0139327
0.00216288
-0.0160956
0.0278307
0.0240364
-0.238594
0.115375
0.203698
0.183853
-0.387552
-0.193801
0.167944
0.0258573
-0.28545
-0.0685729
0.354022
-0.0215459
0.0465677
-0.0250218
0.00297163
-0.00782796
0.274655
-0.215452
-0.059203
-0.0386827
0.132582
-0.0938991
0.00437497
-0.00288899
-0.0108197
0.00683522
-0.0604039
-0.402199
0.12937
-0.0451808
-0.14862
-0.00588536
-0.011338
0.0172233
-0.0739594
0.414834
-0.0785027
-0.144289
0.101757
-0.0601917
0.0063206
-0.0458233
-0.0601204
0.0354139
0.0247065
-0.0116366
0.217831
-0.00277626
0.0123212
0.472763
-0.355263
-0.1175
-0.133573
-0.038127
0.1717
0.314159
0.158605
0.00603347
-0.0325251
0.0264916
-0.16768
0.12004
0.0476397
0.14687
-0.0910275
-0.319117
-0.0915353
-0.00479682
0.00310397
0.00169285
0.208603
-0.123968
-0.0846355
-0.014618
0.00822231
0.0894962
0.11646
-0.205957
-0.0166896
-0.342616
-0.152391
0.337499
-0.451019
0.11352
0.0177546
-0.221618
-0.0938727
0.315491
0.00577217
0.0311762
-0.174712
0.00709675
0.00298183
0.0438316
-0.000593643
-0.00684398
0.00743762
-0.097742
0.306509
-0.208767
-0.105029
-0.177365
0.282394
0.186286
0.0414113
-0.227697
0.0058982
-0.00649184
-0.348644
0.139002
-0.24737
-0.177096
0.424466
0.00945203
0.0184137
-0.0278657
-0.00196722
-0.00254263
0.00711117
-0.470163
0.470094
-0.339093
-0.131001
-0.399173
0.25872
0.140453
-0.118559
0.238172
-0.199319
0.132299
0.0670198
0.201024
0.00484995
-0.00915257
0.00430262
-0.00369368
0.0942032
-0.253618
0.159415
0.0581422
-0.313861
-0.108826
-0.110119
0.103863
0.484623
-0.163311
-0.321312
-0.0477483
-0.0644203
-0.0210178
0.00648016
-0.266544
0.179567
0.0869771
-0.0497104
0.10632
-0.0566098
-0.0411382
0.131911
-0.040062
0.0355212
-0.024789
-0.00446152
-0.00558548
0.010047
-0.00148781
-0.000148781
0.00163659
0.013626
0.0380802
-0.162229
0.351201
-0.188972
-0.00145333
-0.00334349
-0.424623
-0.0377283
0.0493815
0.0343904
-0.0837719
-0.0738989
-0.39423
-0.140082
0.0829571
0.178186
0.233202
-0.411389
-0.0390383
0.0178491
0.11147
-0.261022
0.149552
-0.18071
-0.0858347
-0.104783
-0.0639794
-0.101676
-0.066675
-0.00393175
-0.00598364
-0.177242
-0.101882
0.279124
0.209259
-0.116045
0.0285535
-0.0160192
-0.165113
0.0902797
0.0748335
-0.0573549
0.0359849
0.0090002
-0.00960007
0.000599875
0.00222173
0.000675697
-0.00289743
0.026568
-0.0281475
0.00157955
-0.216055
0.0784184
-0.00485646
0.00237218
-0.0485092
-0.0693974
0.117907
-0.11325
-0.0693902
0.0460513
-0.0324253
0.0585442
0.0227524
-0.0812967
-0.330666
0.0481467
-0.0953695
0.512359
-0.354947
-0.157413
0.0693054
-0.057675
0.0605397
-0.25687
0.235209
0.0216608
0.0583743
0.0167839
-0.0751582
0.00243171
-0.0025577
0.000125991
-0.215307
-0.0871679
0.140805
-0.259365
0.229558
-0.360486
-0.13837
0.0996877
0.00647073
0.0019648
-0.00843553
0.207216
-0.10523
-0.229984
0.0419836
0.188001
-0.30883
0.380283
-0.0714535
-0.000507855
0.00368637
-0.00317851
0.30526
0.284604
-0.00230943
0.0310716
-0.0169995
0.290558
-0.273558
0.0813681
-0.0961953
0.0538345
-0.029604
-0.176486
0.0748107
-0.369478
0.207249
0.159891
-0.379211
0.21932
0.00422237
-0.00531996
0.0572681
-0.366098
0.266141
-0.224474
-0.00286726
0.0106499
-0.00778268
-0.0295964
0.0879924
0.0983228
0.0282368
0.130624
0.521768
-0.297465
-0.224303
0.106214
-0.291508
0.012365
-0.0139865
0.00162156
-0.00769014
0.0756205
-0.089186
0.151028
-0.0618419
0.33363
-0.11385
-0.21978
0.114308
0.323876
-0.438184
-0.0632517
-0.0332764
0.0965281
0.0597502
-0.108618
0.0579407
0.0604707
-0.118411
-0.110976
-0.172058
-0.415769
0.0462913
0.00610309
-0.0105646
-0.000405373
0.0127704
-0.124055
-0.0668732
0.190928
0.141376
-0.223112
0.0817351
-0.161028
0.0376446
0.123384
-0.282941
-0.119258
0.0746305
0.0680676
0.0138883
-0.0279706
0.385654
-0.207468
-0.229212
0.148388
0.080824
0.0520434
0.0544928
-0.0225954
0.00554738
-0.00667707
0.00112969
-0.53525
0.0673688
0.467881
0.200355
-0.118955
-0.0746159
-0.141439
0.330347
-0.463367
0.13302
-0.00897201
-0.152056
-0.274318
0.0358865
0.238431
-0.000612222
0.00410333
-0.0034911
-0.405309
0.122368
0.0938644
-0.0353202
0.125644
-0.0532188
0.105782
-0.295566
-0.0795161
0.375082
0.248983
-0.054276
0.0856244
-0.0313484
-0.0193529
-0.237517
-0.0348978
-0.0252226
0.00100391
-0.00249172
-0.12657
-0.221339
0.347908
-0.0984401
-0.287347
-0.111826
-0.414235
0.317069
0.0971658
0.0554034
0.0721186
-0.127522
0.422302
-0.29926
-0.0161187
0.0132515
-0.00174587
0.00245295
-0.000707086
0.00378983
-0.00963712
0.00584729
-0.0985085
0.107095
-0.0085861
-0.349489
0.0760151
0.273474
0.0975101
-0.274752
0.250131
-0.155928
-0.0739656
0.119521
-0.0815722
0.193425
-0.423105
-0.0293961
0.452501
-0.286355
0.269356
0.233048
-0.121578
-0.012952
0.00590732
0.00704472
0.191566
0.166059
-0.329219
0.120402
0.208817
-0.0104448
-0.000182557
0.0106273
-0.268006
0.198552
0.0694539
0.169856
0.264046
-0.0211333
-0.0328172
-0.0688997
0.164293
-0.0953928
0.311992
0.0146782
-0.32667
-0.0545889
-0.0428311
0.09742
0.000570129
-0.00159651
-0.047299
0.122686
-0.116626
0.0688775
-0.180091
0.383789
0.375779
-0.224033
-0.151746
-0.165272
0.0963724
-0.278214
0.196912
0.0813024
-0.00367183
0.00316397
-0.00552515
0.00609528
-0.00185901
-0.00858576
-0.316721
0.131445
-0.00574548
0.0111888
-0.00544336
0.0204139
0.293214
-0.339121
-0.0825446
0.421665
-0.0218688
0.0508219
-0.0289531
0.354488
-0.251053
-0.103435
0.00274969
-0.00875559
0.0060059
-0.00335916
0.00815804
-0.00479887
0.590376
-0.139711
-0.450666
0.0102539
-0.00646403
-0.0769423
-0.0147509
0.0916932
-0.000226827
0.00244856
0.0967393
-0.114669
0.0179301
0.236738
-0.15059
-0.0861483
-0.0242939
0.011855
0.00323392
0.00512373
-0.00835764
-0.145813
-0.0934117
0.239225
0.00214768
0.000704747
-0.00285242
0.0026256
0.00815601
-0.0107816
0.000247542
0.00448071
-0.216388
-0.363973
-0.209987
0.3162
-0.20192
0.0688551
0.133065
0.0595055
-0.0997999
0.0402944
-0.0442372
-0.371532
-0.0864713
0.0126471
-0.00989741
0.00304412
-0.00352993
0.000485805
-0.162782
0.220934
-0.0712535
0.0252655
-0.0113328
0.0150183
-0.139569
-0.0829139
0.103496
0.0788647
0.38019
-0.193738
-0.186452
-0.175782
0.0625321
-0.00119313
-0.00369146
0.0048846
-0.366055
0.356396
0.00965921
0.205957
-0.394684
0.188727
0.177743
-0.304313
-0.103437
0.0302241
0.0352368
-0.0323207
0.344312
0.0129471
-0.018285
-0.0683199
-0.00859905
0.00788906
0.000709997
0.00379315
-0.369848
0.000490494
0.00147534
-0.00196583
0.0105601
0.0514794
-0.0620395
0.109033
-0.218785
0.00309521
0.00145997
-0.0668865
0.124827
0.280641
-0.0943549
-0.0172383
0.0402212
-0.0229829
-0.0506834
0.0291375
0.0577772
0.0275379
-0.0853151
-0.197082
0.142651
0.0544302
-0.00485345
0.0239416
0.0022864
-0.00354375
0.00125735
0.00396206
0.0544122
-0.00372833
0.00387572
-0.240209
0.0616768
-0.00648062
0.00220744
-0.000358511
0.00363417
-0.00327566
0.122352
0.185793
-0.308144
-0.121666
-0.159
0.280667
0.284262
-0.179178
-0.298467
-0.115768
-0.00320355
0.00163059
0.00157297
-0.115393
-0.0985655
0.213958
-0.22099
0.0872757
0.0615942
-0.207408
0.00545641
-0.00308046
-0.00237594
0.19844
-0.0949442
-0.152265
-0.086329
-0.126096
-0.0758243
0.344251
0.246126
-0.00360196
-0.000266369
-0.0296722
0.0357056
0.00274667
0.000348546
-0.0790636
-0.11839
0.197453
-0.00481231
0.00420008
-0.219364
0.490228
-0.270864
-0.058596
0.14869
-0.0900941
-0.252883
0.100618
0.00412388
0.00815556
-0.0494937
-0.0691617
0.118655
-0.341847
0.0229646
-0.0587471
-0.194312
-0.103641
0.297953
-0.0885978
0.426097
-0.431321
0.317122
0.114199
0.00861345
-0.0268297
0.0182162
0.0656698
-0.170453
0.0620878
-0.0632516
0.00116383
0.00502416
0.00609521
-0.0111194
0.414719
-0.296377
-0.118343
-0.276055
0.0660681
0.00262554
0.00424657
-0.00999204
0.0299199
0.0286321
-0.058552
-0.133638
-0.277718
0.411356
0.13742
0.284883
0.119175
-0.0258693
-0.0933056
-0.261459
0.406491
-0.145032
0.096988
-0.0339823
-0.0630057
-0.115611
0.0671019
-0.0766177
-0.0991643
0.331909
-0.442402
0.110492
-0.328354
-0.134926
-0.197956
0.136852
0.0611034
-0.0814816
-0.0558053
0.137287
-0.0714136
0.0635487
0.00786485
0.297709
0.0780696
-0.356075
-0.00675605
0.362831
-0.109649
-0.088307
0.0226223
-0.0768982
-0.0835739
0.166089
-0.0825153
-0.208805
0.132231
-0.0354914
-0.00937475
0.000775695
-0.435225
0.316654
-0.0222299
0.448391
-0.426161
0.00382895
-0.00154255
-0.129559
0.0362821
-0.0562025
-0.0951833
-0.440067
-0.0606338
0.145754
-0.0851207
0.0102752
-0.0102752
-0.118046
-0.0472259
-0.0503303
0.188038
-0.137708
-0.156336
0.106006
0.003538
0.0043679
-0.0079059
0.350745
-0.196197
-0.154549
0.013158
-0.0470091
0.0338511
-0.137441
0.0785015
-0.00739219
0.00403303
-0.293995
0.412655
-0.11866
0.418302
-0.0507369
-0.367566
0.422832
-0.445062
-0.251576
0.385201
-0.133625
0.0860451
-0.0701611
0.227015
-0.103107
0.0522453
0.0508622
-0.436293
0.0810297
0.119024
-0.224053
-0.00593399
0.00476898
-0.285139
0.422559
-0.303588
-0.143753
0.27555
-0.399971
0.124421
-0.0274436
0.0199234
0.00752026
0.0979603
-0.0384548
-0.461108
0.189948
0.27116
-0.135536
0.0540545
0.132336
-0.0421231
-0.090213
-0.0470412
0.188418
0.0695661
-0.127602
0.0580356
-0.0228214
-0.0381326
0.060954
0.0704895
0.0481521
-0.118642
-0.0401926
0.116408
-0.0762151
-0.141375
0.24294
-0.101565
-0.0717874
0.127191
0.0514072
0.366895
0.0818561
-0.0523056
-0.0828476
0.00185844
0.0809891
0.147046
-0.408505
0.062818
-0.143485
0.0806668
-0.0149957
0.0191241
-0.00412841
0.132003
-0.25367
0.00875921
0.00151603
0.0552176
-0.113565
0.0583469
-0.115906
0.0757136
0.21604
0.000898591
0.000981334
-0.0550426
-0.0786611
0.133704
-0.0542138
-0.0170482
0.071262
0.117611
0.0764598
-0.0509312
-0.00335026
0.00388157
-0.000531318
-0.404386
0.320403
0.0839828
-0.113624
-0.130704
0.244328
0.00272521
0.0027312
0.172069
0.0763497
-0.152639
0.0634533
0.0122967
0.0337546
-0.0693705
-0.0976276
0.166998
-0.215377
0.0885159
-0.0759381
-0.154046
0.0670608
-0.0371409
-0.177237
0.0531821
0.331131
-0.153005
-0.178126
0.00216894
-0.000864581
-0.0307954
0.209196
-0.178401
-0.430312
0.126725
-0.0271879
0.0109925
0.0161954
0.120827
-0.372403
0.0734048
-0.185448
-0.418622
0.124627
-0.0683903
0.165926
-0.097536
0.00753932
-0.00873616
0.00119684
-0.146082
-0.210947
-0.236355
-0.00562127
0.00235068
0.0032706
-0.129759
0.0101944
4.3801e-05
-0.0102382
-0.345163
0.261521
0.0836421
-0.00305624
0.0017521
0.00130414
0.37555
-0.399432
0.0238815
-0.180178
0.315942
-0.135764
-0.277132
0.231748
0.0453845
-0.0011977
0.0462047
-0.163359
0.0755083
-0.0177311
-0.124438
-0.043242
-0.00841398
-0.0900945
0.110655
0.121823
0.079832
-0.201655
0.00408075
0.0423233
0.0621669
0.202316
-0.282919
0.0806037
0.0133849
0.00357659
-0.0169615
0.0519276
0.0784042
-0.130332
0.101353
0.0178223
0.00161293
0.00460384
-0.00621676
-0.295009
0.0733912
0.189716
-0.265551
0.0758347
-0.0190899
0.0322479
0.0772935
-0.368622
0.0415571
0.327064
-0.0889537
-0.286926
0.37588
-0.411647
0.11318
-0.00192896
0.00311344
-0.152595
-0.044487
0.150953
0.00598326
-0.0685572
-0.0276202
0.244291
0.22746
0.0884823
-0.0691091
-0.0676463
-0.0148122
0.0165638
-0.169544
-0.0840744
-0.293668
-0.117979
0.00368055
-0.00454408
0.000863529
0.431718
0.0049694
-0.0962526
-0.0530375
0.0198348
0.0332027
-0.111741
0.0696175
0.00191676
-0.00116841
-0.000748347
-0.109873
-0.228016
0.337888
-0.00163315
-0.000246778
0.261419
-0.148511
-0.112908
0.0671944
0.442833
-0.067282
-0.262082
0.106087
0.155995
-0.00047188
0.00335992
-0.00288804
0.0183155
0.0354607
-0.0537762
-0.331211
-0.00946286
0.0128191
-0.00335624
-0.324542
0.220275
0.104267
0.0457257
-0.100315
0.0131789
0.0155688
-0.0993006
0.328212
0.03978
-0.0214646
-0.0229778
0.0115565
0.0114213
0.252676
-0.162094
-0.0905817
0.0629194
-0.0420338
-0.430391
0.112408
0.0127377
0.000209487
0.27156
-0.161046
-0.110514
0.00759943
0.010412
-0.0180114
-0.0822487
0.153138
-0.0708894
-0.450632
0.459358
-0.00872614
-0.00890689
0.00630162
-0.245728
-0.0314041
0.183126
-0.00203407
-0.00102217
-0.470446
0.0438288
-0.281396
0.0870842
0.00167321
0.00732699
0.162188
0.0417203
-0.0431368
0.00141654
-0.228551
0.412605
-0.0764002
-0.197132
0.273532
0.147237
-0.0844193
-5.76416e-05
0.00316161
0.167423
-0.0779272
-0.0461148
-0.00203076
-0.161085
0.320976
-0.0515929
0.332924
-0.150447
0.453639
-0.333869
-0.11977
0.00542015
-0.0113055
0.021176
-0.0430448
0.161712
0.112943
0.0371343
-0.0168493
-0.020285
-0.000883672
-7.00856e-05
0.321379
-0.400139
0.0787603
0.216255
0.10142
-0.317674
-0.210499
0.307992
-0.0974932
-0.051663
0.122152
0.126508
-0.0651439
0.172221
-0.10212
-0.0701016
0.00874748
-0.00520948
0.468401
-0.179927
-0.288475
-0.00517097
0.00992472
-0.00475375
0.0804056
-0.139002
-0.00278611
-0.000130377
0.00291648
-0.0137004
-0.0137432
0.185776
-0.268661
0.0828845
0.00859729
0.0099715
-0.0185688
0.0289743
-0.0606318
0.0316575
-0.0198091
-0.00139608
-0.134901
-0.371184
0.0775156
0.00151919
0.000397574
-0.0785855
0.13155
-0.0529642
0.010112
0.00517774
-0.0152898
-0.00225859
-0.00109167
-0.335933
0.242813
0.0931197
0.0838604
0.12431
0.307904
0.0953486
-0.403253
0.113483
0.135233
-0.0781904
0.130118
-0.101269
0.409173
-0.0410267
0.0169338
0.157013
-0.223892
0.0668791
-0.164817
0.0964268
0.00857539
0.0374685
-0.0460439
-0.0017378
0.0167434
-0.381049
0.121016
0.15396
0.185783
-0.0968128
0.0407543
0.0560585
-0.00192351
-0.000770856
0.00269437
-0.0784008
-0.11692
0.195321
-0.0608924
0.00508288
-0.000836922
-0.161428
-0.0493175
0.210746
-0.0103311
0.00466761
0.00566346
-0.128863
-0.219781
-0.0813682
-0.0560725
-0.22843
0.449476
-0.221046
0.39701
-0.231569
-0.165441
0.00458535
-0.00473414
0.000410727
-0.00231501
0.00190428
0.00124041
0.00704096
0.00107537
0.000585359
-0.00166073
-0.475732
0.342002
0.13373
0.0680497
-0.150298
0.0440334
-0.0274622
-0.0255753
-0.290777
0.0113565
0.279421
-0.00339902
-0.00955302
0.0912028
0.158928
0.0681311
0.0573821
-0.125513
-0.465034
0.174257
0.339053
-0.327696
-0.0130058
-0.0295746
0.0425804
-0.00400482
0.000808035
0.00319678
-0.056304
-0.0727412
-0.363551
-0.100009
0.33187
-0.23186
-0.149232
0.481141
0.049851
0.0267406
-0.0765917
0.130339
-0.0844004
-0.0459382
-0.21173
-0.133433
-0.0081875
0.00134352
0.0050329
0.00184432
-0.00687722
-0.416134
-0.00881047
0.424945
-0.203802
-0.10223
0.306032
0.00255009
-0.00213936
0.0936647
-0.140838
0.0471732
0.00412677
-0.00108264
0.00647147
-0.00380941
-0.00266206
0.105358
0.0433324
-0.243304
-0.0926283
-0.230889
-0.0936528
0.000512673
-0.0012694
0.000756724
0.0118007
-0.00426142
0.079143
0.0511956
-0.00157146
0.00711885
-0.201226
0.0797122
-0.00239761
-0.00460479
0.0070024
-0.243649
-0.130735
0.374385
-0.00272608
0.000286297
0.00243978
-0.215145
0.0755768
0.0944244
-0.0555466
-0.0388778
0.326919
0.151162
0.169044
0.0794144
-0.248458
0.10304
-0.0536585
-0.248183
0.0861276
0.162055
-0.00711579
-0.00900294
-0.431044
-0.0285045
0.459549
-0.00323723
0.0279967
-0.0247595
-0.0986467
-0.114303
-0.0637219
0.178025
-0.029399
0.00605581
-0.00447052
0.00608344
0.102618
0.0653256
0.0237
-0.0248024
-0.00238557
-0.234066
0.120442
-0.0471149
-0.0551809
0.0159839
0.039197
0.00710085
-0.0022509
0.00119143
-0.0029373
0.0466333
0.121201
-0.219767
0.270239
-0.0844624
-0.0991308
0.0728697
-0.181742
0.260266
0.136744
0.0258018
-0.0430402
0.00537376
-0.0054314
0.383305
-0.212853
-0.00437407
0.0108448
-0.259958
-0.0892585
0.349216
0.110685
-0.0396899
0.186607
0.084953
0.231202
-0.317982
0.0867803
-0.31476
0.10426
0.00197895
0.00580228
-0.00778123
0.423512
0.104168
-0.0543801
-0.049788
-0.193426
-0.200918
0.394344
0.142038
-0.385687
0.147141
-0.0711499
-0.0759909
-0.0757656
0.00291651
-0.0636351
-0.080395
-0.14612
-0.203369
0.286317
-0.447402
-0.0575437
0.0445379
0.0624373
0.101108
-0.163546
-0.000541869
-0.00266168
-0.189588
0.305492
-0.0872566
-0.0701315
-0.160349
0.0837311
-0.0554629
0.0540366
0.0014263
-0.208588
0.130277
0.250099
-0.165876
-0.42229
0.185942
0.236349
-0.118986
-0.122727
-0.176258
0.298985
-0.161574
0.0850835
0.228259
-0.111188
-0.136994
-0.000939958
-0.00306486
-0.00458438
0.000492878
0.0040915
-0.160178
0.0729214
-0.0504074
0.118539
0.392156
-0.006059
0.0887916
-0.022516
0.0190838
0.00343225
-0.332155
0.232146
-0.308591
0.104789
-0.0740908
-0.0910225
0.0028408
-0.00319931
-0.243584
0.102209
0.0937606
0.12585
-0.219611
-0.056152
0.196339
-0.109687
0.0930477
0.0166397
-0.00294118
8.70925e-05
-0.000455702
0.0653769
-0.0730671
0.153822
0.0465331
-0.122118
-0.139964
-0.293428
-0.171606
0.153041
-0.184933
0.0318923
-0.182522
-0.108929
0.291451
0.0503927
-0.0813144
-0.200148
0.281462
0.00334296
0.0134732
-0.0168161
0.00634786
0.00484384
-0.0111917
0.00116115
-0.0038557
-0.135549
-0.0682787
0.203827
-0.00138304
0.00506359
-0.000299143
-0.00248696
0.0177161
0.0937318
0.127471
0.0986972
0.0689898
-0.167687
-0.110879
0.329634
-0.218755
0.009334
0.000874051
-0.0102081
0.317184
-0.232101
-0.0538357
0.0310144
0.0780771
-0.19238
-0.315152
-0.11516
0.256194
-0.164991
0.00257723
0.00201861
-0.00459584
0.119512
-0.0306217
-0.0888901
-0.0856916
0.252194
0.131791
-0.0196902
0.00469457
-0.0136651
0.00673526
-0.0285776
0.0784286
-0.25623
0.392156
-0.135926
0.00751187
0.00253086
0.0903145
0.0568263
0.0389004
0.0624522
0.000460375
-0.00282589
0.00236551
-0.383587
0.190161
-0.170126
0.211538
0.104751
-0.0425932
0.0032014
-0.00397179
0.000770388
-0.0475342
-0.00792863
0.371565
0.0205911
0.00858901
-0.00661005
-0.0031894
0.00725056
-0.00406116
-0.00535725
0.00859117
0.0212945
-0.00745648
0.000914612
-0.366178
0.10622
-0.000561349
-0.0861946
0.0147811
0.156269
0.161135
-0.0104084
0.0409196
-0.0305112
0.0739201
-0.0512838
-0.360448
0.22681
-0.00018607
-0.00198204
0.00216811
0.00714232
-0.423276
0.0639047
0.0926949
-0.1566
-0.00431252
-0.0182035
-0.314388
0.107946
0.206442
-0.0829594
0.0401283
0.108975
0.00301283
-0.00306978
5.69451e-05
0.118883
-0.203611
0.0847281
0.275957
0.115053
-0.39101
-0.0283944
-0.0812931
-0.125915
-0.180969
0.306884
0.00237133
-0.00129596
-0.0752935
-0.0614371
0.136731
0.065558
0.0386101
-0.339739
0.22886
-0.134009
0.0320692
0.46369
-0.329835
-0.133855
0.179939
-0.431348
0.25141
-0.180638
-0.100758
-0.140856
0.0594875
0.000601858
-0.311488
0.212985
0.0985027
0.0878737
-0.011976
-0.10578
0.0229329
-0.0140348
0.111429
-0.330492
-0.0160112
0.0894696
0.0109315
-0.0714268
-0.493854
0.152738
-0.0774635
0.094044
-0.0165805
-0.448451
-0.396474
0.140243
-0.508236
0.169115
-0.100974
0.00990353
-0.00477981
-0.0057908
0.00125355
0.00453725
-0.493554
0.137479
-0.332867
-0.145207
0.478075
0.0139236
0.114572
-0.291027
0.176455
-0.0436905
0.187787
-0.144096
0.232271
0.137763
-0.247729
-0.06125
-0.309934
0.296914
-0.193761
-0.103154
0.00102322
-0.305672
0.182945
0.287371
-0.130842
-0.156529
0.0229609
-0.0636014
0.0406406
0.0472781
-0.0210876
-0.0261905
-0.152106
-0.0449888
0.197095
0.320422
-0.0850068
-0.215075
0.395014
0.0429394
-0.00121913
-0.430913
0.202483
0.186591
-0.312506
0.0215298
-0.00814484
-0.370874
0.288329