/*--------------------------------*- C++ -*----------------------------------*\
| =========                 |                                                 |
| \\      /  F ield         | OpenFOAM: The Open Source CFD Toolbox           |
|  \\    /   O peration     | Version:  v2012                                 |
|   \\  /    A nd           | Website:  www.openfoam.com                      |
|    \\/     M anipulation  |                                                 |
\*---------------------------------------------------------------------------*/
FoamFile
{
    version     2.0;
    format      ascii;
    class       volScalarField;
    location    "200";
    object      p;
}
// * * * * * * * * * * * * * * * * * * * * * * * * * * * * * * * * * * * * * //

dimensions      [0 2 -2 0 0 0 0];


internalField   nonuniform List<scalar> 
18618
(
0.0347979
-0.11396
0.00687087
0.052824
0.0309742
0.0771904
-0.203597
-0.0891764
-0.0998019
-0.109171
0.0303887
0.0392321
0.020225
0.0373674
0.0278153
0.0788877
0.00463098
0.0352427
0.0118999
-0.101136
0.0274346
-0.187403
0.015275
0.0388125
-0.201469
-0.100287
-0.0781254
-0.140603
0.0749638
0.00746419
0.0388567
0.0178097
-0.0576882
0.0247305
0.111879
-0.161822
0.0145432
-0.152939
-0.0905778
0.0154606
-0.172074
-0.168401
-0.129507
-0.35383
-0.0431092
0.134332
-0.0920836
0.043007
-0.091444
-0.131318
-0.0739778
0.00659112
-0.0225395
0.086424
-0.107486
-0.149117
0.0212668
-0.095612
-0.170675
-0.18832
-0.109676
-0.184291
-0.0895334
0.0261438
-0.148876
-0.107873
-0.181926
-0.0454913
0.0202366
-0.173569
-0.0937058
0.0121714
0.0369063
-0.102265
-0.0883892
-0.159335
0.0378219
0.040638
0.0192181
-0.109805
-0.025863
0.0245572
0.0567025
0.0511035
-0.190956
0.0140321
-0.140695
-0.169207
-0.179515
-0.443935
0.0198955
-0.109757
-0.112191
0.0164994
-0.100291
-0.184553
0.0402359
-0.10129
0.0251402
-0.10073
-0.132998
-0.476301
0.0182406
-0.111346
0.0635016
-0.0950225
-0.189372
0.0232565
-0.187534
-0.183475
-0.150692
-0.0265816
-0.0930302
-0.377238
0.0437394
0.0157001
-0.198221
0.0534912
-0.0241933
-0.0864979
0.0973318
0.00139459
-0.0301111
0.0682195
-0.0869922
-0.102174
-0.0182555
-0.146543
-0.154855
-0.10307
-0.155688
-0.151113
-0.100949
0.0213518
0.023559
-0.0623526
0.0328475
-0.152166
-0.279517
0.0361177
-0.096592
-0.185832
0.01944
0.0244435
-0.0254891
0.0434202
0.0171047
0.0556818
0.0251863
0.0509674
-0.108579
0.0316624
-0.0541453
0.0707254
-0.0283747
-0.0964948
-0.100736
-0.0434056
0.00661023
-0.202458
-0.085917
0.0369146
-0.298734
-0.119798
0.0454318
0.0578367
0.0525585
-0.161511
0.0468877
-0.102102
0.0358556
-0.055133
-0.105984
-0.134696
-0.129292
0.0527865
-0.0301781
0.0711546
0.028211
-0.0467888
-0.107379
0.109858
-0.184394
0.0367821
0.0291645
0.0693281
-0.118208
0.149138
-0.13741
0.0364839
0.0330409
0.110819
0.0600913
0.00437331
0.0193048
-0.147889
0.0362898
0.0401237
-0.0986109
-0.0450187
-0.10283
-0.126256
-0.10166
-0.0969705
-0.00638294
0.0615697
-0.0949763
-0.487241
0.0302929
0.015201
-0.144379
-0.138169
0.0127742
0.017269
0.0336472
0.0348086
-0.119159
-0.214483
0.0955893
-0.0010038
0.0497155
-0.0275954
-0.0928808
0.0351568
-0.165759
0.0459344
0.00226412
-0.110761
-0.147927
-0.0473428
0.0543333
-0.0493097
0.0231257
-0.0947961
-0.0467092
0.030232
0.0374726
-0.10374
-0.101538
-0.0122725
-0.112992
0.00659823
0.0351123
-0.0996041
-0.0971507
-0.0743846
-0.150091
0.0301301
-0.155864
0.0550552
0.0167121
-0.174956
0.039399
-0.150838
-0.0690599
-0.0189034
-0.100508
0.0353221
0.0155257
-0.00137913
0.0435552
-0.118375
-0.211946
0.105772
-0.182778
-0.150632
-0.0997246
0.0452648
-0.104249
0.124278
-0.109293
0.033003
0.0035474
0.0431269
0.0358621
0.100231
-0.0599282
0.0475652
-0.00143225
-0.0937801
0.0290819
-0.0935332
0.0485339
0.0300171
-0.0910207
0.054709
0.0170776
0.0933045
-0.0859134
-0.0956526
0.00782823
-0.0853732
0.0511521
-0.0555803
-0.289662
-0.138668
-0.101579
-0.136977
-0.296391
0.0175387
0.0644351
0.0258954
-0.0587213
0.0625455
0.031654
0.0302282
0.0437794
-0.152062
-0.108156
-0.101662
-0.10192
0.0153719
0.136643
0.0351101
0.0370707
0.0369519
0.0291284
-0.050156
-0.0896491
-0.167962
0.0172939
-0.107181
0.0346385
-0.127788
0.0365301
-0.143617
-0.117553
0.0376596
-0.00509914
-0.271832
-0.0210739
-0.295657
0.043362
0.0372345
-0.0635831
0.0330138
-0.1954
0.0140215
-0.0115737
-0.105838
-0.0855683
-0.0887184
-0.278143
-0.106069
0.0317622
-0.0871008
0.00758083
-0.104827
-0.0865778
0.0154837
0.0423408
0.00743162
-0.141709
0.0329244
0.0428978
0.0290744
0.0344695
-0.0865351
0.0697945
0.00346547
0.023163
-0.0910521
-0.166611
-0.0970447
-0.131359
-0.184034
0.0354207
0.0369283
-0.105743
-0.103745
0.0197612
0.0506283
0.121993
-0.0436853
0.0174357
0.0402439
-0.109342
0.0963021
0.0290684
-0.0693028
-0.10232
0.0345376
0.0176913
-0.00456512
0.0941927
0.0201493
-0.0809237
-0.285866
0.035054
-0.0939056
0.0728038
0.0364153
-0.109578
-0.153847
0.0423869
0.16497
-0.111245
-0.133835
0.02991
-0.151933
0.0508423
-0.0583087
-0.0447681
-0.0950896
0.0206502
-0.121346
0.0328363
0.0516612
-0.0515011
0.0437404
0.00250957
0.0344708
0.0209503
0.00772945
0.0518376
-0.0907893
0.015861
-0.0143424
-0.0461389
-0.0455949
0.0154962
-0.095844
-0.0435143
-0.0421622
0.0200805
-0.286593
-0.0915168
-0.0258894
-0.178088
-0.135247
0.0361618
0.0352613
0.130618
0.0265056
0.0161758
0.125155
0.0375507
0.0563281
-0.129914
-0.0986215
0.0927038
-0.181391
0.053852
-0.0249584
-0.0910458
-0.0867689
0.0700139
-0.316722
-0.097608
0.0307408
0.0636913
0.0349555
-0.0800294
0.0384721
0.0309498
-0.134839
0.0434786
0.00575829
0.0269345
-0.171766
-0.0962154
-0.0316767
0.238907
0.0306518
-0.109428
0.0384977
0.0306877
0.0342599
-0.127673
0.0198557
-0.0322955
-0.0447627
-0.0248512
-0.119039
-0.0413353
0.00679402
-0.0982938
-0.0428943
-0.10209
-0.0175836
0.159209
0.0930031
-0.107214
-0.00791159
0.0654072
0.0552438
-0.10614
-0.0189545
0.0143369
-0.0504227
-0.100753
-0.289463
0.0323171
0.0369918
-0.237077
-0.104852
-0.100355
-0.233079
0.0909671
0.0365172
0.0358655
0.0240776
-0.189603
0.0305996
-0.0463802
-0.106728
0.0582066
0.0722311
-0.101996
0.0179816
-0.163614
0.0226037
-0.0431203
-0.0444873
-0.0879378
0.0345469
-0.00536624
0.0368385
-0.0409543
-0.126353
0.00255414
0.0343922
-0.135762
-0.0877302
0.00337008
0.0299992
-0.175362
0.0404754
-0.0877071
0.0318501
-0.121013
-0.364205
0.0590317
0.0657286
-0.0936067
0.0347027
-0.112049
0.0358503
0.0231442
0.0180396
-0.0787768
0.10892
-0.075049
0.0884434
0.0378022
0.0343247
-0.102876
-0.172003
0.0147724
0.0483239
0.0335436
-0.0965511
0.0341775
0.0139871
-0.145258
0.0186435
-0.196078
0.0308613
-0.0714608
-0.0932253
-0.282732
-0.0115525
-0.324845
0.0748911
0.0372345
-0.120975
-0.120074
0.0337999
-0.105998
0.0424353
0.0295961
-0.0915458
0.0387526
-0.120334
-0.227013
-0.132021
-0.170455
-0.0705182
-0.102797
0.014225
-0.02927
0.0936498
-0.0586828
0.0343042
0.0412387
0.0142853
0.0334235
0.0197462
-0.440633
0.22909
0.0292275
0.0230649
0.0337225
0.0140857
0.0277535
-0.031576
-0.159276
-0.114981
-0.106312
0.0255299
0.0361127
-0.14786
0.0267726
0.0482204
0.043214
-0.0216539
0.0297476
-0.00394642
0.0281416
0.0402016
-0.222212
-0.0933754
-0.132145
-0.192292
-0.504119
0.0216077
-0.0444745
-0.106334
0.0480631
0.0755656
-0.00521052
0.019669
-0.101489
-0.0737259
0.0346704
-0.101018
0.00946268
0.0468926
-0.131425
0.0401995
0.0657884
0.0393678
-0.333087
-0.00340345
0.0638853
-0.132937
-0.101896
0.00943711
-0.354362
-0.100449
0.0147339
0.0326791
-0.218947
0.144944
0.0197524
-0.141815
0.185318
0.0675067
0.00226669
0.0931732
-0.229631
0.03766
0.0185357
-0.0346523
-0.00646597
0.0321699
0.029212
-0.122441
0.0254664
0.032617
-0.220022
-0.104892
0.03358
0.0238005
-0.0932388
0.0339447
-0.06379
0.0311552
0.137755
0.068157
-0.182572
0.0358004
0.0367741
0.0483386
0.0246815
-0.129402
-0.179723
-0.115713
-0.282353
-0.0804218
-0.166772
-0.0651424
-0.0955963
0.031223
0.0380479
-0.189041
-0.106302
0.0385421
-0.045036
0.0385062
-0.110938
0.0174485
0.0323215
0.0407702
-0.103868
0.0638608
0.0595914
0.0324661
0.0323782
-0.136505
-0.115894
-0.00189182
0.0341406
-0.108178
-0.00637886
0.0194865
-0.0637128
-0.102407
-0.0377187
0.0253463
0.0161392
0.0575296
-0.0408207
-0.103512
-0.449221
-0.101806
-0.0485662
-0.15008
0.0176522
0.0196218
-0.0594657
0.0157085
-0.259358
-0.235829
-0.0941874
-0.0900342
-0.143405
0.0068689
0.0389726
-0.0746667
-0.0946344
-0.153419
0.0354654
-0.0276225
-0.0996626
0.0092581
-0.138843
-0.185799
0.0176502
0.0278231
0.108519
0.0370157
0.0975356
-0.35373
-0.287332
-0.129626
-0.0293593
-0.107449
-0.0958176
-0.143727
0.0206144
-0.0831784
0.035899
0.0114977
-0.116313
0.0161332
-0.0484175
0.0334622
-0.0307077
-0.169183
0.0717756
0.00411373
0.0311758
-0.0701207
0.0462127
-0.136367
-0.218176
0.00865431
-0.0792515
-0.255943
0.0305183
0.0954449
-0.0172606
0.0310169
0.0480627
0.0268658
-0.0928345
0.135134
0.0253702
0.0306862
0.0306232
-0.218337
0.0161174
0.0502937
-0.157258
0.0233118
0.017179
-0.121574
-0.142232
-0.112325
0.0306303
0.0198081
-0.0791381
0.066502
0.0347635
-0.115189
-0.0855874
-0.101134
-0.108382
0.0533421
0.058702
0.029211
0.0205725
-0.0478062
-0.0862392
0.0175768
-0.0900713
-0.0558469
0.00777429
-0.278755
-0.121402
0.00479061
0.178303
-0.0929163
0.0350638
0.0329244
-0.00154149
0.0199765
0.0691481
-0.0061396
-0.0410398
0.0988761
0.0145287
-0.0991537
0.00816406
-0.114334
-0.186762
0.0292997
0.0344954
0.0375332
0.0306097
0.0120165
-0.105983
-0.116216
2.4913e-05
0.034839
-0.100879
0.0441598
0.0230179
0.0383272
-0.115033
0.00173051
0.0689368
0.0692865
0.010627
-0.132158
0.0193115
0.0441837
0.0146974
0.0328369
-0.444536
-0.106529
-0.129101
0.0453135
-0.135507
-0.11428
-0.177062
-0.118217
0.00434285
-0.206341
0.0488992
0.136028
0.0860504
-0.0879343
-0.101911
0.067793
0.029003
0.037426
0.0602952
0.0396232
0.0159163
-0.102142
0.0254336
0.0227394
-0.119625
0.0471802
0.169142
-0.491728
0.0480274
0.0356097
0.0348854
0.0211075
-0.0747575
0.0532708
0.0305797
-0.147842
-0.0960459
-0.0759211
-0.0136824
-0.225523
-0.332404
-0.0427721
0.0309972
0.0100271
-0.149521
0.0471016
0.0275868
0.0192809
0.0147903
0.0495742
0.0343474
0.0367626
-0.118772
0.0288441
0.0196069
0.25198
-0.0999293
0.0354984
0.0236541
0.0310047
0.0344148
0.0360337
0.0476404
0.0120604
0.0184905
-0.0972778
-0.092105
-0.148458
0.0367491
-0.00580541
-0.0434809
-0.0107705
-0.0442457
0.097845
-0.160806
-0.0890949
-0.102575
0.0377354
0.0332864
-0.117763
-0.102524
-0.0905629
0.0257289
0.0322118
-0.0242025
0.0464566
0.0974113
-0.103189
0.0426165
0.0358457
-0.0948082
-0.12862
-0.0778319
-0.0954603
-0.120953
-0.466192
0.0409597
-0.0447741
-0.0885315
-0.0737614
-0.119766
0.00342093
0.011686
0.0593929
-0.0164608
0.0145611
0.0388456
-0.00251239
0.0309293
-0.0185618
-0.170968
-0.0497659
0.0149821
-0.0252117
0.0528379
0.0474954
-0.00163394
-0.279525
-0.189986
0.0196939
-0.00978134
-0.112174
0.0538396
0.00658808
0.0231456
0.020332
-0.193242
-0.00128737
-0.0485256
0.0666799
-0.225511
0.0472964
0.0413939
-0.172595
-0.054267
-0.140265
0.0189275
-0.12415
0.0346433
0.0422964
-0.134077
0.0239509
-0.104064
0.0290201
-0.122776
-0.285478
-0.0757775
-0.111473
-0.164243
-0.0958556
-0.155373
0.0366066
0.0409215
0.0290402
0.0328441
0.0331125
-0.050142
0.0033806
-0.172781
-0.088626
0.0950741
0.0170422
0.0279834
0.0368195
0.0347726
0.0273861
0.0344965
-0.0134732
0.0839184
0.0189704
0.0348368
-0.158081
0.0191521
-0.101212
0.0203283
-0.100491
0.0185111
-0.0992492
-0.0998884
-0.188128
-0.0850573
0.0179632
-0.101799
-0.163635
0.0518287
-0.200872
0.0352849
-0.10166
-0.108866
0.0217382
-0.0971667
0.00751453
-0.122776
-0.0433393
0.0164306
0.0390917
0.0373902
-0.0174798
-0.100157
0.0372582
-0.0632073
-0.0106541
0.0369137
-0.181937
0.0885576
0.0435303
-0.103017
0.0108379
0.0325192
-0.286014
0.109892
0.0318097
-0.0715223
0.0257885
0.0159455
-0.0953291
0.0090476
0.0214135
0.0488195
-0.0401785
-0.0852231
-0.193812
0.0387869
-0.101897
0.0181327
0.0318518
0.0644819
-0.00815752
-0.0133765
-0.14898
-0.184324
-0.0531401
0.03067
-0.178531
-0.391846
-0.163386
0.0236981
0.0415476
0.0548505
0.00509633
0.0348867
-0.0116
-0.00721167
-0.0118652
0.0169973
0.0476344
0.00421569
0.0371766
-0.0395601
0.0469676
0.0222398
-0.0940452
-0.133201
-0.121274
-0.199372
-0.0769404
-0.0851819
0.0317828
-0.132727
-0.146115
-0.0620091
-0.0413752
0.206107
-0.128148
-0.165089
0.0309103
-0.0403547
-0.202802
-0.134388
-0.141951
0.0321169
-0.136188
-0.0442624
0.115677
0.0392901
-0.0705944
0.00807516
-0.0318551
-0.0136472
-0.0369215
-0.450533
-0.178966
0.0427991
0.0139505
0.036643
0.0434486
-0.137543
0.0147898
-0.0885735
0.0192898
0.0127148
0.0329117
0.0200312
0.0317014
-0.146415
-0.0469869
-0.0930113
0.0467259
0.0449059
-0.0841693
-0.0817704
-0.134441
0.0362306
0.0422702
-0.338457
0.0408634
0.0312805
0.00222276
0.0364281
-0.152378
0.0147752
-0.0800446
-0.106211
0.0180324
-0.0889588
-0.200875
0.0321245
0.032719
-0.0173075
0.0145389
-0.066319
0.00316127
-0.220055
-0.00521912
0.0378753
0.0333451
-0.109268
0.0328955
-0.449157
-0.0560941
0.0223482
-0.0950421
-0.108966
-0.099336
-0.16009
0.0361713
-0.0658028
-0.0788032
-0.391387
0.0320233
-0.0248443
0.0167445
-0.0128993
0.0193329
-0.162536
-0.153353
0.00567414
-0.210491
0.0358327
-0.0149102
0.0374028
-0.04941
0.00823801
0.0411401
0.0311351
0.0314344
-0.107372
-0.225774
0.0165389
0.0244777
0.009954
-0.155041
-0.0952526
0.0463811
-0.0823225
-0.101203
-0.0378598
0.0264053
0.0388579
-0.115314
0.0318283
0.0438052
0.0481713
0.0374322
0.0148943
0.0304555
-0.0152797
0.0446658
0.049874
0.00501936
-0.0860497
-0.0376519
-0.103901
-0.0851752
-0.021504
-0.097983
-0.00279556
0.0313711
-0.115851
-0.0997047
-0.0632062
-0.000822576
0.0315798
0.0293392
0.0648759
0.00442608
-0.116175
-0.0979292
0.0237913
0.0415912
-0.0399237
0.0412099
-0.311191
0.0977032
0.0474947
-0.0405674
-0.0634806
-0.101423
0.0370694
-0.136475
0.214319
-0.401605
0.000288025
-0.152243
-0.056876
0.0148742
0.0355615
0.020185
-0.445045
-0.219842
0.104134
0.0334009
0.0159602
-0.125015
-0.100646
0.100528
0.0244333
0.00314126
-0.00604045
-0.0411556
-0.103824
0.0485198
-0.113718
0.0426717
-0.159679
0.0249267
-0.0650015
0.0235483
0.021885
-0.184115
-0.236216
-0.0755797
0.00802036
-6.6946e-05
-0.0166076
-0.103548
0.0437962
0.0266321
-0.0152379
0.0142258
0.0493452
0.0247236
0.0374454
0.120374
-0.065088
0.0256515
-0.0894786
-0.0984756
0.0855497
-0.0405246
0.0347282
0.023664
0.0176475
-0.0416992
0.103475
0.0171268
0.0562421
-0.154622
-0.0574309
0.0688664
-0.145705
0.201129
-0.0566567
0.00967416
0.0157028
-0.162927
-0.0570464
0.0181341
-0.107088
0.124576
-0.100705
0.0766861
0.0466868
-0.111077
0.0471627
0.0470606
-0.0927693
-0.115406
-0.19178
-0.473989
-0.104791
-0.0669015
0.0487196
-0.0331459
-0.0993457
0.033581
0.0520609
0.0360726
-0.168239
0.0265745
-0.166907
-0.0523871
-0.241737
0.0300781
-0.0773651
0.00187573
0.0324379
0.00622904
-0.0539617
0.0866102
0.0110686
-0.0514818
-0.140082
-0.197196
-0.130597
-0.116338
-0.100121
-0.00879538
-0.0776611
-0.000940142
0.0179324
-0.154525
0.0283932
-0.104998
-0.026715
-0.170236
-0.334485
-0.0877678
0.0443922
-0.182465
-0.241808
-0.14473
-0.0236846
0.0478145
-0.000698854
0.0356636
-0.171429
-0.179156
-0.0149612
-0.125377
0.0681217
0.0792528
0.035761
-0.0998861
-0.10929
0.0337491
-0.101843
-0.136497
0.0372971
-0.224919
0.0165589
-0.13942
-0.251684
0.016784
0.0318488
0.0396526
0.0663457
0.0437305
0.0258294
-0.0421123
-0.00348636
0.0189518
0.0176812
-0.122784
-0.0225619
-0.0984487
-0.0454842
0.126322
-0.0861194
-0.0987653
-0.0954948
0.0328294
0.0159165
-0.0500508
-0.0495347
-0.0880531
-0.00404791
0.0271242
-0.148169
-0.101565
-0.0139352
0.0314052
0.0162463
0.0181103
-0.0220719
0.00882378
0.0164041
0.0646826
0.0175244
-0.097286
-0.11722
0.0160023
-0.177973
0.0306997
-0.0229818
0.0109239
-0.0711384
0.0335814
0.0420132
0.0166951
-0.0134539
0.166463
-0.175324
-0.0859155
-0.288948
-0.161591
0.0247409
-0.0499744
-0.231529
0.0153867
-0.0973269
-0.138404
-0.22339
0.0433836
-0.133545
-0.198303
0.0421778
-0.0969662
-0.142368
-0.0234364
-0.0861035
-0.103169
-0.0336406
-0.133013
0.0396537
-0.116157
0.0476749
-0.0388231
-0.0966639
-0.0244908
0.0502225
0.000672522
-0.133049
-0.188277
0.0391047
-0.0885641
-0.046252
-0.125981
-0.176062
-0.458962
0.0156735
0.0447086
0.0325701
-0.26259
0.0154575
0.048045
-0.163941
-0.098947
-0.0768386
-0.0403613
-0.0578168
-0.00347101
0.0371272
-0.18179
-0.0338426
-0.219466
-0.134554
0.0193037
-0.193647
0.0307967
-0.0336399
0.0156067
-0.103806
-0.109956
-0.23411
0.152283
-0.078371
0.0232113
-0.100644
-0.0495603
0.0353791
-0.10053
0.0955303
-0.105974
-0.104389
-0.118232
0.0375112
-0.13625
-0.109441
-0.21204
-0.215713
-0.0825682
-0.145355
0.0320982
0.0245773
0.0137899
-0.011853
0.048056
-0.0342591
0.0306412
-0.12519
0.0382312
0.0372979
-0.0843474
-0.15702
0.125546
0.146397
0.0288121
-0.181363
0.00626439
-0.105532
0.000985733
-0.088182
-0.134532
-0.0161141
0.0327968
0.047755
0.0174555
-0.0943947
-0.205409
-0.117193
-0.043537
-0.102455
0.0415662
0.115229
0.0119747
0.0502365
-0.100471
0.106855
-0.00797306
-0.0714485
-0.105672
-0.0642047
-0.0832319
0.07118
-0.0151499
-0.0981432
-0.0127745
0.0379914
0.112764
0.0289248
-0.236057
0.19174
0.195195
-0.192646
0.0383372
-0.268544
0.0179506
0.022268
-0.00411871
-0.111873
-0.135567
0.0449559
0.028385
0.0487039
-0.0799724
0.0123425
0.0311829
-0.189695
-0.147371
-0.094116
-0.122082
-0.101674
0.0194335
-0.123458
0.0416559
-0.136536
0.0161816
0.0656428
0.0165628
-0.0135058
0.0317896
0.0159572
-0.115091
-0.0921365
-0.273617
0.0156758
0.0378908
-0.11234
0.0433138
-0.0956974
-0.148513
0.0288164
0.0141503
0.0315025
0.149632
0.0482847
-0.0151794
0.0374732
0.00880003
-0.102069
-0.113406
0.00368639
0.00406679
0.0482912
0.0469707
0.031223
0.0621304
0.13899
0.068281
-0.0832233
-0.0418632
0.0471726
-0.103895
0.00373301
0.0309763
0.0478971
-0.102082
-0.237504
0.0316412
0.0317841
-0.00766848
0.0343441
-0.171542
-0.102333
-0.200408
-0.132214
0.0204302
0.0796936
0.0568587
0.0436723
0.200986
0.0488029
0.0304907
-0.0957208
0.0826524
0.037023
-0.148144
-0.0925571
-0.0965325
0.0125454
0.0841622
0.038606
0.0222596
-0.215302
0.000245578
0.0339595
0.217344
0.0202849
0.0319834
-0.151218
-0.0175041
-0.273914
-0.112585
-0.125365
0.144124
0.0324955
0.103509
0.0918743
-0.108043
-0.0962858
-0.280229
0.132216
0.0308604
-0.109333
0.0319064
0.0519708
-0.00671123
0.0316112
0.0315623
-0.188358
-0.102975
-0.107261
0.00767036
-0.467447
0.218496
-0.0424638
0.0188731
0.0780514
-0.10525
-0.00338975
0.0350532
0.0752331
-0.0126648
-0.0901769
0.0124462
0.0188215
-0.113672
-0.0212588
0.0150869
0.0346006
-0.114667
-0.45308
0.0732782
-0.0991478
-0.0203996
-0.111651
-0.142527
0.0266965
0.053224
0.0274535
0.0430528
-0.0861605
0.0392609
0.0180523
0.0175087
0.0444525
0.0352364
0.01663
-0.0201126
0.0174321
0.0326285
0.0356246
-0.111419
-0.0421588
-0.156073
0.0232216
0.0238422
0.0276293
-0.0942893
-0.230335
-0.095356
-0.012393
-0.112919
0.0136197
0.031562
-0.0220841
0.0286564
0.222334
-0.00967188
0.0221252
0.029306
-0.149696
-0.108741
-0.163523
0.033893
-0.127277
-0.102901
0.0315797
0.0127063
0.039086
0.0333481
0.034975
-0.123647
-0.106629
-0.111001
0.145312
0.0167005
-0.108719
0.0334075
-0.0872451
0.000763653
0.0668983
0.0175063
0.0356853
-0.18149
-0.107555
-0.124989
-0.147649
-0.123305
0.0330259
-0.115644
0.0416193
-0.291053
0.0323389
-0.100006
-0.177671
-0.116512
0.0401486
-0.117555
0.0330944
-0.111721
0.029272
0.046706
0.0771201
0.0419679
0.135068
-0.0225519
0.0353315
-0.012869
0.0373623
-0.0196522
0.039484
-0.0248968
0.0410414
-0.0948008
-0.376695
0.0266756
0.0338033
-0.0989847
0.118624
-0.182255
0.0139393
-0.17018
-0.124868
-0.106285
-0.149792
0.0478166
0.0289896
0.0141654
-0.0569486
-0.205845
0.00225164
0.0453341
-0.0101797
-0.292939
-0.0990252
-0.164694
0.032039
-0.103975
0.0371441
-0.0958574
-0.329412
-0.0989432
0.0561019
0.0387169
-0.0998744
0.0353242
0.237692
0.0267092
-0.0796113
0.0161031
-0.023663
0.0136765
-0.112588
0.0273248
-0.138098
-0.303929
0.0474468
-0.158585
0.0828209
-0.432496
0.0374821
0.0784566
0.0175537
-0.152641
-0.00038606
0.0375065
-0.513935
-0.293946
0.0358345
-0.105448
-0.0667756
-0.119015
-0.0958362
0.159014
0.0519697
0.0691292
-0.0367345
-0.0108981
0.0289942
0.0423658
0.0350627
-0.0942916
0.0298675
-0.110849
-0.149986
-0.169063
0.0895193
-0.117543
0.0384181
-0.0510757
0.0560011
0.109655
0.039508
-0.0584539
-0.112762
-0.0533999
0.0382972
0.14996
0.0142412
0.00929496
0.0297831
0.0365448
0.0321021
-0.208143
0.0668415
0.0384106
0.123376
-0.0995188
-0.104784
0.0819658
0.000138467
-0.1269
-0.0687237
0.0172144
-0.27389
0.0265469
0.0187952
-0.1907
0.0593176
-0.104831
-0.103431
0.0371228
-0.190538
-0.00485691
-0.118695
0.0190665
-0.081349
0.0158336
0.0276546
-0.0855165
0.0765915
-0.127393
-0.153633
0.199907
0.0505808
0.0100228
0.0880394
-0.108453
0.00647589
0.0233245
0.0385323
-0.27664
0.037329
0.027259
0.0504156
0.0341074
-0.0528116
-0.00212572
-0.115554
0.0077789
0.0393496
0.0312171
-0.222573
-0.110747
0.00652601
-0.101227
0.0292797
-0.00227875
-0.103661
0.0103741
-0.128253
-0.133846
0.0329258
0.00789709
-0.00112132
-0.0509644
-0.242878
-0.23976
-0.0764544
0.0977084
-0.0471188
0.0313095
-0.13482
-0.0924857
0.0374718
-0.0450305
-0.0471475
0.0390443
-0.278021
-0.118888
-0.0219362
0.06527
0.0551095
-0.0730939
-0.0943854
-0.128881
-0.114073
-0.0936289
0.0677792
0.0151513
-0.157526
-0.0224292
-0.223863
-0.0906306
-0.121775
-0.159224
-0.0978391
0.021199
0.0409448
-0.106448
0.066392
-0.0194805
-0.0916953
-0.101066
0.0357309
-0.345204
-0.0947375
0.014828
0.0304999
-0.086768
-0.105194
0.00802983
0.0159464
-0.11167
-0.125951
0.0123267
-0.11707
-0.0922946
-0.112721
-0.156795
0.0458377
0.0316488
-0.137953
-0.084445
0.0643403
-0.086632
-0.102469
0.0301299
0.0633323
-0.0165384
0.0830959
0.00753065
-0.110694
0.0241842
-0.100955
0.0316167
-0.120158
-0.0528897
-0.0894241
0.0663133
0.0349344
0.0194018
-0.0866766
-0.10234
-0.161804
0.0235621
-0.135369
0.0162657
-0.0886154
0.0168368
0.0321165
-0.175812
-0.122792
-0.116925
-0.113001
0.0055851
0.214138
0.0384885
0.0407555
-0.148455
0.127561
0.0544953
0.0648252
0.0393138
0.0314645
0.0329079
0.0584017
-0.192297
-0.141409
0.0105433
0.0680922
-0.12885
-0.0994613
-0.275071
0.0364072
0.0404406
-0.16919
-0.183942
-0.0031112
-0.0757918
0.0529708
-0.44757
0.030614
-0.0945484
0.0232184
0.081098
0.0330588
-0.0224983
-0.0822333
0.0361676
0.0983527
-0.11153
0.0893744
-0.152368
0.0373263
-0.0578909
-0.260528
0.0306497
0.0355345
0.0196229
-0.115193
0.0283554
0.0175519
0.0261428
-0.107348
-0.119043
-0.0625288
0.0383917
0.00138173
0.037992
0.233187
0.0127672
0.0613265
0.0348784
0.00601542
0.125429
-0.00278985
-0.277566
-0.0592922
-0.0916625
-0.0874429
-0.00192176
-0.098372
0.0114487
-0.125922
-0.100248
0.0475448
-0.25732
0.13136
-0.00226433
0.0396025
0.030952
0.0201864
0.0313781
0.0518993
-0.0997363
0.0286978
0.0126218
0.0377707
-0.0964116
0.111417
-0.12086
0.0413046
-0.0193478
-0.116841
-0.0859128
-0.0206026
0.0305864
-0.270162
0.0397964
-0.0982209
-0.0438003
-0.0795151
0.0293962
-0.106863
0.0396446
0.0312223
0.0324361
-0.0958529
-0.17658
-0.169187
0.112471
-0.108362
0.0191588
0.0391652
0.0387413
-0.0569983
-0.113422
0.0427737
0.123172
-0.138038
-0.154858
-0.0752975
0.0373889
0.0259556
0.0293903
0.0204625
-0.111672
0.0383681
0.0362944
0.0330926
-0.0171619
-0.166825
-0.138786
0.0908129
-0.101725
0.0208611
-0.142001
-0.11184
0.0139451
0.0414605
-0.139936
0.0177033
0.0396174
-0.107687
-0.209936
0.0227942
0.00401812
-0.06349
0.029412
-0.104165
0.0489771
-0.0917948
-0.226368
-0.0318503
0.016965
-0.297354
-0.0804148
-0.460402
0.0165288
0.0166174
-0.142393
-0.00750235
0.0397102
0.0162799
0.0179803
-0.0996993
-0.111607
0.0499098
0.0441197
-0.120156
-0.111819
-0.140935
0.13306
-0.171475
-0.119039
-0.154928
-0.126623
-0.10795
0.023678
0.0151139
-0.10268
0.0372618
-0.0803879
-0.0812565
0.00358284
-0.232699
-0.0876134
0.0237575
0.0338254
-0.104655
-0.33681
-0.111881
0.0548516
-0.171506
0.0947224
0.0901689
-0.0487943
-0.186822
-0.108192
0.0167499
0.0492571
-0.00386709
-0.201301
-0.0520675
-0.208161
-0.142653
-0.100648
0.0565847
0.00472904
0.00578229
0.0599043
0.0358779
0.0765573
0.0123695
0.148483
0.0525593
-0.0161848
-0.121125
0.0420382
0.0231266
-0.169397
0.0234688
-0.0815372
-0.00568628
-0.297069
-0.110095
-0.074367
-0.0769182
0.0101685
-0.0865541
0.0219209
-0.136534
-0.0189899
-0.138313
0.0788443
0.140203
0.0381732
0.0357669
0.0446167
-0.131948
-0.100786
0.0327976
-0.113648
-0.0983261
-0.140313
-0.012938
-0.171701
0.027621
-0.139094
-0.19175
0.0317919
0.0479532
-0.141225
0.0316974
-0.114355
0.0211276
-0.210335
-0.0235727
0.0383602
-0.0989976
0.00840542
-0.181765
0.144954
0.0164716
-0.152009
-0.0940673
0.0357646
0.0439782
0.0127278
-0.114536
-0.0982443
-0.097753
-0.128879
0.0371129
-0.153265
0.0524183
-0.000151754
-0.0247256
-0.107104
-0.174167
0.040342
-0.11173
0.0321418
0.144621
0.0606329
0.0162357
0.0333735
-0.118488
0.0634338
0.0393065
-0.115265
0.00670722
-0.11791
-0.111315
-0.265423
-0.10054
0.0493215
-0.0850842
-0.108316
-0.0568463
0.0125327
0.0109992
0.0178961
-0.0360741
-0.0460029
-0.0538694
-0.0734651
0.032714
0.0526028
0.0150239
0.0179905
-0.0915778
0.0350502
0.0141492
0.0226121
0.0373065
-0.0472872
0.189886
-0.286343
0.0329767
-0.0923483
-0.214524
-0.210391
-0.191166
-0.204596
-0.0845559
-0.110562
-0.119095
0.043894
-0.0702034
-0.00109901
-0.164405
-0.107093
0.0307387
0.0254077
-0.0913911
0.0104578
-0.121768
-0.109998
-0.120612
-0.11759
-0.194739
0.00373663
-0.064914
-0.0620022
-0.0063545
0.0962957
0.0407985
-0.0313724
0.0401495
0.126122
0.0260626
0.0379033
-0.0225967
0.0192003
-0.114711
0.0260592
-0.0321765
-0.453822
-0.0576896
-0.0371493
0.0374072
-0.277066
0.0637142
0.0379491
0.0160406
0.0912788
0.0359006
0.0316744
-0.100552
0.0187822
-0.0170814
0.00244482
0.0173111
-0.0835548
0.204717
0.0465974
0.0361357
-0.10239
0.168122
0.0328526
0.0362141
0.046888
-0.100361
-0.405743
0.0258966
0.0293565
-0.0151615
-0.138594
0.0344233
0.095008
-0.103522
-0.101586
-0.0141819
0.126709
-0.164081
0.0156671
0.0274805
-0.101793
-0.0895627
-0.114443
-0.154003
-0.245118
-0.182968
-0.206257
0.0233597
-0.203126
0.0499935
0.0420119
-0.00898621
-0.000443084
-0.171182
0.0320336
0.0466
-0.473733
-0.105349
-0.188801
-0.132339
0.0310372
0.0100981
-0.309971
0.0124851
-0.10419
0.0137351
0.0370742
0.038094
0.0229488
0.0991264
0.0385684
0.0116125
-0.0144573
0.0371855
-0.133778
0.0154111
-0.0480139
-0.057366
-0.0370177
0.0332666
0.00713075
0.191635
-0.117748
0.0564951
-0.00394007
-0.0628793
-0.0826327
-0.11035
-0.117051
0.0334235
0.0205221
0.0381825
-0.0630556
0.0344698
-0.152089
0.0118523
0.0214574
0.036617
0.0760765
-0.0760622
-0.0508953
-0.0254036
-0.0986523
-0.128492
-0.123896
-0.0958118
0.0275217
0.036325
0.0166159
-0.114001
-0.100502
-0.0533768
-0.237389
0.028659
0.0312802
0.0295675
-0.121274
-0.177634
-0.0166998
-0.147212
-0.0540887
-0.0106027
-0.176245
0.0127503
0.0229539
-0.125937
0.0239619
-0.0907746
-0.0635434
0.0322522
-0.0998002
0.031726
0.0749848
-0.0906205
-0.0794721
0.0208657
-0.0954631
-0.0631326
0.0314894
-0.109446
0.0513934
-0.0391909
-0.148851
0.0156905
0.0344222
0.0255694
-0.111409
-0.0197617
0.0494477
0.0313371
-0.252714
0.0435045
0.00541532
-0.0593671
-0.108939
0.0169875
0.0197434
-0.286955
0.0443206
0.0081884
-0.115496
-0.148609
0.00517074
-0.153701
-0.0703944
0.0559529
-0.198286
0.0122455
0.0233024
0.0305602
0.0355291
-0.0636061
-0.151913
0.0781828
-0.0728531
-0.154787
-0.119015
-0.102936
0.00321144
-0.172164
-0.0176779
0.0171466
-0.0207573
-0.123236
-0.0766479
0.00769526
0.0736927
0.0410196
0.0357858
0.0362797
-0.0508275
-0.0702067
-0.0171062
0.0108317
-0.0683713
-0.0315648
-0.0754893
-0.165395
-0.180142
-0.227258
0.041334
-0.111154
-0.125229
0.0401549
-0.0263404
-0.274147
0.0357171
0.0346283
0.0120927
0.0558794
-0.18277
0.0103756
-0.103483
-0.123185
0.0234956
-0.0559678
-0.195239
0.058576
-0.0304197
0.0142472
0.0194498
0.0176454
-0.101796
0.0343438
-0.0825684
0.00420664
-0.143072
0.046216
0.0241419
-0.154826
0.0248308
0.0297563
0.0735905
0.0764772
-0.179771
-0.0335126
0.0289826
0.0195578
-0.145242
-0.0881798
0.00786872
0.0101566
-0.148545
-0.0802299
0.0380691
-0.100672
-0.0925876
0.000123004
0.0169057
0.163439
-0.004664
-0.225642
0.0311245
-0.264735
-0.306717
-0.156027
0.0740962
-0.1376
-0.0483819
-0.0232301
0.0366546
-0.0768463
-0.188687
-0.116409
0.0762024
0.0502862
0.0391652
0.0218018
-0.126982
-0.119255
-0.118903
-0.194763
-0.102714
-0.19068
0.0193997
0.0668309
-0.114189
-0.104853
-0.211389
-0.160226
-0.192813
0.031882
0.0166408
0.0865709
-0.135911
-0.125062
0.0230663
-0.167762
0.0097694
-0.0385064
-0.113093
0.0212754
-0.0899181
-0.187028
-0.156088
-0.457272
0.046784
-0.123367
0.0273201
-0.085631
-0.176399
-0.17532
-0.398078
-0.183291
-0.0961169
0.0261066
-0.0616164
0.09245
-0.127087
-0.0917051
-0.0993698
-0.0450695
0.0781004
-0.0417993
0.0141382
-0.109858
-0.11887
0.0200615
-0.127397
0.020015
0.00274438
-0.100043
0.0318026
-0.128108
0.0464741
-0.10347
0.0269984
0.0256306
-0.150572
-0.0481755
-0.0988472
-0.148865
0.0596373
0.0325987
-0.134332
5.63879e-05
0.00638265
0.0255738
0.0552052
-0.121769
-0.192566
-0.180268
-0.00610229
-0.121104
0.0398829
-0.148264
-0.121041
0.0170992
-0.105798
-0.181571
-0.110756
-0.1108
-0.108372
-0.103214
-0.0937816
-0.0543512
-0.0920431
-0.149568
-0.113875
-0.199214
-0.156883
0.113851
-0.0709624
-0.101698
-0.0620401
-0.269796
-0.106601
-0.0995173
0.0151477
-0.110151
0.0250584
-0.151384
-0.0930512
-0.132894
-0.0283673
-0.131119
-0.101739
-0.121078
-0.271205
-0.0401318
-0.151143
-0.163913
0.00136212
-0.261879
-0.0612828
0.0440878
-0.109948
-0.165367
0.0385921
0.0279606
-0.158111
-0.0995201
-0.178814
0.0503922
-0.121814
-0.127672
-0.124862
-0.145934
-0.0993486
-0.293884
-0.118026
0.0392769
-0.0762225
0.0210131
0.0311819
-0.162762
-0.101475
-0.162536
0.0309982
-0.193435
-0.257027
-0.102814
-0.125032
0.0351565
-0.0466464
-0.119253
-0.0934903
0.0168679
-0.0895139
0.0365092
-0.10192
0.0584695
-0.108822
-0.120249
-0.120016
-0.245177
-0.123126
-0.0811929
-0.0927165
-0.112897
-0.126876
-0.0844583
-0.125252
-0.0168285
0.0865888
0.0358859
-0.0296521
0.0336783
-0.104082
0.0204376
-0.124343
0.0249864
-0.329639
0.0316672
0.0263493
-0.0417863
0.0357531
-0.127207
-0.137272
-0.0368694
-0.297782
-0.104228
-0.114786
-0.244734
0.0397063
-0.181512
-0.222283
-0.041045
0.017776
0.146884