/*--------------------------------*- C++ -*----------------------------------*\
| =========                 |                                                 |
| \\      /  F ield         | OpenFOAM: The Open Source CFD Toolbox           |
|  \\    /   O peration     | Version:  v2012                                 |
|   \\  /    A nd           | Website:  www.openfoam.com                      |
|    \\/     M anipulation  |                                                 |
\*---------------------------------------------------------------------------*/
FoamFile
{
    version     2.0;
    format      ascii;
    class       surfaceScalarField;
    location    "200";
    object      phi_0;
}
// * * * * * * * * * * * * * * * * * * * * * * * * * * * * * * * * * * * * * //

dimensions      [0 3 -1 0 0 0 0];
oriented        oriented;


internalField   nonuniform List<scalar> 
27688
(
-0.290604
0.175086
0.115517
-0.00993521
-0.0506663
0.0606015
-0.184733
-0.0229357
0.207669
0.289825
-0.191027
-0.0987985
0.120322
0.139401
-0.259724
0.170356
0.0485839
-0.218939
-0.00915877
-0.0480571
0.0572158
0.0119539
-0.0145136
0.00255976
-0.0507052
0.0763667
-0.0256615
-0.0040373
0.0788677
-0.0748304
0.260892
-0.14057
-0.118641
0.228828
-0.110186
-0.043142
0.422182
-0.37904
0.104181
-0.229269
0.125088
0.21589
-0.278799
0.0629088
-0.00323986
0.173595
-0.198928
-0.0304188
0.229347
-0.155195
-0.135409
-0.249613
-0.10052
0.350133
0.0626915
-0.0105762
-0.0521153
0.319204
-0.103314
-0.0203142
0.0238575
-0.00354338
-0.486313
0.139849
0.346465
-0.240388
0.121747
0.0147634
0.0348181
-0.0495815
-0.0797852
0.02908
-0.0775406
0.0827381
-0.00519748
0.0337281
0.0213635
-0.0550916
0.0730207
-0.067439
-0.00558168
-0.257813
0.0730792
-0.206903
0.115463
0.0914404
-0.0801566
0.235836
-0.15568
0.0694237
0.0504006
-0.119824
0.192481
0.192138
-0.384619
-0.185683
0.0927208
0.0929621
0.0575039
-0.0464635
-0.0110403
0.294691
-0.159549
-0.135142
-0.00930847
-0.055779
0.0650875
-0.00567641
0.0176303
-0.294573
-0.19174
0.00104918
-0.00110674
5.75571e-05
0.0252113
-0.0241866
-0.00102477
0.00110148
0.0283714
-0.0294729
0.0369237
0.00201504
-0.0389387
0.0617665
0.0692208
-0.130987
-0.0149479
-0.0904705
0.105418
-0.00380827
-0.0125194
0.0163277
0.124047
-0.0533063
-0.0707407
-0.0836902
0.0858385
-0.00214828
0.0506176
0.00549266
-0.0561103
-0.0836955
0.00615487
0.0972215
-0.194474
0.0972526
-0.000291747
-0.0763226
0.0766144
-0.0753665
0.0763209
-0.000954381
-0.067896
0.059997
0.00789897
0.0581821
-0.0674906
-0.00433702
0.084605
-0.080268
0.0922777
-0.0157505
-0.0765271
0.000632353
0.000416827
-0.0670795
0.0613208
0.00575876
0.00664155
-0.00725911
0.00061756
0.0684838
-0.0216978
-0.046786
-0.0793324
-0.0043578
0.507334
-0.475043
-0.0322913
-0.0669679
0.0756223
-0.00865439
-0.0771237
0.0868919
-0.0097682
-0.0617591
-0.00532044
0.071846
-0.140504
0.0686576
-0.343678
0.300536
0.00133386
-0.000701505
0.0898008
-0.0758083
-0.0139925
0.0443961
-0.294009
0.25254
-0.451737
0.199197
0.0493092
-0.0696287
0.0203194
-0.0111946
0.0111946
0.0175211
0.0399828
-0.478944
0.276872
0.202072
0.298506
-0.245305
-0.0532008
-0.1769
-0.205962
0.382862
0.00650546
-0.0836291
0.0981159
0.0492279
-0.147344
-0.186379
0.37886
-0.270715
0.257755
0.0129595
-0.172426
0.106908
0.0655181
0.00209633
-0.0224105
0.192068
-0.312374
0.120306
-0.00837338
-0.0579799
0.0663533
-0.000381605
-0.000725133
0.0263085
0.0421754
0.00124779
-0.00609683
0.00484904
0.171414
-0.342977
0.171562
-0.000590295
0.00723185
-0.0178369
-0.047781
0.0656179
-0.152098
0.383648
-0.231551
-0.00103377
0.0101688
-0.009135
-0.073792
0.0336781
0.0401139
0.141258
0.0621779
-0.203436
0.0715338
-0.066037
-0.00549688
0.016878
0.400166
-0.417044
-0.000369921
0.0241841
-0.0238142
0.0557445
-0.00512691
0.00734696
0.000329424
-0.00767638
-0.233818
0.153661
0.0569962
-0.0748332
0.031103
0.0419177
0.0899687
-0.0773761
-0.0125927
0.0654433
-0.0506799
0.280794
-0.52819
0.247396
-0.0348963
-0.0388957
-0.0875691
0.0526727
-0.0023109
0.00200524
0.000305665
-0.0592075
-0.0789635
0.138171
0.0183604
-0.0221687
0.0369237
-0.368924
0.27488
0.094043
0.417802
-0.284046
-0.133756
0.0451576
-0.0543164
0.234285
0.0555403
0.0754416
-0.0757333
0.0157526
-0.0157526
0.0836976
-0.194149
0.110451
-0.0926779
-0.0859993
0.178677
-0.0605224
0.13175
-0.0712271
0.172221
0.0527925
-0.225013
0.084175
0.0132261
-0.0974011
0.0796007
-0.0738148
-0.00578588
-0.0526593
0.144363
-0.0917035
0.00184397
-0.0688119
-0.00114936
-0.0673853
0.0685347
-0.015219
-0.0669665
0.0821855
-0.0273302
-0.00195418
0.0292844
0.0181123
0.0315129
-0.0496252
0.056641
0.00605054
-0.0893916
0.0850546
-0.140859
0.354279
-0.21342
-0.0669877
0.123479
-0.0564912
-0.376461
0.22209
0.154371
-0.00123948
-0.00107143
0.0292715
-0.0318098
0.00253834
-0.327322
0.248432
0.0788898
0.0106786
-0.0126381
0.00195954
-0.0419041
-0.045665
0.213301
-0.390201
-0.434981
0.0501533
0.384828
-0.158442
0.0992342
-0.234052
-0.134871
-0.386787
0.464753
-0.077966
-0.232325
-0.0383902
0.339774
-0.322896
0.0828113
-0.203235
0.120424
0.0413259
-0.0707735
0.0294476
0.162262
-0.285947
0.123686
0.04645
-0.113599
0.067149
0.223324
-0.151619
-0.0717058
-0.175576
0.115053
0.0127461
-0.00206748
-0.00599651
0.0451772
-0.0391807
0.114458
-0.0794742
-0.0349837
0.103256
-0.224021
0.120766
0.0337213
0.0927673
-0.00859229
-0.0550472
0.1282
-0.0731533
-0.0512369
0.0565961
-0.00535917
0.0428653
-0.0705903
0.027725
0.302012
-0.219272
-0.0827403
-0.16376
0.108704
0.055056
-0.105573
-0.0668525
0.0174018
-0.0188448
0.00144303
-0.17771
-0.0676434
0.245353
0.0698861
0.00164774
0.439542
-0.310823
-0.128719
-0.0479791
0.117403
-0.0781968
0.0856676
-0.00747077
-0.0653583
0.0765924
-0.0112341
0.0253139
-0.0242124
0.27569
-0.101017
-0.174674
-0.0705721
0.0436703
0.0269017
0.164282
0.0590421
0.275986
-0.527495
0.25151
-0.134569
0.0346954
0.0998731
-0.0215124
0.0628383
-0.112672
-0.0730112
0.0610176
-0.0272895
-0.200725
0.421821
-0.221096
0.305347
-0.498916
0.193569
0.102728
-0.108614
0.00588642
-0.0200033
0.0628686
0.0474336
0.00853812
-0.0559717
0.0594748
-0.0678482
-0.137533
0.241713
0.425526
-0.236859
-0.188667
0.120359
-0.0475912
-0.0727681
-0.0873675
-0.0763926
0.0454836
-0.244411
-0.179513
0.392814
0.0694011
-0.0263355
-0.0430657
-0.231933
-0.0953884
-0.0656453
-0.012253
-0.00658645
0.0188394
0.155514
-0.0937471
0.0810626
-0.00146194
-0.0304498
0.0349885
-0.00453865
0.0658069
-0.0481627
-0.0176442
0.00543253
-0.0176855
-0.0301123
-0.0404597
-0.190306
0.104069
0.0862371
-0.0122857
0.0135782
-0.00129254
-0.00451975
0.0118667
0.308097
-0.494876
0.186779
-0.238143
-0.15299
0.391133
0.00324573
0.0627602
-0.066006
-0.071132
0.0743777
-0.151046
0.0356212
0.115425
0.0504125
-0.4372
0.112502
0.112629
-0.225131
-0.271701
0.52486
-0.253159
-0.0589245
0.00444893
0.0544756
-0.0763429
0.0346818
0.041661
0.112616
0.0722711
-0.184887
-0.108397
-0.0966105
0.205008
0.215683
-0.132871
-0.0774596
0.0245618
-0.0153851
-0.00917671
-0.484602
0.363071
0.121531
0.000692729
-0.000790531
9.7802e-05
0.140756
0.161256
-0.177855
0.0851772
-0.0856218
0.00728269
0.0783391
0.0670559
-0.0682052
-0.0602967
0.132143
-0.127078
-0.0273706
0.154448
0.053273
-0.125619
0.0723464
-0.167425
0.44822
0.000460361
-0.108252
-0.0263169
0.15962
0.211189
-0.370809
0.292134
-0.463204
0.171071
-0.048847
0.0733017
-0.0244547
0.0552307
-0.102214
-0.079139
0.181353
-0.0601267
0.0501915
-0.120669
0.217891
-0.181413
0.420883
-0.239471
-0.0145559
0.014186
0.0728978
0.0193799
-0.112534
0.101932
0.010602
0.0139186
0.0554825
0.403638
-0.244018
0.00159289
-0.000892535
-0.000700356
-0.221281
-0.0215836
0.242865
-0.382992
0.230895
-0.0222043
0.0262444
-0.00404013
0.0689999
0.0528338
-0.0347216
0.106744
-0.0245985
-0.0821459
-0.129194
0.076535
0.0702446
-0.0633423
-0.0069024
-0.212254
0.37112
-0.158866
0.111538
-0.40478
0.293241
0.0969199
-0.205317
0.115311
0.159569
-0.0508233
-0.00810123
-0.0415248
0.100406
0.0521838
-0.15259
-0.0190098
0.0239289
-0.00491917
-0.0659873
0.0448377
0.0211496
-0.0646706
0.0754581
-0.0107875
-0.118176
0.0648698
-0.0701596
0.0821788
-0.0120192
0.123287
-0.0684633
-0.0548239
-0.0802596
-0.00536213
-0.221848
-0.154612
0.0722903
0.0912773
-0.163568
0.249747
-0.134436
0.275657
0.163885
0.118041
-0.124317
0.00627624
-0.119493
0.105168
0.0143257
-0.229277
0.161453
0.0678247
-0.227745
0.0934989
0.134246
0.00791744
0.0166443
-0.224973
-0.173754
0.398728
-0.0801416
-0.0134839
0.0936256
-0.257345
0.0971607
0.160185
0.0665354
0.10182
-0.168355
-0.022259
0.0139319
0.00832705
0.0355572
-0.256838
-0.335928
0.262283
0.0736452
0.00713101
0.0676398
-0.0747708
-0.0743613
0.0894075
-0.0150462
-0.0864664
0.073988
0.0124784
-0.125979
0.281353
-0.155374
0.0821659
-0.00221776
-0.0799482
-0.317996
0.21484
0.103155
0.108524
-0.0620738
-0.0306166
0.0346461
-0.0040295
-0.0751306
0.00977229
-0.0127686
0.0117348
-0.0488283
-0.00636614
0.0551944
-0.0438037
-0.00743325
-0.121322
-0.109082
0.230405
0.0147913
0.0879365
0.0750612
0.432273
-0.116742
0.0447901
0.0719523
-0.0870823
-0.103223
-0.432347
0.221349
0.210999
0.434774
-0.126677
0.269888
-0.212667
-0.0572215
-0.00191741
0.0296055
-0.0276881
0.00869507
-0.0453518
0.0393553
-0.0603784
0.0704664
-0.010088
0.360488
-0.24895
0.0598281
-0.0123945
-0.326988
-0.157614
0.45303
-0.27142
-0.181611
-0.040087
-0.191846
0.185139
-0.118603
-0.12682
0.0481495
0.0786701
0.0192408
-0.0945482
0.0753074
0.00741566
0.0497005
-0.0571161
-0.344591
0.395004
0.0504041
-0.0719165
-0.294686
-0.0952543
0.38994
0.00366299
-0.0341128
-0.224296
0.45384
-0.229544
0.0520687
0.00397462
-0.0560433
0.0520613
-0.0720646
-0.219902
0.179815
-0.0666917
-0.115627
0.182319
-0.00459617
-0.0460483
0.0506445
-0.0579571
-0.0439852
0.101942
-0.0338903
0.00327372
0.106866
0.163022
0.254721
0.19831
-0.10858
0.0415928
0.352793
-0.130703
-0.0627081
-0.00268813
0.0653963
-0.037485
-0.113561
-0.182644
0.0804309
0.0422438
-0.0574266
0.0151827
-0.0591169
0.0907167
-0.0315998
0.0839109
-0.00777655
-0.0761343
0.0308755
-0.00160397
-0.0783021
0.0756161
0.00268604
-0.248632
-0.183715
0.0933879
-0.0779098
-0.0154781
-0.0741925
0.154117
-0.0799247
-0.0702258
0.0823393
-0.0121135
0.0904337
-0.00826777
0.123228
-0.114143
-0.168825
0.282969
0.153697
0.0869224
-0.240619
0.0614361
-0.0521245
-0.00931157
-0.287544
-0.121689
0.409233
-0.122257
0.270334
-0.148077
0.432889
-0.127542
-0.451242
0.156556
0.0313168
-0.0147698
0.18699
0.169909
-0.0976187
0.196719
-0.396734
0.200015
-0.0134667
-0.00879225
0.0219541
0.00325726
-0.0985972
0.0189285
0.0796686
-0.00068096
-0.0233575
0.0240384
0.00484777
-0.392858
0.211445
-0.245073
0.497613
0.0812385
-0.0852758
-0.0678434
0.0189963
0.334273
-0.162859
-0.126348
-0.191648
0.031774
0.0442978
0.0802704
-0.124568
-0.472678
0.128087
0.231878
0.0666281
0.0853473
-0.00899665
-0.0763506
-0.026364
0.13898
0.174938
-0.399911
-0.0565674
-0.0543779
-0.0711449
-0.0071572
-0.383401
0.0154732
0.367928
-0.218085
-0.117844
0.119559
-0.186251
-0.0773072
0.00194074
0.186415
-0.382017
0.195601
-0.077939
-0.00845879
0.0863978
-0.0394463
0.0348502
0.20863
-0.0826428
0.00250121
-0.0124588
0.176741
-0.151787
-0.173324
0.325111
-0.0419439
-0.0288296
0.000353414
-0.276441
0.162298
-0.00446326
0.0508758
-0.0464126
-0.00466
-0.00259911
0.0567166
-0.00597189
-0.0507447
-0.208464
-0.218139
0.426603
0.0301087
-0.0320261
-0.303733
0.177385
-0.0762566
0.139346
-0.0630895
0.0782243
-0.144651
0.066427
-0.0369681
0.0417399
-0.00477178
-0.399938
0.25429
0.145648
-0.0290611
-0.0415292
-0.38835
0.166502
-0.0473941
0.154302
-0.0996564
-0.0271632
-0.366877
0.132825
0.142958
0.0581296
-0.201087
0.0927897
-0.30969
-0.0902475
-0.108148
0.261845
-0.170182
0.0646087
-0.0812268
0.0983907
-0.017164
0.172166
-0.410089
0.237924
0.098534
0.0679894
-0.166523
0.0642629
0.050195
-0.0639538
0.0691504
-0.307294
-0.0118835
-0.000754586
0.0735818
-0.146641
0.0730593
-0.068607
0.137828
0.368133
-0.181718
-0.0359688
0.0326717
0.00329712
-0.0947107
-0.0760126
-0.0824292
-0.0523049
0.0703032
-0.0179983
0.00691629
-0.336391
0.184604
0.134994
0.236126
-0.100756
0.0858081
-0.428774
0.0352477
0.393527
0.366696
-0.173808
-0.192888
0.044242
0.0790452
-0.234311
-0.244633
-0.254773
0.0637036
0.19107
-0.0474683
0.0684934
-0.0210251
-0.0839138
0.0725835
0.0113303
-0.136673
0.0936846
0.0429883
0.0136511
-0.065956
0.127696
0.147994
0.0640866
-0.116457
0.0523703
-0.00715394
0.0210859
0.018406
-0.0215002
0.117992
-0.0964918
0.0409217
-0.0357398
-0.00518192
-0.0881067
0.0772551
0.0108516
0.42847
-0.232453
-0.196017
-0.15667
0.0693025
-0.479017
0.207316
0.0915019
-0.0152333
-0.0762686
-0.0792045
-0.0236564
0.102861
0.239807
0.184759
-0.424566
-0.00753078
0.0670056
-0.199041
-0.167835
-0.113155
0.216411
-0.0787776
0.187037
-0.108259
-0.0185835
0.0165875
0.00199596
-0.042512
0.00554386
-0.138405
0.0287383
0.109666
0.00110925
0.0553294
-0.0564387
-0.239815
-0.176423
0.416238
-0.0732969
0.083411
-0.0101142
-0.158151
0.220329
-0.217767
0.457573
0.306143
0.170047
-0.0586891
-0.00382867
0.0625178
0.178146
-0.382726
0.20458
-0.0315864
-0.106818
0.0327465
-0.112221
-0.158499
0.0824865
-0.0670644
0.0338677
0.0331967
0.153478
-0.116858
-0.0366201
-0.150914
0.0720016
0.0789128
-0.010014
-0.00186952
0.145659
-0.0961282
-0.0495304
0.0163748
-0.0767532
0.0459482
-0.103905
0.0506569
-0.0551202
-0.224158
0.14752
0.076638
-0.0113468
0.0535906
-0.0850773
-0.115585
-0.0184918
0.0662502
-0.0477584
-0.219216
0.00231922
0.124815
0.0206064
-0.145422
0.00841114
0.0761938
-0.0756017
0.138915
-0.0633134
-0.0748299
0.0633533
0.0114766
-0.00132269
-0.131255
0.243756
-0.451522
0.180102
-0.00731401
-0.0237778
0.0310918
-0.0575357
0.0643284
-0.00679277
-0.0566374
-0.0231478
0.0230831
-0.031366
0.0082828
-0.157401
-0.066757
-0.443036
0.21874
-0.417997
0.0194538
0.398543
0.179485
0.129973
-0.309458
-0.00138734
0.188655
0.158893
-0.0806685
0.0154418
-0.193334
0.129827
0.0635076
-0.112857
0.0913573
0.065684
-0.0577958
-0.0133096
0.0711055
-0.0472147
0.000751171
-0.175071
0.371508
-0.196437
0.116817
0.0288415
0.154923
-0.0944349
-0.0604886
0.00298557
0.0904023
0.031897
-0.313744
0.281847
-0.150914
-0.0478907
0.198804
-0.237666
-0.213857
-0.0787228
0.0854346
-0.00671182
-0.0217942
-0.0013373
0.0231315
-0.0960301
0.238988
0.321916
-0.290019
0.0638816
0.00284642
-0.066728
0.0904075
-0.0758143
-0.0145932
0.16561
-0.252172
0.0865618
0.195174
0.0292722
-0.028319
-0.00095319
-0.347961
0.11269
0.235272
0.00475447
0.0109981
-0.270798
0.498876
-0.228078
0.0564438
-0.0655305
0.00908669
0.015415
0.0293499
-0.0447649
-0.0892656
-0.0712891
-0.0853808
-0.0989634
0.0617136
0.0372498
-0.569421
0.357254
0.212168
-0.00595114
0.00129114
0.0581937
-0.197198
-0.179293
0.376491
0.112755
-0.234077
-0.113684
0.0672043
0.0464796
0.153827
-0.053421
-0.0867161
0.0301487
-0.0772892
0.0844202
-0.452514
0.274814
0.1777
-0.433308
0.198482
0.234826
-0.00333485
0.0655927
-0.0622579
0.00996771
0.0376139
-0.0475816
-0.205092
0.363767
-0.158675
-0.21442
-0.0429253
0.413307
-0.252055
-0.161252
-0.0877884
0.0758079
0.0119805
0.0073941
-0.0651899
-0.121109
0.313176
0.0713483
-0.00429243
0.151632
0.142834
-0.294466
-0.0281128
0.0281128
0.253157
-0.429581
0.00834209
0.0674081
-0.0757502
-0.0331692
-0.0657942
0.0312018
-0.0306502
-0.000551553
-0.0935114
-0.0891331
0.0252473
0.0156744
-0.181831
0.068974
-0.317669
0.200135
0.117534
-0.00585581
0.0810923
-0.0752365
-0.0393394
-0.120437
0.26407
-0.143633
0.0121797
0.283797
-0.176931
-0.538353
0.318842
0.219511
0.0202816
-0.0274356
-0.317756
0.0428133
0.274943
-0.028971
0.0361118
-0.00714085
0.0376056
-0.0145225
0.0246329
0.0447732
-0.0373576
0.0910456
-0.0822486
-0.00879707
-0.0397579
-0.0298707
0.130307
-0.26834
0.138034
0.126731
-0.0512017
-0.0755289
-0.1002
-0.0364732
-0.039018
-0.0804752
-0.111392
0.193265
0.124901
-0.318167
-0.153295
0.283602
-0.0564664
-0.271835
0.328301
0.200455
0.167678
0.00451605
-0.00326826
0.00706282
-0.0544001
0.0473373
-0.220213
0.421258
-0.201045
0.371012
-0.174294
-0.0911942
0.203823
0.213784
0.0809067
0.106361
0.0729566
0.053774
0.00586407
-0.0732494
0.0564023
-0.0489305
-0.00747182
-0.0665583
0.0804878
-0.0139296
0.186497
0.221385
-0.407882
-0.165873
-0.170518
-0.0830437
-0.00634797
-0.080622
0.212886
-0.132264
0.127491
-0.107765
0.0637794
-0.315293
-0.22306
-0.074405
0.193964
0.409578
-0.133592
-0.132728
0.0535239
-0.0110673
0.0720734
-0.061006
-0.0116647
0.0144724
-0.00280778
-0.00251674
0.0308881
-0.0105464
0.055704
-0.00331742
0.0100894
-0.006772
-0.53845
0.34236
0.19609
0.0587953
-0.0105637
-0.03582
0.0463837
-0.171894
0.269055
-0.0831775
-0.0986539
-0.000327284
-0.150586
0.374289
-0.173834
-0.0626269
0.0144642
0.00735017
-0.318069
-0.251352
-0.075098
0.0640182
0.0110798
0.130083
0.0890286
-0.219111
-0.136677
0.2762
-0.139523
-0.0694553
0.0619245
-0.205915
-0.142046
-0.0413825
0.128216
-0.0868337
0.0326459
-0.225779
0.193133
-0.0471034
-0.00650429
0.0536077
0.124323
-0.198728
-0.0257439
0.0508815
-0.0251375
-0.0679069
0.0204386
-0.0109777
-0.0511309
0.0621085
-0.179954
0.141068
0.0388865
0.0533221
-0.0379071
0.0655231
-0.0807421
0.123298
0.109573
-0.232872
-0.122856
0.261345
-0.138489
0.0603248
0.00502806
-0.0653528
0.000991033
0.0496659
0.390666
-0.21252
-0.0574476
0.0614222
-0.0276827
-0.0297213
0.0574039
-0.267575
0.131153
0.136422
-0.0795148
-0.0935621
0.173077
0.116754
-0.16111
0.0443563
-0.033028
0.00121085
0.0318172
-0.2515
-0.201014
-0.141453
0.293085
-0.0752253
-0.00349751
0.113122
-0.188717
0.0755951
-0.000136626
-0.0917648
0.0919014
0.200126
-0.420339
-0.00594802
0.0623918
0.0847195
-0.369009
0.284289
0.0954915
-0.27608
0.180589
-0.00337077
0.0047011
-0.0125465
-0.0605017
0.0730482
-0.326269
0.269803
0.214625
-0.400962
0.186336
0.0807885
-0.0965391
0.290484
-0.115397
-0.0574583
0.119362
-0.0619033
-0.549519
0.319564
0.229955
0.0577252
-0.0567342
0.0766095
0.030313
-0.0291107
-0.00120228
0.317628
0.158563
-0.445798
-0.13481
-0.0944669
-0.461644
0.0266628
0.00980426
-0.015751
0.0137254
0.00202564
-0.0396616
0.0617442
-0.0220826
-0.000608039
-0.0935649
0.00142579
0.0921391
0.000311123
0.0499877
-0.0956213
0.0456336
-0.0943284
0.0800779
0.0142506
-0.325648
-0.223871
-0.0728582
0.34973
0.00326062
0.0363623
-0.0396229
-0.010163
0.0605672
-0.311467
-0.00628955
-0.0710695
0.233273
-0.378748
0.145475
0.0615484
-0.0187537
-0.0427947
-0.169088
0.39202
-0.222932
0.320983
-0.225492
0.279875
-0.0826909
-0.197185
-0.0333123
-0.0312774
0.0645897
0.0305562
0.0235252
-0.0540814
-0.245988
0.0588498
0.187138
0.449488
-0.229303
-0.220184
0.244486
0.205002
0.0503505
-0.00934277
0.0614041
-0.152096
0.0579532
0.094143
0.0663615
0.061839
-0.0811126
0.0717423
0.00937032
-0.135998
0.162293
-0.0262944
-0.397528
0.218015
-0.0585927
-0.0026818
0.0268659
0.0681003
0.0663346
-0.134435
-0.200704
0.387201
0.241482
0.173297
-0.414779
0.150507
0.107249
0.0942794
0.0591986
-0.000879692
-0.056656
-0.0085004
-0.000638547
0.00913894
0.0502916
-0.0679358
-0.135898
0.0646982
-0.0198605
0.173654
-0.350927
0.177273
0.0100656
-0.385891
0.375825
-0.0631227
0.113523
-0.232614
-0.00626451
0.00209672
-0.0398279
0.0325138
-0.00238225
0.0207427
0.0558986
-0.111746
0.0558472
0.0215207
0.0399154
-0.129203
-0.113074
0.242277
0.215678
-0.183032
0.0920128
-0.105629
0.0136165
0.0166003
0.0732005
0.000432497
-0.0277627
-0.223042
-0.169815
0.117159
-0.0530724
0.00577533
-0.0475824
0.0418071
-0.102448
0.232531
-0.00177405
0.0290858
0.00122727
-0.388375
0.219287
0.535433
-0.302109
-0.233324
0.102477
0.017882
-0.403916
0.220243
0.183672
0.155969
-0.00356754
0.0568897
-0.0546631
0.0327017
0.0219614
0.00192702
-0.00608393
0.00415691
0.00706544
0.0594472
-0.0665126
-0.0776543
0.0804821
-0.0028278
-0.0256994
-0.0286761
0.000671096
0.028005
-0.338691
0.212708
0.125984
0.102005
-0.0249327
-0.0770722
-0.326667
0.160794
-0.143979
-0.0359749
0.0189897
-0.0222655
0.00327578
0.421722
-0.18024
0.0523814
0.000704503
-0.0530859
0.186236
0.104247
0.133122
-0.00137196
0.0547409
-0.0442357
0.097723
0.0825756
-0.180299
0.536378
-0.314097
-0.222281
0.0949419
0.0118025
0.0861362
-0.263846
-0.0664125
-0.00471944
0.0619993
-0.00167447
0.245218
-0.156189
-0.0727607
-0.0208042
-0.00311335
-0.511035
0.329255
0.181779
-0.0325146
-0.0837082
0.116223
-0.0523958
-0.0553689
-0.191018
0.375778
-0.18748
0.27876
-0.0912799
-0.224915
0.213545
0.0113699
0.00191357
-0.04696
0.0554982
0.306104
0.217642
-0.450095
0.10747
-0.107607
-0.00363509
0.000264326
0.461765
-0.0709863
-0.390779
-0.110253
-0.19348
-0.00218979
0.00218979
0.176984
-0.374182
0.170898
0.221121
0.0552108
-0.0611588
-0.0249357
-0.00374043
0.0631859
-0.00863732
-0.0545486
-0.415071
0.197304
-0.189055
-0.208473
0.00478581
-0.107718
-0.159857
-0.199817
-0.197003
0.39682
-0.00192911
0.0319185
-0.0299894
-0.0772744
0.0915239
-0.0142495
0.00420768
-0.0240665
-0.0438295
-0.0265835
0.110422
-0.0838384
-0.00286997
-0.243118
0.0774867
0.0526776
-0.130164
0.131577
-0.287069
0.155492
-0.0826254
0.0134423
0.320168
-0.146514
-0.00135041
-0.00984416
0.112299
-0.055999
-0.0563001
-0.0498921
-0.120276
0.170168
-0.036361
0.0357083
0.000652668
0.00134084
0.0633376
-0.0646784
0.042682
0.0631445
-0.105827
-0.0807973
0.0531146
0.10133
-0.0454316
-0.150861
0.059096
0.149445
-0.231466
0.0973666
0.134099
-0.406507
0.217452
0.0509179
-0.202537
-0.183889
-0.0826514
-0.0559633
0.0855265
-0.132456
0.297471
-0.165016
-0.0324435
0.0382189
-0.0568467
-0.0527695
0.109616
0.0220729
-0.024002
0.0397602
-0.0503066
0.0601663
-0.124032
0.0638662
-0.0571733
0.0645674
-0.0737256
0.365859
-0.264738
-0.246297
0.143143
0.0867821
-0.229925
0.0534039
-0.0635669
0.00557908
0.117346
-0.213956
-0.0960118
0.247401
-0.151389
-0.0373021
0.034595
0.00270713
-0.0939054
-0.173806
0.267711
-0.170247
-0.170565
0.340812
-0.231523
0.0733723
0.0537198
-0.0630626
0.154382
-0.096252
-0.011308
-0.0390926
0.0504007
-0.255274
0.162049
0.0932252
0.0941685
-0.137164
0.0429951
0.0307433
-0.0332601
0.168327
-0.266287
0.172381
-0.367478
0.162386
-0.475985
0.188441
-0.00149703
0.00515078
-0.00365375
0.0487933
0.0112037
0.0072288
0.00201653
-0.00924533
-0.194025
-0.0252472
0.00252034
-0.00445968
0.00193933
-0.00550721
0.0275801
0.00242725
-0.0246315
0.0225776
-0.00358793
0.110664
-0.0679824
0.0305009
-0.030703
0.000202022
0.271175
-0.120654
-0.150521
-0.142048
0.0515778
-0.0987998
0.155603
-0.0568031
0.0894937
-0.0744431
-0.0150506
0.0522145
-0.0631921
-0.124122
0.0421068
0.0653636
-0.0776005
-0.0732603
-0.0230238
0.0541268
-0.0868192
0.275876
-0.189057
0.160331
-0.312813
0.152482
-0.0306195
-0.0066826
-0.398115
0.197411
0.195942
-0.0104469
0.0443146
-0.07206
0.20462
-0.13256
-0.0885411
0.0781623
0.0103788
-0.00783717
0.130534
-0.202594
0.135191
0.0315539
-0.166744
0.151561
-0.0163699
-0.25789
-0.0808017
-0.0296698
-0.0828638
-0.0512219
0.11972
-0.068498
-0.533001
0.317103
0.215898
-0.0525931
0.0262576
-0.0427197
0.0364886
0.00623103
-0.0594712
0.0678133
0.101282
-0.177417
0.0761359
-0.0336785
0.00065048
-0.0422449
-0.00485851
0.0290749
-0.10739
0.0783151
0.301663
0.118404
0.170946
-0.28935
-0.0427522
-0.0220505
0.0648027
0.293758
-0.211138
-0.08262
0.221116
0.314317
0.109504
-0.242256
0.132753
0.163889
-0.296345
0.098975
0.1722
0.398933
-0.215242
-0.236495
-0.101576
0.0483558
0.0532202
-0.302945
0.505258
-0.202313
0.333839
-0.323773
0.00833761
-0.0730082
0.15242
-0.297391
0.156532
0.520574
-0.201009
0.126965
-0.276661
-0.0137363
0.290397
-0.216348
0.0815376
-0.0971688
0.240311
-0.366447
0.194886
0.171561
-0.00878746
-0.0339322
0.100029
0.0680623
0.003286
-0.429416
0.191751
0.174764
-0.0616424
-0.0795562
-0.0670848
-0.188463
0.0949514
0.103542
-0.0744673
0.0217883
-0.146106
0.0397145
-0.0221934
0.00431529
0.00687928
0.0257544
-0.0284362
0.407231
-0.23485
-0.17238
0.141215
-0.0623889
0.0227274
0.0812559
-0.0506992
-0.0305567
0.00457847
-0.203515
-0.194599
-0.143804
-0.142143
0.0772893
-0.161167
0.0838779
0.144345
-0.273482
0.129137
-0.00988232
-0.0331991
0.0430815
-0.00175142
-0.0110172
-0.140674
0.273644
-0.13297
-0.392364
0.115703
0.0232448
-0.0256271
0.00372839
-0.00180136
-0.0758261
0.0912551
-0.0154291
0.0215269
0.0684419
-0.0355052
0.00653416
0.0142279
-0.0069761
-0.00725184
-0.00432548
-0.190898
0.195223
-0.0728882
-0.0676154
-0.0779502
-0.016598
0.00761774
0.084395
-0.0703313
0.0716722
-0.220876
0.124846
0.0962233
0.107872
-0.204095
0.0492517
-0.0186956
0.0316925
-0.0840883
-0.280657
0.244647
-0.409645
0.164998
-0.228811
0.127756
0.101055
0.221047
0.299527
0.173361
-0.0485456
-0.00025667
-0.0239299
0.0608079
-0.122438
0.0616302
-0.192005
0.29947
-0.107464
-0.0812097
-0.281155
0.11348
0.167675
0.106278
-0.168838
-0.0626271
-0.0370739
-0.0175893
0.0314713
-0.00238555
0.10809
0.122429
-0.230519
0.096099
-0.191106
0.0950066
0.00323148
0.0583169
-0.174472
-0.217084
0.0878809
0.184032
0.282657
-0.15108
0.00247282
0.0289985
-0.175977
-0.0517683
-0.0738103
-0.0560785
0.129889
-0.212679
0.14455
0.0681285
0.000811248
-0.00266144
0.00185019
-0.308571
0.262511
-0.130457
-0.132053
0.00451596
0.0217284
-0.122782
0.104195
0.0185867
0.0338402
-0.440398
0.376052
0.0643463
-0.022993
0.00119879
0.183453
-0.383271
0.160281
-0.285525
0.125245
-0.0130503
0.00275786
0.0102925
0.205251
0.122051
-0.327302
0.0139361
-0.0156875
0.224567
0.196692
-0.00604568
0.0612564
0.0315645
-0.0332913
0.00172676
0.080387
-0.0893158
0.00892883
0.00508765
-0.0421069
-0.0051078
0.00466937
-0.0820454
0.0276513
-0.241529
-0.187887
0.222929
-0.227254
0.41053
-0.185963
-0.0896483
0.0066046
0.427179
-0.240046
-0.187134
-0.0774093
-0.00196994
0.0793792
-0.0801322
-0.0140675
0.0783881
0.0120194
0.16827
-0.34047
0.172199
0.121794
-0.0796874
-0.215173
-0.188743
-0.497675
0.179606
-0.199617
-0.0252979
-0.222317
-0.228925
-0.0732363
0.17177
-0.154015
0.0552151
-0.18328
-0.183167
0.209674
-0.365658
0.155984
-0.0772829
0.0212456
0.0560373
-0.486844
0.0464464
0.0174921
-0.0885343
0.0710422
-0.130269
0.080891
-0.0317391
-0.0491519
0.33276
-0.1984
-0.13436
-0.0134547
-0.0239674
0.0374222
0.0156793
0.0606874
-0.0466406
0.0499013
0.0877799
-0.0769497
-0.0108302
0.114675
0.0649653
-0.0146737
0.00520939
0.0121924
0.0523583
0.0701437
-0.122502
0.0033416
-0.000757287
-0.00258431
0.39423
-0.157812
-0.236419
-0.0479118
-0.0147151
0.0168527
0.384157
-0.231534
-0.152624
0.0201145
-0.0948208
0.0747064
-0.124548
-0.0994731
-0.0297694
-0.00573575
0.0497589
0.0633352
-0.113094
-0.139844
-0.184446
0.32429
-0.0848828
0.32953
-0.0846358
-0.00501243
-0.156878
0.0760958
0.0807819
0.0341899
0.0467011
0.425907
-0.226782
-0.199125
0.0503218
-0.070705
0.0203831
-0.0923637
0.325354
0.0964668
-0.000594834
-0.00130053
0.00189537
-0.208128
0.0507267
-0.149373
-0.0632935
-0.0430928
0.0458545
-0.102701
-0.0514743
-0.0943342
0.145809
0.000914268
0.0417956
0.0606817
0.327022
-0.123101
-0.203921
0.0708456
-0.0205238
-0.409795
0.20628
-0.246799
0.418176
-0.171377
-0.00544541
0.0851262
-0.0796808
-0.189519
0.109553
0.0799662
0.227743
0.156414
-0.0658178
-0.0107142
-0.106144
-0.0763928
0.0909423
-0.0145495
-0.022548
0.00255773
0.0199903
0.397568
-0.207272
-0.190296
0.0138345
0.171457
0.221755
-0.393212
0.46672
-0.256903
-0.209817
0.219666
-0.139833
-0.079833
-0.0141111
0.13981
-0.125699
0.189143
-0.11158
-0.0775628
0.0683681
-0.010186
0.00304644
-0.0618943
0.0588479
-0.100734
-0.0220476
-0.237834
-0.295167
0.000161482
0.0544084
-0.0179614
-0.036447
-0.0150562
-0.00378858
-0.107775
0.313026
0.359391
-0.166125
0.0821205
0.114682
-0.145101
0.197873
-0.0616032
-0.122456
-0.139477
0.125365
0.0749658
0.0774968
-0.152463
-0.212094
0.13032
0.113213
-0.243534
-0.0950548
-0.125821
-0.198497
0.418741
0.13332
-0.0652193
-0.113244
0.257588
-0.125526
-0.162227
0.287754
0.00865313
-0.0844614
0.0511715
-0.0571434
-0.0552623
-0.0463137
-0.0182915
-0.00425649
0.0899439
-0.00955688
-0.0819219
0.0837725
-0.0018506
0.195922
0.0344387
-0.0283544
-0.00608432
0.0610922
0.0145301
0.0249091
-0.0823675
0.141253
-0.0734446
-0.0678079
-0.0759927
0.0737545
0.00223813
0.0043999
0.0300388
-0.0685731
0.0144294
0.0541438
0.424429
-0.171271
0.0722111
-0.107195
0.00333685
0.00199394
0.00612793
-0.00812186
0.0674439
-0.00635166
0.312957
-0.174475
-0.138482
-0.00999666
0.0738782
-0.0576311
-0.164311
0.0447369
0.149727
-0.236546
-0.0805183
0.0908036
-0.0102853
0.0728652
-0.147058
0.11878
-0.0458233
0.127363
0.0617803
-0.0511056
0.114645
-0.0635395
-0.00166884
-0.00683155
-0.0588752
-0.00909776
0.067973
-0.121955
-0.13636
0.258315
-0.11115
-0.159858
0.271008
0.238598
0.327298
-0.187829
-0.139469
0.0722569
-0.068066
-0.00419091
0.144279
-0.204549
0.0602709
0.0860889
-0.0766558
-0.00943312
-0.125727
-0.108358
0.305453
-0.141368
-0.164085
0.446659
-0.0244771
-0.304962
0.0598621
0.2451
0.068345
-0.00558476
-0.125935
0.0521251
0.0791778
-0.00916342
-0.0700144
-0.148364
0.283075
-0.134711
-0.253791
0.0597668
0.0935997
0.00840515
0.0664923
-0.085589
0.0190966
0.00451428
-0.231404
0.444046
-0.212643
-0.279153
0.157197
0.0526076
-0.0561752
0.177806
0.102069
-0.144565
0.339258
-0.194693
0.0903941
0.243014
-0.437269
0.194255
0.00291038
0.0201134
-0.0230238
-0.15104
0.314929
0.0852581
-0.0187658
0.00725359
0.0518926
-0.0591462
-0.23679
0.127707
0.0136794
-0.0107104
-0.0331719
0.0438822
0.458095
-0.213609
0.230424
0.211146
-0.44157
0.0628247
0.051619
-0.114444
-0.156777
-0.155597
-0.00804482
0.0869407
-0.0788959
0.260859
-0.0990867
-0.161772
-0.0566511
0.00119523
0.0554559
-0.00399258
-0.0739633
0.0779559
0.155731
0.133928
0.0938169
-0.227745
0.00283354
-0.228195
-0.24779
0.00542273
-0.00691976
0.0104681
0.0419133
0.163663
-0.289189
-0.0391888
-0.0472776
-0.0492439
0.0571031
-0.00785915
0.0844516
0.0322966
-0.053957
0.0216604
0.266114
-0.402119
0.136005
0.115965
-0.0658324
-0.0501323
-0.0872292
0.0114031
0.0589682
-0.00455985
0.209463
0.137262
-0.0880339
0.160015
-0.117426
-0.0425885
0.152789
-0.0515077
-0.159055
0.322389
-0.163334
0.000114226
0.000705213
-0.000819439
0.00891919
0.0881343
0.0659829
0.0316569
-0.00115601
0.375822
0.157022
-0.0284771
-0.128545
-0.178763
-0.138906
-0.096897
-0.0287223
-0.265609
0.13963
0.138092
0.124419
0.227336
0.309042
0.531955
-0.302377
-0.229578
-0.0605907
-0.057214
0.000562901
-0.183206
-0.0319598
0.215166
0.120516
-0.241065
0.120549
-0.227268
0.12482
-0.00271577
0.0328245
0.0826411
0.0938352
-0.160304
0.0664685
0.00731914
-0.0454543
0.0541217
-0.00866737
-0.106663