/*--------------------------------*- C++ -*----------------------------------*\
| =========                 |                                                 |
| \\      /  F ield         | OpenFOAM: The Open Source CFD Toolbox           |
|  \\    /   O peration     | Version:  v2012                                 |
|   \\  /    A nd           | Website:  www.openfoam.com                      |
|    \\/     M anipulation  |                                                 |
\*---------------------------------------------------------------------------*/
FoamFile
{
    version     2.0;
    format      ascii;
    class       volVectorField;
    location    "300";
    object      U_0;
}
// * * * * * * * * * * * * * * * * * * * * * * * * * * * * * * * * * * * * * //

dimensions      [0 1 -1 0 0 0 0];


internalField   nonuniform List<vector> 
18540
(
(0.322642 0.0483191 0)
(1.00002 -0.000713038 1.53745e-21)
(1.01928 -0.016894 2.42026e-21)
(-0.0883338 0.00813484 0)
(1.08334 -0.015474 -7.88546e-21)
(1.10182 0.00608849 1.07956e-20)
(1.08384 -0.0141267 1.98686e-20)
(1.16679 -0.0340747 0)
(0.631611 -0.0970363 5.79653e-20)
(0.993824 -0.0501199 -2.32244e-22)
(0.952266 -0.0838349 -8.92404e-21)
(0.987969 -0.0144381 9.17334e-21)
(-0.134492 -0.000626987 -5.97697e-20)
(0.993962 -0.017557 -5.57997e-21)
(0.198339 0.0459358 -4.14068e-22)
(1.19541 0.0255745 0)
(1.07514 -0.267782 0)
(0.895064 -0.0744482 0)
(-3.88837e-05 0.0460939 0)
(0.390375 0.033078 2.87959e-20)
(0.760656 0.00215424 -3.05646e-20)
(1.19655 -0.0918055 0)
(1.00183 -0.00564499 2.87287e-22)
(-0.0747276 -0.00787371 0)
(1.16355 -0.0334948 0)
(1.03471 -0.173968 0)
(-0.104106 -0.00544719 6.37949e-20)
(1.16571 -0.00932381 1.94739e-20)
(1.10282 -0.00648399 -2.06641e-20)
(0.811551 0.0435182 2.43382e-20)
(1.00007 -0.000891996 -2.73649e-21)
(0.994165 -0.0109812 0)
(1.19829 0.0228247 -2.04092e-20)
(0.00989752 -0.0134546 -1.73257e-20)
(0.999398 -0.128824 0)
(-0.103543 0.00523467 0)
(1.20059 -0.0938648 3.50935e-20)
(1.00718 -0.0102418 3.84678e-23)
(1.0332 -0.010147 -3.78693e-21)
(0.716568 -0.334766 0)
(1.00011 -0.00131829 6.0445e-22)
(0.998039 -0.00980299 1.11874e-20)
(-0.236744 -0.0251244 0)
(0.506545 0.07046 1.67013e-20)
(1.16376 -0.0111445 -1.66666e-20)
(1.03753 -0.169145 0)
(1.08944 -0.618071 -3.95009e-20)
(1.0188 -0.0163195 -1.46335e-21)
(0.768619 -0.00496041 -5.92256e-20)
(1.11691 -0.00700069 -1.39939e-20)
(0.99353 -0.0173136 -4.95179e-21)
(0.050535 0.250225 0)
(0.351013 0.0292738 0)
(1.00015 -0.00067452 0)
(1.03972 -0.141849 1.19769e-21)
(1.10507 0.0114462 0)
(-0.142891 -0.002499 5.76447e-20)
(-0.110786 -0.0190508 -6.85161e-20)
(-0.270828 -0.0240998 0)
(1.03837 -0.00224743 0)
(-0.212139 -0.0168963 3.99717e-20)
(1.08795 -0.0459991 0)
(1.03881 -0.130304 5.20046e-21)
(1.16703 -0.31994 0)
(0.376109 0.0502739 7.74053e-20)
(1.02459 -0.0230942 3.21115e-21)
(0.845586 -0.311722 -1.97054e-20)
(1.00164 -0.0011137 3.24365e-22)
(-0.2796 -0.0241053 -2.63012e-20)
(1.03325 -0.00863122 5.02294e-21)
(1.10286 0.0111082 0)
(0.844815 -0.114729 1.89546e-20)
(1.20843 0.0150455 0)
(-0.0836439 -0.0205072 1.11698e-19)
(1.13063 0.0217034 2.52543e-20)
(1.1288 -0.320061 6.36249e-20)
(1.07024 -0.260614 0)
(1.00258 -0.000884791 3.39322e-23)
(0.900199 -0.0746633 5.412e-21)
(1.20536 -0.219874 1.49812e-20)
(1.00748 -0.0918832 -5.2954e-22)
(0.877283 -0.07676 0)
(1.00699 -0.00934391 0)
(1.1768 0.0530596 -1.46384e-20)
(-0.212174 -0.0154074 0)
(0.19955 0.0497516 -3.40863e-20)
(0.997063 -0.0334905 0)
(1.00131 -0.00473179 0)
(1.05401 -0.102082 0)
(0.193283 0.0488169 5.21757e-20)
(1.25599 -0.191252 9.40598e-21)
(1.22815 -0.061627 8.85674e-20)
(1.04244 -0.205288 -3.64382e-21)
(1.02357 -0.00128722 -1.1314e-22)
(1.08797 -0.0237262 -3.86788e-22)
(0.992881 -0.0514788 8.49711e-21)
(1.03388 -0.0895368 7.67628e-21)
(1.13166 -0.0529535 5.10549e-20)
(0.132002 0.15117 -8.04351e-20)
(0.046677 -0.0157664 -1.60272e-20)
(1.04874 -0.0203069 4.21093e-21)
(1.00435 -0.000633699 1.25116e-22)
(1.19688 -0.217921 -4.74583e-20)
(1.15206 0.0272377 0)
(-0.183484 -0.0127369 -1.60054e-20)
(1.19687 0.0207125 0)
(1.04965 -0.0211289 1.01839e-20)
(-0.0326458 -0.0342322 1.6429e-19)
(1.03463 -0.130202 -4.13035e-21)
(0.925598 -0.0450301 0)
(0.0228739 -0.00753425 -6.89057e-21)
(-0.0644013 0.00691961 3.08042e-20)
(1.00239 -0.000981603 0)
(1.02818 -0.121339 -2.19566e-21)
(0.160033 -0.00558742 -5.07522e-20)
(1.02113 -0.167245 1.2539e-21)
(1.00778 -0.182791 6.18764e-23)
(1.13011 -0.0545861 -6.26342e-22)
(1.00017 -0.125097 0)
(1.10306 0.00473298 1.29528e-20)
(0.0432841 0.050346 -1.2511e-19)
(0.797173 -0.0872753 2.14595e-20)
(-0.230164 -0.0186258 4.18793e-20)
(0.536413 -0.00571752 -1.75366e-20)
(1.00387 -0.00762022 1.39713e-21)
(1.10077 -0.0058348 2.11102e-20)
(1.11655 0.00596935 1.52421e-20)
(0.907859 -0.155892 7.49256e-21)
(-0.244988 -0.0250368 0)
(1.1196 -0.325752 -6.08552e-20)
(1.25049 -0.371747 4.85436e-20)
(1.02609 -0.167277 1.12775e-21)
(1.12931 0.020323 0)
(0.628992 0.0749899 -8.22286e-21)
(1.01804 -0.0163824 0)
(1.0169 -0.00194339 -4.9765e-21)
(0.95535 -0.0826862 1.76624e-20)
(1.06881 -0.108677 0)
(0.967935 -0.0284347 4.59678e-21)
(1.02529 -0.0228978 -1.57499e-21)
(0.379484 0.0502231 2.47403e-20)
(1.20999 -0.031942 -4.01997e-20)
(1.12575 -0.0161711 -1.92348e-20)
(0.0705168 -0.0179543 -1.55766e-20)
(1.02906 -0.0164752 4.61829e-21)
(1.02061 -0.0115757 7.19422e-21)
(1.11528 0.00740346 1.31847e-20)
(0.595628 0.0751155 0)
(1.06769 -0.111992 0)
(0.75977 -0.079755 -2.36131e-20)
(1.01579 -0.00988915 0)
(0.960748 -0.0374175 3.91969e-22)
(1.02345 -0.0167309 1.26793e-21)
(0.107048 -0.00599895 -9.48295e-20)
(0.585511 -0.463716 0)
(0.646389 -0.0911618 0)
(0.779265 -0.065519 0)
(1.02941 -0.0171084 1.70252e-21)
(1.00714 -0.0254753 -2.51021e-21)
(0.0200633 -0.0434365 -1.59128e-19)
(1.16194 0.0195872 0)
(1.13081 0.0041998 -3.32312e-21)
(0.999863 -0.00161687 4.40717e-21)
(1.0176 -0.0158239 0)
(-0.210816 -0.00661074 0)
(0.988126 -0.0136269 -7.54834e-21)
(0.570787 0.0720006 3.29806e-20)
(0.907722 -0.148782 -7.67792e-21)
(0.229085 0.0497018 -2.63994e-20)
(1.03945 -0.03121 0)
(1.00126 -0.00484617 0)
(1.1052 -0.00198567 0)
(1.04632 -0.0823811 0)
(1.05459 -0.09928 -6.3162e-21)
(1.00803 -0.0504815 -1.06783e-21)
(0.401386 -0.00675855 4.13359e-20)
(1.08586 -0.0456424 0)
(-0.0686746 0.00858614 0)
(0.606414 -0.482769 0)
(1.04516 -0.556512 4.86733e-20)
(1.04886 -0.0974282 0)
(0.933125 -0.19442 1.6663e-20)
(1.13162 0.00587318 -5.77468e-21)
(1.22523 -0.0597321 -1.14076e-19)
(0.918643 -0.0434109 -1.47164e-20)
(-0.128012 -0.00473796 0)
(0.971726 -0.0502655 0)
(1.0804 -0.0276996 -7.08713e-21)
(1.29306 -0.0856109 5.06806e-20)
(1.00709 -0.176824 4.70297e-22)
(1.10385 -0.00312883 -1.05524e-20)
(1.00792 -0.0890615 1.63403e-21)
(-0.0906202 -0.0112771 0)
(1.0036 -0.00753665 -1.08437e-21)
(0.725869 0.142564 0)
(1.00674 -0.024954 0)
(1.11555 0.011234 -1.41735e-20)
(1.27327 -0.0189747 4.75125e-20)
(1.17904 0.0519482 -3.53539e-20)
(1.03444 -0.118548 1.55917e-21)
(1.0457 -0.165059 -5.02856e-21)
(1.22934 -0.0789026 8.5837e-20)
(0.930701 -0.160264 -2.15502e-20)
(1.11447 -0.00625774 7.13851e-21)
(0.253864 0.0567144 -4.07292e-20)
(-0.0547365 0.00941473 3.70291e-20)
(0.986018 -0.014865 -4.16224e-21)
(-0.109199 0.00429085 0)
(-0.100267 -0.00385654 -2.73524e-20)
(1.12557 -0.0290893 5.38178e-21)
(0.994474 -0.0105508 0)
(-0.263225 -0.0219877 -6.61302e-20)
(-0.0861353 0.005546 5.41437e-24)
(1.00067 -0.00408658 0)
(1.04114 -0.199744 0)
(1.12623 -0.0577728 0)
(0.466173 -0.00479217 1.79723e-20)
(1.0088 -0.410803 0)
(-0.0815392 -0.00766127 -2.28757e-20)
(0.88706 0.0735363 -5.72028e-20)
(-0.272728 -0.0221513 1.31287e-19)
(1.14926 -0.203296 1.49509e-20)
(0.790609 0.0656107 0)
(0.659697 -0.0166024 9.43177e-20)
(1.10157 -0.59531 7.29342e-20)
(-0.186613 -0.0137057 4.45835e-20)
(1.11393 -0.0678977 0)
(1.12456 -0.0273675 -1.7779e-20)
(-0.275304 -0.0227775 -3.01236e-20)
(1.14832 -0.000543783 0)
(1.03726 -0.0899425 -2.50352e-21)
(1.27355 -0.067528 -4.44349e-20)
(1.20974 0.0179511 3.7347e-22)
(1.03217 -0.0920338 -3.42693e-21)
(0.999924 -0.00130274 0)
(1.09003 -0.01919 -1.21115e-20)
(0.995499 -0.0101838 0)
(0.868011 -0.00679158 0)
(1.16064 0.0172733 0)
(0.924223 -0.16049 1.93614e-22)
(0.339669 -0.0909269 0)
(1.16817 -0.429659 8.9511e-20)
(1.23189 -0.232329 -4.00894e-20)
(1.11388 -0.0658581 -2.13535e-20)
(0.267935 0.058573 4.64984e-20)
(-0.130244 -0.00855915 6.49647e-20)
(1.00012 -0.00131015 1.5164e-21)
(1.0202 -0.0123919 0)
(1.10859 -0.0806301 0)
(0.98362 -0.0346773 1.07326e-20)
(1.07392 -0.286525 8.00318e-21)
(-0.122043 -0.00493046 6.1581e-20)
(-0.258461 -0.0259574 5.41102e-20)
(0.959011 -0.0382236 -1.42322e-20)
(0.914898 -0.0435552 0)
(1.16024 -0.326918 5.41091e-20)
(1.27055 -0.0864727 0)
(0.492153 -0.252663 6.09709e-20)
(0.988801 -0.0132892 -7.25085e-23)
(-0.0187516 0.0178905 0)
(1.14787 -0.320784 -2.60254e-20)
(0.0487261 0.0218623 -2.09274e-20)
(0.968873 -0.0172899 -2.87116e-20)
(0.996794 0.592089 -3.6354e-20)
(-0.202727 -0.0145897 0)
(1.10952 -0.0788397 1.856e-20)
(0.660492 -0.000838131 -9.54923e-20)
(0.324693 0.0158311 0)
(1.00726 -0.0098977 -5.16703e-23)
(1.00075 -0.00444357 -8.64134e-22)
(-0.284778 -0.0257581 6.48987e-20)
(-0.12721 -0.00330895 0)
(0.643574 0.367919 1.14173e-19)
(1.05352 -0.0466841 -1.24684e-20)
(1.21864 -0.00821038 -7.98638e-20)
(0.141171 0.0397825 0)
(1.02348 -0.0160877 4.6015e-21)
(1.14774 -0.0588542 2.98376e-20)
(1.25719 -0.197685 4.7008e-20)
(1.00499 -0.0232845 4.75731e-21)
(0.999758 -0.00610596 3.70198e-21)
(0.230905 0.0480355 3.22547e-20)
(1.07325 -0.0518304 -1.87132e-21)
(0.995765 -0.0102599 -7.70317e-21)
(0.24544 -0.552904 -6.15201e-20)
(1.03395 -0.00869707 -1.148e-20)
(0.382847 0.365611 -1.29445e-19)
(1.14669 -0.00233189 1.73406e-20)
(-0.0989141 0.00592105 0)
(1.21568 0.0109265 0)
(0.109719 -0.00343878 0)
(0.939045 0.0747629 5.23027e-20)
(0.995704 -0.228215 -1.07548e-21)
(1.00715 -0.00911519 0)
(0.711308 -0.0797715 9.37647e-20)
(1.13096 0.0285964 -1.22752e-20)
(1.27174 -0.0193691 -4.41389e-20)
(1.04392 -0.169753 1.07803e-20)
(0.956696 -0.0515605 -6.48175e-20)
(0.712108 0.140999 0)
(0.983102 -0.0307309 0)
(-0.266453 -0.0225209 0)
(1.176 0.0751577 -4.4633e-20)
(0.788792 -0.185353 4.73626e-20)
(0.871006 -0.338556 -1.7388e-20)
(0.999568 -0.0149524 0)
(0.319362 -0.101356 0)
(1.01532 -0.0099691 -1.23677e-21)
(0.510884 -0.266055 5.65034e-20)
(0.994844 -0.0106784 0)
(-0.0111592 0.00488026 -2.4846e-20)
(1.05779 -0.0181408 0)
(0.119594 0.0372595 0)
(1.11682 0.00979127 0)
(1.28099 -0.278714 7.19246e-20)
(0.237286 0.401854 -4.39424e-20)
(0.165555 0.0435668 -1.29116e-20)
(0.991063 -0.00777499 -7.51957e-21)
(0.852385 0.0619041 0)
(-0.19691 -0.0268356 -1.19118e-19)
(-0.219192 -0.0152164 -1.80823e-20)
(0.517983 -0.457226 -4.3993e-20)
(0.984929 -0.0345616 0)
(-0.277459 -0.0243376 0)
(1.07112 -0.0546906 3.06267e-21)
(1.05016 -0.00411884 4.67642e-21)
(1.13057 7.32201e-05 0)
(1.02469 -0.12066 0)
(0.999354 -0.017247 5.8976e-21)
(1.00564 -0.0154429 -6.79935e-22)
(1.02072 -0.0122559 -3.7409e-21)
(1.20676 -0.034319 3.37201e-20)
(0.592236 -0.308279 -6.09697e-20)
(0.873592 -0.00978402 -5.96492e-20)
(1.24068 -0.380712 -4.77559e-20)
(1.10854 -0.321142 1.25732e-20)
(1.04049 -0.0306269 -7.05863e-21)
(1.00053 -0.00504553 -1.14743e-21)
(-0.168202 -0.0110997 3.12939e-20)
(0.796763 -0.193874 0)
(1.12369 -0.0586523 0)
(1.12692 -0.0183562 -2.27563e-20)
(1.07569 -0.027313 1.32317e-20)
(0.848654 -0.326056 0)
(1.26579 -0.129953 3.55328e-20)
(0.603475 -0.35218 3.01453e-20)
(1.00509 -0.0225169 -1.96678e-21)
(1.15147 -0.209884 -3.48992e-20)
(1.08337 -0.0205812 -1.65208e-20)
(0.398687 -1.12273 0)
(0.84996 -0.572796 -2.63477e-21)
(1.00053 -0.00473143 -1.07824e-21)
(0.824034 -0.0994839 -1.57897e-19)
(0.99822 -0.0519643 -1.54216e-21)
(0.999876 -0.00601538 -2.33809e-22)
(0.328571 0.00133865 3.49691e-20)
(1.00077 -0.005158 1.89275e-21)
(1.02419 -0.0173176 0)
(1.01106 -0.0357865 0)
(-0.0215575 0.0135354 -1.14759e-20)
(1.13272 0.0273666 3.72315e-20)
(1.01689 -0.0158524 -2.48571e-21)
(0.999468 -0.0143789 5.91226e-21)
(1.04626 -0.0956295 0)
(0.153763 -0.00664441 0)
(0.980509 -0.22774 -1.36823e-21)
(1.03671 -0.00216144 -6.19887e-23)
(0.997912 -0.0103196 -3.02473e-21)
(1.03958 -0.032385 -3.59284e-21)
(1.00421 -0.00830726 -1.01912e-21)
(-0.0918831 0.00863055 -1.57266e-22)
(1.01896 -0.0109299 -4.9623e-21)
(1.2502 -0.153039 0)
(0.985123 -0.0911617 1.38261e-20)
(1.00059 -0.00510633 -1.13938e-21)
(1.17887 0.0737296 0)
(0.995123 -0.0102214 0)
(1.10739 0.0783514 0)
(1.07208 -0.0505414 1.44743e-21)
(-0.0894913 -0.0774354 1.86714e-20)
(0.654157 -0.128188 -5.46365e-20)
(1.01481 -0.00948963 -2.38188e-21)
(1.08329 -0.286393 3.05451e-21)
(1.28092 -0.0685386 2.49529e-20)
(0.939578 -0.131417 9.56647e-22)
(1.02114 -0.0114846 -4.2714e-21)
(0.581801 0.137572 -1.5015e-21)
(0.79629 0.0448266 4.3018e-20)
(1.00059 -0.000419739 -1.11242e-21)
(1.17155 -0.185006 -7.52238e-20)
(0.39105 -0.000142446 -9.6274e-20)
(1.0144 -0.00959049 1.32765e-21)
(1.05846 -0.0957447 6.13963e-21)
(-0.267072 -0.020775 -9.30915e-20)
(-0.0952641 0.00766633 -8.07263e-20)
(1.00044 -0.010987 2.95248e-21)
(-0.0803177 -0.00771692 0)
(-0.104658 0.00541753 0)
(1.00051 -0.00044224 1.15713e-21)
(0.418782 0.386409 6.61824e-20)
(0.289715 -0.139679 0)
(0.567288 0.0725577 -1.45245e-22)
(1.08174 -0.0207586 1.54994e-20)
(0.998599 -0.00281796 -8.91373e-21)
(1.1309 -0.0113895 6.64151e-21)
(1.02573 -0.0174919 1.32596e-21)
(0.608783 0.0770855 -3.59892e-22)
(-0.236002 -0.0197673 0)
(0.981952 -0.0402986 0)
(1.14234 0.0349558 1.64943e-20)
(-0.0829348 -0.0571173 4.64274e-20)
(-0.239297 -0.0250066 -1.09508e-19)
(1.13991 -0.32733 -2.44442e-20)
(1.0165 -0.0152756 2.48645e-21)
(1.13215 -0.0129334 2.16394e-20)
(0.104466 -0.359797 0)
(1.00057 -0.00544376 2.24705e-21)
(1.10627 0.0100479 0)
(1.24079 -0.233302 -4.69325e-20)
(0.575679 -0.288286 0)
(0.700605 -0.535613 2.04269e-20)
(0.323094 0.0486176 -2.59812e-20)
(1.00411 -0.008067 6.62609e-22)
(0.0711523 0.282994 0)
(1.01798 -0.00622837 -1.70221e-21)
(1.13543 0.00763712 4.60308e-20)
(1.01836 -0.00606675 -4.71402e-23)
(0.499984 0.465249 3.73907e-20)
(0.953421 -0.118736 -2.49291e-20)
(1.01191 -0.173198 2.24037e-22)
(1.00526 -0.0151554 0)
(0.0663712 0.0229304 -4.20185e-20)
(1.1348 -0.00443041 -2.20249e-20)
(0.2738 0.0143407 0)
(1.02684 -0.0930853 5.16553e-22)
(0.497187 0.52557 0)
(1.00162 -0.00538231 -2.69176e-22)
(1.0231 -0.00655689 2.06923e-21)
(0.691802 -0.072806 0)
(0.991378 -0.0183773 3.02312e-21)
(0.562604 0.146355 -5.42498e-22)
(0.92903 -0.0456735 0)
(0.646369 -0.00621054 -1.26121e-19)
(-0.184427 -0.00975805 -3.02798e-20)
(0.992491 -0.0179086 8.78656e-23)
(1.04878 -0.0238274 -1.44094e-20)
(0.97693 -0.022946 0)
(-0.194382 -0.0119365 3.83444e-20)
(0.988901 -0.0125316 7.14495e-21)
(1.03493 -0.00816151 5.86068e-21)
(0.459493 -0.0366735 0)
(-0.0811026 -0.0075563 -7.19469e-20)
(1.01665 -0.00173675 8.55658e-23)
(1.02435 -0.00761779 -2.27712e-21)
(1.04959 -0.00534049 0)
(0.973824 -0.00771284 9.08063e-21)
(1.11467 0.0183432 8.33649e-21)
(0.993054 -0.0180961 5.44454e-21)
(-0.206134 -0.0137777 0)
(-0.0826604 -0.00645105 -7.20974e-20)
(1.08363 -0.00292447 -2.19796e-22)
(1.00797 -0.0488274 0)
(1.13106 -0.00166083 -2.02037e-20)
(1.058 -0.098657 1.4332e-20)
(1.00086 -0.00393146 5.5405e-24)
(1.03342 -0.198714 9.02292e-21)
(0.337676 -0.00499427 0)
(1.08936 -0.000177776 1.64776e-20)
(1.26618 -0.0155916 4.78937e-20)
(1.21522 -0.00740103 9.20382e-20)
(0.473675 -0.919676 0)
(0.86511 -0.326594 -1.43934e-20)
(-0.219044 -0.0238197 -4.77187e-20)
(0.0215688 -0.0302139 0)
(0.59767 -0.379495 0)
(1.03274 -0.00315836 7.93483e-21)
(0.0715151 0.0247254 7.11306e-20)
(1.00401 -0.00076618 -1.88891e-22)
(1.02702 0.0529954 0)
(1.023 -0.00147186 1.85798e-21)
(1.15033 -0.0601861 -4.05572e-20)
(1.03057 -0.00524763 -3.33388e-21)
(0.588327 0.00280569 8.92404e-20)
(0.982552 -0.0370623 0)
(1.09006 -0.00132288 -1.68859e-20)
(0.996796 -0.121824 -3.44948e-21)
(1.13084 0.0177927 0)
(-0.197069 -0.0276546 -8.50887e-20)
(0.989561 -0.0179077 0)
(1.05497 -0.0473548 0)
(0.346748 0.38487 0)
(1.16067 0.0125204 7.53086e-20)
(0.732559 -0.328368 0)
(-0.224738 -0.016934 0)
(-0.0614645 -0.00367992 3.6112e-20)
(0.155729 -0.620068 -3.83496e-20)
(1.02401 -0.115947 2.3701e-21)
(0.0783892 0.0237754 4.1405e-20)
(1.2407 -0.0353986 0)
(0.95556 -0.0780733 -1.64267e-20)
(0.566114 -0.387719 0)
(0.905636 -0.347125 1.24428e-20)
(1.03725 -0.00236961 7.93512e-21)
(1.00055 -0.395743 0)
(1.00001 -0.000857051 -2.53013e-21)
(1.07283 -0.0540509 -4.17608e-21)
(0.853103 -0.542538 1.20921e-21)
(1.05906 -0.00831539 -7.18171e-21)
(0.753492 -0.297776 0)
(-0.0480875 0.0113099 0)
(0.983433 -0.0295571 6.3161e-21)
(0.974165 -0.00876445 -2.96302e-20)
(0.997916 -0.00956182 -6.16174e-21)
(1.14103 0.0338015 -1.54803e-20)
(0.125545 0.0213322 0)
(0.988369 -0.091192 -7.80816e-21)
(1.092 -0.0390795 -1.02595e-20)
(1.00868 -0.0084422 5.59114e-23)
(-0.075717 0.013855 3.48913e-20)
(1.00182 -0.00113045 3.31054e-22)
(0.511979 0.275762 6.29346e-20)
(0.996711 -0.00933029 0)
(1.10166 -0.313928 0)
(0.862567 -0.0358811 0)
(1.12965 0.016115 -1.58606e-20)
(1.03225 -0.00315385 -7.89496e-23)
(1.00057 -0.00891387 0)
(-0.115398 0.00355105 0)
(1.00839 -0.00851136 0)
(0.997929 -0.0335372 4.10576e-21)
(0.234034 -0.0131767 5.72589e-20)
(1.16745 -0.411322 -2.30277e-20)
(1.00166 -0.232193 0)
(1.0015 -0.00502357 0)
(1.00011 -0.000852548 -2.75753e-23)
(1.0565 -0.0183021 -2.90283e-21)
(0.21827 0.0223788 -1.50068e-20)
(1.05604 -0.53521 3.40481e-20)
(1.00196 -0.157871 1.41152e-21)
(0.996529 -0.0312113 -4.18385e-21)
(1.00053 -0.00405929 0)
(0.836137 -0.0436532 -2.29626e-20)
(1.25567 -0.156278 -4.15779e-20)
(1.13547 -0.165842 -2.67905e-20)
(1.09061 0.00720964 0)
(1.03189 -0.00357377 0)
(-0.198531 -0.0228778 0)
(0.24089 0.0244536 0)
(0.935158 -0.0669451 2.1745e-20)
(1.11606 -0.028595 0)
(0.901862 -0.000724679 3.41408e-20)
(1.01583 -0.0152825 0)
(1.21378 0.0131772 0)
(0.379812 0.0133243 0)
(1.03025 -0.0048352 0)
(1.11526 0.0148003 -2.20402e-20)
(1.27094 -0.0157245 4.33748e-20)
(0.77884 -0.15366 1.05454e-19)
(-0.162066 -0.00510774 0)
(1.00778 -0.000727765 -1.31396e-21)
(1.03883 -0.0882168 2.75313e-21)
(1.02068 -0.11537 -2.30484e-21)
(1.02031 -0.00642871 -1.82082e-21)
(0.905402 -0.000162085 -2.15933e-20)
(1.06085 -0.0458363 2.51614e-22)
(-0.0883905 0.00883926 -4.34106e-20)
(1.01541 -0.0147359 0)
(0.921564 -0.344739 -1.90034e-20)
(0.906268 0.0051709 0)
(0.929078 -0.200553 -3.39063e-20)
(1.0307 -0.00721663 7.03154e-21)
(0.999945 -0.00115472 0)
(1.03855 -0.426068 3.03993e-20)
(1.05948 -0.00889671 -3.87093e-21)
(0.680896 -0.511587 -1.75608e-21)
(-0.0278325 -0.0287645 -8.60742e-20)
(1.04257 -0.00833678 -3.19534e-21)
(1.03057 -0.117797 -4.03867e-21)
(1.04979 -0.0060251 -3.93236e-21)
(1.02224 -0.0222138 5.4807e-21)
(1.22143 -0.0878793 -2.31382e-20)
(1.00072 -0.00406632 -1.51502e-21)
(0.293394 -0.0156846 -5.257e-20)
(-0.0406511 0.0301574 1.48361e-20)
(-0.239439 -0.0178638 -2.24647e-23)
(0.850155 -0.0138873 2.47185e-20)
(0.996311 -0.0254448 -2.11153e-21)
(0.989586 -0.01709 4.15165e-21)
(1.08194 -0.00273785 -6.77446e-21)
(1.27912 -0.0845158 0)
(1.11855 -0.00552708 2.4723e-20)
(1.02699 -0.000766302 -5.18888e-22)
(0.996932 -0.00942753 0)
(0.983521 -0.0377351 0)
(-0.2766 -0.0243553 0)
(0.990496 -0.00790035 1.89097e-21)
(1.04216 -0.0130388 0)
(-0.287321 -0.0228195 8.70427e-21)
(1.05794 -0.0466171 0)
(1.03347 -0.00969503 0)
(0.827206 -0.104628 -1.50567e-19)
(1.1665 0.00764003 4.04458e-20)
(1.04763 -0.00647693 0)
(0.884727 -0.221575 0)
(0.0266241 -0.0466037 0)
(0.944315 -0.133455 2.25416e-20)
(1.03264 -0.19352 -4.04064e-21)
(0.998467 -0.00276642 -6.29584e-21)
(0.995328 -0.00716946 -6.85762e-21)
(1.16951 0.00759207 1.10393e-20)
(1.08976 0.00268631 1.43791e-20)
(-0.0834826 0.0114902 -1.92865e-20)
(0.0986922 -0.0588977 0)
(-0.282145 -0.0225351 6.92961e-20)
(1.01114 -0.0350276 0)
(-0.221072 -0.0136656 0)
(1.0117 -0.0366468 0)
(1.00002 -0.00115206 -1.05932e-21)
(0.610838 0.0763773 -8.25812e-23)
(1.05289 -0.00327682 0)
(0.175086 0.0327983 3.78866e-20)
(-0.161239 -0.0056915 -2.61562e-20)
(1.01274 -0.000389387 0)
(-0.226477 -0.016371 -3.88558e-20)
(1.1933 -0.30987 0)
(-0.0584749 0.00105468 -1.66764e-20)
(1.11422 -0.200016 0)
(1.08357 -0.0069433 -1.5607e-20)
(0.363249 -0.111299 1.34794e-22)
(-0.198587 -0.0113484 0)
(1.09893 -0.024235 0)
(-0.037675 -0.0584231 3.07066e-20)
(-0.252689 -0.0246005 -6.22911e-20)
(-0.11557 -0.00839747 -9.5856e-20)
(1.0001 -0.000566153 -7.0566e-22)
(1.05546 -0.0175072 5.56251e-21)
(0.937691 -0.0302704 0)
(1.28732 -0.0531234 -1.27823e-20)
(1.03196 -0.00380623 -9.16957e-22)
(1.10446 -0.00551092 0)
(0.209361 0.036929 0)
(-0.0732709 0.0130253 -9.50768e-21)
(0.968564 -0.0298597 -9.78578e-21)
(1.1167 0.0133328 -2.38822e-20)
(0.45365 -0.187689 -3.79579e-20)
(0.580456 -0.333971 1.06506e-19)
(1.00539 -0.0869253 2.74863e-21)
(1.04407 -0.142734 -5.97576e-21)
(0.995839 -0.0063892 -1.34865e-20)
(0.958554 -0.0775746 1.71585e-20)
(-0.0989638 0.00280899 5.24016e-20)
(1.00453 -0.0141364 2.16841e-21)
(0.996215 -0.00716689 0)
(1.04328 -0.00877294 -8.94783e-21)
(0.852881 -0.113626 0)
(0.538787 0.0727931 -4.18232e-20)
(1.04716 -0.00610972 0)
(0.371743 0.120092 -1.1499e-19)
(1.05046 -0.00483709 -4.83531e-21)
(-0.192558 -0.0100743 -4.82985e-20)
(1.0042 -0.0139575 -3.13627e-21)
(-0.0415466 0.015315 0)
(0.83489 -0.491181 0)
(1.08958 -0.0245607 1.79171e-20)
(-0.0826242 -0.0204369 1.95505e-20)
(1.13468 -0.161016 2.5578e-20)
(0.976607 -0.0239707 6.74713e-21)
(0.467533 0.0682788 2.47555e-20)
(0.656585 0.077925 0)
(0.780595 -0.041037 0)
(1.01023 -0.102699 2.10738e-21)
(0.268154 0.441681 -1.95187e-21)
(-0.0458552 -0.0633471 -3.55913e-20)
(0.767377 -0.308893 0)
(-0.100475 -0.00178329 0)
(0.973565 -0.049618 -4.15949e-21)
(-0.158596 -0.00754558 -5.98631e-20)
(-0.0809887 0.0138364 2.78729e-20)
(1.03691 -0.0288316 0)
(0.993667 -0.0303839 1.97275e-22)
(0.995542 -0.0503541 -3.09522e-21)
(1.02156 -0.0223672 -3.91329e-21)
(-0.0546135 -0.00526957 5.25238e-20)
(1.09516 -0.024092 0)
(1.04469 -0.0801147 -3.27149e-21)
(1.10053 -0.0251215 0)
(-0.0920002 0.000360415 9.76675e-20)
(1.04688 -0.138272 6.7924e-21)
(1.08148 -0.022768 -2.78528e-20)
(0.940088 -0.0298916 1.09823e-20)
(1.0138 -0.00013913 4.61006e-21)
(-0.0934462 -0.0190964 0)
(0.5419 0.455532 0)
(-0.0500433 -0.0214039 0)
(1.09459 -0.0672333 2.49087e-20)
(-0.103566 0.00604824 0)
(1.02462 -0.00680991 -4.45005e-21)
(1.10902 -0.17582 0)
(1.07973 -0.0231564 1.25473e-20)
(-0.279356 -0.025213 0)
(0.955555 -0.199161 0)
(1.03242 -0.0100604 -5.33782e-22)
(1.05678 -0.0476901 0)
(1.04544 -0.0326987 0)
(1.02364 -0.00678087 -4.55725e-21)
(1.02123 -0.00650171 2.00806e-21)
(0.409763 -0.24409 1.15293e-19)
(0.997606 -0.118029 1.52932e-21)
(0.695592 0.0863704 0)
(-0.252606 -0.0186384 0)
(1.03524 -0.00931953 2.15568e-21)
(1.05423 -0.0177601 -3.30197e-23)
(-0.0527852 0.0126233 -3.28268e-20)
(-0.23131 -0.0151772 -4.86577e-20)
(0.713764 0.0793082 -3.2685e-20)
(0.998967 -0.00729137 0)
(1.00086 -0.00439263 4.80705e-21)
(0.85945 -0.0359598 3.78373e-20)
(1.01334 -0.00558406 2.22292e-21)
(1.05731 -0.315253 0)
(1.24544 -0.03563 -6.83946e-20)
(0.95907 -0.073361 0)
(1.00003 -0.000190691 1.40687e-21)
(1.0011 -0.00458609 -1.31679e-21)
(1.0568 -0.135068 0)
(0.913926 -0.138218 2.98089e-20)
(0.764515 0.0566173 2.70067e-20)
(0.994993 -0.00730365 3.06308e-21)
(0.999961 -0.00128824 3.59967e-21)
(1.05346 -0.134427 0)
(1.0318 -0.440107 -2.47125e-20)
(0.929733 -0.0632363 1.56018e-20)
(1.09666 -0.0254584 0)
(1.11579 -0.195025 0)
(-0.185212 -0.00855892 5.59495e-20)
(1.00069 -0.00444205 8.35134e-22)
(1.0199 -0.000399514 2.44973e-21)
(-0.049392 -0.0692374 1.93853e-20)
(1.22574 -0.0805697 -9.42848e-20)
(1.1316 0.0309629 1.247e-20)
(1.00743 -0.000943505 1.2243e-21)
(1.19306 -0.0848169 -6.35375e-20)
(-0.211347 -0.0121009 8.3549e-20)
(1.17158 0.0052977 3.83326e-20)
(1.09425 -0.0718824 2.99041e-20)
(1.09583 -0.0738693 -8.25978e-21)
(-0.169271 -0.0158931 0)
(1.03469 -0.0235946 0)
(0.779002 -0.309997 -3.7877e-20)
(1.21987 0.0115717 -3.80675e-20)
(-0.170601 -0.00763428 0)
(1.00717 -0.0142689 -7.99724e-22)
(1.00563 -0.0094367 -1.04866e-22)
(1.02123 -0.000768758 -2.45346e-21)
(1.01042 -0.00764471 -7.39559e-22)
(1.19705 -0.0870655 6.80654e-20)
(1.07729 -0.0268398 -2.08084e-20)
(0.828418 -0.0715277 0)
(1.01747 -0.00586587 0)
(1.04944 -0.0245391 -6.25534e-21)
(-0.173242 -0.0104349 -1.7466e-20)
(1.0009 -0.00435437 -3.06121e-21)
(1.01846 -0.0111162 3.2166e-21)
(1.01435 -0.0141699 -2.1115e-21)
(0.177658 -0.498934 9.17264e-20)
(1.28551 -0.0495775 0)
(1.02157 -0.0107207 -2.23727e-21)
(0.919305 -0.134753 -8.40665e-22)
(1.21508 -0.0560827 -3.66589e-20)
(1.11822 -0.0271622 0)
(0.995686 -0.197192 -9.85517e-22)
(0.692659 -0.0667896 0)
(1.181 0.0435548 -4.09779e-21)
(1.15352 -0.262223 4.15083e-20)
(1.0154 -0.0723612 -4.92417e-22)
(1.21753 -0.0851134 2.34212e-20)
(1.00596 -0.00954531 0)
(1.18481 -0.43923 -2.72854e-20)
(0.79874 -0.00759804 7.46417e-20)
(1.01297 -0.00518611 -2.24054e-21)
(1.15596 0.0480907 -2.13774e-20)
(0.277744 0.0582382 2.05991e-20)
(0.993023 -0.0299064 -3.64239e-21)
(-0.282715 -0.0111882 -8.8679e-20)
(1.05663 -0.253212 1.52692e-20)
(1.1453 -0.257013 -3.79405e-20)
(0.996452 -0.0520416 1.36214e-21)
(0.0567596 -0.00376057 3.12071e-20)
(1.21027 -0.0509333 -4.01467e-20)
(0.75088 -0.0310588 -7.06119e-22)
(0.923643 -0.0474497 3.21049e-20)
(1.11623 0.0168984 3.44795e-20)
(-0.105053 -0.0267573 -1.74041e-20)
(0.999425 -0.016062 0)
(1.06794 -0.0320207 0)
(-0.0947494 0.000467687 -4.7547e-20)
(1.08812 -0.0216604 -7.20312e-21)
(1.00252 -0.152867 6.68079e-22)
(0.561313 -0.413096 -9.54272e-20)
(1.1308 -0.0441687 0)
(1.09937 -0.00744345 -2.68551e-21)
(1.09055 -0.0400801 1.1167e-20)
(0.763619 0.0805926 5.11345e-20)
(0.939144 -0.066712 -3.41212e-20)
(1.04374 -0.0412721 0)
(0.0544591 -0.0184429 6.60913e-20)
(1.02771 -0.0705316 0)
(1.01789 -0.0106377 -3.2803e-21)
(0.410112 0.211698 9.28402e-20)
(1.01009 -0.00724143 1.86914e-21)
(1.03316 -0.126129 7.4494e-21)
(1.00694 -0.0136289 8.16962e-22)
(1.1615 -0.023955 0)
(-0.255427 -0.0249218 0)
(1.05148 -0.0022791 -8.9479e-21)
(1.07867 -0.0280921 1.02291e-20)
(-0.117582 -0.0288737 0)
(1.01477 -0.0147103 1.95803e-21)
(-0.253282 -0.0203797 4.99372e-20)
(0.998542 -0.0285732 -3.52535e-23)
(-0.0362372 -0.0465342 8.1317e-21)
(1.01262 -0.00183016 7.69347e-22)
(1.04501 -0.0392821 0)
(1.07174 -0.00142856 -1.8825e-20)
(-0.0670363 0.00889722 0)
(1.03801 -0.137763 -5.61797e-21)
(0.772107 -0.0339062 0)
(0.951527 -0.11482 1.1539e-20)
(0.85543 -0.0176564 -1.29996e-20)
(1.02496 -0.0170734 2.36737e-21)
(1.06 -0.0899367 -3.03379e-21)
(0.137341 0.0404343 -1.52739e-20)
(1.29323 -0.0806578 -1.07515e-19)
(0.988004 -0.0433637 -9.15437e-21)
(0.0603548 0.467691 -1.69621e-20)
(1.20342 0.00712386 -5.20178e-21)
(0.853406 -0.0350018 0)
(-0.149322 -0.00448012 2.91625e-20)
(0.99139 -0.0176016 0)
(1.0526 -0.00249562 9.10261e-21)
(0.982963 -0.0120955 -1.21797e-20)
(0.582056 -0.225075 0)
(1.21416 -0.0517624 0)
(1.00783 -0.0149637 -4.304e-23)
(1.02585 -0.0044067 0)
(1.02081 -0.0215765 1.90453e-21)
(-0.0875032 -0.00976447 -6.70495e-20)
(1.00879 -0.101051 -1.31356e-21)
(1.04492 -0.0409995 5.13912e-21)
(0.832666 -0.310416 -1.32164e-20)
(0.985346 -0.0147986 9.49628e-23)
(1.04618 -0.039159 0)
(1.26603 -0.135223 -7.02327e-20)
(0.190837 0.393862 4.77642e-20)
(1.08424 -0.00431835 1.4223e-20)
(1.02022 -0.0217175 -1.75058e-21)
(-0.0900297 0.00811786 -1.13248e-20)
(1.00017 -0.000835667 0)
(1.09008 -0.0208593 -1.95673e-20)
(0.664731 0.0652198 0)
(1.21945 -0.057224 1.41094e-19)
(-0.014162 -0.0236364 -4.90753e-20)
(1.041 -0.00813665 6.1167e-21)
(0.0426668 -0.00711009 -3.41441e-20)
(1.01221 -0.0592674 3.70645e-22)
(1.0831 -0.00558881 0)
(1.01306 -0.00165943 5.21419e-22)
(0.973848 -0.0109433 8.31789e-21)
(-0.089883 -0.00350446 -2.80302e-20)
(0.670589 -0.0447721 0)
(1.04171 -0.00858994 3.19126e-21)
(-0.272024 -0.0260349 0)
(1.01497 -0.0467202 -2.17234e-22)
(0.890496 -0.212204 0)
(0.394464 -0.00391184 0)
(1.00195 -0.00569753 0)
(0.667867 -0.0553026 3.90469e-20)
(0.378855 0.0865263 4.76705e-20)
(1.09373 0.00585052 -9.02987e-21)
(1.0819 -0.160284 5.04422e-20)
(1.00071 -0.00478712 -9.66037e-22)
(0.246917 0.0734787 0)
(0.977798 -0.0264412 7.03925e-21)
(0.295733 0.010684 8.52557e-20)
(1.1446 0.0229029 0)
(1.00018 -0.00012477 -5.75862e-22)
(-0.229122 -0.0171801 6.67665e-20)
(1.07255 -0.00207647 2.21366e-20)
(1.03576 -0.122626 -3.74361e-21)
(-0.0371724 -0.0438755 0)
(1.00149 -0.000920863 8.4956e-23)
(1.0442 -0.0321528 9.38851e-22)
(-0.22051 -0.0157557 -1.03544e-20)
(1.04058 -0.13397 -5.682e-21)
(0.64548 -0.919299 1.71091e-20)
(0.999646 -0.00631871 -4.31192e-21)
(1.02145 -0.0449953 -1.66793e-22)
(1.15376 0.0471137 3.79832e-20)
(0.0830508 0.0251211 0)
(1.02756 -0.0951781 0)
(0.759179 -0.0640397 2.87964e-20)
(1.00066 -0.0090584 0)
(0.999936 -0.00629417 1.22355e-21)
(0.933265 -0.0639241 -3.40829e-21)
(1.00589 -0.0133237 -8.48535e-22)
(0.0758013 -0.338311 0)
(0.567021 0.0737954 -5.53823e-20)
(0.982079 -0.0420503 0)
(0.479786 0.0715058 0)
(-0.00177483 -0.0187937 4.33026e-20)
(1.00569 -0.0120386 7.44703e-22)
(1.01017 -0.0331196 9.67337e-22)
(1.00139 -0.0273929 1.54519e-21)
(1.18168 0.0456323 5.6162e-20)
(0.941932 -0.194337 8.66754e-21)
(1.10991 -0.120784 0)
(-0.189072 -0.0179995 -3.82704e-20)
(0.999996 -0.000276581 5.15144e-21)
(-0.212799 -0.0144633 0)
(1.1043 -0.171374 -1.86584e-20)
(0.0490248 -0.000431731 0)
(0.184776 -0.468294 -8.17745e-20)
(0.998578 -0.047285 2.92611e-21)
(0.283518 -0.00935814 -3.58437e-20)
(0.808819 -0.172878 0)
(0.514141 0.0722235 -1.61757e-20)
(-0.0387024 -0.0626353 3.65099e-20)
(0.999355 -0.0155271 0)
(1.01955 -0.0209232 1.65511e-21)
(-0.0600653 -0.0242806 0)
(0.900957 -0.137978 -2.12837e-20)
(0.210449 0.0491047 0)
(-0.0543455 -0.0291224 0)
(1.02831 -0.0236137 -8.23296e-21)
(1.07258 -0.107559 0)
(1.004 -0.00687906 0)
(1.0807 -0.0262107 1.56518e-20)
(1.19994 0.00721612 -3.87845e-20)
(1.00422 -0.00729761 -2.15791e-22)
(0.522447 0.069828 -5.62916e-20)
(1.0951 -0.0405591 -1.48137e-20)
(1.16471 -0.0247804 -4.17584e-20)
(0.67053 0.294896 0)
(0.414825 0.31545 0)
(1.02281 -0.0155779 -4.6505e-21)
(0.987267 -0.014851 -1.10894e-20)
(0.803776 0.0206561 1.68276e-21)
(-0.0458101 0.021031 0)
(1.06806 -0.0929962 -4.28075e-21)
(1.06035 -0.261188 -1.59221e-20)