/*--------------------------------*- C++ -*----------------------------------*\
| =========                 |                                                 |
| \\      /  F ield         | OpenFOAM: The Open Source CFD Toolbox           |
|  \\    /   O peration     | Version:  v2012                                 |
|   \\  /    A nd           | Website:  www.openfoam.com                      |
|    \\/     M anipulation  |                                                 |
\*---------------------------------------------------------------------------*/
FoamFile
{
    version     2.0;
    format      ascii;
    class       volScalarField;
    location    "350";
    object      ddt0(k);
}
// * * * * * * * * * * * * * * * * * * * * * * * * * * * * * * * * * * * * * //

dimensions      [0 2 -3 0 0 0 0];


internalField   nonuniform List<scalar> 
18649
(
-8.73831e-06
8.09587e-08
2.98564e-08
2.28852e-05
0.000151827
8.87019e-08
0.000877949
1.44483e-05
8.38283e-08
1.0121e-08
3.47674e-06
0.000496527
-0.00670476
3.05589e-08
-9.61942e-09
4.48156e-08
1.51116e-08
4.45354e-08
-1.48181e-06
-5.68594e-06
-0.00117696
6.92738e-08
0.000284946
-9.78249e-06
7.20447e-08
-3.13909e-05
3.24415e-08
0.00045809
0.000363306
2.21029e-09
2.01119e-08
1.38989e-06
-1.21538e-07
8.36625e-08
1.28542e-07
0.0001124
3.19391e-08
-2.76669e-08
1.32987e-08
8.04263e-06
3.85671e-08
-6.18871e-06
-3.84743e-07
1.7778e-06
8.60537e-08
-8.36879e-09
-0.000238981
2.20639e-05
0.00139093
-5.81259e-08
-0.000269432
1.02936e-08
-0.00125367
0.000429084
-2.17945e-08
0.000937098
6.0162e-05
1.13831e-06
-0.000163847
-9.49768e-09
-9.1768e-06
2.32142e-08
-4.68395e-07
-3.84527e-07
-2.8033e-08
-2.35029e-05
1.06693e-08
0.000118604
-2.33014e-05
5.65972e-05
0.000161848
1.53259e-08
1.61895e-06
-4.59851e-08
5.82124e-08
-0.00111899
7.94351e-07
8.65767e-08
-5.82362e-08
-8.54276e-06
1.82345e-08
-0.000144335
3.52568e-05
-0.000993303
-7.85744e-06
-1.57387e-08
1.01804e-08
3.12922e-08
1.91836e-07
4.03231e-08
3.85443e-08
-1.84852e-07
8.76646e-08
0.00145254
7.02667e-08
4.3959e-06
-1.19153e-10
2.42317e-05
-3.86596e-05
2.41018e-08
0.000284046
-5.63862e-08
1.48892e-08
0.000100942
-2.00242e-05
7.36496e-09
-2.41384e-08
1.59904e-08
-3.25192e-09
4.65778e-08
9.93652e-05
-8.53047e-06
7.77641e-08
1.59601e-08
9.44463e-06
-1.18094e-08
-2.02352e-08
0.000207737
1.77904e-05
3.82937e-08
-0.000150842
-7.24201e-08
-4.77576e-07
-6.31439e-08
-5.58072e-05
-4.1756e-08
-1.64375e-09
2.0162e-05
-5.69915e-08
0.000194717
3.28072e-08
3.58533e-05
6.88312e-08
-0.000241785
2.78943e-08
-2.28707e-08
5.80594e-05
5.96916e-05
-9.05177e-09
6.38294e-08
-1.68509e-05
-3.77435e-08
3.65081e-10
4.12758e-07
1.01537e-08
0.000771815
5.63129e-08
-2.25309e-08
0.000381325
-1.69473e-05
6.38165e-05
-4.76623e-08
2.77104e-05
3.22191e-08
1.0742e-07
1.60433e-07
9.0718e-07
-2.65968e-05
-7.09555e-09
8.94209e-08
1.70938e-09
0.000166029
-0.000186754
4.00951e-09
-6.30783e-05
9.61328e-06
4.65452e-08
1.7171e-08
4.35074e-08
-1.45292e-08
4.89734e-08
-6.35977e-05
9.23678e-07
9.36556e-05
1.675e-08
-0.000806978
0.000375774
2.32909e-08
4.65824e-09
0.000111747
0.000169856
1.85342e-08
-1.65117e-10
-0.0011133
7.15454e-08
-6.85307e-09
1.78011e-08
2.28043e-09
-2.02923e-07
5.69477e-08
-0.000507715
1.00129e-07
-3.33908e-05
6.25456e-08
5.26784e-08
8.11601e-09
-9.4094e-09
-3.77937e-07
6.2194e-08
1.2383e-10
4.10686e-08
5.38099e-06
0.000172808
-3.3398e-08
2.61404e-07
5.1933e-06
0.000923233
-0.000330559
1.01713e-09
-3.80054e-05
5.40367e-08
6.15849e-08
-2.74199e-08
-1.43844e-05
3.60542e-05
-1.54622e-09
1.99648e-05
1.50505e-08
-5.57758e-05
-6.08075e-08
-1.02805e-06
-1.41365e-09
-0.000203919
-6.60617e-05
-4.18749e-05
0.00118681
9.62542e-08
-7.7339e-08
-0.001391
-0.00168721
-2.434e-07
2.96517e-08
0.00046797
7.0837e-08
-5.0319e-06
0.000189525
1.96138e-05
-8.67588e-05
-2.14701e-08
-6.5017e-06
-5.77415e-08
5.31794e-05
-2.27628e-07
-3.44306e-08
7.60451e-08
9.65712e-08
-0.00140162
8.46699e-08
-0.000463979
9.73347e-08
0.00068399
0.000882152
-1.608e-08
9.61572e-08
6.94219e-08
1.03101e-05
1.35419e-08
5.50527e-08
-1.08496e-08
5.87077e-08
1.28563e-08
-8.55646e-06
-3.46628e-05
-3.00749e-08
-1.05989e-08
-9.117e-05
0.000124377
-1.57411e-08
-0.00103014
-3.95291e-08
0.000792947
8.76477e-07
-0.00148157
-0.000690156
2.39252e-06
9.39555e-08
1.06009e-08
-0.00719296
0.00112977
-6.42857e-05
3.85649e-08
2.88787e-08
3.03447e-05
7.07817e-08
0.00312555
0.000469578
5.6656e-08
-2.27367e-07
-4.69534e-08
1.44285e-08
-1.0259e-06
0.000748395
0.000291307
6.13029e-05
0.000573386
-5.11963e-08
9.63942e-05
0.000455534
3.27371e-08
-0.000311735
3.57681e-09
8.50449e-08
7.14924e-10
-7.5888e-08
-1.8318e-09
0.000270441
-8.46153e-08
8.27396e-08
-0.000166008
8.43329e-08
-4.45755e-05
-8.61898e-08
-0.000218609
4.15053e-09
2.75287e-08
2.55257e-08
5.33968e-09
-1.00301e-09
3.56157e-05
-4.35e-05
-4.2792e-08
-1.11388e-08
-1.27918e-08
7.06151e-09
-2.43168e-08
3.57022e-08
8.38516e-09
1.0029e-07
-6.8659e-05
2.20457e-06
-3.07782e-05
-3.71786e-10
1.16155e-08
-6.50344e-07
6.09404e-08
-1.75707e-09
-0.000134335
5.82816e-08
0.00292035
-6.24699e-08
0.000152348
-3.98115e-08
6.59703e-09
-3.91387e-08
7.9593e-09
-1.58442e-07
-1.85333e-08
-1.27055e-08
-3.82934e-08
7.58407e-08
7.868e-08
-0.00647853
1.24184e-07
-1.12353e-09
-2.62409e-05
-0.00256117
-3.90919e-08
-7.32963e-05
0.00015864
-6.04224e-05
0.000536907
1.29792e-08
0.000661882
-6.47358e-08
-0.00075855
-0.000474441
-1.39144e-07
9.26048e-09
6.23097e-08
3.058e-08
-1.21092e-08
5.54613e-09
-1.76747e-08
-5.81152e-05
1.22238e-07
-2.84265e-05
-3.24963e-05
0.000341466
-0.00129696
1.79361e-08
-2.19848e-08
-2.24254e-07
-6.01919e-08
-0.000504177
2.19745e-08
-1.23242e-08
-2.96124e-05
0.000228263
4.24628e-08
3.04385e-08
0.000281944
1.57936e-07
5.97747e-08
-0.00140719
6.57791e-10
1.81515e-08
3.43907e-05
2.11885e-08
2.23628e-08
0.000236727
-6.04507e-05
-3.46696e-08
-1.42378e-09
1.54209e-08
8.75612e-06
-8.4075e-06
-2.39289e-08
0.000643025
3.25247e-08
1.65949e-08
0.000518722
-7.02345e-09
-5.35694e-05
2.65462e-08
-8.16394e-08
-0.00121685
-0.00628671
-0.000465963
-7.76178e-08
-0.000494397
-2.92753e-08
-0.00724825
5.05276e-07
-0.000501847
0.000649787
2.61225e-08
8.09348e-09
-2.31883e-05
-8.24254e-05
1.54443e-08
-0.000645231
5.6802e-08
-1.98349e-08
-9.74962e-09
0.000144122
-0.00617839
-0.00027711
2.18748e-08
-9.97229e-08
-3.1575e-05
2.32563e-05
9.12181e-08
3.34717e-08
6.7253e-08
-2.3354e-08
-7.33727e-05
-4.59632e-06
-6.09002e-09
9.92809e-10
0.000119545
-1.04869e-07
-1.09266e-05
7.95091e-10
-3.03586e-05
1.26916e-07
-0.000621548
6.26217e-08
0.000325697
-3.61824e-05
-2.54779e-08
4.70803e-08
-3.00403e-08
2.37652e-08
4.00995e-08
-1.09312e-07
7.7631e-08
-9.04443e-05
-5.79422e-08
1.63398e-09
2.58016e-05
4.52834e-08
8.36928e-09
-0.00665395
5.24532e-08
-1.3802e-05
5.46922e-08
3.40785e-08
-7.4155e-08
2.77923e-08
-2.26263e-08
3.98967e-09
-2.60932e-05
3.13468e-08
-8.41887e-08
-2.14265e-08
8.03085e-08
8.12148e-06
-8.07153e-09
-0.00201786
3.24001e-08
0.0011069
0.00084896
0.000922
-2.89752e-05
5.68551e-09
9.00376e-07
-2.54295e-07
-1.31852e-05
2.50587e-08
1.6631e-06
4.6726e-08
0.000533386
6.65958e-06
1.76739e-07
-2.5311e-08
6.04323e-05
8.13741e-06
0.000436815
7.15666e-08
5.88271e-05
4.34189e-09
-6.26685e-07
6.26347e-08
5.41029e-07
4.14561e-06
-3.24889e-08
-9.60367e-09
0.00086733
5.87564e-08
1.32e-05
-1.79637e-08
6.79837e-08
3.60681e-08
1.68975e-07
-2.70218e-08
0.000194079
-1.54528e-09
0.00176875
7.90848e-08
-2.62409e-05
0.00272874
0.00145877
1.11707e-05
-2.98529e-08
-0.00217407
7.01899e-08
1.11221e-05
-3.53089e-05
5.19972e-09
2.80617e-07
-2.71094e-07
1.49074e-08
-7.20241e-05
5.20711e-08
3.05167e-09
2.76809e-08
-5.59914e-09
-1.25667e-08
4.11182e-08
-0.00101551
-2.87132e-09
4.04482e-08
4.7356e-08
-2.15801e-08
1.36403e-06
0.00141806
7.33873e-08
-5.84819e-07
0.000119661
2.94978e-07
-1.85558e-08
-0.000903226
-0.00209495
-0.00142673
-7.67519e-05
-2.17928e-07
1.22127e-08
-2.04863e-08
-2.8704e-08
5.73978e-08
0.000463969
-8.04177e-09
4.20279e-08
-9.06231e-09
0.000988477
-0.000619765
0.000922104
2.13037e-08
-3.48456e-08
8.83489e-06
-5.5255e-05
-0.000502022
7.13222e-08
-5.0636e-06
0.00110451
-7.14339e-09
0.000925596
-2.57503e-08
9.39749e-08
-1.50499e-08
-8.36269e-05
-5.38081e-05
4.36088e-08
8.23523e-05
5.16562e-08
-5.20233e-08
-6.65264e-06
-0.000186564
1.38393e-08
1.95808e-05
7.11597e-08
0.000610279
9.48837e-08
-0.000188458
1.6753e-07
-3.29506e-08
6.74484e-09
-0.000743363
4.3157e-07
1.79825e-07
-1.10354e-06
-1.68469e-05
2.36152e-08
0.000896442
-3.21267e-08
4.59869e-08
0.000195039
1.00837e-07
1.14953e-08
4.85053e-06
-6.98469e-09
-7.84345e-07
3.96241e-08
1.38315e-07
-3.5435e-05
-9.78214e-06
-5.04931e-05
-2.91624e-09
-8.59854e-06
1.41488e-08
6.14837e-05
-3.28428e-08
-5.83012e-08
-1.4303e-08
-8.4071e-09
0.00172484
1.53316e-07
1.0338e-06
-4.56082e-07
7.29953e-08
-1.05717e-08
-8.81987e-09
-5.91065e-08
0.000330426
1.08958e-09
1.32458e-07
1.73004e-08
-0.000523727
-8.41689e-08
1.53276e-07
3.39936e-08
1.87088e-08
9.37765e-05
6.71449e-06
-4.77437e-05
4.71326e-08
-0.000606699
8.23013e-08
5.1796e-08
-2.21209e-08
-3.26449e-05
2.18302e-08
-1.42704e-08
0.000324581
-0.00140031
-3.78164e-09
3.14957e-05
-0.00129812
-2.3393e-08
-2.0186e-10
7.15781e-07
-4.82871e-08
2.7401e-08
-0.000494339
0.000168035
-3.52698e-05
0.000367128
1.6467e-07
-0.000200989
-3.72747e-09
6.82169e-08
1.96151e-08
1.16076e-05
-5.61861e-09
2.70002e-08
0.00108845
2.10357e-05
2.20724e-09
0.00117914
1.00303e-07
-9.90423e-09
0.00119631
-1.01112e-08
3.1079e-05
7.69836e-08
-1.61612e-05
-7.01015e-09
1.5526e-08
1.29406e-08
-1.72644e-06
-2.98323e-08
3.22907e-05
-0.00143819
1.03362e-05
-0.000155549
-6.44437e-05
4.23268e-08
6.05191e-05
0.00165589
-9.08515e-07
-1.27333e-07
-1.67517e-08
-0.00029056
-0.000574667
0.00135838
4.2429e-06
2.83047e-07
-5.58655e-08
-2.30519e-08
0.000178404
-2.96357e-05
-3.03119e-08
7.49259e-08
1.77378e-05
0.00222371
-0.000397293
5.31568e-06
-6.75433e-09
9.49904e-08
1.37417e-05
-0.000576789
3.29817e-10
-5.44882e-08
3.34692e-08
-0.000496461
1.50125e-07
0.00378975
1.43275e-07
-4.12749e-08
-3.51289e-08
3.23477e-06
1.42831e-08
5.61781e-09
1.3318e-07
1.04747e-08
-1.54426e-07
-0.000416973
-5.76003e-06
0.000329153
0.000456619
1.42875e-05
0.000408436
4.9623e-08
0.00257537
-4.26708e-08
3.88652e-10
0.000502785
-9.55365e-08
-8.10205e-08
1.95847e-08
-0.000255349
0.00106985
-0.000204698
1.11013e-07
5.82745e-08
1.82242e-08
-2.28958e-08
-8.07772e-09
5.92251e-10
5.78612e-08
-0.000253224
1.17376e-07
5.84471e-08
-3.20818e-05
-0.000485132
-5.52004e-06
-1.11994e-09
0.000845514
-2.93221e-05
-1.30618e-08
-1.25366e-05
0.000267334
-6.79709e-08
6.35802e-08
-3.65604e-08
6.20957e-08
2.04142e-06
-9.54962e-05
-0.0061376
-2.10991e-09
0.000232321
0.000892813
-4.1828e-06
2.18491e-08
2.54635e-05
1.64412e-05
0.000282675
-2.44613e-06
-0.00152899
2.19252e-08
2.3442e-05
0.000366753
0.00184448
-2.53598e-08
3.55449e-08
-3.18846e-08
0.000113823
3.44077e-08
9.37883e-06
1.24329e-07
3.82119e-05
-2.59517e-08
0.00026885
0.000911937
-2.4492e-08
0.000359245
2.96545e-07
4.42148e-06
2.05991e-06
0.000994922
-8.29703e-08
1.50703e-06
-2.02931e-06
0.000117473
-0.000503235
6.43424e-08
-0.00131805
0.00361907
1.02447e-07
0.00015339
8.16475e-06
-2.87376e-08
0.00182517
0.000108641
-4.22183e-08
4.54506e-08
-0.000144505
1.30034e-07
-0.00015229
3.08216e-08
3.67708e-08
8.51569e-09
-3.68228e-08
3.376e-08
-5.03681e-08
0.000236851
-5.12251e-09
3.5154e-08
5.89578e-08
-0.00108991
1.00084e-07
3.30196e-08
9.91875e-09
-0.000175652
6.415e-08
-0.000130767
-7.12866e-05
1.95731e-08
-0.00251612
-1.15176e-08
-1.24848e-08
-0.000931656
-0.00071553
4.26125e-08
9.85814e-09
1.22984e-08
1.06204e-07
0.000376272
1.7684e-08
4.80306e-08
1.04258e-07
-2.1897e-08
0.000450231
2.04398e-07
1.15722e-07
2.60815e-08
4.45107e-08
3.8255e-08
-7.46926e-05
-1.04292e-08
6.31024e-08
-5.31853e-05
7.46514e-08
0.000504833
0.000580212
-2.45078e-08
0.00080699
-1.93493e-08
-3.55163e-05
2.36513e-08
1.99708e-06
-0.000112626
-0.00206671
1.89263e-07
-1.82735e-08
1.842e-06
-1.27283e-08
3.50087e-05
0.000954718
-0.000189992
1.71991e-05
4.95497e-07
4.87847e-08
8.61626e-09
1.98052e-05
0.000222703
-3.62123e-08
0.00283348
-0.00567589
-2.87265e-08
4.27592e-06
0.000148105
0.00380923
5.6176e-08
0.000137102
0.00303883
-5.92102e-06
-0.000711116
0.000163403
0.000970582
4.6189e-07
1.53386e-08
3.0367e-08
3.98195e-08
-1.3525e-07
-6.40742e-08
-7.99036e-05
-3.21296e-08
7.89741e-07
0.000517372
-8.98593e-05
-0.000576704
1.55183e-06
0.00370246
3.83682e-06
9.35844e-07
4.43525e-09
-8.63379e-06
-1.26234e-08
0.000819656
0.000152859
1.51723e-08
-1.17946e-06
1.55975e-08
0.00199403
0.000982813
-0.000157823
0.000273647
2.38282e-08
-9.39266e-09
1.53683e-05
8.9783e-07
-2.68128e-05
1.6894e-08
3.01213e-08
1.57893e-08
-2.48471e-08
2.68664e-07
-2.45712e-09
2.1654e-09
-2.43489e-08
-4.85254e-09
8.1069e-09
1.2172e-05
3.90354e-08
6.65995e-08
6.24017e-08
-2.67135e-08
-0.000175538
-0.00144623
-0.000490084
4.12562e-05
0.00100686
7.51752e-05
0.000363695
3.3183e-08
5.85264e-08
-2.13591e-06
3.43286e-08
-2.43335e-09
-1.44661e-08
-2.84862e-08
-0.000253074
1.47178e-06
-0.000472328
1.83537e-07
-1.68448e-08
-5.45325e-06
0.000479457
0.000105838
0.000291382
0.000214791
1.51833e-08
-3.89294e-08
-1.43966e-08
-1.09948e-08
-2.20495e-08
-2.03678e-05
2.20959e-05
2.16545e-06
0.000130383
-0.000310208
0.000135919
2.49235e-08
1.81639e-08
1.09707e-05
-3.60136e-08
7.22891e-06
0.00109783
5.16599e-08
0.00290513
-0.00134509
5.57137e-05
-4.93674e-05
-2.92097e-08
3.16709e-08
3.48264e-08
-0.000292546
4.48732e-08
1.45511e-08
2.91023e-08
-1.29955e-09
-1.49447e-08
-0.000267012
6.85791e-08
-8.83239e-09
-4.10448e-08
-3.43838e-06
5.20531e-08
-1.11037e-08
-7.22222e-05
-8.07458e-09
0.000195234
7.60485e-09
1.01805e-07
-4.84078e-08
-0.000795086
4.4937e-08
5.42443e-06
-0.000366458
0.000731719
7.77385e-08
0.00123378
-3.49736e-09
4.29789e-08
1.35116e-09
2.551e-08
-8.86145e-07
8.42094e-08
2.15107e-08
4.99483e-05
8.86071e-05
5.70091e-09
-0.000154193
-0.000388244
3.26529e-08
1.04767e-07
-1.46769e-08
-3.92835e-08
5.60278e-08
0.000400072
-2.73094e-08
-1.98714e-08
2.38027e-08
-0.00301495
0.00155365
8.10865e-08
0.000152146
1.75533e-07
0.000545076
0.00112993
6.63383e-09
-4.11015e-08
7.45785e-06
1.23391e-08
0.00252481
-0.00145404
0.00189237
-7.58518e-08
2.59582e-07
1.41097e-05
1.47794e-07
-0.000408137
-0.000115198
-0.000583484
-3.18792e-08
1.61661e-09
-0.00253063
-2.39181e-09
-2.16122e-09
-4.07004e-08
4.27772e-08
1.08792e-07
4.25918e-08
2.94057e-08
-3.04343e-05
2.40307e-07
2.92217e-09
0.000144061
-8.91272e-09
-0.00148278
4.32015e-07
-0.0028799
5.22541e-08
-0.000311566
-4.5669e-06
-2.92033e-08
0.000208594
-1.08659e-08
0.0009119
0.00135152
1.74705e-08
0.000309807
2.07278e-08
2.01699e-08
-1.56574e-05
-5.97794e-08
-3.26276e-05
2.03643e-07
-3.98427e-08
-0.000104436
-2.55246e-08
-1.6538e-06
-2.34393e-08
2.22066e-08
-3.36523e-09
9.95035e-08
-2.10882e-08
2.56559e-08
1.04265e-10
-2.64429e-08
5.85045e-08
0.00106392
-5.29196e-08
-3.74372e-05
-0.000128356
3.71401e-08
-0.000418681
2.60283e-08
-4.55877e-08
-0.000611099
-2.87452e-05
-4.37494e-05
0.000745414
6.86826e-09
8.02438e-08
2.08685e-07
8.31876e-08
5.90605e-08
-2.70418e-08
-8.88757e-07
0.00384935
7.51295e-06
3.16109e-08
2.36454e-08
-0.000473551
-5.65257e-05
3.31007e-08
-9.14781e-05
7.58248e-08
1.54777e-06
0.000489044
-8.19725e-05
1.50649e-05
0.000421269
5.36297e-07
-1.32248e-05
-4.04803e-05
1.88709e-07
1.83403e-07
1.1434e-08
-0.00121596
2.37734e-08
0.00018813
-0.000264651
1.81361e-07
-8.24289e-08
1.16987e-07
-0.000691562
-6.90074e-05
1.06499e-07
3.17076e-06
2.7813e-08
-4.14105e-08
-0.000124932
3.81239e-08
9.29342e-08
-2.95976e-05
1.11726e-07
-1.49516e-05
-7.86733e-05
0.00126262
5.1643e-08
-2.88912e-11
0.0001842
2.6774e-08
0.00291622
-4.80857e-08
0.00427768
5.22287e-06
-4.54311e-05
5.77474e-09
-0.000803205
-2.26233e-08
-2.89727e-08
7.57669e-09
-5.33565e-08
4.31146e-06
1.75724e-08
-3.63449e-08
-9.41455e-09
4.30352e-08
0.000961441
-0.00120854
1.55492e-08
0.00234056
3.07607e-06
-0.00189836
0.00102625
9.23337e-06
-1.3131e-08
-1.57167e-07
-4.30903e-06
3.99886e-08
-2.73129e-09
1.78867e-08
-5.16925e-08
6.26819e-07
-3.31194e-08
8.07955e-05
3.58516e-05
-1.22381e-08
3.16145e-08
-1.21118e-07
-9.84315e-09
-6.39352e-06
-0.000645382
8.71164e-08
4.77637e-05
9.52254e-06
-2.15957e-08
-0.000676751
1.38155e-08
0.000118843
-1.00596e-07
-2.09355e-08
-2.96097e-06
-0.00151709
1.8386e-09
-8.3678e-05
8.20592e-08
0.000224593
6.71582e-08
5.00605e-07
-0.00013992
7.00684e-09
4.29002e-06
-6.53909e-05
3.68861e-08
2.20436e-07
2.64592e-08
-6.1223e-05
1.38341e-05
3.77217e-08
0.0011257
2.20787e-08
-5.56552e-09
-6.41655e-08
-7.21351e-06
3.52886e-05
7.85684e-08
0.00178444
4.52781e-05
1.66487e-07
-0.00150877
-3.74066e-09
-6.36784e-05
-1.24077e-07
6.80737e-07
1.08352e-07
7.3827e-08
-1.00588e-06
5.96587e-05
0.0015786
4.36116e-08
2.41369e-07
4.8019e-05
-2.39727e-08
1.94675e-06
0.00142498
0.00152569
-8.65857e-05
6.61437e-05
9.60721e-06
4.63183e-07
5.72502e-08
-1.03602e-07
0.00119544
-0.000142389
-2.27835e-08
-6.56497e-05
-5.83629e-05
2.55433e-07
-0.00350109
-0.000153261
0.00112161
-0.000128265
-4.83193e-08
-0.000134856
3.34587e-08
-2.32842e-05
1.0141e-05
0.0028684
0.000591102
2.57764e-05
-1.0275e-05
0.000280291
-1.5082e-08
-8.31433e-10
-4.521e-08
-2.62067e-09
4.76811e-08
3.00097e-09
1.41988e-05
-0.000246635
-3.26785e-06
-2.6173e-08
-0.000364508
-2.95699e-05
1.08184e-05
3.87417e-06
7.79687e-08
0.00102294
-2.76193e-05
-1.11368e-07
-3.79604e-05
-5.41735e-06
-1.89289e-08
2.86372e-08
-1.24005e-05
-2.8856e-08
0.00111337
6.06219e-08
-3.67082e-09
2.13737e-08
-8.30663e-05
-5.55359e-05
8.55555e-08
4.99481e-05
2.18308e-05
0.00100738
0.00239159
-1.32728e-08
2.59579e-05
-0.00115427
-2.37138e-05
-1.10993e-07
1.17272e-06
-9.64363e-05
-2.02548e-05
9.91014e-08
-2.25489e-10
-1.29003e-06
-2.94881e-05
-2.85889e-06
-0.000769615
0.00014371
1.9129e-05
6.41173e-10
-1.98816e-08
1.15411e-07
-1.48622e-06
1.49952e-05
3.75664e-08
1.35218e-08
-5.82694e-05
4.10576e-06
4.50558e-07
-5.47413e-08
6.98584e-09
-3.21785e-08
-5.13792e-08
4.42912e-08
1.63245e-05
-9.49521e-09
5.00226e-09
0.000803356
-0.000256855
0.00216727
5.34742e-08
8.17656e-09
-0.00201932
3.13057e-08
-2.50249e-08
2.65223e-08
-2.03189e-10
-6.58038e-05
1.08566e-07
9.93431e-08
-5.9944e-09
2.1474e-08
-9.68543e-08
-0.000217289
2.23056e-08
-1.79288e-05
-0.000176999
-4.69145e-08
6.7194e-09
6.49684e-08
2.35445e-07
-4.49484e-06
4.13843e-08
-2.62569e-08
1.00808e-06
-1.41037e-05
-1.68332e-08
1.74262e-07
7.65738e-08
-2.11946e-05
4.15696e-08
5.29489e-07
-2.98656e-08
-3.80874e-05
-0.00122349
2.70669e-06
-9.83399e-09
0.00322869
1.80019e-07
2.95608e-08
-2.4223e-06
-1.25789e-08
4.01127e-08
7.05949e-08
-7.52726e-08
1.82377e-07
5.02143e-08
-6.00187e-08
1.70552e-07
1.87514e-07
-7.29381e-08
0.00156908
-3.41754e-05
4.5259e-09
-4.04664e-08
-2.34055e-08
2.62369e-06
-3.86634e-08
-2.87569e-08
-1.1206e-08
4.18128e-07
-1.95614e-09
4.28199e-08
-0.00111737
2.01211e-08
7.73917e-07
4.02431e-08
-1.39019e-08
-5.68939e-08
1.40855e-06
-3.88171e-09
-6.87665e-08
-2.61923e-08
5.04691e-09
2.08536e-08
0.00140884
-1.32259e-08
5.956e-05
0.000267647
-5.60937e-08
-4.99811e-05
-0.000458612
-0.000112265
-7.07358e-07
4.7064e-08
-9.59534e-08
-0.000138792
1.37077e-06
-2.00672e-08
-1.93891e-08
1.20566e-07
0.000967966
-1.40252e-07
-1.55818e-07
-1.7488e-08
-3.45891e-10
-0.000103817
5.88266e-08
-1.32326e-08
-7.49679e-08
-1.47219e-08
1.98212e-08
1.15345e-07
3.87735e-08
0.000381198
2.34557e-06
2.79621e-08
3.14702e-08
-8.23928e-08
9.30082e-08
3.22416e-08
2.58939e-05
-5.56405e-08
4.8981e-08
-3.25028e-05
1.30669e-08
5.96176e-09
-1.06796e-07
1.55329e-08
2.25201e-08
-4.60278e-08
-4.99926e-09
-4.11163e-08
2.51517e-05
-9.5021e-06
-0.000230984
-4.40554e-06
1.09934e-08
-7.70475e-08
1.43631e-06
-1.03607e-08
5.2219e-05
-2.90543e-08
0.000264791
3.60532e-08
4.61787e-08
-3.15978e-08
-5.31624e-06
0.00141459
5.47629e-06
0.00281378
8.24272e-08
1.33285e-07
-0.00254322
-0.00199406
-8.59573e-05
0.000501889
-1.55546e-08
4.33924e-06
7.53565e-09
6.23532e-08
-2.29094e-08
-6.59065e-08
4.62146e-08
3.33204e-08
-2.87931e-06
-1.20293e-09
-4.36062e-08
-0.000398403
3.44006e-08
1.94461e-08
-4.38008e-08
0.000363933
-1.4645e-06
2.68438e-08
-8.40188e-07
1.19614e-08
7.76734e-06
-9.61489e-05
9.8706e-10
-1.08939e-06
2.51934e-09
8.5347e-07
1.39686e-07
-0.000147802
-1.76719e-07
-0.000551638
-1.22202e-08
4.3522e-09
9.30544e-09
2.27345e-09
-4.0183e-08
5.18048e-08
-0.000125699
0.00127019
-3.93576e-09
-0.00211514
0.00017762
3.22319e-08
-1.46688e-08
0.0015371
-8.28249e-05
-8.65377e-06
3.47432e-05
9.14447e-08
-1.77963e-08
-2.70219e-08
3.92692e-05
2.09954e-08
4.23046e-06
-0.000729855
0.000281482
1.79037e-07
2.86091e-08
4.96514e-06
-1.78954e-06
-2.01431e-07
-2.72852e-06
1.0232e-07
-0.00148856
-8.89343e-10
0.000720732
-6.17926e-05
0.000986925
3.25716e-08
0.000429074
-3.786e-08
-0.000143603
-3.97298e-08
1.4464e-06
-1.40693e-07
-3.68017e-05
-4.13559e-05
4.34748e-09
-3.80091e-05
0.000110155
1.51939e-08
4.18034e-06
7.4025e-08
3.93028e-08
4.6468e-08
4.23227e-05
-2.48525e-08
-0.00016066
3.00619e-05
0.00138631
-5.20541e-09
1.73338e-07
-3.1277e-09
-0.0012962
7.20802e-08
-1.03881e-06
-1.12947e-08
-4.19453e-05
2.13142e-08
6.9554e-07
3.3622e-05
3.4075e-10
-0.00049763
3.37792e-08
4.35063e-06
3.92312e-08
7.60915e-08
-3.44432e-08
1.98489e-08
-1.7731e-06
-1.30683e-07
1.25498e-08
-5.82135e-06
-5.49324e-08
-0.000386201
-1.06426e-06
-6.47961e-08
2.70312e-06
1.31011e-08
1.0875e-05
2.45328e-05
0.00121226
5.19399e-05
8.34633e-08
-2.03243e-05
0.003369
1.53952e-08
-1.20718e-07
-7.36638e-08
-3.25369e-08
-3.12275e-08
7.39671e-06
1.66317e-07
1.22885e-07
1.09061e-06
-0.0014218
-8.57527e-10
3.82276e-06
-2.32492e-05
6.85485e-05
-8.93387e-05
1.06941e-08
7.14328e-08
-1.17767e-08
-0.00194544
-0.000806067
5.66312e-06
0.000542362
1.07686e-08
7.29626e-08
4.4812e-09
1.17395e-07
-3.3873e-08
0.000918506
1.79837e-07
1.03378e-08
-0.0012814
8.69626e-08
-1.34018e-06
-3.09573e-09
-0.00315469
4.75069e-08
8.43044e-08
-5.80384e-08
7.66173e-08
-0.00200366
-5.17193e-09
-3.38278e-08
5.43001e-05
2.76467e-09
4.10006e-09
2.68839e-08
1.16739e-07
1.21381e-06
2.4698e-07
2.03336e-07
8.61482e-09
1.78086e-08
1.17856e-07
4.1134e-07
-0.00055556
-3.31542e-07
1.19186e-05
-3.18751e-08
-1.64771e-10
0.000178803
-1.03052e-08
-1.09123e-08
-3.33581e-08
7.52355e-08
1.06107e-07
8.99789e-08
-4.34308e-05
0.000159949
-2.13522e-06
0.00170334
-0.00619767
-2.22536e-08
-0.00010314
7.41161e-06
-7.97704e-05
-9.39583e-08
-1.32447e-08
-0.00298199
-8.17517e-09
7.39321e-08
-0.000499715
1.40033e-08
1.01219e-07
0.00132203
-4.73216e-06
8.01412e-07
-4.58725e-08
-1.65881e-08
0.000823536
-7.1399e-06
-4.58894e-08
7.28921e-08
-6.3653e-08
0.00111796
-6.79634e-06
1.49643e-07
-9.93743e-08
-2.0225e-08
-0.000416234
-4.61865e-05
9.56139e-09
-9.35466e-09
2.75431e-08
-1.04689e-09
-1.68812e-07
-0.00028214
-0.000421885
6.3651e-08
3.04752e-08
0.000928557
1.85001e-07
4.79937e-08
5.1152e-08
3.14597e-08
1.23995e-08
-7.05047e-05
-9.58664e-08
8.87959e-06
-0.0010596
-3.39306e-08
3.87622e-08
-1.62868e-07
0.00332079
3.02059e-08
-0.000103034
-3.0275e-05
1.47606e-06
3.01984e-09
-2.50957e-05
-0.000544701
4.19292e-09
-0.000477753
-0.000339163
-0.000512634
2.02262e-08
-1.93366e-07
-1.78846e-05
-3.80852e-08
0.00113518
-5.05107e-06
0.000454874
-1.10679e-08
2.1047e-08
0.000617139
8.78983e-05
-5.10702e-08
-1.41063e-08
3.76575e-07
3.02623e-08
2.32781e-06
0.000214295
0.00178313
5.76045e-07
1.12766e-07
-3.34147e-12
0.00216445
0.000483661
-3.88348e-10
-0.000356104
1.34316e-06
0.00165905
-4.81016e-08
1.05617e-07
0.000133539
3.10877e-05
1.70232e-07
-6.41794e-05
-1.17016e-08
2.41101e-06
3.10519e-08
1.86714e-07
4.13874e-08
-8.61694e-09
6.9843e-08
5.21098e-05
0.000975641
0.00467639
3.96629e-08
0.0029404
1.57841e-08
-1.25982e-05
6.90894e-09
-0.000136082
0.000844865
-1.30359e-08
-2.50986e-09
6.5944e-09
9.637e-08
-1.89212e-07
-4.59175e-05
-8.21345e-05
3.12958e-08
-3.34076e-05
-1.76423e-09
5.06478e-08
0.00463108
0.00133231
1.93089e-07
5.87301e-06
-0.00038878
-4.18067e-05
-5.685e-05
1.92492e-08
3.01781e-09
3.69764e-08
3.48375e-08
-4.31044e-09
-0.00154961
-2.24966e-08
-8.46716e-09
4.92851e-08
1.06589e-07
-6.08493e-08
7.45246e-07
5.1167e-08
1.25725e-08
1.55976e-05
-5.91179e-08
3.88983e-08
-3.86394e-08
2.56083e-05
7.76744e-09
-3.02605e-08
5.72353e-08
-4.82238e-08
-0.000184009
6.51959e-07
-5.00156e-08
5.18075e-08
-9.53693e-07
-1.00434e-09
1.46924e-08
0.00134163
5.02098e-07
2.59387e-05
1.98863e-08
-5.71718e-05
-5.93214e-08
3.86651e-08
5.70989e-08
0.000440288
1.23893e-10
5.38796e-08
-2.75691e-08
0.00034832
-3.80229e-05
4.54689e-08
1.02736e-06
-0.000274409
-6.62519e-09
6.47147e-08
4.33088e-08
-0.000922511
4.60477e-09
0.00098314
-6.75456e-09
-7.98056e-07
-0.000142955
1.0146e-07
1.80283e-05
8.12914e-06
4.37487e-05
3.59995e-07
-4.82071e-09
1.02205e-07
1.9546e-07
3.71895e-08
0.00445211
-0.000377518
4.55207e-09
4.15139e-08
-1.77405e-07
2.26942e-08
7.00694e-05
0.000330296
-3.72897e-05
-6.63493e-08
2.13955e-08
-0.00048345
-5.57456e-08
-1.83076e-06
8.73673e-08
-0.00014722
0.000359074
5.10593e-05
-3.13205e-08
3.47182e-06
-1.30879e-05
8.65583e-07
2.9028e-07
-1.46809e-08
2.13266e-07
-1.25541e-08
-0.000182181
3.67619e-08
0.00396899
7.12869e-07
-3.7777e-08
-0.000110393
-3.8353e-08
-1.63748e-08
6.10653e-08
6.10296e-08
-3.9297e-06
6.53769e-09
1.12485e-07
-3.50176e-08
0.000987446
4.04493e-08
-0.000111337
3.42011e-05
7.84584e-10
6.94766e-08
-8.72095e-05
-5.72321e-08
-0.00134642
8.01198e-05
5.3281e-05
-7.73899e-08
-6.25277e-05
0.000186207
3.90708e-09
1.24461e-08
-7.35947e-08
-5.12786e-09
0.000589371
-6.70418e-09
2.20775e-06
1.79476e-07
3.57931e-07
0.000117666
4.77447e-07
2.606e-08
3.28639e-08
0.000442829
-0.000148207
0.000350334
-0.00100933
7.32541e-10
-0.000141255
-1.63145e-08
-0.000144773
-9.42e-05
-2.25724e-05
-1.97648e-06
0.000130756
-0.000386352
-0.00116376
-1.16764e-07
-3.67474e-07
1.56574e-08
-5.293e-08
-1.35474e-08
-1.02568e-08
9.01016e-08
0.00331998
-6.76426e-10
1.24613e-05
0.000248535
3.66232e-07
1.85258e-05
1.16657e-07
5.90527e-08
2.47505e-08
2.92568e-08
-3.72215e-05
5.6257e-05
2.59038e-06
-8.96734e-09
0.000676635
3.00266e-05
8.19594e-11
-7.97502e-05
0.00026904
1.36839e-07
2.02009e-08
-5.82366e-05
0.0014169
3.07545e-08
1.60237e-08
3.16042e-07
4.61076e-08
0.000143384
5.81357e-05
1.03098e-07
3.2688e-08
0.000335689
2.49154e-08
-4.58876e-08
7.97427e-08
-0.000395332
6.08398e-07
1.33744e-08
4.96856e-08
1.61691e-08
3.62038e-06
7.23247e-08
-0.00011043
1.82662e-05
0.000140763
-3.03158e-05
-0.00173862
-5.3223e-05
0.000928243
-0.000109911
4.5796e-08
3.58785e-08
-0.00130189
0.0025156
-0.000538478
3.06112e-08
-5.50172e-08
-5.84818e-08
1.32157e-06
-7.72984e-08
-4.42831e-05
-3.76729e-05
-4.18636e-05
-2.89761e-08
-1.06606e-08
1.94994e-09
1.91003e-08
-3.74088e-06
0.00156015
-1.40668e-08
0.00249388
0.00112287
-0.000963801
1.16247e-08
0.00208109
-5.34395e-08
2.47935e-08
0.00106619
-3.081e-08
3.44547e-08
1.03904e-07
0.00129963
4.38372e-06
-1.51662e-08
5.97305e-06
0.000174588
-3.47312e-08
2.63011e-07
1.2044e-07
-4.24966e-08
0.00086561
-4.09785e-05
-8.88238e-08
-0.000597493
-0.000438242
2.57225e-08
-0.000108489
5.20841e-05
4.36967e-06
6.94313e-08
1.068e-07
0.000524521
2.63815e-08
6.96896e-08
-5.30803e-08
2.10577e-06
1.44672e-07
1.04085e-05
0.000158118
-6.80664e-08
4.55341e-08
0.000493328
0.00178369
-1.94467e-07
-2.24998e-07
0.00025833
3.02405e-08
-2.34432e-05
-7.64623e-05
0.000342259
-8.89255e-09
1.05137e-08
5.18466e-08
-2.25031e-08
0.000313601
-2.15854e-08
3.09501e-09
1.70318e-05
-4.58986e-09
6.90458e-09
-3.01582e-09
0.000433609
0.000513152
7.47749e-05
-7.40299e-08
0.00131968
1.60962e-08
-6.61261e-11
-2.29056e-06
0.000118781
0.000788849
-0.00073253
1.51561e-08
8.95581e-05
-0.00570029
7.40323e-09
8.70692e-06
-7.10416e-09
-6.15371e-08
-8.91729e-08
-7.32532e-09
-1.64848e-08
2.81029e-08
-1.95184e-08
0.000347243
-2.65152e-08
5.89112e-08
-2.35676e-09
1.33363e-08
2.83258e-06
-1.71319e-07
-9.89148e-08
1.03324e-08
-0.000828247
-2.20737e-09
-5.46552e-09
1.23765e-08
-3.90424e-08
-5.70722e-06
1.08692e-08
0.000428522
0.00100554
5.88208e-08
0.000183398
1.98859e-10
3.67958e-06
-1.81565e-06
2.33912e-08
-0.00031097
-1.27119e-05
-0.000131632
-4.21289e-08
6.54445e-08
-2.72763e-05
0.00146259
8.75165e-08
4.46324e-08
1.1055e-07
1.69837e-06
3.23252e-08
0.00100259
-5.88593e-08
6.41816e-08
5.64646e-08
-8.01076e-05
1.11796e-08
-4.44601e-08
-1.24497e-07
3.45869e-07
9.96487e-07
1.53408e-08
-0.000389778
0.00406143
1.02907e-07
0.000712955
8.68719e-08
-1.02257e-06
-0.00581838
2.00559e-08
0.00085396
-2.36202e-05
1.22789e-07
3.64624e-08
7.10442e-09
-0.000402514
0.00103068
-1.30521e-08
-0.000267565
-0.000331252
2.68986e-08
-2.55391e-08
0.000125374
1.29543e-06
-0.00544233
3.55248e-05
5.79206e-09
1.14588e-05
-3.46755e-08
-1.14715e-07
-1.14932e-07
6.79366e-08
7.93789e-10
4.51008e-08
8.6012e-08
-1.52025e-08
1.52205e-08
-1.06026e-08
-0.000144083
4.98757e-08
-0.000179368
-7.05914e-08
1.96899e-08
-0.00583507
-2.04728e-05
0.000498896
6.54961e-08
1.45749e-06
6.19146e-08
8.63292e-09
-1.61925e-08
5.62702e-08
5.69209e-06
8.60587e-07
0.000192209
-3.88666e-05
2.80419e-07
1.88422e-05
7.25838e-08
-4.1867e-05
6.54602e-08
-5.71549e-08
0.000158375
1.86767e-08
0.00017085
-5.20899e-08
0.00013119
-1.3625e-05
-4.9239e-08
0.00135847
1.19032e-07
0.000679976
-1.12727e-08
9.24322e-09
2.11049e-07
-0.00150372
-4.17906e-06
-3.94983e-08
2.36563e-08
-7.15237e-08
-5.41392e-08
7.61263e-08
0.00101343
9.87529e-05
3.68756e-08
1.17327e-05
3.67771e-08
2.13663e-06
-5.70272e-06
0.00124522
2.23284e-08
-7.28053e-05
-5.42084e-08
0.00135401
1.29194e-05
-1.37647e-08
8.00713e-07
-1.08164e-08
3.43865e-06
-2.67715e-05
5.4232e-05
-2.64577e-08
8.70643e-10
-9.25198e-09
1.10125e-07
2.72221e-08
-0.000293327
1.04673e-07
1.26644e-06
-4.77179e-08
1.75383e-08
3.39735e-08
1.34121e-09
-9.43634e-11
2.78345e-07
3.59265e-05
-9.26912e-09
4.37191e-07
-1.84301e-06
-0.000218743
8.72782e-06
0.000993178
4.65066e-06
7.6237e-08
5.55636e-09
3.19704e-05
-3.19517e-08
1.47195e-07
1.69598e-07
-8.02553e-08
9.62788e-08
7.413e-08
6.37395e-08
0.000168372
3.76602e-08
3.67563e-06
-0.000618439
1.7971e-08
3.4845e-05
9.33397e-08
-5.85023e-05
3.21844e-07
1.80767e-07
9.60676e-09
-1.89239e-06
0.00164335
-3.05347e-08
3.15335e-08
0.00426773
5.47572e-08
1.20648e-08
7.81942e-06
-0.00168812
3.42382e-09
8.64688e-08
9.04998e-05
-0.000833504
0.00139552
9.95226e-08
-3.40233e-09
-0.000881463
-7.04477e-08
-8.06216e-08
3.0849e-08
4.43404e-08