/*--------------------------------*- C++ -*----------------------------------*\
| =========                 |                                                 |
| \\      /  F ield         | OpenFOAM: The Open Source CFD Toolbox           |
|  \\    /   O peration     | Version:  v2012                                 |
|   \\  /    A nd           | Website:  www.openfoam.com                      |
|    \\/     M anipulation  |                                                 |
\*---------------------------------------------------------------------------*/
FoamFile
{
    version     2.0;
    format      ascii;
    class       surfaceScalarField;
    location    "350";
    object      phi;
}
// * * * * * * * * * * * * * * * * * * * * * * * * * * * * * * * * * * * * * //

dimensions      [0 3 -1 0 0 0 0];
oriented        oriented;


internalField   nonuniform List<scalar> 
27740
(
0.00980187
-0.00568248
-0.00411939
0.178661
-0.210209
0.0315473
-0.086662
-0.165081
0.251743
0.00725183
-0.00955006
0.00229823
0.018431
-0.0345703
0.0161393
0.119551
-0.23343
0.113879
-0.00540808
-0.00319364
0.00860172
-0.126817
0.133785
-0.00696795
0.036145
-0.172014
0.135869
-0.168768
0.184021
-0.0152526
0.00132415
0.100361
-0.101685
-0.000393332
0.00942766
-0.00903432
-0.0168383
0.0931289
-0.0762906
-0.268388
0.181726
-0.338554
0.232441
0.106113
0.212912
-0.155111
-0.0578009
0.317318
-0.490399
0.17308
0.0565186
0.156394
0.118995
-0.064596
-0.0543993
-0.00108567
-0.00170343
0.0027891
0.00623203
-0.00125723
-0.0049748
-0.0920053
0.246531
-0.154525
0.0154843
-0.00713589
-0.00834844
-0.110109
-0.0179944
0.128103
0.163084
-0.3849
0.221815
-0.00124257
0.000156902
-0.119326
-0.14547
0.264796
0.00887889
-0.00927222
0.0227265
0.101301
-0.124028
0.555988
-0.341665
-0.214323
-0.152082
0.300872
-0.148791
-0.104079
0.0977419
0.00633688
-0.217503
0.437525
-0.220021
0.105374
-0.186949
0.0815758
0.239569
-0.0807682
-0.158801
-0.0136159
1.76565e-06
0.0136142
0.124673
-0.10263
-0.0220428
0.203025
0.0393142
-0.242339
0.214259
-0.447738
0.233479
-0.00119453
-0.125622
0.17911
-0.142965
0.0165622
-0.126671
0.134073
0.0279718
-0.162045
-0.0106465
0.0110986
-0.000452095
0.194715
-0.0160537
0.366117
0.18987
-0.00127563
0.00544788
-0.00417225
-0.0015068
0.00875863
-0.0971532
0.056368
0.0407852
-0.238872
0.411588
-0.172716
0.00370892
0.00520127
-0.00891019
-0.000989161
0.150488
-0.149499
0.0364331
-0.029981
-0.00645208
0.0357866
0.000499565
-0.0362862
-0.473444
0.255941
-0.0272726
-0.0698806
-0.00941368
0.00812858
0.0012851
-0.046492
-0.0933487
0.139841
-0.00567083
0.00545711
0.000213725
0.0420114
-0.21078
0.00495212
0.00484976
-0.202464
-0.168484
0.370948
0.161665
-0.027592
-0.000311779
-0.00777723
0.00808901
0.321365
-0.11834
0.00803362
-0.0083454
-0.347621
0.214378
0.133244
-0.00826417
0.00856918
-0.000305012
0.00732423
-0.00870781
0.00138358
0.0055432
-0.110278
0.104735
-0.0123567
0.0106884
0.00166836
-0.239145
-0.0797199
0.318865
0.0375515
0.0456974
-0.0832489
-0.0756934
0.208814
-0.133121
0.185659
-0.0539849
-0.131674
0.00742056
-0.00118853
0.0934819
-0.00230142
-0.0911805
-0.1752
0.010047
0.165153
-0.238272
0.162579
-0.0126048
0.0684706
-0.0558657
0.443311
-0.125993
-0.00693636
0.00566073
-0.00946858
0.0110516
-0.00158306
0.0234867
0.0129463
-0.102786
0.0564009
0.0463848
0.39943
-0.185171
-0.129959
0.0139139
0.116045
0.176644
-0.177633
0.0168864
0.127445
-0.144331
0.116275
0.106063
-0.222339
0.155265
-0.206547
0.0512815
-0.0929669
0.221258
-0.128291
-0.319663
0.218254
0.101409
-0.00320134
0.00425967
-0.00105833
-0.268087
0.176082
-0.100507
0.101831
-0.208384
0.127738
0.0806461
0.0485769
0.0248112
-0.0733881
-0.00826121
0.00788391
0.000377306
0.160327
-0.279653
0.0100677
0.00541659
0.118203
-0.0979108
-0.0202918
0.468301
-0.200653
-0.267648
0.00881372
-0.0051048
-0.00908161
0.000820397
0.163142
-0.0126539
0.384284
-0.450712
0.0664285
-0.189436
-0.0709073
0.260344
0.0874893
0.0307133
0.00451994
0.17725
-0.18177
-0.0127746
-0.000841273
-0.0695885
0.0217506
0.0478379
-0.228248
-0.0914148
0.143347
0.0145197
-0.157867
-0.167021
0.101384
0.0656375
-0.0894113
0.268316
-0.178905
-0.274079
-0.199365
-0.00242921
-0.00163156
0.00406077
-0.012901
0.00225443
-0.232008
-0.115154
0.347161
-0.0042556
-0.00141523
-0.278025
0.228267
0.0497576
-0.0665273
-0.400287
0.161142
-0.0058832
0.00664988
-0.000766679
0.369144
-0.206059
0.182624
0.293566
-0.00162625
0.000927582
0.000698664
-0.180789
-0.0972362
0.000274175
-0.00270338
-0.121222
-0.139878
0.2611
-0.0101878
0.00071918
-0.234599
-0.0994149
0.334014
0.00457462
0.000882486
0.11133
0.0133427
-0.210403
0.433845
-0.223441
0.0116669
-0.00155911
-0.0101078
-0.00780247
-0.00161121
0.199443
-0.044178
-0.159234
-0.0159654
0.00382097
0.0339959
-0.0378168
0.113093
-0.272967
0.159874
0.427968
-0.312429
-0.11554
-0.457311
0.333077
0.124234
-0.38404
0.405685
-0.0216451
0.00228217
-0.00997226
0.00769008
0.111809
0.31616
-0.426556
0.282709
0.143847
-0.0123614
-0.00127396
0.0136354
-0.00175738
0.017526
0.0962665
-0.113793
-0.256753
0.507121
-0.250369
-0.000462176
-0.00994093
0.0104031
-0.386126
0.248045
0.138081
0.314524
-0.247149
-0.0673749
-0.299832
-0.157479
-0.0493021
0.0317141
0.017588
-0.070325
0.0577201
-0.547632
0.327016
0.220617
-0.275227
0.0332258
0.242001
-0.1362
-0.221535
0.357735
-0.118808
0.0646708
0.0541375
-0.00633961
0.00208401
-0.178119
-0.208007
0.00180099
-0.00768419
-0.0666816
-0.10034
0.303366
0.080918
-0.37462
0.3043
0.0703199
0.233561
0.0809625
-0.29148
0.202068
-0.257025
0.135803
0.0191075
-0.022333
0.00322554
-0.170199
0.123707
-0.0112319
0.0296629
0.282462
-0.163415
-0.119047
-0.0101158
-0.0334542
0.04357
7.96702e-05
-0.0124411
-0.154621
0.189741
-0.0351205
-0.235567
-0.312065
0.0998723
-0.0943291
0.00555637
0.103305
-0.108862
-0.386042
0.436532
-0.0504902
-0.140909
-0.256865
0.397774
-0.00211064
0.209838
-0.0503835
-0.159454
0.124004
-0.176511
0.0525077
0.0573553
-0.441395
-0.147684
0.260777
0.189602
-0.0289816
-0.16062
0.0285403
0.0701047
-0.098645
-0.0571986
0.0549456
0.00225303
0.298526
-0.152647
-0.145879
-0.00015708
-0.00620353
0.00636061
0.262213
0.0642679
-0.32648
-0.454002
0.239721
0.214282
-0.14222
0.429291
-0.287071
-0.0140003
-0.115959
-0.00853884
-0.0701144
0.0786532
0.0554039
0.130255
0.284746
-0.425655
-0.218196
-0.20836
0.0403754
-0.152243
0.111868
-0.00700278
-0.00126139
0.134304
-0.0428092
-0.0914951
-0.12672
0.143606
-0.0301978
0.0735841
-0.0433863
-0.0896816
-0.0125374
0.102219
0.00311269
0.00233518
0.115349
-0.304786
-0.0104896
-6.84337e-05
0.010558
-0.291107
0.211587
0.0795205
-0.209452
0.195105
0.0143476
0.2774
-0.181316
-0.0960835
0.00642363
-0.00658071
0.0104274
-0.000223208
-0.0102042
0.208743
-0.37313
0.164388
-0.0631541
0.0986592
-0.0355051
-0.321752
0.167555
0.154197
0.00569715
0.000952725
-0.27463
0.214062
0.0605679
-0.0218502
-0.127498
0.149348
-0.110252
0.293155
-0.182903
0.0399716
-0.0179066
-0.022065
0.0219779
-0.00287048
0.00210122
-0.00444546
0.00234424
0.0012117
0.00183138
-0.00304308
-0.0876576
0.2964
-0.168539
-0.106091
-0.0320805
0.0196229
0.0124576
0.0498871
-0.0600029
-0.174885
0.191284
-0.0163988
0.197175
-0.375001
0.177826
-0.012601
0.000586594
0.0120144
-0.2357
0.13763
0.0980692
-0.00341935
0.00171592
-0.0714482
0.106377
-0.0349284
-0.0297118
-0.0195903
0.025992
-0.00327098
-0.022721
0.15352
-0.388118
-0.102701
0.0578226
0.0448786
-0.228326
-0.170697
0.399023
-0.0099178
0.00894323
0.00097457
-0.168262
-0.00662286
-0.488585
0.102543
0.147867
0.118206
-0.0896653
0.00951192
0.00797047
-0.0174824
-0.038513
-0.236714
-0.0407549
0.044846
-0.00409103
-0.0962882
0.0877494
-0.0111359
0.0118478
-0.00071191
-0.00741419
0.00200611
0.174472
-0.0504678
0.0789649
0.160604
0.191219
0.0186186
0.0121904
-0.00200752
-0.0101829
-0.331167
0.220915
-0.208814
-0.0822929
-0.133572
0.148091
-0.00154594
0.178796
-0.355138
0.195246
0.159892
-0.0509537
-0.0186348
-0.00993581
-0.000553772
0.193463
-0.302965
0.109502
-0.23633
-0.217673
-0.00598968
-0.000946683
-0.00510375
0.0279123
-0.0228085
-0.42364
0.281419
-0.00925631
0.00714567
0.235474
-0.440216
0.204742
-0.00748173
0.0097639
-0.110035
0.113136
-0.00310081
-0.00859376
-0.00823946
-0.0325155
0.0853445
0.0336508
-0.0960136
0.358226
-0.457305
0.220975
-0.0967942
0.0799559
0.00279343
-0.00158173
0.00574228
-4.51282e-05
-0.355096
0.412452
-0.195247
-0.126505
0.0100702
-0.0105323
0.00551605
-0.157726
0.15221
-0.0551013
0.0752196
-0.0201182
-0.0112062
-0.00139475
-0.419748
0.233107
0.186641
-0.0102308
0.103713
0.390817
-0.166605
-0.224211
-0.228446
-0.188106
0.416552
0.130507
-0.152357
-0.0113152
0.00017929
0.0155616
0.00373214
-0.0192937
-0.0163949
0.0132561
0.0974117
0.00528685
-0.102699
-0.201296
0.0697905
0.131505
-0.094658
0.112184
0.112482
-0.0897559
0.397165
-0.157444
-0.033211
0.0281073
-0.441234
0.0910345
0.350199
0.125814
-0.0204407
-0.10805
-0.100334
-0.493114
0.193282
-0.419512
0.187504
-0.00187566
0.0278676
0.180414
0.155706
-0.205828
0.050122
0.0242011
-0.0274721
-0.131545
-0.00058516
-0.000657414
-0.144268
0.18628
-0.00135534
-0.0317326
0.0330879
-0.197311
-0.141243
-0.171703
0.350694
-0.11887
0.29946
-0.18059
0.492505
-0.450221
-0.0422837
0.000239653
0.0112246
-0.0104238
-0.000800871
-0.538277
0.324583
0.213695
-0.350135
0.213935
0.163252
0.0158582
0.234046
-0.50134
0.267293
-0.297019
-0.196094
0.0701271
-0.245595
0.175468
-0.458288
0.103192
0.0173648
-0.108253
0.0908879
-0.00231484
0.00156266
0.000752183
0.0343759
-0.0645738
-0.00922398
0.00949667
-0.000272685
-0.273796
-0.100824
-0.487901
0.356989
0.130913
-0.131903
-0.0297543
0.161658
-0.501039
0.385139
0.1159
-0.000528414
-0.454807
0.455335
0.00728216
0.0021744
-0.00945656
-0.137715
0.153531
-0.0158164
-0.0792597
-0.0192306
0.0984903
0.0611469
0.0731574
-0.0795133
-0.0392949
-0.174024
-0.131387
0.238929
-0.107542
0.0966108
-0.0798501
-0.140707
0.220557
-0.369376
0.28677
0.0826063
-0.119997
-0.303642
0.178486
-0.406812
-0.164709
0.198146
-0.0334378
-0.125809
-0.109891
0.362129
-0.217547
-0.144582
-0.0842742
0.0851403
-0.000866077
0.22067
0.141459
0.27169
-0.201563
-0.0101182
0.0102562
-0.000137973
-0.0912304
0.0159969
0.0752335
-0.261847
0.142976
-0.00138418
0.00232988
-0.000945701
-0.0983378
0.0268897
0.00666462
-0.000922334
0.00327265
-0.0143421
0.0110695
-0.237419
0.157569
0.0108454
-0.00757272
0.375569
-0.154899
0.00431698
-0.00952336
0.00520638
-0.0411434
0.039788
0.0626781
-0.206946
-0.162952
0.0477263
0.115226
-0.15026
0.0125451
0.142309
-0.294391
0.105202
0.193324
-0.11523
-0.197198
0.239887
0.142665
-0.382551
0.00969533
-0.00758442
-0.00211091
0.101926
-0.0845615
-0.00131812
-0.0103558
0.00991157
0.000444263
-0.1087
-0.00176717
0.110467
0.00751203
-0.0153808
0.00786879
0.137099
-0.282566
0.145468
0.426928
-0.244304
-0.135654
-0.0599502
0.195605
0.38212
-0.196373
-0.185747
-0.00525467
-0.0519439
-0.465602
0.0517545
0.413848
-0.465563
0.208811
0.00367663
0.00324121
-0.00691784
-0.0048953
0.0204569
-0.266824
0.233688
0.0331353
-0.266443
-0.114335
0.380778
0.0416451
0.0509661
-0.0926112
-0.131962
0.128952
0.00300952
0.16248
-0.268289
0.105808
0.000538271
-0.0086047
0.00806643
0.196938
0.134207
-0.331146
-0.0192947
-0.143658
-0.00103694
0.00978484
-0.0087479
-0.12966
0.225398
-0.0957382
-0.38562
0.219015
-0.00737154
-0.00217751
0.00954904
0.00497487
0.00472046
-0.148426
-0.0275025
0.175928
-0.174293
0.329923
-0.15563
-0.341021
-0.146881
0.00879948
-0.00725763
-0.00154186
0.0093853
-0.00210314
-0.158731
0.326286
0.0907658
0.0107491
-0.101515
0.427301
-0.213974
-0.213327
0.182364
0.166857
-0.349221
-0.0108448
0.000479859
0.0103649
-0.397884
0.227989
0.169895
-0.00146248
-0.00085236
0.0843126
-0.213973
0.0126512
-0.110819
0.0981683
-0.00453052
0.0120426
0.00885467
-0.0441526
0.0106984
0.177196
0.164028
-0.341224
-0.00262258
0.00190292
0.000719659
0.122424
0.253145
-0.0175713
-0.0792229
0.00114362
-0.113825
0.112682
0.00226708
-0.0062052
0.00393812
-0.00477358
-0.0249898
0.0297634
0.270715
-0.385946
-0.00699614
-0.453353
-0.0760806
-0.0266206
-0.00640483
0.00161078
0.00479405
-0.219208
0.0878217
0.00722239
0.0376236
-0.050096
-0.216728
0.0879617
-0.198382
0.110421
0.220851
-0.455003
0.234152
0.00159319
-0.00131902
0.0926606
-0.00752031
-0.00399782
0.00137524
0.152884
0.147988
-0.20053
0.107563
0.0085467
-0.00487007
0.0120667
-0.0115154
-0.000551265
-0.23045
0.182739
0.0477111
0.131311
-0.397754
0.242411
0.184889
0.00528041
0.00138421
-0.00105601
-0.00057024
0.284714
-0.489437
0.204723
0.160436
-0.325448
0.165012
0.0127839
-0.000809484
-0.0119744
-0.374934
0.180829
0.194104
-0.0116395
-2.84933e-05
0.011668
-0.353207
0.00845579
-0.00845579
-0.115407
-0.016555
-0.00752161
0.00333977
0.00418185
0.154289
-0.0189123
-0.135377
-0.00388969
0.0396763
8.95455e-05
-0.0104454
-0.190965
0.0979876
0.0929776
-0.129625
-0.0423896
0.209565
-0.121603
-0.191597
0.145322
0.0462747
0.272832
-0.135734
-0.154052
0.271089
-0.117036
0.13172
-0.126204
-0.00437536
0.0279789
-0.0236036
-0.432376
0.20393
-0.110627
-0.150822
0.261449
0.000450955
0.0116157
-0.201102
0.411876
-0.210774
0.259079
-0.379077
-0.114005
0.0964339
-0.158773
-0.209818
0.368591
0.0126312
-0.0026461
-0.00998514
0.230707
-0.403487
0.172781
-0.172275
0.293773
-0.121498
-0.212944
0.373768
-0.160824
0.0927228
0.123181
-0.215904
0.324358
-0.12742
0.487625
-0.188319
-0.299307
-0.042064
0.0477719
-0.00570797
-0.110432
0.292796
0.00889554
0.0703674
-0.079263
-0.146206
-0.203929
0.0507189
-0.193112
0.142393
0.00946188
0.00163674
0.212079
0.275547
0.0497688
-0.0623496
0.0125807
-0.200126
0.200331
-0.00020575
-0.00681762
0.009465
-0.00264738
0.0111104
-0.00807822
-0.00303216
-0.00922029
0.0104282
-0.00120791
0.0133313
-0.00761871
-0.00571258
0.201115
-0.108392
-0.102853
0.124493
-0.02164
0.0556294
-0.0118246
0.000185118
0.128942
-0.21934
0.0903976
-0.004423
-0.0957995
0.100223
0.192476
-0.161429
-0.0310474
0.0222773
-0.0959579
0.136333
-0.111016
0.119511
-0.00849573
0.389709
-0.155662
-0.010749
-0.0162438
0.0269929
-0.00727608
0.102487
-0.0952107
-0.00917938
-0.00166539
0.313221
-0.22815
-0.0850708
-0.0103083
0.00927133
0.120423
0.0111349
-0.131558
-0.108386
0.146954
-0.0385673
-0.427205
0.266484
0.160721
0.111545
-0.110401
-0.0124044
0.00962047
0.00278396
-0.304429
-0.233849
0.369621
-0.209185
0.00189009
0.37278
-0.169521
-0.203259
-0.033879
0.0824558
0.205499
-0.380333
0.174834
-0.0476012
0.167152
0.119505
-0.264976
0.078384
-0.147053
0.0686691
0.219075
-0.377848
-0.0608749
0.0559856
0.00488929
-0.312967
-0.150614
0.46358
0.00424964
0.00235891
-0.00660855
0.258918
0.0543029
0.00750188
0.0058294
-0.0789076
0.108194
-0.0292864
-0.000627813
-0.00257353
-0.0104806
0.0107369
-0.000256315
-0.259662
0.149035
-0.0839346
-0.00729584
-0.0432487
-0.148348
-0.00387713
0.00139446
0.00248267
0.000687584
-0.171979
-0.185141
0.357121
0.0637474
-0.0548519
-0.100171
0.112822
-0.293791
0.0938592
0.199932
-0.142069
0.0494672
0.0926016
0.119128
-0.270788
0.15166
-0.12613
-0.214516
-0.0792757
-0.456595
0.484228
-0.0276334
0.201126
-0.514093
0.273007
-0.153879
0.0150801
0.00911471
-0.0241948
-0.195808
0.431282
-0.204299
-0.115777
0.320075
-0.130113
0.246388
-0.238352
0.126273
0.112079
-0.038243
0.00308949
0.00117018
0.218822
-0.0898803
0.0297614
0.00431497
-0.106937
0.102623
-0.128775
0.0177597
0.210783
-0.00291529
-0.000951429
0.00386672
0.0548721
-0.00498508
-0.00690197
-0.00494432
0.0118463
-0.0635986
-0.0784703
0.0213397
-0.125597
-0.092823
0.21842
-0.219612
0.0321433
0.187469
0.0347347
0.346535
-0.115829
-0.00451059
0.101922
-0.145324
-0.151461
0.296785
0.230516
0.11602
-0.208938
-0.160198
0.369135
0.00307904
0.00502392
-0.00810296
-0.00320463
-0.000573308
-0.00828271
0.00885602
0.169534
-0.155897
-0.0136362
-0.352412
0.198412
0.154
0.00107047
0.00772901
0.00698416
0.00104946
0.0613261
-0.00638053
-0.0866508
0.13737
0.095615
-0.0286225
-0.0669925
0.00579345
-0.00841989
0.00262644
-0.467057
0.0258235
0.00999095
0.000437249
-0.0881005
-0.150251
-0.0114601
0.147507
-0.136047
-0.22763
0.146722
0.0809081
-0.0398348
-0.0020973
0.0419321
-0.00849471
0.00753551
0.0009592
-0.17038
-0.0484101
-0.0124648
0.0191708
0.135118
-0.00116395
-0.200132
0.00613639
-0.00756248
0.00142609
-0.0836458
0.052029
0.0316168
-0.129532
0.2811
-0.151568
-0.00350414
-0.000372991
-0.172815
-0.0337317
-0.00429811
0.00747395
-0.00317584
-0.168334
-0.0788149
0.0201593
0.0236551
-0.0438144
0.151188
-0.0728036
-0.156267
0.222168
-0.0659009
0.0494096
-0.420124
0.370715
-0.00687472
-0.00264864
-0.0121713
0.141124
-0.128953
0.1661
-0.0380499
-0.12805
-0.128711
-0.0281734
0.156884
-0.00999283
0.0102838
-0.000290974
-0.0660011
-0.153207
-0.00937773
0.00880442
-0.165753
0.295008
-0.129255
0.0102995
-0.0117853
0.000862637
0.0109226
-0.0856248
-0.147805
0.324817
0.112707
0.0589985
0.0366166
-0.149487
0.321048
-0.171561
0.0254342
0.137244
-0.162678
0.106857
-0.311156
-0.126869
0.249838
-0.122969
0.0325412
0.00145471
-0.0372583
-0.0487356
0.0859938
-0.00102571
0.00632256
-0.00529686
0.270705
0.2218
0.00281671
0.00981453
0.234519
0.177069
0.0765792
-0.0286134
-0.0479658
0.0260457
0.151838
-0.360775
-0.350032
0.256208
0.0938239
0.190416
0.10818
-0.100609
-0.007571
0.114407
-0.223506
0.109099
-0.129675
0.0268225
-0.128372
0.0199855
-0.0842462
0.11092
-0.0266743
0.324814
-0.0895237
-0.23529
-0.349973
0.154726
-0.160356
0.0267847
0.00139792
-0.0157201
0.0143222
-0.371133
0.168669
-0.0117578
-0.101997
0.113755
0.196174
0.272127
-0.00571342
-0.00388545
0.00959887
-0.253942
-0.199871
0.453813
-0.141771
-0.0209673
0.162738
-0.179435
0.309541
-0.130105
-0.39691
9.29023e-06
0.100556
-0.107832
0.00122935
0.0158699
-0.0170993
0.0400944
0.0161155
-0.0367978
0.0206823
-0.207653
0.0348383
-0.245367
-0.20237
-0.0994741
-0.106812
0.206287
-0.000610799
-0.124121
0.242794
-0.118674
-0.211763
-0.135858
-0.0192537
0.0206516
0.0407488
-0.00703823
-0.0337105
-0.288026
0.352285
-0.064259
0.000177424
0.00989274
-0.00468659
-0.00563064
0.0103172
-0.283606
0.117853
0.270538
-0.0213884
-0.249149
-0.0105775
0.141633
-0.131055
-0.0884171
-0.139213
0.136536
-0.266068
-0.0591678
0.0539131
-0.005538
-0.00681875
-0.00110552
0.00724191
0.000318068
-0.0195717
-0.302129
0.157168
0.144961
-0.0319166
-0.0190446
0.0509613
0.216411
0.0878892
-0.382231
0.304138
0.0780923
-0.418902
0.173534
-0.00860235
0.00082512
-0.474702
0.466225
0.00847766
0.132816
0.149646
-0.00203122
0.00782466
0.0117625
-0.0111112
-0.000651335
0.144673
0.0943275
-0.239
0.115135
-0.109848
-0.157465
0.0708139
0.187314
-0.461393
0.0169357
0.000327899
-0.0172636
0.22142
-0.0126057
-0.0872822
0.0500239
0.139536
0.0642911
-0.203828
0.0378114
0.0411159
-0.0789274
-0.457205
0.451941
0.00526399
0.133124
-0.199125
-0.476845
0.275751
0.201094
0.0940484
-0.0122097
-0.0818387
0.0518466
0.000743884
-0.00972399
0.0089801
-0.0267583
0.0148197
0.0119386
-0.114184
0.124923
-0.0107395
0.00566432
-0.00678456
0.00112024
-0.00112442
0.114242
-0.111239
-0.00300275
0.000346571
0.0113204
0.109424
-0.0712594
-0.0381651
0.0194553
-0.0385047
0.185227
-0.0783417
0.00506119
-0.0019485
-0.00456336
-0.0286477
0.0074994
-0.097181
0.000775683
-0.101283
0.120798
-0.00128665
-0.129489
-0.0509844
-0.139981
-0.000810705
-0.0109746
-0.0012443
-0.00887394
-0.163673
-0.188738
-0.0961587
-0.122917
0.219076
-0.00616296
0.0072862
-0.00112324
0.00807889
-0.00616555
-0.00191333
0.00477371
-0.00250664
-0.0134152
0.122401
-0.108986
-0.0159512
0.390708
-0.374756
-0.120937
0.109477
-0.0100842
-0.00228066
0.000746173
0.00153449
-0.50604
0.299683
0.206357
-0.0261593
0.198992
-0.172832
-0.236454
-0.0471065
0.0617879
-0.0146814
-0.238154
-0.189051
0.0277186
-0.106626
0.117385
0.00341317
-0.0657304
0.348439
0.133179
-0.330938
0.197759
-0.00716627
-0.00523816
-0.377808
0.173684
0.204124
-0.0450824
-0.155043
-0.25311
0.126242
0.364719
-0.31531
0.237829
-0.30409
0.0662603
-0.0162847
-0.0493785
0.0656632
0.0836096
-0.054049
-0.0295606
0.110287
-0.00898559
-0.01061
-0.0117514
0.00127086
-0.00431846
-0.00347113
0.00778958
-0.0206156
0.447543
-0.0969953
-0.00396477
0.10096
0.07763
0.0656046
-0.143235
0.133734
0.0756862
-0.209421
-0.000916758
0.0916825
0.216379
0.070391
-0.270783
0.11673
0.194601
-0.36658
0.0340094
0.0059622
0.00101236
0.00178107
0.00795407
-0.0258607
-0.323737
0.157072
0.166665
-0.155038
0.00477781
0.159026
0.240404
-0.326952
-0.0919493
-0.420946
0.420418
-0.135575
-0.049458
0.185033
0.0212774
-0.105524
-0.0103664
0.00465301
-0.11901
0.107253
-0.298329
-0.0839017
-0.0455137
-0.0445109
-0.00259559
0.0236743
-0.0868284
0.03937
-0.261713
0.222343
-0.00166801
-0.00103217
0.00270018
0.00595836
-0.00698407
-0.337601
0.173928
0.00837087
-0.00891411
0.000543244
0.103548
-0.0619028
-0.141704
-0.0325594
0.174263
-0.136194
-0.0188437
-0.160292
-0.203424
0.363717
-0.0438612
-0.165591
-0.10527
0.100847
-0.00714591
0.00621493
0.000930985
-0.0754118
-0.017952
0.0933638
-0.0888481
0.303226
0.00451561
0.001758
-0.00925433
0.00749633
0.0111541
0.000101157
-0.0112553
0.0285286
0.242009
0.000477447
-0.0104184
-0.0706557
0.132488
-0.0618319
0.014233
-0.00862075
-0.00561226
-0.062673
-0.0401127
0.00860126
-0.0155032
-0.296361
0.181207
0.000247103
-0.0257286
0.0260467
0.0977947
0.0103856
0.168718
0.156677
-0.0121101
-0.123144
0.135254
0.105429
0.274406
-0.114079
-0.118126
0.00394173
0.20195
-0.0624137
0.0384063
0.050707
-0.0891133
-0.0546105
-0.165002
0.00755013
0.00668288
-0.00406972
0.00714876
0.441836
-0.207317
0.0965217
-0.0974385
0.108624
-0.117813
0.00918809
-0.131026
0.117611
-0.126475
0.105926
0.0205492
0.00282735
-0.00181498
-0.132905
-0.159297
0.292202
0.104662
-0.103886
0.0531897
-0.0600379
0.00684818
0.112437
-0.111249
-0.00118796
-0.00286544
0.261391
-0.143733
-0.117658
-0.0058689
0.0162214
-0.011315
-0.00490639
-0.0880037
0.240668
-0.152664
0.00857498
-0.0113026
0.00272767
-0.116188
0.00561054
0.110578
-0.206262
-0.299778
0.00567142
-0.00142178
0.00201377
-0.122533
-0.122992
0.245524
-0.021532
0.155092
-0.13356
-0.00562633
0.00565239
-2.6052e-05
-0.228455
0.140452
-0.00478087
-0.000397977
0.00517885
-0.0950664
0.257547
-0.304216
0.132063
0.172153
-0.147606
-0.123176
0.187786
-0.0215097
-0.166276
-0.258959
0.287269
0.155024
-0.442293
-0.00818904
0.00387058
-0.297951
-0.178894
0.101277
-0.164646
0.298998
-0.134352
-0.0400092
0.0354459
-0.0996059
0.00662567
0.0929802
-0.293666
0.160761
-0.220583
-0.198929
-0.00148661
-0.00329426
-0.150554
-0.120234
0.0323591
-0.0445856
0.0122266
0.0203287
0.0016492
-0.166492
0.0105945
0.0676471
-0.0178783
-0.181866
0.0462912
-0.14636
0.227271
-0.0809115
-0.0138655
-0.00586614
-0.10977
0.122053
-0.00781058
0.0470303
-0.237781
0.190751
-0.148985
-0.0175064
-0.0261796
-0.166932
0.0015866
-0.103159
-0.165229
0.375974
-0.19092
-0.185054
0.183325
-0.027619
0.202693
0.00128067
0.00798854
-0.00926922
0.120063
0.00888864
0.261043
-0.162219
-0.0988239
0.175328
-0.393524
-0.0763482
-0.112539
0.188887
-0.0253444
-0.132381
0.0236214
-0.00329264
0.182623
-0.313765
0.131143
0.19874
-0.431962
0.233222
0.0115573
-0.010328
-0.297662
0.132478
0.165184
0.00827996
0.100969
-0.109249
0.0356386
0.0389787
-0.0746173
0.145484
-0.0474963
-0.000443688
-0.00122432
-0.343886
0.183594
0.00857854
-0.0625585
-0.278462
-0.131396
0.00492097
-0.0123978
0.0447569
-0.105119
-0.157484
-0.0010901
0.158574
-0.19293
-0.219076
0.412006
-0.116551
-0.0148449
0.127185
-0.00945075
0.00974738
-0.000296636
0.00717633
0.00281462
-0.0475844
-0.0313661
0.0789505
0.0599467
0.0254837
-0.0854304
-0.131966
0.156228
-0.0242611
0.0966981
0.145612
-0.24231
-0.144026
-0.0416502
0.185677
-0.00039574
0.0109562
-0.0105604
0.0129826
-0.0081638
-0.0048188
-0.196203
0.323533
-0.12733
0.0295268
-0.00448991
-0.0250369
0.0172488
0.423054
-0.224314
0.0226305
0.091243
-0.11829
0.0270466
-0.0927306
0.0134709
0.152198
-0.000348854
0.0110372
-0.0119575
-0.00352416
0.0154816
-0.0125016
0.00327284
0.00922878
-0.000772206
-0.0025845
0.00335671
0.0138467
0.00173829
-0.0155849
0.00919423
-0.00947141
-0.149681
0.0177149
-0.51369
0.219967
0.293723
0.0572649
0.0877701
-0.145035
0.134203
-0.155735
0.149738
0.146268
-0.296006
0.109657
-0.23219
-0.00848841
0.00132201
0.00716641
0.191465
0.132893
0.101252
-0.111829
-0.000621838
-0.00860625
0.00922809
0.0428059
-0.0552037
-0.00738162
0.000204324
0.0071773
0.0838406
-0.0861421
0.0144422
-0.0695435
-0.105281
-0.00140332
0.106684
-0.125398
0.000954185
0.124444
0.0281744
-0.478395
-0.00033694
-0.350713
0.334762
-0.0353012
0.0305276
0.025796
-0.0577126
0.0626656
0.366626
0.152943
-0.0224357
0.226688
-0.0545466
0.00798869
0.0465579
0.00977395
-0.00259762
-0.0458343
-0.0450805
-0.0437525
0.088833
0.21014
0.20083
-0.41097
0.0916908
0.0103411
0.000981779
-0.111017
-0.00151776
-0.00834456
0.00986232
0.419562
-0.209423
0.191491
0.184483
0.470182
-0.253119
-0.217063
0.0451861
-0.189213
0.139139
-0.019076
-0.155772
0.332968
-0.127929
-0.346774
0.125356
-0.0207966
0.14122
-0.295834
0.155264
0.14057
0.0295004
-0.100156
0.225415
-0.178384
-0.184419
0.15824
-0.111199
0.247672
-0.136473
0.319212
-0.127747
-0.145141
0.118377
0.0267639
-0.0740152
0.0351061
0.0389091
0.00262016
0.010856
-0.0124151
0.0181101
-0.0468016
0.0286915
-0.0262075
0.0154584
-0.105979
0.101469
-0.105253
0.116388
0.0888906
-0.0117207
-0.0771699
0.0117809
-0.0013624
-0.0104185
0.193599
-0.296758
0.427327
-0.445915
0.0185876
-0.353757
0.268233
0.0174826
0.0535259
-0.0710086
0.0987237
-0.0460155
-0.0157417
0.0617572
-0.0201509
0.138757
0.000943768
0.0112466
-0.00912631
0.00850447
-0.0466571
0.0724531
0.00587996
-0.0456783
0.00789576
0.00508684
0.166489
-0.191629
0.254441
-0.0628123
0.181003
0.167783
-0.348786
0.240058
0.236133
0.156894
-0.299982
0.143088
-0.00275529
0.0344694
-0.000154979
-0.0202458
0.126172
0.109884
-0.0186412
-0.00517756
0.00306294
0.00211461
0.00892278
-0.000347795
-0.172783
0.147438
-0.169584
-0.132545
-0.00186491
0.0550547
0.116723
-0.128833
-0.00557245
0.0399484
-0.0662679
0.077017
0.176115
-0.0139787
-0.162137
-0.0143339
0.00237648
-0.0167712
0.0120846
-0.0628845
0.0144744
-0.00541754
0.0212874
-0.128929
0.416198
-0.239737
-0.115402
-0.192919
0.116571
-0.00477233
0.00391626
0.000856064
0.0839678
-0.312976
0.250417
0.216499
-0.125675
-0.0908237
0.12287
0.107118
-0.298746
-0.00321964
-0.00155269
0.109828
0.168947
-0.278774
-0.0187665
-0.446836
0.217387
0.164733
0.00456433
0.0894841
0.138491
-0.0714153
0.20515
-0.00780285
0.00680366
0.000999197
0.480671
-0.268099
-0.212573
0.117106
-0.0173974
-0.0997086
-0.0141869
0.120829
-0.106642
-0.0685082
-0.13732
-0.140478
0.297372
-0.000498753
-0.00241654
0.157696
0.0538901
-0.136199
-0.0160445
-0.0670315
0.0507468
0.00765173
-0.202728
-0.172205
-0.000355512
0.00431386
-0.00395835
-0.149341
0.0897012
0.0596401
0.0914686
0.151993
-0.243461
-0.0860974
0.10842
-0.0223227
0.33603
-0.222723
-0.113307
-0.0686101
0.0985188
-0.0299087
0.127723
-0.223882
0.326557
-0.00884733
0.0212164
0.0912203
0.141424
-0.241521
0.100098
-0.00491588
0.00312861
0.00178728
0.00258635
0.00247485
0.129469
-0.134923
0.268307
-0.133384
0.15254
-0.180577
0.0280376
-0.168486
-0.11512
0.105806
-0.213856
-0.0252291
-0.0488021
-0.406005
-0.172977
-0.204831
-0.281756
-0.0600663
0.0680715
-0.00800518
0.0908545
0.00694018
-0.0613575
0.167589
-0.106231
0.0147962
-0.000949549
0.142247
0.00894098
0.099945
-0.00449031
-0.00392958
0.251594
-0.11017
-0.406425
0.36818
0.0382451
-0.104858
-0.0113301
-0.0968484
-0.0124289
0.00675938
0.00566951
-0.0205684
0.0112928
0.00927554
0.108132
-0.0192418
-0.0888902
-0.34626
0.159506
0.186754
0.117319
-0.111445
-0.00587338
-0.00156729
0.0105105
-0.164276
-0.159461
-0.0038273
0.00278246
0.00104484
-0.0033051
-0.00766548
0.000283854
-0.159917
-0.143048
0.526384
-0.302584
-0.223801
0.00758077
0.138202
-0.0291234
-0.109078
-0.362683
0.496047
-0.133364
-0.215189
0.0589216
-0.157086
-0.112156
0.269242
0.110489
-0.180509
0.133186
0.0473231
-0.30109
0.178693
0.122396
-0.00948
-0.000493909
0.472027
-0.0336671
0.271684
0.2547
-0.00834686
0.0164358
-0.00808891
-0.102889
-0.0467925
0.00831647
-0.00910023
0.126751
-0.306186
-0.0933548
0.0457704
0.0168847
-0.131717
0.114833
0.382535
-0.213351
-0.169184
0.10218
-0.0978646
0.157899
-0.303223
-0.00761973
0.00295437
-0.00330989
0.286819
-0.120063
-0.166756
0.00137506
0.00828921
-0.00966428
0.140961
0.211362
-0.352324
-0.20944
-0.13682
-0.000670463
0.336675
-0.148455
-0.18822
0.0086881
-0.0086881
-0.15373
-0.00375397
-0.380064
-0.0263616
-0.00144981
-0.000906276
0.00235609
-0.216916
0.397745
0.0111011
-0.0797112
-0.517985
0.291033
0.226953
-0.134646
0.240599
-0.105954
0.443925
-0.440166
-0.00375858
-0.138228
0.0768705
-0.287775
-0.23021
-0.351382
0.211779
0.139603
0.210533
0.231303
-0.216564
0.360018
-0.143455
-0.140106
0.282415
0.0017841
0.214261
-0.383444
0.169183
0.00983126
-0.00964655
-0.000184711
-0.000675289
-0.159166
0.268994
0.0016356
-0.157614
-0.20027
-0.234474
0.434744
-0.00252004
0.00326621
-0.00231949
0.000857003
0.0827312
-0.0477659
-0.0349654
-0.00228992
0.010169
-0.00787909
0.128826
-0.138669
0.00984268
0.209903
-0.17238
0.0988103
0.0735693
-0.160189
-0.144027
0.0933768
0.0601542
0.326679
-0.1935
0.162257
-0.136823
0.0091038
0.00711755
-0.162639
-0.205465
0.155081
-0.221709
0.0216398
0.200069
-0.0591101
0.0130946
-0.00955006
0.00930783
0.000242232
-0.0931791
-0.0561622
-0.0276413
0.0232659
-0.0178015
-0.0898088
0.10761
0.10834
-0.0928093
-0.0155311
-0.00784563
-0.0625909
0.0312247
0.00656215
0.0046187
-0.0111809
-0.00717719
0.00951606
-0.00233887
-0.139857
-0.00915278
0.14901
0.00171019
-0.011703
-0.000104549
-0.081407
-0.0909726
-0.149173
-0.148489
-0.308469
0.399503
-0.0335966
-0.0404186
-0.0323849
-0.189324
0.0563432
0.020236
-0.00380427
0.150364
-0.00811716
0.0808657
0.0478075
-0.128673
-0.143005
0.324008
0.0367011
-0.021621
-0.00105595
0.0012421
-0.000186148
-0.00855371
-0.0910522
0.00207338
0.00970756
-0.290998
0.141511
-0.114044
-0.145618
0.00579543
-0.00675353
0.000958102
-0.214707
0.373104
-0.158397
-0.358665
0.141118
0.00101199
0.00924422
-0.124949
-0.0751095
0.200058
-0.0197121
0.076113
0.00595918
-0.00810135
0.00214217
0.00103505
0.0159006
0.0654354
-0.190384
0.330909
-0.481522
-0.0113188
0.0124499
-0.00113108
-0.136593
0.131175
0.00541756
0.0110917
0.0760517
-0.0871434
-0.352145
-0.0780116
0.0785689
-0.000557243
-0.0477053
-0.0461899
0.0938952
-0.000267347
0.0529684
0.272908
-0.325876