/*--------------------------------*- C++ -*----------------------------------*\
| =========                 |                                                 |
| \\      /  F ield         | OpenFOAM: The Open Source CFD Toolbox           |
|  \\    /   O peration     | Version:  v2012                                 |
|   \\  /    A nd           | Website:  www.openfoam.com                      |
|    \\/     M anipulation  |                                                 |
\*---------------------------------------------------------------------------*/
FoamFile
{
    version     2.0;
    format      ascii;
    class       volScalarField;
    location    "100";
    object      ddt0(omega);
}
// * * * * * * * * * * * * * * * * * * * * * * * * * * * * * * * * * * * * * //

dimensions      [0 0 -2 0 0 0 0];


internalField   nonuniform List<scalar> 
18758
(
-0.295243
0.846719
7.87094e-08
-0.40249
0.130746
0.701868
0.113376
2.83285e-07
-0.530972
0.00495861
-9.0524e-05
-0.648868
3.63768e-07
-0.046699
-2.23128e-05
-1.27568
0.000559335
-6.24227e-07
-3.64629e-05
0.00333306
-0.680863
-8.07002e-08
-0.155458
-0.889096
-2.7132
4.5347e-07
-3.25703
0.248963
0.00779207
3.47413
0.000212992
-0.12602
-2.17608e-08
2.06673e-06
-0.0250632
4.77281e-07
-1.19069e-08
-7.60809e-05
-8.56874e-05
-0.000953663
-8.34455e-05
-0.000605774
-2.15178e-06
0.00220782
-0.870904
-1.57889e-07
-0.120633
0.000284644
0.00452178
-1.55545e-06
-0.168694
-0.251453
-1.22876e-06
2.6526e-05
0.188519
1.07416
-1.43706e-08
-0.593554
1.27241e-05
0.0121112
-0.285749
0.099635
-0.117674
0.000225014
-1.2169e-06
-1.38344e-06
-0.00303748
-2.81273e-08
0.000103216
-0.26381
-0.24357
-8.26389e-06
-1.23624e-06
2.32748
-2.98101e-08
2.35298e-05
0.359508
0.0264192
0.0738521
-0.0996704
-0.311943
-6.16775
0.00782539
0.703549
0.394909
0.000440679
-0.92223
-0.032798
0.0256314
3.10885e-07
0.627296
1.11e-05
-0.777967
-0.000739542
-0.186069
-0.556251
0.243481
7.02389e-07
4.83171e-06
-0.457961
0.000677055
0.464274
0.0179956
-0.0109439
-0.0580707
0.799585
0.0312014
0.0570036
-7.56228e-05
6.9593e-05
-0.397607
3.5485
5.15767e-07
-3.16021e-05
0.181421
0.340034
-0.157173
-5.52955e-05
-0.38601
-0.116841
0.000577948
-5.87286e-06
-0.608718
0.997269
-0.359568
-1.55188
0.842596
-1.25366
-0.780407
3.48692e-06
-0.000295456
-1.96375
-2.0749
0.0144687
20.7975
0.000573919
0.260583
0.00297518
5.83145e-06
-0.0296088
0.0142035
-1.40858
2.58894e-05
1.88703
-0.000109998
2.85678e-05
-0.693519
-0.234925
-0.00465782
0.19671
2.85062
-1.37468
0.00261215
-2.33628e-07
-0.060456
0.000450908
-0.277248
-0.000455107
1.33039e-05
-9.46919e-08
-1.50481e-06
-0.0421033
0.866164
3.39018e-05
-0.0614774
0.00248582
4.36871e-05
-0.259855
-0.379908
0.73399
0.144111
-1.08174e-06
0.533028
0.216881
-0.0365425
-0.983219
0.040514
7.52115e-05
-0.025471
-4.11301e-05
3.66421e-07
1.43502
-1.83804
-5.73167e-06
-0.000368864
2.56423
-1.58658e-06
0.159177
-3.83208e-06
-5.63959e-06
0.0258512
-0.639545
2.23449e-05
-0.00257617
0.0033517
0.00347007
-0.00080784
0.404452
1.3844e-07
-3.49919e-06
-0.00670996
-0.000932398
-0.0107486
0.0279866
2.43694e-07
0.0026335
-0.00943237
-1.72088e-07
-0.600477
-0.000143033
-5.66082e-07
-0.0229739
4.79639e-05
-0.000603418
0.0207105
-0.498667
-0.0622783
-0.0849492
-8.93386e-07
0.658935
-7.18848e-07
-6.49175e-05
0.0448805
-0.499841
0.235625
0.00515076
0.00269084
0.0160448
-1.67485e-06
-0.039232
-2.31469e-06
0.027947
-0.118248
-0.0966185
2.55079e-07
-1.39395e-06
-2.48708e-06
-5.29142e-09
-0.601988
-0.00202142
4.43067e-06
1.39609
0.0515287
-2.58661e-05
0.148523
1.39072
-0.369482
2.87098e-07
-0.241616
-3.75043e-05
6.07636e-07
-0.335543
-0.00134415
0.000691211
7.58982e-05
0.00387686
0.802439
0.425516
-0.00593294
0.0489103
-2.49848e-06
-0.0129751
-3.15317e-07
0.024538
-0.00964143
0.0713631
0.416205
-3.39554e-07
-7.80971e-05
1.88629
-9.60614e-05
-0.000212652
-0.00153822
0.0120811
-0.0750383
4.66238e-06
-0.181575
0.665819
-5.68138
-6.32487e-05
-2.09985e-06
0.00104893
-0.00161128
2.12398e-05
-1.65154
-0.150788
0.208926
-1.18176
-0.166521
-3.36256e-06
1.58181e-07
-0.0277002
-0.556179
-0.00127988
0.0522397
-0.0284582
-0.00468619
-0.186647
1.00431e-05
0.810533
0.729175
7.70517e-08
-0.441558
-0.00434701
3.841e-06
0.00369681
0.00408279
2.26886e-05
2.74192e-07
0.323119
0.282708
-4.8162e-06
0.130831
-0.142154
-0.0263051
-7.98996e-07
1.97198e-06
0.0187978
-2.64937e-05
-5.7495e-06
-2.02035e-05
-0.000403329
-0.470793
0.00546568
-0.0012126
-8.02741e-05
-0.000165452
-0.00379831
2.07744e-06
-5.70341e-08
-1.28038
-0.0350627
-0.30189
-0.514396
-0.000834401
-2.10817e-05
6.30362e-06
0.769776
-0.438604
-1.80975e-06
-4.40901e-07
-2.23291e-06
0.000135574
-0.0140721
-1.34334
7.39296e-07
2.21281e-05
-1.99953e-06
-3.35061
-0.18057
0.0487228
-0.152984
-7.65307e-05
0.104082
-0.127922
0.006705
-0.00132461
-0.675812
-0.469046
-2.86333
2.74458e-07
9.98778e-05
1.53154
0.038681
0.0021645
-2.8222e-06
-0.0120759
-9.59982e-05
0.00123582
0.26589
-1.72763
-0.0489068
-0.00175732
0.285964
5.94642e-06
-0.000698087
9.7532e-06
-1.21187e-05
-0.0263195
-5.56272e-05
0.123948
0.0631007
3.71787e-05
-2.52726e-06
0.000397908
-0.0466725
-1.00299
1.21516e-05
-0.00364428
-1.18492e-05
0.00127276
-5.23659e-06
7.55632e-07
-0.237676
-0.492426
10.5849
-1.14628
1.35664e-06
-0.422216
-0.249142
0.00608682
4.57904e-07
-0.438369
-5.77528e-06
9.45467e-06
6.41494e-07
-0.0306241
-5.6765e-06
0.00136107
-0.044556
-0.509966
-1.41864e-05
0.0736076
0.00341238
-8.6782e-07
6.5922e-06
2.74746e-05
-5.7135e-07
-0.00291672
0.00312934
0.018432
2.722
0.0010161
-5.5506e-07
2.40325
0.0804344
-0.270659
0.136644
0.00878266
7.61318e-05
9.66471e-07
3.67337e-06
-8.76573e-05
-0.0232745
0.00151009
-0.000226675
0.00354072
0.00284885
-1.50584
0.0160891
1.67065e-05
0.00230807
0.0208258
0.000188584
-1.92927
4.29404e-06
9.1959e-08
-0.873822
-6.20253e-05
6.32447e-05
0.940809
-0.02028
-0.00194052
-0.622494
1.98425e-05
-9.51089e-05
-1.15365
-0.477338
0.00571262
0.0107446
-0.0785384
-1.16481
0.900404
-0.00683448
3.17598e-05
0.184543
-3.26527e-05
-0.0131307
-0.000351415
-0.733696
-0.00276759
1.07021
3.19583e-05
-0.0065844
-7.58427e-08
-0.296976
-1.22571e-06
-0.596438
2.41952e-06
-0.0610097
8.12104e-07
0.2324
0.00111908
1.8426e-07
5.85333e-06
7.34018e-07
0.106708
-0.546517
0.148072
0.00112632
-6.31344e-05
-0.0173435
-1.3563e-07
-6.89506e-08
-0.227072
8.14472e-06
6.98413e-08
0.0282056
3.0231e-07
0.0377735
-0.0393888
1.48238e-07
-7.25683e-06
-3.85781e-06
7.13893e-05
0.00176621
0.121279
0.000302401
0.000564464
0.001649
-4.76096e-07
20.5391
-0.000313434
5.3773e-05
-11.1561
0.305998
-0.0102715
0.0989288
0.00185061
-2.84764e-06
-0.0227668
2.00827e-05
-0.163191
-0.453511
6.95995e-07
0.168707
0.0419692
-0.00781171
1.43354e-06
0.0110349
-0.350318
-7.911e-05
-9.2679e-05
1.46262e-05
4.47227e-05
3.63121e-05
-2.08117e-07
-5.19193e-08
-0.529982
-0.000100789
-0.0147161
-5.51837e-06
-0.0420005
-0.730848
-6.95795e-07
-4.99035e-06
0.000284651
2.89921e-07
6.81931e-06
0.000183589
-2.22252e-05
-0.0456163
-1.66484
-1.09322e-06
-0.325994
0.0491615
-0.00447741
0.293122
0.334197
0.000647913
0.000413155
-0.000535599
-0.226724
5.60296e-05
-0.00130925
2.09379e-05
-0.722231
-0.00457143
-0.104506
0.066769
0.11201
7.19331e-05
4.02449e-07
0.00953346
0.497873
-7.14494e-05
0.0445331
2.585e-05
0.0927241
3.37766e-05
-2.087e-05
6.79314e-07
1.9957e-07
0.0178235
0.10605
7.7555e-06
0.453668
0.00144981
-0.367273
-0.37254
0.126567
-0.0236115
-5.98745e-06
0.351192
-0.00383145
-1.95788e-05
-0.00536349
-0.254243
-1.6093
1.39138e-06
-0.000292014
-2.0221e-05
-5.04854e-07
-0.0972027
0.0142859
0.179428
-0.252961
1.36768e-05
3.10682e-07
-0.00540481
-1.31591e-07
-3.90932e-06
-0.000755826
0.00012306
-0.083807
-0.00443211
0.225289
0.0294655
-0.00804842
9.31984e-07
0.000817652
0.226192
-0.12093
-4.93254e-05
-1.69353
-0.00974036
5.89126e-06
0.853649
-0.0274405
4.60072e-05
-2.77405e-06
0.159858
0.565623
0.617441
2.18684e-07
-0.705297
-1.36342
1.22478
-2.4509e-06
0.0520693
0.175558
1.37592
-1.58574e-05
1.9392e-09
0.124664
-1.77739e-08
0.543615
-0.150147
-0.184112
0.10433
-0.0057545
-0.277503
0.00576336
2.85163e-05
9.38879e-06
0.114105
-0.223509
0.217445
-1.8012
-3.2522e-05
0.357873
-9.67234e-08
-7.87441e-06
0.00267754
-0.0505549
1.95603e-07
-0.000533725
-0.248351
-0.326308
0.110395
0.229049
0.00869257
0.00349641
-0.445129
-2.34809e-05
-1.05661e-05
-4.88439e-06
0.000181715
-0.00205979
-4.89544e-07
0.00322359
-2.41494e-06
1.83456e-06
-6.35727e-07
0.162355
7.21637e-05
-4.60152e-08
-0.0035472
-7.93471e-05
-1.34745e-06
-0.20729
-1.14064e-05
5.3198e-06
-6.13229e-05
0.00285002
5.04313e-05
-0.000216688
0.67765
0.00438349
0.00187732
0.00701851
-0.00334753
-0.274828
0.00364732
-0.0100532
-0.980188
-0.158811
-2.34764e-06
-0.249127
-0.478511
2.34539e-07
-0.331785
1.85861e-06
-7.33112e-07
0.00422151
-4.11734e-07
0.191685
-0.154946
-2.11881e-06
-0.945215
-3.36197e-06
-0.0019262
-0.188933
-9.86617e-07
0.458643
0.000408689
-3.60405e-05
-1.66854e-06
-4.63705e-06
-0.0567127
0.0324539
0.28814
-0.0248706
0.703968
-0.00682982
-3.19626e-07
-0.15787
0.228719
1.18901
-0.0191008
-0.062403
-0.0101536
0.000393276
-0.361424
-4.61564e-05
9.92717
2.48296e-07
0.0519332
4.55191e-05
0.0255034
-0.000624839
4.10396e-05
-0.129254
0.00012988
4.46242e-06
2.09199
-0.000968457
-5.67727e-07
0.00100946
0.0242478
-0.0444422
-0.279628
0.107874
0.0186853
3.73208e-07
-7.65128e-08
-0.476784
-1.35192e-06
0.949878
-0.0171622
-0.000104306
2.74625e-07
0.00303511
-2.16764e-07
4.91645e-05
0.000303668
1.92702
0.27504
0.222547
-0.0333298
6.09635e-07
0.00440739
0.0255447
2.85119e-07
0.00123992
8.50964e-05
-0.192613
0.0002317
-0.27241
2.33247e-07
-1.39125
-1.72554e-08
-0.0219466
4.43944e-05
0.000250607
0.000306172
-1.1538e-06
1.60471e-06
-1.14942e-06
0.108356
0.624077
-0.00234357
0.561735
1.59908e-05
0.000554695
0.000754078
-0.104101
-0.17995
-0.00461851
-1.54058e-06
0.305744
-7.68511e-07
-8.50942e-06
0.000711829
0.0357792
-0.2148
-0.834575
-0.0681122
0.0458762
0.000284375
8.42133e-06
13.7304
-9.70005e-07
0.746908
-3.12295e-05
1.29364e-07
0.208171
0.448265
1.67309e-08
0.153941
0.00430863
-0.0335997
-0.0437484
0.101882
0.532802
-0.337434
1.73045e-07
4.09836e-07
-0.00163249
1.55834e-05
9.22938e-05
-0.000147995
1.9999e-05
0.0647315
0.601501
-0.00992927
0.485816
0.00441842
-0.0281397
0.000128407
-3.7201e-07
-1.12261e-06
4.89115e-07
0.0237696
-0.277045
-0.203513
4.54741e-08
-1.47201e-06
0.000221367
-1.04131e-05
0.00329025
-0.000324913
-5.08158
-0.15097
-0.00441343
0.416798
-0.435491
-6.37508e-06
-0.331182
-9.72331e-08
-0.146216
-0.708926
-0.200537
-0.106885
0.000153496
0.000266448
-5.40342
0.464862
-0.275981
0.002655
0.331042
0.0233691
2.80865e-07
-0.582295
-0.145019
0.0218972
3.03528e-07
2.49733e-05
-0.00988224
-0.279278
-16.3382
-0.144714
-1.21917e-06
1.58712e-05
0.000405052
-6.01038
2.55025e-05
-1.52748
-1.27269e-06
-0.000350059
0.119068
1.03323e-06
-7.731e-07
-0.000162305
-0.00668859
-3.39609e-07
4.73557e-05
-2.51811e-06
0.116734
0.424893
-0.135041
-4.2856e-06
0.00113548
8.55052e-09
-0.0557107
-0.20818
-0.0114476
-2.16949e-06
-2.44576e-05
0.291543
0.0450694
0.000239391
-0.264989
0.05107
1.04718e-05
6.61082e-06
-0.22406
0.00694718
0.00063443
-9.04902e-07
0.344664
3.42736e-07
-0.00041891
-3.60932e-06
1.14241
-0.118107
-3.69384e-07
3.23093e-05
-1.32593
4.28488e-06
0.123478
0.245154
-0.000144915
-2.05575e-05
3.39217e-07
-3.98893e-06
2.14884e-07
1.4001
0.0508106
-0.363804
0.00018578
-0.268248
3.14893e-06
3.78866e-06
0.074941
1.23755e-05
0.219292
-1.33901e-06
0.00187633
0.000502432
-1.41664e-06
-1.76142e-06
3.96348e-07
0.124491
9.9897e-05
9.19196e-08
0.0223096
-0.000963873
-3.77771e-07
-0.0029081
-0.0108751
2.19318e-07
-0.401573
-1.96095e-07
-0.00392414
-0.327603
-0.00627348
-9.80915e-07
0.0399581
-0.0160368
0.0074437
0.00219692
-0.0038092
-0.201793
0.000271921
0.000465025
-2.79946e-06
4.87431e-07
-9.44918e-07
-0.00698884
0.00408673
0.00177536
3.29992e-05
0.000635831
-0.00899085
0.20148
-0.0636332
-1.06988e-05
2.65249e-06
-0.000287107
-0.00167145
-1.13909e-06
0.270179
-3.48087e-06
1.41393e-05
1.48911e-06
-0.81092
0.48633
-5.41897e-09
-1.29864e-05
-8.51834e-07
-0.00840676
2.16296e-07
-4.30399e-06
-2.03
-4.55847e-08
-2.93642e-06
7.73329e-07
0.267796
4.97437e-07
2.01046e-05
-0.460764
1.9982
-1.73651
-0.0030387
0.474389
-0.0113482
-1.34542e-06
4.34363e-06
-0.543674
-4.80164e-06
-0.00247391
-0.0135714
0.00616107
-0.00194652
3.43859e-05
-0.00174197
0.000142858
-1.45225e-06
0.327226
-0.0905016
-0.00264626
5.51361e-07
0.0392618
-0.000158284
0.118089
-1.12741
-0.0175381
6.86598e-07
2.61816e-06
5.12618e-07
0.000400093
1.31965e-06
7.42955e-06
0.463384
-0.0685868
-0.00541628
-1.41683e-07
-0.0190114
-0.693224
6.95648e-07
-0.000759627
-0.00442414
-0.0857839
-0.00955826
2.67588e-05
0.000166841
0.00112429
-4.43409e-08
0.0259103
-3.12817e-05
12.0893
0.00809914
-0.0775164
-1.64571e-05
0.00236566
0.512035
-0.269092
0.598265
0.0256908
0.37135
1.03084e-06
-7.42717e-07
-0.000109055
0.0118512
2.7632e-07
0.000422248
0.000636206
-0.00285751
-3.62219e-07
-2.11042e-06
-1.73608e-05
-2.96664e-08
-0.135863
-1.78188
-0.431086
-1.55318e-06
0.29618
-0.000249675
4.63895e-08
-0.00161074
3.51335e-07
0.0253721
0.000106734
-5.13397e-06
0.0956
1.55651
0.378269
1.94924e-06
0.88409
-5.47802e-06
-0.231756
0.0932979
5.39269e-07
-0.000892298
0.489023
-1.27709e-06
-6.3317e-08
-1.08982
2.77737e-05
4.77283e-08
-0.250035
0.0213727
2.22614e-07
-0.0016024
1.44673e-07
-1.22911e-05
0.0602198
1.03584e-08
0.169286
-0.00109471
-1.37062e-06
0.892035
0.0564269
-0.0209659
-1.09817e-07
-0.229496
4.2013e-05
0.00107692
3.81975e-08
7.49079e-06
0.000377712
5.47435e-07
0.464408
-1.35667e-06
-0.00143983
-0.0237328
-0.317109
4.46468e-06
-2.93488e-05
-4.20464e-07
-0.000693878
0.00126782
0.00167403
-8.16219e-07
0.130949
1.95524e-06
-6.25037e-05
0.180231
-0.511558
-0.0176504
2.07551e-07
-1.54478
-0.0187518
2.34059e-05
0.000813214
-4.34966e-06
-8.99721e-06
-0.0242505
-1.37218e-06
8.90595e-06
-7.00366e-06
0.557132
3.87448e-06
-5.64745e-06
0.0999098
-0.000108489
-0.242103
0.000753317
-7.77755e-07
-6.68588e-07
0.0760089
0.000104823
-8.89979e-08
0.130694
-0.10268
5.38262e-07
-0.223915
-0.0731769
6.67665e-06
3.51645e-06
-0.732781
-1.55179e-07
0.37636
0.0042999
1.94796e-07
-0.673716
-0.634151
-0.288467
4.3349e-05
-0.0742602
-4.53015e-05
-0.609229
-1.9682
6.82178e-06
-0.145568
-2.30472e-07
-0.00570532
7.83091e-05
-0.346331
5.75986e-07
9.45e-06
0.292041
-1.24119e-07
-0.0010268
5.01621e-07
9.98163e-06
-0.0340984
0.020605
0.000528307
0.00155151
-0.801863
0.000125166
0.000270161
-0.00572372
-0.0321901
5.759e-05
-5.69513e-06
-8.93673e-06
6.00251e-07
-6.40757e-05
-1.32115e-07
-0.00353484
-0.00305944
2.36377
-3.32762e-07
1.64616
-2.57556e-05
0.000329062
-1.3795e-07
0.00483675
-3.96723e-06
-1.29051e-05
-0.31551
0.290101
0.000948451
1.09936e-06
1.36316
-0.00269367
0.0300865
0.000379546
0.00651638
-0.27979
0.124776
-0.33654
3.2638e-05
1.79514e-05
3.91149e-07
-0.285376
-1.44512e-05
-3.35293e-08
-0.0644482
-1.56891e-05
1.17679e-07
1.70704e-06
0.54825
-0.674081
4.08222e-07
0.0862617
-0.194373
-0.000112573
4.489e-08
2.43808e-05
-0.527838
-2.09531e-06
-0.00887321
-2.57623e-08
-3.87175e-07
4.95796e-05
2.65321e-06
-0.0176211
-7.61125e-05
3.67059e-05
-1.83574e-05
-5.73993e-07
-0.692308
-8.87153e-07
-1.12143e-05
4.64915e-05
-8.76923e-06
-0.347609
0.311759
-0.0304838
0.000243785
7.20032e-06
-6.64182e-08
-5.77066e-08
-0.247354
9.17735e-06
-0.00314114
-0.000483447
-0.241565
-8.26928e-07
-4.88334e-06
-0.108131
2.51561e-07
-0.115421
0.00165914
-3.13092e-05
0.181551
-0.450063
0.000732955
0.261787
0.00100734
0.0305313
-1.92668e-07
-1.15916
5.72156e-07
-3.6775
-3.76697e-07
-3.94288e-06
-0.742766
-10.7909
-0.186124
0.202008
-8.47767e-07
0.194494
2.27779e-07
0.387437
0.000410785
1.18832e-07
1.2816e-06
7.7337e-06
-0.0103534
-0.0333499
0.154504
0.00172304
5.06232e-06
-6.78657e-07
2.73781e-07
0.389972
-0.452296
-0.00601256
3.91403e-07
-2.24486e-06
-0.00192023
1.2429
-1.49448e-05
-0.00173373
0.00723741
5.75594e-06
7.67621e-07
-0.00104392
0.00699388
-0.150923
0.000689132
0.0619812
-2.09853e-06
-4.37385e-07
-0.0843769
0.00966042
0.0166741
-0.580873
-1.06515e-06
0.15546
-0.630858
-2.71455e-05
0.130001
-8.03129e-06
0.0074035
0.109677
0.0168416
-8.49423e-08
-0.284993
-0.0320213
-1.74551e-07
0.000959898
-0.204533
-3.12729e-05
-5.36342e-07
0.00137087
-2.40961e-08
-0.406441
0.000517836
-3.50641e-05
-8.28913e-08
4.36755e-07
-0.00620792
-0.00119709
0.165556
-0.0228902
-0.123412
0.0192737
-1.70756e-07
6.86565e-06
-1.27852
1.85195
-3.37312e-06
1.03279e-05
-0.162031
5.19262e-05
-0.187987
-0.0994646
-0.155314
-4.38173e-06
-6.93758e-07
0.479352
7.84806e-06
-0.159739
0.232108
-8.25418e-06
0.0894692
-0.00555437
-0.0516826
-2.95604e-06
-0.599469
5.60457e-07
3.30106
-1.17961e-06
0.000812364
6.70837e-05
4.96427e-08
0.0293589
-3.83499e-05
2.23106e-05
0.000269902
-0.265242
6.40816e-07
-8.09721e-07
0.115427
9.78016e-06
-1.11567e-06
7.71768e-07
0.000152959
-8.0905e-08
7.27676e-08
-0.00173964
2.18458e-07
-8.67895e-05
-2.4152e-06
-0.132894
-0.0688626
0.0724227
-0.295083
-0.000310672
0.000202753
4.76833e-07
-3.18275e-07
-4.76699e-05
-0.151933
-0.229071
-3.51725e-05
-1.24927e-08
-8.05474e-06
2.24501
-1.04281e-06
-0.583315
-1.14006
-0.510232
0.432803
-0.456505
-0.271045
2.83149e-06
-0.20169
-0.210593
0.310027
0.00452018
2.73524e-05
-0.00188637
-5.99426e-07
0.18291
-0.0547979
0.0125608
0.00139186
-0.194679
3.07415e-07
-3.12145e-08
-0.158089
0.0109839
-1.58912e-05
-1.18223e-06
-0.00237715
1.52486e-07
0.870275
-0.728853
0.143577
-0.274871
-0.0167251
-0.466528
8.87225e-06
0.859161
8.54674e-07
-5.75645e-07
-2.5411e-07
-0.0987786
-4.28538e-05
5.86716e-05
1.53723
-0.0904804
-0.0697648
0.0913577
0.000235862
0.00720773
-0.230098
0.45445
0.00573701
-0.13625
0.127957
0.452948
-0.542537
-1.84415
4.45803e-05
0.000601685
-1.71167e-07
0.00638022
-0.00120342
-3.95778e-07
0.0757995
-8.52596e-07
3.12541e-05
-4.61793e-07
0.280485
-0.000614723
2.13792e-07
1.02244e-05
-1.69322e-06
0.282108
-0.145456
0.444066
-3.98351e-05
-0.304563
-1.23572e-06
-7.1137e-06
-0.0166052
0.0169268
-1.08279e-06
-0.457209
0.00214344
0.0946982
-5.51918e-07
-0.603493
0.0138742
4.86922e-06
1.1625e-07
-3.75972e-06
0.0973783
0.216718
0.330046
1.614e-07
2.22238e-05
-1.15864e-06
0.0661179
-0.00240693
1.01361e-06
0.116378
-3.13386e-06
-1.71433e-05
-0.235776
-6.21122e-06
-1.04188e-06
9.86032e-07
4.24932e-06
-3.28929e-07
-1.30608e-05
-1.02026e-06
1.26428e-05
-0.0141874
0.000142617
-5.23094e-07
0.272979
-3.54984e-05
-0.0204387
0.446274
0.0382406
-0.253739
0.0838713
-5.99912e-05
0.00160235
5.75245e-07
-6.25556e-06
-0.824745
0.000861003
0.126475
-0.000530361
-0.0687427
2.74231e-05
0.000423561
-7.96558e-07
-0.530584
-0.00210014
-0.126915
1.37214e-05
-0.0344614
-0.000575154
1.40029e-07
0.000889479
0.000379782
-1.07849e-06
0.0158761
1.64279e-07
-0.00386034
1.1563e-06
0.000568005
0.000684206
0.244244
0.00568046
-0.0105067
3.83611
0.00020429
0.00243469
-1.60396e-07
0.223604
-0.00319443
-1.10781e-07
-0.0212613
-1.91873
-2.32823
-4.61322e-06
2.74743e-05
9.46473e-08
-2.30565e-06
-4.39313e-07
-0.222685
-0.000542148
6.67533e-07
-0.173017
9.32404e-07
-1.18504e-06
-0.00401617
-0.128146
-5.2993e-06
-0.539406
-0.152477
-0.0329893
-0.33457
5.06492e-05
0.0476883
-0.722983
-3.97775e-07
0.000107433
3.8972e-06
-1.88221e-05
-0.000732673
0.372991
-0.00462175
0.299262
0.345243
5.90305e-06
0.182941
1.75698e-07
-0.501766
-1.82648e-07
-1.08002
-0.268521
3.73653e-07
-1.35499e-06
-1.4332e-07
-2.19529e-05
0.00185483
-7.42476e-07
-1.99226
3.62038e-05
-0.00356108
-0.0241239
-0.000363331
1.21602e-06
-1.55214
6.0093e-06
-0.396993
0.00307459
0.528803
-3.31078e-10
1.24473e-06
-0.451298
1.62568e-07
8.69619e-07
-3.69984e-05
-0.00324355
0.00153075
0.852883
-0.0015489
2.22594e-06
-0.000133031
-6.35681e-05
0.000294847
0.388766
1.17169e-06
-0.0163353
0.0559796
0.340993
-3.33978e-06
-0.0088954
-1.52138e-07
-1.48579e-07
-0.717748
0.0727122
-0.0508991
2.39708e-09
-2.74067e-06
0.000997256
-0.0198096
-2.72238e-05
0.000398533
3.00147e-06
6.04796e-06
-5.7767e-07
1.89036e-05
-0.5258
-1.22471e-06
-0.126576
0.110745
-0.000948281
3.57405e-07
-0.0337056
-0.348801
-6.94698e-07
-4.06061e-06
0.204341
-1.78466e-05
-0.0282671
1.16819
1.6516
-4.74951e-06
2.4553e-05
-0.00820078
-3.85116e-06
0.646393
0.0375914
-4.71605e-05
-0.00216842
-0.00429007
5.12726e-07
0.867428
8.63552e-07
0.0235332
0.000214718
-0.00027606
-1.17353e-06
1.43352e-05
0.531678
-2.10919e-05
0.239813
0.0139758
1.12894e-06
7.55487e-06
-3.13184e-07
-2.68242e-06
0.235382
4.31492e-09
-0.193828
-1.38354e-06
6.04252e-07
-0.00462518
-0.305393
5.89331e-07
-1.28109e-06
2.24029e-06
8.20022e-05
-0.000926069
-0.00123487
-1.43329
-0.000411605
-2.65377e-07
-0.0349021
0.416025
6.37127e-05
-7.66219e-05
-0.22151
-0.000511435
1.56806e-05
0.614783
2.72324e-08
-0.429897
-0.00227668
6.02448e-07
-0.00701067
-6.87179e-05
-3.92222e-06
-6.67706e-05
-0.360429
1.60185e-05
-0.376953
0.383723
0.48307
0.000232327
-2.5349e-08
-0.0885365
-4.94845e-08
0.96627
5.6584e-06
0.37867
0.000571986
0.000415796
7.10267e-05
-1.36725
0.00072066
-2.37168e-09
-0.0733956
-0.312298
-1.2713e-06
-0.239618
-7.89353e-08
-0.00133388
8.02835e-06
1.07682
-3.23504
9.5299e-05
2.41812e-05
-0.425874
0.323835
-2.57664e-07
-0.000871697
-1.22636e-07
1.63925e-07
-1.40373e-06
0.000710373
0.155069
2.21672
-8.32774e-05
0.78313
9.15352e-05
0.0104725
3.15162e-07
0.936295
0.114103
0.320412
-6.45639e-06
0.444059
0.0891096
0.000128598
-0.000821616
-1.47412e-06
-0.00438723
-0.23973
4.38272e-06
-1.14276e-06
3.9192e-06
9.32174e-05
-1.29952e-06
-3.96901e-06
-0.771967
-0.000264413
-0.907668
1.31046e-05
-6.82042e-07
3.89326e-06
5.94304e-07
0.190998
0.0895678
5.7841e-08
0.000408054
-1.17475e-06
0.131218
-6.7025e-05
-0.000200576
-0.380351
6.2631
0.000145639
-1.23561
0.125846
-2.75566e-07
0.0417051
-2.15361e-06
-0.00225151
-7.49586e-09
-2.14142e-06
0.13496
0.058905
-0.264318
-0.0034304
-0.00234616
0.353656
1.16143e-05
0.00136286
1.80295e-05
0.268642
-0.434039
-1.49181
-5.95349e-06
-9.82774e-07
-0.492483
0.115918
9.00228e-07
-0.0321185
9.77657e-07
0.000537751
-9.30031e-07
-7.38359e-05
-2.9277e-05
6.26104e-05
-0.253748
-0.00339799
-0.000686324
-3.78983e-07
-3.68832e-07
-3.26575e-08
-7.87461e-08
-6.65489e-08
-1.09635e-08
-3.16296e-06
-0.237757
-0.241903
0.142304
1.52281e-05
-0.487677
0.005178
0.74087
-0.275503
0.00594184
2.32155e-07
3.17643e-05
0.393831
-0.000111942
0.117247
-0.720174
-3.55818e-05
5.69254e-07
0.000867943
-0.0930902
-1.77821e-06
-0.0595508
2.42041e-05
4.02466e-07
0.70181
2.98922e-06
0.000521314
-6.89342e-08
-0.175707
-1.10021e-06
-2.7209e-06
-0.281833
-9.85209e-07
-2.0427e-07
-2.29655e-05
9.52746e-07
-0.000628197
1.03866e-05
0.988778
5.33976e-07
-6.62396e-08
-7.45418e-07
0.193382
0.00757574
-1.35255e-05
0.299552
4.26345e-07
-2.60815e-06
0.0470694
-0.293273
2.15991e-05
0.467329
0.0699895
0.000830929
-0.253446
3.13002e-07
-8.52574e-05
-0.00225662
1.08614e-06
-0.220507
-0.119621
-5.59734e-07
-9.97979e-05
-5.33736e-06
0.271866
-1.45901
0.000459017
1.0532e-06
0.445883
-0.000736427
0.000762483
0.000999975
5.34394e-07
3.28449e-05
8.03862e-06
3.86301e-06
0.148296
2.56016e-07
4.7051e-06
-0.0014078
1.54111
-0.00257947
0.18767
2.94762e-07
-0.00227561
5.39125e-05
-6.46209e-05
-2.58531e-06
3.56382e-06
7.66572e-07
-6.29386e-06
1.13828e-06
7.43463e-08
-1.83536e-05
3.4647e-05
-5.42648e-05
-1.84753e-07
0.326946
0.511386
-7.65601e-06
0.000120567
-0.43875
-3.18544e-08
0.0619511
-0.12072
2.01352
0.761514
-0.629025
0.744853
10.4033
-0.0652222
-4.67765e-06
-0.00149869
6.02577e-06
-0.00993917
-0.00035515
-7.67793e-08
-2.56313e-06
-0.0410284
-1.27125e-06
-2.80452e-05
-0.215935
-4.42006e-06
3.86061e-06
-0.00143283
2.52821e-07
6.08793e-06
1.21831e-06
8.10192e-05
0.0158777
0.293468
1.12162e-07
-6.38422e-07
9.75089e-08
0.000142708
-0.00634379
0.000124988
0.297839
0.233464
-3.27461e-08
0.117024
-0.000497836
-2.31332e-07
-0.22892
-3.83728e-06
-0.00465296
7.76886e-07
8.96861e-06
-4.13052e-05
0.156992
1.68501e-05
-9.80287e-07
9.70109e-05
-3.3768e-07
-0.00126156
5.62737e-07
-1.81006
0.00259734
-0.0221735
2.62044
0.504658
-0.00781269
0.000712138
-0.0514233
1.49591e-05
5.10547e-06
-7.45318e-05
-0.146658
-0.00676099
-0.00849386
-0.423751
-5.86548e-07
-0.409221
0.209026
-0.434525
3.59016e-07
-0.00103142
-1.21881e-06
-0.0614806
8.03005e-05
0.83164
0.483995
9.06008e-07
-0.000409457
0.00231976
9.29615e-05
1.6851
1.20498e-06
0.000643211
0.15479
-0.0246751
4.84916e-07
-6.45779e-08
-1.89695e-08
0.00637402
1.25171e-08
3.47801e-05
1.43562e-06
2.32977e-07
-4.5993e-06
-0.0152514
-1.10863e-06
1.2891
-0.255502
9.84793e-05
3.05678e-06
-1.6496e-06
-0.000119571
-0.00238067
9.00086e-07
-0.192509
0.018433
3.1308e-06
-4.38726e-07
0.0950662
-0.258701
7.38465e-08
-0.305088
1.50022e-05
-9.12513e-07
0.187259
4.42899e-06
-0.0144846
-6.47964e-08
1.7859
0.370452
-1.11161e-08
0.000579048
-0.218314
-0.00387766
-0.551025
-1.71007e-07
0.00368415
-0.20304
0.164696
-0.000218561
-0.000839764
-0.000104382
0.000495735
3.24926e-05
-0.441072
-0.255081
-0.403005
9.89057e-05
1.4683e-05
-0.00485127
1.36889e-05
-0.32725
-0.000199052
-0.719844
-2.0314e-06
4.82725e-08
-4.20602e-06
-6.98872e-05
-1.88636e-07
-0.00740821
0.160555
0.00277047
-6.43223e-07
3.42876e-07
0.440608
0.00053172
0.0009236
4.70632e-08
0.000331802
-0.205635
9.65483e-07
7.97649e-05
0.000365627
-0.0136151
4.4727e-07
0.00183729
-0.000102084
0.000811155
-0.0327738
-0.00168908
0.217333
-1.27463
0.0270934
0.180234
-3.77582e-07
-2.00251e-06
0.000121123
0.612811
-1.72867e-05
-0.838647
1.95402e-07
-0.194334
-0.00253065
8.76884e-08
-0.000884794
5.78753e-05
-0.202294
-0.0039866
0.00221176
-0.36285
0.0257475
3.3477e-07
-7.73866e-08
-1.63027e-07
2.48046e-05
-0.265644
-0.00138373
1.06764e-06
0.46397
1.9174e-05
0.645599
1.34594e-06
0.442896
-0.000570543
0.599073
0.717579
0.0549562
-1.99768e-06
-5.39736e-08
-5.12541e-07
0.430749
-6.86187e-07
-0.00236926
-0.668103
-1.1569e-06
-0.681515
0.00137292
-6.86726e-06
0.00473335
-1.75866e-06
1.43194e-05
0.111434
0.112529
-0.367859
5.3929e-06
2.53351e-06
0.000164901
-0.000112532
-4.37631e-05
8.89664e-05
0.971285
0.0106015
0.563572
-4.04096e-05
-0.0176082
1.15869
-2.15712
-0.00164281
3.44114e-06
0.17751
4.17907e-05
-0.242813
7.40886e-06
2.86474e-07
2.69087e-07
3.04473e-06
-1.11472e-06
2.31355e-05
6.80777e-07
0.00253599
0.135289
0.000915831
-0.224774
0.00389855
-6.08599e-08
5.23133e-07
0.167847
-1.77658e-07
1.98651e-05
1.71159e-07
0.0974959
0.0467108
5.83019e-07
-0.000106204
2.31102e-06
-3.45617e-06
-4.31261e-08
1.2753e-06
6.03767e-06
1.10123
7.29662e-05
3.15967e-06
0.0441325
4.78867e-07
0.110428
0.0064729
-0.00592815
-0.157258
2.41354e-05
2.86057e-07
-0.450733
-1.57637e-06
-0.0164753
-0.000288454
7.59378e-06
-0.0102501
5.1436e-07
0.443002
-9.65099e-07
-1.9439e-05
0.110789
-0.00455085
0.397241
5.0945e-07
-0.0276181
-0.234409
0.00484195
-0.473807
-3.22492e-07
-8.67223e-06
-8.83336e-07
-0.0659813
-0.000584085
1.69558
-2.00074e-06
-0.000717264
-0.193099
-0.329813
-1.33911e-06
0.921535
0.000671777
-0.320361
-0.000203534
6.0401e-05
0.000202935
0.0971398
-2.23632e-06
-2.05271e-05
0.0941904
-2.04522e-06
-0.000434697
3.71292e-06
-0.0106932
-0.22521
0.0470942
2.04507e-05
0.0074754
-1.53138e-06
0.420045
8.14152e-09
-1.9598e-05
-0.0157765
1.24993
0.0145063
-2.6797e-06
0.000103821
0.0833198
0.00920176
0.0129113
0.614158
-5.20184e-08
1.99136
2.14762e-06
-0.371812
1.13638e-05
0.000576028
0.00185678
-0.000366101
-3.02553e-07
-0.41309
-0.254508
0.284252
-1.15149e-07
-0.440212
-0.585164
-3.93688e-06
-0.178738
-0.550276
-1.47142e-08
-4.05335e-05
0.116638
-8.96032e-07
6.61499e-05
-2.52673e-07
-5.78955e-06
0.0503227
0.0174946
-0.00030683
-0.251614
-1.07489e-07
-0.0150183
-0.000828133
-3.01339e-05
-0.000683024
-0.000102721
5.72948e-05
-1.8761e-07
0.0112736
-0.1222
-0.560751
3.54916e-08
0.00242061
6.85267e-07
-0.281367
7.88614e-08
0.00126537
-0.0162079
0.12389
-0.0116864
7.70072e-05
2.0504
-0.174655
-1.75499
-1.55812e-06
7.92906e-07
6.01604e-06
0.704892
-0.00139531
0.0912642
0.212573
1.76723e-05
-1.55224e-08
0.05696
-0.00175591
-0.0361093
2.39027e-07
9.73286e-06
-1.40621e-06
-1.76807
1.86204e-05
0.00278419
-8.51195e-07
1.27433e-06
6.92713e-07
-0.191505
0.116948
0.000570081
-0.398901
0.000122737
-0.935878
-1.49211e-06
-1.33022e-07
-0.0150369
2.6288e-06
-7.03172e-07
-0.000357921
0.251699
-0.000191664
-0.19851
3.03597e-05
-0.00728851
0.451097
1.1077e-05
2.27632e-06
3.0339e-06
0.380409
-0.000403975
0.0107291
-0.019681
6.12577e-06
-6.96041e-06
-0.121853
0.00019539
4.47969
-0.0366752
-0.00614321
-0.00278923
-1.12952
-0.0510781
-0.00798271
4.95883e-05
1.69984e-07
0.396582
0.127344
7.43553e-06
0.00635772
-0.108577
3.31368e-07
-0.40699
0.562306
-0.0054057
-3.2308e-06
-0.00229961
1.80188e-05
1.26627e-07
-6.6989e-06
-3.70013
-2.52427e-05
-0.00286636
0.000154447
2.56591e-07
2.50258e-07
0.0649102
2.32452e-05
-1.41263e-06
-0.00246374
-1.70999
0.00473286
-1.69765e-07
-0.00372943
-1.45214
-0.53199
-0.000269794
-0.166984
-0.00971466
-0.144136
0.0206572
2.28775e-05
0.108895
-0.00230528
-1.93898e-06
-9.17146e-06
-9.13589e-06
9.12857e-05
0.22483
0.0501568
-2.0574e-08
-0.218864
-0.0330007
-0.40104
-0.764436
0.262462
-0.266448
-0.0462712
-0.247415
-0.00107725
0.0479812
-0.00753487
-8.65615e-07
-2.11532e-05
0.563791
-0.330183
-0.0447976
0.0999736
8.77235e-06
-0.00876907
-0.235872
-2.00769e-07
3.5938e-07
0.00196835
-0.00414857
-0.306079
0.00974774
-0.115085
-3.19855e-07
2.14827e-05
-9.28339e-08
0.0695003
-0.000552867
-0.0507532
-0.000384349
0.905554
0.639977
-0.276279
-0.000409464
-0.48277
3.17897e-06
-4.75853e-07
-0.00479548
4.75814e-07
-0.379332
-0.0421006
-0.29436
-2.51657e-06
-0.251677
0.0531892
-1.11587e-06
-0.00151909
0.0636608
-0.023216
-3.24256e-07
0.000403576
-1.178e-06
0.0265233
2.08291e-07
0.000183117
-0.115083
-0.000476791
0.00757682
0.0018345
-2.85498e-07
2.42511e-05
0.00154099
-6.12617e-05
-4.60856e-06
-2.60683e-07
-0.00164023
0.132013
-10.2076
-3.72651e-06
-0.249176
-0.0159726
6.02208e-07
-0.703508
-0.0588479
-8.42185e-07
-0.807889
9.55695e-08
-0.0365117
-0.125652
-5.00612e-06
5.3518e-07
-3.03044e-05
-3.38565e-05
0.000197461
-2.86783e-07
-0.142551
1.88387e-05
-0.0445255
3.39741e-07
-0.365992
0.12584
0.000354791
4.6722e-06
-0.211738
-0.021131
-0.0222096
-0.608015
0.00922187
-2.595e-05
-0.204864
5.50366e-05
0.00263519
-0.0102965
0.00361008
-0.0271373
1.39259e-05
0.318454
0.0705937
-0.24389
-0.266911
-4.53924e-06