/*--------------------------------*- C++ -*----------------------------------*\
| =========                 |                                                 |
| \\      /  F ield         | OpenFOAM: The Open Source CFD Toolbox           |
|  \\    /   O peration     | Version:  v2012                                 |
|   \\  /    A nd           | Website:  www.openfoam.com                      |
|    \\/     M anipulation  |                                                 |
\*---------------------------------------------------------------------------*/
FoamFile
{
    version     2.0;
    format      ascii;
    class       volScalarField;
    location    "100";
    object      p;
}
// * * * * * * * * * * * * * * * * * * * * * * * * * * * * * * * * * * * * * //

dimensions      [0 2 -2 0 0 0 0];


internalField   nonuniform List<scalar> 
18758
(
-0.118912
-0.293803
-0.00270403
-0.109688
-0.156861
-0.255943
-0.435497
0.00124872
-0.178695
0.000843596
-0.0342983
-0.43607
0.00992199
-0.10362
-0.0267839
0.217696
-0.0862698
0.0106988
-0.0188441
-0.010102
-0.133848
0.0170687
-0.434037
-0.16184
-0.349071
0.00148603
-0.0224755
-0.170639
-0.318539
-0.259071
-0.0919949
-0.120175
0.0114586
-0.0312709
-0.118139
0.0214873
0.0117019
-0.0149135
-0.0205006
-0.0932482
-0.0157712
0.0786732
-0.00617461
0.0420828
-0.297094
-0.000622672
-0.434206
-0.0287847
0.00395897
-0.00614486
-0.224519
-0.132606
-0.00269694
-0.0327777
-0.174005
-0.397637
0.0116408
0.328251
0.0270248
-0.108081
-0.129041
-0.434945
-0.160642
0.0505085
-0.00252759
0.0270722
-0.09099
0.0113894
-0.0133177
-0.129275
-0.135531
0.0492615
-0.00633219
-0.344828
-0.00215253
0.0253965
-0.147753
-0.15565
0.0597491
-0.438241
-0.421455
-0.338348
-0.108796
-0.236762
-0.145716
-0.0733445
-0.413612
-0.160651
-0.420739
0.0247206
-0.237534
0.0273837
-0.429403
0.0805326
-0.414544
-0.426973
-0.143378
-0.00248692
0.0169182
-0.133559
-0.0223397
-0.233814
-0.121714
-0.103777
-0.119586
-0.259159
-0.138695
-0.151731
-0.0221434
0.0561071
-0.426814
-0.930027
0.00301576
0.0108924
-0.210876
-0.319127
-0.241884
-0.0262507
-0.437775
-0.408578
-0.0957014
0.0336133
-0.416584
0.111447
-0.252578
-0.293288
-0.292869
-0.188895
-0.425129
0.00820244
-0.0877537
-0.0270006
-0.133158
0.0667163
0.23904
0.0491916
-0.147901
-0.0957534
0.0164076
0.178479
0.0784668
-0.0384465
0.0153799
-0.408476
-0.0167308
-0.020218
-0.153973
-0.0948315
-0.090328
-0.173616
-0.335395
-0.137571
-0.0732844
0.0161506
-0.424399
-0.0647962
-0.439516
-0.0281809
0.0296044
0.0183001
0.00529377
-0.109841
-0.423571
0.028502
-0.127576
-0.31689
-0.0197883
-0.423258
-0.241931
-0.239711
-0.358312
0.0109136
-0.424699
-0.168397
-0.110432
-0.159766
-0.281081
0.0513799
0.16905
-0.0115295
0.0044135
-0.295991
-0.138022
-0.00991987
-0.0475531
-0.138596
0.0226789
-0.321829
-0.00539456
0.0249699
0.0568828
-0.189967
0.00895406
-0.0888878
0.0344983
-0.163989
-0.0134226
-0.252056
0.0129426
-0.00599644
0.212229
-0.0261064
-0.0583644
-0.150055
0.00991657
0.0329033
-0.126838
0.0160002
-0.131017
0.00810583
0.0102479
-0.108076
0.0270738
-0.0655785
0.111228
-0.429748
0.110601
0.275328
-0.00184908
-0.26206
0.0104556
-0.0218331
-0.135617
-0.153315
-0.27951
-0.124347
-0.138438
0.0158829
-0.00961838
-0.154932
0.0274798
-0.164381
-0.431421
-0.142499
0.0100787
0.0228518
-0.00943827
-9.63748e-05
-0.4169
-0.0797835
0.00730212
-0.330351
-0.137188
-0.0339987
-0.175089
-0.423093
-0.140803
0.0213771
-0.41815
0.116288
0.0215783
-0.423511
-0.074851
0.115559
-0.0247187
-0.103842
-0.150662
0.304024
-0.0612708
0.0364808
-0.0119144
-0.119023
0.0194306
-0.147789
0.0101873
-0.13403
-0.416384
-0.00166009
-0.0215017
-0.133621
-0.0205026
-0.0462551
-0.150753
-0.355462
-0.238972
0.0177375
-0.209347
-0.0856622
-0.316812
0.0114765
-0.0125401
-0.0589612
-0.0834823
0.0156252
-0.0859469
-0.317279
-0.122822
-0.133614
-0.433987
-0.00871837
-0.00279709
0.00717665
-0.430341
0.0949293
0.0502786
-0.177877
-0.0516954
-0.420946
-0.0181875
-0.122965
-0.241455
-0.000397836
-0.121084
0.0442942
-0.0140909
-0.0523655
-0.172992
-0.0296832
0.0215768
-0.437523
-0.124888
0.0164621
-0.437987
-0.415471
-0.271723
0.0217402
0.00809772
-0.126813
-0.0330071
-0.00943463
-0.0128972
0.0734257
-0.240283
-0.177687
-0.0562925
-0.0744345
-0.00613257
0.0471874
-0.0116177
0.0183456
-0.18485
-0.0701619
-0.218204
-0.112769
0.097959
0.00849987
0.00554171
-0.122234
-0.120728
-0.00970451
0.00973323
-0.00946574
0.0500953
0.0211935
-0.339639
0.0330328
0.0521033
-0.00690489
0.176585
-0.033431
-0.207896
-0.171008
-0.0326618
-0.194719
-0.103727
-0.0884464
0.120691
-0.436167
-0.144148
-0.139401
0.0106643
-0.017613
-0.339838
-0.350984
-0.000653889
-0.0085774
-0.133492
-0.0189283
-0.0727944
-0.300391
-0.11654
-0.105178
-0.00252985
-0.417536
0.0319434
-0.0251188
0.016853
-0.020521
-0.113502
-0.0391509
-0.43764
-0.000323743
-0.0242035
0.0166254
-0.271326
-0.104874
-0.175416
0.0324686
-0.0854934
-0.0119528
0.0790114
0.0336714
-0.00136969
-0.207687
-0.13115
-0.235902
-0.418696
0.00666127
-0.153957
-0.131385
-0.105734
0.00286624
-0.118
-0.0112034
-0.0212627
0.00430847
-0.114571
0.0304522
0.0459641
-0.162589
-0.412198
-0.0125159
-0.154326
-0.106304
0.0214629
-0.0530909
0.0287624
0.00996343
-0.049252
-0.118286
0.0411818
-0.41914
-0.0996794
0.0246104
-0.103055
-0.135478
-0.114689
-0.353639
-0.109549
0.0140417
-0.00117524
0.00737464
0.0279635
-0.103618
-0.0937356
-0.0672717
0.0451069
-0.0746773
-0.133533
-0.12357
0.0288333
-0.0716116
-0.42017
0.0318511
-0.120921
0.00542731
0.0245779
-0.0885831
0.0673749
-0.0225556
-0.148595
-0.120339
0.00279516
-0.432823
0.0261741
0.0334309
0.246524
-0.435871
0.137091
-0.149792
-0.103572
-0.13311
-0.251297
-0.105459
0.0497559
-0.215074
0.0121472
-0.103978
-0.0192566
-0.432533
-0.0834992
-0.333974
-0.0670325
-0.0945145
-0.000323007
-0.164269
-0.00608969
-0.143074
0.0172077
-0.208454
0.0196364
-0.124335
-0.0748492
0.018128
0.0172072
0.00398101
-0.134674
-0.162299
-0.21367
-0.0890555
-0.0441123
-0.172796
0.0141727
0.0203247
-0.133981
0.0177103
0.025234
-0.182689
0.0104985
-0.144338
-0.169987
0.025447
0.0301586
0.0790607
0.0317242
-0.0664249
-0.164634
-0.0491333
0.130583
-0.0260038
0.0244183
0.208026
0.0549821
-0.0202714
-0.132555
-0.30029
-0.0931856
-0.130042
-0.000154551
-0.0204367
-0.297535
-0.0191887
-0.219361
-0.18554
0.0188644
-0.160877
-0.193858
-0.134457
0.00380965
-0.0680697
-0.129615
-0.0156938
-0.0110745
-0.028007
-0.029599
-0.0205937
0.000653382
0.0203905
-0.40761
-0.0507488
-0.312813
0.0337464
-0.225466
-0.300166
0.0195768
-0.00552586
-0.0495545
0.0125494
0.0106528
0.0685645
-0.010207
-0.153327
0.145323
-0.00376627
-0.129934
-0.172025
0.141066
-0.211091
-0.199797
0.0811985
-0.048232
-0.0670395
-0.133437
-0.0490295
-0.0806848
0.0142656
-0.0958839
-0.101892
-0.0407445
-0.142793
-0.434734
-0.0485703
0.0204975
-0.137183
-0.346261
0.0131929
-0.239395
0.0429773
-0.138094
0.00754382
-0.0108689
0.00386613
0.0102868
-0.164288
-0.137567
0.0339125
-0.119262
0.0605264
-0.111523
-0.161836
-0.126998
-0.273458
-0.0167787
-0.170528
-0.0866348
0.0044559
-0.093455
-0.134775
-0.0865782
-0.0306475
0.0653545
0.00797138
-0.00244511
-0.0984424
-0.150045
-0.170961
-0.130258
0.0392143
0.01283
-0.122486
0.0171534
0.00537061
0.0683543
-0.0277433
-0.157335
-0.0995915
-0.244545
-0.148354
-0.150561
0.0197035
0.0669179
-0.204919
-0.139218
-0.0789453
-0.376728
-0.127609
0.0346882
-0.119093
-0.120578
0.00781359
-0.00998244
0.26529
-0.234567
-0.253874
0.0101349
-0.14496
-0.131146
-0.35436
-0.00634586
-0.428702
-0.437945
-0.412968
-0.0393687
0.0219648
-0.237219
0.0206262
-0.121539
-0.21991
-0.218966
-0.434071
-0.117628
-0.137652
-0.121019
0.0306024
0.0643517
-0.363337
-0.123939
-0.43802
-0.11315
-0.0193831
-0.122512
0.0140286
-0.141619
-0.110242
-0.217347
0.0186604
0.0494902
-0.152201
-0.13361
-0.367009
-0.435596
-0.0918272
-0.0282073
-0.139808
0.0533783
-0.0111032
0.0231984
-0.0406456
-0.0937223
0.0251139
-0.108775
0.00877494
0.00839045
0.00916106
-0.160508
0.0562183
0.0128385
-0.119753
-0.123195
-0.00388887
-0.20506
-0.0194161
-0.0129607
-0.133637
0.119685
-0.0452872
-0.00662562
-0.370811
0.141539
-0.0487761
-0.125367
-0.0539889
-0.121189
0.109664
-0.152329
-0.412951
-0.100004
-0.00957025
-0.137432
-0.17597
0.000676243
-0.150015
0.0221015
0.00860738
-0.0978383
0.0106847
-0.158879
-0.137632
-0.00567222
-0.420979
-0.0162764
-0.0937398
-0.127567
-0.00380655
-0.217491
0.0058685
-0.0187589
0.0222889
0.0235717
-0.212553
0.226716
-0.276013
-0.157631
-0.257168
-0.124446
0.0249326
-0.150693
-0.435658
-0.273852
0.206297
-0.204733
-0.0842083
-0.0494271
-0.216536
-0.00424832
-0.355075
0.00990262
-0.427992
-0.0321079
0.195057
0.0839701
-0.0203073
-0.313933
0.0653018
0.00589282
-0.33129
0.00789233
0.00940624
-0.0959941
-0.176543
-0.214062
-0.353462
-0.131507
-0.261672
0.0126368
0.0218641
-0.145868
0.0252084
-0.32693
-0.118954
-0.0364771
0.0254018
-0.0471073
0.0307952
-0.0179281
-0.0651523
-0.320307
-0.248521
0.258539
-0.123693
0.0145806
-0.0996043
-0.273583
0.00908788
-0.109585
-0.0418274
-0.134171
0.0647045
-0.427517
0.00979323
-0.184966
0.0127696
-0.124189
0.00506308
-0.0396627
-0.0477686
-0.00388782
-0.0125145
-0.00315788
-0.134076
-0.18145
-0.0728839
-0.217255
0.0354946
-0.0916289
-0.0639183
-0.168862
-0.43745
-0.0729445
-0.005313
-0.0621316
0.00872695
0.0359325
-0.0649774
-0.269914
-0.3981
-0.252349
-0.12763
0.239097
0.0708753
0.0132001
-0.353971
0.00884272
-0.304493
-0.0639394
0.0221235
-0.147261
-0.263895
0.0242932
-0.278469
-0.0264309
-0.0864118
0.0274137
-0.129415
-0.260028
-0.326894
0.00921899
-0.00279185
-0.146878
0.018256
-0.012543
-0.066032
0.0197778
-0.130479
-0.118809
-0.124823
-0.290953
-0.109072
-0.116639
-0.0410096
0.0103639
-0.00248781
0.00380139
-0.251707
-0.0961814
-0.115953
0.0255904
-0.00517876
-0.0488878
0.00221719
-0.0995863
0.0463747
-0.316634
-0.135337
-0.109672
-0.138383
-0.116668
-0.0117894
-0.215685
0.0128149
-0.438168
-0.178829
-0.436371
-0.252297
-0.0286142
-0.0654562
-0.29325
-0.299184
-0.437059
0.202749
-0.211859
-0.299245
0.010474
-0.138477
0.138077
-0.102745
0.0103208
-0.0141175
-0.0998054
-0.133353
0.250948
-0.0502194
0.0327593
-0.0389779
0.123073
-0.449351
-0.0194081
-0.303119
0.0136576
0.0336389
-0.241753
0.00906095
0.0207948
-0.0206062
0.0138903
0.0100045
-0.00486447
-0.00674234
-0.132084
-0.118125
-0.0967139
-0.00913179
0.118987
0.0281647
-0.150193
-0.18004
-0.0191155
0.0140847
-0.0323373
-0.249419
-0.136619
-0.0692868
-0.196012
-0.100638
0.0281868
0.0387018
-0.121242
-0.421421
-0.109959
-0.00281212
-0.124603
0.0138289
-0.090497
-0.0049517
-0.345901
-0.424757
0.00742061
-0.0204915
-0.299847
0.0209994
-0.157931
-0.381249
-0.0975022
0.0546615
0.0222378
-0.00514521
0.00984547
-0.29862
-0.392231
-0.223804
-0.0142067
-0.151141
0.00679462
0.0249532
-0.281492
-0.00943471
-0.157647
-0.00383547
0.091341
0.0671022
0.0242864
0.00396298
0.0136461
-0.36147
-0.0222841
0.0220006
0.232204
-0.10102
0.0123173
-0.138518
-0.0618841
0.0126423
-0.025605
0.0101694
-0.0160431
-0.423282
-0.0854536
0.0278237
-0.118303
-0.0989916
-0.177235
0.0158188
-0.106227
-0.306677
-0.03481
-0.126975
0.0227592
-0.00973098
0.0178685
-0.0695272
-0.0677576
-0.0806432
-0.017355
-0.0624741
-0.0857128
-0.434498
-0.137918
0.0243968
0.00309776
-0.00493696
-0.157623
0.00582705
-0.369092
0.0215067
0.0166138
0.00262934
0.165802
-0.278535
0.0128594
-0.0383224
0.00830838
-0.121092
0.00514492
0.0335321
-0.134057
0.0126263
-0.0100523
0.0208117
-0.222227
0.00458608
-0.00968138
-0.108766
-0.39497
0.148687
0.199652
-0.240389
0.0833481
0.0215263
0.0181853
-0.183007
0.0336933
-0.11768
-0.11552
-0.102632
0.0700712
-0.023175
0.00145768
0.0101093
-0.0023749
-0.246181
-0.140072
-0.0406681
0.00401638
-0.157741
-0.0905874
-0.438278
-0.093783
-0.0867231
0.0171881
0.00395729
-0.00267715
-0.0994964
0.0170323
0.00447654
-0.321374
0.242369
-0.0684372
0.0182679
-0.129072
-0.116607
0.0181499
0.0406313
-0.0516535
0.290197
-0.119784
0.00714393
-0.0310808
-0.0950216
0.00568798
-0.05813
0.00942549
-0.278825
-0.139795
-0.179056
-0.0113959
-0.0881415
-0.280481
-0.112164
-0.341385
-0.108979
-0.371875
0.0169839
0.0223898
-0.0241091
-0.179666
0.0221462
0.0800372
0.056553
-0.0976068
0.0109878
0.0115907
-0.0206952
0.0125652
-0.116764
-0.11051
-0.246965
0.0254737
-0.393615
0.127171
0.0126009
-0.0678116
0.00135706
-0.165993
-0.0189797
0.0333041
-0.402605
-0.247965
-0.310927
-0.0256462
-0.291854
0.0331851
-0.128302
-0.400217
-0.00271284
-0.104469
-0.120106
-0.00265351
0.00961604
-0.0894903
-0.0226768
0.0182321
-0.239874
-0.35516
0.00973902
-0.0768702
0.0126676
-0.0507913
-0.13478
0.0126996
-0.381706
-0.0896859
0.0117881
-0.336118
-0.0941458
-0.122851
0.0205498
-0.118831
0.00967249
-0.149572
0.0321413
0.000245215
-0.418228
0.00132661
-0.275589
0.0121432
-0.131553
-0.254599
-0.129687
0.0149734
0.0501781
0.0207812
0.0699235
-0.04997
0.111165
-0.00309756
-0.438599
0.0126871
-0.0188527
-0.223207
-0.0780737
-0.0451762
0.00985726
-0.0882834
-0.1569
-0.0215719
0.148885
0.0222562
-0.0105579
-0.296234
-0.00215572
0.000440558
-0.00642145
-0.275608
-0.0160389
0.00662194
-0.159778
-0.0513367
-0.179306
-0.0699155
-0.00238863
0.00808156
-0.300538
-0.0429782
0.0285744
-0.243859
-0.211667
0.00424422
-0.126005
-0.177744
-0.0184793
0.0390607
-0.176732
0.0175041
-0.122918
-0.0219342
0.00999881
-0.322163
-0.43343
-0.153249
-0.00347267
-0.10209
0.00511845
0.314578
-0.135106
0.021235
-0.100476
0.018163
0.115583
-0.0428044
-0.129034
0.000863136
-0.0239535
-0.125105
0.0178767
0.148405
0.00121038
0.0258763
-0.260632
-0.179861
0.0523178
-0.084718
-0.259385
0.0548264
-0.0290394
-0.127761
-0.126164
-0.0513872
0.0311107
0.019546
0.0171602
-0.0229539
0.00672672
0.0131458
-0.0361515
-0.349395
0.0111161
-0.384456
0.00780281
-0.0572375
0.0128153
-0.0119219
0.0267994
0.0246987
-0.133851
-0.307136
-0.0308409
0.0195909
-0.40928
-0.0348927
-0.417538
0.126269
0.238225
-0.145858
-0.438714
-0.0992138
-0.0317888
-0.0197207
0.00482249
-0.109318
-0.00635355
0.0185172
0.0179098
0.00261213
0.0211909
0.0222495
-0.3914
-0.251228
0.0175419
-0.420077
-0.136219
-0.0431857
0.00827884
0.0420623
-0.107872
-0.0123638
-0.0861969
0.0137917
0.0105129
-0.0213067
0.00140423
-0.120846
-0.0193154
-0.0180479
-0.0107962
-0.000914887
-0.118132
-0.00272239
-0.0116205
-0.0219187
0.0319677
-0.133443
-0.125644
-0.0846806
0.0183929
0.0384298
0.0211058
0.0173206
-0.126446
0.0285938
-0.0173235
-0.0100859
-0.146266
0.0109736
0.0159852
-0.423688
0.0128205
-0.163068
-0.161959
-0.0209279
-0.379154
-0.111828
0.120752
-0.434825
-0.0659587
-0.0993004
-0.00626419
-0.0912651
0.0120845
-0.295068
0.0240731
0.00776104
-0.174617
-0.0668997
-0.242171
0.284552
0.0150603
-0.181036
0.0174407
-0.168697
-0.117469
0.00892064
-0.00647369
-0.0160616
-0.125713
-0.0454459
-0.165931
-0.0820309
0.0179794
0.00826584
-0.018037
-0.325854
-0.0896396
0.0111535
0.0155911
0.0154603
-0.0729832
0.120134
-0.0166737
-0.0135616
0.165022
0.0284779
-0.0423905
0.0765034
-0.126929
0.000987219
-0.0324855
0.190308
-0.0090448
0.0198905
-0.255297
-0.0953372
-0.159981
-0.176758
-0.00400557
-0.303629
-0.414319
0.127556
-0.147416
0.0246586
-0.126386
-0.135226
-0.107753
0.00452294
-0.400038
-0.133172
0.0133042
-0.0912117
-0.433872
0.00904386
0.0126518
-0.088581
0.0124671
-0.183645
0.0497407
-0.0205116
0.0137852
0.0128147
0.243861
-0.0580094
-0.329469
-0.100927
-0.116262
-0.161168
0.0211269
0.0250019
-0.315496
-0.403792
0.0350122
0.0141661
-0.222727
-0.0213572
-0.134828
-0.121236
-0.122086
0.0325947
0.0312437
-0.168864
-0.000388102
-0.137492
-0.288862
-0.0116475
-0.134417
-0.134674
0.0847747
0.0282587
-0.414645
0.0117296
0.26865
-0.00313116
-0.106149
-0.0304758
-0.00177493
-0.311796
-0.0308456
0.0304758
-0.0306637
-0.142548
0.0183653
-0.00292736
-0.432085
0.020872
-0.0120833
0.0145216
-0.0399358
0.0248734
0.0221231
0.0242613
0.0221679
0.106198
-0.00900613
-0.160467
-0.107766
0.0306508
-0.132551
-0.0562146
0.0733392
0.0154929
0.00624171
-0.0211016
-0.121476
-0.127308
-0.0118248
0.0123973
0.0194355
-0.390298
-0.0029287
-0.171894
-0.131965
-0.110745
-0.295424
-0.155651
-0.136204
-0.0111962
-0.120102
-0.190102
-0.310189
0.021374
0.0496915
-0.0776713
-0.000819239
-0.12422
-0.125374
-0.129981
-0.053696
-0.212868
0.0300828
-0.00267545
-0.122016
-0.133395
0.00354427
-0.00263705
-0.0794356
0.0128967
-0.409626
-0.0956754
-0.370016
-0.0956204
-0.111152
-0.296617
-0.0165562
-0.165116
0.0201683
0.0316896
-0.0116706
-0.116718
-0.0124535
-0.00569562
-0.339377
-0.436804
-0.246965
-0.140039
-0.0160998
-0.0923843
-0.197945
-0.383728
-0.127012
-0.435905
0.0258238
-0.286377
-0.0778728
-0.18117
-0.120022
-0.0687
0.0160502
-0.00749327
-0.056671
0.023877
-0.130585
0.00274907
0.0029304
0.0253392
-0.159711
0.0492529
0.0053734
0.00603005
0.0316142
-0.146503
-0.0353868
-0.241454
-0.0302875
-0.142726
-0.00393081
0.0233582
-0.140872
-0.0119625
-0.00306782
-0.110665
-0.0845168
-0.172286
0.0131418
-0.43169
-0.0409052
0.0233739
0.0250828
0.0327693
-0.359903
-0.174676
-0.432294
0.00897613
0.0244863
-0.00336546
-0.165692
0.0253545
0.0195115
-0.206769
0.0281744
-0.0191505
-0.129357
-0.0103246
0.0283634
0.0191938
0.00574099
-0.00580371
-0.0244777
-0.0024776
0.0446596
-0.11188
-0.0991922
0.00648218
-0.39818
-0.0393783
-0.147166
-0.396226
-0.0607128
-0.42403
-0.170455
-0.00720605
-0.0841067
0.011578
0.00721024
-0.306268
0.0250278
-0.163214
0.0770039
-0.0986213
0.0305194
0.0450964
0.0122735
-0.107997
0.0742551
-0.436463
-0.0212473
-0.177288
-0.0634455
0.00471893
-0.088676
-0.0895182
-0.00575272
-0.299797
0.0239091
-0.0798424
0.0137455
0.0526787
-0.103902
-0.132574
0.0194077
-0.109006
-0.380857
-0.0731185
-0.0677085
-0.0100514
-0.145622
-0.139841
0.0210863
-0.160899
-0.369537
-0.130747
0.0321159
-0.0295938
0.0126304
-0.00868842
0.0231931
-0.145323
-0.06457
0.0190307
-0.210562
0.019468
-0.00315414
0.0266123
-0.139845
0.0508974
-0.156743
-0.129515
0.0357322
-0.18666
-0.0302976
-0.162701
-0.13899
-0.000695946
-0.0630284
0.0375649
-0.0250059
-0.0875983
-0.436963
-0.105054
-0.335882
-0.22962
0.0155415
-0.164302
0.0120334
-0.106644
0.0138866
-0.400696
-0.112929
0.0174319
-0.0100602
0.0180385
-0.0711379
-0.144498
0.0111541
-0.131863
-0.0316509
-0.0681122
-0.158114
-0.019969
0.00717393
-0.121603
-0.000225816
-0.120106
0.0125595
-0.228321
0.0109467
0.0160702
-0.107875
-0.00283782
0.00291579
-0.0210747
-0.142633
-0.112274
-0.162781
0.051889
0.00157755
-0.0501907
-0.0215357
0.0190238
-0.314589
0.00746372
-0.103716
-0.393616
-0.131874
0.0292094
-0.160447
0.00228599
0.0218668
0.227078
-0.251467
-0.15749
0.0128036
0.0286372
0.0959872
-0.112567
-0.0042774
-0.0483817
0.0159618
-0.0168329
0.00679885
-0.0206021
-0.107953
-0.00249114
-0.389687
-0.420155
-0.025959
-0.00287632
-0.126511
-0.431367
0.00109903
0.0286821
-0.420515
0.010869
0.22324
-0.131669
-0.34111
0.0158577
0.0481169
-0.121655
0.0288285
-0.186119
-0.212784
-0.00787806
-0.0386172
-0.0867319
0.0196602
-0.0886534
0.0174466
0.0753733
-0.0171485
-0.0416394
-0.00248607
0.0147966
-0.166607
0.00865396
-0.363495
-0.0841335
0.0374012
0.0368252
0.0119995
0.0136033
-0.366609
0.013208
-0.233585
0.0109318
0.00434462
-0.133807
-0.128543
0.00337527
-0.00382868
0.0234042
-0.00383605
-0.0698947
-0.071017
-0.0864053
-0.0468731
0.00620152
-0.171338
-0.237275
0.0116807
-0.075363
-0.126521
-0.0892737
-0.0133472
-0.377591
-0.00599833
-0.158278
-0.0691393
0.021381
-0.0940845
-0.0104071
0.0238168
-0.0179658
-0.0986529
0.0401313
-0.12901
-0.229042
-0.151653
-0.0473488
0.00979578
-0.120388
0.0199494
-0.226015
-0.00380939
-0.116819
0.0747767
-0.0873772
0.0472434
-0.105672
-0.0705
0.0124488
-0.235258
-0.178175
-0.00360265
-0.127883
0.0119122
-0.0341474
-0.00930333
-0.361856
-0.212333
0.0183668
0.012967
-0.123804
-0.0913814
0.00702999
0.0435042
0.0186458
0.00491027
-0.000868817
0.0510377
-0.431409
-0.406201
0.0180342
0.0181671
-0.028212
-0.0820405
0.013594
-0.374044
-0.34858
-0.386999
0.0660491
-0.315556
-0.352171
0.0469918
-0.0744165
0.0145972
-0.0636608
-0.192022
-0.0227548
-0.000576593
0.0023305
-0.0616406
-0.00287661
0.0284522
-0.29493
0.0449084
-0.0899152
0.0370965
0.0141312
0.00139726
0.0119509
-0.176141
-0.42057
0.00425994
-0.0877962
-0.00559679
-0.162485
-0.00711878
0.0501375
-0.148773
-0.222893
0.108792
-0.0931649
0.150773
0.0253149
-0.102904
0.0296715
-0.0743504
0.0117203
0.0128817
-0.143989
-0.146396
-0.125854
-0.106351
0.154068
-0.38113
-0.0267696
-0.102072
-0.031339
-0.360112
-0.110835
-0.0999269
0.029516
-0.00262023
-0.151464
-0.345711
0.021179
-0.124738
0.0207222
-0.0509939
-0.00315694
-0.0103961
-0.0135194
-0.00561784
-0.138248
0.0836049
-0.0815509
0.0353211
0.0276684
-1.82617e-05
0.00591951
0.00520196
0.0141473
0.0156652
-0.137686
-0.140667
-0.347065
-0.0175745
-0.236481
-0.127788
-0.21669
-0.246022
-0.12936
0.0122374
0.0493235
-0.12668
0.0186951
-0.121431
-0.147015
-0.0177068
0.00137752
-0.0562744
-0.198531
0.0212719
-0.396505
-0.0168342
0.0163401
-0.234158
0.0238422
0.0865322
0.0132173
-0.110453
-0.00939154
0.0288167
-0.220011
-0.00788312
0.0251176
0.00860235
0.00108794
0.119407
0.0192137
-0.371194
0.0141693
0.0217836
-0.00561701
-0.348865
-0.0674037
0.0234964
-0.350282
0.0191763
-0.0087215
-0.108366
-0.422533
0.0360809
-0.315755
-0.146659
-0.051393
-0.139017
0.0123732
-0.014954
-0.0853371
-0.00883532
-0.432344
-0.200732
-0.00407634
-0.0444561
0.0137212
-0.432695
-0.134493
-0.0938246
0.020493
-0.147346
0.110249
-0.115002
-0.0511228
0.00961627
-0.0292228
0.0189637
0.00552208
-0.137257
-0.00347754
0.00561872
-0.103196
-0.348153
-0.108282
-0.367865
0.00964766
0.0333662
-0.0124988
-0.019241
0.0475448
0.00209931
0.0204076
0.0189062
0.0178771
0.0124209
-0.0442961
0.00132591
-0.0215159
0.000374706
-0.423761
-0.269615
-0.0232387
-0.0314987
-0.121161
0.0121327
-0.100537
-0.109812
-0.119838
-0.215602
-0.315371
-0.202236
-0.372524
-0.10534
-0.0148184
-0.0710798
0.0135294
-0.12006
-0.0401303
0.014768
-0.00847796
-0.106504
-0.00815305
0.121212
-0.425128
-0.00825173
-0.00960519
-0.162555
0.000843813
0.0114001
0.00467961
-0.0231155
-0.240755
-0.421095
0.0178597
0.0289717
0.0253118
0.00815749
0.083181
-0.0128851
-0.310598
-0.258944
0.0213546
-0.395476
-0.0725584
0.0279624
-0.436027
-0.00861793
-0.0642224
0.00352147
-0.0110176
0.00541805
-0.351231
0.0265234
0.0109234
-0.0423643
-0.0227977
-0.0740735
0.00651727
-0.104388
-0.10142
0.029983
-0.392706
-0.166759
-0.111687
-0.0714326
-0.119769
0.0192947
0.0161797
-0.0513155
-0.170263
-0.0660759
-0.117061
-0.143134
0.011808
-0.354292
-0.268382
-0.24607
0.0296451
0.064397
0.0141899
-0.19691
0.147945
-0.171855
-0.159109
0.0140275
-0.0843504
0.0318595
-0.0132451
-0.331391
0.033654
-0.0551772
-0.0730352
-0.168278
0.0308611
0.0184682
0.0146511
-0.132979
0.0086264
-0.023594
0.0322309
0.0137386
-0.00954294
0.0379526
-0.00218591
-0.335112
-0.132308
0.0156972
-0.00112671
-0.00846424
-0.0507129
0.0639945
0.0210429
-0.208272
0.135254
0.00200104
0.00505192
-0.393337
-0.128658
0.00910578
-0.118963
0.116892
0.0227925
-0.43075
0.00119185
-0.163473
0.0128816
-0.412381
-0.158497
0.0120625
-0.0848033
-0.167838
-0.0725422
-0.234824
0.013
0.0344968
-0.145635
-0.176165
-0.0511566
0.0731538
-0.00168077
0.092845
-0.0305224
-0.131852
-0.130074
-0.110662
-0.0275736
-0.000425168
-0.103206
0.0120487
-0.245423
-0.0251063
-0.151414
-0.00936819
0.0126411
-0.0128135
-0.0174873
0.0066455
-0.114199
-0.23357
0.00946158
-0.00410642
0.0165711
-0.42264
0.00184186
-0.0194693
0.0131389
-0.0904068
-0.435276
0.00118083
-0.0090885
-0.0894411
-0.143764
0.0234635
-0.0994726
0.0542997
0.00207237
-0.099775
0.0549808
-0.178747
-0.30749
0.0289242
-0.399515
0.00718792
0.00934029
-0.0168633
-0.284139
0.0431072
-0.128254
0.000873402
-0.169801
-0.0910063
0.0124476
-0.0681127
0.0198085
-0.136117
-0.131023
-0.0746347
-0.267949
-0.107951
0.0154301
0.0209313
0.0139023
-0.049589
-0.153442
-0.0783598
0.0202429
-0.160333
-0.0169767
-0.276424
0.0306389
-0.319218
-0.0705037
-0.279807
-0.172875
-0.0334926
0.0343397
0.0289101
0.00771791
-0.159803
-0.0191243
-0.0868759
-0.227327
-0.00233652
-0.135374
0.0370003
0.0314051
-0.0856636
0.0112541
-0.0164605
-0.352602
-0.432862
-0.140061
0.0182985
0.00232067
0.0112687
-0.0452496
-0.0308004
-0.0174416
-0.387808
-0.0838328
-0.123213
-0.0273762
-0.05621
-0.338934
-0.0718464
0.0421493
-0.000964514
-0.430983
-0.0104649
-0.152044
0.0157331
0.0144632
0.0306552
-0.00423782
-0.00234581
-0.0219149
0.00404953
0.116282
-0.208371
-0.0842789
-0.140854
0.0356219
0.0208573
0.0194204
-0.222269
0.027535
-0.0273121
0.0179044
-0.430785
-0.429206
0.00387502
-0.0303848
0.0125805
0.0321478
0.0211391
0.0216629
0.018802
-0.314075
0.0354166
-0.00848603
-0.196907
0.00691761
-0.134442
-0.106261
-0.0863235
-0.155611
-0.0429167
0.0241413
-0.119263
-0.00941232
-0.0803799
-0.0478723
0.00112896
-0.120745
0.0127312
-0.321844
-0.00727627
-0.0131579
-0.14791
-0.130099
-0.359873
0.00277747
-0.12837
-0.225796
0.0276811
-0.108156
0.00790713
-0.00185204
-0.00749879
-0.107429
0.0679161
-0.205411
0.0230743
-0.0817694
-0.435547
-0.152673
0.0270386
-0.236336
0.0971539
-0.122733
0.0454119
-0.0361359
-0.0430059
-0.135094
0.0318225
-0.0237926
-0.395926
-0.00875652
0.0670041
0.00337958
0.140568
-0.138061
-0.221131
-0.00515537
0.0118107
0.0255704
-0.115262
0.0280699
-0.0123912
-0.0814004
-0.364917
-0.0388146
0.0174922
0.0308633
-0.432617
-0.139133
-0.120323
-0.22013
0.0201936
-0.397982
-0.0013534
-0.23165
-0.0154693
-0.0485002
-0.396809
0.0880706
0.0126454
-0.27897
-0.125127
-0.145353
-0.00133795
-0.108766
-0.126648
-0.0106903
-0.21207
-0.157047
0.0193506
-0.0289901
-0.130086
-0.00419804
0.00337605
0.0057099
0.0463956
-0.149151
-0.147404
-0.0583499
-0.144149
0.0200817
0.242897
0.122335
0.0260481
0.0701786
-0.0569865
0.00197813
0.0139449
-0.309343
-0.436061
-0.139971
-0.00930678
-0.0932017
0.0155365
-0.129151
0.0105514
-0.102132
-0.250161
-0.437724
0.173994
-0.0171694
-0.120554
-0.107993
-0.211127
0.0215396
0.0213945
0.00759558
-0.220047
-0.0938692
-0.172323
-0.368729
-0.0082737
0.0115908
-0.296074
0.100259
-0.171504
0.0169132
0.0158014
0.035129
-0.315875
0.0411307
-0.0809304
-0.00124738
0.0197254
0.00439949
-0.433439
-0.338955
0.0240503
-0.305264
-0.0120897
-0.159564
0.0188119
0.0143813
-0.111855
0.0424202
0.0228414
0.0951323
-0.148438
-0.0662637
-0.214914
0.0138425
-0.114342
-0.224549
0.0368364
0.00261377
0.0385713
-0.229812
-0.0932348
0.107625
-0.114679
-0.0034472
-0.0171609
-0.0224115
-0.0510023
-0.369337
-0.374354
-0.0591723
-0.215441
-0.0985048
-0.239913
-0.102221
0.035879
0.00936017
-0.131349
-0.389928
0.0113503
-0.0371993
-0.101555
0.0236901
-0.127157
-0.322754
-0.121116
0.0234968
-0.0835399
0.0484909
0.023796
-0.0109439
0.304108
-0.0125639
-0.0664484
-0.0577244
0.00953753
0.021462
-0.435872
-0.009066
-0.00464369
-0.095488
-0.158314
-0.0772789
0.0195775
-0.0560726
-0.193643
-0.106431
-0.0631628
-0.159998
-0.095975
-0.187953
-0.106732
-0.0213761
0.166814
0.154467
-0.0059464
-0.0110714
0.0177822
-0.0536018
-0.132047
-0.265675
0.0125101
-0.129289
-0.161077
-0.339446
-0.434754
-0.135866
-0.132279
-0.128087
-0.129002
-0.116691
-0.258471
-0.0936947
0.0330758
0.00587869
-0.288312
-0.11537
-0.123277
-0.133889
0.00319152
-0.159879
-0.1546
0.0145907
-0.00019777
-0.0787585
-0.120548
-0.147747
-0.245071
-0.196376
0.00652255
-0.00850635
0.0133457
-0.347927
0.0919939
-0.13008
-0.0439406
-0.420157
-0.179158
-0.138167
-0.0614058
-0.116397
0.00485379
-0.00156174
0.0297526
0.0168792
-0.425185
-0.20288
-0.126412
0.046047
-0.187517
-0.129033
-0.00204965
-0.04556
-0.288367
0.137133
0.00641329
-0.0485918
0.014441
-0.207144
-0.00356857
0.0206769
-0.408196
-0.0688017
0.033303
0.0358693
0.00494223
0.0483432
-0.0735034
-0.0204809
-0.0101297
0.00591296
-0.0707055
-0.373353
-0.154849
0.0244806
-0.0268977
-0.26799
0.0199144
-0.22952
-0.256468
-0.00270894
-0.438349
0.0221644
-0.132304
-0.11905
0.0296924
0.0216809
-0.00165416
-0.0875106
-0.0470243
0.00665355
-0.135392
0.0147851
-0.392876
0.0106829
-0.431545
-0.435909
0.0940316
-0.00975494
-0.167659
-0.161017
0.200325
-0.090097
0.10699
-0.000329389
-0.106938
-0.0150813
-0.104338
-0.116151
-0.060894
-0.125196
0.0150989
-0.216251
-0.136933
-0.129532
-0.198318
0.0151377
-0.14005
-0.136573
0.0122997
-0.228436
-0.116228
-0.268013
0.0192914
0.0856123
-0.00581839
-0.137759
-0.212133
-0.0781142
-0.199282
-0.140625
-0.085728
-0.21477
-0.433872
-0.121084
-0.127699
-0.125278
-0.121503
-0.41134
-0.0852117
-0.240468
-0.38318
-0.0268138
0.0514717
-0.0536109
-0.135894
0.0120953
0.0146177
0.0214322
-0.044521
0.0275078
0.0128203
-0.363441
-0.129332
0.0121768
-0.124812
0.0237684
0.00443837
-0.0335773
-0.155435
0.00963663
-0.161784
0.0211707
-0.0883777
-0.124682
-0.19242
0.0757396
0.0114415
-0.188832
0.0132356
0.0118931
0.0761003
-0.0318041
-0.303919
-0.169129
0.0188971
-0.0427163
-0.118388
0.0212701
-0.177876
-0.136344
0.22462
0.00869897
-0.0851606
0.0255169
0.0122789
-0.273469
-0.43454
-0.0886907
-0.148479
0.0449376
-0.139784
0.0981816
-0.351127
-0.115022
0.0179047
-0.00102507
-0.166022
-0.212416
-0.357006
0.118819
-0.29736
0.0452726
-0.341639
-0.345958
0.0698587
-0.149849
0.00657234
-0.214814
0.0138508
-0.404628
0.0937806
-0.102325
-0.389456
-0.237785
-0.227313
0.0522514
-0.263282
-0.112663
-0.119721
-0.422794
-0.111886
-0.157366
0.00182438
0.0808533
0.121342
-0.432571
0.0132042
-0.0153791
0.0604208
-0.133807
-0.393931
-0.120127
-0.0997016
0.019261
-0.208665
-0.0081464
-0.158773
-0.128321
-0.28735
0.00388907
-0.183296
0.189294
0.000954487
-0.181677
-0.123388
-0.0497389
-0.163213
-0.168729
-0.42116
-0.102477
0.00751525
0.0119883
-0.157361
-0.0934884
0.0243238
-0.219591
-0.006357
-0.233531
-0.0244346
-0.0227452
-0.123053
-0.209826
-0.0167031
-0.124589
0.0219121
-0.430909
-0.00555352
-0.109617
0.182058
0.20243
0.00707455
0.0269654
0.0154912
-0.0838574
-0.075549
-0.204385
-0.0690104
-0.0920719
-0.056831
-0.0206557
-0.153294
-0.124511
-0.000106845
0.216362
0.00856696
-0.406187
-0.00261233
0.162606
-0.29011
-0.0630007
0.0152021
-0.209088
-0.0237025
0.0210777
-0.109021
0.0122441
0.00682651
-0.175747
-0.0836106
-0.379346
0.0196553
-0.19822
-0.0976258
-0.00517139
0.0223666
-0.0213791
-0.00908241
-0.386055
-0.124036
-0.126354
-0.120654
-0.128145
-0.396672
0.0116322
0.0398416
0.020212
0.0215191
-0.163292
-0.424244
-0.0445556
0.0332692
-0.11418
-0.0200063
-0.00325527
-0.360422
-0.140097
-0.00544281
0.0342074
0.00999851
-0.139521
0.00297322
-0.00139558
-0.221706