/*--------------------------------*- C++ -*----------------------------------*\
| =========                 |                                                 |
| \\      /  F ield         | OpenFOAM: The Open Source CFD Toolbox           |
|  \\    /   O peration     | Version:  v2012                                 |
|   \\  /    A nd           | Website:  www.openfoam.com                      |
|    \\/     M anipulation  |                                                 |
\*---------------------------------------------------------------------------*/
FoamFile
{
    version     2.0;
    format      ascii;
    class       surfaceScalarField;
    location    "100";
    object      phi;
}
// * * * * * * * * * * * * * * * * * * * * * * * * * * * * * * * * * * * * * //

dimensions      [0 3 -1 0 0 0 0];
oriented        oriented;


internalField   nonuniform List<scalar> 
27907
(
-0.0834287
0.0645873
0.0188414
-0.062845
-0.0093191
0.0721641
0.415326
-0.465682
0.0503562
0.0208144
-0.0015185
-0.0192959
0.0136705
-0.00375246
-0.00991808
-0.0146807
0.00596796
0.00871274
0.00962464
-0.000315225
-0.00930941
-0.333486
0.422531
-0.089045
0.0910976
-0.0775435
-0.0135541
-0.169459
0.0230417
0.146417
-0.0234
0.1841
-0.1607
-0.00871164
0.00622415
0.00248749
0.0805864
-0.436555
0.355969
0.0982896
-0.111566
0.0132764
0.259445
-0.176174
-0.0832706
0.0509129
-0.0312603
-0.0196526
0.0351471
0.0933201
-0.128467
-0.0876924
0.368944
-0.281252
-0.121193
-0.136083
0.257276
0.146165
-0.122009
-0.0241567
0.00150458
0.000205783
-0.00171036
-0.430195
0.448989
-0.0187942
-0.00354026
0.00173805
0.00180222
0.065912
-0.081311
0.015399
0.0233197
-0.0886049
0.0652852
-0.420207
0.0867209
0.0380989
0.00622947
-0.0443284
-0.00536719
-0.00415059
0.00951778
0.0389058
0.0149897
-0.0538954
0.0764593
-0.0609164
-0.0155429
0.0930953
0.0130703
-0.106166
0.00044055
-0.00386042
0.00341987
0.474218
-0.46177
-0.0124482
-0.244262
0.125842
0.11842
-0.103682
0.0304059
0.0732764
-0.484408
0.29384
0.190568
0.557009
-0.33494
-0.222069
0.281138
-0.136212
-0.144927
-0.152857
0.243422
-0.0905655
0.027134
-0.126104
0.0989699
0.2744
-0.18957
-0.08483
0.159893
-0.139608
-0.020285
0.174042
-0.339971
0.165928
-0.119057
0.15986
-0.040803
0.0979284
-0.0755604
-0.022368
-0.495807
0.260635
0.235172
-0.00213972
-0.00140055
-0.152796
0.193153
-0.0403568
-0.148632
-0.020827
-0.203789
0.399108
-0.195319
-0.0907083
0.114361
-0.0236522
0.0197129
-0.0164057
-0.0033072
-0.475163
0.0935574
0.381606
-0.194728
0.171328
0.00408776
-0.00945495
-0.0250834
0.08362
-0.0585366
0.299296
0.257713
0.0442577
-0.0230732
-0.217161
-0.0164301
0.233591
-0.107381
0.0318039
0.0755766
0.0561412
-0.0866318
0.0304906
0.00814131
0.00148333
-0.114364
0.109158
0.00520564
0.18882
-0.0330798
-0.15574
-0.385378
-0.0897854
0.345118
-0.190249
-0.154869
-0.0744398
0.135141
-0.0607013
0.364365
0.109854
0.147299
-0.278088
0.130789
0.00232135
0.0173915
-0.0153129
0.0139018
0.00141116
-0.122656
0.2248
-0.102144
-0.37957
0.17578
-0.0220608
0.0131742
0.00888666
0.150261
-0.377039
0.226778
0.209522
-0.00960579
-0.199916
0.090252
-0.0656007
-0.0246513
0.0100875
0.00211911
-0.0122066
-0.0820965
0.023345
0.0587515
0.00350401
-0.00153745
-0.00196656
0.00097643
-0.00128792
0.000311488
0.0772668
-0.0573445
-0.0199223
-0.0652746
-0.0421059
0.0036752
-0.0103734
0.00669817
0.0921009
-0.00184895
0.169438
-0.150523
-0.0189153
0.0223559
-0.034334
0.0119781
-0.0963685
-0.0179955
0.0038144
-0.00359359
-0.000220815
-0.0468825
0.256404
0.00670209
-0.00302689
0.00155911
-0.21872
-0.00671522
0.00287669
0.00383853
0.140958
0.0189349
0.00110305
-0.00141547
0.000312426
-0.00472826
-0.00198697
0.0796551
0.0124458
0.349157
-0.198896
0.122177
-0.260944
0.138767
-0.000349278
0.00185386
0.148438
-0.0211591
-0.127279
-0.00248413
-0.00214772
0.00463185
-0.081753
-0.0249045
0.106657
0.0192601
-0.111591
0.0923304
-0.00196432
0.00240487
0.0499494
0.0265098
0.0628196
-0.0433802
-0.0194394
0.0127988
-0.00271134
-0.162735
-0.0343135
0.197049
0.143183
-0.242198
0.099015
0.00368023
-0.00840849
-0.0220608
0.197176
0.216347
-0.413524
-0.152877
0.261099
-0.108222
-0.0503169
0.0434286
0.00688829
0.0100635
0.000381353
-0.0104449
-0.00588022
0.00651722
-0.000637001
0.128024
0.131421
-0.00202558
0.00206376
-3.81848e-05
0.000987887
0.000115158
0.0205729
0.111573
-0.132146
-0.270338
0.239498
0.0308402
-0.0255073
0.0331315
-0.00762416
-0.0400025
-0.000610281
0.0406127
0.0195163
-0.0771511
0.0576347
0.0641409
0.0337875
-0.073551
0.010706
-0.0590032
0.0761371
-0.0171339
0.00473326
-0.00185657
0.440155
-0.624308
0.184153
-0.0776787
0.112826
0.0621156
-0.0240166
0.000582884
-0.000377101
0.131528
-0.0540672
-0.0774612
-0.0103028
0.0319081
-0.200037
0.119658
0.080379
-0.0849556
0.019355
0.127187
-0.100053
0.276206
-0.154029
0.00310725
-0.047585
0.0444777
-0.0758421
-0.00625436
-0.00699458
-0.045781
0.0527756
-0.2625
0.23786
0.02464
-0.0656608
0.0405774
0.225027
0.0493733
-0.185802
0.276958
-0.0911564
-0.000772321
0.000689114
8.32064e-05
-0.00372544
0.000699526
0.00302592
-0.0171357
0.110231
0.0259741
-0.0388989
0.0129248
0.0566878
0.0205789
-0.0514352
-0.0108469
0.0622821
0.187039
-0.0491881
-0.137851
-0.459297
0.457356
0.00194121
0.00360918
-0.00256878
-0.00104041
-0.000202759
0.15474
-0.154538
-0.00209914
7.35622e-05
-0.198975
0.0461794
0.00400414
0.166189
-0.170193
0.486235
-0.299296
-0.186939
-0.193207
0.355758
-0.16255
-0.103253
0.0751342
0.0281191
0.0139657
-0.00853893
-0.00542675
-0.184106
0.18811
0.0854214
-0.0292802
0.0548273
-0.0159215
0.161494
0.0907684
-0.252262
0.0280353
-0.00609406
-0.0219413
0.0698768
-0.0893969
0.0195201
0.00423321
0.0102501
-0.0144833
-0.00939731
0.0094087
-1.13926e-05
-0.3221
0.234408
0.0081331
0.00583258
-0.00803236
0.0107085
-0.00267613
-0.0399299
-0.0633234
-0.000331188
0.0662432
0.0461483
-0.0102222
-0.035926
0.170666
0.0181537
-0.061199
0.0643062
-0.266163
0.146296
0.119866
0.263322
-0.46014
0.196818
0.0106555
-0.0106555
0.0181638
-0.069599
-0.182389
0.346954
-0.164566
-0.0770408
0.158068
-0.081027
-0.015745
-0.0553551
0.0711001
-0.317332
0.235235
0.0820968
0.00931798
0.000745538
-0.217168
0.38697
-0.169802
-0.313387
0.183068
0.130319
0.0670211
0.0645073
-0.0744035
0.0154002
-0.0310574
0.209864
-0.178806
0.097617
-0.114753
-0.0481298
-0.0537806
0.10191
-0.115541
0.0191727
0.127273
0.0188927
0.106613
-0.0367366
0.534954
-0.301231
-0.233723
-0.185579
0.359621
-0.0283644
0.0756897
-0.0473254
-0.177653
-0.0213222
0.136732
-0.151249
0.0145177
0.0846439
-0.103632
0.0189881
-0.301005
0.381592
-0.121667
0.0735369
0.0793673
-0.107872
0.0285044
-0.529687
0.0703895
0.00197271
-1.0806e-05
-0.0019619
-0.171905
0.0232728
-0.162266
0.381135
-0.218868
-0.0886221
0.107882
0.0618018
0.148735
-0.210537
-0.119806
0.136512
-0.0167063
0.0528381
-0.0746679
0.0218297
0.00159546
-0.00219197
0.00059651
-0.0248832
0.0777213
-0.0226083
0.0433166
-0.0207083
-0.0908136
0.326365
-0.235551
-0.00492316
-0.00975753
0.206678
-0.200915
0.0381799
0.0987864
-0.0414784
-0.057308
-0.000333783
-0.000438538
0.0178207
0.0596329
-0.0774536
0.106544
-0.0271767
-0.0792453
0.12208
-0.042835
-0.0845191
0.111834
-0.0273149
-0.357722
0.29356
0.0641621
0.0716301
-0.108338
0.0367083
0.2454
0.0997187
-0.0210427
-0.0944985
0.00371786
-0.00306734
-0.000650513
0.0953751
-0.01572
-0.00539489
-0.431161
-0.187927
-0.129405
-0.262911
-0.0948104
0.475111
-0.281532
-0.193579
0.0122406
-0.037748
0.166309
-0.105118
-0.0611911
-0.210113
-0.074303
0.284416
0.0243095
-0.0858067
0.0614972
0.00905366
0.0537659
-0.221021
0.0443283
0.176693
0.0419781
-0.0160041
-0.00533652
-0.00237413
0.00771065
0.0817096
0.0136655
-0.27792
-0.206488
-0.00122657
0.00121067
1.59022e-05
0.127358
-0.00492155
-0.122436
-0.364894
0.0422281
0.322665
0.0287658
-0.000730438
0.0242765
0.145161
0.0907899
0.0365678
-0.078177
0.201486
-0.123309
-0.0548269
-0.0636917
0.118519
0.0837436
-0.026136
-0.0576075
0.0148925
-0.0375008
-0.114658
-0.00514771
-0.0896727
0.0611834
0.0284893
-0.118991
-0.163219
-0.135598
0.0498111
0.0857869
-0.307405
0.335503
-0.0280981
0.103673
-0.0190293
-0.14217
-0.0297349
0.0489936
0.0497928
0.0134296
-0.000540638
-0.0128889
-0.339868
0.249054
-0.0393285
0.203249
-0.16392
-0.0716968
0.0735523
-0.00185551
0.162337
-0.201665
0.107384
-0.184425
-0.0320019
0.0321979
0.00908041
-0.0412783
-0.00672847
0.000848249
0.13998
0.0980112
-0.237991
0.0285875
0.0781224
-0.10671
0.00241363
-0.00287521
0.000461586
-0.0790273
0.0216828
0.211901
-0.180103
-0.0317975
-0.190192
-0.107309
0.297501
-0.177453
0.103476
0.0739769
0.0960568
0.070252
-0.222138
-0.0403613
-0.00127162
0.00368524
0.0848526
-0.0605431
0.0259146
0.021689
-0.0476036
0.000582884
0.00157814
-0.373055
0.193268
0.179787
0.0147578
0.400568
0.0318685
-0.0969576
0.0650891
0.00676803
-0.00517257
0.152696
-0.113144
-0.039552
-0.0663277
-0.0843047
0.105797
-0.0214919
-0.0559275
0.154177
-0.0982493
-0.000250145
-0.268364
0.147171
0.0898301
-0.0427235
-0.0471066
-0.00614016
-0.325075
-0.170733
-0.00422525
-0.0116992
0.0159245
-0.0905105
0.120409
-0.0298985
-0.121762
0.269061
-0.179242
0.0720251
0.107217
-0.0796297
0.106808
-0.0271783
-0.220347
0.202434
0.0179132
-0.367858
0.00296429
0.00974835
-0.0114458
0.00169744
0.0653186
-0.039404
-0.367433
0.216857
0.150576
0.00827723
-0.0102171
0.00193988
-0.000204799
-0.0623179
0.0801386
-0.291837
0.305423
-0.0135862
0.440155
0.0590993
-0.0744749
0.0153757
-0.0533211
-0.1677
0.135441
-0.31783
0.108892
-0.237473
0.12858
-0.120112
0.213259
-0.0931467
-0.0692444
-0.0201525
-0.11185
0.0322199
-0.0901119
-0.0873415
-0.00292364
-0.102194
-0.141021
0.0190122
0.00561025
0.0614108
0.173983
-0.292974
0.324212
0.162023
0.0246038
0.0515333
0.00546537
-0.0911696
0.0857042
-0.0554187
0.0840062
0.0253686
-0.00455418
0.0598193
0.0928764
-0.218886
0.187828
0.4279
-0.589074
0.161174
0.0550693
0.0347608
0.0175024
-0.0217276
-0.384809
0.121897
-0.190857
0.398659
-0.207802
-0.283198
-0.101611
-0.117552
-0.0824857
-0.099446
0.0149269
0.0827615
-0.0594418
-0.0976088
-0.17273
0.256684
-0.137618
-0.119065
-0.382829
0.210246
0.172583
0.047085
0.00382789
0.0513116
-0.0583062
0.0915356
-0.0275742
-0.0639614
0.0307821
-0.0883973
0.0576153
-0.252534
0.196576
0.0559576
0.0615527
0.0124512
-0.0740038
0.00362325
-0.0870519
0.0415488
0.0996256
-0.141174
0.017115
-0.110456
0.0933415
-0.00664788
0.000389654
-0.000244196
-0.000145458
-0.0680148
0.0522697
0.353149
0.0871586
-0.440307
0.131887
-0.144081
0.0121943
0.000826974
-0.0642927
0.0634657
0.0365815
-0.00438359
0.00609928
0.140662
-0.146761
-0.215948
-0.157107
0.110145
-0.00798636
-0.102159
0.269438
-0.192346
-0.0770915
0.0347664
0.109011
-0.143777
-0.0625295
-0.00271266
0.0652422
0.0235628
-0.0121637
-0.0113992
-0.0816169
0.0969918
-0.0153749
-0.1177
-0.023321
0.0119526
0.00147695
-0.264388
0.0305265
0.233861
0.0306701
-0.208323
0.125458
0.136309
-0.261767
-0.240202
0.0873452
0.0226513
-0.0960216
0.0733703
0.171613
0.0024003
-0.174013
0.00914084
-0.000863614
0.0725927
-0.0418332
-0.0307595
-0.189606
0.111429
-0.202328
-0.165105
-0.000609014
-0.00591028
0.0065193
-0.0945136
0.0128967
0.0379132
0.0531844
-0.0164126
-0.247975
0.0891188
0.0242173
-0.113336
0.117585
-0.307777
0.160636
-0.0271987
-0.133437
0.163864
0.075634
-0.166982
-0.172886
-0.00323466
0.00441876
-0.0011841
0.000977012
0.000995696
-0.0637988
0.0264461
0.0373527
0.0260361
-0.260084
-0.232362
0.492446
0.0114729
0.067106
-0.0785789
0.000500525
-0.00596622
0.00546569
0.0584282
-0.113255
0.398058
-0.200882
0.0143467
0.0110219
-0.140532
-0.132642
0.273173
-0.2787
0.180999
0.0977003
0.430091
-0.166769
0.0770224
-0.0543711
0.153441
0.113153
-0.266594
-0.15528
0.0362232
-0.0556748
0.0864568
0.00601815
-0.0279807
0.0219626
0.25138
-0.142488
0.00233917
0.0113314
-0.0965038
0.131872
-0.0353678
0.0961711
-0.388008
-0.0308672
0.165793
-0.134925
-0.268089
0.139883
0.128206
0.190278
-0.139791
0.0838636
-0.0854414
0.119517
-0.0340758
0.0834957
-0.0778854
0.00161202
-0.00694854
-0.0751986
0.0957715
-0.365727
0.200027
0.1657
-0.0054047
-0.0662921
-0.0316893
0.0276853
0.0040039
0.00401179
0.0288462
-0.032858
-0.00718862
-0.00220868
0.0254759
-0.101014
0.0755384
0.217682
-0.177325
-0.0403572
0.191375
-0.358357
-0.360845
0.150731
-0.121387
0.183189
0.0710234
0.0259685
0.0249533
0.101743
-0.126696
-0.145007
0.145885
-0.000877598
-0.118078
0.0275675
0.0365163
0.0137632
-0.0720645
0.0583014
0.024791
-0.172875
-0.0952146
-0.137108
0.134185
0.00275413
0.00106027
-0.216248
0.0297116
0.186537
0.0172964
0.00626649
0.4279
-0.414521
0.230208
-0.00331792
-0.00358678
0.0069047
-0.120417
-0.0148742
0.135292
-0.163829
-0.0467225
0.210552
0.0688681
0.0148755
-0.0928056
-0.0108767
-0.0530933
0.0849617
0.00675416
-0.0020209
-0.161678
0.152072
0.193404
-0.0313608
-0.162044
0.0120562
-0.00163957
0.00786372
-0.0199359
-0.0652533
0.0851892
-0.105625
0.100382
0.00524321
0.0860982
0.0121915
0.0732656
-0.0595025
-0.00032144
-0.00769362
0.00801506
-0.0797621
0.0897198
-0.212376
0.115079
-0.0308365
-0.084243
-0.230334
0.0774574
0.103368
-0.0323449
0.0768269
0.137103
-0.21393
0.00407419
0.00267996
0.111099
-0.0219802
-0.0736594
0.0744864
-0.142234
-0.00277279
0.00210811
0.093072
-0.0951801
0.150037
-0.0374768
-0.0438342
-0.177313
-0.202257
0.000136369
0.000253285
0.256109
-0.130651
-0.0408847
0.0761892
-0.0353045
-0.446673
0.14318
0.303492
0.0651752
-0.0726882
0.00751304
-0.110943
0.14571
-0.445162
0.281008
0.164154
-0.0732219
-0.187722
0.22314
0.206951
-0.0402316
0.00163732
0.0385943
-0.0012692
-0.000460377
0.00172958
-0.0231486
-0.0271684
-0.104543
-0.0179216
0.122464
0.0433628
-0.163691
0.120329
0.0904094
0.0163986
-0.28098
0.515522
-0.234542
-0.417348
0.0304099
0.386939
0.0160909
-0.014578
-0.00151293
-0.255749
0.182527
0.227902
0.117134
-0.345036
0.00798613
-0.0922909
-0.114049
0.467198
-0.016128
-0.0894973
0.103422
-0.013013
-0.0785669
0.306469
-0.119827
0.273269
-0.00338429
-0.108186
0.11157
-0.1701
-0.0461486
0.126304
-0.126507
0.0380467
0.00393141
-0.0066423
-0.11501
0.121652
0.0787908
-0.0987267
0.00935271
-0.13951
0.130157
-0.26046
-0.105268
-0.0401399
0.0139862
0.0261537
-0.174295
-0.0221441
0.196439
0.139971
-0.190571
0.0505999
-0.0491555
0.0626379
-0.0134825
-0.00908422
-0.00123007
0.0103143
-0.0962515
0.0983596
0.0688226
-0.0339245
-0.034898
0.123737
-0.117638
-0.0609444
0.000731807
-0.00981603
0.276535
-0.115041
7.72318e-05
-0.00431575
0.00423852
-0.0820946
0.0412099
-0.330222
-0.0331619
0.363383
0.0407138
-0.00266707
-0.0128508
0.016224
0.0939214
-0.251254
-0.228427
0.479681
-0.0903295
0.0957949
-0.00188477
-0.0161243
0.0180091
0.0915684
0.137983
-0.287027
0.149043
-0.207006
0.0308319
-0.167986
-0.0523608
0.0358719
-0.221674
0.465224
-0.445508
-0.0197163
0.058842
0.0410104
-0.0349923
-0.171763
0.178763
-0.00700062
0.0385803
0.0162469
-0.277941
0.162722
0.115218
-0.0928021
0.104254
-0.0114515
-0.0718486
-0.00873136
-0.298674
-0.402747
0.108824
-0.170395
0.0615708
-0.519848
0.245512
0.274337
0.177849
0.0340514
-0.18716
0.0503761
0.136784
-0.103058
-0.163105
-0.0759749
0.10099
-0.0250154
0.00769615
0.0393889
-0.171661
0.373005
-0.201344
-0.0151996
0.0183561
-0.00315644
-0.00758102
0.00578707
0.00179394
0.13339
-0.0444976
-0.0888928
0.0526533
0.0624262
-0.0145564
-0.0492424
0.0210278
-0.13355
0.126908
0.120061
0.0314001
-0.151461
-0.00696283
-0.0083501
-0.177206
0.00544296
-0.0106248
0.108297
-0.0976721
-0.268355
0.109376
0.158979
-0.00911225
0.00772355
0.0013887
0.0682487
-0.127649
0.0594008
0.0803359
-0.0290243
0.0717137
0.0172031
-0.0889168
0.00821757
-7.62561e-05
-0.068382
0.155646
-0.267479
0.111833
-0.100469
-0.0126799
0.113149
-0.0881055
0.0771282
0.0109774
0.0375788
0.0833705
-0.0638542
-0.220557
0.0521301
0.168427
0.0455384
-0.0364848
-0.191434
-0.00588386
0.197318
0.156665
0.120867
-0.277532
-0.185512
0.408651
0.381322
0.105589
-0.486911
-0.00784167
0.00603223
0.00180944
0.0406722
0.00486624
0.233344
-0.249757
-0.0659923
0.0800438
-0.0140515
0.142136
-0.108581
-0.0335549
0.0305586
-0.0265468
-0.00103494
-0.000234261
-0.00287402
0.0619733
0.0582134
0.0160864
-0.0742998
0.0242749
-0.19208
0.167805
0.00928337
-0.013434
0.117252
-0.0196348
-0.0878985
0.238559
-0.150661
-0.123629
0.0491896
-0.00031477
0.00105379
-0.00437171
-0.150025
-0.0942377
-0.160078
0.00582629
0.154252
0.235943
-0.0900471
-0.145896
-0.442957
0.0146205
0.428337
-0.00309986
0.00360727
-0.00050741
-0.082202
0.10083
-0.0186285
0.00148542
-0.00329404
0.00379456
0.147054
-0.243071
0.0960167
0.250746
0.284208
-0.0189607
-0.103354
0.122315
-0.070226
-0.359969
-0.326029
0.132822
-0.0280574
-0.159102
-0.147604
0.203062
-0.0554576
0.0331835
0.128055
-0.0598065
-0.0438307
0.104617
-0.0607863
-0.0102033
0.0133293
-0.00312601
0.0975049
0.00287713
-0.326956
-0.119717
-0.0125341
-0.107883
0.000563264
-0.0864318
0.0858686
0.016444
-0.0142179
-0.0022261
-0.125294
0.114669
0.0749202
-0.0701527
-0.00476753
0.0289011
-0.12681
0.0979087
-0.00237503
0.235719
-0.0781309
0.0121386
-0.0365295
0.0392313
-0.00270189
0.0323897
0.177474
0.0649132
-0.264238
0.199324
0.06609
-0.030071
-0.036019
0.00421795
0.0627827
0.424372
-0.0430495
-0.000389438
0.000145242
-0.000207512
0.000207512
-0.0860157
-0.00208978
0.203235
0.195874
0.00614116
-0.00615424
1.30802e-05
-0.0103835
0.00806604
0.00231741
-0.0262009
0.141751
0.0298625
-0.447417
0.271509
-0.0483139
0.0449875
0.00332646
0.317631
0.158559
-0.0985716
0.0698686
0.028703
0.00354521
-0.00346798
0.0643331
0.0171235
-0.0814566
0.00188904
0.00632853
0.0225347
0.0874653
-0.11
0.00339436
-0.0030071
-0.000387261
-0.116668
0.0312266
-0.233444
0.199041
0.0344034
0.048637
-0.208715
0.00933387
-0.00979282
0.000458955
0.0369393
-0.0139672
-0.0229722
-0.000635102
-0.018967
0.00680335
0.140452
-0.0398564
-0.0587152
0.152493
-0.433473
-0.118676
0.0394307
-0.0206855
0.105292
-0.084606
-0.0910945
0.000386255
0.0893171
-0.419539
-0.119166
0.150366
-0.0311998
-0.0658806
0.0773535
0.00217601
-0.0173756
0.00960745
-0.000273584
0.00774297
-0.0101342
0.00239121
-0.0766236
0.118172
0.0596595
0.0887787
0.0954022
-0.0136926
0.124231
0.132453
0.162023
0.134279
-0.296302
0.231185
0.0884163
-0.319601
-0.00749184
-0.13331
0.140802
-0.0831812
-0.343342
0.0666094
0.276732
-0.112189
0.0915034
-0.168387
-0.158191
0.326578
-0.448283
-0.176025
-0.195107
0.401709
-0.206601
0.0111394
-0.00867004
-0.00246938
-0.0669295
0.210113
-0.412038
-0.0687568
0.480794
0.100787
-0.119748
0.00583908
0.1153
-0.121139
-0.307986
0.136324
-0.00448294
0.00124828
0.223952
0.045486
0.158833
0.116836
-0.275669
0.00697557
-0.105527
0.0985519
-0.00144427
-0.0862703
0.0877145
0.150747
-0.228661
0.148102
0.0805598
0.00916155
0.0657587
0.0681371
0.170424
-0.106937
-0.0634867
-0.0378572
0.00132777
0.10654
0.0638831
-0.0198221
0.0341688
0.0205208
0.0187883
-0.00975439
-0.0184496
0.028204
-0.0034787
0.00037884
-0.218284
0.000636036
0.0132657
-0.0832222
0.0104672
0.072755
-0.204864
-0.17348
0.378344
-0.000441069
0.00117768
-0.000736612
-0.151542
-0.18152
0.333062
-0.197174
0.403124
-0.20595
-0.101992
-0.0314757
0.133468
-0.465493
0.184241
-0.0861691
0.108793
-0.0226237
0.0145678
0.00187619
0.209657
-0.0146001
0.00484573
-0.177709
0.201984
-0.0294657
0.141039
0.0120069
0.0249324
-0.224109
0.397171
-0.173062
-0.00358073
-0.00217223
0.00575296
-0.132462
0.161229
-0.0287673
-0.11434
0.266079
-0.151739
0.328639
-0.188813
-0.139827
-0.00454216
0.235727
-0.0780277
0.0457396
0.0322881
0.0248758
-0.0532401
0.00545668
-0.00757854
0.00212187
0.109617
-0.0121118
0.00827974
-0.00231179
0.121604
-0.100632
-0.0209717
-0.143315
0.0678118
-0.0826766
0.0148648
0.00903939
-0.00129642
-0.0101188
0.0683322
0.0304967
0.045193
0.0248488
0.0666869
-0.0912818
0.117215
-0.0259335
-0.108263
0.161194
-0.052931
-0.0629566
-0.0150711
0.0613697
0.112773
-0.174142
0.0787675
-0.0220797
0.346608
0.122563
-0.46917
0.00492413
0.00121702
-0.0450513
0.170893
0.0806469
-0.0501502
0.114608
-0.117992
-0.052372
0.204506
-0.152134
0.0686721
-0.0536825
0.180878
0.146383
-0.327261
0.0138923
-0.0875517
-0.167914
0.0354524
0.203552
0.124989
-0.100036
0.107765
-0.102781
-0.00498405
-0.0297093
0.0754489
-0.0114767
0.046519
-0.0563535
0.00983449
0.000386603
0.00413012
-0.00451672
-0.269102
-0.232906
8.13731e-06
-0.000397575
-0.0858474
-0.202599
0.288447
0.0817081
-0.0744327
-0.00727538
-0.0814546
0.103989
0.0126134
0.171486
0.24926
-0.327827
-0.0700635
-0.109178
0.16336
-0.236983
-0.266693
0.152352
0.144828
-0.0315911
-0.113236
0.0683808
0.0133273
0.0680158
0.0366012
0.0413064
0.0247836
0.00487002
0.0924832
-0.0973532
0.432222
-0.236675
-0.195547
0.114318
-0.0208725
-0.093446
0.00353697
0.0426113
0.306619
-0.142541
-0.164078
0.0841843
0.0211073
0.0852959
0.0776715
-0.162967
-0.0134577
0.0157217
-0.00226401
0.0888712
-0.189444
0.100572
-0.00116499
0.000101936
0.00106305
-0.118091
0.464699
0.0659874
-0.0413837
0.0956238
-0.507661
-0.0526964
-0.0557842
0.108481
-0.21839
0.130491
-0.151424
0.143932
0.0202233
-0.139443
0.11922
0.148897
0.279498
-0.120665
0.42924
-0.270636
-0.158603
0.00502536
-0.045257
0.0047705
-0.0047705
0.152175
-0.109663
-0.0425117
-0.00806171
0.00448098
-0.216506
0.214131
-0.027926
0.129669
0.182852
-0.0281112
-0.0852145
0.0398901
0.0453245
0.00155654
0.00194746
0.124731
0.0274439
0.235069
0.131819
-0.366888
0.0568642
0.0234717
0.138233
0.0501656
-0.266671
-0.0308757
-0.127979
0.158854
0.00634333
-0.00695234
-0.0306831
-0.00139137
0.0320744
-0.0689021
0.070022
-0.00111987
-0.0276664
-0.0468086
-0.0279869
0.0528626
-0.176669
0.0565571
0.295856
-0.212539
-0.0833177
0.0534901
0.0252774
0.204535
0.0121284
0.0661554
-0.0782838
0.0336185
0.126316
-0.159935
-0.424009
0.294607
0.129403
0.00323021
0.0164825
-0.0197127
0.0205685
-0.0147658
-0.00580277
-0.221984
0.00754739
-0.00209072
0.131864
-0.122511
-0.100007
0.113411
-0.0134038
-0.0211219
0.0823053
0.0411562
0.0156454
0.0525522
0.025654
-0.0782061
0.530001
-0.326063
-0.203939
-0.453129
0.0533512
0.399778
-0.0109571
-0.00233803
0.0132951
-0.126375
0.266355
-0.140209
-0.137879
0.153679
0.229256
-0.093687
-0.135569
0.0379922
-0.044066
0.00607379
-0.0112147
-0.0738586
0.0850733
0.01825
-0.00040615
0.00313414
-0.00272799
0.0321671
-0.128671
0.079464
-0.0490581
0.165125
-0.0798287
0.377752
-0.0877501
-0.290002
0.171285
0.270651
-0.441936
-0.299561
-0.0914286
0.39099
0.0063473
-0.00666874
-0.000118178
-0.0878535
0.0710239
0.0168296
0.345231
-0.0959706
0.361425
-0.126356
-0.113327
-0.129686
-0.148406
0.278092
0.0264478
-0.12844
-0.128997
-0.0262835
-0.0148865
0.00518308
0.0159143
-0.0210974
-0.0321306
-0.0800583
-0.0427149
0.0739001
-0.0311852
-0.076964
-0.0108895
-0.139253
0.277236
-0.0790791
0.0161226
0.231536
0.0643202
-0.00363659
-0.0266137
-0.0566084
4.61751e-05
-0.00174587
0.00169969
-0.0116993
0.0621751
-0.0504757
0.0442578
-0.191862
0.120466
0.0243612
-0.0693514
0.0258086
0.0435427
0.0022753
0.000108985
-0.00238428
-0.0015934
-0.0999541
0.0629215
0.0370326
0.0837151
-0.0831519
-0.00673208
0.00746389
0.343453
-0.457503
0.0874845
0.00791767
-0.0373845
-0.00261792
0.103233
0.000135535
0.449042
-0.257974
0.125711
0.00234389
-0.00319737
0.00386965
-0.00067228
-0.0160692
-0.0240707
-0.0612714
0.0933139
-0.0320426
0.312129
-0.141301
-0.170828
0.0228573
0.136895
-0.159753
0.122555
-0.106002
-0.0165532
-0.0148042
0.0124301
0.147614
-0.199986
-0.0539911
-0.0276617
0.0816528
-0.139405
0.305397
-0.165992
0.0233045
0.0550311
-0.0844335
0.0294024
0.161452
-0.303994
-0.345687
0.205938
0.139749
-0.0752649
0.152092
-0.166052
0.023882
-0.16695
0.398525
-0.231575
-0.124117
0.185487
-0.179595
0.0508681
-0.00434912
-0.0859826
0.0949249
-0.00894233
-0.00466138
0.00536091
0.32871
-0.0109066
-0.0697565
0.0806632
0.317057
-0.162878
-0.154179
-0.0171438
0.00023923
-0.0777827
-0.102615
-0.00291651
0.105531
-0.304426
0.165022
-0.167948
-0.0845851
-0.021049
-0.0561021
0.104737
-0.0299834
-0.0747536
-0.10945
0.14085
0.00384649
-0.000628462
-0.00321803
0.0859886
0.0172442
-0.171316
-0.0851782
0.232233
-0.0337892
-0.000554984
-0.00303861
-0.093094
0.00215816
0.0909358
-0.436705
0.246985
0.18972
-0.0811458
0.0234577
0.0576881
0.243133
0.194123
-0.437256
0.107963
-0.137429
0.341626
-0.264932
-0.0766945
0.0566198
-0.081841
0.0252212
0.0024442
0.196998
-0.397255
0.200258
0.123842
0.153116
0.0672568
-0.0787904
0.0115336
0.221323
-0.0656778
-0.0067273
-0.0324608
0.0391881
0.0107025
0.000269792
-0.0109723
-0.0926497
0.107152
-0.0145019
-0.117968
-0.357085
0.0568701
0.300215
0.0936984
0.247928
0.248651
-0.366743
0.00942544
0.0640897
0.0195302
0.0589419
0.209989
-0.171357
-0.0386316
-0.00307923
0.00263817
-0.396205
0.136121
-0.177788
-0.135599
0.0177628
-0.0279851
0.136055
0.159829
-0.295885
-0.0151106
0.0113582
-0.223801
0.402449
-0.178648
0.000179352
-0.107799
0.10762
0.139247
-0.142652
0.294043
-0.151391
-0.28969
0.254907
0.034783
-0.182702
0.425835
0.00115336
0.00825535
-0.204381
0.0405519
-0.196142
-0.227867
-0.00888512
0.0492561
-0.0403709
0.125974
-0.000262596
0.471317
-0.252911
-0.218406
0.110886
-0.10391
0.0081179
0.128614
-0.1004
0.345912
0.0268117
0.210803
-0.11074
0.00812565
2.1496e-05
8.04397e-05
0.0774864
0.0113165
-0.088803
0.14843
0.136003
-0.284433
0.057621
0.0224228
-0.0261443
-0.0779457
0.10409
0.115532
-0.0228342
-0.0926978
-0.136631
-0.0294206
-0.0217282
0.111861
-0.0901324
0.0659595
-0.201428
0.10442
0.0970074
-0.121583
0.0209509
-0.203675
0.292092
0.141695
0.179555
-0.32125
-0.158632
0.336599
-0.177966
-0.0127798
-0.100586
0.113366
0.0782544
0.0582579
0.120004
-0.0117067
0.1218
0.14902
-0.27082
0.128979
-0.159854
0.02597
-0.00237554
-0.00751526
0.0098908
0.0447696
-0.0884943
0.271562
0.360531
-0.0905521
-0.269979
-0.115889
0.111081
-0.0457906
-0.0652909
-0.145152
0.0120758
-0.00039958
-0.0116763
0.317325
-0.180142
-0.137183
-0.124127
0.274168
0.0863629
0.0321494
0.0232262
-0.0553756
-0.00188031
-0.00048374
0.00236405
0.17615
-0.477381
0.0232869
0.149586
-0.172873
0.190242
0.212882
0.0211922
-0.102647
0.462536
-0.251591
-0.210946
-0.18689
-0.077852
0.264742
-0.0669948
0.0636997
0.00329505
-0.365426
0.46105
0.161332
-0.308328
0.146996
-0.409196
0.221373
0.187824
-0.105656
0.0513207
0.0543348
0.435976
-0.280346
-0.155629
0.285328
-0.137743
-0.147584
4.90646e-05
0.0252288
-0.0252779
0.0166225
-0.0694676
0.0528452
0.0398456
-0.0240283
-0.0759258
0.00443031
-0.00339592
-0.00103439
0.113457
-0.0821784
-0.0312781
0.180409
0.136917
-0.355951
0.100202
0.000123384
0.00464712
0.0367042
-0.223594
0.0342415
0.0852757
-0.0166144
0.10408
0.12666
-0.100212
-0.123534
-0.0303011
0.153835
-0.0851499
-0.126599
0.211749
-0.136954
0.0192546
0.177571
-0.206172
0.0286005
0.240038
-0.439256
0.199217
0.0819529
-0.0269218
0.0162533
-0.00330721
-0.0129461
0.127923
-0.0223536
-0.10557
0.155422
-0.454983
-0.0460363
0.039309
0.0305985
0.00573569
0.00340515
0.00589222
-0.00203456
-0.0139458
-0.0860609
0.262369
-0.460464
0.198095
-0.386409
0.135155
-0.00525285
0.418749
-0.413496
0.0216687
-0.45511
0.34193
0.11318
-0.243076
-0.046614
0.00429151
0.00345479
-0.0077463
0.0324213
-0.106863
0.0940833
-0.196875
-0.159076
0.0965456
-0.0916756
-0.0811984
0.0042344
-0.227868
-0.217295
0.0881557
0.0717043
-0.101531
-0.0497178
0.0592606
-0.0395157
-0.0197449
-0.101357
0.0843939
0.151549
-0.156845
-0.0378827
0.104927
-0.136402
0.425155
-0.210677
-0.214478
-0.00197537
0.0912505
-0.0892751
-0.171984
-0.0469019
-0.029901
0.056347
0.0216112
-0.0793481
-0.0198874
0.0992355
-0.288151
0.147619
-0.0267085
0.126334
0.00383535
-0.000904639
-0.00293071
-0.0201356
0.0186171
0.0669405
0.0167737
-0.0837142
-0.0982721
0.00517812
0.00119289
0.0108829
-0.192741
0.119141
-0.322817
-0.035309
-0.164588
0.199897
-0.00408413
-0.0515376
-0.305547
-0.126055
0.116835
0.0553767
0.0867592
0.1093
-0.00214889
-0.45227
0.17526
0.277011
-0.475815
0.2048
0.271016
-0.143828
0.234597
0.110625
-0.476051
-0.00697425
-0.0790083
-0.0101668
-0.00880022
-0.0791407
0.0693611
0.00977964
-0.285089
0.199241
-0.00917882
0.0107481
-0.00156929
0.0962742
0.0262811
0.273875
-0.45954
0.185665
-0.0758978
-0.0663365
0.448158
0.0178155
-0.465973
-0.0176207
-0.087023
0.104644
0.0475082
-0.202485
0.154977
0.15962
0.152509
-0.00362378
-0.000438688
0.00406247
-0.00769362
0.0015521
-0.000854412
-0.000697684
0.158157
-0.219721
0.061564
-0.00392199
-0.00673353
-0.118321
0.00376887
-0.00405253
0.000283655
9.32094e-05
-0.00371699
-0.458382
-0.114714
0.0929857
0.066572
-0.0777868
-0.196667
-0.190629
-0.21917
0.409799
0.00746195
-0.00401786
-0.0034441
0.133358
-0.218508
0.32368
-0.126461
-0.197219
0.0271949
0.0570703
-0.0842651
-0.029396
0.345211
-0.0965596
0.129891
0.0285732
-0.158464
0.450025
-0.138555
0.164524
-0.025969
0.0472944
0.0574425
-0.270892
-0.188648
-0.00220437
-0.000701072
0.00290544
-0.13838
-0.26137
-0.214446
-0.0854768
0.0168004
0.0686764
-0.0862415
0.100001
-0.01376
0.0555091
-0.108205
0.376473
0.0841493
-0.0265283
0.161805
0.0992938
0.00259547
-0.288802
0.147501
-0.119494
0.313135
-0.193641
0.054281
-0.00244387
-0.0518372
0.188921
0.216852
-0.405773
0.00195504
0.209947
-0.0766055
0.105507
0.0336433
-0.0453426
0.0185733
-0.0204581
-0.136574
-0.131781
0.141388
0.0834121
-0.197915
-0.147772
0.174339
0.00202834
-0.176368
-0.158407
0.0501437
-0.0796674
-0.0350202
0.114688
-0.234774
-0.186684
0.421458
-0.00215106
0.163778
-0.310308
0.146529
0.296903
-0.171085
-0.125818
-0.0802179
-0.0254377
-0.0261791
0.0740038
-0.0478247
0.0400007
0.0879223
-0.348801
0.471363
0.00806306
-0.000601104
-0.0979986
0.107716
-0.00971776
0.157783
0.123756
-0.100343
-0.0234123
0.140712
-0.289176
0.156534
-0.00106974
0.0431416
-0.0420719
-0.112891
-0.259777
0.140283
-0.129329
0.266913
-0.137584
-0.00372699
0.00324325
-0.154043
-0.119376
0.273419
0.319455
-0.200438
-0.119017
0.00122134
-0.171883
0.0333285
0.00067211
0.00030127
-0.00097338
-0.139673
0.0637748
-0.342178
-0.10078
-0.218276
0.408517
-0.00629422
0.172422
-0.144886
-0.0275362
0.155537
0.161519
-0.038865
-0.00944891
0.00160516
-0.00233117
0.000726015
0.323642
0.112333
-0.00090362
-0.00405102
0.00495464
-0.085404
0.00605587
0.208823
0.0559198
-0.264743
-0.253792
0.143579
0.110213
-0.0487113
-0.0333833
-0.0388701
0.327986
-0.289115
0.0590082
0.0148612
-0.0738693
0.110728
0.0196432
-0.368444
0.0804961
-0.0666038
-0.00609679
0.00360272
0.00249407
-0.0155706
0.264106
-0.10286
-0.161246
0.00309564
-0.00318051
8.48733e-05
-0.11758