/*--------------------------------*- C++ -*----------------------------------*\
| =========                 |                                                 |
| \\      /  F ield         | OpenFOAM: The Open Source CFD Toolbox           |
|  \\    /   O peration     | Version:  v2012                                 |
|   \\  /    A nd           | Website:  www.openfoam.com                      |
|    \\/     M anipulation  |                                                 |
\*---------------------------------------------------------------------------*/
FoamFile
{
    version     2.0;
    format      ascii;
    class       surfaceScalarField;
    location    "200";
    object      ddtCorrDdt0(phi);
}
// * * * * * * * * * * * * * * * * * * * * * * * * * * * * * * * * * * * * * //

dimensions      [0 3 -2 0 0 0 0];
oriented        oriented;


internalField   nonuniform List<scalar> 
51060
(
4.66259e-06
-2.26829e-05
1.80694e-05
2.40381e-06
6.69291e-07
-3.31119e-05
5.53593e-05
-2.22454e-05
2.52076e-06
-1.06448e-06
-1.45675e-06
4.44373e-08
-1.99329e-07
1.54877e-07
-1.72721e-06
-5.67569e-07
2.29659e-06
3.70505e-06
-3.57445e-06
-1.29817e-07
1.69875e-06
-1.33637e-06
-3.61631e-07
2.87426e-06
-1.1966e-06
-1.67784e-06
-7.57798e-05
-7.61897e-05
-1.13952e-06
-2.30435e-06
3.44205e-06
2.84172e-05
-7.49434e-05
4.65044e-05
-1.89276e-06
1.43161e-06
4.60692e-07
6.06127e-05
-5.9693e-06
-5.46364e-05
1.53049e-06
-4.30912e-07
-1.10002e-06
3.34828e-06
-5.92239e-07
-2.75762e-06
-2.00468e-05
2.27279e-05
-2.69888e-06
-8.92954e-05
6.50412e-05
2.42803e-05
-1.27354e-05
1.46867e-05
-1.94904e-06
1.55629e-06
9.65608e-07
-9.67552e-07
1.4046e-06
-4.37068e-07
2.05559e-06
-1.87838e-06
-1.76033e-07
-4.41681e-07
-1.76427e-06
2.20717e-06
-1.57156e-05
2.98161e-06
3.2074e-07
-4.69668e-07
1.48297e-07
2.56537e-06
1.73642e-06
-4.04173e-06
-3.06075e-06
4.72822e-06
-1.66675e-06
3.22659e-06
2.35068e-07
-3.4646e-06
1.98228e-07
2.18636e-07
-4.1757e-07
1.14246e-05
4.13579e-06
-1.55594e-05
-7.52659e-07
6.25352e-07
1.27588e-07
-9.42741e-08
-7.72295e-08
1.71642e-07
-2.71714e-07
7.98651e-07
-5.24889e-07
-5.84493e-06
2.61966e-05
-2.03513e-05
-7.2614e-06
-3.08861e-05
3.81318e-05
-0.000110849
0.000171087
-6.0287e-05
3.16514e-06
-4.78004e-06
1.6144e-06
1.12081e-06
-3.39159e-08
-1.08647e-06
1.59319e-06
1.27963e-06
-3.99361e-05
6.2716e-05
-2.27691e-05
-2.50884e-05
-2.38082e-05
4.88993e-05
4.82707e-05
-5.45311e-05
6.04073e-06
2.69502e-05
-3.42275e-05
-7.64936e-06
-0.000199389
0.000207027
3.61902e-07
1.16882e-06
-6.07774e-06
3.09665e-06
2.97993e-06
1.97817e-06
9.08211e-07
-2.88615e-06
-1.13731e-06
3.61528e-06
-2.47669e-06
2.00199e-07
-1.55801e-07
-7.97371e-07
3.20055e-06
-1.62038e-06
-1.2909e-06
2.91145e-06
2.54797e-05
-2.92978e-05
3.815e-06
1.1478e-06
4.50388e-05
-4.61957e-05
2.08434e-06
9.54326e-07
-3.03884e-06
-4.44039e-07
1.08788e-06
-6.42479e-07
-3.2339e-06
-5.36765e-07
3.77141e-06
-2.82688e-06
3.3126e-06
-4.85238e-07
1.93578e-06
1.13371e-06
-3.07013e-06
-2.2724e-06
2.84694e-06
-5.73935e-07
5.71952e-07
2.85142e-07
-8.57767e-07
7.20805e-08
6.7638e-07
-7.48406e-07
3.14381e-07
-2.79156e-07
-3.51193e-08
6.65027e-05
5.38019e-05
-0.000120221
2.77109e-07
-5.1322e-09
-2.72092e-07
-1.03119e-05
-4.30891e-05
5.34026e-05
8.71357e-05
-0.000103322
1.63339e-05
0.000115672
-2.86934e-05
-1.47475e-08
-7.90414e-08
6.95384e-07
1.29029e-07
-8.25395e-07
-2.01345e-06
3.33981e-06
-1.32892e-06
1.03537e-06
8.53232e-08
-0.000150278
0.000135305
1.4971e-05
-3.09888e-07
5.63171e-07
-2.5316e-07
1.83497e-07
-6.37193e-07
4.53822e-07
2.16093e-05
-8.8882e-05
6.73337e-05
-5.9926e-06
1.68708e-06
4.30722e-06
-1.52746e-06
3.00711e-06
-1.48198e-06
-7.58309e-05
-6.33343e-06
8.21607e-05
1.78818e-06
-2.51109e-06
7.24602e-07
6.88186e-05
4.14764e-05
-0.000110264
-5.32425e-07
2.22452e-07
-2.46609e-06
2.49895e-06
-3.24682e-08
-4.89814e-06
4.42621e-06
4.723e-07
3.35467e-05
-8.06383e-06
1.2008e-05
-3.73943e-05
2.53873e-05
-2.78243e-06
1.16162e-06
1.00263e-07
-1.34779e-06
1.24343e-06
-3.17301e-07
-1.93224e-07
5.10863e-07
-1.80049e-05
-4.66042e-05
6.46114e-05
1.07467e-05
7.67902e-06
-1.84258e-05
9.23571e-06
-1.0857e-05
1.61784e-06
2.20857e-05
-4.3167e-05
2.10726e-05
-1.98718e-06
1.03101e-06
9.54581e-07
-1.03909e-05
-2.52379e-06
1.29152e-05
-0.000126146
3.57012e-05
9.04407e-05
-4.86571e-06
4.16804e-06
6.98764e-07
-1.83212e-05
-1.00822e-05
2.84017e-05
6.92399e-05
-0.000125287
5.60479e-05
1.60539e-08
-9.71013e-08
8.24567e-08
-3.76509e-06
-7.4625e-07
4.50968e-06
-9.73798e-07
2.46279e-07
7.27248e-07
2.26556e-05
-1.79945e-05
-6.36048e-05
2.36675e-05
0.000111015
-7.32259e-05
-3.77804e-05
-3.81081e-06
4.06762e-06
-2.58935e-07
-2.22136e-07
-1.16282e-07
3.38151e-07
-6.59691e-09
-1.81086e-07
1.87553e-07
7.27852e-05
-3.88394e-05
-3.39496e-05
7.29271e-06
1.53661e-05
-1.12696e-06
-3.90811e-07
-9.23136e-05
6.66178e-05
2.567e-05
1.31284e-09
-4.26409e-06
1.92443e-06
2.34018e-06
-2.80299e-05
8.86362e-05
0.000127024
-0.000134673
-3.59079e-06
-1.27686e-06
1.51026e-06
-1.82833e-07
-1.32743e-06
1.00724e-08
6.00797e-07
-6.10987e-07
1.02747e-06
2.27028e-06
-3.29907e-06
0.000107816
-6.24605e-05
-4.53654e-05
-1.4333e-06
4.65804e-07
5.7835e-06
-3.45364e-06
-2.33111e-06
1.98997e-05
-0.000140844
0.000120814
-2.58987e-06
9.26625e-07
1.66507e-06
8.7994e-05
-8.57607e-07
-1.03583e-06
-3.61062e-05
-3.96624e-05
7.57593e-05
7.93974e-07
-2.08941e-08
-7.73189e-07
7.82537e-06
6.16016e-05
-6.94288e-05
-8.53487e-05
9.5151e-06
0.000117665
-7.25874e-05
-4.5079e-05
-1.63165e-05
-4.11665e-05
5.74947e-05
1.08932e-07
5.50423e-08
-1.65319e-07
-5.60365e-05
3.77148e-05
-6.42022e-08
8.5839e-07
1.22964e-06
-9.54e-07
-2.75268e-07
2.89552e-06
-2.35733e-06
-5.39723e-07
0.000159429
-0.000103186
-5.62598e-05
1.44283e-05
-3.21378e-06
-1.12191e-05
1.60919e-05
-5.58429e-06
2.04317e-06
-2.02883e-06
-1.41178e-08
4.39792e-06
7.46793e-07
-5.14386e-06
2.87564e-05
1.89062e-05
-4.76772e-05
-1.97676e-05
0.000108602
-8.88149e-05
-9.09548e-07
-1.98515e-06
2.89346e-06
-8.64931e-07
1.1213e-07
2.76419e-06
-5.3379e-07
-2.23137e-06
3.11252e-06
-1.17701e-06
-7.57185e-05
5.08427e-05
2.48724e-05
4.44019e-06
-1.18849e-05
7.43598e-06
3.21069e-06
-4.79605e-06
1.58838e-06
2.23711e-05
-6.89979e-06
-1.54729e-05
-6.89215e-06
2.16373e-06
4.72915e-06
-1.84934e-06
5.01507e-06
-2.92378e-07
-6.81277e-07
-7.15594e-05
0.000138333
-6.68826e-05
1.02123e-06
-3.07516e-06
2.05462e-06
9.69706e-08
-3.90796e-06
-8.61209e-05
0.000162675
-7.65374e-05
1.24211e-06
-3.25475e-06
-1.65328e-06
1.00958e-06
6.45782e-07
1.73332e-07
-1.89956e-06
-1.75038e-05
-1.17902e-05
-2.44488e-06
-1.95872e-06
4.40378e-06
4.63604e-05
-6.26672e-05
-8.25541e-06
2.17951e-06
6.07778e-06
2.0625e-06
-3.59366e-06
1.95124e-05
7.03673e-06
-2.65474e-05
-7.90341e-07
3.03951e-06
-2.24568e-06
-2.4756e-06
-7.59156e-06
1.00679e-05
-8.9626e-07
2.87473e-06
7.51821e-07
-2.51834e-08
-7.26314e-07
1.00671e-06
-4.34887e-07
-2.27975e-07
-8.98312e-08
3.18948e-07
-3.83198e-06
-2.24568e-06
2.8851e-05
7.92616e-06
-3.67741e-05
3.41597e-06
-5.86074e-06
-6.88906e-07
4.61339e-07
-2.51581e-06
2.96335e-06
-4.46158e-07
4.87614e-06
-4.77283e-07
-5.43324e-07
3.41163e-08
5.10139e-07
-6.72731e-06
-3.96637e-06
1.06824e-05
-1.31609e-08
3.27424e-07
9.5779e-06
4.85132e-06
2.20347e-06
-3.59424e-07
-1.84342e-06
-5.18051e-05
-2.39138e-05
-5.99177e-05
-3.23393e-05
-1.07765e-07
-1.04758e-06
1.15546e-06
3.82068e-05
-5.87066e-05
2.05738e-05
-2.32478e-05
7.67958e-06
-3.60254e-05
2.83526e-05
7.66878e-07
1.35815e-06
-2.12046e-06
-4.15737e-06
-7.40285e-07
-4.75468e-05
4.21199e-05
5.42846e-06
5.74862e-07
2.77453e-06
-3.71594e-05
-9.67081e-06
4.6833e-05
1.34278e-06
-4.99529e-07
-8.43577e-07
1.73228e-06
-7.55905e-07
-9.75901e-07
1.45235e-07
2.16582e-06
-2.31081e-06
3.37124e-07
-6.00073e-08
-0.000122448
4.04002e-05
8.20095e-05
5.97698e-05
4.80217e-05
-2.39841e-06
6.13494e-07
1.78434e-06
-6.22475e-05
6.95952e-07
-4.6169e-07
-2.35893e-07
4.84845e-07
2.27716e-06
7.9038e-05
-9.34238e-05
1.43756e-05
9.68409e-05
-8.85925e-05
-8.23661e-06
-1.26246e-06
-8.23112e-07
2.0854e-06
2.74944e-06
-1.17622e-07
-2.62915e-06
5.65295e-06
2.72822e-07
-5.9238e-06
6.68586e-08
-2.45852e-07
1.79517e-07
5.13199e-07
-1.42677e-06
9.14603e-07
-1.235e-06
-1.12802e-06
2.36235e-06
-1.28853e-07
-5.58988e-07
5.89379e-06
-2.88658e-06
-3.00625e-06
9.97903e-06
3.50624e-05
-4.50381e-05
-2.03232e-06
3.4803e-06
-1.44785e-06
9.02179e-08
-1.86602e-07
-7.22918e-06
-1.61778e-05
2.33925e-05
1.45962e-06
-2.52373e-06
-2.18755e-05
4.37494e-06
1.15776e-06
-1.0022e-06
-1.56086e-07
1.64622e-06
-2.18924e-06
5.42915e-07
-2.99116e-06
2.20363e-06
-7.53261e-06
-4.26495e-05
5.01765e-05
-4.31788e-06
3.31702e-05
-4.25539e-06
8.1977e-07
3.43971e-06
5.63386e-05
-7.43431e-05
4.97527e-05
2.30311e-05
5.45424e-07
-3.0124e-06
-1.77869e-05
8.51545e-06
9.27233e-06
4.76296e-07
2.21761e-07
1.96256e-06
-2.07474e-06
1.08881e-07
4.97373e-06
-1.16993e-05
-8.1349e-07
5.86024e-07
2.27203e-07
2.0438e-05
5.6868e-05
-7.73035e-05
2.98552e-06
-2.01487e-06
-9.70826e-07
3.20626e-05
1.45376e-06
1.5308e-06
-3.33868e-06
4.09185e-06
-7.55051e-07
-1.50287e-06
6.30812e-07
8.71987e-07
4.89307e-06
-3.09761e-06
-1.79752e-06
7.44905e-05
4.54158e-06
-2.166e-05
-1.02006e-06
-3.05858e-06
1.88734e-06
1.17016e-06
-1.9541e-06
8.77644e-06
-6.8195e-06
-6.55102e-06
2.32743e-06
4.21861e-06
-7.07211e-05
-1.77033e-05
8.84222e-05
1.64546e-06
2.73753e-06
-4.37982e-06
7.49203e-05
-2.28311e-05
-5.20718e-05
-6.74616e-07
4.20933e-07
2.54247e-07
-2.55287e-06
2.51213e-06
4.07463e-08
0.000110145
4.93329e-05
6.38338e-07
-1.90272e-06
-0.000143668
3.28056e-05
2.12545e-05
4.28532e-06
-2.55401e-05
8.23781e-07
-7.29407e-07
1.05586e-06
-3.27432e-07
1.80627e-07
-1.35288e-07
-4.5243e-08
-2.96467e-06
2.05521e-06
-2.12177e-06
8.87179e-07
7.99584e-06
-8.24866e-07
2.02988e-06
1.43115e-06
-3.46157e-06
-4.67169e-07
-5.88925e-08
5.25584e-07
0.000140913
-0.000120889
-1.75181e-06
-4.80244e-06
-1.88177e-06
3.52711e-06
-4.39371e-06
-2.20224e-06
6.59417e-06
1.31152e-05
-1.89676e-05
5.85194e-06
5.22173e-07
2.22789e-06
1.4357e-08
4.31921e-07
-4.46337e-07
9.26024e-07
-2.95821e-06
2.00499e-07
9.55669e-07
-1.15618e-06
-3.28607e-06
3.39206e-06
-1.08e-07
3.91601e-05
-4.88313e-05
-6.79249e-07
4.34838e-07
2.44451e-07
-5.53838e-06
9.92491e-07
4.54874e-06
-0.00010864
-6.13934e-07
9.48699e-07
-3.33326e-07
-9.49621e-05
6.02685e-05
3.46945e-05
-6.45271e-07
1.02283e-07
-3.76854e-06
4.28607e-07
2.00665e-06
7.29331e-05
-9.67195e-06
7.72057e-06
3.49517e-08
1.222e-06
-1.25695e-06
-7.62404e-07
6.44205e-07
1.1809e-07
1.13718e-06
-1.24503e-06
-2.74793e-07
2.48198e-07
2.62902e-08
-4.48231e-06
1.52308e-05
2.38181e-05
-4.54023e-05
2.15828e-05
-2.48862e-05
4.83398e-06
3.33934e-07
-5.87256e-06
-6.30175e-06
3.66017e-06
2.63917e-06
1.54014e-06
-3.18909e-06
1.64799e-06
-6.07098e-05
6.27644e-05
-2.03392e-06
-2.09525e-07
-1.46074e-08
2.24214e-07
8.82281e-07
-1.34374e-06
4.62278e-07
-1.45793e-06
-6.79692e-06
-2.10199e-06
-9.57619e-07
6.4398e-05
-2.61869e-05
2.18663e-06
4.52915e-07
-2.64145e-06
-6.20905e-07
4.23072e-06
4.47514e-08
-4.28007e-06
-3.00383e-06
4.90836e-07
-2.56224e-06
2.66926e-07
2.29649e-06
-1.48615e-07
-4.10642e-06
5.65727e-06
-1.37797e-06
-4.28128e-06
1.29464e-06
-7.81181e-07
-1.45649e-06
2.22446e-06
-3.16895e-06
2.45234e-06
7.15068e-07
3.01122e-06
-2.10315e-06
4.11497e-05
-6.07692e-05
1.96189e-05
3.91092e-06
3.19597e-07
-1.58407e-05
2.13242e-06
1.37141e-05
-0.00028222
0.000167674
0.000114544
4.44959e-06
1.66925e-05
-2.11424e-05
-6.8862e-08
-4.89513e-07
5.57942e-07
-4.57183e-05
-0.000111303
0.000157024
-4.86272e-06
1.32703e-07
4.73722e-06
1.20076e-05
-1.03762e-05
-1.63106e-06
-2.14187e-06
8.21382e-08
-5.52632e-06
1.47595e-05
-1.86649e-07
-4.87673e-07
5.542e-07
6.75538e-07
9.11351e-07
1.24495e-06
-2.15722e-06
6.43112e-07
-1.07429e-06
2.28497e-06
3.37104e-06
5.54644e-06
-3.44399e-06
-2.10378e-06
0.000104318
-3.54756e-05
-1.77121e-05
-2.75843e-05
4.5287e-05
-7.86521e-05
7.26807e-05
5.94482e-06
-3.75227e-06
-1.20918e-05
-1.2032e-06
2.49526e-07
2.07376e-06
-1.11599e-07
7.82757e-05
-4.9868e-05
-9.21958e-07
1.00474e-05
-9.13248e-06
6.67079e-06
-1.40549e-05
7.38175e-06
-3.35906e-05
-8.88776e-05
-1.26098e-05
3.07427e-05
-1.81303e-05
-2.18755e-07
-5.94824e-07
-7.69497e-07
2.30831e-06
-5.14444e-07
4.68887e-08
8.20842e-05
-0.000103823
2.17521e-05
-1.60659e-07
-4.87316e-08
-1.57976e-06
4.24198e-06
-2.6695e-06
-4.9472e-05
6.99232e-05
-2.04485e-05
1.49793e-06
-9.58191e-07
-5.39661e-07
-1.92526e-06
3.36982e-07
1.36228e-06
-1.22088e-06
3.5511e-08
1.18709e-06
-2.75288e-05
4.76057e-06
2.27604e-05
-2.81143e-06
1.67296e-06
-2.69019e-06
-2.4577e-07
2.93742e-06
1.30233e-06
3.82258e-06
6.12082e-07
-4.43668e-06
-4.61562e-05
2.23484e-05
3.3277e-07
-9.19077e-08
-2.40896e-07
3.01161e-08
-4.8927e-06
3.1996e-06
-2.39569e-06
-8.0207e-07
4.74253e-07
-2.75701e-07
-1.99625e-07
4.24154e-05
-7.1597e-05
-2.94735e-07
-7.37489e-07
1.03275e-06
1.97218e-06
2.01971e-06
-3.9944e-06
4.37569e-07
-1.05852e-06
6.20752e-07
3.7323e-06
1.75239e-05
-0.000168279
8.21857e-05
-3.87505e-06
2.29293e-06
1.58557e-05
-7.07495e-06
-8.7792e-06
4.03561e-06
-2.13757e-07
-0.000106143
4.22566e-05
6.3889e-05
-3.45304e-06
8.1214e-07
2.63995e-06
1.84195e-06
-2.7372e-06
-8.28194e-07
1.51787e-06
-6.89793e-07
3.79764e-05
1.01157e-05
9.63676e-08
2.36287e-07
-8.63121e-07
2.50069e-07
-7.05868e-07
-6.37854e-07
3.38302e-05
-5.66037e-05
2.27795e-05
1.49803e-06
1.24797e-08
2.15082e-05
-1.67399e-05
-4.73355e-06
-1.69772e-06
-4.29418e-06
-6.87264e-05
0.000179761
-2.38805e-06
-1.64928e-07
4.96701e-05
-7.77062e-05
3.4209e-06
1.16621e-06
-4.58715e-06
6.46558e-07
-3.38324e-06
2.73596e-06
4.67506e-06
5.27431e-07
-5.20317e-06
-4.25667e-06
4.11031e-06
1.57735e-07
2.29421e-06
6.86884e-07
-6.20042e-07
3.84269e-07
5.2697e-06
-3.68586e-06
8.48066e-06
-4.78638e-06
-2.51649e-05
4.45629e-08
2.51169e-05
-1.93575e-06
3.16772e-06
-1.236e-06
2.95365e-07
-2.86902e-07
-8.54489e-09
-2.92978e-05
1.93331e-05
9.93077e-06
3.36433e-07
-3.49579e-07
-2.63247e-07
-2.16478e-09
2.6622e-07
5.38885e-07
-1.6685e-06
-2.49822e-06
-6.07474e-07
3.10381e-06
-6.08899e-07
4.02815e-06
-5.94082e-08
-3.18115e-06
3.24181e-06
5.3219e-08
-1.20363e-06
1.1491e-06
2.37834e-05
-1.06688e-05
-1.52826e-06
4.96718e-06
-3.44022e-06
-4.78155e-05
1.52727e-07
2.78037e-08
-2.03601e-06
2.88951e-06
-8.53054e-07
2.40231e-05
1.51609e-05
-3.91812e-05
2.40215e-06
-1.77306e-06
-6.33078e-07
4.47232e-05
-2.09077e-05
4.34801e-06
9.46736e-07
-5.29263e-06
3.4107e-06
8.38378e-07
-4.24965e-06
8.04031e-06
2.05887e-06
-2.8289e-06
4.95133e-07
-4.01625e-06
3.52013e-06
9.82336e-07
-1.11867e-06
1.35721e-07
3.33673e-05
-2.13582e-05
0.00010692
-5.43736e-05
-5.25469e-05
1.33796e-06
-4.38425e-06
3.04723e-06
5.7626e-05
-4.02466e-05
-1.73799e-05
-2.73262e-06
-1.29818e-05
-4.25652e-05
8.02687e-06
3.43859e-05
-2.38219e-05
-6.14513e-06
2.99676e-05
-1.57686e-07
-1.09458e-07
2.67286e-07
-6.71676e-05
1.76983e-05
-7.47616e-05
-3.89025e-06
-1.66698e-05
5.78185e-05
-1.20916e-07
-2.21693e-06
2.3389e-06
1.94697e-06
-7.07551e-08
-1.87674e-06
2.83966e-06
-4.53352e-05
5.10059e-06
-1.60185e-06
-3.49856e-06
-2.88605e-07
-3.96659e-06
6.95385e-07
2.15129e-06
-2.84641e-06
-3.00008e-06
3.11181e-07
1.82332e-05
-2.39254e-05
5.69875e-06
5.92422e-06
-7.02684e-07
-5.22149e-06
-6.42808e-05
-1.06574e-05
1.30163e-05
-2.55196e-06
-1.04642e-05
-8.27963e-07
2.88903e-06
2.84558e-07
7.07501e-07
-9.92002e-07
7.31188e-05
-5.7111e-05
-1.5993e-05
6.53878e-07
2.24853e-08
-1.36319e-06
1.10499e-06
2.58213e-07
-2.56977e-06
-5.78417e-07
3.14996e-06
-4.81057e-06
2.92748e-06
1.23166e-06
1.66234e-06
0.000147471
-0.000105899
-4.16291e-05
0.000101523
-4.75789e-05
4.70496e-06
-7.76549e-06
2.82472e-06
4.9466e-06
2.49171e-05
-4.26299e-05
-8.51799e-07
-8.00294e-07
-2.88109e-05
-2.57161e-05
-6.14417e-07
-2.84073e-06
-5.46583e-07
1.18149e-06
-6.35111e-07
1.75566e-06
-2.1973e-06
2.12503e-05
-2.54694e-05
4.20258e-06
5.09518e-06
1.25524e-05
-8.32728e-05
2.44609e-06
-1.06234e-06
-1.38657e-06
5.10292e-06
5.54318e-07
7.9762e-07
-1.35105e-06
1.24398e-08
4.60077e-07
-7.30121e-05
6.13073e-06
6.68849e-05
0.000104042
-2.19344e-05
0.000161035
-2.57363e-05
3.63487e-07
1.13522e-06
-3.35583e-06
-9.07074e-07
7.46268e-07
-8.43553e-07
9.75018e-08
-5.53079e-06
4.31124e-06
1.21665e-06
-3.48579e-06
6.59431e-07
4.48432e-05
-5.2376e-05
0.000125951
-7.53652e-05
-5.05943e-05
2.81172e-05
-3.84285e-05
4.36596e-06
-8.05064e-06
-6.51461e-05
0.000114817
4.40534e-07
-2.84801e-07
-1.55673e-07
-1.62131e-06
-1.47711e-06
3.10013e-06
-1.27117e-07
-3.37404e-07
4.63944e-07
-9.58675e-07
2.74816e-06
-1.63432e-05
-8.98054e-05
1.54898e-06
2.13227e-06
-3.68147e-06
-9.41747e-05
2.37133e-05
7.04557e-05
1.29891e-07
-1.36608e-07
3.02463e-06
-1.27712e-06
-1.75052e-06
-5.73362e-05
0.000108175
-5.08405e-05
-6.54779e-07
-7.08646e-07
1.76887e-06
-3.06135e-06
6.05349e-05
-2.25061e-05
-3.80306e-05
-9.24398e-06
4.84041e-05
5.9771e-05
-1.14638e-05
-4.83126e-05
2.78e-05
3.27384e-05
6.90248e-07
-9.84671e-07
-1.48676e-06
1.06049e-06
4.27282e-07
1.23184e-05
4.53072e-05
-3.53282e-06
-1.27778e-06
6.2056e-08
-3.36702e-07
-1.23016e-06
3.32371e-06
-2.09306e-06
1.23728e-06
4.68781e-06
-5.81856e-06
-3.63633e-05
4.21856e-05
7.454e-05
-3.21242e-05
-3.24906e-06
2.41867e-06
-1.13342e-06
-1.06597e-08
1.13874e-06
9.56898e-07
-9.03957e-07
2.58504e-06
2.51546e-06
-3.3535e-07
2.43414e-07
6.79872e-06
-1.98082e-06
-4.8195e-06
2.57319e-05
-1.41755e-06
-2.43335e-05
-1.17328e-06
7.94503e-08
1.09349e-06
-6.58012e-06
3.53851e-06
3.0386e-06
1.79513e-06
-3.41848e-06
-3.09527e-06
1.86409e-06
-3.7733e-05
2.51258e-05
-6.60998e-06
2.72518e-06
3.88289e-06
9.40869e-06
-4.97221e-06
1.94994e-06
1.02539e-07
-2.05084e-06
0.000104345
-1.98645e-05
-8.44682e-05
-8.78884e-07
2.43555e-06
-2.76412e-07
-5.8866e-08
-3.2126e-06
7.13599e-07
-5.05479e-07
-9.05989e-07
1.41354e-06
4.12398e-05
-5.4687e-05
1.34409e-05
5.49027e-06
-5.22715e-07
-4.96683e-06
4.65804e-05
2.65266e-05
-6.75262e-07
5.53895e-07
1.21453e-07
2.17274e-06
-5.26182e-07
1.96291e-05
-3.62054e-05
1.65727e-05
-3.02399e-06
8.59867e-06
-5.57675e-06
-1.16591e-06
3.24986e-06
-1.25827e-06
-6.50563e-06
4.79042e-05
-4.6167e-07
2.28849e-06
-1.82749e-06
1.98284e-06
1.44989e-06
-3.43281e-06
0.000144341
-4.69916e-05
-9.73553e-05
3.70809e-06
3.93811e-06
-1.39016e-06
-2.54356e-06
-1.97834e-06
-1.76951e-06
3.74711e-06
-1.07087e-07
8.41383e-07
-7.34049e-07
3.10212e-05
-2.30447e-05
-7.98791e-06
5.2466e-08
-1.505e-06
1.45254e-06
9.66239e-06
1.18493e-05
2.30502e-07
-3.57477e-07
-7.92264e-07
-1.7972e-06
-1.94435e-06
-4.53842e-07
3.03154e-07
7.68955e-05
7.05645e-05
-1.97229e-06
1.32864e-06
6.4329e-07
-9.03746e-07
4.12886e-06
2.9291e-05
-3.55787e-06
5.14853e-05
-2.05708e-05
9.09811e-07
1.49027e-06
-1.95218e-06
-2.82289e-05
3.01807e-05
-4.4089e-05
1.09783e-05
-3.34414e-06
7.73897e-07
-1.63512e-06
-8.7446e-07
6.3272e-06
-8.13528e-06
1.80681e-06
-0.000151575
-0.000130628
-8.39818e-07
-1.13301e-06
-2.81402e-05
7.61398e-07
-2.9748e-07
-4.64406e-07
9.47054e-05
-0.000145579
5.09374e-05
1.85947e-05
3.77673e-06
1.9967e-05
-1.88423e-05
-1.12584e-06
2.32917e-06
1.61265e-06
2.67906e-06
-1.28679e-06
-1.3914e-06
3.57656e-06
-1.01838e-07
-3.47566e-06
2.05158e-07
7.21179e-07
-9.26442e-07
-2.22013e-06
2.09961e-06
2.57763e-05
7.10648e-05
6.5272e-07
2.54712e-06
-2.54956e-06
4.87161e-06
-3.09844e-06
-1.89752e-07
-6.57512e-05
-2.57743e-05
9.15029e-05
-1.7769e-06
1.82934e-06
2.17574e-06
-1.97887e-06
-2.00226e-07
3.17182e-06
-2.52516e-06
-6.58431e-07
-1.32642e-06
2.13005e-06
-4.68252e-06
5.75221e-06
-5.63701e-07
7.68531e-07
-2.02508e-06
-1.84115e-06
3.86973e-06
2.64902e-05
-8.25038e-05
5.60088e-05
-2.13437e-06
1.47662e-06
-2.08361e-05
-7.41272e-05
-1.14023e-06
-7.81993e-06
8.96318e-06
-2.00078e-05
2.90556e-05
-9.06297e-06
-2.7618e-06
1.3746e-06
1.38653e-06
1.93947e-06
1.15878e-05
-1.35233e-05
-7.98486e-07
-4.2125e-07
1.21993e-06
-2.12679e-06
-1.90283e-06
4.03054e-06
-1.00358e-06
-2.16563e-07
7.23413e-07
6.37426e-07
-1.36023e-06
-3.68467e-07
2.33598e-06
-1.96728e-06
-1.31039e-05
3.27341e-05
2.09336e-06
-4.07191e-06
-1.91613e-05
-0.000180235
-1.78538e-07
-4.96609e-07
4.40958e-05
-6.41009e-07
-2.23459e-07
-3.77634e-05
-3.34565e-05
7.12385e-05
-4.10514e-07
1.87796e-07
3.39377e-07
1.60695e-06
-0.000145766
0.000107457
3.83024e-05
3.4161e-06
-2.92091e-06
-1.30731e-06
-5.54911e-05
4.0479e-05
1.50417e-05
9.54874e-06
-5.74244e-06
-3.80023e-06
2.73188e-06
-2.22887e-07
-1.12233e-07
3.34984e-07
3.28824e-06
1.27171e-06
-4.55858e-06
9.03546e-07
-2.84273e-06
2.49799e-07
-2.49981e-07
-2.37038e-06
1.54763e-06
1.94331e-05
-2.92363e-05
9.80518e-06
-1.96574e-06
-3.56599e-06
7.24795e-06
-9.21007e-07
4.45467e-06
-1.53919e-07
3.51941e-07
2.6813e-07
-3.3712e-07
4.14081e-07
3.16182e-06
2.48894e-06
-4.51215e-06
8.01849e-06
-9.15724e-06
-1.20566e-06
-1.98399e-06
-4.90999e-06
7.43705e-05
-5.81676e-05
-1.62033e-05
2.34247e-06
-2.74558e-06
4.03518e-07
-5.66476e-06
-1.14664e-05
1.7146e-05
-1.03476e-06
-5.84392e-06
3.71813e-06
-8.53891e-05
0.000148763
-6.33632e-05
-4.9452e-05
-3.93651e-05
1.24649e-05
3.63954e-05
-4.37242e-07
2.3925e-07
1.97977e-07
-1.90145e-06
8.61622e-07
1.0387e-06
1.11009e-05
9.32951e-05
-1.07179e-06
1.27232e-06
4.40539e-06
-3.4974e-06
-9.06906e-07
-2.85482e-05
-5.73601e-05
8.59137e-05
4.02274e-06
-3.51513e-07
3.56423e-06
3.01036e-05
-8.85336e-06
2.15564e-06
1.01667e-06
-7.02696e-05
4.70499e-05
2.32085e-05
-9.08184e-07
-1.46507e-06
-2.7929e-07
1.89745e-07
5.50344e-06
2.75217e-06
-8.25467e-06
6.12673e-05
6.46849e-05
-4.54341e-07
-1.21728e-06
1.67012e-06
-4.9148e-05
-4.50286e-05
-2.83886e-07
-1.65754e-06
1.94232e-06
-9.80065e-07
-2.04708e-06
3.02679e-06
-8.67373e-07
1.89673e-06
1.42186e-06
7.46713e-07
3.38502e-06
6.86945e-07
-4.07345e-06
1.13305e-06
9.22473e-07
0.000152245
-5.75181e-05
2.2683e-05
-1.89496e-05
-4.19604e-05
0.000101765
-2.08879e-06
2.35731e-06
1.09114e-06
6.41431e-07
3.04059e-05
1.73585e-05
-4.77676e-05
-1.62944e-05
7.90551e-05
-3.97774e-05
-3.04911e-05
1.72932e-07
-1.73057e-07
8.27468e-11
8.16672e-06
-2.66871e-06
2.23968e-06
-1.21724e-06
-1.02178e-06
7.95794e-06
-1.37306e-06
-6.58312e-06
5.26649e-05
-2.10592e-05
-3.16141e-05
-2.13912e-07
5.62822e-08
-3.85886e-07
2.37758e-06
-1.99122e-06
6.44203e-07
3.42551e-05
-4.35001e-05
-9.3316e-07
1.01008e-06
-7.61077e-08
6.64923e-07
-2.10621e-06
1.44403e-06
-1.48588e-06
4.88576e-07
9.97545e-07
9.13293e-07
-9.26472e-07
-1.33079e-06
3.31446e-06
-2.55805e-06
-7.98279e-07
3.35796e-06
7.39712e-06
-9.08277e-06
1.67974e-06
2.26309e-05
-6.03848e-05
6.25552e-06
-3.13415e-07
-5.93849e-06
9.76031e-07
3.6623e-07
4.11395e-06
1.6698e-06
2.45798e-06
-2.87868e-06
4.22653e-07
3.22197e-06
3.20844e-07
-3.54444e-06
0.000104103
-3.76653e-05
-6.64827e-05
9.26802e-08
-2.60184e-07
1.66722e-07
-2.00296e-06
-3.45708e-07
2.34794e-06
1.99969e-06
3.49419e-06
-1.33172e-06
3.126e-06
1.21111e-06
-6.12851e-07
-5.98562e-07
-6.28774e-05
2.68661e-06
6.02052e-05
3.26652e-06
-1.9391e-06
-1.0497e-06
2.24076e-07
-2.31263e-06
7.60521e-07
-1.37062e-06
6.1002e-07
-2.17016e-06
-7.76006e-08
2.24807e-06
-0.000162183
0.000171193
-8.96373e-06
9.41919e-06
-3.07971e-05
2.1379e-05
6.06e-06
1.8981e-06
8.9252e-07
-1.34686e-06
2.1411e-05
1.90612e-06
-2.36746e-06
-5.20982e-07
-3.89926e-08
1.04968e-06
2.41299e-07
-1.45605e-07
8.64634e-06
-1.11209e-05
2.35644e-06
5.01386e-07
-2.85739e-06
-1.87278e-07
9.08392e-07
1.60259e-06
-1.26525e-06
6.4424e-07
-3.20312e-06
6.12416e-06
-4.01045e-06
-2.1152e-06
-2.60008e-06
9.63074e-07
5.89164e-05
-2.83901e-05
-3.05285e-05
-5.54761e-07
2.91081e-06
-1.50419e-06
-3.50312e-06
5.00665e-06
5.79945e-07
4.04209e-06
1.5041e-06
-6.11001e-05
-2.32115e-05
8.43147e-05
5.33702e-06
-7.05591e-07
-4.63532e-06
1.16985e-06
-3.15244e-06
1.98489e-06
-1.16441e-06
-1.07604e-06
2.24121e-06
1.04206e-06
-7.98703e-06
-5.10974e-06
3.58051e-06
-2.52587e-05
-5.27181e-05
7.79791e-05
-2.41982e-05
1.83533e-05
2.70462e-05
-7.13469e-05
-3.47632e-08
3.2999e-07
-1.03468e-06
-1.28097e-06
2.31849e-06
2.5302e-08
3.35976e-06
1.16914e-05
1.09928e-05
-1.42533e-06
-1.93532e-07
1.61952e-06
1.99641e-06
1.02503e-06
3.61652e-06
7.8946e-07
3.82177e-06
8.68249e-07
-4.69036e-06
3.59101e-07
2.65816e-07
-6.23623e-07
5.31236e-07
-1.33003e-06
2.62143e-05
-1.72088e-05
-9.01609e-06
-1.12223e-06
-2.46897e-07
-9.56663e-07
-4.46859e-05
6.51259e-05
4.27294e-07
3.27366e-06
-1.11265e-06
1.26703e-06
3.10082e-06
1.66308e-06
-4.76431e-06
4.36866e-07
-7.11435e-07
2.77154e-07
4.88661e-05
3.79661e-06
-1.92547e-06
-7.84802e-07
1.12514e-05
-1.04703e-05
1.32717e-05
2.85618e-05
-2.08797e-05
1.62992e-06
-7.48373e-07
-8.78967e-07
-9.40107e-07
7.52632e-07
3.04994e-06
-2.53339e-06
-5.16494e-07
-1.87984e-06
2.54696e-06
8.09465e-07
1.21778e-05
-1.29937e-05
-7.70366e-07
3.38073e-07
4.32166e-07
-8.04991e-07
8.14903e-07
1.17556e-05
-0.000101536
6.14998e-05
4.00347e-05
-2.08556e-07
-1.99611e-06
5.11769e-06
-3.12214e-06
-4.08819e-06
4.41624e-06
-3.25833e-07
-2.38076e-06
2.42497e-07
2.14375e-06
1.56125e-07
4.01501e-07
-5.57964e-07
-1.19234e-06
1.48329e-06
-2.90916e-07
-8.14388e-05
2.41011e-05
4.01328e-05
-0.000102709
2.55192e-06
-2.12395e-06
-4.28244e-07
4.8324e-06
3.26329e-06
-8.09756e-06
2.19986e-05
-7.24701e-06
-1.47511e-05
4.21283e-05
-3.27077e-05
1.2053e-07
-1.54671e-06
4.71677e-07
7.53632e-07
-1.22509e-06
-1.60649e-06
6.18261e-07
9.85972e-07
-6.19563e-05
3.34116e-05
-2.7625e-08
-3.34545e-07
3.60221e-07
5.89468e-06
9.04026e-07
7.85614e-05
1.71787e-06
-8.021e-05
-6.08103e-07
-7.0323e-08
1.82586e-07
1.61496e-07
-3.44003e-07
6.82226e-05
-2.00651e-05
-2.38147e-06
1.0692e-06
1.31264e-06
-2.91803e-06
-1.77098e-06
4.6918e-06
2.98452e-07
3.49098e-07
-6.46843e-07
5.95698e-07
1.59042e-06
-2.18632e-06
-2.14345e-05
7.35128e-07
3.04267e-06
-3.7754e-06
2.72194e-06
-3.52031e-06
-3.42905e-06
-3.15e-06
1.42937e-06
2.52135e-06
-3.95134e-06
4.01821e-06
-6.52482e-06
1.37926e-06
2.33845e-06
-3.71735e-06
3.64869e-06
5.13216e-07
1.28322e-07
-6.41443e-07
4.84077e-05
0.000162872
-0.00021129
1.15455e-06
-3.94363e-07
2.60545e-06
1.45163e-06
-4.05632e-06
-2.55513e-06
9.38986e-07
1.61623e-06
5.09042e-07
-7.18515e-08
1.94449e-06
-3.28248e-06
-4.1337e-05
-6.6254e-06
4.79607e-05
4.2138e-07
6.83035e-08
-4.89542e-07
2.55488e-06
2.57948e-06
-5.12926e-06
-1.10141e-06
4.61061e-07
1.88141e-08
2.78797e-06
-2.80568e-06
-9.59768e-06
1.15371e-05
2.23551e-06
2.21768e-06
-4.45367e-06
-5.4039e-05
-2.26184e-05
7.66403e-05
8.31073e-06
1.51224e-06
-9.914e-06
-5.73284e-06
1.25154e-06
4.49826e-06
2.4098e-06
3.71516e-06
-7.298e-06
-2.20105e-05
1.2846e-06
-5.37384e-06
-1.44333e-05
1.35067e-05
-3.52278e-05
2.844e-07
-3.30989e-07
4.64571e-08
-8.76342e-05
4.56637e-07
-2.22114e-06
-2.77263e-06
2.93494e-06
-1.62592e-07
1.34612e-05
-1.91947e-05
5.73934e-06
4.01006e-05
-1.63695e-05
-2.37284e-05
1.00796e-06
6.69839e-07
-0.000126813
-8.50532e-09
7.16239e-07
7.17437e-06
-2.33988e-06
-9.72594e-06
4.44902e-06
5.27791e-06
-2.5315e-06
2.16365e-06
-2.20129e-07
5.18882e-07
-3.74106e-05
4.00326e-05
2.55943e-05
1.17704e-05
-3.73576e-05
-2.68927e-05
2.9881e-06
2.39077e-05
-5.39738e-06
1.99172e-05
-1.45184e-05
-1.10142e-06
5.54884e-07
4.36959e-07
3.2493e-07
4.16868e-06
-3.07794e-06
-1.09055e-06
-3.05669e-08
2.98582e-07
-1.64774e-06
3.3629e-06
-1.71437e-06
-5.56441e-06
4.86094e-06
4.42011e-05
-6.13835e-05
1.71841e-05
3.65477e-07
7.66711e-07
-1.13257e-06
-3.65623e-07
-2.76888e-08
3.93818e-07
4.70326e-05
1.73769e-05
-2.73782e-06
-9.03665e-07
3.64044e-06
-8.65622e-07
7.37135e-07
-5.45428e-05
6.23679e-05
-0.000133913
7.834e-05
5.55786e-05
1.1587e-05
-4.91845e-06
-2.53717e-06
-7.68278e-05
7.72301e-05
-4.01381e-07
6.85653e-06
-4.42836e-05
-6.383e-05
3.01047e-05
3.37225e-05
-3.62676e-07
1.00236e-07
6.725e-09
-2.51108e-07
2.43502e-07
-8.24079e-06
-2.70773e-06
1.09493e-05
-1.68165e-06
3.42091e-07
1.34029e-06
2.70834e-06
-7.13044e-06
4.42391e-06
-3.07997e-06
3.89473e-06
-8.13775e-07
4.01888e-06
-8.97315e-05
1.49925e-05
2.10719e-05
-2.47985e-06
2.50833e-06
-4.34976e-06
-3.40381e-06
-2.04432e-05
2.38472e-05
3.68857e-05
-1.12831e-05
2.33258e-06
2.18616e-07
-1.30017e-05
-1.09627e-05
2.3978e-05
7.00207e-05
-0.000232183
4.63256e-06
-6.32817e-06
-1.20824e-07
-2.26138e-06
1.3906e-05
7.81834e-07
-1.18062e-05
5.33945e-06
6.46896e-06
-7.7433e-05
6.03651e-07
2.11601e-07
-1.02887e-07
2.46624e-06
-6.85988e-06
3.74503e-07
-5.37756e-08
4.21679e-05
3.43599e-07
-3.45514e-07
-3.9245e-07
-2.80181e-07
6.7052e-07
-1.31899e-06
8.85648e-06
-7.53701e-06
-3.01332e-07
-6.38647e-07
-1.59842e-06
2.19385e-06
-2.69229e-07
2.75611e-07
1.32806e-06
7.16815e-07
0.000101348
2.2473e-06
1.64277e-07
1.4188e-06
-1.58354e-06
-6.44511e-08
-2.20845e-06
-5.75657e-05
0.00013637
-7.86821e-05
4.34671e-07
-4.05565e-07
-2.89058e-08
-1.07002e-05
9.91187e-06
-5.7449e-05
1.20138e-05
4.543e-05
-6.23205e-06
4.48263e-06
-3.47015e-07
-1.63388e-06
-8.47633e-07
-7.57577e-07
-1.50319e-08
-2.15485e-06
3.10975e-06
-7.82492e-07
2.57835e-08
2.63584e-06
-2.65994e-06
4.33854e-06
-2.99985e-06
-2.72574e-07
8.43127e-07
-5.70252e-07
-7.50604e-07
-4.81418e-06
-3.22721e-06
-6.49847e-06
-0.000169057
0.000217451
3.52817e-07
-7.96285e-07
-9.15579e-09
6.7524e-06
-6.73654e-06
-1.4554e-05
-4.13091e-05
5.58738e-05
3.57416e-06
2.31922e-06
-5.00325e-08
7.96271e-07
1.85351e-06
4.18718e-07
-2.2717e-06
3.78647e-08
1.15029e-06
-1.18696e-06
1.50892e-06
1.40884e-06
-2.91964e-06
-1.34512e-06
1.52802e-07
9.10715e-06
6.75066e-06
-4.80861e-05
2.99455e-05
1.81477e-05
-4.4321e-06
4.5708e-06
2.18503e-07
1.38464e-06
1.68006e-06
2.21291e-06
-3.89363e-06
-1.85024e-07
3.11791e-06
-2.93484e-06
-1.31416e-07
-1.55236e-07
-6.11102e-07
2.17856e-07
1.997e-07
9.61112e-07
-1.1605e-06
9.04782e-07
7.24874e-07
-6.06758e-08
3.96953e-07
-4.27429e-05
5.5214e-05
6.45254e-07
-3.98953e-07
-2.46462e-07
2.50987e-05
-6.89806e-06
-3.26054e-07
8.86766e-07
-5.61359e-07
-6.08643e-05
2.86797e-06
-1.71959e-06
-1.14811e-06
-2.25382e-07
5.85303e-07
-1.45151e-05
-3.27189e-06
3.15153e-06
1.11721e-06
-4.26974e-06
-5.11977e-05
4.25662e-05
8.60642e-06
0.00013826
-0.000138681
5.00026e-07
4.80221e-06
-1.0659e-06
-3.73749e-06
-4.17567e-05
3.59392e-05
-1.34721e-07
-1.64125e-06
1.68065e-06
-4.41885e-06
-5.68857e-05
8.64393e-06
4.82438e-05
0.000107905
3.03791e-05
2.16806e-06
-4.11201e-07
-1.75636e-06
-7.47129e-07
4.74643e-07
2.20892e-06
-9.79981e-06
-1.51745e-06
-4.71352e-06
-1.61183e-06
1.75722e-06
3.65074e-06
-4.77032e-07
-3.17574e-06
3.2529e-05
-5.36399e-05
2.11139e-05
-1.81879e-07
-1.36652e-06
1.54961e-06
-3.76916e-06