/*--------------------------------*- C++ -*----------------------------------*\
| =========                 |                                                 |
| \\      /  F ield         | OpenFOAM: The Open Source CFD Toolbox           |
|  \\    /   O peration     | Version:  v2012                                 |
|   \\  /    A nd           | Website:  www.openfoam.com                      |
|    \\/     M anipulation  |                                                 |
\*---------------------------------------------------------------------------*/
FoamFile
{
    version     2.0;
    format      ascii;
    class       volScalarField;
    location    "250";
    object      ddt0(epsilon);
}
// * * * * * * * * * * * * * * * * * * * * * * * * * * * * * * * * * * * * * //

dimensions      [0 2 -4 0 0 0 0];


internalField   nonuniform List<scalar> 
18232
(
-2.57804e-10
6.6136e-05
0.00209064
-1.59525e-07
2.96317e-09
-0.00199087
-0.000469432
3.93951e-11
-1.02354e-09
-0.000471766
2.50637e-09
-2.37905e-10
-3.00237e-05
-0.000527612
9.48701e-08
0.0023239
-2.82937e-08
0.00455347
9.58747e-11
-0.00141224
0.00263431
-0.000475494
1.28551e-05
-1.64144e-09
-3.03957e-10
-8.63999e-10
-2.29733e-09
0.000141589
-2.04711e-11
8.97832e-06
-8.15124e-10
-0.00206783
-3.43428e-08
8.21698e-11
-1.29238e-07
1.64895e-11
0.00264411
0.00198488
0.001713
5.78468e-11
-4.54881e-08
4.77549e-11
0.00220827
-1.83528e-09
9.25355e-08
1.4662e-09
-0.00197546
-2.46507e-07
9.75351e-08
-0.00206801
-2.74429e-08
8.07747e-08
1.47411e-10
2.27565e-05
2.97126e-10
-5.25171e-10
0.00115012
0.00369949
3.6958e-10
7.48222e-08
-2.15818e-07
0.00511269
0.000896848
-0.000360076
-2.02335e-09
-1.22586e-09
0.00207017
1.27267e-09
-9.66566e-11
5.26676e-11
5.97988e-10
-3.37244e-11
3.91071e-05
7.51124e-12
-2.06252e-07
4.4307e-11
-5.2172e-09
0.00379833
0.00153421
1.43994e-06
-7.78544e-07
-1.14274e-07
-2.87966e-07
9.42812e-08
-4.92721e-11
0.000184241
2.81297e-10
-1.04024e-10
5.16777e-05
0.00180757
-2.58822e-09
-7.49534e-11
-1.90234e-07
0.0104171
-3.90193e-09
5.91438e-08
3.66063e-10
1.16381e-10
5.24621e-10
2.48011e-09
7.80866e-05
0.00727062
-9.04094e-11
-9.66317e-11
-5.62223e-10
0.000102458
3.68221e-10
-0.000547296
0.00422723
-0.000173514
0.000175007
-5.20683e-09
-1.58037e-07
-0.00040485
-1.91397e-11
4.06714e-09
2.52629e-09
3.65548e-05
-0.00152188
-1.07646e-09
-4.0897e-11
0.000134773
4.40042e-10
-7.77029e-06
-7.88858e-11
-1.39724e-09
2.70688e-09
0.00179423
-2.34599e-07
-8.99778e-08
-5.72871e-09
-1.30441e-07
6.78337e-12
9.14145e-11
1.52037e-09
-7.5172e-12
-1.57928e-07
-2.64664e-08
0.00245718
-0.00142774
3.62188e-12
0.00278791
0.00220136
-3.91858e-07
5.91801e-11
4.7659e-10
3.05836e-09
-9.42039e-07
8.88108e-10
1.87108e-09
-6.90088e-07
-3.85611e-12
-0.000387864
2.11833e-10
0.00291647
-5.31572e-07
0.00232901
-3.98551e-08
-4.70481e-09
0.00272655
-3.06395e-10
0.00279572
0.00246978
0.000201822
-0.00015749
3.79107e-10
-4.23486e-08
0.0018395
1.05212e-10
-5.35154e-07
-4.07434e-10
-5.48892e-05
-2.25988e-07
-2.09067e-10
3.35931e-11
-4.9061e-11
2.17673e-05
6.12094e-10
-8.32636e-11
-6.19754e-11
3.09766e-12
-0.0018455
2.923e-09
4.03998e-05
-1.5698e-11
3.48567e-11
-5.03315e-11
0.00254535
7.1368e-08
-1.35016e-07
1.79981e-09
-0.00035305
-1.84303e-10
-1.43237e-10
-2.70655e-10
-6.18446e-11
4.75114e-08
2.86687e-10
3.43211e-09
-7.81543e-11
1.44174e-09
2.30652e-10
-4.02976e-10
2.90423e-11
3.58766e-10
-6.31476e-09
6.72871e-08
-1.48176e-09
-2.69805e-10
-1.85136e-11
-1.5802e-11
-2.52964e-10
1.0846e-10
5.31981e-06
-3.418e-10
5.1068e-05
-6.25906e-09
2.49543e-12
0.000118946
-7.94895e-07
-4.64399e-10
-1.98042e-07
1.87247e-05
-4.29597e-05
1.99696e-08
1.60226e-10
5.78399e-10
-2.51937e-09
6.17634e-08
-1.14288e-07
1.69885e-05
-2.29273e-12
3.2173e-11
9.5069e-12
-5.75277e-09
-2.80437e-11
-6.02966e-09
-4.19466e-07
-5.06441e-09
-1.23942e-09
0.00294636
-2.66207e-10
-2.5598e-09
-7.26651e-08
0.00764915
5.27867e-12
-2.12915e-08
-3.29507e-09
9.95443e-11
4.24613e-11
0.00288019
4.01615e-09
0.00271872
-3.78492e-08
-1.37001e-07
2.97396e-06
1.5742e-09
0.000862687
-1.92736e-10
2.41125e-10
0.000233206
-7.06504e-12
0.00120894
1.24584e-09
-1.0455e-09
-3.64252e-07
4.98399e-05
-7.51016e-10
-2.17159e-10
0.00122415
-1.16491e-10
-5.72206e-09
-6.88166e-07
0.00207519
-5.56828e-06
-2.19587e-10
-1.27857e-05
-1.12774e-09
1.81699e-10
5.35661e-06
0.00407242
-0.000778205
0.000960936
4.70236e-11
-3.97256e-05
-3.2722e-10
-1.8884e-09
3.98044e-10
0.00170746
-2.67578e-06
0.000683125
-0.00166121
-5.0992e-12
4.60452e-09
-1.65187e-09
1.60486e-10
1.78505e-10
-7.50027e-12
1.21992e-09
3.87315e-05
2.26763e-09
-6.78133e-07
0.00266052
7.65625e-12
2.69716e-11
5.42102e-11
9.67476e-11
3.44075e-08
9.57734e-11
-2.05894e-10
-7.51841e-11
-1.85882e-07
6.21428e-05
2.00147e-10
3.13316e-10
-5.50253e-06
-4.68112e-10
-1.11986e-08
1.61772e-08
-4.53501e-11
1.02694e-09
0.00185694
-2.59569e-07
2.83003e-10
-1.91932e-07
-0.000324952
-5.79554e-11
1.03066e-09
2.90446e-10
-1.89118e-11
2.02902e-07
-1.30289e-07
-7.7401e-06
5.54285e-11
-6.89185e-10
-2.55384e-07
-4.99524e-11
-9.66533e-10
-3.81615e-08
2.67339e-05
1.80927e-08
-2.12449e-06
-3.16064e-09
7.8736e-09
3.03351e-08
3.58534e-08
-0.00153003
-2.04902e-10
4.79598e-10
1.75673e-11
1.56466e-10
7.85934e-08
-6.85678e-08
8.51652e-10
1.45514e-09
5.11751e-12
0.00151032
2.80371e-10
1.20092e-09
2.59666e-10
-8.32244e-11
-2.23707e-06
6.07615e-08
1.79686e-10
1.09908e-09
1.69181e-10
-1.00874e-10
6.7084e-10
-7.67484e-08
-4.33014e-10
1.49276e-11
-3.82742e-09
-0.00368668
1.03512e-09
-4.97218e-09
4.87132e-10
0.000711499
-3.50659e-11
8.84192e-10
0.00500994
-0.000611359
-1.40248e-10
4.62765e-10
-2.86154e-08
-4.24194e-11
-3.77748e-11
1.11379e-08
-3.37543e-07
2.02287e-09
9.37411e-10
-1.73663e-09
0.000157112
4.30048e-11
-4.22502e-11
-2.08119e-09
1.2874e-09
-0.000183946
-2.70541e-10
0.0015635
2.72058e-09
-2.97508e-07
-3.54641e-11
7.11126e-09
2.80125e-09
0.000439828
5.98647e-08
1.6747e-09
-1.47631e-06
-1.21205e-07
5.87259e-08
0.0003919
1.16978e-09
3.49263e-05
1.55521e-10
1.44675e-09
2.28233e-09
1.12166e-09
0.000385007
-3.43628e-11
-2.43638e-09
1.73264e-08
-0.000102368
9.15415e-05
9.99266e-08
-1.61058e-09
-7.57839e-07
-5.63106e-08
-1.07544e-10
-2.0338e-10
0.000849055
0.000344186
1.62905e-09
7.00359e-10
4.57884e-11
-4.46888e-11
-1.2941e-10
-1.29727e-07
-9.52604e-09
-4.51036e-11
6.70569e-08
-5.52447e-10
2.56946e-11
3.01201e-05
1.2074e-10
-1.12484e-09
3.70097e-10
1.15109e-07
0.00108686
9.28818e-11
1.9295e-10
0.00145409
-2.17439e-09
-2.64657e-08
-4.57466e-12
-1.75924e-10
-1.97697e-10
1.4455e-09
0.000124995
-5.12099e-09
-2.49807e-10
-9.91093e-11
-2.27573e-12
-3.48009e-08
-3.51013e-10
5.51115e-09
-2.51429e-08
1.11972e-10
0.000130756
-3.88243e-11
-3.73887e-11
-0.0189043
5.20732e-09
0.0017004
0.00234111
0.00138037
-6.20757e-11
-6.39008e-11
3.53745e-10
3.58898e-05
-1.39432e-10
-8.36979e-11
2.92322e-10
-0.00273861
-6.85347e-11
2.35752e-11
1.69869e-12
-1.97072e-07
0.000108878
-2.01269e-06
5.04756e-09
-1.49702e-09
0.00171229
0.000619531
2.24104e-11
3.76354e-05
-6.88341e-10
0.00248585
-4.10525e-10
-2.47547e-09
1.46347e-11
4.76707e-05
2.61663e-11
-1.49552e-10
1.50608e-09
0.00230215
4.17131e-11
-8.81021e-09
-8.0536e-11
0.00159521
-7.24405e-10
5.29504e-08
1.96846e-10
-8.53723e-09
-9.3885e-11
0.00204887
5.86192e-09
-5.01428e-11
3.68859e-10
1.66719e-11
-2.49972e-11
1.72262e-11
5.38011e-11
6.67436e-10
-2.76225e-10
1.21462e-10
5.22796e-10
-5.10364e-08
-0.0016088
-6.11124e-11
1.12853e-07
3.92649e-11
0.0033853
9.37074e-05
-4.98924e-13
-7.65648e-08
4.51415e-09
-8.2944e-06
-4.06922e-12
0.00023583
5.74527e-10
-1.49687e-10
-0.0176603
-2.4275e-09
1.13949e-08
-0.000784458
-2.51979e-09
-3.85637e-09
2.01889e-11
0.000938832
1.57936e-11
-7.67288e-08
3.00772e-09
-3.54216e-08
-4.38653e-11
-2.86459e-07
4.55104e-08
1.11217e-10
2.11536e-10
1.2719e-10
1.93682e-08
3.92812e-09
-1.39534e-10
-1.23257e-11
0.000113842
0.000752426
0.000156886
4.59681e-08
9.9409e-07
7.69623e-05
1.24886e-05
-1.40884e-10
0.00511713
-9.68933e-11
-8.17713e-08
-1.21307e-10
-9.5138e-11
3.9606e-11
-1.64266e-09
5.50914e-11
0.00274638
-2.07867e-09
3.02883e-11
-3.91502e-05
0.00218474
0.00396697
-2.55355e-10
-2.6834e-08
3.26383e-10
2.12538e-09
-4.25075e-11
-5.45422e-09
-6.46616e-12
0.000963492
5.62148e-09
-9.32708e-12
0.00167308
7.69841e-10
-4.11231e-08
-0.00133507
-1.19141e-11
3.05769e-08
-0.00016579
0.000869497
1.48288e-09
1.94633e-08
1.26642e-10
5.32251e-12
-1.41108e-10
0.00469784
-1.21893e-08
0.00345783
2.66996e-10
3.13095e-09
0.00273216
4.3857e-12
0.00182804
0.0047713
-4.59835e-08
6.96197e-10
-2.12668e-10
-5.28287e-11
2.67257e-12
1.7719e-05
-0.00274668
-3.4257e-08
-6.89927e-07
0.00010049
7.39884e-08
5.90935e-08
-6.53205e-09
9.19483e-06
1.99318e-10
6.76274e-10
4.20865e-05
5.05327e-05
4.42214e-08
-8.72851e-08
-1.41199e-11
4.9532e-10
-1.30767e-07
0.00018672
1.31759e-05
-2.09568e-11
1.44827e-09
8.18726e-05
-1.6244e-08
-0.000550668
7.01999e-09
-1.48937e-08
4.32563e-11
-1.25442e-08
-7.42147e-12
-4.25761e-08
-3.18775e-06
5.32889e-11
4.66686e-11
7.34793e-09
1.70643e-05
5.09579e-10
2.03189e-09
1.38803e-07
3.91566e-08
-8.77553e-10
5.77463e-11
5.86588e-08
5.918e-08
1.50522e-07
1.60625e-10
-4.92255e-11
-3.73553e-10
0.000815705
7.68665e-10
4.94157e-09
-0.000258852
2.69053e-11
-1.32125e-10
-2.3543e-09
2.0713e-08
-9.72833e-11
1.70506e-09
-4.23797e-11
-3.67187e-11
-7.76403e-07
3.874e-12
-2.54473e-09
-5.53945e-10
0.00343011
-5.16379e-09
8.09796e-11
1.04966e-09
5.07956e-10
1.20279e-11
2.19167e-11
-0.00159684
-1.28193e-09
-9.48534e-09
-2.00344e-11
-2.54933e-10
0.000135925
1.33693e-08
8.63346e-05
-2.53256e-09
-8.85076e-10
1.67114e-08
-8.07206e-07
6.49474e-09
-3.09514e-08
4.08951e-08
-1.70901e-11
4.00272e-09
2.22981e-09
-4.83319e-09
6.48314e-10
9.53322e-11
0.00268546
1.62256e-09
-8.64982e-09
-1.92382e-08
3.39462e-10
0.000927745
2.55358e-08
0.00174887
3.54632e-08
-9.69308e-08
3.02348e-10
-5.84016e-09
-2.97401e-10
5.47593e-09
-1.53108e-06
3.0722e-11
2.6911e-10
5.66135e-07
1.62359e-09
7.07569e-11
2.41167e-05
1.84513e-09
-1.56337e-08
-2.11045e-09
-0.000197925
1.96109e-10
1.33415e-08
2.33175e-05
-3.99749e-09
3.36498e-06
-0.00153081
-0.000778666
-2.50962e-10
1.10301e-05
6.25991e-08
0.00449587
6.94723e-09
9.62692e-10
-7.31423e-08
-2.24073e-10
0.00156261
0.00276302
-2.17372e-10
-3.24124e-07
-1.02232e-08
-0.000668774
2.94837e-10
7.59195e-11
-1.31531e-07
0.00255063
3.19202e-11
-2.15932e-09
3.30097e-08
1.15155e-10
4.13615e-11
2.24838e-06
-1.04763e-07
-1.67512e-07
0.00453666
3.8709e-10
-1.73563e-09
-3.23991e-10
3.12569e-08
-3.08693e-08
-1.10985e-06
-1.98788e-10
0.00198337
-2.3526e-09
-6.54953e-08
-2.15418e-09
3.14832e-10
-0.000579341
3.48717e-09
0.000145218
-3.91886e-11
-2.59334e-10
-4.85571e-08
-1.13581e-07
-9.91378e-11
-8.9508e-09
7.16579e-09
-1.75231e-10
-2.47437e-11
-6.80334e-08
-1.80254e-07
-2.82921e-05
-1.50391e-07
-9.13976e-10
-2.52959e-09
4.74724e-11
-1.88924e-09
-1.41497e-08
-8.62522e-08
1.21601e-08
-2.69261e-10
-6.96244e-11
0.00112056
5.35264e-09
0.000865403
-1.96511e-05
-1.34837e-09
4.31228e-08
1.93417e-09
0.00159077
-1.5311e-10
-1.13717e-11
-5.55413e-10
1.17494e-09
-2.82465e-11
-1.05234e-07
3.39761e-10
1.90705e-05
-4.31063e-11
-8.19995e-10
-4.56901e-10
-3.42945e-11
5.71221e-11
-3.72043e-11
-4.96181e-11
4.33688e-08
-1.77009e-10
3.00881e-08
-1.5758e-07
0.000973836
-1.04391e-07
-8.08955e-11
0.000133082
-2.30455e-11
-7.60783e-10
4.94658e-10
1.25388e-09
-3.34567e-07
2.06047e-05
0.0044859
-0.000345389
-1.37866e-10
-9.78873e-10
9.58061e-10
-3.49305e-11
1.89705e-08
-7.96266e-11
0.0022214
1.70893e-05
0.00214803
1.31037e-09
2.08666e-09
-1.59958e-08
9.42717e-10
0.001346
-1.2592e-09
0.000216645
-8.75207e-09
-1.33961e-10
3.51182e-05
2.51824e-11
-5.91508e-08
1.40524e-09
1.29934e-05
-9.95708e-08
-1.25734e-11
1.14774e-10
1.83427e-10
-5.05911e-11
-3.36606e-09
0.00746997
-3.56441e-07
-8.15221e-08
6.09795e-10
-3.03471e-11
-0.000290462
-0.00250697
2.10337e-09
3.30079e-09
5.71768e-05
-0.00125831
-8.07181e-08
1.44742e-11
-2.4893e-08
6.04241e-09
-3.42109e-08
-5.40771e-10
-2.37444e-10
-2.55122e-09
8.42839e-10
-3.67603e-07
6.40856e-11
3.29185e-08
1.54919e-09
1.37728e-09
0.00725974
1.025e-09
-1.22408e-10
-1.1665e-11
-6.54064e-11
2.93523e-10
7.21125e-11
2.74652e-08
-1.60167e-10
-1.85202e-07
0.00266732
-0.00016936
4.85812e-10
0.00165975
-1.57707e-07
0.00012933
-1.89297e-09
4.05893e-05
-0.000140248
6.82319e-10
6.85318e-10
-5.0039e-09
-3.63737e-08
-1.25756e-07
4.83448e-08
-5.56886e-09
-0.000640194
3.0796e-10
9.97991e-10
3.13717e-09
4.01661e-11
-1.7998e-10
4.2355e-11
-1.02102e-05
-5.10677e-06
-9.78319e-08
-1.07253e-09
3.97554e-11
6.95115e-10
2.29097e-05
-2.10271e-10
6.04219e-11
2.28717e-05
1.29672e-10
-0.00243171
-1.5957e-09
-1.00833e-10
0.00196771
1.36237e-11
-2.85847e-08
0.00112099
3.88525e-10
-1.43595e-11
4.07957e-09
-4.04543e-07
0.000155312
-0.00024118
0.00311183
2.69432e-08
1.3093e-12
-1.65425e-10
-0.000178946
1.13165e-08
2.74573e-11
-5.0646e-10
-4.56064e-09
-2.94083e-11
0.0007161
0.00175518
1.82935e-05
1.05468e-09
-0.000645448
-1.165e-06
-0.000171389
6.82101e-11
1.35168e-08
-2.43924e-11
-1.54667e-05
2.92474e-12
1.91992e-10
5.65137e-05
-2.01425e-08
2.11107e-10
-5.95007e-08
2.60539e-11
-7.11104e-08
9.67248e-10
5.10703e-10
-2.89528e-10
-4.94259e-10
6.86451e-09
0.00264465
-5.95134e-11
-3.61294e-08
8.36038e-09
1.40294e-10
-2.7218e-11
-1.60702e-10
1.54238e-09
-2.72695e-05
6.15434e-11
0.00325027
6.57249e-09
-6.95497e-05
2.41131e-10
-4.3016e-09
1.816e-08
-2.5532e-10
2.06175e-11
2.24828e-10
7.4065e-09
3.5446e-08
-1.45697e-11
-5.65302e-07
3.69402e-08
-2.61364e-07
-0.0156991
-1.21058e-10
-8.56434e-10
-6.64344e-11
6.46516e-09
3.84583e-09
2.8018e-09
0.000510087
1.75919e-10
2.21453e-09
1.61093e-09
0.000115493
-0.000210079
2.50437e-06
-1.19584e-10
-1.98905e-09
2.16029e-11
-2.34986e-07
7.52263e-11
3.21935e-11
9.5163e-05
-6.89246e-07
-1.05494e-10
-8.30269e-08
7.16528e-05
-6.4178e-10
8.27069e-11
0.00567338
1.30005e-09
-9.03077e-10
-1.00368e-07
0.000103024
8.53782e-11
1.21877e-05
2.93274e-09
2.03717e-10
1.9718e-08
-2.19224e-11
0.000635133
1.99755e-10
4.83053e-11
-0.000201544
-2.71312e-11
3.69049e-09
6.634e-10
6.65369e-11
6.32984e-11
1.06933e-09
-1.31181e-09
-4.06096e-08
1.81919e-11
1.60647e-07
-3.30059e-11
-1.47976e-07
4.51736e-06
1.62826e-08
0.000206689
-2.88584e-11
-2.28041e-05
-1.51861e-10
0.000147417
6.48685e-11
0.00151752
-8.69715e-06
-0.000103508
5.3808e-10
0.00299287
-5.04164e-05
-0.00213435
2.39079e-09
-2.28102e-09
2.96551e-07
-3.05392e-06
0.00456631
9.19777e-10
-3.90898e-08
-1.29388e-07
-5.6093e-11
3.16468e-05
2.36482e-11
2.81073e-09
0.000145876
7.26583e-11
-7.62314e-11
1.26023e-09
-2.9573e-11
1.07861e-11
0.00104872
-8.54904e-11
1.25945e-06
-2.37261e-10
0.000678897
0.000140051
1.24692e-10
-2.85896e-10
1.12608e-10
2.4362e-09
0.00214977
-2.83805e-08
-0.000236835
1.4353e-09
-0.00333482
4.94231e-11
6.2221e-10
-2.10431e-11
-2.68406e-11
-3.75668e-12
0.000519799
4.77136e-11
-1.02574e-11
-3.68464e-11
0.000184124
-3.80778e-09
1.72705e-09
2.76454e-06
-7.42276e-09
2.32429e-11
-2.97516e-07
5.44226e-11
-2.87244e-10
-1.29673e-10
-1.1704e-07
3.84129e-11
0.00379616
-1.15689e-10
-9.97568e-11
-1.0139e-07
3.92823e-11
9.48419e-11
-5.05199e-05
-4.92822e-07
2.58082e-05
0.000137992
3.18389e-09
-7.16983e-11
-4.69096e-10
4.62557e-10
-1.02417e-07
-7.04704e-05
0.00433752
-2.39179e-11
0.00419703
-4.213e-05
2.33999e-10
5.97764e-11
1.33324e-09
5.41141e-06
0.000461261
-3.88709e-11
2.93802e-10
4.51242e-11
-9.09504e-08
-2.75982e-11
-7.02262e-07
-6.67609e-11
-1.87049e-07
1.25693e-11
-1.01713e-10
0.00013567
-4.02604e-08
1.6899e-09
-0.000190651
3.24101e-11
0.00168503
-1.03725e-10
-9.04672e-11
0.000400354
-4.8138e-10
-1.7354e-11
-0.000167027
-1.3098e-10
2.84866e-10
1.35878e-11
2.04617e-08
3.45873e-11
-0.000372595
1.81055e-10
8.47067e-09
2.84556e-08
2.65364e-10
-4.10241e-08
5.94651e-14
1.47151e-11
2.70806e-11
4.76735e-11
-0.000283266
2.98236e-08
1.93315e-10
-5.14551e-10
-0.0001198
-9.7514e-11
-4.11263e-07
1.00329e-09
1.39734e-09
-1.73305e-09
3.03041e-12
-4.44898e-09
-9.25595e-08
1.88048e-05
-0.000153889
5.77822e-05
-4.30436e-09
-7.13668e-08
-1.43618e-05
-1.26032e-10
1.56605e-09
3.93714e-11
-6.82207e-10
-4.28559e-11
-1.4026e-10
-6.14319e-07
-4.68715e-11
0.00239252
-9.70313e-10
1.96332e-10
2.52138e-10
-5.86652e-11
0.001423
1.6534e-11
5.48306e-05
4.6905e-10
8.61132e-09
3.95134e-08
-6.15559e-09
-0.000248564
6.80008e-10
-0.000279448
3.77599e-10
5.55795e-09
-5.44373e-07
2.90565e-10
2.37678e-05
8.60423e-12
1.78818e-09
-2.26948e-12
1.87804e-10
-1.16524e-10
0.00098829
-5.06656e-11
7.87702e-11
-1.87046e-10
0.0033165
-6.5821e-05
7.49486e-11
-4.34351e-07
-3.27514e-11
-2.00158e-11
1.86379e-10
-7.55197e-10
3.86313e-11
2.45395e-10
7.5708e-12
-1.61464e-10
-4.21347e-07
2.89446e-09
-1.06955e-10
-1.57993e-10
-2.5531e-09
0.00311909
0.000974114
1.65313e-07
1.1191e-09
-0.00059859
1.924e-08
1.7795e-05
-2.93586e-10
-2.50383e-08
0.00295893
-3.62632e-10
-1.54459e-11
7.30422e-11
5.73466e-09
0.000329321
-2.28259e-10
6.42705e-10
7.86238e-10
-1.27488e-10
-0.000128023
0.00151848
-2.53275e-10
-1.44629e-09
-5.54114e-09
0.00316244
0.00415746
-8.40477e-10
-3.26764e-09
5.11495e-08
-2.44955e-10
3.9886e-09
-1.09878e-05
-1.06602e-07
-1.48261e-10
7.04619e-05
-1.13292e-09
2.16322e-09
2.17254e-07
-5.52064e-11
2.94363e-08
1.95696e-09
-9.02179e-11
-0.000510453
-1.71184e-10
-4.38315e-11
1.17837e-08
-0.00202951
-2.49599e-11
0.000128828
1.14162e-11
-1.86441e-07
7.33383e-11
8.70332e-10
-7.43758e-09
4.31314e-09
-6.56371e-08
1.00634e-08
-2.02177e-10
0.00219867
-1.21475e-10
-3.37612e-08
2.08918e-08
3.96162e-09
4.18866e-10
-0.000271315
-1.11316e-10
3.36512e-11
0.00416107
2.81091e-10
-0.00250922
8.2711e-11
-3.2402e-07
3.12159e-09
5.90837e-12
9.18888e-05
5.31572e-10
1.23749e-07
5.08215e-05
-2.76278e-11
0.00379787
5.18075e-05
3.36665e-09
-4.79846e-11
-7.16602e-08
-7.09163e-07
5.71034e-09
0.000864987
-3.55549e-09
1.16954e-09
-0.000167716
-0.000595811
-1.94738e-10
-0.00364229
7.65125e-05
-1.72982e-10
-7.07278e-11
-1.51847e-07
-1.8767e-07
1.71194e-09
-4.66899e-07
-4.53515e-05
-0.000159747
3.47442e-09
4.73439e-09
1.70676e-10
-1.27932e-09
3.55793e-11
0.00390852
0.000137121
-9.77268e-11
0.00167162
3.30441e-11
-1.98521e-11
-0.000841197
-0.000164192
-3.30945e-12
-3.25151e-10
-1.21968e-06
0.000317107
1.83882e-09
7.00369e-09
1.12557e-10
-0.00102402
-0.0181662
1.81448e-08
1.66855e-09
-1.5259e-06
2.43656e-10
0.000723237
3.30033e-09
-3.79474e-10
-1.79151e-10
-3.71838e-10
4.90556e-10
-2.19116e-10
1.55793e-09
-9.83994e-06
0.001426
2.58503e-11
-0.00476089
-3.28466e-08
0.000339085
-7.01904e-09
0.00025073
-3.90519e-08
6.689e-10
1.33047e-11
-1.39282e-10
9.73019e-10
-9.88786e-09
-1.21591e-09
-7.10902e-11
-0.00023499
-3.60836e-08
0.00259045
4.70172e-08
3.40889e-05
-1.76776e-10
-1.90749e-09
0.000796071
-8.56487e-08
9.08855e-09
-6.24525e-09
-2.75398e-10
0.00202531
-2.76293e-10
-6.02709e-08
1.36487e-07
1.36245e-10
-1.60513e-05
0.00348821
0.00333948
-5.56744e-09
-0.00256314
-0.000200808
-0.000378644
2.26801e-10
7.31415e-05
-0.000227528
-6.45303e-06
-1.81847e-05
1.41088e-11
9.98968e-05
-1.54887e-10
3.90808e-10
8.62577e-05
-1.0334e-05
0.000610096
-5.76184e-05
-2.83718e-08
6.8059e-05
0.00275488
0.00121927
-5.45483e-10
2.36633e-10
-8.57515e-11
-0.000622141
6.22504e-08
0.000207444
1.95489e-08
0.000396048
-0.00943914
-0.00142695
-3.33679e-08
8.89696e-05
6.2614e-09
-1.36492e-09
-2.71158e-08
8.94504e-05
-1.79633e-10
1.53286e-09
4.30655e-10
0.000601757
1.71938e-08
4.81897e-08
-2.58892e-10
-0.00112287
-0.00217424
-2.57899e-07
-1.21998e-05
-8.09361e-05
2.90803e-10
2.78138e-09
-1.21344e-07
-4.21857e-07
-0.00216829
3.42107e-06
-2.83527e-10
8.21874e-05
2.08436e-09
-7.63319e-10
-0.00301188
-2.30858e-11
3.2534e-11
-7.07053e-08
-0.000190398
7.93069e-11
-0.000272032
0.00412677
4.54148e-08
2.32211e-09
5.26907e-05
0.00182046
-1.73556e-08
-0.000147859
6.77529e-10
-2.17453e-08
1.60752e-06
-2.88265e-09
-1.43917e-08
-1.83693e-08
1.66338e-07
-2.11904e-09
-1.3971e-08
2.20285e-05
-9.5141e-08
7.37135e-05
-3.67485e-11
-7.31265e-09
0.000377017
0.000138259
0.00686357
5.41869e-09
0.00265519
-8.62968e-11
0.000384893
7.94805e-09
-4.12249e-10
0.00257928
3.71172e-05
2.59861e-09
2.887e-09
-8.6146e-10
0.0027313
7.97725e-07
6.02015e-09
-1.68356e-09
3.76583e-11
-8.20305e-06
0.00296729
1.88654e-08
1.42009e-10
0.000313623
-0.00813592
0.00225293
-9.38172e-07
-7.5354e-10
4.05626e-09
-2.00811e-10
7.17047e-10
-1.30576e-10
-5.15312e-05
-5.4728e-07
2.48937e-10
3.13549e-12
4.79201e-10
3.79867e-09
-0.00021673
1.06151e-09
-5.95757e-07
-5.60991e-11
-2.55105e-09
3.41291e-11
-3.59341e-07
-7.25603e-11
3.99899e-10
-4.09219e-07
4.35026e-05
-2.46908e-11
5.03592e-09
0.00273999
0.00249236
-7.36492e-08
1.69149e-10
0.00273432
0.00226534
1.41912e-08
4.7529e-05
-1.87411e-08
-5.46827e-10
0.00161095
2.24609e-08
-0.00245682
7.17641e-11
-7.85964e-08
-2.4132e-09
-7.31522e-05
-7.212e-10
-1.56283e-10
7.20439e-10
-3.11386e-09
-2.51986e-08
-4.20811e-07
-4.11609e-10
1.40378e-09
1.19051e-10
-3.65323e-08
-4.09073e-11
0.00426797
2.66481e-11
3.25619e-07
3.74132e-10
-7.28897e-09
-2.5531e-10
2.6344e-08
-4.33281e-11
2.12135e-09
8.82138e-08
-6.89243e-08
-0.0159908
-1.21778e-07
3.0107e-11
0.00261474
2.14468e-08
0.001595
-3.77451e-08
-1.27874e-09
0.00385606
2.13327e-11
0.000305519
1.62344e-08
1.18955e-10
7.43107e-09
7.4203e-10
-8.478e-10
2.19377e-10
1.19755e-05
1.50218e-10
-1.17974e-09
-2.24762e-05
6.17259e-12
-0.000113091
-1.16526e-11
-1.09e-07
-3.62273e-11
-3.28282e-09
-1.80154e-06
0.000125572
-3.42138e-10
-9.57048e-12
-3.89755e-11
-8.64183e-10
-1.25738e-10
1.04892e-10
0.00144016
4.49173e-05
3.30033e-08
3.61168e-10
1.11963e-08
-5.79737e-06
-1.74299e-07
0.00279386
2.24451e-10
-8.87452e-10
-0.000215518
1.1239e-07
-0.000170675
-2.92352e-08
4.64553e-05
0.00125554
-7.40538e-09
-2.27717e-10
-2.79782e-07
-2.69088e-05
1.21584e-09
2.34376e-11
-9.11555e-10
-2.39318e-12
4.56501e-10
-3.56041e-08
2.72022e-06
2.19623e-10
1.5538e-11
-1.67614e-07
9.39863e-10
4.33657e-06
-0.000206619
1.50942e-09
-1.49527e-07
0.000195259
3.34128e-09
-0.000334591
5.63917e-11
-1.07222e-10
4.52642e-09
-4.54889e-05
-2.68844e-08
-9.32823e-08
-1.18875e-08
0.000103382
3.18871e-07
0.000359752
0.00331049
-2.95229e-08
4.55795e-10
-5.64145e-09
2.88014e-10
1.07026e-09
-4.12611e-11
-0.000388796
-1.39468e-10
4.30325e-09
0.0026982
-4.33488e-11
4.24247e-09
0.000242129
2.30579e-11
-3.06224e-10
0.00143473
5.19837e-06
0.00261229
0.000604091
8.95116e-11
5.74307e-10
-3.08467e-06
0.0021493
1.26899e-08
1.94853e-07
-6.55261e-07
-0.000637079
0.0011367
-3.5776e-07
3.23565e-11
1.60782e-06
-3.00909e-10
-1.46749e-06
-8.31466e-07
1.20495e-11
-3.43987e-05
-3.26109e-09
8.17115e-06
-8.32757e-11
-8.81851e-08
1.40853e-05
-1.88595e-10
4.58156e-08
4.46994e-11
-9.24113e-08
-2.37297e-10
8.75276e-05
0.000645606
-2.9002e-05
4.38785e-05
7.50364e-06
1.6074e-09
5.23611e-11
-4.28637e-08
2.25643e-11
1.60101e-09
-3.04681e-08
0.000116213
-9.80016e-11
1.54643e-10
4.95261e-12
3.53621e-09
3.80565e-11
3.53665e-05
-0.000132689
2.5392e-11
-5.26694e-10
3.81054e-07
-4.45062e-10
1.10906e-09
0.00238736
-9.48269e-10
1.26843e-11
3.39083e-10
-9.10828e-08
-3.20056e-06
-5.913e-08
4.34458e-05
0.00222285
1.48457e-09
5.33658e-05
0.000225185
0.00109474
1.27595e-09
5.59296e-05
-1.0321e-11
0.00403668
4.52181e-08
2.06557e-05
-6.4892e-11
-6.87477e-11
-5.28199e-08
-0.000367867
6.30343e-05
1.61885e-08
-8.60143e-10
-1.58961e-10
-2.51635e-10
0.00148968
1.33216e-06
4.25857e-10
-4.02403e-10
1.14472e-08
2.48322e-10
-6.62562e-05
-0.000631066
-3.05091e-08
-5.85181e-09
-3.13225e-08
-1.20995e-07
2.3582e-11
-1.38298e-07
-8.72443e-10
4.209e-10
5.51699e-10
-0.00238127
2.3539e-05
-4.79174e-08
-2.19732e-05
-5.65895e-10
-2.39107e-10
-2.342e-09
-6.92178e-11
-1.28667e-09
4.45194e-05
-1.45938e-09
0.000107885
1.09042e-10
-1.9595e-07
2.11028e-07
1.30045e-10
2.73357e-05
0.00284839
-1.51936e-07
-0.000162344
3.81237e-09
0.000548048
2.33278e-08
-5.71387e-08
-0.00265563
0.00239887
-8.10359e-11
5.12019e-11
1.60093e-08
-7.30735e-10
-0.00141313
-7.79874e-07
1.43942e-10
8.87468e-11
-7.3164e-09
-9.24123e-05
3.05398e-07
-3.46483e-10
3.36821e-09
-1.0033e-06
1.24223e-09
-0.000642231
-0.000728317
0.0010123
-6.6343e-11
1.66693e-09
-1.48241e-09
1.13741e-07
-1.70579e-05
-3.44942e-11
3.90091e-09
-8.57144e-07
9.43493e-11
-3.99218e-09
0.00176509
-0.00247251
-2.56018e-08
-1.27729e-06
2.69763e-09
-1.43772e-10
-5.94136e-08
3.31273e-12
-0.000757861
-0.000250379
-6.01189e-10
0.00283499
3.42831e-11
0.000353817
1.00097e-11
1.23779e-08
-1.56686e-10
0.00173823
-1.57078e-09
0.000503892
1.59927e-06
1.33255e-10
1.78285e-09
-1.13134e-05
-4.61087e-05
0.00158296
-0.00243337
5.00256e-11
9.90482e-10
1.19192e-10
-0.00198727
-8.06684e-10
1.4158e-10
6.21461e-11
-3.07485e-06
-1.78192e-10
7.96775e-13
4.58065e-09
0.000433907
-7.96893e-10
0.00121904
-2.25291e-08
2.09633e-10
5.28842e-11
-1.15004e-05
-4.86458e-08
1.38554e-08
2.20644e-09
2.11816e-10
-2.01397e-11
1.236e-10
2.63781e-09
2.10239e-10
0.000626488
-8.05934e-11
-1.97296e-08
0.00424387
3.27287e-09
8.84105e-13
-9.47637e-11
-2.68526e-11
1.14042e-06
-1.31888e-10
3.00514e-10
0.0104994
-7.16876e-09
-8.61511e-08
8.67808e-11
-5.30499e-09
-5.79044e-11
5.39857e-09
0.000147381
-5.28206e-07
4.90211e-05
-9.28625e-07
7.80367e-10
-2.8091e-10
5.07679e-10
-6.38277e-08
9.55167e-10
2.05275e-10
0.00232849
-0.000973334
-6.94841e-10
9.459e-11
-3.25417e-05
7.24869e-12
1.60051e-06
-2.37139e-08
-1.53183e-08
0.00235715
-3.49063e-05
-1.93894e-10
1.40649e-08
2.47239e-10
-4.46814e-10
-7.72822e-11
-1.84556e-11
0.00267566
-1.03807e-10
-4.85479e-10
0.0019217
1.81911e-09
0.00138886
-1.18247e-09
3.80663e-10
0.00267917
1.05715e-07
-2.41872e-10
0.000238321
0.00181403
0.00443261
4.41661e-12
0.000140425
3.75274e-10
0.00208391
0.00190139
-1.04284e-10
-2.70478e-05
-1.37851e-07
-5.50847e-09
3.57632e-09
-8.39803e-06
6.52344e-10
7.29921e-11
1.37234e-08
0.00196838
-4.10666e-10
-7.69921e-08
3.16761e-11
-4.36982e-11
-3.5132e-05
5.35352e-10
-4.97344e-06
-0.000420811
0.00284355
4.98308e-11
7.79999e-10
1.22833e-09
1.80511e-10
-6.37299e-09
-0.000543227
6.98104e-06
-4.53442e-10
-0.000943752
9.77001e-06
6.0985e-11
-1.21824e-10
1.05115e-08
0.00251189
8.73043e-11
-0.000337512
0.000272286
-1.1453e-06
1.07158e-08
-1.61953e-09
3.60643e-07
-6.28571e-10
0.00263229
9.79359e-05
8.92871e-09
-7.54681e-05
1.00114e-10
-0.00105259
2.0569e-11
5.59264e-11
-1.15867e-10
3.53999e-12
3.24057e-11
1.26399e-09
1.87791e-11
5.08317e-11
-1.4663e-08
1.19727e-10
-1.26602e-08
-3.98473e-11
1.68894e-05
-1.00324e-10
4.04807e-11
-2.49766e-09
2.27987e-08
-2.00592e-10
-2.50269e-10
-5.17581e-10
8.68997e-07
-0.0102062
-1.54046e-05
-1.86564e-08
3.65169e-11
-2.5067e-10
-7.81116e-08
-2.71294e-10
-8.08246e-06
-6.97214e-06
1.23835e-05
4.336e-06
-2.56018e-10
0.000785355
-0.000123615
0.000253865
-7.61643e-11
-7.43876e-07
-0.00455435
6.51208e-06
4.37162e-10
-8.15252e-11
-1.71021e-12
-1.8758e-10
2.74766e-09
-2.62092e-06
-2.27775e-09
-0.000104575
-3.54839e-10
-3.61253e-09
-1.10074e-10
6.2816e-11
3.42592e-11
-1.01546e-08
-1.57025e-07
-7.04115e-07
5.54807e-09
1.23477e-08
-0.00143695
-0.00204277
-1.23863e-09
-1.44835e-11
1.34673e-08
1.47704e-10
-2.0257e-11
1.80077e-10
-1.4923e-09
1.4136e-10
3.50303e-10
-4.03628e-11
8.50808e-12
0.00263357
-7.14008e-10
-2.91624e-10
9.73866e-07
-5.61833e-09
2.39509e-07
1.02302e-10
-7.01376e-09
-1.65876e-10
1.96992e-05
-7.38718e-09
2.75581e-07
-6.72617e-12
-2.81585e-09
3.14101e-10
-8.29638e-10
-1.10814e-08
0.000243227
0.00243692
-2.37976e-08
5.91951e-05
4.29459e-11
1.00124e-08
0.00208901
6.27883e-06
5.89392e-05
-0.000711584
6.9414e-06
-8.45986e-12
-1.14715e-10
-2.56741e-10
0.00191559
-0.000513164
-2.02622e-07
-5.0299e-07
-3.17273e-12
-9.42766e-06
-0.00250838
-1.43109e-09
-9.44048e-11
-2.01008e-05
-4.67701e-09
-0.000235619
9.75939e-07
-0.00694835
-1.91372e-10
-2.64027e-05
-4.66734e-11
1.4527e-11
-1.03009e-10
-1.75263e-06
-0.000159194
9.38815e-05
2.28952e-07
9.20645e-10
3.36159e-11
7.62652e-11
-1.25892e-05
0.00136885
-1.83657e-11
-6.51691e-06
8.37154e-10
-3.16148e-08
0.00251848
1.43424e-11
-1.29336e-10
2.52668e-10
2.47082e-11
2.22157e-10
7.80571e-09
4.69097e-09
-0.0166165
1.95018e-09
0.00157434
-2.52384e-11
-8.52452e-07
-1.54586e-10
1.21651e-11
-2.04463e-11
9.32997e-11
1.53851e-08
-1.80111e-11
2.36078e-05
-1.60042e-07
-2.71055e-07
-6.41658e-10
-2.23262e-10
-8.62079e-07
8.30965e-10
5.18694e-07
0.00160873
3.15113e-10
-1.70389e-10
-7.16838e-10
0.000360642
2.02071e-08
-2.07095e-10
-6.69352e-10
-1.19219e-10
0.00270227
2.1532e-05
1.24856e-06
0.00111843
3.49471e-05
-5.83403e-09
-0.00236772
-6.78274e-11
3.81581e-05
-1.43676e-10
1.17934e-08
6.06905e-11
-1.13822e-06
3.37131e-11
-1.39609e-10
1.4878e-08
4.10278e-11
-4.27855e-11
-4.13865e-11
3.63148e-08
-1.60889e-05
-8.2295e-11
5.65551e-10
5.66962e-10
-1.07881e-09
2.94991e-05
-0.00016521
-1.16859e-10
-3.40645e-07
-1.0904e-07
4.01548e-05
-2.71378e-08
-1.70346e-06
0.000316793
-1.6009e-06
1.33589e-09
-1.56917e-10
2.12233e-10
-1.48093e-07
-2.50849e-08
-3.80164e-09
-3.20714e-10
5.86192e-11
-1.89037e-10
-6.44574e-10
-9.81531e-09
-0.00194846
0.00256044
7.19441e-11
1.31633e-10
-9.8309e-11
0.000832994
4.06612e-09
8.66564e-09
1.42619e-10
-3.62476e-11
0.000196084
-1.58411e-08
-1.47717e-08
0.00391905
8.4438e-10
-0.000269146
-1.51034e-09
-5.20888e-07
6.63045e-09
-1.20265e-10
-1.735e-10
0.00240206
1.27898e-08
-3.33179e-08
3.66943e-06
5.14312e-05
-7.18893e-09
-1.04609e-09
-6.52573e-06
-1.982e-05
7.24363e-11
-5.95378e-07
-4.24631e-07
-6.66355e-10
-2.45756e-10
1.13852e-09
4.4767e-10
-9.24578e-09
0.00303553
-0.000571052
0.000288818
-2.59161e-11
-1.22778e-10
2.79971e-09
2.52277e-09
-2.18256e-08
1.82937e-07
-8.81385e-08
-5.87016e-08
2.24692e-10
-5.94145e-10
2.33896e-09
1.04322e-08
-3.35974e-08
-1.30895e-10
-1.45415e-08
1.73664e-10
4.15416e-13
2.34159e-08
-7.39907e-05
-9.00454e-05
-1.54859e-09
0.002842
2.5292e-10
-0.000192956
6.51193e-09
-3.95622e-10
-3.67979e-10
6.87968e-09
0.00501287
-7.29963e-09
4.23994e-11
-6.30381e-11
-2.63658e-10
1.90762e-10
-0.0152496
5.04577e-05
-1.27827e-10
5.6799e-05
-0.000425276
2.49139e-10
-6.01498e-10
3.63064e-11
1.80564e-08
0.00101601
5.10672e-08
-7.52527e-11
-0.00277791
-7.66976e-07
3.29965e-09
-6.95533e-09
-1.65161e-10
0.000290758
-1.42075e-05
6.82646e-09
-1.16075e-07
4.05307e-10
-3.63119e-10
9.92379e-10
-1.68058e-07
-1.17253e-08
4.91548e-05
-1.58042e-07
1.35216e-05
1.29142e-09
4.41552e-09
-3.86259e-10
4.77089e-08
1.73009e-08
-8.20922e-08
-5.36091e-11
7.42269e-08
1.01148e-10
0.00253586
-1.34055e-10
3.37101e-09