/*--------------------------------*- C++ -*----------------------------------*\
| =========                 |                                                 |
| \\      /  F ield         | OpenFOAM: The Open Source CFD Toolbox           |
|  \\    /   O peration     | Version:  v2012                                 |
|   \\  /    A nd           | Website:  www.openfoam.com                      |
|    \\/     M anipulation  |                                                 |
\*---------------------------------------------------------------------------*/
FoamFile
{
    version     2.0;
    format      ascii;
    class       volScalarField;
    location    "250";
    object      ddt0(k);
}
// * * * * * * * * * * * * * * * * * * * * * * * * * * * * * * * * * * * * * //

dimensions      [0 2 -3 0 0 0 0];


internalField   nonuniform List<scalar> 
18232
(
-1.70056e-08
0.000853603
0.00999485
-5.0389e-06
1.0388e-07
-0.00699645
-0.00711635
2.55683e-09
2.21353e-07
-0.00722928
7.83746e-08
1.15822e-08
7.66433e-05
-0.0082093
3.5171e-06
0.0125032
-1.08692e-06
0.0191637
5.21762e-09
-0.010691
0.0115479
-0.00725326
0.00112178
-8.00379e-08
-2.08933e-08
-4.85911e-08
-7.09719e-08
0.00277503
-1.79701e-09
6.17199e-06
-4.34095e-08
-0.015407
5.47416e-06
4.34711e-09
-4.22434e-06
-4.82101e-10
0.0110175
0.0122098
0.0133691
7.28968e-09
1.93711e-06
-3.67445e-09
0.0103519
-9.21859e-08
-8.53348e-08
6.47684e-08
-0.00688476
2.55371e-06
3.63954e-06
-0.00718611
-1.03904e-06
3.11144e-06
1.39101e-08
0.000957662
2.57824e-08
1.33716e-07
0.00638817
0.0183461
2.21372e-08
2.87312e-06
-6.751e-06
0.0233451
0.0133085
-0.00596777
-1.64072e-08
-6.67589e-08
0.0168222
7.46384e-08
7.48176e-09
-2.04007e-08
4.07796e-08
-1.56827e-09
0.000904353
-2.44386e-08
-6.37887e-06
3.18938e-09
-2.2453e-07
0.0309054
0.0176359
0.000104819
-1.91338e-05
-3.72988e-06
-1.32975e-05
-5.03661e-08
-2.23626e-09
-0.000323095
1.55434e-07
2.57545e-08
0.00185864
0.0095748
-1.17985e-07
-2.02602e-08
-5.89691e-06
0.0541169
-1.07293e-07
3.94157e-07
1.40418e-08
6.56384e-09
1.60011e-08
1.18905e-07
-0.00235888
0.036409
-7.4591e-09
-8.15412e-09
7.70593e-09
0.00171396
7.30209e-09
-0.00852775
0.0171018
-0.00241654
0.00273444
-2.40097e-07
-5.02069e-06
-0.00191321
9.14638e-10
1.77759e-07
1.20484e-07
0.00067883
-0.01177
-6.3809e-08
-2.14062e-09
0.00414898
5.35452e-08
-0.000108393
2.92481e-09
-7.90854e-08
1.17605e-07
0.00942548
-6.61507e-06
-3.64572e-06
-2.58343e-07
-4.2719e-06
-6.898e-09
6.8987e-09
9.79085e-08
-2.41948e-10
-5.00121e-06
-8.81867e-07
0.00931658
-0.00595659
6.46477e-10
0.0134994
0.0096085
-1.8715e-05
2.2145e-09
-4.143e-10
1.17677e-07
-2.94582e-05
3.66023e-08
8.75698e-08
-1.84273e-05
-6.68132e-09
-0.00352721
2.58535e-08
0.0179393
-1.44519e-05
0.00990841
-1.42561e-06
-1.97792e-07
0.0139145
-1.0386e-08
0.00883496
0.0174269
0.00164091
-0.0021171
2.10632e-08
-4.72467e-07
0.0111755
1.35475e-08
-1.45987e-05
-9.22955e-09
-0.000244678
-6.34471e-06
-1.2394e-08
1.61477e-11
-4.75704e-09
-0.00466949
5.70515e-09
-7.6372e-09
-5.23075e-09
-6.92158e-09
-0.0139954
1.09443e-07
-0.00106009
-1.9704e-09
-9.77014e-10
-4.27586e-09
0.0101737
3.57739e-06
-4.46614e-06
1.05435e-07
-0.00456874
-4.4828e-08
2.7068e-08
-7.66835e-09
3.72265e-08
-2.43807e-07
-1.57577e-08
1.23538e-07
6.15522e-09
1.47798e-07
1.34649e-08
9.7254e-09
2.7747e-09
-1.7352e-08
-2.8214e-07
2.76481e-06
3.02681e-07
-1.42099e-08
-1.61944e-09
-2.05804e-10
-2.02625e-08
8.10336e-09
-1.7592e-05
2.10028e-08
0.00053244
-2.90439e-07
-5.02117e-10
0.0013028
-2.04591e-05
-3.27828e-09
1.92119e-06
0.000724502
-0.000465228
1.20799e-06
1.48782e-08
-5.42703e-08
-1.16332e-07
2.40908e-06
-3.75201e-06
-0.00103225
-8.7758e-10
-1.49997e-10
-3.84178e-09
-1.42381e-07
1.59617e-09
-2.32281e-07
-1.1584e-05
-1.30554e-07
-4.10956e-08
0.0130114
-1.39871e-08
-1.31154e-07
-2.05237e-06
0.0374086
1.52171e-10
-7.02496e-07
-2.00585e-07
9.12205e-09
2.70777e-09
0.0137212
3.56766e-08
0.0141997
-1.3604e-06
-4.44495e-06
-0.00341634
5.26165e-08
0.00525101
-3.67455e-08
1.6926e-08
0.00407275
-1.36028e-09
0.00561174
1.36516e-07
-5.50904e-08
-1.0483e-05
9.76305e-05
-2.40372e-08
-1.27265e-08
0.00545604
-6.30194e-09
-2.98988e-07
-1.73981e-05
0.00699147
9.96387e-05
1.84644e-09
0.000207136
-5.56944e-08
6.64929e-09
-3.91167e-05
0.0332594
-0.00334598
0.0105413
4.18917e-09
-0.000100519
-2.00841e-08
-1.53157e-07
6.71988e-08
0.00896114
2.15871e-06
0.0028676
-0.00546587
5.05232e-10
-4.27318e-08
-7.34587e-08
3.91504e-09
7.17227e-09
-1.30123e-09
8.34581e-08
0.000673506
-1.38174e-07
-1.32774e-05
0.0136025
2.9374e-10
1.77629e-09
1.39159e-08
-1.1791e-08
1.28468e-06
9.43901e-10
-1.68699e-08
-4.39889e-09
-5.41103e-06
0.00201493
1.63145e-08
-7.05421e-08
0.000139338
-1.47161e-08
-7.1889e-07
1.64106e-06
-2.51325e-09
4.22351e-08
0.00743145
-7.67521e-06
1.77854e-08
-5.62951e-06
-0.00600874
1.74161e-08
4.46581e-08
1.3686e-08
1.93103e-08
5.96293e-06
-3.54026e-06
0.000168569
6.7771e-09
-2.78328e-09
-7.83746e-06
-1.0404e-08
-5.97771e-08
-1.67921e-06
0.0011093
2.85402e-07
-2.31033e-06
-1.7724e-07
2.37036e-07
1.84368e-06
1.3726e-06
-0.0192825
-1.73351e-08
3.35565e-09
2.05423e-09
1.76702e-08
2.80372e-06
-2.88251e-06
5.22105e-08
4.18021e-08
-7.19488e-10
0.00921754
-3.48272e-09
7.02626e-08
-1.02784e-08
-8.38018e-09
-5.0952e-05
2.15887e-06
1.37307e-08
4.74732e-08
1.34216e-08
-5.86566e-09
3.45179e-08
-3.02417e-06
-1.85106e-08
1.13645e-11
-1.61885e-07
-0.0529849
6.77952e-08
-3.02478e-07
-4.73625e-09
0.00281805
-7.99253e-10
5.40241e-08
0.0232739
-0.00969019
1.84657e-09
7.94268e-09
-8.92655e-07
-2.71076e-09
-2.64856e-09
4.53285e-07
-3.30948e-05
5.25986e-08
6.60283e-08
3.08712e-06
0.00491902
-2.29576e-09
-2.91932e-09
-9.36188e-08
3.9659e-08
-0.00289183
-1.52132e-08
0.00520961
1.14229e-07
-8.01586e-06
1.31783e-09
2.96718e-07
1.17086e-07
0.00417289
2.13243e-06
7.31601e-08
-2.89404e-05
-3.86785e-06
3.12914e-05
0.00877016
1.59925e-08
0.00137457
-3.93194e-08
9.67108e-08
1.15905e-07
1.23469e-08
0.00415362
-1.87907e-09
-1.09837e-07
3.1944e-07
-0.003584
0.00186067
-9.71386e-06
-7.67005e-08
-0.000125087
-1.52205e-06
-2.73262e-09
-3.39659e-08
0.00322621
0.00366189
5.95266e-08
2.0504e-08
4.53556e-09
1.07107e-09
-7.57424e-09
-7.77029e-06
-3.53139e-07
-3.257e-09
2.61366e-06
-4.07336e-08
4.40172e-09
0.000791624
1.08787e-08
-5.60768e-08
1.71139e-08
4.41754e-06
0.0121458
5.26846e-09
6.87124e-09
0.00896495
-1.69018e-07
-3.11844e-06
2.00319e-08
-2.47123e-08
-1.09166e-08
6.79935e-08
0.00121495
-9.94372e-08
8.75209e-09
1.23592e-08
3.94411e-08
-7.06003e-06
-1.24314e-08
2.45255e-07
-4.70488e-06
1.96472e-08
0.0012735
-1.85974e-09
-1.8892e-09
-0.0915282
1.97529e-07
0.00895376
0.00903515
0.0138356
-3.22723e-09
-3.85615e-09
8.90384e-09
0.00139265
-1.10689e-08
9.21142e-09
6.93742e-09
-0.0181988
-2.91379e-09
1.44391e-09
-4.49628e-09
-7.73038e-06
0.00690723
-5.71242e-05
2.17278e-07
-6.0041e-08
0.00530808
0.00306947
1.5758e-09
0.0017689
-3.50027e-08
0.00945257
-3.39014e-08
3.35721e-07
4.14883e-10
0.00165051
-9.92939e-10
2.95593e-09
6.69552e-08
0.00790204
5.07801e-09
-3.4696e-07
4.88677e-08
0.00579806
-5.04333e-08
2.02836e-06
-6.17608e-08
-6.36298e-06
-6.15556e-09
0.0131368
2.48135e-07
-2.772e-09
1.36792e-08
6.91594e-09
-2.3697e-09
1.44683e-09
3.59205e-09
4.84929e-08
-3.01461e-08
1.70482e-08
4.57203e-08
-1.7608e-06
-0.0224824
-4.81382e-09
4.28043e-06
-2.24286e-09
0.0160361
0.00296727
2.97315e-10
-1.99026e-06
1.37514e-07
-0.000642617
-6.59655e-09
0.00389683
-2.32248e-08
-1.05107e-08
-0.0828151
-1.80105e-06
4.46461e-07
-0.0146867
-3.97226e-07
-2.66171e-07
1.65622e-09
0.0023338
2.70687e-09
-1.55201e-06
1.31903e-07
-1.27598e-06
-7.58768e-09
-7.68969e-06
1.79144e-06
5.98795e-09
2.12266e-08
2.19058e-08
7.64035e-07
1.37236e-07
-6.50394e-09
-1.02828e-09
0.00356835
-0.000469896
0.00510134
2.13608e-06
0.000238056
0.000760566
0.000457735
-5.33763e-09
0.0207634
-1.09363e-08
-2.06182e-05
-3.55465e-09
-6.36795e-09
2.97264e-09
-3.95652e-08
-2.92841e-08
0.0144165
-2.33876e-07
1.88771e-10
-0.000394357
0.0129831
0.0389388
-1.73372e-08
-6.42314e-07
-1.872e-08
9.0824e-08
-2.23431e-09
4.12306e-07
5.8627e-10
7.22948e-05
2.60241e-07
2.80695e-09
0.00609226
4.29896e-08
-1.48419e-06
-0.00486573
-9.52271e-10
1.28558e-06
-0.00260171
0.00522623
6.95228e-08
-5.60067e-06
1.13007e-08
4.89211e-10
-6.28785e-09
0.0202341
-3.27679e-06
0.0356371
-1.10495e-08
1.04875e-07
0.0231383
5.63684e-10
0.00555204
0.0208292
6.89434e-06
2.91041e-08
-1.39472e-08
-2.70702e-09
-1.45483e-09
0.000837483
-0.0171498
-1.48967e-06
-1.64213e-05
0.00310611
2.58252e-06
2.46397e-06
-2.91472e-07
0.000306227
-5.65467e-09
3.20135e-08
0.000508063
0.000431218
1.37142e-06
-4.53832e-06
-2.13455e-09
3.80116e-08
-1.19722e-05
0.000673975
0.000463648
-2.40481e-09
6.58084e-08
0.000641766
-6.82272e-07
-0.00874335
3.57612e-07
1.06468e-06
1.28086e-09
-4.80832e-07
-1.12467e-09
-1.597e-06
-6.43798e-05
1.21677e-08
-3.02396e-09
3.25011e-07
0.000541841
1.27537e-08
1.84922e-07
5.21754e-06
1.60239e-06
-2.3786e-08
-2.74005e-09
2.17896e-06
-4.40225e-07
5.04108e-06
1.3357e-08
-2.99713e-09
3.32793e-08
0.00329026
3.22652e-08
1.98695e-07
-0.00402403
-4.05134e-09
-1.4121e-08
-1.01623e-07
8.63568e-07
-2.64033e-09
7.17385e-08
2.26153e-07
-2.76602e-09
-2.00068e-05
-1.81469e-09
-3.25833e-07
-1.76796e-08
0.0168005
-3.14718e-07
-5.57775e-08
-9.51286e-08
3.85259e-05
-2.54488e-09
3.85582e-10
-0.00599695
2.05003e-07
-7.65416e-07
-7.41773e-10
-1.44692e-08
0.00438535
5.29603e-07
0.000777251
-1.26408e-07
-4.36427e-08
-3.65996e-06
-1.82407e-05
3.33687e-07
-1.10334e-06
1.46716e-06
-3.78895e-10
1.42236e-07
-2.00002e-07
-3.03257e-07
-2.06568e-09
-5.00047e-08
0.0162333
7.9648e-08
-3.80601e-08
-6.28699e-07
1.9676e-08
0.00257094
1.0614e-06
0.00838799
-1.37224e-05
-8.74175e-06
1.32598e-08
-2.48404e-07
-1.19128e-08
2.44715e-07
-2.1842e-05
1.89062e-09
-7.94316e-09
-1.38719e-05
6.99354e-08
1.66329e-08
0.000694593
7.62448e-08
-6.70601e-07
-1.10143e-07
-0.00323729
2.01201e-08
5.38769e-07
0.0010721
-2.62373e-07
-0.00171933
-0.0058492
-0.000555338
-1.79043e-09
-0.000824324
2.45645e-06
0.0210727
2.93968e-07
6.3069e-08
-6.2181e-06
-3.47075e-09
0.0146633
0.0163873
-1.84373e-08
-1.01539e-05
-4.18604e-06
-0.00293408
2.59435e-08
-3.5865e-10
-3.5271e-06
0.0137243
2.62852e-09
-1.20795e-07
8.38887e-07
-6.03518e-08
2.03263e-09
0.000266211
-3.30784e-06
-5.20685e-06
0.0192716
2.45306e-08
-1.66052e-08
-1.49117e-08
-2.74307e-06
-1.00641e-06
0.000148317
2.77744e-08
0.011982
-1.31808e-07
-7.74322e-07
-1.15003e-07
1.236e-08
-0.00915479
1.45145e-07
0.00488176
-3.52361e-09
-9.7128e-09
-7.35035e-07
-3.76427e-06
1.72726e-08
-4.00578e-07
3.87031e-07
-1.52465e-08
-3.52365e-09
-2.18923e-06
-1.09278e-05
0.000140021
-4.81839e-06
3.69266e-07
-1.16773e-07
-1.94077e-09
-9.55258e-08
9.78279e-06
-1.64474e-05
4.82111e-07
-1.68722e-08
-3.4592e-09
0.0120202
2.16582e-07
0.00209742
-0.00137995
-6.49171e-08
2.14298e-06
7.51382e-08
0.0144383
-9.25867e-09
-4.06587e-09
-2.09844e-08
7.07114e-08
1.22624e-08
-2.72581e-06
2.574e-08
0.000314585
-2.24742e-09
-7.1882e-09
-6.62356e-10
-2.9729e-09
5.16114e-09
2.61009e-08
-4.6602e-09
1.64934e-06
-6.22993e-09
1.20524e-06
-5.47188e-06
0.00497723
-3.31321e-06
-1.14483e-08
0.00154636
-6.87898e-09
-1.43691e-08
1.45292e-08
9.7519e-08
-1.08237e-05
0.000269303
0.0206293
-0.00579855
-1.90535e-08
-1.6068e-08
1.7379e-08
-1.51027e-09
7.55117e-07
-1.2948e-09
0.0243819
0.000714084
0.0170942
6.93836e-08
8.17271e-08
1.50218e-05
8.10317e-08
0.00386689
-6.56385e-08
0.00521117
-3.95021e-07
-7.34956e-09
0.001142
5.78035e-09
-2.70979e-06
7.74304e-08
0.000627092
-3.19769e-06
4.11652e-08
5.02191e-08
2.06408e-08
-8.75906e-09
-1.63932e-07
0.0469559
-9.11817e-06
-2.58048e-06
1.60615e-08
-2.67572e-09
-0.0060149
-0.025832
8.15486e-08
1.08045e-07
0.000806307
-0.0046079
-3.18701e-06
7.509e-08
6.59089e-05
2.72351e-07
-1.5147e-06
1.10107e-09
-1.00859e-08
-1.21597e-07
2.728e-08
-9.44742e-06
8.62727e-08
-5.7224e-07
8.49037e-08
7.43605e-08
0.0398121
6.31746e-08
-1.05665e-08
-9.08531e-10
-4.73935e-09
2.18343e-08
-4.7272e-09
9.60442e-07
-8.83148e-09
-5.69119e-06
0.0147942
-0.00381243
3.13087e-09
0.00719761
-4.09778e-06
0.00410356
-1.16297e-07
0.000491203
-0.00333023
2.50735e-08
1.61647e-08
-2.26568e-07
-7.67451e-08
-4.30248e-06
1.81405e-06
1.54684e-06
-0.00985166
3.00242e-08
-1.23324e-08
1.51652e-07
3.98428e-09
-8.18615e-09
3.92836e-09
-0.000950457
-0.000664644
-3.13551e-06
-5.74515e-08
3.62361e-09
4.55019e-08
0.000469526
-6.85363e-09
7.23193e-09
-0.00112888
9.04415e-09
-0.0255557
-1.37087e-07
-6.32122e-09
0.0160329
9.60756e-10
-1.26224e-06
0.00573676
1.776e-08
-5.1586e-10
-5.63278e-08
-1.26738e-05
0.00325678
-0.0035288
0.0327813
9.52031e-07
-1.99868e-10
-6.12139e-09
-0.0029696
4.43886e-07
1.51956e-09
-2.56432e-08
-1.81846e-08
-1.26518e-09
0.00785851
0.0156707
-0.000248553
2.4999e-08
-0.00974112
-4.24468e-05
-0.00404067
-4.31443e-09
4.71598e-06
-1.28018e-09
-0.00105543
-4.99902e-10
1.8239e-10
0.00153926
-6.8485e-07
2.2367e-08
-1.14351e-06
1.34977e-09
-2.86894e-06
3.511e-08
4.08881e-10
-2.80319e-08
-1.57643e-08
3.01334e-07
0.0153438
-3.45677e-09
1.81843e-06
3.08257e-07
8.33369e-09
-9.83408e-09
-1.16517e-09
1.39688e-07
-0.000247661
4.0364e-09
0.0129743
2.69922e-07
-0.000721495
1.34981e-08
-1.33922e-07
8.03207e-07
-1.4864e-08
3.90255e-10
3.06516e-08
3.9298e-07
1.42868e-06
-8.89435e-10
-0.000442354
1.5527e-06
-7.76136e-06
-0.0843898
-2.17223e-09
-4.30183e-08
-1.36072e-09
2.49494e-07
1.79385e-07
1.39246e-07
0.0011133
1.03212e-08
1.12577e-07
8.94323e-08
0.00107403
-0.00324387
-1.49716e-05
-1.89229e-08
-8.55835e-08
5.00371e-10
-7.10669e-06
5.04789e-09
9.08264e-09
0.0020778
-1.64853e-05
-9.61276e-09
-2.72199e-06
0.00164803
-1.38697e-08
6.03823e-09
0.0302776
1.14482e-08
-4.93929e-08
-2.86002e-05
0.00182842
6.1403e-09
0.000276205
1.23925e-07
1.39003e-08
7.69038e-07
-1.08945e-09
0.00306671
-4.48925e-09
1.77422e-09
-0.00291142
-5.232e-09
1.8037e-07
2.16626e-08
6.59785e-09
5.217e-09
-5.7414e-11
5.65499e-07
7.30766e-07
-2.01336e-08
-5.6555e-05
-3.75146e-11
-3.5609e-06
0.000151305
6.41017e-07
0.00352613
-1.80702e-09
-0.00334561
-2.3637e-09
0.00325499
6.2156e-09
0.00731582
-0.00255695
-0.0025036
6.36326e-09
0.0167008
-0.000329889
-0.0252048
1.15796e-07
-1.09765e-07
9.93148e-05
-0.00197597
0.040968
2.71831e-08
-1.67389e-06
-3.85341e-06
2.19411e-08
-0.00340265
-1.00345e-09
-2.31044e-06
0.0035292
7.61021e-09
-2.55532e-09
5.5793e-08
-1.49239e-09
1.14616e-09
0.0112128
-3.4615e-09
-4.25653e-05
1.8421e-09
0.00340442
0.00146685
6.26637e-09
-2.1468e-08
2.05275e-08
1.43369e-07
0.0104588
-5.84285e-07
-0.00507642
8.36828e-07
-0.0205744
9.09657e-09
1.47316e-08
-1.17788e-09
1.33747e-09
5.63185e-10
0.00211677
2.43642e-09
3.64535e-09
1.91987e-09
0.00031071
-1.39299e-07
6.29902e-08
-0.00161874
-3.17987e-07
2.56904e-09
-8.90264e-06
5.06346e-09
-5.20643e-09
-5.03184e-09
-3.75262e-06
1.34266e-09
0.0163335
-6.77314e-09
-7.49627e-09
1.79604e-05
2.94437e-09
8.58553e-09
-0.00182046
-1.7279e-05
0.000468221
0.00457081
1.33552e-07
-3.67357e-09
-2.15805e-08
2.05746e-08
-1.12641e-05
-0.00185165
0.0292213
-6.81696e-09
0.0403149
-0.000544868
1.18042e-08
5.36775e-09
3.2968e-08
-0.00141973
0.00504264
-1.46229e-09
-1.17741e-08
2.49069e-09
3.58797e-07
-4.65959e-09
-1.81512e-05
-1.36477e-08
-5.82011e-06
4.70142e-10
-3.7291e-10
0.00313285
-1.70482e-06
7.18549e-08
-0.00411896
2.90425e-09
0.0175891
-5.66484e-09
-4.26143e-09
0.00950995
5.25252e-08
-9.21218e-09
-0.00354206
-7.88831e-09
-8.62783e-09
-9.8317e-11
7.8649e-07
1.42635e-09
-0.00166731
-1.01145e-07
3.34578e-07
5.54198e-07
-1.29665e-07
-1.47232e-06
-2.77054e-08
9.58482e-10
2.72262e-10
3.02884e-08
-0.00474672
1.15151e-06
4.22901e-08
9.31007e-10
-0.0030174
1.11702e-08
-1.31865e-05
4.692e-08
7.41486e-08
-5.35027e-08
1.71998e-09
-2.00603e-07
-9.68199e-06
0.000874935
-0.00328549
0.00111856
-1.93608e-06
-2.40213e-06
0.000628044
-2.17696e-08
-1.55489e-06
1.24582e-08
-3.41101e-08
-2.08714e-09
-5.21901e-08
-0.000574922
-2.5953e-09
0.013748
-9.87453e-10
2.0271e-09
-9.52078e-09
-2.23105e-09
0.00718733
-1.12322e-10
-0.00177096
2.08319e-08
3.61555e-07
1.54736e-06
-2.80491e-07
-0.00445021
2.70665e-08
-0.00591
8.71727e-09
1.93297e-07
-1.37826e-05
1.60783e-09
0.000157747
-1.63484e-09
5.85052e-08
2.09803e-09
1.28281e-08
-8.21071e-09
0.0050546
-2.36225e-09
8.25253e-09
-2.16873e-08
0.0142078
-0.00214969
-1.60587e-08
-1.24772e-05
-4.77152e-09
-2.59532e-09
-1.03786e-08
-3.02671e-08
1.63244e-09
6.10362e-08
5.78312e-10
-1.01737e-08
-1.10011e-05
1.3019e-07
-6.03182e-09
-2.72624e-09
-1.19088e-07
0.0126994
0.0042563
1.94846e-05
4.94e-08
-0.00218667
7.88604e-07
0.000217047
2.05157e-08
-6.84544e-07
0.0169516
-2.028e-08
-1.2665e-09
3.3561e-09
-9.24747e-07
0.00293032
-4.37996e-09
-5.27885e-09
5.98898e-08
9.81746e-09
-0.00214489
0.00753658
-1.36525e-08
1.17611e-05
-1.78215e-07
0.0164694
0.0210593
-2.67163e-08
-2.22761e-07
1.76499e-06
8.57688e-10
2.44313e-07
-0.000107811
-1.42181e-05
-2.81342e-08
0.00164565
-1.06187e-07
-3.611e-07
-6.72668e-06
-1.42964e-08
1.18331e-06
2.69828e-07
3.00564e-09
-0.00795479
1.66278e-09
-2.58787e-08
6.2019e-06
-0.0177857
-8.68427e-10
0.00276069
-5.37262e-10
-5.97058e-06
6.43421e-09
-7.72566e-09
-2.88154e-07
2.18129e-07
2.65822e-06
3.98697e-07
8.588e-09
0.0244731
2.92566e-08
-1.24229e-06
7.63018e-07
1.32801e-07
1.83552e-08
0.00149383
-5.78313e-09
-1.23079e-08
0.0207579
-1.95927e-08
-0.0247906
-3.71138e-09
-9.35752e-06
1.26404e-07
4.58455e-10
0.00215915
2.63242e-08
-5.75692e-06
-0.00163994
-3.59008e-10
0.0207671
0.000306828
1.17189e-07
-2.35081e-09
-2.59677e-06
-1.99986e-05
2.49072e-07
0.015433
-1.6544e-07
3.82161e-08
-0.000959515
-0.00950368
-1.57135e-08
-0.0223229
0.00192236
-8.01285e-09
-4.51141e-09
-4.62274e-06
-6.15465e-06
7.11817e-08
-1.20102e-05
-0.000453088
-0.00248528
1.12887e-07
1.49091e-07
2.43157e-09
-2.2963e-08
2.42656e-09
0.0159419
0.00343134
-4.23389e-08
0.00770307
-4.13541e-11
-7.15992e-09
-0.00295307
-0.00347799
-7.26296e-09
-3.6547e-08
-2.2388e-05
0.00470995
6.97843e-08
2.80561e-07
1.33904e-08
-0.0117945
-0.0932026
7.11411e-07
1.22373e-07
-0.00141002
1.9952e-08
0.0130362
9.68738e-08
-4.49886e-08
-3.67848e-08
-4.38528e-09
8.89171e-09
-1.8397e-08
5.85682e-08
-0.000517143
0.00705847
1.97467e-10
-0.0209001
-9.90471e-07
0.00667371
-1.40032e-07
0.00140312
-1.69161e-06
3.57105e-08
9.64359e-10
-1.18626e-08
1.66079e-08
-3.96484e-07
-5.26862e-08
4.6999e-08
-0.00355959
-8.41611e-07
0.0134949
1.85474e-06
0.0012005
-8.62787e-09
-1.37297e-07
0.00275953
8.78213e-07
-4.82624e-07
-2.66757e-07
-4.88812e-09
0.0168015
5.11433e-08
-2.10068e-06
8.3918e-06
4.46511e-08
-0.000365146
0.0161374
0.0196599
-1.03397e-06
-0.0255182
-0.00453821
-0.00173021
6.15423e-09
7.32126e-05
-0.00538292
-0.000595185
-0.00116807
7.33733e-09
0.00236713
-1.25096e-08
2.54451e-08
0.000998513
-0.000106724
0.00687954
-0.00113163
-1.04309e-06
0.00030394
0.0168061
0.00626847
-3.09498e-08
7.07904e-09
-1.22494e-08
-0.00849858
-1.42315e-06
-0.000345597
-3.12544e-07
-0.00165358
-0.0518077
-0.00900016
-1.4892e-06
0.00102815
-4.6985e-08
-7.51616e-08
-5.12992e-07
0.000895498
-1.24471e-08
5.71103e-08
-5.93186e-09
0.00964104
-7.82612e-07
1.68063e-06
-1.79962e-08
-0.00635654
-0.0180156
-2.14521e-05
-0.000214178
-0.00233044
-2.46388e-08
1.4145e-07
-3.08368e-06
-1.00207e-05
-0.0238662
0.000381546
-2.07189e-08
0.000407683
1.40079e-07
-1.3572e-07
-0.0186095
-9.68726e-10
2.50556e-09
-3.46754e-06
-0.00287725
6.81277e-09
-0.0038269
0.0393915
-5.59334e-07
1.301e-07
0.000528337
0.00870189
-8.23658e-06
-0.0029879
2.82632e-08
-9.70487e-07
-3.65941e-05
2.39116e-06
-3.86611e-06
-7.94086e-07
6.51039e-06
4.01992e-06
-5.00129e-06
0.00091665
-6.43026e-06
0.00182897
3.05787e-09
-2.99644e-07
0.00806682
0.00419875
0.0445375
-2.79637e-07
0.0157609
5.94469e-09
0.00578784
3.22144e-07
-1.86171e-08
0.0213392
0.000885596
9.92268e-08
1.50311e-07
-4.1666e-08
0.0182581
0.000119485
2.44776e-07
1.1142e-06
1.83064e-09
-0.00160363
0.0181279
7.80438e-07
1.02486e-08
0.00638088
-0.0571152
0.0173569
-1.45812e-05
-4.46802e-08
-6.93784e-08
1.44608e-08
3.49302e-08
1.00843e-08
-0.00276059
-1.55918e-05
1.96169e-08
9.89608e-10
3.3766e-08
-9.37351e-08
-0.00346806
1.02868e-06
-1.34649e-05
-1.84821e-08
-7.89937e-08
7.62388e-09
-2.44169e-05
-2.47697e-08
2.5587e-09
-1.06037e-05
0.000449523
2.96745e-09
1.99731e-07
0.0175423
0.0144746
-2.43148e-06
9.67398e-09
0.0170652
0.0125498
5.41351e-07
0.000731453
-6.40046e-07
-2.70673e-08
0.00832665
9.11443e-07
-0.0163981
2.81298e-09
-2.7036e-06
6.91493e-09
-0.000756028
-4.13062e-08
-4.22359e-09
2.61514e-08
-2.0289e-07
-1.10548e-06
-1.20517e-05
-5.60975e-09
5.04816e-08
-6.98772e-09
-2.24116e-06
-2.8953e-09
0.0219519
1.35874e-09
2.52998e-06
2.76825e-08
-2.91888e-07
1.24195e-08
1.05967e-06
-3.49454e-09
6.6312e-08
-0.000202345
-1.53337e-06
-0.0760616
3.16218e-07
-6.03207e-09
0.0143582
5.09305e-07
0.00662008
-2.21656e-06
-3.93984e-08
0.0205743
-1.16345e-08
0.00741615
6.8022e-07
3.3314e-09
3.21352e-07
1.98339e-08
-4.77071e-08
1.20313e-08
0.000156238
9.40418e-09
-7.8433e-08
-0.00472998
-5.31119e-10
-0.00265646
-2.76006e-10
-3.69884e-06
2.19617e-08
-9.21e-08
-5.25103e-05
0.000880248
-1.12463e-08
-1.80588e-09
-1.36988e-08
-3.73712e-08
-8.46998e-09
2.10457e-09
0.00639169
0.00117237
1.29161e-06
4.20869e-08
4.39566e-07
0.000129503
-5.51399e-06
0.0164363
1.41492e-08
-4.64023e-08
-0.00280916
-0.000559478
-0.00233907
-3.60278e-06
0.00124404
0.00637781
-2.99811e-07
-1.28028e-08
5.45429e-05
-0.00028353
3.85006e-08
3.83254e-09
-3.94043e-08
6.70965e-09
1.26632e-08
4.76313e-06
6.29267e-05
2.74111e-08
2.49089e-09
3.51668e-06
4.2978e-08
0.00032899
-0.000650628
4.79545e-08
1.09671e-06
0.00378393
1.45202e-07
-0.00516158
3.57482e-09
-2.0753e-08
1.71951e-07
-0.000358912
-2.8747e-06
-3.43991e-06
3.93135e-06
0.00106714
1.86822e-05
0.00713155
0.016728
-1.08915e-06
4.34559e-08
-6.25771e-08
-1.06603e-07
1.11895e-08
-1.45494e-09
-0.00800301
1.04276e-08
4.14142e-07
0.0181816
-9.23839e-09
1.82635e-06
0.00568345
-1.73705e-08
-1.11225e-08
0.00666456
0.000174018
0.0175639
0.00719599
4.96217e-08
2.51286e-08
-1.20434e-05
0.00927081
-8.59473e-07
-3.45327e-05
-1.20979e-05
-0.00913472
0.00584691
-8.7149e-06
-5.7529e-10
4.12216e-05
-1.41109e-07
0.000127481
-2.52079e-05
1.50215e-09
-0.00133796
-5.24769e-07
4.68989e-05
-9.99504e-09
-4.73284e-06
0.000172825
5.19348e-09
5.29257e-07
5.63078e-09
-2.25602e-06
-2.40402e-08
0.00118951
0.0042428
-0.00368202
6.29533e-05
0.000289008
5.10535e-08
1.01646e-08
9.87978e-07
-2.66855e-10
3.60728e-08
-9.36656e-07
0.00324148
-8.84239e-09
-8.37951e-09
1.07198e-08
1.66584e-07
2.5938e-09
0.000339841
-0.00245337
2.17145e-09
-9.87424e-09
-8.02175e-05
1.20788e-08
3.67216e-08
0.0172014
-5.21161e-08
3.61442e-09
2.60181e-08
-2.97534e-06
-0.00149579
-1.54938e-06
0.0013817
0.0172946
3.31836e-07
0.00169353
0.00241638
0.000799313
7.03254e-08
0.00152491
-3.50917e-10
0.0157007
6.42421e-06
-0.00303219
-3.71995e-09
-1.53345e-08
-5.0104e-05
-0.00554837
0.00210137
6.41431e-07
-5.56098e-08
-9.65957e-09
4.48845e-10
0.00601665
-0.000645367
-5.94345e-09
-1.2597e-08
-4.22706e-05
1.44867e-08
-0.00455547
-0.00996218
-0.000143322
-2.37227e-07
-1.52809e-06
-3.97253e-06
8.30263e-10
-4.54954e-06
-5.37838e-08
1.47586e-08
1.39971e-08
-0.0155938
0.000267011
-1.62669e-06
-0.00374865
-2.10874e-08
-1.18277e-08
-7.66131e-08
-4.3525e-09
-5.43572e-08
0.00064963
-4.05531e-08
0.00197827
1.60994e-08
-0.000164757
-3.83861e-05
3.23592e-09
0.000712552
0.0165168
-4.55788e-06
-0.00286999
1.76039e-07
0.00655116
8.63936e-07
-0.000222749
-0.00795323
0.015039
-1.42688e-08
1.85975e-09
6.69047e-07
-6.00504e-08
-0.0107058
-1.94737e-05
1.72508e-08
8.27211e-09
-2.57884e-07
-0.00174697
-6.01458e-05
-1.70086e-08
1.62834e-07
-0.000381012
7.15767e-08
-0.00254784
-0.0105647
0.00422593
-1.46976e-08
9.29268e-08
-6.79183e-08
4.06037e-06
-0.000942638
-2.41871e-09
1.33385e-07
-7.25672e-05
1.30115e-06
-1.93988e-07
0.0056367
-0.00763006
-8.76263e-07
-0.000106781
8.52888e-08
-5.0092e-09
-1.98931e-06
3.19782e-10
-0.011002
-0.00385099
-2.76852e-08
0.0142995
3.04847e-09
0.0058551
3.45629e-09
6.3773e-07
-1.36952e-08
0.00695286
-8.34128e-08
0.00240195
0.00017114
7.48361e-09
7.53948e-08
-0.000361475
-0.000953684
0.0173889
-0.00753173
6.13078e-09
5.74472e-08
-1.95927e-09
-0.0180206
-5.53192e-08
-9.55722e-08
1.54783e-09
-2.08819e-05
-1.46875e-08
-7.74924e-08
1.53011e-07
0.00415739
-2.98422e-08
0.00626079
8.58103e-08
3.90292e-07
3.12398e-09
-0.000349408
-1.64504e-06
5.90564e-07
8.24573e-08
2.26317e-08
3.67993e-09
-2.44602e-09
4.45983e-07
1.44829e-08
0.00701502
-6.32839e-09
-6.23614e-07
0.0220964
1.63475e-07
-3.27515e-09
-1.41785e-09
-3.77443e-09
0.000754933
-8.81598e-09
3.54577e-08
0.0597946
-3.17029e-07
-2.79601e-06
3.94002e-09
-4.84955e-06
-3.56615e-09
2.22853e-07
0.00200028
-1.47813e-05
0.00132746
-1.65531e-05
3.73892e-08
3.22934e-08
2.11627e-08
-2.20601e-06
4.70918e-08
1.60376e-08
0.013036
-0.0102643
-4.52667e-08
9.37192e-08
-0.000911302
1.0611e-09
6.42733e-05
-2.4467e-07
-7.20452e-07
0.0222375
-0.000902024
-1.46568e-08
5.95583e-07
1.70688e-08
-1.70816e-08
-4.89544e-10
-3.6025e-10
0.0174969
-1.98027e-08
-2.31416e-08
0.0102832
1.00086e-07
0.00679545
5.74343e-07
3.32525e-08
0.0173507
4.2193e-06
-1.71144e-08
0.00387881
0.00716798
0.0233608
-2.61309e-11
0.00418026
9.16613e-09
0.0210783
0.00946957
-5.01421e-09
-0.000671013
-5.57987e-06
-2.12738e-07
1.37034e-07
-0.0002017
5.18062e-08
1.29133e-08
7.79392e-07
0.00979287
-6.6989e-09
-2.61808e-06
8.04484e-10
-1.95939e-09
-0.000919618
3.96624e-08
-7.04748e-05
-0.00161271
0.013357
-1.67469e-08
4.3499e-08
2.4298e-08
1.14752e-08
-2.15933e-07
-0.00183796
0.000238463
-2.56988e-07
-0.00786472
0.000451196
-1.29176e-08
-3.80268e-08
-1.56777e-06
0.0146322
9.69728e-09
-0.00443797
0.00175925
-3.99657e-05
2.4817e-06
-1.37165e-07
1.58448e-05
-4.1283e-08
0.0162552
0.00256636
4.08767e-07
-0.00205153
-7.38364e-09
-0.00989433
1.53551e-10
2.36791e-09
-2.97832e-08
2.14071e-08
1.83971e-09
3.917e-08
-2.4974e-10
5.35769e-09
-6.31141e-07
8.39107e-09
-5.6407e-07
-4.23312e-09
0.000543996
-2.87075e-08
1.04579e-09
-6.4748e-08
7.03429e-07
1.10656e-07
-3.55849e-08
-2.94126e-08
-0.000875918
-0.0548855
-0.000630302
-2.95562e-07
9.94379e-10
2.78225e-08
-2.64126e-06
-1.20077e-08
-0.000340355
-0.000637951
0.00026633
1.85232e-05
2.7019e-09
0.00871673
-0.00837929
0.00290471
-4.7315e-09
-1.82824e-05
-0.0215451
5.28941e-05
3.04494e-08
-4.91156e-09
-5.64144e-10
9.41612e-08
5.65024e-09
-0.00015589
-8.53507e-08
-0.00212625
-9.89326e-08
-1.63291e-07
-3.3907e-08
2.70122e-08
3.9502e-09
-2.76252e-07
-4.06141e-06
-1.71669e-05
1.96874e-07
1.97349e-07
-0.0202953
-0.0184629
-6.08618e-08
-3.27838e-10
5.70857e-07
4.22311e-08
-2.1097e-09
1.47241e-08
-5.68328e-08
5.0711e-09
4.29773e-08
-6.32165e-09
6.29593e-10
0.00989589
-4.32625e-08
-6.16315e-08
-0.000662349
8.06362e-06
5.79533e-06
-7.08319e-09
-2.80673e-07
5.10122e-08
0.000576791
-2.94564e-07
-6.39359e-05
-5.62433e-11
-1.08985e-07
2.81135e-09
-5.3019e-08
-5.31253e-07
0.00379325
0.0131997
-7.30306e-06
0.0005329
-1.32737e-08
3.18089e-07
0.00864199
0.000334952
0.00156896
-0.00790946
0.000437524
-2.87321e-11
-5.45007e-09
2.30595e-08
0.017492
-0.00791965
-0.000256645
-0.000740822
9.00811e-11
0.000348132
-0.0230018
-1.47096e-07
5.30486e-10
-0.00398095
-1.9572e-07
-0.00411727
9.88078e-05
-0.0302306
4.04691e-09
-0.00080963
2.85072e-09
1.4894e-08
1.7394e-08
-3.90624e-05
-0.00322524
0.00217145
6.34921e-05
7.76057e-08
-7.92534e-09
3.21049e-09
-0.000606238
0.00576455
1.62649e-09
-6.44427e-05
5.61829e-08
-1.37404e-06
0.0180176
-2.87527e-11
-2.56425e-08
1.6267e-08
2.73231e-08
8.93708e-09
3.15023e-07
2.01781e-07
-0.0825709
7.33564e-07
0.00607202
1.35555e-09
-1.99364e-05
-1.41784e-09
8.19329e-10
6.10925e-09
5.17589e-10
1.1133e-06
-6.96044e-10
0.00109802
4.37168e-05
-8.65174e-06
-2.69024e-08
-1.70489e-08
-2.85867e-05
6.06641e-08
8.53186e-05
0.00819097
6.06614e-08
-8.07544e-09
-4.32518e-08
0.00268317
1.0946e-06
8.01039e-09
-1.21738e-07
9.77869e-10
0.0170672
0.000287112
0.000103784
0.00677085
0.000951778
-2.07539e-07
-0.0224765
-2.29038e-08
7.00221e-05
-1.03966e-08
4.73043e-07
2.39907e-09
-1.09013e-05
-9.63643e-10
-9.84601e-09
5.76049e-07
4.16494e-09
-4.59148e-09
1.0917e-08
-2.94832e-05
-0.0032944
1.78801e-09
2.34868e-08
5.8897e-08
-4.51348e-08
0.000363363
-0.00290066
-7.88134e-09
-9.89944e-06
-3.68377e-06
0.00100507
-9.82527e-07
0.000333635
0.00231461
6.86696e-05
4.99251e-08
-1.0311e-08
-2.24641e-09
-5.62233e-06
-1.1023e-06
-1.63993e-07
-2.69578e-08
3.73603e-09
-3.80377e-08
-4.7053e-07
-1.07499e-06
-0.0133158
0.0175955
1.19707e-08
1.35192e-08
-5.18836e-09
0.00161189
1.82732e-07
3.54912e-07
9.27158e-09
-1.6563e-09
0.00114972
-5.22042e-07
-4.81255e-07
0.0217798
2.57239e-06
-0.00567001
-8.11889e-08
-1.04825e-05
2.213e-07
-1.30332e-08
4.11838e-08
0.0132508
5.15861e-07
-1.47671e-06
0.000101213
0.00139977
-3.36377e-07
-5.81101e-08
0.000257287
-0.000177878
2.74445e-09
-1.47227e-05
-1.06926e-05
-3.16897e-08
-8.32262e-09
6.67537e-08
2.90861e-08
-4.01873e-07
0.0295317
-0.00720915
0.00437735
-7.4504e-10
-3.61997e-08
1.24093e-07
1.11523e-07
-8.78117e-07
1.52106e-05
-4.66082e-06
-1.97404e-06
2.78572e-08
-3.39897e-07
-4.1436e-06
4.20388e-07
-1.22538e-06
-9.77145e-09
-5.95529e-07
9.6288e-09
8.55758e-11
1.04446e-06
-0.00167485
-0.00197962
-6.58123e-08
0.0186769
2.65075e-08
-0.00360288
2.11532e-07
-2.79977e-08
-1.62411e-08
2.79343e-07
0.0224273
-3.1229e-07
3.65283e-09
-2.3952e-08
1.9812e-08
1.6089e-08
-0.0780141
0.00151492
-1.54608e-08
0.00159174
-0.00499833
7.30275e-09
8.50736e-07
1.79183e-09
6.93012e-07
0.00465619
2.0619e-06
-3.57044e-09
-0.0173654
-3.46273e-05
1.50913e-07
-3.29079e-07
-6.35778e-09
0.00162737
-0.00085296
2.24436e-07
-3.57761e-06
4.25991e-07
2.15959e-07
1.34286e-08
-5.66693e-06
-3.14078e-07
0.0013387
-4.54169e-06
0.000322889
3.95175e-08
1.7372e-07
-3.11956e-08
1.83353e-06
7.5259e-07
-2.78527e-06
3.5288e-09
2.70908e-06
-1.58771e-07
0.0177269
-7.16029e-10
1.65978e-07
-2.90871e-08
-2.14931e-07
-9.44623e-08
0.00157595
-1.90816e-07
-2.1575e-07
-1.46119e-08
5.69693e-09
4.22366e-08
-0.00458669
-8.24398e-06
2.72309e-07
-8.09044e-07
-6.01084e-08
4.72386e-08
2.13494e-09
0.00147551
-4.75363e-08
-9.53466e-10
-0.00281097
4.02125e-08
-1.76806e-08
0.0055933
-0.000570484
0.0133747
-0.00114215
-4.72092e-08
1.63773e-06
0.000389112
0.00707625
-6.25342e-10
-4.31419e-05
7.80218e-07
0.0012772
1.58523e-08
5.30779e-07
0.00546065
0.00116102
-1.99717e-08