/*--------------------------------*- C++ -*----------------------------------*\
| =========                 |                                                 |
| \\      /  F ield         | OpenFOAM: The Open Source CFD Toolbox           |
|  \\    /   O peration     | Version:  v2012                                 |
|   \\  /    A nd           | Website:  www.openfoam.com                      |
|    \\/     M anipulation  |                                                 |
\*---------------------------------------------------------------------------*/
FoamFile
{
    version     2.0;
    format      ascii;
    class       volScalarField;
    location    "250";
    object      epsilon_0;
}
// * * * * * * * * * * * * * * * * * * * * * * * * * * * * * * * * * * * * * //

dimensions      [0 2 -3 0 0 0 0];


internalField   nonuniform List<scalar> 
18232
(
7.90646e-07
1.40985e-05
0.0119508
3.17589e-06
8.78771e-07
0.0199345
0.000388079
7.10098e-07
4.32978e-07
0.000569518
8.8922e-07
1.40529e-06
0.000539475
0.000447928
1.98619e-06
0.00116825
2.16657e-06
0.00704515
1.19783e-06
0.000598403
0.0233661
0.000341743
0.000517953
1.3177e-06
7.86412e-07
9.59577e-07
1.41088e-06
0.000498488
6.39595e-07
1.46867e-06
9.54819e-07
0.000964691
1.29004e-06
1.6402e-06
2.96919e-06
7.08105e-07
0.0230727
0.0015024
0.00340558
1.20176e-06
2.20282e-06
1.31975e-06
0.0120483
1.31021e-06
2.23698e-06
1.57182e-06
0.0145459
1.27142e-06
1.95183e-06
0.0197448
2.15512e-06
1.91023e-06
8.2638e-07
6.69192e-05
8.35345e-07
4.31033e-07
0.000557559
0.0136467
1.4799e-06
1.87868e-06
3.50468e-06
0.0100925
0.00490323
0.00070517
1.04246e-06
9.43538e-07
0.00277578
1.57195e-06
1.04058e-06
1.47977e-06
1.60555e-06
4.10621e-07
0.000361661
1.3279e-06
3.43128e-06
1.31484e-06
1.40186e-06
0.00383057
0.00473234
1.35822e-06
7.64166e-06
2.96918e-06
1.69996e-05
1.32691e-06
4.1715e-07
0.000122663
8.85181e-07
1.31863e-06
0.00016037
0.0139286
1.85044e-06
1.18533e-06
3.28932e-06
0.00952822
1.04143e-06
1.32077e-06
8.98972e-07
1.1791e-06
8.96486e-07
1.69755e-06
0.0267288
0.00855837
9.80597e-07
6.38056e-07
1.59757e-06
0.000522388
1.50368e-06
0.00043441
0.00692887
0.00109551
0.000536566
1.39393e-06
3.14421e-06
0.000568822
6.40186e-07
1.52773e-06
1.68772e-06
0.000372475
0.00528159
9.39675e-07
4.15969e-07
0.000255455
9.00417e-07
1.909e-05
1.30285e-06
1.07906e-06
1.72005e-06
0.0132914
4.80501e-06
1.83606e-06
1.29144e-06
2.95288e-06
8.27828e-07
1.11659e-06
1.57827e-06
6.44088e-07
3.20311e-06
2.22608e-06
0.0220658
0.0228611
6.44204e-07
0.0128855
0.0118606
1.54036e-05
1.13386e-06
1.56615e-06
1.70979e-06
6.36037e-06
1.18581e-06
8.98734e-07
6.11451e-06
8.23173e-07
0.0254651
1.81056e-06
0.0110924
5.41091e-06
0.0120034
2.28556e-06
1.27604e-06
0.0131482
1.26994e-06
0.0121635
0.0109334
0.000204534
0.00100563
1.13039e-06
3.59917e-06
0.00142161
1.58184e-06
5.38008e-06
1.38416e-06
4.30631e-05
4.86246e-06
1.33571e-06
5.63994e-07
7.89858e-07
2.72863e-05
1.55762e-06
6.39604e-07
7.91422e-07
8.20435e-07
0.00495941
1.7264e-06
3.94738e-05
5.86934e-07
8.3638e-07
7.93452e-07
0.0230473
1.794e-06
2.9452e-06
1.5763e-06
0.00907302
5.13763e-07
5.16125e-07
1.38416e-06
5.09167e-07
3.51627e-06
1.56464e-06
1.7198e-06
1.30055e-06
8.39186e-07
8.29305e-07
1.46539e-06
5.55029e-07
1.55675e-06
1.29409e-06
1.73005e-06
4.3635e-07
1.42249e-06
5.78905e-07
6.57318e-07
9.21342e-07
8.84183e-07
1.23871e-06
1.4594e-06
2.50843e-05
1.38692e-06
1.59233e-06
0.000133401
7.62618e-06
1.82827e-06
1.26063e-06
0.000303898
3.37178e-05
1.02396e-06
8.29407e-07
9.13002e-07
1.00287e-06
1.82947e-06
3.01396e-06
1.567e-05
6.6215e-07
5.66463e-07
8.09865e-07
1.03227e-06
6.41568e-07
1.03408e-06
5.03593e-06
1.45644e-06
1.02755e-06
0.0127414
7.78051e-07
9.98254e-07
7.51719e-07
0.0119009
6.36565e-07
2.15249e-06
1.44528e-06
8.29773e-07
5.57369e-07
0.0128243
2.07397e-06
0.0219461
2.27022e-06
2.9666e-06
1.12589e-05
1.5664e-06
0.000396414
5.11425e-07
1.13312e-06
0.000149712
9.01851e-07
0.0103276
1.13559e-06
1.26693e-06
4.64477e-06
2.04862e-05
1.03619e-06
7.82549e-07
0.0102914
6.3697e-07
1.01977e-06
6.07989e-06
0.0198415
2.04805e-05
1.35047e-06
1.00364e-05
1.27344e-06
8.23705e-07
1.93359e-05
0.00332007
0.00115858
0.000541479
5.43026e-07
6.71178e-06
9.39006e-07
1.02657e-06
1.22217e-06
0.0150068
1.39804e-05
0.0153195
0.00260519
6.49125e-07
7.43031e-07
1.02336e-06
2.21927e-06
8.23277e-07
6.6427e-07
8.41175e-07
0.00039047
7.36163e-07
1.11937e-05
0.0223517
8.11923e-07
5.45284e-07
1.19757e-06
1.63099e-06
2.00051e-06
9.09996e-07
7.58768e-07
8.9431e-07
4.3527e-06
0.00017848
8.30748e-07
9.16554e-07
2.4174e-05
1.27524e-06
7.32786e-07
1.2282e-06
4.17161e-07
1.17131e-06
0.00709828
3.82516e-06
1.11984e-06
4.29213e-06
0.0122245
1.40743e-06
1.1788e-06
9.07281e-07
1.1922e-06
1.34076e-06
3.61009e-06
2.59236e-05
1.63855e-06
2.0972e-06
3.81639e-06
9.75603e-07
1.34617e-06
1.48976e-06
8.32342e-05
6.51553e-06
1.32737e-05
1.4039e-06
5.83609e-06
1.19428e-06
2.00304e-06
0.000504223
9.34537e-07
1.54962e-06
5.77898e-07
1.23079e-06
2.22975e-06
1.72598e-06
8.36823e-07
1.63044e-06
5.77136e-07
0.00113767
1.61732e-06
1.07426e-06
1.59144e-06
9.18016e-07
1.23852e-05
2.2071e-06
8.06551e-07
1.16435e-06
1.21333e-06
5.71115e-07
1.59767e-06
1.84386e-06
9.45117e-07
6.31809e-07
1.40952e-06
0.000543681
8.39302e-07
1.01921e-06
1.40914e-06
0.016216
4.15697e-07
8.75766e-07
0.00812704
0.000539062
1.27448e-06
1.55369e-06
2.21944e-06
4.17888e-07
4.16984e-07
1.55683e-06
1.34126e-06
1.46305e-06
8.73998e-07
7.8167e-07
0.000215211
8.34651e-07
7.61736e-07
1.01463e-06
1.6476e-06
0.00112022
9.39287e-07
0.00680527
1.7071e-06
5.47478e-06
7.63911e-07
1.55304e-06
1.70391e-06
0.000220559
2.20295e-06
1.45435e-06
9.3558e-06
2.93063e-06
7.5858e-07
0.000338557
1.45597e-06
0.000108467
1.5931e-06
1.08041e-06
8.73856e-07
1.63274e-06
0.000189167
7.58118e-07
1.01035e-06
7.42577e-07
0.00923632
0.000213431
1.54515e-06
1.83283e-06
1.24601e-06
3.9212e-06
1.64692e-06
1.58818e-06
0.0175939
8.26488e-05
1.57397e-06
1.59731e-06
1.19092e-06
7.65299e-07
5.22313e-07
4.40485e-06
1.99117e-06
7.58355e-07
1.87031e-06
9.29051e-07
1.16901e-06
0.000340422
9.45448e-07
1.34683e-06
1.50503e-06
2.03302e-06
0.000261092
8.8195e-07
1.63736e-06
0.00108195
9.74691e-07
3.87598e-06
1.39043e-06
1.27123e-06
1.2769e-06
1.1665e-06
0.000320848
1.47897e-06
1.38123e-06
1.40011e-06
9.56448e-07
7.45102e-07
1.41355e-06
1.66216e-06
7.84785e-07
1.19569e-06
9.71852e-05
4.13932e-07
4.14059e-07
0.00718187
1.65223e-06
0.014221
0.0120306
0.000923984
6.58223e-07
6.53194e-07
1.58368e-06
0.000111884
7.55452e-07
4.24805e-07
1.54984e-06
0.00333189
7.54742e-07
8.25204e-07
8.26916e-07
4.19154e-06
0.00575407
2.83349e-05
1.53534e-06
1.41963e-06
0.0259217
0.0092396
7.46739e-07
0.000311049
1.36653e-06
0.0122603
1.32786e-06
7.42429e-07
6.67292e-07
0.000169425
7.14237e-07
5.13747e-07
1.14499e-06
0.0217877
5.75314e-07
1.47325e-06
5.06805e-07
0.0237625
9.32697e-07
1.84292e-06
4.30081e-07
9.59996e-07
4.58573e-07
0.0062162
1.54545e-06
5.28097e-07
1.55671e-06
1.59001e-06
8.58281e-07
6.54334e-07
8.88276e-07
8.27925e-07
1.32075e-06
1.26929e-06
1.16265e-06
2.519e-06
0.000173171
1.33813e-06
2.0619e-06
1.14485e-06
0.0127909
0.000290315
8.2373e-07
6.34262e-06
1.55239e-06
0.000890358
8.21542e-07
0.000186641
1.44854e-06
7.37894e-07
0.00961742
9.14054e-07
1.56553e-06
0.000246435
4.52564e-07
9.91516e-07
7.47883e-07
0.021821
9.00735e-07
1.76327e-06
1.56089e-06
2.36925e-06
8.53953e-07
5.5272e-06
1.65533e-06
5.70798e-07
1.2188e-06
1.22379e-06
1.59545e-06
1.73279e-06
9.41379e-07
4.79404e-07
0.000290196
0.0284038
0.000181063
1.68506e-06
1.2024e-06
3.65429e-05
9.77783e-06
6.31677e-07
0.00945906
7.35059e-07
7.93993e-07
6.31569e-07
4.66774e-07
5.73492e-07
2.25118e-06
4.23154e-07
0.00160538
9.76324e-07
7.28899e-07
0.000111882
0.00572387
0.00153012
6.24563e-07
7.70293e-06
1.17384e-06
1.56403e-06
4.10776e-07
4.42911e-07
6.55563e-07
0.0287183
1.12272e-06
9.7199e-07
0.0241194
8.65464e-07
2.28578e-06
0.00303783
6.73982e-07
1.5998e-06
0.000377063
0.000357562
1.15951e-06
7.4074e-07
8.22068e-07
8.44072e-07
7.45154e-07
0.0142168
1.00151e-06
0.0013146
1.17642e-06
1.54381e-06
0.00483497
8.48506e-07
0.0253841
0.0140688
1.02319e-06
8.87592e-07
5.1465e-07
5.26577e-07
8.59292e-07
4.89905e-05
0.00648157
1.46111e-06
1.58931e-05
7.61596e-05
2.31657e-06
1.70633e-06
1.37939e-06
7.93936e-06
1.64683e-06
8.62345e-07
1.14581e-05
0.000300532
2.01049e-06
1.80787e-06
1.0898e-06
8.22633e-07
1.10172e-06
0.000341921
1.1231e-05
5.83937e-07
1.15157e-06
0.000310612
1.36222e-06
0.000292588
1.13052e-06
1.00836e-06
5.69537e-07
2.01534e-06
5.89586e-07
2.44268e-06
3.06789e-05
1.03889e-06
5.76506e-07
1.21107e-06
1.3402e-05
1.13166e-06
8.46597e-07
2.16816e-06
1.63157e-06
1.34687e-06
5.79014e-07
1.889e-06
6.1821e-06
2.14254e-06
1.51922e-06
4.18021e-07
6.24773e-07
0.0166219
8.85262e-07
1.12378e-06
0.000104293
1.20759e-06
1.51426e-06
1.84635e-06
1.56011e-06
6.35236e-07
1.14714e-06
6.57177e-07
1.09167e-06
6.85595e-06
1.68049e-06
7.29955e-07
1.41437e-06
0.0125324
1.00364e-06
1.58613e-06
6.51163e-07
1.10306e-06
9.51518e-07
6.26411e-07
0.0203015
1.04988e-06
7.4644e-07
5.14769e-07
1.35113e-06
0.000224322
1.67236e-06
0.00030231
9.91375e-07
1.35305e-06
7.40833e-07
1.68672e-05
7.45883e-07
2.32068e-06
2.07099e-06
1.03647e-06
1.53553e-06
6.55484e-07
1.00489e-06
1.66039e-06
1.40781e-06
0.0195139
1.65026e-06
1.04865e-06
2.10968e-06
1.17686e-06
0.0169592
1.58276e-06
0.019776
7.94861e-07
1.12509e-06
1.52398e-06
1.36444e-06
1.4116e-06
1.13116e-06
8.53476e-06
6.68847e-07
1.43018e-06
7.22389e-07
1.12584e-06
1.47039e-06
0.000320591
1.63276e-06
1.35219e-06
9.74585e-07
0.00100741
1.62177e-06
5.08149e-06
0.000295747
9.89422e-07
1.16942e-05
0.0202089
0.00586001
1.42241e-06
1.71263e-05
1.7126e-06
0.0150272
1.5358e-06
8.35182e-07
1.68854e-06
1.34304e-06
0.00889371
0.0196772
1.34736e-06
4.27856e-06
9.53789e-07
0.00108671
8.86216e-07
5.73337e-07
6.18368e-06
0.0137572
6.06086e-07
1.43936e-06
5.57337e-06
9.20483e-07
1.21775e-06
2.22183e-07
2.75771e-06
1.11722e-06
0.00989042
1.15639e-06
1.44718e-06
1.09283e-06
1.30595e-06
2.68405e-06
1.18302e-05
1.44237e-06
0.000981202
9.86422e-07
1.72426e-06
9.79514e-07
1.62455e-06
0.000550449
1.5851e-06
0.000142581
6.40727e-07
7.73081e-07
8.57289e-06
3.3294e-06
5.01842e-07
1.31625e-06
1.12423e-06
9.36583e-07
5.82913e-07
1.6642e-06
1.11925e-06
0.000489862
3.06766e-06
8.05674e-07
1.85134e-06
1.47272e-06
1.84551e-06
1.01834e-06
1.32721e-06
1.67887e-06
1.09474e-06
7.54697e-07
0.000290989
1.51039e-06
0.0213027
6.57475e-06
9.60999e-07
1.03768e-06
1.12065e-06
0.00885244
6.18489e-07
8.11473e-07
9.56408e-07
1.48883e-06
8.06274e-07
6.3677e-06
8.35178e-07
0.00037155
4.16147e-07
1.44714e-06
1.45041e-06
5.06846e-07
5.33819e-07
1.469e-06
6.41683e-07
1.8075e-06
7.74792e-07
1.65231e-06
3.69658e-06
0.0109516
3.45796e-06
9.2567e-07
3.29161e-05
1.75367e-06
1.40859e-06
2.67079e-06
1.58059e-06
4.3166e-06
0.000386855
0.0153835
0.000892476
9.30423e-07
1.39945e-06
1.71705e-06
4.12353e-07
1.60642e-06
1.11482e-06
0.000610824
8.94346e-06
0.0114729
1.44474e-06
1.12784e-06
1.72715e-06
9.22589e-07
0.0200417
9.56155e-07
0.000475105
1.31695e-06
7.42513e-07
0.000175338
1.46351e-06
1.74643e-06
1.49521e-06
2.84472e-05
3.28945e-06
1.25216e-06
1.43648e-06
5.52954e-07
1.42082e-06
1.27198e-06
0.00445963
6.43305e-06
2.61149e-06
1.19231e-06
6.39241e-07
0.000305503
0.00117352
1.57089e-06
1.73898e-06
0.00079746
0.00329757
1.76991e-06
5.00125e-07
1.11511e-06
1.52888e-06
1.47202e-06
1.42112e-06
6.24566e-07
1.26168e-06
1.55637e-06
6.37929e-06
4.97635e-07
8.5314e-07
1.07227e-06
1.06903e-06
0.00637355
8.42318e-07
7.98799e-07
6.02405e-07
6.43503e-07
1.17085e-06
1.14322e-06
1.93152e-06
6.27681e-07
3.46664e-06
0.0212853
0.000446172
1.56227e-06
0.0215193
6.24686e-06
0.000111002
1.06697e-06
1.08283e-05
0.000473636
8.55092e-07
1.71859e-06
9.60804e-07
9.9352e-07
2.89013e-06
1.84735e-06
8.9149e-07
0.000785831
1.16559e-06
9.07013e-07
1.5685e-06
6.5311e-07
6.27799e-07
6.54369e-07
0.000451578
0.000433509
2.71867e-06
1.3463e-06
1.17967e-06
8.31927e-07
8.66521e-06
1.02473e-06
1.21583e-06
5.57585e-05
8.3878e-07
0.000893518
9.51843e-07
5.2439e-07
0.011576
5.29604e-07
1.44745e-06
0.0122071
2.28902e-06
5.08701e-07
6.03272e-07
4.84038e-06
0.000403928
0.000686711
0.00105606
1.96868e-06
6.72812e-07
1.00439e-06
0.000909289
1.66024e-06
5.6118e-07
1.51353e-06
1.04205e-06
6.18912e-07
0.000211478
0.0111807
0.0113349
1.70849e-06
0.000902498
6.27633e-06
0.000281373
1.50342e-06
1.09885e-06
6.05918e-07
0.000508085
5.81154e-07
1.51001e-06
0.000382268
2.14795e-06
1.16704e-06
1.7179e-06
5.52265e-07
1.72038e-06
1.70629e-06
1.43867e-06
1.42655e-06
9.50697e-07
1.54735e-06
0.0208346
1.01743e-06
4.30742e-06
1.67682e-06
8.23723e-07
1.00126e-06
9.99071e-07
1.21088e-06
5.68312e-05
7.22118e-07
0.0128765
1.66051e-06
0.000504195
6.74797e-07
1.90092e-06
8.42811e-07
5.57432e-07
5.48782e-07
5.55608e-07
1.12884e-06
1.76657e-06
5.98504e-07
1.31939e-06
1.62585e-06
4.04723e-06
0.00304093
8.34568e-07
1.35372e-06
6.40508e-07
1.51669e-06
1.12579e-06
1.12286e-06
0.0155599
1.19891e-06
1.70553e-06
1.18539e-06
3.38035e-05
0.000381472
2.96718e-06
1.22206e-06
1.24964e-06
5.51429e-07
3.76765e-06
7.19033e-07
1.16289e-06
0.000305181
5.95932e-06
8.03513e-07
6.08203e-07
0.000305067
1.36693e-06
1.25362e-06
0.00572522
1.64489e-06
1.52092e-06
1.84993e-06
0.000407277
8.69445e-07
1.51976e-05
1.63027e-06
6.71399e-07
1.70272e-06
6.02251e-07
0.00916889
1.50415e-06
1.00718e-06
0.00113446
1.3042e-06
1.13613e-06
8.52408e-07
7.01582e-07
5.40128e-07
1.63138e-06
6.59608e-07
4.38517e-06
1.6173e-06
1.71004e-05
8.64886e-07
1.21858e-05
3.99705e-05
1.84862e-06
0.000222542
6.41905e-07
8.71092e-06
1.01942e-06
0.000383863
5.36888e-07
0.0177287
1.2957e-05
0.00044759
1.7339e-06
0.0130207
9.73955e-05
0.000377082
1.67885e-06
1.25918e-06
1.16232e-06
1.03362e-05
0.00249724
1.70358e-06
1.53292e-06
3.74093e-06
1.19094e-06
5.96984e-05
5.82295e-07
9.74748e-07
0.000489691
5.39639e-07
6.3812e-07
1.4848e-06
9.22781e-07
6.55366e-07
0.000344843
6.36789e-07
1.09093e-05
1.44023e-06
0.00949063
0.000310048
1.13745e-06
1.39981e-06
8.1116e-07
1.132e-06
0.00277527
9.32753e-07
0.00039676
6.68894e-07
0.00463697
1.29629e-06
1.06128e-06
5.99725e-07
1.22467e-06
6.48932e-07
0.0149788
5.60285e-07
1.40865e-06
1.01225e-06
0.00198999
1.26271e-06
1.67572e-06
1.13488e-05
1.35785e-06
8.40419e-07
4.14754e-06
5.32653e-07
1.35215e-06
1.15727e-06
3.5248e-06
5.85495e-07
0.0127902
5.19663e-07
7.93344e-07
2.10468e-06
8.39172e-07
5.35183e-07
2.16536e-05
5.63386e-06
2.07286e-05
0.000186402
1.57721e-06
1.35596e-06
9.43737e-07
1.49814e-06
1.82929e-06
0.000496125
0.00270437
9.76203e-07
0.00189139
0.000285832
1.50949e-06
5.322e-07
1.64403e-06
1.54639e-05
0.00010914
1.37008e-06
1.65413e-06
7.14516e-07
9.23275e-07
1.43261e-06
6.09909e-06
5.39736e-07
3.42857e-06
5.48036e-07
9.86347e-07
0.000332254
1.51346e-06
1.14012e-06
0.000130791
5.7587e-07
0.000498646
5.16872e-07
5.14061e-07
0.000435078
6.50243e-07
9.30462e-07
7.54532e-05
5.19358e-07
9.04348e-07
7.11572e-07
1.88424e-06
5.70263e-07
0.000923177
4.93187e-07
1.67008e-06
1.94923e-06
4.27314e-07
2.28757e-06
1.47754e-06
5.5776e-07
1.43348e-06
1.42853e-06
0.000478651
1.74348e-06
1.51577e-06
1.53746e-06
0.000230854
1.6252e-06
4.87197e-06
1.18881e-06
8.48211e-07
1.39873e-06
9.07759e-07
1.27592e-06
1.84703e-06
4.45577e-05
0.000265745
0.000234503
9.80379e-07
2.66835e-06
0.000433615
1.47059e-06
9.56553e-07
9.65494e-07
1.36023e-06
4.13606e-07
5.02085e-07
4.59805e-06
4.13829e-07
0.00131877
1.41257e-06
1.40106e-06
1.74316e-06
6.85749e-07
0.0151373
6.86332e-07
8.07e-05
1.13734e-06
7.92707e-07
1.81174e-06
1.3727e-06
0.000470116
1.19515e-06
0.00022373
1.50483e-06
1.76061e-06
5.63546e-06
1.51355e-06
0.00043357
5.83433e-07
8.53526e-07
5.29284e-07
1.17521e-06
5.16557e-07
0.0113743
4.17602e-07
1.40536e-06
1.42292e-06
0.00286886
0.000439598
1.49004e-06
4.56633e-06
7.06886e-07
7.10605e-07
1.2477e-06
1.33384e-06
6.24601e-07
1.50942e-06
5.708e-07
7.59215e-07
6.1289e-06
1.63793e-06
5.24425e-07
1.47206e-06
1.25485e-06
0.0127697
0.0163422
2.14571e-06
1.47661e-06
0.00504044
1.5849e-06
6.40187e-06
1.53364e-06
1.5423e-06
0.013005
1.09732e-06
6.79581e-07
1.38565e-06
9.54701e-07
0.000329578
1.25425e-06
1.45766e-06
8.33428e-07
5.04347e-07
2.96429e-05
0.0166762
1.24857e-06
2.75305e-06
1.91531e-06
0.0129088
0.015246
1.80971e-06
2.42542e-06
2.11989e-06
1.58231e-06
7.90806e-07
2.15759e-05
7.62506e-07
1.48423e-06
5.82697e-05
2.18064e-06
6.25255e-07
1.67914e-06
1.48764e-06
1.6629e-06
9.67895e-07
8.02721e-07
0.000301545
5.32377e-07
5.42478e-07
1.05582e-06
0.000553826
6.1645e-07
0.000337575
6.57622e-07
5.06919e-06
1.15192e-06
1.65995e-06
1.34889e-06
1.50853e-06
9.97276e-07
1.67043e-06
5.35124e-07
0.000620375
5.11681e-07
2.27321e-06
1.88405e-06
1.75177e-06
1.13804e-06
0.00599999
1.09046e-06
1.50338e-06
0.0156885
1.43864e-06
0.00194489
1.62114e-06
4.46409e-06
1.56746e-06
8.30755e-07
0.000256696
1.11494e-06
1.60902e-06
5.08323e-05
9.50216e-07
0.0149534
0.000310976
1.56784e-06
4.15609e-07
1.69174e-06
1.01553e-05
1.51692e-06
0.000400874
1.27264e-06
1.6948e-06
0.000199163
0.000420691
9.34548e-07
0.00735166
0.000177424
1.05324e-06
5.58771e-07
3.96824e-06
5.01779e-06
1.1327e-06
7.284e-06
0.000539703
0.00030206
1.56065e-06
1.74635e-06
2.26151e-06
1.39333e-06
6.75625e-07
0.00717549
0.000513651
5.04476e-07
0.0202583
7.04189e-07
8.28775e-07
0.00380039
0.000315755
1.39815e-06
1.40009e-06
8.42646e-06
0.000805456
1.64926e-06
1.6677e-06
9.15048e-07
0.000102279
0.00446018
1.6811e-06
1.58339e-06
5.76132e-06
8.15859e-07
0.000297574
1.65659e-06
1.53597e-06
1.28461e-06
1.61545e-06
1.11945e-06
1.21842e-06
1.6447e-06
0.000375359
0.0160765
8.66594e-07
0.0145929
2.69457e-06
0.0013308
1.46018e-06
0.00853711
1.49347e-06
1.4618e-06
5.05343e-07
6.00176e-07
1.63649e-06
1.97742e-06
1.23922e-06
5.02583e-07
0.000240051
1.91226e-06
0.013296
1.6581e-06
0.000165749
1.25473e-06
2.17696e-06
0.0182329
1.79022e-06
9.30831e-07
1.35865e-06
1.28257e-06
0.0114725
1.52636e-06
2.47852e-06
2.27724e-06
4.95146e-07
0.000260927
0.0127474
0.00767085
6.29853e-07
0.00166925
0.00022341
0.00082192
5.58657e-07
0.000352841
0.000172289
0.000214287
0.000421316
9.18068e-07
0.000166161
6.03243e-07
8.21521e-07
2.0445e-05
8.55337e-05
0.000143586
0.000371623
1.52152e-06
0.000381007
0.0190955
0.0114063
1.53007e-06
5.61276e-07
1.2402e-06
0.00110292
1.93212e-06
0.000245515
8.64452e-07
0.0279455
0.00672453
0.00664246
1.46879e-06
0.000219482
6.24911e-07
1.24823e-06
5.99329e-07
0.000438712
5.25874e-07
1.63572e-06
1.59944e-06
0.00128751
9.00602e-07
2.12997e-06
5.84238e-07
0.00689239
0.00330464
5.73585e-06
2.59348e-06
0.000237715
1.57286e-06
1.56984e-06
1.17688e-05
8.3657e-06
0.000906985
1.24668e-06
1.46344e-06
0.0003297
1.06069e-06
1.95127e-06
0.0123646
6.05713e-07
9.19878e-07
1.65993e-06
0.00111439
5.36446e-07
0.00104422
0.00199286
1.95252e-06
1.06287e-06
2.35455e-05
0.0204246
9.76505e-07
0.000525909
1.06691e-06
1.38303e-06
1.09703e-05
6.01405e-07
4.76268e-07
1.365e-06
2.31148e-06
6.00631e-07
4.81352e-07
1.3305e-05
1.84072e-06
0.00010531
1.34104e-06
1.94429e-06
0.000251516
0.000144615
0.00393294
6.08981e-07
0.0200374
5.01906e-07
0.000138148
8.97955e-07
1.34402e-06
0.00488736
0.000290208
1.46146e-06
1.56226e-06
7.85714e-07
0.0148407
8.44183e-07
1.51782e-06
8.60951e-07
8.80104e-07
1.19069e-05
0.00817436
1.5756e-06
1.27629e-06
0.00599697
0.00266455
0.0136855
6.67765e-06
7.90641e-07
5.17937e-07
1.35039e-06
8.45134e-07
1.35496e-06
0.000125755
5.18318e-06
1.21926e-06
6.50626e-07
8.38103e-07
5.2141e-07
6.53156e-05
8.6981e-07
1.06436e-05
1.26401e-06
1.46718e-06
1.23271e-06
6.06565e-06
1.33843e-06
1.12708e-06
6.15322e-06
5.33632e-05
1.42784e-06
1.13225e-06
0.0136803
0.0186016
2.73588e-06
1.35337e-06
0.00706064
0.015603
1.82168e-06
6.15066e-05
2.10818e-06
9.55035e-07
0.0153428
1.60571e-06
0.00861517
1.07736e-06
2.57925e-06
5.06717e-07
3.21665e-05
1.35362e-06
1.27679e-06
1.72586e-06
5.0576e-07
1.41121e-06
4.50262e-06
1.43656e-06
1.64662e-06
1.36474e-06
1.85277e-06
1.05715e-06
0.0139987
8.72528e-07
2.50999e-06
8.17659e-07
1.9534e-06
1.80424e-06
1.62797e-06
1.01619e-06
1.52788e-06
4.05889e-06
7.6181e-06
0.00954126
1.94637e-06
8.33793e-07
0.0140642
5.98079e-07
0.021784
5.97546e-07
1.4073e-06
0.0154965
1.23042e-06
0.000468349
1.55778e-06
8.39929e-07
1.55413e-06
1.71579e-06
7.81363e-07
5.61547e-07
5.44155e-06
5.67859e-07
9.3948e-07
1.89761e-05
5.99265e-07
0.00051048
6.23177e-07
2.78552e-06
1.43764e-06
1.39006e-06
1.13539e-05
6.69684e-05
7.982e-07
9.19204e-07
1.00547e-06
1.33977e-06
7.97931e-07
1.19457e-06
0.0193137
0.00028369
1.7762e-06
1.48964e-06
1.15553e-06
1.7342e-06
3.14815e-06
0.0141811
5.64348e-07
7.76421e-07
0.000683497
4.5793e-06
0.000922087
5.96306e-07
0.000257259
0.0110806
1.94517e-06
9.41086e-07
1.94343e-06
8.70056e-05
1.19727e-06
9.1328e-07
1.34737e-06
9.12311e-07
1.06075e-06
6.00941e-07
2.33543e-06
1.10444e-06
9.94333e-07
2.72293e-06
1.06788e-06
3.64763e-06
0.00437503
1.55932e-06
1.38126e-06
0.000109312
1.11238e-06
0.000160475
8.14009e-07
1.46216e-06
1.54531e-06
9.6672e-06
4.74453e-07
6.14121e-07
4.76375e-07
6.44679e-05
2.65918e-06
0.000278887
0.0126105
2.23048e-06
1.04908e-06
5.97233e-07
4.95688e-07
1.62828e-06
4.17205e-07
0.000151079
1.28037e-06
1.15125e-06
0.0152677
1.01293e-06
4.63837e-07
0.00054413
1.63062e-06
1.1828e-06
0.0181853
2.9842e-06
0.0146538
0.000495604
5.44835e-07
1.06102e-06
1.4871e-05
0.0244201
9.24758e-07
9.20639e-06
1.09222e-05
0.0010104
0.011335
8.68315e-06
7.27173e-07
3.06607e-06
4.57058e-07
2.55647e-06
7.11449e-06
2.43923e-06
0.000533198
1.99374e-06
8.90913e-06
7.30107e-07
1.80598e-06
1.35783e-05
8.01693e-07
3.329e-06
5.47455e-07
1.79661e-06
1.3677e-06
0.000174688
0.00197175
7.93687e-06
0.00870081
5.76819e-06
1.64296e-06
1.01604e-06
7.05185e-07
8.29342e-07
1.54791e-06
2.26456e-06
0.000105397
4.20901e-07
1.45361e-06
4.56316e-07
1.14559e-06
5.72032e-07
1.43604e-05
0.000133307
1.08182e-06
1.48608e-06
3.15403e-07
1.81702e-06
1.55707e-06
0.0112242
1.27359e-06
8.6561e-07
1.14539e-06
2.84013e-06
5.51129e-06
6.44251e-06
0.000186517
0.0138801
6.66374e-07
0.000185281
0.00010055
0.0275895
1.19258e-06
0.000243516
6.26998e-07
0.00921224
5.92666e-07
3.52349e-05
5.3502e-07
1.46804e-06
5.41224e-07
0.000260514
0.000166289
1.68827e-06
7.67227e-07
1.10728e-06
1.34596e-06
0.0107743
4.68926e-06
1.58951e-06
1.46887e-06
5.71989e-07
1.11018e-06
3.46805e-05
0.000664818
7.34106e-07
1.31925e-06
1.55463e-06
2.98305e-06
1.14447e-06
2.95261e-06
7.72075e-07
1.48152e-06
1.59208e-06
0.00432072
4.70379e-05
2.78302e-06
7.63085e-06
9.48863e-07
1.33944e-06
1.39177e-06
4.41455e-07
1.29713e-06
0.000412733
1.3853e-06
4.05885e-05
1.01421e-06
8.31175e-07
2.10698e-07
9.12211e-07
0.000210351
0.0137821
3.82218e-06
0.000191422
1.11637e-06
0.000315677
1.9257e-06
7.91137e-07
0.0112518
0.00677924
1.44068e-06
8.91541e-07
1.53946e-06
1.41878e-06
0.00881393
7.30271e-06
5.50128e-07
1.23692e-06
1.94503e-06
4.53214e-05
3.57056e-07
7.8404e-07
1.58502e-06
4.879e-06
1.6876e-06
0.00142193
0.000395943
0.0173936
9.3384e-07
1.06224e-06
1.29885e-06
1.85785e-06
1.04909e-05
9.75445e-07
1.71635e-06
1.68392e-06
8.92503e-07
7.33771e-07
0.019032
0.0138635
2.18104e-06
2.03336e-06
1.535e-06
5.16175e-07
2.58856e-06
8.38144e-07
0.000509567
0.001105
7.92701e-07
0.0218555
5.89684e-07
0.000118732
7.17768e-07
8.18154e-07
1.23555e-06
0.0234325
1.83321e-06
0.0088445
1.02919e-06
6.97593e-07
1.68394e-06
8.07246e-06
8.45415e-06
0.000424073
0.0112328
9.85379e-07
1.49372e-06
9.06344e-07
0.000585822
7.62881e-07
6.49314e-07
1.60651e-06
0.000472174
1.14962e-06
6.6771e-07
1.76567e-06
0.000207318
1.32621e-06
0.0125841
4.84942e-07
8.12308e-07
6.60357e-07
8.43976e-06
2.75485e-06
1.53107e-06
1.53537e-06
1.53592e-06
9.8107e-07
1.32708e-06
1.98261e-06
5.64641e-07
0.000144397
1.3632e-06
2.45921e-06
0.0134739
1.57766e-06
1.00866e-06
6.37938e-07
1.25005e-06
0.000464739
9.62623e-07
1.53594e-06
0.00726808
1.36404e-06
2.83578e-06
1.62208e-06
4.78179e-07
4.34437e-07
1.62425e-06
5.00723e-05
5.1313e-06
5.12689e-05
1.00734e-05
1.63858e-06
1.52868e-06
1.51684e-06
2.46164e-06
1.47044e-06
1.17165e-06
0.0160818
0.000101127
7.58274e-07
1.56888e-06
3.98168e-05
7.12587e-07
2.08513e-06
4.77884e-07
1.34587e-06
0.00116888
3.73207e-05
5.89143e-07
1.79612e-06
1.13141e-06
7.97194e-07
4.1929e-07
9.21876e-07
0.0143498
1.1441e-06
7.95466e-07
0.0143787
1.06543e-06
0.0108626
5.26955e-07
1.09498e-06
0.0177785
1.86282e-06
1.24097e-06
0.000523821
0.0239254
0.0100222
8.25726e-07
0.000178723
1.51851e-06
0.000880591
0.0198293
7.94069e-07
0.000103222
7.72637e-07
1.32881e-06
1.57774e-06
3.60566e-06
1.5687e-06
9.15969e-07
8.18675e-07
0.0204199
1.26212e-06
2.67091e-06
6.71114e-07
4.16022e-07
9.6127e-05
1.10005e-06
1.55802e-05
0.00952785
0.0224624
5.47346e-07
1.06746e-06
1.67937e-06
5.67524e-07
1.92889e-06
0.00330614
8.52047e-05
4.59306e-07
0.0117461
4.61637e-06
1.25477e-06
1.24729e-06
5.57058e-07
0.0190515
1.2066e-06
0.000126618
0.000116063
8.37353e-06
4.68726e-07
2.20515e-06
2.74846e-06
7.53969e-07
0.0174718
6.16708e-05
1.13923e-06
0.000363615
1.27983e-06
0.0012887
8.90125e-07
4.56427e-07
1.48074e-06
4.58508e-07
4.54174e-07
1.63878e-06
6.75784e-07
4.58418e-07
1.51113e-06
9.0557e-07
1.33004e-06
7.07545e-07
0.000114329
1.48231e-06
5.86351e-07
1.39673e-06
2.90897e-06
5.28037e-07
1.39967e-06
7.49476e-07
5.873e-06
0.00707045
1.34277e-05
4.84806e-07
6.67316e-07
1.45071e-06
2.65611e-06
1.27037e-06
0.0001618
1.49622e-06
7.25588e-05
0.000165736
1.36513e-06
0.000761395
4.97465e-05
6.40204e-05
5.56044e-07
6.98025e-06
0.0143225
4.20505e-06
7.43931e-07
6.79916e-07
5.40269e-07
5.30762e-07
6.92758e-06
1.83319e-06
1.28447e-06
6.43785e-05
1.30661e-06
1.30417e-06
5.37018e-07
1.41404e-06
4.57453e-07
2.11612e-06
5.33046e-06
6.62985e-06
1.74266e-06
4.37238e-06
0.000408121
0.00294657
1.81813e-06
5.27431e-07
1.54142e-06
1.52825e-06
2.83533e-06
1.11823e-06
1.27448e-06
9.00263e-07
1.53004e-06
1.33392e-06
5.03422e-07
0.0207321
1.23828e-06
6.5274e-07
0.000226118
7.4702e-07
2.53025e-06
5.50065e-07
1.33349e-06
1.4517e-06
2.29573e-05
1.95318e-06
1.55661e-07
5.23826e-07
1.28996e-06
1.44738e-06
1.4171e-06
1.33022e-06
0.000811551
0.0139621
6.30716e-07
6.58181e-05
1.27517e-06
2.09411e-06
0.0247116
4.14154e-06
3.37648e-05
0.000334062
1.54427e-05
5.37219e-07
7.78399e-07
1.58102e-06
0.00532333
0.000156751
8.43432e-07
5.39422e-06
8.19034e-07
1.93319e-05
0.00271385
7.3943e-07
8.28259e-07
1.57409e-05
1.31547e-06
0.00028706
1.09617e-06
0.0142765
1.485e-06
0.000498131
9.69858e-07
1.04253e-06
1.35871e-06
8.59278e-06
0.000238396
0.00032967
5.50682e-07
1.64825e-06
1.79521e-06
1.48862e-06
4.70057e-06
0.0198161
7.79523e-07
0.000294721
1.46526e-06
1.44397e-06
0.0131641
5.8682e-07
1.29258e-06
1.5279e-06
2.03546e-06
1.5118e-06
1.62425e-06
1.51694e-06
0.00720374
8.36436e-07
0.0227758
8.18951e-07
8.71189e-06
1.58991e-06
5.09027e-07
1.15935e-06
8.24786e-07
6.75799e-07
5.22109e-07
5.55148e-05
1.91681e-06
3.6703e-06
1.32042e-06
1.42185e-06
6.54294e-06
1.46702e-06
7.21781e-07
0.016271
1.53921e-06
1.40246e-06
1.23033e-06
0.000239321
6.73649e-07
1.48122e-06
7.53488e-07
1.45684e-06
0.0183423
8.67428e-05
1.75953e-06
0.000534739
4.16421e-05
1.34351e-06
0.00255969
1.39364e-06
3.18003e-05
6.33457e-07
1.51391e-06
8.05756e-07
8.45744e-06
5.82241e-07
6.44912e-07
1.69543e-06
7.16956e-07
7.11862e-07
1.28733e-06
4.73722e-07
1.35913e-05
1.02282e-06
1.46056e-06
6.77842e-07
1.4094e-06
3.43259e-05
9.15023e-05
1.36594e-06
4.05635e-06
2.76496e-06
0.00029088
2.24279e-06
2.54257e-06
0.00013514
3.51322e-05
1.62548e-06
6.34395e-07
1.39752e-06
2.63363e-06
1.41195e-06
1.29268e-06
1.24772e-06
8.72124e-07
1.19199e-06
5.27035e-07
7.66658e-07
0.00311039
0.0141847
1.04828e-06
1.04823e-06
6.31537e-07
0.0220518
1.15203e-06
1.63637e-06
6.94295e-07
8.20305e-07
7.87037e-05
2.12072e-06
1.02964e-06
0.010923
4.78081e-07
0.000373614
9.44958e-07
5.11624e-06
1.94227e-06
1.15383e-06
5.2966e-07
0.0145661
7.55537e-07
1.45626e-06
5.36091e-07
0.000247967
1.37275e-06
1.33967e-06
3.11852e-06
4.97417e-05
8.23283e-07
9.87948e-06
7.68685e-06
9.54685e-07
6.41257e-07
1.67922e-06
6.88614e-07
1.3734e-06
0.00112414
0.00112942
0.000535662
8.17432e-07
1.27945e-06
1.55182e-06
1.54418e-06
2.10879e-06
2.45349e-06
5.59545e-07
2.5891e-06
8.1263e-07
5.29716e-07
4.78905e-07
1.62115e-06
2.21012e-06
5.4719e-07
1.51317e-06
1.10194e-06
5.38504e-07
1.58535e-06
0.000311366
0.000346033
1.32013e-06
0.0129931
5.5846e-07
0.000175581
1.77831e-06
1.4325e-06
1.47241e-06
1.61036e-06
0.0132295
1.34339e-06
4.59349e-07
1.15853e-06
1.45441e-06
1.22353e-06
0.00643746
0.000187407
1.21478e-06
0.000220243
0.0012658
1.64421e-06
8.3477e-07
1.1862e-06
1.71051e-06
0.0156747
1.68508e-06
6.82157e-07
0.0073527
2.0546e-05
1.61643e-06
9.84254e-07
1.39745e-06
0.00868288
4.21688e-06
1.98631e-06
3.28793e-06
4.5814e-07
5.2654e-07
1.63131e-06
3.1133e-06
2.15532e-06
0.000259893
3.65729e-06
0.000336979
1.61612e-06
1.62065e-06
1.21295e-06
1.79991e-06
1.54494e-06
2.64323e-06
9.74009e-07
1.77072e-06
4.58901e-07
0.0140321
1.22062e-06
1.11868e-06
1.80614e-06
1.33438e-06
5.37834e-07
0.000210828
1.30999e-06
1.93656e-06
1.20668e-06
9.01842e-07
1.71471e-06
0.000496813
3.59957e-06
1.52878e-06
2.58366e-06
9.33287e-07
1.52322e-06
4.5222e-07
0.000248298
1.27426e-06
1.79339e-06
1.9113e-05
1.59013e-06
1.14628e-06
0.0252618
4.18421e-06
0.000322567
4.84107e-06
1.20532e-06
1.70674e-06
0.000340833
0.000211516
6.26705e-07
1.35964e-05
1.67364e-06
0.00015163
1.2993e-06
1.52237e-06
0.000120614
0.000329416
9.32646e-07
3.81467e-07
1.80437e-06
0.000383572
1.12021e-06
0.00026126
1.52676e-06
8.80388e-07
1.66771e-06
5.10351e-06
0.00504826
0.0109804
1.77895e-06
4.70815e-07
2.0137e-06
1.29534e-06
1.60934e-06
3.38263e-06
0.010755
0.000383057
1.14076e-06
4.15673e-07
2.09481e-06
1.05432e-06
1.37767e-06
0.00601132
1.53616e-06
0.000402529
1.14091e-06
8.15517e-07
1.5433e-06
2.34517e-06
2.18154e-06
2.33493e-06
0.00139748
0.00113844
5.29393e-07
5.28672e-07
4.50373e-07
1.78629e-06
1.10735e-06
0.00183402
1.29202e-06
1.21055e-06
1.61916e-06
0.000109193
8.2131e-07
7.82426e-07
7.21425e-06
1.36084e-06
3.17092e-06
6.04506e-07
0.00927478
1.60686e-06
1.14592e-06
0.000323993
7.67304e-07
1.6174e-06
1.53083e-06
1.33732e-06
1.53385e-06
1.3489e-06
1.53435e-06
7.90288e-07
1.06485e-06
1.5186e-06
5.30175e-07
2.38636e-06
0.000257181
7.75677e-07
0.0137025
0.00190304
1.52511e-06
1.24664e-06
1.44277e-06