/*--------------------------------*- C++ -*----------------------------------*\
| =========                 |                                                 |
| \\      /  F ield         | OpenFOAM: The Open Source CFD Toolbox           |
|  \\    /   O peration     | Version:  v2012                                 |
|   \\  /    A nd           | Website:  www.openfoam.com                      |
|    \\/     M anipulation  |                                                 |
\*---------------------------------------------------------------------------*/
FoamFile
{
    version     2.0;
    format      ascii;
    class       volVectorField;
    location    "250";
    object      U;
}
// * * * * * * * * * * * * * * * * * * * * * * * * * * * * * * * * * * * * * //

dimensions      [0 1 -1 0 0 0 0];


internalField   nonuniform List<vector> 
18232
(
(1.01181 0.00196799 0)
(1.13428 0.0757805 1.82154e-21)
(-0.12052 -0.0913526 5.72606e-20)
(1.17943 0.112915 0)
(1.01198 0.00219431 1.29204e-21)
(0.947424 0.0647751 -8.62837e-20)
(0.908143 -0.177762 -9.04043e-22)
(1.00228 -6.32596e-05 5.56451e-22)
(1.02065 -0.00386247 0)
(0.933215 -0.168025 0)
(1.01152 0.00397887 -5.61014e-22)
(1.04307 0.0222218 -4.94364e-21)
(1.04297 0.0368618 1.24613e-20)
(0.914079 -0.200431 6.70419e-21)
(1.00644 0.0395355 3.62298e-22)
(1.18587 0.374923 -2.2824e-20)
(1.14151 0.076771 -3.92475e-20)
(1.1572 0.229209 -2.6589e-20)
(0.999828 -2.1492e-05 -2.60255e-22)
(0.921842 -0.0638915 7.13864e-21)
(0.710853 0.0448442 1.99515e-20)
(0.89758 -0.194096 -2.07872e-21)
(1.04987 0.0491965 -7.26638e-21)
(1.03474 0.024959 -3.56791e-21)
(1.01199 0.00192085 -3.61716e-22)
(1.01648 0.00808065 8.85108e-23)
(1.03764 0.0309502 1.32888e-21)
(0.907759 0.0324116 1.19694e-20)
(1.00492 8.57479e-05 -6.20772e-22)
(1.12269 0.0630246 0)
(1.01629 0.00807896 -7.92141e-23)
(0.928459 -0.075403 0)
(0.998119 0.0413894 0)
(1.07403 0.0119987 1.50888e-20)
(1.17548 0.108834 5.86794e-20)
(1.00298 -5.65121e-05 5.96489e-22)
(0.765481 0.054974 9.18786e-20)
(0.529208 -0.406921 5.41704e-21)
(1.0764 -0.074054 6.07873e-22)
(1.02253 0.00672537 0)
(1.08523 0.0568451 -2.57968e-23)
(1.03089 0.0101768 -2.59494e-21)
(-0.124231 -0.0981687 -8.10007e-20)
(1.03413 0.0247573 -2.54114e-21)
(1.08931 0.0629776 0)
(1.06929 0.0316877 1.71618e-20)
(0.408558 0.305042 -4.87453e-21)
(0.998167 0.0351297 0)
(1.00735 0.0355145 1.15943e-21)
(0.951844 0.0666916 2.7404e-20)
(1.13818 0.0766087 3.08165e-20)
(1.00948 0.0430993 -1.60967e-22)
(1.00809 0.00239439 -4.79941e-22)
(1.04907 -0.00363585 -3.26296e-22)
(1.01074 0.00331457 3.02262e-22)
(1.0199 -0.00385385 0)
(1.18644 0.375802 1.73909e-20)
(0.390851 0.270212 -3.86702e-21)
(1.05009 0.0173414 1.32468e-20)
(1.01271 0.0439204 -1.27985e-21)
(1.11255 0.171172 0)
(0.486162 -0.0201901 -4.41426e-21)
(1.01032 0.0660287 2.2135e-20)
(0.941469 -0.153042 -2.25119e-22)
(1.03067 0.0101645 -2.62941e-22)
(1.017 0.0095029 1.6763e-21)
(1.09915 -0.05644 5.62119e-22)
(1.06852 0.0307233 -9.55068e-21)
(1.02169 0.00585268 0)
(1.04911 0.0169171 -9.31752e-21)
(1.03967 0.00125718 0)
(1.01039 -0.0020203 0)
(0.984885 0.0239834 2.51084e-21)
(1.03158 0.0106011 0)
(1.10927 0.166524 -3.03076e-20)
(1.03048 0.0103404 0)
(1.03775 0.0301321 0)
(1.11919 0.0753052 0)
(1.01771 0.11227 0)
(0.98296 0.0287386 -1.22132e-21)
(1.21662 0.188667 4.20327e-20)
(1.18164 0.0978419 1.78203e-20)
(1.26273 0.110435 -1.05451e-19)
(1.0382 -0.0123675 0)
(1.00961 -0.00174807 2.32381e-23)
(0.709672 -0.335728 -2.66292e-21)
(1.01157 0.00283604 -1.5079e-21)
(0.999583 -5.19248e-06 0)
(0.891362 0.0512811 -2.49272e-21)
(0.0126444 -0.0712036 -5.49533e-20)
(1.12192 0.0426991 0)
(1.02345 0.0134752 0)
(1.11652 0.15928 -1.95591e-20)
(0.349631 0.240984 -3.17351e-20)
(1.03096 0.011705 6.04611e-22)
(1.0401 -0.00922424 3.23109e-22)
(1.01368 0.00711744 1.44962e-21)
(1.02306 0.0129619 -2.71333e-21)
(1.01346 0.00682714 -8.67788e-22)
(1.09242 0.042043 -8.05327e-21)
(0.780026 0.0577919 -5.66855e-20)
(0.448552 -0.0276658 -1.81765e-21)
(1.01369 0.00668604 0)
(1.00747 -6.88309e-05 -1.30534e-21)
(1.03926 0.00147781 0)
(0.914941 -0.00160078 -5.82289e-21)
(1.05604 0.0239784 0)
(0.906169 -0.216908 0)
(1.17023 0.218834 0)
(1.01265 -0.0929153 0)
(1.06143 -0.0505732 2.99721e-22)
(1.03765 0.0300282 -1.59508e-21)
(1.11401 0.154515 3.18004e-20)
(1.25797 0.0655362 -3.15076e-20)
(1.00722 -2.39972e-05 9.45167e-22)
(1.05233 0.0423359 5.56072e-21)
(1.09002 0.0417438 -3.78561e-21)
(0.990673 -0.00512512 -1.13803e-20)
(0.800296 -0.217582 -3.72211e-22)
(1.01668 0.00963774 -2.08821e-24)
(1.00992 -0.00188405 -6.8688e-23)
(0.960144 0.141496 3.12463e-21)
(1.00269 7.8621e-05 -9.46081e-22)
(0.836283 0.168307 -9.50275e-21)
(1.02983 0.00997812 -2.33291e-21)
(1.01279 0.000880396 0)
(1.0919 0.0496777 -1.59396e-20)
(-0.0162002 -0.0740458 0)
(1.2237 0.10465 0)
(1.04354 0.0802872 3.78951e-22)
(1.02995 0.0310116 4.44677e-22)
(1.17083 0.10988 -5.27578e-20)
(1.00984 0.00298236 2.51056e-22)
(1.01809 0.00588103 -2.56107e-22)
(1.0699 0.0293145 1.80868e-20)
(1.00469 0.000121005 3.15168e-22)
(1.18411 0.111713 0)
(1.10921 0.10362 7.45727e-21)
(0.850473 0.068692 -7.65106e-20)
(0.890552 0.0658076 3.59852e-20)
(1.0049 0.00011732 3.74711e-24)
(-0.0865924 -0.119636 5.51584e-20)
(-0.157238 -0.0995839 9.19314e-20)
(1.26855 0.112282 1.19781e-19)
(1.01597 0.00108982 3.53444e-22)
(1.06399 0.0187911 1.41509e-22)
(1.08989 0.0503028 -1.51866e-20)
(0.982454 0.206908 -5.31342e-22)
(1.02233 0.0211551 0)
(1.01113 0.0047124 1.21541e-21)
(1.18496 0.201583 -8.23624e-21)
(1.00961 0.00282163 -4.91098e-22)
(0.82564 0.0574105 5.37457e-20)
(1.1011 0.0605966 -1.08785e-20)
(0.034131 -0.121401 2.91884e-20)
(1.19964 0.169381 2.06984e-20)
(-0.163207 -0.105861 -2.92801e-20)
(1.13185 0.0971509 4.81733e-20)
(1.02883 0.030136 0)
(-0.0568814 -0.11383 4.79535e-20)
(1.03058 0.019326 0)
(0.494396 0.0303551 0)
(0.0644533 -0.103628 -5.40493e-20)
(0.696279 -0.336652 -1.87502e-21)
(1.01791 -0.0827762 2.01865e-22)
(1.01881 0.00627951 -3.99922e-21)
(0.982314 0.128173 4.16966e-21)
(0.496935 -0.370083 -6.20337e-21)
(1.03299 0.0005252 7.22391e-21)
(1.19553 0.175805 -3.47863e-20)
(1.04117 0.0229214 0)
(0.793258 0.144308 -1.0289e-20)
(1.22346 0.10047 -4.92856e-20)
(1.03197 0.0103739 -2.4903e-21)
(1.00659 -0.000478431 6.44531e-22)
(1.00667 0.00145647 -2.38613e-22)
(0.938093 0.16025 -3.13638e-22)
(1.06391 0.0207821 -2.73027e-22)
(1.00801 -0.000124542 9.90369e-23)
(1.00677 0.00150521 -2.16806e-22)
(1.01033 0.00281328 2.7593e-22)
(0.807021 -0.227686 5.45916e-22)
(1.09071 0.0534017 -1.93637e-20)
(0.948475 0.181351 -9.05368e-23)
(1.00717 -0.000332651 6.1243e-22)
(1.00907 0.00293365 0)
(1.00299 2.56762e-05 2.77579e-22)
(0.790582 0.0575718 -5.66935e-21)
(1.04334 0.00705545 -1.25043e-21)
(1.16442 0.115914 2.79344e-20)
(1.06924 0.0282997 -8.16753e-21)
(0.706136 -0.113148 -7.72433e-21)
(1.01323 -0.0020135 1.20203e-21)
(1.01253 -0.00201936 0)
(1.04092 0.0221957 0)
(1.01413 -0.0018131 1.10408e-21)
(0.977939 0.121048 1.63012e-21)
(1.06325 0.0180196 -6.99524e-24)
(1.08894 0.0543932 1.79627e-21)
(1.02947 0.010101 6.12692e-21)
(1.01562 -0.00112491 2.97682e-22)
(1.01119 0.00306252 0)
(1.04643 0.0151486 0)
(1.00682 -0.000607858 1.21077e-21)
(1.06311 0.0200939 -1.17078e-20)
(1.03075 0.030686 0)
(1.04344 0.00948732 -9.36411e-22)
(1.02082 -0.00410142 -1.33544e-22)
(1.04313 0.0313622 0)
(1.00763 -0.000403362 -6.73098e-22)
(1.00498 0.000255026 0)
(1.01512 0.00857417 0)
(1.00917 0.00318007 9.89665e-24)
(1.04657 -0.0192027 0)
(1.04565 0.0153624 -6.34137e-21)
(1.24712 0.290369 0)
(1.03769 0.0299932 -1.43025e-21)
(1.03323 0.000470053 -4.75198e-21)
(0.927887 0.209154 -2.64489e-21)
(1.21347 0.195198 1.82543e-22)
(1.10353 0.0616338 0)
(1.04105 -0.0168896 0)
(1.01837 0.0439373 -1.63687e-21)
(0.812787 0.138081 0)
(1.00201 0.0107128 4.57763e-22)
(1.01099 0.00309098 -3.02908e-22)
(1.0109 0.00664881 0)
(1.02186 0.0083881 9.57117e-22)
(1.01685 0.0487333 0)
(1.18585 0.0969586 -2.85231e-20)
(0.957213 0.141864 -2.75882e-21)
(1.00495 0.000292638 0)
(1.00681 -0.000474935 -6.57739e-22)
(1.00789 0.00212134 1.40137e-23)
(1.02927 0.0150965 0)
(1.00779 -5.47685e-05 0)
(1.02894 0.0168088 2.9628e-22)
(1.21135 0.142445 -4.6365e-20)
(1.03943 0.0276422 0)
(1.02216 0.0066586 -9.99551e-22)
(-0.131438 -0.133269 2.48423e-20)
(1.0118 0.00192732 3.60165e-22)
(1.02204 0.00885779 0)
(1.01203 -0.0104414 0)
(0.367272 0.281232 3.67826e-20)
(1.00393 -6.39394e-05 -6.6213e-22)
(1.11541 0.0948043 1.51111e-20)
(1.03925 0.0282175 -1.46825e-22)
(1.00832 0.0025342 7.09178e-22)
(1.00703 -0.000607808 -1.21787e-21)
(-0.103681 -0.127803 0)
(1.07667 0.098691 4.18932e-21)
(0.59292 0.0238438 0)
(1.12822 0.0970698 -6.1878e-20)
(1.16948 0.115245 -2.87868e-20)
(0.950028 0.1252 2.99426e-21)
(1.06714 0.0336288 6.92179e-21)
(1.25343 0.297888 5.17535e-20)
(1.01337 -0.00193868 -5.8583e-22)
(1.01912 0.00665684 4.99975e-21)
(0.949044 0.194894 5.50781e-22)
(1.00961 0.00336144 0)
(-0.15931 -0.0671895 -1.05808e-19)
(1.00744 0.000455135 1.62043e-22)
(1.03037 0.023582 -3.78575e-21)
(1.20611 0.139739 3.59367e-22)
(1.05367 -0.0313944 8.10979e-22)
(1.02249 0.00601151 1.03268e-21)
(1.01166 0.00193305 -3.67756e-22)
(-0.17089 -0.0661306 1.03301e-19)
(1.0042 -0.000144578 -4.07584e-22)
(1.02665 0.0165438 0)
(1.17573 0.202344 2.70743e-20)
(0.939517 0.0787868 0)
(1.04952 0.355684 -4.01774e-20)
(1.03307 0.01053 0)
(1.238 0.261448 -3.044e-21)
(1.031 0.0237336 1.24601e-21)
(1.01131 0.00283804 -8.88789e-23)
(1.04698 0.339171 3.0575e-20)
(1.13884 0.075704 -2.11263e-20)
(1.24335 0.0598355 2.02098e-22)
(1.12676 -0.0278629 1.06314e-22)
(1.00747 -0.000879381 3.12895e-22)
(1.04687 -0.0275548 4.14047e-22)
(1.01435 0.00709267 -9.27095e-23)
(1.01014 0.000708879 -8.22133e-22)
(1.02645 0.0150913 0)
(0.0581029 -0.0613788 0)
(1.24369 0.219695 -4.27275e-20)
(0.0418897 -0.0281022 0)
(1.21497 0.0600121 0)
(1.00467 0.000152439 3.02367e-22)
(1.01258 0.00539502 1.78781e-21)
(1.02276 0.00695549 0)
(1.03115 0.000522186 5.96739e-21)
(1.01156 0.00281369 8.84034e-22)
(1.00513 0.000335508 -6.46053e-22)
(1.01447 1.35358e-06 9.40614e-22)
(0.982327 -0.0276296 1.25289e-20)
(1.01226 0.00438539 -1.17423e-21)
(1.25691 0.111124 -3.46754e-20)
(0.593333 0.0248676 -1.06262e-21)
(1.00809 0.00223684 -4.67807e-22)
(1.00769 -0.000888287 -7.82715e-22)
(1.02213 0.0059759 3.20396e-21)
(1.0751 0.0155572 1.63673e-20)
(1.04057 0.0885693 0)
(1.01432 0.00788318 -8.80082e-22)
(1.00998 0.00184121 1.34242e-21)
(1.00364 0.000111351 1.46652e-21)
(1.2185 0.0947023 0)
(0.878927 0.0417009 0)
(1.01052 0.00314367 2.90418e-22)
(1.00986 0.00481358 -7.05825e-22)
(1.02267 0.36776 1.6275e-20)
(1.03108 0.0198783 0)
(1.01077 0.00254237 1.8557e-21)
(1.03737 -0.00532342 -1.83367e-21)
(1.01031 -0.00208378 -1.47376e-23)
(1.02133 0.0199032 0)
(0.656755 -0.155658 1.20916e-20)
(1.1086 0.179637 7.46411e-21)
(1.01841 0.00624529 0)
(1.21811 0.098353 0)
(0.531282 0.0346264 -7.16847e-21)
(1.04305 0.0215546 1.04152e-20)
(1.02163 0.0208053 4.31778e-22)
(1.01404 0.00769366 8.69167e-22)
(1.02174 0.00572445 -3.28232e-21)
(1.00357 0.0443777 1.83577e-21)
(1.05212 0.170223 2.20062e-20)
(1.0285 0.384587 -1.86397e-20)
(1.07511 0.013016 -2.07009e-20)
(1.07981 0.101242 0)
(1.10158 0.181545 -2.57011e-20)
(1.01347 0.00644402 1.4525e-22)
(1.03732 0.0242607 0)
(1.03099 0.0544201 -1.6081e-21)
(1.04772 -0.00235714 2.61018e-22)
(1.23737 0.0635399 -7.94155e-21)
(1.23069 0.224619 4.83699e-20)
(1.03757 0.0305776 2.27068e-21)
(1.23475 0.0632407 3.69072e-20)
(1.03404 -0.00469475 2.09844e-21)
(1.03762 0.0862471 0)
(0.648852 0.448983 0)
(1.01375 0.00672106 1.33446e-22)
(1.06251 0.0224432 0)
(1.00705 -0.000386448 -1.21909e-21)
(1.02638 0.0135291 1.98881e-21)
(1.00642 0.077202 1.59048e-21)
(1.05256 0.0659154 0)
(1.01336 0.00169227 -1.53379e-21)
(1.08025 0.0274756 1.10911e-20)
(1.00739 -0.000409914 -3.33559e-22)
(0.52171 -0.355899 6.54155e-21)
(1.03245 9.3318e-06 1.16332e-21)
(1.01683 0.0112 2.47709e-22)
(1.06379 0.0130701 1.80254e-20)
(1.01478 0.00850671 0)
(0.890456 0.181101 3.56307e-21)
(1.01753 0.0883274 -5.99307e-22)
(1.00388 0.000150343 0)
(1.02071 0.019466 0)
(1.0254 0.0136106 0)
(1.00477 -0.000224352 -4.10007e-22)
(1.06597 0.013836 0)
(1.04973 0.0765855 2.77437e-22)
(1.01475 0.00732263 -1.45315e-22)
(1.00422 -8.5657e-05 8.021e-22)
(1.03761 0.0303523 0)
(0.621018 0.466104 0)
(1.01403 0.0007074 -8.20972e-22)
(1.02559 0.0177549 0)
(1.0327 0.00567527 0)
(0.0643694 -0.0250214 0)
(1.01208 -0.00274128 1.27086e-23)
(1.01279 0.00545718 1.62528e-21)
(0.529964 -0.0935359 0)
(0.912044 -0.236737 0)
(1.0292 0.0130152 0)
(1.06356 0.0221484 -1.25104e-20)
(1.11254 0.10169 -7.10135e-21)
(1.00898 -0.0010029 -7.07779e-24)
(1.00895 -0.00108463 -1.77803e-23)
(1.04093 0.0462174 2.19187e-21)
(0.993536 0.0316635 0)
(1.04133 0.0364113 3.65996e-21)
(1.01267 0.0051572 -9.18225e-22)
(1.00807 -0.00448522 0)
(0.963941 0.145055 -1.26797e-22)
(1.00923 0.00297423 -3.35591e-22)
(1.00325 2.38783e-05 8.81619e-22)
(1.0222 0.00754065 -4.08352e-22)
(1.08432 0.0306786 -1.22191e-20)
(0.961329 -0.111773 0)
(1.01409 0.00693572 -2.21818e-22)
(0.670428 -0.166642 -5.23692e-21)
(1.09275 0.0471925 0)
(1.23022 0.110917 6.73825e-20)
(1.006 0.00108479 0)
(1.05212 0.046278 -8.03074e-23)
(1.09176 0.0458523 -4.6788e-22)
(0.686389 -0.373831 -1.01143e-21)
(1.01389 0.0847447 5.63612e-22)
(1.03939 0.0352241 0)
(0.901764 0.174411 0)
(1.11722 0.144048 -2.12461e-20)
(1.00702 -0.0058963 0)
(0.944581 0.213684 6.8252e-22)
(1.04068 0.0357016 -3.15442e-21)
(1.02939 0.0200686 0)
(1.06298 0.0122424 -2.37893e-22)
(1.01676 0.0115761 -1.66498e-22)
(1.01235 0.00233823 0)
(1.08122 0.0319175 0)
(0.703143 -0.378299 0)
(1.00539 0.000496279 -2.26223e-22)
(1.0226 0.00796898 -4.18989e-22)
(1.00976 0.00101941 0)
(0.680406 -0.107299 1.18731e-20)
(1.06442 -0.0425716 0)
(0.987825 0.0339738 0)
(1.12122 0.0353102 -2.8058e-20)
(0.98577 0.00237603 4.00683e-21)
(0.967867 0.123772 -3.92359e-22)
(1.03335 0.000351873 -2.13106e-21)
(1.06081 0.0113647 -1.14526e-20)
(0.106835 -0.0221803 -3.11665e-20)
(0.967399 0.326161 4.50269e-21)
(1.0686 0.0331786 -7.69842e-21)
(1.06526 0.0128985 0)
(1.02054 0.00181605 0)
(1.0061 0.00112475 2.58237e-22)
(1.00983 -0.00162488 0)
(1.01079 0.181485 6.05297e-21)
(1.11425 0.0772943 -1.98776e-21)
(1.00549 0.000438595 0)
(1.01373 0.0485189 0)
(1.0157 0.00916437 4.35128e-22)
(1.01587 0.00107028 -4.17391e-22)
(0.995673 0.0418928 -2.5003e-21)
(1.00887 0.000614432 0)
(1.03728 0.0253499 0)
(1.05589 0.0228773 0)
(1.00486 0.0269139 -1.26977e-21)
(1.04479 0.317829 0)
(1.00929 0.00331768 -1.01683e-23)
(1.07665 0.0155159 -2.47606e-20)
(0.512741 -0.317323 3.75258e-21)
(1.01697 0.0155549 1.55061e-21)
(0.963154 0.1164 5.82563e-22)
(1.032 0.00607931 0)
(1.02813 0.0112187 -2.20043e-21)
(1.02852 0.0110927 4.70588e-21)
(1.02038 0.0199122 -7.17528e-22)
(0.813548 -0.135226 -2.33567e-22)
(1.043 0.0267876 -2.42571e-22)
(1.03165 0.0062601 0)
(1.04233 0.0223597 5.32034e-21)
(1.00455 0.000179279 0)
(1.00877 -0.00132954 0)
(1.04341 0.0191672 -5.81622e-21)
(1.07232 0.0554259 -1.38368e-20)
(1.0074 -0.00200749 0)
(1.02214 0.00640933 0)
(0.94819 0.178932 1.44666e-22)
(1.0105 -0.00210677 0)
(1.01004 -0.00189248 -9.73507e-24)
(0.514751 0.489021 -5.42405e-21)
(1.07249 0.0535067 0)
(0.0269279 -0.0657413 3.46582e-20)
(-0.190879 -0.107059 -3.12706e-20)
(1.11693 -0.0427582 0)
(1.00435 1.01178e-06 8.65303e-22)
(1.00441 -1.39308e-05 5.29704e-22)
(1.0424 0.00236112 -5.7487e-21)
(1.03553 0.0124631 4.89361e-23)
(1.00969 0.0017909 -1.42717e-21)
(1.01579 -0.00374652 -2.00563e-22)
(1.03427 0.00151696 0)
(0.89662 -0.0863044 0)
(1.00517 0.000619751 -2.19376e-22)
(1.01055 0.00296089 -5.78994e-22)
(1.01007 0.00299284 0)
(1.01283 0.176674 5.96036e-21)
(1.0375 -0.0342657 1.81783e-20)
(1.25975 0.0699599 2.15817e-20)
(1.0517 0.0437345 -1.19348e-20)
(1.03761 0.0312649 0)
(0.708202 0.0408068 -2.71812e-20)
(-0.151902 -0.0521217 -1.93529e-20)
(1.00525 0.000755065 -4.85064e-22)
(0.996564 0.0811803 -1.19953e-22)
(1.0392 0.0254832 0)
(-0.197383 -0.114541 -1.43765e-20)
(1.03426 0.0163628 2.0288e-21)
(1.00871 0.000765431 0)
(1.00457 0.000308037 6.50763e-22)
(0.905593 0.0368601 2.50596e-21)
(1.00473 0.000148575 5.84935e-22)
(1.01266 -0.00197274 -1.28558e-21)
(1.01902 0.0179248 -2.67724e-22)
(0.874054 0.0689548 9.37909e-20)
(1.00685 -0.00039323 1.4294e-21)
(1.04402 0.0276448 0)
(1.01365 -0.00177376 -1.5321e-21)
(0.358854 -0.00408338 2.85251e-20)
(1.01606 0.00912293 -8.57515e-22)
(1.02161 0.0591542 0)
(1.01923 -0.00399746 0)
(1.00653 -0.00224557 1.61197e-21)
(1.00829 -0.000469111 9.01485e-23)
(0.326482 0.317574 3.26952e-20)
(1.05272 0.0452422 -3.43885e-21)
(1.00533 -0.000244802 2.40254e-23)
(1.03412 0.00129684 -4.484e-22)
(1.04169 0.00230467 0)
(1.00841 0.00269249 6.89741e-23)
(1.00446 0.000181359 -6.29306e-22)
(1.00836 0.000910192 5.57429e-23)
(1.01468 0.000482655 5.14452e-22)
(1.03375 0.0164278 2.08891e-21)
(1.02868 0.0127927 0)
(1.02211 0.0131498 -2.57581e-21)
(1.09716 0.127515 -2.97267e-20)
(0.812849 0.390266 0)
(1.02355 0.00112142 0)
(1.00331 0.0312139 -7.49532e-22)
(1.02087 0.0116676 0)
(-0.0820804 -0.158078 1.92194e-20)
(0.988507 0.103037 8.25941e-22)
(1.00938 0.00278493 0)
(1.23573 0.0740577 0)
(1.05657 0.0440992 1.07716e-22)
(0.710078 0.108194 2.29414e-20)
(1.01008 0.0028353 -5.27358e-22)
(0.928509 0.222354 3.7687e-21)
(1.03156 0.0027825 -5.22946e-21)
(1.00976 0.00175655 1.17721e-21)
(0.49517 0.478875 4.6327e-21)
(1.01242 -0.00626441 7.50802e-22)
(1.04197 0.0474547 7.38725e-21)
(0.720902 -0.321542 7.75243e-21)
(1.02236 -0.00394274 1.24325e-22)
(1.02045 0.0166195 0)
(1.00536 0.000804976 2.74049e-22)
(0.216587 0.000113633 3.43741e-20)
(1.00972 0.00351585 0)
(1.02147 0.0752197 0)
(1.06335 0.0400496 7.60978e-21)
(1.16868 0.0645065 -1.82448e-20)
(1.00173 5.61291e-05 -6.79719e-22)
(1.22977 0.106272 -5.22908e-20)
(1.03362 0.0180413 -2.37186e-22)
(1.0098 -0.000598022 8.81384e-22)
(1.02586 0.0146067 0)
(1.02594 0.0130595 5.90454e-23)
(1.03596 0.0476804 -1.1504e-22)
(1.08722 0.0581926 1.47204e-20)
(1.01344 0.00651167 0)
(1.00717 -0.000371002 0)
(0.971261 0.119825 0)
(0.674172 0.0497422 -6.66074e-20)
(0.983802 0.129738 -5.21622e-21)
(1.03359 0.0158262 -1.08236e-21)
(0.984806 0.0228931 6.13005e-22)
(1.25341 0.269599 3.25512e-21)
(1.01139 0.0385538 -1.08565e-21)
(1.01001 -0.000436007 8.94217e-22)
(1.09942 0.221842 6.23138e-20)
(1.00946 0.00169523 -1.59109e-21)
(1.01166 -0.0128655 -6.74513e-22)
(1.00953 -0.000374437 -1.60606e-21)
(1.00783 -0.000387784 -9.00683e-23)
(1.00636 -0.000379142 0)
(1.02132 0.000582526 -2.97178e-21)
(1.01593 -0.00372251 3.56641e-23)
(1.19123 0.35745 0)
(1.01795 0.0155284 -2.18224e-21)
(1.00464 0.000150124 0)
(1.26532 0.0659459 2.93654e-20)
(0.335442 0.35189 0)
(1.10625 0.255615 0)
(1.01118 -0.000509991 4.41013e-22)
(1.24109 0.0700943 -4.25063e-20)
(1.02323 0.0162125 -8.19006e-22)
(1.06627 0.0359698 1.60259e-20)
(1.00957 -0.00156755 0)
(1.02162 -0.00420366 0)
(1.00481 0.000217715 0)
(0.629072 0.042918 1.02884e-19)
(1.01392 0.00991305 0)
(1.01308 0.00606319 3.31211e-22)
(0.384362 -0.00261758 -5.08294e-20)
(1.01261 0.00461291 8.63507e-22)
(1.13789 0.0934094 4.91232e-21)
(1.21766 0.0698188 -2.33293e-20)
(1.00425 0.000263747 0)
(1.03013 0.0267334 0)
(0.931082 -0.177577 1.67322e-21)
(1.17211 0.394226 -9.31455e-21)
(1.01976 0.0193786 0)
(1.02255 -0.00673678 9.48177e-22)
(1.00802 0.00231202 8.75358e-23)
(1.00712 0.000724745 1.93915e-22)
(1.01007 0.00181577 0)
(0.974786 0.187761 7.00019e-20)
(1.01648 -0.0112458 0)
(1.02182 0.357052 0)
(1.02326 0.0158315 -1.49825e-21)
(1.05692 0.0425835 9.02845e-23)
(1.08734 0.0409246 0)
(1.00733 0.000690338 -2.36641e-22)
(0.740578 0.0452727 0)
(0.969379 0.198113 0)
(1.00783 -0.00945398 -8.28179e-22)
(1.01318 0.00629405 4.95935e-22)
(1.00747 -0.000357763 2.55557e-24)
(1.01078 -0.00182794 6.00513e-22)
(1.00859 0.0027949 -7.0424e-23)
(1.04911 0.000346117 9.56833e-23)
(0.828211 -0.0940523 0)
(1.03696 0.0487668 5.60612e-22)
(1.25322 0.0688576 2.78485e-22)
(0.984573 0.111975 -2.30235e-22)
(1.00416 0.081829 -1.2602e-21)
(1.03905 0.0128858 -1.04301e-21)
(1.03741 0.0299172 1.98251e-21)
(1.02109 0.0332917 0)
(1.07444 0.0107063 7.89756e-21)
(1.01248 0.00441577 0)
(1.10729 0.111471 -1.07427e-21)
(0.881385 -0.117107 4.99522e-22)
(1.03333 0.0866333 -6.42043e-21)
(1.03782 0.0766162 -1.04144e-21)
(1.01607 0.00212677 1.74892e-21)
(1.01462 0.000684573 7.26741e-22)
(0.997738 0.00702066 0)
(0.676145 -0.314707 1.13585e-21)
(1.02795 0.034146 6.88447e-22)
(1.00723 -0.000353598 -5.97171e-22)
(1.01954 0.0184676 2.6512e-22)
(0.856535 -0.116706 0)
(1.03668 0.0355316 2.99586e-23)
(0.874451 -0.24586 0)
(1.01329 0.00932233 0)
(1.00107 0.00773875 4.74019e-22)
(1.00674 -0.000435471 -1.29489e-21)
(1.11737 0.0784184 -1.32709e-20)
(1.00739 -0.000325737 -3.72186e-22)
(1.09644 0.12326 0)
(1.2575 0.068225 -4.60192e-20)
(1.01566 0.00802332 1.21692e-21)
(1.01002 -0.000458553 -7.67486e-22)
(1.01096 0.000459271 3.93809e-22)
(1.01897 0.0412758 0)
(1.02024 0.0145552 -1.75822e-21)
(1.01535 -0.00153106 -3.248e-22)
(1.00095 0.0223158 1.41004e-21)
(1.02923 0.0246657 0)
(1.03728 0.0259029 0)
(1.01035 -0.00039564 3.77022e-22)
(1.01822 0.0597857 -2.25322e-21)
(0.995156 0.208352 2.70861e-21)
(1.00333 0.0178016 0)
(1.05834 0.0240362 0)
(1.01002 -0.00196863 7.89437e-23)
(1.01516 0.00615876 -4.22564e-22)
(0.0810934 -0.0254271 -5.06266e-21)
(1.01301 0.00596752 -4.65911e-22)
(1.01422 0.0118673 1.45432e-21)
(0.941013 -0.0112191 0)
(1.02493 0.0135573 2.27591e-21)
(1.03194 0.00092375 -5.13822e-21)
(1.11976 0.0434742 1.95221e-20)
(1.0315 0.0301203 -9.84322e-22)
(1.00928 -0.000327941 0)
(1.01863 0.0182306 7.05066e-23)
(1.01945 -0.00343486 -1.40016e-21)
(1.01621 0.00184512 -7.98023e-22)
(1.19294 0.208396 8.66536e-21)
(1.02128 0.0005618 0)
(1.01257 0.00401098 0)
(1.04242 0.030607 1.05221e-22)
(-0.0590637 -0.166821 0)
(1.02229 0.0177802 0)
(1.06151 0.0123397 -1.72847e-21)
(1.01795 -0.00250721 0)
(0.997726 -0.00482743 -1.62302e-21)
(1.01138 0.00433202 4.6332e-22)
(1.00405 -3.45999e-05 -6.89535e-22)
(0.947283 0.0661773 3.06279e-20)
(1.01529 0.0259441 -8.66821e-22)
(1.00999 0.00260025 -1.35958e-21)
(1.00569 -0.000254822 7.21478e-22)
(1.03248 0.00974695 0)
(0.982357 0.127178 4.98434e-21)
(1.0553 0.0616265 0)
(0.839826 -0.135537 2.67873e-22)
(1.02122 0.00909156 0)
(1.03795 0.0248369 0)
(1.02394 -0.0061807 -1.44493e-21)
(1.25163 0.0671175 -8.01073e-20)
(1.01207 0.00592453 0)
(1.16653 0.0626021 4.62933e-22)
(1.03121 0.0885351 -6.60563e-21)
(1.0155 0.00785464 0)
(1.05384 0.0425969 -6.15943e-21)
(1.01834 -0.00305501 -4.4548e-22)
(1.02349 0.0168833 5.98231e-22)
(1.07643 0.00893334 -1.74184e-20)
(1.03297 0.00609229 0)
(0.450782 -0.00700851 5.1265e-20)
(1.08418 0.0248267 0)
(1.01353 0.0242133 9.76645e-22)
(1.11469 0.0906178 -7.08845e-21)
(1.02268 0.0115974 7.1025e-22)
(1.01402 0.0781253 0)
(1.0299 0.0305657 4.49562e-22)
(0.236478 -0.0351676 0)
(1.01618 -0.0138011 0)
(0.997534 0.00333072 -1.8913e-21)
(1.05939 0.0245505 8.51938e-21)
(1.03674 0.0296299 -5.78207e-22)
(1.04281 0.0193084 0)
(1.01355 0.0114305 6.37965e-22)
(1.14513 0.261908 -2.42964e-20)
(1.00511 0.000374067 0)
(1.04 0.0332858 -1.19766e-21)
(1.01864 -0.0149186 1.85451e-21)
(1.01765 0.0160683 0)
(1.03737 0.00649764 7.34024e-21)
(1.01129 0.030851 0)
(1.08117 0.0289073 0)
(1.03541 0.0353257 0)
(1.02017 0.00998112 0)
(0.953858 -0.125567 9.16168e-23)
(1.0683 0.0109036 0)
(1.2311 0.0594969 3.14905e-20)
(1.01259 0.0661968 6.82495e-21)
(1.0193 0.0168813 0)
(0.972248 0.0451159 0)
(0.948901 0.0641859 -3.21781e-20)
(1.01606 -0.0716803 9.00983e-21)
(1.04301 0.0318831 -8.14273e-21)
(0.971532 0.0588273 0)
(1.03634 0.0123701 2.01077e-21)
(0.892541 0.194122 1.66091e-19)
(1.04693 0.0449628 -1.68822e-22)
(1.01517 -0.000363721 -1.12111e-21)
(0.985886 0.0452047 1.09367e-21)
(1.03262 0.0107423 0)
(0.203353 0.0702925 8.34528e-20)
(0.497654 0.00778048 -4.68562e-20)
(1.03194 0.00951918 1.57597e-21)
(1.07872 0.196188 0)
(1.00749 -0.00458574 -6.9012e-23)
(1.24713 0.0668666 5.22371e-20)
(1.00247 1.60383e-05 -2.76266e-22)
(1.01009 -0.000540822 3.69455e-22)
(1.23534 0.0797249 0)
(-0.00788107 -0.100489 -4.09274e-20)
(1.00445 -0.000125031 -3.22892e-22)
(1.03759 0.0300015 0)
(1.23378 0.0600871 -6.92424e-20)
(1.01114 0.00782816 1.64159e-21)
(1.02163 0.00174369 -6.58848e-22)
(0.997839 -0.0403865 8.20057e-22)
(1.12922 0.130459 -1.9848e-20)
(0.996536 0.0171124 2.60767e-22)
(0.519644 -0.0482813 4.31747e-21)
(1.02168 0.012651 2.44099e-21)
(1.03824 0.0290065 1.23772e-21)
(1.01694 0.00576234 0)
(0.991426 0.0178277 1.98131e-21)
(1.19285 0.0480972 -6.86443e-20)
(1.25875 0.227584 -5.31239e-21)
(1.04556 0.0176833 -3.763e-21)
(1.13464 0.425623 -4.04897e-20)
(1.02123 0.00954447 0)
(1.01801 0.0699662 -1.40338e-21)
(1.02033 0.0095775 0)
(1.06823 0.0101318 0)
(0.922053 -0.219204 4.16736e-21)
(1.06449 0.0448391 0)
(1.0001 0.114057 -1.09935e-21)
(1.00544 7.97456e-05 -2.45215e-21)
(1.01105 0.00191813 1.79435e-21)
(1.24353 0.0694183 4.01773e-20)
(1.05433 0.16259 -4.37372e-21)
(1.01275 -0.00173358 -3.00559e-22)
(1.03227 0.0326459 -1.18672e-21)
(1.01388 0.00763966 0)
(1.01311 0.00629758 0)
(1.00757 -0.000376674 0)
(1.03343 0.0668166 0)
(0.997267 0.0137191 5.40237e-22)
(1.06154 0.00898956 3.21162e-21)
(1.11964 0.148633 -1.97073e-20)
(1.02377 0.00747961 1.5151e-21)
(1.12253 0.0401375 0)
(1.03184 0.00211308 0)
(1.12387 0.034982 2.88764e-20)
(1.00602 -0.00685062 2.48849e-21)
(0.990579 0.0222441 -2.7187e-21)
(1.05742 0.0621193 -9.72626e-21)
(1.01699 0.00545562 -1.82448e-21)
(1.00518 0.000560859 0)
(1.16037 0.139504 1.25213e-21)
(1.04349 0.0418663 0)
(0.197291 -0.000170985 -3.64644e-20)
(0.93362 -0.0552179 -8.08082e-21)
(1.01769 0.00873102 1.23151e-21)
(1.00108 0.013218 -1.47104e-21)
(1.01691 0.0153548 9.61623e-23)
(0.246466 0.107873 -7.53748e-20)
(1.00367 -0.000132498 5.94931e-25)
(1.00273 1.17001e-05 5.80151e-22)
(1.01525 0.00754329 8.81723e-23)
(1.05259 0.0339398 -1.41568e-21)
(1.0142 0.00127136 -1.07421e-21)
(1.23761 0.077126 0)
(1.01095 0.00330409 1.3333e-23)
(0.994316 -0.0581571 -4.25989e-21)
(1.01048 -0.00212206 -4.66079e-23)
(1.0373 0.0296975 0)
(1.03786 0.0288916 1.458e-21)
(1.0067 -0.000345622 4.46746e-23)
(1.00847 -0.00121587 0)
(1.037 0.00619924 -5.38995e-21)
(1.00528 9.79981e-05 1.73259e-21)
(1.02692 0.0615543 0)
(1.01086 0.00195038 -1.59898e-21)
(1.02963 0.0478207 2.84551e-21)
(1.04469 0.172241 -2.1147e-20)
(-0.0875877 -0.0563768 2.35031e-20)
(1.20581 0.0812974 5.74639e-20)
(1.01265 0.00598655 0)
(1.12694 0.115015 -6.30128e-22)
(1.10556 0.0387481 -6.27828e-21)
(1.04163 0.0303263 2.50332e-21)
(1.02057 0.000161846 0)
(1.06965 0.0260872 0)
(1.08741 0.195284 3.833e-20)
(0.986028 -0.0555991 4.50973e-22)
(0.898098 0.18237 -6.76137e-20)
(0.964139 -0.141559 -1.61611e-21)
(1.01298 0.00621117 1.03435e-22)
(1.04117 0.0294388 2.70233e-21)
(1.09889 0.0350818 2.25229e-20)
(1.0119 -0.00266254 1.03842e-23)
(1.03713 0.0494239 4.29454e-21)
(1.01266 0.000858916 0)
(1.05459 0.334568 -2.77121e-21)
(0.998632 0.0404178 1.43511e-21)
(0.108234 -0.0895813 -3.33565e-20)
(1.03945 0.0343643 1.25921e-21)
(1.01724 0.0161562 0)
(0.977225 0.0194376 0)
(1.01007 0.00629293 0)
(0.943967 0.0713728 4.70281e-20)
(1.01747 0.00881701 3.79377e-22)
(1.02648 0.11319 1.10043e-20)
(1.03262 0.0320592 1.31472e-21)
(1.00977 0.00176573 1.06056e-22)
(0.981343 -0.00689029 2.56529e-21)
(1.0316 0.00224761 5.1652e-21)
(1.05818 0.0666057 6.36562e-22)
(1.05376 0.0338853 1.3559e-20)
(1.04663 0.00781399 6.62109e-23)
(1.2027 0.0798723 0)
(1.01414 0.00061445 0)
(1.04498 0.0172257 1.14859e-20)
(1.01144 -0.00166758 3.58814e-22)
(1.02562 0.00114241 0)
(1.02936 0.0282185 -4.42448e-22)
(0.381069 -0.0494774 -9.43337e-23)
(1.23633 0.112601 2.75978e-20)
(1.13016 0.121668 0)
(1.02279 0.0218934 3.6303e-23)
(1.00508 7.45481e-05 3.59069e-22)
(0.854231 0.189998 2.32575e-21)
(0.751602 -0.317658 0)
(1.06757 0.0355086 9.31349e-21)
(1.08927 0.0573991 2.23573e-21)
(1.04798 -0.0641858 -3.24411e-22)
(1.2187 0.0688483 2.74956e-20)
(1.02738 0.0745424 1.59099e-23)
(1.01473 -0.00128616 5.97195e-22)
(0.994376 -0.00332672 2.54118e-21)
(1.04773 0.0440155 4.36979e-21)
(1.02822 0.0520421 1.87282e-21)
(1.03855 0.0323905 -4.25079e-21)
(1.01076 -0.000478508 8.74238e-22)
(1.02858 0.0275818 -4.45469e-22)
(1.03767 0.00248502 -9.18578e-21)
(1.23706 0.117872 0)
(1.01421 -0.00138221 -2.84092e-22)
(1.0265 -0.000584963 -9.86174e-22)
(1.01673 0.00956467 -4.00359e-22)
(1.01695 0.00921847 0)
(0.446045 -0.0735726 1.6006e-21)
(1.01333 0.00174492 1.02583e-21)
(1.00799 0.00202257 0)
(1.00463 -9.74587e-05 0)
(1.00565 0.000111381 7.15722e-22)
(1.0222 0.0111662 0)
(1.02084 0.0120243 5.89541e-22)
(1.04722 0.0848559 1.08658e-20)
(1.0102 -0.000443683 -8.61878e-22)
(1.19269 0.112779 0)
(0.525073 0.00924437 -4.16841e-20)
(0.823919 0.211377 1.97836e-21)
(1.0376 0.00223411 8.12825e-21)
(0.288689 -0.0219647 -3.35719e-23)
(1.23684 0.082821 -3.30495e-20)
(0.984901 0.121158 4.57304e-23)
(1.00997 0.000675688 5.52827e-22)
(1.0869 0.148646 0)
(0.81866 0.188704 -1.84326e-21)
(1.01235 0.00401523 -1.67578e-21)
(1.09942 0.0213656 -9.21525e-21)
(1.01547 0.0139705 1.80802e-22)
(1.01414 -0.0100699 2.27567e-21)
(1.13183 0.135242 1.99773e-20)
(1.02391 0.0626587 0)
(1.02877 -0.000821924 4.96709e-22)
(0.950876 -0.205788 -5.25797e-21)
(1.02219 0.0123714 -2.59018e-21)
(1.01048 0.00407417 -1.69807e-22)
(1.06487 0.0397066 0)
(1.00913 -8.04355e-05 0)
(1.01062 -0.000494627 0)
(1.00914 -2.7694e-05 5.27288e-22)
(0.842439 0.000692521 1.12143e-21)
(0.854918 -0.0154698 1.29268e-21)
(1.13286 0.125635 2.15856e-20)
(1.03735 0.0236791 1.96129e-21)
(1.02012 0.00185408 0)
(1.01376 0.00130771 9.13713e-22)
(0.994085 0.104421 -2.48488e-21)
(1.01417 0.00572573 4.90334e-22)
(1.02103 0.00148216 2.80209e-21)
(0.94015 0.107847 9.22611e-22)
(1.00967 0.00322722 0)
(0.743657 -0.314191 -5.98538e-21)
(1.01477 0.0131817 -8.97072e-22)
(1.01006 -0.00166016 -3.08702e-22)
(0.342731 0.0778968 0)
(1.01014 -0.00166033 0)
(1.02239 0.0500709 1.45993e-21)
(-0.0418444 -0.0552676 -5.80086e-20)
(1.03159 9.07107e-05 3.99305e-21)
(1.0061 -0.000296055 -6.68841e-22)
(1.01184 0.000147562 -1.92103e-21)
(1.06885 0.209737 0)
(0.778522 0.00331506 -2.10474e-21)
(0.925813 -0.147764 6.1537e-22)
(1.09439 0.286844 8.66162e-21)
(1.04522 0.0869188 7.77122e-21)
(1.00458 0.000338467 0)
(1.01441 0.00720321 3.9504e-22)
(0.933779 -0.132617 -1.47688e-22)
(1.05875 0.0599525 -4.13304e-21)