/*--------------------------------*- C++ -*----------------------------------*\
| =========                 |                                                 |
| \\      /  F ield         | OpenFOAM: The Open Source CFD Toolbox           |
|  \\    /   O peration     | Version:  v2012                                 |
|   \\  /    A nd           | Website:  www.openfoam.com                      |
|    \\/     M anipulation  |                                                 |
\*---------------------------------------------------------------------------*/
FoamFile
{
    version     2.0;
    format      ascii;
    class       volScalarField;
    location    "350";
    object      omega;
}
// * * * * * * * * * * * * * * * * * * * * * * * * * * * * * * * * * * * * * //

dimensions      [0 0 -1 0 0 0 0];


internalField   nonuniform List<scalar> 
18540
(
3.98789
0.0222778
0.0218331
2.90288
0.0252555
0.032961
0.0253078
0.0620937
0.0890518
0.0223515
0.0256058
0.0220085
3.3911
0.0220066
3.42731
1.44127
0.0825976
0.0295223
4.8473
5.77374
0.048538
0.0920115
0.0221066
11.614
0.0595813
0.0387547
19.4164
0.0655631
0.0309878
5.98465
0.022271
0.0220304
0.142367
2.47455
0.0291277
2.94298
0.0962402
0.0219534
0.0217161
0.146932
0.0222517
0.0220816
4.34239
4.04068
0.0635546
0.038213
2.46173
0.0218331
0.044867
0.0366554
0.0220096
4.78384
5.5358
0.022247
0.0339767
0.0363095
3.53212
2.87942
5.98622
0.0216814
7.21443
0.0270504
0.028945
0.237759
4.27368
0.0218646
0.0881595
0.0221202
6.94448
0.0216899
0.0349338
0.0383272
0.161841
3.02786
0.0583483
0.146086
0.0746253
0.0220747
0.028754
0.180328
0.0246511
10.3501
0.0219564
0.188718
6.12686
4.24817
0.0220498
0.0221338
0.0275687
4.31792
0.333573
0.149087
0.0490302
0.0216457
0.0263923
0.0223676
0.0246757
0.0399852
12.3882
10.3048
0.0221547
0.0220313
0.160634
2.65862
6.65288
0.136539
0.0221925
4.28394
0.0297511
0.0251456
28.2735
8.44326
0.0220849
0.0283177
5.12682
0.0361555
0.03819
0.0398374
0.0287296
0.033164
9.95012
10.7953
6.71915
7.77378
0.0220319
0.0303596
0.0406873
0.0365071
5.99881
0.165524
1.10927
0.0375833
0.0570963
4.17119
0.0218388
0.0216822
0.0251812
0.0302597
0.0223792
0.0218599
4.34382
0.120297
0.0397794
8.45162
0.0217942
0.0217735
0.0395947
4.13032
0.0302924
10.3773
0.0218154
0.022687
0.0218105
4.52141
0.48399
0.0832486
9.98826
0.021798
0.021954
5.31374
0.0833759
0.0509936
0.022252
0.0218384
6.67845
0.0220079
4.16332
0.0359163
3.52342
0.0221015
0.0221359
0.0323281
0.0252194
0.0270125
0.0222723
7.22496
0.0267821
2.76721
0.439837
0.829301
0.0269947
0.0412146
0.0521425
0.146901
0.0255819
9.4845
0.0226978
0.0247242
0.338925
0.0371721
0.0315823
0.0243294
25.4269
0.0220372
0.0679805
0.0219574
0.0415572
0.249983
0.18941
0.029148
0.0385877
0.151593
0.0357776
0.0355103
4.01642
6.93465
0.022011
2.9504
2.79583
0.0400198
0.0220352
3.74635
2.7602
0.0221753
0.0471813
0.0387585
7.4428
0.196151
15.6294
4.47769
4.32418
0.085293
4.92813
0.0802995
2.01125
4.83176
0.0350347
0.0403958
5.36176
0.0580755
0.0251405
0.362204
0.171803
0.0249581
0.0222608
0.0266608
0.0220495
0.0307911
0.0793999
0.0357499
0.795051
0.63925
0.254128
0.0348801
3.98399
2.72733
0.0222532
0.0217856
0.034935
0.0222106
0.10266
2.72579
4.11813
0.0227443
0.0259862
0.244934
0.374714
0.315154
0.0220083
4.86613
0.180265
3.06125
0.022224
15.9206
8.47024
0.0351358
7.75089
6.17666
0.0219503
0.0221672
6.64973
7.65697
39.8747
0.022906
0.152667
3.24624
0.0218014
0.0487285
0.332325
0.0219623
0.022166
3.5338
0.025412
0.02205
2.82448
0.0216964
0.89734
0.0560438
2.87461
0.186195
4.55848
4.44659
0.0503533
0.0219504
10.3685
0.0642589
0.303278
0.0389598
8.95532
0.0724222
0.0221174
6.24043
0.357037
0.0561767
0.0981097
0.0220273
0.762362
0.0218223
0.340724
0.0220396
7.16843
0.0225648
3.18636
0.0411213
3.18893
2.15505
3.33021
0.022012
5.03439
2.96648
5.06273
0.695784
0.0221627
8.32822
0.0252255
0.0220927
0.0462937
0.0280984
0.0220094
0.0219709
0.0217795
0.112136
0.190685
0.0292568
0.870039
0.148215
0.0221135
0.0221727
7.65042
0.0576692
0.0382689
0.0388794
0.0243209
0.0965636
0.336712
0.231037
0.0219653
0.0891408
0.0254027
0.515411
0.629033
0.0221764
11.2598
0.0223451
0.022167
6.60276
0.0221597
0.0218088
0.0220015
4.31503
0.0650682
0.021845
0.0220332
0.0267905
5.05132
0.0481019
0.0216405
0.0220741
0.0221268
0.0220155
3.03907
0.021784
0.249966
0.0247612
0.022169
0.549041
0.0220444
2.49385
0.025092
35.7416
12.856
0.0218269
0.101829
0.381495
0.0306636
0.0217675
0.149857
5.90853
0.0221911
10.5607
7.00754
0.0218332
0.027353
5.20471
3.05953
0.0220761
2.94812
2.91889
0.0221979
0.813027
15.4269
4.13622
0.0251544
0.0221645
0.0462667
0.0218062
3.96269
9.2141
0.0222858
0.0793698
21.4403
3.34249
0.18829
0.0218443
0.046009
2.70674
0.0221652
0.036475
0.285119
0.206861
0.490503
4.01835
0.0220208
4.89162
0.0217551
0.0538417
0.021748
0.717549
0.0286304
0.0365715
0.0219755
3.08852
0.0463052
5.72951
0.0248422
8.77961
0.0221155
0.0216861
10.0743
0.022009
0.154422
0.0249527
0.0827143
4.08361
0.0220098
0.0221885
0.0221255
4.64825
0.0220108
0.021699
8.03913
2.94463
0.0217381
0.0216877
0.0220569
0.0220985
0.0446927
0.0220112
6.27911
33.5837
0.0260448
0.0222253
0.0456548
0.0271517
0.0221644
0.04408
6.81133
0.0278491
0.296026
0.150125
7.11232
0.0943984
2.90482
4.20497
0.27746
0.0215842
3.13326
0.0220171
4.89385
0.0215571
0.0504432
0.0216154
7.53937
0.0222426
0.0279238
0.0283691
0.0551617
2.95874
0.0220058
0.0228868
1.06141
0.0744676
0.125404
7.95081
7.23395
4.04016
0.0283875
3.20157
0.213204
0.0246549
0.299019
0.0922292
0.0216546
0.183855
0.0222756
0.0254277
0.397126
0.0226039
0.0984188
2.79221
0.0221036
0.0220992
0.0220845
0.0777896
3.87814
0.0246413
0.0269228
0.0219175
6.30191
0.022112
35.0584
0.0220704
0.135805
8.90649
0.0528706
0.0215808
0.022108
2.92952
0.021922
0.0220466
5.94273
0.53307
0.0521293
0.0221229
0.0222558
0.0224799
4.82287
0.682858
0.0336375
0.0220324
0.0221853
0.0349553
0.248594
0.0598513
0.0294745
0.0215864
2.79027
5.04876
0.0253378
0.0336409
0.0265353
0.0218509
0.18211
6.53989
0.0216064
0.0443826
0.271429
14.032
3.44189
0.0219952
0.024963
0.028304
0.0217216
0.0259155
0.0236077
3.01422
0.0218512
0.0892383
0.0259733
0.0429985
0.0216572
0.0222678
0.244884
0.0226219
0.449345
3.6611
0.021847
0.0278932
0.0220668
0.0218587
0.130466
0.0221731
6.53367
4.24105
3.24759
0.0330321
0.0220001
0.0220047
0.0257405
0.384277
0.0374704
0.0214756
0.0220702
0.022245
4.83513
0.0220103
0.0218898
7.89049
0.0233395
0.0217102
11.4326
0.079454
0.0219965
0.0511165
5.5612
0.031225
0.0435653
0.0221582
0.0220608
0.0829575
0.0281323
7.12156
7.05139
5.93545
0.0219847
3.46502
0.0220285
0.0222684
3.88625
0.0222411
3.59771
3.90939
0.0226062
2.99927
0.273942
7.11314
0.0655927
0.025691
0.543741
3.97643
0.0286438
2.73045
3.37617
2.78433
0.0222563
0.0223991
0.0236813
0.334386
0.0215922
0.0314465
3.83311
3.03548
0.0223544
0.0443359
20.3668
0.254807
0.0240112
0.0340257
0.0220722
0.0246652
2.73172
0.0219928
0.0220762
0.0218739
0.0365509
4.06779
0.0219855
23.8437
0.0220969
3.46921
0.0219985
5.66944
0.308872
0.0266875
3.04017
0.0576815
0.0221394
3.92921
3.98277
0.043382
0.0256566
1.47545
3.34028
0.102342
11.5145
0.0226486
5.47307
5.1084
0.0220055
0.0220547
0.0223493
0.0218618
3.23758
0.0277643
0.0247483
0.0289324
2.77263
0.0343175
0.0249535
0.0234931
0.0226527
30.6752
0.547263
3.27075
0.029607
3.07726
0.0216732
0.0524602
0.0246351
5.15984
0.0424943
0.0217106
0.0231708
0.0222703
0.0216833
0.0217084
0.490771
0.0277203
0.0702683
5.38761
0.0217177
0.022316
6.55961
3.83416
4.04361
0.0221329
0.0221622
0.0315532
0.0218252
0.115429
0.238777
0.0243229
0.0222763
0.0221461
0.0324905
0.0337528
0.0486095
0.0220566
0.0222691
0.0334169
0.266592
0.0259539
0.0280099
0.0642635
3.32697
0.0221703
0.0233595
4.08903
0.141767
0.0669006
0.0219765
0.0883042
15.1119
0.083037
0.0300145
0.0310455
2.70699
0.0219077
25.6872
0.21344
4.33842
0.0219507
0.0219837
0.0222195
0.0218842
0.0931393
0.0244282
0.0367512
0.0217608
0.0222274
5.0573
0.0221593
0.0217911
0.0218594
2.7819
0.37539
0.0217583
0.0330177
0.122597
0.0355679
0.042154
0.065097
0.148238
0.130216
0.0231641
0.12375
0.0219777
0.708279
0.0407977
0.0218294
0.115525
3.76641
0.0220433
10.2661
0.0692391
0.124462
0.0223688
18.4068
0.109877
0.0478488
0.0255934
0.0456767
11.1065
0.0220154
0.0236377
2.76538
0.0263915
0.0331951
0.372232
0.0407764
0.0298539
0.0269512
4.05967
0.0248315
0.0224254
8.55539
0.0234766
0.0217934
0.530983
0.0218875
0.0302506
0.0219546
0.0626495
3.99514
0.0221743
0.0246983
3.04871
0.0218585
7.645
0.0220084
2.34024
0.0218064
0.0224284
0.0239871
2.77122
0.0314022
0.0437452
0.0283835
0.0319362
0.021804
0.0267198
3.24876
0.309086
0.022274
5.07985
0.13368
0.0326412
4.74782
0.0220056
0.0222345
0.0220167
21.4467
0.117616
0.0219417
0.021616
0.0218609
22.9601
0.0255703
0.0224431
0.0878551
0.0220221
0.0224553
0.356227
1.95778
0.0259394
0.0218649
2.94433
0.0222379
0.0267179
4.69832
0.130722
8.61289
0.0218022
19.6516
0.0225192
0.0255326
0.0218384
0.0220841
14.3865
0.0738449
0.0218257
5.2802
0.0221798
0.0477862
7.14111
0.0221008
0.0730292
0.515323
0.0301288
12.1117
0.0221672
13.9026
0.0221475
6.12249
0.0700733
0.0222386
6.56809
0.0239355
0.030231
2.33068
0.022127
0.0222461
6.19476
0.0304923
7.5429
0.0221597
0.0222016
0.114644
3.16059
0.0250173
9.97424
0.0221043
0.022161
0.0255413
0.0219705
2.09171
3.90145
0.0223104
4.01499
2.36679
0.0219779
0.0219782
0.0219854
0.16616
0.0409599
0.04114
2.72131
0.0222898
2.84073
0.0503778
2.83614
3.01204
0.0222251
6.36996
15.1763
4.07127
3.17342
0.0220219
0.021864
10.5467
0.0348025
4.36812
8.74064
0.0218764
0.030591
0.0220264
0.0246891
0.125393
0.0220194
4.1147
0.0276927
0.0648989
0.173602
33.1728
0.0217966
0.0220095
0.0402208
3.29196
0.0283715
0.0730276
2.98352
3.0974
0.0232253
3.19435
0.0220086
0.217635
0.0221508
0.0218431
4.91317
4.39339
6.46384
5.27005
0.0217346
0.0678847
0.0219459
4.77021
0.0216346
5.22243
0.0257855
0.0432914
0.0216447
0.0216313
27.7247
4.60208
0.0220127
0.0217682
0.0220019
0.0222708
1.66663
0.235363
0.0220071
3.82827
6.23023
0.0219898
0.0220041
3.96762
0.166293
3.06746
2.721
0.0537103
0.0218772
0.0221178
2.26256
3.55731
0.249483
3.60134
0.0348565
2.72594
0.0215497
3.27708
0.0237965
0.10157
0.0220069
0.022331
4.15291
0.02453
6.70656
0.021697
9.51685
0.0283846
0.0349345
2.22307
4.13039
0.0463016
1.7417
0.474093
0.0234674
0.329772
5.47958
10.8456
4.48937
0.0506701
0.0274424
0.0222733
0.0390672
0.0220106
0.0218426
3.89718
3.30492
0.0221725
4.00396
0.0221204
2.25707
0.0221947
0.0221389
0.0219834
3.21171
0.0221606
1.90239
0.0221332
0.0215504
0.138145
0.0236639
10.9249
0.111855
0.0219972
0.0221113
28.1206
0.0396718
3.2771
0.0220878
0.0559369
0.0242951
0.139229
0.0251187
0.0216208
0.0533815
0.02176
0.394357
0.0219784
0.0217419
0.0217877
0.0244971
3.96269
2.75045
0.0543499
0.0443881
0.022007
0.0339245
3.87535
0.0220083
0.0219951
0.0746517
4.77365
0.0232309
0.0245082
0.0264015
0.0476932
0.163583
2.5802
0.503864
0.0251062
0.0220892
0.0216481
0.0228123
0.0224344
0.0803943
0.0220473
2.2417
4.43432
7.97155
0.029465
2.98709
2.72552
0.0307784
0.0376078
0.036158
0.0217172
4.72885
0.0217808
0.0594616
0.0344407
0.0218002
0.0254212
2.93328
0.297533
0.0224498
0.0254981
3.80077
5.67402
1.3277
0.0218002
5.7599
0.138224
0.0334796
4.25344
0.0221368
0.0221365
8.00318
6.0104
0.147703
0.0220016
3.45334
4.08846
3.61234
0.0478386
9.70839
0.0221276
2.75276
0.0474354
0.0221539
0.0381496
16.7768
7.20619
0.0221376
2.62556
0.0226465
0.0265969
3.88519
0.0221899
0.0517858
0.0300838
3.64743
0.0339403
0.0215217
0.0478346
0.0220425
6.95784
0.11782
1.96823
0.0217159
0.0347752
0.0217078
0.0222605
0.0222166
0.185572
10.374
0.0221399
0.267123
0.038801
21.3554
0.0218799
0.361477
0.241598
0.0779394
0.022262
0.638928
0.0221674
0.0218032
0.0222775
0.0217166
4.58219
3.66268
0.0222779
0.0222738
5.78189
0.0217992
0.0434095
0.021966
0.0217628
0.0218684
0.0221319
2.52191
0.0219954
0.0231046
4.33817
3.71595
0.0285475
0.0220699
0.0222548
8.15963
0.0221547
0.022047
5.34135
0.0222688
0.0222732
0.108549
0.0428783
0.0218096
0.023268
6.20158
0.0784471
4.59144
0.0220726
8.85475
0.124368
13.4571
10.9852
14.484
1.08256
0.0626842
3.19715
4.90633
0.295782
3.06286
4.44197
0.0216966
0.0222879
0.0234206
4.85653
0.0217878
0.0221061
0.0217959
0.0249663
0.0217293
0.0218427
4.34313
6.7148
0.0221461
2.7207
0.106927
0.127399
6.26955
0.0218141
0.0225153
3.34222
0.526268
0.0222666
5.97638
0.0221814
0.0350209
0.0221495
3.77307
0.379235
5.51109
11.7733
0.0227967
0.484019
0.0216807
3.9282
0.024206
8.74887
4.60418
0.361142
0.0221921
0.0422125
0.0222083
2.4721
0.0273713
4.65466
5.02071
0.0219268
2.67885
4.31394
0.0218622
0.0219544
0.0219727
0.134451
0.0217224
0.547259
0.0341025
0.0360401
4.3938
0.285276
1.70732
0.021595
5.58716
0.0218561
0.0602677
0.0219241
0.0221779
1.21115
5.6115
0.0218809
0.0710085
0.0220148
0.021965
0.0238974
0.0218845
0.0472929
0.0468245
4.42152
25.972
0.0217876
2.17606
8.86379
5.41986
2.77143
0.0220104
0.0217272
0.028844
0.0244378
0.0524894
17.2427
0.0219225
0.152658
1.09306
0.0254168
0.022267
3.06594
3.63469
6.022
0.0404905
0.0246411
0.292909
0.0215209
3.66673
0.0263946
0.0215113
0.0217904
11.5039
0.0362991
0.022066
0.17753
0.0221629
0.0217828
2.75272
0.0230142
0.0234307
0.0219626
0.0216994
3.04412
2.81146
5.85179
0.0339767
0.0221542
5.40362
4.50665
7.46694
0.0215075
0.125729
10.6653
0.116714
4.75205
0.0237461
4.00936
0.0221924
0.0218539
7.71919
0.0222874
0.0219087
2.92922
3.87662
0.0392512
0.0339188
0.107084
8.64692
0.022609
0.0321398
1.06514
0.026722
0.0221792
0.0275048
2.7182
0.0216887
2.74458
0.0631005
6.90054
0.0264406
5.77281
0.0215898
0.0219912
4.06856
0.0469489
2.56405
0.0254809
0.0216677
0.0222458
0.021919
6.98079
4.69737
0.191864
5.52269
0.0350734
0.0218801
4.54887
0.0216908
0.0324712
0.0695362
0.0271431
0.0250024
0.0218789
0.0273507
0.0237829
0.04571
4.38871
0.0399228
10.6865
0.0220079
0.0319614
0.035115
0.0220153
2.28156
0.0222241
0.14343
10.5435
0.210678
0.0338482
0.040747
0.0223013
0.0218037
3.12045
4.91795
3.3718
0.0216943
0.0221648
9.79551
0.37904
0.120957
0.0217924
0.0219749
0.023506
6.00592
6.55617
0.370827
0.332207
0.0500928
0.0429535
14.4787
5.81658
0.0221126
0.273706
0.0289122
0.0219072
0.0218016
0.0570742
10.0944
5.11591
6.17497
0.116183
0.0216937
0.0219654
0.283648
0.453981
1.05359
3.28383
0.0400407
0.0221981
3.30124
4.44281
0.0442406
0.0219584
18.3153
0.0221993
0.0222493
4.38452
0.0633061
0.0237993
0.113409
4.32148
2.89094
0.0452633
0.02151
0.0220146
0.0364595
0.0223045
0.0220593
0.0221438
0.02972
2.84477
0.0945843
0.0226318
0.0219603
3.86567
4.83472
0.0220966
0.0294298
0.0220583
0.0262347
0.0221737
0.0218964
0.0249514
7.31877
0.0222636
0.0264389
0.11206
0.153323
4.27885
4.22064
0.0475443
0.191737
3.52011
6.68324
0.40837
0.021907
0.0394971
3.89434
5.10609
6.664
4.46601
0.0252592
1.17741
6.8893
3.02884
0.0327588
0.0738226
3.99802
1.08592
0.0757141
4.78274
2.59284
0.0219777
0.0219132
0.0235045
0.166277
0.096404
0.0363742
1.89811
7.42794
0.495958
3.80943
0.0511159
0.0248183
5.08329
5.85376
0.299913
0.0233757
5.40456
0.0218214
0.0877091
0.022165
4.05521
0.0225078
0.0228209
0.0217204
5.00844
0.0218792
0.106762
0.0247353
4.42638
3.54552
0.0380471
1.1896
0.0251435
0.0219703
3.84066
3.65921
0.0220635
0.0223773
0.239681
0.056752
0.0219641
0.0221462
0.0222798
0.0874706
0.0445993
0.0223027
0.0221281
5.37918
7.96965
3.02434
0.0477535
2.94693
0.0237474
0.0225555
0.022325
4.3652
0.0218822
0.0220401
0.748782
0.0589267
0.0221451
0.138769
0.0252703
0.0222472
0.472931
0.125566
0.0225529
0.0333867
2.75981
0.0220059
0.023098
6.73875
0.0220295
0.122488
0.0313707
0.0219893
0.032486
5.7244
0.0219634
0.039439
6.64787
0.0225798
0.0219838
4.0593
0.0220258
4.62544
0.144821
0.0216563
0.248098
0.073793
0.0220094
4.74229
5.03144
0.0221604
0.0342726
4.03171
0.0813771
5.77725
0.0218858
3.94285
0.0271554
0.0291494
0.122488
0.0221692
0.143112
3.54471
0.0220879
0.0216453
0.0217008
0.021982
0.022076
0.0894972
0.0293584
1.55283
0.0295541
0.0272353
4.10154
2.18644
0.0220309
0.0223145
0.729267
4.88138
3.10575
0.0506137
0.0221502
0.0253317
0.0807021
4.80722
0.0656811
3.81863
2.62839
0.364355
0.0287688
0.09633
0.021909
0.0725729
3.14554
0.0218485
0.0217127
0.0222752
3.12387
0.143932
5.43391
0.0713482
0.0691003
0.022034
0.0219379
0.0214768
0.0220068
0.021892
0.0218686
0.0493278
6.84651
0.0220269
0.0426461
0.938954
3.36266
0.0219818
0.0222211
0.0216968
4.2932
0.0221671
0.024503
0.0506961
0.0270702
0.0447495
0.0559548
0.0227504
0.0237113
7.03658
0.429544
0.875647
0.0228595
3.64194
0.0237959
0.0280067
0.0222125
2.97878
0.173348
0.022228
0.0219751
8.86358
0.0220719
0.0243321
0.0259233
0.0222753
0.0220229
0.0221505
5.10042
0.0237052
3.41141
0.0220582
3.89579
0.031616
0.598845
0.0343997
0.0335434
0.0396162
0.0221372
0.0254979
7.8514
0.0373175
0.133236
0.0220125
0.290521
0.040905
0.141276
0.128832
3.24564
4.22508
0.0218397
3.66677
0.062986
0.0218454
4.14516
0.0341712
0.0378174
4.27717
0.0306965
0.0832721
0.0264961
0.0251431
0.215991
0.164247
0.0221762
0.0220261
1.0424
3.48963
0.0960742
3.15007
0.0643744
0.0218669
3.82073
4.01249
0.641875
3.58936
1.47899
0.155086
0.0456521
0.0220865
0.0222583
0.0241099
0.023701
0.0216527
4.51906
0.134046
0.0218512
0.523714
0.0226108
2.56354
0.268122
5.3002
7.2818
0.0553426
6.55029
0.0456258
0.040683
3.39922
0.389324
0.0216951
0.0221806
4.89145
4.2654
0.0218757
6.05938
0.021997
0.0217111
0.101569
2.72361
1.20317
12.015
0.0218746
0.0220964
0.021897
0.0215861
0.0218714
0.0784786
8.62505
3.04105
0.0273908
0.0228327
5.16067
0.0219609
0.0219225
0.0541928
0.0299207
2.49198
3.88169
0.0520041
2.95996
0.022149
3.51755
3.05476
0.0221361
0.0336953
0.0308572
6.4295
0.022012
0.0220018
0.02201
0.0409104
10.5302
0.0473757
0.0220999
0.0221554
0.022001
0.0219732
4.33575
8.35169
2.28149
0.116361
3.4041
1.23201
0.021583
0.0763489
0.0231105
3.18602
0.0820294
0.0283395
5.41369
4.44691
0.0219275
0.0264014
0.16862
0.0220055
0.0218034
5.6263
0.124007
0.0222765
0.021615
6.98166
5.42134
0.0222001
0.047435
0.114236
5.82541
0.0221427
8.40754
0.0325078
4.04692
4.17055
2.81582
2.63342
0.022073
0.0219684
0.0220263
3.65833
3.71076
0.0220217
0.310533
3.97016
3.85679
2.17663
0.0219697
10.6758
7.44462
0.0220931
0.030419
4.25493
0.0484593
26.243
0.0222797
3.09527
0.0222668
0.51311
1.1949
0.247745
0.0225835
0.0252942
2.84393
0.0222921
0.0217819
0.0882266
0.0222785
3.4889
10.3207
1.60302
4.75956
0.0554048
0.0924546
0.021767
0.267255
0.0218495
0.0326984
0.0219705
0.247484
1.90402
0.021966
9.45122
0.0222819
8.74952
3.22914
3.74892
0.0217859
6.82059
3.33259
4.68324
3.80375
0.0221165
3.36611
12.0492
0.0219989
10.2126
0.0479704
0.113594
0.244513
0.0375337
4.66072
0.187139
0.0310999
0.0287104
3.69266
4.23119
0.0225311
0.0961162
3.86352
2.78066
0.585398
6.79913
0.0287531
0.0219159
0.0222487
2.74535
0.0221368
0.0220695
0.0655906
0.0226898
0.0219671
2.95172
0.0222075
4.21799
3.85815
0.0269051
0.114348
3.51715
0.0232958
0.123338
0.0961846
0.0217658
0.262052
0.415779
0.0214976
11.4522
0.0453048
0.0219267
0.0229384
0.0342247
0.0218984
0.0217869
0.0356673
0.0253298
0.10806
0.0777992
0.0485782
0.027444
0.0992943
0.0237395
10.2407
4.18647
0.0220573
0.0363793
0.0701905
3.70139
2.91537
0.162984
3.18857
0.0493016
0.0254189
6.8578
0.0222688
0.0771311
3.85623
0.0222691
15.3851
0.0224433
0.0220844
0.0609489
0.021838
0.0303139
0.0679224
13.5767
0.104995
6.75569
3.96256
0.0239697
0.0987585
0.0284832
0.0219183
0.0218099
0.0214887
0.178047
0.0221755
0.0219737
0.558458
2.44822
0.0216202
0.0220145
0.262323
0.0221086
0.0217656
0.0220424
0.0219223
0.0458955
2.82126
0.0373233
6.53661
0.172815
0.0226864
0.144451
0.0221996
0.0235925
0.028632
2.97605
5.10361
0.0295113
0.025966
0.0216396
0.024147
3.45115
0.0221313
0.0349514
0.0220198
0.0220814
5.53692
2.25016
0.021866
0.0220932
0.0217127
3.84347
3.03106
0.0245215
0.0222611
0.0324525
3.40221
3.45866
3.2369
0.0221932
0.0219603
0.0220624
0.0499001
0.0247136
0.148126
0.125677
0.21039
0.0331332
0.0221813
0.0222021
0.129576
0.0220556
4.12793
0.0219039
0.0221679
0.0673744
0.0220989
0.0336026
0.0259434
0.0216125
2.8344
0.0218106
0.031254
0.0220088
7.60239
0.0219311
0.150568
0.0218091
0.0218945
0.0221692
0.0275474
0.0220026
0.0220149
3.64385
0.0306702
3.62071
10.1396
0.0722245
8.11582
0.0888263
0.0943442
0.215693
4.62412
2.72179
0.0220123
0.0219701
0.0220868
6.63324
2.87498
3.01825
3.86464
5.07464
0.0248067
4.30015
1.28324
1.6841
29.4622
5.38709
4.53748
0.032779
0.03118
0.110798
0.140512
4.88257
0.0225642
0.022841
5.95856
0.0218778
3.51193
1.35345
0.0221007
0.0221222
0.0224183
3.3748
0.0219754
0.0228422
4.07651
0.0319771
5.42893
4.69867
16.2558
0.0220067
0.0250362
0.0934402
4.54824
18.3032
0.0519115
1.12515
0.0781504
0.0217742
2.86018
0.0220751
3.85322
0.0218062
0.021801
0.105883
0.0357359
0.0220859
0.137958
0.0666923
1.7561
3.64665
0.0222613
0.0270092
4.48246
0.0222119
0.592953
4.39442
3.33888
0.039571
7.77304
6.24257
4.90589
0.0379126
4.50251
5.70717
8.35327
2.25891
0.0222699
9.27587
4.91117
2.6671
2.85245
0.0246494
5.54266
6.96229
0.0233443
0.0215756
0.035139
0.0219752
5.56598
2.80111
0.129055
0.030962
0.0222799
0.0224036
0.0232674
3.714
3.70477
0.204395
0.0288979
3.79744
3.36904
0.0286027
0.0419885
0.0387587
0.366802
0.0220111
0.0372324
0.0222775
0.0215723
4.40872
2.80386
0.0439719
0.0874216
0.0515762
0.0228437
0.0219815
0.0218192
0.0308096
3.29614
0.0421904
0.109001
0.0215014
0.0222707
0.0218682
0.0221835
0.0226782
3.24851
0.119219
0.0487589
0.062887
0.287902
0.0484574
0.043137
0.111357
0.0218737
1.53754
3.28343
0.0316024
0.625227
0.0222178
2.77462
3.0831
0.0218757
8.64708
0.0303272
5.62325
0.0521688
0.0219117
0.687337
9.5274
0.0276871
3.40995
5.28317
0.116606
0.0230999
1.25852
4.29702
3.12187
2.91224
3.06801
3.06095
0.0232997
0.0220835
3.07506
0.0220109
2.88977
2.81491
0.0220135
0.0231483
0.0222208
3.86015
4.29253
0.0219812
0.0221678
0.0249264
0.0402968
9.28883
2.10997
0.21368
0.0246701
28.214
0.0394459
0.0216343
0.0428515
0.0327614
2.75016
3.55151
1.12154
0.0229019
5.6274
0.0340603
2.90199
0.0216466
0.0220259
0.0217046
0.440957
0.0266929
7.28872
0.299796
0.105611
0.0220514
0.0469703
3.02563
4.4706
0.022274
0.0318349
0.314612
0.0214982
2.7364
2.83069
15.6554
3.11693
0.0219875
0.0215504
0.022007
0.0220231
0.135269
7.33899
2.85338
0.070344
0.0215695
0.0278726
0.0219873
0.0229555
1.00793
2.49357
0.0251869
3.6585
2.9407
3.81263
0.0992097
3.03073
0.902682
3.95209
0.0222285
0.165004
3.44761
0.0248253
0.024552
0.091565
3.43404
0.113828
3.13026
0.296704
0.0266518
0.0218148
0.109302
4.95212
0.228537
0.0229079
5.76808
0.0851951
3.25092
8.03712
3.89984
0.0220207
0.218184
0.195612
0.0291281
4.01608
0.0332809
6.37288
0.0221922
3.46019
0.0220088
0.0222165
0.0679501
14.0358
0.0478276
0.11486
0.0218161
0.10306
2.99711
0.0307648
3.70325
0.0222691
0.249586
0.0220677
0.021813
0.286125
0.0218874
0.120557
0.0537558
0.119089
0.0237135
0.206142
2.67896
2.95398
0.0216533
5.64763
7.71911
9.79575
0.0593631
0.29636
3.53605
3.77425
0.0235274
0.41431
0.0216189
0.0220868
0.376689
0.0220471
0.197754
5.67869
0.333362
0.0256119
6.92977
0.0220883
4.52436
3.04691
0.0251745
2.79429
4.07524
0.0219257
2.69102
0.0260143
0.0249311
0.0490913
0.0319394
0.0220142
2.08556
0.022129
4.31463
24.7389
3.07845
0.159871
0.0289011
0.0353031
3.49227
0.0221506
0.0573174
0.0548607
1.56219
0.0811545
4.45537
0.0832736
0.158001
3.42405
7.9675
3.94462
0.178261
0.0219965
0.021997
0.022183
0.041124
3.4571
0.025768
2.67996
8.04595
15.7873
1.34669
0.0219639
0.065326
0.0216576
5.87816
0.0222726
0.0235966
4.76808
0.0233325
0.553202
0.0590415
0.0221693
3.20535
1.53623
10.4123
2.7928
0.0402155
3.52284
0.243936
0.0432723
0.0778347
3.95486
0.024488
0.0228759
0.0220797
0.111215
2.7774
3.2409
26.2278
4.36475
2.8067
0.0216854
2.10666
3.64369
0.247133
0.0440528
0.0220065
3.24759
0.023062
2.78231
3.12724
0.0221197
4.43935
10.3577
9.78754
0.0220075
0.0217185
0.021692
10.2642
3.06939
0.0219863
8.85244
3.46879
0.0219657
4.30542
0.023154
0.0524393
0.0269772
0.0221027
0.0230334
10.0838
5.47969
0.0717602
0.306652
0.0219908
0.101407
7.77426
0.0216653
4.36911
6.14266
0.311338
0.0845388
0.071641
0.167663
0.217043
0.0457593
0.0219212
5.07192
2.92574
7.94605
0.0220577
0.117175
0.0398674
0.0221425
0.10647
0.0321426
0.0235866
0.0222577
2.87254
0.0469644
0.10824
0.0253658
3.36624
0.0356831
0.263711
0.136916
3.00156
0.0221641
2.816
0.0220142
0.0303004
0.0255365
0.359625
0.0349021
0.0217565
0.0221042
3.8287
0.0219151
0.0264256
4.58862
3.38008
4.25938
0.57088
3.67748
9.63338
2.74506
17.6868
0.135726
0.0272719
0.0273462
0.0380343
0.0219262
0.0470654
5.61155
0.123753
2.96436
0.503847
0.0221915
1.33244
0.0251475
2.94713
0.0219881
0.0220109
3.96235
0.222889
0.199019
0.021515
3.72303
0.0264566
2.84312
0.0224239
0.100946
0.0844759
5.52656
2.96864
0.0221095
0.0217931
0.0230554
0.0221348
0.0343176
17.342
0.0338681
0.0318945
0.0364021
0.0230027
0.021867
0.180247
3.23168
0.0219652
5.35219
3.25647
0.0222072
0.0221762
0.0220156
0.504157
0.0357258
9.97296
0.0224139
0.282337
0.886195
3.66025
3.44974
0.0269377
11.0758
0.0216714
4.70789
0.606192
0.028539
0.0219963
0.181379
0.022178
0.0218044
0.0220715
2.75494
5.28077
2.8294
0.0273409
3.35633
0.0221901
0.0221898
0.0320092
2.8402
0.0215536
0.0221353
0.0321254
0.0239999
2.73063
3.18456
0.0913402
0.03242
0.109937
3.30459
0.228717
0.0232833
0.0215548
0.163281
0.0824275
2.95316
0.387128
4.55689
0.0344291
6.98959
2.87041
0.0517222
2.99539
3.00595
0.0216669
0.0217059
9.6909
0.0329284
3.21109
3.43249
8.92924
0.023456
7.64097
0.0220367
0.0224889
0.022019
10.1014
0.0240933
2.91205
0.0224518
0.101408
4.09037
6.04589
4.12827
0.0368898
3.25215
0.0220136
0.0220893
0.0220651
0.0217932
1.29933
4.50823
0.0220852
4.71431
2.96722
0.740581
2.31418
0.207794
4.47739
0.0514106
2.77247
5.72345
0.0305639
0.122022
0.0429681
5.31318
0.0218243
0.0240556
3.79719
0.0316117
0.0221139
0.0220641
3.14309
0.0233746
0.217488
0.0219053
3.26676
0.0314827
0.0464593
0.026234
0.226302
0.0944021
6.15715
0.0276289
0.0218211
0.0216739
4.11541
3.30144
7.24007
4.15806
0.0258653
4.54673
0.0263949
0.350049
0.103476
3.54518
3.08145
0.0220843
2.82264
26.2575
5.66597
0.0422781
6.10061
3.92319
0.0283224
4.32802
1.88532
0.105108
2.90457
0.0248527
0.0405496
0.0498866
0.0263549
0.0218933
0.0604259
0.263773
2.59657
0.0225635
3.63745
0.0261135
0.0387387
0.0307651
0.0221481
0.0220037
2.21368
5.76718
14.9035
0.0262316
0.0217525
0.0224503
0.0220743
0.0355564
0.0227682
3.64547
0.840925
3.04864
6.23286
0.0221951
0.191883
2.84927
0.0238169
3.95098
4.00108
3.96673
0.0219828
0.0221812
3.9931
5.7709
0.240266
0.0479092
0.0219653
3.63547
0.0231455
0.0283279
0.0550137
4.82224
0.023558
0.0219825
1.9538
0.0806442
2.89
2.96925
1.94204
2.32739
0.0219012
0.361643
3.95651
0.0946262
4.0714
0.16351
0.0297457
2.94369
4.12259
0.0225002
0.0722503
0.0309918
0.0219856
8.66518
0.283052
20.9396
4.40522
0.135613
0.0248989
0.113276
0.0698758
0.0217069
0.0532563
0.0256258
0.0218162
0.0347832
0.0228705
0.0335866
0.0636207
4.94489
3.43327
0.709655
6.78399
0.0845004
0.0224677
0.0286663
2.99977
0.0226558
3.26905
0.226023
4.05293
0.0330195
3.61523
0.0443251
3.12194
0.025301
7.0792
6.41046
0.0224325
3.65062
5.48693
2.91553
2.57244
8.06615
0.0364
5.98434
6.76898
8.4499
0.0402724
0.376402
0.0216569
9.24612
3.00791
0.485504
0.451399
0.0555325
3.34731
0.0619943
0.0220041
0.0220289
0.02171
3.99319
3.92267
0.0220289
0.0593627
0.021957
2.99468
0.0314075
0.0228878
1.05896
0.0242904
0.0265192
1.09527
0.0603203
0.0872574
0.0274564
0.032248
0.0219067
7.42073
1.11541
0.0223788
0.0292968
0.0734488
6.12877
0.0230867
22.6919
0.0224193
0.0356678
3.32871
2.08089
3.22622
0.749542
0.021641
11.378
3.59318
35.1368
3.28845
0.0317242
7.93132
0.0907839
0.02878
0.296073
23.5758
0.090237
2.82929
0.0257151
0.0218225
0.0230344
0.022325
4.45542
0.502675
1.71615
0.133086
0.022591
0.0221796
0.0346663
0.0228541
0.0415285
5.60592
2.96322
0.0287765
0.0223451
2.73608
0.022051
0.0709942
3.36429
0.121459
0.0474443
0.0257699
0.0226585
3.983
0.0219713
3.23705
0.0570632
0.0221055
8.53641
0.0224932
2.9355
12.6482
0.0256061
0.021584
13.9878
4.59911
3.2794
0.0218849
0.0214981
0.0237603
0.0490447
0.0222312
0.0305984
0.0887128
0.0219933
0.0221297
0.0221044
0.478407
0.0232507
0.023205
0.156378
8.2545
4.31866
1.28846
2.97624
0.0726528
0.0376378
25.2612
0.0255107
0.0311866
2.23983
8.58194
0.0376961
0.0279966
4.20849
0.0426981
2.8983
3.96469
2.09346
0.0485407
0.0404004
0.0363869
4.4521
8.27212
8.12508
6.50571
1.37132
3.12373
0.022096
5.02068
18.0548
3.64666
13.0713
3.91422
0.0356723
0.0220174
7.49594
0.0378375
0.0247889
7.2768
0.771984
0.0486119
2.81954
2.79275
0.0220135
0.077189
5.16351
0.022275
7.6987
4.15801
0.0584173
0.0370338
6.73434
0.638145
0.0533454
4.08805
0.0220616
0.127729
0.0586418
0.0368168
2.14356
0.0669158
0.0728891
0.0661462
0.689387
0.022278
4.48585
0.0257366
0.0337993
0.209336
28.4627
8.64773
2.21066
0.0244505
1.87138
0.76836
2.69047
3.92844
2.85738
4.17237
6.09438
2.78
0.0235495
2.30926
0.202562
0.432961
0.0221584
4.0105
3.0055
0.0264378
2.71906
0.407445
5.41463
0.0220912
0.0217954
0.0216352
2.8241
6.88846
0.022051
4.47466
4.02601
0.0221671
6.11004
2.31848
5.88569
3.02379
2.49514
0.0220463
0.0409549
16.8879
4.77134
1.99915
0.0232084
1.88289
2.88122
1.72125
3.29462
6.19702
0.0373688
0.229554
0.0288135
0.0221671
0.0218208
0.022008
3.28064
0.027831
0.0270608
2.60488
0.383045
1.37126
0.0221006
30.0804
0.0218699
2.93647
0.0235376
0.0221809
2.8712
29.87
1.76115
0.0259543
0.0296093
0.0222731
0.186589
0.0232837
0.241211
2.46739
0.256298
3.01365
17.5937
4.3809
0.188094
0.0246118
0.0268242
0.0217927
0.0315421
0.022437
3.30067
0.131966
0.0449837
4.11685
0.0219346
3.58138
0.0404823
0.0220082
0.415803
0.117524
0.0245148
0.0264944
0.081724
0.423051
0.0220792
0.0435198
6.04101
3.06606
2.61033
0.0235043
2.68718
0.117189
0.240988
2.73029
0.0222822
4.20036
0.0951012
0.0261472
11.2499
5.95871
0.0220123
0.0322702
0.0578732
0.0527743
0.0216582
0.0221
0.035192
0.0245123
23.6548
0.0474459
0.0980605
3.74819
0.0218948
0.0285513
0.0216966
4.07735
0.0605361
0.0236301
0.021844
0.024767
16.2313
0.0220612
0.0222805
1.83798
0.0455534
0.0220638
4.44853
0.0240694
4.53345
0.169214
0.0448449
2.77209
4.17331
0.021762
2.7794
0.891268
9.63753
4.483
0.0225945
0.0608887
0.0312083
5.17384
0.0222281
12.9129
2.98625
0.023247
0.0269145
0.0223898
0.0221262
0.0548489
3.22653
4.46134
3.67096
7.6846
0.0637193
0.140523