/*--------------------------------*- C++ -*----------------------------------*\
| =========                 |                                                 |
| \\      /  F ield         | OpenFOAM: The Open Source CFD Toolbox           |
|  \\    /   O peration     | Version:  v2012                                 |
|   \\  /    A nd           | Website:  www.openfoam.com                      |
|    \\/     M anipulation  |                                                 |
\*---------------------------------------------------------------------------*/
FoamFile
{
    version     2.0;
    format      ascii;
    class       volVectorField;
    location    "350";
    object      U;
}
// * * * * * * * * * * * * * * * * * * * * * * * * * * * * * * * * * * * * * //

dimensions      [0 1 -1 0 0 0 0];


internalField   nonuniform List<vector> 
18540
(
(0.326622 0.0240727 0)
(1.00002 -0.000819568 2.99429e-21)
(1.02154 -0.0160571 7.95152e-22)
(-0.117406 -0.0119396 0)
(1.09103 0.00403475 -7.21574e-21)
(1.10774 0.0407727 1.02938e-20)
(1.09107 0.00342169 1.80982e-20)
(1.20928 -0.0117474 0)
(0.629969 -0.137935 6.82551e-20)
(1.00017 -0.0570169 -2.3242e-22)
(0.960269 -0.101632 -1.00995e-20)
(0.989126 -0.0193069 1.15713e-20)
(-0.214987 -0.0195573 -8.38565e-20)
(0.995746 -0.0218595 -7.28863e-21)
(0.190188 -0.00166325 -5.58336e-22)
(1.28296 0.0244307 0)
(1.11054 -0.289471 0)
(0.899159 -0.0921349 0)
(-0.0187055 0.0536466 0)
(0.368725 0.0721192 3.89928e-20)
(0.756236 -0.0277017 -3.51471e-20)
(1.24837 -0.0763636 0)
(1.00226 -0.00636659 7.07964e-22)
(-0.294683 -0.268565 0)
(1.20295 -0.00772031 0)
(1.06161 -0.182891 0)
(0.100246 0.026399 1.24253e-19)
(1.20735 0.0252438 2.33519e-20)
(1.11486 0.0219394 -2.04028e-20)
(0.921608 0.0567681 3.18011e-20)
(1.00005 -0.00102066 -5.31485e-21)
(0.995017 -0.0150113 0)
(1.26426 0.0480429 -2.55392e-20)
(-0.0823787 -0.253723 -3.13151e-20)
(1.0161 -0.141977 0)
(-0.134512 -0.0138917 0)
(1.25355 -0.0854978 4.65981e-20)
(1.00814 -0.0101732 1.02994e-21)
(1.03308 -0.00587461 -2.39879e-21)
(0.727971 -0.381607 0)
(1.00019 -0.00148641 1.29312e-21)
(0.998835 -0.0130614 1.54301e-20)
(-0.189523 -0.0253219 0)
(0.594008 0.0319474 2.63846e-20)
(1.20504 0.017785 -2.00185e-20)
(1.06171 -0.185943 0)
(1.10814 -0.668038 -5.2632e-20)
(1.02083 -0.0155222 -4.43138e-22)
(0.765355 -0.036487 -6.7413e-20)
(1.13593 0.0231988 -1.46863e-20)
(0.995161 -0.0213406 -6.45044e-21)
(0.0663091 0.185281 0)
(0.310001 0.0669083 0)
(1.00017 -0.000639428 0)
(1.06327 -0.157231 1.62526e-21)
(1.11047 0.0512238 0)
(-0.224655 -0.020586 8.20062e-20)
(-0.180447 -0.0498706 -9.01365e-20)
(-0.345676 -0.0277615 0)
(1.03479 0.00310534 0)
(-0.280291 -0.025061 5.46307e-20)
(1.10632 -0.0328872 0)
(1.06082 -0.137905 6.94367e-21)
(1.20701 -0.372114 0)
(0.382863 0.0326815 9.82154e-20)
(1.02823 -0.0218969 1.73723e-21)
(0.863263 -0.35083 -2.11198e-20)
(1.0018 -0.00131843 1.65708e-21)
(-0.355034 -0.0291831 -3.81583e-20)
(1.0325 -0.00460562 3.15107e-21)
(1.10671 0.0484241 0)
(0.848086 -0.145366 2.03644e-20)
(1.26599 0.0314241 0)
(-0.160764 -0.0525375 1.43716e-19)
(1.15212 0.0809757 2.73913e-20)
(1.16831 -0.368228 8.91052e-20)
(1.10305 -0.285155 0)
(1.00284 -0.000990066 3.53869e-22)
(0.906097 -0.0935617 6.01209e-21)
(1.26822 -0.245856 2.1516e-20)
(1.02101 -0.101761 -6.09234e-22)
(0.896385 -0.0919087 0)
(1.00804 -0.00935978 0)
(1.27589 0.111718 -2.13422e-20)
(-0.276512 -0.0243968 0)
(0.150838 -0.021802 -5.78498e-20)
(1.00113 -0.039201 0)
(1.0016 -0.00547058 0)
(1.07473 -0.102671 0)
(0.139377 -0.0281757 8.8776e-20)
(1.33146 -0.219234 1.40139e-20)
(1.27907 -0.0402134 1.18749e-19)
(1.07297 -0.2212 -5.28027e-21)
(1.02118 -0.00101641 -5.26305e-23)
(1.09994 -0.00501975 -4.73456e-22)
(0.999313 -0.0612577 1.07696e-20)
(1.04936 -0.0970267 8.5051e-21)
(1.16293 -0.0368134 6.01396e-20)
(0.0918296 0.157451 -5.12552e-20)
(-0.182591 -0.0153355 -2.31008e-20)
(1.05238 -0.0119454 3.35774e-21)
(1.0046 -0.00076748 -1.35041e-21)
(1.25371 -0.24118 -6.57084e-20)
(1.27954 0.0261469 0)
(-0.288394 -0.023787 -2.22888e-20)
(1.26128 0.0453064 0)
(1.05377 -0.0137872 8.31631e-21)
(-0.107442 -0.0402986 1.97945e-19)
(1.05575 -0.143051 -5.54021e-21)
(0.927737 -0.062255 0)
(-0.228521 -0.0161752 -1.04799e-20)
(-0.303634 -0.127336 7.04375e-20)
(1.00254 -0.000957515 0)
(1.04771 -0.126178 -3.06167e-21)
(0.013932 -0.0298941 -7.49659e-20)
(1.04269 -0.183348 2.06286e-21)
(1.03069 -0.205818 2.15239e-21)
(1.16153 -0.040362 -8.95708e-22)
(1.01592 -0.139066 0)
(1.1103 0.0387835 1.26524e-20)
(-0.0314181 0.0264383 -8.37967e-20)
(0.741729 -0.106357 3.30437e-20)
(-0.28382 -0.0237744 5.59707e-20)
(0.510142 0.0113827 -2.68301e-20)
(1.0047 -0.00823876 4.94458e-21)
(1.11113 0.0221657 2.09507e-20)
(1.13183 0.045978 1.54756e-20)
(0.920127 -0.182147 8.54435e-21)
(-0.191429 -0.0249119 0)
(1.1639 -0.359978 -8.41119e-20)
(1.28567 -0.416589 7.40631e-20)
(1.05179 -0.182929 1.84524e-21)
(1.15117 0.0743397 0)
(0.742833 0.0477728 -1.33856e-20)
(1.01995 -0.0159886 0)
(1.01684 -0.00171685 -1.58466e-21)
(0.96268 -0.0966998 1.93253e-20)
(1.09247 -0.113764 0)
(0.970877 -0.0388412 5.40062e-21)
(1.02872 -0.0214714 -8.41405e-22)
(0.385621 0.0354434 3.17248e-20)
(1.25833 -0.0067342 -4.9669e-20)
(1.15105 0.0111782 -2.17059e-20)
(-0.157429 -0.012819 -2.17515e-20)
(1.03118 -0.0133062 2.7674e-21)
(1.02176 -0.0103237 2.99956e-21)
(1.12906 0.0478403 1.34177e-20)
(0.708474 0.0471902 0)
(1.09194 -0.116373 0)
(0.69996 -0.104716 -3.7287e-20)
(1.01673 -0.00948542 0)
(0.964418 -0.0501374 4.74153e-22)
(1.02572 -0.0150071 6.17663e-22)
(-0.0353523 -0.0249383 -1.38045e-19)
(0.621542 -0.466297 0)
(0.647572 -0.113756 0)
(0.750415 -0.0776557 0)
(1.03157 -0.0137894 1.04927e-21)
(1.0102 -0.0273358 -5.16153e-21)
(-0.0789796 -0.0443646 -1.92642e-19)
(1.21058 0.0752411 0)
(1.15456 0.0470633 -3.65103e-21)
(0.999771 -0.00182603 6.22606e-21)
(1.01952 -0.015073 0)
(-0.0252424 0.0215282 0)
(0.989256 -0.0192183 -9.52324e-21)
(0.663149 0.0373283 5.06571e-20)
(0.919569 -0.17248 -8.63872e-21)
(0.229716 0.00336563 -3.56231e-20)
(1.04565 -0.0269304 0)
(1.00157 -0.00554154 0)
(1.1158 0.0321658 0)
(1.06347 -0.0855667 0)
(1.07484 -0.104159 -7.25014e-21)
(1.01552 -0.0554912 -1.70673e-21)
(0.322208 -0.00720796 6.3756e-20)
(1.10326 -0.0349278 0)
(-0.106192 0.0116257 0)
(0.588718 -0.537786 0)
(1.05581 -0.581585 6.69279e-20)
(1.07044 -0.103748 0)
(0.946299 -0.220529 1.72946e-20)
(1.15642 0.0490208 -6.43708e-21)
(1.27632 -0.0340144 -1.42794e-19)
(0.921289 -0.0615927 -1.67825e-20)
(-0.134501 0.030017 0)
(0.976963 -0.0628036 0)
(1.09173 -0.0119404 -7.11169e-21)
(1.35631 -0.0461541 7.90148e-20)
(1.02821 -0.192952 -2.17645e-21)
(1.11484 0.0260086 -1.02803e-20)
(1.02111 -0.0978781 2.00922e-21)
(-0.0736212 -0.142144 0)
(1.00426 -0.00820061 -3.9321e-21)
(0.716715 0.116657 0)
(1.00976 -0.0271918 0)
(1.12768 0.0549385 -1.4206e-20)
(1.30545 0.0151309 6.55058e-20)
(1.27716 0.110653 -5.2085e-20)
(1.05317 -0.126718 2.06576e-21)
(1.07025 -0.184245 -6.93992e-21)
(1.288 -0.0528394 1.10646e-19)
(0.944637 -0.178874 -2.34079e-20)
(1.13149 0.0258393 7.62707e-21)
(0.245775 -0.000863348 -6.70785e-20)
(-0.282816 -0.117901 7.74255e-20)
(0.987316 -0.0206442 -5.19988e-21)
(-0.140186 -0.0136116 0)
(-0.198408 -0.00272969 -3.77851e-20)
(1.1519 -0.00669727 6.20809e-21)
(0.995293 -0.0145531 0)
(-0.324323 -0.0348723 -9.66586e-20)
(-0.123018 0.0080893 1.50702e-22)
(1.00083 -0.00473657 0)
(1.06811 -0.220152 0)
(1.15598 -0.0398962 0)
(0.417163 0.00601815 2.73785e-20)
(1.0334 -0.460815 0)
(-0.307044 -0.268647 -5.6647e-20)
(1.02988 0.0653376 -9.0166e-20)
(-0.334274 -0.0338782 1.93029e-19)
(1.19584 -0.219609 2.02429e-20)
(0.889037 0.0400277 0)
(0.653013 -0.0601353 1.09174e-19)
(1.11003 -0.666105 9.70747e-20)
(0.00863417 0.0138362 2.74661e-20)
(1.14391 -0.0573431 0)
(1.15079 -0.00206101 -2.07996e-20)
(-0.350871 -0.0289709 -4.5072e-20)
(1.18434 0.0385278 0)
(1.05385 -0.0923283 -2.75667e-21)
(1.32701 -0.0324773 -6.56626e-20)
(1.26885 0.0363154 4.7315e-22)
(1.04949 -0.0967151 -3.88527e-21)
(0.999788 -0.0020199 0)
(1.1019 -0.000124175 -1.20198e-20)
(0.996184 -0.0145749 0)
(0.866591 -0.0270466 0)
(1.20849 0.0605718 0)
(0.933933 -0.192169 3.23429e-22)
(0.34042 -0.136824 0)
(1.19304 -0.478911 1.26912e-19)
(1.29617 -0.260166 -5.82828e-20)
(1.14279 -0.0546611 -2.52657e-20)
(0.26787 0.00103233 7.60814e-20)
(-0.227477 -0.0202175 9.29687e-20)
(1.0002 -0.00143688 3.16302e-21)
(1.02141 -0.0111732 0)
(1.13741 -0.0717497 0)
(0.987173 -0.0423006 1.30476e-20)
(1.10503 -0.330589 1.05884e-20)
(-0.214979 -0.00439811 8.57387e-20)
(-0.240509 -0.0330362 6.91811e-20)
(0.962007 -0.0502935 -1.69414e-20)
(0.917537 -0.0611057 0)
(1.20368 -0.359562 7.32224e-20)
(1.33437 -0.0594832 0)
(0.5059 -0.276905 7.07105e-20)
(0.989891 -0.0180284 -8.80993e-23)
(-0.0779875 0.0546488 0)
(1.18549 -0.362843 -3.19041e-20)
(-0.000189538 0.0289479 -2.49559e-20)
(0.970471 -0.0260201 -3.43263e-20)
(0.994302 0.639771 -2.23595e-20)
(-0.292033 -0.0258879 0)
(1.13816 -0.0708091 2.20147e-20)
(0.709047 0.0353627 -1.44698e-19)
(0.257485 0.0454108 0)
(1.00835 -0.0102158 8.19654e-22)
(1.00094 -0.00520096 -1.7214e-21)
(-0.290647 -0.0330529 8.84717e-20)
(-0.157219 0.0321748 0)
(0.498544 0.287015 8.37484e-20)
(1.06483 -0.0411016 -1.19558e-20)
(1.26658 0.0118601 -1.01112e-19)
(0.122123 -0.00677955 0)
(1.02539 -0.0142407 2.21857e-21)
(1.18415 -0.0399218 3.61522e-20)
(1.33241 -0.216375 7.1012e-20)
(1.00782 -0.0252226 8.35416e-21)
(1.00008 -0.00781447 5.39396e-21)
(0.232165 0.00284007 4.54673e-20)
(1.08948 -0.0447702 -1.92875e-21)
(0.996525 -0.0142753 -1.02038e-20)
(0.301042 -0.566863 -8.29923e-20)
(1.03319 -0.00430986 -7.15798e-21)
(0.385471 0.289099 -1.81856e-19)
(1.1815 0.0324445 2.05567e-20)
(-0.126729 -0.00875216 0)
(1.269 0.0290997 0)
(-0.0351663 -0.0257202 0)
(1.09576 0.0714143 8.33331e-20)
(1.02076 -0.25418 3.31521e-22)
(1.00822 -0.00942541 0)
(0.618408 -0.105745 1.40864e-19)
(1.1529 0.092818 -1.34607e-20)
(1.30065 0.0116141 -5.95887e-20)
(1.06986 -0.18093 1.49765e-20)
(1.08217 -0.0262025 -1.02402e-19)
(0.701441 0.104872 0)
(0.98617 -0.0368663 0)
(-0.335613 -0.0261251 0)
(1.32601 0.172982 -7.7035e-20)
(0.79991 -0.207771 5.10215e-20)
(0.892287 -0.367464 -1.90098e-20)
(1.00102 -0.0174477 0)
(0.326072 -0.147393 0)
(1.01633 -0.00958668 -1.86803e-22)
(0.50838 -0.33643 6.53023e-20)
(0.995745 -0.0147319 0)
(-0.0484374 -0.00820981 -4.97483e-20)
(1.06187 -0.00711301 0)
(0.0970471 -0.00844675 0)
(1.13063 0.0512778 0)
(1.38568 -0.339917 9.97264e-20)
(0.251567 0.328059 -6.49982e-20)
(0.148711 -0.00486619 -1.73691e-20)
(0.991706 -0.0124681 -9.66782e-21)
(0.957748 0.0383078 0)
(-0.193183 -0.0375073 -1.51928e-19)
(-0.270143 -0.0216776 -2.40188e-20)
(0.544351 -0.485199 -5.47807e-20)
(0.988716 -0.0415011 0)
(-0.355694 -0.0285149 0)
(1.08746 -0.0480973 3.29905e-21)
(1.04768 0.00483514 3.30673e-21)
(1.15521 0.0369235 0)
(1.04359 -0.13087 0)
(1.00114 -0.0201507 8.46312e-21)
(1.00752 -0.0166403 -1.63669e-21)
(1.02191 -0.0109476 -1.57847e-21)
(1.25486 -0.0132848 4.39009e-20)
(0.593407 -0.362807 -6.94205e-20)
(0.872975 -0.0330826 -6.77812e-20)
(1.27509 -0.436915 -7.17708e-20)
(1.14613 -0.357168 1.69527e-20)
(1.04665 -0.0262256 -5.80248e-21)
(1.00082 -0.00602749 -1.97527e-21)
(-0.279762 -0.0157838 4.61595e-20)
(0.804751 -0.23038 0)
(1.15286 -0.0446834 0)
(1.15253 0.0101247 -2.56335e-20)
(1.08613 -0.0136429 1.29256e-20)
(0.867303 -0.357713 0)
(1.34352 -0.121749 5.40497e-20)
(0.603011 -0.411517 3.51402e-20)
(1.00783 -0.0248201 -3.46243e-21)
(1.19569 -0.23574 -4.73074e-20)
(1.09334 -0.00199916 -1.56673e-20)
(0.423924 -1.21505 0)
(0.856892 -0.603113 -2.69498e-21)
(1.00072 -0.0056137 -1.93454e-21)
(0.745466 -0.122336 -2.39742e-19)
(1.00543 -0.0582872 -1.95359e-21)
(1.00018 -0.00748769 -3.48867e-22)
(0.232555 0.00771619 5.30432e-20)
(1.00101 -0.00614846 3.59361e-21)
(1.02653 -0.0154518 0)
(1.0163 -0.0381424 0)
(-0.0936225 0.033806 -2.52027e-20)
(1.15711 0.0888172 4.09252e-20)
(1.01877 -0.0155753 -3.43132e-22)
(1.00085 -0.0169956 8.61638e-21)
(1.06627 -0.101811 0)
(0.00690292 -0.0335667 0)
(1.00224 -0.248965 -7.31566e-22)
(1.03302 0.0027369 -5.63365e-23)
(0.998826 -0.0136546 -4.2208e-21)
(1.046 -0.0282951 -2.98865e-21)
(1.00509 -0.00902596 -3.83715e-21)
(-0.153189 -0.0178845 -1.07592e-23)
(1.02 -0.00993706 -1.8258e-21)
(1.3276 -0.14838 0)
(0.996232 -0.10269 1.57595e-20)
(1.00084 -0.00613687 -2.01771e-21)
(1.32565 0.163134 0)
(0.995902 -0.0141687 0)
(1.32225 0.161587 0)
(1.08817 -0.0422485 1.53129e-21)
(-0.154533 -0.475718 4.07631e-20)
(0.475853 -0.131505 -7.57814e-20)
(1.01575 -0.00921121 -2.38016e-22)
(1.12296 -0.311196 4.42441e-21)
(1.33132 -0.0321853 3.66582e-20)
(0.950778 -0.150299 1.11077e-21)
(1.02222 -0.0100868 -1.93705e-21)
(0.570674 0.0943872 -1.53221e-21)
(0.901643 0.0544732 5.78885e-20)
(1.00064 -0.000598555 -4.29567e-21)
(1.28985 -0.237598 -1.16703e-19)
(0.321081 0.00878884 -1.47453e-19)
(1.01536 -0.00928277 1.66776e-22)
(1.07776 -0.0987577 7.06208e-21)
(-0.336609 -0.024906 -1.35526e-19)
(-0.160697 -0.0175837 -1.10919e-19)
(1.00136 -0.0133554 4.52565e-21)
(-0.187423 -0.0316918 0)
(-0.134207 -0.0116208 0)
(1.00054 -0.000410133 4.45301e-21)
(0.371277 0.3364 9.62106e-20)
(0.0875605 -0.0975127 0)
(0.662784 0.037132 -3.53264e-22)
(1.09167 -0.00461897 1.49826e-20)
(0.998679 -0.0055291 -1.20821e-20)
(1.15727 0.0215696 7.62213e-21)
(1.02808 -0.0150974 7.44794e-22)
(0.782992 0.071077 3.46872e-22)
(-0.295571 -0.0244198 0)
(0.986353 -0.0497389 0)
(1.17593 0.110821 1.78757e-20)
(-0.193297 -0.410841 9.25974e-20)
(-0.2275 -0.0350477 -1.42321e-19)
(1.18566 -0.364208 -3.13393e-20)
(1.01833 -0.0146728 3.43743e-22)
(1.15891 0.018016 2.46193e-20)
(0.103359 -0.401665 0)
(1.00086 -0.00657598 3.91942e-21)
(1.11298 0.0489477 0)
(1.30943 -0.254618 -7.04302e-20)
(0.586855 -0.315909 0)
(0.707756 -0.584754 2.32199e-20)
(0.324666 0.0255634 -3.18101e-20)
(1.00502 -0.00880536 2.46817e-21)
(0.0730397 0.230542 0)
(1.01831 -0.00554094 -6.23014e-22)
(1.16313 0.0521742 5.13395e-20)
(1.01858 -0.00546687 -3.72751e-23)
(0.508625 0.410119 5.39968e-20)
(0.966115 -0.139729 -2.65459e-20)
(1.02928 -0.195539 1.02411e-21)
(1.00686 -0.0159133 0)
(0.0209095 0.0267081 -5.10919e-20)
(1.16286 0.0329483 -2.52838e-20)
(0.179085 0.0410084 0)
(1.04293 -0.0993401 5.72295e-22)
(0.543938 0.616986 0)
(1.00198 -0.00634288 -6.61211e-22)
(1.02274 -0.00486063 1.028e-21)
(0.593379 -0.0985622 0)
(0.993245 -0.0228646 3.85989e-21)
(0.551172 0.11108 -6.95659e-22)
(0.933391 -0.0595401 0)
(0.637186 -0.023523 -1.45759e-19)
(-0.242365 -0.0227227 -4.11619e-20)
(0.994244 -0.0221618 1.0378e-22)
(1.0538 -0.015775 -1.20103e-20)
(0.97907 -0.0318718 0)
(-0.257925 -0.0239565 5.286e-20)
(0.989874 -0.0179443 8.97146e-21)
(1.03399 -0.00333493 3.71029e-21)
(0.338501 -0.0658668 0)
(-0.188026 -0.0301125 -9.92282e-20)
(1.01628 -0.00176681 8.90384e-23)
(1.02416 -0.00548772 -1.16471e-21)
(1.04766 0.00327659 0)
(0.974099 -0.0167947 1.10732e-20)
(1.12379 0.0672704 8.30966e-21)
(0.994872 -0.0226518 7.0455e-21)
(-0.283006 -0.0254364 0)
(0.128108 0.0539965 -1.40887e-19)
(1.08647 0.0192496 -3.011e-22)
(1.01527 -0.0535747 0)
(1.15701 0.0358653 -2.29284e-20)
(1.07747 -0.102461 1.66799e-20)
(1.00109 -0.0045973 6.83398e-24)
(1.05797 -0.220288 1.3733e-20)
(0.235725 -0.0094428 0)
(1.09237 0.0256011 1.51004e-20)
(1.2934 0.0123566 6.38343e-20)
(1.26304 0.0164824 1.2036e-19)
(0.545629 -0.975263 0)
(0.873071 -0.379688 -1.55242e-20)
(-0.239919 -0.0418251 -6.44038e-20)
(-0.0811114 -0.0554212 0)
(0.614479 -0.400443 0)
(1.02963 0.000560475 4.40707e-21)
(0.0237711 0.0302622 8.51376e-20)
(1.0043 -0.0006859 2.6171e-21)
(1.175 0.0291962 0)
(1.02103 -0.000869982 8.58268e-22)
(1.18856 -0.0450294 -5.05822e-20)
(1.02859 -0.00233715 -1.89143e-21)
(0.610851 0.0368403 1.3389e-19)
(0.986829 -0.0440023 0)
(1.0944 0.0246882 -1.55015e-20)
(1.01294 -0.133456 -3.52774e-21)
(1.15322 0.069234 0)
(-0.19536 -0.0386966 -1.0787e-19)
(0.991263 -0.0227241 0)
(1.06605 -0.0406839 0)
(0.346003 0.305952 0)
(1.20784 0.0529085 9.30559e-20)
(0.738513 -0.362233 0)
(-0.287638 -0.0249867 0)
(-0.268155 -0.2408 8.35559e-20)
(0.218535 -0.659101 -4.86965e-20)
(1.0433 -0.127466 3.60321e-21)
(0.0254032 0.0331984 4.97291e-20)
(1.28757 -0.00771756 0)
(0.963145 -0.0951321 -1.80225e-20)
(0.550733 -0.454152 0)
(0.927742 -0.377144 1.1433e-20)
(1.03366 0.0025535 4.63918e-21)
(1.0287 -0.440318 0)
(1 -0.00105997 -3.56432e-21)
(1.08952 -0.045793 -4.47765e-21)
(0.874842 -0.553479 4.6543e-23)
(1.05921 0.00396732 -5.57317e-21)
(0.756864 -0.334632 0)
(-0.0852319 0.0132926 0)
(0.986143 -0.0372226 7.62196e-21)
(0.974581 -0.0172401 -3.60666e-20)
(0.998642 -0.0131345 -8.43539e-21)
(1.17369 0.104658 -1.7585e-20)
(0.0955419 -0.144842 0)
(1.00044 -0.100975 -8.91965e-21)
(1.10977 -0.0237698 -1.09811e-20)
(1.00959 -0.00886608 -7.7242e-23)
(-0.251777 0.037162 6.82281e-20)
(1.00206 -0.00109616 1.93233e-21)
(0.416891 0.25823 4.38792e-20)
(0.997354 -0.0128683 0)
(1.14218 -0.34361 0)
(0.950165 -0.0058897 0)
(1.15194 0.0659625 -1.69086e-20)
(1.02915 0.000214556 -8.72079e-23)
(1.00125 -0.0111487 0)
(-0.145174 -0.0111604 0)
(1.00927 -0.0083915 0)
(1.00225 -0.0381206 5.4721e-21)
(0.0827651 -0.0437919 8.66865e-20)
(1.19966 -0.467839 -3.22321e-20)
(1.03098 -0.254446 0)
(1.00184 -0.00573652 0)
(1.00018 -0.00096148 -1.81834e-23)
(1.06025 -0.00897082 -2.39098e-21)
(0.129605 0.0562679 -2.08955e-20)
(1.05542 -0.58963 4.8322e-20)
(1.02109 -0.171441 1.18133e-21)
(1.00029 -0.0367345 -5.54296e-21)
(1.00065 -0.004705 0)
(0.837774 -0.0575682 -2.6311e-20)
(1.33501 -0.162082 -6.12135e-20)
(1.17552 -0.173551 -3.52938e-20)
(1.09023 0.0359507 0)
(1.02901 -0.00022494 0)
(-0.226953 -0.0437607 0)
(0.158713 0.0609166 0)
(0.940115 -0.0865068 2.46981e-20)
(1.13797 -0.00767935 0)
(0.899675 -0.0200529 4.01483e-20)
(1.01762 -0.0151609 0)
(1.26915 0.027866 0)
(0.332247 0.0433571 0)
(1.02817 -0.00173978 0)
(1.12625 0.0620489 -2.21094e-20)
(1.29664 0.0144929 5.84713e-20)
(0.649421 -0.167397 1.48509e-19)
(-0.208877 -0.0201944 0)
(1.00786 -0.000985424 1.45968e-21)
(1.05515 -0.0917701 3.04837e-21)
(1.03735 -0.127282 -3.39028e-21)
(1.02032 -0.00546014 -7.60245e-22)
(0.90365 -0.0169001 -2.5212e-20)
(1.07381 -0.0420167 2.93818e-22)
(-0.141737 -0.0191856 -5.85252e-20)
(1.01715 -0.0142839 0)
(0.929954 -0.400107 -1.6819e-20)
(0.90423 -0.0142405 0)
(0.945833 -0.225184 -3.59543e-20)
(1.02956 -0.00367545 4.00551e-21)
(0.999928 -0.00125234 0)
(1.05333 -0.477939 4.00844e-20)
(1.05976 0.00276419 -3.01922e-21)
(0.691243 -0.538519 -2.27244e-21)
(-0.111056 -0.053897 -1.08528e-19)
(1.04142 -0.00160901 -2.17796e-21)
(1.04893 -0.126797 -5.45257e-21)
(1.04815 0.00298159 -2.83443e-21)
(1.02567 -0.0217596 2.39885e-21)
(1.2789 -0.0741527 -3.19664e-20)
(1.00093 -0.00476993 -3.17055e-21)
(0.151458 -0.0461143 -7.97057e-20)
(-0.134259 0.111362 4.41658e-20)
(-0.314633 -0.0228843 -1.61039e-23)
(0.849232 -0.0294717 2.79667e-20)
(0.99938 -0.0288452 -2.81677e-21)
(0.991213 -0.0222146 5.26161e-21)
(1.08384 0.0193967 -5.9372e-21)
(1.33931 -0.0434095 0)
(1.13746 0.0319157 2.65887e-20)
(1.02335 0.000110551 -2.51809e-22)
(0.997615 -0.0134193 0)
(0.987653 -0.0472345 0)
(-0.269461 -0.0317917 0)
(0.990979 -0.012418 2.45205e-21)
(1.04297 -0.00685297 0)
(-0.360215 -0.03153 1.2916e-20)
(1.07031 -0.0415366 0)
(1.03313 -0.0057314 0)
(0.759479 -0.132712 -2.31855e-19)
(1.21386 0.0489982 5.05127e-20)
(1.04578 0.001496 0)
(0.900079 -0.250737 0)
(-0.0754809 -0.0432613 0)
(0.957458 -0.150091 2.45635e-20)
(1.06106 -0.208741 -6.47246e-21)
(0.998514 -0.00556171 -8.53021e-21)
(0.995817 -0.0113811 -9.11368e-21)
(1.21924 0.0437643 1.37707e-20)
(1.09163 0.0296322 1.28626e-20)
(-0.245119 0.0457618 -4.04472e-20)
(-0.0329153 -0.0507829 0)
(-0.354562 -0.0309775 1.0438e-19)
(1.01624 -0.0378398 0)
(-0.273511 -0.0146014 0)
(1.01694 -0.0394118 0)
(1 -0.00146078 -1.85866e-21)
(0.822725 0.0901675 3.99699e-23)
(1.05013 0.00699102 0)
(0.132337 0.0357739 4.75594e-20)
(-0.240873 -0.0231341 -3.66044e-20)
(1.01224 -0.000588075 0)
(-0.30268 -0.020934 -5.65089e-20)
(1.24756 -0.333986 0)
(-0.273517 -0.206244 -3.78158e-20)
(1.15451 -0.214034 0)
(1.08833 0.015097 -1.43247e-20)
(0.368826 -0.160059 1.59835e-22)
(-0.243157 -0.0197319 0)
(1.11448 -0.00221755 0)
(-0.144326 -0.335769 5.57243e-20)
(-0.286787 -0.0381227 -8.45917e-20)
(-0.216275 -0.0208058 -1.38836e-19)
(1.00009 -0.00064336 -2.12463e-21)
(1.05889 -0.00741389 4.5417e-21)
(0.93936 -0.044863 0)
(1.33119 -0.0131355 -1.90652e-20)
(1.02919 -0.000463953 -5.12311e-22)
(1.11634 0.0250592 0)
(0.173244 0.0424307 0)
(-0.154717 -0.00682552 -1.34686e-20)
(0.971342 -0.0419529 -1.15654e-20)
(1.12864 0.0583031 -2.43163e-20)
(0.261326 -0.148243 -4.74629e-20)
(0.598401 -0.354937 1.22481e-19)
(1.01796 -0.0944681 3.36311e-21)
(1.06978 -0.157653 -8.05262e-21)
(0.996217 -0.0105461 -1.79565e-20)
(0.96524 -0.0918411 1.89897e-20)
(-0.158281 0.01277 6.77448e-20)
(1.00627 -0.0154609 4.6643e-21)
(0.99666 -0.0112962 0)
(1.0425 -0.00214536 -6.23093e-21)
(0.858813 -0.132464 0)
(0.633492 0.03878 -6.60418e-20)
(1.04532 0.00241542 0)
(0.068609 0.0602238 -8.66304e-20)
(1.04832 0.00443402 -3.43072e-21)
(-0.23159 -0.014893 -6.53295e-20)
(1.00561 -0.0150098 -6.67668e-21)
(-0.259799 -0.0773066 0)
(0.861258 -0.517247 0)
(1.10238 -0.00725746 1.79485e-20)
(-0.158436 -0.0524205 2.52136e-20)
(1.17526 -0.167592 3.40516e-20)
(0.979157 -0.0321623 8.16155e-21)
(0.660239 0.0549771 4.79594e-20)
(0.835537 0.077667 0)
(0.779459 -0.0725519 0)
(1.02496 -0.111071 1.9813e-21)
(0.236464 0.365023 -2.11146e-21)
(-0.153107 -0.36194 -6.73405e-20)
(0.781579 -0.337554 0)
(0.0308245 0.0387351 0)
(0.978909 -0.0591159 -4.77403e-21)
(-0.269311 -0.0110413 -8.7006e-20)
(-0.231178 0.0515192 4.90762e-20)
(1.0423 -0.0248367 0)
(0.997256 -0.0357949 2.68916e-22)
(1.00228 -0.0570743 -3.91113e-21)
(1.02488 -0.0216711 -1.68324e-21)
(-0.273108 -0.120934 1.37326e-19)
(1.10953 -0.00371599 0)
(1.06154 -0.0803361 -3.64629e-21)
(1.11662 -0.00400374 0)
(-0.173583 0.0113979 1.31166e-19)
(1.07103 -0.154097 8.81765e-21)
(1.09136 -0.00628391 -2.67813e-20)
(0.942609 -0.0451095 1.2676e-20)
(1.01263 -0.000336074 1.00092e-21)
(-0.112668 -0.191199 0)
(0.527576 0.392894 0)
(-0.135752 -0.0544248 0)
(1.11861 -0.0578905 2.88794e-20)
(-0.162891 -0.0197223 0)
(1.02425 -0.00483432 -2.25938e-21)
(1.14451 -0.187245 0)
(1.08953 -0.00821226 1.19015e-20)
(-0.284544 -0.0329251 0)
(0.972939 -0.221803 0)
(1.03229 -0.00626845 -3.25038e-22)
(1.06876 -0.0403965 0)
(1.05275 -0.0276753 0)
(1.02332 -0.00508404 -2.22444e-21)
(1.02112 -0.00531117 8.81382e-22)
(0.420738 -0.272601 1.37833e-19)
(1.01294 -0.131812 1.53431e-21)
(0.684779 0.0760794 0)
(-0.309491 -0.022439 0)
(1.03463 -0.00444709 1.37749e-21)
(1.05765 -0.00891232 -6.62741e-23)
(-0.279227 -0.0822047 -6.62624e-20)
(-0.284556 -0.0171632 -6.70601e-20)
(0.887423 0.0822436 -5.77907e-20)
(0.999318 -0.0102672 0)
(1.00108 -0.00507005 1.01485e-20)
(0.860967 -0.0663928 4.24689e-20)
(1.01381 -0.00528468 1.07838e-22)
(1.0891 -0.363193 0)
(1.29216 -0.00819581 -9.3582e-20)
(0.966214 -0.0889747 0)
(1.00002 -0.000182488 4.63441e-21)
(1.00138 -0.00537086 -2.99332e-21)
(1.08394 -0.146311 0)
(0.923002 -0.167725 3.3174e-20)
(0.757682 0.0210287 3.19907e-20)
(0.995354 -0.011663 4.11998e-21)
(0.999935 -0.00155743 5.34554e-21)
(1.08016 -0.144611 0)
(1.0528 -0.47345 -3.17193e-20)
(0.934435 -0.0780224 1.77426e-20)
(1.11179 -0.00674544 0)
(1.15614 -0.213431 0)
(-0.223049 -0.0137463 7.51432e-20)
(1.00085 -0.00513417 1.66252e-21)
(1.01675 -0.000156382 9.94243e-22)
(-0.150153 -0.376836 3.61559e-20)
(1.28417 -0.0636865 -1.22045e-19)
(1.15354 0.0960657 1.36314e-20)
(1.00735 -0.000929399 -1.35334e-21)
(1.24278 -0.0690772 -7.96263e-20)
(-0.213927 -0.00842005 9.13245e-20)
(1.22083 0.042851 4.74255e-20)
(1.11924 -0.064016 3.47665e-20)
(1.12033 -0.0668124 -9.71458e-21)
(-0.241587 -0.0403644 0)
(1.03858 -0.0196766 0)
(0.617575 -0.285006 -5.17381e-20)
(1.27149 0.024808 -4.71605e-20)
(-0.256742 -0.0231392 0)
(1.00879 -0.0147958 -3.87119e-21)
(1.00645 -0.00962076 -6.25839e-22)
(1.0185 -0.000562154 -9.90247e-22)
(1.01116 -0.00746524 3.97276e-22)
(1.24757 -0.074063 9.21581e-20)
(1.08763 -0.0117297 -2.04339e-20)
(0.82935 -0.0992448 0)
(1.01776 -0.00530594 0)
(1.0545 -0.0174547 -5.2776e-21)
(-0.2738 -0.0225206 -2.47385e-20)
(1.00116 -0.00511293 -6.5924e-21)
(1.01956 -0.010325 1.0454e-21)
(1.01599 -0.0138433 2.04143e-22)
(0.195369 -0.531463 1.34568e-19)
(1.33457 -0.00453544 0)
(1.02251 -0.00904233 -1.04266e-21)
(0.93102 -0.151612 -8.77913e-22)
(1.26476 -0.0295255 -4.83029e-20)
(1.14103 -0.000868685 0)
(1.01635 -0.218381 -1.95972e-22)
(0.69228 -0.0958094 0)
(1.26662 0.0888576 -5.32896e-21)
(1.19937 -0.290814 5.67416e-20)
(1.02769 -0.0795526 -1.26087e-21)
(1.27304 -0.0656036 3.24533e-20)
(1.00698 -0.0100147 0)
(1.20245 -0.492961 -3.9607e-20)
(0.790861 -0.0251075 8.60226e-20)
(1.01343 -0.00486881 -1.08859e-22)
(1.21805 0.131874 -2.77846e-20)
(0.288844 0.00648852 3.14517e-20)
(0.996206 -0.0353205 -4.72507e-21)
(-0.220378 -0.0116838 -9.80907e-20)
(1.08715 -0.282588 2.15047e-20)
(1.1914 -0.284425 -5.11977e-20)
(1.00355 -0.0601146 1.72832e-21)
(-0.220855 -0.0194728 4.70324e-20)
(1.25941 -0.026548 -5.32683e-20)
(0.751023 -0.0472612 -6.95329e-22)
(0.926144 -0.0618233 3.72984e-20)
(1.12742 0.0641283 3.47818e-20)
(-0.171619 -0.00764029 -1.7874e-20)
(1.00105 -0.0187374 0)
(1.0783 -0.0207383 0)
(-0.177602 0.0106957 -6.47982e-20)
(1.09998 -0.00393471 -6.90995e-21)
(1.02082 -0.172585 2.34432e-22)
(0.577543 -0.440574 -1.16711e-19)
(1.16053 -0.0216846 0)
(1.11001 0.0199931 -2.65364e-21)
(1.10861 -0.0264247 1.18533e-20)
(0.947813 0.0930777 9.14963e-20)
(0.944701 -0.0800936 -3.87497e-20)
(1.05318 -0.0377985 0)
(-0.158867 -0.0113067 8.94043e-20)
(1.041 -0.0761136 0)
(1.0189 -0.00986106 -1.06516e-21)
(0.408711 0.144719 1.21622e-19)
(1.0108 -0.00703202 -1.06309e-21)
(1.05497 -0.13984 9.94426e-21)
(1.00854 -0.0140649 3.95626e-21)
(1.2018 0.00303078 0)
(-0.235212 -0.0308879 0)
(1.04813 0.00765506 -6.22975e-21)
(1.08974 -0.0146443 1.01028e-20)
(-0.153299 -0.0442636 0)
(1.01647 -0.0147076 -1.74237e-22)
(-0.309607 -0.0240987 6.68675e-20)
(1.00203 -0.032834 -1.02275e-23)
(-0.160996 -0.294742 1.48143e-20)
(1.01283 -0.00153409 1.6653e-23)
(1.05421 -0.0349356 0)
(1.07041 0.017352 -1.49473e-20)
(-0.103427 0.010471 0)
(1.05845 -0.143168 -7.4164e-21)
(0.773247 -0.0499804 0)
(0.964688 -0.129946 1.22175e-20)
(0.855757 -0.0416632 -1.49358e-20)
(1.02721 -0.0151796 1.26507e-21)
(1.08006 -0.0891286 -3.44832e-21)
(0.11503 -0.00657921 -2.0324e-20)
(1.35231 -0.0426027 -1.69138e-19)
(0.993577 -0.0513468 -1.11141e-20)
(0.0395384 0.427453 -2.37751e-20)
(1.25767 0.0287614 -6.87978e-21)
(0.853017 -0.0548238 0)
(-0.259393 -0.00503168 4.27381e-20)
(0.993098 -0.0222003 0)
(1.04947 0.00740232 6.35345e-21)
(0.983843 -0.0185453 -1.51155e-20)
(0.395143 -0.190484 0)
(1.26322 -0.0282889 0)
(1.00965 -0.0153761 -5.93836e-22)
(1.02435 -0.00253264 0)
(1.02395 -0.0211282 7.2419e-22)
(-0.117177 -0.158069 -1.66446e-19)
(1.0228 -0.113011 -1.52162e-21)
(1.05433 -0.0372382 4.8009e-21)
(0.848536 -0.341307 -1.49266e-20)
(0.98644 -0.0210414 1.19727e-22)
(1.05556 -0.0349523 0)
(1.34359 -0.120926 -1.05695e-19)
(0.246203 0.31046 7.30123e-20)
(1.08742 0.0182923 1.26393e-20)
(1.02338 -0.0213215 -5.48242e-22)
(-0.123558 -0.0156148 -1.45055e-20)
(1.00019 -0.000889906 0)
(1.10212 -0.000265896 -1.95889e-20)
(0.746433 0.0370208 0)
(1.26963 -0.0377315 1.86537e-19)
(-0.152012 -0.0056297 -5.63746e-20)
(1.03988 -0.00192166 4.09827e-21)
(-0.227596 -0.0264138 -5.23649e-20)
(1.02156 -0.0637462 6.64103e-22)
(1.08674 0.0157988 0)
(1.01301 -0.00183516 3.76896e-23)
(0.974559 -0.0190852 1.00893e-20)
(-0.0218563 -0.0933994 -7.05324e-20)
(0.667824 -0.0880744 0)
(1.04073 -0.0023738 2.17636e-21)
(-0.254269 -0.0314964 0)
(1.02216 -0.0487169 -9.28667e-22)
(0.904079 -0.242333 0)
(0.316336 -0.000556781 0)
(1.00244 -0.00668069 0)
(0.668932 -0.0772785 4.49076e-20)
(0.371256 0.0320794 6.01516e-20)
(1.09572 0.036953 -8.17157e-21)
(1.14442 -0.201227 7.9499e-20)
(1.00089 -0.0056039 -1.80661e-21)
(0.0357212 0.0631192 0)
(0.980306 -0.0340999 8.56915e-21)
(0.204798 0.0323326 1.2915e-19)
(1.18131 0.0793127 0)
(1.00021 -0.000148208 -2.06679e-21)
(-0.285935 -0.0238745 8.80062e-20)
(1.07168 0.0149012 1.78623e-20)
(1.05617 -0.138226 -4.98136e-21)
(-0.168135 -0.285295 0)
(1.0016 -0.000915558 4.38093e-22)
(1.05099 -0.0271341 7.92149e-22)
(-0.279606 -0.024153 -1.36959e-20)
(1.0606 -0.142423 -7.52103e-21)
(0.708724 -0.976738 2.32012e-20)
(0.999917 -0.00839333 -6.19752e-21)
(1.02889 -0.047204 -1.74554e-22)
(1.21139 0.131887 4.75906e-20)
(0.0384717 0.0272064 0)
(1.04435 -0.0987519 0)
(0.728351 -0.0795724 4.78451e-20)
(1.00136 -0.0108361 0)
(1.00028 -0.00837036 1.81147e-21)
(0.938409 -0.0810199 -3.85146e-21)
(1.00726 -0.013931 -2.73002e-21)
(0.110584 -0.385436 0)
(0.76309 0.0745475 -1.07013e-19)
(0.986823 -0.0500619 0)
(0.568227 0.0303767 0)
(-0.099872 -0.2648 7.83598e-20)
(1.00696 -0.012536 2.67845e-21)
(1.01487 -0.036079 2.24782e-21)
(1.00475 -0.0305244 2.27203e-21)
(1.27104 0.0967397 7.47104e-20)
(0.956036 -0.216028 9.21061e-21)
(1.14386 -0.122982 0)
(-0.254647 -0.0406131 -5.36233e-20)
(1.00002 -0.000297461 7.08805e-21)
(-0.291671 -0.01992 0)
(1.14017 -0.181481 -2.40144e-20)
(-0.0150463 -0.215777 0)
(0.199619 -0.513853 -1.11518e-19)
(1.00495 -0.0542202 3.81986e-21)
(0.150265 -0.0297789 -5.42171e-20)
(0.664804 -0.176734 0)
(0.601104 0.0320432 -2.53807e-20)
(-0.138928 -0.351062 7.01963e-20)
(1.00097 -0.0182855 0)
(1.0224 -0.0204918 5.12904e-22)
(-0.174637 -0.00810101 0)
(0.909599 -0.162588 -2.37731e-20)
(0.174676 -0.0337008 0)
(-0.151212 -0.00664489 0)
(1.03212 -0.0212814 -5.20967e-21)
(1.09713 -0.110805 0)
(1.00469 -0.00726686 0)
(1.09167 -0.012403 1.56729e-20)
(1.25456 0.0318579 -5.10091e-20)
(1.00496 -0.00774901 -1.13674e-21)
(0.603313 0.031659 -8.67199e-20)
(1.1139 -0.0260867 -1.61151e-20)
(1.2057 0.00165346 -5.23556e-20)
(0.656438 0.248857 0)
(0.302592 0.157001 0)
(1.02459 -0.0137764 -2.24528e-21)
(0.988599 -0.020566 -1.38724e-20)
(0.797789 0.00422123 2.15654e-21)
(-0.158887 0.0198057 0)
(1.08952 -0.0939192 -5.0187e-21)
(1.09032 -0.289947 -2.2411e-20)
(-0.303191 -0.0214894 6.20987e-20)
(-0.169106 -0.0190567 6.32561e-20)
(1.07381 -0.0309854 0)
(-0.29754 -0.016314 -1.42262e-22)
(0.990448 -0.0168708 1.01697e-20)
(1.27156 0.0247862 8.10943e-20)