/*--------------------------------*- C++ -*----------------------------------*\
| =========                 |                                                 |
| \\      /  F ield         | OpenFOAM: The Open Source CFD Toolbox           |
|  \\    /   O peration     | Version:  v2012                                 |
|   \\  /    A nd           | Website:  www.openfoam.com                      |
|    \\/     M anipulation  |                                                 |
\*---------------------------------------------------------------------------*/
FoamFile
{
    version     2.0;
    format      ascii;
    class       volScalarField;
    location    "250";
    object      ddt0(k);
}
// * * * * * * * * * * * * * * * * * * * * * * * * * * * * * * * * * * * * * //

dimensions      [0 2 -3 0 0 0 0];


internalField   nonuniform List<scalar> 
18598
(
0.00332563
0.00257393
-8.62925e-09
-2.81732e-07
-4.64921e-09
-1.67839e-09
0.000522811
9.71956e-11
1.74623e-10
9.59574e-09
-1.50375e-09
-1.78117e-07
-1.32495e-10
0.00137891
0.00150241
-7.48364e-08
9.82707e-09
-6.17319e-05
-0.000834953
-0.000815388
-0.000194685
2.08923e-10
1.68801e-07
-1.4116e-10
-1.88538e-10
-0.00056694
-1.22506e-11
-2.24598e-05
-9.80556e-11
2.92728e-10
0.00246166
5.73713e-10
0.00207484
1.79835e-09
3.35459e-05
-3.3962e-10
2.94812e-09
-6.59465e-11
1.84e-08
-6.97063e-05
-9.76361e-05
-1.84382e-10
4.67481e-10
-4.66125e-11
-4.04194e-10
0.00139862
-5.38453e-10
-7.08469e-05
-1.18238e-08
-1.33519e-09
-3.51032e-06
-8.05977e-10
1.19531e-10
7.95718e-08
1.6527e-09
-5.14644e-10
7.19936e-05
1.9325e-05
-0.000204976
0.000246124
1.34238e-09
4.63464e-10
-2.48882e-11
-0.000231719
-1.43499e-08
1.33644e-09
-1.09534e-08
1.07072e-09
4.35261e-10
-0.00164033
7.21752e-10
-2.08732e-10
-8.30479e-10
2.89975e-10
7.17067e-10
-1.08024e-10
1.13233e-09
-3.11493e-10
-3.77758e-10
1.07462e-08
-5.94969e-10
-1.06812e-09
-7.8382e-10
6.25028e-10
5.83556e-10
-2.16494e-09
-3.74263e-10
-0.000150729
-6.75713e-05
0.00043477
4.57249e-09
-3.52481e-09
2.48175e-12
3.38195e-10
-1.23429e-09
1.17177e-09
6.27744e-11
-0.00275281
7.45202e-09
-6.80805e-09
0.000122053
9.49243e-05
1.49091e-06
-0.00017471
-0.000415371
-9.10692e-08
-1.08923e-06
-7.72464e-07
4.30039e-10
-0.000375719
-3.57606e-08
-1.3673e-09
6.84636e-08
3.56757e-07
3.93918e-11
-0.00193764
6.13448e-09
2.35568e-09
4.28153e-09
2.97798e-11
-0.00243277
2.09309e-07
-8.95931e-05
3.76698e-10
2.4475e-11
0.000648544
-0.000122265
2.53189e-10
-3.01646e-10
-8.00704e-05
2.63149e-08
-8.09661e-05
8.09493e-07
-5.67207e-09
3.43507e-10
-1.05979e-07
-2.52116e-11
2.90716e-10
5.9207e-10
-0.000211927
1.49712e-09
5.01945e-10
6.59926e-09
8.22103e-05
-3.09033e-07
1.48124e-09
-1.2852e-05
-1.75086e-10
3.37057e-05
1.02953e-09
-5.24708e-10
-0.00116629
8.38429e-09
-0.00275096
2.52038e-10
-5.45698e-10
8.21304e-09
-4.06715e-06
1.35638e-09
6.54573e-10
-9.01899e-08
0.00103416
-2.30997e-06
-1.33421e-10
0.000403821
0.000458622
-1.28889e-06
5.45996e-10
-8.13371e-10
-1.45392e-10
-1.63464e-09
5.00092e-07
-1.98115e-05
-1.0279e-06
-2.81067e-05
9.98355e-06
3.6304e-08
1.52324e-06
3.14762e-10
2.50147e-10
-0.000199823
-1.95443e-10
-2.07639e-09
-0.000211375
-7.53697e-10
-1.9962e-09
-0.000227422
8.41576e-10
3.15391e-08
0.000410758
-3.2408e-07
8.35382e-09
-1.57068e-10
6.4743e-05
4.46185e-08
-6.43696e-07
-2.20112e-11
5.8195e-09
7.26551e-10
0.000116254
3.29504e-08
-3.54982e-10
-5.70708e-09
2.94092e-08
-7.66039e-06
2.11485e-09
-8.2815e-11
3.48829e-09
-5.68291e-09
-4.2648e-05
2.15257e-09
1.71607e-09
-9.70677e-10
2.02305e-08
-0.000118592
-7.81065e-09
-0.000617544
3.04053e-06
-1.97755e-07
3.27092e-07
2.44738e-06
5.93346e-07
0.000424536
8.88671e-10
-6.46611e-10
3.01084e-09
-1.25405e-09
-0.000228937
-4.2376e-09
3.56681e-10
3.86954e-08
0.000955347
2.51628e-11
7.14029e-09
1.1079e-10
4.5809e-10
1.36575e-09
-2.99872e-07
-6.11847e-11
-1.15325e-07
2.43641e-10
6.83848e-10
3.29011e-08
-3.33662e-09
3.04982e-10
-2.82571e-09
-1.03597e-10
-5.5084e-11
-8.42111e-11
-2.66945e-11
1.48482e-05
-3.45979e-10
0.000169731
-7.09137e-07
-3.2112e-11
-2.97292e-10
-2.29175e-10
1.25537e-06
-4.23257e-10
-0.000472904
1.24915e-09
3.76299e-08
5.0518e-07
-4.36513e-10
-2.95034e-10
-0.00104616
1.65356e-09
2.34047e-10
-3.48372e-10
-0.00200518
6.25896e-11
1.02472e-09
-0.000269312
2.2487e-09
-6.31046e-09
9.10653e-05
2.67686e-10
-4.36189e-05
4.10891e-05
-3.69131e-05
1.465e-06
-0.0112761
-3.26535e-10
3.16694e-07
-3.60653e-05
-0.000125519
5.31694e-05
7.52156e-10
-8.328e-05
0.000197869
-7.07897e-10
-9.47383e-05
-2.16261e-09
-1.07126e-08
-1.75659e-05
6.00897e-09
-9.25979e-08
-9.73676e-09
7.78736e-11
-8.90077e-05
1.71522e-10
1.32518e-09
-0.000533612
-9.25516e-09
-7.31983e-10
3.4405e-07
6.83641e-10
4.60619e-10
2.49603e-10
-8.74736e-10
-1.38957e-09
-4.89786e-11
-2.01043e-05
7.4707e-10
-5.9806e-10
-6.87163e-05
3.77642e-09
-1.06646e-09
0.000151644
3.23685e-10
2.20095e-09
3.14598e-10
-1.9993e-11
3.63905e-10
-0.000635494
0.000295885
5.97961e-09
1.29987e-07
-4.7707e-10
0.00021137
-3.22124e-10
-0.000170654
-4.93907e-11
0.000204709
-1.35227e-10
-0.000364466
-2.35003e-10
4.97144e-09
0.00126906
-8.96335e-10
2.02459e-08
-4.42685e-11
-0.000184134
-1.42649e-10
9.45302e-09
-1.58733e-09
8.12711e-10
0.000341003
-0.000175229
-0.000160448
-5.12865e-10
-2.97362e-07
4.66306e-11
-0.000217755
0.000199003
-2.41285e-10
-0.000168812
0.000445638
1.05165e-05
2.19473e-09
3.55441e-08
0.000409348
9.62906e-09
3.69908e-09
-0.000156693
-4.055e-11
5.91969e-05
1.41338e-10
0.000241164
-1.68561e-10
-6.0997e-10
5.06273e-09
2.15509e-10
2.80839e-11
-5.68623e-05
-8.24214e-11
3.10169e-09
-2.26909e-10
1.97943e-10
5.56684e-09
-1.42272e-09
9.84732e-07
-2.49361e-06
8.64722e-10
3.39105e-09
-6.81168e-07
4.06734e-10
3.07188e-09
3.13258e-07
1.14162e-09
5.38619e-10
-0.000475205
1.65384e-09
4.45628e-08
-2.66743e-07
6.32189e-10
1.86268e-09
9.79826e-05
6.88321e-05
-3.58219e-10
1.14455e-09
-3.6633e-09
1.4662e-10
2.83032e-09
2.82516e-09
0.00047069
-3.55781e-09
6.7018e-05
1.84234e-10
0.000371492
6.59546e-10
1.08287e-10
-0.000233791
0.000375462
0.000363991
8.4348e-11
-8.3487e-05
-4.52236e-08
0.000116436
9.77608e-08
1.64891e-09
2.63226e-10
4.48664e-11
-6.54061e-10
0.00131167
0.00134164
6.00037e-05
-1.70776e-09
-5.98246e-10
-1.76594e-09
-6.50254e-09
1.72001e-09
1.95639e-12
-3.24461e-10
-2.08815e-08
-9.51297e-10
3.3761e-10
-3.32139e-10
2.75813e-09
-3.07497e-10
1.40393e-09
5.83718e-10
0.00105335
-3.74775e-08
1.30246e-09
1.9578e-09
-6.48571e-09
1.88734e-10
1.21906e-07
0.00114803
-9.08547e-11
1.33598e-11
4.48755e-10
0.000726278
-3.17789e-10
-1.68343e-10
5.8106e-10
5.44946e-10
-1.66412e-09
-1.73347e-10
0.000642966
5.53075e-07
9.80854e-10
-2.56198e-09
-1.89564e-10
1.11139e-09
8.48275e-11
-0.000153151
-7.75802e-10
-2.03041e-10
-9.34455e-11
2.69243e-12
4.28397e-10
7.77964e-09
-0.00699716
-6.80613e-11
2.59068e-10
-9.67316e-08
-5.31336e-10
-1.81267e-09
4.05611e-08
9.22796e-10
1.19728e-08
-2.64351e-10
2.02697e-10
0.000313662
-1.96097e-07
7.58299e-10
2.98637e-08
-0.00622275
0.000132087
-1.80094e-05
3.35871e-08
2.1013e-10
0.000233816
-0.00314388
1.87515e-09
-1.13954e-09
2.26641e-05
-6.32899e-08
-0.0051471
-0.000529437
2.61784e-10
-0.000164577
1.83054e-09
3.67896e-10
5.9021e-10
-3.58141e-10
0.0026066
-4.00184e-10
-0.000761769
7.6363e-09
2.17878e-10
-0.000404056
3.36371e-05
0.000106401
-0.00437631
-0.000112775
-5.27169e-10
1.10111e-10
-0.000269412
2.14882e-08
-0.000241326
-5.51064e-06
1.03118e-09
-4.06415e-10
9.31497e-06
1.01237e-06
-2.23347e-09
2.06599e-09
1.58408e-09
6.62915e-11
1.22207e-10
-8.41848e-10
-5.0234e-10
2.68782e-10
2.87164e-05
1.53333e-10
2.82467e-10
-0.000515055
-8.80381e-08
-0.00359941
6.54475e-11
-5.65149e-07
-0.000178601
1.02033e-08
-1.07914e-10
4.82926e-06
4.3631e-05
-0.000178258
1.73487e-05
-2.19367e-10
1.72171e-09
-5.27466e-10
9.38198e-07
-1.07358e-09
3.81342e-09
3.47688e-09
7.13126e-11
-1.45275e-10
-2.00148e-11
8.67967e-05
-0.00023204
2.32207e-08
-9.70878e-05
-3.73352e-05
2.30452e-10
0.000461093
9.94048e-10
-1.68588e-10
-1.05807e-07
-0.000239387
-6.41837e-10
1.03368e-10
-5.81272e-11
1.29214e-09
-4.37041e-10
-0.000177143
6.47343e-10
7.69995e-10
-9.25052e-11
-0.000150861
1.36136e-06
-0.000195606
2.24286e-09
-2.42337e-10
-1.59368e-09
0.000246807
8.32217e-05
-8.2936e-10
2.11074e-10
5.68271e-11
4.89617e-11
-9.10621e-09
3.61158e-10
9.14291e-09
-7.82924e-08
-8.60633e-10
-0.000550709
-2.06879e-09
-4.27647e-09
-1.70466e-09
-3.41671e-11
1.11565e-10
1.18794e-09
-2.26282e-10
3.54535e-05
-1.23774e-08
1.37149e-06
-6.98937e-10
-7.98638e-08
-2.95423e-10
1.91297e-05
0.000976013
2.03245e-10
-1.69424e-10
-1.22682e-09
-0.00112178
3.66226e-10
4.85438e-09
3.00687e-10
3.32895e-08
-0.000214029
3.99277e-10
-0.000134081
1.93956e-09
0.00106607
0.000404991
2.00202e-09
-3.24777e-10
2.29391e-09
-3.54426e-10
3.94195e-09
-1.62076e-08
-2.13479e-09
0.00014787
-8.31369e-09
-8.90862e-10
1.00983e-05
5.90495e-09
-1.51416e-08
-1.70819e-09
1.69484e-05
7.20733e-07
-0.00028039
3.2992e-10
2.17451e-09
-1.8962e-06
4.91744e-10
1.40351e-10
4.45427e-10
1.92515e-10
0.000186059
2.79182e-09
-0.00261504
-3.52887e-07
-1.32266e-05
-1.348e-10
4.42712e-06
-5.66903e-10
1.31611e-09
4.545e-10
-0.00142269
3.17047e-10
2.57602e-10
-3.28683e-10
1.77177e-10
-0.000251904
1.72409e-09
2.21813e-08
-7.08696e-10
-2.20269e-11
3.93072e-08
1.48002e-05
-0.000309309
5.20412e-10
-2.79354e-10
-9.11286e-06
8.78679e-06
0.000113221
5.32776e-09
-0.000328639
1.28369e-09
-0.000611669
0.000424954
3.56769e-10
1.93423e-10
-0.000149318
1.42409e-07
2.84461e-10
-0.000191651
-6.51663e-05
-1.28179e-05
4.20544e-10
1.86852e-09
9.57577e-11
1.64592e-08
-3.54203e-06
0.00540137
2.34439e-10
-5.00394e-08
-4.07598e-07
1.61555e-10
0.000160589
-5.15721e-10
2.57602e-09
0.000731904
-3.62822e-10
-0.000145826
5.14736e-12
4.93657e-11
1.01291e-10
8.68319e-10
-0.000265107
-0.00184548
-9.65765e-10
2.29821e-05
-3.42422e-10
-2.35944e-10
1.21291e-09
-3.42371e-08
-5.53615e-10
-4.66653e-05
2.80598e-05
-1.51126e-10
1.71286e-10
-2.62749e-10
0.000113274
2.32672e-08
8.02896e-05
0.000286759
-6.8207e-10
-1.67615e-09
1.6473e-05
-0.000135002
-5.46838e-09
-0.000289211
2.47693e-08
-7.25705e-10
2.48685e-09
-1.04295e-09
9.75534e-11
4.61494e-08
-7.02588e-10
-3.73511e-10
1.47158e-09
2.51297e-05
0.00016464
0.000216411
0.000146989
1.37227e-08
2.76687e-07
4.60815e-10
-0.000153205
0.000135404
7.66269e-09
1.01619e-09
-1.07482e-09
-3.13809e-07
7.06044e-05
-2.6986e-10
2.9353e-09
1.02407e-05
1.36082e-10
0.00425808
5.69733e-12
4.5799e-05
-0.00028783
1.75018e-10
-2.80638e-10
1.59178e-09
-1.18152e-10
-2.12458e-10
-1.2881e-11
-8.92926e-10
-2.34344e-10
1.62569e-05
9.51142e-10
-9.08898e-11
-8.85744e-10
2.11658e-06
9.04128e-06
9.73633e-10
-1.54983e-10
8.41234e-10
1.30811e-09
0.000136811
-2.16326e-09
-0.000253711
9.13249e-10
1.92525e-09
-0.000363659
2.17235e-10
1.48693e-09
3.09815e-10
-1.30266e-09
4.38337e-10
-5.01243e-11
2.92113e-09
2.43512e-06
-8.09784e-09
-8.05886e-10
-1.14075e-09
-8.61363e-10
2.13302e-10
8.58358e-06
-1.13574e-08
-2.5991e-10
-7.7931e-10
1.07236e-10
-8.17893e-10
-1.40237e-09
-1.18462e-09
6.18275e-10
-0.000211914
1.85082e-10
8.66012e-10
0.00545638
0.000209552
0.000729622
0.000177813
-0.000460654
-1.68374e-09
-2.37748e-07
6.92934e-10
-1.01052e-10
4.77597e-10
3.37228e-10
4.79492e-10
8.04556e-10
7.74959e-05
-1.30118e-10
7.38372e-10
1.40178e-10
-5.70223e-10
4.52378e-09
2.32844e-09
0.000440894
0.000173668
-1.03279e-08
8.35281e-10
-2.66006e-09
0.00067837
2.91356e-10
-0.000246073
-7.77995e-11
-2.48641e-06
4.79897e-06
-3.19218e-09
1.11805e-08
7.45431e-05
-0.00013264
-3.25434e-10
-0.000159364
-4.30717e-09
0.000253506
7.01442e-06
-1.93308e-10
0.000226163
5.33253e-10
-4.82373e-10
1.04571e-09
-1.89609e-12
-1.4292e-09
5.57289e-10
-0.000231931
-3.01706e-09
-1.40919e-09
3.40088e-10
2.87898e-05
-9.96035e-10
-0.000228939
3.22984e-11
3.26615e-10
7.16454e-10
3.51105e-10
-5.25206e-10
6.04133e-10
-1.1088e-09
7.34703e-10
-3.93014e-09
9.8493e-13
2.96957e-08
0.000672905
-5.02924e-10
2.09484e-05
3.95297e-09
1.42624e-11
6.54217e-06
-2.64642e-09
-2.89294e-10
1.58752e-05
-1.98678e-05
3.78292e-08
0.000632638
-9.99152e-11
1.05515e-09
2.26992e-11
5.619e-11
-7.84177e-10
-8.25594e-10
-3.59713e-10
-1.7388e-11
1.40412e-09
-2.55141e-09
-1.69927e-10
-1.04835e-08
2.31314e-09
-3.91982e-10
4.25819e-09
-9.2811e-05
-3.55943e-10
1.30099e-10
-1.70976e-09
2.29857e-08
6.92589e-10
-1.85301e-12
-8.78622e-09
-1.17541e-10
9.05909e-06
-3.58271e-09
-0.000236884
6.95113e-11
2.476e-10
-1.53553e-10
3.12902e-09
-1.51253e-09
-8.43499e-09
-5.81539e-05
0.000272646
-2.99449e-09
7.70261e-05
3.5917e-06
-5.14126e-12
6.45899e-10
-9.81029e-11
-6.17859e-10
-0.000198598
-6.73702e-10
7.17244e-05
-1.40072e-08
-3.88622e-09
3.04971e-08
0.00011864
6.32458e-10
3.3584e-10
-8.12061e-05
-9.17251e-05
-1.83829e-07
-5.1173e-07
4.96645e-11
2.92195e-06
4.54537e-10
1.77078e-10
-2.19611e-05
-2.58529e-11
3.00187e-05
-0.000184133
-8.85804e-10
-1.80682e-10
-1.63654e-08
3.44566e-08
3.22268e-05
-0.000223816
0.000149209
1.32869e-08
2.59176e-10
6.25162e-05
0.000392427
0.000338714
-5.22248e-10
2.64754e-05
0.000179326
-2.22377e-10
0.000217165
2.6848e-10
3.52338e-08
4.71168e-12
-3.98586e-09
2.27674e-10
-3.49277e-06
4.8524e-09
0.00014772
1.77162e-07
1.28544e-09
5.37106e-10
-2.94366e-10
-2.04498e-10
-6.98971e-05
0.000127638
0.000109889
-9.77834e-10
-0.000115454
7.7176e-09
1.84606e-09
2.5652e-08
1.7691e-09
3.99485e-09
2.20327e-10
4.57701e-09
-1.95351e-10
-5.53049e-10
1.13861e-09
3.86113e-05
2.64714e-10
8.23193e-10
2.36551e-05
1.59128e-05
-0.000592261
-2.08675e-09
-0.000635255
5.16229e-07
-1.6029e-07
1.79042e-10
2.24986e-05
3.61872e-09
1.03522e-08
-2.70668e-07
-0.000210916
-0.000370462
0.000159967
-0.000196116
2.58597e-09
-0.000679717
1.71478e-10
-2.96805e-07
3.9496e-08
2.57624e-10
2.70877e-09
-9.21356e-11
1.36589e-09
-0.00221545
-1.16305e-09
-9.44502e-05
5.17965e-10
8.61618e-10
-1.02516e-10
-2.90087e-10
6.66652e-09
6.676e-10
-4.05318e-06
-1.75677e-09
-2.5253e-09
1.41714e-09
1.60447e-05
-1.64051e-10
-6.11891e-07
1.54814e-09
5.00878e-09
-4.17195e-10
5.56575e-05
-3.27679e-09
2.35408e-12
-6.10108e-10
4.29735e-09
-0.000358143
-7.84125e-07
-1.71134e-10
-1.1825e-06
0.000109859
-2.47302e-08
-3.27583e-07
0.000732658
-5.48713e-12
-0.0010162
3.92714e-10
-2.75527e-09
4.20917e-10
0.000155754
-0.000219027
-1.55064e-08
-0.000146561
-1.5141e-10
3.49169e-10
0.00015009
-8.67342e-10
0.000187425
-0.00025006
2.01766e-07
2.8379e-08
-3.09263e-10
9.22764e-10
-0.000950365
2.73995e-08
-1.30681e-09
-1.19095e-08
6.11816e-10
1.55483e-09
-4.05235e-10
2.85487e-10
9.0666e-10
-7.63356e-06
1.10775e-09
-0.000250328
9.85076e-10
-4.7466e-06
6.07825e-10
-2.04741e-08
-9.30714e-09
-7.3427e-05
-0.000131519
-6.48869e-11
-7.32322e-08
-6.72083e-05
-1.20245e-09
-5.40378e-06
-1.38169e-10
2.7992e-10
-1.22982e-09
1.32399e-08
9.99672e-09
3.05142e-09
2.03955e-09
0.000462861
3.42141e-10
-1.3883e-06
-1.59074e-06
-1.6611e-10
-1.3816e-10
7.6327e-10
5.99959e-05
3.60642e-07
-4.58194e-11
-1.43514e-05
4.05746e-07
-3.14306e-09
-3.14395e-10
0.000372517
-9.5909e-10
7.85116e-11
-2.17971e-09
1.11962e-05
1.53823e-09
-4.47331e-10
6.93651e-10
4.94939e-11
-4.88999e-10
-2.02644e-09
-7.80391e-05
-3.5329e-09
4.23662e-10
3.71064e-11
-0.000154166
-0.000104808
-1.51602e-09
-3.84624e-10
-1.15463e-07
-1.0608e-09
-7.24491e-10
-2.49629e-10
-3.62605e-10
-0.000457844
-1.84358e-10
9.24109e-10
2.77472e-09
2.49024e-09
-7.25655e-09
2.91195e-11
5.12382e-11
-1.80547e-10
1.23172e-09
-8.63788e-05
-0.00057437
-8.01355e-10
-3.90306e-11
9.10643e-10
0.000186352
-1.04445e-07
-8.00204e-10
-5.43522e-10
-1.39045e-06
-2.55342e-07
-2.01395e-05
2.94153e-09
-8.20426e-08
4.51022e-07
-0.000234987
3.3621e-11
0.000106867
2.84613e-10
3.86955e-09
-9.42163e-10
-3.59229e-10
-6.59816e-07
5.89911e-10
-5.77523e-07
-8.7098e-06
3.97497e-10
-6.26738e-10
1.89995e-09
6.9197e-11
-0.000934744
1.99251e-10
4.14728e-10
-0.000403507
-3.64791e-09
5.51019e-11
-0.000828519
-3.92182e-09
4.48827e-10
2.58955e-09
4.57145e-10
-3.81261e-05
3.23323e-10
1.81301e-10
-7.0878e-06
2.15138e-07
-9.9563e-10
4.02024e-05
-0.000163237
1.23834e-06
3.49275e-10
-6.56784e-10
-2.11258e-09
-1.89449e-09
0.000501741
0.000320437
-9.65206e-05
2.32687e-10
-1.61482e-08
3.10526e-10
1.40359e-05
0.000564656
6.45326e-10
9.24694e-09
-2.72099e-10
1.59593e-08
-5.50281e-11
3.95705e-09
1.92385e-09
-4.51424e-10
0.000173743
-2.91567e-10
2.83118e-10
-0.000131285
-8.66474e-10
2.95025e-10
1.30356e-10
-2.16743e-10
-4.29055e-05
1.27994e-10
5.80737e-11
8.26269e-10
-2.60871e-09
1.08826e-09
2.19274e-11
1.10444e-07
0.000149802
5.93715e-09
6.46555e-10
-7.1454e-07
3.96038e-05
1.40847e-09
-0.000501306
-5.59249e-05
0.000187063
1.07661e-10
-1.16473e-08
-1.8757e-09
0.000145107
-2.27379e-09
-3.36675e-09
-1.67511e-09
6.18773e-09
-8.83717e-05
2.74778e-10
7.83277e-11
9.5196e-06
-1.01527e-05
-2.77406e-10
-3.49068e-09
0.000286959
-4.73996e-10
-0.000426608
8.27213e-11
-4.37938e-11
1.7297e-10
-5.49722e-10
9.16047e-12
2.53853e-10
-2.90045e-09
-6.6494e-11
6.82642e-10
8.79583e-11
-0.000258142
-5.10668e-10
0.000175024
0.000122068
0.000104355
-3.10509e-09
0.000538327
2.31755e-08
-0.000238233
0.000110342
3.76314e-10
-4.87019e-08
-3.32117e-09
-5.38013e-11
0.000154831
3.6704e-05
8.69601e-11
5.39786e-09
9.57244e-12
-4.55234e-08
-7.52702e-07
8.28555e-07
-5.16362e-07
-1.18901e-10
-1.6241e-05
-2.99007e-10
-1.42141e-09
-1.96918e-09
-1.00605e-06
-7.88438e-11
1.65336e-09
4.42081e-10
-1.88624e-05
3.39152e-05
-1.10287e-10
5.48472e-10
-0.00298193
1.40154e-10
-1.41678e-09
3.09643e-10
1.97967e-07
1.02284e-09
-5.76066e-08
-8.87014e-09
7.07661e-05
-8.43577e-10
6.10665e-09
2.33532e-09
-0.0028863
-5.08072e-07
4.30418e-10
1.01142e-10
-6.06258e-08
1.4994e-10
8.75387e-10
4.04954e-09
-1.10442e-08
1.75482e-08
-4.96393e-11
-5.57281e-10
-8.0283e-11
-9.4643e-07
5.20378e-10
-1.67946e-05
-3.58898e-08
-5.12828e-09
4.09624e-10
-6.76278e-11
1.68971e-10
-1.50532e-05
-0.000421193
-0.000536993
0.000123592
-1.71604e-10
5.1027e-07
-9.2842e-05
-2.84552e-10
8.16275e-09
-3.07828e-06
-5.44687e-09
7.33574e-10
9.7109e-08
-5.62202e-06
1.58443e-09
4.6322e-09
3.58654e-10
0.000271384
-1.55554e-10
8.31936e-08
-3.85274e-05
-2.42738e-07
1.48507e-09
9.80878e-10
0.00386704
-6.09961e-11
-8.94593e-08
5.64816e-10
-5.69917e-09
5.96478e-10
4.11191e-10
-1.72834e-09
0.000310486
1.32086e-09
0.00200335
9.18516e-10
-3.17776e-07
-2.29202e-09
-6.40013e-10
-3.7572e-05
-0.000113414
-5.54983e-08
-9.36713e-06
-0.000346151
6.25174e-10
-4.98538e-05
-3.21993e-08
4.65772e-10
-0.000142559
-3.7029e-11
-8.56835e-06
1.88923e-07
5.7832e-10
1.40579e-11
-1.33647e-08
0.000843968
8.53383e-10
-2.89763e-07
9.68177e-10
-6.9429e-06
-2.03075e-09
-2.35313e-11
-2.57886e-08
6.17378e-10
-4.75198e-11
-0.000333666
0.000265254
-2.54817e-10
-4.48408e-09
-0.00322768
-5.19302e-09
-0.000121547
-0.000324443
-2.24836e-10
7.82338e-10
-2.74891e-05
1.71883e-10
0.000394999
1.91121e-09
-3.20132e-05
2.81014e-09
4.92213e-10
-1.07047e-09
8.84991e-10
-8.59777e-08
-0.000247482
-0.000292526
7.03076e-10
3.60067e-10
-3.61338e-08
-0.000106186
-1.00826e-08
-8.04805e-05
-1.72548e-10
-1.70216e-07
-0.000579601
0.000128276
7.17868e-10
-3.86663e-05
0.000349268
1.57394e-09
-9.16925e-11
-6.69862e-05
6.05053e-11
6.2009e-10
9.34361e-05
-9.36453e-10
1.7254e-05
-1.14482e-05
7.47994e-10
5.70607e-05
-3.55743e-10
-1.51936e-07
-3.59678e-05
5.15478e-11
-6.78692e-11
-2.31848e-10
0.000609865
-2.60412e-10
2.39033e-10
-1.45632e-07
4.70424e-05
0.000157012
1.16757e-09
-1.20386e-06
0.000160269
-7.4433e-11
1.39173e-05
5.89578e-09
-4.22253e-10
-0.00043529
-0.000195399
0.000243055
-1.78636e-08
0.000162406
2.42459e-09
8.68474e-09
-5.14837e-09
1.14818e-11
-0.000114575
-1.97398e-09
-0.000190795
6.80348e-11
-0.000189207
-3.70672e-10
-9.34847e-12
-2.16766e-05
-1.54796e-08
-0.000247825
-0.000160773
1.67332e-09
-1.84502e-10
0.00051555
-3.47217e-11
3.59047e-09
-4.06518e-05
-1.59666e-09
-9.48859e-10
-3.68632e-10
-0.00015511
4.42836e-10
1.84147e-09
-9.73449e-05
-5.42397e-09
8.40023e-11
-0.000832497
-1.06415e-09
-0.000226084
-1.53934e-05
-1.13074e-09
-2.49158e-10
5.22211e-11
-0.000111266
0.000169472
-7.1571e-08
-3.36245e-09
1.2095e-09
7.87541e-10
-4.51377e-08
-0.000226456
-2.4185e-10
1.76324e-05
7.36955e-10
4.45114e-10
-1.09139e-10
-0.000484291
-9.9746e-09
0.000571337
4.20111e-08
-2.07998e-08
0.000101745
8.91635e-10
-1.1432e-10
-2.09319e-10
6.59312e-09
-1.62996e-09
5.68724e-10
0.000325035
1.65219e-10
-3.329e-10
-9.67359e-10
-3.90053e-11
-2.18267e-10
9.05864e-05
-1.12839e-08
-0.000811654
5.52844e-10
-0.000164212
-3.90186e-10
1.42328e-09
6.68744e-10
-2.51791e-09
4.63828e-11
4.76793e-11
-1.28612e-09
2.68743e-10
0.00103974
-6.59654e-09
-9.14758e-08
5.88076e-08
3.07521e-09
1.18915e-09
-0.000480996
1.97919e-06
6.80661e-11
-1.05679e-10
-6.70198e-06
1.0309e-05
-1.94063e-10
9.11475e-06
0.000115412
-8.06554e-07
-1.35118e-08
0.000241974
-3.58096e-08
-3.97933e-10
8.7056e-09
1.12292e-09
-8.53775e-10
-1.41562e-09
7.00943e-11
8.01033e-10
-2.04377e-10
-0.000171853
7.75392e-10
2.35621e-09
2.44801e-09
0.000271245
1.6851e-10
-3.34513e-09
1.74473e-07
1.35869e-09
4.44884e-11
-2.48768e-08
0.000515811
-8.92374e-09
2.30829e-05
-1.17038e-08
9.45378e-10
-5.05926e-10
-2.20822e-10
8.19113e-10
-3.18253e-05
-4.04347e-05
1.49826e-09
0.000264852
-4.35348e-05
8.89984e-10
8.39785e-10
2.50476e-08
-8.93164e-05
-5.40864e-11
-2.08161e-07
6.28172e-09
6.93072e-10
-2.42182e-10
9.58504e-10
3.31953e-08
-8.30138e-09
-1.91788e-10
2.03297e-10
-2.42175e-05
-6.22409e-05
-0.000316142
-1.54747e-07
0.000327364
4.03336e-10
6.08122e-10
-2.19088e-05
5.12562e-05
6.78981e-10
6.01752e-10
-0.000223172
-5.89853e-06
-0.000746726
4.84691e-11
1.41228e-10
-4.81721e-10
-1.64656e-11
-1.16874e-09
0.000591782
-0.000234274
1.90468e-09
1.01741e-10
-2.34253e-10
-0.000226567
7.55738e-05
-3.71036e-10
2.5743e-11
-0.000221679
3.04596e-09
-5.115e-10
-7.47198e-05
9.02578e-05
0.000659358
0.000137515
3.21199e-05
4.40295e-08
-7.21689e-10
3.16115e-10
1.1149e-08
0.00144478
-1.81129e-09
1.18297e-05
8.23114e-10
-2.60569e-10
-0.00013867
2.99118e-10
1.35884e-05
-6.58854e-09
0.000229438
-0.000102767
6.68218e-10
2.48043e-08
-5.37998e-10
0.000660196
2.88721e-10
9.49878e-06
-8.46394e-09
0.000427403
-4.50187e-10
3.10342e-09
-9.43468e-05
1.61585e-10
-3.43418e-10
6.37544e-06
-3.18764e-09
-6.62666e-10
1.32315e-09
4.18208e-07
-9.77987e-11
-1.6648e-10
3.10152e-11
-1.62175e-08
-2.73187e-07
-1.72517e-07
-4.44103e-11
-0.000379531
-3.65784e-06
4.45169e-08
1.1208e-10
-0.00022682
-7.1333e-10
4.50183e-10
-3.38252e-11
5.40247e-11
7.70063e-10
0.000476139
8.55856e-07
0.000144089
3.07565e-09
4.60524e-07
2.84149e-09
-3.16276e-05
-2.30245e-07
-0.000621835
3.411e-07
3.26948e-10
8.98515e-10
0.000128445
-1.05379e-09
1.24854e-08
-6.51839e-11
1.12304e-09
0.00016352
1.73662e-06
-0.000700433
-1.88341e-09
9.10918e-10
0.000575455
-8.37788e-05
5.04331e-05
-1.13242e-10
2.93195e-09
-9.16709e-10
-0.000438479
-8.2907e-10
3.08505e-10
2.28258e-08
0.000165371
7.022e-10
4.77583e-11
5.80691e-07
-1.42861e-09
-6.33204e-11
9.96045e-09
5.80406e-11
-1.92366e-11
-0.00018107
1.5393e-05
6.82187e-09
4.22808e-10
1.84448e-11
9.06868e-10
0.00165673
1.29377e-10
-9.12497e-10
0.000186483
-0.000919729
1.9951e-06
9.30114e-10
-0.000262355
4.06445e-10
-1.60313e-09
-1.07852e-09
0.000640128
-1.32058e-05
7.44951e-10
5.7277e-12
0.000179885
-0.000238785
1.61088e-09
3.38549e-09
-2.30368e-09
6.11479e-10
1.24787e-10
-5.01816e-05
-7.1834e-05
5.98138e-10
4.49325e-10
8.88623e-06
2.05329e-08
0.00030481
4.89346e-10
-0.000325119
-6.3167e-05
-1.09768e-10
1.715e-09
-1.20708e-08
2.03106e-08
-1.64611e-05
-7.40981e-09
-4.97824e-10
6.25761e-09
-6.76904e-10
-5.97544e-11
-1.76e-07
-7.3905e-05
-3.03321e-07
3.10194e-09
9.93273e-11
-5.88039e-09
-0.00355742
8.2807e-11
-2.21594e-11
7.05327e-10
2.28784e-10
7.82976e-10
1.21118e-07
-1.14252e-09
-1.01411e-08
4.82342e-05
1.36079e-10
2.16082e-09
-0.00400383
-1.11066e-09
4.43965e-09
-0.000200781
9.57285e-10
0.000827252
-6.70923e-09
4.47144e-09
-3.76248e-10
5.9785e-10
1.24968e-09
1.6908e-09
1.66536e-09
-0.00106454
0.000461743
1.20542e-06
5.46098e-09
2.10855e-07
-9.33096e-10
6.91276e-09
-0.00177
-5.92392e-10
3.82916e-07
2.82166e-09
0.00039632
1.46902e-06
-4.99765e-10
-8.76335e-08
5.36774e-09
-3.30739e-09
0.00038963
-5.59155e-10
-2.07364e-09
-9.56922e-05
-1.91973e-08
-6.28801e-10
-1.83755e-09
9.01162e-06
4.57863e-11
-6.73195e-10
-2.48716e-08
-3.96654e-05
-0.00405088
-5.57609e-10
8.52732e-09
-0.00017653
-2.31412e-08
-7.36245e-06
-0.000886521
4.21381e-10
-0.00032666
-9.15698e-11
7.03183e-10
-4.37131e-09
-0.000991574
1.0153e-10
-2.48228e-10
6.18377e-09
0.000291819
3.02708e-10
3.76051e-09
5.14803e-05
1.52252e-09
-5.78418e-11
-2.94375e-06
-1.04626e-08
-1.01823e-08
-1.31992e-09
3.88712e-09
-7.57629e-10
-3.02656e-06
1.36369e-09
1.79217e-09
1.01152e-09
-0.00275631
3.15926e-06
-6.21382e-09
7.15096e-05
-3.57195e-10
0.000416238
7.60916e-10
-3.85032e-10
0.000293706
8.7239e-08
-2.04339e-08
-5.72827e-11
-3.81998e-10
-2.98713e-10
6.5404e-11
-0.000322826
1.06227e-10
0.000321381
-1.70619e-10
3.80342e-08
3.24113e-10
-4.16118e-05
0.000845278
-2.54398e-09
3.45467e-05
-1.35119e-09
2.85657e-09
-2.86816e-10
-9.02348e-09
0.000748335
0.000188606
1.87674e-09
2.71943e-08
-1.99176e-09
1.47069e-10
-1.14626e-09
-1.07816e-07
-0.000457684
1.0159e-09
-0.000590279
-2.45734e-09
0.000753037
-0.000157449
-2.46487e-07
3.25683e-09
-2.33338e-08
0.00114951
6.59496e-09
3.79311e-10
7.45628e-10
2.86507e-05
0.000806996
-2.55282e-05
0.000206362
1.88679e-09
1.12523e-05
-5.46475e-10
2.00837e-09
2.10228e-10
0.00274462
-1.64066e-09
1.22138e-09
-1.38508e-09
5.89393e-08
-9.62015e-09
-0.00117151
-8.18413e-10
2.09704e-06
4.08487e-08
7.69716e-09
-2.62328e-09
-4.88006e-05
7.07174e-09
-6.93665e-10
-1.03871e-09
-0.000119499
-5.38612e-07
-7.92404e-06
4.68311e-11
1.09005e-09
2.06895e-10
0.000402781
5.02388e-10
-3.1131e-10
-1.57574e-10
0.00017649
0.000813438
9.87477e-11
8.13658e-05
-6.26661e-10
-8.00385e-10
-2.15989e-06
-0.000515629
4.16114e-10
-0.000356719
2.91901e-09
-0.000135075
4.33277e-10
3.8098e-10
4.25216e-05
-0.000789401
-1.7311e-10
-2.02212e-09
-2.76311e-10
5.79393e-10
1.33665e-10
1.81139e-08
9.28097e-10
-0.00025529
0.000427171
-7.74158e-10
-5.65262e-11
3.02039e-08
0.000521655
-1.3901e-09
1.09265e-09
-4.50971e-11
1.98325e-08
3.28526e-09
0.00258923
-1.58939e-10
2.41667e-10
-1.28987e-09
-6.9422e-09
-0.000275452
-0.000179479
-0.000552748
-0.00022597
7.27419e-07
3.30625e-05
-9.73237e-05
1.03559e-08
-0.00272075
2.59066e-09
2.42127e-07
2.7939e-10
1.05276e-08
-2.50104e-07
-1.15974e-09
-1.58298e-05
-0.000946949
-3.29123e-06
4.58187e-05
0.00443264
-2.71832e-06
1.52423e-10
-1.53299e-09
5.25523e-10
-4.61511e-10
-0.000293515
-5.65082e-10
0.000100423
-2.39917e-10
-7.04622e-10
-3.26141e-09
-0.000135933
1.24754e-08
3.72444e-07
3.97389e-12
-0.000134092
-0.00013174
-3.30703e-10
8.18401e-10
0.000764524
2.75715e-07
1.05648e-05
9.10853e-10
1.25876e-08
-1.63859e-06
-4.92123e-05
-3.44783e-05
-0.000117208
8.59719e-05
3.54289e-08
6.17362e-05
-5.68541e-09
-2.23914e-11
-5.17234e-10
-2.21969e-10
1.22208e-09
-0.000265611
4.31514e-10
3.2065e-09
-1.00665e-10
0.000605691
2.59105e-05
-5.98038e-10
-1.83061e-08
8.69204e-10
-4.13885e-08
-4.98792e-10
1.99537e-10
-2.93966e-09
-8.0443e-05
-0.000610175
3.18435e-08
-2.97004e-10
-5.97079e-09
0.000409872
-6.43701e-10
-7.97067e-11
-8.06735e-09
-3.10768e-09
5.06111e-10
1.90056e-10
9.63149e-07
0.0005877
-1.59687e-09
3.52027e-09
1.99767e-09
2.83447e-08
0.000150373
-7.21691e-08
-1.21605e-11
-1.10028e-09
3.86361e-06
1.58971e-09
8.9248e-09
8.01951e-05
6.93012e-10
0.000339258
6.38353e-10
-0.000259777
0.000159109
8.37934e-05
1.03885e-09
2.40991e-09
1.7252e-09
-7.74299e-10
4.23344e-10
1.38729e-06
-3.53949e-08
2.16803e-09
2.16957e-05
1.13699e-09
2.85249e-10
2.02883e-10
2.29253e-09
3.21695e-05
1.027e-05
1.66484e-05
7.91669e-07
9.77816e-05
-1.14674e-09
-4.46095e-10
-1.89284e-07
-5.27684e-09
-0.000366981
2.99206e-09
-2.60095e-07
-2.29849e-05
5.37317e-10
-0.000269975
-0.000250595
3.43208e-05
3.33567e-05
1.23546e-08
8.2048e-08
2.47729e-10
3.96232e-10
8.79896e-10
-1.08045e-06
-0.000331925
-1.01745e-10
8.80081e-05
2.36632e-10
-5.47152e-09
-9.62027e-05
6.01193e-10
-2.46512e-09
3.27896e-09
-9.14081e-10
-0.000200593
-3.65285e-10
-8.97095e-10
9.04357e-10
-1.24579e-12
4.00172e-09
-0.000324674
0.000327352
0.000588957
0.00121746
5.64737e-09
8.67101e-10
-8.56625e-07
0.000221936
-1.44932e-09
0.00556925
2.46164e-08
1.70038e-07
-7.63745e-08
8.59327e-05
-1.48445e-09
0.000531788
0.000101754
0.000311949
0.00032421
-8.94043e-09
-6.69962e-10
-5.05832e-10
1.60897e-09
-6.62825e-10
7.94524e-10
-4.83198e-09
-0.000656495
4.39341e-05
-4.58106e-10
-1.38694e-09
4.97112e-10
-2.93796e-09
-1.48414e-08
0.000100066
-0.00170174
-7.75913e-10
-5.84617e-09
-3.80659e-05
0.00012319
4.86216e-11
-0.00100627
-0.000298869
2.33045e-08
0.000196503
-5.01447e-05
-5.31148e-10
-8.02054e-09
1.2404e-09
-4.79182e-12
4.79312e-11
-1.34048e-10
3.00443e-10
4.41043e-08
-0.000366485
-5.74515e-08
1.67158e-09
2.37295e-07
-0.000260127
-2.2546e-10
-4.1097e-05
7.46983e-10
-3.92644e-09
-4.48773e-06
-8.87841e-10
-2.52511e-09
1.0692e-05
4.65532e-10
-1.92523e-09
2.40005e-05
7.06524e-10
-1.93497e-08
0.000154401
1.10933e-09
-0.00106816
0.000687004
0.000529725
2.88091e-10
1.3241e-08
8.14529e-11
9.80567e-10
2.3375e-10
-0.000406875
-1.66052e-09
-3.60816e-08
1.01132e-09
5.67404e-10
0.00149328
-0.000694207
-6.16642e-08
8.34671e-09
-8.67298e-10
-6.95352e-10
-1.0167e-08
-8.11586e-10
3.63861e-06
1.46937e-10
-0.00154481
-0.000209146
0.000249408
1.40661e-09
0.00522261
0.000251131
1.16283e-06
-4.20619e-08
3.14619e-10
4.13896e-10
-0.000165712
-6.91975e-05
-0.00315136
1.82979e-09
5.37768e-09
-0.000581111
2.51149e-10
-2.02371e-10
3.56189e-10
1.00364e-10
-8.79218e-10
6.27494e-10
-5.78315e-10
2.00813e-10
-4.75023e-05
0.000566844
0.000166706
-2.13903e-09
3.06344e-08
-0.000311456
4.22121e-08
-5.67447e-09
-7.32499e-12
1.98414e-06
-9.08352e-10
1.53178e-10
-7.81447e-10
0.00044569
1.22524e-09
0.00029182
-3.94958e-06
-5.65563e-09
-2.6864e-05
-1.14837e-08
-0.000547533
3.57697e-09
2.89049e-09
3.87403e-11
-0.00155208
0.000277833
-9.92839e-10
-6.99975e-07
1.04776e-10
0.00222674
1.70549e-09
2.53167e-10
-0.000614623
0.000640009
-1.23392e-09
0.000379202
-0.0011277
3.63101e-10
-0.000416184
-1.36809e-08
-0.00026115
3.31363e-09
1.11635e-08
-1.05215e-07
7.99997e-06
-0.000430347
-9.95425e-09
1.07269e-09
4.25584e-10
-0.000219076
-4.96417e-10
2.21714e-09
-0.000351934
4.29526e-10
2.8631e-08
-0.000669042
6.94697e-10
9.18732e-09
-0.00028572