/*--------------------------------*- C++ -*----------------------------------*\
| =========                 |                                                 |
| \\      /  F ield         | OpenFOAM: The Open Source CFD Toolbox           |
|  \\    /   O peration     | Version:  v2012                                 |
|   \\  /    A nd           | Website:  www.openfoam.com                      |
|    \\/     M anipulation  |                                                 |
\*---------------------------------------------------------------------------*/
FoamFile
{
    version     2.0;
    format      ascii;
    class       volScalarField;
    location    "250";
    object      ddt0(epsilon);
}
// * * * * * * * * * * * * * * * * * * * * * * * * * * * * * * * * * * * * * //

dimensions      [0 2 -4 0 0 0 0];


internalField   nonuniform List<scalar> 
18598
(
-2.21208e-05
-0.000198268
-1.37894e-10
-1.48637e-09
2.53099e-11
-4.04277e-12
2.14724e-05
7.00289e-11
4.2713e-12
-2.68823e-11
-5.47032e-12
-1.55952e-10
5.71652e-12
3.14642e-05
1.47971e-05
-1.02598e-10
-3.35474e-11
-1.5192e-06
8.88435e-07
-5.97065e-07
-1.58159e-06
3.53153e-12
-3.68272e-09
-4.60694e-12
4.33598e-12
1.06195e-06
-3.89342e-13
5.74235e-05
-1.10912e-12
-3.45515e-14
-3.59547e-05
-1.30382e-13
-0.000221919
2.83328e-11
-1.59802e-07
-3.86308e-12
1.16683e-10
2.47723e-12
-4.10362e-10
8.84911e-07
5.30695e-05
-2.07079e-12
7.61448e-12
-3.00923e-10
-3.93826e-12
-3.01166e-05
2.04654e-12
1.15038e-06
-4.92927e-11
-2.22349e-12
-1.67873e-08
-3.02642e-12
1.44031e-12
-7.24514e-10
4.94611e-12
1.25411e-12
-1.02042e-06
-4.12351e-05
-7.14769e-05
-6.85279e-08
-5.46975e-12
-7.8729e-13
-1.90285e-11
3.78147e-06
-4.45578e-11
-7.29568e-13
-7.15158e-11
4.82273e-12
-4.57099e-12
1.69531e-05
-3.68696e-11
1.06622e-12
-1.96124e-12
-1.26138e-12
-2.30932e-12
4.75914e-13
-7.23442e-12
-5.09557e-12
-3.29622e-12
-6.24101e-11
-1.39747e-12
-2.85503e-12
3.51875e-12
-3.06679e-12
-1.67859e-12
-3.48871e-12
2.23442e-12
-6.04014e-07
-1.12086e-06
-8.65007e-05
1.10212e-10
2.64132e-11
8.72915e-13
-6.34673e-13
-6.5989e-13
5.13849e-12
-1.07122e-10
5.79815e-06
-2.48808e-11
5.08984e-11
-2.05699e-06
-3.49193e-07
1.43374e-08
-6.01913e-07
-3.22322e-05
7.45822e-11
-2.16608e-08
3.55831e-08
6.65514e-12
-2.5215e-06
-7.82757e-11
-3.73915e-13
-2.57945e-09
-4.82249e-09
-1.46629e-11
4.14204e-07
-3.4637e-11
3.4148e-11
1.22435e-12
2.28863e-12
2.74654e-06
-3.38312e-11
9.89281e-07
-2.15397e-11
7.11467e-13
1.52109e-05
2.71109e-07
2.76853e-12
-6.40502e-12
3.79892e-05
-2.93887e-11
4.13926e-05
3.68383e-09
1.38041e-10
-2.77547e-10
1.69389e-10
-2.29216e-12
-2.16713e-12
-1.50254e-12
-7.02276e-05
-1.26978e-12
4.74142e-12
-1.19712e-11
5.8361e-05
-1.9879e-09
2.69937e-12
1.0891e-05
-3.58354e-12
-5.77747e-07
5.77453e-12
-5.57998e-12
7.45508e-05
-2.74795e-11
0.00071274
9.1109e-12
2.0691e-12
-5.15681e-11
-1.67507e-09
-9.58623e-13
6.8082e-12
1.88002e-10
5.6238e-06
-2.50137e-08
8.19201e-12
0.000243112
2.82125e-06
-3.17161e-09
1.84249e-12
1.2375e-12
-1.40576e-12
1.83212e-12
-4.31231e-09
5.26225e-07
-1.72492e-09
9.16742e-07
-6.68122e-07
1.07118e-10
-2.16912e-07
2.41372e-12
2.41305e-12
0.000109939
8.91313e-14
3.68706e-12
0.000135253
8.37016e-13
2.30801e-11
-6.65763e-05
9.65138e-13
-1.24051e-09
-7.11408e-07
5.12284e-10
-3.91131e-11
2.16632e-12
-2.39508e-06
1.49077e-10
-1.63335e-09
3.14256e-11
1.68349e-12
5.7345e-12
-0.000119351
-1.52068e-09
-6.05446e-13
4.66131e-11
-6.62389e-10
-3.26825e-08
-1.35787e-13
-3.44356e-12
9.44732e-11
-9.94224e-11
2.09388e-06
-1.50414e-12
4.52751e-12
2.01464e-11
5.92415e-09
-1.37175e-06
1.095e-10
7.07621e-05
-7.16325e-08
-5.20301e-10
2.0163e-10
-3.40427e-08
-2.01359e-08
-9.67994e-05
-4.0143e-11
1.53429e-11
-1.42032e-12
-8.0136e-11
-8.89961e-05
5.0129e-11
6.96305e-12
1.26182e-10
-0.000269795
5.58095e-12
-3.0266e-11
4.57712e-12
-1.96659e-12
-1.4965e-11
-1.90155e-09
1.11839e-12
-8.96526e-10
9.06317e-12
-1.20099e-13
-1.04068e-09
1.92205e-12
3.10446e-12
-5.91038e-12
7.04595e-12
-2.64436e-11
9.13976e-12
3.03096e-12
-3.73576e-05
8.09444e-12
-0.00010657
-1.81882e-08
7.60781e-13
-1.13964e-11
3.45369e-12
-2.29901e-08
2.66153e-11
-0.000283234
1.62269e-12
6.96313e-11
2.85262e-10
9.45963e-12
-4.30487e-12
-2.43616e-06
-4.01146e-12
-1.66488e-12
6.70931e-13
1.28029e-06
8.23226e-12
-2.74886e-11
0.000119619
-5.12226e-12
-5.76025e-11
-6.69865e-05
-4.4551e-13
-1.47078e-07
1.2184e-06
8.28345e-07
4.8776e-08
-0.000167516
-6.98342e-12
-1.26944e-09
2.0502e-06
2.05753e-06
9.21444e-07
2.01465e-12
1.51778e-06
-1.47107e-05
1.17266e-12
-4.01482e-06
-3.8332e-11
-5.00613e-12
4.12271e-05
-4.23614e-11
-4.16284e-08
1.16829e-11
4.85848e-12
-4.97511e-07
-2.75847e-12
9.97984e-14
-0.000258368
-8.92568e-11
-1.89175e-12
-4.48461e-08
8.71895e-13
-7.80774e-12
4.51193e-12
-7.52183e-13
-1.94872e-11
2.20133e-12
-4.62933e-06
3.42624e-12
1.72291e-11
2.28664e-06
9.07195e-11
1.67914e-12
1.16198e-06
7.14551e-12
-1.9796e-11
1.32754e-12
2.025e-12
3.16487e-12
-3.20176e-06
-2.02826e-05
-1.00831e-10
-2.43545e-09
1.55462e-11
-1.49793e-06
-1.80457e-12
-9.08504e-05
-5.14958e-12
-2.33712e-06
-9.67569e-13
-0.000326645
5.5282e-13
-2.5658e-11
5.45148e-05
6.87202e-14
-4.25693e-10
2.09851e-12
-1.33175e-05
1.68422e-11
-1.94134e-11
-8.14651e-13
-1.40398e-12
-6.59803e-08
-1.37864e-05
0.000147007
1.45409e-11
5.35952e-09
-1.21477e-11
0.000147206
2.68767e-05
-1.00519e-11
-7.93416e-05
-2.69674e-05
1.66208e-08
1.16149e-11
-9.45111e-10
9.77434e-07
-8.67206e-11
-7.17965e-12
3.58576e-05
-1.83778e-12
-3.60549e-05
1.60504e-12
9.64395e-06
1.97376e-12
-1.13302e-11
-3.73763e-11
-4.83505e-12
-1.75625e-13
6.74987e-05
7.0768e-12
1.21805e-11
2.78443e-12
1.89675e-12
-3.03937e-11
8.46272e-12
3.6509e-09
-5.0223e-09
-1.06153e-12
1.12101e-10
-2.81216e-08
-3.07919e-12
4.68114e-12
-4.12851e-09
4.36915e-12
2.75748e-12
-4.23948e-06
4.82167e-12
-2.34627e-09
-3.05429e-09
-2.38447e-12
6.32121e-12
1.31957e-06
2.6576e-06
-1.0152e-13
1.15653e-12
1.85609e-11
7.60028e-12
7.5841e-12
-4.1119e-13
-1.69135e-05
3.0216e-11
3.65162e-05
-7.07838e-13
0.000167853
6.38311e-12
6.1281e-13
4.20206e-05
-2.49309e-05
-1.07847e-05
2.51434e-11
-7.58195e-06
1.51064e-10
-4.20787e-06
1.34398e-09
1.96731e-11
-2.3678e-12
2.3908e-12
-3.50199e-12
0.000108602
-8.63061e-05
-3.3095e-06
2.07453e-12
-1.66841e-12
-8.69661e-12
5.70761e-11
2.59712e-12
3.23254e-12
-1.22097e-12
-1.29186e-09
-1.03142e-11
-1.39972e-12
6.74581e-13
-1.18632e-10
3.85033e-11
-1.06351e-12
8.76654e-13
0.000134062
-3.78976e-10
-1.96496e-11
-5.45873e-11
4.47955e-11
5.02564e-12
2.21417e-10
0.000206321
5.84289e-13
2.32622e-12
1.92277e-12
5.17153e-05
3.90428e-12
5.76809e-13
-4.74747e-13
1.9493e-11
-7.73701e-12
1.38636e-12
2.10456e-05
9.05342e-10
-1.9946e-12
-1.36022e-10
-1.62178e-12
-2.9449e-12
-2.03491e-12
3.38896e-05
1.86342e-12
3.02067e-14
4.06014e-13
4.17367e-13
3.79437e-12
-8.49805e-12
0.000690023
2.137e-12
1.16862e-11
-9.37193e-11
-1.69205e-12
3.46027e-12
-8.82623e-12
9.62131e-12
-4.96784e-11
4.27095e-12
3.32109e-12
6.34987e-06
-7.0347e-10
2.96584e-12
4.75026e-10
4.50037e-05
-7.396e-07
-0.000160584
-1.54876e-09
1.05172e-11
-0.000181169
0.000669275
4.52014e-12
1.15454e-11
-4.91876e-08
-2.59028e-10
-0.00230215
3.74491e-06
-4.0342e-12
4.3854e-05
-1.42205e-12
-8.84091e-13
5.23928e-12
-1.01641e-11
-0.000370538
-5.66033e-12
-2.73191e-06
-1.09309e-11
-6.79266e-13
-1.21647e-05
-3.17428e-06
2.52532e-07
-0.0014872
2.50942e-05
1.05809e-13
1.00909e-12
-1.80392e-05
-1.06505e-10
-1.83881e-05
-1.14887e-09
3.84289e-12
7.3697e-12
3.34724e-09
1.36522e-10
-9.78987e-10
-8.3514e-13
-1.36275e-12
1.85681e-12
3.05204e-12
1.42695e-11
-2.76445e-12
-3.07656e-12
1.01722e-06
-3.4299e-13
2.04537e-11
2.47143e-06
1.03792e-08
-0.000774731
-2.47383e-12
-2.13569e-09
4.33612e-06
-3.90382e-11
7.08509e-12
2.35776e-08
-2.49411e-05
0.000117624
-2.17042e-08
1.48698e-11
1.17623e-12
-1.39998e-12
-1.20943e-09
8.65364e-12
-9.9098e-12
-2.77664e-11
2.24733e-12
2.92818e-12
3.26495e-12
-3.22885e-05
-1.63662e-05
-4.43836e-10
4.52523e-07
2.13007e-06
-7.19055e-13
2.79481e-06
-9.45859e-13
3.04001e-12
1.319e-10
2.50017e-05
1.85273e-14
1.35214e-10
8.30526e-13
3.28345e-12
1.12256e-12
2.48325e-05
2.01395e-11
-1.51793e-12
5.00573e-12
4.77477e-05
-2.13886e-08
-0.000112243
1.45047e-10
-2.69601e-13
-1.30796e-12
9.25437e-07
-2.85479e-06
-7.01167e-13
4.2662e-12
1.97797e-12
-7.94533e-12
-5.7234e-11
-2.43669e-12
5.59063e-13
1.14818e-08
-4.12533e-11
5.28015e-06
-4.53173e-10
3.54557e-11
5.01998e-12
-4.48192e-12
5.27362e-11
-2.43155e-11
2.28597e-11
1.37593e-08
2.92088e-10
4.36504e-09
2.30377e-11
4.58731e-11
-7.77006e-12
-3.15993e-08
1.15572e-05
-1.4386e-12
1.53781e-11
-1.16397e-09
0.000385
5.79006e-12
-3.5453e-11
2.32499e-11
-6.49564e-09
-1.65445e-05
-1.54292e-11
0.000126778
-1.5337e-11
0.000123103
-1.50868e-05
1.34669e-10
-2.11847e-11
1.17927e-13
3.21285e-12
4.4164e-11
2.57548e-11
-8.88473e-12
-1.02208e-06
1.08814e-10
4.07148e-12
-5.78844e-07
-2.2094e-11
1.89602e-11
2.46554e-12
-8.15067e-10
-1.83818e-09
1.43113e-07
8.77059e-12
1.11327e-12
-1.11147e-07
-9.01576e-13
9.99856e-13
1.99411e-11
-1.12768e-12
1.54624e-06
-1.88674e-11
0.000560646
7.25978e-09
-1.70755e-06
-9.95958e-12
2.83321e-09
2.05691e-11
-1.14171e-12
4.68789e-12
2.64066e-06
4.82536e-13
9.23444e-13
9.81555e-12
-1.48557e-12
4.62123e-06
2.79901e-12
-4.23901e-10
2.28483e-11
3.42885e-13
3.47286e-11
-2.00205e-06
-1.03217e-06
-1.52254e-12
9.88446e-12
-1.36079e-06
1.34095e-08
3.20899e-06
-3.30179e-11
1.20445e-05
-1.71639e-12
1.02168e-06
-3.8315e-05
-2.40141e-12
2.73507e-12
-8.43212e-05
3.69669e-10
-3.28719e-13
3.01671e-05
-0.000106909
5.17417e-10
3.38844e-12
-2.98479e-11
2.13892e-12
-1.0747e-09
-3.13956e-06
-0.000193698
5.24736e-12
-2.38071e-10
2.06304e-09
-2.19583e-13
1.74654e-05
1.56955e-11
-1.80767e-11
-3.17617e-05
6.42755e-13
0.000129472
-1.21802e-12
8.71144e-13
2.75171e-13
3.41459e-11
-1.84778e-05
-0.000214457
-5.45709e-12
-3.4379e-05
9.54839e-12
-3.66861e-12
-8.24729e-14
-2.68602e-10
1.28072e-12
2.82962e-07
-2.90603e-05
-2.82175e-12
3.52079e-12
3.65573e-12
-5.32843e-05
-4.3449e-10
6.1098e-07
-1.36997e-06
-1.36389e-11
-1.23736e-11
-0.000104652
0.000128034
-9.81469e-13
2.29503e-06
-4.25534e-10
6.53995e-12
7.20575e-11
-4.19176e-12
1.18111e-11
5.31803e-10
-3.57763e-12
-1.8188e-11
1.15866e-12
1.40773e-07
-7.77472e-06
-6.4409e-05
-4.14405e-07
-5.77166e-11
-4.91532e-09
3.25279e-12
-4.12201e-06
2.04105e-06
-2.67976e-10
-1.41399e-12
-2.02458e-11
2.03576e-10
1.64743e-06
-3.96869e-14
6.62645e-11
-8.99132e-07
-1.35147e-12
-0.000342169
-9.32614e-13
2.83752e-06
9.20821e-06
-4.08768e-12
-1.62173e-12
-5.20355e-11
1.1825e-12
4.73525e-14
2.3319e-11
1.5772e-12
2.90937e-11
1.60791e-06
4.95772e-12
-3.80372e-14
7.44313e-12
-7.74666e-11
-0.000169458
4.46709e-12
3.80837e-12
-5.27152e-13
-5.17333e-12
-1.33378e-05
-2.34446e-10
2.81644e-07
4.10944e-12
2.72721e-12
-2.42241e-07
-1.10303e-11
-9.89279e-11
-4.69339e-12
5.50487e-13
1.87274e-11
-6.68256e-15
-1.06252e-13
1.76286e-07
-1.3311e-10
2.30012e-12
3.89728e-12
-6.49492e-13
2.33689e-11
-3.70773e-09
1.66939e-12
1.70138e-12
-1.41863e-11
5.85492e-13
-1.55436e-11
-1.35593e-11
-1.04813e-14
-1.50427e-12
-2.83297e-06
9.37473e-13
-1.34712e-12
-8.8384e-05
-0.000138763
1.89322e-05
-6.99771e-05
-5.90096e-05
3.17497e-12
1.90246e-11
4.96973e-12
5.71444e-13
-2.77806e-12
1.76903e-11
2.84957e-11
-3.86849e-12
1.4675e-05
7.65924e-12
-5.97329e-11
-2.23656e-11
-1.70119e-12
2.52688e-10
-5.37669e-12
-4.76731e-06
2.32522e-05
3.07552e-12
4.47533e-12
-4.36462e-12
3.41815e-05
2.97117e-13
0.000153041
2.13285e-12
-2.00363e-08
1.40112e-09
-5.42836e-11
2.11296e-11
1.18353e-05
-1.38357e-06
5.41046e-12
3.09945e-06
1.24278e-11
-9.22871e-05
-0.00011123
2.06989e-11
4.82864e-07
1.13941e-12
-1.68938e-11
-1.62577e-12
2.78683e-13
-9.17768e-11
-3.2945e-12
-2.80304e-05
8.83849e-11
6.26116e-12
1.65443e-11
-4.05192e-07
-7.47319e-14
0.000141258
3.08847e-12
1.68219e-11
-4.14736e-13
-5.63514e-12
-5.54664e-13
1.14917e-12
-1.25551e-12
-1.66133e-10
-6.88541e-11
1.25915e-11
2.82821e-10
9.3608e-06
7.28659e-13
-1.55979e-06
-9.62485e-11
2.2278e-12
2.18155e-10
1.33157e-11
4.15855e-12
5.23659e-07
-8.99732e-08
-6.64724e-10
-3.25053e-06
2.7934e-12
1.43733e-10
1.41717e-12
-4.79099e-14
-1.29887e-11
1.8567e-12
6.44623e-13
-2.85773e-12
3.82938e-10
-8.53091e-12
1.32501e-12
-2.11725e-10
-4.44643e-13
1.37856e-13
1.82964e-11
0.000135542
-5.52741e-12
1.37773e-11
6.66024e-11
2.43414e-10
1.81877e-11
-8.61739e-12
2.52718e-10
3.04047e-12
-5.16207e-07
1.554e-11
1.23286e-05
3.44093e-13
2.84382e-12
5.73697e-12
-7.40665e-13
-1.3315e-12
2.57996e-10
-6.51776e-05
7.44601e-07
-1.49286e-10
5.2158e-07
-1.0456e-10
-4.34801e-14
-4.60628e-13
4.3305e-13
-3.93814e-12
0.000101251
-9.06058e-12
-3.35478e-05
-1.67271e-09
-1.45556e-10
-7.06619e-09
2.00515e-06
-4.37837e-13
1.2488e-11
-5.40804e-05
8.29708e-06
1.05414e-08
2.22356e-06
5.65347e-12
2.23212e-10
1.18395e-11
1.08753e-11
3.45789e-06
-5.25478e-12
2.03378e-07
3.90059e-05
6.38916e-13
4.09707e-12
-2.24813e-11
6.05752e-11
-1.64832e-07
-2.03905e-06
-2.75668e-05
3.29629e-11
6.9966e-12
6.34718e-05
3.59047e-06
-2.73323e-05
-1.23155e-11
4.54954e-05
-0.000111495
1.29195e-12
0.00031279
3.54155e-12
-7.99056e-10
1.11716e-12
1.30492e-11
3.67517e-11
6.15549e-09
-2.75675e-11
-4.13372e-05
-6.85434e-10
-2.68675e-11
-3.44373e-12
-1.33423e-12
-2.721e-13
7.4864e-06
6.26137e-07
-2.64974e-07
-5.91586e-11
-9.45546e-06
8.36205e-11
4.98651e-11
5.04912e-11
3.38266e-11
9.04755e-12
3.74521e-12
-5.03823e-11
1.05274e-11
5.73817e-12
1.06613e-11
1.09399e-06
1.52283e-12
-7.45235e-13
-1.64593e-06
-9.21889e-05
4.19049e-06
9.9804e-12
-2.17627e-05
-1.85634e-09
2.61284e-09
-1.60049e-11
-2.03938e-07
-1.52005e-11
-3.73623e-11
1.05435e-08
-2.47276e-07
2.31229e-06
2.34664e-05
1.50084e-05
-2.05789e-11
-3.96601e-05
-2.84376e-13
9.13575e-09
-1.21611e-09
6.27984e-12
-2.04904e-11
-1.41024e-12
-4.28352e-11
5.61311e-05
8.40832e-13
3.14721e-06
-3.59115e-12
-1.59979e-12
4.92061e-13
-2.22401e-11
-4.06943e-10
3.48255e-11
-5.22036e-10
-4.23474e-12
-1.53196e-10
1.41139e-11
1.63842e-06
3.18734e-12
1.30067e-09
-4.61163e-12
1.78272e-11
-1.74111e-11
-1.31772e-06
-2.71218e-11
6.3758e-13
-1.69973e-11
-7.5433e-11
-1.61553e-07
-4.89209e-09
-3.76118e-13
4.47629e-09
-1.59817e-05
4.08016e-11
-9.82458e-10
1.93095e-05
1.03817e-12
5.30154e-06
-3.97587e-12
2.87944e-10
-1.05501e-12
2.77822e-06
2.7064e-05
-1.87581e-10
4.17907e-05
2.12169e-10
1.61168e-11
3.18115e-05
8.18737e-12
1.39921e-06
0.00013208
-2.1319e-09
7.21729e-11
2.79993e-13
-3.4173e-12
-2.50969e-05
4.89185e-12
1.36139e-12
-3.27494e-11
3.60939e-12
2.21815e-11
-2.58551e-12
-1.44411e-12
4.52475e-12
2.20098e-08
3.16709e-12
4.12483e-06
4.42487e-12
6.69924e-06
1.28249e-12
-1.64747e-10
1.42997e-11
-3.29879e-06
-6.06977e-05
4.41358e-12
1.59775e-10
-2.60627e-06
1.36381e-13
-1.31719e-06
-4.59591e-12
-4.27684e-12
7.10245e-12
3.2229e-11
-8.72196e-11
-1.09201e-11
-6.87039e-11
5.07781e-05
2.90241e-13
3.60127e-08
6.50693e-06
5.01334e-13
-1.32333e-12
-1.19444e-10
6.60526e-06
3.70649e-10
7.89766e-13
4.95496e-05
-1.40336e-09
2.16024e-10
-2.52297e-11
-2.16119e-05
-7.50922e-12
-1.28595e-11
2.3473e-12
1.77917e-06
2.44116e-11
-9.66995e-12
-4.43189e-12
4.5608e-12
1.62472e-11
-3.89689e-13
2.791e-06
-3.72277e-11
-2.71183e-13
-3.06282e-12
0.000161139
5.34015e-07
-2.40948e-11
-1.75068e-11
-3.57902e-10
1.26959e-11
-4.1928e-13
-3.24495e-12
2.62267e-11
1.88904e-06
8.33786e-12
5.93892e-13
-1.71083e-10
9.51803e-13
3.2362e-11
-1.73049e-13
-3.12804e-13
-1.75091e-10
-2.27707e-12
-2.36977e-06
-3.11202e-07
-1.05098e-11
6.24562e-13
8.21496e-12
-3.05788e-06
-2.38858e-10
-1.39882e-13
-2.79384e-12
-6.33919e-09
9.18254e-09
8.86729e-06
-2.08109e-11
2.05311e-10
-1.52316e-09
1.4205e-06
5.15958e-12
-3.29423e-06
-9.46184e-12
-4.90939e-11
1.83257e-12
-1.71974e-12
-1.79858e-09
8.33277e-12
6.13926e-10
-5.93977e-09
3.81565e-12
-2.74898e-11
6.07489e-12
-9.46989e-13
-7.59118e-05
-1.86704e-11
-3.32084e-12
4.69321e-05
2.21278e-11
-5.9368e-13
-3.84259e-05
-8.33038e-11
2.18868e-11
-1.28846e-11
-4.44086e-12
-6.96854e-08
1.34874e-12
8.46088e-12
-3.42567e-09
-3.99209e-08
-5.9797e-12
4.74233e-06
-1.97713e-05
2.79353e-08
1.01002e-12
3.95051e-13
1.07716e-10
-3.2236e-11
4.76644e-05
5.49423e-05
-1.02815e-05
-1.98888e-12
8.43112e-10
3.13462e-13
-9.86344e-08
-1.07014e-06
-6.2142e-13
3.93047e-11
1.02531e-12
4.79383e-11
2.06018e-12
-7.87823e-11
-4.65093e-11
-6.18988e-12
1.10359e-06
1.00425e-12
8.61238e-13
-5.66278e-05
1.78825e-11
5.7004e-12
8.05713e-12
9.0712e-12
4.06763e-05
6.42703e-12
-4.63609e-13
1.99175e-11
-8.52813e-13
-1.80858e-12
1.03761e-11
-8.03758e-10
-0.000123858
-4.17391e-11
9.47648e-12
-2.77003e-09
-2.57373e-07
-5.62617e-13
-3.06023e-05
7.72729e-06
6.07517e-05
-7.01918e-11
-4.63125e-11
6.67613e-13
4.90092e-05
-1.92751e-12
2.21334e-11
1.02575e-11
-1.0113e-10
-1.61379e-05
-4.07463e-11
-1.10823e-11
-5.73702e-08
2.2031e-06
5.19761e-12
1.59998e-10
-8.89779e-05
-4.0548e-12
-1.25423e-05
4.0695e-13
4.1438e-13
-2.89813e-12
-1.14027e-11
1.32746e-11
-3.72287e-11
7.8035e-13
-1.79496e-11
-1.52519e-11
4.68292e-12
4.83258e-07
7.19184e-13
3.14662e-06
-8.51146e-05
3.54431e-06
-4.32539e-11
-1.6465e-06
-4.39875e-10
-2.33047e-07
-2.67599e-05
3.93631e-12
1.95602e-10
6.33226e-10
-1.41315e-12
2.49058e-06
-8.21271e-07
-7.56519e-13
-3.17676e-11
2.87926e-12
1.63859e-10
4.0233e-09
1.00135e-07
3.1456e-09
1.75037e-12
5.29595e-05
-3.97716e-11
1.9369e-12
6.89951e-10
9.05507e-09
-3.17575e-12
3.58952e-12
1.47135e-11
8.15161e-09
5.71698e-06
3.97292e-11
-1.32871e-12
-0.00010104
3.36911e-12
1.99898e-12
5.13862e-12
-8.82723e-10
3.70042e-12
-4.58906e-09
-4.21355e-11
-1.22591e-05
-1.16002e-10
9.7477e-11
-5.2685e-11
-1.88619e-06
1.6035e-10
3.77012e-12
4.85527e-12
-4.92104e-07
6.49385e-10
-7.69445e-12
-4.57103e-11
1.44218e-11
7.464e-10
1.21196e-12
-1.02957e-11
3.19237e-12
-1.48144e-10
4.65258e-13
-1.05665e-05
1.37151e-10
7.76572e-11
2.33275e-13
4.46005e-11
9.48316e-13
4.32892e-06
-6.83527e-07
-0.000122656
-1.61874e-06
3.01675e-12
1.70339e-08
4.55037e-08
2.2159e-12
2.95412e-10
-4.26931e-09
4.57068e-10
2.9211e-12
-7.07177e-10
1.92414e-07
-7.40848e-11
1.10394e-09
-2.68677e-12
2.23463e-05
7.89637e-13
-2.30791e-11
-5.0975e-05
6.23406e-09
-1.03796e-12
-8.32481e-13
-0.000822375
1.14284e-11
-1.89697e-10
-1.58137e-12
1.62688e-11
-4.93791e-14
1.02763e-11
-3.44042e-12
-3.27909e-05
6.85465e-12
0.000322155
1.30264e-11
-1.32547e-08
8.88209e-11
5.29815e-12
-2.99389e-06
3.88511e-06
1.84309e-10
3.14014e-07
1.85487e-06
-6.72472e-12
4.97092e-09
-1.39176e-11
7.22196e-12
9.67696e-07
1.01348e-11
5.01287e-07
-1.00279e-09
-9.52699e-12
7.16342e-13
6.113e-09
4.63104e-05
-1.21084e-12
1.2271e-09
-7.15142e-12
-7.40024e-07
-7.17422e-11
8.40217e-13
-7.10642e-10
-3.61419e-12
2.46132e-11
6.87122e-06
-5.36261e-07
5.6715e-12
2.27433e-11
5.79034e-06
1.02505e-11
2.99673e-05
-3.96513e-06
4.74562e-12
-1.53489e-12
2.63514e-09
5.87566e-13
5.35318e-06
-1.76749e-11
2.38703e-06
-3.44845e-11
1.02967e-12
6.76247e-14
1.25197e-10
2.33988e-11
-1.8839e-05
1.09886e-05
4.92894e-12
-2.03589e-13
5.36872e-09
2.0193e-06
3.53734e-11
3.69839e-07
5.41207e-11
8.2422e-11
-4.18929e-06
-1.25335e-06
2.25299e-12
-2.31465e-06
1.57692e-05
8.71546e-12
-1.67082e-11
2.63678e-07
-1.86071e-12
9.0589e-12
1.32543e-07
-6.82519e-12
-1.32063e-06
5.18397e-09
-5.92392e-13
-4.83658e-06
-7.52016e-12
-5.76383e-09
2.41699e-07
-3.64276e-12
1.92531e-12
1.65128e-12
-1.51493e-06
1.27136e-11
8.38543e-12
-9.43884e-10
-4.32833e-06
5.72263e-05
-9.73793e-11
1.36635e-07
-4.95362e-05
9.14126e-13
-9.6515e-08
1.14794e-11
7.61923e-09
1.86375e-06
-5.61631e-05
4.44266e-05
4.01631e-10
2.1968e-06
-6.43662e-11
-3.31172e-11
2.0337e-11
1.618e-12
-1.77451e-05
-1.94865e-12
3.49049e-06
-3.70061e-11
1.13914e-06
9.37728e-12
-4.77749e-13
5.45273e-05
-5.02922e-10
4.4289e-06
-8.16133e-05
-7.23856e-13
1.68542e-12
3.43626e-05
-1.5505e-11
-1.02044e-11
2.24159e-06
1.27793e-12
3.99735e-12
-2.86549e-12
0.00011677
5.80894e-12
-5.08413e-11
-1.41121e-06
-4.01328e-10
3.0443e-12
-8.89071e-05
1.89842e-12
-7.10249e-05
-5.76604e-06
9.90094e-13
2.91548e-13
-8.56749e-13
0.000128292
4.79326e-05
1.86806e-08
-3.46956e-11
-9.35201e-13
-2.09483e-12
2.19314e-10
0.000138127
-2.50443e-13
-5.56318e-05
-3.20682e-12
-3.48376e-12
2.48651e-11
-4.59092e-05
4.48561e-10
-0.000192689
3.30248e-10
3.48166e-12
-3.98233e-05
5.15616e-12
-9.93181e-13
3.89409e-12
8.6276e-11
-7.66888e-13
-4.55334e-14
0.000145982
-1.24797e-12
1.52147e-12
-1.86324e-13
1.23773e-12
-1.46744e-12
-1.51268e-06
-2.80672e-10
1.95597e-06
-5.01487e-12
1.53205e-06
7.48907e-13
-1.87443e-12
5.27757e-12
1.77299e-12
-1.0212e-11
1.08429e-12
-2.96414e-12
-6.08073e-13
5.21986e-05
1.27857e-10
1.57986e-10
-1.9637e-10
3.99926e-12
6.37162e-12
3.54659e-05
-4.8109e-07
1.7438e-12
1.08002e-12
-1.61335e-07
-1.95973e-07
-1.34187e-12
-1.61325e-07
8.40289e-07
5.50079e-08
5.06239e-10
2.72045e-07
-4.41548e-10
-1.38978e-12
1.56637e-11
-4.77196e-11
8.24675e-12
8.171e-12
1.10222e-12
-8.06663e-12
-3.75015e-12
1.73585e-06
-9.4531e-13
-4.21762e-11
1.6615e-11
6.19869e-05
2.21328e-12
2.90273e-11
-9.37777e-10
2.21707e-11
-6.67852e-12
1.78721e-10
3.93089e-05
1.17538e-10
-2.61202e-06
-3.9749e-11
2.51141e-12
1.49674e-12
3.8507e-11
-4.95783e-12
-3.17313e-06
1.79281e-07
-1.74856e-12
2.50217e-05
8.00264e-06
2.54074e-13
4.16955e-11
3.60209e-10
1.60414e-07
-5.28905e-11
4.23582e-09
-7.73654e-10
1.61402e-12
1.40395e-12
-1.14585e-11
-5.45046e-10
1.78892e-11
6.26826e-11
-2.91388e-13
-2.3469e-06
-2.10967e-06
-8.48547e-07
3.92192e-10
0.000143916
1.26193e-12
8.44591e-12
6.30865e-06
-3.38403e-07
-3.58049e-11
-9.24493e-13
-9.96857e-05
8.71473e-09
-0.000153365
-3.44187e-13
1.86969e-12
-9.57479e-14
-9.12071e-13
-4.81894e-13
4.64525e-05
4.68375e-05
3.17104e-11
-8.45329e-11
-4.16714e-12
-4.65162e-07
-4.54101e-07
6.93197e-12
-3.67469e-12
4.99227e-06
-3.57904e-12
8.95285e-13
2.84003e-05
-1.51199e-06
0.000131751
-1.13201e-06
0.000394717
1.13774e-10
-7.30224e-12
-3.58515e-12
3.62534e-10
-9.19004e-05
-7.98283e-13
-2.02966e-09
6.58639e-12
-1.65367e-12
3.22921e-05
2.66885e-12
8.03119e-08
6.88894e-11
-5.08184e-05
-2.38703e-06
-2.35575e-13
6.86128e-09
-1.7885e-12
-2.02234e-06
-2.7204e-12
-9.87476e-09
-1.02538e-10
-5.22389e-05
-1.0385e-12
-7.32514e-12
3.19577e-05
9.69395e-12
-7.85309e-12
0.000642478
-1.52899e-11
6.37338e-12
-4.48684e-11
5.62671e-10
1.38728e-12
-2.18556e-12
6.80027e-13
-8.77495e-11
-3.72968e-10
4.94241e-09
9.56521e-13
5.84542e-06
-1.35527e-07
3.19638e-10
4.59313e-12
-2.68036e-05
1.39447e-10
1.76623e-12
-1.03641e-12
1.42183e-12
5.9975e-14
-1.07107e-06
-1.18224e-08
1.05415e-05
-1.87578e-11
2.08459e-08
1.77961e-10
0.00011002
3.36479e-09
2.74148e-07
-8.17394e-10
2.59661e-12
-4.24222e-12
-2.03818e-05
2.40562e-12
-4.64184e-11
-2.30081e-13
-1.017e-11
8.90908e-06
-2.15985e-10
-7.42481e-06
-1.91413e-11
-3.00752e-11
9.79896e-05
-1.21398e-06
-4.06784e-07
9.39277e-13
1.7817e-12
-1.58313e-11
0.000224878
2.78534e-13
-4.19554e-13
-1.90089e-09
-5.09218e-05
3.70271e-12
-3.23565e-12
1.02203e-10
-5.74981e-11
9.19702e-13
7.79813e-11
1.29849e-12
4.59403e-12
-1.10745e-07
-0.000131224
-3.07668e-12
3.444e-13
6.47479e-13
9.22858e-12
0.000239659
-1.32001e-12
1.70777e-12
-5.16898e-07
-0.000145027
-1.42191e-07
-2.09435e-12
2.81412e-05
3.37209e-12
-3.21832e-11
-1.07488e-12
1.04673e-06
-3.64392e-06
-1.16115e-13
4.93173e-12
-6.5626e-06
0.000204847
-5.51734e-11
-1.14375e-10
-2.92124e-12
9.89667e-12
-2.35001e-12
-7.78868e-07
-1.02852e-06
5.93603e-10
-8.22208e-12
-5.81509e-08
1.23088e-10
5.36508e-06
6.27148e-13
3.01353e-05
2.45603e-07
3.19182e-12
9.05741e-12
-1.12307e-10
1.1255e-08
8.40146e-10
1.92646e-10
2.54374e-12
-1.30324e-10
8.7438e-14
1.52624e-12
-2.20527e-08
2.77375e-07
2.19311e-10
-4.30855e-12
1.50064e-13
7.01868e-11
-0.000867411
5.3453e-13
-1.34711e-12
-6.02795e-12
-6.46132e-12
2.83124e-12
-5.72591e-10
-7.95491e-12
2.4297e-10
-2.09326e-06
-1.70317e-11
-4.68483e-11
-0.000164127
-1.08366e-10
-7.28125e-11
-5.41833e-05
-2.01841e-12
-2.81625e-06
-9.89548e-11
-3.13982e-11
-1.15937e-12
-2.32895e-12
-1.84488e-11
-4.88408e-11
5.60582e-12
-2.37138e-05
-2.71896e-06
3.71957e-10
6.26225e-11
2.59568e-09
-5.64428e-13
9.87334e-11
5.26738e-05
4.49819e-12
-1.25687e-09
1.48521e-11
-1.1358e-05
-4.07369e-07
4.87282e-12
-2.96363e-10
-9.31876e-12
1.29581e-11
6.24449e-05
-1.35336e-12
-1.04985e-11
-2.18394e-06
-6.22388e-10
3.65293e-11
-1.18971e-12
-2.21246e-08
3.52203e-12
-2.54349e-13
1.51489e-10
-4.65445e-08
-0.000257795
4.72571e-13
-1.7273e-10
8.43878e-05
1.90417e-10
-7.01831e-07
1.028e-05
-5.25346e-12
-3.51195e-06
4.56919e-13
-7.86719e-13
-4.31176e-11
1.15243e-05
1.06369e-12
-9.17529e-12
9.07526e-11
-1.20739e-05
1.48694e-11
-5.11835e-11
-6.75525e-06
-2.56197e-13
1.03927e-12
-7.78323e-05
7.70617e-12
3.77882e-11
1.11587e-13
-3.65631e-11
2.09122e-12
6.48116e-08
-1.24005e-12
2.17132e-13
3.90989e-13
5.26665e-06
2.74226e-09
4.12047e-12
-4.51569e-07
4.15503e-12
3.11161e-05
-1.01549e-11
-3.26915e-11
1.46274e-05
1.51521e-10
1.08414e-09
1.13832e-11
-3.38936e-11
5.29827e-12
9.06531e-13
-1.96483e-06
-1.63825e-12
-1.25473e-05
-6.4403e-11
-5.38536e-10
-1.1199e-12
3.07043e-05
-3.01833e-06
3.0323e-11
-9.7585e-07
1.51468e-12
4.79792e-11
3.20741e-11
-6.04419e-11
-1.72914e-05
5.85005e-09
5.99244e-11
-5.36849e-10
5.30652e-12
7.01438e-12
1.48529e-12
3.32737e-09
8.99892e-06
-1.25303e-11
0.000116599
-3.65501e-11
-2.69655e-06
-2.08479e-07
4.1961e-09
6.35701e-12
7.0491e-11
-1.07586e-05
-1.74127e-11
8.02383e-11
-4.39729e-11
-1.80056e-06
0.000510352
-9.91297e-08
3.39419e-05
-8.04449e-11
4.2708e-05
-1.63461e-11
4.71303e-13
-3.94264e-13
-0.000179568
1.24785e-10
-7.96294e-11
-2.81262e-12
4.50846e-11
4.02586e-11
-2.22893e-06
1.80062e-11
1.22632e-08
-5.55388e-10
-7.55775e-13
-9.3436e-12
-2.63121e-06
1.03963e-10
-8.12333e-13
1.72642e-12
-4.74513e-06
2.33797e-08
2.73486e-06
3.08612e-12
-6.46888e-13
6.38164e-13
0.000127889
5.65087e-12
-1.36761e-12
-7.40651e-12
-6.98619e-06
-2.49999e-06
-3.84847e-13
9.57364e-06
-8.58644e-12
-1.05654e-11
-6.46796e-09
3.63085e-05
2.76479e-11
5.10078e-06
-6.45614e-12
-0.000149682
-4.14417e-11
1.17309e-12
-1.88887e-07
-0.000170602
9.03166e-13
-3.30568e-11
2.25954e-11
-3.76971e-13
1.46538e-11
-2.75083e-11
-1.00097e-11
-2.64739e-05
-4.8538e-07
-3.87277e-13
2.41167e-12
2.28508e-10
-9.885e-07
-2.46026e-12
-1.37943e-12
-1.08634e-12
5.72908e-10
5.69658e-12
-2.38216e-05
-6.3209e-12
-8.82588e-12
-9.5262e-12
7.15025e-10
2.052e-05
3.19939e-05
5.77252e-06
-4.5814e-05
-1.86542e-09
4.28486e-07
4.03759e-05
2.0894e-10
4.988e-05
9.83976e-12
-1.03895e-09
-1.65246e-12
1.37794e-09
3.93238e-09
-1.84523e-12
-5.68713e-07
-0.000171199
1.24328e-07
-3.77928e-07
-0.000955562
-1.27176e-09
-4.24145e-12
-1.22695e-10
7.73288e-11
-3.95061e-12
6.29582e-07
1.65574e-11
5.34441e-05
4.59185e-12
2.63645e-11
1.5103e-11
-7.24913e-06
-4.35669e-10
-1.4232e-09
3.72169e-13
1.53004e-06
2.08354e-06
2.68456e-12
-3.66901e-12
-6.96158e-07
-8.96844e-10
-2.05153e-08
-6.84513e-13
-4.89155e-11
-1.31751e-07
1.97029e-06
-3.36246e-05
2.25882e-06
1.75431e-06
-2.02011e-09
-1.51816e-05
-1.11336e-09
3.25053e-12
1.26138e-11
3.88902e-12
-2.47669e-11
5.45603e-07
-1.81007e-10
-2.22719e-10
-4.96583e-13
-8.69766e-07
2.932e-07
3.71536e-12
7.58252e-12
-1.55913e-11
3.36697e-09
-2.31413e-12
3.45257e-11
-1.30567e-10
-1.94333e-06
2.43246e-05
-1.5818e-09
1.28436e-11
7.50815e-10
4.3713e-06
1.29929e-11
-1.2683e-11
7.1342e-10
3.03612e-11
1.2197e-10
-2.75812e-12
-1.78212e-11
-3.52633e-05
4.94531e-12
-3.22402e-11
6.2057e-13
6.75734e-10
1.2173e-05
3.67405e-11
4.75716e-13
6.14728e-12
1.64419e-09
-3.71455e-10
6.42719e-09
-2.14708e-05
2.01881e-12
-3.52982e-06
-4.69274e-11
-3.27881e-05
-1.19377e-06
0.000498264
9.09297e-13
-1.96982e-11
-9.1457e-13
-7.01131e-13
-2.18541e-12
-2.67742e-09
-8.47933e-10
1.33678e-09
-1.29828e-05
-9.97713e-12
3.25494e-11
1.09258e-11
-3.95784e-11
7.06149e-06
-2.69813e-08
-7.02934e-09
2.29107e-10
6.04264e-06
4.12266e-13
-1.5313e-11
-9.68609e-11
1.20095e-10
2.22842e-07
-1.84262e-11
-7.70314e-11
-9.75558e-08
-4.56462e-11
3.37797e-05
4.66456e-05
-1.92661e-06
-8.86233e-05
-1.2288e-10
-1.1969e-09
-1.74353e-12
9.93856e-12
-2.71426e-12
-4.85675e-11
-0.000171365
4.45025e-13
-3.96693e-06
-2.32968e-13
2.22711e-11
-1.42221e-06
-1.03653e-12
-8.60116e-12
-1.52767e-12
5.88649e-12
1.58573e-06
3.46481e-13
-2.30485e-12
2.46766e-10
1.61826e-11
-6.45578e-11
-3.64589e-06
0.000122542
3.79878e-06
4.97855e-05
-8.34887e-12
7.60319e-12
-2.02809e-07
-2.8785e-06
3.251e-12
-0.00024485
1.27322e-09
1.56248e-08
4.62004e-09
6.01203e-05
1.61213e-12
0.000344304
-9.28452e-06
8.24212e-07
-3.32453e-05
-2.11001e-11
7.80038e-12
-9.89268e-12
9.07412e-13
-3.16974e-14
-1.39121e-12
7.05245e-11
1.24607e-06
-2.8163e-06
9.58526e-12
-1.50198e-12
-1.05565e-10
-2.04167e-12
1.78431e-10
2.84397e-06
-0.000232721
-6.30846e-13
3.10413e-09
-2.4594e-07
-1.4749e-05
1.07882e-12
-2.46995e-05
-0.000151883
1.20441e-08
7.14562e-07
4.97903e-07
6.52958e-12
-3.32471e-11
-9.70612e-12
3.05609e-12
-6.68974e-12
-1.73953e-12
1.02132e-11
-7.39041e-11
-1.60239e-06
-4.02573e-08
-2.32616e-11
-1.05009e-09
2.63494e-05
-1.04744e-12
-1.633e-05
-8.40276e-12
-9.64007e-12
1.57513e-07
-4.52939e-13
1.17464e-11
4.67615e-07
4.64715e-12
-4.86929e-12
-5.82846e-05
-1.59581e-11
2.89705e-11
-2.53708e-06
1.24277e-12
-0.000152895
0.000471031
0.000245512
8.74752e-13
-5.42641e-11
4.20638e-13
2.96197e-12
-1.66804e-12
5.05968e-06
4.69251e-12
-1.19951e-10
-4.1494e-12
-4.90795e-12
-1.21058e-05
0.000107285
-1.08964e-09
-7.50849e-11
-1.15577e-11
6.67369e-12
2.41446e-10
-5.31456e-11
2.29524e-07
1.03966e-11
-0.000242893
-4.73743e-07
-2.57116e-05
-2.19187e-12
-0.000879453
-2.79245e-05
-6.10582e-08
1.02671e-08
-1.0389e-12
6.07997e-12
2.85809e-06
-2.1307e-06
-0.000114084
-1.12321e-12
1.1545e-10
-2.30123e-05
6.64238e-14
1.45812e-12
1.4442e-11
8.67728e-14
-4.22164e-11
-3.54418e-12
-2.54197e-11
1.91064e-11
3.6694e-08
2.81829e-07
-1.87863e-06
-5.94168e-12
4.20704e-10
1.60706e-05
1.083e-09
-1.91765e-10
2.95483e-13
-1.122e-08
-1.33351e-11
-3.53755e-12
6.53429e-12
0.000119432
-3.10776e-11
-9.89946e-05
2.07064e-07
-1.64088e-10
6.00198e-09
2.61837e-11
1.71843e-05
3.18098e-11
-2.40549e-10
6.77813e-13
-0.000166424
0.000125361
7.8201e-13
1.32884e-07
-3.33856e-11
0.000126572
-5.70383e-11
-1.28827e-11
0.000132079
0.000338718
1.72797e-12
2.42018e-06
1.44933e-05
1.07879e-11
0.000197559
-2.18545e-11
3.6018e-05
7.02145e-11
-1.4511e-10
-1.33098e-10
-1.43519e-07
-5.22134e-06
4.72317e-10
3.82844e-12
-8.08577e-12
7.02247e-05
-8.37824e-13
1.39848e-12