/*--------------------------------*- C++ -*----------------------------------*\
| =========                 |                                                 |
| \\      /  F ield         | OpenFOAM: The Open Source CFD Toolbox           |
|  \\    /   O peration     | Version:  v2012                                 |
|   \\  /    A nd           | Website:  www.openfoam.com                      |
|    \\/     M anipulation  |                                                 |
\*---------------------------------------------------------------------------*/
FoamFile
{
    version     2.0;
    format      ascii;
    class       surfaceScalarField;
    location    "250";
    object      ddtCorrDdt0(phi);
}
// * * * * * * * * * * * * * * * * * * * * * * * * * * * * * * * * * * * * * //

dimensions      [0 3 -2 0 0 0 0];
oriented        oriented;


internalField   nonuniform List<scalar> 
27642
(
0.000201214
0.00230296
-0.00250417
-0.000426117
-0.00015653
0.000582627
-1.35591e-05
2.37739e-05
-1.02148e-05
-5.3352e-05
-7.60295e-05
0.000129383
-1.054e-05
-3.01914e-06
3.88605e-07
-2.77634e-08
-3.60927e-07
0.000492321
3.94444e-05
-0.000531767
1.42066e-07
-1.42066e-07
2.56791e-06
-2.2025e-06
-3.65528e-07
-3.58055e-05
2.38134e-06
3.34241e-05
2.23854e-06
-3.8061e-06
1.56754e-06
0.000311803
0.000310026
-0.00062183
-2.22622e-07
4.34556e-07
-2.11832e-07
0.000435086
-8.71211e-05
-0.00034797
0.00217894
-0.000955214
-0.00122372
0.000448639
-0.000136836
-1.4656e-05
-3.94145e-05
5.40705e-05
-8.31221e-05
-0.000733595
0.000816715
0.00739392
-0.00690378
-0.00049013
-7.87058e-05
-0.00283071
0.00290942
0.00138019
-0.00146331
9.64072e-07
6.87093e-06
-7.83503e-06
0.000170122
-0.000149783
-2.03399e-05
-3.88423e-06
3.07772e-06
8.06493e-07
3.08045e-06
-1.10607e-06
-1.97423e-06
0.00679453
0.000599389
-4.11322e-06
3.81371e-06
2.9953e-07
9.98735e-06
-0.000127791
0.000117803
2.26534e-07
8.61894e-08
-3.12841e-07
-1.48581e-05
1.12612e-05
3.59688e-06
0.00238015
1.89634e-06
6.71513e-07
0.000809147
-0.00123528
3.3043e-06
-1.06576e-06
0.00184358
-0.00320639
0.00136281
-1.84843e-05
-1.74627e-06
2.02305e-05
3.17562e-05
-1.28425e-05
-1.89134e-05
1.14246e-06
1.93806e-06
-4.30198e-07
-2.87379e-05
2.91675e-05
0.000322166
-0.000884275
0.000562108
9.45656e-05
-8.45777e-05
-4.51952e-06
2.13624e-06
2.38326e-06
1.46557e-06
-4.26146e-06
2.79588e-06
2.01926e-05
-2.06227e-05
1.23689e-05
-1.96766e-05
7.30756e-06
0.000516737
-8.16511e-05
2.78186e-06
-2.17312e-07
-2.56451e-06
0.00074637
-0.000424203
-2.95711e-06
2.55414e-05
-2.25841e-05
1.43779e-06
-3.57747e-06
2.13963e-06
0.000766562
-0.000752153
-1.44096e-05
1.25203e-06
3.29772e-06
-4.5498e-06
7.67168e-06
7.35949e-06
-1.50312e-05
-0.000212388
0.000298743
-8.63554e-05
4.03836e-08
4.5041e-07
-4.90391e-07
5.69492e-06
-2.41792e-05
0.00188103
-0.000410757
-0.00147028
0.000217915
-0.000206367
-1.15477e-05
4.41714e-05
-5.19982e-05
7.82792e-06
-0.00267451
-0.00222845
0.00490296
-5.59157e-06
1.26889e-06
4.32269e-06
2.76822e-06
-1.92297e-06
-8.45196e-07
-2.70991e-06
1.03816e-05
0.000195837
-1.46572e-05
-0.000181174
3.0254e-05
-3.32109e-05
-2.08266e-05
1.48497e-05
5.97686e-06
-1.78095e-05
1.23443e-05
5.46584e-06
-1.2269e-05
-8.55761e-06
-3.19473e-06
1.60476e-06
1.59e-06
0.00068627
0.000233878
-0.000920141
1.32865e-06
2.12324e-05
-2.2561e-05
-1.23585e-06
8.8191e-07
3.54002e-07
7.98408e-07
-2.97378e-07
4.33775e-07
-2.07265e-07
1.38057e-06
-2.98729e-06
1.60672e-06
7.33844e-07
-8.23506e-07
8.96348e-08
-1.9456e-07
-5.39693e-06
8.26115e-06
-1.04951e-05
2.23393e-06
1.00391e-05
-1.77789e-06
-2.91327e-06
2.85638e-06
5.70559e-08
3.17865e-06
-1.74088e-06
-2.32544e-06
1.28742e-06
-9.37545e-07
-3.49915e-07
-2.27604e-06
-9.18629e-07
-2.04636e-07
-3.81001e-08
2.42774e-07
2.77946e-07
5.20631e-07
2.17267e-06
6.09203e-07
-0.00186805
0.00324824
-0.000543977
0.000787148
-0.000243171
0.000192954
-0.000139157
-5.37973e-05
1.45584e-06
3.03002e-05
1.78423e-05
-3.42733e-05
1.6431e-05
5.34338e-07
5.82718e-10
-5.35201e-07
2.38033e-06
-2.20642e-06
-1.73992e-07
1.60364e-06
1.57506e-06
-3.82821e-07
4.22984e-07
2.27535e-05
5.8051e-06
-2.85582e-05
-0.00131657
0.00200285
-3.97977e-05
3.99235e-06
-9.45501e-06
1.77454e-05
-8.29025e-06
0.00063124
0.00124979
0.00123099
-0.00164174
0.000219333
-0.000656961
0.000437627
0.0019759
-0.00384395
-0.000662061
0.000228723
0.000433338
7.71716e-05
8.93602e-06
-8.61044e-05
0.000301223
-6.08297e-05
-0.000240394
0.000107435
-4.10921e-06
-0.000103327
2.72088e-06
-5.15169e-07
-2.20572e-06
-0.000152931
-0.000327088
0.00048002
4.68471e-05
0.000401792
2.76192e-06
-1.15825e-06
-1.88508e-05
0.000188973
0.000468434
-0.000249101
2.78034e-06
-8.84039e-07
-0.00510547
0.00673551
-0.00163003
2.14516e-06
-2.29844e-06
1.53489e-07
1.46281e-06
-4.57994e-07
-1.00483e-06
-0.000229616
0.000276463
3.58389e-07
-2.76337e-06
2.40516e-06
-0.00562986
0.000524383
0.000365682
-2.51959e-05
-0.000340486
0.00667361
-0.00266468
-0.00400893
3.904e-06
-2.43844e-06
-5.07894e-07
-7.28079e-07
-0.000297628
-0.000125656
0.000423283
0.000744487
-0.000574584
-0.000169902
2.80789e-06
-2.44941e-06
-2.5678e-06
-1.95174e-06
-0.000204388
0.000102208
0.000102181
0.00045444
-8.87578e-05
-8.03652e-05
-5.15273e-05
0.000131898
0.000122642
0.000215408
-0.00033805
6.33072e-07
1.90814e-06
-2.5412e-06
2.19872e-05
-1.79458e-06
-0.000102132
0.000102224
-8.93523e-08
-3.19358e-06
-9.19647e-07
8.22567e-06
-7.97495e-06
-2.50724e-07
2.57148e-06
5.65418e-06
-0.000301267
3.25144e-05
0.000268755
-8.47476e-07
4.5807e-07
3.89083e-07
1.80238e-05
-4.63554e-06
-1.33883e-05
4.01444e-05
-2.60608e-05
-1.40838e-05
5.26739e-05
-0.000175616
0.000122954
-0.000245496
0.000218588
2.69084e-05
-4.26962e-05
3.22567e-05
1.04396e-05
-0.000120522
-0.000541538
-1.29629e-06
1.46499e-06
-1.68725e-07
-0.00260022
0.0044438
4.70153e-06
1.33223e-05
1.5644e-06
1.21591e-06
-0.000270897
-6.97057e-05
0.000340609
0.000268727
-0.000101609
-0.000167119
0.000202287
7.46613e-05
-0.000277073
-2.06664e-05
2.86732e-06
1.7799e-05
1.63003e-06
7.50137e-07
0.000241648
2.7079e-05
-1.80225e-05
0.00119613
-0.00117811
3.85832e-07
1.18089e-06
-1.56695e-06
4.62941e-06
-5.55243e-06
9.23015e-07
-9.33137e-05
-8.81664e-06
-0.0017033
0.000748092
0.000171019
0.000130204
-4.05138e-07
1.82319e-07
7.10117e-05
-0.000129746
5.87299e-05
-3.67971e-05
-2.22848e-05
5.90815e-05
-0.000478274
0.000440905
3.73691e-05
1.31572e-07
-5.80799e-07
4.49374e-07
4.47882e-07
8.39527e-07
-1.75037e-07
2.61137e-07
3.88435e-07
0.00034178
-0.000219138
-0.000815954
-2.07121e-05
0.000836666
1.58194e-05
0.000116952
-0.000132772
0.000146886
-0.000962841
-0.000697939
0.000464478
0.000233461
-0.000106428
0.000171968
-6.55399e-05
-0.000349458
-0.000348481
2.20198e-07
2.58785e-06
-2.42747e-06
2.64778e-06
-2.31404e-05
-1.31086e-05
3.29531e-06
-1.61943e-06
-1.6759e-06
-6.87102e-06
1.0793e-06
5.79181e-06
0.000102487
4.76195e-05
-0.000150099
1.83832e-07
2.96189e-08
-2.13454e-07
2.95174e-05
-1.16751e-05
-3.23929e-05
-0.000268874
-2.0378e-06
2.94294e-06
-9.05209e-07
-9.06874e-06
9.31058e-05
-8.40367e-05
0.000143932
-0.00018073
2.37258e-05
-0.000208163
0.000184438
2.7598e-08
2.11778e-06
-4.18848e-08
-2.7214e-06
-0.00151553
0.00214677
-0.000234302
0.000127875
-0.000254134
-0.00022414
6.9331e-06
5.76409e-08
-6.99071e-06
-5.38263e-05
7.05325e-05
-1.67061e-05
-8.71277e-06
1.93868e-05
-1.0674e-05
0.000510599
0.000271557
-0.000782155
1.71273e-05
6.84656e-05
-8.55923e-05
-1.20797e-06
-1.61806e-08
1.2239e-06
-9.0687e-05
-8.5217e-06
9.92085e-05
0.000225023
-0.000293559
6.85354e-05
-0.0001606
0.000927162
1.44665e-07
-6.07629e-07
4.63467e-07
7.89719e-06
2.62114e-05
-2.47556e-05
-0.00013475
4.40627e-05
0.000461614
0.000282872
-5.07428e-07
6.52913e-07
1.12711e-06
2.17719e-06
1.92027e-05
-1.91875e-05
-1.52302e-08
-1.8069e-05
2.17084e-05
-3.63918e-06
-0.00097959
0.000435613
-1.64181e-06
2.27501e-06
-0.000519728
0.000248834
-0.000486445
0.000496865
-1.04207e-05
0.000183185
-0.000159459
1.01834e-06
-4.82513e-07
-5.35833e-07
-0.000553396
0.000203938
-0.000405183
0.000360537
4.46467e-05
9.36007e-05
9.93534e-05
-6.72048e-06
6.77819e-06
1.72286e-05
1.97417e-06
-7.32605e-05
1.94342e-05
-1.42291e-07
2.28962e-05
5.95394e-05
-0.000189956
0.000130417
8.87716e-06
-1.83318e-05
-1.87528e-05
1.004e-05
6.90857e-05
-3.12111e-05
-3.78733e-05
0.000102216
-0.000746487
0.000644286
5.6935e-07
-8.84627e-07
3.15675e-07
2.37394e-05
-2.13582e-05
-1.01566e-05
-3.38841e-07
5.81807e-07
-2.42745e-07
-2.01517e-05
-2.25445e-05
7.92143e-05
-0.000132566
3.04801e-06
-1.50909e-06
-1.53892e-06
0.00025078
-2.57565e-05
2.756e-06
-1.47179e-06
-1.28424e-06
-1.42728e-08
1.98211e-07
8.86162e-05
-9.76844e-05
-1.52661e-06
-5.34446e-06
4.76584e-06
-1.36396e-07
-3.95927e-07
-2.48447e-07
6.44793e-07
-6.44346e-07
3.45959e-07
2.98461e-07
1.54524e-05
5.15721e-06
-2.06096e-05
-6.25481e-06
6.40126e-06
-1.46376e-07
2.10996e-06
-2.25529e-06
1.45328e-07
7.25848e-05
0.00014533
1.60255e-05
-3.96927e-06
-1.20562e-05
-0.000395816
0.000906416
0.000340646
-0.000254104
-8.6541e-05
-2.00804e-07
7.35106e-07
1.02153e-05
-2.0614e-06
-8.15398e-06
3.21672e-06
-2.02533e-06
-1.19143e-06
-0.000247821
-0.000305575
2.85097e-06
-1.28654e-06
-0.000680523
0.000136829
0.000543692
2.29672e-05
-2.1899e-05
-1.06816e-06
-2.53954e-07
3.96025e-07
0.000291986
4.86608e-05
7.99823e-06
8.02732e-06
1.41432e-06
1.80236e-06
-0.000219055
-0.000169902
0.000388957
-1.45121e-05
1.91597e-05
-4.6476e-06
1.3074e-06
2.36838e-06
-3.67582e-06
-2.1163e-05
1.42631e-05
6.89989e-06
0.000188278
-0.000407333
-1.31463e-05
1.25813e-05
5.64923e-07
1.6781e-05
3.00904e-05
0.000157301
-0.00018739
-7.78247e-06
-5.36376e-06
-5.86169e-06
3.48748e-06
2.37427e-06
-0.000295114
0.000179292
0.000115823
-2.01456e-06
-8.45642e-07
2.86006e-06
-0.00316673
0.00514263
0.000980239
-0.00100095
0.000423289
0.000212523
-0.000635806
8.35221e-05
2.39113e-05
0.000618818
-0.00144617
0.000827315
-1.1747e-05
9.0371e-06
0.000192167
0.000149613
0.00122669
-0.000765072
-0.000254677
0.000450513
0.000740203
0.000240036
-4.71634e-07
2.62861e-07
2.08618e-07
0.000473289
-0.000748744
0.000275455
-0.000118511
0.00111748
-0.000998969
1.91753e-05
4.93263e-06
-2.4108e-05
-0.00274599
-0.000221078
0.00296707
-1.45217e-06
-2.35395e-06
3.90143e-05
-9.51497e-05
5.61358e-05
-0.000121954
-8.24327e-05
-1.52862e-06
-7.69797e-07
0.000694809
-0.000389807
-0.000305003
0.000120473
-8.14588e-05
-4.08207e-07
2.51817e-06
0.00228361
-0.00545034
-2.86641e-06
1.68534e-06
1.18098e-06
-2.5662e-06
5.28455e-07
0.00140896
-0.00130676
-4.57841e-06
-1.32308e-05
-2.15789e-05
1.84255e-05
3.15333e-06
0.000536022
0.000158786
1.55243e-06
-1.26607e-06
-2.86261e-07
-1.1664e-06
1.28748e-06
-1.21132e-07
-2.24104e-05
1.74399e-06
-2.18045e-05
2.25612e-07
1.77759e-05
-1.26187e-05
-5.66138e-08
1.83028e-06
-1.77371e-06
-0.000140196
0.000563491
2.79097e-05
-4.94255e-06
1.76337e-05
-4.05173e-07
0.000363671
0.000109618
-5.5363e-06
3.17478e-05
6.07421e-07
-1.57354e-06
9.66092e-07
0.0056312
-0.00207396
-0.00355724
-2.08198e-06
3.96559e-05
-8.55269e-06
-3.11031e-05
-2.47948e-06
4.64842e-07
-1.12122e-06
-1.69294e-06
2.81418e-06
-1.35037e-07
2.57261e-06
-2.43753e-06
0.00347034
-0.00354905
-0.000287817
-0.000215383
0.0005032
7.92681e-06
-8.02593e-06
9.94042e-08
-0.000101392
2.14239e-06
1.54914e-05
0.00097678
0.00569683
8.36966e-07
1.88391e-06
-5.36361e-05
0.000113175
-1.32868e-06
3.23968e-08
0.000208041
-9.98427e-05
-0.000108198
-1.67759e-06
-2.20666e-06
-0.000274406
-0.000406121
3.62898e-07
-7.25168e-08
-2.90156e-07
2.66531e-05
-4.13092e-05
-6.84668e-05
-0.000483916
0.000552381
-2.62918e-06
-2.69795e-05
-1.75876e-06
6.45248e-06
-1.3754e-06
-5.07707e-06
0.000152228
0.000275263
-0.000427491
6.36452e-06
2.06115e-05
-2.69761e-05
0.000109113
-0.000210722
9.88643e-07
-3.81235e-07
6.5657e-07
-5.90112e-07
-6.67762e-08
0.00295669
-0.00021341
0.000365638
7.49326e-05
7.22112e-05
-0.000147142
6.47466e-06
-7.94912e-06
1.47441e-06
-3.01786e-05
1.21096e-05
1.84832e-06
8.36696e-06
-4.09564e-05
7.10457e-05
0.00016657
-0.000113885
5.05827e-07
-2.29977e-07
-2.75773e-07
-2.99415e-05
7.41134e-05
0.000663955
-0.000951772
-0.000976321
-0.000369397
0.00134572
-9.68215e-07
1.7631e-05
-1.66626e-05
0.000246593
-0.000217992
-2.86007e-05
0.000643574
-0.000499641
-0.000153076
0.000262189
6.6211e-07
-3.27256e-07
-3.35482e-07
-0.000143105
-0.000135285
0.000278391
-1.4601e-07
-2.91558e-08
0.000184603
0.000307717
4.5951e-06
-2.50972e-06
-2.08534e-06
5.34925e-05
0.000154549
-2.60851e-06
2.56673e-06
2.39133e-07
-4.50009e-07
2.10849e-07
3.45221e-05
-1.02685e-06
-3.3495e-05
-1.39342e-06
2.85848e-06
-1.46512e-06
4.2558e-08
7.31822e-08
-0.000137716
5.73518e-05
-2.99089e-06
1.68107e-06
1.30978e-06
3.01493e-06
-1.02679e-06
-1.98819e-06
5.05452e-06
-2.58331e-06
-2.47105e-06
-1.12504e-06
1.28868e-06
-1.6351e-07
-2.16211e-06
6.33472e-07
9.52285e-06
-5.39698e-05
4.4447e-05
-0.000326947
-1.11212e-05
0.000338074
-0.00113692
7.31278e-08
-2.77825e-07
1.01013e-06
-3.13655e-06
2.12633e-06
-0.000234164
1.20648e-05
-4.70533e-06
1.62476e-06
1.39013e-06
-0.000129186
0.000392982
-0.000263796
1.25657e-05
-1.18994e-06
-1.13755e-05
2.38326e-06
2.21186e-06
-0.00063668
0.000483749
1.20605e-06
1.136e-05
3.4205e-05
-0.000134996
0.000150808
2.71021e-07
-5.59703e-07
2.89108e-07
-1.93084e-06
-0.00623012
0.00415616
0.00172783
-0.00107814
-0.000649682
-2.73751e-06
-4.75942e-07
-1.00522e-05
-7.81739e-05
8.8226e-05
3.92959e-06
-2.85704e-06
-1.07254e-06
1.56561e-05
-1.66242e-05
-3.74974e-05
-3.57631e-05
0.00042819
7.35988e-05
-8.36512e-05
-0.000878162
0.000894553
-1.63913e-05
3.869e-07
2.69506e-07
-1.5042e-05
8.60529e-05
7.07043e-05
-1.71592e-07
-4.89017e-07
8.43104e-07
-3.543e-07
-0.000171734
9.29911e-05
7.87422e-05
-0.000172837
-0.00012479
0.000943305
-0.00106182
-4.35653e-07
1.00512e-06
-0.00291589
4.58569e-05
7.71374e-06
-5.35693e-05
-0.00268776
-0.000337378
-0.000322554
0.000193368
4.1141e-06
-2.38409e-06
-1.73002e-06
-6.94001e-07
4.97261e-08
6.44388e-07
-2.7435e-06
1.80638e-05
-0.000576159
0.000507691
-1.95731e-05
-0.000136954
0.000444801
-0.00178472
0.00133992
1.57278e-07
-1.94242e-07
3.69483e-08
-6.55039e-07
-3.89912e-08
5.16324e-07
-2.7682e-07
-7.75839e-05
-6.5208e-05
0.000142792
-6.74682e-07
5.6746e-07
1.08109e-07
-3.12233e-06
1.60296e-06
1.51934e-06
-5.83445e-09
-5.68039e-08
6.26728e-08
-0.000204661
-1.33305e-05
4.23732e-08
4.63662e-07
1.36257e-06
-5.4135e-06
1.86305e-06
5.03585e-07
-2.36677e-06
1.46281e-06
-7.12136e-07
2.09271e-06
-7.69346e-06
7.79505e-06
-1.01651e-07
0.000623211
-5.01688e-05
-0.000573044
0.000212316
3.84629e-05
-8.1654e-07
1.19737e-05
-1.11572e-05
3.57478e-05
-4.44615e-05
8.71369e-06
7.61611e-05
-0.000153745
-8.82502e-07
-4.66991e-06
0.000219345
-0.000214447
-4.8974e-06
0.00039048
-3.61701e-05
-0.000354312
1.33503e-07
2.29549e-07
-3.86551e-06
2.33529e-06
1.53018e-06
-2.60964e-07
-2.1096e-07
6.42782e-05
0.000326201
3.07623e-06
-6.13211e-06
3.05587e-06
1.83425e-07
-2.61831e-08
-6.42751e-07
4.68595e-07
1.74508e-07
1.41668e-06
1.43425e-06
4.32099e-07
7.93012e-07
-5.91854e-08
0.000546467
-0.000507023
1.84644e-07
8.33684e-07
-2.04783e-05
3.62198e-05
-1.57415e-05
2.41886e-06
-5.55847e-07
2.76129e-06
-3.85358e-06
1.09224e-06
7.43139e-06
9.05273e-07
-2.61519e-07
-6.43689e-07
0.000131807
-0.000274911
-2.09581e-08
2.22741e-07
-2.01718e-07
1.55486e-06
1.74045e-06
-4.05768e-07
-4.73908e-07
8.79643e-07
7.60962e-08
-1.35603e-07
5.93563e-08
6.76748e-06
-3.15014e-07
-2.47742e-05
5.14274e-05
0.000821081
-2.43751e-06
5.51375e-06
7.59454e-06
-1.11981e-06
-1.75987e-07
3.39137e-08
-5.00216e-07
-1.42478e-07
-7.35172e-06
6.85811e-08
7.2831e-06
4.41819e-05
2.49041e-05
2.20141e-06
-3.37005e-07
-1.86459e-06
-2.88565e-06
2.54481e-06
-1.14332e-07
-2.36039e-06
2.47473e-06
0.000126497
-0.000148782
-6.23109e-05
-2.29585e-06
2.18152e-06
0.000196556
1.57604e-05
-0.0005105
-0.000935682
0.000329468
-0.000799955
0.000470487
-0.000189807
6.21027e-05
0.000127704
0.000110233
-1.14654e-05
3.68291e-06
-2.65225e-05
-0.000163285
-0.000591365
8.0844e-05
-8.89391e-06
1.10961e-07
-5.69812e-07
4.5891e-07
-0.000443916
-0.000290045
0.000733961
3.17194e-05
-0.000191177
0.000342115
0.000199144
-0.000213795
-8.18075e-06
-2.31437e-06
9.41131e-05
4.53757e-07
-5.42322e-07
6.35433e-07
-9.31858e-08
1.53958e-06
1.22868e-06
1.47512e-05
2.86616e-06
2.11551e-07
-0.000699175
-4.72959e-05
-1.37785e-07
1.32002e-07
-0.00306906
0.000238347
1.53703e-05
-2.32411e-07
5.09184e-07
-2.76624e-07
-0.000512709
0.000185621
-0.00296338
0.000275617
-0.000309504
0.000436001
-0.000538151
0.000880271
-0.000607725
-0.000214217
0.000821941
4.06206e-07
-2.36062e-06
1.95442e-06
-1.88964e-06
-0.000268407
1.39927e-05
3.4349e-08
7.89279e-06
-0.000286917
1.85104e-05
-0.00123635
0.00121833
-1.18983e-06
-1.82572e-08
7.4018e-06
-8.56688e-06
1.1651e-06
-0.000677216
0.000721416
-4.42003e-05
-0.000892251
0.000196895
0.000695357
0.000101519
-6.97993e-05
-5.37651e-09
-5.36769e-07
1.67783e-07
-7.58106e-07
-3.26733e-06
1.87949e-06
1.38787e-06
1.30294e-06
-2.77474e-06
-6.48096e-06
1.44792e-05
6.31781e-06
3.72125e-06
-3.91506e-06
2.64485e-06
1.27013e-06
-0.0052649
4.27447e-07
-2.57922e-07
-3.67278e-06
3.93067e-06
0.000435054
0.00597727
-2.68537e-05
-3.14315e-06
2.99978e-05
-0.000798637
0.00162597
-3.11432e-07
5.82608e-07
-0.000112586
0.000331174
-0.000492727
0.000715755
-0.000223028
3.50732e-06
-4.29217e-05
1.95763e-07
-2.23517e-07
-0.00018389
-0.000473071
-0.000174349
2.6573e-05
0.000147776
2.35343e-05
-4.66661e-05
-0.000717573
4.03567e-05
-1.76633e-06
5.39091e-07
1.22724e-06
-2.05878e-07
-1.04071e-06
8.50115e-07
1.90279e-07
0.000224847
-0.000199694
-2.51522e-05
-7.59994e-06
5.09511e-06
2.50474e-06
-0.000121064
0.000115252
5.81283e-06
5.32882e-06
-6.43067e-06
1.10187e-06
-1.50028e-06
-1.76704e-06
1.55884e-06
1.48916e-06
3.34572e-06
-1.78688e-06
-1.2325e-05
-0.000194043
-2.12087e-05
-0.000265709
3.69624e-05
-2.78919e-05
-9.07054e-06
-0.000210914
0.000739292
-0.000387898
-0.000351394
2.34014e-07
-2.04416e-07
2.4524e-05
1.95919e-07
-1.21129e-05
4.1326e-06
7.98022e-06
-1.61406e-05
9.24723e-05
0.000189584
-0.000282056
2.64992e-08
-3.87177e-07
3.60486e-07
-2.37893e-05
1.09467e-05
-4.14168e-07
7.3504e-07
-3.21046e-07
-1.20142e-05
7.94051e-06
4.07366e-06
-3.5809e-07
3.8459e-07
-0.000113758
-0.000147087
0.000260846
-8.74017e-07
-8.80344e-07
1.75453e-06
5.39362e-07
-2.46232e-06
-3.00149e-07
-1.46618e-06
-0.000103721
-6.15234e-05
0.000165248
-0.000444511
-4.19344e-05
-0.00015845
-3.15056e-05
8.61776e-05
-2.06208e-05
-6.55569e-05
-5.29269e-07
2.97019e-07
5.10684e-08
0.000148333
-0.00299005
0.00284172
-0.0032074
0.00191167
0.00129573
-1.20121e-06
1.6051e-07
-6.87068e-06
-3.02611e-06
9.89675e-06
-2.06092e-06
9.39712e-07
1.8045e-06
-2.41165e-06
6.07105e-07
1.17376e-05
6.07027e-07
-2.18358e-06
-6.13759e-08
2.245e-06
8.03563e-06
4.33921e-05
9.22208e-06
-3.60764e-05
-1.71847e-06
-7.39159e-07
2.45755e-06
-0.000588798
0.000293803
0.000294994
8.55073e-07
-2.91638e-05
2.83088e-05
0.000126873
-6.39984e-06
8.82765e-07
-8.23457e-06
-9.12839e-06
2.25771e-06
3.71103e-05
6.02969e-06
-4.31399e-05
-2.41402e-06
6.95498e-07
3.42156e-06
-2.11419e-06
-0.00138791
0.0032417
-0.00185379
5.68963e-05
0.000162449
-0.000131577
-0.000195366
1.29189e-05
-1.93999e-05
6.65838e-05
-5.7647e-05
-3.51249e-06
1.64314e-05
0.00105867
-0.00244658
-0.00132172
0.000711231
-2.43777e-06
-1.47731e-06
1.79709e-06
-2.45138e-06
6.54232e-07
2.59821e-05
-2.51269e-05
-0.00073856
0.000305945
0.000432615
-8.40337e-06
4.73805e-06
3.66531e-06
-6.29572e-07
-1.53252e-06
-6.16945e-07
-0.00037864
0.000128975
0.000249665
0.000254054
4.0035e-06
-4.26142e-06
-7.31226e-05
9.06422e-05
-6.60402e-05
-2.4602e-05
4.70525e-05
-0.000230836
-2.28297e-06
3.29307e-06
1.39763e-06
4.48559e-07
-1.84613e-06
1.35761e-05
-1.23696e-05
4.92234e-07
4.27361e-06
0.000117078
9.79468e-06
0.00013018
-7.4506e-05
-5.56738e-05
1.20409e-07
0.00156046
3.15214e-05
5.46563e-05
-4.09643e-07
-4.37496e-07
-0.00268658
0.00344638
-0.000759814
8.27373e-06
-3.43344e-05
3.50304e-05
-1.6824e-07
2.74603e-08
1.40722e-07
-2.3708e-05
0.00174886
-0.00172515
0.000175093
4.97537e-05
0.00352083
0.00327371
-6.6984e-07
-4.96595e-07
1.40522e-06
1.21712e-05
0.000252655
-0.000135695
3.88105e-07
-1.6541e-06
1.15658e-06
-6.97444e-07
-4.59205e-07
4.67824e-06
2.91615e-06
8.12699e-07
8.57632e-07
-1.67021e-06
0.00232149
-0.00217315
-1.41787e-07
0.000101326
-2.6719e-05
-3.47456e-06
-0.000386332
0.00100198
-0.00104088
3.88967e-05
-6.46894e-07
0.000989707
-0.00156309
0.000573386
-1.11934e-06
3.4877e-06
-1.93374e-07
5.353e-08
1.39813e-07
7.3291e-07
1.05283e-05
0.00373373
0.00300178
5.66318e-07
-4.06228e-07
-1.60297e-07
2.71996e-07
1.50093e-06
-1.77298e-06
-2.55537e-07
3.66645e-07
-1.85398e-06
-1.01248e-06
0.00207279
-0.0021808
0.000108005
-3.15623e-07
7.73407e-07
-3.76375e-05
1.06579e-05
1.93674e-06
2.82106e-06
9.92655e-07
2.27647e-06
-1.05259e-06
-1.22388e-06
0.000617242
-0.000152764
-9.6286e-05
-0.000492512
-2.00342e-07
1.87675e-07
1.26338e-08
-2.98095e-06
2.3683e-06
6.12631e-07
-0.000730594
0.000858325
-0.00012773
0.00204838
0.00049948
-0.00126292
3.30355e-05
1.48671e-06
-0.000105274
0.000197746
1.61601e-06
-1.1102e-06
-5.05909e-07
-0.000232613
0.000136327
0.00066095
-0.000543069
-7.94182e-07
1.84545e-06
2.51949e-05
-7.71925e-05
-0.00070378
0.000253706
0.000450074
3.14336e-06
-2.30639e-06
-6.95255e-05
-3.62575e-05
-1.73789e-05
-0.000564556
0.00171808
-0.00115352
2.98458e-07
-3.82867e-07
8.47875e-08
-1.87587e-06
1.24627e-06
-1.35641e-06
1.62845e-06
-8.04894e-05
-6.92927e-05
0.00154365
-0.00109885
0.00199162
0.000311332
8.65439e-07
6.53639e-06
-4.86712e-05
-2.62588e-05
7.49311e-05
-0.000292771
0.000289297
-2.52636e-06
-6.82702e-07
3.20907e-06
-0.000693116
0.000317676
0.000375441
1.25843e-05
-1.65536e-05
2.16294e-06
-1.77995e-06
-3.82873e-07
1.1177e-05
-0.000151621
-4.5448e-08
-1.22816e-07
-2.73227e-05
5.08629e-05
-5.07501e-07
1.32028e-06
3.0049e-07
-7.89557e-07
4.05492e-07
1.60617e-07
-1.349e-06
4.75086e-07
0.000906787
-0.000316161
-0.000590629
0.000595045
0.000813909
1.89306e-07
4.01805e-07
0.000162933
-9.03478e-05
3.14687e-06
-1.73017e-06
-2.25748e-06
-6.90286e-07
4.17351e-07
2.74073e-07
2.85986e-05
-7.72699e-05
-2.03499e-07
1.89292e-07
0.00257744
-0.0040449
0.00146745
-1.14153e-05
1.28851e-07
-4.74081e-08
-8.14556e-08
-9.05961e-07
2.43008e-06
-1.52403e-06
-1.25231e-06
-5.00241e-06
0.000328072
-0.000439283
0.000111208
-2.75371e-05
-1.01005e-05
-0.00381268
0.00158423
0.00697908
-0.00600229
-2.24982e-06
-3.24611e-06
5.49604e-06
1.33383e-07
-9.06375e-08
3.51432e-05
-9.94479e-06
0.000104673
-5.73459e-05
-4.73251e-05
-2.9765e-05
6.30061e-05
-3.32411e-05
9.42526e-06
3.1935e-05
-2.48864e-05
-7.04854e-06
1.84458e-05
-2.3982e-05
3.62352e-07
-2.28616e-07
2.17571e-06
2.57128e-07
-2.43287e-06
1.6728e-05
1.62084e-05
-3.29358e-05
-6.03095e-07
3.5542e-07
2.28992e-05
9.03581e-06
-9.6142e-07
0.00358767
0.00106438
-0.00465205
-0.000199071
0.00075256
-0.000553487
-0.000573945
0.000178132
-0.00018382
-0.000509296
-7.9885e-07
3.65551e-06
1.43418e-05
1.16022e-06
-4.10622e-08
-1.11917e-06
-0.000651051
0.000158324
0.00232587
0.000704642
1.05197e-05
1.14675e-05
-1.66451e-07
-2.17087e-06
2.33731e-06
-1.89584e-06
3.35148e-06
-1.45559e-06
-9.33184e-05
0.000131833
-3.851e-05
-0.0014868
-2.98987e-05
2.5033e-05
4.86568e-06
-1.06929e-05
2.91389e-05
-0.000562278
0.000562438
-1.59368e-07
-3.21578e-06
8.66723e-06
-5.4515e-06
-0.000273159
-8.47728e-05
0.000357952
3.89095e-06
-2.048e-06
-1.84297e-06
0.000744759
0.000481928
0.000525965
-0.000502817
-2.31477e-05
-2.04047e-06
3.93272e-06
-1.89225e-06
1.69956e-08
-1.1764e-05
-7.39935e-06
4.31471e-05
-4.07019e-07
3.7795e-07
2.96201e-08
6.71973e-07
-6.26247e-07
-4.6058e-08
2.12131e-06
-2.27302e-06
1.51618e-07
4.83686e-06
-4.73492e-06
-1.01959e-07
3.44465e-06
-1.01562e-06
-2.42902e-06
0.00137712
0.00148837
-0.00286549
1.08785e-06
-8.78135e-06
-6.49398e-07
2.436e-07
1.13187e-06
2.83492e-08
-0.000898055
5.80456e-06
0.000294337
5.30387e-05
-0.000347373
-2.24559e-06
8.39559e-06
-6.15008e-06
-3.50338e-06
2.48566e-06
1.0177e-06
2.5452e-07
8.11548e-07
-1.06622e-06
-3.13113e-06
1.2353e-06
-0.000104747
0.000160674
-5.59267e-05
-0.000221109
1.64479e-05
0.000198378
0.000327587
2.66193e-06
-1.2256e-07
3.03665e-05
-0.000262979
1.23904e-06
-2.88561e-06
1.64642e-06
-8.48155e-06
5.0766e-06
3.40563e-06
5.51875e-06
-3.05472e-07
1.00955e-07
7.23213e-06
-2.5538e-06
-6.59005e-07
3.08279e-07
3.50687e-07
1.82697e-07
4.52926e-07
-6.35339e-07
-0.000399596
-0.000162683
-7.48879e-05
-5.66522e-05
0.00013154
-5.12892e-06
5.61372e-06
-4.84851e-07
2.16271e-06
1.18879e-06
-1.81685e-07
5.68439e-07
2.96482e-06
4.26701e-06
-0.00109049
0.00193075
-0.000840256
-8.76233e-05
-6.16792e-06
9.37911e-05
6.74005e-07
-2.27848e-09
-9.16495e-07
5.75337e-06
-2.59785e-06
-1.27497e-07
2.72535e-06
-5.99909e-06
3.74933e-06
-2.17273e-05
5.31872e-06
1.64085e-05
2.36652e-07
-5.75536e-07
-1.85501e-07
0.000236128
0.000479627
-1.31766e-06
2.34193e-06
-1.02423e-06
2.33111e-07
3.48943e-07
-0.0011195
0.000846334
-9.03715e-06
0.000303375
-0.000258424
0.000293461
-3.50379e-05
-3.90946e-05
-0.000534846
0.000371503
-0.000361201
-1.03005e-05
-2.24455e-07
5.10551e-05
-0.000144372
-1.13799e-05
-1.44017e-06
-5.9277e-07
2.03294e-06
1.24356e-06
2.11779e-06
1.32689e-06
1.28247e-06
-1.11157e-07
4.50666e-06
-9.08421e-06
4.57754e-06
0.000462074
-0.000664686
0.000202613
-2.37565e-07
-4.06692e-07
-0.000160851
6.67902e-05
9.40605e-05
-4.19338e-06
3.82305e-06
3.70316e-07
1.48904e-06
1.27293e-06
-1.0866e-06
-2.40361e-06
3.49069e-06
1.6144e-05
-1.47385e-05
-0.000245217
-0.000420017
0.000665234
-0.000674903
0.000241657
0.000433246
4.91685e-05
3.40188e-05
-8.31878e-05
3.81978e-06
-3.70885e-06
-1.10813e-07
3.00106e-05
-2.59647e-05
-4.04591e-06
0.000420812
-2.01092e-06
-9.80005e-07
0.000126599
-5.16634e-05
1.77391e-06
2.11701e-06
-0.000311248
-0.00100551
-8.49817e-05
-6.58077e-05
-9.5043e-05
1.92657e-06
-4.30139e-06
2.37423e-06
0.000627486
-0.000165412
-0.000610306
-4.07445e-05
-1.58899e-05
2.82378e-05
-1.23479e-05
0.0024726
-0.000399807
-3.58982e-05
8.50667e-05
0.000113425
-7.82796e-05
9.68139e-05
-0.000106756
1.96444e-05
-1.32799e-05
0.00141851
-0.000825706
-0.000592798
3.17339e-06
-2.76464e-06
-4.08726e-07
1.39527e-06
1.7516e-06
-2.45292e-07
-2.56983e-08
2.70953e-07
-9.13518e-07
5.64726e-07
3.48538e-07
6.22521e-06
-8.96357e-07
1.02015e-05
-5.69486e-06
0.000331266
0.000575518
-3.90887e-06
3.5422e-05
-3.15131e-05
-6.86981e-06
5.40574e-05
-4.76226e-05
-6.43485e-06
-0.00253741
-0.000149164
-1.17152e-07
-1.88426e-07
-9.00951e-05
-5.37813e-08
3.52168e-07
2.12892e-05
-3.18829e-05
1.05936e-05
2.51662e-06
6.56756e-07
3.88406e-06
5.97137e-06
-5.48747e-06
-4.83843e-07
1.64013e-06
1.50322e-06
-8.16333e-07
2.30546e-06
-3.20857e-06
2.61077e-05
-1.94952e-06
-3.91185e-06
3.92665e-05
1.47909e-05
-0.000246171
0.000124879
0.000121292
0.000815905
-0.000344013
-0.000471894
4.13773e-07
-3.52519e-07
-6.17507e-08
-0.0006193
0.000218304
0.000400996
-3.01711e-06
-5.46392e-06
1.12373e-06
-2.81666e-06
0.00108503
0.000412873
-0.0014979
5.26932e-05
-4.50839e-05
-7.60933e-06
2.78467e-06
-0.0002372
0.000546467
8.53046e-05
-4.11219e-05
-0.00025787
-5.54791e-07
2.56467e-07
1.36724e-06
-1.62373e-06
0.000176732
1.98238e-05
-2.23923e-07
-1.73986e-06
1.96393e-06
-3.95668e-07
1.07971e-07
2.88002e-07
9.89692e-06
-1.19583e-05
-4.25577e-08
4.54607e-07
-4.12309e-07
-3.01776e-06
2.36042e-06
6.57042e-07
5.73664e-06
-8.95244e-06
-0.000189274
8.21895e-08
5.62553e-07
5.21498e-07
5.4499e-06
-0.000161378
-5.97306e-05
-1.10687e-06
3.81124e-07
7.25699e-07
-1.6642e-07
-6.57098e-07
9.21956e-05
-2.6412e-05
-6.57838e-05
2.80176e-05
7.66714e-05
-3.50101e-06
1.82339e-06
2.89534e-05
-7.66415e-06
-0.000100343
-3.68279e-05
0.00013717
-2.42787e-05
4.10076e-05
-9.49221e-07
4.91222e-07
-5.2729e-07
-1.31731e-07
-6.29993e-05
-2.40657e-06
6.54061e-05
-1.12441e-06
1.38088e-06
-0.000266324
-0.000352976
3.38603e-05
1.88329e-05
-0.000502221
0.000314985
0.000187237
-2.78606e-08
1.03899e-07
-1.65676e-06
2.79928e-06
1.79085e-07
-2.00169e-07
-1.65489e-06
2.22632e-06
-5.7135e-07
-6.40379e-05
1.03919e-06
0.000325475
-0.000487354
0.000161882
0.000503139
0.000915368
2.06908e-06
5.22911e-09
-2.07426e-06
-0.00351519
0.00329411
0.00106132
8.48171e-07
3.0843e-07
-1.65897e-07
-1.44129e-06
4.53968e-06
-4.35756e-05
3.9036e-05
7.50712e-05
-1.71036e-06
-2.0017e-05
3.76931e-05
0.000626262
0.000308971
-0.000179996
4.33266e-05
-7.30916e-05
-0.000242697
-1.14046e-05
0.00148498
-0.0001691
-0.00131588
6.44055e-08
2.5455e-08
-9.00778e-08
-1.741e-06
8.16094e-07
9.2505e-07
0.0002249
-0.000172506
-5.23933e-05
0.00108318
-0.00110531
2.21356e-05
-3.0922e-05
2.77792e-05
0.00329132
-0.00102406
-0.00226726
9.64954e-06
-2.55394e-05
-0.000564354
0.000977227
1.41317e-05
-1.73403e-05
1.24989e-06
-1.55003e-06
-0.00045755
0.000317358
-6.57755e-07
-1.54479e-06
0.00186478
0.00142654
-0.000934927
0.000327202
-1.40734e-07
-2.09161e-06
-8.6151e-05
-1.47239e-06
8.37869e-07
1.43859e-06
0.0002775
0.000207857
-8.66514e-05
-0.000121204
-0.000658949
0.000696642
9.39741e-05
4.15829e-05
-0.000135557
1.60065e-05
1.29468e-05
-3.15278e-05
-9.62622e-05
0.000338012
-0.000583227
8.27575e-05
0.000289796
-0.000372557
-1.48448e-06
-4.51452e-06
-0.000217804
-0.000660357
0.000174402
-7.75858e-05
-7.0856e-07
-9.06827e-10
7.0933e-07
-0.000140034
1.02793e-05
2.58853e-05
-9.87874e-06
3.11812e-05
5.41245e-05
-7.59589e-07
5.70553e-07
1.8886e-07
0.000154666
-0.000163188
3.58453e-06
-1.42184e-06
5.6141e-05
-6.94391e-05
1.32964e-05
7.30567e-06
-0.000120894
0.000113589
-7.83966e-05
1.33137e-05
6.50828e-05
0.000157028
0.000141715
-3.91239e-05
4.38648e-05
-4.74085e-06
-9.60426e-07
3.72171e-06
-4.0326e-06
1.99213e-06
1.87782e-08
1.10113e-07
-0.000260252
0.000994796
-0.000734543
0.00393947
-0.000351794
-0.00213289
0.000812228
-6.11618e-07
4.09905e-06
-0.000547175
-6.31309e-05
-1.20317e-05
0.000106006
1.11606e-05
-2.18534e-05
0.000100614
7.13536e-05
4.99301e-06
1.59332e-05
-2.0926e-05
-8.33747e-07
-3.35965e-06
6.23663e-07
-1.94123e-06
-0.000212673
-1.48387e-05
0.000227512
2.18211e-06
-6.41182e-09
-8.14891e-06
5.90325e-06
-1.00815e-07
2.30206e-06
-0.000428807
0.0005719
-0.000143092
1.41855e-06
1.13122e-06
-2.54983e-06
5.07071e-07
3.98155e-07
-0.00032271
-0.00146201
-6.31738e-05
3.32336e-05
0.00047492
-0.000102289
-0.000372631
5.8075e-05
-7.43116e-05
1.62364e-05
-7.75679e-05
-0.000559112