/*--------------------------------*- C++ -*----------------------------------*\
| =========                 |                                                 |
| \\      /  F ield         | OpenFOAM: The Open Source CFD Toolbox           |
|  \\    /   O peration     | Version:  v2012                                 |
|   \\  /    A nd           | Website:  www.openfoam.com                      |
|    \\/     M anipulation  |                                                 |
\*---------------------------------------------------------------------------*/
FoamFile
{
    version     2.0;
    format      ascii;
    class       volScalarField;
    location    "250";
    object      k;
}
// * * * * * * * * * * * * * * * * * * * * * * * * * * * * * * * * * * * * * //

dimensions      [0 2 -2 0 0 0 0];


internalField   nonuniform List<scalar> 
18598
(
0.00175563
0.000620663
7.13445e-05
0.000110551
7.15783e-05
9.75809e-05
0.0362922
6.69686e-05
6.45593e-05
6.93299e-05
4.51361e-05
5.53884e-05
8.42098e-05
0.0411785
0.00103864
5.53074e-05
8.14906e-05
0.00589037
0.00594863
0.00229023
0.00581615
5.87735e-05
0.000124753
5.72104e-05
7.37286e-05
0.00593696
5.33548e-05
0.0439246
8.24843e-05
4.87241e-05
0.00193853
6.43176e-05
0.000791288
4.50611e-05
0.00581561
5.16149e-05
8.48158e-05
7.36242e-05
9.53736e-05
0.000286808
0.0444419
5.3897e-05
7.00597e-05
9.4219e-05
5.15236e-05
0.0429347
5.62074e-05
0.000298412
8.98955e-05
7.69796e-05
0.000161321
7.70032e-05
6.47988e-05
9.20823e-05
8.93505e-05
5.15468e-05
0.00795895
0.0333786
0.0412045
0.0052831
7.97153e-05
6.6562e-05
6.47259e-05
0.000529323
8.98436e-05
7.03762e-05
8.84126e-05
7.03842e-05
6.70392e-05
0.00107145
7.7875e-05
7.65974e-05
9.03439e-05
8.26644e-05
6.78279e-05
5.76662e-05
7.95861e-05
6.53572e-05
6.56693e-05
9.12597e-05
7.68772e-05
7.68919e-05
5.87179e-05
6.79365e-05
8.77994e-05
9.01989e-05
5.57302e-05
0.00595019
0.0127647
0.0535262
8.46095e-05
7.37747e-05
7.9915e-05
8.51442e-05
7.70115e-05
8.93025e-05
8.97436e-05
0.000723753
6.89482e-05
8.52975e-05
0.00798187
0.00810061
9.35463e-05
0.00595625
0.0380996
9.51504e-05
0.000166274
0.0001802
4.44975e-05
0.0519814
5.49172e-05
7.69002e-05
0.000125373
8.99103e-05
6.41933e-05
0.00484672
9.04727e-05
6.57797e-05
5.47176e-05
7.17823e-05
0.00442915
4.56896e-05
0.00608034
6.99383e-05
7.69598e-05
0.0343637
0.0119285
7.1577e-05
5.37361e-05
0.0515894
4.59102e-05
0.0395652
8.88756e-05
9.36562e-05
9.40817e-05
9.5425e-05
5.32129e-05
4.77431e-05
4.7674e-05
0.0411817
9.05295e-05
4.8784e-05
8.12094e-05
0.0424488
0.000124795
5.30394e-05
0.0371057
6.48755e-05
0.0057692
4.87122e-05
6.39843e-05
0.00827395
5.39323e-05
0.0219107
6.27244e-05
8.48763e-05
5.38965e-05
4.6189e-05
7.86843e-05
7.27583e-05
9.47912e-05
0.00107027
0.000162199
8.553e-05
0.0264596
0.00246252
0.000145382
8.7297e-05
5.95993e-05
8.22162e-05
0.000101724
8.83311e-05
0.000198186
0.000149381
0.000266352
0.000199939
8.16708e-05
0.00013901
7.1371e-05
7.09904e-05
0.0569098
4.49714e-05
8.58821e-05
0.0482367
8.87248e-05
7.38951e-05
0.0412826
6.88415e-05
0.000112585
0.00239657
0.000126031
9.07773e-05
7.20513e-05
0.00788056
8.24419e-05
0.000143092
5.85018e-05
6.88039e-05
4.8801e-05
0.0238753
0.000113055
9.17637e-05
5.6327e-05
8.30943e-05
0.000172526
8.69257e-05
5.86142e-05
8.41939e-05
5.61797e-05
0.0117035
8.67916e-05
4.49405e-05
7.35256e-05
0.000129468
0.0126822
9.40028e-05
0.00696619
9.55399e-05
0.000121746
5.34428e-05
0.000108532
0.000159091
0.0531686
5.83457e-05
7.36445e-05
6.82896e-05
8.94816e-05
0.054325
8.56216e-05
4.87782e-05
0.000117518
0.0162706
7.85568e-05
6.92384e-05
4.88003e-05
8.90742e-05
5.30304e-05
0.000113471
4.49382e-05
8.28176e-05
7.01056e-05
8.85211e-05
0.000112456
8.61625e-05
7.2532e-05
8.82683e-05
8.19694e-05
7.74954e-05
7.26804e-05
4.42485e-05
0.0335302
6.38876e-05
0.0207034
0.000106952
7.97847e-05
7.72961e-05
7.14785e-05
9.75615e-05
6.38658e-05
0.0486819
4.47283e-05
6.23336e-05
0.000109905
6.38131e-05
7.13087e-05
0.000702293
4.76705e-05
6.96866e-05
5.12933e-05
0.00077528
4.76654e-05
7.78171e-05
0.0481971
4.76972e-05
9.12528e-05
0.0376057
6.85903e-05
0.00600004
0.000353519
0.000332316
0.000171286
0.00908446
6.44394e-05
8.57183e-05
0.011618
0.000459742
0.000345145
8.86547e-05
0.011968
0.0212082
5.07308e-05
5.86764e-05
4.52368e-05
7.53819e-05
0.050476
9.02322e-05
0.000113189
7.55597e-05
4.42019e-05
0.00597628
6.87077e-05
7.13996e-05
0.0114878
8.87953e-05
5.10619e-05
0.000115503
7.74712e-05
6.60133e-05
6.29889e-05
5.09551e-05
7.73667e-05
7.18956e-05
0.000276145
4.46828e-05
7.33089e-05
0.0118396
8.3967e-05
6.01299e-05
0.00569792
7.17192e-05
6.81847e-05
6.91616e-05
4.43652e-05
7.25765e-05
0.00204949
0.00558673
9.35096e-05
8.52434e-05
7.32704e-05
0.0056687
4.44504e-05
0.0542245
6.36533e-05
0.0365238
5.71318e-05
0.0453455
8.56642e-05
8.14045e-05
0.004803
5.08326e-05
9.53809e-05
4.4306e-05
0.0210999
6.33528e-05
5.41864e-05
6.22725e-05
8.45457e-05
0.0054433
0.0216541
0.0479222
8.56328e-05
0.000134452
7.73498e-05
0.047063
0.0412734
8.96311e-05
0.0405866
0.00460506
0.0001961
8.18426e-05
8.95276e-05
0.00228921
5.41983e-05
8.98804e-05
0.0449615
8.20572e-05
0.0376115
7.06678e-05
0.0374377
7.21699e-05
8.87012e-05
8.04224e-05
6.97476e-05
8.94267e-05
0.0418984
7.05445e-05
8.06517e-05
7.10075e-05
7.75018e-05
9.00005e-05
5.74915e-05
0.000119481
0.000186333
8.79356e-05
9.37626e-05
0.000164409
6.5077e-05
8.01217e-05
8.54359e-05
8.15887e-05
7.04699e-05
0.0524145
8.15714e-05
9.11472e-05
0.000135818
8.84317e-05
4.76962e-05
0.00585402
0.000589341
5.11829e-05
8.71652e-05
5.03472e-05
4.89035e-05
8.16309e-05
6.79294e-05
0.00350928
5.01959e-05
0.0293188
8.42744e-05
0.0256951
6.92559e-05
7.89908e-05
0.0535848
0.0335385
0.0215704
8.34036e-05
2.64041e-05
9.02671e-05
0.00469077
8.4374e-05
4.53966e-05
8.36762e-05
7.24677e-05
5.15896e-05
0.00986457
0.000475989
0.00773051
8.76351e-05
8.37931e-05
8.86522e-05
5.08487e-05
8.90767e-05
7.01387e-05
9.04509e-05
8.88599e-05
8.95975e-05
6.98119e-05
5.13776e-05
6.21964e-05
6.97455e-05
7.2215e-05
4.81393e-05
0.0178802
8.11097e-05
7.78662e-05
7.9062e-05
5.06894e-05
7.29372e-05
8.38262e-05
0.0374313
8.52879e-05
5.27469e-05
8.89154e-05
0.0371434
6.95146e-05
8.7533e-05
8.94426e-05
6.36659e-05
8.98676e-05
5.80309e-05
0.0351929
5.36956e-05
4.47825e-05
6.21129e-05
5.31327e-05
4.47099e-05
8.79917e-05
0.0461868
8.93447e-05
4.48672e-05
5.77217e-05
8.87794e-05
4.44497e-05
8.16898e-05
0.0147787
6.94292e-05
8.53835e-05
6.24158e-05
8.97222e-05
7.50421e-05
0.000117423
7.47213e-05
9.08853e-05
7.08469e-05
4.65635e-05
0.00171376
0.000121973
4.59241e-05
8.10449e-05
0.0104383
0.00827615
0.0530062
0.000112975
4.76654e-05
0.0516711
0.0159948
4.77191e-05
9.51515e-05
0.000140289
0.000118036
0.0365876
0.00043175
6.5356e-05
0.046398
8.63566e-05
6.58941e-05
4.87152e-05
5.69892e-05
0.012776
9.23823e-05
0.00191634
8.15219e-05
8.51194e-05
0.0527581
0.00495877
0.000595159
0.0363862
0.00302161
4.4887e-05
4.55295e-05
0.019233
9.41465e-05
0.0192922
4.62649e-05
9.18531e-05
7.35814e-05
0.000112664
5.0957e-05
0.000114886
8.64964e-05
8.46487e-05
4.46419e-05
7.01754e-05
6.35417e-05
6.56889e-05
5.29159e-05
0.00618594
7.76396e-05
6.08064e-05
0.00613623
0.000131962
0.00371334
8.82871e-05
0.000131485
0.0224391
8.11334e-05
8.61883e-05
0.000109826
0.0335394
0.056804
0.000144442
5.94165e-05
8.93523e-05
7.93338e-05
0.000125931
4.77923e-05
8.10063e-05
5.82176e-05
4.47381e-05
4.48203e-05
4.48267e-05
0.0321198
0.0195113
9.47212e-05
0.0119512
0.0161211
8.84039e-05
0.000598212
8.80579e-05
4.83879e-05
9.60529e-05
0.0421567
8.27161e-05
8.51454e-05
7.9939e-05
4.81893e-05
8.25245e-05
0.0470938
7.80881e-05
6.87763e-05
5.95088e-05
0.053035
8.96788e-05
0.05431
7.53187e-05
8.49013e-05
6.35837e-05
0.00775943
4.48246e-05
7.90827e-05
5.88885e-05
4.44967e-05
6.34773e-05
8.82646e-05
6.79587e-05
8.20344e-05
0.000133136
6.27672e-05
0.00573868
5.51936e-05
7.57024e-05
7.49727e-05
5.87826e-05
5.70726e-05
6.28264e-05
6.96801e-05
2.46665e-05
8.27948e-05
0.000121926
6.35374e-05
9.3842e-05
6.32596e-05
3.82299e-05
0.0222524
5.2722e-05
6.31394e-05
5.50791e-05
0.0356228
7.40293e-05
8.97497e-05
6.3089e-05
8.42726e-05
0.0198706
6.09141e-05
0.0468017
4.47173e-05
0.0159598
0.0369209
9.41237e-05
5.96892e-05
8.12845e-05
7.23928e-05
7.52962e-05
7.5737e-05
8.83367e-05
0.0081328
7.50696e-05
9.05873e-05
6.11499e-05
8.09135e-05
7.55838e-05
8.88824e-05
4.4995e-05
0.000119965
0.00599047
6.59244e-05
8.12482e-05
0.000157191
7.75703e-05
7.69362e-05
8.51027e-05
7.83004e-05
0.00777682
6.85492e-05
0.0244865
0.000105435
0.000186518
6.34275e-05
5.31265e-05
6.96064e-05
8.82537e-05
4.86019e-05
0.0056708
8.09311e-05
7.20388e-05
8.62598e-05
6.91068e-05
0.0066871
9.03173e-05
9.49079e-05
5.94031e-05
5.34232e-05
4.86896e-05
0.000343698
0.00363495
8.87571e-05
5.41658e-05
0.00017797
5.36129e-05
0.0114554
8.06906e-05
0.0409591
8.46435e-05
0.00329413
0.0337408
6.95751e-05
4.47166e-05
0.0405611
5.18971e-05
4.44899e-05
0.0527425
0.0543071
4.28017e-05
8.87459e-05
8.94929e-05
7.21825e-05
0.000121702
0.00766235
0.00399941
7.36167e-05
9.58566e-05
0.00010589
5.11789e-05
0.0291716
6.41629e-05
5.9976e-05
0.0430532
8.91876e-05
0.0561091
7.82757e-05
7.89945e-05
8.07254e-05
8.11236e-05
0.0339892
0.0154733
9.00832e-05
0.0324347
6.35697e-05
5.88777e-05
8.87265e-05
9.60263e-05
8.87411e-05
0.00426293
0.0325185
9.10127e-05
7.4157e-05
7.30187e-05
0.0342247
9.48533e-05
0.00542897
0.00577511
7.89379e-05
8.93472e-05
0.0395793
0.0553346
5.5891e-05
0.00620854
9.4629e-05
5.43909e-05
8.35763e-05
8.93403e-05
5.58283e-05
0.000110447
8.83657e-05
5.43526e-05
7.19861e-05
0.00709968
0.00353159
0.0116386
0.029632
9.14699e-05
8.54724e-05
4.86889e-05
0.0220283
0.00608811
9.44001e-05
7.10406e-05
6.29532e-05
0.000110378
0.00582675
7.06162e-05
8.33754e-05
0.000149051
7.60756e-05
0.0149974
5.23038e-05
0.0114421
0.0228498
5.21099e-05
6.44413e-05
7.90548e-05
8.59722e-05
7.84332e-05
6.47413e-05
5.77678e-05
5.98126e-05
0.00669355
4.82009e-05
5.79795e-05
4.96623e-05
5.05372e-05
0.0406892
7.43448e-05
5.27725e-05
8.50189e-05
6.30742e-05
0.0336342
8.73438e-05
0.0232732
4.52904e-05
8.89936e-05
0.00199092
6.87096e-05
9.09371e-05
7.27176e-05
8.85229e-05
8.49109e-05
5.97198e-05
8.88844e-05
0.000124638
7.52102e-05
4.77568e-05
6.27534e-05
8.41194e-05
8.46172e-05
5.66148e-05
7.42331e-05
7.81688e-05
5.76623e-05
5.07775e-05
7.88702e-05
7.67484e-05
8.92187e-05
8.86355e-05
0.0226793
7.24995e-05
8.88214e-05
0.0100526
0.0410375
0.052645
0.0103324
0.0401732
8.91287e-05
0.00011015
4.85043e-05
5.48789e-05
7.86401e-05
5.9713e-05
9.19849e-05
4.44322e-05
0.00152749
8.29888e-05
5.80338e-05
4.64125e-05
7.70537e-05
9.68691e-05
8.10044e-05
0.0357828
0.0299348
7.39052e-05
7.24295e-05
4.71699e-05
0.0353612
7.07527e-05
0.046405
5.24924e-05
0.000157272
5.16939e-05
5.79183e-05
9.38913e-05
0.00126956
0.0218967
7.08952e-05
0.00674793
7.35836e-05
0.0391823
0.0397572
6.33503e-05
0.000274464
6.78131e-05
6.33693e-05
8.89193e-05
7.80179e-05
5.8332e-05
4.43864e-05
0.0350788
5.54815e-05
8.58828e-05
4.94778e-05
5.74771e-05
8.88001e-05
0.0465977
8.86554e-05
6.2602e-05
6.7553e-05
6.50689e-05
6.2324e-05
4.44342e-05
7.69503e-05
5.40265e-05
9.09368e-05
4.94675e-05
8.27308e-05
0.0365459
8.31294e-05
0.000458077
9.08836e-05
4.44108e-05
5.04223e-05
7.5952e-05
6.96824e-05
0.00819719
0.00830333
0.000117093
0.0530878
6.02463e-05
7.94645e-05
7.29706e-05
8.63645e-05
7.73703e-05
8.38061e-05
8.33452e-05
7.58441e-05
8.35982e-05
8.79794e-05
6.22481e-05
8.6769e-05
8.46469e-05
5.90667e-05
6.78789e-05
0.0540823
5.69537e-05
6.24743e-05
7.52343e-05
0.000109033
5.68843e-05
6.07532e-05
8.77419e-05
6.0552e-05
0.000262809
7.57536e-05
0.0502126
8.87532e-05
7.37446e-05
8.36563e-05
8.87363e-05
5.96531e-05
8.74902e-05
0.0166502
0.000289498
6.0471e-05
3.19146e-05
4.95692e-05
7.6586e-05
8.8573e-05
7.03433e-05
4.75295e-05
0.0419826
7.66794e-05
0.00688125
8.26126e-05
5.57344e-05
0.000102266
0.0110268
8.21279e-05
7.68905e-05
0.0412008
0.0153088
0.000132254
0.00672871
7.07993e-05
5.15066e-05
5.39875e-05
5.95153e-05
0.00218655
6.46573e-05
0.00636705
0.00516026
8.79659e-05
5.25471e-05
7.36993e-05
4.83345e-05
0.000184141
0.0509578
0.00665542
7.90497e-05
6.22179e-05
0.041909
0.0360868
0.0370212
7.86066e-05
0.0286902
0.039683
8.76174e-05
0.0267535
6.21135e-05
0.000117159
7.87971e-05
5.65193e-05
6.26328e-05
0.000163807
4.49825e-05
0.0329149
9.39132e-05
5.2637e-05
5.31703e-05
5.20554e-05
9.00654e-05
0.0157868
0.00722849
0.00744433
9.12641e-05
0.0212061
7.87202e-05
8.30111e-05
8.10142e-05
8.24236e-05
4.64659e-05
7.33479e-05
5.341e-05
5.49117e-05
7.45769e-05
7.58578e-05
0.000311377
4.61863e-05
8.79971e-05
0.00772751
0.0392941
0.0028845
6.64447e-05
0.0529191
0.00011729
0.000124931
7.76989e-05
0.00761464
8.09532e-05
9.13601e-05
0.00013431
8.83346e-05
0.00169944
0.0299765
0.0489159
5.74655e-05
0.0526441
7.35722e-05
0.000133733
0.000117171
5.61174e-05
4.4899e-05
5.27535e-05
5.25923e-05
0.0379997
8.65937e-05
0.00282102
6.54436e-05
6.86318e-05
8.67711e-05
6.18269e-05
7.92232e-05
4.54685e-05
4.8564e-05
8.78966e-05
5.53519e-05
4.54279e-05
0.000288402
7.52914e-05
0.000102075
4.75252e-05
6.8257e-05
5.969e-05
0.00783526
8.93872e-05
7.99578e-05
6.83839e-05
5.31064e-05
0.00155669
0.000144244
8.22486e-05
0.000158827
0.0342255
8.89092e-05
0.000106935
0.000566776
7.85937e-05
0.000630143
7.64773e-05
9.72006e-05
9.15279e-05
0.011169
0.0415179
0.000109814
0.0529131
6.13404e-05
7.77041e-05
0.0294553
7.37481e-05
0.0107687
0.0405121
0.000100235
8.15387e-05
7.22021e-05
6.9277e-05
0.0497892
4.86152e-05
8.88342e-05
8.95405e-05
6.16372e-05
6.12673e-05
7.94042e-05
8.4433e-05
6.24308e-05
0.00421255
9.04281e-05
0.00671238
6.17418e-05
0.015902
8.90966e-05
7.5656e-05
5.1102e-05
0.0075482
0.0474058
5.9649e-05
9.29637e-05
0.00757807
8.90449e-05
0.0074042
5.92737e-05
4.76919e-05
7.36196e-05
8.10238e-05
8.99028e-05
8.09048e-05
5.71568e-05
0.0517788
7.40589e-05
0.000177356
0.0154305
7.516e-05
7.57082e-05
6.55668e-05
0.00788309
5.18143e-05
8.63092e-05
0.0526008
0.00011308
7.94824e-05
5.68625e-05
0.0368402
7.6983e-05
7.83719e-05
8.92312e-05
0.000296245
8.21859e-05
7.66037e-05
4.79223e-05
7.3277e-05
8.74502e-05
8.96629e-05
0.0119364
7.18293e-05
7.8962e-05
7.65628e-05
0.0464639
0.00431348
5.72142e-05
6.46385e-05
0.00010126
4.77349e-05
8.74199e-05
5.31011e-05
6.41591e-05
0.00317221
7.02076e-05
4.82983e-05
5.95855e-05
8.48851e-05
5.09586e-05
6.45225e-05
6.41833e-05
5.94869e-05
4.80027e-05
0.00581528
0.0029819
8.00117e-05
7.95224e-05
8.22356e-05
0.00787834
0.000100972
4.81122e-05
7.97247e-05
0.000141164
0.000134901
0.00779936
5.28263e-05
9.43688e-05
0.000121066
0.0124362
5.42764e-05
0.00778744
6.86378e-05
7.31492e-05
4.78103e-05
8.4228e-05
0.000118768
7.25253e-05
0.000101199
0.00012436
7.0135e-05
6.93552e-05
8.72652e-05
5.29457e-05
0.050043
6.54849e-05
6.71299e-05
0.0189136
6.63195e-05
6.41199e-05
0.0510162
5.66596e-05
8.44625e-05
5.27883e-05
6.12224e-05
0.000256489
7.40446e-05
6.28547e-05
4.1379e-05
0.000112424
7.69634e-05
0.016338
0.00100801
0.000179205
6.81961e-05
7.811e-05
8.50577e-05
8.92599e-05
0.0521761
0.0472925
0.0211999
8.1838e-05
0.000103211
8.39209e-05
5.36574e-05
0.00692951
8.54757e-05
8.15028e-05
7.06228e-05
9.42551e-05
7.00225e-05
8.55629e-05
7.95976e-05
8.03663e-05
0.0108414
5.10877e-05
8.35949e-05
0.0325142
7.39049e-05
7.43097e-05
6.2576e-05
5.35853e-05
0.0518048
4.83269e-05
8.76375e-05
7.00732e-05
8.573e-05
8.43532e-05
8.04919e-05
0.000104728
0.0538158
5.33671e-05
6.15975e-05
0.000120223
0.000241514
8.72074e-05
0.0535676
0.0150029
0.0488723
5.98603e-05
7.22505e-05
7.54434e-05
0.0133619
8.66486e-05
7.71682e-05
6.67585e-05
9.02552e-05
0.0332442
7.86554e-05
7.99628e-05
0.000105906
0.00101444
7.3002e-05
4.62399e-05
0.0540277
6.45252e-05
0.0185733
8.2433e-05
5.0673e-05
6.87133e-05
5.85643e-05
6.30929e-05
7.86706e-05
8.65842e-05
5.45256e-05
7.00288e-05
7.35319e-05
0.0125324
8.29021e-05
0.0112452
0.0384748
0.011412
5.73958e-05
0.00563373
9.46179e-05
0.00350042
0.0282489
6.75146e-05
9.06728e-05
0.000100983
8.26106e-05
0.0390471
6.99669e-05
8.56363e-05
4.50973e-05
7.87602e-05
9.02938e-05
0.000126838
0.000121443
0.000129046
7.3645e-05
0.0453651
6.2313e-05
7.55692e-05
0.000100722
0.000107114
7.7501e-05
8.71664e-05
6.18502e-05
0.000235948
0.014599
7.6982e-05
8.2674e-05
0.0117509
7.2426e-05
7.53346e-05
4.90071e-05
0.000108332
7.05587e-05
9.7262e-05
4.6296e-05
0.000519353
6.19527e-05
8.40193e-05
7.85642e-05
0.00141073
0.000132887
4.89479e-05
6.94865e-05
0.000130055
0.000101265
6.7849e-05
7.83376e-05
6.10705e-05
0.000113087
5.0311e-05
7.73153e-05
5.5061e-05
0.000124279
7.57114e-05
0.00280923
8.94142e-05
6.02935e-05
8.41439e-05
8.27956e-05
7.17779e-05
0.00653702
0.00534237
0.0398345
0.00991434
5.24909e-05
0.000160419
0.0121771
5.1678e-05
9.73872e-05
4.26093e-05
6.09088e-05
7.04585e-05
0.000106122
0.000133397
6.17297e-05
0.000105299
7.6147e-05
0.0299347
7.66886e-05
4.96673e-05
0.0425731
9.71031e-05
8.33078e-05
8.47108e-05
0.00115437
6.52124e-05
9.77659e-05
8.34279e-05
7.32233e-05
4.76225e-05
5.01178e-05
8.99401e-05
0.0337221
8.96177e-05
0.043092
6.74414e-05
0.000109992
5.71953e-05
4.60906e-05
0.000298649
0.00672943
9.17089e-05
0.000137479
0.00133859
7.9642e-05
0.000252827
7.52224e-05
6.18551e-05
0.00430015
5.43161e-05
0.000429519
0.000104159
4.75638e-05
8.92728e-05
0.000126194
0.0353502
8.86919e-05
0.000126037
6.78971e-05
0.000150316
5.69898e-05
7.82162e-05
6.2912e-05
9.07203e-05
9.19957e-05
0.0170697
0.00643104
6.93927e-05
6.66393e-05
0.000635776
5.72115e-05
0.0447581
0.0520306
7.34414e-05
6.97624e-05
7.24607e-05
8.8575e-05
0.051073
8.05082e-05
0.00671853
8.01095e-05
8.8292e-05
8.42214e-05
6.01825e-05
6.9969e-05
0.0521471
0.041589
4.49713e-05
6.68851e-05
0.000124864
0.0120792
5.11894e-05
0.000275289
9.23243e-05
7.04269e-05
0.0175133
0.00714693
7.02778e-05
4.88331e-06
0.00289694
6.32744e-05
8.78336e-05
0.000233317
5.14995e-05
5.87309e-05
0.0075586
4.49126e-05
0.00733129
5.39168e-05
4.58441e-05
0.00112758
4.7306e-05
9.93564e-05
0.000144018
5.29752e-05
5.35774e-05
5.31775e-05
0.00598985
5.51991e-05
5.69225e-05
8.31551e-05
0.0164266
0.00231266
6.33376e-05
0.0001894
0.0500177
7.84155e-05
0.000128566
5.05142e-05
0.000126972
0.00568465
0.046633
0.0280919
9.92494e-05
0.0109795
5.30384e-05
9.10388e-05
7.27413e-05
6.91006e-05
0.0335268
7.59801e-05
0.00659331
5.99627e-05
0.00426607
5.70227e-05
8.09882e-05
0.0527242
7.99301e-05
0.00239798
0.0400105
8.84349e-05
5.04786e-05
0.0257126
5.45869e-05
8.11875e-05
0.00629272
8.56695e-05
7.47107e-05
5.7149e-05
0.0559933
7.39697e-05
7.96307e-05
0.00544329
0.000108693
4.50036e-05
0.0512019
8.95246e-05
0.0414045
0.00028555
6.08895e-05
7.79875e-05
7.76666e-05
0.0534136
0.0279798
0.00015845
8.90336e-05
8.29476e-05
6.75599e-05
9.07168e-05
0.0424066
8.17241e-05
0.0344217
6.72757e-05
7.62757e-05
8.42471e-05
0.000360962
0.000100139
0.0143795
8.33907e-05
7.56311e-05
0.0277864
7.25521e-05
6.93433e-05
6.38387e-05
8.34982e-05
8.41013e-05
8.6936e-05
0.0248277
8.48999e-05
8.67396e-05
8.00007e-05
5.34074e-05
5.22983e-05
0.00977428
4.56153e-05
0.0505833
6.82882e-05
0.000957352
5.32301e-05
8.52486e-05
6.1507e-05
8.61698e-05
7.04673e-05
7.80199e-05
7.62004e-05
8.34081e-05
0.00206864
8.52193e-05
9.57401e-05
7.35113e-05
9.1368e-05
4.88542e-05
0.0188329
1.05961e-05
4.4663e-05
7.92016e-05
0.000111058
0.000265564
5.87653e-05
0.000195981
0.00583337
0.000118604
8.03751e-05
0.00751043
6.37074e-05
8.13373e-05
5.02048e-05
5.99474e-05
7.47467e-05
5.36591e-05
7.32226e-05
5.86587e-05
4.44177e-05
0.0092366
8.84051e-05
7.98506e-05
9.15646e-05
0.0474923
6.07228e-05
7.40525e-05
0.00010543
4.54573e-05
6.1365e-05
8.89856e-05
0.00191213
8.54568e-05
0.000695985
7.81012e-05
4.53007e-05
8.39145e-05
5.72209e-05
6.12492e-05
0.00754893
0.000307441
8.3064e-05
0.0273725
0.0150801
8.32556e-05
8.51552e-05
0.000107076
0.000351907
7.86251e-05
0.00012301
0.000108125
9.01473e-05
5.92624e-05
6.7021e-05
9.64711e-05
7.30837e-05
9.45432e-05
6.51751e-05
0.00762124
0.000330555
0.000121269
8.21722e-05
0.0456965
8.37932e-05
8.19283e-05
0.0211488
0.000302154
7.82348e-05
4.74923e-05
0.0418828
9.58508e-05
0.0413414
8.47993e-05
4.43815e-05
5.13945e-05
8.43357e-05
4.49249e-05
0.0318668
0.0536293
8.5412e-05
5.68809e-05
8.03431e-05
0.0511584
0.00024487
8.27442e-05
5.98196e-05
0.0430506
4.79176e-05
8.63655e-05
0.0439781
0.000174842
0.0331752
0.00725107
0.0283228
6.79819e-05
8.88284e-05
6.54385e-05
9.77957e-05
0.041586
8.59972e-05
4.57141e-05
4.89216e-05
8.39558e-05
0.0438315
6.37848e-05
5.40076e-05
8.50164e-05
0.0379426
0.00753796
8.72144e-05
0.00012531
8.12668e-05
0.0058127
6.72328e-05
0.000176979
8.9202e-05
0.000917919
8.46853e-05
8.69313e-05
0.0430554
7.26021e-05
7.64057e-05
0.0339873
8.81684e-05
5.87517e-05
5.9977e-05
0.000118926
7.38921e-05
6.69782e-05
7.88131e-05
4.59473e-05
5.44828e-05
0.000128297
7.983e-05
0.051354
0.000105599
0.000104348
7.31616e-05
0.00440232
5.4589e-05
5.94335e-05
8.50216e-05
7.69649e-05
4.59386e-05
0.00628006
0.000162928
0.0159093
8.06537e-05
0.000161272
4.58937e-05
0.00223378
0.000123531
0.052457
0.000115087
5.83731e-05
6.0741e-05
0.0307701
7.58175e-05
7.83959e-05
6.65665e-05
4.77539e-05
0.0158353
5.71852e-05
0.00032176
8.84501e-05
6.01948e-05
0.0339466
0.00732431
0.000267897
8.03701e-05
9.11241e-05
8.78738e-05
0.00700307
6.17141e-05
6.07743e-05
0.000118561
0.0509023
6.12468e-05
6.3251e-05
4.63145e-05
5.6905e-05
7.95261e-05
6.73057e-05
7.34465e-05
6.87532e-05
0.000216099
0.0128874
5.1036e-05
8.04903e-05
4.49364e-05
6.09928e-05
0.0414647
8.61209e-05
8.75494e-05
0.0103163
0.0396489
0.000113688
8.29444e-05
0.0516094
6.85503e-05
8.9273e-05
8.82716e-05
0.000470887
0.020762
8.48128e-05
6.44547e-05
0.0345972
0.0102614
5.98052e-05
5.95921e-05
8.80054e-05
8.22261e-05
8.81426e-05
0.00596746
0.0073138
0.000101947
7.96145e-05
0.000218105
5.05571e-05
0.00584055
8.90131e-05
0.0206405
0.000389495
5.26984e-05
6.00802e-05
5.30273e-05
0.000130966
0.000145578
5.11268e-05
8.4741e-05
5.97276e-05
7.78983e-05
8.56321e-05
9.52993e-05
0.0213648
5.18399e-05
8.68058e-05
8.58406e-05
8.47271e-05
0.0364253
8.04227e-05
8.82127e-05
6.02627e-05
5.84119e-05
8.92434e-05
0.000106245
7.65471e-05
9.65512e-05
0.00964604
6.84146e-05
6.00224e-05
0.000710513
5.64328e-05
5.99087e-05
0.0474943
6.09945e-05
0.00482581
5.81874e-05
9.04458e-05
8.08709e-05
4.73855e-05
8.0199e-05
7.93478e-05
5.87167e-05
0.0308551
0.00473407
5.18515e-05
4.99542e-05
9.73657e-05
7.79515e-05
5.04342e-05
0.00817288
4.83346e-05
0.000113834
9.15532e-05
0.0211518
0.000126123
5.64839e-05
9.86018e-05
9.02162e-05
7.55755e-05
0.0304181
8.81136e-05
4.6129e-05
0.00926482
0.000109419
8.46034e-05
8.59495e-05
0.000225116
6.89535e-05
8.54897e-05
5.09274e-05
0.000176619
0.000999072
6.42568e-05
7.28309e-05
0.0505837
8.87076e-05
0.00757684
0.00734898
5.72526e-05
0.00397423
8.81607e-05
7.6237e-05
8.91348e-05
0.000987134
8.88896e-05
4.75692e-05
8.45739e-05
0.0400197
8.44573e-05
8.84477e-05
0.000291678
6.99364e-05
8.30406e-05
0.0382371
4.72442e-05
8.79696e-05
8.75277e-05
8.03936e-05
7.55384e-05
0.000177288
8.81227e-05
8.83864e-05
8.84681e-05
0.00311934
5.37816e-05
4.72541e-05
0.000408878
6.45243e-05
0.0263135
6.98294e-05
5.69237e-05
0.0259158
6.85393e-05
0.000104054
5.71694e-05
6.11134e-05
5.34999e-05
7.57253e-05
0.00277327
6.25446e-05
0.0505302
7.9416e-05
9.68051e-05
8.25234e-05
0.042318
0.00552261
7.44408e-05
0.0130722
8.76858e-05
4.9895e-05
8.48629e-05
8.80688e-05
0.00335812
0.0104571
5.72462e-05
9.64575e-05
8.56974e-05
7.04787e-05
7.54775e-05
0.000119223
0.0517509
6.08759e-05
0.00496777
8.88287e-05
0.00555878
0.00931238
8.28904e-05
4.92033e-05
8.83652e-05
0.00249473
9.02136e-05
4.66459e-05
7.88101e-05
0.00959736
0.0170513
0.000163523
0.0288972
9.03101e-05
0.0284718
6.09205e-05
8.90251e-05
8.30653e-05
0.0209148
5.07517e-05
5.69541e-05
8.97898e-05
4.94444e-05
5.13244e-05
0.00010387
4.98043e-05
0.000144993
9.68652e-05
8.99437e-05
9.08395e-05
0.00942646
8.46253e-05
8.37799e-05
8.77607e-05
0.000634279
0.000157832
0.0162867
7.52955e-05
6.96612e-05
7.23654e-05
0.0469605
5.93346e-05
5.4113e-05
6.60486e-05
0.0370822
0.00510796
8.05696e-05
0.0269113
5.87114e-05
5.72793e-05
0.000134427
0.0512547
8.0529e-05
0.00279028
8.69322e-05
0.0415971
7.26632e-05
7.6136e-05
3.59814e-05
0.0501647
8.13707e-05
7.11988e-05
6.95439e-05
8.48488e-05
6.26318e-05
7.7875e-05
8.06707e-05
0.0472081
0.00712647
8.38453e-05
7.55808e-05
0.000103502
0.00617258
8.76235e-05
8.44045e-05
4.45357e-05
0.000102372
4.91541e-05
0.00122363
8.86832e-05
5.93161e-05
8.03132e-05
0.000101455
0.029073
0.0486736
0.00792556
0.0421738
0.000120674
0.000216524
0.0475067
0.000113905
0.00649128
9.06018e-05
0.000104925
8.10398e-05
0.000106714
0.00012436
4.71316e-05
1.92102e-05
0.0402158
0.000109883
0.0075152
0.00199614
4.40172e-05
6.00448e-05
5.3187e-05
9.12613e-05
9.00005e-05
0.00577556
4.97665e-05
0.0491443
8.74653e-05
8.43522e-05
7.57213e-05
0.00434464
9.47138e-05
0.000116805
7.68126e-05
0.00912783
0.000346785
5.06484e-05
8.9e-05
0.0213084
0.000113
0.00016733
6.98414e-05
6.98858e-05
0.000101697
0.000315113
0.00488657
0.00144784
0.0141756
0.000118311
0.0215888
0.00011434
5.18627e-05
8.43444e-05
5.16764e-05
5.26191e-05
0.000482858
5.39013e-05
9.31062e-05
9.0361e-05
0.0218461
0.000183017
5.07298e-05
4.75695e-05
6.05023e-05
0.000116255
9.0066e-05
6.65572e-05
5.33668e-05
0.0075285
0.0515985
0.000113458
6.71257e-05
0.000102574
0.00604883
5.78903e-05
5.69927e-05
0.000100513
7.44541e-05
8.45441e-05
8.15991e-05
0.000136816
0.000789593
8.55001e-05
6.95387e-05
6.754e-05
0.000114435
0.0270144
4.77255e-05
6.5694e-05
8.30019e-05
5.445e-05
0.000105829
0.000127743
0.0361696
5.89926e-05
0.00401733
7.88058e-05
0.0463473
0.0100624
0.0198093
8.6868e-05
7.80901e-05
8.6152e-05
8.38833e-05
6.51351e-05
0.000138153
8.15965e-05
0.000118384
0.00140157
6.73567e-05
5.95397e-05
7.22578e-05
7.98306e-05
0.0320737
0.000121388
6.66033e-05
4.67734e-05
0.0161076
8.64865e-05
6.02274e-05
0.000105673
6.68778e-05
0.00361445
8.06167e-05
0.000102945
0.000125543
5.22612e-05
0.0529776
0.0547284
0.0206202
0.0390025
9.02709e-05
0.000108169
8.179e-05
6.75606e-05
8.25846e-05
4.66344e-05
0.0412773
8.26711e-05
0.00346237
6.73584e-05
7.60915e-05
0.00923472
8.91804e-05
4.74112e-05
8.6521e-05
5.77653e-05
0.00586824
8.95093e-05
7.66447e-05
9.58374e-05
7.16312e-05
9.07448e-05
0.00344997
0.0482267
0.00432709
0.0251722
8.14793e-05
8.19206e-05
0.000119819
0.000752091
8.26079e-05
0.00639346
0.000108325
0.000140478
0.000125537
0.0446892
8.69713e-05
0.028516
0.00111546
0.00567967
0.0422721
6.88351e-05
6.28774e-05
5.66245e-05
6.72237e-05
8.57481e-05
8.42634e-05
8.44577e-05
0.0521674
0.000222686
5.65439e-05
8.79292e-05
4.61468e-05
8.66425e-05
8.76737e-05
0.00652604
0.0277486
9.02056e-05
0.000114934
0.000317874
0.0358764
8.87683e-05
0.0307765
0.0117494
0.000133925
0.000419444
0.00601373
5.06586e-05
8.77174e-05
4.79449e-05
7.21935e-05
6.5984e-05
5.35829e-05
5.46068e-05
6.69143e-05
0.00401068
9.87107e-05
7.07278e-05
0.000103712
0.0521863
5.96472e-05
0.012866
7.95026e-05
8.77957e-05
0.000114699
8.5489e-05
4.7181e-05
0.000640744
8.72506e-05
8.7901e-05
0.0480754
5.23965e-05
8.88214e-05
0.00465681
8.9109e-05
0.0400472
0.0306791
0.0274291
8.36881e-05
7.00384e-05
7.61838e-05
4.50732e-05
8.11513e-05
0.00803108
5.061e-05
9.34619e-05
8.70103e-05
6.67296e-05
0.0359596
0.00427288
7.99618e-05
8.88301e-05
7.66996e-05
5.06671e-05
9.65565e-05
5.4179e-05
0.000463778
7.18888e-05
0.0284311
0.0125216
0.0382081
8.33148e-05
0.00489014
0.00145647
9.18895e-05
0.000133143
6.88301e-05
7.26396e-05
0.00776297
0.000374487
0.0153526
8.83435e-05
9.59359e-05
0.0411136
7.8972e-05
5.35239e-05
7.26591e-05
8.86459e-05
5.43445e-05
9.01611e-05
9.9651e-05
6.64629e-05
0.00011061
0.0018419
0.000547113
8.9762e-05
0.000106242
0.0403909
0.000107151
6.24511e-05
7.74176e-05
0.000150685
4.48978e-05
6.74371e-05
9.05256e-05
0.0457834
6.02184e-05
0.0363669
0.000118459
9.19359e-05
5.44103e-05
8.76059e-05
0.00749049
6.47992e-05
9.27391e-05
7.80428e-05
0.0244523
0.00172193
7.0595e-05
0.000107607
5.85509e-05
0.0449196
5.83552e-05
8.03961e-05
0.0107385
0.0293523
4.72084e-05
0.00206642
0.0064416
8.77655e-05
0.0413704
7.76592e-05
0.0538865
8.70762e-05
9.06542e-05
9.76543e-05
0.00599257
0.0295335
8.93563e-05
5.76373e-05
6.63654e-05
0.0532885
7.77554e-05
4.76039e-05
0.0543747
8.84683e-05
0.000120352
0.0041415
8.47532e-05
9.65295e-05
0.0538582
0.000107944
6.7579e-05
0.0136871
7.6578e-05
0.0280905
0.00379642
8.68205e-05
6.40769e-05
7.93764e-05
6.34619e-05
7.41593e-05
8.49579e-05
6.08709e-05
0.000115425
8.65059e-05
8.13843e-05
5.4705e-05
5.81928e-05
8.6905e-05
0.0527121
6.59919e-05
7.23597e-05
0.0487781
0.0450127
8.12074e-05
8.11914e-05
8.49576e-05
8.68892e-05
5.84689e-05
8.54007e-05
8.80302e-05
0.0389337
0.0511368
8.41563e-05
5.61659e-05
4.91016e-05
6.58364e-05
6.35526e-05
0.000648402
5.63571e-05
7.92822e-05
0.000111326
6.56888e-05
0.0448372
8.31282e-05
0.00515916
4.76446e-05
0.00027386
9.65137e-05
0.0402129
0.000128839
4.75872e-05
8.39234e-05
9.48308e-05
9.38283e-05
7.04581e-05
4.7383e-05
0.026601
8.53186e-05
7.19942e-05
0.0489134
8.19874e-05
0.0438053
4.42948e-05
8.91564e-05
8.73533e-05
5.26693e-05
0.000176727
0.044319
0.0508519
0.0442061
0.0125403
0.0325734
0.00011689
6.41061e-05
9.3609e-05
6.65081e-05
9.05134e-05
0.0414049
0.042715
6.73959e-05
8.9814e-05
0.000209121
0.00392072
7.88247e-05
0.000127213
0.000274261
8.09362e-05
9.41154e-05
0.000224677
0.0123491
8.11108e-05
0.0244285
8.40099e-05
6.65515e-05
5.93613e-05
0.00406592
8.10045e-05
0.000269076
0.000107912
9.32439e-05
0.0161989
8.34085e-05
6.88274e-05
7.1501e-05
7.17352e-05
0.0525197
9.02142e-05
7.63219e-05
0.052571
8.83663e-05
8.17888e-05
0.0366001
5.53382e-05
0.00296379
0.0492226
0.00759619
0.000102194
8.82195e-05
9.2481e-05
6.80189e-05
8.04234e-05
0.0249227
5.25123e-05
0.000126033
6.27264e-05
8.44846e-05
5.34503e-05
0.000119282
7.56292e-05
9.28889e-05
8.56853e-05
6.97891e-05
0.0067549
0.0521878
0.000190858
0.0001291
4.6195e-05
8.68731e-05
9.28912e-05
0.0490698
0.00524537
0.0448875
9.36655e-05
0.0401329
0.0236047
0.00014025
9.17364e-05
9.28778e-05
0.023839
0.000114299
0.000282927
0.00269346
0.0393873
0.000132826
8.69347e-05
8.41091e-05
8.56772e-05
4.88302e-05
0.0290242
8.53306e-05
0.000114322
5.66811e-05
0.000178985
8.97511e-05
8.03554e-05
6.09354e-05
6.0436e-05
0.0079731
5.84476e-05
0.000119487
0.000104759
0.0538554
8.937e-05
0.0202526
7.28931e-05
0.0318783