/*--------------------------------*- C++ -*----------------------------------*\
| =========                 |                                                 |
| \\      /  F ield         | OpenFOAM: The Open Source CFD Toolbox           |
|  \\    /   O peration     | Version:  v2012                                 |
|   \\  /    A nd           | Website:  www.openfoam.com                      |
|    \\/     M anipulation  |                                                 |
\*---------------------------------------------------------------------------*/
FoamFile
{
    version     2.0;
    format      ascii;
    class       volScalarField;
    location    "250";
    object      p;
}
// * * * * * * * * * * * * * * * * * * * * * * * * * * * * * * * * * * * * * //

dimensions      [0 2 -2 0 0 0 0];


internalField   nonuniform List<scalar> 
18598
(
-0.0241365
-0.0857528
-0.00145723
-0.00443872
-0.00136344
-0.0155157
0.00513425
-0.00045372
-0.00390542
-0.00143978
-0.000113032
-0.000548565
-0.0148637
-0.0344839
-0.0273394
-0.000588969
-0.00767757
-8.63325e-05
0.000105021
0.000703811
0.000231471
-0.00190017
-0.0372221
-0.00189962
-0.0091909
-0.000536848
-0.00113998
-0.0965916
-0.0175107
-0.00041464
-0.0267271
-0.00384735
-0.0877564
-0.0001108
-0.000211715
-0.000665407
-0.012987
-0.00915224
-0.0306061
-0.00126717
-0.0960875
-0.00116369
-0.00633799
-0.0306667
-0.000704691
-0.0341685
-0.00146117
-0.00140304
-0.0196012
-0.0108161
-0.026397
-0.0105439
-0.0023511
-0.00206804
-0.0327608
-0.000665808
-0.000830229
-0.0941656
-0.0512176
-0.000495161
-0.0127077
-0.0039081
-0.00242622
-0.0696138
-0.018662
-0.00357904
-0.0235946
-0.00374139
-0.00482044
-0.0341021
-0.00787358
-0.0118415
-0.0323588
-0.0177584
-0.0041253
-0.00198969
-0.0126425
-0.00259317
-0.002589
-0.0396205
-0.0107618
-0.0105176
-0.00177238
-0.00509064
-0.0187343
-0.0319143
-0.00145235
0.000558481
0.00127263
-0.0448417
-0.0123847
-0.00498882
-0.013802
-0.022974
-0.0110352
-0.0332771
-0.021333
-0.0360843
-0.0014696
-0.0165778
0.000171745
0.000584267
-0.000420951
-0.000216466
0.00239829
-0.00950099
-0.0437037
-0.0716279
-5.43773e-05
-0.0150037
-0.000551827
-0.0109941
-0.0355762
-0.000522271
-0.00375428
-0.000294235
-0.0387272
-0.000659427
-0.000553272
-0.00781527
0.000553946
-5.2767e-05
0.000359312
-0.00637639
-0.0120076
0.0059077
0.000339694
-0.00770273
-0.00116008
-0.0884171
-3.72169e-05
-0.0686672
-0.000950609
-0.0509281
-0.0314857
-0.00790202
-0.00111827
-0.000302583
-0.000288301
-0.0351563
-0.0396941
-0.000390322
-0.00917689
-0.0725228
-0.0282624
-0.000699573
4.29367e-05
-0.00277154
0.000322771
-0.00039495
-0.00368761
-0.0107175
-0.00051434
-0.0893601
-0.00193378
-0.0224239
-0.000487133
-0.000488914
-0.0130788
-0.00780706
-0.00855467
-0.0291993
-0.0427541
-0.0147342
-0.104405
-0.00125926
-0.0262254
-0.0248215
-0.00189866
-0.0171391
-0.0155208
-0.000950169
-0.000999909
-0.000893388
-0.00087771
-0.000141785
-0.00272829
8.04714e-05
-0.0075103
-0.00741506
-0.0981753
-0.000102821
-0.0224567
-0.0736541
-0.0185466
-0.00518197
-0.0352907
-0.0048001
-0.0306875
-0.00183107
-0.0252197
-0.0394605
-0.00798217
-0.0009993
-0.00245583
-0.0253158
-0.00188302
-0.00129217
-0.000374793
0.000338916
-0.0331339
-0.0456115
-0.00081102
-0.00143699
-0.0257652
-0.0245253
-0.00186669
-0.0125711
-0.000802845
0.00136703
-0.0246156
-9.86628e-05
-0.00586371
-0.0740781
0.000652171
-0.0519198
-0.00721594
-6.16127e-06
-0.0258875
-0.000381554
0.000291504
-0.0399873
-0.0397693
-0.0018416
-0.0060018
-0.00139965
-0.020994
-0.0371047
-0.0165836
-0.000380302
-0.0455072
-0.0191376
-0.0119563
-0.00149735
-0.00040967
-0.0282699
-0.00071984
-0.00406593
-9.41915e-05
-0.00142036
-0.00736298
-0.018305
-0.0295931
-0.0230582
-0.00763141
-0.0298377
-0.0139369
-0.00783387
-0.00749107
-3.65324e-05
-0.096504
-0.00217159
-8.91426e-05
-0.000911891
-0.0136783
-0.00930335
-0.00806098
-6.10179e-05
-0.00359826
-0.0211537
-4.21403e-05
-0.000434288
-0.000466033
-0.00223551
-0.00795214
0.000395798
-0.00025162
-0.00644803
-0.000672379
0.00123274
-0.000272291
-0.00804223
-0.000931508
-0.000286895
-0.0369687
-0.0676282
-0.00627164
0.000247153
-0.00169919
0.00162128
-0.0723329
-0.0876448
-0.00240108
-0.00118796
7.25407e-05
-0.0678847
-0.001441
-0.0242214
0.000658765
0.00412393
-0.000586069
0.000699658
-0.000134017
-0.00248206
-0.0885568
-0.0376447
0.000728683
-0.00229762
-2.37821e-05
0.00041666
-0.00651871
-0.00480407
-0.0186942
-0.0236752
-0.000626649
0.0010187
-0.0120426
-0.00357821
-0.00194614
-0.000620117
-0.00798606
-0.00836637
0.00163535
-4.18319e-05
-0.00590635
-0.000106798
-0.0121514
-0.00188002
-0.000353955
-0.00827436
-0.00159343
-0.00631068
-3.77845e-05
-0.00843939
0.000994867
-0.00204182
-0.0390674
-0.00118108
-0.00602764
-0.000247163
-4.58641e-05
-0.0345291
-0.00276242
-0.0977123
-0.00189617
-0.0219102
-0.0159567
-0.00810784
-0.00179077
-0.000596498
-0.0296634
-1.98922e-05
0.0050267
-0.00191238
-0.000546871
-0.00182399
-0.02061
0.000160636
0.00526399
-0.0641899
-0.0213099
-0.0747976
-0.00961788
-0.00138358
-0.0730331
-0.0366654
-0.0528867
-0.00190945
-0.0235487
-0.0115403
-0.00242268
0.00309474
-0.000546976
-0.0373797
-0.0153555
-0.016949
0.00310735
-0.00675558
-0.0985582
-0.00812137
-0.0316284
-0.00836504
-0.00719429
-0.0159197
-0.0727536
-0.00748528
-0.00456615
-0.00700612
-0.0121624
-0.0370231
-0.00103134
-0.000755628
-0.0238125
-0.018988
-0.0489641
-0.0409984
-0.00236883
-0.004156
-0.000909771
-0.0135573
-0.00664294
-0.01262
-0.013173
-0.00194518
-0.00168056
-0.0268621
-0.000270274
0.000486273
-0.0321687
-0.000653743
-0.024924
-0.000401949
-5.31968e-05
-0.0112339
-0.0014074
0.00255109
-0.000397967
0.0062737
-0.02021
-0.106133
-0.00128172
-0.0131354
-0.0858578
0.00620078
0.00585827
-0.0119755
0.000345572
-0.0123495
0.000214076
-0.00108915
-0.000138395
-0.0197413
-0.00829863
-0.000696324
0.00132313
-0.0850849
-8.93335e-05
-0.0168121
-0.0198701
-0.0310552
-0.000389889
-0.0306166
-0.00722764
-0.0159712
-0.00234391
-0.0368092
-0.00720498
-0.000702281
-0.00353264
-0.000593595
-0.00411549
-0.000371181
0.00200863
-0.00164856
-0.00934826
-0.00673653
-0.000389277
-0.00775377
-0.00175634
-0.0659972
-0.015895
-0.00109829
-0.024513
-0.0646501
-0.00505411
-0.0166647
-0.0307896
-0.00353497
-0.0374933
-0.00208702
0.00471111
-0.000340348
-1.64194e-05
-0.00347584
-0.0011455
-8.18786e-06
-0.0314117
-0.0168524
-0.0180585
-0.000101925
-0.002127
-0.016029
-1.87847e-05
-0.00846683
-0.0877521
-0.00502234
-0.021234
-0.00053386
-0.031357
-0.00840825
-0.0440973
-0.0081047
-0.0390734
-0.00690103
-5.83797e-05
0.000155154
-0.0273053
-4.55611e-05
-0.0016135
-0.0917854
-0.000335394
-0.0282541
-0.0319381
-0.000289187
-0.0311745
-0.092057
-0.000290621
-0.014879
-0.000729048
-0.0255989
-0.0986568
-0.0714574
-0.00249582
-0.0971682
-0.022217
-0.00372847
-0.000366104
-0.00186318
-0.0217351
-0.015733
0.000179119
-0.00900042
-0.0172983
-0.0131375
-0.000205469
0.000673392
-0.0988301
0.000956481
-3.17886e-05
-4.00386e-05
0.00357577
-0.0393141
0.00354039
-0.000356514
-0.0461778
-0.00767452
-0.000546159
-0.000341378
-0.0265411
-0.0226631
-0.020938
-5.55982e-05
-0.00737987
-0.00221651
-0.00266927
-0.00111442
-1.47664e-05
-0.0122446
-0.00265584
0.000468995
-0.0653709
-0.0879486
-0.0270284
-0.0274937
0.0031637
-0.00746265
-0.0154663
-0.000261004
-0.0998648
-0.0946582
-0.00071833
-0.00269354
-0.0310418
-0.0137593
-0.0146728
-0.000334486
-0.00376466
-0.00190089
-7.91419e-05
-8.79993e-05
-8.4908e-05
-0.0955415
0.00422267
-0.0260267
0.000812886
0.00126418
-0.0186952
-0.0301621
-0.0186042
-0.000379981
-0.00875541
-0.0140422
-0.0155607
-0.013177
-0.0137029
-0.000346987
-0.0155262
-0.0280519
-0.00965294
-0.00390356
-0.00275866
-0.079811
-0.0001429
-0.0342758
-0.00325287
-0.0173311
-0.00185296
-0.001385
0.000641318
-0.0135862
-0.00181579
-3.46521e-05
-0.00406892
-0.0241593
-0.00348239
-0.0083488
-0.064539
-0.00371646
-4.82802e-05
-0.000911643
-0.0021594
-0.00816979
-0.00181442
-0.00106021
-0.00376626
-0.00647062
0.000224763
-0.00198054
-0.000925453
-0.00213063
-0.0100973
-0.00211638
0.00022818
0.00766959
-0.00108776
-0.00390714
-0.00090032
-0.0953253
-0.00815374
-0.0359631
-0.0038534
-0.000954984
0.00431401
-0.00264737
-0.0723127
-2.79028e-05
0.00328249
-0.068102
-0.0501977
-0.00277189
-0.012719
-0.00765114
-0.00217692
-0.00261603
-0.0304378
-0.00102186
-0.0032389
-0.0397016
0.000601937
-0.00885902
-0.00262759
-0.0166805
-0.000142648
-0.0153852
0.00011111
-0.00363375
-0.0124239
-0.000237047
-0.012102
-0.0119027
-0.0205037
-0.0127399
-0.000913164
-0.0015836
-0.0884507
0.00032172
0.00232884
-0.00399667
7.97687e-05
-0.00628915
-0.0167711
-0.000409646
0.00130807
-0.0144574
-0.0087248
-0.014764
-0.00666789
-0.000165343
-0.0389037
-0.0286513
-0.00270818
-0.00114863
-0.000379305
0.000339722
-0.000546181
-0.0176072
-0.000831538
0.00219384
0.000151261
0.000618016
-0.00813284
-0.0115207
-0.0219787
-7.59122e-05
0.00316501
-0.00655006
-6.79317e-05
-0.0466742
-0.000335031
-4.86447e-05
-0.0875725
-0.0371456
-0.000342463
-0.033812
-0.0353573
-0.00877363
-0.0379006
-0.000830719
-0.0235741
-0.00781648
-0.0139618
1.54255e-05
-0.000848526
0.0065607
-0.00219389
-0.00283064
-0.0128795
-0.0167412
-0.0949955
-0.0127037
-0.0132292
-0.0143194
-0.00954526
0.00590196
-0.0163898
-0.0274202
-0.0995874
-0.0035607
-0.00188021
-0.030187
-0.0146971
-0.0181598
0.000635447
-0.0999599
-0.0160165
-0.00963929
-0.00763579
0.00540561
-0.0276627
0.000451492
0.00039435
-0.0116686
-0.0358859
-0.0459036
-0.0912609
-0.000866796
-0.000397162
-0.0267383
-0.000869211
-0.0123394
-0.0359363
-0.000672928
-0.0469661
-0.0297976
-0.000837937
-0.00494444
-0.000490696
-0.000706938
0.00746899
0.00638509
-0.0407362
-0.000877775
-0.000438546
0.00511712
0.000218374
-0.0324682
-0.00578529
-0.003369
-0.00800883
5.56312e-05
-0.00305705
-0.0119157
0.00179964
-0.00884739
-0.0246835
-0.00103334
0.000727698
0.00298613
-0.00100885
-0.00230612
-0.00710647
-0.0194472
-0.0130246
-0.00311304
-0.00182496
-0.00254836
-0.000947204
-0.000367566
-0.0021498
-0.000448064
-0.000378341
-0.0249268
-0.00785435
-0.000907609
-0.0224792
-0.00345041
-0.102483
-0.0027634
0.00304116
-0.00013466
-0.0307397
-0.000917046
-0.00655319
-0.0339282
-0.00754747
-0.0189179
-0.0203605
-0.00239602
-0.0344142
0.00123923
-0.00178281
-0.000350164
-0.00330802
-0.0199011
-0.0197333
3.84657e-05
-0.0017249
-0.0128384
-0.0017909
-0.000776641
-0.0114554
-0.00740858
-0.0280545
-0.0303287
0.0030108
-0.00872657
-0.0278674
-0.0246082
-0.0235337
-0.0521595
0.00642754
-0.0147965
-0.0182205
-0.00879518
-0.000391179
-0.00150161
-0.0130647
-0.00250449
-0.0462213
-3.37571e-05
-0.000882502
-0.014223
-0.000804558
-0.000211557
-0.0112399
-0.0567131
-0.0119613
0.000963644
0.00475038
-0.00227904
-0.00804863
-0.000206291
0.00424581
-0.00759078
-0.0651629
-0.00105371
-0.0252504
0.000131108
-0.000825955
-0.0466353
-0.00172514
0.00286625
-0.0034005
-8.00592e-05
-0.00224721
-0.0482916
-0.0436583
-0.00198211
-0.0168961
-0.00457948
-0.0034966
-0.0203518
-0.0126515
-0.00190075
-2.65527e-05
0.00572662
-0.000921257
-0.0218963
-0.000399353
0.00055628
-0.0190491
-0.0726927
-0.0332849
-0.00172763
-0.00448039
-0.00247386
-0.00261448
-4.05124e-05
-0.0112048
-0.000837198
-0.0360709
-0.000409059
-0.00214166
0.00389354
-0.0163771
0.000408296
-0.0330736
-3.42395e-05
-0.000264067
-0.00468606
-0.00625446
-0.000183231
-0.000338062
-0.0425213
-0.0527042
-0.00290685
-0.00182769
-0.00931363
-0.0195526
-0.00922327
-0.0159563
-0.0189188
-0.00867932
-0.00193274
-0.0292441
-0.00256307
-0.00267496
-0.021844
-0.00201928
-0.00132662
-0.0901652
-0.00185112
-0.00177521
-0.00160307
-0.0454701
-0.000621047
-0.00238225
-0.00786922
-0.00291052
-0.000179586
-0.00481404
-0.0167195
-0.0159162
-0.00929884
-0.0146904
-0.0337351
-0.00271102
-0.00824608
-0.0422344
-0.0185014
-0.00299376
0.000913571
-9.23642e-05
-0.0117374
-0.0167997
-0.00734021
-0.000206557
-0.0643124
-0.00717177
0.000906706
-0.0010941
-0.000857114
-0.00150472
-0.00029534
-0.0169169
-0.00985939
-0.0801207
0.00174817
-0.0673288
-0.000492965
-0.0035036
-0.000222068
-0.000854443
-0.00273142
-0.000417107
-0.00400479
-0.000558451
0.00232094
-0.016875
-0.0010819
-0.00186807
-0.000315743
-0.000797233
-0.0262558
0.00150948
-0.00273555
-0.00175499
-0.0973745
0.00158346
0.00227891
-0.0111369
0.00662219
-0.0404438
-0.0286387
-0.10519
-0.00179945
-0.0414038
-0.0131791
-0.000804652
-0.00323067
-0.0794066
-2.29388e-05
0.00654279
-0.00163932
-0.000648919
-0.00114662
-0.000981448
-0.0159888
0.00114172
-0.00120676
-0.000931608
-0.0379569
0.00356754
-0.00292752
-0.0120615
-0.00303183
-0.0117675
-0.00021478
-0.00879058
-0.000433876
-0.000700123
-0.00803202
-0.00805001
-0.0740752
-0.000216609
-0.0309577
-0.000843487
-0.0537619
-0.000356979
-0.00151685
-0.0103708
-0.0135528
-0.0777001
-0.00946034
-0.00017196
-0.0103514
-0.0410596
-0.0685513
-4.98228e-05
-0.00116614
0.00604687
-0.0289482
-0.000985905
-0.0120825
-0.00902964
-0.0716089
-0.0397042
-0.00167623
-2.25261e-05
-0.00110914
-0.000643285
-0.0950467
-0.0166109
0.00232895
-0.00232311
-0.00440391
-0.0197696
-0.0029989
-0.00147619
-0.000146749
-0.000377157
-0.0292062
-0.00090005
-0.000152032
-0.000215718
-0.0104482
-0.000139244
-0.000228954
-0.00131598
-0.00277361
4.37139e-06
-0.0201765
-0.0138115
-0.00149267
-0.000458937
-0.000241336
-0.0291021
-0.0170997
-0.0798033
-0.101012
-0.0150221
-0.0051127
-0.00358404
-0.0129762
-0.0334289
-0.00894223
-0.0581468
-0.0445561
0.000760981
-0.0108692
-0.0410526
-0.0822666
-0.0032456
-0.0101608
0.00578511
-0.00733111
0.000561461
-0.0595335
-0.00192846
-0.00306686
-0.00789153
-0.0050189
-0.00830998
-0.000355524
-0.0177976
-0.0181967
-0.00248116
-0.00321952
-0.0140129
-0.0214994
-0.00317063
0.000577329
-0.0386232
0.000204417
-0.00244948
0.00218995
-0.0322072
-0.00178978
-0.000379209
-0.000660483
-0.0639124
-0.00276627
-0.00995767
-0.000510273
-0.0206689
-8.59058e-05
-0.00265211
-0.000238033
-0.00729068
-0.00338059
-0.0311529
-0.0117076
-0.00103858
-0.0686794
-0.010037
-0.0783141
0.0020059
-0.0103174
-0.00874985
-0.00410973
-0.001553
-0.000338501
-0.0196424
-0.0766251
-0.0141166
-0.00177393
-0.00186162
0.00228242
-0.00941362
-0.0109396
-0.0178408
6.9944e-05
-0.0114055
-0.00781472
-0.000350226
-0.00798
-0.014027
-0.0274233
-3.69869e-07
-0.00167924
-0.01331
-0.00927483
-0.0633836
-0.000290776
-0.000909838
-0.00315791
-0.0110646
-0.000335837
-0.0203152
-0.00111882
-0.00228384
-0.00109914
-0.00560788
-0.000365386
-0.000760962
-0.0223788
-0.000386484
-0.00456743
-0.0043921
-0.000761337
-0.000364319
0.000450836
0.000423568
-0.0136275
-0.0135333
-0.0152987
-0.000338656
-0.0119006
-0.00035137
-0.0142088
-0.0279926
-0.0704779
-0.00145126
-0.000465404
-0.00776056
-0.0101109
0.00260522
-0.00125105
-0.00084746
-0.00655161
-0.00158054
-0.000349115
-0.0197054
-0.00312973
-0.00784343
-0.000115152
0.00097621
-0.00547425
-0.00636749
-0.0280191
-0.00111442
-0.0107762
-0.00413247
-0.00357068
0.00407244
-0.00145023
-0.00433078
-0.00917948
-0.000813298
-0.0196169
-0.000442323
-0.00283244
-0.0825049
-0.00949873
-0.00174514
-0.000498305
0.00133647
-0.00950233
0.00178132
0.00262596
-0.0773164
-0.00577689
-0.0127869
-0.00299881
-0.0344275
-0.0649142
-0.0828997
0.00245244
-0.0165868
-0.0555302
-0.0167576
0.000438196
-0.00154266
-0.0172246
-0.00342858
-0.00320054
-0.0478655
-0.00722972
-0.00309616
-0.00811665
-0.0142981
-0.000326834
-0.000832552
-0.0159307
0.00646756
-0.00585896
-0.00811829
-0.00208994
-0.000714488
-0.0823602
4.11124e-05
-0.0202006
-0.0065569
-0.0228608
-0.02176
-0.012691
-0.0219325
-0.0369403
-0.00046701
-0.00169285
-0.00266432
-0.0198641
-0.0166113
-0.0176617
0.000825947
-0.0822653
-0.00276721
-0.00157228
-0.00854312
-0.0421101
-0.027149
-0.00345776
-0.00150887
-0.0319493
0.00433041
-0.00790358
-0.013365
-0.0004219
0.000372994
-0.00785213
-0.000207336
-0.0431318
-0.00215164
0.00330274
-0.0159842
-0.000767626
-0.00664472
-0.00224132
-0.00189352
-0.00823165
-0.0267926
-0.0013477
-0.00659079
-0.00796143
0.00193987
-0.0161832
-0.000251708
-0.0621787
-0.000159261
-0.00105515
-0.000591516
-0.0251576
0.0010372
0.00809851
-0.00560588
-0.0104556
-0.0652883
-0.0183714
-0.0727748
0.000832419
-0.0174242
-3.65517e-05
-0.0126559
-0.0116199
-0.00483752
0.000674019
-0.0784125
-0.00973948
-0.0956228
-0.00309615
-0.00752447
-0.0629534
0.000337606
-0.0119025
-0.0275098
-0.00177588
-0.0814757
0.00178944
-0.00355672
-0.0183191
-0.0155978
-0.00785611
-0.00859774
-0.000409144
-0.0141927
-0.00587614
-0.00113863
-0.000211523
0.0027753
-0.000993515
-0.0033764
-0.00617764
0.00197784
-0.0257952
-0.000409604
-0.00705975
0.00202292
-0.0641594
-0.00330919
-0.00569233
-0.00321787
-0.047015
-0.000695647
-0.00966924
-0.00150427
-0.00487416
-0.010822
0.000482284
-0.0129346
-0.00293197
-0.0167633
-0.0116492
-0.00809948
-0.000907373
-0.000415819
-0.0159444
-0.000360572
-0.000848628
-0.0172937
0.000527989
-0.000922584
-0.0540908
-0.000400934
-0.0031896
-0.00346514
-0.0225734
0.000148786
-0.00103422
-0.0547628
-0.00906715
-0.0976991
-0.0118195
-0.00032455
-0.0791622
-0.000584994
-0.0191613
-0.0198576
-0.0884474
-0.00485753
-0.0132837
-0.019264
-0.00238939
-0.000339513
-5.42022e-05
-0.0277214
0.00538484
-0.0338786
-0.0470367
-0.00141686
0.000865326
-0.0012459
-0.000216738
0.00210681
-0.000882368
-0.0105514
0.000814419
-0.000571037
-0.0129741
-0.000694784
-0.00197725
-0.00171333
0.000882534
-0.00127854
-0.000191999
-0.0202144
-0.000215085
-0.0159768
-0.0579431
0.00360312
-0.0272735
-0.0241201
-0.00338544
0.00173634
-0.00122482
-0.0126796
-0.000937203
-0.0406927
-0.0466433
0.00178495
-0.0014433
-0.00633987
-0.00143767
-0.0377297
-0.000934579
-0.00971421
-0.0150676
-0.00783469
-0.00664621
-0.00095046
-0.0207299
-0.0696113
-0.0110578
-0.000450215
-0.00902304
-0.0278079
-0.0204375
-0.00288547
-0.00116891
-0.02686
-0.0152376
-0.000102783
-0.00159407
-0.0563603
0.001275
-0.000382069
-0.0481782
-0.0114001
-0.0011636
0.00219221
-0.000871641
-0.00645991
0.00059945
-0.00503323
-0.00351613
-0.0288383
-0.0331712
-0.000910987
-0.00226767
-8.73588e-05
-9.6785e-05
-0.000696678
-0.000951048
-0.000184217
0.000608507
-0.000202324
-0.000761865
-0.000662156
-0.00113671
-0.00117596
-0.0011669
-0.00161587
-0.000755787
-0.0017645
-0.000933671
0.00171165
-0.0314619
-0.00108705
-0.0680732
-0.0641872
-0.0128313
-0.000288416
-0.000237921
-0.0608863
-0.000685653
-0.0618106
0.00758145
-0.0651558
-0.000322129
-0.000475213
-0.0404244
-0.00270992
-0.00680547
0.00471836
-0.00757597
-0.000142246
-0.00248344
0.00116049
-0.00179967
-0.0156503
-0.0758817
-0.00147194
-0.000632334
-0.0642266
-0.027613
-0.000681024
0.00682213
-0.00135001
-0.0106386
0.000179639
-0.0224113
-0.00798357
-0.00170011
-0.0931518
-0.00799941
-0.00771901
0.000176518
-0.0397201
-0.000110738
-0.0123972
-0.0276682
-0.0629624
0.00311996
-0.00182588
-0.0127013
-0.0123528
-0.0916341
0.00620622
-0.0187671
-0.0331296
-0.0186062
-0.00433952
-0.00990378
-0.0626878
-0.0164046
0.0053784
-0.00428031
-0.00876521
-0.0126753
-0.0138517
-0.0659114
-0.0422054
-0.0021734
-0.00197857
0.00713978
-0.00803747
-0.00692112
-0.00423267
-0.00328368
-0.020324
-0.0166846
-0.107264
-0.0190564
-0.0161699
-0.014389
-0.00116022
-0.0010214
0.000367774
-0.000164932
-0.00686071
-0.00560211
-0.00147566
-0.00110129
-0.0234347
-0.00173345
-0.023667
-0.00751346
-0.0125571
-0.00774405
-0.0195393
-0.00252345
-0.0138717
-0.00706746
-0.00112462
-0.0436844
-0.000382566
0.00304505
0.000111963
-6.40986e-05
-0.0133753
0.000736259
-0.000978535
-0.00232312
-0.000667826
6.27555e-05
0.000164396
-0.00130286
-0.000925298
-0.00104739
-0.016112
-0.000177727
-0.00283984
-0.00175256
-0.000489108
-0.00943663
-0.00239722
-1.80399e-05
-0.000542921
-0.0250392
-0.00832769
-0.0443514
-0.0829697
-0.0020605
-0.00457355
-0.0207724
-0.000152498
-0.00301161
-0.0114694
-0.0298518
-0.0141354
-7.34506e-05
-0.00524805
-0.000146502
-0.0158427
-0.0017085
-0.0016516
-0.00016581
-0.000489165
-0.0187371
0.00710883
0.00193622
-0.0157693
-0.0188651
-0.045429
-0.00108633
-0.00580061
-0.0726788
-0.0372339
-0.0380999
-0.00267857
-0.00168883
-0.027579
-0.00256959
-0.0123997
-0.00229469
1.30102e-05
-0.0840359
0.000263398
-0.000914865
0.000494593
-0.0157213
-0.0144442
0.00204492
-0.00046356
-0.00805184
-0.000219111
-0.00935501
-0.000582194
-0.00875929
-0.0223675
-4.62094e-05
-0.000662107
-0.0199917
-7.15209e-05
-0.0787134
-0.0813662
-0.0194976
-0.00130496
-0.0148573
-0.0280013
-0.0215139
-0.0176227
-0.00280466
-0.0273249
-0.00023529
-0.0161237
-0.00743779
0.00127073
-0.0853578
-0.000245569
-0.103315
-0.00114205
-0.0336108
-0.00241393
-0.0555483
-0.0357457
-0.0226803
1.44713e-05
-0.000391347
-0.0191362
-0.0104864
-0.00416384
0.000351439
-0.015939
-0.0631338
0.000174006
-0.0163133
-0.0594731
-0.0159564
-0.00169827
-0.0041595
-0.00888472
-0.0244949
-0.0514126
-0.0220679
-0.0270356
-0.00819265
-0.00703363
-0.00760029
-0.093474
-0.031936
-0.00244444
-0.00105757
-0.010094
-0.00992063
-0.00410632
-0.0130952
-0.000185642
-0.000499662
-0.0753353
-0.0142747
-0.0113533
0.000446405
-0.0466652
-0.00794569
-0.00210972
-0.000851666
-0.00270374
-0.019323
-0.0120174
-0.000178932
-0.00147849
-0.0381028
0.00120222
-0.01051
-0.0682665
-0.000177298
-0.00619254
-0.0758239
-0.00996231
-0.0188368
-0.00207308
-0.00155449
-0.0975699
-0.0076994
-0.00533453
-0.0015967
-0.000234708
0.00191961
-0.000702952
-0.013468
-0.0326155
-0.00112227
-0.0828915
-0.000140208
-0.0758529
-0.0146132
-0.0427911
-0.0294481
-0.00496446
-0.00293229
-0.00209983
-0.0348355
-0.0634923
-0.00171208
-0.00203791
-3.80944e-05
-0.00124307
-0.0137668
-0.00121052
-0.00962028
-0.00667139
-0.0349516
0.00551818
-0.000131983
-0.0147492
-0.000106977
-0.00163106
-0.0496909
-0.0218637
-0.0252238
-0.000302978
-0.0076204
3.82549e-05
-0.018509
-0.0970056
-0.00450678
-0.0340629
-0.029205
-0.029416
0.00298172
-0.0201565
-0.00449121
-0.101362
-0.00324952
-0.000989603
-0.000847713
-0.0286576
-0.0149046
-0.0247026
0.00023382
-0.000690336
-0.0665777
-0.0124019
-0.0821056
-0.000355019
-0.00165887
-0.0238238
0.00464076
-0.000698698
-0.00108467
-0.00253573
-0.000189654
-0.0609463
0.00137373
-0.000334737
-0.0221544
-0.000806452
-0.0124025
-0.0157068
-0.000625154
0.00305769
-0.000300222
-0.0270287
-0.0159684
-0.0159391
-0.0973603
-0.0145784
-0.0240897
-0.001408
-0.00209936
-0.027284
-0.0137277
-0.0082449
-0.0582755
-0.000377504
-0.00651016
-0.00101572
-0.0796172
-0.00121841
-0.000951062
-0.0590037
-0.00157494
-0.000375934
-0.000745324
-0.0390019
-0.0155031
-0.000197555
-0.0107385
-0.00756324
-0.00239812
0.00782681
0.00026963
-0.000316864
-0.000341634
-0.000322613
-0.0124319
-0.00034858
-0.0418162
-0.000385167
-0.018287
-0.044574
0.00531222
0.00180144
-0.00155205
-0.0130337
-0.0384993
-0.00524257
-0.0952866
-0.0236409
-0.000224109
-0.000502645
-0.0382984
-0.018163
-0.0215296
-0.0578666
-0.00666802
-0.0195926
-0.000362815
-0.000912411
-0.0817945
-0.00212983
-0.00122696
-0.0910741
-0.0109593
-0.000587525
9.33414e-05
-0.00194659
-0.00053436
-0.0166279
-0.0102562
-0.0318006
-0.0326394
-0.0158432
-0.000338385
-0.00773994
0.00273072
-0.0200678
-0.0284299
0.00293649
-0.00388078
-0.015741
-0.0667658
-0.000178022
-0.0178046
-0.0275925
-0.00883152
-0.00686657
-0.0671622
-0.0205933
-0.0209099
-0.0243914
0.00107099
-4.96231e-05
-0.000190846
-0.00101676
-0.00223547
0.00606416
-0.00662653
-0.00190672
0.0054634
-0.0011169
-0.0560018
-0.00194764
-0.00277151
-0.000915683
-0.011106
0.00126691
-0.00315412
-0.0705162
-0.00612768
-0.0295427
-0.0177188
-0.0061148
-0.000176664
-0.00453908
0.000358114
-0.0174082
-0.00034082
-0.0187885
-0.022814
0.000148019
0.00040611
-0.00118342
-0.0266641
-0.0228499
-0.0057213
-0.00726389
-0.0720894
-0.01072
-0.00141316
-0.0466169
-0.0313424
-0.0014142
-0.000594693
-0.000731857
-0.000319889
-0.0147561
0.000630076
-0.038347
-0.00026508
-0.00768093
0.000457335
-0.0741875
-0.000882679
0.00661536
-0.0327949
0.00723113
-0.00271618
-0.0299891
-0.0186494
-0.0256184
-0.000347389
-0.00128592
-0.0315869
-0.00037154
-0.00038024
0.000783445
-0.000408732
-0.00651091
-0.0284565
-0.0378084
-0.0414994
-0.000395955
-0.00809097
-0.0192465
-0.0175987
0.00224786
-0.0664307
0.00185184
-0.00672808
-0.00358732
-0.0068954
-0.0531437
-0.00260383
-0.000926939
-0.00273923
-0.09795
-0.000643985
-0.0147135
0.00606692
-0.00244384
-0.00122538
-0.00227331
-0.00580049
-0.0105815
-0.00132331
-0.0274352
-0.012967
-0.00170344
-0.0102726
0.000441641
-0.0176853
-0.0146634
-0.00192955
-0.00651451
-0.0161117
-0.00204627
-0.00483359
-0.012335
-0.0490647
-0.00093374
-0.0188642
-0.0106707
-0.0452791
-0.00101645
-0.028131
-0.0195303
-2.87288e-05
-0.0515439
-0.000324583
-0.0236525
-0.0328292
-0.00178934
-0.0139992
-0.0538479
0.00655804
-0.0950683
-0.00026088
-0.0393182
-0.01107
-0.000715675
-0.093954
-0.0455437
-0.0379802
-0.0403446
-0.0190482
-0.0156447
-0.0555692
-0.0746331
-0.000201437
0.000353817
-0.0083769
-0.000131575
-0.000739245
-0.0915652
-0.000342318
-0.0028779
-0.000240556
-0.0105649
-0.0268484
-0.000629413
-0.000392359
-0.0833093
-0.0156978
-0.0181156
-0.0051066
0.000189964
-0.0025917
-0.0121906
-0.0118854
-3.76875e-05
-0.0736624
-0.000594036
-0.0322852
0.00410571
-0.0125343
-0.00880902
-0.00533729
-0.00140358
0.000209987
-0.0701853
-0.000915816
-0.00129151
0.000758634
-0.0340397
0.00572753
-0.0395465
-0.00095069
-0.0199142
-0.000939196
-0.000712654
-0.00119986
-0.000845771
-0.0317259
-0.0311622
0.00522918
-0.000194682
-0.000614586
-0.000172816
-0.00142743
-0.0573697
-0.026018
-0.00452488
-0.000267683
-1.50667e-05
-0.00695152
-0.0343986
-0.00142189
-0.0540002
-0.00162177
-0.000995
-0.00190665
-0.0605641
-0.00470689
-0.0091195
-0.0164525
-0.0142757
-0.0531903
-0.0226841
-0.0018771
-0.00150383
-0.0485932
0.00663424
-0.000155964
-0.00516389
-0.0181051
-0.000141047
-0.0374723
-0.0721067
-0.0963514
-0.00234464
0.000484974
-0.00736425
-0.0513423
0.000387049
-0.077272
-0.0220448
-0.00958577
-0.0227828
-0.0195112
-0.00478369
-0.0131267
-0.0011127
-0.0487522
0.00173543
-0.00159928
-0.00265732
-0.00695114
-0.00875696
0.00749752
-0.000843318
3.87643e-05
-1.90413e-05
0.000897658
-0.016479
-0.00244841
-0.00959568
-0.00122931
0.0011308
-0.0109532
-0.0086593
-0.000756623
-0.000558255
-0.0980133
-0.0973046
0.00213475
-0.0566965
-0.0302701
-0.0308828
-0.0166153
-0.00531505
-0.0181806
-0.000191213
-0.0138832
-0.0161633
0.00118278
-0.00549853
-0.00439575
0.000362021
-0.0237194
-0.000314572
-0.0221925
-0.00132571
-0.000522612
-0.0193273
-0.0107231
-0.0538689
-0.00650039
-0.0373625
0.00139294
-0.0553466
-0.00189361
0.00492914
-0.00383713
-0.0140655
0.00162318
-0.00067716
-0.0175143
-0.0237546
-0.0536394
-0.006489
-0.0548333
-0.0946233
-0.0224385
-0.100508
0.00188292
-0.000642757
-0.00997983
-0.00137693
-0.00248048
-0.00124182
-0.00150555
-0.0198378
-0.0194821
-0.0153585
-0.00915923
0.00265373
-0.00100761
-0.0261302
-0.000223646
-0.0271098
-0.0113306
-0.00136349
-0.0106661
-0.0305022
-0.0557938
-0.000172696
-0.0980463
-0.0235159
0.00795715
0.00545496
-0.0624929
-0.0639008
-0.000351647
-0.000617982
-0.0227221
-0.000250566
-0.00803912
-0.00259346
-0.00117604
-0.00111667
-0.00119541
0.00138081
-0.000252956
-0.00218553
-0.0185194
-0.0945786
-0.0027919
0.0043761
-0.0131794
-0.0303958
0.000205523
-0.0224838
-0.000191495
-0.00125858
-0.0275531
-0.0287044
-0.0680586
-0.000669102
-0.0157803
-4.85932e-05
-0.0274752
-0.00645175
-0.095819
-0.102663
-0.0158187
-0.00143705
-0.0115125
-9.68359e-05
-0.0160432
-0.000118898
-0.000540394
-0.0147429
-0.0280204
-0.00168389
-0.0326314
-0.047863
-0.00108632
-0.0278466
-0.00814485
-0.000641479
-0.0588894
-0.00103963
-0.000599443
-0.00662567
-0.013585
0.000861415
0.00399012
-0.0191227
-0.0915881
0.00417645
-0.000177777
-0.0594059
-0.00372919
-0.00698445
-0.000203353
0.00282758
-0.0128277
-0.0175541
-0.00789301
-0.00490131
-0.0136141
-0.00115132
-0.00560376
-0.0231105
-0.00102014
-0.0265474
-0.0147205
-0.00538405
-0.000463382
-0.000799775
0.000151448
-0.0376322
-0.0467714
-0.00922782
-0.0523334
-0.000968223
-0.0118579
-0.000358545
-9.94552e-05
-0.00328943
-0.0405908
0.00156624
-0.00107908
0.00585564
0.000559558
-0.0170819
-0.000419811
-0.0171033
0.00302595
-0.00134706
-0.0309071
-0.0127691
-0.0155479
-0.00781444
-0.00548202
0.000325754
-0.0014561
-0.0204203
-0.00131373
-0.0119787
-0.00344319
-0.0984741
-0.000201278
-0.00122367
-0.000127967
-0.0198326
-0.00189723
-0.00445459
-0.0943347
-0.00809749
-0.0310734
-0.0116743
-0.00113752
0.00690513
-0.00145874
-0.00116071
-0.00256299
-0.0792493
-0.0125281
-0.000359234
-0.0254078
-0.0165352
-0.0562593
0.00124217
-0.0222813
-0.0544385
-0.0349726
-0.000466188
-0.00445139
0.000551008
-0.0037861
0.00709181
-0.0423336
-0.00709103
-0.00313546
-0.0134004
-0.00317212
-0.00788411
-0.0162427
-0.00146443
-0.0544428
-0.0262713
-0.0161191
-0.000852432
-0.00232498
-0.00766501
-0.0257524
-0.00266052
-0.0030226
-0.0631459
-0.0255569
-0.0159632
-0.0145415
-0.00888144
-0.027544
-0.00238737
-0.0230783
-0.0255325
0.00369965
-0.0798514
-0.019007
-0.0012159
-8.87124e-05
-0.00442467
-0.00126005
0.00110816
-0.001236
-0.012748
-0.0527769
-0.00519663
0.0013003
-0.0182329
-0.00160415
-0.00035076
-0.000137069
-0.0535774
-0.0156059
-0.0708036
-0.00034944
-0.0193408
-0.0567237
-0.0371695
-0.00777405
-0.000325633
-0.0778617
-0.0233082
-0.00681358
-0.0950995
-0.0155796
-0.0597601
-2.76685e-05
-0.0164551
-0.00733996
-0.000791453
-0.0634895
-0.0314488
-0.094238
-0.0943359
0.00107016
-0.070048
-0.0387893
-0.00323903
-0.0523051
-0.00138268
-0.0378285
-0.0239253
-0.0369555
-0.00117919
-0.0376658
-0.0590017
-0.000402421
-0.00627901
-0.068734
-0.0819037
-0.0154944
-0.00072969
-0.0460566
0.000193997
-0.0158892
-0.0339345
-0.0061331
-0.00539395
-0.00182391
-0.00152657
-0.0154622
-0.000600185
-0.051146
-0.0417356
0.00313181
-0.0187403
-0.00458188
-0.00386684
-0.00840516
-0.0713926
-0.0314946
-0.004289
-0.0706054
-0.0256772
-0.0163537
0.00860772
-0.00150817
-4.52972e-05
-0.0262663
-0.000388016
-0.0592444
-0.0275102
-0.0175246
-0.00627088
-0.0150404
0.00606509
-0.000768777
-0.0623165
-0.00186059
-0.0167308
-0.00106666
-0.0762488
-0.00714438
-0.00307747
-0.0211836
-0.00521141
-0.00160471
-0.0634016
-0.0636856
-0.000735867
-0.000237818
-0.0162634
-0.0144679
-0.0647971
0.000225448
-0.0626658
-0.0504235
-0.0329299
0.00570587
-0.0519182
-0.0448145
-0.0190033
-0.109887
-0.00126648
-0.0730795
0.000627346