/*--------------------------------*- C++ -*----------------------------------*\
| =========                 |                                                 |
| \\      /  F ield         | OpenFOAM: The Open Source CFD Toolbox           |
|  \\    /   O peration     | Version:  v2012                                 |
|   \\  /    A nd           | Website:  www.openfoam.com                      |
|    \\/     M anipulation  |                                                 |
\*---------------------------------------------------------------------------*/
FoamFile
{
    version     2.0;
    format      ascii;
    class       surfaceScalarField;
    location    "250";
    object      phi_0;
}
// * * * * * * * * * * * * * * * * * * * * * * * * * * * * * * * * * * * * * //

dimensions      [0 3 -1 0 0 0 0];
oriented        oriented;


internalField   nonuniform List<scalar> 
27642
(
-0.176974
0.039697
0.137277
-0.111093
0.0483803
0.0627124
0.350621
-0.371979
0.0213579
-0.118947
-0.150185
0.269132
0.387798
-0.0371773
0.467675
-0.0316848
-0.43599
-0.0242658
0.0836684
-0.0594026
-0.557441
0.557441
0.494905
-0.397924
-0.0969819
0.430561
-0.381186
-0.0493756
0.338678
-0.575067
0.236389
0.0543273
0.304426
-0.358754
-0.353394
0.494774
-0.14138
0.096438
-0.0218744
-0.0745636
0.0294302
-0.174885
0.145455
0.361341
-0.307014
-0.241061
0.320315
-0.0792541
0.393136
-0.355809
-0.0373268
-0.232072
-0.100472
0.332544
-0.508679
0.311658
0.19702
0.354721
0.0384148
0.528506
-0.245934
-0.282571
0.194001
-0.0665303
-0.127471
0.18767
0.272113
-0.459784
0.150455
0.249318
-0.399774
0.101935
-0.334007
0.554204
-0.313431
-0.240773
-0.0280595
0.00502085
0.0230386
-0.19756
0.416921
-0.219361
-0.223209
0.528014
-0.304805
-0.147544
0.358568
0.136338
-0.0197511
-0.0913415
0.514379
-0.175702
-0.398291
0.129415
0.268876
0.291251
0.168235
-0.459487
0.341084
-0.215129
-0.125954
-0.259765
0.410221
-0.014137
0.214567
-0.20043
0.439547
-0.0803882
-0.359159
-0.0117418
-0.0163177
0.368578
0.132008
-0.500587
0.139054
-0.417729
0.278675
-0.213536
0.199399
-0.235679
0.539834
-0.304155
0.0982287
-0.00179074
-0.480586
-0.0268457
0.507432
0.0740298
0.365517
0.265174
-0.0736583
-0.191516
0.265053
0.0865188
-0.351571
-0.0356543
0.179025
-0.143371
0.293994
-0.405773
0.11178
0.148507
-0.472331
0.323824
0.340439
-0.148839
-0.191601
-0.0578276
0.277829
-0.220001
-0.230069
0.52132
0.134881
-0.389873
0.254991
-0.00118511
0.00376479
-0.00257968
-0.00600527
0.0076921
-0.00168683
-0.465578
0.313543
0.152035
0.142522
0.187736
-0.330258
0.535739
-0.348885
-0.186855
0.468419
-0.319912
0.124386
-0.123438
-0.000948
0.250749
0.0144259
-0.287754
-0.091264
0.379018
-0.0754929
-0.181625
0.257118
0.0676109
-0.355365
-0.538855
0.26772
0.271135
-0.152758
0.150097
0.00266092
0.0864091
-0.316914
0.230505
-0.498517
0.172005
0.326511
0.317375
-0.0526035
0.154901
-0.352461
0.248507
-0.532018
0.283511
-0.557997
0.265903
0.292094
-0.208438
0.35096
-0.434678
0.342812
0.0918661
-0.418654
-0.0160236
0.0710833
-0.252137
0.181054
-0.119586
0.384639
0.380512
-0.538711
0.280844
0.257867
-0.377608
-0.161247
-0.107351
-0.272949
0.3803
0.0537527
0.263622
-0.455497
-0.0250888
0.458122
-0.1034
-0.102826
-0.137986
0.240812
0.0571849
-0.0103727
-0.0468122
0.184977
0.156107
-0.165506
-0.218955
0.38446
0.235392
0.189886
-0.425278
0.32613
-0.165452
-0.160678
0.220543
-0.34013
-0.255046
0.197218
0.239297
-0.256073
0.0167761
-0.159383
0.00662584
0.106067
0.324494
-0.101828
0.266022
-0.164194
0.38057
-0.245689
-0.237087
-0.152785
0.0376789
-0.305126
0.267447
0.344767
0.113355
-0.00669069
0.0566286
-0.0499379
0.25193
-0.0379719
-0.213958
0.148476
-0.156521
0.00804543
-0.103089
0.14563
-0.0425407
0.407428
0.0552238
-0.462652
0.0458572
-0.0542006
0.00834343
0.0424789
0.318862
-0.201027
0.42157
0.181648
0.0123527
0.305476
-0.267797
0.497627
-0.139059
0.261734
0.0831364
-0.34487
-0.075033
0.247188
-0.172155
-0.480998
0.0764602
0.404538
-0.299518
0.341997
0.272558
-0.417972
0.145414
-0.133868
0.395602
-0.332305
0.438197
-0.105892
-0.170245
0.432164
-0.261919
0.422961
-0.283908
-0.349433
-0.149083
0.00818777
-0.0766764
0.0684886
0.239704
-0.346651
0.106947
0.397756
-0.125198
0.501619
-0.133041
-0.0162096
-0.0285896
0.0447992
0.209784
-0.542089
-0.0874422
0.083173
0.00426919
0.419485
-0.21689
-0.202595
-0.178142
0.202915
-0.0247738
-0.216784
0.00324784
-0.291211
0.285874
0.00533697
0.225578
0.328625
0.391664
-0.447862
0.0561975
-0.0777722
0.469437
0.0172651
-0.0112458
-0.00601937
-0.227838
0.302792
-0.0749541
0.237394
0.222666
-0.46006
-0.130353
0.340929
-0.210576
-0.0946349
0.0194806
0.0751543
0.156838
0.0057966
-0.162635
-0.26618
-0.190331
0.456512
0.0424562
-0.0491469
-0.45494
0.475331
-0.0203916
-0.286231
-0.11206
-0.250071
0.487466
0.315107
0.18252
0.228945
-0.163706
-0.065239
0.596577
-0.358609
-0.237968
0.0108967
-0.090457
0.0795603
-0.450367
0.308835
0.141532
0.13143
0.1947
0.246837
0.34974
-0.529225
0.204811
0.324414
0.152143
-0.399927
0.247784
0.409912
-0.166276
-0.243636
-0.254295
-0.0369162
-0.0292839
-0.145601
0.165716
-0.0172399
-0.45439
0.100996
0.00311524
0.00228597
-0.00540121
0.388687
-0.33379
-0.0548969
0.170489
-0.0208136
-0.149675
0.217961
-0.323289
0.105328
-0.35685
-0.181861
0.133922
0.282999
0.467675
0.215826
0.203659
-0.447783
0.390318
0.0574648
-0.0278191
0.23546
-0.207641
-0.388967
-0.0588162
0.0697756
-0.327963
0.258187
-0.120069
-0.219005
0.339074
0.364055
-0.294279
0.229745
0.168011
-0.139862
0.369607
0.0522044
0.00010085
0.534445
-0.235989
-0.298457
-0.280857
0.227071
0.0537865
-0.0785423
0.0789174
-0.000375116
0.131795
0.272222
-0.404017
0.232177
-0.397683
0.0102951
0.00697002
-0.345032
0.509622
-0.16459
0.177009
-0.176923
-8.6063e-05
0.346217
0.0424697
-0.102516
0.166501
-0.0639848
0.163805
-0.238838
-0.255332
-0.16264
0.239367
0.141203
0.199846
-0.319915
0.0201388
0.15035
-0.233175
0.532942
-0.299767
0.140127
-0.42892
0.288793
0.115383
0.259807
-0.37519
0.178808
0.0257602
-0.204568
0.190277
-0.18757
-0.00270706
-0.24526
0.216884
0.0283765
0.464647
-0.208155
-0.256492
0.457861
-0.213709
-0.244153
0.104317
-0.139971
0.218907
-0.32243
0.103523
0.29533
0.371299
-0.186322
0.260605
0.204041
0.30752
-0.0678163
-0.0956141
0.314521
0.185912
0.328467
0.0390177
-0.285958
0.24694
0.00658022
-0.127094
0.120514
0.1418
-0.244627
-0.210053
0.0319116
0.173202
0.0557426
0.118471
-0.366134
0.247663
-0.219555
0.117039
0.457386
-0.419495
-0.0378906
0.110472
0.253583
-0.144745
0.155504
-0.0107596
0.0585472
-0.00136223
0.259458
0.273484
0.340383
-0.301365
0.44478
-0.304653
0.221938
0.017359
-0.0477735
0.0205109
0.0272626
0.155851
-0.25768
-0.2998
0.415183
0.159723
-0.0245972
-0.135126
0.121152
-0.136534
0.015382
0.23659
-0.462379
0.225789
-0.215222
-0.165964
-0.47328
-0.222757
0.313435
-0.090678
-0.455886
0.189706
0.102079
-0.221025
0.50372
-0.216395
-0.287326
0.227147
0.230715
0.446831
-0.165116
-0.281715
-0.262962
0.394758
0.00183527
0.175174
-0.257942
-0.0229152
0.16923
0.240682
-0.0835237
-0.224868
0.308392
-0.52014
0.238648
0.281493
-0.30856
0.0846286
0.223931
-0.396885
0.131614
0.265271
0.438054
-0.423284
-0.0147694
0.00176352
-0.00294863
0.166333
-0.468587
0.302254
-0.045583
0.224391
0.241761
0.0191834
-0.260944
-0.262922
0.498314
-0.241061
-0.100522
0.341583
0.461957
-0.419112
-0.0428445
-0.253055
0.363527
0.46866
-0.153553
0.0351209
-0.0816214
0.0465005
0.411412
0.10729
-0.518702
-0.137929
-0.419511
-0.0551535
0.296914
0.491918
-0.325585
0.106851
0.355106
0.38745
-0.131001
-0.256449
-0.382974
-0.0886716
0.471646
0.149825
0.271468
-0.421293
0.552341
-0.384248
-0.168093
0.165815
0.221635
-0.423534
-0.0146825
0.438216
-0.222151
0.0860343
0.00879559
-0.0948299
-0.00580932
-0.417725
0.222717
-0.233863
0.0111455
0.00230708
-0.000469213
-0.00183787
-0.365986
-0.130478
0.496464
0.386233
-0.0414664
0.471026
-0.0807077
0.318949
-0.0825452
-0.236404
0.0131625
-0.116252
0.0772261
-0.0982654
0.0210392
0.306076
0.162343
0.451283
-0.235457
0.225739
0.0817815
0.0261532
0.0982328
0.119721
0.351305
-0.333968
0.245095
0.0888728
0.327882
-0.20711
-0.120772
-0.170986
0.103676
0.0673096
-0.55625
0.169165
0.387085
0.556522
-0.318571
-0.237951
-0.210349
-0.364718
0.153119
-0.342541
0.189422
0.0166367
-0.0328464
0.0914986
0.155689
-0.262713
-0.053687
0.3164
0.348147
-0.195028
-0.0659018
0.503956
0.339395
0.0468379
-0.509582
0.289043
0.220539
-0.438046
0.0930141
0.142158
-0.0210066
-0.24923
0.173737
0.577102
-0.398917
-0.178185
0.0282101
-0.290923
-0.228834
-0.15403
0.382863
0.136459
-0.407828
0.27137
-0.150331
-0.300036
0.401537
0.175565
-0.233807
0.318436
0.205177
0.191294
-0.39647
0.0688239
0.250125
0.0234846
0.387927
0.0933732
0.24701
0.166734
0.161147
0.164841
0.206458
-0.309835
0.493307
-0.183472
0.19061
-0.482881
0.292271
-0.213936
-0.443367
0.31822
0.125148
-0.438171
0.0721842
-0.222018
-0.224374
0.446392
0.275175
0.138492
-0.413667
-0.220502
-0.288176
0.374794
-0.322539
-0.0522551
0.0014924
0.175536
-0.177028
0.237575
-0.253736
0.347109
-0.39165
0.221405
-0.0931809
0.500609
-0.0464572
-0.00131636
-0.369932
-0.0850078
-0.00718271
-0.00321174
0.0103945
0.467393
-0.279723
0.102749
-0.0676282
0.529564
-0.353865
-0.175699
-0.348907
0.107846
-0.0497603
0.209975
-0.160215
-0.154714
0.198304
0.0162629
-0.343601
0.480072
-0.136471
-0.206147
0.0172561
0.188891
-0.312992
0.45056
-0.137568
0.0185668
-0.377175
-0.441574
0.131738
0.335143
-0.122082
-0.213061
-0.274968
-0.0499332
-0.156214
-0.0753723
0.076272
-0.000899643
0.0980178
-0.295239
0.197221
0.122973
-0.116393
0.0978532
-0.338915
-0.00948901
0.0955233
-0.0410479
-0.0535869
0.189654
-0.267489
0.0778347
0.000406385
-0.00641166
0.256633
0.11816
0.0683715
0.0804981
-0.14887
0.340429
-0.105958
-0.234472
-0.138794
0.348702
-0.209909
0.170006
0.176211
-0.298651
0.317218
0.174053
-0.250046
0.0759926
-0.0341333
0.0275741
0.00655925
-0.246655
0.380577
-0.0833692
0.0591034
0.439509
-0.320402
-0.119106
-0.0108593
0.00367656
-0.405125
0.149793
0.0883644
-0.283185
0.194821
-0.11634
-0.214294
0.330634
-0.183029
0.47429
-0.29126
0.358814
0.202077
-0.00656274
-0.0808795
-0.430833
0.33193
0.0989029
0.597756
-0.17871
-0.419046
0.5045
-0.141661
-0.36284
-0.144253
-0.243694
0.387947
0.246794
-0.155295
0.259765
0.183021
-0.442785
-0.265352
0.107962
0.15739
0.172688
0.268483
-0.375834
-0.169739
-0.0300598
0.199799
0.0209707
-0.300336
-0.171994
0.364523
0.233234
-0.272446
0.394841
-0.122396
0.200174
-0.29602
0.095846
0.281869
0.157639
-0.00804574
0.053903
0.297325
-0.097151
0.201646
-0.239702
0.211883
0.203724
-0.308187
0.104464
-0.397657
-0.192852
-0.290029
0.177117
-0.165436
-0.0116806
0.153424
-0.104469
0.473361
-0.17869
-0.294671
0.558374
-0.43027
-0.128104
0.209404
0.131026
0.28637
0.15841
-0.152532
0.189167
0.284194
-0.00351695
0.105671
-0.102154
0.122115
0.213028
0.00540625
-0.00229101
-0.138706
-0.290214
-0.147638
0.461587
-0.313949
-0.00696728
0.0467675
-0.0398002
-0.0590069
0.0671947
-0.0666096
-0.104376
-0.211026
0.447616
0.425521
0.245615
-0.0363778
-0.209237
-0.259489
0.378071
-0.346717
0.0742717
0.585727
-0.316987
-0.26874
-0.211021
-0.107846
0.318866
-0.12995
-0.465748
0.0988975
-0.148658
0.084993
-0.0366127
0.37745
-0.131197
-0.246253
0.148369
-0.456233
0.307863
-0.313129
0.102108
0.282185
-0.19382
0.484769
-0.174743
-0.310026
-0.314188
0.244845
0.0693433
-0.467534
0.181822
0.285712
-0.28491
-0.154295
0.439205
0.151424
0.197279
0.254793
-0.0651388
0.263802
0.155586
0.262133
0.156447
-0.41858
-0.480998
-0.134376
0.382884
-0.186768
0.491824
-0.305055
-0.203121
0.161424
0.0416968
0.425103
-0.197956
0.0992534
-0.331177
0.231924
-0.292013
0.341255
-0.0492418
0.192151
0.292618
0.286923
-0.453199
-0.222983
-0.0944429
0.317426
-0.000382813
0.000695339
-0.000312526
0.297019
0.232546
0.520676
-0.233028
-0.287648
-0.252145
-0.0818235
-0.00122035
0.000837538
0.391324
-0.359455
-0.0318695
0.455969
-0.3076
-0.29248
0.228814
0.0636659
0.174267
0.294393
-0.0934352
-0.186212
-0.371785
0.0766455
0.00702293
-0.0132731
0.470659
0.437704
0.0293612
-0.467065
0.422742
-0.160609
-0.219302
0.499804
-0.280502
0.461188
0.0792678
-0.256546
0.177278
-0.0236454
-0.0104879
0.278026
0.120414
-0.39844
0.225434
0.309011
-0.353845
0.488165
-0.13432
0.167017
-0.480362
0.313345
0.20453
-0.548131
-0.170881
-0.178025
0.0881228
0.0251108
0.366213
0.289853
-0.191835
0.128931
0.428509
-0.256872
-0.0356079
0.254005
-0.394473
0.140468
0.146268
0.0134555
0.432411
-0.0364854
-0.395925
0.234888
0.184098
0.0192833
-0.338369
0.319086
-0.141828
-0.191962
-0.0627164
-0.311448
0.330732
0.187475
0.237627
-0.0337207
-0.0645446
0.40531
-0.210135
-0.195175
-0.0179386
-0.0366648
0.0546034
0.0133533
-0.456617
0.450808
0.0389703
-0.0569089
-0.0651918
0.031471
-0.53439
0.0922116
-0.477004
0.384792
-0.445913
0.140091
0.305822
-0.102276
0.219315
0.00234585
-0.0367003
-0.0867377
0.466176
-0.123364
0.0112593
-0.023001
-0.154489
0.379561
-0.225072
0.3087
0.22704
0.482473
-0.190389
0.462503
-0.0363474
-0.100186
-0.381841
0.0969312
-0.0631006
0.374759
-0.301234
0.258382
0.130782
-0.389164
-0.0287917
-0.0254089
0.114229
-0.373718
-0.298635
0.156807
0.00676829
-0.00442244
-0.117022
0.292208
-0.175186
0.0203692
-0.340949
0.320579
-0.291079
-0.180159
0.190661
0.168365
-0.166873
-0.00116209
-0.178996
-0.17573
-0.353495
-0.0971437
-0.148117
-0.0985575
-0.261363
0.359921
-0.422398
0.337166
0.0852321
-0.212945
0.473194
-0.260248
-0.154287
0.0520104
0.167986
-0.322475
0.217557
-0.339639
-0.527456
0.265575
0.261881
0.270856
-0.435972
0.335698
0.15622
-0.293541
-0.125114
0.498628
-0.223261
-0.275366
0.145933
-0.373087
-0.181377
-0.2616
0.442977
0.474726
-0.23841
0.107207
-0.133553
0.0263461
-0.0777546
0.0987938
-0.114495
0.318219
0.182624
-0.176828
0.173784
-0.252327
0.0785421
0.224021
0.0962935
0.40595
-0.437634
0.0200467
-0.325172
0.00356331
-0.000309828
-0.00325348
0.0493867
0.00281774
-0.39864
-0.0237578
-0.278323
-0.193397
0.47172
-0.0853742
0.393865
-0.289987
-0.103878
-0.0160976
0.177546
-0.161448
-0.493935
0.181508
0.312427
0.220813
-0.3244
0.103587
-0.301397
-0.117035
0.418432
-0.208021
-0.319436
0.223572
0.280148
0.551631
-0.328059
0.00500219
-0.0012374
-0.195598
0.194436
-0.180937
0.208093
-0.0271557
-0.179916
0.180987
-0.271557
0.0905702
0.392191
-0.119969
0.147833
0.119242
-0.521801
0.384781
0.137021
-0.00236458
0.0300718
-0.028438
-0.00163379
0.265771
-0.409821
0.144051
-0.214399
-0.000730151
-0.185729
0.484583
-0.298853
-0.523299
0.206594
0.316706
-0.136713
0.402483
-0.0199724
0.0234713
-0.00349891
-0.265496
-0.184943
0.450439
0.111973
-0.460858
0.194503
-0.472826
-0.0505278
0.0476408
0.00288696
0.368827
-0.250356
-0.027285
0.0477959
0.40572
-0.312647
-0.0930731
-0.124046
0.382428
-0.16073
-0.383604
0.283541
0.100063
0.459264
-0.161661
-0.297603
0.28881
0.105055
0.309991
-0.407079
0.0970875
-0.33415
0.112132
0.273749
-0.435431
0.161681
0.0883817
-0.270007
-0.441492
-0.00801374
0.449506
-0.314175
0.13615
0.135131
-0.027924
-0.235636
-0.189374
0.42501
0.150868
-0.411447
0.260579
0.486135
-0.256828
-0.229307
0.411201
-0.0630542
0.405078
-0.151073
-0.177103
0.487094
-0.167123
-0.263467
0.43059
-0.412614
0.176978
0.426805
-0.27698
0.156404
-0.47625
0.319846
-0.301231
0.0782479
-0.103112
-0.162239
0.489099
-0.1534
0.193088
-0.231059
0.355266
0.133833
-0.303028
0.459432
-0.0896958
0.20885
0.209404
0.289224
0.260557
-0.431478
0.170921
0.294098
0.192037
0.000310555
0.00052491
-0.000835465
-0.125705
0.384199
-0.258495
0.0797731
0.167021
-0.152057
-0.341298
0.110952
0.230346
-0.178342
0.263602
-0.444978
-0.0590617
-0.294938
-0.193754
0.488692
-0.104223
0.00108673
-0.192219
0.0224794
0.465001
-0.182418
-0.282583
0.189865
0.107461
-0.223626
0.392856
0.282333
0.128868
0.385785
-0.0984642
-0.287321
0.198661
0.168223
0.264416
0.141304
-0.00168888
-0.226149
0.464735
-0.172336
-0.292398
0.231372
0.109557
0.0432444
-0.425012
0.341495
0.0835164
0.156177
-0.472765
0.316588
-0.166202
0.150104
-0.20937
0.311306
0.382853
-0.246394
0.278195
-0.0883303
0.25542
-0.0199601
-0.353636
0.199607
0.494765
-0.177413
-0.317352
0.0967104
0.193143
0.106513
-0.356557
0.250044
-0.277961
-0.105643
-0.3373
0.00185964
-0.0923166
-0.339992
0.286305
-0.320884
0.113508
0.207375
-0.157729
-0.171305
0.476755
-0.30545
-0.143373
0.414841
-0.460299
0.332897
0.127402
0.348762
0.179251
-0.22437
0.307506
0.396952
-0.414316
0.0173637
-0.14937
0.374044
-0.224674
-0.263688
0.3559
-0.341014
-0.168568
-0.152808
0.439087
-0.286279
0.119641
0.18315
0.220524
-0.0222198
0.271603
-0.465766
0.152336
0.521498
-0.36822
-0.153278
0.0183236
-0.346287
0.426326
-0.275458
-0.12653
0.398263
-0.271734
0.493988
-0.34788
-0.146108
0.323163
-0.0566482
-0.266515
-0.474333
0.318893
-0.228667
-0.339218
0.222878
0.0312615
-0.00118971
0.320544
-0.136182
-0.184361
0.15186
0.274465
0.0387821
-0.087523
-0.149128
0.343611
0.00280324
0.00488887
0.322172
-0.438867
0.116695
0.393045
-0.486226
-0.0355568
-0.00483905
-0.0416181
0.491152
-0.345359
-0.145793
0.150335
0.114559
-0.264894
0.253574
-0.173801
-0.36785
0.21848
-0.103491
0.0369611
0.125398
0.252053
-0.118436
0.158133
-0.319134
0.220577
-0.286064
0.113184
0.17288
-0.078511
-0.261481
0.29148
0.176937
-0.468417
-0.136954
-0.0323262
0.16928
-0.299418
-0.169169
0.320459
-0.48819
0.167731
0.0503065
-0.023469
-0.380955
-0.0440565
0.0477652
0.00162145
0.336702
-0.230189
0.328452
-0.47609
0.395876
0.00107624
-0.383331
0.117835
-0.00941332
0.098949
-0.0895357
0.13362
0.00853819
0.216357
0.0993195
-0.00159606
0.00335958
0.488832
-0.314565
-0.423037
-0.330012
0.23019
0.0998228
-0.124375
-0.161689
-0.391695
0.128733
0.312387
-0.0133238
-0.299063
0.00196725
0.507888
-0.185282
-0.322606
0.276963
0.135337
-0.4123
-0.324352
-0.0725331
-0.00638523
0.0660888
-0.0597035
0.21315
0.00737374
-0.0835203
0.397063
-0.167155
-0.224494
0.215944
0.0933697
-0.309313
0.171753
0.0830398
-0.00438449
0.00718773
0.000900054
-0.0481765
0.0472764
0.482551
-0.279044
-0.203507
0.0322129
0.503821
-0.208501
-0.295319
0.357508
-0.192666
-0.0907952
0.262548
-0.42797
-0.0258874
0.453857
0.145424
0.0127156
-0.158139
-0.313346
0.0884783
0.302881
0.20094
-0.170326
-0.265334
0.361426
-0.096092
0.427856
-0.139362
-0.288494
-0.269117
0.223534
0.0178384
-0.154792
-0.156628
-0.0955089
0.0535435
0.181147
0.266603
-0.44775
0.221749
-0.0479642
-0.320421
0.378126
-0.144379
-0.0724055
-0.0170826
-0.377148
0.394231
-0.292359
0.466051
-0.173692
-0.220431
0.208528
0.0119028
-0.403941
-0.285167
-0.083724
0.368891
0.160413
0.197094
-0.21041
-0.0629938
0.273404
0.400035
-0.250554
-0.149481
-0.0325685
-0.0815663
0.114135
-0.491766
0.191226
0.30054
-0.0801921
0.305931
-0.0993276
0.215398
-0.116071
0.314053
-0.503502
0.189449
0.462964
-0.156888
0.0473064
-0.339319
-0.395961
0.132756
0.263206
0.455834
-0.112008
-0.343826
0.135556
0.259781
-0.395337
0.278241
0.151533
-0.429774
0.273275
0.147506
-0.420781
0.145653
-0.412471
0.266817
0.280934
-0.467702
0.103893
-0.457738
0.41178
-0.230634
0.250435
-0.46338
-0.0259579
0.0170231
0.00893476
-0.412542
0.178693
0.233849
0.521676
-0.349001
-0.172675
0.212259
0.0953413
-0.3076
-0.46922
0.17686
0.00528739
-0.00388075
-0.00140664
0.372554
-0.22113
0.0992644
-0.198592
0.375378
-0.0851678
0.439826
-0.287966
0.184707
-0.474711
0.290005
0.256119
-0.131532
-0.124587
0.418537
-0.422875
0.302906
0.289193
-0.192482
-0.260146
-0.17
0.430146
0.14916
-0.257432
0.108272
0.0490636
-0.259474
-0.362389
0.122367
0.240022
-0.173767
0.475481
-0.301714
0.305475
0.160576
-0.230679
0.352795
0.0956893
0.193503
-0.22631
-0.259178
0.485488
0.100064
-0.347019
0.246954
0.157396
0.298438
0.39638
-0.11814
0.292721
0.156443
-0.449164
0.294981
-0.0790377
0.384405
-0.281349
-0.103056
0.0839831
-0.30674
-0.0831568
-0.140863
-0.111463
-0.317107
0.489073
-0.171966
0.0841372
0.229298
0.0736912
-0.10626
-0.0128368
-0.0131211
-0.00339236
0.0499998
-0.0466074
-0.0552418
-0.213875
-0.015715
0.0304275
-0.0147125
-0.113669
-0.0267424
-0.193688
-0.173039
0.185061
0.250238
-0.435299
-0.204414
0.399985
-0.126711
0.152503
0.0898279
0.442915
-0.0860926
-0.356823
0.2659
0.0129032
-0.278803
-0.140639
-0.379501
0.308278
0.134843
-0.443121
-0.344363
0.424924
-0.0805612
0.167849
-0.368875
-0.163231
-0.016846
0.180076
0.110471
0.167724
-0.0656074
0.0171412
0.0484662
-0.147604
0.108321
0.0392835
0.361652
-0.124215
-0.237437
0.438766
-0.162412
-0.276354
-0.497881
0.351054
0.146827
-3.09274e-05
-0.375131
-0.0557016
-0.00187477
-0.0734976
-0.305674
-0.186092
0.158211
0.293503
-0.519813
-0.0717483
0.380026
-0.16783
-0.0241908
0.19202
-0.0611994
0.327099
0.149839
0.0719099
0.0844069
0.255243
-0.33965
-0.407609
0.254801
0.147328
0.214324
0.00129793
-0.00568242
0.00593914
0.00124858
0.109545
-0.422537
-0.181005
0.166736
0.0142688
0.112976
-0.337095
0.224119
0.181912
0.306921
-0.11354
-0.235709
0.349249
-0.461531
0.158471
0.30306
0.132581
-0.433978
0.0102988
0.432616
-0.105793
0.0963793
0.537402
-0.334996
-0.202406
-0.0681679
-0.10385
-0.269404
0.373254
0.162167
0.302568
-0.336844
-0.0860307
0.0723547
0.219705
-0.0693699
0.15041
-0.441573
0.291163
0.343767
-0.230792
0.165839
0.483917
-0.302175
-0.181742
0.510759
-0.117713
0.37397
-0.206121
-0.0628976
0.365778
0.0301051
0.192612
0.286402
-0.390251
0.218618
-0.305661
0.0870432
-0.139913
0.120743
0.0191706
0.480225
-0.13764
-0.342584
0.0841014
-0.336468
0.252366
0.111192
0.144927
0.231737
-0.456111
-0.461753
0.125223
0.33653
0.211087
0.140639
-0.351725
0.279589
-0.368704
-0.27044
0.142816
0.00345204
-0.0409
0.0375076
0.192977
0.282862
-0.475839
0.387158
-0.199682
-0.305703
-0.136792
0.442495
-0.370095
0.295192
0.0749032
-0.334075
0.233554
0.277598
0.135256
-0.412853
-0.231461
0.319416
-0.087955
0.157851
0.242184
-0.0826129
0.220462
0.0879296
0.176495
0.307422
0.160721
0.211833
-0.305136
0.185417
0.119719
-0.147989
0.413892
-0.439369
0.159597
0.279773
-0.0534152
0.0543153
0.150661
0.316732
0.448209
-0.297799
0.129746
-0.369301
0.239555
-0.00110138
0.146525
0.35764
-0.281179
-0.376156
0.11601
-0.0410351
-0.161645
0.20268
-0.244918
0.437894
-0.231883
0.315985
-0.144264
0.35535
-0.0162058
0.0422883
-0.0260826
-0.307231
0.474248
-0.400891
0.141126
0.231085
0.26372
-0.486096
0.296771
0.189325
-0.210564
0.169529
-0.121179
0.127985
-0.0068066
-0.0425514
-0.138454
0.508687
-0.172919
-0.335768
0.157112
-0.475682
-0.305576
0.24483
0.249936
-0.118803
-0.135605
-0.36589
0.509809
-0.143919
0.0812982
0.2782
0.106205
0.32465
-0.0680165
0.376007
-0.265055
0.209056
0.273495
-0.26367
0.282854
0.193814
-0.306784
0.11297
-0.137294
0.374538
-0.237244
-0.5115
0.281239
0.230261
-0.00381334
0.00624355
-0.00243021
0.182935
0.0789766
-0.261911
-0.0896766
-0.0438764
-0.0381062
-0.286793
0.324899
0.360764
-0.276357
0.447359
-0.322136
0.305347
-0.368245
0.461901
-0.267397
-0.196765
0.265588
-0.0784817
-0.319442
0.212635
-0.250741
0.16345
-0.280471
-0.123336
0.215001
-0.247489
0.347553
0.279834
0.241664
-0.108747
-0.00223233
-0.030236
0.0324684
0.0490078
0.275642
-0.267093
0.344483
-0.0773895
0.161278
0.286932
0.0208345
-0.0158136
-0.0327884
-0.0328191
-0.0622588
0.0538599
0.00839889
0.135803
0.159178
0.104184
-0.107701
-0.00240029
0.00833943
-0.298635
0.205537
0.093098
-0.00282025
0.00510622
0.45297
-0.291692
0.149041
-0.00622469
-0.45279
0.149514
0.303276
-0.488556
0.280401
0.460568
-0.155093
-0.0771132
0.121345
-0.0442316
-0.480849
0.236086
0.244764
0.0712967
-0.00782861
-0.063468
0.145419
-0.294258
0.403952
-0.0285483
-0.375404
0.278133
-0.497435
0.48766
-0.173607
0.269997
0.237891
-0.257087
0.173895
0.0831924
0.0877255
-0.35306
0.124188
-0.373964
-0.0889451
-0.144918
0.219595
-0.0697559
-0.31692
0.0498272
0.333507
-0.173094
-0.325375
0.10637
0.33889
-0.132001
-0.206889
0.0431645
-0.387527
0.100211
-0.417317
0.14321
-0.426239
0.283029
-0.375262
-0.0527073
-0.162298
-0.250245
-0.0329217
0.465333
0.0786649
0.0480491
-0.126714
0.309156
0.138701
-0.447857
0.245467
-0.166199
-0.367634
0.236436
-0.00432419
0.00473058
0.154484
-0.439219
0.284736
-0.452897
0.302505
0.150392
0.0681272
-0.0761729
-0.0175661
0.166105
-0.148539
0.0102193
0.121928
-0.234822
-0.266914
0.366679
-0.331687
0.114628
0.21706
0.0551139
-0.211742
-0.133399
0.0437223
-0.317636
-0.145268
0.462904
0.439298
-0.284814
-0.048101
-0.0995032
-0.0222047
0.440843
-0.181078
0.000239379
0.0678878
-0.147704
0.397022
0.122319
-0.00744224
-0.114877
0.0426686
0.106372
0.17409
-0.464432
0.290342
-0.553005
0.258066
0.28404
-0.517068
-0.0251629
0.429115
0.00405409
-0.00374354
-0.443514
0.161272
0.282242
-0.252006
0.446764
-0.311294
-0.135469
-0.179932
-0.352086
-0.0594853
-0.31061
0.279069
-0.450765
0.171696
-0.358354
0.240204
0.118151
0.148462
-0.465449
0.455246
-0.0781729
0.280574
-0.191968
0.507334
-0.315366
-0.371814
0.310614
0.259688
-0.40351
0.143822
0.30942
-0.11244
-0.19698
-0.459221
0.343041
0.116181
-0.152999
-0.466366
0.283948
-0.128267
0.148279
-0.448651
-0.140366
0.458585
-0.389894
0.0111067
0.378787
0.278579
0.161248
0.168983
-0.0149004
-0.154083
-0.383949
0.031759
-0.108872
0.00183253
0.00345486
0.241957
-0.256503
0.0145462
0.0721084
-0.222294
-0.00134523
0.171254
-0.169909
0.285862
0.175726
-0.0192526
-0.146184
-0.311476
0.402418
-0.0909417
-0.186048
0.0228174
0.0171491
0.199735
-0.115448
0.311259
-0.19581
-0.000642991
0.0319045
0.169078
-0.148524
-0.0205536
-0.00856787
-0.0419599
0.412533
-0.414035
0.00150179
-0.370859
-0.140641
0.115031
-0.00936018
0.315624
0.00453024
-0.320154
0.303061
-0.109247
-0.0809202
0.0075277
0.0733925
-0.0451246
-0.218546
-0.224711
-0.100664
0.181627
0.257138
0.0814375
-0.459045
-0.0767155
0.0851008
-0.00838529
-0.268152
-0.19441
0.462562
-0.394399
0.267869
0.204488
0.0462606
-0.165097
0.395445
-0.230348
0.433507
-0.0209741
-0.33586
0.0458725
0.190315
0.130228
0.30029
0.160278
-0.108762
0.421149
0.238679
-0.240368
-0.158337
-0.249272
0.223309
-0.388406
-0.0760998
0.205305
0.0725235
-0.252261
-0.110128
0.516155
-0.243556
-0.272599
-0.382978
0.259548
0.12343
0.0137406
-0.00321975
-0.0105209
-0.281284
0.472612
-0.191327
-0.0573345
0.250422
-0.371597
0.0961967
0.2754
0.228255
-0.341795
0.355963
-0.231775
-0.176541
-0.292013
0.468555
-0.105957
-0.353264
-0.0375768
0.3532
-0.327448
0.102737
-0.205784
-0.0114671
0.217251
0.26016
-0.149689
-0.433337
0.266213
0.03775
-0.00260713
-0.0351429
0.283722
0.147423
-0.431145
0.124738
-0.0214793
-0.103259
-0.0759366
0.249831
-0.134295
0.393983
0.408934
-0.251082
0.103921
0.259963
-0.363884
-0.276008
-0.11105
0.387059
-0.103717
0.425889
-0.10077
0.0451673
0.00247348
0.146
-0.163566
0.273915
0.113243
-0.29537
0.446031
-0.0451176
0.094506
-0.337399
0.242893
0.289909
-0.154106
-0.273984
-0.0682689
-0.303545
0.232932
0.40755
-0.219741
-0.187809
-0.324135
-0.1698
0.133735
0.214295
-0.348031
0.385976
-0.147328
-0.316923
0.228452
0.088471
-0.22468
0.0175703
-0.140357
0.356553
-0.216196
-0.111117
-0.316198
0.00472193
0.00703502
0.0692369
-0.303081
0.289758
0.0711943
-0.361944
0.29075
0.374331
-0.238775
-0.25428
0.221718
0.0325617
-0.293448
0.474956
-0.270277
0.371626
-0.101349
0.503711
0.163545
-0.160641
0.243082
-0.380505
0.137424
-0.138519
0.38506
-0.363408
-0.0216521
-0.0928772
0.341412
0.292316
0.141674
-0.43399
0.27201
-0.447433
0.175423
0.0252066
0.359854
0.167689
-0.172264
-0.183546
-0.457025
0.236523
0.211445
-0.334429
0.122984
0.328118
0.156464
0.206918
0.095632
-0.30255
0.376808
-0.235605
-0.0957939
-0.158486
0.487528
-0.314194
-0.0216653
0.0193079
-0.0110797
-0.38142
0.105411
0.510759
-0.323838
-0.186921
0.206343
0.0795314
0.203285
-0.22592
0.0226352
-0.228992
0.257145
-0.0281532
-0.475924
0.399689
0.076235
0.130555
-0.2674
0.452107
0.110311
0.234084
-0.344395
-0.467215
-0.122539
0.351152
-0.228613
0.2642
-0.162121
0.188286
-0.411912
0.0999835
0.209437
0.310627
-0.106391
-0.204236
0.386055
-0.142974
-0.145613
-0.277404
0.423017
0.086508
-0.293376
0.206868
0.276543
0.0808694
-0.0770523
-0.00381703
0.368096
-0.264175
-0.386335
-0.0551568
-0.265258
0.179951
0.0853078
-0.436575
0.302723
0.133851
0.44431
-0.1723
0.00415382
-0.343472
-0.145083
-0.198958
0.294647
0.204581
0.306178
0.27968
0.157538
-0.437217
0.0410998
0.085091
-0.126191
-0.123928
-0.292285
-0.149288
0.315422
0.114802
0.184159
-0.298961
-0.221692
-0.117965
-0.145297
0.263262
-0.226371
0.307635
-0.0812633
0.0890814
0.0356566
0.363661
-0.380744
0.141049
0.249718
-0.390768
-0.367169
0.145665
0.221504
0.179305
0.0742694
0.0350889
0.00266109
-0.0300764
0.0270786
0.0029978
0.0730327
0.146562
0.128906
0.245632
-0.00683933
0.147398
-0.140559
-0.287656
0.407811
-0.120155
0.480375
-0.318208
-0.398624
0.13268
0.265943
-0.125691
-0.263164
0.388854
-0.106634
-0.388503
0.103336
-0.189419
0.0215894
0.452678
-0.206448
0.23866
-0.344247
0.105587
0.233172
0.0961682
-0.32934
0.200367
-0.308724
0.108356
0.466171
-0.174691
0.418485
-0.140888
0.00430213
0.0669945
-0.388556
0.102598
0.252267
-0.377972
-0.148103
0.429154
-0.28105
0.300352
0.193635
0.0362313
0.220005
-0.337454
0.0671768
0.157258
-0.441166
-0.12229
0.294039
-0.171749
-0.132672
0.318089
0.383827
-0.0558826
-0.327944
-0.173293
0.19294
-0.019647
0.0537081
-0.246684
-0.443627
0.154021
0.289606
0.0472669
0.216933
-0.192165
0.149613
0.294534
0.161435
0.0157929
-0.0445847
0.171522
-0.259095
0.0875731
0.00798353
-0.038533
0.0305495
-0.165637
0.212205
-0.352562
0.136731
0.272203
-0.0373037
-0.083875
0.0558612
-0.239083
0.183222
0.284619
-0.313903
0.0292835
-0.290064
-0.162833
-0.248541
0.0427578
-0.160013
0.093333
0.0666801
-0.279738
-0.0432564
0.322994
0.331862
-0.120417
-0.159965
0.359339
-0.199374
0.0356585
0.309728
-0.345387
-0.190616
-0.353302
-0.00704337
0.360345
-0.0347983
0.0244256
0.44371
-0.306784
-0.136926
0.0755716
-0.414084
0.126664
0.28742
0.457208
-0.164486
-0.172262
0.457364
-0.285103
-0.497656
0.199616
0.29804
0.300229
-0.0130979
-0.26664
-0.17674
0.232601
-0.21822
0.445612
-0.227392
-0.264035
0.449542
-0.278335
-0.171207
-0.238621
0.315976
0.164249
-0.00046325
-0.00194758
0.00241083
-0.30886
-0.250316
0.241289
-0.408444
0.151937
0.056156
0.439005
-0.27635
-0.162655
-0.172866
0.190705
0.456987
-0.442367
-0.0146199
-0.162999
0.283722
-0.120722
0.154668
-0.107567
-0.0471003
-0.0888175
0.278357
-0.189539
-0.00572518
0.288993
-0.46133
-0.39099
0.265299
-0.270923
-0.209926
-0.16806
-0.365604
0.533663
0.238146
0.00746896
0.199362
0.0115797
-0.210942
-0.224813
0.273876
0.129134
-0.42446
0.288021
0.136439
-0.00153632