/*--------------------------------*- C++ -*----------------------------------*\
| =========                 |                                                 |
| \\      /  F ield         | OpenFOAM: The Open Source CFD Toolbox           |
|  \\    /   O peration     | Version:  v2012                                 |
|   \\  /    A nd           | Website:  www.openfoam.com                      |
|    \\/     M anipulation  |                                                 |
\*---------------------------------------------------------------------------*/
FoamFile
{
    version     2.0;
    format      ascii;
    class       volScalarField;
    location    "350";
    object      ddt0(omega);
}
// * * * * * * * * * * * * * * * * * * * * * * * * * * * * * * * * * * * * * //

dimensions      [0 0 -2 0 0 0 0];


internalField   nonuniform List<scalar> 
18649
(
0.636092
0.00196476
0.000160106
-0.0468715
-0.00780541
0.000300534
-0.0533511
0.172803
0.00544704
-0.000267646
0.164382
0.0554817
1.12096
0.000111389
1.3757e-05
0.00427024
8.37811e-07
0.00397498
0.167324
-0.545016
-0.0929288
-7.76426e-06
0.863192
-0.00426102
9.31261e-07
-0.434337
-2.23139e-07
0.0482108
0.415203
1.56524e-06
-4.24694e-05
-0.182786
8.93633e-07
-0.00141308
-7.97495e-05
0.871455
-0.0016582
-0.000116679
-8.79047e-07
0.204241
0.00455634
0.0144325
0.0110556
0.109813
-3.84975e-05
2.72962e-06
-0.0500696
-0.0412712
-0.411894
-5.39591e-06
0.0514587
-0.000309161
-0.479239
-0.853978
-1.42155e-07
-0.37675
0.0363203
0.0183381
-0.00313695
0.000182549
0.697664
1.80428e-05
0.00370837
-0.0296624
-2.29722e-05
-0.0279374
-1.22327e-05
0.089489
-0.0213811
0.255312
0.241862
3.86897e-06
-0.148575
0.000871234
0.0004026
-0.0993555
2.07424e-05
-0.0181119
0.000847648
-0.0207547
5.35446e-07
-0.0171904
0.0304816
-0.51008
0.0338447
-5.77559e-07
0.00153531
-0.000868643
0.0055596
-8.19062e-05
-0.00110587
-0.000219014
-5.4756e-06
-0.899455
0.000202788
0.286312
2.61363e-05
-0.168486
-0.0225601
4.58603e-05
0.84647
0.00119659
-5.3937e-07
0.0898296
-0.0266971
0.000430557
-9.81168e-07
-8.39101e-05
0.00958525
-0.000312248
0.838342
-0.0336065
-1.50014e-05
-0.00108421
-0.00544913
0.000128432
-1.7144e-07
0.207479
0.131935
5.09133e-06
0.00177389
-1.39677e-05
-0.0407173
1.25081e-05
-0.155248
1.1991e-07
-1.01732e-08
-0.499359
-0.000202982
0.192134
1.20795e-05
0.06537
3.48201e-06
0.00766959
-0.000668516
-4.24716e-06
0.204181
0.0492677
-0.000124674
-0.0261087
0.125947
-2.24129e-05
-5.3514e-06
5.77627e-06
-2.31123e-06
0.0819392
-3.7976e-06
3.61535e-06
0.762556
-0.0224403
0.122986
8.59504e-07
1.10752
5.36386e-05
-4.06815e-05
7.48291e-06
0.0175198
0.205551
-2.21673e-07
2.4563e-05
-5.99702e-06
0.152391
-0.0291083
6.32622e-05
-0.15564
0.0115373
7.01155e-06
-6.81501e-07
-1.97904e-05
0.00011095
1.49675e-05
0.116723
0.00680999
-0.144607
2.5958e-06
-0.242247
1.16881
-0.00116649
-7.19075e-09
0.338518
-0.29929
-1.5373e-06
-3.63853e-08
-0.0670063
-0.000803052
-1.02616e-05
-4.30639e-06
-1.75835e-05
-0.000536404
-0.00162491
-9.59642
5.17724e-05
-0.117658
1.06355e-05
-3.62915e-07
-7.63084e-06
-0.00279442
0.0295038
-0.00055924
-1.66613e-07
5.39227e-06
0.0240459
0.112648
0.00102844
0.0199323
0.0161844
1.74694
-0.0859766
0.000114169
-0.351747
-0.000131023
-0.000657886
3.42164e-05
-0.218719
0.143355
-2.98752e-05
-0.0145299
-4.73112e-06
-0.165503
-0.000281701
0.00229889
8.11817e-05
41.8208
-0.728031
-0.618944
-0.300005
-5.20435e-05
-0.000178053
-0.567772
-0.250673
0.000263694
-7.16348e-06
0.890843
0.00011471
-0.602828
-0.479214
0.0676004
-0.0157642
5.2602e-07
-0.54693
-1.92894e-06
-0.00490032
-0.000222168
-1.92221e-06
-0.00106187
-0.0036879
-0.61013
5.85828e-06
-1.38891
0.055569
0.378191
-0.0115279
0.00336343
-3.04614e-05
2.17998e-05
0.121684
-1.79756e-05
-4.65749e-05
-0.00185375
0.000139147
-4.13106e-06
-0.0236535
-0.253541
-4.54499e-05
4.12306e-07
0.0139266
-0.265784
-2.90609e-06
-1.10324
-3.10191e-06
0.0683491
0.13119
-0.53463
-0.969203
0.0698105
1.53217e-05
7.42394e-07
0.267834
-0.165406
-0.185032
-2.63088e-06
-4.30379e-06
1.02106
-0.00211316
-0.741071
0.569303
-6.20772e-05
0.00517257
-1.07093e-06
-2.14338e-06
-0.00174038
0.18724
-0.285321
-0.476398
2.87087
0.0010389
-0.258776
1.56195
1.52638e-07
-0.327592
-6.04394e-07
-0.000652032
-1.21027e-05
9.48289e-06
2.53418e-06
0.0139029
-3.34146e-06
0.00483613
-0.145625
-0.000818246
-0.364631
0.000254437
1849.9
1.29983e-05
-3.12613e-05
2.98347e-06
5.52488e-05
-7.91309e-09
0.094972
0.0744674
-8.60308e-06
-8.18429e-06
0.00418758
-1.18333e-08
9.91455e-06
2.45026e-05
-6.09734e-06
0.000206017
-0.0764098
0.0112667
-0.202996
-3.03505e-06
1.36776e-05
-0.000996283
-4.7677e-07
2.96192e-06
0.155705
-0.00411396
-0.100684
0.000596041
0.577569
-2.68751e-07
-3.86156e-05
-8.78803e-05
0.000160274
2.03267e-05
-4.45122e-06
-1.73865e-06
0.000884469
0.000786144
1.39314e-05
1.00295
2.74091e-05
2.13279e-05
-0.242581
0.645237
3.88782e-05
-0.33558
-0.478331
-0.158752
-0.168663
-0.000365093
-0.112458
3.01268e-05
-0.530688
48.7417
9.37982e-05
0.00377056
-0.00552883
-5.9573e-05
0.000116033
-4.28687e-06
-3.48196e-06
-0.0212532
-0.00106567
-0.577274
-0.226761
-0.00957101
-0.584853
-1.38153e-05
2.19596e-07
-0.00171633
-5.03308e-06
2.35562
-7.57274e-10
-1.53181e-07
0.808395
-0.31124
0.000115227
-2.0668e-06
0.362393
-0.0117554
-0.000162081
-0.390072
7.09568e-05
0.000822741
1.09056
-0.00122501
-1.24208e-06
0.243389
-0.0182425
0.00411642
9.58087e-06
1.16669e-05
-0.0146944
0.186531
-1.00551e-05
0.257504
-2.82619e-06
-1.86253e-05
-0.0671682
-1.14044e-06
-0.0854736
-0.00105642
0.0185525
-0.523348
1.20627
-0.247788
1.03074e-05
1.11882
2.67002e-05
0.878365
0.00887728
-0.523365
-0.842838
-4.23975e-06
4.06355e-06
-0.55118
-0.113888
0.000127388
-0.638952
0.000118871
0.00118148
1.94006e-06
0.146727
1.04448
0.759563
8.17909e-05
-0.000151591
1.0464
0.00674921
0.000178163
0.00014752
-4.40168e-06
-2.98809e-06
-0.159473
-0.441054
8.97223e-07
4.96948e-06
0.902464
-2.6786e-06
4.40783
-7.62807e-06
1.19595
-0.0143107
-0.526002
0.000120546
-0.859521
-0.30885
0.00415203
0.0023048
0.00114203
0.00204409
-0.000190137
2.36017e-05
-0.00171541
-2.25348
-9.18484e-07
-0.00010313
0.301243
-2.43895e-06
-3.7324e-06
-0.233236
3.90041e-06
0.0992282
-2.7109e-06
-6.14901e-05
1.84242e-05
-0.00124428
6.68091e-05
4.29033e-07
-0.771211
-2.17886e-05
0.00246028
-1.86729e-06
0.00230555
0.109713
7.99935e-07
-0.682297
-0.00130424
-0.0862159
-0.635471
-0.660918
-0.724166
-0.00101926
-0.0839805
-0.000579167
6.02989
-1.14147e-05
0.0444457
0.000107942
-0.0756672
0.0249359
0.00187629
-7.79901e-09
0.806445
0.0303369
-0.131344
-2.07039e-06
0.456767
0.0016356
0.00301733
1.38656e-06
0.0518998
-0.0880669
-5.53145e-06
6.47041e-06
-0.611584
1.61324e-07
-0.0224244
-9.55649e-07
0.00158781
-4.18264e-05
0.000888505
3.91558e-06
0.386743
-2.65101e-07
-0.273313
-2.49818e-05
-0.701314
0.190701
-0.990027
-0.319155
-0.000237759
0.947105
0.00203208
-0.251016
-0.290158
6.66274e-06
-0.0025032
0.00364939
0.000163174
0.0629183
-0.000232572
-5.53373e-06
0.000253825
-2.30918e-06
-3.49761e-07
-0.000219
0.0697378
-3.07437e-06
-5.31256e-05
-0.000323581
-0.000698438
-0.267878
-0.92574
-1.99575e-05
-0.0010941
0.044689
0.0392303
2.80884e-06
-0.200001
-0.211164
-0.134959
0.0263948
-0.00160604
0.000534097
0.00017231
0.00120025
0.000118981
2.46033
1.59173e-05
0.000141358
-1.09242e-06
-1.42802
-0.482995
-0.00637808
-0.000255936
4.22952e-06
-0.014772
-0.0275771
1.1661
0.00253245
0.0145472
-0.584528
-2.91437e-06
-0.625504
-0.000187092
-0.000334318
-0.000243423
0.337598
-0.0312852
-4.94272e-05
0.293215
2.18409e-05
0.000543641
-0.297854
-0.768407
2.31699e-05
-0.31584
-0.000440798
0.212734
-7.93405e-05
-0.371154
0.0003047
-0.000807348
-6.97966e-06
-0.481152
0.0085317
-0.000608251
0.00975529
-0.161165
0.000288319
0.0125472
6.44042e-05
-0.0189891
-0.295101
-0.000492671
1.19641e-06
0.0173527
-3.69442e-05
0.00621613
-4.47229e-05
6.68479e-06
0.824418
0.381244
0.121456
4.8222e-09
0.101969
-4.18446e-06
0.752644
0.00506375
-3.81898e-06
-4.92103e-06
-0.000156799
1.00517
-1.38263e-05
-0.0600677
0.0148158
-0.0192247
-7.18064e-05
-2.45952e-06
-0.000911268
-0.700001
1.61928e-05
0.00502114
-1.67001e-06
0.0101229
-7.84102e-08
0.000559907
4.89219e-06
-2.7609e-06
0.973282
0.0163095
-0.96092
-0.00135673
-0.419168
0.000179587
-1.539e-06
-0.00104281
-0.0337469
-0.000909767
-3.53017e-05
-0.724839
-0.51938
2.272e-06
0.910386
0.27732
8.47311e-05
9.47572e-05
-0.0186357
0.000193097
1.99453e-05
-24.0565
0.221136
-0.176052
-0.757616
1.56958e-05
-0.0657759
8.90736e-06
1.09923e-05
-2.62021e-06
-0.0321631
4.90417e-06
1.31166e-05
-0.445
-0.154414
-0.000519637
1.92396
0.00189719
4.27567e-07
-0.10031
0.000950208
1.16064
0.000214749
-0.661919
2.77097e-06
7.28333e-06
-8.73512e-07
-0.0445844
-5.74621e-05
-0.0159938
-0.592329
-0.110884
-0.0393806
-0.130227
0.000404929
0.20997
-0.0770353
-0.00175754
-0.000367539
5.54306e-05
-0.0758785
-0.388603
0.984704
0.154121
-0.0310377
1.36885e-05
2.34275e-05
-0.364511
-0.190937
9.34263e-06
-0.00131308
0.0554471
-0.320024
-0.48262
-0.0220549
-1.24139e-05
-0.000222594
0.129198
-0.1975
2.24378e-06
0.000729384
1.63465e-06
-158.888
3.05281e-06
-0.417728
-0.0501842
3.11273e-06
2.82988e-06
-0.0471276
1.2214e-05
-0.00311673
-4.77821e-05
3.29512e-06
-3.17131e-05
-12.3323
-0.145862
-0.194338
-0.204458
-0.300393
-1.87466
-7.6022e-08
1.33164
0.00169756
0.00113352
0.524573
1.77048e-05
1.34017e-05
5.36358e-06
-7.54228
-0.0928894
0.739022
2.37337e-06
-0.00399703
-1.13756e-07
-3.33459e-06
3.6232e-06
0.00113884
-0.00961721
0.0982658
0.00194484
9.14756e-06
-0.393078
-194.494
-0.00865191
1.76312e-05
0.164821
0.155273
1.57744e-06
-0.0236859
0.882256
0.0013563
0.00337233
-1.11587e-05
-0.000355563
0.0837821
-0.0447336
-0.466035
-1.4686e-06
0.157067
0.0157324
7.42462
4.75544e-05
1.2146
-0.14408
0.0581299
0.0168811
-0.132416
5.3005e-06
-0.0311322
-0.789761
1.00097
5.51537e-06
9.33712e-06
-0.00180114
0.288875
4.07838e-05
-0.0885984
0.000372248
-0.86982
-0.000292391
0.061939
-1.59681
-6.76409e-06
-0.126626
0.0208515
-0.017498
0.0357266
0.0285032
6.00429e-06
0.0647227
-0.0224775
0.310052
-0.48385
8.75111e-05
-0.552248
0.00575815
1.44005e-05
-0.735447
-0.0710531
2.44626e-06
-0.339363
0.327979
0.000175524
0.00386445
-0.0977428
3.75149e-06
-0.574815
-0.00023732
1.39423e-05
-8.8898e-06
0.00064718
8.66871e-06
3.36203e-06
-2.03326
2.02232e-07
-0.000740939
8.23648e-05
-0.418828
-0.00241495
7.00637e-06
2.16722e-06
-0.581744
6.34463e-05
-0.117144
0.568954
0.0107927
-0.499266
0.000477593
-1.66228e-05
-0.448658
0.0706432
0.000782573
6.24747e-06
0.02085
-1.17723e-05
0.382755
7.98747e-05
1.73096e-06
0.00522802
-1.54216e-06
0.068633
0.00266248
0.000123322
3.68574e-06
-0.00276918
-0.00373363
1.75753
-8.22046e-06
-8.42029e-07
-0.55591
-1.32493e-05
4.35215
-0.289735
0.00245928
0.180847
-7.51141e-06
0.0780762
4.43833e-06
0.0348004
-0.581729
0.0933116
0.00355478
1.77499e-06
0.0103387
-7.83483e-05
0.00754325
-0.552729
-5.36284
-1.11298
-0.0059791
1.9148e-05
0.000699657
-0.256512
0.118708
2.20327e-06
0.245528
0.872684
-2.10722e-06
-0.0211001
-0.279458
-0.314985
9.60721e-07
0.217983
-0.0145189
0.0868549
-0.20988
-0.487835
-0.141102
-0.00635332
-5.11578e-07
0.00127975
-0.00113956
6.10164e-06
-0.000195648
-0.0452782
6.35385e-05
-0.00531303
0.0585505
0.499886
-0.0302485
-0.0045089
-0.656975
-0.0135483
-0.0223855
4.8334e-09
-0.0258449
-1.41132e-06
-0.872615
-0.129715
-1.2397e-06
0.00668282
-2.7104e-05
-0.876601
-0.56557
-0.851405
-0.834256
2.58721e-06
-0.000152581
-0.296201
0.111104
-0.639616
5.36674e-06
1.79807e-05
1.34096e-07
-0.000293723
0.00912043
-5.45219e-07
2.44377e-06
0.00197967
0.00114887
-5.34852e-05
-0.0875727
1.47272e-05
-0.00322515
4.04741e-05
4.87786e-05
0.171762
-0.716335
-288.797
0.166123
-0.895618
-0.0121407
2.85929
0.000543359
0.00106334
-0.21471
3.70272e-05
1.08159e-06
5.78369e-06
0.00011972
2.73846
-0.196849
13.296
0.0482576
-0.00158334
0.10918
0.0584932
-0.966728
0.0376609
0.122196
0.000744758
1.66365e-05
4.38954e-06
-3.0478e-08
-4.13932e-05
-0.0864965
-0.106703
0.017817
-0.390085
0.106405
-0.688899
-0.00162554
1.72446e-05
0.0868997
-0.00220676
0.0315012
0.371713
-2.91032e-05
0.0186344
0.247915
0.138196
-0.413084
3.59617e-06
-5.3962e-06
-0.00169948
-0.0467908
0.000810984
6.53001e-06
-0.000245924
0.000543303
1.63796e-05
-0.0339308
-0.000125294
6.95042e-10
-6.52403e-06
0.0767815
0.000157192
0.00216316
-0.0428867
3.71843e-07
0.350979
0.000724455
0.00581541
-4.81055e-05
-0.174027
-1.2223e-05
-0.00772429
9.12397
-0.0940748
-2.21591e-06
-0.489248
0.00192277
-0.000660515
-0.00120562
0.000136472
0.0367503
-0.000610711
-8.64445e-07
-0.00866463
0.483534
-0.000210323
-0.15533
-0.104875
2.8341e-05
-6.90105e-06
-0.000844618
2.07363e-06
-0.000146477
-0.822402
2.61834e-06
2.29587e-05
-9.06434e-05
-0.282806
1.09296
-0.00121901
-0.500453
-0.000317649
1.94413
-0.711347
-9.662e-05
-1.09932e-05
0.159901
-0.00042895
-0.180796
-0.609154
1.57748
1.57701e-05
-0.0449622
-0.0090027
-1.51171e-05
0.308092
-0.151494
0.0672936
-3.26303e-05
-5.32965e-07
-0.540913
-0.000563183
-3.11e-06
-0.000790042
-5.26231e-05
0.000141677
-0.000952931
-1.55076e-05
0.0866801
-0.0266316
5.53548e-07
-0.238757
-4.0978e-07
0.147154
-0.00320858
-3.40672
-3.87852e-06
-4.28438
0.0192124
6.56478e-07
-0.134158
-5.80313e-06
-0.0136839
-0.511511
-5.30774e-05
0.108929
1.9228e-05
1.36125e-05
6.34065
2.63874e-05
0.211668
0.00302408
-6.96656e-06
-0.49567
-2.01683e-06
-0.0466162
-1.51025e-06
0.000124076
4.22168e-06
5.9356e-05
-1.70592e-06
4.90934e-06
-5.32844e-06
2.12734e-05
-8.40878e-05
-0.0571369
8.56791e-06
-0.267715
-0.0108847
0.000440229
-0.111233
-8.71941e-06
4.6538e-07
-0.220354
-0.0243348
-0.171898
-0.519889
0.00017849
0.000659673
0.00617427
1.48369e-05
-0.00410886
2.26814e-05
0.00404992
0.0397487
0.00877898
0.00202107
-0.000126334
226.346
-0.00569154
0.00395064
1.60634
0.00776056
-0.281794
0.0644081
-6.4048
0.536559
-0.838485
0.00459509
-0.124108
-0.394697
0.0018918
1.11398e-05
4.53238e-09
-0.723095
0.000113159
1.41397
0.254655
0.00108367
0.00107474
1.28163e-05
-0.0468775
-0.485433
0.00701406
-0.258389
-4.75038e-05
-0.00017335
-0.0426982
1.94475e-05
1.03915e-05
-0.248569
-3.39212e-05
0.0157849
0.008161
-0.0886913
0.000283339
-1.21635e-08
0.0218396
0.0250178
-0.121229
-2.65047e-06
-0.89843
0.765796
-0.0458848
-2.07407e-06
-0.203961
-1.29341e-08
-0.00049439
-4.29719e-05
5.73288e-07
0.0330221
4.63101e-07
-2.86432e-05
2.79948e-07
0.000437101
0.00594747
-1.71209
-2.69025e-06
-0.276493
0.0638647
-0.217335
-0.207957
-0.309375
-2.41871e-06
5.48897e-06
0.116289
8.13473e-05
3.20908e-07
4.50019e-08
0.000238887
0.00841688
8.96159e-06
0.180978
0.0104319
-1.3895e-08
-7.64833e-05
1.65994e-05
-9.87138e-07
0.0081851
-0.17416
1.43022e-05
-0.687696
0.0172187
-1.11084e-06
-0.292048
1.83013e-05
0.0717835
7.43892e-06
3.04793e-06
-0.12572
-0.570572
-9.56138e-06
-0.0502011
-0.000493606
0.0273291
-0.000153388
-0.00122107
-0.0537473
0.00375248
-0.573109
-0.368887
6.66511e-06
-0.20048
-0.000582154
-0.597828
-0.398817
0.00019014
-1.19118
0.000373485
4.54152e-05
2.53118e-06
0.0338514
0.435464
2.19835e-05
0.00473
0.129628
0.0184575
-0.232713
-4.3128e-06
-0.0772784
8.16595e-06
-0.00703466
-0.000210894
-1.68887e-06
0.00607318
0.130406
1.06845
0.000208719
0.0167075
-0.63543
0.000527949
0.0161074
-1.07874
1.22895
-0.389478
0.0820197
0.0373922
-0.00754829
-2.74114e-06
6.41201e-06
-0.912885
-0.081818
4.1721e-05
0.282245
-0.514637
-0.0101301
-0.0110499
-0.165847
-1.13781
-0.51332
-0.000715628
-0.0403628
0.000228234
0.00534003
0.0383008
0.109195
-0.922431
-0.0461854
-0.204157
0.0866185
-0.0010883
2.13818e-05
4.80459e-05
0.000730548
1.46454e-06
2.14226e-06
-0.147536
-4.06641
-0.0258738
7.32e-06
-1.59159
-0.0101107
0.0976805
0.282025
0.0003086
-0.169003
0.0713891
7.96875e-06
-0.795686
0.0956064
-2.31193e-05
3.76239e-06
0.0760171
-1.2683e-05
-0.422423
-0.000569707
-8.68658e-06
3.55098e-05
-0.0845167
-1.06853
0.00330782
-0.990255
1.22398
-0.496451
-0.216856
1.91389e-05
0.0966121
-0.233561
0.152022
-2.18831e-06
-0.0595721
0.00256144
-0.980036
2.2003e-05
2.76471e-08
-0.459835
-0.279591
0.00200422
-0.387328
-0.643322
0.110959
-1.24347e-06
2.70122e-06
5.44756e-07
0.0235221
-0.731317
0.000188912
8.39215e-05
0.149697
-0.016064
-0.00168431
1.22435e-05
2.74612e-06
2.41142e-06
0.00802201
3.94243e-06
0.0302979
1.64996e-06
3.60796e-06
0.0817723
-0.722065
-0.303769
1.16018e-05
0.000827946
-0.0962978
-3.63138e-05
0.000128525
-3.53926e-06
-1.70019e-05
1.42617
1.00756e-05
2.10207e-06
-1.04741e-05
-7.26641e-08
-8.49604e-06
0.022271
-2.91998e-06
-0.0304867
0.168766
3.6225e-06
-8.73195e-09
-1.8901e-05
0.00650067
0.0177261
-2.11333e-07
-1.24123e-06
-0.0115176
-0.109726
3.93982e-05
0.0114762
-0.00136472
-0.553752
0.000157719
-0.0142009
-2.96267e-06
-0.441405
-0.112586
-0.110246
-2.89934e-09
0.0422003
-0.0170509
-1.14613e-05
-0.00925566
-5.84721e-07
9.85475e-06
0.0229025
-0.00193078
0.0104605
-3.10675e-05
-6.07195e-06
2.97483e-06
0.00159741
3.2797e-06
1.19406
-0.395425
-0.00102875
-0.000305554
8.07155e-05
-0.365049
-6.51116e-06
-1.49023e-07
4.0523e-05
0.000688174
0.000528753
-0.000473484
-0.483128
-7.49675e-07
0.0774479
2.21195e-06
-0.00026647
-7.18461e-05
0.0696112
1.16359e-05
-5.99295e-06
0.00388107
4.98453e-06
1.64875e-05
0.566552
-9.19934e-06
0.154939
0.181835
-1.06652e-06
-0.354354
-1.18743
-38.0334
-0.0280732
0.00622586
5.62118e-06
-0.678205
0.236578
-0.000291479
-1.69221e-06
0.0012856
2.56251
-5.19731e-06
-7.24007e-06
-7.76027e-07
9.5945e-08
-0.10449
-4.52682e-06
-0.000140225
1.26377e-05
2.68594e-06
-0.00523057
-0.00424936
-0.00118018
1.70314
-0.0264476
2.16984e-05
-1.33162e-05
1.28803e-05
0.00139786
0.000104067
-0.00613018
-1.56543e-05
7.69694e-05
-0.396696
0.0935086
1.22412e-05
5.09761e-06
-5.60093e-07
8.2598e-06
0.000620626
1.65618e-06
-2.54086e-05
-0.913442
0.0156072
-0.654
-0.108145
5.97005e-06
2.15181e-06
0.00738839
0.000881129
0.185051
2.20416e-05
-0.699048
-5.57039e-06
6.04564e-06
-0.000791591
0.00671606
-0.212379
-0.0298767
0.145865
2.89846e-06
0.000727197
-0.19963
-0.192964
-0.0404312
-0.612068
3.16359e-06
-0.042343
-0.000349417
-0.000155689
-8.51601e-07
-0.000408367
-1.93008e-05
-4.53541e-05
-0.0254203
-1.07034e-06
-2.32599e-06
-0.020815
-0.000518926
-9.72989e-05
-2.05007e-06
-0.175378
-0.131229
-4.1923e-06
0.00669156
0.0127758
0.0492508
-0.395391
-2.07647e-07
0.00302352
4.30131e-06
0.00374355
0.024476
-1.92263
-2.35645e-05
-0.768015
-3.48417e-07
0.000108339
1.11739e-05
1.96408e-08
-1.59496e-06
-3.96473e-05
0.00809578
-0.28537
6.0765e-09
-0.243746
1.06942
6.83049e-06
1.05431e-06
0.0345835
0.30204
-0.0765054
-0.014048
0.00815461
-1.73264e-05
-1.26313e-05
-0.383685
-2.94165e-05
0.011344
-0.169298
0.0460658
0.00018514
-0.0016981
0.804536
0.00393662
0.000853403
-0.0041582
0.00456139
-0.585656
-6.4167e-09
0.235391
-0.0465451
-0.0140277
1.33035e-05
3.67608
7.26614e-05
0.0747463
-4.12715e-05
0.0115377
1.931e-06
-0.192222
0.406724
1.88924e-05
-0.395978
0.171135
1.21639e-05
2.59572
1.90003e-06
0.000327873
-1.67105e-05
0.453309
7.65099e-06
-0.744141
-0.170722
-0.420111
-5.02061e-07
3.52802e-06
0.000793983
-0.65793
0.00225167
0.00748802
4.77067e-06
-0.551801
-0.000692199
0.00150995
0.664991
2.65738e-06
-0.718816
0.00591101
0.00719354
6.54432e-07
0.000335085
0.00194685
0.000219668
0.00168269
6.52214e-07
1.82649e-05
0.0194368
-9.41219e-06
4.93594
0.171574
0.00128693
0.0843621
0.00235387
-0.280281
0.528833
0.388882
-0.509867
-1.3417e-05
0.258276
0.170691
0.00230159
-9.76594e-06
-0.000175829
-1.86387e-06
-0.00013078
0.156912
-0.00162679
-0.000438945
0.0562454
-0.579289
-4.12404e-07
-0.0352315
-0.295154
-0.671926
0.0209145
2.37144e-05
1.29169e-05
4.37474e-08
-0.11648
-0.024664
-0.0275159
0.484068
0.00337635
8.24154e-05
-8.86542e-06
-0.00879425
-0.000312047
0.101642
-0.00424846
-3.28916e-06
0.202276
0.00276216
0.0200009
8.04487e-06
-0.21674
0.000234225
2.88757e-06
1.70473e-05
0.000689102
-0.511727
1.27088e-07
-4.53607e-06
-2.00232
-0.000875266
4.74671e-06
8.93016e-07
0.00606659
0.0532295
-0.0054462
0.0078892
-0.000277947
7.85948e-06
0.00225453
0.00649339
-0.167953
0.0216998
-0.342136
-9.96329e-06
9.75031e-07
0.0560272
-1.75136e-06
-3.75722e-06
-3.31208e-08
0.00011707
0.00199833
0.00366134
-1.21354
-0.0974203
-0.0406466
-0.455265
0.100637
1.1781e-05
-0.0238414
0.0246681
0.123084
1.43127e-05
-3.09899e-06
-0.382318
2.65989e-05
-0.000514248
-26.5481
2.13746e-06
2.23357e-05
-0.323708
0.0187978
0.00447219
-2.00637e-05
3.1099e-06
0.0265278
0.030499
2.42731e-05
-0.00154825
1.52268e-05
-1.40045
0.0225615
-0.0104206
1.26932e-05
-7.09635e-07
-0.59097
0.454714
0.000173476
1.00494e-06
-2.81897e-05
3.09226e-05
0.0023217
0.133015
-0.0696736
-8.41231e-06
1.07842e-05
-0.88849
0.00392769
0.000499144
0.0041656
0.000239264
-3.08758e-05
-0.0196077
-1.55902e-06
0.00327708
-1.22776
6.10595e-06
3.47938e-06
1.63135e-06
-0.201919
-4.69458e-06
-0.0478216
-0.178296
-0.0442322
1.89121e-08
0.102828
-0.0895986
3.37541e-06
-0.583619
-1.50199
-0.788665
-4.47216e-05
7.51591e-06
0.203097
-2.87433e-05
-0.493246
0.0305636
-0.286015
-6.99583e-07
0.0025082
-0.257629
-0.574429
0.000266299
-1.35448e-07
0.0077925
-1.69841e-06
-1.07639
0.0621095
-0.91799
-0.00227125
0.00145016
-4.91536e-09
0.895795
0.843915
-8.23848e-06
0.706129
0.0474244
-0.131853
0.000105035
1.2532e-05
0.648264
0.802622
-0.0160044
0.422768
-0.00055934
-0.022792
0.00281266
0.00175475
5.12014e-07
1.50604e-05
-0.000505716
-0.00812542
-0.0380508
-0.84667
0.000506633
0.323019
3.68272e-07
-0.0123805
2.15854e-05
-0.0608515
0.0611021
-1.00501e-06
0.00164742
3.12213e-06
1.9716e-05
6.30068e-06
-0.482865
-0.0389941
2.28736e-05
-0.26907
-1.03683e-06
-0.000751381
-0.715086
1.56849
0.00196992
0.0322885
2.26565
-0.495972
0.130199
1.2941e-06
-0.000105259
1.39339e-05
1.90315e-06
-1.82436e-06
-0.189298
2.7598e-06
0.000126064
4.44977e-06
0.00300963
-0.000519389
0.00324543
-0.00036598
-2.00137e-06
-0.0129003
4.82115e-06
-0.000936662
-0.000697575
0.590169
2.11422e-06
-0.000226484
0.000424957
5.61827e-06
-0.0612461
-0.00308452
1.73216e-06
-2.0395e-05
-0.0943698
2.68993e-07
-4.1246e-06
0.115622
0.0243805
-1.90989
-0.000292157
-0.081513
0.0242913
-0.00128005
0.000215189
0.0620977
3.67991e-06
5.05282e-06
4.52342e-06
0.852949
-1.28556
5.84478e-05
-0.00170227
-1.88283
-0.00216435
9.34577e-06
-0.00050461
-0.765928
1.14046e-05
-0.116744
1.78409e-07
0.00247379
-1.796
-0.000126545
0.236231
0.0433032
-0.17194
0.00770078
1.97476e-06
-0.000218071
0.00707659
1.98963e-05
-0.693058
3.86632
-2.26218e-05
-2.33656e-07
0.0017102
-0.00064224
0.00635507
-0.430352
-0.382736
-4.22028e-06
-2.27243e-06
-0.15441
-5.10821e-06
0.029789
0.00226737
-1.23613
0.0685693
0.186575
0.00199414
0.0147533
0.124487
0.00446181
-0.0242848
-2.2608e-06
0.00487564
9.14411e-05
-0.0101349
-0.000577532
-0.92406
-0.00295849
-8.94634e-06
0.239095
0.000171508
-1.25315e-06
-0.000966275
-0.00129961
2.1308
1.42917e-05
0.000110965
1.12044e-05
-0.0785305
4.34864e-06
-0.216158
0.145623
-5.1244e-06
3.43833e-06
-0.0815251
0.00052979
0.0878953
-0.738
-0.5837
-0.0811682
-0.00107172
-0.458606
1.82546e-05
-9.33299e-06
-0.00165509
-3.56973e-06
-0.836901
-3.89268e-05
0.0237069
0.00803527
0.00940459
-0.709413
0.00561513
4.49046e-06
6.10585e-06
0.0538186
0.235734
0.0550749
-0.65191
-0.000530345
-0.0872331
-7.44579e-07
-0.081509
30.0391
-0.0181653
-0.0941322
0.343946
-6.78913
-0.267476
5.70503e-06
-0.00141959
-0.000328115
-1.29342e-05
0.000652586
-2.60189e-06
-0.000323955
-0.751505
-5.22089e-08
0.365888
0.0819172
3.60688
0.362783
0.0244152
-0.000537713
0.000221214
1.9333e-05
-1.30039
0.131333
0.0805512
-2.16511e-06
-0.900494
0.572528
0.000973308
-5.18516
0.0408524
-5.88378e-07
6.73451e-05
47.9272
-1.05538
-4.46754e-06
-1.0539e-05
-0.00116892
-3.66333e-06
-0.678038
0.145092
0.00436681
-3.27099e-06
-0.182275
1.24408e-07
0.000474368
-0.000763629
-2.04511
0.110133
0.0117456
-0.000359691
0.00163341
0.00289775
0.000247812
-3.27913e-05
0.0658468
0.0372734
0.0102253
-0.249761
-0.0180179
-0.423349
-11.1077
-0.000471241
-9.45681e-05
-0.101825
-0.846769
-0.192412
0.0154211
-1.50897e-05
-0.000116692
0.0086063
9.30361e-06
-0.0260044
-0.351696
-1.96913
0.000115074
0.000116988
-1.00205e-05
0.000361425
0.0869397
-0.58429
-3.95051e-06
-0.224982
-0.816746
-0.679388
0.0029972
-0.344761
-0.000107785
3.54311e-06
-1.34324
1.3306e-05
0.000117237
-0.000224463
-0.374181
-0.0287319
3.78009e-05
0.0017132
-0.379337
5.76673e-07
-0.00463389
0.00130633
0.00100377
0.029302
-0.29828
1.81783e-05
-0.60301
0.729751
-5.05038e-08
-0.22986
-0.592435
0.0183956
-0.000343107
0.000560883
0.16968
-0.000309999
2.45477e-06
1.32949e-05
0.0139107
-0.000252753
0.0846969
1.41919
5.57789e-05
-7.11873e-05
-0.634814
-0.218768
-1.80919
-1.11564e-05
-0.00956654
2.29282e-06
-0.420166
1.84165
-0.367648
-0.000182795
-4.95402e-10
5.18521e-06
-2.70107e-07
0.133542
-0.000562214
1.17702e-05
-3.47354
-1.3892e-06
2.11665e-06
-0.000354382
0.185922
-0.0091161
0.2279
-5.10398e-06
-0.919792
2.94492e-06
2.93628e-06
0.0767175
-0.212561
-0.600826
0.800063
-0.0007812
0.162431
0.010311
5.99569e-07
0.287635
-4.48564e-06
8.35708e-06
1.27209e-05
3.28832e-06
-1.20392e-05
1.2285e-07
2.73371e-05
0.710995
-4.44585e-06
7.53494e-06
7.21793e-05
0.00116
0.0152127
-1.26403e-06
-1.43951e-06
7.46512e-06
-1.43747
4.14426e-06
4.74838e-06
-2.12125e-05
-1.65862e-06
0.079341
3.01979e-05
-0.199828
-0.0723629
0.000205427
0.753929
4.59813e-08
0.0282532
-0.493645
7.54179e-06
-1.27306
0.00931473
-0.028798
-4.86321e-05
1.39818e-07
-0.0786013
-0.172131
0.000820699
1.57475e-06
-0.000241196
0.0681833
-2.20348e-05
-0.101931
-2.04471e-05
1.69956e-05
-2.84761e-06
-0.025894
0.00061402
5.51911e-06
1.55746e-05
-0.00451147
0.00166359
-0.0102423
0.10704
-0.934794
3.21958e-06
-0.930711
8.66856e-06
0.00688203
-0.200461
-0.0084913
0.167619
0.0101989
-0.00171562
4.92182e-05
3.92933e-06
6.06687
-0.941497
0.00108109
0.481369
-0.759278
-4.15825e-06
-3.41539e-05
0.166081
-0.142601
0.607128
0.149793
4.53633e-06
-6.62351
-4.73124e-07
9.54528e-06
-5.94435e-05
0.00108765
5.01779e-06
-0.000143893
-3.27464e-07
-1.69578e-06
-0.000381237
1.14928e-05
-0.0984279
1.0642e-05
0.00528167
1.11198e-05
7.7021e-06
0.605476
-0.131164
-0.146538
-0.000355597
-0.00405267
0.00908689
-3.45574e-05
-7.43063e-07
0.00338012
-0.0352635
0.0166207
1.29868
-0.673383
-0.00782333
-1.12501
-3.43707e-05
-0.451193
1.04558e-06
-0.000391114
1.06052
0.001168
-0.722983
-5.02312e-06
1.94117
0.483778
0.00559892
-1.07026
0.0037672
0.288186
-2.06022e-06
2.13484e-06
2.21628e-06
0.060932
0.0145501
0.00513691
1.42586e-05
-0.000188646
6.75544e-06
8.22902e-06
-0.406765
-0.845575
-5.39476e-05
0.249436
8.01073e-06
0.0128545
-0.158113
-0.301743
7.7216e-06
-0.0171371
2.48593e-06
-0.545751
-0.474636
-0.00611038
0.00408467
-0.000135647
-0.000338051
-1.05242
-0.513559
0.000858027
-0.0013446
-0.00111014
0.00691426
2.1825e-05
-5.38687
0.00227563
0.0111233
1.50122e-05
9.54665e-07
-0.00528527
4.0279e-05
3.56792e-06
0.0131674
0.265201
1.46369e-06
-0.000306414
0.00526409
-0.973983
0.0529522
-0.130452
0.0369184
0.00637127
-0.000113316
-0.983657
5.48078e-06
1.95958e-07
-4.12617e-08
-1.71009e-05
0.00146425
0.000643908
2.85321e-05
-0.0331187
0.00112628
-0.0889748
-0.851146
-0.0535585
0.334151
1.17655e-05
-0.0281336
-0.0549912
-0.000777741
1.03229e-05
-0.0352256
-0.744566
-4.19473e-06
-0.000460046
-0.880182
0.0119458
-0.000160784
-0.0187012
-0.374084
4.53108e-06
-1.14626e-05
-0.609402
-0.658827
-0.800544
0.0171332
1.42553e-05
-0.477416
7.91006e-06
-3.42169e-06
-7.71594e-05
-0.000617067
0.00338312
-3.65968e-05
-0.660184
0.000885035
0.042364
-2.04337e-06
-1.23298e-05
0.000760845
0.158921
-0.0440989
0.124723
8.74198e-05
-0.0163147
0.923061
-0.00469411
-5.36975e-07
0.000809339
-0.0378017
-0.000101163
0.0310864
0.235391
0.538949
-0.00015114
3.32786e-06
-6.94225e-06
4.48971e-05
-1.75293e-06
0.801649
-2.6451
-0.00384068
0.356103
0.000156183
-0.00949868
2.12118e-07
1.37042e-05
-0.363444
-0.763043
1.03746e-06
0.00220805
0.126717
0.000146744
-0.652405
0.000305805
-0.616614
-5.79286e-07
1.09339
-2.72479
0.00039655
-2.59638
0.0862773
-0.132035
-0.0032085
0.0113124
-0.0736135
-2.13123
2.44229e-06
5.19637e-06
1.0086e-05
-0.146335
1.6232e-05
6.58085e-05
-2.98998e-06
-0.002737
4.90147e-06
3.67466e-06
-0.6394
0.28628
0.0388013
0.518206
-0.532345
1.16593e-07
-0.274755
0.0670817
0.003401
2.63743e-07
1.28186e-06
-9.70087e-05
0.940656
-0.0268933
-0.42117
3.73158e-06
0.0479207
0.178673
-0.0821648
-0.18211
6.61672e-06
0.0303759
-1.84333e-06
6.59411e-06
-0.184031
-0.126839
-0.0267736
1.94373e-05
-1.68015e-06
0.0189578
0.2639
0.400446
-0.27201
-3.85882e-05
1.89064
3.7125e-06
-0.0545258
-1.32808
-0.741939
8.33912e-06
-3.7823e-05
-5.58294
8.22341e-07
0.0927717
-9.3378e-07
-0.0480504
-3.08752e-05
0.00676944
-0.414467
-6.73321e-05
-0.753305
-0.000608598
-0.317431
4.84407e-06
0.150247
-1.63403e-06
-0.123109
0.133504
0.0496141
-0.0170803
-2.04195e-05
-0.0334065
-0.10299
0.00467721
0.00836882
-1.1764
0.000845949
1.34311e-06
-0.180079
0.00016007
5.0851e-05
-0.0933468
8.88336e-08
-4.0782e-07
-0.873482
-0.516639
-0.231661
1.85771e-05
1.17738
4.5287e-07
-0.000729448
0.09265
-2.85192e-05
5.09624e-05
-0.0437722
-0.287394
0.116832
-0.617562
1.76453e-05
0.06836
0.950774
0.0736707
-0.000505199
0.0878524
0.0919786
-0.723666
0.0432568
-2.40314e-06
-0.00107811
-0.000155739
0.000195269
2.84613e-05
-0.00233499
5.83339e-06
-0.127595
0.169511
-0.0182329
9.14225e-07
-0.00021711
-0.00568696
3.3299e-06
-2.99262
0.128581
0.169033
0.131371
1.7162e-05
-2.53487e-05
-0.620168
-5.05098e-05
0.483346
2.82216e-05
1.71744
-0.0788487
-0.248453
0.00466097
-0.000123782
0.0114055
-0.111161
0.00488732
6.27604e-06
0.591244
2.3301e-06
0.000689796
0.00364683
0.00407199
-0.901155
-0.396239
0.00414895
-0.787878
-0.0945264
-0.00083442
0.0365279
0.0572762
-0.432211
0.0208198
3.66818e-06
0.237285
-0.71157
0.00140912
-0.0443856
-0.000149279
0.00903249
-0.0352656
-0.000410536
0.204015
-1.43462e-05
8.22518e-06
6.89958e-06
0.0364207
-0.017717
-0.932587
1.11434e-06
-0.750354
0.00194877
0.0371277
0.505958
1.73264
-1.15234e-05
-0.45892
0.052127
-0.000170543
0.00711027
1.70193e-05
-0.000414843
4.34403e-05
-0.00580912
-0.780259
0.000185078
-0.428564
-9.35492e-06
1.57596e-05
0.0418866
0.0711542
0.380891
0.000454644
2.8502e-05
0.163839
0.355746
-0.298851
0.389345
0.792574
-0.578124
-0.00380828
-6.27669e-05
0.640758
9.21443e-06
0.740761
0.107936
0.660435
0.119051