/*--------------------------------*- C++ -*----------------------------------*\
| =========                 |                                                 |
| \\      /  F ield         | OpenFOAM: The Open Source CFD Toolbox           |
|  \\    /   O peration     | Version:  v2012                                 |
|   \\  /    A nd           | Website:  www.openfoam.com                      |
|    \\/     M anipulation  |                                                 |
\*---------------------------------------------------------------------------*/
FoamFile
{
    version     2.0;
    format      ascii;
    class       surfaceScalarField;
    location    "350";
    object      ddtCorrDdt0(phi);
}
// * * * * * * * * * * * * * * * * * * * * * * * * * * * * * * * * * * * * * //

dimensions      [0 3 -2 0 0 0 0];
oriented        oriented;


internalField   nonuniform List<scalar> 
27740
(
-4.19567e-05
0.000357156
-0.000315201
-0.000102364
0.000896065
-0.000793711
0.000579884
-0.000717847
0.000137982
-0.00126851
0.00135194
-8.34251e-05
-0.000950133
0.000237837
0.000712252
-0.00111989
0.000447754
0.000672094
0.000844145
0.00248841
-0.00333255
0.00477192
-0.00337076
-0.00140115
0.0001323
-0.00087402
0.000741719
-0.000326523
-6.72508e-05
0.000393779
0.0100331
-0.00556517
-0.0044679
-0.000665171
0.0013295
-0.000664323
-0.0152434
0.0108778
0.00436559
-0.0001387
0.000718585
0.000159574
-0.000398604
0.000239034
0.00124737
0.000125238
-0.00137262
2.57829e-06
4.24572e-05
-4.50312e-05
0.00171956
-0.000472194
0.00411315
-0.00744447
0.0033313
-0.00234913
0.000552843
0.00179629
0.000362835
-0.000910495
0.000547657
0.000608289
-0.000786566
0.000178281
0.00109562
-0.000522702
-0.000572915
-0.0027305
0.00511593
-0.00238544
-0.000212689
0.000155336
5.7355e-05
-0.0003418
-0.00200734
0.000354203
6.45825e-05
-0.000418782
0.000882932
-0.0015481
-0.00548949
0.000686552
0.004803
0.000179471
-4.61448e-05
-0.000133317
0.000432173
-0.000513576
8.1397e-05
0.000353526
-0.00361938
0.00326581
-5.18814e-05
-0.000133237
0.000185119
0.000265445
0.000729971
-0.000995423
-0.000416037
-0.000338203
0.000754215
-0.000339785
-3.47035e-05
0.000374501
0.000659713
0.000564302
-0.00122401
-0.000467084
0.000146882
0.000320203
0.000131011
4.34238e-06
-0.000135345
0.00399207
0.000779856
0.00123132
-0.00109902
-0.00458047
0.00184998
0.000488617
0.000521226
-0.00100983
0.00017374
-0.000687302
0.000513563
-0.000327582
0.000225216
0.000199183
-1.97227e-05
0.000421119
-0.00178129
0.00136016
-7.42314e-05
-0.00119427
0.00215186
-0.000952377
-0.00119948
-2.86805e-06
-0.000105038
0.000107913
-0.0232373
0.00587768
0.0173596
0.00051626
-0.0008271
0.000310866
-0.00252181
0.00108681
0.00143502
-0.00235468
-0.00654318
0.00889789
0.000157816
-0.000209697
0.000732073
0.00141977
-0.00255789
0.00271958
-0.000161677
0.00127222
-0.00274258
0.00147039
0.000323501
-0.000236554
-8.69475e-05
-0.000880103
0.000553582
0.000225731
-0.000267684
9.28025e-05
0.000213707
-0.00030649
0.000435127
5.34864e-05
-0.000367679
0.00132469
-0.000956981
-0.000559351
9.22687e-05
-0.00145225
0.00108456
0.000330912
0.00011953
-0.000450446
-0.0037696
0.00285806
0.000911526
-0.000371025
0.00104411
-0.000673083
-0.00771998
0.000389797
0.00733016
-0.000384964
0.000656984
-0.00027202
0.000190277
3.89739e-05
-0.000229235
-0.00121046
0.0016052
-0.000394745
0.00097628
-0.000393231
-0.000583046
-0.000772988
0.000231459
0.000541539
-0.000537528
0.000900359
-0.00188552
0.00329329
-0.00140778
0.00179507
0.00133182
-0.00312688
0.000292289
0.000683992
0.00986676
-0.00778326
-0.00208351
-2.12805e-05
2.38576e-05
0.00175074
-0.00132962
0.00116875
-0.00171286
0.000544101
-0.000798229
-0.00172357
0.000415234
0.00227029
-0.00268552
-8.20098e-07
0.000131836
9.00268e-05
-0.000288761
0.000198737
-0.000368457
0.000884717
-0.00190138
0.000533237
0.00136814
-0.0011773
0.000958614
0.000218685
0.00191912
-0.00018085
-0.00173827
0.000970396
-0.000530343
-0.000440068
0.000455091
-0.000364718
-9.03679e-05
-0.00126758
-0.000706583
0.00197416
0.000443151
0.000165143
0.00635926
0.00367382
0.000397399
7.45832e-05
-0.000471982
-0.00491492
-0.00129487
0.00620979
0.00128868
-0.00072643
-0.00056225
-6.90696e-05
0.00042327
0.000732288
0.000363351
-0.00188949
0.00241328
-0.000523797
-2.49616e-05
5.58687e-05
-3.09032e-05
-0.0164902
-0.00674707
0.00094464
0.000344044
-0.000340142
-0.000486947
-0.000301841
-7.84666e-05
0.000380228
0.000550898
-0.000188176
-0.000362721
-0.00128744
-0.000602049
0.000824158
-0.0011557
0.000331543
-0.000445988
0.000106207
0.000639409
-0.00206633
0.00142691
0.000280648
0.000174447
-0.00112266
0.000925173
0.000197488
-0.00255955
0.00394707
-0.00138749
0.00054757
0.000135316
-0.000682891
-4.83952e-05
0.000206211
0.00047053
-0.00444899
0.0039785
0.000611964
-0.000438227
0.000248353
-0.000257752
9.38768e-06
0.000364041
-4.05364e-05
-0.000229772
-0.000305101
0.000534875
-0.000856938
0.000287214
-9.69241e-05
0.00271614
-0.00192043
-0.0007957
-0.00017263
-4.00569e-05
9.73979e-08
-1.02537e-07
-0.00249659
-0.000383209
0.00287979
0.000361913
-0.000591683
0.00456304
-0.00409251
0.000123184
0.000160938
-0.000284118
0.00159582
-0.000427077
0.00031505
-2.49676e-05
-0.00029008
-0.000252567
1.59928e-05
-0.00039592
0.00105564
0.000154308
-3.24627e-05
-0.000121804
-0.000326491
0.000204978
0.00012152
-0.00314727
0.00058939
0.000686201
0.00123293
0.0029403
-0.00114523
0.00223583
-0.00349076
0.00125495
-2.12713e-05
0.000299957
-0.000278685
-2.11069e-05
7.19827e-05
-5.08766e-05
0.000208235
-0.000122399
-8.58318e-05
-0.000168999
-5.49833e-05
0.000223972
0.000834564
-0.00211561
0.00128107
5.97083e-05
-8.08126e-05
0.000217606
0.000145988
-0.000363595
-0.000642995
-0.000264109
0.000907128
0.000573615
-0.0033115
0.0077348
-0.00442335
-8.0836e-05
4.10209e-05
3.97954e-05
0.000590058
7.89812e-05
-0.000669042
-0.000193893
-0.000275146
0.000469029
-0.000375235
0.000456193
-8.09567e-05
0.000107455
0.000100781
0.00167371
-0.000922526
-0.000751177
0.00527334
0.00459342
0.000115956
-0.000113434
-2.52113e-06
0.000371441
3.1935e-05
-0.000403371
0.000591271
-0.000319728
-0.000271544
0.00241766
-0.00301453
0.000596871
0.000434299
-7.02441e-05
-0.000527913
0.000334024
0.000987202
0.00172895
0.0010613
-0.00362085
1.25413e-05
-0.000314374
0.000273728
-0.00019635
-7.73695e-05
-0.000544126
0.00016889
-0.000283291
0.000830863
0.000267721
-0.000144531
0.000374484
0.000819784
-0.00119425
-0.00111539
0.0023876
0.000847078
-0.00179722
-0.000227097
0.000419016
-0.000191919
-0.00927421
0.00897229
0.000301955
0.00010154
-0.000744535
0.00124062
-0.000899115
-0.000341506
-5.50862e-06
0.000121466
0.000154747
-0.00787473
0.00444818
0.00271001
-0.00715817
2.74893e-05
4.57034e-05
-7.31954e-05
-2.65777e-06
3.48431e-05
-3.21844e-05
-0.00345646
-0.00135335
0.00138499
-3.1642e-05
0.00288171
-0.00106585
-0.00181585
-0.000371412
0.000202416
0.000242776
-0.000264045
0.000233581
0.000700759
-0.000934342
0.000182455
-0.000696628
0.000514176
0.00196366
0.000493812
-0.00245739
-0.000409583
3.73808e-05
0.000372206
0.000157432
-0.000176541
1.9166e-05
0.000433446
-0.000479631
4.61835e-05
3.13382e-05
-7.20553e-05
4.07161e-05
0.000351773
-0.00044415
9.23914e-05
-0.00188631
0.00197634
0.00220503
0.00123038
-0.00343545
8.3325e-05
-0.00085631
-1.37856e-05
1.11283e-05
-0.000220548
0.000438162
-0.00125015
-0.00261033
0.00386047
-0.0026444
-0.00112521
-0.000440338
-0.000759261
0.00119961
-0.00101765
-0.000883728
0.000183541
-0.00103597
0.000852441
0.00616962
0.00401836
-0.0101879
-0.00108496
-0.000696323
0.000492868
5.80296e-05
0.0012012
7.2784e-05
-0.00127399
0.000514559
1.79869e-05
-0.000532541
0.000348964
-0.00112246
0.000773497
-0.000744993
0.000550184
0.000194812
0.000182534
-2.50382e-05
-0.00133839
-0.000246612
0.00158499
-0.000251327
0.000242667
8.6521e-06
-0.00139523
-0.00407179
0.00546701
0.000246905
-0.000259485
1.25854e-05
-0.000507686
-0.00141274
0.000457053
-0.000814023
0.000356988
-0.00114557
0.00022295
0.000922658
0.000217111
-0.000322901
0.000105793
0.010175
-0.0156839
0.00550894
-0.00141304
0.00178756
-0.000209495
-0.00227684
0.00248634
0.00832875
-0.00445883
-0.00386993
-6.37169e-05
-0.000187613
7.99869e-06
0.000449059
0.00220599
-0.000584977
-0.001621
-0.0100798
0.000805575
0.000662928
0.000126655
-0.00078958
-0.000275725
0.000284975
-9.25149e-06
-0.000762413
0.00015949
0.00060291
-0.000466359
0.00202525
-0.0015589
-0.00206298
0.00261583
0.00338683
-0.0021858
-0.00120104
0.00122354
0.000450179
-0.000713968
0.00196113
-0.00124725
3.49715e-05
0.000280078
0.00178264
-0.00447458
0.00269191
1.95972e-05
-3.01946e-05
1.05979e-05
-0.00100008
0.00127355
-0.00027346
-0.000728408
0.00139135
-6.82594e-05
9.57498e-05
-0.000298501
-0.000681756
0.000864209
0.000113223
-0.00123062
0.00111741
2.50238e-05
0.000346429
-0.000836908
0.000455232
0.00038167
-0.000340663
0.00254568
0.000305218
-0.00057815
0.000272979
0.00316997
-0.00232581
0.00157139
0.00131032
0.000278465
-0.000694495
-1.95514e-05
-0.0013338
0.000142308
-0.000675193
0.000532888
0.000517134
-0.000300021
0.000232295
0.000282273
0.000479958
0.000445225
-0.000821847
-0.000333846
0.000100817
3.85104e-05
-0.000139313
-0.000646567
0.00128598
0.00126107
-5.9867e-05
-0.000283949
0.000222903
6.11009e-05
7.13278e-05
-3.99868e-05
0.00137071
0.000380023
-0.00367793
-0.0015098
0.00518774
0.000149721
0.000202053
-0.00769705
0.00424056
-8.33823e-05
4.09754e-05
4.24066e-05
-0.000712834
0.0015474
-5.23388e-05
0.00311647
-0.00306412
0.00140777
-0.000260736
-0.000576188
0.00748935
-0.00337619
0.000471461
-3.80086e-05
3.64577e-05
3.48695e-05
-0.00989832
-0.00534507
0.00425012
0.00407862
-0.00232644
0.00181876
-0.00035135
-2.00667e-05
0.000272957
-2.60535e-05
-0.000146535
0.000736598
0.000240632
0.000748217
-0.000988845
0.00644213
-0.00796726
0.00152512
-0.000392071
-0.00037035
-0.000178068
-0.000298063
0.000476128
0.00122054
-0.00310606
-4.58513e-05
0.000126844
-8.09794e-05
-0.000175669
8.06543e-05
9.50116e-05
-0.000225835
-0.000919739
0.000807062
-0.000501828
-0.00244555
-0.00356089
0.00600643
0.00110007
-0.000283989
-0.0046858
-0.00294456
0.00763041
0.00124556
-0.000858412
-0.00038715
-0.00589524
0.00258371
-0.0048289
-0.000660559
-2.84638e-05
-4.35903e-05
0.00253899
-0.00621692
8.85884e-05
-1.35484e-06
-8.72341e-05
-0.000430564
0.000696004
-0.000608417
0.00100584
0.000245106
-0.000137648
3.05219e-05
0.000217827
-0.000351154
-0.00036286
0.000108461
0.00163827
-0.000785225
-0.000853021
0.00126406
0.000697064
0.000813301
-0.00216774
0.00182594
-0.000221756
-0.000658347
0.00235206
-0.00239218
4.00767e-05
0.00038693
-0.000227359
-0.000453209
-0.000240752
-0.000637611
0.000134907
0.000502696
-4.6197e-07
3.12388e-06
-2.66108e-06
0.00025743
-0.00085686
-9.23401e-05
0.000949204
-0.000103166
-0.000290237
0.000393304
0.000241944
0.000349329
0.00191779
-0.000686486
7.36707e-07
-5.76196e-07
-1.60085e-07
0.000147046
9.80617e-05
0.000198216
0.00016984
-0.000368053
0.000150092
-0.000501452
-3.45677e-05
0.000662042
-0.000627475
-0.00118306
0.00314734
-0.00196424
0.00116456
-0.000980999
0.00103014
-0.000896663
-0.000133487
0.000197516
7.62217e-05
-0.000117498
-0.000289134
0.000406642
-0.000334316
-0.000134715
0.000469019
0.000107317
-0.000115754
8.43783e-06
6.26702e-05
-0.000317663
0.000254966
0.0156285
-0.00330104
-0.0123275
0.000536425
-0.000358602
-0.000177816
0.0075412
0.0089358
-0.016477
0.000447439
-0.000887772
0.00272022
-0.000302546
-6.11553e-06
-0.00109447
0.000489477
0.000604968
-0.000383079
0.000588929
0.000199016
-0.000787936
0.000475255
-5.71241e-05
-0.000418133
0.000133104
1.6615e-05
2.45589e-05
-4.96081e-06
-0.000445244
-0.000157677
0.000602915
0.000908911
-0.00137527
-8.19824e-05
0.000468926
-0.000386926
0.00187024
0.0127629
-0.0146331
-0.00035346
0.000271484
-4.05739e-05
0.00023879
0.000989353
-0.000777605
-0.000211738
0.0166817
-0.0088723
-0.00780943
-0.000259375
-0.000378235
0.00259535
-0.00101631
-0.00157903
0.0033779
8.93551e-06
-0.00126527
-0.00106115
-0.00305692
0.00546185
-0.00240492
0.000669474
-8.05417e-05
-0.00470677
0.00164984
-0.00026425
-8.91977e-05
0.000574115
-0.0011914
0.000617286
0.00386934
-0.00151724
-0.000311876
9.01307e-05
0.000965197
-0.000734666
-0.000230514
0.00317044
-0.00263402
7.63048e-05
0.000355866
-0.000422355
1.27741e-05
8.95942e-05
-1.76127e-05
0.00021449
-0.00056587
0.000351369
0.000621121
-0.00131422
0.000693119
-0.000716818
0.000682252
-0.00227248
0.00124069
-0.00102379
-0.000216888
-0.0022573
0.00413301
-0.0018757
0.000398667
0.000679653
-0.00107829
0.0010836
-0.000220125
-0.000863468
-1.12128e-05
1.13062e-05
-0.000643149
0.000554808
8.83412e-05
-0.000281252
0.000265134
1.61186e-05
0.00693114
-0.0049675
-1.03847e-06
9.36037e-07
1.02789e-07
1.01429e-05
-9.10052e-05
-0.000322813
-0.000163735
0.000486602
0.00304834
-0.00549388
0.000523459
-0.000207668
-0.000315786
-1.59041e-05
0.000129977
-0.000114064
0.00068752
-0.00386686
0.00317934
0.00307996
-0.00118151
-0.00189844
-0.00048238
0.000345921
0.000136466
-0.0134214
0.0113977
0.00202371
0.000786808
-0.00028573
-0.000501068
0.00168427
-0.000719092
-0.000313176
0.000453872
-0.000140688
0.000164851
-0.000596467
0.000431616
2.12389e-05
0.000105614
-0.016119
0.008666
0.00745298
0.0011773
-0.000556163
-0.000279856
0.000224509
5.53332e-05
0.000234323
-0.000344263
0.000109938
0.000369656
-0.000487148
0.00105494
-0.0014652
0.000410274
0.0106506
0.0049779
-2.36009e-05
-0.000235884
-0.00338682
-0.00178951
0.00517636
-4.28467e-05
4.98092e-05
-6.95953e-06
-0.000109972
-0.00017354
0.000283513
0.00721518
-0.00277517
-0.00443998
-2.13308e-06
0.000200091
-0.000197967
-0.00396287
0.00277981
-0.00045671
0.000621565
-0.00293796
-0.000173443
0.00311142
0.000551006
-0.000152324
0.0127481
0.00389321
0.00507909
-0.00027384
7.34569e-05
0.000200383
0.000650581
8.2354e-05
-0.000732916
-3.39043e-05
-0.000230334
-0.0135657
0.00366739
-0.00115902
0.00215155
-0.00099253
0.000728411
-0.00198943
0.00126103
0.00580635
0.000324141
-0.00613048
3.55398e-05
5.40569e-05
3.31383e-05
-0.000331982
0.00141223
0.000370378
0.00123846
0.00154947
-0.00278792
-0.000525032
-0.000569464
0.000157713
0.000297492
0.000402691
0.000120771
4.69569e-08
0.000665068
-0.000665111
-6.85591e-05
3.73554e-05
3.12015e-05
0.00429785
0.000265196
-0.00115573
0.0139186
0.000374528
0.000276069
-0.000687399
0.000173824
0.000499459
0.000470932
-0.000404706
8.19171e-05
-0.00268667
0.000314416
0.00237226
0.000845901
-0.00119164
0.00034574
-0.000168479
0.000152585
2.4658e-05
-6.75053e-05
-0.0025011
0.00123583
0.000111402
-0.00260799
2.93472e-05
0.000137158
-0.000166505
0.000652753
-0.000368222
-0.00028453
0.000385061
0.000106426
-0.00049148
7.27542e-05
-0.000191256
0.000118492
0.00148261
-0.000535049
-0.000947554
0.000127107
-0.000559752
0.000559749
0.00100434
0.00207562
-0.00162542
0.000678299
0.000947131
-0.000427836
-0.000784448
0.00121228
0.00669907
-0.00905373
5.92338e-05
0.00118147
0.00158105
-0.00224451
0.000663456
-0.00115165
0.000277617
-0.000414067
0.000414111
-0.000600011
0.000924433
-0.000324419
0.00017162
0.000911977
0.000272047
-0.000305262
3.32159e-05
-0.00111227
0.00135291
0.00515136
-0.00408481
-0.00106657
-0.000108072
-6.75944e-05
0.000419088
-0.000109306
-0.000309789
-0.00273356
4.6892e-05
9.2155e-05
-5.70297e-05
-3.51253e-05
0.000135539
-2.43748e-06
-0.0100116
-0.00355406
0.000209544
-5.11138e-05
-0.00015843
-0.000755598
0.000839181
-8.35804e-05
-0.000354957
-0.000184225
0.000539171
-0.000607029
0.000113458
0.000493561
-0.000524658
0.000255781
0.000268882
-0.00120758
0.000936269
0.000271291
0.000440215
0.000346611
1.05451e-05
3.08012e-05
-4.13597e-05
-0.000611542
0.00170585
-0.00109439
0.000265192
-0.000375161
-0.000160104
-0.000627356
0.00078746
0.000487572
-0.000245626
-0.000993764
0.000746376
0.000247391
-0.000356365
-0.000330931
-1.24396e-05
2.29858e-05
-0.00638027
0.0140518
-0.00767155
0.00157808
-0.000750527
-0.000827554
0.00202361
-0.00304728
0.00102364
0.00227418
-0.00782868
0.00555449
-0.00614256
0.00102953
0.00511303
-0.00319481
0.00149045
0.00170438
-0.000358017
-0.000849564
0.0049115
-0.00409478
-0.000816716
-0.000516496
-0.000899034
0.00238164
0.000156856
0.000170921
-0.000327761
-1.18892e-05
0.00134957
-0.00133767
-0.000764124
0.00122509
-0.00046097
-0.00131016
-0.00333923
0.00208909
-0.00017271
0.000333977
-0.000161268
1.60361e-07
5.76557e-07
0.00112319
-0.000657701
-0.000465507
0.00105156
0.0023037
-0.0033552
0.00360736
0.00360784
-0.000252279
-5.10218e-05
0.000303312
-0.00027581
-3.73637e-05
-4.91027e-05
-0.000748497
0.000797604
0.00069288
0.00105685
-0.00174972
-6.67959e-05
-0.000594256
0.000661062
-0.00183648
0.000677453
0.00157237
-0.00122143
-0.000350926
0.000127601
-0.000230781
0.000267752
0.000384995
-0.00386837
-7.44594e-05
0.000183209
-0.000108756
-0.00636551
0.00145059
6.17618e-05
0.000104675
-0.000166447
-0.000910422
-0.000209494
-0.000433068
0.000497652
0.000861964
-0.000135054
-0.000726902
4.14121e-05
0.000168133
-0.0042176
-0.002741
0.00695858
0.000117527
-3.88534e-06
-0.000113641
0.0043532
-0.00626686
0.00191368
-6.83337e-05
-0.000183941
-0.00162506
-0.00156975
0.00768057
-0.0181285
0.0104479
-0.00157045
0.000302863
0.00106409
-0.00239006
0.00132598
0.000337643
8.14383e-05
0.0105097
0.00617204
0.000935148
-0.00153517
0.00439341
-0.00408832
-0.00030511
6.35973e-06
0.000273195
-0.00026787
-5.32525e-06
0.000122872
-0.000282992
-0.00227939
-0.000658558
5.83891e-05
-0.000288025
0.000229637
-0.00568192
0.00770989
-0.00202796
-0.000207871
0.000609645
-0.000401771
-0.000368724
-0.000534564
0.000592957
8.49565e-05
-7.82394e-05
-6.71763e-06
0.000102768
1.47592e-05
-0.000414481
0.000206611
0.000256029
0.000449021
-0.000705056
-3.73726e-05
-4.60096e-05
0.000175729
0.000114502
-0.000290232
-0.000887921
-0.000289386
0.000680817
-0.000629859
-5.09592e-05
0.00162432
0.00328222
-0.00398876
-0.000190073
0.000346942
0.000100815
-0.0033632
0.00160386
0.00175939
0.00132402
-0.00149673
0.000198446
-8.31077e-05
0.00137492
-0.00129181
0.00121156
-0.0112913
-0.000827948
0.00108793
-0.000259977
-0.00605661
0.000374682
-0.000494824
0.000405419
0.000216947
-0.000622372
0.00101234
-0.0013133
0.000300956
0.000240953
0.000313524
-0.000668479
0.00226733
-0.00695315
0.000285294
4.43682e-05
-0.000329658
-0.00025563
0.000569155
-0.000132857
0.000102009
3.08564e-05
-0.0021086
0.00101952
0.0010891
-0.00105131
0.000382455
-0.00219663
0.0018142
-0.000222762
-0.00226506
0.00248782
0.000296282
-0.000153145
-0.000143141
-0.00038298
0.00143792
-0.000846393
-0.000605836
-0.00189364
0.00238748
-0.000367685
-0.000626071
-0.00385674
0.00193483
0.00192189
0.00863398
-0.00404632
-0.00458764
0.000102782
-1.41937e-05
0.00470335
-0.00367381
0.000808319
-0.000127503
-0.000672843
-1.1568e-05
0.000684416
0.000665015
-0.00057452
-9.0486e-05
0.00626478
-0.00514849
-0.00111631
0.0011946
-0.00065193
-0.000542676
-0.000482283
-0.00323097
-0.000986621
0.000589856
-0.00101769
0.000711003
0.000534556
-0.000292122
5.409e-05
0.000238098
0.00309544
0.00263859
-0.00573405
-0.000120789
-0.000195588
0.000316386
0.000721399
0.00367205
0.000288721
-0.000469568
0.0221319
-0.013858
-0.00827382
0.000258098
0.000198095
-0.00185015
0.000165021
0.00168514
-0.000387891
0.00124986
-0.00116015
0.000414107
0.000746062
-4.34072e-07
7.95608e-05
-7.91246e-05
-0.000686639
-0.000504769
0.00217151
-0.00154695
-0.00062455
0.000542643
0.000883239
-0.00142589
0.000120071
-0.000252487
0.00013244
0.00129649
-0.00190324
0.00060676
-0.00111507
0.000590022
-0.00272657
0.00310904
-0.000367482
6.41854e-06
0.000361054
0.00271755
0.00765912
-0.00403149
-0.00362765
0.000675654
-0.000227935
-0.00016912
3.58828e-05
0.00122404
-0.00508075
0.000739191
-0.000240765
-0.000498425
0.000283345
0.000116558
-0.000399907
-6.4448e-06
0.000182174
0.000384199
-0.000362906
-2.12951e-05
0.00389236
-0.00738313
0.00176387
-0.00106459
-0.000699291
-0.00159473
-0.00113532
0.00273006
4.25597e-06
-4.71756e-06
-0.000638369
-0.000117225
-0.000107237
2.19863e-06
0.00386837
-0.00920263
0.00533426
0.00129154
-0.00012181
-1.10434e-05
0.000227406
-0.000103196
-0.000124214
-0.000237296
-0.0205418
0.0134046
0.00713729
0.000243708
0.000179804
-0.000423528
0.00302109
0.00189042
-0.000733352
0.00142623
-0.00222051
-0.00157171
0.00379222
-0.000318408
5.40694e-05
0.00026434
0.000248299
2.46585e-05
0.000548987
-6.90251e-05
0.00639725
0.000138865
-0.00653606
0.000372174
-0.000279359
0.000360769
-0.000662386
0.000301615
-5.31443e-05
2.81864e-05
-0.012454
0.020044
-0.00759008
-3.03917e-05
-3.43321e-05
6.47275e-05
0.000720853
-0.000602988
-0.000117867
-0.000740773
0.000343203
0.000397586
5.47819e-05
-6.09272e-05
0.00296575
-0.00191418
0.00201355
-0.00115604
-0.000857445
0.000913038
0.00051656
0.00144241
-0.00195896
-0.00044978
0.0007385
0.000105923
-0.000101583
0.000619269
-0.000955964
0.000336703
0.000468172
-0.000605579
0.000163849
0.000441721
0.000330385
5.25355e-07
0.00700061
-0.000603353
-0.00606733
0.000169991
0.00589737
-0.000191201
-0.000153527
0.000344738
0.000729027
-0.000875563
-0.000570514
0.000256482
0.000314065
0.000105164
-0.000472653
0.000533342
-0.000570284
3.69489e-05
-0.000651961
-0.00104986
0.00170182
0.00138244
-0.000717428
-0.000325011
0.000204228
0.00491674
0.00201439
9.70913e-05
-0.000482058
-8.37075e-05
-0.000208393
0.00660253
0.000398119
0.000246827
-1.82121e-05
-0.000228606
-0.000566615
6.11917e-06
0.000560492
-0.000110323
-8.6021e-05
0.000264816
-0.000183098
-8.17179e-05
-4.00877e-06
0.000109932
0.00117673
0.00014797
-2.51294e-05
1.6063e-05
9.06891e-06
-0.000115425
-0.000111671
0.00550335
0.00313064
-0.0026325
0.000635662
0.00199684
0.000407908
-0.00049094
8.30388e-05
-0.012502
0.00955743
0.000429474
-0.000797155
-0.000173756
0.00012536
-0.00664474
0.00382812
0.00281664
0.000361088
-0.00075432
0.00206635
-0.000302479
-0.000899966
0.000373304
0.000526661
-0.00306228
-0.00552967
0.00859195
-0.000296553
0.000204136
9.24015e-05
-0.00047257
-0.000642515
2.57397e-05
-5.11849e-05
2.54621e-05
4.60895e-05
-0.00256089
0.0025148
-1.84503e-05
-0.000477496
0.00177371
-0.00129622
0.00189102
-0.000243798
-0.00164722
0.00274605
-0.000285611
-0.00246042
-0.000492659
0.000549999
-5.73251e-05
-0.00126263
0.000336292
0.00182016
-0.00215646
4.83976e-05
-0.000374885
-0.00695053
0.00495264
0.00199791
0.00127977
-0.000566322
-8.18191e-06
0.000186831
-0.00178771
0.00070274
-0.00270521
0.00524422
-0.00359672
0.00976635
0.001371
0.00498825
-0.00381257
0.00414655
0.000689744
5.26232e-05
0.00152843
0.00506668
0.00259246
0.000250155
0.000739198
0.000132879
0.000163409
0.000557844
0.00044565
-0.00100349
-0.00349534
0.00247892
0.00101644
-0.0104552
-0.0024136
0.0128688
0.00221927
-0.00149086
0.00222853
0.000608795
-0.00283732
5.47689e-06
-9.18362e-05
8.63577e-05
-6.51828e-05
-0.000607645
-2.6407e-05
0.000239786
0.00125709
-0.00149688
5.11425e-05
4.26741e-06
-5.5411e-05
0.00092107
-0.000456791
-0.000464253
-3.2102e-05
0.00286636
-0.00244217
-0.000424192
0.000618902
-0.000685717
-0.00943483
0.0171154
-0.0020556
-0.00175696
0.000286276
-0.000140283
-0.000604759
-0.000404045
0.00100879
0.000913028
0.00065935
0.000348507
-0.000319379
-2.91102e-05
0.000658547
0.00091953
0.000232505
0.000151701
-6.52102e-05
6.47785e-05
-0.000391585
0.000223186
0.000168405
-0.00411834
0.00195279
0.00216552
-0.00267094
0.00547826
-0.00280732
-0.00404753
0.00473409
0.00190096
0.00216888
-0.00110478
0.00213995
-0.00100501
-0.00113496
-4.28703e-05
3.16538e-05
0.0110213
0.00770153
-0.0187228
0.000327593
-0.000608533
0.000280953
0.000526498
-0.00129623
0.000769738
0.00165485
-0.00504167
-0.000239292
0.000182172
0.000257321
1.4736e-05
0.00024989
2.33032e-05
0.0114214
-0.00124636
0.00799106
-0.00374094
-0.0191844
0.00350049
0.000321368
7.87368e-05
-0.000400104
0.00172521
0.00144523
-0.000182093
0.00018128
9.39296e-05
-9.7935e-05
-0.000232477
0.000295148
0.000110989
0.000255503
-0.000366506
-0.00166059
-0.000559923
0.0122263
-0.0246804
0.000533085
-0.00017231
0.000199418
6.5398e-05
0.00397848
0.00363887
-0.000772494
0.00119316
-0.0025884
-4.47214e-05
0.00018426
-0.000139544
0.00352299
-0.0068994
0.00337643
-0.00251171
0.000916976
0.000242897
-0.000110032
-0.000634882
0.00114486
-0.000509978
-0.00356112
0.00424863
-0.00179153
0.00134378
0.000447756
-0.000506375
0.00223159
-0.000376231
0.000517582
-0.00014133
-0.000223932
0.000572903
0.00178252
-0.00179442
0.000851244
-0.000541319
-0.000309921
0.0132998
-0.0144781
0.00117823
0.000409718
-0.000290188
0.00564168
0.00016787
-0.00291706
0.00274921
0.000364795
0.00252697
-0.00289176
0.000549636
-1.62986e-05
-0.000372656
0.00045165
0.00302483
-0.00193014
-0.00109467
0.00127408
-0.000948812
-0.000325272
0.00216197
-0.00174674
-0.00119266
0.000364721
-0.000104356
-0.000153401
-0.00231809
0.00766498
-0.00106243
-0.0126474
-0.00789437
-0.000521969
-0.000256902
-0.000727754
0.00136311
-0.000635342
0.00460292
-0.000405122
0.000336054
-0.000336393
0.00308245
-0.000523535
-0.000376431
-0.00557916
0.00132901
0.00425017
0.00142588
-0.00041354
0.000698034
0.000576052
-0.00106563
-0.00104296
-8.84794e-05
-1.876e-05
-0.0025868
0.00424168
-0.00534437
0.00393076
0.00141361
-0.00123183
0.00346038
0.000343926
-0.00426748
0.00392356
0.00336908
0.004622
0.000252555
-1.66781e-05
-0.00023589
-0.00350133
0.00487234
-0.00141724
0.000461663
0.000955574
7.66391e-05
0.00528058
-0.00535722
-0.00131113
-0.000289919
0.000282201
7.72498e-06
0.00079288
-0.0150421
-0.00524324
0.0202854
0.000327461
-0.000208187
-0.000119286
-0.00210547
-0.000826888
0.00293239
0.000291913
0.00400833
-0.00430026
-1.22124e-05
6.33551e-05
-0.00159262
0.0059458
-0.00546841
0.00138643
-0.000583238
-0.000803187
0.00214132
-0.00160058
-0.000540744
-0.00107658
-0.000961839
0.00203843
0.000267639
5.98221e-05
-0.0017115
-0.000721938
0.00243345
7.94762e-05
-0.000561838
0.000326792
-5.61003e-05
-0.000270691
0.000276064
-1.87648e-05
-0.000345996
0.00125153
-0.000905535
0.000154696
0.000258684
-3.49612e-05
-0.000223722
0.00189202
0.000247927
2.16077e-05
4.16169e-06
-0.00120205
-0.000575645
4.07373e-05
0.000534917
0.00409117
-0.00679635
0.000191586
0.000911693
-0.00110328
0.000240884
1.16624e-05
-0.000197549
0.000228066
0.000466524
-0.00217802
0.000122467
0.000487178
0.000729126
-0.00100508
0.000275977
-0.000662441
-0.000750596
0.00133771
-0.00360277
-0.0148595
0.00847926
0.000840074
-0.000729095
-0.000945202
0.000538704
0.000406495
0.00160337
0.0105914
-0.000230727
1.8714e-05
0.000317582
1.98484e-05
0.000276807
-0.000296654
0.00038417
0.000953537
2.61824e-06
0.000743755
-0.00630483
0.000523998
-0.00066269
-0.000354822
-7.25262e-05
0.000427345
0.000281855
0.00135641
0.000168618
0.000796713
0.00144424
-0.00224093
-0.00284027
0.00165877
-0.000359398
0.000208627
0.000150769
-0.000424017
0.000203463
0.00080066
4.53995e-05
-0.000846058
4.92565e-05
0.000698965
0.0017726
-0.00243506
6.17237e-05
0.000242653
-0.000304373
-9.61122e-05
5.40004e-05
4.21089e-05
0.000288742
0.00172482
0.000296296
-1.61631e-05
-0.000280127
-0.00839902
0.00293791
0.00546116
0.000494996
-0.00126199
0.000767003
-0.000902122
-0.00134239
0.00643539
-0.00291239
-0.000125216
-0.000250984
-1.76773e-05
0.000909544
-0.000539872
0.00263538
-0.00229145
0.00391225
-0.00318312
0.00985563
-0.0015694
0.00167813
-0.000108726
4.13698e-05
6.80188e-05
-0.000109387
-0.00144177
0.00407716
-0.000472121
0.00174771
-0.00148835
-0.000259367
0.00714005
-0.00243669
-0.00202941
0.00333068
-0.00130126
-0.00266788
-0.000991397
0.00365926
-0.000762223
-0.000940889
0.00170312
0.000279728
-0.00107413
0.000794407
0.000405046
0.000547027
-0.000952071
0.00150381
-0.00239016
0.000886347
0.000844726
-0.000457766
-0.000386955
0.000226054
-0.000388563
0.00016251
-0.0173532
0.0184412
-0.00108802
0.0121441
-5.80578e-05
-3.80568e-05
-0.00168255
0.00535321
-0.00708424
0.00173103
0.0130087
-0.00546747
-0.000272014
0.000502295
0.000154698
-0.00560353
0.0156036
-0.0100001
0.00042908
-0.000837451
0.000408384
-0.000680217
0.00165497
-0.000974766
-0.00126035
-0.00481109
0.00607147
-0.000469696
0.000626877
0.000290945
-0.00105316
0.000120241
2.77543e-05
-0.000147994
0.000624348
-0.000432405
-0.000191931
0.000340225
0.0018011
-5.50357e-05
-0.000186018
0.000241062
0.000142171
0.00124426
0.00188879
-0.00117529
-0.000713492
0.000752225
-0.00031202
-0.000749767
9.78122e-05
-0.000738545
-0.000865814
0.00160437
0.00295614
0.000956135
-0.00367518
0.0115946
-0.00791939
0.00299601
0.000297288
-8.70414e-05
0.00652916
0.00283292
-0.00104335
-0.00178956
0.00343637
-0.00089429
-0.00254208
3.08266e-06
4.1512e-08
0.000409222
8.00293e-05
-7.45525e-05
0.00754536
-0.001739
0.000268635
-0.000835208
-0.000400075
-4.40649e-05
0.000465054
-0.00069088
-0.000252004
0.0068594
-0.00182877
-0.00503063
0.00327227
0.00386778
3.31548e-05
-0.000537666
0.00208489
-0.00154725
0.00021642
-0.000128229
-8.81826e-05
0.000135703
-0.000886249
-0.00250293
0.00245058
0.000257195
0.00046664
-0.000723832
0.000146824
6.95971e-05
-0.000240759
-0.000114065
-0.000126475
0.00022562
-9.91429e-05
-0.000565642
0.000970694
-0.00161949
-0.00122077
-5.68186e-05
-0.000217021
-2.11688e-05
-3.95387e-06
-0.000407078
0.000275556
-0.000324654
0.000461367
-0.000364293
-9.70691e-05
0.00112277
0.00190208
-0.000238428
0.000258278
0.00115967
-0.00115705
0.000184752
-0.000243968
5.92139e-05
0.000570768
0.000181464
-0.00592752
-0.00124338
0.00717089
0.0149095
-0.00205379
-0.0128557
0.00247458
-0.000284429
0.000489406
-0.000715938
0.00507136
-0.00435541
-0.00239505
0.00351821
0.00243509
-0.000167729
-0.00022282
-0.00052567
-0.000170363
-0.00243154
0.00260191
-0.00213823
0.000752423
0.00138581
0.000849114
-0.000325112
-9.31096e-05
9.4044e-05
-9.33537e-07
9.50712e-05
-0.00019453
0.00399364
0.000874612
-0.00486827
-0.00612231
-0.00416063
0.0034909
0.000669742
-0.00402036
-0.00084649
0.000762472
-0.00062016
-0.00187642
0.00113789
-0.000329988
0.000598589
-0.000993253
0.000126782
0.000359425
0.00048531
-0.000578677
-0.000121128
-0.000154862
0.000275987
0.000246692
-0.0004516
0.000204902
4.54433e-06
-4.53991e-06
-3.31975e-05
0.000199948
-0.000166747
-0.00178705
0.000864544
-0.00175449
-0.003406
-0.000861475
0.00261329
0.00273989
0.000278998
-0.0001534
-0.000125661
0.00116999
-0.00327546
0.000853503
-0.000804247
-8.33481e-05
0.000330184
-0.00120176
-0.000215475
-0.00116072
0.000432975
0.00158474
-0.000420166
0.0035294
-0.00531892
-0.000584905
0.000943145