/*--------------------------------*- C++ -*----------------------------------*\
| =========                 |                                                 |
| \\      /  F ield         | OpenFOAM: The Open Source CFD Toolbox           |
|  \\    /   O peration     | Version:  v2012                                 |
|   \\  /    A nd           | Website:  www.openfoam.com                      |
|    \\/     M anipulation  |                                                 |
\*---------------------------------------------------------------------------*/
FoamFile
{
    version     2.0;
    format      ascii;
    class       volScalarField;
    location    "350";
    object      omega_0;
}
// * * * * * * * * * * * * * * * * * * * * * * * * * * * * * * * * * * * * * //

dimensions      [0 0 -1 0 0 0 0];


internalField   nonuniform List<scalar> 
18649
(
3.15196
0.0260738
0.0230174
1.89367
0.273916
0.0291509
4.3038
0.271009
0.0706967
0.0231418
0.222015
3.01957
1.14628
0.0229287
0.0220459
0.0487583
0.0218501
0.0483722
0.214946
2.79803
4.22498
0.0231135
7.20249
0.192191
0.0219083
2.63538
0.0225551
2.90559
1.00717
0.0216442
0.0227165
0.0808755
0.0220468
0.0259211
0.0230038
8.04594
0.0302136
0.022241
0.0218467
0.261765
0.0738852
0.187971
0.0765835
2.41648
0.0262112
0.0216378
1.85758
1.8386
14.4822
0.0219078
3.9558
0.0345493
6.60471
4.94126
0.0220516
14.4792
2.46873
0.0981765
1.95327
0.022924
2.79961
0.0220412
0.0745524
1.75471
0.0222504
1.713
0.0223329
2.53533
1.80553
0.381208
2.9269
0.0220192
0.087815
0.0269384
0.0250092
3.81211
0.0413399
0.0354894
0.0266808
0.379169
0.0218639
1.78506
1.74866
6.90314
0.0621733
0.0218361
0.0328773
0.0330141
0.050591
0.0278844
0.034246
0.0223749
0.022101
4.07344
0.0229972
0.20948
0.0228573
0.212733
1.79361
0.0224797
6.73871
0.0491342
0.0218254
3.97277
1.85392
0.0350718
0.0221968
0.0229114
0.0492348
0.0248108
5.87113
0.0914792
0.0220829
0.0246377
0.216144
0.0236914
0.0220596
2.8829
2.47092
0.0219554
1.86147
0.0227021
0.0773726
0.0220229
2.20194
0.0219053
0.0222938
2.85044
0.0226516
2.95283
0.0220336
1.73338
0.0219783
2.39549
0.0308404
0.0222187
2.75076
2.4877
0.0340523
0.0327796
1.16305
0.0221732
0.0218561
0.0219907
0.0221761
3.30342
0.0218516
0.0220854
8.04653
1.84645
0.478908
0.0222277
2.32595
0.0223267
0.0224372
0.0219944
0.148819
0.304284
0.0220447
0.0221028
0.0221153
0.522977
1.92508
0.0223449
2.2073
0.214441
0.0221915
0.0220131
0.0224728
0.0235263
0.0220389
3.03456
0.0928948
0.256534
0.0222146
5.24888
9.66789
0.0267972
0.0220509
0.496303
0.449413
0.0217334
0.0222639
6.51805
0.029383
0.0492497
0.0221813
0.022168
0.0410123
0.0381007
3.90535
0.0223166
1.80506
0.0221816
0.0218337
0.022207
0.0324157
0.0642914
0.0253384
0.0222693
0.0220923
0.169702
2.56607
0.0297193
0.0525464
0.0727253
6.55878
1.91484
0.0228468
5.26396
0.0221579
0.0247995
0.0225973
2.01508
1.76207
0.0220639
0.0563528
0.0219699
2.21041
0.0221798
0.101131
0.022072
3.39414
2.20413
2.92444
3.92022
0.0220977
0.0221204
5.97545
5.23424
0.0416016
0.0219573
9.98896
0.0481744
2.9009
0.565979
0.135722
0.235842
0.021974
1.059
0.021793
2.42531
0.0413193
0.0217352
0.0248327
0.0387573
4.19737
0.0221091
24.5646
0.0609429
10.9376
4.21545
0.0478694
0.0230604
0.0300178
2.44093
0.0220734
0.022135
0.0249721
0.0248412
0.0219601
0.0864649
4.13084
0.0221123
0.0218413
1.76128
5.02546
0.0222085
6.46756
0.0218319
3.39225
0.107036
5.79811
24.62
0.218719
0.0221703
0.0218432
0.367926
3.87603
2.22959
0.0221776
0.0219643
2.31195
0.030543
8.68374
7.75463
0.0224098
0.0422913
0.0222314
0.0217283
0.0960461
6.89558
4.61025
0.728932
3.92676
0.023468
0.511473
2.6791
0.0218309
5.12035
0.0220254
0.0262877
0.0228103
0.0220024
0.021936
0.23384
0.0222219
0.05785
0.245074
0.0255925
2.56152
0.0230176
9.23776
0.0220505
0.0224113
0.0219691
0.0228714
0.0222751
1.7657
2.31252
0.022208
0.0221198
0.0746767
0.0222402
0.022009
0.0222653
0.022181
0.0348139
2.78182
0.076522
3.83613
0.0220146
0.0221354
0.0740776
0.0220318
0.021539
6.02948
0.0311055
7.95369
0.0299239
0.598667
0.0220362
0.0247994
0.0226433
0.0246332
0.0220704
0.0222195
0.0217973
0.033969
0.0482396
0.0220618
0.879148
0.0220569
0.0222404
4.02898
5.60181
0.0229463
2.44659
0.537334
2.22762
4.50034
0.0243642
4.40886
0.0220497
3.1308
4.54339
0.0230592
0.0267382
0.0303762
0.022622
0.0223046
0.02185
0.022077
2.35515
0.0351808
2.81285
4.02769
0.595919
3.829
0.0241967
0.022289
0.0412673
0.0219601
4.02024
0.0222714
0.0222321
1.87766
4.6927
0.0232291
0.0219266
2.52779
0.057084
0.0221531
3.50464
0.0227644
0.0266528
7.21243
0.0253939
0.0222345
5.45531
2.34702
0.0472019
0.0220117
0.0221412
2.39854
5.81032
0.0219802
6.22626
0.0218332
0.0221016
4.16206
0.0218454
2.85818
0.0255746
0.195171
3.46627
1.31004
5.22657
0.0219513
11.8567
0.0220424
0.533469
0.0899426
2.95505
4.58026
0.0218455
0.0217294
1.1454
2.24472
0.0249536
23.325
0.0231543
0.0246117
0.0218524
2.98684
0.990213
6.98779
0.0227498
0.0224008
2.66923
2.71897
0.0265457
0.0234301
0.0219333
0.0218313
2.24159
2.75635
0.0220627
0.022058
5.91927
0.0219086
4.88285
0.0219168
11.6782
0.0546008
3.03743
0.0303766
5.04237
5.31433
0.0282639
0.0693525
0.0242907
0.0611095
0.0241018
0.0220607
0.031166
2.8128
0.0217361
0.0235717
2.73363
0.0218444
0.0222184
0.288382
0.0219218
2.36913
0.0225323
0.022847
0.0220017
0.0291712
0.0227033
0.022291
0.912399
0.0221263
0.0422341
0.0221242
0.0318539
2.43561
0.0222814
5.5612
0.0282756
4.37477
4.62474
4.49102
3.32345
0.0298886
0.100305
0.0419979
4.25577
0.0221715
0.135357
0.0245339
0.166836
0.185328
0.0628068
0.0222348
0.799193
0.20968
4.22713
0.0222405
5.17107
0.0247702
0.101746
0.0221229
0.099675
2.39287
0.022214
0.0220255
4.64898
0.0219429
0.192151
0.0219332
0.0296447
0.0225995
0.0423513
0.021924
0.277739
0.0222746
4.38621
0.02227
2.81467
7.34523
4.02253
2.50813
0.0233881
5.46032
0.0601831
3.29122
5.0266
0.0219416
0.0422468
0.186364
0.023077
0.297324
0.022495
0.0222032
0.0230595
0.0220848
0.0222799
0.0225206
14.5086
0.0218344
0.022015
0.0283209
0.0250157
0.868275
4.06325
0.0221822
0.0757051
0.484891
0.0646799
0.0221262
2.52644
5.10441
5.08541
0.303969
0.0414738
0.0242481
0.0309196
0.0344287
0.0226119
2.70608
0.0220164
0.0225931
0.0217897
3.53453
2.95148
3.58951
0.0294025
0.0220078
2.39533
1.70381
4.52158
0.0324555
0.0484839
3.87115
0.0220633
4.52579
0.0248211
0.0237848
0.0227798
1.16516
1.78205
0.0225277
0.261276
0.0309053
0.0234634
2.44424
0.719401
0.0220355
3.34862
0.0339022
4.01026
0.0224222
9.94812
0.041861
0.0305248
0.0224859
3.00966
0.0609892
0.0700185
0.0776917
2.26853
0.0249027
3.5108
0.0225094
0.0311285
4.04089
0.0288995
0.0220417
0.050409
0.0230919
0.070373
0.0219915
0.0220423
1.11849
1.22621
2.18666
0.0222658
2.377
0.021907
0.468937
0.0484567
0.0217968
0.0222463
0.022995
6.20828
0.0227297
0.102107
0.104962
0.0449859
0.0221287
0.021958
0.0244595
4.36146
0.0220452
0.0324802
0.0218198
4.26333
0.0222705
0.0240916
0.022641
0.0218417
8.66719
0.200636
2.53438
0.0266028
8.50663
0.0335031
0.0218504
0.0324944
1.83173
0.0255723
0.022304
4.50198
5.27431
0.0220857
2.19386
8.59518
0.0225437
0.0225856
0.0723619
0.0227335
0.0220351
13.4155
2.89582
2.77339
4.56526
0.0220298
19.1882
0.0220098
0.0220012
0.0218381
1.78694
0.0222076
0.022237
3.81962
2.73031
0.0235364
6.65343
0.0333463
0.0220636
4.65882
0.0271003
0.849925
0.023203
0.546773
0.021579
0.0251451
0.0222834
0.303616
0.0221451
1.72085
5.20926
0.218732
1.81852
2.23533
0.0295145
2.81183
9.82718
0.103655
0.0229064
0.0222247
1.86831
5.16044
7.68338
0.20907
0.067133
0.0220767
0.0281397
4.11091
5.1914
0.0220071
0.0252406
2.53133
4.25751
2.81415
0.159752
0.0223133
0.0236312
2.45488
2.23881
0.0218811
0.0294624
0.0218507
6.26072
0.022128
7.51754
0.0691617
0.0220834
0.0222626
2.3787
0.0220378
0.0274438
0.0220343
0.022138
0.0220285
2.41812
0.113432
0.542879
4.51685
2.54719
3.83244
0.0222828
7.14334
0.0266619
0.0274634
4.8979
0.0220652
0.0220691
0.0219297
4.24091
3.80236
4.0171
0.0220294
0.0294284
0.0218344
0.021843
0.0215452
0.0245034
0.0422473
4.27232
0.0323433
0.0220054
0.268323
12.3846
0.0542592
0.0220057
3.61564
2.20042
0.0220065
1.819
1.72507
0.0501722
0.0288726
0.0221687
0.0245287
0.130225
1.77586
0.644993
0.0223161
3.95357
3.47625
5.13886
0.02257
2.44933
0.278595
2.77903
0.0626637
6.58581
0.021977
2.80198
4.70641
6.3237
0.0222798
0.0220333
0.0295841
0.511991
0.0224632
0.20932
0.0232337
0.627593
0.0305734
2.75566
3.63404
0.0219195
2.57545
0.0649958
0.150478
0.110056
3.7494
0.0220295
0.18917
0.100102
0.515996
2.88395
0.0221111
3.71947
4.21788
0.0220354
3.4113
0.230027
0.0218894
4.3382
5.69373
0.0229464
0.0441759
2.38374
0.0220378
2.9092
0.0221594
0.0220237
0.022058
0.0350141
0.0220111
0.0216186
4.00413
0.0222911
0.0257939
0.0224965
5.25362
0.0422737
0.0220312
0.0219353
2.94531
0.0224135
1.33858
3.04461
0.030268
5.60407
0.0245341
0.0300574
7.47118
0.288727
0.0297365
0.0220063
0.0308003
0.0315511
1.00563
0.0228933
0.0220398
0.0568609
0.0222188
2.77822
0.0579512
0.0224222
0.0220942
0.0294111
0.0296511
2.13089
0.022071
0.0218464
3.62856
0.0220147
3.37454
16.8107
0.0280351
3.6441
0.0221695
2.3165
0.022149
0.111772
1.20421
0.350026
0.0433863
0.0219942
0.108725
0.0229081
1.72205
4.47619
13.3656
0.429798
0.059336
0.0234367
0.0249642
2.71237
2.82552
0.0220105
4.59513
0.907695
0.0218478
0.0765069
0.477442
8.10001
0.0219451
2.81951
4.40239
2.39017
2.27624
4.23238
5.96065
0.0604583
0.0220591
0.0269634
0.0430975
0.0220279
0.0230208
2.19924
0.0227134
0.0767247
2.93526
0.896129
3.26379
0.0416291
9.28227
0.228017
0.109304
0.0222815
1.8585
0.0220801
4.79145
20.7032
0.0222029
0.0929632
0.022122
6.98692
4.34261
0.681385
9.6188
0.0217178
0.0225976
2.5778
0.103832
4.97594
0.0217079
0.0220336
0.0220846
0.0249435
0.0591267
0.0219507
0.0219174
0.026826
0.0249777
0.0221415
0.263428
0.0220213
0.0303315
0.0220277
0.0226541
0.347676
5.637
19.0867
2.60891
5.86569
0.790623
0.91924
0.0246421
0.0604458
2.35593
0.0228117
0.0220344
0.0220889
0.0228092
1.13773
0.10147
2.42845
0.0642985
0.0272983
2.40158
2.85045
17.4184
0.101846
2.79638
0.0234071
0.0220386
0.0220731
0.0222936
0.0220089
0.158384
2.81572
0.112611
0.485689
3.3004
3.29528
0.0285798
0.022034
0.109121
0.0288336
0.0802811
8.96175
0.0306664
4.45774
11.1983
0.274123
2.34106
0.0216107
0.0219554
0.0285613
1.96699
0.0242392
0.0221498
0.0225601
0.0270042
0.02204
1.96842
0.0238555
0.0222807
0.0219616
0.287334
0.0247605
0.0272829
1.77646
0.021837
0.452005
0.0304066
0.0574336
0.02201
2.3655
0.0221823
0.165719
1.90304
4.39325
0.0219058
3.46552
0.0346769
0.0239546
0.0348507
0.0230995
0.0818082
0.0247804
0.0219511
2.42101
0.513294
0.0236194
2.30228
1.93781
0.0220374
0.0220878
0.0379134
0.0225156
0.0227465
4.77813
0.0215499
0.0220432
0.0222131
5.54954
6.17748
0.0349981
4.31997
0.0421716
3.73142
3.91213
0.0235519
0.0221899
0.216945
0.0235134
4.36533
4.64697
6.40869
0.0220492
0.0583153
2.39552
0.0220277
5.3289
2.27817
3.30402
0.0220929
0.0220801
5.56346
0.0285638
0.0217725
0.0308813
0.0224866
0.0224528
0.023871
0.0221181
2.34521
0.0638675
0.0220584
0.52076
0.0220726
8.84619
0.0580183
5.92113
0.0226907
5.78031
0.158803
0.0220755
0.559618
0.0220043
3.54191
3.60499
0.0235286
2.96615
0.0220339
0.0220542
5.73232
0.0220488
12.7613
0.043871
0.0221932
2.6571
0.0219198
0.0763893
0.0221005
0.0233095
0.0232223
0.0339268
0.0221074
0.0219735
0.0219196
0.0220548
0.022594
4.29287
0.0220925
4.06575
1.79331
0.0240655
2.05938
0.021957
0.021957
2.30931
2.81651
0.401967
4.81267
0.0249905
0.023391
0.0493879
0.0220227
0.0315717
0.0223142
0.0734738
4.21268
0.196542
0.0284834
0.0248585
5.09369
2.2055
0.0348352
2.78452
0.0327971
0.213472
2.84398
21.5131
4.48815
4.89351
0.060288
2.28664
5.72944
0.0493952
0.022015
0.0220241
5.65118
0.0247523
0.482006
4.46146
0.0428357
0.0246037
0.0220683
17.6697
2.63368
0.0404682
2.3932
0.0230069
0.0232821
1.783
0.0220287
0.0220642
4.67675
0.0227531
0.0617178
2.31591
4.70103
0.0227559
0.0222807
2.57189
0.105345
8.26348
0.0219549
7.19144
0.459873
1.82027
0.022177
2.38326
0.021846
0.024351
0.0225718
0.0220714
0.14732
0.0219948
0.0221642
0.0222877
0.0233112
3.5801
6.46203
0.0221755
4.27428
0.0992678
4.9903
3.69727
3.25868
0.0218372
0.0219534
0.450724
0.0233566
0.0222884
0.0219519
0.0247303
0.152597
0.0221658
2.644
1.75071
0.0222745
0.0244947
0.022011
0.0220779
0.169063
2.18123
0.0220685
3.17908
2.44963
0.0220138
5.24303
0.0220959
2.51335
0.0220249
0.0215906
2.34821
5.08375
0.0221396
2.20804
0.0237368
2.62403
0.0232625
0.0613445
2.31715
0.0285943
0.660464
2.49399
0.0229909
0.214277
0.0328296
2.8591
4.81133
0.0231311
3.9989
0.022777
0.0275907
0.0221266
0.0699572
1.89129
0.0250871
10.0243
2.51287
0.0432872
5.17158
0.0222345
2.18339
0.0220289
0.177824
0.0227973
0.0218355
0.0802596
2.53268
6.15126
0.0308221
0.107522
3.05973
0.0243979
0.114914
3.94573
7.3063
2.50224
2.54212
0.211265
0.0608888
0.0219271
0.0220764
5.10475
2.37697
0.0220875
0.208845
2.67633
0.0518901
5.46564
0.240536
4.00317
2.71923
0.0265043
2.31363
0.0306447
0.102086
2.49864
4.32905
4.57883
0.101777
2.29614
2.84143
0.0264755
0.022036
0.02244
0.0282794
0.0219975
0.0218366
0.67916
20.7031
1.83027
0.0220285
3.72204
2.41922
0.102928
0.427866
0.0325075
3.68264
2.04925
0.02204
3.96871
0.122923
0.0219851
0.0216107
2.38338
0.0219418
11.0055
0.0232648
0.0219596
0.0225326
2.22953
1.06232
0.0550516
0.55709
6.72745
4.21159
4.36056
0.0220441
0.332388
3.41735
10.2337
0.0221297
0.109586
2.30194
9.32136
0.0220452
0.0222707
2.80025
0.384551
0.0513709
8.76039
3.29077
2.44908
0.0220723
0.0220115
0.0221205
0.0899143
0.878012
0.0229233
0.0221148
0.221914
0.143411
0.0609201
0.0221165
0.0225893
0.0220083
0.0634506
0.0216389
0.100749
0.0223292
0.0221308
7.45057
3.30765
4.32983
0.0220591
0.0355522
3.8715
0.0233001
0.0225898
0.0217923
0.0225835
7.97449
0.0220154
0.022027
0.0223326
0.0221894
0.0219764
2.42847
0.0217712
0.0904342
0.34773
0.0220063
0.0222942
0.0226558
0.168058
0.113258
0.0222767
0.0220937
0.0591725
0.517128
0.0224042
0.0760102
0.0278388
9.14789
0.0241934
0.061419
0.0219253
3.93753
3.86437
0.237744
0.0222718
7.31103
0.0416781
0.0220749
0.0930373
0.0222779
0.0220107
0.107575
0.0512573
0.0443448
0.0221109
0.0221472
0.0219845
0.0715691
0.0216145
7.42775
2.78808
0.0333397
0.0297894
0.0225219
0.217851
0.0222247
0.0221509
0.0223307
0.0599803
0.0276485
0.0253237
5.24225
0.0221045
0.0960854
0.0216311
0.0229156
0.0241757
0.0950048
0.0220676
0.0219721
0.0265362
0.0288856
0.0220932
6.20565
0.0220546
2.56743
0.588874
0.0220984
2.67223
2.66868
3.76337
1.87392
0.0292666
0.0220049
0.973525
0.177292
0.0264104
0.0219396
0.0385131
5.7672
0.0220226
0.0219791
0.0222294
0.0222752
0.240032
0.0220168
0.0238272
0.0221157
0.0219477
0.0318385
0.0436362
0.0259917
2.34852
0.114819
0.0220553
0.0231442
0.0220637
0.054805
0.0226602
1.69222
0.0219872
0.0220736
2.73901
0.098136
0.0220582
0.0220768
0.0218258
0.0220214
0.0290384
0.0216558
0.0220829
5.30594
0.0671965
3.112
0.193876
0.022082
0.0220044
0.064977
0.024448
0.362109
0.022017
5.14904
0.0219725
0.0219826
0.029085
0.174732
3.65852
1.88201
4.4275
0.0220144
0.0236153
5.66294
3.75316
2.38128
13.6349
0.0216222
0.0867516
0.0237321
0.0232827
0.0220866
0.026697
0.0219717
0.0229751
2.88608
0.0218188
0.0219329
2.30271
0.0253971
0.0220389
0.0220813
17.1227
0.1105
0.0218155
0.0682795
0.0321935
0.191835
0.817661
0.022274
0.0671865
0.0219344
0.0962953
0.047506
3.28161
0.022045
3.6592
0.0220666
0.0228502
0.0220734
0.0222808
0.0220485
0.0219847
2.20969
4.06137
0.0222742
3.7652
6.73752
0.0218169
0.0219346
3.76722
0.239865
0.101
1.74244
0.0438441
0.0219679
0.0220086
3.35204
0.0221199
0.14499
2.28006
5.31031
0.0226782
0.0252686
0.437933
0.0703313
0.0400558
0.0610268
0.0321114
4.51311
0.0222711
10.42
1.81226
3.63212
0.0220893
2.08096
0.0231377
0.255231
0.0221161
0.113482
0.0219312
0.50582
0.465868
0.022655
4.11238
2.67683
0.0220938
7.04647
0.0219521
0.0233089
0.0220689
0.415926
0.0220137
4.87962
0.553364
14.0004
0.0222718
0.0221314
0.0309436
4.90793
0.0304739
0.0742736
0.0220278
5.7688
0.0242266
0.108324
2.01495
0.022093
3.4605
0.0574162
0.144626
0.022076
0.0266201
0.0341713
0.0233091
0.0545548
0.0220427
0.0220529
0.270102
0.0219331
7.7291
0.16008
0.0606041
2.40728
0.028438
2.48694
2.51286
3.60286
3.02705
0.0226832
0.562819
4.63623
0.0279926
0.0222913
0.0232515
0.0222307
0.0250932
0.239027
0.03843
0.066462
0.125199
4.0767
0.021737
0.0751108
3.04941
4.6448
2.21166
0.0220625
0.0221025
0.0217419
4.00008
0.119334
0.170117
8.12501
0.0469758
0.0326671
0.0219466
0.0434398
0.0234379
3.54401
0.042896
0.021797
11.6988
0.0367598
0.0940487
0.0354055
5.35267
0.0240393
0.0216903
0.0221114
0.0251467
5.35229
0.0218306
0.0220995
0.753143
0.0394393
0.0219192
0.0216743
0.0390172
0.141253
0.0523516
0.147351
0.0226749
0.0219165
0.0390344
0.102574
2.10946
0.104425
0.710155
0.0220506
0.0216681
2.62875
0.0221554
0.0218218
0.0218863
0.0241942
0.0376685
0.0327651
5.60889
0.472521
0.0812763
12.0834
0.419095
0.0220703
1.80003
0.18687
0.442152
0.0220914
0.0217642
5.52794
0.026697
0.0247103
2.77813
0.0219822
0.0220382
4.10666
0.120201
0.0782818
0.0220731
0.0217022
7.79832
0.299426
0.0220436
0.027585
0.022036
3.95609
0.171244
0.0462138
0.0221148
0.0221506
3.05653
2.42218
0.0247425
0.0219771
0.0229663
0.0230739
0.0394907
3.35387
1.88206
0.0219278
0.0220964
4.88062
0.0389588
0.0233753
0.0292318
0.0237543
0.0225082
2.1916
0.0221747
0.20077
5.05252
0.0220891
0.0220892
0.0221571
8.19461
0.0218091
2.42136
3.48846
0.316958
0.0222829
0.456201
2.00865
0.021581
3.07392
1.81206
5.10652
0.0223156
0.0220473
0.451476
0.0222612
3.85832
0.29921
6.10607
0.0220273
0.0304243
4.85328
3.11902
0.0302895
0.0221372
0.0589497
0.0221211
2.07044
2.68715
6.31056
0.0671678
0.0260523
0.0222769
6.5977
11.6249
0.0220295
2.64021
0.15462
6.38063
0.0265241
0.0220722
4.42394
2.15884
0.0399542
0.719398
0.0245243
0.115466
0.0429445
0.0433546
0.0222373
0.0220443
0.0272987
2.42205
3.59837
7.26373
0.0291043
4.5985
0.0222882
1.75981
0.0220487
2.35681
5.72631
0.022066
0.0278198
0.0219381
0.0220161
0.0220232
0.440237
1.80536
0.0220304
4.70332
0.0220819
0.0297099
7.96632
6.58621
0.0430392
0.0625651
1.89046
5.75925
0.476966
0.0219802
0.0221776
0.0220335
0.0219816
0.0220553
7.05162
0.0216151
0.0228683
0.0216199
0.0260209
0.0241707
0.069872
0.0313225
0.0221136
1.68396
0.0220528
0.0254556
0.0318486
2.58171
0.0217335
0.0222127
0.0233713
0.0229216
2.25516
0.084317
0.0220446
0.0220241
0.216751
0.0218908
0.0220647
3.62197
0.245487
14.4135
0.0246901
2.18313
2.27776
0.0290215
0.0230081
3.00601
0.0215923
0.0220861
0.0221382
1.04118
4.13199
0.024024
0.0910769
3.89452
0.0290988
0.0219831
0.0238294
4.16395
0.0220218
5.42343
0.0222771
0.0606814
3.49825
0.025895
2.44466
0.192277
0.821305
0.0569162
0.021941
0.023227
0.0494922
0.0220326
7.48605
27.4123
0.0224698
0.0222881
0.0385221
0.0266003
0.443398
1.68257
2.78994
0.0220444
0.0221765
2.18674
0.0221977
0.0471867
0.0319016
0.849235
2.90506
0.342658
0.0276711
0.136896
2.21004
0.0790515
0.0768766
0.0223953
0.0413583
0.022309
1.8536
0.0239661
7.03437
0.0713606
0.0219876
1.30666
0.0232292
0.0221546
0.0446348
0.0284765
8.39448
0.0219984
0.0226258
0.022033
4.83271
0.0217359
2.62531
2.50503
0.0220272
0.0217403
2.237
0.0237403
6.87352
3.38768
2.97428
0.0766553
2.20344
0.438399
0.0220687
0.0220017
0.0576482
0.0220813
4.46487
0.02233
0.123467
0.039162
0.0582558
3.32604
0.0628473
0.0220343
0.0219745
2.96195
3.15467
2.84144
3.65581
0.030113
2.34702
0.0221355
2.35743
3.47218
0.292989
0.0987375
0.616822
1.65039
2.95835
0.0220262
0.0723706
0.0242846
0.0220511
0.0233839
0.0218433
0.022795
8.59778
0.0219789
0.328485
0.597309
6.69575
0.645367
0.0364459
0.0324085
0.0239166
0.022036
4.49953
3.7336
0.13191
0.0222214
5.54282
0.380504
0.0309301
3.23348
2.7056
0.02207
0.022222
6.22728
3.86812
0.0220882
0.0219423
0.0538709
0.021786
3.30362
0.42263
0.0400175
0.0221303
4.1785
0.0218943
0.024437
0.0268182
2.46198
0.106885
0.0491197
0.0268151
0.0595585
0.132034
0.0228438
2.25026
0.132365
2.55052
0.0614925
3.61158
1.74335
14.0872
2.16735
0.0241791
0.0298381
4.61678
7.39943
2.28368
0.0503181
0.0221717
0.0228458
0.0911221
0.0220361
1.71349
4.13946
6.72892
0.0229126
0.0234759
0.022204
0.0243911
2.38485
3.90239
0.0218219
4.21704
3.94494
3.72208
0.0473233
4.30215
0.0228296
0.0220917
4.01994
0.021941
0.0228342
0.0227569
4.05457
1.83723
0.027357
0.0685805
4.41981
0.0222728
0.0492416
0.0345203
0.0244855
3.61148
3.02406
0.0220901
3.20156
9.32851
0.0221971
2.62164
2.97854
0.150018
0.027444
0.0260268
3.59595
0.0241243
0.0219427
0.0220397
0.119619
0.0415265
2.42314
9.96066
0.0223139
0.0234146
4.8566
4.44939
3.78292
0.022193
0.0981842
0.0218849
3.05712
2.67639
12.9094
0.0374072
0.0222699
0.0216992
0.0220901
3.39779
0.0227548
0.0220018
8.89896
0.0221499
0.0218375
0.0327606
3.45245
5.06089
0.52325
0.0221437
5.24033
0.0217187
0.0215084
0.204879
5.11105
4.62998
15.7209
0.0259468
2.62831
0.411994
0.0219963
0.511447
0.0221986
0.0220295
0.0219477
0.0221073
0.0220621
0.0218515
0.0373533
6.06079
0.0219804
0.021974
0.0235701
0.0415578
0.123396
0.022093
0.022142
0.0220276
4.98137
0.0219339
0.0219549
0.0248646
0.0222128
0.317678
0.0220419
5.03624
3.65178
0.0319699
4.90101
0.021899
0.13688
2.76073
0.0220767
1.68382
0.276404
0.107973
0.0222492
0.0217949
3.59389
4.36616
0.0618442
0.0218074
0.0240863
2.40108
0.0222324
4.79456
0.0219791
0.0220933
0.0220959
1.70593
0.0243967
0.0219493
0.0220473
0.0701719
0.0832527
0.0310951
0.274133
6.92148
0.022181
4.74658
0.0220755
0.0692754
0.320299
0.0295277
3.41408
2.76533
0.0326372
0.0222063
0.0220606
2.18997
5.20669
0.024547
4.98201
3.49372
0.0220611
0.0219976
0.535953
0.276578
0.400814
1.7402
0.0222192
7.67522
0.0222771
0.0220423
0.0223813
0.0266446
0.0220646
0.0232214
0.0221634
0.0221711
0.0240957
0.0220338
2.27061
0.0220647
0.110313
0.0220102
0.0223468
0.456526
3.0244
4.96744
0.0269831
0.0948783
0.0415908
0.0222329
0.0222426
0.0295363
0.0693052
0.0890834
8.96895
4.12541
0.127836
11.6385
0.022684
5.71827
0.0220351
0.0265928
6.67939
0.0279256
3.40832
0.022129
13.8631
3.01526
0.0740081
3.7487
0.0605795
8.6146
0.021796
0.0215752
0.0220364
8.52333
0.155785
0.0317475
0.0220298
0.0235571
0.0221015
0.0224397
4.09321
0.70823
0.0227479
0.31056
0.0220254
0.110387
0.407952
4.00498
0.021701
1.73054
0.0218776
4.07329
2.90127
0.0473031
0.0764875
0.0249731
0.13407
4.36538
4.56461
0.0244232
0.0271925
0.0240203
0.0326667
0.028101
2.2212
0.0361716
0.102043
0.0220489
0.0222819
0.0441106
0.022365
0.0219447
0.0528551
1.81207
0.0216444
0.0745838
0.0703361
1.43011
0.21532
4.84338
0.150796
0.0343355
0.02204
6.434
0.0219021
0.0222794
0.0221337
0.0221813
0.0345517
0.031622
0.0223183
0.162639
0.0283409
0.215568
6.24491
0.053731
1.86037
0.0220586
2.37595
0.0853939
0.0270478
0.0223193
0.0989922
4.1159
0.0219253
0.0291742
6.74042
0.0409467
0.0233859
0.196136
3.60435
0.0220771
0.0219261
3.11853
3.53352
4.07377
0.0370796
0.0220283
3.08111
0.0218292
0.0220258
0.022135
0.0233483
0.0579134
0.0221549
3.3751
0.0277862
0.0806439
0.0219332
0.0221778
0.0234701
2.62749
1.82688
4.21112
0.0226001
1.71915
0.646356
1.88271
0.0220297
0.0244804
2.39922
0.022224
2.5851
2.52777
1.95681
0.0227223
0.0216042
0.0219552
0.0226022
0.0224005
2.10559
6.06558
0.0326605
4.08017
0.0228987
2.33498
0.0219689
0.0220242
3.10195
4.01707
0.0216825
0.0281242
0.51191
0.0222262
3.40688
0.0306399
6.2084
0.0221108
8.85806
26.8978
0.024381
6.48976
2.36065
8.55366
0.442344
0.075962
0.0896784
3.31474
0.022018
0.0220859
0.0220201
3.98431
0.022049
0.0224496
0.0222024
0.0724036
0.0220299
0.0216159
4.09644
6.11894
0.161441
4.11075
4.82702
0.0222836
0.448188
5.08647
0.0395495
0.021961
0.0219045
0.0294123
5.78149
17.1226
5.35322
0.0219504
3.51315
2.65875
1.9556
2.77087
0.0223446
0.149991
0.0217947
0.0220316
3.13291
0.300144
0.0663704
0.0220597
0.0221271
0.0392379
2.58356
2.03799
5.17118
0.0222764
7.47255
0.0221165
0.595952
2.27585
2.38461
0.0220021
0.0220684
9.85925
0.0219563
1.57295
0.0219485
0.332911
0.0221412
0.070748
3.10005
0.0243846
3.43532
0.0424699
4.19483
0.0220275
3.32055
0.0226322
2.65834
4.99523
10.8381
1.70958
0.0220818
1.73729
0.255682
0.0412346
0.133054
6.21598
0.0253312
0.0219601
3.16569
0.0229874
0.0230525
2.33753
0.0222786
0.022278
6.39401
4.3302
4.33385
0.0221116
7.89082
0.0220304
0.0268866
3.98934
0.0244967
0.0223625
1.74575
2.54046
0.265793
7.15221
0.0220282
0.113344
1.11015
2.80581
0.0400699
0.122765
3.66867
5.71257
2.5498
0.0217732
0.0236759
0.0295662
0.0229441
0.0220344
0.0286681
0.0220455
2.1481
2.56426
0.035228
0.0218228
0.0224387
0.0347341
0.0220926
5.09317
0.237392
3.95649
0.208674
0.022117
0.0220528
0.391641
0.0224595
7.49253
0.0220313
8.50164
0.270923
2.45484
0.0764671
0.0223608
0.0605741
4.56322
0.0879676
0.0220314
4.05687
0.0218603
0.0267313
0.0424348
0.046954
7.75401
2.81174
0.0451903
5.19052
2.28238
0.0336193
2.13749
0.109753
4.44234
0.0597462
0.0215846
3.32476
4.25452
0.0266651
5.29488
0.0519061
0.0457427
0.0520903
0.0293729
1.75906
0.0220906
0.0217121
0.0220525
0.138872
2.196
5.18111
0.0219296
4.13828
0.18626
2.77376
1.92435
3.49282
0.0221466
2.67054
2.1674
0.0223126
0.0556832
0.022247
0.0234241
0.0221028
0.0353149
4.54086
0.0334651
12.4305
0.0219399
0.0220231
0.224976
0.208705
4.52692
0.0266393
0.022747
4.5153
3.28896
3.7152
2.36917
2.23488
9.04272
0.0633953
0.0223427
4.77058
0.0220163
5.14767
2.41477
0.764574
4.47661
7.23686
0.0220136
0.022255
13.9541
0.203273
0.0905396
0.0222122
0.0224054
1.73948
4.19936
4.70077
0.0535844
0.0298982
0.0219383
0.0220176
0.0219604
0.0221531
0.0430765
0.0221044
1.76066
8.13256
0.0221322
0.0220253
0.0219459
0.694725
0.0518804
4.95554
0.0220275
0.0227005
0.352087
0.0219854
0.381076
0.0797689
0.0818531
0.157032
4.15315
0.0220742
4.96863
0.044518
0.0220815
0.0411347
0.0225832
3.10562
0.0242987
1.67904
3.38145
0.0220035
3.17037
0.0239756
0.159232
0.0624865
0.246811
0.0758778
2.90269
0.0217246
2.20306
0.0292386
4.5143
0.0241666
10.8373
0.119084
0.0295669
1.8751
0.369922
0.0219899
0.0262553
9.59676
0.0511342
3.03692
0.04612
3.18201
6.95313
5.43127
4.11368
1.70231
0.0222076
0.0220138
2.35592
3.58191
3.33307
0.0220319
0.0220507
0.0634399
3.30594
3.74247
4.55789
2.2866
3.4419
0.0479302
0.0218544
0.0227325
0.0390423
0.0478993
0.0216892
0.265941
0.206206
0.522351
5.27672
0.0219769
0.0218092
4.1276
0.0642691
0.0221194
3.67258
2.0422
1.8327
0.0238293
2.37199
2.90973
2.73648
2.65782
0.0221169
0.036777
2.50415
0.0338355
0.0282291
0.290049
0.686754
0.0396472
0.0594406
0.0217773
3.02424
3.78743
3.58375
0.0220788
0.0482181
2.55799
0.441187
5.91028
2.86807
8.14208
0.0220656
0.0361713
0.139185
5.59734
0.0248014
0.0341041
0.0222576
0.0219967
0.0222746
1.80257
4.84681
3.32625
0.067474
2.3054
0.0221349
0.0245414
0.0237581
0.0373667
0.0230564
0.0836819
0.0281956
0.028566
0.0222428
0.0242859
1.04927
2.70999
0.0220385
0.0222307
3.96299
5.37771
0.0235453
0.0396325
0.0257644
0.0218384
0.0222518
3.2367
4.89682
0.428185
0.181555
3.8431
0.0638119
1.75615
5.86849
4.78907
4.12646
0.0221541
0.414793
4.20359
0.0221558
3.84703
0.0220948
2.29342
0.0221417
2.21153
3.52894
0.0219173
2.66667
0.0531142
3.30248
0.0402496
0.0221391
26.4755
0.0220429
0.0219724
1.91345
5.73492
0.0218097
0.621514
0.0630102
0.0229998
0.0230057
0.030114
2.36449
0.0241792
2.19113
0.116606
0.0221249
2.32766
3.7871
2.30152
0.0246621
0.0222119
0.0222068
2.47073
0.0230713
0.027688
12.6252
3.09488
0.0249087
3.56278
0.0307022
0.0236608
3.26451
0.0220744
0.707053
2.45746
10.0709
5.41806
0.265016
0.0222352
0.0224304
1.99021
0.02972
0.0236684
5.69945
6.41759
2.52065
0.0219611
0.0220555
0.0300677
0.465057
0.029666
0.0244991
0.0289133
0.022048
0.0476385
5.0224
3.75204
0.272715
0.0221888
0.0414988
0.0220273
10.4075
0.35824
0.0222421
0.0226282
0.0294816
3.91072
0.0630404
0.0229144
0.0313626
3.92392
0.0318417
4.18243
0.0340178
0.0221402
0.0218322
4.62572
0.0759813
3.70188
4.44996
2.53007
2.18362
0.0304683
2.73662
3.77936
2.2335
4.60537
11.2771
2.32599
0.975816
0.0226622
0.0230226
3.41267
0.0217703
0.0887353
3.76941
4.12219
0.0222692
4.50753
0.104693
0.0297669
0.193292
0.131576
3.56685
0.0221816
2.88038
6.10678
4.03152
4.17227
0.0228794
0.0223807
2.43516
0.0715563
3.20093
3.41092
0.022038
0.0222554
4.23987
2.28887
0.407014
5.07387
2.32254
4.6253
0.0221123
5.28729
0.0328074
0.022006
0.0237948
3.85446
0.0221105
3.25252
0.0271757
3.53006
3.99842
0.266375
4.05215
0.248702
1.76057
3.11675
2.36179
0.150526
0.517064
0.029619
0.022289
9.62804
4.72133
2.24526
0.0220285
2.34947
0.0236428
2.35963
2.49067
0.0216935
4.03998
0.0236724
2.99277
4.29068
5.42363
4.46276
4.55441
0.0858798
4.48562
0.0236812
0.0272089
0.319582
0.0220248
0.0222327
0.105865
0.0222737
2.68954
0.205367
3.24836
2.49939
3.02866
0.0338212
3.32083
0.736675
0.124457
2.48532
0.0220047
0.470273
4.02235
3.46988
0.108434
0.0215826
0.100188
0.0222508
0.0455765
0.238365
3.62774
0.0217908
5.15442
2.01468
5.0014
4.95923
0.0274092
0.735304
3.69541
0.0335372
0.0237787
0.0222181
2.79725
0.0608441
3.67336
0.0269523
4.51492
0.0257112
3.80819
2.05046
0.0381777
3.21427
2.30606
0.0318349
0.0220605
17.8358
5.7985
5.47261
0.0267271
3.79651
0.0221174
0.0221979
3.86958
4.41759
2.33752
4.1774
0.392759
0.242455
0.0221236
0.149093
5.02047
3.2667
0.0220377
0.0314822
0.100186
6.62235
4.94225
1.88009
0.0440626
5.23537
3.97125
0.0220961
0.0237487
6.38238
5.11977
0.0243658
0.0231056
3.50365
0.0219213
0.0220571
0.0432608
3.53041
0.0221308
2.77443
0.0219769
0.0220979
0.0221389
0.0222124
0.0220461
1.84308
0.0276829
1.54474
2.29085
2.59173
3.79465
0.0231015
5.00827
0.0218725
0.0488835
9.40138
0.0408774
0.0227436
0.026523
0.0217766
0.120661
0.0220756
0.0290622
4.20043
5.28544
4.55388
0.0551246
2.69818
0.548934
2.9323
0.0220212
3.86592
0.0220305
0.553943
0.364182
0.111955
0.022094
0.385184
0.0441701
0.0221424
0.624415
0.0219599
0.0505347
0.0223204
0.178918
6.24212
0.0225827
0.0278741
0.450096
0.906202
0.10596
4.48116
0.026543
7.18155
2.77728
0.022825
0.0218512
0.0351041
3.16374
0.543064
0.178962
0.0221664
0.0221764
0.0745944
4.90064
1.69453
3.885
3.89893
0.0220449
3.87609
0.0221827
0.0264404
0.0219715
0.0403342
0.0310289
0.0288059
0.0317171
0.432009
0.0219268
0.0244399
2.80975
0.0220688
3.36483
4.13258
3.40042
0.0385668
1.79522
0.021832
0.0220447
0.0220602
0.0520267
4.64285
5.18569
0.315763
0.0301054
0.0222946
4.20409
0.0220193
3.90114
0.026417
0.0219866
0.0222016
6.45917
5.34847
0.633276
0.0271792
0.0221661
0.0224717
0.0215596
2.5499
0.0293142
0.0604794
0.0912102
0.513621