/*--------------------------------*- C++ -*----------------------------------*\
| =========                 |                                                 |
| \\      /  F ield         | OpenFOAM: The Open Source CFD Toolbox           |
|  \\    /   O peration     | Version:  v2012                                 |
|   \\  /    A nd           | Website:  www.openfoam.com                      |
|    \\/     M anipulation  |                                                 |
\*---------------------------------------------------------------------------*/
FoamFile
{
    version     2.0;
    format      ascii;
    class       volVectorField;
    location    "350";
    object      U_0;
}
// * * * * * * * * * * * * * * * * * * * * * * * * * * * * * * * * * * * * * //

dimensions      [0 1 -1 0 0 0 0];


internalField   nonuniform List<vector> 
18649
(
(-0.124654 -0.0204495 -6.91693e-23)
(1.0221 -0.128559 5.15169e-21)
(1.07613 0.00640819 0)
(-0.1817 -0.0573538 -1.1038e-19)
(0.479125 -0.181032 1.24771e-19)
(1.13047 -0.0743519 -1.98112e-20)
(-0.0227245 0.140558 -7.76678e-20)
(1.3271 -0.303069 -1.75602e-20)
(1.2466 0.0184664 2.04858e-20)
(0.960112 -0.0622423 -1.12467e-21)
(1.24617 -0.360925 6.81753e-20)
(-0.504911 -0.0786573 -3.05697e-20)
(1.2288 0.244257 -8.22294e-20)
(1.07479 0.00457673 0)
(0.992345 -0.0251254 0)
(1.21271 -0.0463648 3.0143e-20)
(1.01668 -0.00240688 -7.89053e-22)
(1.21198 -0.0489304 1.28606e-20)
(1.1268 -0.451152 3.20257e-20)
(-0.0672622 -0.14798 -1.69469e-19)
(-0.0301889 -0.0570059 -8.97087e-21)
(1.05494 -0.070019 0)
(-0.537711 -0.105854 0)
(1.23333 0.134564 0)
(1.01822 -0.0166341 0)
(-0.101801 -0.14976 -3.63962e-20)
(1.04244 -0.0618086 4.07192e-22)
(-0.494571 -0.0776555 -9.03536e-20)
(1.43602 -0.266427 0)
(1.03178 -0.00182014 6.43146e-22)
(1.06237 -0.0498314 6.94988e-22)
(1.05445 -0.358107 4.03941e-21)
(1.00548 -0.0112401 -7.43976e-23)
(0.964844 -0.113147 -3.4837e-20)
(0.983205 -0.0790324 7.66566e-21)
(-0.457743 -0.0969703 -3.67124e-20)
(0.880139 -0.0825801 7.10236e-20)
(1.0185 -0.0568107 2.52626e-21)
(1.03715 -0.0144726 -4.18585e-22)
(1.31569 -0.30407 -4.69202e-20)
(1.2534 0.0249672 -6.15491e-20)
(1.23589 0.137033 -2.6057e-21)
(1.24234 0.0499271 -3.07013e-21)
(-0.361372 -0.131748 2.1702e-22)
(1.02664 -0.127281 2.32476e-21)
(1.03214 -0.00149586 2.98959e-22)
(-0.123154 -0.0862051 -1.05661e-19)
(-0.17528 -0.05901 7.89129e-20)
(0.895937 -0.302441 2.02601e-22)
(1.03528 -0.0206126 -2.93577e-21)
(-0.499184 0.135028 5.00243e-20)
(1.13527 -0.122932 -3.07431e-21)
(0.197309 -0.10496 2.50429e-20)
(0.51952 -0.00463551 0)
(1.00522 -0.0103086 -6.02671e-21)
(0.886141 -0.302553 8.91946e-20)
(-0.353595 -0.0696179 0)
(1.28933 0.0161102 0)
(-0.122598 -0.0237045 -1.06115e-19)
(0.962059 -0.0621546 1.27804e-21)
(-0.123186 -0.0182977 -7.72351e-20)
(1.00452 -0.0247667 7.28323e-21)
(1.2372 0.0569567 0)
(-0.15465 -0.0605016 -4.37703e-20)
(1.02022 -0.0562434 0)
(-0.146008 -0.0628953 1.5618e-19)
(1.05183 -0.0394893 0)
(-0.357352 -0.0497896 0)
(-0.139296 -0.0543929 -8.12639e-20)
(1.45413 -0.00691374 1.04713e-19)
(-0.4605 -0.11972 1.54373e-20)
(1.00594 -0.0274332 1.01947e-21)
(1.03886 -0.359454 8.092e-22)
(1.12459 -0.0366464 -1.56763e-22)
(0.969763 -0.108992 2.84944e-20)
(-0.0332622 -0.0602454 9.83457e-21)
(0.86497 -0.187589 1.44232e-20)
(1.05369 -0.178629 -1.06695e-21)
(1.12144 -0.035203 -6.16322e-21)
(0.968218 -0.534452 0)
(1.01686 -0.00231496 0)
(-0.137508 -0.0834405 0)
(-0.210264 -0.0649354 1.96358e-19)
(0.221834 -0.109569 -2.38198e-20)
(0.838146 -0.298355 0)
(1.03693 -0.0136852 6.24693e-22)
(0.88628 -0.144017 6.67636e-20)
(1.132 -0.118736 2.31567e-20)
(1.17681 -0.171279 1.46772e-20)
(1.12999 -0.0429832 0)
(1.16428 -0.0135581 -3.10289e-20)
(0.966438 -0.0400653 0)
(1.00813 -0.0505796 -6.32187e-21)
(-0.344782 0.0819733 -9.50636e-20)
(1.05364 -0.068522 0)
(1.24672 -0.350826 9.63094e-20)
(0.967959 -0.0655723 0)
(0.946823 -0.490534 -8.02103e-22)
(-0.133061 -0.0531976 -4.10125e-20)
(1.04151 -0.058123 -4.92191e-22)
(-0.535603 -0.104244 -1.37072e-19)
(0.924 -0.270785 0)
(1.02152 -0.00760719 2.20646e-23)
(-0.495023 0.1216 0)
(-0.13853 -0.0523888 4.57474e-20)
(1.13901 -0.123351 -5.28933e-22)
(0.998915 -0.00510886 -7.49828e-21)
(1.06761 -0.0520762 -2.52064e-22)
(0.927275 -0.266771 -2.79591e-20)
(0.968167 -0.0977775 2.39727e-20)
(-0.46317 -0.0986664 -6.67174e-20)
(0.679805 -0.240001 -1.44497e-19)
(1.00769 -0.0491357 -5.80708e-21)
(0.963633 -0.0973971 -7.3417e-21)
(1.38724 0.0106086 7.19034e-20)
(1.08709 0.00660566 -5.81155e-21)
(1.0047 -0.00994169 -1.04102e-22)
(-0.286713 0.00938303 0)
(-0.37356 -0.129581 0)
(1.04503 -0.0188061 0)
(-0.122832 -0.0275903 1.06807e-19)
(1.02892 -0.0712675 0)
(1.04352 -0.358663 -7.85887e-22)
(1.00528 -0.0274873 1.09779e-22)
(-0.201444 -0.148888 4.5987e-20)
(1.01868 -0.0174825 0)
(1.00002 -0.000208805 -1.46082e-20)
(-0.0802103 -0.13911 3.32318e-20)
(1.0285 -0.0699051 -4.98291e-21)
(-0.267808 0.0136274 7.08332e-20)
(1.00114 -0.0414898 8.58931e-22)
(-0.209509 -0.0669407 -1.25645e-19)
(1.02069 -0.0327636 7.39563e-21)
(-0.118311 -0.0212849 8.37686e-20)
(0.873923 -0.088033 -2.57485e-20)
(0.99965 -0.00436921 -1.8221e-20)
(-0.395854 -0.120823 -1.96533e-22)
(-0.347602 -0.0647871 0)
(1.1613 -0.00919653 2.80339e-20)
(1.04612 -0.179365 0)
(0.462609 -0.602832 -3.13855e-20)
(1.03044 -0.0471692 0)
(1.03208 -0.0159333 0)
(1.00973 -0.0166095 4.55879e-21)
(1.00014 -0.00850393 -2.2619e-20)
(-0.488072 -0.00162534 0)
(1.03267 -0.0162446 0)
(1.00217 -0.0195968 -1.81098e-20)
(-0.554084 -0.103786 0)
(-0.140882 -0.0535356 9.21337e-20)
(1.45097 0.0478341 -6.26959e-20)
(0.999554 -0.002547 0)
(-0.273221 -0.0653034 0)
(1.06414 -0.0199765 -4.00864e-21)
(1.03063 -0.0609627 0)
(1.00933 -0.0164846 0)
(0.595707 -0.25888 0)
(0.967184 -0.519771 -2.0095e-21)
(1.00529 -0.00543706 -3.1435e-21)
(0.989872 -0.0474381 5.85866e-21)
(1.00106 -0.017353 1.26242e-20)
(1.31642 -0.391532 1.24127e-19)
(-0.119927 -0.0300855 -8.74276e-20)
(1.06368 -0.0202786 -3.62417e-21)
(-0.195941 -0.150613 0)
(1.38722 0.0145399 -7.00834e-20)
(0.998922 -0.00539703 0)
(1.00737 -0.0289682 -3.49325e-21)
(1.03203 -0.0615063 3.39394e-21)
(1.08475 0.00487828 -8.78099e-21)
(1.00028 -0.0421779 0)
(0.153203 -0.477538 1.44835e-19)
(1.28423 0.00416972 0)
(0.478099 -0.23582 0)
(1.0216 -0.0543761 8.53906e-21)
(0.759381 0.238667 -9.61956e-20)
(-0.557272 -0.102937 -7.96866e-24)
(1.03136 -0.132651 -7.19349e-21)
(1.00497 -0.00545388 -2.8218e-21)
(1.46526 -0.00366574 0)
(1.47976 0.0160828 0)
(1.03001 -0.00498825 0)
(1.00002 -0.000794791 6.15087e-21)
(-0.217372 -0.0339819 -8.38233e-20)
(1.11252 -0.107589 0)
(1.20983 -0.011873 0)
(1.00018 -0.00773293 1.68874e-20)
(1.03125 -0.0464482 0)
(1.1736 0.0365533 0)
(0.98038 -0.222973 0)
(0.888763 -0.835732 -1.96504e-20)
(1.02197 -0.0594806 0)
(-0.144712 -0.00870362 -5.85977e-20)
(1.05781 -0.019402 0)
(1.02 -0.00624641 -2.68538e-21)
(1.00025 -0.005211 0)
(0.890557 -0.132866 -2.36536e-20)
(0.991918 -0.332593 -1.54694e-21)
(0.969589 -0.108315 1.53313e-20)
(1.00002 -0.000580181 0)
(1.00199 -0.0187107 0)
(1.35963 0.00220576 0)
(-0.370265 -0.0422945 -9.26989e-21)
(0.891288 -0.0967766 -1.97712e-20)
(1.17984 -0.185668 7.21878e-21)
(0.703764 -0.217837 2.08316e-20)
(1.38367 -0.253335 4.01341e-20)
(-0.110671 -0.0865387 6.78753e-20)
(1.06657 -0.0514995 0)
(-0.203888 -0.0436916 -1.32486e-19)
(0.989672 -0.0497585 -5.96489e-21)
(1.02727 -0.111418 2.27837e-21)
(1.02501 -0.06982 0)
(-0.147063 -0.0106636 1.28588e-19)
(-0.218094 -0.0671224 1.64947e-19)
(1.04225 -0.0326167 8.33283e-22)
(0.825874 -0.262779 0)
(1.02651 -0.0322905 -3.9963e-21)
(-0.196147 -0.147443 -3.38554e-22)
(1.00218 -0.054178 1.84718e-20)
(1.24913 0.0853749 1.47796e-20)
(1.02425 -0.044667 -3.43162e-21)
(0.314433 -0.851867 5.47718e-20)
(0.190527 -0.482912 -8.49683e-22)
(-0.0348263 -0.151075 1.23745e-19)
(-0.349725 0.105795 5.23918e-20)
(1.0436 -0.0336755 -9.72847e-22)
(1.00181 -0.0540257 -8.0017e-21)
(0.177128 -0.107049 0)
(0.869295 0.248206 1.23068e-19)
(1.17071 0.0432508 5.05681e-21)
(1.02037 -0.0299845 3.07335e-21)
(-0.561338 -0.101146 0)
(1.21273 -0.0601747 -2.84612e-20)
(-0.0434744 -0.148392 1.32179e-19)
(1.33137 -0.379683 1.63131e-20)
(0.593472 -0.265449 7.45091e-20)
(0.469027 -0.158335 6.47075e-20)
(1.02033 -0.0323982 -8.57592e-21)
(1.22391 -0.518481 -7.94543e-20)
(1.0231 -0.00490341 0)
(-0.395466 -0.110844 -4.82224e-20)
(1.17076 0.040166 1.10464e-21)
(1.02949 -0.00478902 -6.14726e-23)
(0.96424 -0.0994828 1.55045e-20)
(0.987251 -0.217322 1.93392e-20)
(0.0881347 -0.109363 1.14672e-19)
(0.990461 -0.0469678 0)
(0.580993 -0.299144 1.97582e-20)
(0.991273 -0.324123 -1.29861e-20)
(-0.54016 -0.0820083 8.8723e-20)
(-0.0534955 0.134888 1.00465e-19)
(1.2072 -0.00657446 0)
(0.982905 -0.078512 9.06202e-21)
(1.11812 -0.102121 1.94714e-20)
(-0.382516 -0.131801 0)
(1.02401 -0.0431736 4.16952e-21)
(0.989724 -0.0501103 0)
(0.960449 -0.0963629 7.66868e-21)
(0.969272 -0.102916 -2.53019e-20)
(1.03745 -0.0246153 5.7664e-22)
(0.681866 -0.23867 8.37463e-20)
(-0.206517 -0.0443615 1.25265e-19)
(0.988379 -0.0459368 2.00858e-20)
(1.01925 -0.00639627 3.14969e-21)
(-0.148789 -0.0828242 3.72205e-20)
(0.473439 0.213156 -5.96959e-20)
(1.00024 -0.00535109 0)
(-0.278317 -0.0448041 -4.23368e-20)
(1.02445 -0.0114856 0)
(-0.491437 -0.00747997 2.59788e-20)
(1.08198 -0.38188 -8.81092e-21)
(0.160264 -0.104343 2.74624e-20)
(0.466005 -0.256915 0)
(1.14279 -0.442385 0)
(1.05755 -0.0183942 5.02894e-22)
(1.01891 -0.00569494 0)
(1.24423 0.228266 -5.49415e-20)
(-0.332578 0.105712 0)
(-0.181811 -0.147985 -2.45085e-21)
(1.00027 -0.00859127 2.57225e-21)
(1.02523 -0.0325269 -1.24576e-20)
(-0.269488 -0.0731785 2.92416e-20)
(1.07648 -0.143254 -4.24955e-21)
(0.673923 -0.168026 9.35184e-20)
(-0.561446 -0.100917 0)
(1.06651 -0.0190196 0)
(0.862833 -0.202638 0)
(0.999784 -0.00329115 0)
(1.03281 -0.00606739 0)
(1.24788 0.0764643 -1.44836e-20)
(-0.535772 -0.0775104 3.54096e-20)
(0.229669 0.151361 -8.71367e-20)
(0.290319 -0.112298 -2.05409e-19)
(1.46578 -0.212161 -6.77904e-22)
(1.00765 -0.0904968 -1.69312e-20)
(1.45892 0.0672384 0)
(1.4317 -0.264958 0)
(1.02041 -0.00686344 0)
(0.556 0.220991 0)
(1.00564 -0.00100679 -7.56303e-21)
(0.96301 -0.12056 4.70905e-20)
(0.968559 -0.0642849 0)
(1.00879 -0.0164883 -9.37493e-22)
(1.04363 -0.0188989 2.16306e-22)
(0.462327 -0.161078 4.2967e-20)
(0.999744 -0.00394602 2.0573e-20)
(1.233 -0.0120674 3.47771e-20)
(0.467793 -0.117442 -5.75051e-20)
(0.965155 -0.114037 -3.02499e-20)
(-0.123054 -0.148788 0)
(0.962178 -0.0641432 4.63443e-20)
(0.486151 -1.1855 -2.36271e-20)
(0.992761 -0.024361 1.55722e-20)
(1.06611 -0.0193135 3.77199e-21)
(1.02071 -0.03142 0)
(1.0782 -0.0188515 1.25765e-20)
(1.00004 -0.000298976 -1.3116e-20)
(-0.218322 -0.0655724 -9.77089e-20)
(-0.343449 -0.138261 -9.43565e-20)
(0.9992 -0.00386684 0)
(1.00078 -0.0164859 -6.80237e-21)
(1.25321 0.0242307 4.7211e-20)
(1.00023 -0.000411589 8.59159e-21)
(1.00838 -0.0163717 -6.36687e-21)
(1.04636 -0.0407137 0)
(1.00031 -0.00774153 0)
(0.926759 -0.180083 -4.16781e-20)
(-0.203793 -0.0527334 0)
(0.696875 -0.197047 6.91552e-20)
(-0.188445 -0.04186 3.36848e-20)
(1.00668 -0.0279653 0)
(1.0001 -0.0145618 6.26163e-21)
(1.23272 0.0616857 1.16617e-20)
(1.00588 -0.00532742 3.2138e-21)
(1.03343 -9.22009e-05 0)
(-0.233563 0.017728 -1.01791e-19)
(1.00122 -0.175586 0)
(1.21648 -0.172918 7.61937e-20)
(0.886775 -0.102086 0)
(1.31285 -0.3999 -5.98583e-20)
(1.00556 -0.00538837 0)
(1.10396 -0.00238924 0)
(1.02599 -0.069537 5.87084e-21)
(1.08367 -0.0749993 4.263e-21)
(0.999812 -0.024628 5.3074e-21)
(1.0002 -0.00439779 -8.15847e-21)
(1.02269 -0.0043516 2.71328e-21)
(1.15902 -0.00478881 -1.57176e-20)
(1.21152 -0.0603451 0)
(0.996616 -0.0265085 1.13239e-20)
(1.22032 0.224742 -4.45353e-20)
(0.99641 -0.0270995 0)
(1.04612 -0.0412988 0)
(-0.176852 -0.0412179 -1.17835e-19)
(1.26924 0.179449 0)
(1.07958 -0.0200367 0)
(-0.123369 -0.154098 0)
(1.31845 -0.376766 0)
(-0.184948 -0.145297 -1.98275e-20)
(0.132645 0.150205 0)
(1.08185 -0.0734806 -3.76185e-21)
(0.0642112 0.143321 0)
(0.996648 -0.0282862 0)
(0.00740267 -0.13176 1.1126e-19)
(0.543497 -0.97111 1.86862e-20)
(0.96468 -0.0633448 -3.2823e-20)
(0.902987 -0.0593509 -4.71903e-20)
(1.00077 -0.166888 1.31222e-20)
(1.06075 -0.0465936 0)
(1.02359 -0.0610865 -5.11859e-21)
(1.03091 -0.0157375 0)
(0.999873 -0.0227492 7.92754e-21)
(-0.345581 -0.117537 -4.70979e-20)
(0.919812 -0.187208 0)
(-0.0584182 -0.150865 -1.29697e-19)
(-0.193643 -0.0421604 1.44958e-20)
(1.44847 -0.247613 0)
(0.0629306 -0.112113 -7.25923e-20)
(1.09785 -0.0332284 -6.26604e-21)
(0.999964 -0.000745044 9.89471e-21)
(1.16421 0.0488401 0)
(1.01793 -0.0301311 0)
(0.835099 -0.877646 0)
(1.00007 -0.000100944 1.73818e-20)
(0.999662 -0.00268571 -1.18934e-20)
(0.0857285 -0.246957 0)
(0.274643 0.162423 0)
(1.07339 -0.0533335 -1.62217e-21)
(1.0364 -0.022341 0)
(1.35241 -0.373059 7.06347e-20)
(1.12599 -0.251707 -6.72666e-21)
(0.998716 -0.0525722 1.89001e-20)
(-0.397455 0.0456227 -5.39401e-20)
(1.07147 0.00442645 6.262e-21)
(0.905371 -0.0578832 5.9368e-20)
(-0.423596 -0.0918177 2.00191e-19)
(1.09836 -0.0739818 -3.94525e-21)
(0.999763 -0.0030802 -6.1915e-21)
(-0.304981 0.0512067 0)
(-0.345424 -0.120244 0)
(1.20376 -0.00250975 -1.49974e-20)
(1.00614 -0.0366049 0)
(1.00014 -0.0137234 0)
(-0.367013 -0.102921 0)
(-0.279631 0.0226115 1.22329e-19)
(1.02698 -0.0339347 0)
(1.34066 -0.353936 6.96631e-20)
(1.02639 -0.0128485 0)
(1.03263 -0.0423936 -1.20239e-22)
(-0.00250816 0.114232 0)
(1.03926 -0.0132879 -3.97013e-24)
(-0.190668 -0.0467315 0)
(1.09833 -0.0740317 0)
(1.26953 0.135298 0)
(0.0347095 -0.110489 1.1306e-19)
(1.22316 0.230955 6.40125e-20)
(0.686619 0.234141 1.44994e-19)
(1.0177 -0.0276702 0)
(-0.0545736 -0.0296403 4.72943e-20)
(0.996635 -0.0285106 0)
(1.25552 0.232189 7.42671e-20)
(1.17944 -0.292186 0)
(-0.0178089 -0.141094 6.88951e-20)
(0.356071 -0.0766507 1.33862e-19)
(1.03045 -0.015003 1.12661e-21)
(1.03271 0.000301505 -1.03833e-23)
(1.22352 -0.524105 0)
(-0.168668 -0.139916 -3.78216e-20)
(1.10563 -0.00488777 5.15413e-21)
(0.467296 -0.236663 -5.76378e-20)
(1.07112 -0.054147 1.24858e-21)
(1.05726 -0.0915794 -3.21814e-21)
(1.01792 -0.00518663 4.43214e-21)
(-0.244609 0.00963394 5.67165e-22)
(1.21062 0.219054 5.39508e-20)
(-0.105145 -0.0135791 -2.85118e-20)
(1.06434 -0.0474413 1.59121e-21)
(0.966567 -0.0402224 -9.16908e-21)
(0.105947 -0.252258 0)
(-0.302009 -0.104459 -1.03625e-19)
(0.904635 -0.0532545 -6.81157e-20)
(1.00215 -0.0872208 -1.98568e-20)
(1.03637 -0.0227307 0)
(1.02705 -0.0125586 2.9011e-21)
(-0.17412 -0.144504 0)
(-0.0949466 -0.140274 6.246e-20)
(1.00459 -0.0086073 -3.94789e-22)
(1.05546 -0.00746847 -2.69217e-21)
(-0.473677 -0.0992824 0)
(1.0393 -0.0182464 -5.26676e-23)
(-0.257417 -0.0478854 2.02793e-19)
(1.03522 -0.0209746 2.12958e-21)
(-0.156749 -0.0314046 0)
(1.12004 -0.249398 -1.94629e-20)
(-0.00495198 -0.136444 5.988e-20)
(0.949131 -0.159758 -1.97685e-20)
(0.567052 0.00791003 -6.02028e-20)
(-0.19529 -0.041246 8.51762e-21)
(1.03673 -0.143577 -6.51901e-21)
(1.24678 0.0166595 -2.29828e-20)
(1.05781 -0.0932401 1.04857e-21)
(1.23621 0.00301637 1.984e-20)
(1.09599 -0.0298202 0)
(0.99021 -0.0435946 0)
(1.07582 -0.149476 8.62516e-22)
(0.220182 -0.596268 -8.15439e-20)
(1.033 -0.00669336 0)
(1.08502 -0.0445926 0)
(-0.300307 -0.098013 2.96471e-20)
(1.02549 -0.0135851 -6.71594e-21)
(1.00017 -0.00445964 0)
(1.24869 0.217149 0)
(1.01626 -0.0169467 -8.77588e-21)
(-0.359755 -0.134606 -4.78106e-20)
(1.06916 -0.0179721 0)
(1.07762 -0.0160988 0)
(1.05366 -0.00482047 0)
(1.14064 -0.0489474 -2.09476e-20)
(1.06993 0.00530062 5.16896e-21)
(1.00007 -0.000778619 9.80981e-23)
(0.524317 -0.584465 0)
(1.03337 -0.0438313 2.59805e-22)
(0.831473 -0.170332 0)
(1.00066 -0.0155868 -6.35906e-21)
(1.11235 -0.13238 2.25319e-20)
(-0.361461 -0.130729 -1.13314e-19)
(1.00005 -0.00109436 -1.02565e-22)
(0.93803 0.157652 2.39588e-20)
(1.09519 -0.107786 0)
(-0.013235 0.147843 0)
(-0.3496 0.123012 8.9296e-20)
(-0.369587 0.119454 0)
(-0.256971 -0.0397306 0)
(1.14421 -0.0495245 2.35634e-20)
(1.21331 -0.284058 8.92226e-22)
(1.16827 0.0441782 5.89787e-21)
(-0.267395 -0.0544992 -1.02358e-19)
(0.979346 -0.0434673 0)
(1.16908 -0.369973 -4.39112e-20)
(0.974376 -0.104668 2.44837e-20)
(0.522405 -0.071525 1.06896e-19)
(1.36866 0.0165781 -5.88634e-20)
(1.09614 -0.302795 0)
(1.0003 -0.000504473 -7.01228e-21)
(0.376589 -0.387192 -8.80057e-20)
(1.36213 0.0669308 8.05873e-20)
(0.0350267 0.111405 1.35465e-20)
(1.05108 -0.0355637 0)
(-0.421273 -0.0985319 -2.84796e-19)
(0.927183 -0.0601427 -7.19497e-22)
(1.25581 0.0811204 -1.53689e-20)
(0.996822 -0.015414 9.23459e-21)
(1.182 -0.298204 -3.01271e-20)
(-0.321963 -0.133566 8.98724e-20)
(0.999353 -0.00339641 -1.21096e-20)
(1.05443 -0.00666968 0)
(-0.342821 0.120968 0)
(1.04187 -0.0207221 0)
(0.94732 -0.506006 7.85288e-22)
(1.03995 -0.0213189 0)
(1.1341 -0.0762866 1.8273e-20)
(1.04151 -0.0608582 -2.32216e-21)
(1.18124 -0.106356 1.26253e-20)
(1.01591 -0.0159052 2.8616e-21)
(0.731293 -0.498705 -2.95343e-20)
(1.00008 -0.000857259 3.58507e-21)
(-0.0370933 0.131219 -1.89436e-20)
(1.05262 -0.0354583 0)
(-0.256373 -0.0409443 -1.37518e-19)
(1.27481 -0.123241 0)
(-0.351932 0.0738021 5.91367e-20)
(-0.305784 -0.127955 -1.11291e-19)
(1.08243 -0.0423832 0)
(1.29095 0.171453 1.00606e-20)
(1.23533 0.00189563 3.81877e-20)
(-0.093324 -0.0303651 1.37468e-19)
(-0.190818 -0.0409595 -1.84422e-20)
(1.04508 -0.0173103 6.47484e-23)
(0.823029 -0.167942 2.91611e-20)
(1.26944 0.128682 -5.0046e-20)
(1.08229 -0.0239369 7.01697e-21)
(1.27758 0.170017 8.94314e-21)
(1.02212 -0.0661731 0)
(0.999122 -0.0043793 6.92822e-21)
(1.08142 -0.0255644 -2.56456e-21)
(1.00359 -0.000759118 5.25223e-21)
(1.00005 -0.000807274 8.41849e-21)
(1.02195 -0.0678874 6.26477e-21)
(0.173351 -0.104126 1.05232e-19)
(1.02501 -0.0123089 0)
(1.03192 -0.0332653 0)
(1.13412 -0.0424414 -7.68596e-21)
(1.06042 -0.102715 -1.56389e-23)
(0.51238 -0.5448 5.68296e-20)
(-0.362188 0.0846945 4.5318e-20)
(0.978359 -0.0431377 -9.92589e-22)
(1.23731 0.0575173 1.27805e-20)
(1.41368 -0.232329 0)
(1.09105 -0.301022 0)
(1.0003 -0.01555 1.3155e-20)
(-0.0532741 -0.0812126 0)
(0.934902 0.248515 -4.50034e-20)
(0.0139748 -0.0687647 0)
(1.28693 0.165613 -1.09386e-20)
(1.17359 0.0374877 0)
(1.06095 -0.0925218 2.16868e-23)
(1.14683 -0.058297 6.15579e-21)
(1.16135 -0.00561601 0)
(1.07127 -0.0163509 -2.67816e-21)
(1.47381 -0.206242 3.52519e-20)
(1.01283 -0.0389508 0)
(1.0716 -0.0164313 -3.09623e-21)
(1.03365 -0.0103544 -5.4163e-22)
(-0.456087 0.0276417 0)
(-0.0186784 -0.13422 -1.90873e-19)
(-0.472797 0.0400536 -4.38674e-20)
(1.03852 -0.173192 4.763e-21)
(1.00726 -0.0349067 -7.7879e-21)
(-0.371505 -0.107026 0)
(-0.137247 -0.0633731 -8.29122e-20)
(0.912062 -0.868856 2.03495e-20)
(1.11543 -0.133346 -1.06398e-20)
(0.76054 -0.0655892 -1.95051e-21)
(-0.476241 0.112009 -9.83027e-21)
(1.00503 -0.000842043 5.3853e-21)
(-0.364076 0.113901 0)
(1.0563 -0.103786 1.30627e-23)
(0.957785 -0.0751308 0)
(0.958523 -0.0490478 0)
(0.564256 -0.643705 -3.91775e-20)
(-0.12863 -0.0525631 2.18551e-20)
(1.06873 -0.0181414 0)
(0.722764 -0.491357 0)
(0.949146 -0.160398 -1.17373e-20)
(1.00559 -0.0880345 1.98112e-20)
(-0.154427 -0.0121694 -7.66786e-20)
(1.04379 -0.594277 -2.77814e-20)
(0.997731 -0.0359775 7.40979e-21)
(-0.0702687 -0.0373801 -1.27858e-19)
(1.1646 -0.0147409 8.26692e-21)
(-0.455204 0.102765 -7.44818e-20)
(1.02882 -0.0619478 5.68073e-21)
(0.382207 -0.133568 -6.86456e-20)
(1.18018 -0.105491 2.29445e-20)
(1.12938 0.0293944 -8.66203e-21)
(1.01018 -0.000510155 3.49935e-21)
(-0.0068158 -0.13035 -7.53919e-20)
(1.22313 -0.151865 2.25994e-20)
(1.25156 0.00738253 0)
(1.22869 0.0741404 1.18153e-20)
(-0.285387 -0.13885 0)
(1.10602 -0.0057549 1.03516e-22)
(-0.474737 0.0437831 8.0247e-20)
(1.06505 -0.0321254 0)
(1.04185 -0.173391 0)
(0.0525758 0.058649 -1.17228e-19)
(1.12691 -0.0791883 9.87233e-21)
(1.00599 -0.0111993 0)
(0.748523 -0.0879964 -1.66104e-21)
(1.08092 -0.032018 -6.90015e-21)
(1.22503 0.0596433 6.07339e-20)
(1.03124 -0.0321372 -5.41265e-23)
(0.995112 -0.0414046 9.33603e-21)
(0.503599 -0.579844 -5.46954e-20)
(1.17251 -0.550829 0)
(-0.186743 -0.124458 -8.90485e-20)
(1.00008 -0.000402298 0)
(-0.359467 -0.133864 5.01762e-20)
(1.03607 -0.0203351 0)
(0.902456 -0.579952 3.9216e-21)
(1.20731 -0.00478872 9.23651e-21)
(1.03368 -0.0108564 5.10022e-22)
(1.04793 -0.0400511 7.49148e-22)
(0.965602 -0.0668041 -1.15596e-20)
(1.39495 -0.0179066 0)
(0.973839 -0.0648979 -1.96609e-20)
(1.21266 -0.283871 6.0983e-23)
(1.26208 0.0777688 1.21767e-20)
(0.975896 -0.249319 2.59138e-20)
(1.02816 -0.0464053 0)
(1.02481 -0.0309427 7.37408e-21)
(0.958548 -0.0934647 0)
(0.257007 -0.00959053 5.8281e-20)
(1.00442 -0.0241166 7.20637e-21)
(0.915046 -0.158209 -1.82184e-20)
(1.0222 -0.00707702 3.23857e-21)
(-0.557218 0.165545 3.18206e-20)
(1.00013 -0.00138638 0)
(0.952999 -0.0772454 3.11186e-20)
(1.07024 0.00149883 -1.46747e-21)
(1.02486 -0.0127841 3.47651e-21)
(-0.468522 -0.0976379 1.16531e-19)
(1.35768 0.0608667 -3.68608e-20)
(0.176998 -0.419548 0)
(1.02807 -0.13295 1.09539e-20)
(0.295221 -0.118874 -1.50927e-21)
(1.16267 -0.0200584 0)
(1.03664 -0.0147451 -1.88781e-22)
(1.13555 0.0361732 2.21487e-20)
(-0.133723 -0.0523821 0)
(1.10118 -0.0676645 7.08007e-21)
(1.05033 -0.0400923 -9.48928e-23)
(0.314096 -0.00311885 5.64484e-20)
(0.705488 0.219856 0)
(1.00171 -0.0204294 1.82593e-20)
(-0.259833 -0.0739603 0)
(0.0153165 -0.0553279 0)
(1.06529 -0.0333048 1.90407e-21)
(1.07125 -0.0125809 0)
(1.21725 -0.207209 2.28195e-20)
(0.959824 -0.0452315 -1.7874e-20)
(0.998386 -0.0349393 0)
(0.83422 -0.938133 0)
(-0.4613 -0.120544 -1.9154e-20)
(-0.155525 -0.0149105 0)
(0.351169 -0.0111107 -1.17926e-19)
(0.998363 -0.0318058 -2.88539e-20)
(0.590892 -0.255778 0)
(1.00731 -0.0293623 0)
(1.00944 -0.022739 -3.1679e-21)
(1.03547 -0.0143532 5.53942e-22)
(-0.161663 -0.0592882 0)
(1.02115 -0.00157591 4.10922e-21)
(1.02313 -0.0558843 -8.13523e-21)
(-0.471762 0.109229 9.00552e-23)
(-0.311742 -0.113089 -1.63039e-19)
(1.08208 -0.0525233 9.3633e-21)
(1.39281 -0.202582 1.36248e-19)
(1.11384 -0.138534 -6.64023e-21)
(1.00455 -0.00933696 0)
(0.202879 0.182737 0)
(1.12645 -0.0337766 -2.57924e-22)
(1.16318 -0.531911 0)
(1.01286 -0.0848555 0)
(1.00562 -0.579443 -3.41206e-22)
(1.03374 -0.000789398 -2.03814e-22)
(1.10851 -0.00779155 -5.67285e-21)
(0.99997 -0.000812315 1.3824e-20)
(1.21173 -0.415533 5.78338e-20)
(1.02873 -0.0459556 0)
(-0.190254 -0.0655607 2.10654e-20)
(0.142299 -0.107007 0)
(1.39451 -0.126064 -8.51259e-20)
(-0.120145 -0.0380045 7.40398e-23)
(-0.180126 -0.14149 0)
(0.91185 -0.120622 4.69451e-20)
(-0.394919 -0.11915 -1.3386e-19)
(1.18074 -0.316871 0)
(1.25406 0.0839676 1.67158e-20)
(0.958697 -0.0482204 5.98028e-21)
(1.04685 -0.039851 -7.27462e-22)
(-0.114061 -0.0843628 -3.47423e-20)
(0.591794 0.222278 0)
(1.33498 -0.259407 -4.56536e-20)
(1.23569 -0.355645 -8.94448e-20)
(1.10382 -0.305211 -2.04262e-20)
(0.999744 -0.0242218 8.73476e-21)
(1.03332 -0.140103 1.11061e-21)
(0.0879744 0.0528438 1.32223e-19)
(-0.179273 -0.0405129 1.76097e-19)
(1.00684 -0.0340344 1.64751e-22)
(1.07361 -0.0961141 0)
(-0.3156 -0.0564653 -3.70294e-20)
(-0.0311481 0.104653 -8.36978e-20)
(-0.0409252 -0.143518 -1.05111e-19)
(1.36461 -0.0209233 6.90544e-20)
(1.00742 -0.000346346 4.21536e-21)
(0.959623 -0.0798297 3.60918e-20)
(-0.37407 -0.130556 1.04055e-19)
(-0.0833324 -0.0968962 0)
(1.01511 -0.00319407 -3.61486e-21)
(1.14151 -0.0177097 -2.60178e-20)
(1.01827 -0.00580639 -3.70857e-21)
(0.712376 -0.960512 -5.43981e-22)
(0.997074 -0.0140635 0)
(1.16412 -0.128 -8.00796e-20)
(1.10814 -0.308201 2.32993e-20)
(1.00202 -0.0202267 1.59473e-20)
(1.06051 0.0035855 0)
(-0.323706 -0.134369 3.39476e-20)
(0.997611 -0.0283852 0)
(1.08995 -0.110733 3.40157e-21)
(0.994678 -0.0398484 -9.63096e-21)
(1.01124 -0.000824534 9.4196e-23)
(1.00479 -0.0435727 5.64506e-23)
(1.07144 -0.697494 -2.07893e-20)
(0.867469 -0.409728 -4.30677e-20)
(1.43797 -0.264094 -3.17099e-20)
(0.162473 0.14491 -9.56052e-20)
(-0.31529 -0.128845 8.28066e-20)
(-0.461264 -0.00808895 0)
(1.00003 -0.000825426 -2.00833e-20)
(1.29733 -0.10336 0)
(0.906427 -0.0676416 6.06692e-20)
(1.10662 -0.0892311 -1.67506e-20)
(1.36064 -0.345208 -7.56312e-20)
(0.99959 -0.0254078 0)
(0.989605 -0.0425004 -2.53176e-21)
(1.04384 -0.0168803 0)
(0.395734 -0.891494 -4.30644e-20)
(-0.339653 0.104231 -1.21854e-19)
(0.359632 -0.790508 2.51754e-20)
(0.999358 -0.0345246 -2.44505e-20)
(0.99422 -0.161759 -1.30192e-20)
(1.03749 -0.0131896 1.98712e-24)
(1.03496 -0.0145095 1.1976e-22)
(1.03303 7.07518e-05 -5.94181e-22)
(1.00313 -0.108277 -1.29739e-20)
(0.975334 -0.248429 -2.76833e-20)
(-0.572493 0.151646 3.56559e-21)
(0.923406 -0.158284 1.68343e-20)
(1.00918 -0.0229934 0)
(0.934584 -0.532094 8.00198e-22)
(0.709349 -0.957047 -1.59907e-20)
(0.837398 -0.246429 1.31028e-21)
(1.00845 -0.0232607 6.81247e-21)
(-0.305786 0.0973762 -1.55884e-19)
(-0.201658 -0.12287 0)
(1.00699 -0.0332791 1.61441e-20)
(-0.144451 -0.0550394 -8.78222e-20)
(1.35312 -0.369773 -6.76023e-20)
(1.20686 0.0117822 0)
(0.993981 -0.161505 0)
(0.999741 -0.00996913 0)
(1.02532 -0.107471 -4.29654e-21)
(1.1712 -0.347612 0)
(-0.122978 -0.0485972 -9.90515e-20)
(1.1971 0.209047 -1.29567e-20)
(1.05206 -0.0386655 -6.20573e-23)
(-0.47051 0.114701 -4.30307e-20)
(-0.472514 0.0572764 8.68507e-20)
(-0.286083 -0.0644959 -8.10244e-20)
(1.07082 -0.012276 8.04937e-22)
(-0.280683 -0.0636265 0)
(1.34352 -0.280274 -2.79349e-21)
(-0.477945 -0.105978 0)
(0.836528 -0.285063 0)
(0.0503638 -0.0729769 -6.27678e-20)
(1.04572 -0.0193618 0)
(-0.312367 -0.10874 1.78569e-19)
(0.411898 -0.00276102 0)
(1.36988 -0.0159364 0)
(1.02171 -0.0579195 0)
(1.05459 -0.00556786 0)
(1.04812 -0.149999 -1.59814e-21)
(1.46628 0.00692598 0)
(1.04223 -0.058353 -1.913e-21)
(1.38881 -0.137204 1.15103e-19)
(1.0145 -0.0845847 0)
(1.13534 -0.540002 2.12818e-20)
(1.14364 -0.0650498 0)
(-0.475025 -0.107719 0)
(-0.467321 0.0243845 9.12074e-20)
(1.03719 -0.0211779 1.73566e-22)
(1.37279 -0.349195 0)
(1.07349 -0.302052 4.35079e-21)
(1.35482 -0.0225738 -1.22185e-19)
(1.29121 -0.187477 0)
(-0.319581 0.103601 5.18816e-20)
(1.00151 -0.0304112 -1.12958e-20)
(1.23012 -0.340964 0)
(0.687707 -0.276512 3.01669e-20)
(1.32806 -0.354929 -1.05641e-19)
(-0.0290631 -0.138901 0)
(0.999314 -0.0503067 0)
(0.0525148 -0.108211 -9.20053e-20)
(0.149045 0.0887144 -1.77507e-20)
(0.994107 -0.0359701 -1.64216e-20)
(0.0466211 -0.136063 -1.12054e-19)
(1.27253 -0.339004 -3.95921e-20)
(1.0144 -0.00351431 -2.93878e-23)
(-0.061021 0.124405 0)
(-0.260638 0.0442734 -2.65643e-20)
(1.03416 -0.0758885 4.75379e-21)
(1.15016 -0.183376 0)
(-0.245067 -0.127308 -1.17085e-22)
(0.99368 -0.0352474 -9.91567e-21)
(-0.0286888 -0.153976 -1.15327e-19)
(0.999576 -0.0544155 -1.89066e-20)
(1.00092 -0.037754 -1.399e-20)
(0.989932 -0.0415743 2.56063e-21)
(1.16787 -0.0425801 -3.60158e-20)
(1.00853 -0.0226962 0)
(1.034 -0.00154823 2.25835e-22)
(-0.458075 -0.013987 7.53606e-20)
(0.999966 -0.000598205 -1.82976e-20)
(1.10113 -0.0714267 -1.2387e-20)
(1.06581 -0.0296742 3.69824e-21)
(0.687345 0.232947 6.87292e-20)
(0.875391 -0.208361 0)
(1.00112 -0.0302544 1.48918e-21)
(1.04263 -0.019284 -2.81025e-23)
(-0.0237726 -0.152066 -7.80151e-20)
(1.02113 -0.0642821 0)
(0.623834 -0.690524 6.27767e-20)
(0.166991 -0.528178 0)
(1.03507 -0.171839 -5.14507e-21)
(1.02105 0.174973 -4.33995e-20)
(1.00426 -0.104275 2.13397e-20)
(1.1426 -0.00492081 3.11779e-20)
(0.228377 -0.10435 -2.61595e-20)
(1.20948 0.137588 0)
(0.909619 -0.125622 -4.4595e-20)
(1.00834 -0.0396581 0)
(1.03227 -0.174439 2.7679e-21)
(1.10703 -0.132878 0)
(1.44675 -0.249868 0)
(1.07477 0.00369469 0)
(1.00603 -0.0217931 0)
(1.2288 -0.00554537 -3.70181e-20)
(0.999467 -0.00297927 1.28022e-20)
(-0.468507 -0.052324 -7.26921e-23)
(1.13445 -0.244118 -2.48853e-20)
(1.01874 -0.062954 0)
(1.00198 -0.0183807 -9.95919e-23)
(1.12126 -0.0950203 2.29402e-20)
(1.07156 -0.143643 -8.70882e-22)
(0.206988 -0.533901 0)
(0.983646 -0.0370119 -2.67811e-20)
(1.02227 -0.0114771 9.21227e-22)
(0.175028 -0.427633 0)
(1.00276 -0.0403167 -8.24653e-22)
(1.50586 -0.125544 -6.77054e-20)
(1.00283 -0.398696 -1.68117e-19)
(1.03661 -0.143722 8.67087e-21)
(-0.274201 0.0984049 9.53895e-20)
(0.999866 -0.00923574 0)
(-0.344543 -0.137307 0)
(1.00024 -0.0133893 -1.1825e-20)
(1.28787 -0.197311 -1.32539e-20)
(0.625096 -0.712316 -1.48041e-20)
(1.20354 0.142111 4.25129e-20)
(1.1917 -0.0824034 0)
(1.00795 -0.00658875 -5.06291e-21)
(1.27959 -0.200295 4.26044e-20)
(1.07867 -0.0171692 4.1672e-21)
(-0.198587 -0.065762 -1.2782e-19)
(-0.37442 0.109034 -1.44814e-19)
(1.14745 -0.562205 -5.37552e-20)
(1.22627 -0.440928 6.25658e-20)
(1.23164 -0.118161 0)
(1.00954 -0.0879102 8.17247e-21)
(1.03325 -0.108691 3.14265e-21)
(-0.319072 -0.120542 -1.22434e-19)
(-0.473082 -0.116106 6.758e-20)
(1.00738 -0.0383326 0)
(0.421674 0.163152 1.68299e-20)
(1.20218 0.210168 -1.77553e-20)
(1.02281 -0.0123411 -9.2978e-22)
(0.700695 -0.211298 0)
(1.47883 0.0322361 -1.83686e-20)
(1.13122 -0.174175 6.44282e-20)
(1.04281 -0.0203556 -7.4695e-23)
(-0.449689 -0.121831 0)
(0.228571 0.134405 -1.26259e-20)
(-0.378532 -0.133348 1.39774e-19)
(-0.0701125 -0.0868546 0)
(0.162169 0.0409311 -6.54162e-20)
(-0.381202 0.00261043 1.17427e-19)
(1.23313 -0.119241 1.16121e-20)
(1.00466 -0.00605923 6.32703e-21)
(0.907857 -0.0766618 2.98997e-20)
(1.14726 -0.169365 8.36448e-21)
(1.00251 -0.0312563 1.08083e-20)
(1.03313 -0.0743312 0)
(-0.236933 -0.149274 -1.66587e-19)
(1.06963 0.0063567 -5.82861e-21)
(1.22102 -0.215488 -3.22938e-20)
(-0.492981 -0.0625896 0)
(0.707394 -0.611411 0)
(-0.403563 0.0426838 -5.2262e-20)
(0.852663 -0.182837 1.63987e-20)
(0.76431 -0.188258 -8.60226e-20)
(1.29064 -0.310514 -8.63831e-20)
(1.22437 -0.280004 0)
(1.00002 -0.000242419 1.28169e-20)
(-0.145918 -0.0540462 0)
(1.00837 -0.000766856 4.77061e-21)
(0.431411 -0.0715691 -2.83404e-20)
(0.766176 -0.332957 -6.36423e-20)
(1.00044 -0.00558942 0)
(1.24281 0.0805574 1.38501e-20)
(0.988843 -0.0480173 -3.33207e-20)
(0.517896 -0.14881 1.44581e-19)
(-0.39578 0.110336 1.25998e-19)
(1.01066 -0.612337 0)
(1.21826 -0.458498 2.31837e-21)
(1.03443 -0.00553038 0)
(1.02289 -0.0695868 6.36992e-21)
(-0.307858 -0.123881 0)
(1.06824 -0.382407 4.65044e-21)
(-0.16661 -0.0403398 -7.19632e-20)
(1.03425 -0.00508787 0)
(1.00651 -0.0229781 1.29289e-20)
(1.00365 -0.0080675 -7.13729e-21)