/*--------------------------------*- C++ -*----------------------------------*\
| =========                 |                                                 |
| \\      /  F ield         | OpenFOAM: The Open Source CFD Toolbox           |
|  \\    /   O peration     | Version:  v2012                                 |
|   \\  /    A nd           | Website:  www.openfoam.com                      |
|    \\/     M anipulation  |                                                 |
\*---------------------------------------------------------------------------*/
FoamFile
{
    version     2.0;
    format      ascii;
    class       surfaceScalarField;
    location    "300";
    object      phi;
}
// * * * * * * * * * * * * * * * * * * * * * * * * * * * * * * * * * * * * * //

dimensions      [0 3 -1 0 0 0 0];
oriented        oriented;


internalField   nonuniform List<scalar> 
51060
(
-0.0538148
0.0815146
-0.0276998
-0.321897
0.340124
-0.0248885
0.072385
-0.0474965
0.137128
-0.0999905
-0.0371372
-0.133687
0.326188
-0.192501
0.117286
-0.279309
0.162023
-0.00768742
-0.100271
0.107958
-0.144849
-0.193505
0.338354
-0.0670643
-0.0858982
0.152963
-0.00814826
-0.0225552
0.0831831
-0.1367
0.0535171
0.0262823
-0.0390557
0.0127734
-0.168685
-0.0904367
0.259121
-0.00176072
0.00486918
-0.00310845
-0.129784
0.319645
-0.189861
0.0952268
-0.154058
0.0588314
0.0800583
-0.0555722
-0.0244861
-0.0495273
0.0649823
-0.015455
0.0317048
-0.105823
0.0741179
0.106289
0.0308388
0.242295
0.0824273
-0.324722
0.191218
-0.111544
-0.0796742
-0.280048
0.15824
0.121808
0.106662
-0.0749572
0.179231
-0.244577
0.0653465
0.0754957
-0.0763863
-0.0603139
0.170357
-0.119341
-0.0510165
-0.120389
0.194827
-0.0744377
0.173515
-0.288907
0.115392
-0.0760859
0.0547267
0.0213592
-0.290006
0.173538
0.116467
-0.300542
0.173086
0.127456
-0.347807
0.290693
0.0571147
0.0522778
-0.10599
0.0537118
-0.0153892
0.00304167
0.0123476
-0.0170955
-0.00689848
0.0239939
-0.163294
0.0790677
0.0842261
0.269728
-0.146458
-0.12327
-0.157943
0.090879
-0.00131665
0.000229655
0.00108699
-0.0750342
0.0452213
0.0298129
0.00980178
-0.00717243
-0.00262935
-0.00533376
-0.0100555
0.0215383
-0.0603988
0.0388605
-0.347658
0.217874
-0.0334141
0.148601
-0.115187
-0.119742
0.225249
-0.105507
0.0544234
-0.120705
0.0662812
-0.336881
0.203194
-0.326334
0.00443751
0.142742
-0.211526
0.0687844
-0.0781056
0.0442321
0.0338735
-0.0650818
0.045896
0.0191859
-0.0906675
0.197392
-0.106725
0.261862
-0.151041
-0.110821
0.0577541
-0.121453
0.0636988
0.169483
-0.109138
-0.0603446
-0.167563
0.198089
-0.0305257
0.138579
0.117896
-0.256475
-0.0841268
0.178347
-0.0942202
-0.317829
0.138816
0.179013
-0.383228
0.279856
0.103373
0.0718344
-0.0622992
-0.00953512
0.309386
-0.346583
0.0371972
0.0155887
-0.0108006
-0.00478811
0.0692896
-0.0383014
-0.0309882
0.0320026
0.037287
-0.189835
-0.110707
0.336661
-0.139579
-0.197083
0.100552
-0.120221
0.019669
0.0985409
0.171188
-0.0377145
0.0591202
-0.0214057
-0.166276
-0.116053
0.28233
-0.281079
0.135796
0.145282
-0.0574887
0.0202405
0.0372482
-0.0188677
-0.0527371
0.0716048
0.105077
-0.119225
0.0141478
0.0746863
-0.0520073
-0.022679
0.187254
-0.117191
-0.0700625
0.048392
0.00282171
-0.0512137
0.172879
-0.339156
-0.0746484
-0.0617451
0.136393
-0.092821
-0.00887084
0.101692
-0.0506479
-0.0274577
0.071715
-0.0558262
-0.0158888
-0.0380659
0.180808
-0.194616
0.0987794
0.0958365
0.0183199
-0.324488
0.306168
-0.00927263
-0.0298839
0.0391566
0.0162845
-0.0744929
0.0582084
-0.0422703
-0.00996268
0.052233
0.064767
-0.0509385
-0.0138285
-0.146337
0.110195
0.0361416
0.0792053
-0.0291113
-0.050094
0.0175945
-0.0558006
0.0382061
-0.163827
0.0150981
0.148729
-0.0418899
0.0449403
-0.00305044
0.0644565
-0.0201963
-0.0442602
0.280741
-0.22987
-0.0508711
-0.0945265
0.089524
0.0050025
-0.172961
0.351651
-0.17869
-0.0775092
0.0236945
-0.00156752
0.000250869
0.0136785
-0.0624179
0.0487394
-0.0947113
0.00274039
0.0919709
-0.263745
0.347038
-0.0832937
-0.402029
0.231417
0.170612
-0.0677962
0.0147027
0.0530935
-0.0570525
-0.0204567
-0.122419
-0.0605498
-0.0569527
0.0449547
0.011998
0.0909055
-0.095414
0.165845
-0.0704311
-0.00397183
0.0022111
0.0599756
-0.0384373
0.0166972
-0.180525
0.167712
-0.0392147
-0.128498
0.290239
-0.16171
-0.128529
-0.051069
0.0575275
-0.00645848
0.0502
-0.0374542
-0.0127457
-0.0833142
0.325609
0.0548657
0.0241071
-0.0789729
-0.0170046
-0.0296672
0.0466718
-0.115795
0.243922
-0.128127
0.0143457
-0.309092
0.140407
-0.0294602
-0.00753057
0.0369907
0.413241
-0.246339
-0.166901
0.0575844
-0.0863625
0.0287781
0.0355667
0.0391195
0.0139281
0.0483219
-0.06225
-0.00485584
-0.00943078
0.0142866
-0.124042
0.253687
-0.129644
0.00339494
-0.0452848
0.269419
0.143822
-0.124531
-0.161757
0.286288
-0.155529
0.103862
0.0516667
-0.0452165
0.0283702
0.0168463
-0.12907
0.0820844
0.046986
-0.0765414
-0.0559508
-0.118695
0.179122
-0.0604266
-0.025332
0.0785211
-0.0531891
0.0289636
0.00358164
-0.0325453
-0.0530821
0.0480636
0.00501849
-0.207822
0.0719111
0.135911
-0.161
-0.129006
-0.00776217
0.136536
-0.128774
0.0457603
-0.213324
-0.0590753
-0.00285252
0.0619278
-0.0238469
0.0761825
-0.0523356
-0.00823811
-0.0877282
0.0959663
-0.00880142
-0.00533705
0.0141385
-0.0529445
0.0869743
-0.0340298
-0.0789139
-0.0843799
-0.351556
0.178595
-0.0652881
0.0222624
0.0430257
-0.364649
0.103707
0.260941
-0.0861372
-0.00857409
0.0566612
-0.0446972
-0.011964
-0.0106424
0.111194
-0.172988
-0.0339216
0.20691
0.257584
-0.140298
0.0852048
-0.0409727
0.0409947
-0.0623171
0.0213224
0.0124916
-0.0173475
-0.0555036
0.0472968
0.0082068
-0.0367749
0.141852
0.0692604
-0.1002
0.0309393
0.0597831
-0.150031
0.0902474
-0.0280232
-0.0542346
0.0822577
-0.24117
0.121428
0.169055
-0.337285
0.168231
0.110086
-0.194213
-0.27722
0.215511
0.0617097
-0.154315
0.120901
-0.0240031
0.0786559
-0.0546528
0.0671311
-0.0261364
-0.118676
-0.158544
0.0151963
0.109587
-0.124783
0.04493
-0.070262
0.121478
0.0685446
-0.190023
-0.0728956
0.0642882
0.0086074
-0.183878
-0.19935
-0.033685
-0.0953854
0.194977
-0.285984
0.0910071
-0.000468867
-0.0586064
-0.0431256
-0.0138271
0.412873
-0.273084
-0.13979
0.0242751
-0.0358081
0.0115329
0.0222612
0.0140311
-0.00923977
-0.00479131
0.0825526
-0.143109
0.0605566
0.0148102
-0.107631
-0.0085873
-0.00633342
0.0149207
0.144126
-0.0488989
0.0419829
-0.0783534
0.0363705
0.206172
-0.120107
-0.0860646
0.134978
-0.279438
0.14446
-0.359745
0.226512
0.133233
-0.0751884
0.384575
0.0365058
-0.0638615
0.0273558
0.035549
0.014651
-0.137082
0.255259
-0.118176
-0.0330513
-0.141824
0.267286
-0.125462
-0.133295
0.125533
-0.0504319
0.0184646
0.0319673
0.0343407
-0.053531
0.0191904
0.00562021
-0.111905
0.106285
0.0109136
0.0387426
-0.0496563
0.084334
-0.0207578
-0.0635762
0.381714
-0.233776
-0.147938
-0.197539
0.14815
0.04939
0.207657
-0.285263
0.0776066
-0.285244
0.166568
-0.0909676
0.153054
-0.0620867
-0.0201024
0.0654822
-0.0453798
-0.145002
0.0793299
0.0656722
-0.150403
-0.0794669
0.0546804
0.0128149
-0.0674953
0.0354269
-0.135417
0.0397592
0.0454456
-0.20141
0.116994
0.0844157
0.274417
-0.0727852
-0.201632
0.146666
-0.0868832
0.0214938
-0.0665226
0.0450289
-0.0705208
0.0465177
-0.119864
0.0757955
0.0440686
0.0322678
-0.0415404
-0.0165415
-0.0512548
-0.130557
0.0559083
-0.0883594
0.0612158
0.0271436
-0.259038
0.117214
-0.19088
-0.055981
0.246861
-0.0629675
-0.00992812
0.0923617
0.124525
-0.216887
0.000148635
-0.00158473
0.0014361
0.0432336
-0.182961
0.139728
0.0446647
0.196995
-0.153761
-0.121935
0.0511346
0.0708001
0.163315
-0.1942
0.0308855
0.128876
0.0534008
-0.182276
-0.0273779
-0.023054
0.0240458
0.0574689
-0.116742
-0.229145
0.345887
0.0489698
-0.102165
0.0531956
-0.114501
0.070504
0.0439975
0.067323
-0.0468088
-0.0205142
0.00281813
0.0820481
-0.0848662
-0.0429457
0.0361285
0.00681725
-0.380026
0.104106
0.27592
-0.17221
-0.0748613
0.247072
-0.0301425
-0.0150739
0.116226
-0.110605
0.00451671
-0.0216122
-0.00163777
-0.00193325
0.00357102
-0.148774
0.102473
-0.202699
0.100226
-0.0269909
-0.304037
0.331028
-0.125393
-0.0824285
0.00909405
0.198563
0.0321642
-0.127692
-0.115467
0.188229
-0.072762
0.276934
-0.148074
-0.12886
0.0315007
-0.0485053
-0.0567706
-0.0577309
-0.0653991
0.0682172
-0.0885255
0.0662109
0.0223146
-0.0375878
-0.0513054
0.0888932
-0.0220704
0.032984
0.412956
-0.184568
-0.228388
-0.0854359
-0.0595662
-0.274116
0.141299
0.132817
0.0688572
0.0891913
-0.158048
-0.0381669
-0.0401865
-0.310658
0.268535
0.0421228
0.101344
-0.0732603
-0.0280836
-0.0328416
-0.117361
0.213118
-0.0957569
0.0186858
-0.057478
0.0387922
0.182607
-0.0611283
-0.0499475
-0.0719873
-0.0301219
-0.0128238
0.104855
-0.0558849
-0.366155
0.234554
0.131602
0.178908
0.0978702
-0.276778
0.232908
0.179965
0.220781
-0.261805
0.0410241
0.0645748
-0.0482903
-0.0143674
0.0496063
-0.035239
0.0696799
0.0103783
0.0703475
0.0309964
0.11104
-0.0764931
-0.034547
0.186214
-0.0873526
-0.0988619
0.0193045
0.0492104
-0.0685148
0.335238
0.00649309
-0.341731
0.0104461
0.154556
-0.165003
-0.0410771
-0.0144266
0.172211
-0.288953
0.0388059
-0.0145307
0.0881213
-0.130947
0.0428259
0.173761
-0.0275424
0.100414
-0.0728713
-0.0770414
0.0922377
-0.191144
0.117467
0.0736769
-0.0648239
-0.0550401
-0.0106947
0.077345
-0.0666503
-0.135559
-0.0619804
0.135811
-0.0532582
-0.000863551
0.0441271
-0.0432635
0.117214
0.108035
0.00807527
-0.0135795
0.00550423
0.0631798
-0.0907221
0.0386105
-0.00286188
-0.0357486
0.0633574
-0.00951141
-0.053846
-0.0956389
0.0626026
0.0330364
-0.293533
0.180069
0.113463
0.0466117
-0.0599832
0.0133715
-0.115046
0.0733886
0.0416579
-0.0381292
-0.0369872
0.0751164
-0.0519326
0.204071
-0.0557851
0.0135148
-0.285907
-0.0941186
-0.277301
0.152771
0.10536
-0.159199
0.0538393
0.26801
0.0516349
-0.0632374
0.0525426
0.0589582
0.0301646
-0.0891228
0.047154
0.00123798
0.0260074
0.0284746
-0.054482
-0.0364171
0.0215598
0.0148573
0.0269112
0.0116992
0.168359
-0.330117
0.135786
-0.326666
0.0392991
-0.0130168
0.00819542
-0.0195557
0.0113603
-0.139235
0.0916061
0.0476286
0.0653893
-0.0288835
-0.00684755
0.0131295
-0.00628197
0.211137
-0.118775
0.150475
0.0357397
0.191257
0.0856772
0.0236646
-0.0294876
0.00582296
0.282896
0.0523412
0.0412778
-0.105558
0.0642801
0.0779681
-0.0117487
-0.0662193
-0.111831
0.143385
-0.0315541
-0.0749179
-0.341936
0.197088
-0.0214775
-0.208444
0.229922
0.00193318
0.00295753
-0.0048907
0.0962447
-0.0418213
0.0277174
0.0690814
-0.0967988
0.145573
-0.0216432
0.100312
-0.0786683
-0.00252305
0.0477443
-0.391457
0.257084
0.134373
-0.0624819
-0.0525645
-0.164499
0.102054
0.062445
-0.0881679
-0.135266
0.223434
-0.001197
0.00182863
0.218056
-0.122685
-0.0953714
0.150317
-0.0685195
-0.081798
-0.241428
0.131372
0.110056
0.0023424
-0.00398017
0.0507233
0.0059379
0.108383
-0.0671057
-0.126958
0.0487444
0.0782133
0.070396
-0.0920392
-0.0549468
0.0392033
0.0157435
-0.0785552
0.134032
-0.0554771
-0.147221
-0.0939495
0.0657082
-0.165843
0.100135
0.00280989
0.00699189
-0.299858
-0.0915994
-0.213944
0.0965827
0.197139
-0.0425827
-0.0277856
-0.0345596
0.0623452
0.103022
0.0646903
-0.037891
-0.00589103
0.043782
0.0503699
-0.0692376
-0.0434225
0.057101
0.0184212
-0.190632
-0.00167894
-0.00229288
-0.0116013
0.0827736
-0.0711723
0.200675
-0.116439
-0.0842361
0.11457
-0.0531037
-0.0614666
-0.128793
0.063969
0.0475132
-0.00338617
0.210644
0.171069
0.0348215
0.0495125
-0.0598033
-0.0381807
0.097984
-0.0116014
0.0510112
-0.0394097
0.0752678
-0.120235
0.0449677
-0.269671
0.341485
-0.0718141
0.0496342
-0.0702118
0.0205775
-0.394215
0.210337
0.170537
-0.273144
0.102607
0.112327
-0.234746
-0.170595
0.159194
0.0114019
-0.0692242
0.0576229
-0.154781
0.0564251
0.0983556
-0.0380288
0.105261
-0.0672322
0.0413764
-0.0789642
-0.0939702
0.0545343
0.0394359
-0.0467056
0.284732
-0.311722
0.153984
-0.0635939
-0.0903897
0.018934
0.0511019
-0.0700359
-0.142603
0.0655132
0.07709
-0.0597675
0.0454001
-0.0332401
0.0824556
-0.0492155
-0.0288521
0.106295
-0.077443
0.026159
0.113592
0.036883
0.181168
-0.110281
-0.0708866
-0.0742056
-0.108635
0.182841
0.0527974
0.0189176
0.0203888
0.0418022
-0.062191
-0.0491106
0.121997
-0.0728869
0.00742782
0.00521599
-0.0126438
0.0674619
0.0392001
-0.0190128
0.0184882
0.000524611
0.0236111
-0.0697402
0.046129
0.19369
0.156719
-0.350409
0.0225375
0.0554306
-0.0206873
-0.0157298
-0.00560234
0.0136776
-0.0957887
0.14563
-0.0498415
0.129324
-0.243386
0.114062
-0.0166697
-0.00234318
0.0323974
0.0923227
-0.12472
-0.0666415
-0.0621514
0.19531
-0.10124
-0.0940697
0.105014
-0.0772964
-0.0458576
0.0712317
-0.0253741
0.090122
-0.0316372
-0.0584848
-0.0240713
-0.0149844
-0.1114
0.0750488
0.0363511
0.0910233
-0.127798
-0.149896
0.245751
-0.0958549
-0.0496727
0.0122433
0.0374294
-0.18713
0.325947
-0.22755
0.00795984
0.21959
0.0278621
-0.0468211
0.018959
-0.11704
0.0516406
-0.0777203
-0.0778087
-0.0362357
0.0152889
0.0209468
-0.00513636
-0.0571629
0.0520884
-0.0407867
-0.00824147
0.0490282
-0.0241512
0.0501586
0.0356516
-0.20864
-0.000878141
-0.00629429
-0.146938
0.0683826
0.182543
0.123623
-0.306165
-0.157635
-0.122412
0.00121528
-0.0113991
0.0101838
0.045281
0.0479025
0.0194205
0.179501
-0.0754402
-0.10406
0.0143941
0.240054
-0.116465
-0.12359
0.1418
-0.229968
0.00303629
0.0163642
-0.0194005
0.0281731
-0.00450845
0.0416826
0.0174376
0.0627442
-0.174575
0.0367069
-0.132121
0.222129
0.0348475
-0.256976
-0.0615149
0.068818
-0.00730301
0.0995987
0.0698842
0.0674701
-0.0459763
-0.00939607
-0.0233314
0.0327274
0.013314
0.00227471
-0.0973134
0.0375101
-0.00282784
0.00114889
0.341743
-0.0483362
-0.293406
0.0485632
0.0673159
-0.115879
-0.28331
0.17566
0.10765
0.0560726
0.131181
-0.0349078
-0.020039
-0.0593668
-0.0298927
0.0892595
-0.0289753
-0.0085347
0.03751
-0.173767
-0.228262
0.121411
-0.181765
0.0603538
-0.01379
0.0234039
-0.00961389
0.0706104
-0.29816
-0.109585
-0.101941
-0.0997197
0.0582634
0.0414563
-0.0760804
0.0379135
0.025517
-0.00663552
-0.0188814
-0.0708831
-0.0288367
0.156013
0.0620436
-0.107343
0.262102
-0.154759
0.013672
-0.00624419
-0.0607052
-0.0563344
-0.112677
0.333459
0.0527484
-0.12238
0.0696312
0.0429648
0.0471572
-0.0326209
-0.0122384
0.0448593
-0.00125771
6.0715e-05
0.140661
-0.0496376
0.106859
-0.227421
0.120561
-0.101452
0.0634236
0.134138
-0.10174
0.385739
-0.128655
-0.0266851
0.0769487
-0.0502635
-0.0131901
0.0121091
0.001081
0.211999
-0.376744
0.164745
0.123555
-0.0592703
-0.0642845
-0.071474
0.120037
0.118839
-0.0660904
-0.011396
0.00454842
-0.0196497
-0.051677
0.0713267
-0.0668141
0.0429672
-0.0731594
-0.0656448
0.138804
-0.049866
0.0363331
0.013533
-0.0256478
0.131937
0.184278
0.201461
-0.0232753
-0.14732
-0.268239
0.168009
0.100231
0.0237771
-0.0295339
0.00575675
0.0648586
-0.0538312
-0.0110274
-0.0263386
-0.0233341
0.180464
0.104321
-0.284785
0.065079
0.209338
0.0472756
0.0232734
-0.0705489
0.062066
-0.104634
0.0425678
-0.174297
0.0836295
0.0220493
-0.062836
0.067368
-0.11686
0.0203214
0.0965388
-0.0818808
0.186069
-0.104189
0.0111179
-0.0585556
0.0474377
0.0739312
-0.0445782
-0.0912689
0.135847
-0.133975
0.0616563
0.0723186
-0.377823
0.200141
0.177682
0.0491
-0.0511387
0.00203864
-0.303134
0.10625
0.196884
-0.0425123
0.00462132
-0.208857
-0.074453
-0.259528
0.143734
0.138538
-0.275621
-0.0917862
-0.0145289
-0.0217068
0.168018
-0.0695781
-0.0984401
-0.16379
0.043401
-0.00186434
-0.0113258
0.0502164
-0.0011164
-0.0968124
-0.0457908
0.0916117
-0.0580663
-0.0335454
-0.0664915
0.041603
-0.018025
0.0458871
-0.195892
0.0787012
-0.0600721
0.108428
-0.0483557
0.0167138
0.0466436
0.106592
0.0614267
-0.0469096
0.120848
0.0846408
-0.205489
0.0661245
-0.0278395
-0.0382851
-0.0130881
0.0042867
-0.010823
0.0767488
-0.0659258
-0.154283
0.109704
0.140708
-0.06452
-0.0761877
0.0892628
-0.130224
0.0409614
-0.104825
0.225999
-0.121174
0.035364
-0.131153
-0.0212848
0.0556254
-0.0503039
-0.114196
0.0100298
0.0604741
-0.0907521
0.159609
-0.00415278
-0.00239732
0.0065501
-0.149297
-0.153837
0.100603
0.0520226
-0.152625
0.133386
0.0672891
-0.110986
-0.0353507
0.0661352
-0.0561054
-0.0400994
-0.224385
0.11956
-0.118141
0.0624376
0.0557036
0.0253908
-0.0341539
0.00876306
-0.158843
0.0478571
0.0558951
-0.0372093
0.110229
-0.0895719
-0.0206572
-0.00656626
-0.00754221
0.0141085
-0.0921231
0.208434
-0.116311
-0.109836
0.0744079
0.0354279
-0.109958
0.213609
-0.10365
-0.0520183
0.000312554
0.0517058
-0.214105
0.192627
0.249963
-0.13554
-0.114423
-0.363652
0.150212
0.21344
0.0690327
-0.0217572
-0.0502929
-0.083682
-0.0265641
-0.0338346
0.294836
-0.114372
-0.0332855
-0.27232
0.11132
0.0850665
-0.0464255
-0.038641
-0.0132256
-0.250519
0.262117
-0.132792
-0.0184711
-0.0334903
0.0519614
0.087402
0.0937657
0.104871
-0.00866456
-0.00657442
0.015239
0.0506218
-0.0544821
0.00386033
-0.0424354
-0.150612
0.265394
-0.114782
-0.0263953
0.0863343
-0.059939
-0.0383085
0.113576
0.213001
0.144142
-0.183171
0.0712663
0.076305
-0.0223607
-0.0539443
-0.054793
-0.00672198
-0.108142
0.0480702
0.0563783
0.272704
-0.0991897
-0.159227
-0.134306
0.0955702
-0.00630734
-0.0408228
-0.0773184
0.0763291
0.0339
-0.19495
0.107597
0.0914435
-0.0131253
0.081042
-0.0679167
-0.181535
-0.100305
0.28184
0.0680041
0.00394948
-0.0719535
-0.0877569
-0.0855565
0.0335382
0.0516347
-0.0402217
-0.011413
-0.051475
0.0564935
0.00326546
-0.00696345
0.123433
0.167638
-0.291071
-0.132211
0.267126
-0.134914
-0.0332795
-0.0165865
-0.116128
-0.157989
0.05542
-0.0963255
0.0409056
0.0325342
0.00970544
-0.0422396
0.0714594
-0.0704297
0.0621916
0.00915183
-0.00793655
-0.078314
-0.0419215
-0.0366105
0.0307818
0.00582873
-0.0900838
-0.0930876
0.046011
0.1695
-0.0507317
-0.0343869
0.0851185
0.0313314
-0.0407275
-0.0652696
0.154143
-0.0888736
-0.0014884
-0.0274869
-0.195068
0.0426589
0.152409
-0.24571
0.144832
0.100879
-0.0348494
0.145044
-0.0659583
0.166561
0.128559
-0.0641451
-0.0644137
0.0811764
0.110041
0.0202987
0.0458259
-0.00183878
0.00418118
-0.0149371
0.0504861
0.0172098
0.100257
0.286609
-0.151631
0.011559
0.00331899
-0.014878
0.0586166
-0.00940624
-0.0283183
-0.00829221
0.19982
0.145697
-0.345517
-0.0873217
0.0365901
0.161643
-0.11688
-0.0447624
-0.0705338
-0.0525144
0.123048
0.0408386
0.0137349
-0.0545735
0.288512
-0.0948217
-0.086105
-0.0623763
0.148481
-0.047976
-0.051012
-0.0250684
-0.271726
0.102885
0.16884
0.0176699
0.0790188
-0.0966887
0.0964465
0.0485454
-0.144992
-0.128496
-0.0989249
-0.19612
0.114239
-0.170484
0.0866434
0.0838404
0.075889
-0.0214568
-0.0544322
0.0694523
0.0156142
0.027629
0.0306161
-0.0582451
0.0893582
0.116814
-0.00264657
0.0575123
-0.0334481
0.11085
-0.0774018
-0.0303506
0.0951932
-0.0648426
-0.0468422
0.0603563
-0.0135142
-0.115228
0.290844
-0.175616
-0.186789
0.147101
0.0396876
0.0611021
0.0037565
0.0452016
-0.116676
0.159681
-0.264084
0.104403
0.0402554
-0.027202
-0.0130534
0.0700631
0.0720975
0.0745687
0.109083
-0.0918736
0.0399284
0.114562
-0.154491
-0.10718
0.191752
-0.0845724
-0.00185565
-0.028217
0.0300727
-0.00186801
-0.000717209
0.00258522
-0.12852
0.0579857
-0.135919
0.0706494
-0.0379401
-0.127653
0.0107932
0.119212
-0.152745
0.118823
-0.248066
0.132838
0.0543608
-0.082384
-0.115185
0.200808
-0.0856226
0.14154
0.0844599
-0.156688
-0.185248
-0.0845067
-0.0859772
0.00233164
-0.0637029
0.0613713
-0.132002
-0.0638899
0.00790347
-0.0121096
0.00420609
-0.205837
0.0906513
0.052166
-0.0793682
0.0272022
-0.167179
-0.0272661
0.0862243
0.0794011
-0.0676082
-0.011793
0.0703835
-0.0505162
-0.0198672
-0.0513076
0.123872
-0.0725648
-0.103877
0.151705
-0.0478284
0.0406521
-0.0580787
-0.0540526
-0.0399176
-0.000906388
0.00108632
-0.000179935
0.0993026
-0.0470248
-0.00272018
0.00621668
0.0665011
-0.336172
-0.100295
0.144983
-0.0446877
0.077184
0.0513747
0.00314937
-0.00498815
-0.203182
0.126211
0.0769713
-0.0342871
0.155698
0.0948637
-0.0394438
0.105053
-0.0431565
-0.0618962
-0.187741
0.0223836
0.165358
-0.193631
0.0836731
-0.048147
0.0763042
-0.0281571
0.159191
0.299018
-0.130659
0.00174391
-0.00159528
-0.0989368
-0.127573
0.0492586
0.104141
-0.0288385
0.0902993
-0.0614607
0.262251
-0.133855
-0.128396
0.0590824
-0.0182438
0.0675313
-0.0415795
-0.0417979
0.0833773
0.0662759
0.0117261
0.002305
-0.0383544
-0.104435
0.142789
-0.0835279
0.225067
0.0632817
-0.158406
0.0951245
0.11665
-0.0989798
0.0683233
-0.0844566
0.0161333
-0.257494
0.059694
0.1978
0.0804196
0.209819
0.0692933
-0.000863151
0.00885666
-0.00799351
0.283229
0.0475658
0.00427333
-0.0518391
0.0923568
-0.0834602
-0.00889665
0.05789
-0.148183
0.0902934
0.374442
-0.221871
-0.152571
-0.250054
-0.0110447
0.261099
-0.0185953
0.00480531
0.0080411
-0.0454953
0.202481
0.0585141
-0.260995
0.0483133
-0.0367701
-0.0115432
-0.108091
0.070086
0.0380053
0.00197658
-0.00384459
-0.0979098
-0.105273
-0.209465
0.13291
0.0765547
-0.239959
0.0745342
0.165425
0.0388758
-0.00634166
-0.116756
0.229142
-0.112387
0.0455808
-0.072266
0.031609
-0.00188288
-0.0297261
-0.205448
-0.105209
0.180938
-0.348669
0.167731
-0.0375469
-0.0475575
-0.104165
-0.111642
0.215807
0.0810809
0.0171567
-0.0982376
-0.308043
0.160002
0.148041
-0.0524969
-0.0858879
0.138385
0.00554285
-0.0224117
0.0872921
-0.0648804
0.173834
-0.0871904
0.0659281
0.0576266
0.114264
-0.0434121
-0.0708518
-0.0367906
0.0284247
0.163344
-0.0944052
-0.0689384
0.0883978
-0.111001
0.339255
-0.228254
0.0133148
-0.0482303
0.0349155
-0.0829877
0.122916
-0.0362755
0.113469
-0.0771935
-0.117804
0.239214
-0.12141
0.15967
0.102581
-0.074605
0.119807
0.0987523
-0.0556894
-0.0430629
0.318165
-0.351921
0.0337562
-0.0133996
0.0737368
-0.0603372
-0.135814
-0.136505
0.102677
0.0229997
-0.125677
-0.0755774
-0.0342585
0.110588
-0.036903
-0.0736853
-0.0700865
0.0662136
0.00387289
0.0544284
-0.0494099
-0.0050185
0.0658659
-0.0910515
0.0251856
-0.0591054
0.061437
-0.0186917
0.068326
-0.0109748
0.103332
0.0149622
-0.00676676
0.00508471
0.345287
-0.35252
0.00723344
-0.00469719
0.283391
-0.125151
0.0927443
0.0733025
-0.166047
0.0734343
-0.0273851
-0.0460492
-0.00409532
0.0137458
-0.00965043
0.100067
0.0538205
-0.036226
0.141172
0.104579
0.00599194
0.0423214
-0.0518285
0.0861661
-0.0343375
-0.19561
-0.168042
-0.22128
-0.0867632
-0.0212761
0.00460639
-0.0137538
-0.0438983
0.0576521
0.0759043
-0.0620663
-0.0138381
0.0678694
-0.108929
0.0410598
-0.143458
0.326
0.181485
-0.0606369
0.0793436
0.0748868
-0.15423
-0.286136
0.12691
0.114781
0.081625
-0.196406
-0.0834219
0.0517847
0.0258404
-0.0591165
0.0332761
-0.216839
0.115169
0.10167
-0.329282
-0.00369035
0.332972
0.0296005
0.00920534
-0.15112
0.0925172
0.0586031
-0.1647
-0.120543
0.0646347
-0.00705025
-0.0569829
0.0217919
0.035191
-0.0865101
-0.0527246
-0.0502526
-0.00196938
0.00346884
-0.00149946
-0.0160138
-0.00526229
0.0209045
0.0427497
-0.0636542
0.0256492
0.144887
-0.106088
0.220897
-0.114809
-0.00798843
-0.0155453
0.0235338
-0.159436
0.0623655
0.0970708
0.0467414
-0.0513366
0.00459521
0.0835166
0.097508
-0.181025
-0.00516336
-0.0414423
0.020755
-0.00759132
-0.00549681
0.120064
-0.0576266
0.0989932
-0.0666673
-0.0323259
-0.0583155
0.0445617
-0.0129517
0.215432
0.0680606
-0.00229449
-0.0657661
-0.0334174
0.0315618
0.0697864
-0.0194165
0.146539
-0.0886489
-0.0356554
-0.0701673
0.0165611
-0.00551764
-0.0110435
-0.00274217
0.000772786
0.154315
-0.278357
-0.0583819
-0.0301436
0.162938
0.0162926
0.00983896
-0.163669
-0.109475
-0.243559
0.178771
0.0647872
0.0573254
0.0104945
-0.06782
0.143501
-0.227029
0.0827357
-0.135233
0.105513
-0.211601
-0.137156
0.0184609
-0.0444256
-0.0429478
-0.314048
0.193678
0.120371
0.236474
-0.0978949
0.0290862
-0.0410143
0.0119281
0.101026
0.150736
-0.251762
0.0413987
-0.0829782
-0.00937829
0.0737843
-0.064406
-0.110716
0.0539457
0.11922
-0.067197
-0.131778
-0.108181
-0.206842
0.0996616
-0.0538671
-0.100416
0.110461
0.0134391
-0.1239
-0.121407
0.0722965
-0.340321
0.195185
0.145135
-0.028427
-0.0549949
-0.0856048
0.0337762
0.0453001
-0.0319853
0.132962
0.128899
-0.0860578
0.0580864
0.0279715
-0.00280443
-0.010301
0.0131054
0.0471551
-0.138123
0.36004
-0.137911
-0.0487819
0.0603487
-0.0115668
-0.32756
0.190904
0.136656
-0.077866
-0.0341318
0.111998
0.0597243
-0.309778
-0.0891234
-0.0378343
-0.0108104
0.00733547
0.00347493
0.013626
0.0597626
-0.330043
0.173355
0.141013
-0.0610083
-0.0800046
0.113989
-0.0398688
-0.0741199
0.23689
0.104595
-0.111153
-0.132405
-0.39581
0.282781
0.113029
-0.143227
0.104873
-0.22237
-0.171845
0.00549604
-0.00223058
-0.0538129
0.2228
-0.168987
-0.0712632
0.0254056
-0.133737
0.234815
-0.101078
0.0101335
0.149875
-0.11243
-0.0374454
-0.0294269
-0.158314
-0.0405805
-0.0477789
-0.0360728
0.113055
-0.076982
-0.0297001
0.0261167
0.00358344
0.0320532
-0.053719
0.0216658
-0.0296294
0.0848112
-0.0551818
-0.0449663
0.0123454
-0.271424
0.122127
-0.0651228
-0.0859974
-0.029417
0.0049085
0.0245085
0.0573774
-0.0253242
0.156127
-0.283571
0.127444
-0.194775
-0.145546
0.0333503
-0.0875848
-0.0504326
-0.0602838
-0.232847
-0.126899
-0.0137424
0.105198
-0.0914558
0.00843014
-0.0122499
0.0038198
-0.0921449
0.159184
-0.0670396
-0.0128046
0.0649706
0.0387053
0.0115111
-0.0978701
-0.0490678
0.04261
-0.0521542
0.00954419
0.165561
-0.086217
0.0715656
0.0868654
-0.0302885
-0.056577
-0.282754
0.0961696
0.186584
-0.0222036
0.0283485
-0.0061449
-0.267587
0.0181273
0.0423378
-0.0604651
0.203
-0.345605
0.142605
0.0110316
-0.0118947
0.0650813
0.260934
0.113508
0.075545
-0.0619189
-0.130526
-0.183523
-0.0098021
0.0524121
-0.0871072
0.0341627
0.0335225
-0.081039
0.0475165
0.0550824
-0.116732
0.0616497
0.0418088
-0.0238789
-0.0179299
-0.01051
0.110567
-0.100057
-0.162397
-0.109329
0.0242714
0.0722666
-0.096538
0.0494873
-0.122647
-0.0750155
0.0304122
0.0446033
-0.0516592
0.0564629
-0.00480373
0.0206893
0.0211195
0.0909236
0.07242
-0.108006
0.0324286
-0.0281798
0.0989526
-0.0707727
-0.0412508
-0.0109035
-0.154579
0.100711
0.0462602
0.0227725
-0.00527056
-0.0505519
0.0558225
0.0250693
0.0522757
-0.0531843
-0.0341104
0.0872947
0.0286018
0.0460367
-0.00693223
-0.0391044
-0.00273121
0.0128628
-0.0044327
0.0660479
-0.10373
0.0376818
0.0293279
0.0531277
0.399639
-0.250012
-0.149627
-0.00413984
-0.116078
-0.0226387
0.138716
0.135827
-0.0637291
-0.0483757
-0.0266398
0.178085
-0.275793
0.0977087
0.119511
-0.28046
0.16095
0.0387776
-0.00917711
0.13188
-0.0579804
-0.0738998
-0.0158316
0.070512
0.0532633
0.0339894
-0.0872527
-0.0324381
0.0582785
-0.127909
-0.267901
0.237833
-0.0974151
-0.140418
-0.126076
0.40586
-0.232379
-0.173481
-0.0211237
-0.0203186
-0.116515
-0.0176372
0.134152
0.00277315
-0.253149
0.145805
0.00727453
-0.00619952
0.0256088
-0.0568758
0.031267
-0.0637207
0.0117135
-0.0374629
0.0578517
-0.133363
0.129587
0.00377571
-0.26261
0.208797
-0.0363268
0.0772493
0.0428149
0.0102457
-0.0155828
-0.093816
0.083306
0.311471
-0.0994723
-0.00593646
-0.01144
0.0173764
-0.0997156
0.0715358
-0.367076
0.172301
-0.0143776
-0.0439883
0.0583659
0.0032897
-0.0249358
-0.00476432
0.230291
0.122093
-0.0286084
0.0542173
-0.0241367
0.0814675
-0.0573308
0.00756276
0.00234512
-0.00990788
0.00260537
0.055712
-0.0583173
0.0584183
-0.00271564
-0.0557026
-0.0461234
0.115606
-0.0694827
-0.0158606
-0.0449717
0.0608323
0.217358
0.027494
-0.244852
-0.0267226
0.116611
-0.0898884
-0.0402218
0.0497648
0.0104975
-0.0602623
-0.0389359
0.0598404
0.00355246
0.0645081
0.0657096
0.0809348
-0.0558656
0.0574185
-0.0482761
-0.00914245
0.01977
-0.066854
0.047084
-0.243396
0.278244
0.0460793
0.0183771
-0.0634055
-0.0329201
-0.0616075
0.00994835
0.06877
-0.0225098
0.0705892
-0.0121709
0.0894167
-0.0470488
-0.0129926
0.198463
-0.185471
0.0704761
-0.166451
0.0959754
-0.153666
0.182823
-0.0291568
0.0724934
-0.0210652
0.0868203
-0.0657551
0.104744
-0.206356
0.101612
-0.352457
0.0279699
0.00460958
-0.0122009
-0.00421946
0.0195084
0.0719987
-0.209475
0.375007
-0.165532
-0.161237
0.0759795
0.085257
0.0643004
-0.127307
0.0630066
-0.0449077
-0.0240823
0.06899
0.0940109
0.0920585
-0.0562571
0.0468788
0.100681
-0.0764093
-0.340945
-0.0081605
0.349105
0.0702224
-0.00796704
0.0130821
-0.00511506
-0.0695362
-0.0261027
0.0890585
-0.138146
0.0490879
0.241654
-0.140628
0.0739295
-0.129719
0.0557894
0.125016
-0.0590876
0.199404
-0.323285
0.123881
0.0773597
-0.0959698
0.0186101
-0.0499131
0.164694
-0.0650145
0.0181723
0.0554797
-0.00873837
-0.0821765
-0.0616451
0.143822
0.00159515
-0.34254
-0.0312666
0.0527357
0.152434
-0.0733664
-0.0293155
-0.031677
-0.209072
0.075335
0.0235053
0.0557
-0.0122964
0.0510017
0.239041
0.166819
0.143156
-0.0798746
-0.0473234
-0.0949424
0.142266
0.0287079
-0.00331704
-0.0623538
0.267036
-0.204682
-0.00644101
0.0540068
-0.0108331
0.0421645
0.167259
-0.00978653
-0.0489504
0.058737
-0.14864
-0.122785
-0.0323568
-0.032725
-0.137085
-0.159694
0.296779
-0.155712
-0.0792053
0.234917
-0.206132
-0.141675
-0.144259
0.0463894
-0.0462634
0.0835154
-0.0372521
0.116709
0.0901491
-0.206858
-0.121617
-0.208426
-0.0149341
0.119986
-0.105052
-0.0938666
-0.102254
-0.0814212
0.0565221
0.0248992
-0.0324582
-0.00986283
0.042321
0.0149776
-0.0209141
0.0603035
-0.136816
0.0765124
-0.0622673
0.0478897
0.0768785
-0.0475506
-0.0262816
-0.0447253
0.0710068
-0.128156
-0.00584466
0.00958561
-0.00374095
0.0333404
-0.0862787
0.0529383
0.0532095
-0.129751
0.0846355
-0.0512951
0.0109424
-0.00824722
-0.00269519
-0.00386672
0.00122423
0.0026425
-0.108173
-0.0137435
0.121916
-0.0889266
0.205636
-0.189453
0.327746
-0.138294
0.123631
-0.0593304
-0.0356481
0.0842937
-0.0486457
0.043076
-0.114299
0.0712229
0.100758
-0.251799
0.0491936
-0.0156305
-0.0335631
0.0274271
0.0375552
-0.327333
-0.0104142
0.337747
0.00302803
-0.0379935
0.0349654
0.0970436
-0.229255
-0.203393
0.1904
-0.00857489
0.00273023
-0.0453575
0.0156903
0.00131186
-0.0219408
-0.131725
-0.0486872
0.00743643
0.0849056
-0.0344066
-0.050499
-0.0269653
-0.00690685
-0.0728841
-0.0321121
0.0463263
-0.0142141
-0.0369228
0.00427761
0.0212394
-0.121076
-0.137408
0.00101702
-0.00156386
0.000546845
0.113758
-0.26906
0.155302
0.00327027
0.00159095
-0.00486122
-0.0551444
-0.0321774
-0.0321064
-0.245195
0.123207
-0.306001
0.182795
0.00773962
0.00320278
-0.103777
0.0342409
-0.05459
0.0574528
-0.101846
0.0443932
0.305389
-0.182182
0.0374675
-0.0549196
0.0174521
-0.31045
0.132188
0.178262
0.0272289
-0.0159068
-0.0113221
-0.258343
0.143419
0.114924
-0.318723
-0.010558
0.027593
-0.0553786
-0.147282
0.330496
-0.183213
-0.0504718
0.13953
-0.187378
0.368316
-0.0470779
0.104832
0.237093
-0.000618662
0.0559757
-0.148738
0.0927621