/*--------------------------------*- C++ -*----------------------------------*\
| =========                 |                                                 |
| \\      /  F ield         | OpenFOAM: The Open Source CFD Toolbox           |
|  \\    /   O peration     | Version:  v2012                                 |
|   \\  /    A nd           | Website:  www.openfoam.com                      |
|    \\/     M anipulation  |                                                 |
\*---------------------------------------------------------------------------*/
FoamFile
{
    version     2.0;
    format      ascii;
    class       volScalarField;
    location    "150";
    object      ddt0(epsilon);
}
// * * * * * * * * * * * * * * * * * * * * * * * * * * * * * * * * * * * * * //

dimensions      [0 2 -4 0 0 0 0];


internalField   nonuniform List<scalar> 
18232
(
0.00116186
-6.36472e-10
2.57817e-11
-2.89425e-11
4.00904e-09
1.65778e-07
-1.44548e-10
3.2412e-11
3.47576e-09
3.69182e-09
3.76623e-10
1.19489e-08
2.45603e-09
4.41447e-05
9.1542e-10
9.71065e-06
2.83346e-11
3.99192e-12
9.08335e-11
1.85756e-08
9.5545e-07
8.55641e-11
4.11956e-10
-2.40183e-10
-5.77669e-10
-3.42038e-10
-1.27032e-10
1.61915e-07
4.14131e-11
1.09329e-11
-2.24578e-11
-0.00031512
-1.4272e-10
-0.00110905
0.000270674
1.73187e-07
3.84104e-05
2.34542e-11
-4.04193e-05
3.13111e-10
0.00147579
1.17987e-08
8.96223e-09
7.74993e-05
4.35856e-12
7.24357e-06
-4.91768e-10
1.27458e-08
1.2621e-08
-2.0761e-10
6.67607e-11
2.20346e-12
0.000752607
4.96568e-09
2.33106e-09
-7.70539e-09
4.81751e-11
1.07381e-10
0.00139832
-3.00012e-10
8.28361e-10
-5.88763e-11
7.13913e-11
-4.53786e-11
4.36824e-09
-1.368e-10
-0.00112864
-0.000365897
-1.08528e-11
-4.59814e-11
1.51699e-11
1.0575e-09
-0.00026665
1.46752e-05
1.43608e-08
-2.33187e-06
1.10921e-10
-2.11094e-10
0.000642114
3.2373e-11
-0.000374063
4.76203e-09
6.24803e-09
2.98886e-10
0.000388418
-7.8563e-09
3.56852e-11
5.75444e-11
5.49021e-09
2.732e-09
8.54276e-11
2.50559e-10
-1.22336e-11
-8.60328e-09
4.04414e-11
-5.34577e-11
3.07048e-11
2.01194e-10
0.000181031
-1.14802e-10
1.11719e-09
4.96057e-09
-5.19955e-06
1.73507e-09
1.22314e-07
-2.19554e-11
1.24393e-11
-1.02565e-08
3.3876e-12
3.8438e-11
-1.0517e-10
-1.54153e-06
-1.99762e-10
1.17796e-10
2.51195e-11
4.36124e-10
6.06864e-09
1.0677e-05
2.2161e-09
6.58602e-10
-9.56726e-11
2.28711e-11
2.93902e-06
4.89743e-07
0.000176359
7.87742e-09
-3.66124e-08
4.47831e-11
7.7797e-07
-4.71672e-06
8.46487e-12
1.79102e-10
2.26335e-09
-1.30997e-10
0.000395435
-1.63175e-06
1.48344e-08
-1.91716e-11
-4.01108e-10
-3.3449e-05
2.11849e-09
-4.25762e-11
-0.000317806
5.28704e-11
1.49862e-09
1.06572e-09
6.02935e-10
1.69193e-12
0.00016743
1.74817e-08
1.26095e-05
1.00066e-08
3.61581e-09
6.61392e-11
2.71383e-09
0.000942801
-7.78362e-06
4.27333e-09
1.68489e-08
-3.0562e-10
-7.53793e-10
-1.21798e-10
6.05042e-12
-0.000818985
0.000879072
-3.59679e-10
6.58967e-09
-0.000388765
4.95525e-10
0.000331246
3.64463e-10
1.57216e-11
7.9394e-12
8.93952e-11
4.56005e-10
0.000355555
1.15397e-10
3.71397e-13
0.00024596
-1.76997e-10
2.72239e-08
-4.60134e-05
-2.93486e-09
-5.43429e-06
0.000902428
5.08787e-13
-1.37028e-10
0.000473677
7.19188e-10
0.000360355
8.91728e-11
-1.56344e-10
3.48761e-09
9.76666e-05
3.94028e-11
1.4622e-10
-2.14637e-10
1.6244e-10
4.17311e-10
-1.13746e-11
7.10589e-13
7.03879e-10
2.86337e-10
-2.49673e-07
-7.54466e-09
4.17624e-06
1.05639e-06
-0.000348706
1.71222e-08
2.21043e-09
-4.29521e-10
3.49701e-10
1.19071e-09
9.68455e-05
-1.19431e-06
7.27432e-10
3.51792e-09
1.5525e-10
5.39381e-11
1.97712e-10
0.000156595
-3.90318e-10
7.05126e-05
3.56829e-11
3.10821e-10
1.8125e-10
1.93952e-08
-1.61988e-10
-1.08605e-11
3.53219e-09
4.71246e-11
5.42073e-10
-3.83572e-05
4.10976e-06
5.22111e-12
2.38185e-06
-6.83673e-10
-7.8244e-08
-2.4313e-10
2.12637e-12
1.31624e-11
-4.57681e-05
-7.28579e-08
1.26783e-09
0.000118772
0.000367595
-4.59439e-13
0.000995982
0.00081381
2.35824e-10
-1.76731e-08
-7.74399e-09
-2.20786e-10
1.67466e-08
1.78577e-10
4.46241e-06
1.3613e-05
6.80468e-05
0.000276627
3.07121e-08
1.28438e-11
4.53405e-09
2.02871e-08
-2.23214e-13
-1.2182e-10
-2.35437e-12
0.000117144
3.95966e-08
-7.59352e-09
7.08848e-07
2.61988e-10
-0.00113785
4.76048e-08
-2.23106e-11
-2.26746e-10
0.00043096
6.08856e-09
1.19993e-10
6.13332e-12
0.000201716
0.000139637
5.20626e-10
-3.54616e-10
0.000237787
1.41727e-08
-3.37058e-10
1.43317e-09
7.15726e-05
-7.77412e-11
6.00899e-09
5.04897e-11
3.95954e-09
0.000341061
1.33493e-08
1.04895e-08
5.5213e-07
0.000226098
-3.94903e-10
1.49232e-11
-1.49661e-10
9.85316e-10
1.46519e-12
0.000259961
-1.55904e-08
4.38148e-12
5.23331e-10
1.00666e-08
3.47191e-09
2.38376e-11
8.41351e-05
1.48024e-09
1.46304e-10
-8.01058e-09
-7.15679e-11
-4.00987e-10
1.4049e-09
0.000276144
-9.55903e-11
-5.73085e-06
2.19876e-11
1.75092e-05
3.94124e-10
1.10146e-08
-2.60393e-06
1.12074e-09
-1.86464e-10
2.24506e-09
2.97735e-10
9.19824e-09
-5.89903e-11
4.43031e-09
1.74438e-11
1.67457e-09
0.000171104
1.82256e-08
-7.3551e-05
9.68071e-07
0.000873507
1.55088e-10
2.17327e-09
1.68461e-09
6.22954e-07
-2.10148e-13
-1.55572e-10
-7.74118e-11
-5.73343e-09
0.000273516
1.13077e-09
3.30521e-08
-1.03471e-09
-0.000194469
1.2803e-09
1.1881e-09
-1.68376e-10
3.56934e-09
1.39643e-09
-1.09714e-08
0.000263626
4.66706e-12
-5.1278e-11
3.5582e-06
7.47806e-09
0.00101692
3.07789e-12
0.00106513
-7.16601e-11
6.57568e-09
0.000316248
5.814e-11
0.000843199
6.37433e-07
2.09872e-07
-7.14828e-10
-0.00347596
-4.80998e-12
-1.96166e-10
-3.4101e-10
-2.02749e-11
9.79987e-06
2.93331e-05
1.50028e-09
3.889e-09
-2.41726e-11
-7.83415e-13
0.00080039
8.81691e-09
-8.03972e-11
-1.9385e-11
-1.09562e-10
4.76521e-10
2.46882e-09
-1.12517e-09
0.000178442
1.00192e-08
-7.04089e-06
1.70476e-10
1.23455e-06
5.89456e-10
3.03901e-07
-1.70856e-11
2.63579e-07
2.19662e-06
2.47924e-08
8.53868e-05
3.64478e-09
2.53878e-11
1.73827e-09
2.9684e-12
-6.12091e-10
1.02644e-07
3.01024e-05
-0.00163275
2.94561e-09
2.63567e-10
2.89369e-05
4.87807e-08
4.3009e-11
2.00983e-12
-3.05267e-05
1.57973e-10
6.76126e-10
4.92132e-09
2.42915e-08
-4.03931e-11
-4.34346e-05
-1.56245e-09
1.3191e-08
1.55047e-08
6.52362e-09
1.76372e-08
2.68921e-11
1.43759e-08
0.000187291
2.25506e-10
1.76161e-09
5.88286e-11
3.25185e-11
1.38207e-09
1.42442e-09
1.34645e-10
4.61635e-10
-9.93415e-09
0.000272368
6.37955e-09
-8.54647e-11
5.74137e-09
9.23767e-11
-7.86912e-11
1.15196e-08
5.13383e-09
0.000221409
2.73763e-10
-2.63248e-11
-1.29797e-10
9.48293e-06
3.20815e-11
-0.00191791
5.62549e-13
4.17969e-08
1.35409e-09
-2.66029e-11
8.25062e-08
2.241e-10
2.95162e-05
-1.88101e-11
-2.67495e-10
8.99506e-12
3.01441e-10
2.10673e-09
1.42763e-09
3.23857e-11
0.0001967
-1.38058e-09
-4.61906e-08
2.10125e-09
1.01805e-08
-1.99515e-10
9.51169e-08
1.8196e-05
7.86051e-11
1.91863e-08
1.76176e-09
-1.26267e-10
2.4115e-08
-1.75962e-11
5.50891e-09
-1.46119e-11
4.66842e-11
6.56958e-05
9.84474e-09
3.44793e-11
1.33176e-07
5.82259e-11
1.90472e-10
1.09612e-08
-9.44017e-10
-6.61509e-11
4.88346e-07
-2.38614e-06
2.37336e-11
1.4937e-10
2.59654e-10
2.79304e-10
9.21106e-08
0.000229455
2.84594e-08
1.92701e-11
-1.01962e-10
2.32227e-10
-4.20853e-10
1.13747e-05
1.06028e-10
1.34882e-10
2.11627e-05
6.53468e-11
6.02655e-11
-7.94035e-11
5.16188e-09
-3.01674e-10
-7.65382e-11
-2.33697e-10
-1.64147e-10
-3.67351e-10
0.00133448
-0.00196156
-9.4121e-11
-1.15892e-10
-1.32846e-11
6.24242e-11
0.000292251
2.97848e-11
-3.02571e-08
1.03269e-07
1.12246e-08
-0.000130341
1.84622e-09
-3.06668e-06
-3.9153e-11
0.000673428
-2.49832e-08
-2.54284e-10
2.38749e-09
-2.22659e-10
-4.35178e-11
2.80787e-11
3.12631e-08
0.000174681
2.07627e-09
1.24125e-10
1.77523e-08
6.46149e-09
-5.71258e-11
-2.2839e-10
4.61366e-11
0.000228529
0.000318652
-1.1506e-10
4.36619e-10
-2.27962e-10
-1.47437e-05
0.000358269
1.66375e-13
2.37817e-08
8.88667e-12
4.29274e-06
-3.69702e-12
3.51569e-11
-0.000426358
8.81913e-06
2.09565e-08
1.18393e-10
-2.43124e-11
5.53165e-05
-3.26314e-12
-1.31286e-10
-1.45193e-10
0.00288605
1.52342e-10
0.00035631
2.2123e-10
0.000401278
6.89844e-12
0.000307567
1.65704e-09
-1.31189e-11
6.06715e-09
2.49136e-11
1.38233e-08
-6.12851e-06
-0.000603948
7.41461e-12
2.83608e-11
9.84152e-08
3.81013e-11
6.41499e-05
1.40566e-10
1.7003e-09
-0.00157584
0.000143095
-1.21238e-10
1.00525e-10
5.38062e-12
-0.000629479
1.94958e-09
-1.34051e-10
1.57962e-09
3.01333e-11
0.000409073
2.47517e-11
5.31112e-09
-2.42355e-10
-3.44728e-10
2.02346e-09
6.47884e-09
1.25775e-09
3.77431e-11
-6.34307e-11
0.000205059
3.68401e-11
-3.9135e-11
5.98329e-10
1.44015e-11
9.076e-06
6.80431e-06
2.06292e-09
1.7262e-08
1.63694e-08
-0.000409546
-1.2135e-11
6.11415e-11
6.54882e-11
1.79674e-10
1.40368e-09
-1.93764e-11
-3.57381e-05
0.000310993
0.00093612
0.000146383
0.000377952
8.76932e-09
-1.39487e-08
-3.91449e-07
1.426e-12
-1.48045e-07
-3.0184e-10
5.21615e-09
5.23084e-09
-0.000418263
6.65806e-10
-5.86157e-11
0.000301667
-3.78611e-10
6.11342e-11
3.1997e-10
-2.03285e-05
2.19236e-08
-1.21682e-09
4.00661e-07
2.97574e-08
4.08981e-06
2.51225e-10
2.72488e-10
2.53936e-10
1.89966e-08
-5.10175e-10
1.38011e-08
5.63557e-09
-3.7778e-11
7.37729e-12
-2.93204e-10
-2.63186e-12
0.000684573
1.6951e-05
2.5769e-10
4.73289e-05
1.32261e-08
1.10485e-07
1.65097e-10
1.79847e-10
-0.000401666
2.8876e-10
1.21755e-10
7.73232e-05
-8.58975e-10
5.95865e-10
-4.34968e-05
-7.04055e-08
1.17072e-10
4.23642e-10
1.90088e-05
7.87117e-11
1.12493e-10
-1.62416e-05
4.4071e-06
-1.4104e-09
1.49618e-08
0.000290994
8.93479e-10
1.40297e-08
0.00304986
-3.42363e-09
3.61048e-05
2.66972e-09
0.00106512
5.83251e-09
1.94301e-11
-0.00399678
7.18418e-12
2.14738e-11
-3.43069e-11
-0.000606459
5.25462e-08
-3.58804e-11
-4.47729e-05
-8.75649e-12
7.99883e-09
8.17977e-10
-0.00280903
1.15726e-08
1.13971e-08
3.31964e-10
-4.44318e-11
5.50499e-11
-0.000244641
-6.56834e-09
0.000127677
3.23694e-13
1.71823e-07
-2.23944e-12
9.96298e-13
5.01046e-10
2.77227e-11
-6.45163e-11
7.67948e-12
9.65869e-10
3.79396e-10
2.83598e-05
-1.82993e-11
1.09058e-09
0.000831095
9.63926e-09
0.000235136
-6.25981e-11
5.37645e-07
-0.00103791
-3.88371e-11
0.00109069
9.06138e-09
0.00123587
5.1214e-06
4.44497e-05
3.77711e-12
-7.51959e-11
-3.05422e-10
2.66509e-08
0.00050888
3.95869e-07
-2.79679e-10
-1.16235e-11
0.000326878
-0.000825128
7.26127e-07
-8.12245e-12
5.7601e-08
-1.22383e-10
2.5473e-09
-0.000305458
1.22827e-09
8.87379e-05
9.55601e-11
6.79691e-11
-0.000367867
1.93026e-05
-6.2106e-11
-7.40156e-11
2.56553e-09
-4.28789e-05
8.28853e-10
-3.84925e-11
1.81839e-08
-4.53194e-08
1.88283e-08
2.66147e-10
-7.25271e-09
4.8786e-13
2.3481e-12
0.000122474
8.52147e-09
0.00030299
9.71092e-06
5.34354e-09
2.2389e-08
2.03065e-05
1.13909e-10
9.82538e-11
3.97401e-09
-5.51609e-05
-1.36629e-10
1.36253e-08
0.000195994
6.60248e-10
-3.12227e-05
1.82413e-10
-6.85944e-13
2.44387e-10
7.98752e-10
1.0326e-09
6.12895e-05
1.99767e-09
-2.80249e-10
3.4801e-05
6.6089e-09
0.00213032
-0.000410031
5.50318e-08
-1.11324e-05
4.00517e-07
-1.71892e-10
-2.09242e-11
2.43541e-08
-0.00106829
2.50041e-09
2.3286e-09
3.11724e-06
3.07114e-10
-5.41938e-11
-9.07004e-11
-0.000147921
1.97805e-11
1.78986e-05
-1.14825e-09
1.17014e-11
1.45426e-05
-2.54655e-09
0.00100882
-2.95138e-10
-9.12921e-11
4.62938e-11
-9.69083e-07
-3.36332e-11
7.04679e-09
4.28435e-12
-0.000418557
3.41189e-10
-3.69827e-05
2.58779e-08
6.48746e-10
-4.56017e-12
-1.03868e-10
2.36458e-08
-1.54569e-09
-3.33997e-11
0.000125071
0.000158776
9.73143e-10
2.22733e-05
1.12278e-11
1.12418e-10
1.03202e-10
-1.53396e-12
1.09643e-10
5.95257e-09
1.74547e-09
2.83425e-09
5.03066e-11
1.31201e-09
5.14398e-10
1.74109e-11
0.00240329
-8.278e-09
-5.13818e-12
-3.63932e-12
1.58769e-05
0.000286682
1.09161e-10
-2.77437e-05
-3.7966e-05
5.32621e-11
2.91984e-11
0.00129729
2.05757e-05
-8.2097e-09
-2.07223e-09
-1.21614e-05
2.89706e-11
-4.92565e-05
0.00304371
0.00024554
1.16079e-09
9.70782e-10
3.90842e-06
5.96258e-09
-5.5334e-11
1.22115e-08
-9.66086e-10
2.64514e-07
-3.05756e-12
-6.90382e-10
-6.86155e-11
9.53239e-11
7.74387e-11
4.54245e-05
-4.40798e-09
-2.52011e-11
9.56135e-11
0.00112559
-8.54294e-11
-0.000405642
8.2971e-11
-6.18531e-10
-4.10419e-05
2.08463e-10
2.00324e-09
-3.5339e-10
-3.92618e-11
9.22761e-11
4.02696e-12
0.00172162
3.17098e-11
1.49119e-11
-1.32034e-10
4.47867e-11
4.14082e-05
6.05334e-12
2.70733e-09
-1.48057e-10
-5.41987e-09
4.25079e-08
-2.75031e-10
5.4981e-05
1.6448e-05
-3.25323e-11
7.18606e-11
1.1482e-09
-1.25755e-09
2.79688e-11
-2.05404e-10
-1.21971e-10
3.70137e-08
1.89841e-09
8.31331e-10
1.56051e-09
-6.12414e-10
8.33413e-12
1.70067e-10
0.00049266
4.16557e-05
2.41165e-08
2.82809e-09
4.85629e-07
4.72894e-11
1.84427e-11
5.85086e-05
0.000145508
5.46852e-10
-5.77061e-12
8.58736e-07
0.00065555
5.91599e-12
1.13577e-09
-0.000826347
4.42681e-05
7.56998e-09
1.59499e-09
9.46303e-10
0.000328567
4.73846e-13
8.93166e-14
-4.14851e-08
0.000251149
-0.000858826
-2.40341e-09
3.55903e-08
-4.06943e-10
-9.20626e-11
6.91253e-11
3.27755e-09
2.42118e-06
8.15741e-12
-0.000354035
-6.49123e-11
4.28671e-06
0.00131125
2.73284e-10
1.16188e-06
-4.34253e-10
1.71646e-10
8.13029e-11
1.1695e-08
3.28499e-12
1.90914e-11
1.54737e-10
-3.36951e-05
2.56335e-10
0.000386835
2.78076e-11
6.44283e-11
2.15564e-09
5.62324e-09
1.1251e-09
0.000118774
9.75976e-10
-8.63688e-09
4.86451e-10
-3.79187e-05
-4.17986e-05
1.12149e-06
2.11532e-08
-3.01593e-05
2.61877e-11
-0.000291636
6.10413e-09
-2.07089e-10
1.034e-07
3.685e-05
0.000833047
-1.6432e-11
8.13239e-10
6.13179e-07
-5.80933e-12
-1.57347e-07
-6.32588e-11
0.000515153
-7.28497e-11
1.49117e-09
3.53267e-10
-4.77573e-06
3.54813e-13
-8.72688e-11
2.22323e-08
1.56725e-10
4.65568e-08
-0.000112588
-4.81727e-12
1.21962e-10
-1.19394e-11
3.03942e-09
6.72736e-09
5.60319e-10
1.46317e-10
2.97846e-08
-7.30882e-11
0.000200785
1.37481e-09
8.25922e-09
-2.08213e-10
-1.25566e-11
-0.000856477
1.38203e-08
6.99049e-11
4.27637e-05
0.000289763
-0.000274286
0.00118796
0.00262918
3.00805e-09
-1.24933e-11
-2.30692e-12
-6.28239e-11
2.54504e-11
2.52102e-07
-0.000665612
4.7062e-08
1.14411e-11
2.59135e-09
-0.000189148
2.43956e-05
1.04989e-11
5.69193e-10
9.87876e-05
-5.57426e-07
3.27688e-09
1.76186e-09
-3.75156e-10
2.83587e-10
4.72208e-10
0.000309881
-3.23465e-11
-0.000556575
-3.76136e-10
1.42253e-10
-0.00137286
-0.000141572
1.17348e-10
4.83319e-11
6.37156e-10
4.35007e-09
6.4073e-09
2.52123e-09
-3.62448e-10
-4.04012e-11
1.03644e-10
0.000835128
7.5527e-09
1.55501e-09
7.74077e-07
-6.49427e-11
-9.0575e-11
-4.63661e-10
4.86085e-09
-1.19371e-07
-2.26919e-10
6.80808e-09
2.24315e-10
8.65932e-13
-1.53154e-11
-3.73451e-11
-4.78673e-12
-1.32692e-11
4.05664e-09
4.50668e-11
-3.45098e-06
9.2808e-10
2.37955e-09
6.26389e-09
9.87225e-10
-1.15411e-12
0.000594791
-1.02676e-10
0.00103609
1.31786e-10
-5.5288e-12
6.31502e-09
-1.27031e-10
0.000934597
-4.42522e-11
2.45014e-08
-0.00016727
-4.26091e-05
2.06648e-09
1.08791e-09
2.49731e-10
-0.000418864
-1.68578e-07
-2.06624e-10
-4.03997e-10
-9.2504e-11
-0.000496642
2.3432e-09
2.06427e-06
0.000218388
-3.70236e-10
-1.18066e-11
9.92217e-12
-0.000367237
1.37046e-08
1.07112e-08
-1.0076e-09
3.10988e-08
4.04348e-05
-4.87632e-12
1.49509e-07
-0.000144319
0.000611678
-3.93824e-12
9.01992e-12
2.9014e-06
0.00196727
1.12789e-08
3.2456e-08
-2.86846e-10
-3.8513e-09
6.77335e-11
-5.56209e-11
1.64693e-09
-0.00159583
1.97857e-11
-2.36566e-11
6.65317e-11
1.93095e-11
0.000185739
-1.15489e-10
1.20062e-08
-2.89665e-11
1.25559e-09
3.57713e-05
-4.278e-10
-6.99712e-11
3.89692e-09
-1.90853e-10
2.42772e-10
1.19489e-09
0.000607654
1.89965e-08
-1.15312e-09
8.66079e-09
1.65703e-07
-4.15275e-11
6.49288e-10
0.000233023
-4.11491e-05
4.31997e-09
6.82441e-09
5.31057e-09
1.73368e-10
2.01584e-09
-5.40786e-11
-6.76343e-11
-5.26709e-12
7.3016e-10
-5.31735e-10
9.91446e-10
1.23046e-06
0.00225542
-4.55945e-13
-7.01604e-05
2.07761e-10
2.18336e-10
8.73703e-09
2.6029e-11
4.78628e-09
6.02656e-10
0.000204411
6.08653e-09
7.97174e-11
-7.04956e-06
4.63795e-09
5.79359e-09
1.96355e-10
0.001318
1.00085e-10
-3.10616e-11
7.44337e-09
3.2386e-08
-4.6196e-10
2.07051e-10
1.61146e-06
3.07786e-10
1.12444e-11
-1.36035e-10
1.4011e-10
3.30711e-09
1.03878e-10
4.95647e-10
0.00124641
5.72843e-09
5.68546e-09
-6.76452e-12
4.30309e-11
-1.30357e-10
-2.86125e-10
2.40194e-09
9.85001e-10
-3.18454e-10
4.27228e-08
-0.00168481
-5.34925e-05
9.74273e-10
6.70806e-09
1.37364e-08
0.000421982
1.96351e-10
-5.68876e-10
9.72404e-09
8.42912e-08
8.41706e-12
2.94921e-05
4.31338e-12
9.24485e-05
-0.000264493
2.5742e-05
0.000816835
0.00152294
1.07263e-08
1.05401e-08
-7.26758e-11
-3.93635e-10
-7.79016e-11
1.17994e-08
-7.32518e-10
5.66649e-05
-2.00871e-06
5.29959e-11
2.60734e-12
2.31597e-11
1.22346e-06
-6.34882e-11
3.05818e-10
0.000325432
-3.01996e-07
0.000358122
3.56421e-12
1.81598e-11
0.000980503
0.00175294
6.71492e-10
-1.15057e-11
9.2083e-06
2.20721e-07
3.02177e-08
1.17383e-10
-1.38621e-10
2.13264e-09
1.12484e-10
-4.44372e-11
0.000810876
-8.80875e-10
1.0449e-10
0.000970506
-2.03927e-11
-1.29406e-10
5.6632e-09
7.86598e-09
-2.04106e-10
2.83225e-07
-2.01848e-10
2.77853e-09
-1.85249e-11
0.000435074
6.77049e-11
-2.65195e-11
1.45075e-10
2.50113e-08
-4.3062e-07
1.30501e-09
-2.03454e-10
9.30568e-11
1.78939e-07
0.000178894
3.92306e-09
-1.30424e-11
-1.28026e-11
-1.99247e-05
-1.13465e-10
1.4822e-09
-5.50742e-11
-7.5738e-09
-4.10389e-10
-3.48005e-11
1.53573e-09
0.00025089
1.86577e-05
-1.17354e-05
-5.52109e-11
-4.38052e-05
8.34877e-11
0.000198274
2.30337e-09
9.48828e-11
5.61248e-09
2.43717e-09
-2.1523e-10
0.000136959
-1.29055e-10
1.71615e-09
-6.6541e-12
-5.67711e-10
0.000663539
5.5456e-11
1.62045e-08
1.14949e-10
5.76413e-08
-1.429e-11
1.21969e-06
1.63414e-09
2.35604e-09
-9.35035e-09
-5.91569e-07
0.00032037
-0.000362458
1.0298e-10
0.000283381
3.53767e-09
-1.6117e-11
1.68908e-12
-5.75932e-06
-4.69648e-10
0.00221404
3.05294e-06
2.88821e-09
-0.000872048
-1.19014e-10
6.61109e-10
-6.75769e-10
4.14602e-08
4.99302e-09
3.12325e-11
1.33122e-09
2.08055e-09
-4.1362e-11
2.27974e-10
-1.77881e-10
6.40627e-09
4.33539e-10
0.000658576
0.000216493
1.44921e-10
-1.53809e-06
-6.16157e-07
0.000525327
-2.32337e-10
-1.14385e-09
-1.19466e-11
4.01209e-09
1.93158e-11
1.54599e-08
-3.98146e-11
1.75338e-09
-5.33694e-11
-6.02345e-11
5.92962e-12
8.47966e-09
-8.79499e-11
6.49466e-10
2.06696e-09
1.67554e-09
1.71075e-08
7.43653e-10
4.74288e-10
9.87034e-05
-1.19787e-09
1.06117e-09
3.61464e-05
1.51689e-10
-4.90069e-05
-0.000618681
-1.11105e-05
2.51069e-10
-1.60208e-10
-1.40149e-10
-2.53019e-10
-3.13722e-12
4.26142e-10
3.23667e-10
6.65182e-10
-0.000928971
2.51343e-09
-1.60797e-10
0.000678658
-7.59743e-06
1.00606e-09
6.68361e-07
2.22316e-08
-1.04539e-10
-3.3692e-09
2.53905e-07
1.4453e-09
-1.43957e-10
4.4363e-09
1.46516e-09
-5.15344e-11
0.000251765
-4.98362e-11
-2.21483e-12
2.7204e-11
-4.65983e-10
-0.00103539
1.24555e-09
-2.54712e-12
4.11066e-10
-3.95698e-05
1.71638e-11
5.79528e-10
0.00140431
-1.07758e-11
2.98383e-10
0.000486765
3.00906e-09
-9.51285e-05
4.12278e-12
9.24974e-11
2.94687e-11
3.42451e-07
0.00124338
6.70616e-09
-9.98944e-11
-4.9201e-10
-1.96103e-10
0.000925003
3.36689e-10
-2.64221e-11
5.492e-07
-2.75016e-05
-1.27266e-10
1.94333e-07
4.0222e-09
4.04164e-09
6.22319e-11
5.70537e-05
-0.00106043
1.58677e-10
7.97599e-07
-3.89948e-05
1.72883e-10
-3.08643e-05
8.63869e-10
-0.000657031
-0.000400586
2.32119e-09
3.15966e-11
0.000758939
0.000118805
-3.58166e-10
-0.000788784
1.1937e-05
6.93978e-05
2.16955e-10
-1.42065e-11
2.72763e-10
-2.15745e-06
2.15813e-08
1.24104e-10
2.33885e-09
-7.00341e-05
3.70476e-10
0.000850681
-1.08455e-09
2.2588e-11
8.26909e-12
0.000159476
0.000318415
4.27593e-11
-3.96383e-10
1.15937e-06
2.43086e-09
4.76306e-09
-9.21714e-11
-5.96387e-10
5.28744e-05
1.37042e-09
7.07554e-12
1.97846e-11
7.26515e-12
-1.21447e-10
8.64068e-07
8.8805e-09
2.45397e-10
-1.27232e-10
-1.28606e-11
9.34251e-10
4.66795e-10
-1.7316e-11
1.35003e-09
-4.84538e-10
-3.21976e-11
0.000339892
1.09987e-07
-2.53194e-10
1.0345e-09
1.51927e-06
5.80633e-11
2.9834e-06
4.5091e-09
2.88544e-08
2.79157e-08
-9.76004e-12
-8.19949e-11
1.50986e-11
-2.9173e-10
3.30521e-10
3.20331e-05
2.68258e-05
-1.72852e-10
-1.32812e-10
2.73957e-10
1.27689e-10
4.94459e-11
-1.99087e-10
-7.39641e-08
4.60219e-05
-9.85865e-11
0.000415143
8.84716e-13
1.88441e-08
-3.9238e-08
8.56486e-10
1.12666e-11
7.95497e-11
5.18086e-10
6.95349e-11
1.83107e-07
1.27627e-09
1.60748e-05
7.49288e-09
-1.04281e-10
0.000398051
4.9386e-10
0.000180783
0.00176227
6.20382e-06
-4.80894e-10
1.53051e-11
9.73569e-11
-0.00018243
1.28618e-09
-4.63688e-07
-0.000568463
1.79046e-07
6.44773e-07
2.39122e-12
1.15436e-09
1.68963e-11
1.41574e-10
-1.52252e-10
4.99415e-11
1.34219e-09
-2.43316e-09
-1.0671e-10
5.05151e-10
-0.000847565
1.60905e-11
4.53753e-12
-4.30791e-10
9.16471e-10
2.88415e-05
0.00021102
1.68458e-09
1.32948e-10
5.92475e-09
8.68244e-07
3.48997e-09
0.000129959
-2.02488e-12
-1.38737e-09
4.58176e-10
-5.06349e-05
2.03389e-09
-6.98274e-12
1.28716e-10
8.99284e-12
2.48344e-05
-1.21885e-10
8.84256e-10
-3.71222e-11
-4.33684e-13
2.31745e-10
2.34976e-09
-2.62468e-08
5.33832e-08
5.494e-07
-6.85896e-09
6.93973e-12
-8.12335e-11
1.51711e-08
4.8869e-10
2.00407e-09
4.77924e-09
6.05689e-05
-0.000812917
2.60899e-09
5.05928e-05
-2.09797e-05
1.43411e-09
1.99143e-09
2.23522e-09
3.34134e-09
-0.000232148
-3.50539e-09
-7.19096e-10
2.33657e-08
1.10428e-11
-1.23827e-05
2.64781e-08
-4.65347e-12
1.10538e-08
6.71344e-09
-0.000463035
3.31393e-11
-4.64716e-05
-4.32731e-09
0.0016801
4.81188e-05
9.40265e-10
7.32933e-05
1.58416e-08
2.2277e-05
-1.87967e-10
3.10381e-05
-0.000423537
-4.87903e-11
1.39852e-09
-1.00098e-11
-4.59275e-05
1.77573e-08
1.10153e-10
2.26966e-09
-2.40642e-08
3.45161e-08
2.4217e-09
-1.01809e-10
-2.62962e-10
0.00139799
2.93339e-07
-5.63159e-12
4.79774e-05
1.73023e-08
-4.50835e-05
1.57239e-08
9.28632e-10
1.76706e-08
-1.49294e-10
2.33886e-09
2.83892e-05
2.16344e-09
-1.30565e-10
2.73021e-09
4.65988e-09
3.73986e-11
-1.48733e-09
6.78287e-10
8.7175e-10
-3.02335e-12
5.46019e-12
1.01705e-07
4.51844e-11
-9.50914e-12
-2.7917e-06
-4.16575e-10
-3.48627e-10
-3.75049e-11
-8.05149e-07
-1.0094e-10
-2.55405e-11
1.77678e-07
-2.38064e-07
7.93363e-07
2.06087e-05
1.96404e-10
-7.80615e-11
-2.75212e-05
-1.27013e-10
5.96055e-09
2.66374e-06
-2.91599e-11
-3.11941e-10
-7.13015e-10
-3.58343e-09
1.24069e-08
5.14936e-11
1.69686e-07
2.13689e-09
2.15829e-10
-1.81741e-10
3.28533e-05
3.09677e-09
-2.08581e-10
-0.000159604
-6.5772e-12
-1.17501e-07
-4.32921e-10
8.59306e-07
1.7165e-05
0.000278721
-6.7356e-12
5.42134e-11
6.39993e-08
-5.02088e-11
3.13626e-10
0.00156412
8.93774e-09
4.36683e-08
1.65049e-09
2.23893e-11
1.73642e-06
1.09587e-09
4.43558e-11
-0.000440145
-2.62623e-10
-3.51547e-09
1.58063e-08
3.40693e-05
-0.000253993
1.53716e-11
4.79083e-10
2.74397e-10
4.67512e-11
1.43832e-08
-1.10162e-08
0.000390239
1.54857e-10
4.33481e-10
3.27583e-07
-9.30658e-11
-7.17486e-12
9.22094e-07
0.00223515
6.11617e-05
6.22286e-11
3.06864e-11
7.66726e-11
-1.35856e-10
3.57993e-09
7.95113e-09
6.59417e-07
2.36105e-09
0.000272904
-4.84603e-05
2.02089e-09
-7.93864e-05
1.81542e-10
8.13757e-09
1.60494e-09
-9.09547e-07
-2.31223e-10
-1.30375e-10
-7.23592e-05
3.44049e-07
1.39654e-08
1.01987e-10
1.42677e-06
1.02235e-11
2.65428e-05
-6.43533e-11
9.49193e-10
-0.00054414
8.96261e-10
-2.55704e-07
-2.61452e-10
-7.18717e-14
0.000652507
4.76194e-07
-4.76952e-05
-4.65255e-05
5.38274e-10
-3.88682e-10
5.01537e-09
3.52298e-10
4.24202e-10
-2.20399e-05
1.73072e-08
-3.54705e-10
1.82124e-10
4.53153e-09
-6.03093e-10
4.51587e-07
-2.1585e-08
-3.92268e-11
1.5703e-09
2.64009e-09
-1.92363e-10
3.47721e-07
3.19273e-10
2.51228e-07
-4.79381e-05
1.69391e-09
6.61177e-08
6.52231e-09
1.87363e-08
0.000833542
2.27876e-07
-0.00118002
1.11463e-07
-4.94988e-10
0.00272742
3.6809e-10
-0.00194794
1.16945e-07
7.1055e-11
2.47993e-11
3.59543e-11
9.80157e-05
-2.02451e-11
-4.91515e-10
5.8669e-12
6.46137e-11
1.31661e-09
5.46578e-11
3.68796e-09
3.75836e-09
-1.62003e-10
-0.00084356
0.000484699
6.19916e-06
-5.67366e-10
0.000211811
-3.87114e-05
-3.59736e-05
-8.75053e-11
0.00199064
4.54738e-07
5.53213e-06
2.94101e-11
2.84776e-09
2.94696e-07
-6.52712e-10
0.000463541
-2.66716e-10
-0.000693853
1.17734e-09
2.97428e-10
2.56038e-09
-1.35444e-11
4.73371e-10
4.62669e-09
1.65356e-09
0.000466047
2.33097e-11
4.93536e-12
2.43969e-09
2.97494e-09
5.34265e-07
1.19809e-06
-7.6502e-09
-3.41792e-05
6.1674e-07
2.60637e-11
-0.000181214
7.55679e-06
0.000575359
-1.90548e-11
4.38353e-09
-1.25865e-10
-1.68777e-11
-3.30151e-10
5.53669e-11
-1.10029e-07
-3.06032e-10
1.0663e-10
0.000122882
4.82106e-09
3.74391e-09
5.49824e-08
8.59001e-10
-9.68565e-11
3.56243e-07
-2.13163e-11
-1.25342e-10
1.60722e-09
4.22168e-09
6.02776e-09
0.00115867
0.000654073
2.56117e-08
-2.02665e-09
7.15973e-05
-0.000335297
-8.87939e-13
-0.000669771
2.00081e-06
-1.76069e-13
-3.96184e-08
4.25522e-09
0.000700808
1.70099e-09
-5.17763e-10
8.20713e-05
-4.64849e-05
9.93767e-11
-4.90979e-05
-5.09093e-09
1.11828e-09
4.92592e-05
-6.14581e-11
0.000893069
2.70765e-10
3.84234e-08
2.92235e-10
2.35579e-11
3.85867e-11
1.27467e-08
9.69894e-09
-9.0074e-06
5.43016e-09
0.00135406
5.8343e-09
0.000113302
-3.77578e-06
-4.30533e-09
-9.85756e-11
0.000222977
-2.21938e-10
-3.27805e-05
-9.48743e-12
0.000344338
-2.93608e-08
1.07739e-05
-5.17088e-09
0.00023837
2.30675e-10
-1.48515e-05
-2.03336e-07
1.70337e-08
2.23e-07
1.18341e-09
1.11771e-07
0.00235425
-1.92312e-10
1.60683e-10
-6.84402e-11
5.94559e-11
8.13572e-07
-5.75729e-05
-3.62604e-13
-4.99973e-08
8.76341e-10
0.000956457
4.16914e-12
3.32625e-12
3.84763e-09
3.2128e-09
3.13218e-05
5.14839e-07
5.39566e-06
1.84731e-11
5.80059e-10
-2.01817e-05
1.92306e-10
-3.14371e-11
-6.88336e-10
7.92923e-09
3.12151e-11
1.24457e-10
-3.68912e-10
-2.88402e-10
4.32525e-09
-0.00112419
-1.30007e-07
-7.01822e-11
-0.00020028
-1.91125e-11
4.57145e-09
-3.37855e-11
3.63535e-09
-4.11333e-05
2.48059e-10
-0.000768032
-6.73079e-10
-4.32416e-08
4.22171e-09
-6.55321e-11
3.30575e-10
1.50523e-07
6.648e-12
1.42236e-08
1.56108e-09
3.39986e-09
-6.52205e-10
-1.01243e-10
9.28884e-05
1.73317e-08
0.000103306
-0.00027015
1.69123e-10
4.89208e-05
2.21222e-08
3.28122e-09
-2.27952e-11
2.65898e-09
9.78631e-05
-5.23725e-11
6.13534e-09
2.52058e-10
3.37195e-11
-3.65647e-11
3.25209e-06
4.54043e-09
2.46556e-10
3.05263e-10
-9.55038e-10
7.81225e-10
7.66659e-10
4.74692e-12
-2.7856e-10
-1.78931e-10
6.88858e-12
1.26699e-08
5.58692e-10
0.0004155
1.38645e-10
7.7706e-07
-2.2784e-11
3.10009e-09
3.36903e-10
1.71853e-08
1.86431e-09
1.35211e-08
0.00039709
5.05955e-09
2.53142e-10
2.26682e-08
0.000509267
-4.73103e-07
3.58432e-10
3.09482e-08
-1.94286e-10
-5.12167e-05
-0.000763778
-1.06755e-05
1.52171e-10
-0.000429294
2.46359e-09
-5.10355e-11
8.06868e-08
-1.00484e-10
-0.00035013
5.46232e-11
1.73652e-08
3.05976e-13
9.83102e-11
0.000282933
-7.32224e-06
1.67681e-10
1.87177e-10
5.52687e-07
4.07676e-05
0.000476288
3.86344e-10
4.59467e-07
2.72366e-09
6.63549e-05
9.32266e-12
-4.95385e-05
8.11935e-09
-8.52504e-11
-6.50178e-10
1.66933e-08
0.00288911
3.75129e-11
-2.0073e-09
0.000710892
2.342e-09
-5.1386e-10
9.13115e-09
1.60792e-09
1.79195e-09
-1.16026e-06
-4.6253e-10
-8.22181e-10
-2.49801e-10
3.99987e-11
1.16817e-07
2.26072e-09
1.38009e-05
-0.000235272
1.73432e-11
-0.000122869
1.38569e-10
-0.000945955
1.30246e-09
4.68961e-11
-8.64135e-11
-0.000886346
2.67525e-11
-6.12906e-11
2.85389e-11
0.00159022
-3.33721e-11
3.99685e-10
5.02124e-08
-1.24435e-10
-1.2369e-10
-3.50344e-10
-2.12775e-10
0.000235978
-3.31252e-10
4.0051e-09
8.05306e-05
1.02504e-10
-0.000269814
-4.41836e-11
-7.09896e-11
-1.59243e-05
9.21912e-09
-5.04102e-09
1.30285e-11
1.35947e-09
-2.23526e-12
2.08279e-08
5.57678e-05
1.49783e-10
2.16726e-09
4.85566e-12
0.00107146
8.1707e-10
8.94918e-10
-1.62382e-10
3.493e-09
-2.89143e-10
7.67935e-09
-3.06177e-10
2.41221e-06
4.45338e-11
0.00106053
2.12048e-08
1.91382e-09
1.40902e-11
6.85581e-05
1.5472e-09
-2.51905e-07
3.10408e-10
1.89465e-09
2.68157e-09
0.000313379
0.00152095
3.47542e-05
-2.57886e-11
8.71133e-12
1.29012e-08
-2.58518e-05
1.35962e-08
3.29777e-07
1.35089e-10
8.74533e-08
-7.07164e-09
-4.35221e-05
4.20542e-09
2.57926e-09
0.000394315
-5.58494e-11
0.00037258
2.67101e-08
8.34115e-11
1.0415e-09
1.43311e-09
7.19929e-09
0.000155656
1.69266e-09
9.39597e-09
3.76694e-09
0.000341108
0.000257046
5.7797e-10
6.56225e-11
0.000137145
-1.04576e-10
3.4279e-10
0.000194659
-1.52045e-05
2.02046e-08
2.98173e-05
-1.37922e-10
-2.4467e-10
-1.28188e-05
3.15016e-07
2.54857e-08
-2.37291e-11
-2.80469e-11
6.95434e-07
-2.25102e-11
-2.99242e-10
2.41652e-10
-7.80846e-13
2.03227e-08
2.55871e-11
5.13909e-06
1.17528e-09
0.00139041
1.89772e-08
4.57801e-09
8.44718e-09
-3.24183e-05
-1.08763e-08
3.09169e-09
2.84274e-10
1.43457e-09
-3.66927e-10
2.0824e-09
1.46081e-09
-1.80211e-05
3.19344e-06
-2.2727e-10
-2.8884e-05
6.73856e-10
1.57243e-08
-0.000522463
-4.66391e-05
7.7218e-10
2.09956e-11
-0.000517687
-2.93401e-05
0.000896362
-4.51174e-10
-8.81936e-11
3.60809e-07
-5.1587e-10
-5.9678e-10
9.28697e-10
-1.86292e-06
1.27452e-06
6.25593e-05
1.71821e-11
1.13616e-09
4.48124e-09
2.42964e-05
5.75629e-12
2.03812e-11
-1.4892e-06
-4.34778e-05
6.92327e-11
-8.13828e-11
-8.61904e-11
2.4198e-08
5.41517e-09
-6.43104e-07
-5.96166e-11
-3.0307e-05
5.42644e-10
0.000473045
-3.19719e-12
3.04845e-07
3.72583e-10
-2.02681e-11
1.59186e-08
-2.37513e-11
2.21084e-08
1.13952e-09
5.32783e-08
0.000104686
0.000260918
-3.24514e-06
-4.82416e-11
0.00243529
1.37898e-08
-0.000785992
4.43034e-09
-1.53818e-08
1.37147e-09
-3.74007e-07
0.00247625
2.57849e-08
4.73685e-10
-9.78733e-06
0.000871253
1.23966e-11
1.96776e-11
-6.4922e-10
2.06201e-12
-9.28354e-07
5.87132e-10
5.36129e-11
7.47135e-11
-2.49654e-08
2.85987e-10
-3.49804e-12
-1.05335e-09
3.34396e-10
-4.43011e-12
1.64143e-07
-1.18553e-10
1.42133e-10
6.82453e-09
-8.42466e-12
9.16994e-05
1.50453e-09
-8.54332e-11
-9.11498e-11
1.98813e-07
-7.16477e-11
3.48778e-07
-0.000174915
-2.02808e-11
5.8457e-06
1.81808e-10
-1.54546e-11
-7.78257e-09
6.59555e-11
-4.54244e-05
2.44692e-08
9.73241e-10
2.19592e-08
0.00027519
1.2362e-10
9.39803e-05
2.8079e-08
2.92831e-09
7.70398e-07
-1.32609e-05
1.13432e-08
4.6339e-11
9.55345e-11
6.85207e-10
0.000781596
1.74351e-11
8.07446e-12
-1.26932e-08
0.000319888
-2.09563e-05
-0.000634825
2.75893e-11
6.1706e-10
4.25529e-05
6.47673e-06
0.00119343
0.00014188
-5.13405e-05
-4.80723e-10
-6.88592e-08
-7.90707e-11
5.77511e-11
-7.5013e-06
0.00251582
0.000237235
0.000823355
7.40048e-08
4.89761e-05
6.14118e-10