/*--------------------------------*- C++ -*----------------------------------*\
| =========                 |                                                 |
| \\      /  F ield         | OpenFOAM: The Open Source CFD Toolbox           |
|  \\    /   O peration     | Version:  v2012                                 |
|   \\  /    A nd           | Website:  www.openfoam.com                      |
|    \\/     M anipulation  |                                                 |
\*---------------------------------------------------------------------------*/
FoamFile
{
    version     2.0;
    format      ascii;
    class       volScalarField;
    location    "150";
    object      k;
}
// * * * * * * * * * * * * * * * * * * * * * * * * * * * * * * * * * * * * * //

dimensions      [0 2 -2 0 0 0 0];


internalField   nonuniform List<scalar> 
18232
(
0.0118879
9.08454e-05
0.000103138
0.000109655
0.000115709
0.000263127
0.000110839
0.000134425
0.000114377
0.000114655
0.000108682
0.000106339
0.000111043
0.0108596
0.000109179
0.00262194
0.000124456
0.00014127
0.000110904
0.000151673
0.00050673
0.000104736
0.000108796
0.000101504
0.000108186
0.000108394
0.000104172
0.000261915
0.000141782
0.00010352
0.000147551
0.0396534
0.000130581
0.0452527
0.0312076
0.000271322
0.0119451
0.000133713
0.0165748
0.000147178
0.0305264
0.000102236
0.000125436
0.0168223
0.000115603
0.0199985
9.03074e-05
0.000102407
0.000167206
9.24035e-05
0.000121686
0.000138775
0.0246834
0.000101384
0.000112674
0.000171391
0.000125286
0.000126061
0.0920565
9.26919e-05
0.000109011
0.000114845
0.000101893
0.000109849
0.000120625
9.57747e-05
0.0181687
0.0411937
0.000103965
0.000102203
0.000124832
0.000109097
0.0396443
0.00312489
0.000117075
0.000892246
0.000104116
0.000109227
0.0136245
0.00010618
0.0429301
0.000113777
0.000102205
9.95228e-05
0.0237628
0.000170722
0.000104542
0.000111045
0.000113001
0.000109361
0.000111424
0.000103488
0.00014604
0.000163581
0.000111685
0.000102231
0.000115196
0.000105844
0.0137847
9.90882e-05
0.000113014
0.000101009
0.00348356
0.000115012
0.000244459
0.000106289
0.000103687
0.000150235
0.000138189
0.000101756
9.59248e-05
0.00121733
9.32013e-05
0.000111092
0.000122117
9.91292e-05
0.000113464
0.0209019
0.000108882
9.89975e-05
0.000123139
0.000133207
0.00449522
0.000380851
0.010289
0.000123531
0.000182322
9.45131e-05
0.000464681
0.00122063
0.000102571
0.000105089
0.00010886
9.32075e-05
0.028137
0.000717445
0.000172979
0.000143872
9.23396e-05
0.0179377
0.000111659
0.000106404
0.0625949
0.000115962
0.000106953
0.000105739
0.000108394
0.000147905
0.0291889
0.000139605
0.0115636
0.000101942
0.000115815
0.000103993
0.000108742
0.0344673
0.000312581
0.000119246
0.000239498
9.25416e-05
9.10598e-05
9.29576e-05
0.000103882
0.0208251
0.0398523
0.000116832
0.000131095
0.0619533
0.000107873
0.0232419
0.000101798
0.00013535
0.00010286
0.0001048
0.00010694
0.0118498
9.94205e-05
0.000147689
0.0296518
0.000123233
0.000157116
0.0161872
0.00010961
0.00345343
0.0111541
0.000149294
9.82302e-05
0.0267831
0.00014619
0.0254228
0.000107242
0.00010912
0.000114596
0.0262432
0.00011649
0.00010448
9.30796e-05
0.00010953
0.00010036
9.88932e-05
0.000147608
0.00010103
0.000113958
0.00079841
0.000145431
0.0319997
0.000693765
0.0446125
0.000139331
0.000104286
0.000102496
0.000108462
0.000112319
0.00832934
0.00398165
0.000101022
0.000117006
0.000103257
0.000104075
0.000106128
0.0286029
9.28921e-05
0.0516091
0.000101737
0.000100097
0.000102053
0.000142561
0.000101307
0.000123695
0.000132849
0.000114907
0.000107965
0.0648491
0.000283574
0.000130264
0.02079
0.000109786
0.000215822
9.21043e-05
0.000136413
0.000114759
0.0132914
0.000214579
0.000112062
0.0150877
0.0250985
0.000145839
0.071548
0.0407412
0.000103899
0.000182067
0.000182139
9.79867e-05
0.000138821
0.000104809
0.00224764
0.00215741
0.0528175
0.0174282
0.000161579
9.99888e-05
0.0001012
0.000143158
0.000147037
9.62916e-05
0.000144466
0.0178368
0.000235291
0.000180822
0.00049038
0.000105163
0.0495717
0.000179386
0.000109254
9.78269e-05
0.0259906
0.000101497
0.000109876
0.000135254
0.0103326
0.0187591
9.91155e-05
9.28325e-05
0.0225974
0.000177543
0.000109939
0.000106232
0.018902
0.000102588
0.000112179
0.000108769
0.000104579
0.0273157
0.000106931
0.00010224
0.000473494
0.0229871
9.21828e-05
0.000114682
0.000102631
9.54747e-05
0.000138498
0.0289755
0.00018026
0.0001396
0.000125824
0.000124668
9.84382e-05
0.000125432
0.0249988
0.000112313
0.00012162
0.000140992
0.000104253
9.28722e-05
0.000106959
0.0238423
9.37951e-05
0.0191642
0.000123577
0.0107734
9.92513e-05
0.000119274
0.000525037
0.000111459
9.61565e-05
0.00015312
9.92641e-05
9.85511e-05
0.000102556
0.000101055
0.0001128
0.000117349
0.0756999
0.000155619
0.0334083
0.000537096
0.0394188
0.000104284
0.0001037
0.000133449
0.000523184
0.000146728
9.14388e-05
9.42537e-05
0.000143873
0.0237764
0.0001057
0.000124976
0.000109864
0.00274796
0.000111141
0.000111211
9.66466e-05
0.000104398
0.000106276
0.000171627
0.0215932
0.000131888
0.000122558
0.00100089
0.000122642
0.0829531
0.000109723
0.0165266
0.000107213
0.000129289
0.0208956
0.00010616
0.038745
0.000414026
0.000301314
9.11847e-05
0.0469699
9.89699e-05
9.93755e-05
9.32318e-05
0.000109456
0.0018488
0.0101058
0.000107056
0.000104336
0.000147652
0.000106558
0.0444168
9.81094e-05
0.000113366
0.000108787
0.000115651
0.000102725
0.00011404
0.00014865
0.0295555
9.84661e-05
0.0123184
0.000103859
0.00239575
0.000109905
0.000965881
0.000110366
0.000326295
0.00344984
0.000138613
0.0891222
0.000104215
0.000132366
0.000107939
0.000137647
0.000121942
0.000224267
0.0107816
0.0524305
9.83303e-05
9.93731e-05
0.0108443
0.000183645
0.000118748
0.000144147
0.0179371
0.000109299
0.000103487
0.000134187
0.000108476
9.91491e-05
0.013206
0.000130729
0.000117183
0.000107227
0.000129329
0.000150159
9.47834e-05
0.000167185
0.0240653
0.000110049
0.000116351
0.000122766
0.000123092
0.000132386
9.38808e-05
0.000109998
0.000112948
0.000162168
0.0305173
0.000120167
9.84979e-05
0.000118613
0.000105754
0.000106554
0.000114505
0.00012617
0.0302513
0.000105617
9.38445e-05
0.000121873
0.00163561
0.000108641
0.0362578
0.000144866
0.000171911
0.000106414
9.91149e-05
0.000204912
0.000105588
0.000891079
9.99696e-05
0.000116662
9.91963e-05
0.000104425
0.000110429
0.000106567
0.000119091
0.027442
0.000133157
0.000183368
0.000150463
0.000132443
9.34135e-05
0.000297503
0.0310265
9.99627e-05
0.000141682
9.44991e-05
0.000123008
0.000108733
0.000144704
0.000120188
9.87696e-05
0.000100097
0.0198628
9.81204e-05
0.000125463
0.000244782
0.000108192
9.93815e-05
0.000130898
0.000128697
9.98835e-05
0.000381163
0.00222763
0.000125922
0.000110315
9.62762e-05
0.000107879
0.00021154
0.0240641
0.00015765
0.000117349
0.000102874
0.000111326
9.85252e-05
0.0212466
0.000105404
9.95372e-05
0.0126353
9.52905e-05
0.000117162
0.000113565
0.000124611
9.89132e-05
9.79348e-05
0.000107957
9.61164e-05
0.000107966
0.0749691
0.015087
9.81797e-05
9.63336e-05
0.000116221
0.000101802
0.0216823
0.000126239
0.000169581
0.000220101
0.000131162
0.0351613
0.000110478
0.00106547
0.000115847
0.0335424
0.000192887
0.000108994
0.000113499
0.000111021
9.4176e-05
0.000126902
0.000166646
0.0163482
0.000108608
0.000108171
0.00015219
0.000120557
9.8502e-05
9.87952e-05
0.000124902
0.0202848
0.0242062
9.67455e-05
9.37909e-05
0.000116473
0.000997258
0.0239573
0.000147622
0.000194444
0.000139898
0.000601769
0.00012004
9.97969e-05
0.00269329
0.0016831
0.000144235
0.000124427
0.000109333
0.0132444
9.87884e-05
9.78348e-05
9.37109e-05
0.0846204
0.000108225
0.0214565
0.000104657
0.0279383
0.000116418
0.0212199
0.000118446
0.000112427
0.000127093
0.000116599
0.000102435
0.00954272
0.0168667
9.84006e-05
0.000127951
0.000218088
0.00010499
0.0600495
0.000103738
9.40324e-05
0.0389366
0.0280918
0.000102766
0.000103572
0.000100074
0.0591511
0.000117258
9.20403e-05
0.000111401
0.000126788
0.0154527
0.00012841
0.000119836
9.29883e-05
9.89083e-05
0.000108894
0.000134681
0.000109787
0.000123494
0.000104964
0.0295184
0.000123561
0.000115345
0.000104599
0.000140327
0.0060038
0.0153938
0.000104568
0.000148125
0.000138486
0.0508529
0.000102141
9.8717e-05
0.000118286
0.000109808
0.00013023
0.000109836
0.0164623
0.0317108
0.0418505
0.016325
0.0281598
0.000101688
0.000177915
0.000679066
0.000147254
0.000477417
9.85067e-05
0.000117761
0.000114187
0.0515222
9.71032e-05
0.000106764
0.0316233
9.22798e-05
9.97083e-05
9.38306e-05
0.0127477
0.00014547
0.000104816
0.000436027
0.000109424
0.00268152
9.62748e-05
0.000103094
9.56879e-05
0.000107967
9.92845e-05
0.000122841
0.000136003
0.000102754
9.88629e-05
9.33804e-05
0.000114061
0.0344805
0.0138265
0.000105222
0.0135916
0.000134322
0.0159254
0.00013323
0.000125005
0.055617
0.000104285
0.000108124
0.0228689
0.000130491
9.70976e-05
0.0125417
0.000299266
0.000109661
0.000102712
0.0335411
0.000107234
0.000111707
0.0053131
0.0205434
0.000116817
0.000136453
0.0208147
0.000109627
0.000101397
0.0976176
0.00013735
0.0255808
0.000109046
0.0785395
0.000102564
0.000114957
0.0107425
0.000136595
0.000122646
0.000109045
0.059033
0.000242529
0.000125261
0.01254
0.000146465
0.000103139
0.000102986
0.0138232
0.000106511
0.000131109
0.000111765
9.76073e-05
0.000112516
0.0409605
0.000146527
0.0263332
0.000147016
0.000351672
0.000138182
0.000136552
0.00010291
0.00010428
0.000102285
0.000107095
0.000110004
0.000147034
0.00944974
0.000109992
0.000113791
0.0119687
0.000102099
0.0254082
9.76128e-05
0.000425098
0.0529073
9.45421e-05
0.0651917
0.000127212
0.0777626
0.000413801
0.0119246
0.000113828
9.85997e-05
9.25729e-05
0.000171885
0.0349254
0.000354748
9.31469e-05
0.000139561
0.0222327
0.0466937
0.000434614
0.000113137
0.000247798
0.000102966
0.000103606
0.0444028
0.000111493
0.0651046
0.000104048
9.96689e-05
0.0461763
0.0337425
9.85127e-05
0.000112688
0.000108345
0.0123586
0.000103012
9.78989e-05
0.000107913
0.000182208
0.000155381
9.40028e-05
0.000147911
0.000139466
0.000146571
0.0643228
0.000129508
0.0255267
0.0093016
0.000129561
0.000153731
0.0126705
0.00010574
0.000102368
0.000116291
0.0136078
9.57672e-05
0.000101709
0.029538
0.000109806
0.0115601
0.000112162
0.000139857
0.00010513
0.00011692
0.000116139
0.0686239
0.000110211
9.77931e-05
0.010562
0.000104832
0.109604
0.0203465
0.000227946
0.00411837
0.000391336
0.000109436
0.000112154
0.000166042
0.0256554
0.000112114
0.000103456
0.00490024
9.40826e-05
9.82903e-05
0.000107492
0.0295183
0.0001044
0.00372332
0.000130865
0.000115628
0.00896822
0.000118151
0.0558747
9.34101e-05
9.87827e-05
0.000108413
0.000602703
0.000106909
0.000101326
0.000118061
0.0542728
0.000107144
0.00254259
0.000124232
9.69608e-05
0.00011299
0.000100619
0.000147375
0.000103325
0.000107499
0.0264715
0.0659308
0.000109258
0.00477179
0.00013403
0.000106512
9.95592e-05
0.000139165
9.95593e-05
0.000119248
0.000114993
9.83698e-05
0.000146955
0.000110565
0.000115878
0.000145339
0.100311
0.00015443
0.000140532
0.00011364
0.00358388
0.033579
9.81604e-05
0.0112008
0.00737641
0.000105356
0.000127181
0.0116584
0.0107109
0.000156025
0.000136058
0.000411668
0.000111115
0.015914
0.095854
0.0130862
9.86564e-05
9.67168e-05
0.00091327
0.000131117
0.000147246
0.000115699
0.00013743
0.000331763
0.000100151
0.000128907
9.7894e-05
0.00010818
0.00014769
0.0125641
0.000331957
0.000106637
9.79936e-05
0.0622683
9.85061e-05
0.0491201
0.000123915
0.000126711
0.00870852
9.55023e-05
0.000109648
0.000113424
0.000100459
0.000118557
0.000136143
0.0315755
0.000126934
0.000133951
9.98685e-05
0.000113682
0.0312621
9.94439e-05
9.84941e-05
9.32599e-05
0.000146596
0.000253108
0.000113238
0.00724016
0.00886116
0.000109394
0.000140097
9.65816e-05
0.000103213
0.000118849
9.18538e-05
0.000147895
0.000175933
0.000109082
9.69357e-05
0.000127195
0.000129064
0.000139483
0.000117838
0.0131119
0.00654414
0.000286658
0.000113091
0.000386377
0.000107151
0.000133634
0.0653987
0.0656978
0.000102896
0.000115317
0.000345203
0.0372141
0.00011308
0.000112664
0.0481776
0.0127443
9.82658e-05
0.000114572
9.2591e-05
0.0106677
0.000138239
0.000149399
0.000378948
0.0253572
0.0176883
0.000134997
0.000188075
9.31132e-05
9.96134e-05
0.000120677
9.62224e-05
0.00070453
0.000116007
0.0422044
0.000101166
0.00119471
0.013811
0.000105671
0.000392983
9.25236e-05
0.000107404
0.00011987
0.000135294
0.000145638
0.000113854
0.0001025
0.011573
0.000101425
0.028296
0.000129472
0.000109814
0.000111103
0.000128475
0.000109008
0.0100418
0.000117702
0.000161328
0.000111187
0.0140048
0.0162128
0.000673976
0.000172283
0.0117755
0.000128894
0.0412002
0.000101173
9.37118e-05
0.000220648
0.0222209
0.0361838
9.71444e-05
9.69359e-05
0.000453425
0.000146297
0.000570123
0.000102851
0.0137141
9.43425e-05
0.000128584
0.000105585
0.00131554
0.000145864
0.000102619
0.000145809
0.000113587
0.000257239
0.03319
0.000115063
0.000104411
9.93963e-05
9.62631e-05
0.000105579
9.23535e-05
0.000102746
0.000195544
0.000104127
0.01367
0.000106663
0.000129911
0.000101091
9.81081e-05
0.0540239
0.000102783
0.000109882
0.00589025
0.0334015
0.0428374
0.084226
0.0759233
0.00010393
0.000112381
0.000146958
0.000104017
0.000112478
0.00032671
0.019119
0.000215527
0.000117861
0.000112009
0.0374958
0.0214221
0.000122677
9.58322e-05
0.0173788
0.000725973
0.000104096
0.000109805
9.20006e-05
0.000113663
0.000102933
0.0119552
0.000100588
0.0440284
9.32354e-05
0.000105512
0.0284787
0.00107873
0.00010392
0.000103989
0.000101127
0.000110282
0.000111424
0.000142782
9.32041e-05
9.49065e-05
0.000109341
0.0154479
0.000126634
0.000112226
0.00199352
0.00010141
0.000111092
9.11674e-05
0.000116978
0.000272619
0.000104774
9.82311e-05
0.000104044
0.000143953
0.000105893
0.000107186
0.000101553
0.000106093
0.000119666
0.000115835
0.00130746
9.55081e-05
9.85628e-05
0.000126081
9.53465e-05
0.000112136
0.0135278
0.000101792
0.0594548
0.000110512
9.81003e-05
0.000129169
0.000134086
0.0500386
9.96705e-05
0.000148729
0.035509
0.0162611
9.84544e-05
0.000110794
0.000102967
0.0509339
0.000340075
9.47561e-05
9.21922e-05
0.000103996
0.0567045
9.64466e-05
0.0100331
0.022197
9.30013e-05
0.000110617
0.000148486
0.0568463
0.000109041
0.000117948
0.000131421
0.00016529
0.0318285
0.000111489
0.000257885
0.0314884
0.0439543
0.000124812
0.000147319
0.00092941
0.0922354
0.000119136
0.000168559
9.23122e-05
0.000142285
0.000114259
0.000114405
0.000107829
0.0366064
0.000147854
0.000107688
0.000100942
0.000118243
0.00205421
9.80838e-05
0.000172723
9.86922e-05
9.88427e-05
0.00399912
0.000146228
0.000104117
0.000109892
0.000117221
9.55021e-05
0.000110189
0.0140653
0.000174619
0.000135936
0.000106558
0.000316905
9.07859e-05
0.000101028
0.0299913
0.0124122
0.000115298
0.000101652
0.000117842
0.000106752
0.000110881
0.000107522
0.000143446
0.000115078
0.000103433
9.14654e-05
0.000108307
0.000634254
0.108939
0.000145283
0.00153773
9.9685e-05
0.000138993
9.83875e-05
0.000119354
0.000104141
0.000106032
0.0409682
0.000128371
0.0001044
0.000375776
0.0001199
9.49925e-05
0.000107028
0.0707507
0.000111374
0.000108312
9.83319e-05
0.000164994
9.13095e-05
0.000104084
0.00111938
9.92773e-05
0.000139739
9.90944e-05
0.000103303
0.000104331
9.70666e-05
0.000102866
0.0158295
0.000124108
0.000135946
9.48371e-05
0.000101345
9.23525e-05
0.000105953
0.000110289
0.000108664
9.33656e-05
0.000178699
0.0245594
0.0141398
9.67556e-05
0.00013115
0.000108497
0.0329818
0.000103889
0.000114135
0.000106312
0.000205915
0.000148692
0.0222789
0.000110464
0.0649525
0.0419098
0.0118759
0.102974
0.0753093
0.000113629
0.000115044
0.000110862
0.000121771
9.64333e-05
0.000115283
0.000137061
0.00138661
0.000868777
0.000101091
0.000101036
0.000124981
0.000596807
9.06249e-05
0.0001044
0.0320519
0.000407713
0.0320866
0.000140085
0.000116929
0.0248612
0.0950639
9.41986e-05
0.000101653
0.00217773
0.000293334
0.000163613
9.97817e-05
9.64789e-05
0.000112796
0.000146297
0.000100392
0.0933352
0.000127927
0.000136998
0.0534172
0.000147804
0.000102255
0.000118585
0.000124968
9.6602e-05
0.000319996
0.000107231
0.000103745
0.000100665
0.0245108
0.000102876
0.000101657
9.37735e-05
0.000156544
0.00120314
0.000109446
0.00010655
0.000105964
0.000278633
0.0174986
0.000100913
0.000111719
0.000147786
0.0192721
9.94799e-05
0.000112701
0.000100064
0.000149239
0.000103915
9.4954e-05
0.000114136
0.0308962
0.00452786
0.00225037
0.000109833
0.0161008
0.000129496
0.0205882
0.000125225
0.000130826
9.48407e-05
0.000110449
9.32531e-05
0.0504756
9.60835e-05
9.44933e-05
0.000100241
0.00011609
0.0281781
0.000109707
0.00014354
0.000102615
0.000238445
0.000141478
0.000521284
0.000107618
9.64524e-05
0.000157954
0.000458812
0.0199475
0.0475188
0.000112258
0.0283842
9.58754e-05
0.000111692
0.000120005
0.00173521
9.13838e-05
0.101855
0.00207318
0.000124217
0.056019
0.00010228
0.000101945
0.000103571
0.000175741
0.000120762
0.000136188
0.000106578
0.000125995
9.95837e-05
0.000100539
0.000102815
0.000130709
0.000110334
0.0388853
0.0177425
9.55489e-05
0.00830772
0.000839231
0.0650564
0.000104281
0.0001224
0.000112787
9.8216e-05
0.000118248
0.000137465
0.000102945
9.43128e-05
0.000147105
0.000104502
0.000117911
0.000130244
9.41606e-05
0.000103393
0.00010058
0.000107449
0.000146873
9.94751e-05
0.000101041
0.0142239
0.000129169
0.000105347
0.00552486
0.000101925
0.0156605
0.0494827
0.0187827
0.000107795
0.000101875
0.000111446
9.92317e-05
0.000114797
0.000113865
0.000106905
0.000109831
0.054594
0.000111781
9.36073e-05
0.0334003
0.0310473
0.000105796
0.000577974
0.00016478
0.000100548
0.000139387
0.000307991
0.000108738
0.000101407
0.000129528
0.000114579
0.00010709
0.0162362
9.66498e-05
0.000148801
0.000119023
9.05347e-05
0.0465233
0.000109432
0.000118492
0.000111663
0.0172754
0.000114628
0.000102889
0.0887562
0.000113562
0.000104405
0.028443
0.000123234
0.00229665
0.000141795
0.000107818
0.00012096
0.00046226
0.111285
0.000132754
0.000146253
9.18629e-05
0.000127497
0.0285053
0.000106421
0.000107471
0.000675534
0.0185694
9.53889e-05
0.00027666
0.000101047
0.000117884
0.000104381
0.0106501
0.0244396
0.000122789
0.00133438
0.0118107
9.9198e-05
0.0134986
0.000103461
0.032279
0.0556178
0.000113375
0.000120515
0.0412943
0.0168417
0.000107471
0.0450823
0.0015932
0.00648231
0.000114942
0.000115368
0.000109089
0.000822384
0.000148613
9.34873e-05
0.000110299
0.048794
9.36127e-05
0.0581773
0.000109672
0.000101674
0.000115808
0.0115766
0.0203149
0.000106986
9.91097e-05
0.000902146
0.000103814
0.00010472
9.35402e-05
0.000104378
0.0414144
0.000106846
0.000112367
0.000135903
0.000113162
0.000100652
0.000259084
0.000163183
0.000106067
0.000140576
0.000114462
9.90686e-05
0.00010578
9.95588e-05
0.000110609
9.14514e-05
0.000139873
0.0313177
0.000291419
0.000101157
0.000111525
0.000686561
0.000101508
0.0018307
0.000110349
0.000176986
0.000158481
0.000100154
0.000107017
0.000131193
0.000106065
0.000107042
0.0107607
0.0206597
0.000106338
9.17516e-05
0.00010767
0.000110041
0.000106892
0.000107862
0.000273452
0.0392278
9.31881e-05
0.023701
0.000112775
0.000107358
0.000250553
0.000103497
0.000126692
0.000101156
0.00010585
0.000141041
0.000271361
0.000114765
0.0138722
0.000128829
9.62177e-05
0.0354585
9.75221e-05
0.0265318
0.0749689
0.00144761
9.15201e-05
0.000133424
0.00010784
0.0390045
0.000100626
0.000480167
0.0583116
0.000334223
0.00292659
0.000111641
0.000103774
0.000115435
9.92247e-05
9.11847e-05
0.000132492
0.000107313
0.000133673
0.000100572
0.000146292
0.029512
0.000111588
0.000122387
0.000108123
0.000100939
0.00775346
0.0282485
0.000108087
9.62947e-05
0.000117991
0.000886405
0.0001008
0.0662006
0.000106952
0.000132024
0.000114386
0.0154958
0.000100811
0.000116799
0.000143888
0.000113382
0.0034671
9.68245e-05
0.000103382
9.80549e-05
0.000147796
0.00012555
0.000108295
0.000189705
0.000225321
0.00060898
0.000143671
0.000130112
9.66301e-05
0.000135833
0.000105859
0.000118658
0.000116954
0.0224403
0.057671
0.000103937
0.00732639
0.011031
0.000111179
0.000127382
0.000110798
0.000123346
0.0376972
0.000138691
0.000108223
0.00028833
0.000125903
0.00423332
0.000160058
0.000114191
9.81233e-05
0.000134393
0.0455973
0.000105636
0.0133815
0.000157167
0.0287945
0.0364535
0.000103317
0.0244717
0.00014905
0.00520334
9.32192e-05
0.000661666
0.057921
9.30502e-05
0.000110306
0.000102998
0.0159165
0.000139355
0.000103937
0.000111211
0.000339875
0.000168504
0.000125444
9.93225e-05
9.30798e-05
0.0686984
0.00035466
0.000106816
0.0109099
0.000146566
0.0125474
0.000291863
0.000100912
0.00015814
0.000125831
0.000113929
0.00369499
0.000112416
9.18366e-05
0.000111172
0.000119036
0.000117853
0.000130269
9.89625e-05
9.89917e-05
0.000134054
0.000118774
0.000290034
0.000135117
0.000114287
0.00105195
0.000145661
9.63069e-05
9.76243e-05
0.000322195
9.67112e-05
0.000113855
0.00892178
0.000249888
0.000897994
0.00281223
0.000129487
0.000125219
0.0110515
0.000107395
9.82294e-05
0.000381983
0.000100289
9.61351e-05
0.000135272
0.000137882
9.81551e-05
0.000101887
0.000308291
0.000112975
0.000105613
0.00010772
0.0113772
0.000104172
0.000100874
0.0365779
0.0001165
0.000251441
9.11447e-05
0.000548236
0.00193262
0.0184379
0.000117146
0.000102908
0.000193263
9.64944e-05
0.000100845
0.0747231
0.000102775
0.000170306
0.000108153
0.000115531
0.000645318
0.000100799
0.000101651
0.0438399
0.000100542
0.000138161
0.00010732
0.0326611
0.0341071
0.000117182
0.000145682
0.00011913
0.000118148
0.000101868
0.000153182
0.0337009
0.000141362
0.00011431
0.00035212
0.000100128
9.37368e-05
0.000518887
0.0703404
0.0400608
0.000101241
0.000123066
0.000101186
9.19498e-05
9.82488e-05
0.00013204
0.000428646
0.000108872
0.0174892
0.0141266
0.000123335
0.043495
0.000109852
0.000102579
0.000107275
0.000504619
0.000111209
0.000100826
0.000836424
0.00181104
0.000149497
0.000103189
0.000339034
0.000100004
0.0107936
0.000102874
0.000108191
0.0480625
0.000103186
0.000240133
0.000102822
0.000147357
0.0456047
0.000473236
0.0131388
0.0124047
0.000105901
9.22281e-05
0.000119957
9.71418e-05
0.000107487
0.0190226
0.000168771
9.57174e-05
0.000106834
0.000121424
0.000101488
0.000399298
0.000180047
9.76087e-05
0.000100582
9.63506e-05
9.99443e-05
0.000443395
0.000106586
0.000466328
0.0159985
0.000107681
0.000190884
0.000123783
0.000317224
0.0515008
0.000291542
0.0361662
0.000297244
9.17257e-05
0.0800468
9.74254e-05
0.0340974
0.000283225
0.00010699
0.000120692
0.000104361
0.0231402
0.00011083
9.15095e-05
0.000109934
0.000103951
0.000110484
0.000111222
0.000119388
9.79303e-05
9.76851e-05
0.0470256
0.0342524
0.00245653
0.000130104
0.00606336
0.0117576
0.0178382
0.000119146
0.0833485
0.000404841
0.0116924
0.000111919
0.000104038
0.000344831
0.00013358
0.0307418
0.000120575
0.0577319
0.000109979
0.000102674
0.000110381
0.000115809
9.72563e-05
0.000129484
0.000114642
0.0254498
0.000120567
0.000103119
0.000113609
0.000117304
0.000436749
0.000394943
0.000189632
0.0116383
0.000462082
0.00011872
0.0380853
0.00723481
0.0406667
0.000126121
0.000104496
0.000102523
0.000147256
0.000125398
0.000101146
0.0003061
9.59755e-05
0.00014028
0.02518
0.000127407
0.000131342
0.000183167
0.000108247
0.000107295
0.000548802
0.000113896
0.000110956
9.68199e-05
0.000122958
0.000129295
0.0698362
0.0853929
0.000158402
0.000135732
0.0121443
0.0581838
0.000110563
0.0446425
0.00229685
0.000141572
0.000185466
0.000144628
0.0470643
0.000115512
0.000132517
0.0242476
0.0119672
9.23353e-05
0.0133905
0.00014241
9.89711e-05
0.00511787
0.000101401
0.047306
0.000104474
0.000277033
9.56871e-05
0.000147621
0.000111341
0.000145099
0.000132319
0.00322729
0.000118524
0.103527
0.000119221
0.0161245
0.000476001
0.000140077
9.55506e-05
0.0249055
0.000109545
0.0112215
0.000110561
0.0207354
0.000187562
0.00172079
0.000161706
0.015259
0.000110955
0.0137493
0.000301961
0.000138985
0.000349951
0.000108841
0.000234112
0.104805
9.13512e-05
0.0001076
0.000109602
0.000112953
0.000510887
0.0328719
0.000146175
0.000191881
0.000105337
0.0553137
0.000114985
0.000121128
9.60849e-05
9.51154e-05
0.0217646
0.000408432
0.00524868
0.000107814
0.000122278
0.00813593
0.000138632
0.00010161
0.000134694
0.000116565
0.000124106
0.000100027
9.01967e-05
9.00988e-05
0.000104901
0.05221
0.000361797
0.000114218
0.0338265
0.000108617
0.000119734
0.00010029
9.84943e-05
0.0171554
0.000106766
0.0557959
9.9488e-05
0.000177858
0.000136524
9.43302e-05
0.000104873
0.000509869
0.000116315
0.000134322
0.000100832
0.000120875
0.000116463
0.000141365
0.0156319
0.000165742
0.0100197
0.0627519
0.00010823
0.0158269
0.000177254
0.000100435
9.64125e-05
0.000110803
0.00954216
9.24719e-05
0.000119602
0.000105515
0.000101607
0.000116334
0.00761182
0.00011072
9.62993e-05
0.00012954
0.000108114
0.000109169
0.000107356
0.000114299
9.14576e-05
9.05106e-05
0.000117739
0.000106546
0.000101182
0.0210085
0.000103717
0.000491695
0.000140668
0.000119765
0.000103769
0.000102643
9.82739e-05
0.000138689
0.0362043
0.000126408
0.000107265
0.000176883
0.038494
0.000997452
0.000107445
0.000159728
0.000115184
0.0132653
0.0498829
0.000677339
0.000114811
0.0613922
0.000112085
9.82915e-05
0.000203517
0.000108404
0.0439957
0.00012022
0.000103109
0.000104411
0.000103496
0.0255215
0.0199187
0.000103978
9.51012e-05
0.000540371
0.0101443
0.0568026
0.000119611
0.000425534
0.000110829
0.00170813
0.000103117
0.0137395
0.000161917
9.94986e-05
9.07707e-05
0.000168749
0.103353
0.000120417
0.000134415
0.0423652
9.84353e-05
0.000107785
0.000112918
0.000107456
0.000110926
0.0137414
9.16228e-05
0.00010811
0.000116011
0.000111415
0.00135917
0.000118414
0.00224135
0.0204617
0.000135591
0.0438912
9.4962e-05
0.0351425
0.000109604
0.000101562
9.63774e-05
0.0564684
9.99099e-05
0.000100412
0.00010747
0.0820579
0.000107207
0.00010674
0.000178632
9.8026e-05
0.000110809
9.02413e-05
9.92173e-05
0.0299254
0.000116278
0.000129576
0.0242763
0.000107042
0.0178717
9.91121e-05
0.000101239
0.0106762
0.000114366
0.000140278
0.000118968
9.65163e-05
0.000147624
0.000102866
0.0210301
9.77514e-05
0.00012833
0.000143349
0.0593669
0.000104875
0.000107878
9.13775e-05
9.60082e-05
0.000111232
0.000113136
0.000107909
0.000501106
0.00014168
0.0594997
0.000168442
9.62628e-05
0.000115275
0.0227759
0.000102491
0.000462539
0.000109199
0.000131281
0.000124273
0.0219128
0.0673045
0.0225766
0.000119949
0.00013165
9.85239e-05
0.0120857
0.000134519
0.000333598
0.000107267
0.000211062
0.000151623
0.0122482
9.57668e-05
0.000103021
0.0192204
0.000109516
0.0232745
0.000174125
0.000122074
0.000109278
0.000102969
0.000111957
0.023704
0.000109441
0.000132453
0.000131069
0.0299069
0.0169174
0.000110802
0.000101654
0.0387887
0.000111344
0.000104902
0.0129681
0.0167062
0.000143609
0.0172977
9.82219e-05
9.39491e-05
0.0110383
0.000255517
0.000193713
9.68984e-05
0.000105977
0.000640837
0.000106528
9.15259e-05
0.000107227
9.24742e-05
0.000143197
0.000101943
0.00104314
0.000115308
0.0679014
0.000144424
0.000118216
0.00012472
0.0180133
0.000166533
0.000130159
0.00013392
0.000106862
9.30409e-05
9.65753e-05
0.000131442
0.0194767
0.00445893
9.26438e-05
0.0110505
0.000112071
0.000154333
0.0486165
0.0138849
9.32209e-05
0.000125028
0.0491178
0.0105524
0.00919527
9.22261e-05
0.000107595
0.000487088
9.96281e-05
0.00012718
0.0001074
0.0157105
0.00172933
0.00153497
9.86745e-05
0.000105499
0.000116163
0.00246763
9.22403e-05
0.000118396
0.0105322
0.00982893
0.000127551
9.72125e-05
9.46623e-05
0.000118975
0.000100668
0.000447438
0.000109601
0.0110748
0.000103503
0.0321616
0.000147683
0.000435456
9.74479e-05
0.000110274
0.000163229
0.00011036
0.000116704
9.90234e-05
0.000178469
0.0426777
0.0273264
0.00117443
0.000125229
0.0966949
0.000135115
0.0377619
0.000132308
0.000176142
0.000114686
0.000355297
0.0943941
0.000187421
9.98178e-05
0.00650611
0.0520843
0.000116387
0.00011725
9.07347e-05
0.000101774
0.000532326
0.000103382
0.000102973
0.000103467
0.000176048
0.000101629
0.00014183
0.000134744
0.000105345
0.000139976
0.000268709
9.27855e-05
0.000110322
0.000112703
0.000131142
0.0233334
0.000109135
0.000124116
9.35214e-05
0.000314035
9.72067e-05
0.000355021
0.0639437
0.00010005
0.0139206
0.000106785
0.00011293
0.000144299
0.000110459
0.0110129
0.000180347
0.000108622
0.00016529
0.0187467
9.60767e-05
0.00740473
0.000158509
0.000111439
0.00064708
0.0120987
9.85123e-05
0.000100135
0.000121312
0.000133628
0.0387049
0.000130559
0.000103111
0.000169032
0.0287244
0.0137002
0.0565238
0.000104286
9.42088e-05
0.0197622
0.00122498
0.0623483
0.0152117
0.0154028
9.99158e-05
0.000278837
0.00011023
0.000108819
0.0115746
0.096174
0.0309769
0.0513548
0.000198758
0.00751444
9.43315e-05
0.000119525
0.0107789
0.000107279
0.000115871
0.000118451
0.000125874
0.0312175
0.000109883
9.90155e-05
0.000115579
0.0246677
0.000106534
0.000101184
0.000133787
0.000100917
0.0510403
9.18077e-05
9.63845e-05
0.000103481
0.000129977
0.000104125
0.000108018
0.0149018
0.000636931
0.000408966
0.0346429
0.0676072
0.00994253
0.000206497
0.0840847
0.000118421
0.0121658
0.0173329
0.000154212
9.31349e-05
9.22934e-05
0.000112392
0.000154301
0.000100716
0.000114979
0.000108742
0.000411814
0.000217519
0.0231459
0.000106546
0.000358503
0.00897238
0.00012586
9.05417e-05
0.000101905
0.000227832
0.0258161
0.000110951
0.0583807
0.000109686
0.000114912
0.0293163
0.0159668
0.000240962
0.000100599
9.57976e-05
9.66683e-05
0.000265906
0.000141423
0.000109927
0.000137871
0.000104025
0.000112731
0.000150212
0.000108044
9.54581e-05
0.0411555
0.000115909
0.000113662
0.00010715
0.0111471
0.000151589
0.0239912
0.000107838
0.000115811
0.000101261
9.67861e-05
0.000115642
9.64486e-05
0.000101158
0.000146038
0.000112379
0.000122077
9.85869e-05
0.000106924
0.00014036
0.000317996
0.000105932
0.018127
0.000205203
0.0166015
0.000263911
0.000359311
0.00014261
0.000158318
0.0379129
0.00011214
0.000104221
0.00262753
0.0588326
0.0130101
0.0096999
0.0220971
9.78066e-05
0.000124795
0.000133321
0.000102861
0.000173372
0.000160447
0.000121309
0.0166802
0.000128992
0.0398043
0.000203221
0.0199788
9.35498e-05
0.000103254
0.000112017
9.48108e-05
0.000127097
9.94184e-05
0.0906467
0.0125231
0.0130927
9.38852e-05
0.00345953
0.0433593
0.0222578
0.000108287
0.0184541
9.09285e-05
0.000131164
0.000171896
0.000114983
0.0470793
0.000113136
0.000299936
0.000118634
0.0178143
0.000124288
0.000115407
0.000108123
0.0158158
0.000118594
0.0197126
0.000277655
0.000116642
0.0231467
0.0468937
0.000121461
0.00983138
0.00012565
0.000122705