/*--------------------------------*- C++ -*----------------------------------*\
| =========                 |                                                 |
| \\      /  F ield         | OpenFOAM: The Open Source CFD Toolbox           |
|  \\    /   O peration     | Version:  v2012                                 |
|   \\  /    A nd           | Website:  www.openfoam.com                      |
|    \\/     M anipulation  |                                                 |
\*---------------------------------------------------------------------------*/
FoamFile
{
    version     2.0;
    format      ascii;
    class       volScalarField;
    location    "150";
    object      nut;
}
// * * * * * * * * * * * * * * * * * * * * * * * * * * * * * * * * * * * * * //

dimensions      [0 2 -1 0 0 0 0];


internalField   nonuniform List<scalar> 
18232
(
0.000362095
0.000453618
0.000455773
0.000458455
0.0004987
0.000802307
0.000458799
0.000465415
0.000494961
0.000496083
0.000458136
0.000494696
0.000487167
0.00103735
0.000473109
0.00167648
0.000462475
0.00046719
0.000458609
0.000593274
0.00110998
0.000457217
0.000458125
0.000456807
0.000467066
0.00046805
0.000456204
0.00080098
0.000467564
0.000455938
0.00046895
0.0175617
0.000464438
0.00702508
0.00554283
0.000812098
0.00129924
0.000465298
0.00444376
0.000468952
0.00482908
0.000484124
0.000524093
0.00223613
0.00045986
0.00487179
0.000452036
0.000484948
0.000631647
0.000452355
0.000461773
0.000466641
0.00388059
0.000478098
0.000499733
0.000646763
0.000462826
0.000463024
0.00464633
0.000452989
0.000472484
0.000459623
0.000462267
0.000458489
0.000530547
0.000455819
0.00237307
0.0185983
0.000456133
0.000462488
0.000462699
0.000457987
0.0179784
0.00191052
0.000524105
0.000854474
0.000459035
0.000458933
0.000401704
0.000457629
0.0202035
0.000511647
0.000481245
0.000456454
0.00520302
0.000645579
0.000456258
0.000458638
0.000510004
0.000497159
0.00045875
0.000455975
0.000468537
0.000630008
0.000458825
0.000462514
0.000459754
0.000457346
0.00509192
0.000454651
0.000483004
0.000477099
0.00192934
0.000490614
0.000780929
0.00046354
0.000455964
0.000604693
0.000466835
0.000461309
0.000455545
0.00104235
0.000452673
0.000458782
0.000461903
0.000463172
0.000511646
0.00497517
0.000492622
0.000463412
0.000462153
0.000465151
0.00440317
0.000944586
0.000768432
0.000519336
0.000676951
0.00045259
0.00106229
0.00104581
0.000455658
0.000457297
0.000492763
0.000452264
0.00597025
0.000767931
0.000643983
0.000467948
0.000452947
0.00467008
0.000497016
0.000463571
0.0402109
0.000460004
0.000482345
0.000474314
0.000470396
0.000469009
0.00534245
0.000558156
0.00707033
0.00048286
0.000516861
0.000458838
0.000495346
0.00673032
0.000639761
0.000526767
0.000726896
0.00045302
0.000453878
0.000452174
0.000456143
0.00366799
0.00544249
0.000460428
0.000530222
0.0387903
0.000460482
0.00468803
0.000455487
0.000465808
0.00045575
0.000457235
0.000458293
0.000374204
0.000456635
0.000468994
0.00542644
0.000462241
0.000602629
0.00454476
0.000457963
0.00198236
0.000357407
0.000469406
0.000455517
0.00510972
0.000468541
0.00266679
0.000461557
0.000457893
0.000495577
0.00527845
0.000460182
0.000456855
0.000452569
0.000458614
0.000455075
0.000454339
0.000468984
0.000467624
0.00048481
0.00159557
0.000592717
0.00499696
0.0013979
0.0197886
0.000557108
0.000481156
0.000455732
0.000470427
0.000481027
0.00405743
0.00223108
0.000467369
0.00052008
0.000455949
0.000456102
0.00045746
0.00542728
0.000453079
0.00669699
0.000460165
0.000455493
0.000455542
0.000564941
0.00045668
0.000462321
0.000464983
0.000459834
0.000460265
0.044599
0.000647865
0.000464352
0.00498222
0.000459106
0.000706539
0.000452304
0.000465994
0.000459805
0.00400469
0.000713429
0.000483057
0.00134338
0.00478717
0.000468486
0.00419618
0.00333952
0.00046098
0.000671019
0.000667781
0.000454205
0.000555874
0.000456878
0.00273942
0.00160829
0.00841262
0.00463191
0.00061252
0.000458467
0.000477209
0.000567568
0.000468878
0.000453621
0.000468142
0.00215329
0.000714887
0.000666858
0.000810586
0.000457359
0.0109576
0.000641153
0.000457831
0.00045417
0.00242612
0.000479425
0.000459004
0.000465679
0.000307528
0.0022363
0.000463531
0.000453687
0.00255665
0.000653324
0.000459147
0.000480569
0.00299836
0.000463089
0.000508044
0.000457757
0.000485433
0.00321298
0.000496739
0.000483957
0.00080505
0.00277061
0.000453201
0.000459577
0.00046215
0.000459653
0.000466548
0.00533096
0.000667876
0.000466925
0.000462955
0.000545266
0.000469305
0.000462821
0.00524296
0.000483921
0.000461832
0.000584371
0.000458318
0.000453694
0.000482664
0.00269872
0.000452472
0.00480867
0.000462371
0.00150633
0.000463169
0.000529342
0.00106404
0.000478138
0.000455414
0.000615654
0.000462926
0.000474101
0.00046315
0.000476764
0.000459048
0.00051948
0.0106594
0.000603348
0.0109144
0.000867308
0.00529892
0.000456216
0.000479814
0.000465147
0.00118972
0.000468726
0.000451469
0.000452633
0.000587178
0.00536379
0.000480112
0.000546689
0.000459196
0.00174036
0.000477549
0.000477612
0.000453747
0.000484383
0.000479787
0.000648298
0.00359122
0.000464781
0.000462068
0.0014928
0.000517612
0.00397472
0.000459209
0.00105274
0.000461762
0.000526597
0.00345707
0.000463255
0.00533947
0.000909501
0.000848067
0.000453922
0.00419909
0.000454302
0.000454743
0.000453114
0.000457876
0.0014662
0.00338861
0.000477307
0.000484683
0.000468988
0.000457847
0.00411195
0.000472936
0.000459555
0.000457633
0.000460094
0.000467974
0.000504134
0.000569856
0.00533876
0.000474427
0.00220199
0.000461481
0.00306569
0.000457987
0.00173222
0.000458194
0.000839285
0.00203524
0.000580432
0.00934637
0.000483966
0.000464883
0.000484648
0.000466344
0.000461815
0.000738884
0.00127385
0.00970831
0.000468534
0.000462848
0.0011799
0.000659148
0.000460909
0.000468068
0.00457254
0.000458635
0.000470476
0.000536341
0.00050301
0.000454527
0.00384041
0.000553107
0.000524283
0.000498049
0.000526606
0.000589953
0.000452822
0.000631164
0.00525509
0.000458975
0.000516767
0.000462054
0.000462182
0.000464834
0.000460055
0.000458519
0.000482169
0.000628598
0.00548725
0.000513429
0.000455475
0.000509317
0.000461467
0.000457732
0.000516532
0.000518667
0.00551593
0.000458118
0.000452386
0.000461852
0.00133325
0.000457712
0.00500719
0.000468241
0.000625559
0.000476014
0.000454509
0.000694965
0.000461116
0.000869949
0.000454815
0.000460385
0.000454342
0.00046517
0.000485226
0.000476092
0.000461001
0.00530254
0.000557848
0.000677332
0.000569353
0.000536624
0.000453633
0.000803087
0.00868282
0.000458657
0.000563472
0.000460903
0.000462248
0.000503738
0.000468229
0.000508845
0.000459305
0.000458227
0.00341527
0.000473554
0.000462918
0.000775028
0.000457583
0.000462531
0.000535188
0.000547775
0.000454667
0.000916427
0.00150647
0.00046286
0.000458577
0.00045803
0.000460238
0.000708575
0.00533309
0.000603377
0.000460498
0.000457047
0.000458413
0.000454851
0.00501168
0.000458273
0.000462685
0.00174285
0.000452902
0.000460437
0.000459564
0.00053006
0.000456375
0.000454312
0.000459999
0.00045556
0.000463976
0.0052051
0.00109837
0.000454785
0.000453613
0.000460118
0.000459699
0.0037538
0.000463138
0.000660127
0.000724697
0.000535999
0.0148092
0.000458419
0.000977613
0.000460007
0.00518841
0.000684684
0.000458942
0.000502713
0.000458455
0.000452491
0.000463245
0.000612768
0.00135288
0.000491555
0.000457546
0.000595144
0.000512422
0.000454131
0.000456551
0.000462743
0.00203519
0.00396704
0.000454487
0.000457614
0.00046038
0.000975186
0.00470439
0.000468986
0.000663507
0.00046699
0.000747761
0.000460993
0.000454633
0.00173103
0.002451
0.00056933
0.000462614
0.000458147
0.00157478
0.000458859
0.000454273
0.000453869
0.0055143
0.00046927
0.00479099
0.000456346
0.00297565
0.000460162
0.00457238
0.000522674
0.000458841
0.000536226
0.000460207
0.000485359
0.00377845
0.00298778
0.000454165
0.000463626
0.000720883
0.000456434
0.006028
0.000456828
0.000459871
0.00701373
0.00541926
0.000462167
0.000456789
0.000454679
0.0299116
0.000519523
0.000451872
0.000482839
0.000463308
0.000792165
0.000463767
0.000508324
0.000452655
0.000454941
0.000492185
0.000538191
0.000477695
0.000462241
0.000456472
0.00499654
0.000462429
0.00046
0.000456473
0.000467056
0.00533194
0.00286216
0.000481923
0.000584845
0.000554897
0.0253582
0.000458516
0.000455566
0.000460785
0.000458304
0.000464478
0.000457946
0.00428801
0.00461322
0.00547877
0.00150088
0.0050995
0.000481674
0.000660242
0.000773251
0.000468933
0.000717895
0.000454951
0.000506737
0.000513114
0.0267474
0.000461209
0.000457839
0.00467874
0.000453513
0.000461996
0.000457173
0.00264085
0.000573457
0.00045664
0.00107215
0.000505972
0.00168499
0.000458298
0.000455927
0.000458383
0.000500691
0.000454987
0.000540189
0.000540466
0.000455706
0.000455453
0.000453099
0.000459367
0.00287775
0.00218734
0.000457012
0.00174584
0.000543515
0.0031549
0.000564921
0.000462736
0.0313861
0.000464672
0.00046904
0.00397542
0.000464318
0.000461186
0.00390623
0.000823115
0.000458222
0.000467347
0.00638638
0.000458138
0.00045863
0.00247876
0.0049437
0.000491949
0.000549735
0.00184487
0.000473637
0.000482664
0.00533478
0.00056979
0.00568994
0.000495869
0.00462681
0.000481947
0.000459719
0.000306652
0.000466049
0.000462156
0.000457763
0.0298423
0.00075137
0.000462795
0.0040494
0.000468652
0.000484989
0.000473489
0.000699919
0.00049513
0.000536309
0.000458897
0.000453981
0.000459053
0.018367
0.000594067
0.00530864
0.000468855
0.000763359
0.000466506
0.000466144
0.000468138
0.0004562
0.000458133
0.000463018
0.000476619
0.00046883
0.00358437
0.000458045
0.000485162
0.000555244
0.00048305
0.00485324
0.000454005
0.000870145
0.0134218
0.000452741
0.00430534
0.00052618
0.00489541
0.000654164
0.00118551
0.000459328
0.000459094
0.000453494
0.000638514
0.00549603
0.000924206
0.000453659
0.00046685
0.00206117
0.0185177
0.00098737
0.000458976
0.000764713
0.000455751
0.00048033
0.0222443
0.000478572
0.0458616
0.000457964
0.000461696
0.02176
0.00512235
0.000459601
0.000458946
0.000493807
0.00382068
0.000473414
0.000453973
0.000500408
0.00067056
0.00058694
0.000456779
0.000596951
0.00046682
0.00046869
0.0104182
0.000529624
0.00302811
0.0068206
0.000543711
0.000596572
0.00171334
0.000457216
0.000464891
0.00049943
0.0043483
0.000455844
0.0004832
0.00511004
0.000476233
0.00302529
0.000458787
0.000466918
0.000456998
0.000493326
0.00046027
0.00831385
0.000492722
0.000457358
0.00121621
0.000488517
0.00284257
0.0047161
0.000727045
0.00222566
0.000849441
0.000458916
0.000458762
0.000625976
0.00479941
0.000487432
0.000479457
0.00503728
0.000456931
0.00045974
0.000457843
0.0105032
0.000456789
0.0020786
0.000552357
0.000459903
0.00372796
0.000495229
0.00423313
0.000453876
0.000454598
0.000457522
0.000735861
0.000457092
0.000479622
0.000460652
0.0294715
0.000458197
0.00172856
0.000544301
0.000461475
0.000459139
0.000457956
0.000577411
0.00045612
0.000459776
0.00904684
0.0468507
0.000473467
0.00239907
0.000465308
0.000456919
0.000462394
0.000466819
0.000462183
0.000510639
0.000490358
0.000468466
0.000468791
0.000479926
0.000489219
0.000468378
0.00521939
0.000611457
0.00046715
0.00045923
0.0020241
0.00565164
0.000454009
0.00282667
0.00310218
0.000456595
0.000463371
0.000328617
0.00783359
0.000613886
0.000572244
0.000660616
0.000458783
0.00457793
0.00551619
0.000673341
0.000464779
0.000461561
0.00104644
0.00054733
0.000468909
0.000519983
0.000575178
0.000846317
0.000454725
0.000463967
0.000457503
0.000457542
0.000468988
0.00144572
0.000780055
0.000457288
0.00045393
0.00472184
0.000459582
0.0257301
0.000462446
0.000463251
0.00335275
0.000458647
0.000485974
0.000459558
0.000454787
0.000461345
0.000465979
0.00447198
0.00046331
0.000465404
0.000454685
0.000459427
0.00874909
0.000454963
0.00046839
0.000452598
0.000591504
0.000769637
0.000459517
0.00299953
0.00365772
0.000457868
0.000466981
0.000461747
0.000456083
0.000461006
0.000451642
0.000468992
0.000645744
0.000484802
0.000461534
0.000540373
0.00054759
0.000466893
0.000460622
0.00067615
0.00315916
0.000797674
0.000490124
0.000945317
0.000457948
0.000465261
0.0457986
0.0465708
0.000469346
0.00045976
0.0008666
0.00353709
0.000459088
0.000484363
0.0199022
0.00147376
0.000472651
0.000489662
0.000458635
0.000346122
0.000466449
0.000469427
0.000727561
0.00673713
0.00265763
0.000565731
0.000646987
0.000453884
0.000454732
0.000461817
0.000464741
0.000949237
0.000460015
0.014333
0.000459202
0.00110265
0.000678667
0.000456692
0.0010391
0.000453687
0.000459773
0.000461748
0.000543475
0.000468564
0.000459479
0.000465621
0.00329918
0.000463806
0.00503565
0.000464064
0.000459312
0.000495084
0.000540575
0.00047568
0.00085724
0.000495488
0.000626083
0.000458688
0.00370068
0.0044018
0.00139399
0.000623427
0.0030089
0.000463887
0.0150311
0.000478605
0.000452748
0.000726518
0.00470058
0.00649473
0.000457709
0.000461817
0.000809451
0.000468414
0.0012362
0.000455801
0.000469145
0.000452559
0.000543797
0.000466052
0.00113584
0.000468507
0.000456776
0.000573404
0.000459634
0.000780454
0.0132531
0.000459799
0.000456723
0.000454532
0.000464559
0.000490607
0.000458038
0.000458327
0.00066779
0.000458276
0.00461187
0.000481139
0.000529849
0.000458494
0.000457265
0.0173769
0.000486318
0.000458024
0.00271107
0.00564745
0.0187343
0.00453715
0.00537376
0.000482154
0.000458765
0.000468823
0.000458474
0.000458923
0.000841172
0.00349843
0.000705209
0.000460598
0.000489559
0.0165688
0.0049976
0.000461973
0.000458396
0.00220054
0.00143058
0.000483098
0.000483014
0.000453079
0.000459559
0.000467593
0.000425547
0.000454845
0.0158713
0.000453012
0.000457161
0.00485612
0.00096477
0.000457856
0.000456201
0.000467096
0.000501619
0.000506165
0.000590753
0.000453302
0.000453435
0.00045813
0.000584167
0.00052281
0.000484687
0.00266144
0.000459038
0.000458454
0.00045253
0.000504327
0.000668739
0.00045637
0.00047199
0.000463521
0.000468103
0.000456613
0.000457135
0.00045527
0.00045668
0.000527633
0.000459996
0.00108327
0.000459564
0.000467763
0.000520527
0.000459907
0.000458911
0.000660819
0.000456723
0.00407484
0.000458995
0.000459929
0.000541847
0.000465151
0.00335062
0.00045471
0.000581116
0.0149829
0.00443516
0.000467261
0.000475828
0.000456446
0.0267621
0.000707297
0.00045341
0.000452978
0.000456646
0.0280501
0.000463872
0.00345601
0.00261817
0.000453165
0.00045885
0.000469153
0.0328048
0.000502477
0.000525668
0.000553276
0.000610476
0.00392572
0.000458919
0.000792345
0.0119203
0.0055492
0.000462757
0.00046892
0.000964974
0.00555268
0.000529158
0.000629765
0.000453089
0.00058147
0.000459478
0.000459464
0.000484648
0.00647308
0.000468915
0.000457335
0.000454933
0.000460715
0.00153459
0.000454043
0.000644957
0.000454191
0.000465385
0.00275858
0.0004686
0.000456107
0.000500113
0.000460613
0.000458877
0.000478005
0.000897827
0.000624642
0.000465842
0.000494279
0.000877683
0.00045119
0.000466772
0.00547692
0.00375499
0.000515737
0.000480313
0.000506096
0.000458849
0.000484542
0.000457129
0.000467915
0.000459599
0.000470518
0.0004529
0.000473746
0.00137558
0.00280512
0.000468397
0.00118213
0.000455133
0.000466425
0.0004733
0.000461071
0.000485247
0.000456974
0.01073
0.000539858
0.00045709
0.000999275
0.000516832
0.000465583
0.000458191
0.00530528
0.000458816
0.000457525
0.00047257
0.000620532
0.00045244
0.000456617
0.00103054
0.000454912
0.000466873
0.000455573
0.000457394
0.000483834
0.000453671
0.000468626
0.000952069
0.000515627
0.000540938
0.000452768
0.000460702
0.000451972
0.000456645
0.000488225
0.000473171
0.000453016
0.000650249
0.00319315
0.00439125
0.000461994
0.000530619
0.000500783
0.00822212
0.000463186
0.000459817
0.00049362
0.000698055
0.000469251
0.00506997
0.000458223
0.0457545
0.019585
0.00140442
0.00609698
0.00577897
0.000513863
0.000517814
0.000458848
0.000461863
0.000454353
0.000518967
0.000576877
0.00113708
0.000840185
0.00045504
0.000455101
0.000462765
0.000888259
0.000451195
0.000461012
0.00551946
0.000697254
0.00547187
0.000466953
0.00046047
0.00377777
0.00511537
0.000458549
0.000455213
0.0014961
0.00085326
0.000617905
0.000455149
0.000454486
0.000503458
0.000468619
0.000454706
0.00743604
0.000546594
0.000466094
0.00354949
0.000469029
0.000456934
0.00050849
0.000520658
0.000453553
0.000753474
0.000464246
0.000481181
0.000454863
0.00486836
0.000455716
0.000458851
0.000452322
0.000602185
0.00186489
0.000475992
0.000456889
0.000456747
0.000829539
0.00662897
0.000475816
0.000458605
0.000468985
0.00476853
0.000454499
0.000484035
0.000457473
0.000600431
0.000457477
0.000452762
0.000487841
0.00553691
0.00229506
0.00152132
0.000459015
0.00442085
0.000464062
0.00302311
0.000542323
0.000464496
0.000465352
0.00048858
0.000454875
0.0104392
0.000454404
0.000460735
0.000454906
0.000460299
0.00550142
0.000459389
0.000573283
0.000458532
0.000748564
0.000467397
0.00101953
0.000483615
0.00046398
0.000618676
0.000688368
0.00474693
0.0245294
0.000459008
0.00523766
0.000464716
0.000458594
0.000461297
0.00130957
0.000452886
0.00508897
0.00140081
0.000513089
0.0259471
0.000455635
0.000455607
0.000456487
0.00064382
0.000518841
0.000465919
0.000480453
0.000536948
0.000454651
0.000454916
0.000455842
0.000545951
0.000459016
0.00641366
0.00152355
0.00045299
0.003165
0.000850248
0.00943247
0.000456149
0.000462091
0.000458923
0.00046968
0.000460698
0.000551963
0.000456754
0.00046089
0.000468885
0.000456617
0.000460677
0.00053077
0.000452527
0.000469889
0.000472129
0.000487488
0.000581662
0.000454882
0.000466175
0.00136131
0.000549303
0.000472959
0.00255124
0.000455652
0.00450327
0.00843773
0.00477968
0.0004587
0.000456939
0.000458966
0.000455446
0.000459599
0.000459785
0.000458424
0.000474561
0.0236667
0.000486789
0.000452699
0.00509164
0.00420529
0.000477136
0.00129629
0.000609344
0.000458226
0.000579287
0.000827067
0.000480494
0.000455879
0.000525808
0.000488918
0.000463424
0.00431103
0.000454411
0.000469299
0.000460975
0.000452098
0.00326511
0.000475652
0.00046086
0.000458872
0.00467977
0.000459605
0.000469515
0.00521817
0.000459204
0.000460961
0.0026605
0.00053705
0.00168113
0.00046788
0.000457947
0.000461537
0.00110977
0.00327714
0.000534039
0.000468601
0.00045297
0.000543325
0.0051967
0.000460404
0.000458175
0.00138669
0.00478141
0.000453306
0.000824294
0.000476298
0.000522934
0.000456188
0.00100006
0.00435602
0.000462182
0.00111831
0.00368905
0.000458213
0.00327076
0.000472833
0.00928826
0.0308797
0.000501936
0.00046142
0.00376729
0.00183222
0.000459502
0.0141738
0.0015469
0.00366118
0.000486762
0.000459788
0.000458449
0.00092527
0.00058324
0.000456795
0.000489877
0.00674853
0.000457806
0.00680552
0.000459325
0.00045666
0.000459917
0.004446
0.00509578
0.000457113
0.000456496
0.00090911
0.000480598
0.00048686
0.000452706
0.000456106
0.00723938
0.000478276
0.000458903
0.000465813
0.000459176
0.000455452
0.00066846
0.000623204
0.000462512
0.000467118
0.000459489
0.000464758
0.000456976
0.000454684
0.00047959
0.00045278
0.000466985
0.00426404
0.000813598
0.0004558
0.000478066
0.00134633
0.00046129
0.00133539
0.000501966
0.000630054
0.0005961
0.000454885
0.000462656
0.000464536
0.000456846
0.000458356
0.00116284
0.00490054
0.000456956
0.000451733
0.00045878
0.000459029
0.000462596
0.000463306
0.000726659
0.00758335
0.000452069
0.00472665
0.000459003
0.000499348
0.000703882
0.000472818
0.000463258
0.000460527
0.000470806
0.000467211
0.000817915
0.00048875
0.00219105
0.000526992
0.000454355
0.00569618
0.000453715
0.00523626
0.00608306
0.00211224
0.000452764
0.000465236
0.000458233
0.0179033
0.000470002
0.000706991
0.0288177
0.000915953
0.00340167
0.000458579
0.000456374
0.0004598
0.0004585
0.000451338
0.000562128
0.000477127
0.000560907
0.00045883
0.000468636
0.00697276
0.0004589
0.00046197
0.000459923
0.00046918
0.00343397
0.00453828
0.000489016
0.000457449
0.000524182
0.00162012
0.000475023
0.0468136
0.000463129
0.000558351
0.000485544
0.00454012
0.000472686
0.000460318
0.000591563
0.000459153
0.00199215
0.000453776
0.000455956
0.000457341
0.000469034
0.00046289
0.000492481
0.000680782
0.000723459
0.00129756
0.000589896
0.00046417
0.000453705
0.000551549
0.000466985
0.000523491
0.000503354
0.00502859
0.0278967
0.000481395
0.00301027
0.00241963
0.000477372
0.000540385
0.000486
0.000511209
0.0164612
0.000572905
0.000459725
0.000809892
0.000463071
0.00232026
0.000610468
0.000459488
0.000474161
0.000537794
0.0220572
0.000456614
0.00405782
0.000615261
0.00160895
0.00831813
0.000475015
0.00521829
0.000573467
0.00246706
0.000452098
0.000744693
0.0310332
0.000452106
0.000479516
0.000463235
0.00455854
0.000558478
0.00045681
0.000494671
0.000730668
0.0006281
0.000515475
0.000454926
0.000454705
0.00595117
0.000940786
0.000459632
0.00114708
0.000580639
0.00407861
0.000780464
0.000469163
0.000609632
0.000462999
0.000504306
0.00212647
0.000502571
0.00045176
0.000492105
0.000514162
0.000460915
0.000552545
0.000463531
0.000464311
0.000465346
0.000460917
0.000824664
0.000465648
0.000459444
0.000941568
0.000468401
0.000454293
0.000454046
0.000893629
0.000458017
0.000459394
0.00316498
0.000665734
0.00158118
0.0023994
0.000464069
0.000462747
0.00379737
0.000459527
0.000471406
0.00062679
0.000454897
0.000454026
0.000465579
0.000573965
0.00047484
0.000459237
0.000869701
0.000501831
0.000457393
0.000463121
0.00134224
0.000482943
0.000458288
0.0140523
0.000491226
0.00066404
0.000452621
0.00122693
0.0016584
0.00503751
0.000460386
0.000455646
0.000673405
0.000454674
0.000455532
0.00589993
0.00048429
0.000624313
0.000481762
0.000459829
0.00123329
0.000470494
0.000455497
0.0204588
0.000455439
0.000573676
0.000498277
0.00773465
0.0132714
0.000460396
0.000468432
0.000461162
0.000460741
0.000484149
0.000612102
0.00451409
0.00046746
0.000459473
0.000941776
0.000456066
0.000452347
0.000849374
0.00534459
0.00565919
0.000455078
0.000462235
0.000462814
0.000451847
0.000469184
0.000562335
0.000966174
0.000494108
0.00474466
0.00423371
0.000510296
0.0103946
0.000458631
0.000483272
0.00048547
0.000681184
0.000458968
0.000458098
0.000865432
0.00259789
0.000589792
0.000457347
0.000876875
0.000457828
0.00122865
0.000463306
0.000472304
0.0237184
0.000474593
0.000666347
0.000455878
0.000468927
0.00582134
0.00112645
0.00415766
0.00419803
0.000471076
0.000453967
0.000516399
0.000457716
0.000461835
0.00484358
0.000612694
0.000453071
0.00045788
0.000508689
0.000455495
0.00101541
0.000664481
0.000453892
0.00047099
0.000464167
0.000454854
0.00107047
0.00045958
0.00110956
0.00456591
0.000483006
0.000668907
0.000516088
0.000774131
0.00563464
0.000845185
0.00369919
0.000735145
0.0004529
0.00533169
0.000460719
0.00467531
0.000832049
0.000459604
0.000461451
0.000456355
0.00412323
0.000458325
0.000452571
0.000458108
0.000457022
0.000479308
0.00045879
0.000503199
0.000468901
0.000453869
0.0153562
0.00546799
0.00305457
0.000549624
0.00279012
0.00389472
0.00473344
0.000461016
0.00589487
0.00102354
0.00184354
0.000458877
0.000482125
0.00083656
0.000465183
0.00326154
0.000461491
0.0258553
0.000473749
0.00045571
0.000488927
0.000460045
0.00046087
0.000526041
0.00051151
0.00485368
0.000461421
0.00046075
0.000502533
0.00049767
0.00107117
0.000715545
0.000682636
0.00321959
0.00111161
0.000460862
0.0153799
0.00556077
0.00487812
0.000463077
0.000485716
0.000457116
0.00046872
0.000462918
0.000460966
0.000719362
0.000454094
0.000467048
0.00519777
0.000521025
0.000529704
0.000650785
0.000472208
0.000461325
0.000735649
0.000459323
0.000458848
0.000463094
0.000511199
0.000555283
0.00513772
0.00900771
0.000595133
0.000570284
0.00111093
0.035126
0.000458246
0.00294834
0.00163968
0.000467492
0.000672007
0.000581391
0.00658617
0.000514172
0.000465042
0.00471968
0.00418243
0.000451837
0.00420779
0.000583972
0.000464825
0.00333493
0.000459007
0.00398244
0.000459455
0.000781082
0.00045868
0.00046896
0.000458535
0.000579505
0.000535978
0.00193977
0.000507268
0.00428754
0.000527518
0.00163257
0.000667169
0.000577853
0.000453333
0.00434252
0.00045947
0.00397306
0.000458883
0.00476766
0.000678786
0.00242889
0.000626249
0.00452994
0.000458704
0.0028369
0.000694009
0.000558694
0.000940231
0.000476657
0.000758194
0.00418766
0.000451791
0.000458215
0.000459007
0.000459083
0.00116133
0.0109351
0.000468499
0.000700743
0.000476247
0.00554738
0.000459587
0.000461645
0.000465205
0.000463646
0.00501794
0.000801116
0.00263389
0.00045732
0.000462049
0.00345646
0.000466509
0.000455461
0.000465561
0.000521043
0.000462408
0.000456117
0.000451701
0.000451408
0.000486664
0.0156737
0.000719636
0.0004595
0.0134173
0.000457574
0.00050506
0.000457716
0.000469713
0.00468636
0.000457072
0.021517
0.000455592
0.000666537
0.000541189
0.000452483
0.000457342
0.000686537
0.000460076
0.000548215
0.000471591
0.000506759
0.000460359
0.000467318
0.00169109
0.000605259
0.000452734
0.0407858
0.000460519
0.00866716
0.000630308
0.000473822
0.000454697
0.000490616
0.00039128
0.000451845
0.000510573
0.000461497
0.000459478
0.000460217
0.00596893
0.000503035
0.000457325
0.000464127
0.000467106
0.000473449
0.000473518
0.000459597
0.000451977
0.00045154
0.000460613
0.000495771
0.000466634
0.00370562
0.000455945
0.000871581
0.000467226
0.000503445
0.000455929
0.000487022
0.000466224
0.000561669
0.00515142
0.000518988
0.000458415
0.000630104
0.00482118
0.00172624
0.00046215
0.000607436
0.000459855
0.00430004
0.0225476
0.000780024
0.0004875
0.0374916
0.000496843
0.000459742
0.000694769
0.000460365
0.0215391
0.000461336
0.000488014
0.000458069
0.000455875
0.0049345
0.00472275
0.000459644
0.000452853
0.00125199
0.00304485
0.00940584
0.000461281
0.00104995
0.000490164
0.00135454
0.000460772
0.00423696
0.000620843
0.000454705
0.000452885
0.00061227
0.00342304
0.000461359
0.000565329
0.00279299
0.000467796
0.000463475
0.000511437
0.000482656
0.000483268
0.0025021
0.000452546
0.000467301
0.00046022
0.000458513
0.00221401
0.000523008
0.00220749
0.00422867
0.000465867
0.01215
0.000452786
0.00918298
0.000478788
0.000455321
0.000454162
0.0255286
0.000454752
0.000458649
0.00046007
0.00563972
0.000466241
0.000461834
0.000642806
0.000459138
0.000458899
0.000451698
0.000456592
0.00480452
0.000460274
0.000544543
0.00518207
0.000457164
0.00361402
0.000454452
0.00045517
0.00230774
0.000515488
0.00058014
0.000460912
0.000462658
0.000468957
0.000488288
0.00486893
0.000460335
0.000517276
0.000467852
0.00539368
0.000472015
0.000471745
0.000451821
0.000464463
0.000458489
0.000511544
0.000463738
0.000666281
0.000467365
0.00557836
0.000630987
0.000463215
0.000459817
0.00380015
0.00047484
0.000706324
0.000458527
0.000464629
0.000513063
0.00426298
0.00617583
0.00485951
0.000461245
0.000464646
0.00047576
0.00284639
0.000544901
0.000885655
0.000457898
0.000711513
0.000603717
0.00400223
0.000465079
0.000478858
0.00333286
0.00045906
0.00467969
0.000644381
0.000461834
0.000473872
0.000475925
0.000508106
0.00365054
0.000482633
0.0005268
0.00052934
0.00529199
0.00509528
0.000458477
0.000455352
0.0116697
0.000458945
0.000457345
0.00409981
0.00449981
0.000569615
0.00305373
0.000454337
0.000453785
0.00221107
0.000778586
0.000663045
0.000453556
0.000456798
0.00131552
0.000459903
0.00045204
0.000458817
0.000451783
0.000568228
0.000459939
0.00141978
0.000489347
0.00604461
0.000573482
0.000503827
0.000522002
0.00467903
0.000637238
0.00052655
0.000465314
0.000477999
0.000453058
0.000463608
0.000464563
0.00480208
0.00241524
0.000452466
0.00364629
0.000479531
0.000601144
0.0217891
0.0040858
0.000458553
0.000537012
0.0251825
0.00394663
0.000265079
0.000453678
0.000459918
0.000761872
0.000455494
0.000513801
0.000470585
0.00312961
0.00244738
0.0012319
0.000454276
0.000473975
0.000501749
0.0018427
0.000451754
0.000460804
0.000607078
0.00381651
0.000463549
0.000453867
0.000452789
0.000530563
0.000476606
0.000681877
0.000458958
0.0038483
0.000468785
0.00528075
0.000468998
0.00106232
0.000460883
0.000458173
0.000601652
0.000458726
0.000524523
0.000465373
0.000642068
0.00996927
0.00516457
0.00100374
0.000462862
0.00465076
0.000545972
0.0117923
0.000551305
0.000659076
0.000488812
0.000677458
0.00565232
0.000650263
0.000455014
0.00297423
0.00597751
0.000460128
0.000460458
0.000452833
0.000461202
0.000703809
0.000468759
0.000455751
0.000461302
0.000656783
0.000464115
0.000467269
0.000465463
0.000465431
0.000466867
0.000811982
0.00045211
0.000458169
0.00050995
0.000464635
0.00429403
0.000481284
0.00046257
0.000452249
0.000813501
0.000453821
0.000960236
0.042741
0.000455527
0.00241153
0.000462357
0.000459123
0.00059167
0.000458678
0.0040193
0.000657799
0.000477073
0.00060747
0.00430831
0.000454328
0.00350843
0.000595584
0.000492111
0.00128752
0.0023639
0.000475159
0.000454784
0.000461761
0.000465375
0.00316978
0.00046437
0.000455748
0.00064326
0.007265
0.00296722
0.0249209
0.000456227
0.000458852
0.00373914
0.00158094
0.00599745
0.001238
0.00453598
0.00045549
0.000729091
0.000458667
0.000458098
0.00219718
0.0055078
0.00555602
0.00575367
0.000685719
0.00324723
0.000458536
0.000461228
0.00185009
0.000457905
0.000514842
0.000504041
0.000463009
0.00394592
0.000458583
0.000458658
0.000500766
0.00477576
0.000459585
0.000458909
0.000539358
0.000454971
0.0253067
0.000452197
0.000455514
0.00045597
0.000525893
0.000456132
0.000461376
0.0029967
0.000742209
0.000711998
0.00996057
0.00408926
0.00339416
0.000702788
0.00597924
0.00046076
0.00339505
0.00180776
0.000595147
0.000452363
0.000457611
0.000509652
0.000584191
0.000464877
0.000459712
0.000458063
0.00104886
0.000725232
0.00477796
0.00047413
0.000678831
0.000264912
0.000540253
0.000451896
0.000481987
0.000747441
0.00510118
0.000504467
0.0302492
0.000458032
0.000518925
0.00241635
0.00347643
0.000769863
0.000454882
0.000457973
0.000455483
0.000789216
0.00046741
0.000459311
0.000466441
0.000457612
0.000459114
0.000564139
0.000458256
0.00045364
0.0100031
0.000460169
0.000514768
0.000458844
0.00260556
0.000601456
0.00140684
0.000471717
0.000460188
0.0004586
0.000453686
0.000460017
0.000454524
0.000464986
0.000596335
0.000510418
0.000538135
0.00045418
0.000457756
0.000467022
0.000895378
0.000477914
0.00477073
0.00069824
0.00368032
0.000781281
0.000960874
0.000578187
0.000618286
0.00551017
0.000458791
0.000458001
0.00164716
0.00594401
0.00363623
0.00340773
0.00408677
0.000470262
0.000515537
0.000465109
0.000455715
0.00064915
0.000625179
0.000461659
0.00381437
0.000550696
0.0143358
0.000692244
0.00481305
0.000452269
0.000480427
0.000458626
0.00045609
0.000528052