/*--------------------------------*- C++ -*----------------------------------*\
| =========                 |                                                 |
| \\      /  F ield         | OpenFOAM: The Open Source CFD Toolbox           |
|  \\    /   O peration     | Version:  v2012                                 |
|   \\  /    A nd           | Website:  www.openfoam.com                      |
|    \\/     M anipulation  |                                                 |
\*---------------------------------------------------------------------------*/
FoamFile
{
    version     2.0;
    format      ascii;
    class       volScalarField;
    location    "150";
    object      p;
}
// * * * * * * * * * * * * * * * * * * * * * * * * * * * * * * * * * * * * * //

dimensions      [0 2 -2 0 0 0 0];


internalField   nonuniform List<scalar> 
18232
(
-0.35262
-0.016159
0.0247565
0.0629691
0.0427151
-0.0106817
0.0634083
0.0385254
0.0495763
0.0436175
0.0610463
-0.105191
0.0405964
-0.205971
0.138448
-0.235026
0.0323476
0.0359171
0.0518368
-0.0277596
-0.0164205
0.0494442
0.0600049
0.0342594
0.140847
0.143908
0.0290517
-0.0114283
0.0358079
0.025394
0.0388477
-0.34626
0.0421294
-0.310158
-0.0287596
-0.0188664
-0.110988
0.0399208
-0.10227
0.0386895
-0.332386
-0.0914525
0.0234158
-0.0604535
0.0314768
-0.0528537
-0.0043988
-0.0939583
-0.0476915
0.00192023
0.0473028
0.0342296
-0.340932
-0.0705836
-0.0246555
-0.0839904
0.04173
0.0439197
-0.191717
-0.0036254
0.140759
0.0314677
0.0357951
0.0625653
-0.118216
-0.00537626
-0.343087
-0.347199
0.0283997
0.0371746
0.0419641
0.028903
-0.347312
-0.0324498
-0.134772
-0.0944509
0.0662054
0.0790217
-0.0272302
0.0571049
-0.348056
-0.10168
-0.0794876
0.0200962
-0.0629926
-0.0857488
0.0264296
0.0516859
-0.102383
-0.0720949
0.0526126
0.0280181
0.0389407
-0.0907631
0.0524323
0.0391175
0.043227
0.051722
-0.0617685
0.0182178
0.170393
-0.0707177
-0.0658302
0.14141
-0.0178465
0.10954
0.0257634
-0.140839
0.0340507
0.0351692
-0.00425535
-0.102656
0.00306773
0.0622647
0.0468354
-0.0115804
-0.106728
-0.0518821
-0.0450716
-0.0152294
0.0407292
0.0399788
0.392664
-0.0173973
-0.292724
0.024232
-0.209359
0.0146967
-0.0152002
-0.104438
0.0246419
0.0520139
-0.0461796
0.00967549
-0.342638
-0.0958956
-0.0469096
0.039462
-0.00496565
-0.0861443
-0.0247824
0.11095
-0.34179
0.0450782
-0.00747658
0.0306251
0.137129
0.0396603
-0.0347481
0.0102505
0.483809
-0.0887889
-0.102763
0.0646545
-0.0701277
-0.332004
-0.190706
-0.114984
0.306073
-0.00463519
-0.0159008
0.00966416
0.0288756
-0.342866
-0.0378334
0.05536
0.157599
-0.340625
0.103957
-0.0214895
0.0253613
0.0385536
0.0249465
0.0509214
0.0717406
-0.0421384
0.019501
0.0378738
-0.0277131
0.0469223
-0.0167819
-0.102758
0.0292947
-0.0670139
-0.396064
0.0396468
0.0134698
-0.0654961
0.0387469
-0.0222035
0.11257
0.0401559
0.0463626
-0.0419554
0.0445765
0.0441327
0.00339998
0.069445
0.0204783
0.0184576
0.0366297
-0.00892151
0.182956
0.276894
-0.139676
0.528655
-0.0153678
-0.353803
0.0141166
-0.0478611
0.0268781
0.138297
0.165967
-0.0513258
-0.248495
-0.00733663
-0.104496
0.0279012
0.0262789
0.0521392
-0.0329585
-0.00329912
0.476424
0.0405574
0.0201622
0.0251056
0.01142
0.0326357
0.0465946
0.0400728
0.0571519
0.102108
-0.339051
-0.193014
0.0424479
-0.0578431
0.0813208
-0.215766
0.00117481
0.0340351
0.0578198
-0.170851
-0.219022
0.128579
-0.0643987
-0.023705
0.0345051
-0.12418
-0.0307742
0.0709451
-0.0984413
-0.0816692
0.0152176
0.0162588
0.0432109
0.449137
-0.0229245
0.464024
-0.0562875
-0.0164357
0.0224811
-0.069013
0.00280942
0.0377851
0.0114
0.0350855
-0.0476572
0.307261
-0.0836693
-0.0376171
0.0534808
-0.31466
0.0291933
0.0267952
0.014431
-0.0208127
-0.0769062
0.0770941
0.0340547
-0.304715
-0.0427556
-0.0139653
-0.00874241
-0.0316605
-0.0488628
0.0808098
-0.0100812
-0.053295
0.0425652
-0.10416
0.0398125
-0.0737837
-0.0240712
-0.108316
-0.0913983
-0.0384592
-0.0324336
-0.00766439
0.0312115
0.0472372
-0.0319396
0.0341255
-0.0250515
-0.0950528
0.0341911
0.0443562
-0.153861
-0.0563779
0.032514
-0.0401569
0.125754
0.0413764
-0.162166
0.0634166
-0.00964703
-0.00941863
-0.026821
0.0112246
-0.0580638
0.0456984
-0.180308
-0.0105332
-0.137876
0.384853
0.170034
-0.00183652
-0.193584
-0.00804626
-0.0739533
0.0402778
-0.0665149
0.0461039
-0.0903096
0.315524
-0.0324304
-0.349808
-0.0289791
-0.0797785
0.0285948
-0.0466854
0.0397442
-0.0088889
0.0345372
0.0141455
0.0116195
-0.116921
-0.389478
-0.0095679
-0.155432
0.0814919
-0.163234
0.164371
0.167396
0.0117368
-0.0679082
-0.00165645
-0.0907017
-0.384198
0.0395602
0.0416773
-0.0215404
0.0219735
-0.200164
0.0820136
-0.350927
0.114708
0.141289
-0.387515
0.107025
-0.0725657
-0.0213327
-0.0261482
-0.0167261
-0.302294
0.0185374
0.0190825
-0.00198862
0.0270348
-0.228112
-0.305722
0.0337045
-0.0714306
0.0395871
0.0610621
-0.0306418
-0.0726212
0.064425
0.0269529
0.056635
0.0178743
-0.0327895
0.255007
-0.0350437
-0.0753642
-0.143625
0.0712568
0.397755
0.0294326
0.265803
0.0275153
-0.026834
-0.247867
-0.17346
0.27769
-0.0682516
0.0394262
-0.00570477
0.0342033
0.0476959
-0.010906
-0.176904
-0.312142
-0.0541863
-0.00700759
-0.199436
-0.0197014
0.037115
0.0371526
-0.0852105
0.0701407
0.0142834
0.205271
-0.1156
0.0184394
-0.170952
-0.0906203
-0.136132
-0.110624
0.145614
-0.0285551
0.0125206
-0.0453777
-0.383256
0.0756609
-0.0878955
0.0419683
0.0460425
0.0400997
-0.0396438
0.0635738
0.177753
-0.0968135
-0.0229676
0.0074099
0.0142559
0.00957081
0.0954481
0.05818
-0.126451
0.155453
-0.0290804
0.0686563
0.013898
0.0416702
-0.0229731
0.0367139
-0.325105
0.0372231
0.0301202
0.0307651
0.0185018
0.00294749
0.0928267
-0.122368
0.0200978
0.05621
0.0190898
0.0686447
0.0429417
0.0334516
0.037086
-0.0287681
-0.0824141
-0.19617
0.259643
0.0755192
-0.00640627
-0.0475379
-0.348479
0.0208514
0.00626405
-0.0427538
0.0404588
-0.118715
0.0395284
0.0524671
0.00497104
0.0234215
-0.052635
-0.0743286
0.0383855
-0.0119288
0.0371989
-0.004745
0.0433475
-0.0878813
0.0199581
-0.0219329
-0.0644536
0.032656
0.0632153
-0.0159553
0.101955
-0.000596329
-0.385822
-0.0151134
0.0491516
0.0460453
0.0297306
0.016585
-0.0560797
0.0698062
-0.00359544
-0.110895
0.0153432
0.0494935
0.0635785
-0.0301012
0.0151269
0.0148408
0.100063
-0.003037
0.124544
-0.0896506
-0.340474
0.0144682
0.0112226
0.0420798
0.0398249
-0.386429
0.0392191
-0.204078
-0.000640317
0.0411981
-0.342746
0.0298219
-0.108424
0.0424259
-0.0712892
-0.0992098
0.0805416
-0.0315014
0.029471
0.0143466
0.0327963
0.0644059
-0.0439289
-0.0424031
0.0355653
-0.0308536
0.0223995
0.0178021
0.0140989
0.0386164
-0.0320772
-0.354816
0.00720468
-0.0273891
0.056665
-0.11092
-0.0253425
0.0347852
0.229559
0.0374107
-0.120767
0.0310674
0.0198762
-0.166099
0.441093
0.00714205
0.0454417
0.0493956
-0.087549
0.00636012
0.015169
-0.00619928
-0.143274
0.139148
-0.0429077
0.0293385
-0.0203453
0.0435734
-0.0237345
-0.0946304
0.0283474
-0.0301813
0.0431262
-0.0932108
-0.316735
-0.340032
0.0177388
0.0341848
0.00275713
0.0269947
0.448526
0.0434336
-0.0402634
-0.327773
-0.0339818
0.0495798
0.0423023
0.0203831
-0.334814
-0.09251
0.0081833
0.106479
0.0392294
-0.0203673
0.0342957
0.0486205
0.00230287
0.017032
-0.0415016
0.180443
0.10997
0.0333134
0.0294776
-0.0321178
0.0331696
0.0572994
0.0356244
0.0373523
0.320396
-0.0871459
-0.0468968
-0.0262024
0.0187968
-0.336762
0.0471078
0.0158268
0.049182
0.050618
0.0405247
0.0270292
-0.102815
-0.0246694
-0.0371701
-0.0504143
-0.0227319
-0.0860344
-0.0932419
-0.0676456
0.034735
-0.0675192
0.015406
0.0138427
-0.105828
-0.337697
-0.0249645
0.0613366
-0.0253634
-0.0105891
0.00195473
-0.0259523
-0.142293
-0.000443486
0.0363402
-0.00285007
-0.11742
-0.0475089
-0.0175632
0.0284023
-0.0229369
-0.113612
0.0185706
-0.150974
0.203824
0.0245472
0.0164593
-0.00108883
0.0294333
-0.0242547
-0.0978426
0.0459306
-0.0922012
0.0341518
-0.086292
-0.15626
0.045692
-0.334698
0.0662415
0.136555
-0.368551
0.0404143
-0.0231407
-0.20273
0.326218
0.0515552
0.0218967
0.522642
0.0677511
0.033886
-0.0772334
-0.0562423
0.193514
0.0210859
-0.0271759
0.150051
-0.089131
-0.163611
-0.100163
-0.367844
-0.0682214
-0.130048
-0.0789865
0.0426778
-0.344924
0.0339932
0.0328236
0.0304952
-0.334168
0.201018
0.0445647
-0.201879
0.0396442
-0.0888104
-0.0163828
-0.346783
-0.104128
0.0367674
0.0606266
0.015319
0.0465642
-0.349569
-0.122273
-0.0345644
0.0364909
-0.0485312
0.0341202
0.0339965
0.0200759
0.0262533
0.0465125
0.120527
0.133552
0.0373609
-0.312483
0.0273783
0.172296
-0.397699
-0.088775
-0.35527
0.015325
-0.0281838
-0.32804
0.0120745
-0.0906524
0.0508847
-0.118012
-0.137187
-0.126345
0.0292457
0.00315227
-0.00918727
-0.0337078
-0.0218612
-0.0178098
-0.00807702
0.0401148
-0.0226475
-0.342253
-0.0178146
0.0285968
0.194034
0.0248685
-0.0519944
-0.352291
0.167652
-0.331389
0.0581499
0.00352873
-0.354814
0.531927
0.00192336
0.0341665
-0.0658869
-0.212858
-0.0145456
0.0171206
-0.114068
-0.192352
0.107514
-0.0242151
-0.115702
0.0376421
0.0371975
0.364934
0.0792914
-0.0233306
0.455074
-0.040175
-0.0219432
-0.107635
0.0480105
0.0300563
0.0503356
-0.126764
-0.00647938
-0.0895005
-0.0318865
0.129796
-0.236747
0.0342148
0.0375771
0.0453189
0.189041
0.0572045
0.410091
-0.0195801
0.00198776
-0.246659
-0.0894928
-0.363179
-0.339263
0.175555
-0.0761703
-0.0357557
0.0778809
0.0284858
-0.0325066
-0.34403
0.0684295
-0.0480658
0.37752
-0.0242279
-0.0012874
0.0594424
-0.339028
0.0410025
-0.0329711
-0.080696
0.043379
-0.304108
0.19923
-0.0566693
-0.00774315
0.0178143
0.0304947
-0.0909528
0.025265
-0.080335
0.0415744
-0.335612
0.0706131
-0.237529
-0.152845
-0.0261587
0.0295608
0.0294048
0.000576816
0.0316425
0.096111
0.153269
-0.328127
0.140888
-0.0342583
0.0388474
0.0286687
-0.0013421
0.0402211
4.6866e-05
0.0115712
0.144678
-0.0515393
0.0390194
0.110148
0.189931
0.0396667
-0.172441
-0.102872
0.0356093
0.0295862
-0.0347354
-0.0241523
0.0175995
-0.2543
-0.121474
0.0302245
0.0340007
-0.349409
0.304343
-0.0959621
-0.1599
-0.135487
0.0595968
-0.101614
-0.149385
-0.0348702
-0.0276062
-0.0298063
-0.022327
-0.0391203
0.0392464
-0.130236
-0.158882
-0.0278431
0.0203118
0.0434091
0.00295637
0.0360848
0.0390728
-0.097372
-0.0622468
0.0250483
0.0171717
-0.0634503
-0.000101619
-0.355939
0.045759
0.0438389
-0.123138
-0.025452
0.0183987
0.0646444
0.0207063
0.0305977
0.0339452
-0.330561
0.0339024
0.0386592
0.0199574
0.0485867
-0.347682
0.0192394
-0.0516995
0.00417176
-0.0976259
0.222356
0.065556
-0.0248013
-0.300672
0.0309626
0.0399421
-0.0325139
0.0309854
0.0307623
0.0143836
0.0393189
-0.024358
0.0180298
-0.0278035
-0.0561383
-0.0767725
0.0400499
0.0494678
-0.374875
-0.291646
0.316775
0.0697026
-0.0190642
0.0632819
0.0389663
-0.334208
-0.327672
0.0119337
0.034725
0.348586
-0.0234629
0.0345536
0.135532
-0.34271
-0.0925709
-0.0719186
0.136723
-0.0359435
-0.0321265
0.0341808
0.0344775
-0.0629906
-0.391699
-0.342721
-0.115992
0.259889
-0.00936777
0.0193379
0.0313076
-0.0532095
-0.0222355
0.0345574
-0.348873
0.0345252
-0.0319664
-0.353728
0.0303109
0.354824
-0.010337
0.0951787
0.0309527
0.0764576
0.0351278
0.0482655
0.0286636
-0.25311
0.0190669
-0.0238539
0.0345966
0.082465
-0.0211421
-0.0372385
0.106108
-0.287299
0.190608
-0.0928526
0.0603472
-0.141479
-0.107701
-0.0056969
0.251637
-0.21306
0.0344772
-0.347944
-0.0771649
0.00537379
-0.00430277
-0.0543799
-0.330118
-0.00542196
-0.0293794
-0.0363704
0.0367506
0.205873
0.0270377
-0.0315791
0.0142981
-0.0576263
0.0881362
-0.107443
0.0371403
0.0443458
0.003555
0.0640953
0.214732
-0.341248
0.0304078
0.0418886
0.0190829
-0.0513105
-0.0916186
-0.0340511
0.0509489
0.237567
0.0611438
-0.0528256
-0.00351723
0.0972335
0.0339988
0.00548621
-0.329441
-0.0961618
0.0309795
-0.0243724
-0.0248089
-0.350511
-0.171129
-0.141857
-0.0597397
0.0283747
0.0387148
0.0645354
0.0440281
-0.028411
-0.341755
0.157092
0.0343828
0.0409105
-0.345287
-0.0492546
0.0329638
-0.021455
-0.0500253
0.202161
-0.0637711
0.0493838
-0.00782688
0.0637791
0.0240439
-0.0488151
0.0213792
-0.351275
-0.000530868
0.0473409
-0.342881
-0.176202
0.057218
0.0230043
-0.00521261
-0.0894437
-0.1055
-0.17971
-0.00361708
0.00485273
0.0503161
-0.31285
0.0773286
0.110224
0.384083
0.0367044
0.0322154
-0.0059458
0.0182104
-0.210456
0.0259409
-0.0696641
0.0670694
0.0351248
0.024803
0.0292722
0.0222296
0.0250704
-0.113133
0.0452114
-0.095079
-0.0301253
-0.0469286
0.105742
-0.032122
0.0444318
-0.32189
0.037525
-0.0779872
0.0732236
-0.00460877
-0.034621
0.0401987
-0.0591975
0.0201813
-0.00250688
-0.343371
-0.104859
-0.0446927
0.166035
0.0225559
-0.33952
-0.0833891
0.00434018
-0.00591752
0.0388581
-0.33256
-0.0465874
-0.307408
-0.0302268
-0.00401174
0.0672925
0.038085
-0.333991
-0.114725
-0.133945
-0.0787012
0.0592827
0.534322
0.061771
-0.0172641
-0.341186
-0.0198164
0.0449419
0.0376739
-0.032129
-0.133349
-0.138139
-0.0232694
-0.00666412
-0.0949569
0.0351416
0.035439
-0.00723123
-0.331605
0.0381899
0.0296367
0.0214542
0.034636
-0.167268
0.017528
-0.0501901
0.0180062
-0.0285597
-0.0382304
0.0373913
0.0258832
-0.0868132
0.0550208
-0.0271103
0.122257
-0.392738
0.225041
0.0393624
-0.10001
0.0720146
0.0109237
-0.00351043
-0.0276412
-0.2092
-0.104015
-0.0800794
0.0203881
0.0796554
0.0634325
0.0272051
0.0395363
0.0294913
0.0123851
-0.00853128
0.105743
0.270416
-0.37595
0.0344781
-0.20715
0.0197472
0.0395219
-0.0740794
0.0367025
-0.0784532
0.0397247
0.132173
-0.0333447
0.048321
0.364155
-0.0194503
-0.056036
0.0690639
-0.0744198
0.0585153
0.0272436
-0.071873
-0.0179478
-0.00516374
0.0397721
-0.0470564
0.0190017
0.0403339
0.0179076
0.0495578
-0.0659876
0.0180075
0.016018
-0.348006
0.101914
0.185773
0.0149944
0.0318898
0.00859421
0.0258352
0.0122715
0.121825
0.000106635
-0.0205033
-0.343465
-0.127861
-0.0320722
0.152508
-0.11177
-0.337843
0.0650722
0.0624906
-0.099319
-0.00230988
0.0396401
-0.0499587
0.0286544
-0.330529
-0.351251
-0.130012
-0.216833
-0.0724244
-0.122285
-0.126046
0.0660497
0.0483105
0.00595617
-0.130435
-0.173155
-0.166511
-0.100169
0.0216825
0.0214908
0.0450304
-0.031306
0.0105891
0.0775672
-0.0233092
-0.0834901
-0.0225986
0.0402293
0.0301708
-0.340325
-0.164523
-0.0333814
0.0224209
-0.0329682
-0.0108047
-0.0211109
0.0206641
0.00627787
-0.0502129
0.0395887
0.0209495
-0.160093
-0.0957363
0.0404438
-0.0589721
0.0392313
0.0424613
0.0157906
0.0499038
0.0176659
-0.246346
0.125277
-0.0558464
0.0208819
-0.0466966
0.0245595
0.039941
0.0149598
-0.0209167
0.352891
0.120726
0.0261896
0.028712
-0.0243601
-0.0272766
-0.0627871
0.0280461
0.0375884
-0.0753234
0.0194524
0.140162
0.0238767
-0.120624
0.0228862
0.0150053
0.149003
-0.0276788
-0.0363127
-0.0937071
0.0787581
-0.110254
0.0431996
-0.375472
-0.123144
0.0423121
-0.0544318
0.0135639
-0.0153601
0.382463
0.00465628
-0.0412868
0.0205887
0.0571224
-0.339464
0.0835048
-0.0205594
0.0505394
0.182863
0.035555
-0.0185627
-0.00375105
-0.0485826
-0.10114
-0.0913132
-0.0460097
-0.35272
0.0530939
-0.024038
-0.0547575
0.0283593
0.0382975
-0.0934835
-0.00789281
-0.181021
-0.0482658
0.178101
-0.336012
0.02608
0.026947
0.0366233
-0.0183947
-0.0182367
0.0381037
0.000216975
-0.0526702
0.0193775
0.0207986
0.0275847
-0.0362883
0.0745971
-0.328071
-0.0320517
0.0156623
-0.0533519
-0.0663343
-0.0213992
0.0243205
0.0473128
0.028533
-0.0607207
0.04081
0.0234703
0.0471323
-0.0423675
0.0391788
0.0233876
0.0411434
0.0957475
0.0152061
0.0162401
-0.0452091
-0.0335913
-0.0232278
0.0193891
0.000254485
-0.0716171
-0.0919847
0.0328493
-0.0263888
0.0263896
-0.108895
-0.308904
-0.0584692
0.0787344
0.0370969
0.0641565
0.018568
0.0308621
0.0622443
0.0782921
0.152817
-0.334992
0.0645623
0.00565838
-0.0374534
0.531893
0.00999306
-0.00726637
0.136973
0.0283161
-0.152575
-0.0252529
0.0451282
0.0286313
0.18183
0.152948
0.123237
-0.0402919
0.00711436
0.0344673
0.0363882
-0.00368478
-0.332163
0.123232
0.0373627
0.0599158
-0.0874723
0.0306454
0.0098971
-0.138391
0.029311
0.0771005
-0.0198939
-0.119537
-0.207478
0.0342686
0.0599357
0.0357326
0.0531168
-0.34878
0.169395
0.0383069
-0.00703828
-0.072778
-0.33718
0.0980727
0.0676979
0.0415586
-0.0744
0.0095725
-0.0100242
-0.065311
-0.109492
0.0265071
-0.238731
-0.344828
0.0410558
-0.247361
-0.246508
0.0128652
-0.142646
-0.00385108
-0.344035
-0.334074
-0.0292735
0.0358096
-0.0276454
-0.0508033
0.0927433
-0.351569
-0.024413
-0.0477635
0.187085
0.0311906
0.0689552
-0.111075
-0.0136483
-0.0274989
0.000953553
-0.303403
-0.0287058
-0.156009
0.0830191
0.035366
0.030403
-0.0532627
-0.0724063
0.0291232
0.0170272
-0.0474439
-0.0505439
-0.0805253
0.00462936
0.0244782
0.509238
0.0216508
0.0433284
0.0384094
0.0294771
0.0243718
-0.185943
-0.0503841
0.104837
0.0397628
0.0301092
-0.0220717
0.0399562
0.0192601
0.119325
-0.00703031
0.0398714
-0.0219848
-0.040932
0.0275847
0.169914
-0.0179505
0.0324027
-0.0454814
-0.0909716
0.13459
0.0584667
0.0204392
0.118699
0.0348459
0.0309543
0.073079
-0.208098
-0.0476274
0.0309909
0.00793214
0.0803299
0.0773428
0.11547
0.123471
-0.0854118
0.512124
0.0149763
-0.0390315
0.0429377
-0.110981
-0.234019
-0.00199408
0.0440825
0.0289892
0.061107
0.0395615
-0.00858687
0.164094
-0.0938649
0.103749
0.00482401
-0.0222605
0.018519
-0.0291898
-0.0652891
-0.0204357
-0.00664683
0.0378259
0.0690599
-0.346096
-0.0307134
-0.081834
-0.332066
0.0623267
0.458982
0.0318357
0.0367632
0.0298309
0.0131109
0.0138611
-0.145574
0.0418116
-0.09934
0.0277481
0.0379561
-0.344086
0.0567029
0.0384512
0.0979844
-0.0203373
-0.300108
-0.0306544
-0.0339399
-0.0123524
-0.120892
0.183748
-0.0593004
-0.332285
0.118276
-0.112828
0.184557
-0.09874
-0.0440895
0.042221
-0.168716
0.0296998
-0.213043
0.0125545
0.028556
0.00455898
0.0346888
0.0453832
-0.0565949
-0.114256
0.163186
0.0402592
-0.15479
0.0333561
0.0116024
-9.70939e-05
0.08859
-0.0972486
0.0254774
-0.0422673
-0.335565
-0.0544697
-0.026387
-0.237479
0.164634
-0.0543512
0.0467627
0.167676
-0.345774
-0.0983433
0.0961932
0.342028
0.0442745
-0.0796809
-0.0231039
0.0298948
-0.0750463
0.176464
-0.349062
0.0282131
-0.166977
-0.0779038
-0.3133
0.506174
-0.0208116
-0.0416172
0.111206
-0.0360019
0.0143717
-0.155356
-0.333535
0.0149335
0.106477
0.0483379
-0.0887646
0.00391774
0.0470073
-0.0147364
-0.0606107
-0.0202046
0.187369
0.0187746
-0.0156689
-0.0510041
0.0148865
0.0923139
-0.155531
-0.0219356
-0.196313
-0.0595006
-0.0220878
-0.0347061
0.0447951
-0.0362604
-0.217859
-0.051461
0.00816499
0.000523313
-0.0161294
0.0303653
-0.0963914
-0.0171242
-0.0200723
0.037712
0.0376749
-0.0420689
0.0411926
0.0293944
-0.0984456
0.0384666
0.00619506
0.0141378
0.346928
-0.0119639
0.030129
-0.0524562
-0.181748
0.0627953
-0.0301103
0.042807
0.0450135
-0.277748
0.0919665
-0.0677952
-0.215449
0.0208771
0.00640792
0.0395873
-0.129466
-0.0753536
0.0409218
0.0461337
-0.0358135
0.0523842
0.122093
-0.145205
-0.0621317
0.032055
-0.350256
0.19231
-0.175818
-0.00666821
-0.0140681
-0.024497
-0.0702004
0.0418758
0.0241237
0.0134754
0.0045982
0.0257033
-0.0670872
-0.0889497
0.0152874
0.0200231
0.0305018
-0.0181142
-0.0302171
0.0253964
-0.347388
0.0234946
-0.117021
-0.110521
0.515897
-0.343497
0.0343613
0.0378595
0.0520566
0.0404065
-0.0917747
-0.144289
-0.0208728
0.0393162
0.031763
-0.00557285
0.0241506
0.0135488
-0.0315212
-0.153867
0.517313
0.0214321
0.038544
0.0191795
0.00787294
-0.0576508
-0.157975
-0.0186904
-0.0574169
-0.0485308
-0.144659
0.188761
-0.329546
0.0681748
-0.0859992
-0.0224547
-0.105782
0.0653863
0.031256
-0.201209
0.364425
-0.0360621
0.0486791
0.353757
0.0225381
-0.227987
0.0467602
0.115398
-0.34912
-0.0190656
-0.176345
0.0296607
0.0346475
-0.0218777
-0.00154313
-0.173113
-0.193765
0.0583265
-0.0136767
-0.0152622
-0.00665441
0.115529
-0.0695725
0.209787
0.0161632
0.0630275
0.1038
0.0249235
-0.0117217
-0.113482
0.0169958
-0.0381121
-0.048881
0.0200942
0.0548735
0.0915245
0.14843
-0.0999096
0.00165437
-0.00372013
0.0802637
-0.0580304
-0.026081
-0.0105532
-0.327215
-0.241128
-0.00729646
-0.158667
-0.0170487
-0.328791
0.0804639
0.0920963
0.036097
0.0347324
-0.0441392
0.0289342
-0.00492286
0.0280393
0.0459351
0.12062
0.0577218
0.115823
-0.0584971
0.0170218
-0.35597
-0.0242279
0.0133321
-0.0748221
-0.117395
-0.244638
-0.0831354
0.0511974
-0.0909852
-0.00906422
-0.154887
0.0532989
-0.0582722
-0.033726
0.040134
-0.020711
0.0499417
-0.331165
0.15815
0.0302198
0.00976868
0.0499787
-0.0200213
0.177805
-0.0790054
-0.0433894
0.0393581
0.0585121
-0.0283267
0.11674
-0.00912021
-0.253288
-0.0805968
-0.242115
-0.0148478
0.0390571
-0.349329
0.446688
-0.0231741
0.0443548
-0.0764161
0.044062
0.0380207
0.0430353
0.0295092
-0.0854458
0.00542714
0.0396727
-0.0340567
0.170808
0.190102
0.0155276
0.117932
0.112769
-0.235318
0.0303215
0.0640977
-0.0391402
0.137212
-0.154231
-0.0733136
-0.0840998
0.0693789
-0.148012
-0.0965489
-0.333555
0.0318217
-0.327951
-0.254385
0.0343137
-0.143181
-0.0530386
-0.134585
-0.0833819
0.041465
-0.0454636
-0.186333
0.0134342
-0.165574
-0.12064
-0.024052
-0.0410116
0.0377761
-0.0380532
0.0736554
-0.0568356
-0.0246006
0.0386028
0.0368434
-0.0346531
0.0851972
-0.0795705
0.0252257
-0.332856
-0.123321
-0.0566861
-0.154429
-0.115375
0.0103037
-0.348926
0.084715
-0.261582
0.0691617
-0.0501314
-0.187225
0.443728
-0.081992
-0.0577257
0.0615474
-0.11654
-0.103247
-0.000743883
0.0422647
0.0913835
-0.0162146
-0.321756
0.0049856
0.0692326
0.0799615
0.0419282
-0.0154136
-0.337013
0.0345753
-0.209198
0.0102655
-0.0341583
0.0294152
0.0382529
-0.0552211
-0.0503797
-0.048213
-0.0345353
-0.264778
0.0297132
0.0483459
-0.240936
0.0397466
0.0248602
0.0390493
-0.123921
0.0322221
0.0247023
-0.000736112
0.00247816
-0.0757214
-0.322053
-0.0721056
0.0315628
-0.342952
0.0266367
0.100405
0.0257763
-0.0575587
-0.0884146
0.031597
-0.331135
0.0199903
-0.194905
0.214406
0.0155629
0.0554712
-0.116201
0.0344965
-0.00151365
-0.0369777
0.125429
0.0562426
0.0393457
-0.0658702
0.200339
-0.0795235
-0.341812
0.101074
0.19149
0.178171
-0.0578728
0.00357512
0.00423824
-0.119814
0.0133617
0.0199246
0.0925164
0.0375859
0.0498246
0.459206
-0.0935767
-0.0107362
0.0421533
0.140658
0.136703
0.0782867
0.0534519
0.00160823
0.00311857
0.0419352
-0.107319
-0.00161059
-0.397505
0.0237282
-0.029674
0.0394589
0.136642
0.0238866
-0.0960861
-0.0403325
-0.0203756
-0.0213632
0.15998
0.0733921
0.169753
-0.0213929
0.357053
0.118055
-0.0132672
0.0510358
-0.160294
-0.346286
-0.118047
0.184785
-0.340105
-0.0164134
-0.00337304
-0.00513258
0.0981739
-0.34927
0.0386693
-0.0973694
0.061326
0.024885
-0.0219971
-0.0695356
0.0675367
0.0155769
0.280532
-0.307431
-0.0360544
0.0514081
0.00754369
0.00833471
-0.159497
0.0591257
-0.153221
-0.0517429
0.0189334
-0.0105401
0.215203
-0.34444
0.0361492
-0.128128
-0.336875
-0.0480586
0.124381
-0.118113
-6.18351e-05
0.0814327
-0.111334
-0.00398604
0.139948
0.0557394
0.0322234
0.0272476
-0.0980413
-0.0303429
-0.33359
0.0382367
-0.331171
0.0154096
-0.342881
0.0909831
0.0241395
0.00729984
-0.333392
0.0198903
0.0258463
0.0994249
-0.0977313
0.12453
0.111114
0.0134735
-0.00382386
0.0678395
-0.00131913
0.0179256
-0.0290923
0.0560222
-0.0463548
-0.0400535
0.0316228
-0.337542
0.0185402
0.0216548
-0.26937
-0.121725
-0.13547
0.0394258
-0.037527
0.039678
-0.0966738
-0.0414625
-0.0108768
0.228881
0.0372145
-0.0435992
0.0323074
0.111326
0.00459166
-0.0530527
0.0318273
-0.113367
0.125668
-0.164208
0.0391271
-0.0399029
-0.034796
-0.0425501
0.0302984
-0.366143
-0.0318492
-0.0721316
0.0698682
0.0407796
0.180496
-0.393313
-0.0490753
-0.0542352
0.0443251
0.0363854
-0.0769207
-0.18476
0.0254962
-0.0186212
0.0621953
-0.00935582
-0.0984047
-0.211729
-0.056175
-0.0509171
-0.404398
0.0815841
-0.0254259
-0.0361706
0.0410663
0.136746
-0.03265
-0.109837
-0.0368329
0.0426346
0.237328
0.194007
-0.0216202
-0.0661582
0.0296332
0.024201
-0.33533
0.0635278
0.0539442
-0.0444121
-0.0592664
-0.00384409
-0.071521
0.0154556
-0.00435871
-0.227702
0.331485
0.22276
0.0174983
0.0246419
0.121027
0.0936381
0.00110902
0.0798478
0.0144011
-0.00266278
0.04246
-0.0220778
0.182735
-0.0509541
-0.0120947
0.0553079
0.0304426
-0.0836916
-0.0953159
0.207952
0.0393425
0.0238713
-0.00228059
-0.044203
0.0405824
-0.0715675
-0.259221
0.0022846
-0.282578
0.173317
-0.0362102
-0.358731
-0.15258
-0.0361646
-0.0725213
-0.350304
-0.258325
-0.410014
-0.0116647
0.0978347
-0.0468532
0.0205808
0.223292
0.104758
-0.0908493
0.413208
-0.176908
0.0179477
0.028001
0.0229782
-0.0259661
0.0141401
0.0314586
-0.218639
-0.210406
0.0438244
0.0147209
0.0125687
-0.142902
-0.0715475
-0.0973746
0.0783375
-0.272754
0.0264862
-0.0203498
0.0374199
0.0986748
-0.0188651
0.0273195
0.177685
0.0659962
-0.13776
-0.0254416
0.00613437
0.406059
-0.0238145
-0.24212
0.0428471
-0.289167
0.0301286
-0.343665
-0.0466028
-0.100623
0.157576
-0.103341
-0.136175
0.212503
0.020476
-0.237476
-0.0260074
0.0306813
0.0311282
-0.0097798
0.036743
-0.0954673
0.0242665
0.0239216
0.0627881
-0.142141
0.0206507
0.0343137
0.0399293
0.0851104
0.0342271
-0.0194782
0.00932309
0.0313941
-0.108977
0.0364816
-0.0452863
0.0483614
0.0402222
0.0135976
-0.0371516
0.0147029
-0.0140928
-0.338608
0.0225154
-0.0986779
0.113748
0.0285033
-0.162178
0.063936
-0.187682
-0.0413025
0.0809032
0.145675
-0.0255085
0.0170123
-0.0458862
0.0534741
0.00588313
0.112385
-0.160004
-0.076535
0.0202301
0.049198
0.0408825
-0.025962
0.0348941
0.0231309
-0.100029
-0.0603043
-0.126275
-0.331662
0.0249554
-0.0349494
-0.0589695
-0.0241565
-0.0388764
-0.056764
-0.107831
0.0218565
-0.0786069
0.0652244
0.0557966
-0.179647
-0.143963
-0.0274001
-0.0267816
-0.00825183
-0.229111
-0.032664
0.0512962
-0.244463
0.0605646
-0.0815322
0.059229
0.04247
-0.0197836
0.0658166
0.00990798
0.0185669
-0.0314653
0.0898887
0.0336969
0.0898934
0.0211535
-0.346559
0.00140477
-0.000689932
0.0240526
0.207733
0.0253894
0.107232
-0.100004
-0.0818737
-0.0689436
-0.339306
-0.108897
-0.0383927
-0.0121599
-0.0956076
0.0397134
-0.209285
-0.0481996
-0.0129473
0.00790645
-0.0325575
-0.113826
0.146983
0.000309349
0.0296943
0.0578691
0.36975
-0.0156525
-0.0249153
0.0487969
-0.0971084
-0.103523
-0.0833276
-0.00119397
-0.0859941
-0.0191441
-0.025534
-0.100669
-0.338161
0.0413085
-0.132278
-0.0180369
-0.0947144
-0.0225095
0.0209611
-0.0196383
0.00167458
-0.0478285
0.0342904
0.0816045
0.0403155
0.0554017
0.0454165
0.2477
0.0676216
0.00610859
-0.333402
0.0566844
-0.126433
0.080318
-0.248533
-0.0778746
-0.31652
0.108414
0.0583359
0.0348421
0.0141293
0.0508381
0.00525109
0.00788484
-0.167264
-0.118949
-0.148383
0.0185274
0.0560639
0.0394702
0.350483
0.0059506
-0.073757
-0.190893
-0.0914317
-0.0369731
0.108056
-0.0638115
-0.0858772
-0.0221818
0.0322075
0.06023
-0.0463957
-0.0348929
-0.175522
-0.0552768
-0.0488218
-0.0652679
0.148369
0.0409411
0.0235003
0.26457
-0.105471
0.0385788
-0.0929348
-0.111788
-0.339009
0.00791999
-0.0693215
0.0145975
-0.058637
0.0280674
-0.0159792
0.0250778
0.0194769
-0.11918
-0.161505
-0.176446
0.0139826
-0.0731796
-0.0381308
-0.0533943
0.100385
-0.036437
-0.00160499
0.0334206
-0.0363799
0.162786
-0.0227421
0.047503
0.0594277
-0.00483253
-0.398747
0.0399908
0.0285006
0.13863
-0.107643
0.0401057
-0.0649416
-0.105271
0.0308668
-0.0296848
-0.33249
0.0332263
-0.0537725
0.0422941
-0.152373
0.00793569
-0.0687521
-0.117444
0.0953922
0.0262258
0.170481
0.128771
-0.33158
-0.0482283
-0.0724188
0.0422561
-0.0140916
0.075461
-0.05067
0.0473516
-0.332085
0.0189947
0.0340898
0.26522
0.044553
-0.364766
0.240168
-0.217474
-0.0210602
-0.0560941
0.0101353
0.155161
0.0279307
-0.00156869
-0.113977
-0.409139
-0.0395533
0.0268981
-0.261749
-0.16314
-0.365212
-0.105218
-0.0464642
-0.0928886
0.178836
0.00588213
0.00822258
0.0544157
0.0312064
-0.0649982
0.0509842
0.109013
-0.0724921
0.0551123
-0.115033
0.0262938
-0.0113928
-0.0277963
-0.0312977
-0.363026
-0.0205402
-0.099657
-0.0400955
0.474662
-0.0402769
0.0300766
-0.00725748
-0.105599
-0.0800537
-0.0355257
-0.0875998
0.00837166
-0.0509206
-0.343828
-0.108864
0.00636374
0.0764656
-0.212401
-0.0220498
0.0847857
0.0276228
0.0364859
-0.36517
-0.114399
0.0130367
0.159553
0.0290188
0.0232687
0.0159516
-0.00753471
-0.0535994
0.0420067
0.0373332
0.258008
0.0342333
-0.00488608
-0.0831904
0.120928
0.0221413
-0.0775904
0.0287926
-0.339872
0.00840238
0.00343534
-0.000962893
-0.0375689
-0.0376726
-0.33128
0.0220931
-0.339464
0.0218366
0.0553037
-0.0945235
0.054337
-0.148666
0.0116693
0.0630527
0.0200813
0.432759
0.199516
-0.00884543
-0.102945
-0.0271289
1.61366e-05
-0.09843
-0.0871741
-0.0258465
-0.0394194
-0.119567
0.0226026
0.344302
-0.079865
0.127454
0.0342228
-0.0334952
0.0719408
0.0247584
-0.00959045
0.161192
-0.0308477
-0.359863
0.0216252
-0.344513
0.0549218
0.0409242
0.0900061
0.0615571
-0.318255
-0.0101771
0.0400499
0.0045285
0.0352025
-0.0446049
-0.0389638
-0.0890428
-0.00870683
0.110384
-0.332777
0.110542
-0.358203
0.0843623
-0.045218
0.0242924
-0.0816038
0.0570388
-0.0412553
-0.139503
0.0396044
0.0552782
-0.0515384
-0.334752
0.000640341
-0.00790007
-0.216462
0.0576184
0.0231977
0.0212935
-0.354133
-0.171395
0.0282143
0.00642636
0.0541476
-0.0234636
0.0305463
0.0297736
-0.0677398
0.240315
-0.0469013
-0.00264457
0.0566603
0.0306491
0.0381813
-0.0509911
-0.0389412
-0.233635
-0.067289
-0.21225
-0.345625
0.0409774
0.00260815
0.0488978
0.0438261
0.0273575
-0.148213
0.000728751
-0.0985259
0.0171981
0.0298331
0.463771
-0.368715
-0.0444685
-0.111968
0.33412
-0.04212
0.0220359
0.0978845
0.0213403
-0.0969571
0.0388287
-0.0347676
0.00257524
0.0018758
0.116495
0.0391281
-0.0572532
-0.177455
0.0211468
0.0949029
-0.332981
-0.0497055
-0.344713
0.0405982
-0.212341
-0.00160409
0.0953847
0.0200861
-0.32507
0.0104633
-0.0738763
-0.0274455
0.0257164
0.0400967
-0.00325939
-0.00940641
0.0447528
0.436567
0.0255546
0.0463969
0.0427544
0.0425416
-0.0492956
-0.34347
-0.0485164
0.134216
-0.0804377
0.0189052
0.0513368
-0.025495
0.0295953
-0.212412
0.03997
0.0967331
0.0321325
0.0672473
0.0316394
0.0563902
-0.0863313
0.0278019
-0.0503118
0.0481093
-0.0149342
0.0497647
-0.0924133
-0.0595483
-0.0426027
0.0179707
0.00165394
0.00210222
-0.339703
-0.339126
-0.380326
0.119127
0.0319232
-0.0952318
-0.184039
-0.0850054
0.0111159
-0.0603334
-0.371652
0.0931253
-0.0202631
0.103881
0.039367
-0.0590388
0.00531874
0.0421814
-0.284179
-0.0261752
-0.0159358
-0.00660257
-0.10887
-0.021819
0.0107472
0.495801
0.0158035
0.0109466
-0.0857086
0.0120365
0.424591
0.0450643
-0.0014509
-0.0912406
-0.369851
0.23038
-0.0106546
0.0514472
-0.031967
0.0961958
-0.175819
0.0880915
0.0399745
-0.109283