/*--------------------------------*- C++ -*----------------------------------*\
| =========                 |                                                 |
| \\      /  F ield         | OpenFOAM: The Open Source CFD Toolbox           |
|  \\    /   O peration     | Version:  v2012                                 |
|   \\  /    A nd           | Website:  www.openfoam.com                      |
|    \\/     M anipulation  |                                                 |
\*---------------------------------------------------------------------------*/
FoamFile
{
    version     2.0;
    format      ascii;
    class       volVectorField;
    location    "150";
    object      U_0;
}
// * * * * * * * * * * * * * * * * * * * * * * * * * * * * * * * * * * * * * //

dimensions      [0 1 -1 0 0 0 0];


internalField   nonuniform List<vector> 
18232
(
(-0.152606 -0.0238733 3.01614e-20)
(1.04874 0.0164027 7.57303e-22)
(1.01107 0.0155526 1.05749e-20)
(0.975252 0.0157546 2.18067e-21)
(0.983057 0.138378 0)
(1.03029 0.163106 -1.02449e-21)
(0.97487 0.0102855 -8.92276e-21)
(0.999712 0.00219236 0)
(0.976206 0.135207 0)
(0.982168 0.136554 -4.45521e-21)
(0.976822 0.0193949 -1.76424e-20)
(1.12295 0.0420677 4.04254e-21)
(0.986418 0.126647 8.06696e-21)
(0.951756 0.166203 -7.0149e-20)
(0.891134 0.0522868 0)
(1.22875 0.0986508 -5.26503e-20)
(1.00206 0.000573154 0)
(1.0001 0.000932369 3.77317e-21)
(0.986644 0.0154901 2.10081e-22)
(1.04865 0.141787 -4.95905e-21)
(1.03614 0.166849 -2.10634e-22)
(0.987623 0.0364783 -4.03944e-21)
(0.978078 0.0197066 1.64317e-20)
(1.00129 0.0484652 0)
(0.890404 -0.0099312 -1.97423e-20)
(0.886775 -0.00833982 2.07012e-20)
(1.00756 0.0209727 0)
(1.03106 0.162374 -1.43029e-21)
(1.00011 0.000929958 3.41632e-21)
(1.01052 0.0155545 -7.22525e-21)
(0.999986 0.000275234 -7.80341e-21)
(-0.00308817 0.14743 0)
(0.996224 -0.00463663 0)
(-0.0494355 0.0966215 -5.03055e-20)
(0.872588 0.128526 6.78483e-21)
(1.03895 0.153189 1.17626e-21)
(0.822034 0.137689 0)
(0.999155 0.00179133 2.27909e-21)
(0.943333 0.14659 0)
(0.999932 -0.000460727 7.3327e-21)
(-0.172837 -0.0262345 -2.35823e-20)
(1.11069 0.0325951 -1.44046e-20)
(1.00013 0.149116 0)
(0.755722 0.128466 -7.89041e-21)
(1.00382 0.00535148 0)
(0.950283 0.144835 -1.02289e-20)
(1.0392 0.0144741 5.89532e-22)
(1.11283 0.0312361 3.34454e-20)
(1.06686 0.14202 1.9162e-20)
(1.03299 0.0173488 -3.38659e-23)
(0.992063 0.000726315 -3.83746e-21)
(1.00032 0.000343225 0)
(-0.188281 -0.0311031 5.80486e-20)
(1.09405 0.063187 0)
(1.04885 0.120712 -2.95245e-21)
(1.10035 0.137268 -2.74459e-22)
(0.997374 0.00329742 -1.15661e-20)
(0.99361 -0.00800094 1.0884e-20)
(0.238808 0.00638623 -6.32109e-20)
(1.03778 0.0215781 -2.83915e-22)
(0.889276 0.0491307 0)
(1.0039 0.00564171 4.08713e-21)
(0.997015 0.0808444 7.78416e-21)
(0.975629 0.0147099 -2.06645e-21)
(1.13474 0.0875001 -7.48431e-21)
(1.03817 0.0426253 7.50519e-22)
(-0.0223102 0.179741 -2.94046e-20)
(-0.0101761 0.147577 0)
(1.00812 0.0205542 0)
(0.995161 0.0821433 0)
(0.99717 0.00318336 -4.1305e-22)
(1.00659 0.00914547 1.17797e-20)
(0.00475799 0.142958 5.26184e-20)
(1.05512 0.157307 0)
(1.14931 0.0449555 0)
(1.10949 0.153327 1.08385e-21)
(0.969037 0.0528558 0)
(0.958324 0.00582247 -3.11681e-20)
(0.386203 0.0676805 1.50847e-21)
(0.980358 0.0301042 -9.83669e-21)
(-0.0115111 0.144974 -1.36683e-20)
(1.12021 0.086136 2.71558e-20)
(1.1015 0.0579855 -1.3841e-20)
(1.01439 0.0515296 4.23505e-21)
(1.06826 0.206713 7.18896e-23)
(1.10192 0.13706 2.1943e-20)
(1.00947 0.0144748 3.81855e-21)
(0.986836 0.0148459 0)
(1.12101 0.0836389 -2.84495e-20)
(1.09398 0.0967981 3.14683e-20)
(0.985971 0.0140438 2.96444e-21)
(1.0085 0.0218688 0)
(0.999961 0.000346366 -1.17992e-21)
(1.10681 0.133724 0)
(0.986171 0.0133024 -2.77848e-21)
(0.993319 0.0818233 0)
(0.995273 0.0102383 -8.28162e-21)
(0.985735 0.0314781 0)
(1.07194 0.275824 0)
(1.0175 0.0262248 0)
(0.855685 0.0362138 6.77221e-20)
(1.09413 0.0609946 -5.11715e-21)
(1.07969 0.158372 7.05592e-21)
(0.883525 0.0989205 2.38392e-20)
(1.03805 0.152951 0)
(0.923736 0.0447001 0)
(1.01025 0.0160896 -4.41181e-21)
(1.15373 0.104029 5.42961e-20)
(1.00029 4.21976e-05 1.12759e-20)
(0.997674 0.079288 -5.85819e-21)
(1.03718 0.0420165 -2.09266e-21)
(1.11654 0.153984 0)
(1.03179 0.0191296 0)
(0.976123 0.0102417 -4.31869e-21)
(0.992574 0.000759964 -4.26845e-21)
(1.04161 0.0755005 0)
(1.12502 0.080161 0)
(0.929608 0.141365 9.55651e-21)
(1.06863 0.109236 0)
(1.04488 0.0747871 5.16799e-21)
(0.997931 0.00461439 -5.47535e-21)
(0.999086 0.00191017 2.82355e-21)
(0.455284 0.265129 -3.17844e-21)
(1.03747 0.156746 -4.98508e-21)
(1.04087 0.143253 -2.3918e-20)
(0.99967 0.146104 0)
(1.21448 0.0238265 9.28933e-20)
(1.01976 0.00738202 3.69434e-21)
(1.03482 0.16596 -1.71404e-22)
(1.1184 0.153292 0)
(1.01143 0.0179924 0)
(0.985115 0.03539 1.74318e-20)
(1.06995 0.107884 0)
(1.02534 0.0126422 0)
(-0.192165 -0.0295891 0)
(1.11089 0.152423 -1.11376e-22)
(1.06585 0.142821 -1.07497e-20)
(0.999765 -0.00057669 1.16675e-20)
(1.03903 0.0208515 -7.47955e-22)
(0.934009 0.145739 0)
(1.04916 0.11903 7.73015e-21)
(0.922324 0.0419657 0)
(-0.1539 0.0717945 -3.60597e-20)
(0.993748 0.00855229 8.77832e-21)
(1.03419 0.112187 -2.29614e-21)
(0.99856 0.109302 0)
(0.893306 0.045244 2.06741e-21)
(0.999989 5.16512e-06 -1.07168e-20)
(0.812521 0.122472 0)
(1.01193 0.155095 -2.45868e-21)
(0.283018 -0.03215 0)
(1.10876 0.037466 1.36281e-20)
(1.121 0.0909292 0)
(0.970689 0.0532124 -1.12312e-20)
(1.09202 0.0962716 -3.0808e-20)
(-0.171205 -0.0239209 9.46891e-20)
(1.19736 0.105813 0)
(1.13182 0.0872433 3.59646e-21)
(0.673001 0.0870099 -1.16783e-19)
(1.03869 0.0216109 8.38513e-22)
(1.04854 0.0172255 -8.5076e-22)
(1.02542 0.0123369 0)
(1.00773 0.0216574 0)
(-0.0167708 0.173187 0)
(0.93098 0.134452 0)
(0.98162 -0.0145958 -1.58965e-20)
(0.860407 0.132521 0)
(-0.146835 0.0737032 9.21676e-20)
(0.930835 -0.0159793 -4.65646e-20)
(0.987009 0.145341 4.00562e-21)
(1.011 0.02342 5.46843e-21)
(0.99973 0.00203985 -8.98612e-21)
(1.01109 0.0176135 -3.45413e-21)
(0.986097 0.0366992 -3.9168e-21)
(0.965478 0.0262852 -1.14165e-20)
(0.430911 0.0760192 -5.79047e-21)
(1.01497 0.0528618 -1.07129e-21)
(1.00001 0.000305301 -3.86987e-21)
(0.892116 0.130494 -7.19952e-21)
(0.992236 -0.00194934 -2.45168e-20)
(1.03818 0.145713 0)
(0.965229 0.148145 2.25299e-20)
(1.00624 0.00906187 -1.60781e-20)
(1.08099 0.158492 -1.62537e-21)
(-0.213973 -0.0372539 3.26359e-20)
(1 8.86472e-06 0)
(1.02119 0.0436365 0)
(1.05699 0.196037 -1.07128e-20)
(0.999897 -0.00060543 0)
(0.57783 0.09512 -1.6009e-21)
(0.921931 0.000884024 -1.97061e-20)
(0.997617 0.0183116 0)
(0.979519 0.135064 -4.8128e-21)
(0.857462 0.130564 0)
(0.994258 0.0085553 4.49677e-21)
(0.993079 0.0326556 0)
(1.03151 0.0184554 0)
(0.968447 0.011863 9.39717e-21)
(1.01392 0.000853936 -9.23507e-21)
(1.01688 0.0148599 0)
(0.999999 0.00031354 6.68791e-21)
(1.03809 0.0887415 3.23823e-21)
(0.841975 -0.00114378 -5.97476e-20)
(0.664747 0.275228 -6.62271e-20)
(1.15287 0.10112 -2.18893e-20)
(0.0727827 -0.0410212 0)
(1.02577 0.224493 8.19858e-23)
(0.079815 0.106333 0)
(1.00801 0.156871 -5.0114e-21)
(1.07257 0.0938631 -6.11968e-21)
(1.00956 0.0234348 -5.37705e-21)
(0.892365 0.0418777 -1.12501e-20)
(0.86089 0.0367237 -5.64865e-20)
(1.0622 0.270364 7.01098e-21)
(1.23168 0.0911838 7.7158e-20)
(1.03647 0.0878746 -2.95598e-21)
(1.12255 0.0932382 0)
(1.00863 0.0225149 3.23718e-21)
(1.00975 0.0159959 1.19305e-20)
(0.985265 0.0304356 8.18685e-21)
(0.846272 0.126636 0)
(1.03744 0.0223022 2.9274e-22)
(0.0689881 0.331186 3.13126e-20)
(0.993051 0.071829 1.37918e-20)
(1.0141 0.000721853 6.44815e-21)
(1.0112 0.0229415 7.49728e-21)
(1.01051 0.156741 3.59234e-21)
(1.00285 0.0485537 0)
(0.992664 -0.00163591 8.93425e-21)
(0.997217 -0.00535597 -1.07387e-20)
(0.981533 0.000874825 -1.31584e-20)
(0.93304 -0.0147929 2.85559e-20)
(-0.172375 0.0630195 -3.23107e-20)
(1.19933 0.102306 0)
(0.996024 -0.00445157 4.97764e-21)
(0.928417 0.142418 0)
(0.955137 -0.0103126 -5.43057e-21)
(1.21988 0.0477937 0)
(1.0337 0.0174637 0)
(1.00048 0.000336856 -5.22715e-21)
(0.980822 0.00117206 1.26217e-22)
(1.01924 0.1531 -3.65401e-20)
(1.22299 0.043206 6.59802e-20)
(0.898716 0.0930381 0)
(0.726256 0.121904 -8.55394e-21)
(0.97736 0.142921 -3.28597e-21)
(1.00004 0.000122842 6.5171e-21)
(0.219597 0.0123114 -3.81989e-20)
(0.426893 0.0605405 2.01372e-21)
(0.963386 0.0644975 -1.18276e-20)
(1.11363 0.135906 -5.35557e-22)
(1.09785 0.139808 -1.07451e-20)
(1.02029 0.0240739 4.35762e-23)
(1.00566 0.156398 3.69054e-21)
(0.994098 0.0322649 -1.05933e-20)
(0.410349 0.0513535 -1.39523e-19)
(1.04751 0.15716 5.44774e-23)
(0.114422 0.33967 -2.77983e-20)
(1.0724 0.208954 -7.94514e-23)
(1.03757 0.146678 3.11425e-21)
(1.01108 0.0653161 -9.00552e-21)
(1.09254 0.06445 0)
(1.01923 0.152463 0)
(1.00002 0.000392183 0)
(1.02384 0.0209613 2.7633e-21)
(1.00007 0.000444672 0)
(0.719853 0.121605 -6.29149e-21)
(0.67433 0.0766554 1.18857e-19)
(1.09968 0.139807 -2.06674e-20)
(1.05676 0.153292 0)
(0.983661 0.0356347 1.05687e-20)
(-0.0611052 0.0898272 -6.0381e-22)
(0.988015 0.188037 -2.96688e-21)
(1.00733 0.00117645 8.11804e-23)
(1.02102 0.0240883 0)
(0.550406 0.0885624 -7.57961e-22)
(1.09932 0.0565403 0)
(0.960248 0.00145063 -1.58982e-20)
(1.0005 0.000392893 6.66607e-21)
(0.950151 0.141475 0)
(0.705312 0.115804 0)
(1.04362 0.0759686 -3.1263e-21)
(1.04209 0.0245901 -1.78498e-21)
(0.652232 0.109495 -4.11551e-21)
(1.06782 0.143111 -1.07538e-20)
(0.955808 -0.0111601 1.35445e-20)
(1.03698 0.109924 1.44924e-21)
(0.757121 0.125717 -1.35938e-21)
(0.989594 0.083781 -9.19836e-21)
(1.12289 0.0778546 -2.31885e-20)
(0.997924 0.0189132 1.37067e-22)
(1.09619 0.0792131 -3.4628e-21)
(0.601578 0.0968443 3.502e-21)
(1.12568 0.0400527 -1.77918e-20)
(1.11114 0.0361137 -1.47287e-20)
(1.05736 0.152759 2.37805e-21)
(0.661628 0.110028 5.15108e-21)
(1.04135 0.0214304 0)
(1.00412 0.0057726 9.95073e-21)
(0.985661 0.0794358 4.99886e-22)
(1.06089 0.0448665 1.56535e-22)
(1.00036 0.000135433 0)
(0.908044 0.134205 2.07574e-21)
(1.11024 0.136882 0)
(1.00029 0.000158662 6.05787e-21)
(0.993167 -0.00823231 4.63601e-21)
(1.16306 0.00415479 -6.03778e-20)
(1.08156 0.0559067 -7.14794e-21)
(1.00191 0.000618133 0)
(0.889995 0.134331 1.62168e-22)
(0.900938 0.0975099 2.23493e-20)
(0.997329 0.00527491 0)
(1.17384 0.0702049 5.10967e-20)
(0.972582 0.0478475 1.77196e-20)
(1.04279 0.0254391 -5.95872e-23)
(1.03599 0.11194 2.08221e-21)
(0.643373 0.103677 0)
(1.02387 0.0128317 5.62214e-21)
(0.955152 0.145278 -1.13612e-20)
(0.99372 0.000398138 1.63136e-21)
(0.943845 0.159705 -1.34856e-20)
(1.04043 0.076857 -1.62557e-22)
(1.15206 0.0517874 7.8077e-21)
(0.551506 -0.026147 -7.6e-20)
(0.856658 0.00414511 0)
(1.03505 0.042033 7.83898e-23)
(1.19784 0.0062731 -3.82065e-20)
(1.03842 0.0761858 3.0171e-21)
(1.09569 0.0270959 0)
(0.991764 0.0844699 7.79816e-21)
(1.09033 0.0646493 0)
(0.992455 0.0128329 0)
(1.10945 0.10369 0)
(0.28209 0.588047 -5.13663e-20)
(1.05293 0.141701 0)
(-0.204596 -0.0263311 0)
(1.04883 0.153544 -3.17145e-21)
(1.02066 0.187497 0)
(1.00794 0.0198534 2.87155e-21)
(1.07168 0.0918172 -1.9462e-21)
(0.997485 -0.00518405 -2.79048e-21)
(1.02033 0.218359 -8.87987e-23)
(1.00002 9.68092e-05 -1.39769e-20)
(1.01995 0.00120265 0)
(1.02339 0.0126392 -6.07415e-21)
(1.13199 0.116557 -5.4445e-21)
(-0.278772 -0.0438732 0)
(1.03642 0.108682 -8.05514e-22)
(1.16501 0.0080487 8.46595e-20)
(0.954833 -0.0142927 -2.82881e-20)
(1.16476 0.143808 2.44475e-20)
(0.863447 0.021091 -2.61458e-20)
(0.859883 0.00702418 -2.9538e-20)
(1.02349 0.0220507 5.82937e-21)
(1.09104 0.0825972 0)
(1.02886 0.111193 8.69312e-24)
(1.10673 0.135134 0)
(-0.27033 -0.0420394 0)
(0.999181 0.00241239 4.7809e-21)
(0.997177 0.00468714 0)
(1.03371 0.22261 0)
(1.0021 0.144485 0)
(0.158411 -0.00108126 6.3177e-20)
(0.954308 -0.0130505 1.02914e-20)
(-0.207309 -0.0345177 0)
(0.919564 0.00229106 2.44308e-20)
(0.877664 0.140973 3.6922e-20)
(-0.277194 -0.045821 3.30873e-20)
(0.926782 0.0452651 2.17897e-20)
(1.01733 0.183522 1.35902e-20)
(1.04134 0.154199 1.44596e-21)
(1.0457 0.151475 0)
(1.04917 0.0176776 0)
(-0.084761 -0.00907957 6.29133e-20)
(1.01684 0.0153739 -3.67819e-21)
(1.01666 0.0261939 0)
(1.03621 0.0229568 3.0188e-22)
(1.00723 0.00336551 -5.6191e-21)
(1.2278 0.09925 8.01515e-20)
(1.17638 0.0735459 -3.80483e-20)
(0.994896 0.114857 0)
(1.09394 0.0790252 0)
(0.999967 -0.000110446 -1.34479e-20)
(0.976317 0.0297708 1.88558e-20)
(0.46058 0.0628529 0)
(1.09432 0.0253882 0)
(0.973472 -0.00453407 0)
(1.00737 0.00359553 0)
(0.982047 -0.000718309 1.27615e-20)
(1.01229 0.0962878 0)
(1.05637 0.120808 -2.12497e-21)
(0.751103 0.0138592 -6.15963e-20)
(0.796483 0.121303 -2.61343e-21)
(1.09618 0.0227873 0)
(0.914133 0.149254 1.83418e-20)
(0.962847 0.0666394 0)
(0.473232 0.229542 0)
(1.00608 0.00861484 1.06178e-20)
(0.670035 0.299646 3.83998e-20)
(1.00675 0.00307846 0)
(1.04642 0.151851 0)
(1.23611 0.0868834 -6.07457e-20)
(1.18147 0.00954549 -3.64727e-20)
(0.229978 0.652819 -1.71529e-20)
(1.09152 0.0812335 0)
(0.999293 0.00235871 -9.97339e-21)
(1.0321 0.115413 0)
(1.00037 0.000410098 -7.37397e-22)
(0.989872 -0.00970743 -9.23028e-21)
(1.03114 0.158107 0)
(0.928794 0.159002 2.59211e-20)
(-0.0941487 0.0150396 -4.2966e-20)
(1.07954 0.0560227 0)
(1.03721 0.0773591 -3.4308e-21)
(0.973417 0.170197 2.88644e-20)
(1.04045 0.147908 1.3945e-22)
(1.00028 0.00696642 -9.65161e-21)
(1.00003 0.000774639 -4.33849e-21)
(0.917079 0.143569 0)
(0.967567 0.0112362 2.44769e-20)
(1.01506 0.101472 -2.70432e-21)
(0.809077 0.0918781 8.85892e-20)
(1.12955 0.0124967 3.23e-20)
(1.01717 0.0192233 0)
(1.00576 0.152485 0)
(1.10819 0.119401 1.60162e-20)
(1.15039 0.042301 6.63938e-20)
(1.12718 0.0306885 -1.72636e-20)
(0.873274 0.136729 -7.04267e-20)
(1.04958 0.141383 0)
(1.0225 0.012764 -4.07692e-21)
(1.06462 0.142224 1.18387e-20)
(-0.267452 -0.0406313 0)
(0.961801 0.0021316 2.24456e-22)
(1.10726 0.103059 0)
(0.996938 0.00451445 1.15138e-20)
(0.993363 0.00058702 -2.04374e-21)
(0.997052 -0.00576259 1.44997e-20)
(1.06722 0.0270091 9.13457e-21)
(0.97463 0.0136859 0)
(0.848164 -0.00127764 9.64135e-20)
(1.11265 0.13191 -1.9027e-20)
(0.881676 0.128983 -5.96506e-21)
(1.01698 0.137425 -5.12445e-22)
(1.02049 0.0426361 4.05031e-23)
(1.01505 0.13632 -1.26018e-21)
(0.939204 0.0442021 -8.14202e-21)
(0.979227 0.0294222 2.84874e-21)
(1.1421 0.0519411 -2.54918e-20)
(0.864068 0.125129 0)
(0.867881 0.128296 -3.36782e-21)
(0.968136 0.0366258 0)
(1.02072 0.0082646 -2.16633e-21)
(0.997097 0.00509463 0)
(1.04625 0.156606 7.29985e-21)
(1.00075 0.0174606 0)
(-0.0412809 0.16026 9.94369e-20)
(1.00002 0.000683317 1.52063e-20)
(0.98781 0.184139 7.70028e-21)
(0.998065 0.111826 -5.33674e-21)
(1.01715 0.0197331 2.46883e-21)
(1.0161 0.175195 4.66504e-23)
(0.941897 0.0454341 0)
(1.13504 0.148447 -3.09831e-20)
(1.01571 0.0207886 0)
(0.980752 -0.0147709 4.34728e-21)
(1.01638 0.0160699 3.64233e-21)
(0.96345 0.0848788 2.99074e-20)
(0.984201 0.124919 5.31503e-22)
(0.99532 0.112457 -5.40767e-21)
(1.00028 0.00675472 4.84005e-21)
(0.905981 0.133747 0)
(1.10068 0.123932 2.74578e-20)
(1.20299 0.0669929 -4.31486e-22)
(0.74406 0.0217185 1.20547e-19)
(0.94516 0.165014 1.33372e-21)
(1.03995 0.027203 -1.21177e-21)
(1.06542 0.150526 0)
(-0.202458 -0.0281985 -2.8948e-20)
(1.01254 0.0656987 8.02902e-21)
(1.01583 0.153871 2.67271e-21)
(1.06979 0.030493 7.99875e-21)
(0.9981 0.00481677 1.95546e-20)
(1.13193 0.0104271 -3.79114e-20)
(0.999803 -0.000452533 8.8722e-22)
(0.971797 0.146034 0)
(1.02722 0.0667258 0)
(1.01028 0.0640727 8.27594e-21)
(0.773233 0.125799 7.68815e-21)
(1.09506 0.0208932 0)
(0.99953 0.00423937 0)
(1.03203 0.158875 1.70835e-21)
(1.0003 0.0177558 0)
(1.03537 0.0764855 1.74157e-21)
(0.978445 0.160399 -9.16708e-21)
(1.10581 0.11894 0)
(1.01502 0.0110879 3.7879e-21)
(1.04181 0.153842 0)
(1.08193 0.157891 0)
(1.00178 0.000488887 0)
(0.975078 0.0126397 -1.66536e-20)
(1.04685 0.0514604 -7.14792e-21)
(0.933148 -0.011882 0)
(1.01981 0.171897 -2.62233e-22)
(-0.271631 -0.0414065 -1.40972e-19)
(1.03644 0.146534 -1.97524e-21)
(0.989998 0.00453288 -8.90539e-21)
(0.989806 0.0483038 1.51958e-21)
(1.00554 0.00721993 1.04521e-20)
(1.01883 0.034849 0)
(0.923319 0.141357 0)
(0.966839 0.0380683 -2.23769e-21)
(1.0341 0.0776047 -1.95895e-21)
(0.844544 0.140578 0)
(1.01921 0.00824879 -2.43665e-21)
(0.989619 0.00488738 0)
(0.974433 -0.00423115 -5.27615e-21)
(1.05242 0.131085 -1.30501e-21)
(1.01902 0.0514135 -1.23927e-22)
(1.02061 0.025777 0)
(0.935309 -0.0108637 0)
(1.03608 0.0427579 0)
(0.907844 -0.0337579 -3.1123e-20)
(0.368891 0.0326413 -2.36387e-20)
(-0.0256211 0.191501 0)
(1.02071 0.0351299 0)
(1.02402 0.0216237 -2.77529e-21)
(0.996368 0.00916487 -7.50338e-21)
(0.994049 0.0699917 0)
(-0.274016 -0.0436488 1.34778e-19)
(0.999071 0.00400738 5.9224e-21)
(1.20907 0.0239531 -7.12143e-20)
(1.01926 0.174319 -5.59838e-23)
(0.981111 0.159193 1.1239e-20)
(0.0298559 0.131318 -3.12954e-20)
(1.00573 0.00859473 -1.18882e-20)
(1.12193 0.152197 -3.02466e-20)
(0.996029 0.00952157 0)
(1.03636 0.187457 -1.61157e-20)
(1.11411 0.13819 0)
(0.956584 0.00567341 4.64056e-20)
(1.05509 0.120261 -5.94675e-21)
(1.00577 0.00717383 -1.21603e-20)
(1.02018 0.00767175 1.77951e-21)
(1.00165 0.000547136 -5.46385e-21)
(0.950754 0.195075 -1.42059e-20)
(0.675574 0.110545 -2.54497e-22)
(1.06651 0.108618 1.82519e-20)
(1.00174 0.0176475 -1.13888e-20)
(1.05161 0.141254 3.45252e-21)
(1.00211 0.141823 -6.04486e-21)
(1.01747 0.014713 3.3324e-21)
(1.02 0.0525011 -3.91032e-22)
(0.999393 0.00423616 0)
(0.640933 0.105566 4.67378e-21)
(-0.214238 -0.030478 6.97769e-21)
(1.02734 0.0346171 -1.78283e-21)
(1.05732 0.0327275 4.25299e-21)
(0.980617 -0.0128123 -3.56542e-21)
(1.12421 0.152313 1.93127e-20)
(0.988295 0.14622 -1.2597e-21)
(1.00002 0.000140968 -3.53192e-21)
(0.769314 0.150819 0)
(0.999994 0.00141507 0)
(1.13343 0.147127 3.71338e-20)
(1.00322 0.000519483 6.98784e-21)
(1.01505 0.0106998 3.86847e-21)
(1.1675 0.143321 3.04481e-20)
(0.433055 0.0284607 1.24586e-19)
(1.01462 0.155583 -2.79685e-21)
(0.993989 -0.000352309 -1.00729e-20)
(0.988832 0.0195404 6.37822e-21)
(0.782171 0.138071 4.00128e-20)
(1.02594 0.065846 -1.26278e-21)
(1.02031 0.0262585 -5.28766e-21)
(1.03967 0.0280091 1.68617e-21)
(0.769349 0.130371 -1.07381e-21)
(0.891375 0.0337289 -2.29898e-20)
(1.04641 0.173455 1.84488e-21)
(1.00725 0.0196713 -5.70068e-21)
(0.574016 0.0903661 -3.04878e-21)
(0.995055 0.00860455 0)
(1.00139 0.148558 -2.83094e-21)
(1.11344 0.102352 -7.36683e-21)
(1.00581 0.00175949 0)
(1.05231 0.132537 1.35528e-21)
(0.995488 0.0087029 0)
(1.11194 0.0272892 -4.45048e-20)
(1.20475 0.0453761 -1.05136e-21)
(-0.0117015 0.152121 0)
(1.01749 0.0142178 3.21037e-21)
(1.00122 0.00237401 -9.56624e-21)
(1.01571 0.177756 -1.01777e-22)
(1.00895 0.0144283 -4.18135e-21)
(0.0413566 0.436276 -1.32385e-19)
(0.993166 0.0386793 -2.39677e-21)
(1.06769 0.0285604 -1.2428e-20)
(-0.0438155 0.159579 -2.19882e-20)
(0.858965 0.128605 0)
(0.983352 0.0792888 -4.54846e-21)
(0.994326 0.0390564 0)
(1.01414 0.00740154 2.50319e-21)
(-0.130087 0.0506503 2.36963e-20)
(1.1114 0.101662 0)
(1.02697 0.0119812 0)
(0.921294 0.107789 0)
(0.999092 0.00379667 0)
(0.542117 0.0972787 -4.85456e-22)
(1.00112 0.00229951 9.75572e-22)
(0.975686 0.145882 0)
(1.03252 0.0192796 0)
(1.01831 0.0342868 -2.50855e-23)
(1.06539 0.109977 -2.06975e-20)
(0.835635 0.118784 -6.15106e-20)
(0.918685 0.0958596 6.24517e-20)
(1.00192 0.00289707 -3.978e-21)
(1.00712 0.0189962 0)
(0.749981 0.114985 -3.53816e-21)
(1.00198 0.00278363 4.00147e-21)
(0.981333 -0.000307457 2.78385e-20)
(1.00145 0.0273499 -2.84482e-21)
(1.00001 0.00132688 4.71885e-21)
(0.531993 0.368425 -5.49729e-20)
(0.833969 0.137149 7.54197e-21)
(1.07141 0.0954765 0)
(1.04737 0.141271 9.59686e-21)
(1.00318 0.158545 0)
(-0.170601 -0.00615801 0)
(0.988026 0.0602211 7.02781e-21)
(1.01908 0.0428745 1.4882e-21)
(0.990022 0.00337102 0)
(0.98769 0.0183505 1.5011e-20)
(0.996128 -0.00743177 -1.17445e-20)
(1.00705 0.00130218 1.43326e-21)
(0.92699 0.145358 6.83199e-21)
(0.672994 0.103715 2.00506e-21)
(0.917587 0.130812 0)
(0.690866 0.114903 1.81693e-20)
(0.946582 0.137531 0)
(1.10669 0.0420333 4.15014e-20)
(1.10844 0.136462 -1.29517e-20)
(1.0849 0.154052 0)
(1.00003 0.000161777 0)
(1.08425 0.152549 0)
(1.01979 0.0354569 0)
(1.01098 0.136501 -7.01179e-21)
(1.12404 0.0829912 0)
(-0.171672 -0.00531868 0)
(1.05449 0.0596523 0)
(0.97615 0.028371 2.8218e-20)
(0.677296 0.105404 4.33578e-21)
(1.04375 0.0227983 0)
(1.02908 0.0773988 0)
(1.05597 0.0327247 -2.28373e-22)
(0.925948 0.150805 -4.44736e-21)
(1.02244 0.151118 2.71341e-22)
(1.0008 0.0269141 -7.40923e-21)
(1.01354 0.220388 1.78484e-24)
(1.13114 0.00599012 5.06928e-21)
(1.06718 0.157922 -1.60918e-20)
(1.04835 0.0518649 8.97026e-21)
(1.00817 0.0237923 -3.11352e-21)
(1.05309 0.0475752 -1.03849e-20)
(1.12957 0.0244991 -2.03907e-20)
(1.01705 0.0328979 1.29217e-21)
(1.16159 0.0128349 -4.7505e-20)
(0.809308 0.100006 -5.15305e-20)
(1.01141 0.0169933 1.2235e-21)
(1.01852 0.0417649 0)
(1.0354 0.0228508 -4.67629e-22)
(1.00501 0.00301037 6.78807e-21)
(0.464704 0.0697068 7.34523e-21)
(0.837314 0.139863 -2.55103e-20)
(0.991392 0.0311789 -1.18473e-20)
(0.80457 0.138939 -4.79636e-20)
(0.98799 0.160156 1.02626e-20)
(0.844211 0.138931 7.35441e-22)
(1.16849 0.061025 -4.20193e-20)
(0.993501 -0.00237062 -8.66785e-22)
(-0.163205 0.00434176 0)
(0.966039 0.0837153 -1.3975e-20)
(0.894639 0.0350908 2.34693e-20)
(-0.24111 -0.0362282 1.1894e-19)
(0.996346 -0.00713652 7.87219e-21)
(1.05283 0.059454 2.55439e-22)
(1.053 0.151577 2.33337e-20)
(0.642608 0.103692 3.05092e-22)
(0.986745 0.0181077 -1.57498e-20)
(1.00857 0.09556 0)
(0.0982525 -0.0342568 1.61176e-19)
(0.969784 0.0256707 2.56559e-20)
(1.00289 0.0113421 1.53549e-20)
(1.0816 0.158557 8.13323e-22)
(0.937329 0.142644 -7.03636e-21)
(0.828179 -0.0404371 -9.53753e-21)
(1.00083 0.157373 -4.22018e-22)
(0.616168 0.0996336 0)
(0.879483 0.0348837 0)
(1.10788 0.0234195 -1.11823e-20)
(0.5941 0.0856557 -3.84488e-20)
(1.11684 0.11974 0)
(-0.238963 -0.0340275 -1.30692e-19)
(1.09033 0.098569 1.06126e-21)
(0.246971 0.0119439 0)
(1.10114 0.0604379 1.42996e-20)
(0.995742 0.0104265 8.1499e-21)
(-0.0262743 0.14192 0)
(1.00049 0.000151169 0)
(1.00221 0.00274137 -7.30701e-21)
(1.00561 0.0114424 0)
(-0.134177 0.0448892 -4.53978e-20)
(0.791166 0.208445 7.226e-20)
(0.994931 0.000476489 1.26178e-20)
(1.06634 0.150981 -3.8732e-20)
(0.999945 -0.00010466 6.731e-21)
(1.10941 0.0491395 1.54884e-20)
(1.04381 0.0977867 3.35171e-21)
(-0.0288801 0.190149 -3.60999e-20)
(1.12247 0.0451136 0)
(0.985299 0.158492 -4.62221e-21)
(0.977884 0.0090425 -2.31421e-20)
(1.02009 0.0193783 1.86602e-21)
(0.991966 0.013315 -5.17621e-21)
(-0.200495 -0.0193622 -7.18398e-20)
(1.13673 0.115052 0)
(0.893214 0.133777 0)
(1.00001 0.000377551 -1.67045e-21)
(1.06646 0.15139 0)
(1.00038 7.39354e-05 -6.01391e-21)
(1.00051 7.99262e-05 -6.21325e-21)
(1.01015 0.0971451 0)
(1.0097 0.0149693 0)
(0.988688 0.0591875 0)
(0.913112 0.0114747 -9.68754e-21)
(0.894909 0.0740313 -5.0067e-23)
(0.999945 -0.000708335 1.55066e-20)
(1.20285 0.049847 6.32826e-20)
(1.00692 0.0033157 -1.04142e-22)
(0.85264 0.0400313 0)
(-0.299073 -0.0484175 0)
(1.1091 0.040507 -4.36561e-20)
(-0.215913 -0.0305631 0)
(1.02009 0.0188247 0)
(1.04773 0.152956 2.38575e-21)
(-0.128578 0.00696256 4.11944e-20)
(1.02298 0.0129932 4.10642e-21)
(0.277963 0.0242331 -1.26611e-20)
(0.971564 0.156957 -6.08965e-21)
(0.287548 0.0164907 3.3308e-20)
(1.14804 0.139552 0)
(0.84368 0.144241 2.90824e-20)
(1.00513 0.00278379 3.24926e-21)
(1.02886 0.0658527 -1.23227e-22)
(1.04249 0.0237673 1.92119e-21)
(1.05379 0.143938 1.89324e-21)
(0.89328 0.12608 0)
(1.03782 0.156109 0)
(1.04139 0.0263514 -2.50033e-21)
(0.999468 0.000478846 -1.86879e-20)
(0.591147 0.0991177 -8.5808e-21)
(-0.0502157 0.148018 6.26765e-20)
(1.03805 0.157284 5.97911e-21)
(1.00557 0.000982775 -1.24645e-20)
(0.797274 0.218038 -1.7528e-21)
(1.0111 0.0166165 0)
(1.07659 0.0888917 0)
(-0.20069 -0.014868 0)
(0.859878 0.02495 0)
(-0.168081 0.048635 1.54236e-20)
(0.978059 0.0459696 1.41907e-20)
(1.02766 0.076452 1.16689e-23)
(0.0631842 0.111802 -2.40097e-20)
(0.0622724 0.0155496 2.44449e-19)
(1.03009 0.0664931 0)
(1.0026 0.0105437 2.40699e-21)
(1.08825 0.0979908 -2.18074e-22)
(1.05997 0.151155 4.43468e-20)
(1.04206 0.0980707 -5.36367e-21)
(1.01802 0.013547 2.97246e-21)
(1.12999 0.0286196 3.3908e-20)
(1.19955 0.0696467 1.91493e-20)
(0.907046 0.187429 0)
(1.05472 0.0342338 3.21771e-21)
(1.13058 0.118746 6.77786e-23)
(0.999973 0.00149092 -3.18251e-23)
(1.00001 0.000447996 1.05308e-20)
(0.238142 0.505652 0)
(0.941865 0.160281 -6.57424e-22)
(0.614352 0.102035 6.63219e-21)
(0.340158 0.16312 0)
(1.06149 0.132516 -1.99984e-20)
(1.0432 0.143559 4.43709e-21)
(0.841642 0.141804 0)
(0.989426 0.030302 -1.37737e-20)
(1.00135 0.0898408 -8.47969e-21)
(0.974987 0.138637 0)
(1.03124 0.152823 6.27408e-21)
(1.03917 0.0423806 -2.21932e-21)
(1.10869 0.0260668 2.44691e-20)
(0.759919 0.115719 -3.98978e-21)
(0.899244 0.0748005 -4.41009e-20)
(1.0589 0.153864 2.91885e-20)
(1.00259 0.0111411 -1.45199e-20)
(0.999996 0.00139972 0)
(0.991874 0.0319802 0)
(0.834098 0.02804 -3.61454e-20)
(0.979908 -0.0135787 0)
(0.098626 0.495202 9.72539e-20)
(1.04456 0.117878 -2.48377e-21)
(1.03086 0.0565603 -1.00086e-22)
(1.02255 0.16184 -4.13372e-21)
(1.11016 0.0619331 4.84323e-21)
(0.488241 0.220859 -1.07844e-19)
(-0.00358451 0.146092 -5.68079e-20)
(0.821924 0.217389 3.24535e-20)
(1.08651 0.158594 -1.58779e-21)
(1.05462 0.152105 2.50287e-21)
(0.959438 0.00441226 1.41897e-20)
(1.00586 0.00306828 4.9898e-21)
(1.05279 0.143218 0)
(-0.026569 0.191714 0)
(0.958494 0.126403 3.49127e-21)
(1.07303 0.090172 8.83774e-21)
(0.467747 0.298356 -7.8004e-20)
(1.05463 0.0350524 -7.16664e-21)
(1.03305 0.0657914 1.81075e-22)
(0.978256 0.0251137 0)
(0.0200833 0.134863 6.39955e-20)
(0.996168 0.0326875 9.0605e-21)
(1.05471 0.157494 0)
(1.09915 0.122965 -2.63246e-20)
(0.995179 0.00966525 -2.09154e-20)
(1.21642 0.048907 0)
(0.821466 -0.039125 -2.7239e-20)
(0.362406 0.0403358 -4.01033e-21)
(1.04103 0.0271564 0)
(1.01789 0.0269347 0)
(1.00568 0.0116986 0)
(1.10608 0.151891 -2.67525e-20)
(1.0089 0.000603694 -1.18892e-21)
(1.10213 0.0502262 1.24299e-20)
(0.996916 0.0075889 0)
(-0.165041 0.00123816 -2.80312e-20)
(0.966805 0.0254495 7.93806e-21)
(1.23234 0.0945428 0)
(1.16384 0.0163367 4.38411e-20)
(1.05551 0.0578382 1.23742e-21)
(1.00524 0.00481474 1.00061e-20)
(1.00484 0.0615534 0)
(1.02123 0.152715 -1.42144e-23)
(1.00501 0.0282298 -8.21023e-21)
(0.939819 0.00995409 -3.06048e-20)
(0.694917 0.539248 -1.10902e-20)
(-0.164087 0.0441081 3.83977e-21)
(0.889051 0.0557869 0)
(1.05416 0.157709 1.50251e-20)
(0.999599 0.00219477 1.84312e-20)
(1.0074 0.0134255 0)
(1.03219 0.0772295 -1.20241e-22)
(0.999372 0.00047763 5.96033e-21)
(1.03082 0.0764435 0)
(1.013 0.137633 4.73463e-21)
(0.880299 0.0938054 0)
(1.07766 0.058501 3.0473e-21)
(0.999989 0.000286255 2.8097e-21)
(0.918108 0.100136 -3.88879e-20)
(0.832644 -0.0345373 3.40895e-20)
(0.999844 -0.000253082 9.29147e-22)
(0.442535 0.0482277 0)
(1.11848 0.127295 0)
(1.00016 0.00104686 0)
(1.00506 0.00401506 0)
(1.0564 0.157815 -1.21038e-20)
(0.8095 0.119651 0)
(1.01753 0.0131984 0)
(1.07271 0.149565 3.32237e-20)
(1.10176 0.155831 0)
(1.00645 0.0187785 8.31896e-21)
(1.00129 0.00231604 7.92184e-21)
(-0.148245 -0.0258483 0)
(0.540815 0.416314 5.14209e-20)
(1.11225 0.129472 5.83391e-22)
(1.17164 0.0634354 2.31409e-20)
(1.14638 0.14117 0)
(0.978857 0.012061 7.99258e-21)
(0.982252 0.149572 -2.19853e-20)
(0.626893 0.088857 1.15496e-21)
(0.611613 0.109783 6.33161e-21)
(1.05608 0.0711961 -1.69068e-21)
(1.05894 0.0559278 -1.16142e-20)
(1.04424 0.156022 -1.9264e-21)
(1.06031 0.133313 1.93028e-20)
(0.999951 -0.000276946 8.4731e-21)
(1.14544 0.0505012 0)
(1.17056 0.0686178 -2.34555e-20)
(1.04728 0.152114 -2.18353e-21)
(1.01485 0.0124045 0)
(0.995714 -0.00274638 7.08839e-21)
(1.02978 0.0572707 1.62328e-22)
(1.00128 0.0179319 -4.40388e-21)
(0.999993 0.000216197 2.33734e-21)
(0.811484 0.137134 0)
(1.07897 0.150653 -1.06107e-20)
(1.00915 0.000743543 0)
(1.01802 0.0140425 -9.19319e-21)
(0.354358 0.0378644 1.74234e-20)
(1.03183 0.0668247 2.79377e-22)
(0.00603218 0.125522 0)
(0.993638 -0.0001382 -1.79095e-20)
(0.993861 -0.00746759 -1.61117e-20)
(1.09081 0.155453 1.20287e-20)
(1.05541 0.0460265 0)
(1.0085 0.122621 0)
(0.97319 -0.00601839 0)
(1.01376 0.00713096 -4.8012e-21)
(1.00377 0.000431771 0)
(1.00055 0.000184227 -4.36586e-21)
(-0.168363 -0.0245177 -7.03373e-20)
(1.00139 0.00238518 0)
(0.999644 0.00227133 0)
(1.01524 0.0128149 0)
(0.990228 0.0111405 -1.08309e-20)
(-0.200574 -0.0279293 9.47193e-20)
(1.01641 0.032147 -1.35539e-21)
(1.07769 0.0597779 8.40946e-22)
(1.03078 0.0183112 -8.55284e-22)
(1.11382 0.125807 3.75581e-20)
(0.766927 0.197946 1.08596e-20)
(0.972215 -0.00618684 0)
(1.04422 0.156834 1.16478e-21)
(1.21321 0.0540922 0)
(1.00522 0.0111895 -2.69688e-21)
(0.999565 0.00062077 -4.45749e-21)
(1.06129 0.0542236 0)
(1.00565 0.0286198 7.89775e-21)
(1.00363 0.000496293 0)
(1.01988 0.00100389 0)
(0.999971 -0.000193188 0)
(1.04506 0.145807 2.61664e-21)
(1.00931 0.120636 0)
(1.05707 0.058059 0)
(1.07654 0.127527 -4.80173e-21)
(1.09557 0.12308 0)
(0.99948 0.000614805 0)
(0.989678 0.00385848 9.33074e-21)
(-0.252311 -0.042302 -4.1484e-20)
(1.24613 0.041886 0)
(0.657745 0.104669 0)
(0.956703 0.129606 -3.2728e-20)
(1.03912 0.155457 0)
(0.974286 0.0265068 -1.15155e-20)
(0.999517 0.00226868 -5.74984e-21)
(-0.172669 0.0563035 -1.71107e-20)
(-0.162126 0.0415321 -1.63045e-20)
(1.01772 0.0983118 -2.78646e-21)
(1.00196 0.00801238 0)
(0.61188 0.0496998 -1.39225e-19)
(0.492379 0.0716564 -6.47771e-21)
(1.00226 0.010333 -5.85784e-21)
(0.890992 0.0879497 5.59183e-22)
(-0.0540964 0.143021 -7.29911e-20)
(0.808272 0.136892 -1.64024e-20)
(1.09388 0.0307912 0)
(0.889073 0.0987147 0)
(1.06381 0.0177631 6.26263e-22)
(0.559231 0.0962858 -8.81385e-21)
(1.00034 0.000298876 5.70527e-21)
(1 9.58632e-06 0)
(1.07999 0.151597 -5.19219e-21)
(-0.28101 -0.0427951 8.9847e-20)
(-0.0183106 0.171024 0)
(1.13168 0.109147 0)
(0.736809 0.10664 4.02493e-20)
(1.04247 0.0262944 3.81517e-21)
(1.01642 0.0236777 3.93583e-21)
(1.00302 0.000475984 0)
(1.0787 0.0386083 9.36711e-22)
(1.04319 0.155376 1.66191e-21)
(1.00206 0.00786567 5.70782e-21)
(0.122656 0.0873358 5.81721e-20)