/*--------------------------------*- C++ -*----------------------------------*\
| =========                 |                                                 |
| \\      /  F ield         | OpenFOAM: The Open Source CFD Toolbox           |
|  \\    /   O peration     | Version:  v2012                                 |
|   \\  /    A nd           | Website:  www.openfoam.com                      |
|    \\/     M anipulation  |                                                 |
\*---------------------------------------------------------------------------*/
FoamFile
{
    version     2.0;
    format      ascii;
    class       volScalarField;
    location    "400";
    object      k_0;
}
// * * * * * * * * * * * * * * * * * * * * * * * * * * * * * * * * * * * * * //

dimensions      [0 2 -2 0 0 0 0];


internalField   nonuniform List<scalar> 
18232
(
0.0272771
0.00015039
0.000145873
0.00014895
0.00016589
0.000180919
0.000148957
0.000148823
0.000164911
0.000165522
0.000148931
0.00017094
0.000164148
0.00788076
0.000157874
0.000217611
0.000147913
0.000149405
0.000148036
0.000176509
0.000188819
0.000149181
0.000148857
0.000150155
0.00015643
0.000156634
0.000146379
0.000180495
0.000149392
0.000145904
0.00014982
0.0393682
0.000148863
0.0771794
0.00222961
0.000180772
0.0107781
0.000148797
0.00850505
0.000149802
0.0189327
0.000166913
0.000168987
0.0147094
0.000147038
0.00197193
0.0001478
0.000167335
0.000179891
0.000147107
0.000148156
0.000149153
0.0318138
0.000164973
0.000170251
0.000183204
0.000148103
0.000148589
0.0292251
0.000148395
0.000157693
0.000146993
0.000155624
0.00014896
0.000179031
0.000151406
0.0190617
0.0355088
0.000146305
0.000155762
0.000148124
0.000146337
0.0415181
0.000193181
0.000178239
0.000192634
0.000152156
0.000150434
0.00910054
0.000149282
0.0310365
0.000174552
0.000165951
0.00015088
0.000209403
0.000183194
0.00014594
0.000148044
0.000174465
0.000171894
0.000148084
0.000146415
0.000149754
0.000183024
0.000148082
0.000155698
0.000147492
0.000148842
0.00022726
0.000147172
0.000159486
0.000164771
0.000196599
0.000160904
0.000179812
0.000155431
0.000145951
0.000184983
0.000149362
0.000155223
0.00015115
0.000194648
0.000147212
0.000148858
0.000148159
0.000157182
0.000175262
0.00337548
0.000169299
0.000157401
0.000147931
0.000148748
0.000193143
0.000183286
0.00682214
0.000168445
0.000194059
0.000144774
0.000187939
0.000195249
0.000145981
0.000149254
0.00016929
0.000145411
0.0373132
0.000191352
0.000180182
0.000149581
0.000148497
0.00810847
0.000169743
0.000155371
0.012466
0.000147691
0.000165133
0.000161228
0.000157429
0.000149896
0.0122103
0.000172184
0.000215754
0.000166448
0.000175608
0.000152223
0.000171312
0.0205924
0.000196026
0.000178321
0.000168383
0.000148545
0.000150403
0.000145368
0.000146422
0.0226032
0.000191784
0.000148697
0.000163697
0.0129573
0.000153031
0.000168443
0.00014659
0.00014889
0.000145961
0.0001493
0.000150287
0.00775409
0.000151152
0.000149836
0.000803148
0.000148243
0.00017547
0.00568184
0.000146389
0.000199888
0.0207529
0.000149948
0.00014991
0.000185568
0.000149738
0.0190838
0.000153992
0.000147058
0.000165097
0.00891124
0.00014766
0.000148415
0.000147071
0.000149447
0.000146123
0.000145608
0.000149825
0.000159379
0.000159562
0.000175792
0.000184209
0.000406812
0.00018764
0.0526105
0.000171483
0.000166062
0.00014659
0.000157302
0.000159237
0.000212587
0.000225259
0.00015894
0.000176367
0.000146494
0.000145978
0.000148815
0.00771554
0.000148457
0.000440545
0.000153892
0.000147408
0.000146496
0.0001722
0.000150181
0.000148235
0.000149067
0.000148471
0.00015289
0.00862207
0.00019603
0.000148826
0.00438607
0.000150825
0.00019656
0.00014721
0.000148983
0.000148524
0.00475656
0.000197475
0.000160067
0.0121243
0.000173963
0.000149693
0.0307767
0.0296221
0.000153848
0.000184923
0.000183586
0.000147012
0.000171209
0.000148326
0.000187539
0.000190376
0.000341608
0.000231163
0.000175515
0.000152941
0.000164623
0.00017318
0.000149783
0.00014679
0.0001496
0.0149228
0.000168078
0.000183507
0.000186817
0.000149409
0.0730424
0.000172626
0.000146357
0.000147068
0.0192284
0.000165423
0.000150143
0.000148943
0.00425799
0.01551
0.000157348
0.000149524
0.0173544
0.000180542
0.000150803
0.000164952
0.016543
0.000155902
0.000174824
0.000147034
0.000168315
0.0209413
0.000171518
0.00016708
0.000186577
0.0180204
0.000149036
0.000146954
0.00015516
0.000155121
0.000149139
0.000448423
0.00018494
0.000149211
0.00014858
0.000181411
0.00016087
0.000147982
0.00519898
0.000160255
0.00014783
0.000185463
0.000151341
0.000149726
0.000165395
0.0186978
0.000145399
0.00243704
0.000148186
0.00884949
0.000157147
0.000179095
0.000173427
0.000159147
0.000150818
0.000189212
0.000156987
0.000162698
0.000156123
0.000164228
0.000147607
0.000176525
0.000292623
0.000177447
0.0487975
0.000186331
0.000304843
0.000146267
0.000165344
0.000149114
0.000186419
0.000149773
0.0001444
0.000145343
0.00018327
0.0507789
0.000164285
0.000181717
0.000150849
0.000203508
0.000158919
0.000159121
0.00014693
0.000167616
0.000163735
0.00018416
0.0514695
0.000148618
0.000147896
0.000190611
0.000168754
0.0231724
0.000150904
0.0321879
0.000154289
0.000163827
0.0461457
0.00015498
2.92707e-05
0.000183921
0.000182608
0.000150576
0.0736289
0.000145646
0.000147123
0.000148396
0.000146332
0.000214305
0.00035916
0.000162397
0.000167805
0.000149833
0.000149478
0.0326693
0.000162425
0.000149017
0.000146294
0.000148431
0.000158853
0.000171478
0.000164112
0.014159
0.00016288
0.010272
0.000154253
0.000188298
0.000146431
0.000177249
0.00014644
0.00018322
0.00022299
0.000185859
0.000419723
0.000167427
0.000148662
0.000165602
0.000149093
0.000148419
0.000178714
0.00851161
0.105716
0.000160589
0.000156978
0.00797283
0.000177213
0.000147473
0.000149577
0.0100745
0.000149605
0.000160503
0.000163405
0.000173132
0.000146116
0.00595282
0.000179148
0.00017814
0.000171896
0.000163641
0.000176619
0.000145356
0.000179707
0.0576569
0.000149959
0.000176185
0.000147915
0.000148172
0.000149041
0.000155194
0.000148997
0.000159434
0.000183
0.000907485
0.000169413
0.000149701
0.000168851
0.000153888
0.000149275
0.000177037
0.000163266
0.00279021
0.000150663
0.000144778
0.000147841
0.000189379
0.000146739
0.0549347
0.00014963
0.000172033
0.000161415
0.000146197
0.000177217
0.000153715
0.000194892
0.000146269
0.000148733
0.00014573
0.000156713
0.000163908
0.00016136
0.000147507
0.00119427
0.00017906
0.000192649
0.000164631
0.000166553
0.000149456
0.000184874
0.04734
0.000153147
0.000172846
0.00015592
0.000147895
0.000173411
0.000149626
0.000166053
0.000154321
0.000152757
0.0176019
0.000162784
0.000148041
0.000179128
0.000146756
0.000156724
0.0001683
0.000178693
0.000145379
0.000183658
0.000199686
0.000148056
0.000148947
0.00015374
0.000152935
0.000177694
0.0550494
0.000175198
0.000148009
0.000150354
0.000146583
0.000148487
0.00467966
0.00015087
0.000156827
0.011691
0.00014489
0.000148017
0.000148934
0.000173334
0.000151042
0.000147279
0.000152752
0.000151029
0.000155517
0.0401027
0.014011
0.00014865
0.000146915
0.000147496
0.000153618
0.0500513
0.000148108
0.000192694
0.000178186
0.00016843
0.0496209
0.000146487
0.00019438
0.000147493
6.66212e-05
0.000185774
0.000150493
0.000171045
0.000146546
0.000144755
0.000148128
0.000169434
0.0126056
0.000169096
0.000146656
0.000177046
0.000168311
0.000145579
0.000151188
0.000148038
0.0152783
0.0552047
0.000149059
0.000153178
0.000148748
0.000193769
0.000179836
0.000149829
0.000166806
0.000149248
0.000192291
0.000147443
0.000145356
0.000206277
0.000184252
0.000172847
0.00014825
0.000147892
0.0120225
0.000153992
0.000147352
0.000149555
0.0213216
0.000157254
0.000233474
0.00014629
0.0211522
0.000147631
0.000204581
0.000176979
0.000146664
0.000173777
0.000147582
0.000167487
6.68487e-05
0.0144747
0.000145529
0.000148226
0.000177354
0.000145986
0.000571487
0.000149023
0.000155285
0.0538919
0.00617775
0.000155108
0.000149112
0.000145269
0.0241777
0.000176887
0.000145344
0.000160969
0.000148159
0.0105389
0.000148279
0.000166328
0.000147325
0.000148374
0.000169379
0.000163686
0.000159951
0.000147821
0.000146253
0.0193797
0.000147811
0.000148486
0.000147373
0.000149295
0.00018954
0.0146309
0.000166432
0.000176236
0.000171028
0.0449549
0.000152142
0.000149783
0.000148035
0.000148002
0.000148914
0.000146374
0.0103345
0.0225168
0.000158131
0.0126727
0.000113035
0.000166062
0.000184612
0.000189687
0.000149789
0.000188299
0.000148634
0.000168292
0.00017517
0.0452065
0.000156218
0.000149399
0.02297
0.000149622
0.000156275
0.00015299
0.0105288
0.00017309
0.000147358
0.000184367
0.000174026
0.00019699
0.00015403
0.000146669
0.000154106
0.000172521
0.000148124
0.000180898
0.000163571
0.000145924
0.000149671
0.000148269
0.00014685
0.0253318
0.0130788
0.000148406
0.012629
0.000169135
0.0149518
0.000183176
0.000148354
0.0728861
0.000156726
0.000157043
0.0628887
0.000148954
0.000155957
0.00367376
0.000170154
0.000148099
0.000158482
0.000348446
0.000149871
0.000146762
0.000182799
0.00325402
0.000160576
0.000170683
0.0155755
0.00015821
0.000166665
0.0336535
0.000180757
0.0679823
0.000171328
0.0322833
0.000166238
0.000147454
0.0140583
0.000148985
0.000147721
0.000146373
0.0317055
0.000169035
0.000148249
0.00265782
0.000149788
0.000167216
0.000162505
0.016896
0.000171082
0.00016881
0.000148715
0.000146273
0.000147622
0.0387045
0.000183869
0.00327667
0.000149782
0.00018604
0.000149126
0.000148988
0.000158867
0.000145934
0.000152017
0.00015483
0.000159089
0.000149804
0.000159241
0.000146406
0.000159685
0.0212767
0.000166681
0.0577381
0.000146184
0.000185533
0.097459
0.000145412
0.0315699
0.000167202
0.0386488
0.000191644
0.00965502
0.000146827
0.000154273
0.000149489
0.000178775
0.000652598
0.000182535
0.000149562
0.000149249
0.017375
0.0247305
0.000184742
0.000146722
0.000169235
0.000145919
0.000165767
0.0327307
0.000159089
0.0280309
0.000150732
0.000155909
0.0488835
0.000424047
0.000154388
0.000146845
0.00017066
0.00395349
0.000162382
0.000145454
0.000172289
0.000192244
0.000167289
0.000152867
0.000183401
0.000149209
0.000149758
0.000291427
0.000165978
0.019807
0.000204657
0.000175704
0.00017611
0.011833
0.000148421
0.000157369
0.000165317
0.00106904
0.000151543
0.000166806
0.0191996
0.000158751
0.00627827
0.000146816
0.000149251
0.000148399
0.000160654
0.000148787
0.00046888
0.000168393
0.000152727
0.00774969
0.000168955
0.0215004
0.0217132
0.000168962
0.000201193
0.000185619
0.00015024
0.000146644
0.000177946
0.0319195
0.000163049
0.000165157
0.000192044
0.000152951
0.000154471
0.00014904
0.0429188
0.000148223
0.00019509
0.000178605
0.000147534
0.000211634
0.000160922
0.038342
0.000149611
0.000147259
0.000146329
0.000190881
0.000146417
0.000165413
0.000147603
0.0680709
0.000150133
0.0002196
0.000181626
0.000156173
0.000146744
0.000152205
0.000173464
0.000147357
0.000152109
0.000217651
0.0434588
0.000158033
0.000197595
0.000148789
0.000146117
0.000156531
0.000149208
0.000156265
0.0001687
0.000160601
0.000160535
0.000149789
0.000160347
0.000160352
0.000149659
0.0401899
0.000183092
0.000149293
0.000146814
0.000195962
0.00849276
0.000145433
0.00652046
0.000125943
0.000146294
0.000148177
0.0240222
0.000196135
0.000182321
0.000183902
0.000192093
0.000148626
0.00360893
0.034544
0.00874101
0.000158315
0.000156362
0.000187585
0.000175866
0.000149813
0.000177682
0.00018434
0.00018385
0.000145474
0.000148658
0.000152734
0.000146706
0.000149837
0.0115228
0.000187848
0.000146485
0.000145499
0.0384384
0.000154655
0.0239336
0.000148208
0.000148616
9.63736e-05
0.000154381
0.000164466
0.000149008
0.000145298
0.000147429
0.000148936
0.0157748
0.000148139
0.000148775
0.000145486
0.000147801
0.0459101
0.000147982
0.000160773
0.000146943
0.000181437
0.000168998
0.000149107
0.000207064
0.000188452
0.000146433
0.000149285
0.000156551
0.000147348
0.000147371
0.000144708
0.000149852
0.000177863
0.000164544
0.000156361
0.000176132
0.000178189
0.000149238
0.000148047
0.0393702
0.000251051
0.000169232
0.000163574
0.000182971
0.000149465
0.000148749
0.0117197
0.0468878
0.000159724
0.00014713
0.000170615
0.0277613
0.000146902
0.000160056
0.0211746
0.011942
0.000162337
0.000160853
0.000154213
0.00675264
0.000149141
0.000149955
0.000188192
0.0511448
0.0180377
0.000181933
0.000166486
0.000149746
0.000146721
0.000147544
0.000158359
0.000186348
0.000147158
0.0532162
0.000153305
0.000188672
0.0363679
0.000146266
0.000171268
0.000149684
0.000152144
0.000147554
0.000166904
0.000149673
0.00014781
0.00015773
0.0048751
0.000156837
0.000194888
0.000148373
0.000150941
0.000169021
0.000175377
0.000159714
0.00732319
0.000160959
0.000182692
0.000148702
0.00917295
0.00820281
0.000184547
0.000165879
0.0072215
0.000148312
0.0537288
0.00016517
0.000146908
0.000177127
0.0159859
0.0164525
0.000153167
0.000156518
0.000186204
0.000149786
0.000174896
0.00014648
0.00938675
0.000144788
0.000176514
0.000156673
0.000195541
0.000149699
0.000150373
0.000173297
0.000149176
0.00016941
0.048622
0.000146971
0.000148324
0.000145681
0.00015826
0.000169896
0.000153926
0.000151869
0.000166981
0.000151218
0.000230002
0.000164248
0.000165359
0.000152484
0.000152294
0.0922353
0.000167896
0.000146465
0.00020039
0.00645024
0.0531034
0.0285253
0.0108875
0.000166603
0.000146668
0.00014978
0.000151607
0.000147421
0.000183535
0.0191485
0.000168978
0.000147321
0.000164557
0.0465086
0.00261209
0.000147734
0.000154137
0.0145654
0.000176471
0.000166944
0.000163054
0.000149007
0.000149157
0.000158608
0.00798088
0.000145404
0.0532358
0.000148096
0.000148477
0.0373022
0.000199796
0.000150761
0.000146098
0.000159197
0.000173026
0.000174782
0.000186636
0.000148745
0.000147914
0.000147984
0.00821818
0.000165634
0.000161006
0.000185566
0.000153247
0.00014662
0.000148335
0.000167981
0.000198776
0.000145872
0.000162014
0.000156219
0.000149545
0.000145925
0.000146189
0.000145622
0.00014596
0.000177945
0.000147698
0.000194601
0.000154969
0.000160322
0.0001646
0.000155055
0.000147441
0.00758555
0.000150192
0.0316662
0.000149728
0.000154722
0.000174752
0.000149092
0.031784
0.000146397
0.000173328
0.0481317
0.00761826
0.000159912
0.000158695
0.000147009
0.0433522
0.000189023
0.000147896
0.000148651
0.000148113
0.0724646
0.000157804
0.000438946
0.0174899
0.000148679
0.00014921
0.000149895
0.0749187
0.000172993
0.000178436
0.000178732
0.00016972
0.000507886
0.000148814
0.000179948
0.045717
0.0225365
0.000148234
0.000149801
0.000187556
0.0404907
0.000178905
0.000177301
0.000148889
0.000180709
0.000147034
0.000147079
0.000165811
0.0501352
0.000149883
0.000146238
0.000145404
0.000147359
0.000208689
0.000145392
0.000180358
0.000145736
0.00015881
0.000197604
0.000149736
0.000145855
0.000172585
0.000148654
0.000154536
0.000159421
0.0265304
0.000166272
0.000149173
0.000170894
0.000174234
0.000144363
0.000158652
0.00161291
0.00453484
0.000175247
0.000165627
0.000167976
0.000150984
0.000162714
0.000146177
0.000149542
0.000146941
0.00016048
0.000148969
0.000159255
0.000174484
0.0175709
0.000149657
0.000209182
0.000148204
0.000149301
0.00016248
0.000147521
0.000167747
0.000147443
0.000222056
0.00017432
0.000149177
0.000171286
0.000171348
0.00015854
0.000150031
0.0432571
0.000148535
0.000146219
0.000162399
0.000175943
0.000148184
0.000148214
0.000190886
0.00014821
0.000149276
0.000149611
0.000150438
0.000167209
0.000146222
0.000159281
0.0266362
0.000164243
0.000163877
0.000144813
0.00015476
0.000145358
0.000145961
0.000165529
0.000158587
0.000148004
0.000177212
0.0310739
0.00226203
0.000156623
0.00016394
0.000172299
0.0329345
0.000155765
0.00014907
0.000170622
0.000176755
0.000149903
0.00522725
0.000146472
0.034277
0.0371044
0.0103168
0.0014562
0.0439556
0.000176164
0.000177039
0.000149103
0.000148415
0.000148944
0.00017757
0.000185877
0.00020003
0.000191762
0.000145581
0.000145556
0.000148261
0.000186681
0.000144362
0.000154025
0.000546155
0.000190159
0.000810774
0.000149307
0.00014722
0.0282424
0.0356685
0.000154292
0.000145653
0.000190849
0.000181689
0.000176442
0.000148167
0.000149204
0.000172086
0.000149727
0.000145352
0.000384225
0.000178933
0.000149196
0.0319491
0.000149839
0.000150656
0.000168434
0.000166864
0.000145508
0.00020657
0.00015539
0.000166302
0.000145342
0.000209409
0.00014587
0.000152823
0.000144565
0.000175939
0.000180432
0.000159154
0.000146018
0.000146114
0.000181446
0.000208347
0.000163627
0.000146593
0.000149853
0.00931359
0.000145464
0.000160085
0.000152254
0.000183748
0.000147928
0.000144842
0.000160114
0.00297068
0.00019869
0.000201914
0.000150293
0.00741611
0.000148685
0.0558152
0.000179964
0.000148828
0.000158436
0.000165502
0.00015094
0.000257419
0.000149256
0.000155721
0.000146237
0.00014882
0.0308576
0.000151329
0.000175152
0.00015219
0.000169606
0.000149354
0.000185648
0.000165076
0.000158079
0.000183065
0.00018988
0.000235683
0.0286443
0.000148131
0.000274262
0.000158496
0.000146602
0.000147602
0.000197538
0.00014886
0.0338553
0.0001946
0.000162422
0.0112936
0.000146616
0.0001472
0.000148037
0.000176655
0.000171369
0.000148962
0.000163836
0.000175594
0.000146222
0.000145501
0.00014667
0.000175387
0.000149892
0.0136954
0.0128631
0.000144888
0.000169938
0.000191071
0.000254838
0.000145752
0.000148414
0.000146706
0.00016112
0.00014758
0.000170599
0.000150228
0.000155767
0.000149796
0.000146344
0.000147564
0.000165644
0.000144606
0.000160032
0.000162367
0.000167551
0.000175815
0.000147699
0.000158324
0.0117753
0.000179096
0.000160653
0.000199348
0.000147102
0.0047558
0.0892143
0.0016729
0.00015062
0.000150073
0.000148959
0.00014926
0.000146944
0.000149092
0.000150804
0.000158429
0.0149084
0.000163146
0.000146771
0.000213782
0.000504416
0.000162765
0.000184214
0.000166913
0.000152494
0.000184598
0.000182344
0.000162384
0.000148448
0.00016288
0.000160537
0.000155141
0.000228878
0.00014893
0.00014991
0.000147489
0.0001477
0.0074984
0.00015887
0.000147461
0.000148641
0.00539956
0.000146925
0.000159827
0.0392004
0.000146806
0.00015367
0.0206801
0.000179366
0.000216154
0.000149573
0.000148976
0.000147621
0.00017686
0.0268906
0.000163684
0.000149747
0.000148769
0.000177807
0.0272661
0.000152986
0.000149797
0.000179814
0.00606153
0.000146705
0.000182289
0.000163995
0.00017707
0.000145979
0.00753876
0.030946
0.0001479
0.000211195
0.00370967
0.000153146
0.00967891
0.000161816
0.0406564
0.0753024
0.000170814
0.000147589
0.0309034
0.013851
0.000151906
0.0514699
0.000192707
0.000204094
0.000159981
0.000147014
0.000149532
0.000192449
0.000174735
0.000152987
0.000166434
0.0931915
0.000153281
0.000506551
0.000150977
0.000149995
0.000147037
0.000215634
0.000236172
0.00014617
0.000151021
0.000189834
0.000165799
0.000168623
0.000146991
0.000145761
0.000473426
0.000162365
0.000147361
0.000148939
0.000146767
0.000148033
0.000195052
0.000179775
0.000154483
0.000149315
0.000146906
0.000158392
0.000147541
0.000146192
0.000159794
0.00014862
0.000149268
0.0228823
0.000184183
0.000148486
0.000158906
0.000188002
0.000155082
0.000193284
0.000173129
0.000167657
0.000169243
0.000146157
0.000154705
0.000148513
0.000146306
0.000150407
0.0079715
0.00134282
0.000146289
0.000145223
0.000150743
0.000150188
0.000154642
0.000155302
0.000187603
0.000417019
0.000144416
0.000221915
0.000147346
0.000172142
0.000202461
0.000161699
0.000148373
0.000154534
0.000158949
0.000149342
0.00017888
0.000160355
0.013402
0.000164976
0.000149087
0.00190079
0.00014518
0.000384924
0.0324027
0.000190567
0.000148581
0.000148729
0.000149784
0.0461836
0.000160825
0.000190501
0.0500905
0.000174899
0.000192202
0.000146664
0.000147909
0.000146991
0.000153447
0.000144143
0.000183056
0.000161486
0.000180002
0.000152971
0.00014975
0.0381811
0.00014839
0.000147795
0.000152425
0.000160354
0.000225315
0.0212466
0.000167969
0.000153228
0.000178202
0.000178152
0.000163417
0.0178007
0.000154874
0.0001811
0.000160003
0.00224577
0.000162465
0.000147534
0.000186168
0.000146792
0.000214558
0.000146851
0.000146566
0.000152514
0.000149836
0.00014837
0.000169908
0.000186353
0.000169495
0.000179542
0.000185357
0.000148441
0.000147062
0.000172245
0.00015714
0.000177183
0.000167297
0.00204031
0.0105757
0.000166424
0.000207267
0.00765733
0.000158972
0.000176099
0.00016365
0.000162461
0.0443628
0.000180713
0.000152135
0.00016973
0.000148293
0.000201938
0.000176663
0.000146879
0.000163079
0.00016397
0.0211054
0.000146084
0.00463602
0.000181952
0.00448233
0.000359933
0.00016307
0.00396561
0.00016686
0.000198141
0.000144502
0.000193376
0.0630468
0.000144388
0.000160618
0.000156089
0.00250239
0.000172637
0.00014922
0.000168128
0.000188095
0.000176393
0.000162481
0.000147866
0.000150911
0.0361948
0.000179053
0.000152107
0.0089897
0.000175655
0.00252234
0.00018736
0.000160458
0.000177985
0.000148556
0.000171792
0.000217182
0.000172037
0.000145246
0.000167125
0.000171002
0.000147343
0.000179434
0.000157463
0.000157996
0.000148778
0.000147492
0.000184164
0.000149006
0.000146872
0.000193109
0.000149702
0.000148788
0.000147025
0.000170228
0.000153678
0.000146836
0.000152373
0.000194201
0.000180097
0.000196709
0.000148746
0.000148517
0.00110009
0.000151907
0.000161709
0.000200432
0.000146081
0.000148488
0.000149148
0.000182596
0.000163355
0.000153244
0.000174966
0.000171206
0.000149048
0.000155085
0.00960387
0.000167008
0.000152502
0.0458971
0.000160325
0.000193553
0.000148577
0.000185105
0.00019509
0.000241435
0.000147552
0.000145727
0.000174994
0.00014949
0.000148126
0.0449009
0.000166966
0.000173498
0.000163864
0.000147014
0.000190008
0.000161004
0.000146922
0.0267762
0.000148082
0.000182596
0.000172016
0.000295172
0.045561
0.000147255
0.000149704
0.000148342
0.000147546
0.000167239
0.000185503
0.0243718
0.000149409
0.000146929
0.000181358
0.000149706
0.000144765
0.000185616
0.00612984
0.000470027
0.000145377
0.000147846
0.000156652
0.000145399
0.000160892
0.000183039
0.000183363
0.000170493
0.000247031
0.00482399
0.000162234
0.0205871
0.000149326
0.000166606
0.000166483
0.000190892
0.000149067
0.000152265
0.000202926
0.000182776
0.000177551
0.000150489
0.000170915
0.000152564
0.00773009
0.000156004
0.000158799
0.0144732
0.000162871
0.000193242
0.000147217
0.000149803
0.0193183
0.000183202
0.00321981
0.00131592
0.000159082
0.000150151
0.000170972
0.000153415
0.000154447
0.00477104
0.000166201
0.000144819
0.000149567
0.000163685
0.000147029
0.00018486
0.000185654
0.000145321
0.00016175
0.000157984
0.000146709
0.0001766
0.000152025
0.000174128
0.00416844
0.000164442
0.000176135
0.000165068
0.000187585
0.0280026
0.000180056
0.041276
0.000204362
0.000148775
0.0151941
0.000155631
0.0505866
0.000173558
0.000151952
0.000147605
0.00014728
0.0189317
0.000146513
0.000148224
0.000146396
0.000149162
0.000159907
0.000148482
0.000162696
0.000160408
0.000145361
0.0528955
0.000155092
0.000191302
0.000178371
0.000163037
0.0022717
0.00578022
0.000148447
0.0401433
0.000183313
0.00963827
0.000148146
0.0001668
0.000184204
0.000149092
0.022863
0.000148426
0.0567461
0.000158469
0.000147318
0.000165446
0.000148008
0.000155824
0.000163136
0.000174822
0.000204434
0.000147674
0.000154071
0.000170936
0.000162231
0.000183526
0.000207973
0.00018404
0.00596158
0.000185799
0.000147529
0.0429803
0.000199195
0.0277849
0.000148327
0.000168473
0.000150576
0.000149812
0.000148167
0.000154834
0.000188567
0.000148645
0.000149294
0.00129258
0.000162906
0.000163127
0.00017424
0.000158558
0.000154047
0.000203425
0.000146849
0.00014901
0.000157257
0.000162863
0.000182388
0.0383997
0.000224723
0.000168704
0.000183721
0.0107832
0.0715027
0.000146558
0.0115535
0.000218856
0.000149373
0.000188244
0.000178984
0.000386293
0.000175503
0.000148954
0.0176392
0.00050865
0.000144404
0.00310861
0.000183351
0.000158505
0.000201072
0.000152968
0.0342427
0.00015254
0.000186676
0.000154389
0.000149835
0.000146854
0.000177125
0.00016619
0.000199241
0.000167667
0.00550217
0.000178859
0.0131741
0.000192336
0.000182409
0.00014663
0.0437568
0.000151499
0.000854981
0.000149319
0.000233718
0.000192689
0.000185226
0.000182353
0.000228788
0.000148793
0.0123941
0.000188761
0.000172789
0.000176381
0.00016007
0.00017935
0.00748529
0.000145853
0.00014989
0.000150447
0.000147279
0.000185833
0.0470747
0.000149767
0.000194624
0.000162317
0.0337338
0.000146925
0.000147686
0.000158667
0.000157296
0.00336701
0.000185184
0.000232837
0.000146263
0.000148348
0.000111143
0.000149267
0.000146819
0.000149173
0.000176874
0.000147862
0.000149877
0.000146938
0.000146069
0.000168639
0.0541216
0.000187445
0.000146911
0.0467258
0.000146256
0.000163479
0.000152205
0.000161081
0.00479761
0.000146329
0.0814256
0.000149202
0.000192405
0.000163381
0.000144626
0.000149669
0.000191436
0.000147225
0.000172137
0.000161855
0.000162857
0.000148827
0.00014937
0.0132003
0.000166203
0.00618128
0.0108646
0.000153106
0.000205057
0.000167074
0.000162669
0.000149565
0.000166472
0.00715767
0.000144437
0.000168418
0.000153824
0.000153535
0.00014801
0.000208924
0.000173429
0.00015303
0.000148803
0.000156495
0.00015827
0.000159803
0.000148179
0.000146795
0.000146013
0.000147587
0.000171314
0.000158884
0.0372992
0.000145681
0.00018627
0.00014932
0.000162384
0.000145692
0.000168213
0.000159
0.000174308
0.0223144
0.000163031
0.000150332
0.000167298
0.0257565
0.000178552
0.000154679
0.000175207
0.000148051
0.0017824
0.0138238
0.000192039
0.000159705
0.0121713
0.000168629
0.000154829
0.000177465
0.000152923
0.029294
0.00014763
0.000168486
0.000150818
0.000145782
8.93253e-05
0.0120246
0.000152289
0.00014479
0.000173192
0.00131135
0.000244106
0.000148318
0.000180632
0.000166038
0.000201018
0.000153598
0.00372799
0.000179878
0.000146777
0.000149286
0.000165911
0.0157593
0.000147579
0.000181788
0.00593913
0.000160332
0.000155384
0.000175458
0.000164408
0.000161838
0.012599
0.000148039
0.000156545
0.000148408
0.000146657
0.00018514
0.000176969
0.000195969
0.025834
0.000148915
0.022552
0.000144761
0.0419382
0.000160658
0.000146405
0.000148495
0.0138079
0.000145933
0.000152977
0.000152395
0.0468723
0.00015619
0.000154093
0.000174061
0.000154338
0.000149259
0.000147106
0.000151156
0.0207522
0.000148443
0.000175611
0.00287237
0.000146321
0.0177136
0.000145762
0.000145544
0.00705487
0.000176215
0.000183274
0.000147559
0.000156954
0.000149845
0.000168527
0.000625691
0.00015519
0.000162281
0.000149515
0.0399292
0.000160377
0.000158613
0.000146001
0.000158391
0.00014663
0.000175538
0.000155617
0.000194257
0.000149403
0.0397002
0.000178631
0.00015727
0.000146992
0.0625653
0.000163142
0.000188201
0.000149548
0.000148942
0.000162245
0.0435663
0.0227892
0.0144935
0.000147837
0.000148571
0.000163559
0.00811705
0.000169973
0.000181719
0.000149292
0.000178347
0.000182267
0.00247259
0.000158517
0.000164885
0.0283981
0.000150698
0.000191992
0.000179093
0.000147862
0.000158434
0.000163754
0.000175191
0.0189959
0.000163177
0.000162901
0.000163263
1.74309e-05
0.00023841
0.00014653
0.000146428
0.0326602
0.000148938
0.000149594
0.000225859
0.000817252
0.000173321
0.0160938
0.000147091
0.000149396
0.00764278
0.000168907
0.000167216
0.000144886
0.000146109
0.000176345
0.000152331
0.000146939
0.000150813
0.000144328
0.000173067
0.000153772
0.000191894
0.000160342
0.0348382
0.000174319
0.000165599
0.000167913
0.00819737
0.000183226
0.000163018
0.000149133
0.000162241
0.000148336
0.00015761
0.000148974
0.0086555
0.000230391
0.000147153
0.00165526
0.000159145
0.000177785
0.0502964
0.00567048
0.000154332
0.000177043
0.0134354
0.000336382
0.0101668
0.00014976
0.00015217
0.000186842
0.000149077
0.000162089
0.000158177
0.014859
0.00018486
0.00020317
0.000145677
0.000161064
0.000167343
0.000195573
0.000144301
0.000147309
0.00715905
4.8123e-05
0.000148451
0.000146104
0.00014528
0.000179557
0.000164269
0.000190136
0.000150199
0.00107336
0.00015922
2.40605e-05
0.00014984
0.00017483
0.00015592
0.000146467
0.000166515
0.000149157
0.000178171
0.000158865
0.000174713
0.000258171
3.14903e-05
0.00020826
0.000148151
0.00601306
0.000169397
0.0404208
0.000176
0.000184574
0.00016046
0.000189664
0.0410506
0.000166851
0.000147675
0.000177157
0.0182257
0.000147105
0.000147193
0.000149078
0.000154857
0.000190448
0.000159078
0.000145707
0.000154419
0.000187592
0.000156821
0.000149399
0.00014912
0.000156166
0.000149253
0.000180956
0.000145376
0.000146529
0.000175497
0.000148524
0.0191813
0.00016267
0.000147968
0.000144684
0.000184859
0.000146175
0.000185635
0.010452
0.000148824
0.0133995
0.000154408
0.000146745
0.000186027
0.00014901
0.000292015
0.000179364
0.000160404
0.000166639
0.000215138
0.000148283
0.000208192
0.000169476
0.000166539
0.000176211
0.00954407
0.000163331
0.000145879
0.000148302
0.000149022
0.0283974
0.000148467
0.000145604
0.000183547
0.000219432
0.0118762
0.0735039
0.000145805
0.000154527
0.0178144
0.000192583
0.0291729
0.0111694
0.00305023
0.000148698
0.000187958
0.000149113
0.000148493
0.00877813
0.0381691
0.00427251
0.0272407
0.000177356
0.000132919
0.000154326
0.000148335
0.00762524
0.000149179
0.000175448
0.000165245
0.000148186
0.0232746
0.000149206
0.000153674
0.000167517
0.000190544
0.000151949
0.000153168
0.000166072
0.000145353
0.012589
0.000146994
0.000150852
0.000145713
0.000162768
0.000145826
0.000153927
0.0138183
0.000191499
0.000187623
0.0365738
0.0320661
0.000182039
0.000177788
0.0345053
0.000147538
0.0067141
0.0138353
0.000174777
0.000145894
0.000153563
0.000175159
0.000165972
0.000158306
0.000146944
0.000148787
0.00017201
0.000178661
0.000110542
0.000160629
0.000189693
0.00596694
0.000177754
0.000147146
0.000166275
0.000179424
0.000387331
0.000173935
0.0109591
0.000147151
0.000177239
0.0212462
0.0146461
0.000180175
0.000145525
0.000153758
0.000150783
0.000184095
0.000149358
0.000151147
0.000149214
0.000150375
0.000147563
0.000164498
0.000149596
0.00014797
0.0474083
0.000148479
0.000176564
0.000150872
0.00675302
0.000181165
0.00536946
0.00015871
0.000148806
0.000152845
0.000145986
0.000148041
0.000149296
0.000157697
0.00018645
0.000175139
0.000180823
0.000145254
0.000148935
0.000149357
0.000170359
0.000163221
0.0036839
0.000194178
0.0145887
0.000183879
0.000173674
0.000179225
0.000182237
0.0203935
0.000146729
0.000150881
0.000197037
0.0298484
0.00665921
0.000120528
0.018524
0.000161112
0.000163018
0.000148791
0.000145662
0.000165024
0.000183781
0.000147712
0.0146888
0.000180095
0.0395513
0.000175828
0.0102016
0.000144545
0.000165765
0.000146614
0.000152197
0.000168731