/*--------------------------------*- C++ -*----------------------------------*\
| =========                 |                                                 |
| \\      /  F ield         | OpenFOAM: The Open Source CFD Toolbox           |
|  \\    /   O peration     | Version:  v2012                                 |
|   \\  /    A nd           | Website:  www.openfoam.com                      |
|    \\/     M anipulation  |                                                 |
\*---------------------------------------------------------------------------*/
FoamFile
{
    version     2.0;
    format      ascii;
    class       volScalarField;
    location    "400";
    object      p;
}
// * * * * * * * * * * * * * * * * * * * * * * * * * * * * * * * * * * * * * //

dimensions      [0 2 -2 0 0 0 0];


internalField   nonuniform List<scalar> 
18232
(
-0.42291
0.0144105
0.0481989
0.0877069
0.0617821
0.0122384
0.0882509
0.0626337
0.0726198
0.0628778
0.0856757
-0.0938273
0.0610776
-0.353656
0.167773
-0.404779
0.0561292
0.0598918
0.0760589
-0.0177624
0.00763261
0.0727051
0.0845859
0.0563191
0.16927
0.172556
0.0522948
0.0114744
0.059758
0.0488376
0.0630375
-1.09154
0.0667811
-0.98652
-0.00221334
0.00167124
-0.157155
0.064163
-0.144425
0.0632216
-0.403096
-0.0701269
0.0442603
-0.0731342
0.0551693
-0.060142
0.0227475
-0.0720801
-0.0504811
0.0271802
0.0718856
0.058118
-0.449776
-0.0647849
-0.0169725
-0.108501
0.0659534
0.068652
-0.207334
0.0220778
0.169497
0.0551323
0.0554813
0.0872352
-0.147164
0.0156297
-0.938991
-1.13238
0.0516504
0.0572817
0.0662206
0.0524498
-1.08072
-0.0206817
-0.140496
-0.129988
0.0905171
0.104803
-0.00332591
0.0812664
-1.15683
-0.119532
-0.0727279
0.0407616
-0.0613672
-0.111872
0.0498199
0.0758791
-0.119269
-0.0817514
0.0767887
0.0512547
0.0631347
-0.118554
0.0766647
0.0597994
0.0671941
0.0750109
-0.0448274
0.0412442
0.202504
-0.0638211
-0.0810596
0.17164
0.00274737
0.136839
0.0491312
-0.196089
0.057935
0.05519
0.0171054
-0.142648
0.0279513
0.0869765
0.0712674
0.00268007
-0.123635
-0.0610639
-0.0449707
-0.00169253
0.0648737
0.0642496
0.451374
0.00621097
-0.65893
0.0450369
-0.238455
0.0380989
0.00886771
-0.146948
0.0479914
0.0754407
-0.0465131
0.0340392
-0.451885
-0.132655
-0.0481148
0.063926
0.0211761
-0.116814
-0.0169485
0.138679
-1.07868
0.069235
0.0053107
0.0506977
0.165566
0.064042
-0.0220352
0.0308272
0.525887
-0.0709123
-0.123529
0.0881105
-0.0777214
-0.398059
-0.297037
-0.141039
0.340841
0.0212451
0.0141223
0.0338546
0.0521032
-0.930415
-0.00661703
0.0804337
0.190382
-1.10278
0.13209
0.0134018
0.0484174
0.0626651
0.0483409
0.0743868
0.0968941
-0.0370994
0.039584
0.0619821
-0.00368102
0.0715755
-0.000734883
-0.14591
0.0528928
-0.0839313
-0.380151
0.0640198
0.0346842
-0.0652535
0.0632806
0.00703945
0.139809
0.0637324
0.0674841
-0.0363893
0.0685994
0.0671818
0.0283151
0.0951021
0.0438436
0.0419411
0.060642
0.00440256
0.214433
0.331254
-0.190868
0.56058
0.00578944
-1.13284
0.0359592
-0.0466068
0.0499617
0.166291
0.196157
-0.0297323
-0.433474
0.00698519
-0.127437
0.0510534
0.0497043
0.0758113
-0.0223723
0.0222019
0.5192
0.0614789
0.0435127
0.0482181
0.0325842
0.0543527
0.0711
0.0648428
0.0820538
0.12932
-0.83918
-0.300506
0.0671497
-0.0687703
0.108175
-0.288621
0.0265601
0.0578909
0.0829218
-0.2813
-0.289148
0.157563
-0.0740437
0.0138994
0.0583981
-0.172558
0.0125206
0.0948719
-0.133272
-0.104626
0.0383638
0.0385056
0.0663765
0.487238
-0.000174969
0.522212
-0.0512989
0.000786851
0.0417504
-0.06344
0.0230204
0.0618763
0.0350154
0.0590101
-0.05156
0.339804
-0.108106
-0.0318409
0.0769643
-0.98874
0.0546387
0.0503497
0.037548
0.0147498
-0.0684117
0.102692
0.0579146
-0.708173
-0.0421996
-0.000245802
0.0171836
-0.0149918
-0.0527077
0.107278
0.000862127
-0.0634358
0.064065
-0.118201
0.0633228
-0.0771316
0.00504441
-0.0979401
-0.0731792
-0.0340753
-0.0166584
0.0187703
0.0548589
0.0689748
-0.0114178
0.0580022
-0.000197039
-0.129254
0.0580719
0.0692353
-0.123056
-0.0435746
0.0563157
-0.0369492
0.154522
0.0654881
-0.2112
0.0872204
0.0161982
0.0023903
-0.0089252
0.0351943
-0.0689433
0.0701828
-0.305401
0.00393844
-0.150671
0.418008
0.202292
0.0195055
-0.181722
0.00649985
-0.0474991
0.061231
-0.060224
0.0701753
-0.110722
0.423555
-0.0250159
-0.460788
-0.0157409
-0.0862246
0.0518856
-0.0442583
0.0644605
0.0121558
0.0584324
0.0369878
0.0356749
-0.159788
-0.364174
0.00169989
-0.129757
0.107677
-0.25576
0.195066
0.199489
0.035363
-0.0702451
0.0126225
-0.119647
-0.341291
0.0637101
0.0658074
-0.00344208
0.0425977
-0.212341
0.108372
-0.432388
0.143069
0.172172
-0.357046
0.133676
-0.0820618
-0.000511899
-0.010603
0.0131801
-0.841999
0.0419709
0.0422569
0.0231778
0.0505887
-0.385767
-0.639362
0.0547902
-0.0725708
0.0640184
0.0851655
0.0123968
-0.0440373
0.0897516
0.0504563
0.0812678
0.0357078
-0.0290132
0.290071
-0.0209179
-0.0435001
-0.223977
0.0951279
0.448987
0.0530042
0.320023
0.0510952
-0.0117874
-0.419374
-0.159731
0.400909
-0.0695164
0.0635453
0.0078955
0.0580887
0.0724956
0.011244
-0.297812
-0.713852
-0.0407089
0.00773727
-0.346792
-0.00324603
0.0609966
0.0611878
-0.117686
0.0960204
0.0311847
0.239537
-0.0813786
0.0418517
-0.284752
-0.115704
-0.139134
-0.0927944
0.176611
-0.0203974
0.0363908
-0.0456661
-0.341512
0.101197
-0.106494
0.0661333
0.0706005
0.0649541
-0.0105193
0.0883987
0.208412
-0.130492
-0.000499092
0.0257487
0.0356799
0.0284294
0.121495
0.0823583
-0.133823
0.1882
-0.00925089
0.0927303
0.0373801
0.0658068
-0.000852481
0.0601634
-1.12134
0.0612598
0.0559302
0.0508582
0.0419004
0.0238832
0.118421
-0.177019
0.0433318
0.0816967
0.0424979
0.0932198
0.0641883
0.0539694
0.060981
-0.00989712
-0.104753
-0.26962
0.297192
0.102323
0.0184383
-0.0490086
-0.458284
0.0398433
0.0267916
-0.0153892
0.0645777
-0.0832967
0.0639635
0.0766503
0.0230184
0.0432304
-0.0627446
-0.0408743
0.062391
0.0106405
0.0606896
0.0100669
0.0665615
-0.110564
0.0434442
-0.00175668
-0.079178
0.0564648
0.0879716
0.00341231
0.129298
0.0213657
-0.350587
0.00246066
0.0736075
0.0687412
0.0533855
0.0388885
-0.0633004
0.0941305
0.0114893
-0.159847
0.0388271
0.0740297
0.0887288
-0.0237904
0.0356659
0.0379005
0.126835
0.0181007
0.151697
-0.125293
-0.988827
0.0365637
0.0348141
0.0660627
0.0604819
-0.35003
0.0632927
-0.227117
0.0212748
0.0632971
-0.98132
0.0534047
-0.153895
0.0664288
-0.0748839
-0.134356
0.10687
-0.0271444
0.0530242
0.0377281
0.0566184
0.0934958
-0.0434298
-0.0418443
0.0590455
-0.022574
0.0431556
0.0413803
0.034304
0.0626435
-0.0194721
-0.426016
0.029645
-0.00213885
0.0818885
-0.158208
0.0135709
0.0586909
0.267817
0.0614603
-0.172341
0.0548441
0.0433531
-0.265245
0.477027
0.0280923
0.0699322
0.0733516
-0.12066
0.0247016
0.0381358
0.0184223
-0.17865
0.167825
-0.0252541
0.0526562
0.012958
0.06772
0.0129771
-0.118131
0.0519473
-0.0239274
0.0671466
-0.0687121
-0.57765
-0.872679
0.0413071
0.058034
0.0235296
0.0504429
0.485724
0.066784
-0.0118874
-1.13696
-0.023805
0.071839
0.0651606
0.0437724
-0.803692
-0.113299
0.0324135
0.134375
0.0633043
-0.00324188
0.0581589
0.0716325
0.0272888
0.0394816
-0.0405106
0.213906
0.13787
0.0571212
0.0527989
-0.0169836
0.0569748
0.0820184
0.0585866
0.0613912
0.388937
-0.121864
-0.0450712
-0.0149242
0.0409314
-0.376227
0.0691011
0.0372323
0.0736044
0.0745927
0.0653343
0.0506795
-0.146377
0.000611643
-0.0115647
-0.0523729
0.0137872
-0.0708013
-0.124332
-0.0845541
0.0586303
-0.084342
0.0376194
0.0330822
-0.124121
-0.379941
-0.0088759
0.0855547
-0.00155282
0.0161405
0.0181831
-0.000554323
-0.220853
0.0196414
0.0593248
0.0196684
-0.0801537
-0.05
0.00111468
0.051518
-0.00286092
-0.0925794
0.0408788
-0.131301
0.238151
0.0479593
0.0380708
0.0239464
0.0530857
0.0253091
-0.138717
0.0691638
-0.122615
0.0565352
-0.12087
-0.19112
0.0702523
-0.369745
0.0900004
0.164899
-0.339648
0.065199
-0.00690147
-0.360757
0.367521
0.0756286
0.0402167
0.55851
0.092409
0.0574155
-0.100482
-0.0650151
0.224458
0.0437152
-0.00969655
0.180019
-0.0594198
-0.199074
-0.132167
-0.346183
-0.0756938
-0.180305
-0.0737993
0.0666385
-0.985235
0.0578696
0.0566105
0.0540387
-0.734418
0.244594
0.0689384
-0.353747
0.0640628
-0.0794469
-0.0060919
-1.00345
-0.0954398
0.0591839
0.0852671
0.0388861
0.0706581
-0.475911
-0.167916
-0.0244413
0.060495
-0.0510898
0.0579957
0.0578724
0.038187
0.0496341
0.0683258
0.147898
0.162854
0.0619532
-0.583994
0.0509522
0.205133
-0.387265
-0.0732679
-0.420795
0.0389025
-0.0139525
-0.573797
0.036026
-0.126866
0.0757079
-0.159862
-0.203742
-0.184684
0.0528997
0.0211893
0.017105
-0.0270733
0.0168223
0.00530008
0.0173766
0.0644689
-0.00112835
-1.22242
0.0065542
0.0522617
0.235818
0.0482754
-0.0503274
-0.483624
0.198393
-0.618755
0.0816544
0.0201989
-1.16506
0.563722
0.0194905
0.0578701
-0.0720094
-0.385859
-0.00262297
0.0406999
-0.0963493
-0.266243
0.140142
0.00063559
-0.158334
0.0616982
0.0612527
0.458191
0.105878
-0.00161738
0.508055
-0.0391663
-0.0087601
-0.154642
0.0714694
0.0497236
0.0745669
-0.188235
0.0145645
-0.0631676
-0.0188248
0.158894
-0.45649
0.0578204
0.0616357
0.0683759
0.219585
0.0827202
0.476655
-0.0100634
0.0202625
-0.480258
-0.0885161
-0.261069
-0.872855
0.213535
-0.0984839
-0.0283138
0.103426
0.0520979
-0.0243722
-1.03191
0.0941514
-0.0458512
0.440095
5.1284e-05
0.0153687
0.0835545
-0.917091
0.0641351
-0.0216506
-0.101406
0.0673354
-0.542072
0.23098
-0.0573267
0.017476
0.0407065
0.0540379
-0.122901
0.0488035
-0.0691611
0.0655749
-0.367478
0.0956657
-0.405798
-0.140851
-0.00975193
0.053207
0.0501437
0.0209522
0.0546587
0.122534
0.249024
-0.545837
0.170255
-0.0236566
0.062977
0.0521311
0.013954
0.0645957
0.0159318
0.0308566
0.175831
-0.0387352
0.0632279
0.137968
0.219844
0.0641348
-0.204501
-0.138545
0.0595582
0.05323
-0.0256962
-0.00259562
0.0411591
-0.515298
-0.178102
0.0535317
0.0578443
-0.436165
0.370788
-0.128412
-0.199344
-0.198459
0.0840978
-0.143967
-0.189531
-0.0365674
-0.0151372
-0.0133091
-6.58189e-05
-0.0374743
0.0637406
-0.137983
-0.201307
-0.0138217
0.0437897
0.0679649
0.0212297
0.0595773
0.0633025
-0.137857
-0.0745737
0.0485173
0.0407564
-0.0811869
0.0169959
-1.27366
0.0702833
0.0685292
-0.181353
-0.00530665
0.0362535
0.0899399
0.0441102
0.0543046
0.0578048
-0.397278
0.0577328
0.0627826
0.0434359
0.0727931
-0.459086
0.0417578
-0.0396108
0.0289602
-0.12945
0.265464
0.0912795
-0.00279898
-0.552077
0.054519
0.0642545
-0.0154036
0.0537591
0.0544991
0.0372735
0.0637938
-0.0111744
0.0352092
-0.0119912
-0.0631516
-0.0948362
0.0643829
0.0739445
-0.316379
-0.465422
0.353197
0.0954073
0.00358939
0.0877011
0.0631247
-0.728839
-0.520201
0.0285815
0.0584951
0.385264
0.0247616
0.0583403
0.165462
-1.23829
-0.131884
-0.0464334
0.165487
-0.00177772
-0.0253238
0.058061
0.0583658
-0.0761311
-0.373674
-0.9112
-0.154901
0.297445
0.0162861
0.0425556
0.0550777
-0.0311944
-0.000745649
0.0583119
-1.06326
0.0552688
-0.019918
-0.416922
0.0536317
0.392813
0.0161294
0.121757
0.0547195
0.103903
0.0590581
0.0724483
0.0478855
-0.510508
0.0365201
0.0144741
0.0584748
0.10841
-0.0121252
-0.0352023
0.133795
-0.65154
0.222105
-0.122334
0.0849275
-0.219265
-0.153412
0.0189918
0.28789
-0.388892
0.0583438
-1.04896
-0.067329
0.0299491
0.0179667
-0.0655661
-0.394559
0.013676
-0.0135211
-0.0295291
0.060777
0.256728
0.05017
-0.00522687
0.0377578
-0.0658153
0.114108
-0.154464
0.0611796
0.0668367
0.0242813
0.0896248
0.25772
-0.954405
0.0540884
0.0651629
0.0424699
-0.0294947
-0.0925645
0.000119431
0.0734027
0.276942
0.0846516
-0.0461736
0.0103364
0.127704
0.0548728
0.0249175
-0.532794
-0.071724
0.0545556
-0.00262366
-0.00154997
-1.10206
-0.202004
-0.172752
-0.0593289
0.0520126
0.0628901
0.0883009
0.0679402
-0.015722
-0.900319
0.198619
0.0581815
0.0609758
-1.03276
-0.0538315
0.0567608
-0.0016984
-0.060001
0.25578
-0.0640072
0.0717344
0.0188126
0.0893819
0.0425748
-0.0389596
0.0446933
-1.09291
0.0245325
0.0707162
-1.0989
-0.2793
0.0803657
0.046424
0.00907622
-0.102296
-0.117946
-0.170037
0.0216411
0.0288031
0.0742246
-0.779582
0.104304
0.138778
0.432192
0.0574141
0.0558587
0.0212214
0.0379148
-0.316984
0.0493112
-0.0468172
0.0911999
0.0590533
0.0482064
0.0527345
0.0456811
0.0485406
-0.13988
0.0694071
-0.130728
-0.00966678
-0.0353592
0.13569
-0.0111091
0.0683465
-0.753192
0.0593957
-0.106308
0.0986213
0.0123003
-0.0306914
0.0648463
-0.0678214
0.0432947
0.0176742
-0.997074
-0.150611
-0.0328553
0.194399
0.0458838
-0.398855
-0.110334
0.0283358
0.0203907
0.0619293
-0.468003
-0.0271679
-0.630713
-0.0187103
0.0214901
0.0921605
0.0621953
-0.37878
-0.106371
-0.145445
-0.0986134
0.0874188
0.564341
0.0864871
0.00389962
-0.941629
0.0241459
0.0693488
0.0617737
-0.0203806
-0.178108
-0.148295
-0.00973691
0.0195819
-0.124683
0.0588156
0.059134
0.00558898
-1.14603
0.0623306
0.0531093
0.04474
0.0584422
-0.269617
0.041089
-0.0548619
0.0415072
-0.0166704
-0.0194506
0.0619738
0.0492455
-0.0985238
0.0799958
-0.00674046
0.150468
-0.376164
0.261641
0.0640086
-0.100442
0.1063
0.0344213
0.0109775
-0.00675746
-0.374691
-0.124393
-0.0704623
0.0403882
0.105098
0.0882573
0.0506509
0.0640297
0.0531838
0.0287402
0.0189876
0.133475
0.321515
-0.278151
0.0583654
-0.344859
0.0419619
0.0641245
-0.0487933
0.0605976
-0.0787489
0.0629988
0.244796
-0.0286986
0.0711732
0.396556
-0.00850432
-0.0186272
0.0938603
-0.100697
0.0829658
0.0506799
-0.0484137
-0.00203249
0.0218267
0.0629182
-0.0489936
0.0411118
0.0647378
0.0394985
0.0724673
-0.0677147
0.0413142
0.0334191
-0.443166
0.131505
0.22166
0.0384831
0.0517705
0.0328029
0.0493139
0.0290312
0.150197
0.0251601
-0.00484653
-1.0846
-0.191702
-0.0154078
0.184543
-0.104383
-0.427075
0.0887682
0.0882446
-0.0971735
0.0197664
0.0639933
-0.0554224
0.0522308
-0.582374
-0.478147
-0.188383
-0.109559
-0.0950973
-0.131717
-0.136636
0.0908554
0.0732159
0.0286859
-0.134495
-0.149314
-0.267414
-0.138611
0.0451419
0.044955
0.0694932
-0.0190225
0.0341047
0.102459
0.00494856
-0.11071
0.00865453
0.0646095
0.0538561
-0.44376
-0.200173
-0.00797167
0.0458607
-0.0216212
0.0117287
-0.00664728
0.043164
0.0285516
-0.0529936
0.0640421
0.0443278
-0.0647655
-0.123216
0.0649385
-0.0715422
0.0634761
0.0645296
0.035496
0.0743332
0.0409691
-0.312981
0.153574
-0.0547957
0.0442745
-0.0325316
0.047934
0.0612103
0.0381648
-0.0069455
0.400381
0.148734
0.0496986
0.0521597
-0.00782963
0.0361599
-0.0565658
0.0516181
0.0616726
-0.0985459
0.0429514
0.171366
0.044157
-0.165505
0.046117
0.0384874
0.178691
-0.00529106
-0.0283363
-0.129535
0.104398
-0.156582
0.0677334
-0.324578
-0.15696
0.0670242
-0.0159505
0.031308
0.0102954
0.458176
0.0269379
-0.0145202
0.0439152
0.0827792
-0.43976
0.109838
-0.00766724
0.0730047
0.222605
0.0594968
0.00642493
0.0103083
-0.0289586
-0.135778
-0.122868
-0.0367904
-1.2383
0.0773575
0.00366124
-0.0283385
0.0519642
0.0622402
-0.129071
0.0195136
-0.203369
-0.0508926
0.210653
-1.17003
0.0490882
0.0498817
0.0595796
-0.00191734
-0.00683999
0.0621976
0.0149095
-0.0577681
0.0426659
0.0442755
0.0506588
-0.0333485
0.100067
-0.400475
-0.0255871
0.0391618
-0.0604846
-0.0821725
0.0882717
0.0478105
0.0720967
0.0521609
-0.0451361
0.0648006
0.0452225
0.0696581
-0.0142225
0.0634137
0.0469342
0.0651367
0.125833
0.0384234
0.0335857
-0.0380438
-0.0285553
-0.0119898
0.0421077
0.0152952
-0.0926445
-0.118629
0.0530999
-0.00609085
0.0493513
-0.157727
-0.909199
-0.0712489
0.104082
0.0587503
0.0889395
0.0403133
0.0545422
0.0880306
0.103298
0.183305
-1.17131
0.089894
0.0302206
-0.00571713
0.563109
0.0258786
0.016573
0.174269
0.0487862
-0.199479
-0.00890742
0.0666913
0.0509209
0.215319
0.183852
0.150542
-0.0227615
0.029771
0.0583558
0.0602601
0.0232937
-0.908745
0.151649
0.0612488
0.0845232
-0.118549
0.0543144
0.0254571
-0.1906
0.0529537
0.101812
0.0211899
-0.151296
-0.349303
0.0581479
0.0843659
0.0595731
0.0893289
-0.223684
0.202974
0.0628971
0.019668
-0.0883594
-0.427933
0.124299
0.0923513
0.0801215
-0.0993299
0.0335717
0.0124398
-0.0596677
-0.134655
0.0499842
-0.466402
-1.01227
0.0651644
-0.385425
-0.48708
0.0321624
-0.222269
0.00922159
-1.04949
-0.374482
-0.0244755
0.0596551
0.0177183
-0.0582155
0.119333
-1.08172
-0.00469528
-0.0295209
0.217124
0.0549102
0.0941175
-0.160021
0.00291752
-0.000855882
0.0165859
-0.898183
-0.00238549
-0.110595
0.108992
0.0574827
0.0540873
-0.0447228
-0.0592447
0.0525958
0.0374349
-0.0496674
-0.0491351
-0.0820005
0.0292987
0.047965
0.555272
0.0401981
0.0672188
0.0625116
0.0531147
0.0469568
-0.284863
-0.0552257
0.130993
0.0640451
0.053772
-0.00922714
0.0632056
0.0425553
0.147476
0.0201788
0.0641663
0.00554847
-0.037615
0.0497476
0.200347
-0.00264762
0.0524831
-0.0460069
-0.103629
0.171861
0.0865994
0.0437663
0.146052
0.0587374
0.0543203
0.0982022
-0.364579
-0.0504407
0.0543939
0.0323214
0.105808
0.102874
0.142916
0.150963
-0.113136
0.557544
0.0380368
-0.0208229
0.0668192
-0.0867608
-0.295617
0.0126549
0.06851
0.04882
0.0843942
0.0638161
0.013727
0.195086
-0.131818
0.134821
0.0273701
0.00993854
0.0417688
-0.0114913
-0.0798085
0.00636135
0.0203325
0.0618812
0.0937412
-1.05619
-0.0217557
-0.108551
-0.609519
0.0935654
0.498936
0.0554597
0.0597339
0.0535009
0.0321099
0.0366778
-0.185038
0.0630671
-0.129888
0.047975
0.06253
-1.04727
0.0811158
0.062422
0.124339
-0.00828292
-0.500242
-0.01669
-0.0292631
0.0068813
-0.14517
0.24
-0.0530678
-0.670978
0.145892
-0.14903
0.214298
-0.138465
-0.0371326
0.066229
-0.214728
0.0533465
-0.363728
0.0362121
0.0516876
0.0230197
0.0585901
0.0699311
-0.0596213
-0.159447
0.205279
0.0769489
-0.207175
0.0571863
0.035095
0.0187089
0.114418
-0.121026
0.0462503
-0.0392024
-1.10134
-0.0535522
-0.00542601
-0.457695
0.195178
-0.0605488
0.0687847
0.199474
-1.04236
-0.129797
0.12239
0.375108
0.0686717
-0.106231
-0.0102782
0.0535566
-0.0382215
0.209375
-1.22446
0.0516159
-0.273595
-0.0991655
-0.833622
0.552818
-0.011487
-0.0387035
0.143827
-0.0269185
0.0375678
-0.238363
-0.492097
0.0379738
0.134117
0.0697891
-0.122134
0.0239925
0.0700854
-0.00373147
-0.071924
-0.0050274
0.21993
0.0413729
0.0102483
-0.043973
0.0422468
0.118131
-0.248669
-0.00956916
-0.341771
-0.0698783
-0.0116872
-0.0311055
0.0696212
-0.0331878
-0.373975
-0.0546106
0.0325691
0.0163786
-0.00468532
0.0540197
-0.125484
-0.00394005
-0.00684606
0.061761
0.0615673
-0.0395698
0.0656771
0.0530473
-0.136086
0.0630764
0.0290029
0.0372762
0.38139
0.00646032
0.0537734
-0.0586951
-0.272171
0.11064
-0.00663394
0.0675392
0.0699248
-0.578505
0.118558
-0.047006
-0.335253
0.0442298
0.0295503
0.0642404
-0.174057
-0.0349795
0.0621296
0.0793349
-0.0322918
0.0757379
0.14914
-0.222903
-0.0625657
0.0528396
-0.465201
0.220547
-0.271028
0.0205351
0.00335634
-0.00293377
-0.054739
0.0658719
0.0475324
0.0360133
0.0269439
0.0480654
-0.0831888
-0.0776621
0.0379797
0.0371243
0.0541858
0.0029613
-0.0211952
0.0484139
-1.18308
0.0459282
-0.15837
-0.0965006
0.554393
-0.997504
0.0581287
0.0625218
0.0767154
0.0643764
-0.0601594
-0.204515
0.0108581
0.0638381
0.0554444
0.0146804
0.0452162
0.0369578
-0.0196284
-0.170686
0.557967
0.0448484
0.0625254
0.0365855
0.0321094
-0.0436104
-0.1889
0.0045669
-0.0612648
-0.0415921
-0.227537
0.221217
-0.391203
0.0933513
-0.0765963
-0.0141594
-0.147353
0.0901866
0.0522136
-0.327258
0.415037
-0.0319746
0.071082
0.389763
0.0425512
-0.421351
0.0678507
0.143225
-1.28641
-0.00985007
-0.265531
0.0526203
0.0585453
0.0234992
0.0224185
-0.285423
-0.332876
0.0811886
0.0136295
-0.00329401
0.0116746
0.142372
-0.0892169
0.246922
0.039549
0.0873852
0.133697
0.0479131
0.00901799
-0.157689
0.0405647
-0.0302161
-0.0282616
0.0433053
0.0878128
0.117209
0.198652
-0.14093
0.0169382
0.0179966
0.107773
-0.0671949
0.0203706
0.0120156
-0.853541
-0.310888
0.0196807
-0.184204
-0.000821366
-1.13766
0.117778
0.118215
0.0599838
0.0576637
-0.0451681
0.0525798
0.0218345
0.0516143
0.0690284
0.148956
0.0821769
0.14609
-0.0420727
0.0406042
-1.1075
0.0160415
0.0540298
-0.0919952
-0.170418
-0.477974
-0.112652
0.0759767
-0.127562
0.0107866
-0.249804
0.0775294
-0.0580559
-0.0245767
0.0648023
0.0196338
0.0747299
-0.635541
0.187652
0.0530016
0.0261515
0.0742947
-0.003848
0.210665
-0.0938193
-0.0248379
0.063356
0.0817929
-0.022465
0.147181
0.0102176
-0.334035
-0.103709
-0.473569
0.00547441
0.0629887
-0.470164
0.49562
0.0232145
0.0687874
-0.0791575
0.0663716
0.062136
0.0673553
0.0493095
-0.113247
0.0285551
0.0639412
-0.0231958
0.202945
0.224483
0.0381813
0.146219
0.140074
-0.358249
0.053976
0.0889594
-0.0222449
0.168476
-0.179689
-0.106453
0.0422698
0.0988503
-0.191983
-0.134537
-0.377766
0.0554245
-0.90176
-0.41106
0.0581973
-0.207425
-0.0592474
-0.0895297
-0.0999532
0.0660911
-0.047448
-0.31523
0.0366416
-0.269218
-0.163786
-0.0111641
-0.015565
0.0589246
-0.00730876
0.0983003
-0.0650961
-0.00487593
0.0627742
0.0604924
-0.0298618
0.114157
-0.105875
0.0463614
-0.201652
-0.149582
-0.068291
-0.234461
-0.156184
0.034214
-0.44893
0.110959
-0.525337
0.0942281
-0.0425112
-0.267325
0.478038
-0.105486
-0.0512928
0.0861636
-0.175188
-0.142887
0.0181004
0.0772838
0.11782
0.00482074
-0.232649
0.0298834
0.0939256
0.105645
0.0657665
0.00480513
-0.917396
0.058472
-0.273796
0.0258973
0.0072746
0.0531056
0.0622022
-0.0300777
-0.0223171
-0.0520483
-0.0260671
-0.46706
0.053204
0.0730734
-0.445839
0.064334
0.0478982
0.0637036
-0.140933
0.0559679
0.0459212
0.0256223
0.0279787
-0.0796853
-1.03371
-0.0910583
0.0552497
-0.98291
0.0501265
0.12884
0.0462155
-0.0444058
-0.12143
0.0550159
-0.551642
0.0417513
-0.261346
0.247912
0.0387331
0.0789595
-0.165498
0.058245
0.0170129
-0.0294532
0.156452
0.0819028
0.0635753
-0.0801494
0.237006
-0.167755
-1.009
0.128416
0.277196
0.215924
-0.0504788
0.025788
0.02058
-0.165783
0.0366083
0.0404269
0.117891
0.0581474
0.0742442
0.508916
-0.108354
0.00866996
0.0667737
0.170623
0.166183
0.103658
0.0779413
0.0271249
0.0284513
0.0659518
-0.0941791
0.0130642
-0.399951
0.0471976
-0.018005
0.0636997
0.168052
0.0473638
-0.0610168
-0.0278526
-0.00763145
0.0106476
0.192329
0.0985177
0.207592
0.0214273
0.402261
0.145271
0.00398526
0.0753797
-0.257183
-1.28068
-0.168719
0.216714
-1.05143
-0.00596817
0.0134032
0.0164964
0.124582
-1.17101
0.06263
-0.065056
0.0850946
0.0483502
0.00796041
-0.0904554
0.0919104
0.0388755
0.328387
-0.678979
0.0703172
0.0760884
0.0335441
0.0243042
-0.24841
0.0823358
-0.243005
-0.0576189
0.0419874
0.0180719
0.252081
-0.247552
0.0600346
-0.170056
-0.865308
-0.036014
0.151963
-0.129102
0.0148177
0.106327
-0.16054
0.0224692
0.171203
0.0804736
0.0558654
0.0711515
-0.1214
-0.00926942
-0.814574
0.0623315
-0.38528
0.038645
-1.119
0.117266
0.0473558
0.0303194
-1.11422
0.0432774
0.045886
0.125809
-0.134999
0.152066
0.138432
0.0361919
0.0131731
0.0928067
0.025179
0.0379046
-0.0115315
0.0807228
-0.0482073
-0.0354675
0.0550566
-0.83175
0.0420182
0.0451195
-0.570446
-0.133489
-0.183311
0.0633619
-0.0200103
0.0640667
-0.0567428
-0.0376465
0.00560688
0.258053
0.0612448
-0.0177365
0.0522172
0.138928
0.0295635
-0.0288612
0.0554458
-0.127907
0.153224
-0.254643
0.0633354
-0.0106618
-0.0320326
-0.0234891
0.0539801
-0.348499
-0.0245671
-0.0914117
0.0951805
0.0654545
0.212988
-0.380936
-0.034553
-0.0643009
0.0685266
0.0603517
-0.0381664
-0.318338
0.0478666
0.00329123
0.0864142
0.0124573
-0.131249
-0.384812
-0.0277464
-0.0483626
-0.427941
0.107674
0.00903267
-0.0315727
0.0651523
0.166489
-0.0256036
-0.122937
-0.0302358
0.0639277
0.267957
0.22868
0.00917819
-0.0488656
0.0532353
0.0474369
-0.403475
0.0883109
0.0774114
-0.0335358
-0.0717587
0.014807
-0.0918404
0.0386336
0.0201456
-0.439648
0.364774
0.262902
0.0408764
0.048177
0.166831
0.119527
0.026722
0.105303
0.0374369
0.0160303
0.0641694
-0.00188459
0.213916
-0.0354949
0.00469963
0.0801208
0.0532389
-0.11406
-0.127961
0.240845
0.0639925
0.0432978
0.0230533
-0.0258134
0.0652625
-0.0934748
-0.454725
0.0274187
-0.61116
0.204173
-0.0320983
-1.18653
-0.241563
-0.00564052
-0.0871565
-1.31471
-0.507019
-0.449358
0.0153797
0.124272
-0.0481934
0.0425119
0.252893
0.131851
-0.124085
0.456694
-0.281812
0.0414716
0.0476791
0.0432655
-0.00543471
0.0371756
0.0551901
-0.404521
-0.371368
0.0682823
0.0383399
0.0364247
-0.12215
-0.0618812
-0.13423
0.103899
-0.55745
0.045596
0.0160779
0.0614751
0.140733
-0.00296646
0.0509834
0.214823
0.0909156
-0.115455
-0.013428
0.0278129
0.477936
0.00208708
-0.378331
0.067159
-0.215162
0.052826
-1.12852
-0.0485976
-0.136012
0.188504
-0.143128
-0.181542
0.252005
0.0432486
-0.431093
0.0209735
0.0543771
0.0548447
0.0186653
0.0572085
-0.131175
0.0430205
0.0473693
0.0870936
-0.204264
0.038876
0.0581917
0.0645678
0.110767
0.058102
3.76691e-05
0.0334222
0.0549986
-0.123157
0.0604523
-0.0473766
0.0703802
0.0643047
0.0369331
-0.0316586
0.0383131
0.00979118
-1.01869
0.0445874
-0.141398
0.141194
0.0521479
-0.214523
0.0887876
-0.317605
-0.0386979
0.106269
0.182319
0.00843735
0.0400669
-0.034501
0.0796633
0.0221752
0.154835
-0.257518
-0.0407756
0.0436572
0.0739368
0.0655002
0.0177986
0.0587862
0.0465801
-0.134904
0.00547782
-0.186736
-0.528009
0.0484764
-0.0094614
-0.0723935
-0.00607975
-0.00927605
-0.0666123
-0.155091
0.0439593
-0.101767
0.0901148
0.0800101
-0.30762
-0.18945
-0.00819473
0.0217825
0.0132569
-0.405467
-0.00796383
0.0759435
-0.477411
0.0847154
-0.0978154
0.0844053
0.0667984
0.0105529
0.090741
0.0283878
0.0381942
-0.00120581
0.115628
0.0544945
0.120515
0.0445467
-1.33226
0.0267971
0.02048
0.0475217
0.240784
0.0488487
0.134606
-0.142499
-0.10918
-0.0865297
-0.433262
-0.149214
-0.0327801
0.00901847
-0.131742
0.0636517
-0.37677
-0.0495046
0.00409139
0.0323016
0.000760735
-0.126565
0.181645
0.0156342
0.0533617
0.0821377
0.403964
0.00466323
0.000697939
0.0706983
-0.133817
-0.144006
-0.104527
0.0251345
-0.0728553
-0.000713811
-0.00430326
-0.11381
-1.15464
0.0649653
-0.123622
0.0257423
-0.132552
-0.00531575
0.0444324
0.000171381
0.0229564
-0.0500616
0.0581742
0.107983
0.0648127
0.0785947
0.0694267
0.284419
0.0921824
0.0298691
-1.1597
0.0814006
-0.12567
0.10597
-0.495651
-0.0986297
-0.811266
0.135769
0.0834381
0.0557721
0.037834
0.0751361
0.0274951
0.0240348
-0.217647
-0.124986
-0.138973
0.0420413
0.0800288
0.0639984
0.383911
0.0214866
-0.0969138
-0.277747
-0.125002
-0.0318597
0.150219
-0.0758063
-0.112736
0.0114618
0.0558553
0.0838058
-0.0476092
0.00406106
-0.291518
-0.0645617
-0.0542527
-0.0438279
0.181524
0.0652558
0.0469703
0.299503
-0.143285
0.0625259
-0.128086
-0.145963
-0.423954
0.030559
-0.0893908
0.0378367
-0.0573184
0.051614
0.00647603
0.0471526
0.0402488
-0.164418
-0.259182
-0.294759
0.0373502
-0.0939784
-0.0115197
-0.0631209
0.127369
-0.0312611
0.0247502
0.0572625
-0.0319614
0.193643
0.0234537
0.0715776
0.0883491
0.0109481
-0.402008
0.0640587
0.0521548
0.167179
-0.154806
0.0640801
-0.0151179
-0.14628
0.0545649
-0.0123148
-0.975305
0.0570052
-0.0273341
0.0666082
-0.142947
0.0243425
-0.0855605
-0.130755
0.121122
0.0487615
0.220291
0.158976
-0.457167
-0.0512025
-0.092578
0.0661051
0.0134936
0.100616
-0.0514094
0.0703775
-0.380174
0.0414691
0.0569581
0.300734
0.0690896
-0.37449
0.276073
-0.367648
0.0220983
-0.0671995
0.0295124
0.183848
0.051404
0.0192113
-0.170717
-0.445752
-0.0375819
0.0503872
-0.541277
-0.250246
-0.358534
-0.143688
-0.0476745
-0.128878
0.209573
0.0216654
0.0312834
0.0771762
0.0549276
-0.0796576
0.0758473
0.136738
-0.097347
0.0798281
-0.123152
0.0497259
0.00744871
-0.00056975
0.000561105
-1.21209
-0.0114757
-0.0799832
-0.0360446
0.532382
-0.0377312
0.0536654
0.00648364
-0.148635
-0.108499
-0.0288189
-0.119664
0.0265649
-0.0566359
-1.06743
-0.147063
0.0308336
0.10264
-0.251784
0.00799743
0.110301
0.046965
0.0601008
-0.380446
-0.168611
0.0368538
0.19939
0.0494114
0.0467419
0.0392933
0.013679
-0.0307097
0.0666616
0.0613908
0.290978
0.0581169
0.0169702
-0.0720089
0.148107
0.0455343
-0.102733
0.0524345
-0.4327
0.0281345
0.022783
0.0179587
-0.00274428
-0.032981
-0.621826
0.0445647
-0.420417
0.0453001
0.0791481
-0.123311
0.0790385
-0.232944
0.0322122
0.0870642
0.0368549
0.501735
0.232971
0.0119478
-0.113316
-0.0120065
0.0187931
-0.10944
-0.121007
-0.0150783
-0.0338119
-0.173993
0.0451751
0.414887
-0.102607
0.154576
0.0544092
-0.028152
0.0960593
0.0482437
0.00823686
0.192969
-0.0202365
-1.44271
0.0428089
-1.03188
0.0781147
0.0645949
0.11648
0.0847615
-0.814463
0.00674077
0.0643005
0.0260542
0.0591229
-0.0454826
-0.0355165
-0.120016
0.0123513
0.137485
-0.479652
0.137583
-1.19509
0.110162
-0.0459935
0.0477434
-0.0911511
0.0822006
-0.0457704
-0.212609
0.0639407
0.0869034
-0.0565972
-0.396076
0.0256992
0.0116707
-0.274036
0.0826735
0.0466825
0.0447066
-0.444003
-0.180445
0.0517842
0.0263608
0.0770996
0.0237959
0.0542437
0.053418
-0.0846994
0.277318
-0.0012353
0.0190622
0.0809859
0.0543529
0.0612979
-0.0436489
-0.0331044
-0.348975
-0.0816772
-0.388851
-1.04129
0.0646753
0.0224184
0.073668
0.0657502
0.0499564
-0.221673
0.0200947
-0.0609392
0.0380294
0.0534734
0.504194
-0.352873
-0.0450745
-0.160544
0.388633
-0.0401399
0.0454478
0.124639
0.0435513
-0.0781664
0.0633475
-0.0299406
0.0280421
0.0171884
0.144489
0.0631191
-0.0600951
-0.296475
0.0446168
0.120812
-0.479174
-0.0501272
-0.459672
0.0650634
-0.397744
0.0200367
0.121337
0.040348
-1.00265
0.0343773
-0.0980248
-0.0204035
0.0492073
0.0638594
0.0226546
0.0098989
0.0689698
0.480846
0.0529111
0.0691123
0.0627464
0.0662025
-0.0526321
-0.993791
-0.0546061
0.16288
-0.0659885
0.0376307
0.0759834
-0.0122209
0.0522701
-0.213469
0.0640455
0.123156
0.0535364
0.0923044
0.0553816
0.0808413
-0.11697
0.0513304
-0.0385727
0.0723199
0.00687248
0.074662
-0.126154
-0.0736875
-0.0427483
0.0385735
0.0226427
0.0284011
-0.937229
-0.906146
-0.346265
0.151234
0.0534237
-0.130416
-0.315061
-0.114699
0.0349936
-0.0703973
-0.34539
0.118713
-0.0109064
0.130883
0.0639473
-0.0728681
0.0290636
0.0657867
-0.198544
-0.011417
0.00546384
0.0154524
-0.12906
-0.00596784
0.0283757
0.547088
0.0394176
0.034261
-0.0662177
0.0336902
0.466624
0.0698537
0.0127338
-0.123994
-0.241575
0.309036
0.0117984
0.0757054
-0.0207858
0.123955
-0.0781524
0.116267
0.0642189
-0.146714
-0.87793
0.102908
0.113508
0.0408339
-1.15171
0.442801
-0.172163
0.560136
-0.0261144
0.0084477
-0.0359546
0.394631
0.0402564
0.100627
-0.00502166
-0.028915
0.0556318
-0.0193642
0.00778062
0.0556505
-0.0260841
0.0744064
-0.312754
0.384888
0.047888
0.0926906
0.08495
0.0695431
0.028223
0.534877
-0.0510658
-0.0646332
0.187036
0.0617415
0.107204
0.0110343
-0.0573323
-0.0218737
0.00783149
-0.0581181
-0.159421
0.101906
0.497085
-0.0648985
-0.0848076
-0.0177008
-0.530503
0.0512278
-0.0345268