/*--------------------------------*- C++ -*----------------------------------*\
| =========                 |                                                 |
| \\      /  F ield         | OpenFOAM: The Open Source CFD Toolbox           |
|  \\    /   O peration     | Version:  v2012                                 |
|   \\  /    A nd           | Website:  www.openfoam.com                      |
|    \\/     M anipulation  |                                                 |
\*---------------------------------------------------------------------------*/
FoamFile
{
    version     2.0;
    format      ascii;
    class       surfaceScalarField;
    location    "400";
    object      phi_0;
}
// * * * * * * * * * * * * * * * * * * * * * * * * * * * * * * * * * * * * * //

dimensions      [0 3 -1 0 0 0 0];
oriented        oriented;


internalField   nonuniform List<scalar> 
27055
(
0.0153739
-0.0153739
-0.255329
-0.457605
0.335396
0.122208
-0.356662
0.165816
0.190847
-0.0308646
-0.0546158
0.0854804
0.0805377
-0.0378004
-0.0427373
-0.186349
-0.0780642
0.264413
-0.433646
0.37395
0.0596961
0.109056
-0.021042
-0.0880138
-0.0929267
0.0620621
0.0150987
0.20029
-0.215389
0.127761
-0.13973
0.0119683
-0.112097
0.0100677
0.10203
-0.0484772
0.046517
0.00196015
-0.103171
0.119654
-0.0164821
-0.081763
0.0976848
-0.0159219
-0.478612
0.476768
0.00184479
0.0825371
0.324425
-0.406962
-0.364971
0.220405
0.144567
0.093679
-0.0820021
-0.011677
0.0350718
-0.0644867
0.0294148
-0.0576149
0.228543
-0.170928
-0.209725
0.224824
0.238601
-0.229684
-0.0089163
0.127426
-0.0501014
-0.0773242
0.0509841
0.0764414
0.0831054
0.248501
-0.331606
0.0484077
0.03213
-0.345503
0.42804
-0.166445
-0.29116
0.341789
0.205791
-0.54758
-0.0215006
0.0352218
-0.0137212
0.261552
0.140752
-0.402304
0.000533913
-0.0281654
0.0276314
0.0444255
-0.0440116
-0.000413855
-0.0500334
0.0733979
-0.0233646
0.0338059
-0.03402
0.000214027
0.48161
-0.178366
-0.303243
0.0213568
0.026192
-0.0475488
0.54823
-0.2853
-0.262929
0.0118824
-0.00103739
-0.010845
0.128961
-0.133715
0.00475478
0.0055368
-0.0770497
0.0715129
0.022017
0.00724809
-0.0292651
0.27506
0.160647
-0.435707
0.0290136
-0.0531164
0.0241028
-0.254726
-0.103552
0.130082
-0.00112131
-0.0875451
0.0666466
0.0208985
0.186064
-0.287211
0.101146
-0.372908
0.324715
0.0481929
0.391783
0.0665482
-0.458331
-0.0104719
0.0143259
-0.00385397
0.11168
-0.121392
0.00971207
0.0365376
0.0582755
-0.0948131
0.0955362
-0.0441099
-0.0514262
0.00887041
-0.315216
0.306345
0.395676
-0.228111
-0.167565
0.00511942
1.9476e-05
-0.0051389
0.184314
-0.281691
0.0973766
-0.126744
0.0235723
0.445737
-0.170677
-0.0866047
-0.0357165
0.122321
-0.161028
-0.195634
-0.092658
-0.019301
0.111959
-0.124353
0.202411
-0.078058
0.0229264
-0.0242729
0.00134645
-0.00213635
-0.0193643
-0.235002
0.318108
-0.207266
0.120661
-0.276561
0.285431
-0.446118
0.34061
0.105508
0.014967
0.0202548
0.029075
0.0270998
-0.0561748
0.132997
-0.0428709
-0.090126
0.0596836
0.000110087
-0.0597937
0.10736
0.05863
-0.16599
0.190423
-0.236616
0.0461924
-0.0185214
0.0185214
-0.173729
0.242582
-0.0688533
-0.0284615
0.0263252
0.0987794
-0.00522978
-0.0935496
0.00794637
-0.120306
0.112359
0.14196
0.0955422
-0.237502
0.0514444
0.0102783
-0.0617227
0.0528806
0.0426555
-0.429604
0.329506
0.100099
-0.170928
-0.194043
0.0979442
0.000835182
-0.0923519
-0.0203803
0.112732
-0.376945
0.206017
-0.327247
0.232271
0.0949759
-0.0742878
0.416076
-0.0343273
0.0894798
-0.0551524
-0.172116
-0.204829
-0.0771398
-0.130126
0.0975316
-0.335145
0.237613
-0.287499
0.193135
0.0943643
0.00567295
0.0464531
-0.052126
-0.330823
0.179615
0.151208
-0.0833381
0.104714
-0.0213757
-0.0122653
0.123946
0.0659411
-0.0390445
-0.0268965
-0.0944864
0.0145204
0.0799661
-0.0686952
0.0186619
-0.107972
-0.0154352
0.123407
-0.380775
0.21433
0.0293854
0.0531037
-0.0824892
-0.513585
0.513585
0.125972
-0.161689
-0.223798
0.0994447
0.0668564
-0.0496797
-0.0171767
0.101555
0.17733
-0.278885
-0.272321
0.0859719
-0.319649
-0.0532588
0.139517
-0.151183
0.0116661
0.00823842
-0.104757
0.0965186
0.047991
-0.0189774
0.115628
-0.100965
-0.0146629
-0.145988
0.143956
0.00203247
0.130046
0.256122
-0.386168
0.261648
0.219961
-0.030235
0.0223942
0.00784084
0.0697339
-0.0245103
-0.0452236
-0.00249819
0.0426317
-0.0401335
0.0903392
-0.0848024
-0.0493963
-0.0486999
0.0980962
0.288149
-0.463881
0.175732
-0.0241216
0.0591934
0.0111065
0.0557498
-0.366926
0.315708
0.0512187
0.24426
-0.0609656
-0.183294
0.014611
0.101017
0.346549
-0.0364529
-0.310096
0.00358067
-0.0140526
0.0503596
0.00932394
-0.0835431
-0.00400199
-0.257148
0.507088
-0.24994
-0.278073
0.190765
0.0873083
0.0242832
0.0242284
-0.0485115
-0.0722374
0.108775
-0.151687
0.0437148
0.0374497
-0.00554125
-0.0319085
-0.173956
0.347705
-0.173749
0.134708
-0.0527251
-0.0819828
-0.010133
-0.101674
0.111807
-0.123583
-0.00316028
-0.238634
0.497983
-0.25935
0.00553723
-0.0327152
0.027178
-0.0921478
0.0800042
0.0121435
-0.0118412
0.0119114
0.119505
-0.125427
0.00592164
-0.00821728
0.0980652
-0.0898479
-0.0520492
0.159409
-0.108427
0.0160753
0.00877733
0.00310508
0.0992371
-0.0782674
-0.0209697
-0.104625
0.0119665
-0.0458685
0.0546173
-0.00874882
-0.0937591
-0.146669
-0.10866
0.315956
0.0305935
-0.0787456
0.0194544
0.00347206
-0.0520193
0.013818
0.0382013
0.335348
-0.197059
-0.138289
-0.0784682
0.0927179
-0.0142497
0.0297027
0.00774705
-0.172439
0.0219492
0.15049
-0.0563121
0.00919179
0.0471203
-0.0303942
-0.189538
0.219932
-0.33459
-0.0990559
-0.0303282
-0.336598
0.186645
-0.161902
-0.0311334
0.193035
-0.0220464
0.0220464
0.209895
-0.0679348
0.367081
0.0499283
-0.41701
0.0414225
0.00300302
-0.239912
-0.0919113
0.331823
-0.0841642
0.0662128
0.0179514
-0.0325936
0.0539503
-0.374348
-0.0717702
0.0266748
0.0392663
0.0182805
-0.0182805
0.237557
-0.15919
0.24037
-0.08118
0.00285712
0.0485873
0.376231
0.171998
0.0199515
-0.0213026
0.0013511
0.165589
-0.057114
-0.108475
0.348595
-0.153171
-0.195424
0.016129
0.00760669
-0.0393803
0.0317736
0.142171
-0.316127
0.00541937
-0.201294
0.195875
-0.192512
0.294066
-0.0158795
-0.190039
0.205918
0.426749
-0.0184549
-0.408294
-0.0997168
0.32803
-0.228313
0.254716
0.22258
-0.477296
-0.13418
0.149802
-0.015623
-0.107635
0.032297
0.0753376
0.0536652
-0.0312554
-0.0224098
-0.0723505
0.101736
-0.00432561
-0.00126073
0.00558634
0.0163847
0.0551675
-0.0715522
0.00907038
-0.0401102
0.0310398
0.0821047
-0.0635066
-0.0185982
0.0223998
-0.127528
0.105128
-0.200413
0.346973
-0.14656
0.00764728
-0.131231
-0.1039
0.0205622
0.059223
-0.05355
0.0600553
0.0150849
-0.0751402
-0.146763
0.0125837
-0.0919864
0.0837691
0.314406
-0.0821357
-0.28453
-0.0962447
-0.163214
-0.124285
0.043344
-0.0378068
-0.0814874
-0.200203
-0.00795204
0.0146755
-0.00672349
-0.00872476
-0.131679
0.140404
-0.0331902
0.459939
0.235509
-0.265903
-0.010043
0.200517
0.0380836
0.134517
-0.374429
-0.4015
0.343133
0.058367
0.338265
-0.147226
-0.19104
0.00611509
-0.178554
0.0448475
0.0167551
0.082482
-0.170926
0.432479
0.016847
-0.0513394
0.0344924
-0.142633
-0.0347165
0.17735
0.11806
-0.0627688
-0.0552915
0.296236
-0.110171
0.138497
-0.514368
0.375872
0.205325
0.13294
0.0223177
-0.0552631
0.0329453
0.0795767
0.0384835
0.116148
-0.0255302
-0.090618
0.026965
-0.00494802
-0.0445708
-0.0117413
-0.514503
0.204163
0.31034
0.00477389
-0.00506547
0.000291581
0.00934465
0.00091687
-0.0102615
0.143685
0.0138204
-0.157505
-0.00485181
0.0685069
-0.063655
0.0863467
-0.0511623
-0.0351844
0.316806
-0.164456
-0.15235
-0.0861832
0.0226766
0.221815
-0.216395
-0.0216622
0.0242171
-0.0025549
0.028639
-0.0536711
0.0250322
-0.0121804
0.00422833
-0.0449395
0.0552178
-0.0844516
0.000287394
0.193141
-0.144803
-0.0483381
-0.0913484
-0.0300439
0.0697901
-0.0839964
0.0142063
-0.0571271
0.424208
-0.0754263
0.278892
-0.203466
-0.522268
0.403143
0.119126
0.0233893
-0.0280664
0.00467708
-0.0484827
0.0026142
0.0422368
0.0659108
-0.0628318
-0.00307897
0.150544
-0.21151
0.0295701
-0.0290362
0.0340271
-0.0704282
0.0364011
-0.44821
0.450723
-0.00251265
0.211432
0.105374
0.0187953
-0.0180286
-0.000766736
0.128093
-0.120146
-0.158448
-0.0654425
0.22389
-0.272435
0.410931
-0.039804
0.0373058
0.0171931
0.00677084
-0.0239639
-0.00647081
-0.0942317
0.252397
-0.158165
0.0270291
-0.0165147
-0.0105144
0.0839099
-0.0172633
0.0763261
-0.218959
-0.068619
-0.0167144
0.0853335
-0.0284801
-0.00290916
0.0313893
0.193208
-0.122763
-0.0704454
0.101951
-0.0937131
0.150038
0.198557
-0.082709
0.118612
-0.0359034
0.00369481
0.0162567
0.0131897
0.114572
-0.01421
-0.00430667
0.0702175
0.0101635
0.0168657
0.273631
-0.191686
-0.0819456
0.289041
0.156696
-0.176874
0.163915
0.0129593
-0.180161
0.190347
-0.010186
-0.484601
0.0602549
0.424347
0.0298131
-0.0499611
0.0201479
-0.0855598
0.0186752
0.0668846
-0.431497
-0.0531041
0.145519
0.250157
-0.111812
0.00185478
-0.103985
0.143618
-0.0396331
-0.402095
-0.0765169
0.0476338
-0.0400271
0.0662295
0.0499187
-0.112721
-0.249786
0.362507
-0.00744772
-0.0776304
0.0850781
0.0866453
0.117749
-0.204394
-0.257298
0.163066
0.0660888
0.0182485
-0.0221216
0.00387303
-0.209297
-0.111613
0.32091
0.0515974
-0.0347505
0.413176
-0.143812
-0.269364
-0.0448852
0.0144789
0.0304062
-0.149273
-0.00190999
-0.10704
0.121349
-0.0143094
-0.0115794
-0.0360798
-0.0583416
0.0944214
0.143043
-0.219397
0.076354
-0.0816261
-0.164224
0.0149511
0.133516
-0.151912
0.0183966
0.116068
-0.127035
0.0356864
0.237898
0.0547964
-0.292695
-0.0751291
0.0927478
-0.0176187
0.0155283
-0.0211871
0.00565877
-0.0766056
-0.0039943
0.0805999
0.0101622
0.000647123
-0.0108093
-0.0574024
0.0721042
-0.0147018
0.0702485
-0.0371526
-0.0330959
-0.330522
0.09552
0.123134
-0.100734
-0.153516
-0.247984
-0.0519016
0.0682862
-0.0883598
-0.426143
-0.346614
0.508846
-0.162232
-0.324944
0.115647
-0.0778094
0.0783204
-0.000510989
-0.0102389
-0.00570488
0.0159437
-0.116528
0.0998139
-0.106302
-0.00550986
0.105721
0.0924062
-0.198127
0.0784362
-0.0464388
-0.0319974
0.11697
-0.045649
-0.0713212
0.0684638
-0.104544
0.284692
-0.293751
0.00905914
0.106966
-0.118824
0.0118583
0.105402
-0.117699
0.0122961
0.0246671
-0.0589944
-0.0120656
0.0106722
0.00139342
-0.458247
0.0612279
0.397019
-0.0789752
0.36765
-0.288675
0.0681544
-0.0129869
0.0196848
0.0706544
-0.000249638
0.00536906
0.182047
0.0154108
-3.68999e-05
0.0855082
0.0800805
-0.0992629
0.0703904
0.0288724
-0.0129412
0.00270235
-0.137433
0.121998
0.0369554
0.0332931
0.0665939
-0.0203002
-0.0462937
0.0462476
-0.0674174
0.0211697
0.040501
-0.18717
0.00463552
0.0217206
-0.0263562
-0.308678
0.208961
-0.220595
-0.110227
-0.218229
0.29371
-0.075481
0.272884
-0.452705
0.179821
-0.0799443
-0.00181862
0.0931083
-0.018336
-0.0747723
-0.0022007
0.0978611
-0.0956604
-0.120798
0.0380887
0.297341
-0.480043
0.182702
-0.307915
0.158851
0.149064
0.00926643
7.82195e-05
0.140134
-0.00661776
-0.220831
0.0107217
0.210109
0.421988
-0.149104
0.344131
-0.19893
-0.145201
-0.134328
0.126427
0.00790146
-0.0500494
0.0894944
-0.039445
0.06981
-0.000963246
-0.0688468
-0.0355038
0.00278861
0.146913
-0.00677908
-0.0353958
-0.00471186
0.0401076
0.164084
-0.0203991
-0.0202138
-0.0100212
-0.431782
0.057434
0.0197475
0.0339177
0.323044
-0.446105
0.12306
0.0617
-0.0154524
0.094455
-0.0343996
-0.0259431
0.11349
-0.0875466
-0.0117711
0.0272994
-0.0138318
-0.372692
-0.0855547
0.129379
-0.108876
-0.0205022
0.525222
-0.133439
0.326242
-0.0897889
-0.236453
-0.00555503
-0.0548316
0.0603866
-0.0191619
-0.0257233
-0.021048
0.0256835
-0.143615
0.03963
-0.147193
-0.0170318
-0.0156718
-0.0328053
0.0747067
-0.0639965
-0.0107101
-0.47872
0.120062
0.358658
-0.467744
0.447624
0.0201206
0.042801
-0.0185178
-0.137957
0.122078
0.137381
-0.12268
-0.0147009
0.097802
-0.0781545
-0.0196474
0.116622
0.0154979
-0.13212
-0.0892372
-0.197757
0.286994
0.0471164
-0.0247987
-0.0895346
0.0930697
-0.00353506
0.0658806
0.0671163
0.113027
-0.12532
0.0122925
-0.0285281
-0.0707348
0.0419667
0.0517123
0.224911
0.103122
-0.328033
-0.0376511
-0.045892
-0.00451978
-0.00754581
-0.222148
0.0637005
-0.0946172
0.019488
-0.340534
0.261559
0.21026
0.202916
0.243118
0.100014
-0.189574
0.0416017
0.147972
-0.29986
0.138831
-0.0896024
-0.0180322
0.0103083
-0.0768249
0.0665166
-0.0141985
-0.0727242
0.0997663
-0.0270421
-0.246168
0.0869783
-0.0981335
0.0254093
0.0682083
0.0917396
-0.159948
-0.246954
0.0732252
0.109928
-0.109943
1.40516e-05
-0.0903988
0.0119305
0.0107795
-0.0458301
0.0350506
0.168764
-0.226421
0.0576568
-0.253556
0.390058
-0.136502
0.254929
-0.031736
0.060375
-0.0147924
0.276167
-0.261375
0.0386987
0.00106896
-0.0397677
-0.392552
-0.0751916
0.0808997
-0.0468726
-0.101883
0.09175
-0.27329
0.184053
0.0683535
-0.0703756
0.00202216
0.17803
-0.109822
-0.0379119
0.0619506
-0.0240387
0.0309509
-0.295304
0.264354
0.137376
0.197972
0.0442248
0.250935
-0.29516
0.0574536
-0.13622
0.0787663
-0.111841
-0.000256478
-0.104084
-0.112982
-0.365739
0.0485159
-0.0377364
-0.0675543
-0.0173243
0.0848786
-0.107691
0.077234
0.0304569
0.0202
0.04961
-0.071811
-0.0102379
0.0820488
-0.242968
0.187535
0.0554336
0.0448858
0.0156954
-0.0605812
0.0134465
-0.0032843
0.142582
0.0505591
-0.0950562
0.0779241
0.0171321
-0.144719
0.153389
-0.00866954
-0.231421
0.361467
0.129114
-0.0124924
0.268858
-0.526007
0.0953696
-0.0685607
-0.0268089
-0.147506
0.161186
-0.0136801
0.0385372
-0.18334
-0.0318075
0.0033274
0.136356
0.0105564
-0.0149284
-0.343461
0.35839
-0.0567326
0.0511776
-0.232093
0.2173
-0.151719
0.00452651
0.0821924
-0.0849716
0.00277918
-0.0189374
-0.0705972
0.131939
0.218197
-0.350136
0.0415846
0.0250093
0.0238574
-0.062902
-0.423425
0.0213299
-0.0957464
-0.204113
0.125101
0.053071
-0.178172
-0.139303
0.145419
-0.0768378
0.0567799
0.0200579
0.0134647
-0.00279251
-0.036459
-0.0479926
0.372419
-0.162919
-0.2095
0.202037
-0.215838
0.0138015
0.310409
0.080432
-0.390841
-0.0882142
0.212338
-0.124123
0.0473008
0.000690173
-0.0133954
0.18216
-0.161223
0.00950363
0.00929456
0.0245114
0.405362
-0.280236
-0.125127
0.17602
0.196399
-0.251438
0.0306068
-0.0202791
0.0842959
-0.0640167
0.177732
-0.240056
0.0623243
-0.144095
-0.162999
0.307094
-0.16495
0.025647
-0.0807555
0.00455513
0.00157284
-0.00381609
0.00224325
0.0245084
-0.0330672
0.00855883
-0.251094
0.197824
0.0532706
0.209266
0.245224
-0.339556
0.0943314
-0.164615
0.155891
0.000523469
-0.405663
0.203738
0.201924
0.0440944
-0.0934906
-0.00848432
0.0863627
-0.00417029
0.00286936
-0.0238211
0.0209517
-0.112647
-0.319135
0.0775179
-0.0434832
-0.0340347
-0.0849849
0.330209
0.0398125
-0.0609735
0.0561217
0.190789
-0.000365172
-0.0910485
0.0409991
-0.0853126
0.395721
-0.157149
0.445298
-0.045881
-0.377544
0.0878878
-0.0669892
-0.0208987
0.0211132
-0.0039201
-0.0979453
-0.0030198
-0.0802322
-0.224135
0.304367
-0.0131538
-0.0634518
-0.0729373
0.0926222
0.107131
0.220899
0.203541
-0.025809
0.264936
-0.279865
-0.0232715
0.0242778
-0.00100632
-0.0135342
0.00440092
0.00913327
0.135263
0.109956
-0.245219
-0.0614862
0.160872
-0.0993855
0.243411
0.0441578
-0.287569
0.0471338
0.0303842
0.0481408
-0.0486947
0.000553885
0.350372
-0.447056
0.0966843
0.00673428
-0.0616121
0.0548778
-0.475345
0.0411194
0.434225
-0.0619302
0.0240183
-0.494139
0.282516
0.211623
0.341686
-0.209747
0.0475782
0.0308581
0.00637114
-0.0280334
-0.015052
0.397742
-0.299407
-0.0983352
-0.0666337
-0.206812
0.273446
0.0244936
0.0044936
-0.0289872
-0.152981
0.00547576
-0.22489
0.0807946
-0.21815
-0.0248181
-0.00716608
-0.0318203
0.0389863
-0.027862
-0.0680179
0.0958799
-0.0489255
-4.84912e-05
0.048974
-0.237848
-0.0926743
0.00244316
0.0163521
0.0294744
0.242234
-0.271708
0.00356999
-0.063428
0.0940489
-0.0306208
0.424429
-0.304079
-0.12035
0.0607611
-0.0810402
0.343021
-0.313546
0.030586
0.0994958
-0.125181
0.00700781
-0.0174667
0.0104589
0.334719
-0.227588
-0.528248
0.248291
0.279957
-0.07243
0.0020544
-0.246915
-0.182689
0.0077756
-0.0127526
0.00497703
0.167359
0.0198704
-0.187229
-0.00724172
-0.182332
0.0379317
0.000767049
0.0109828
0.0323613
-0.151545
-0.0253292
-0.0251947
0.192554
-0.341963
-0.0612425
0.403206
-0.0206834
0.0326349
-0.0119515
0.0293198
-0.318776
0.226455
0.0923213
-0.00246849
-0.0985502
0.101019
-0.1437
-0.261962
-0.00689187
-0.0116295
-0.210217
-0.318031
0.0286419
0.0667277
-0.102559
0.279889
-0.206008
0.117794
-0.102862
0.00491641
0.00666355
0.069176
-0.0758395
0.11349
0.000320678
-0.11381
0.0725146
0.302992
-0.375507
-0.337076
0.0992282
0.0376216
-0.0125678
-0.0250538
0.377028
-0.304514
0.196905
-0.311694
0.133525
0.17817
-0.368487
-0.106858
0.0343937
-0.0182651
-0.0161286
0.00333225
-0.0326829
0.0293506
-0.0100702
-0.117458
-0.0209796
-0.0610224
-0.0726122
-0.0135709
0.0104671
-0.00520664
-0.00526046
-0.0983477
-0.0754851
0.173833
-0.166136
-0.0800326
0.37653
-0.114297
-0.262232
-0.0381601
0.254979
-0.216819
-0.337926
0.292344
-0.408278
-0.0399325
-0.0167575
0.0429495
0.0254888
-0.0164888
-0.00899993
-0.00752347
-0.0444958
0.025533
-0.00214361
-0.0584829
0.0315987
0.0268842
0.113789
-0.128616
0.0148271
-0.0608927
0.00852192
-0.059696
0.0511741
-0.138727
0.489099
0.0643725
-0.0558506
-0.0387564
0.0796954
-0.0965614
0.0168661
-0.00681286
0.00553794
0.00492916
-0.149217
0.15825
-0.00903271
-0.110988
-0.196927
0.0122912
0.0131976
-0.252009
0.179575
0.0724336
-0.129028
0.14649
-0.0174618
-0.174418
0.112932
0.00962459
-0.0450204
-0.0828969
0.0697238
0.0131731
-0.103879
-0.207815
-0.0657821
0.0138805
0.0152044
0.0363915
-0.0585709
0.0221794
0.181147
-0.056046
0.344101
-0.239637
-0.104464
-0.20071
0.142539
0.0581713
-0.124281
0.0529106
0.0713702
-0.211582
-0.0263408
0.237923
-0.0884458
-0.017856
0.0612335
0.0365685
-0.34179
0.311462
-0.248796
0.0826599
0.0297991
-0.248028
0.128377
0.310854
-0.439231
0.0127202
-3.19248e-05
-0.0126883
-0.00873213
0.0330601
-0.0243279
0.336747
-0.14517
-0.191577
0.0278258
-0.0501269
0.0838844
-0.0337574
0.00583338
-0.0385162
-0.00677692
0.0885974
-0.0818204
-0.299466
0.390157
-0.0906911
0.00743789
-0.0126476
-0.0900949
0.147548
-0.101529
0.0736673
-0.00195266
0.00169472
0.000257935
-0.321736
-0.01619
-0.153249
0.00403109
-0.0235032
0.0542241
-0.0307209
-0.0417868
-0.00459938
0.0463862
0.211701
-0.249861
0.119764
-0.129249
0.00948499
-0.00625426
0.00192865
0.174836
-0.241345
0.0665089
-0.428877
0.329231
0.0996467
-0.0414401
-0.0205796
0.0620196
0.0418683
0.00543248
0.100249
-0.0707263
-0.0813258
0.00871357
0.0205315
-0.00228291
0.0144395
-0.107022
0.092582
-0.147697
0.140837
0.00685961
-0.00295518
0.0220991
-0.0191439
0.0209214
-0.0871684
0.0662471
0.00250618
-0.00445884
-0.0929169
-0.0155103
0.000389819
0.00438407
-0.00900908
-0.111297
0.339093
-0.241562
0.0245084
-0.0985734
0.4744
-0.375827
-0.101521
-0.306506
0.408027
0.248078
-0.355979
0.107901
-0.0333244
0.012641
0.0794001
-0.0313626
-0.0480375
0.308208
-0.404903
0.0966949
-0.0611151
0.0376119
-0.213766
0.511107
0.123526
-0.115875
-0.00765041
-0.134748
0.0635538
0.0711946
-0.00778679
-0.0252804
-0.0841991
-0.0555305
0.0362358
0.198755
0.0735717
-0.272327
0.069971
0.210208
-0.280179
-0.0568589
0.294757
-0.00623022
0.00101682
0.0052134
-0.092066
0.0224935
0.0695725
-0.0364072
0.04739
0.51928
-0.264563
0.0661614
-0.0212756
-0.45333
0.415011
-0.0145641
-0.0462205
0.375726
0.0903358
-0.188683
0.122748
-0.0110536
-0.111694
-0.00329199
0.0827612
-0.0794693
0.526932
-0.269591
-0.257341
-0.0762245
-0.0489561
-0.129661
0.0334675
0.0712464
0.0139177
0.00436281
-0.011638
-0.00761467
-0.00591952
0.278823
-0.208852
-0.00167549
-0.0557269
-0.0176271
0.0167244
0.000902726
-0.100033
0.00409791
-0.00252507
0.0361943
-0.09086
0.0546657
-0.00283502
-0.00223045
-0.0774105
0.0120307
0.0653798
0.0355655
-0.036173
0.000607469
-0.326235
0.454612
0.134717
0.0264686
0.164535
0.0878616
-0.0677111
0.0841661
-0.016455
0.052961
-0.0419019
-0.0110591
0.0518288
0.0179051
-0.259448
0.184873
0.0745748
0.410942
-0.00951284
-0.401429
-0.0148611
0.0168444
-0.0019833
-0.0410223
0.0409258
9.64398e-05
0.0239743
-0.0484846
0.381895
0.0689749
-0.45087
0.0439959
0.0354043
-0.0114973
-0.330293
-0.119654
0.102702
0.0169521
0.00214427
0.0232082
0.0937621
0.038626
-0.0446453
0.00601931
0.241014
-0.0889609
-0.152053
0.0109194
-0.139947
0.0333206
-0.0242502
0.0014635
0.00306918
-0.00453268
0.169989
-0.0352716
0.324359
-0.400026
0.0756673
0.00738246
-0.100299
-0.0600554
0.0156838
0.0443716
-0.0619851
-0.0727633
-0.231454
-0.112747
0.344201
-0.0112534
-0.0496767
-0.0580142
-0.0765396
0.00422321
0.0723164
-0.202493
0.0280751
-0.0808911
0.00308174
-0.478201
0.157981
0.32022
0.44574
-0.053083
-0.392657
-0.0160254
-0.00516166
0.0121693
-0.0839803
0.00823578
-0.0230969
-0.007588
-0.00909888
0.0166869
-0.0905479
0.0655269
0.025021
-0.0834971
0.0601467
0.0233503
-0.0264126
-0.00760734
0.298638
-0.192156
-0.106482
0.116585
0.0162162
-0.132802
0.08678
-0.107822
0.0320758
-0.0572284
0.0251526
0.0199945
0.182417
-0.117111
0.00906899
0.0285526
-0.0953789
0.0920869
-0.0110069
0.0535701
-0.0425633
-0.104519
-0.437081
0.135453
0.0971516
-0.0900968
-0.00705481
0.00511589
0.238296
-0.0120279
0.0198035
0.0728731
0.0278449
-0.100718
-0.164287
0.146283
0.0180034
-0.0479428
0.00994165
0.0380011
-0.0117658
0.106002
-0.0942364
-0.0161004
0.0126977
0.00340272
0.0164223
-0.00941446
0.00396239
0.0531051
-0.0570675
-0.0580772
0.0166371
0.0410719
-0.0621624
0.0210905
-0.0726627
-0.163953
0.308471
-0.450355
0.141884
-0.0717054
0.0325558
-0.015965
-0.0165908
0.000451804
0.089835
-0.0902868
0.103811
0.0193221
0.00113892
0.0212552
-0.175797
-0.0266964
-0.161923
0.149206
0.0127163
-0.261886
0.214926
0.0469598
-0.00469892
0.0177142
-0.0130153
-0.049748
0.23562
-0.185872
0.0487775
-0.0197025
-0.0920473
0.024493
-0.258036
-0.0771088
-0.120755
0.0445305
0.028689
0.00151018
-0.00301109
0.00150091
-0.0719132
-0.124063
0.303678
0.312903
-0.0648257
0.0220009
0.0414979
-0.0634988
0.401059
0.0447851
-0.445844
-0.129796
0.120256
0.00953932
0.109121
0.246403
-0.355524
0.0119778
-0.00453988
0.0400404
-0.201942
0.0503693
0.0473155
-0.101615
0.0131692
0.130394
0.0278563
-0.33543
-0.0769862
0.412416
0.168437
-0.185811
0.0173744
-0.0131068
0.355606
-0.153727
-0.201879
0.0708999
-0.177514
0.106614
0.00195336
-0.0358295
0.0338762
0.044377
-0.00570581
-0.0386712
0.0383961
0.0812575
0.0525962
-0.00381872
0.0152789
0.409598
-0.424877
-0.3844
0.256348
0.128052
-0.120399
-0.040824
0.116988
0.293953
0.026091
-0.0184381
-0.100841
0.00635497
-0.120959
-0.0226563
-0.406421
0.332133
0.101276
0.0122141
-0.105129
0.0344032
-0.479629
0.0233576
0.456271
0.00187698
-0.00483216
-0.0806293
0.0685559
0.0120733
-0.322601
0.414099
-0.0914984
0.350577
-0.46701
0.116433
0.048224
0.00437223
-0.0398633
0.00208123
0.0377821
0.11578
-0.347234
0.0143442
-0.053048
0.0387039
0.0366652
-0.0614073
0.0247421
-0.249873
-0.0872027
0.509053
-0.260762
0.0154108
0.0148373
0.0195564
0.0754827
-0.0651744
-0.082729
0.0759521
-0.0621268
-0.0152837
-0.0761043
-0.183809
0.259913
-0.0522911
0.0196975
0.014933
-0.0156757
-0.0063707
0.0112657
-0.131993
0.120727
-0.149063
0.147583
0.00148006
0.0228106
-0.0545467
-0.0773933
-0.0131546
-0.275522
-0.188118
0.46364
0.000687712
0.109241
-0.0901767
0.0600245
0.232331
-0.377855
0.145524
-0.252718
-0.0950652
0.347784
-0.172197
0.00791023
0.195935
0.0755563
-0.481977
-0.0289235
0.0201913
0.0359009
-0.0625943
0.0266934
0.422991
-0.021932
0.221973
0.000916272
-0.000933465
1.71926e-05
0.0080662
-0.0134159
0.0285669
-0.015151
0.25393
0.129961
-0.358072
-0.0239952
0.0606604
0.132358
-0.172108
0.0397495
0.0430294
0.0604733
-0.103503
0.265391
-0.25467
-0.413832
0.0718687
-0.377488
0.446495
-0.0690061
0.381311
0.0930888
0.00946996
-0.000692632
0.31961
0.189443
0.389229
0.363644
-0.131312
-0.362177
0.235964
0.126214
0.00876823
0.00467825
0.0616497
-0.273232
-0.140639
0.0196803
-0.284604
0.0920921
-0.0748051
-0.00745546
0.0822606
0.07202
-0.051117
-0.020903
0.0787404
0.186651
-0.0225414
0.0475736
-0.0250322
-0.088657
-0.032098
-0.275999
-0.0799798
0.423894
-0.00740396
-0.41649
-0.155454
0.0224881
0.132966
0.220952
0.134654
-0.381974
0.00448509
0.099161
-0.445775
-0.464676
0.189154
-0.0666133
-0.0095543
0.0761676
-0.0593623
0.102392
0.166691
-0.0362972
0.0576816
-0.0871238
0.0294422
0.072264
-0.0909078
0.0186438
0.414381
0.21361
-0.00172689
-0.00300741
0.0047343
0.0640635
-0.116336
0.052273
0.0128305
0.0873575
-0.0869057
-0.0662719
0.0181674
0.0481045
0.252161
-0.178859
-0.0733021
0.0955203
0.314078
-0.0077748
0.0448382
0.0291419
-0.0409276
0.144359
-0.103431
-0.129043
0.31004
-0.180997
0.0487819
-0.00607
-0.0427119
0.00106446
0.0116558
-0.0820288
-0.317997
-0.0469879
0.114071
-0.0670833
-0.00674932
-0.0342729
-0.00885892
0.027945
-0.0190861
0.122166
-0.142695
0.0205291
-0.0885411
0.103061
0.105814
0.0825109
-0.188325
0.000712336
0.0126871
-0.0133994
0.465848
-0.3993
0.298647
0.177544
0.0628397
-0.0269388
0.00897939
-0.00660579
0.021388
-0.00193366
-0.0727944
-0.0143875
0.0871819
-0.0518175
0.0599069
-0.00808934
-0.0724245
-0.325235
0.256583
0.0686526
-0.35935
-0.134789
-0.120955
0.135872
-0.0149167
-0.0406052
0.0634158
0.198214
-0.327257
-0.0328077
0.0380065
-0.00519884
-0.164762
0.0199399
0.144822
0.0245293
0.0361211
-0.0606504
-0.0109729
-0.347371
0.0974982
0.032315
0.0164669
-0.0874735
-0.088876
0.159776
-0.0994571
0.0684709
-0.0787088
-0.191516
-0.330753
-0.250973
-0.111205
0.130073
-0.0134873
-0.0485895
0.0629337
-0.00983109
-0.119204
0.129036
-0.0206528
-0.0378301
0.492175
-0.34447
-0.147705
0.0762641
-0.195503
0.119239
0.0961877
-0.0233146
-0.0827164
0.00532312
-0.107984
0.108305
-0.00941846
0.0520502
0.0265715
0.0705801
0.0735954
0.0158844
-0.267284
0.191179
0.030017
-0.0439226
0.0139056
-0.0474491
0.0444149
0.00303419
0.0670856
-0.0511531
-0.0159325
-0.0630056
0.0111881
-0.0458514
-0.00643877
0.0522902
0.281958
-0.0138096
-0.0189981
0.118149
0.00994321
0.092785
0.191633
-0.284418
0.0129508
0.0576615
-0.0706122
-0.0321526
-0.00617925
0.0383318
0.00235356
0.00711641
0.120181
0.0727288
-0.192909
0.0176285
-0.02176
0.439608
-0.217028
0.033586
0.0168226
-0.0504086
0.113993
0.00374367
0.0147777
-0.410705
0.0855385
-0.027857
0.113046
0.0140137
-0.12706
-0.0471892
0.00370596
0.0531872
0.195893
0.0061434
-0.00607236
-0.0322784
-0.179173
0.211451
0.0406573
-0.0179704
0.0208397
0.468448
-0.327973
-0.140475
0.172067
-0.264453
-0.141908
0.0209529
0.0904111
-0.102177
-0.127877
0.173948
0.000977947
-0.174926
-0.0355276
0.0422619
-0.131915
0.21856
-0.0572484
0.0123089
-0.00270863
0.108111
0.0643261
-0.0804833
0.0161572
0.171932
-0.020407
-0.151525
0.107622
0.0891426
-0.196765
-0.0065128
-0.0111143
0.130976
-0.0314805
-0.385166
0.109167
0.0254508
-0.0479922
-0.0402772
-0.0119994
-0.0281108
-0.000236706
0.0053253
-0.00508859
-0.0440734
0.0122531
0.10504
-0.118655
0.013615
-0.126131
0.508026
-0.306184
0.511975
-0.075742
0.193491
0.241996
0.0668069
-0.308803
-0.00293455
0.062959
0.0136289
0.00775909
-0.00926735
-0.0517409
0.0610082
-0.353678
0.340881
0.0127969
-0.066717
0.0767847
0.00605933
0.0210386
-0.0270979
0.0326539
-0.0496733
0.0170194
0.275508
-0.101682
-0.099028
-0.0286847
0.00859013
0.0200945
0.0526973
-0.0191113
0.0963268
-0.114091
0.0177638
0.095394
0.00868605
-0.10408
0.107397
0.166234
-0.190554
0.158275
-0.0124547
-0.116795
0.0178014
0.00424503
-0.044514
-0.229345
0.273859
0.0285945
0.00941203
-0.228734
0.258534
0.153468
0.0251503
0.00558802
-0.0307384
-0.0260297
-0.0543335
0.0803632
0.117748
0.123266
-0.553124
0.234051
0.319073
-0.125209
-0.0215545
-0.0821371
0.0944092
-0.0122721
0.0972204
0.00473107
-0.0946499
0.0687068
0.272559
-0.187549
-0.0850103
0.292167
-0.207293
-0.084874
0.188346
0.0383735
0.0231209
-0.0614943
-0.0758396
0.0880089
0.089666
-0.0921344
0.0121414
-0.0323552
-0.15547
-0.00929217
0.395875
-0.283191
-0.112684
-0.222015
-0.0380519
0.260067
-0.10076
0.0815583
0.0192012
0.0399276
-0.100996
0.0610684
0.108626
-0.306727
0.198101
0.135334
-0.134762
-0.000572083
0.0362522
-0.126347
0.0451112
0.358031
-0.449785
0.239402
0.210383
-0.396081
0.280103
0.115978
0.359427
-0.122287
-0.23714
-0.277748
-0.172037
-0.0858662
-0.0187583
0.0357116
0.311993
-0.0416069
0.041717
-0.0474836
-0.132678
-0.115404
0.130324
-0.0149198
0.0141621
0.0707432
-0.0849053
0.0527252
0.137622
0.309897
-0.0679011
-0.0378966
0.07627
-0.0189894
0.171598
-0.152608
-0.00155647
0.00365479
-0.00209832
0.164179
-0.221072
0.0568934
-0.158868
0.00926726
0.149601
-0.0579166
0.081317
-0.0234003
0.239477
-0.426121
0.186644
0.00111048
0.000399704
0.192965
-0.162014
0.0882882
-0.0185644
-0.0177618
-0.0250748
-0.0223743
0.0108714
-0.126275
0.130711
-0.0909069
-0.0398039
-0.284785
-0.141951
0.426736
-0.0114271
0.00390549
-0.00871761
0.0608337
-0.052116
0.13434
0.157828
-0.0628001
0.253565
-0.0627339
0.249801
-0.187067
-0.012827
0.0131548
-0.000327803
0.131239
0.00718464
-0.138424
0.0866779
0.00643035
-0.00574143
-0.01753
0.191072
-0.186596
-0.0609196
0.247516
0.0107937
0.3175
-0.328294
0.0112435
0.00108338
-0.0123269
-0.119821
0.120969
-0.00114856
-0.106352
-0.0197834
0.0325787
0.0553091
-2.5474e-05
0.00148897
-0.0735653
-0.052949
-0.0157462
-0.0226693
-0.0278746
-0.00133502
0.0292096
-0.0641056
0.372314
-0.440413
0.383286
-0.0309418
0.0554711
-0.000242601
-0.011342
0.0115846
0.0784782
0.0111942
-0.0778076
-0.254486
0.00511337
-0.0799185
-0.361846
0.333718
0.0281281
-0.292513
-0.0693323
0.0766536
-0.0367976
0.00120434
0.0355933
-0.316935
0.327729
-0.296621
-0.0994599
0.237373
-0.281887
-0.00470163
-0.348976
0.000487971
0.0470902
0.3471
-0.23132
0.0245188
0.0593911
-0.341226
0.120502
0.220724
-0.100888
0.112154
-0.0128156
-0.0483831
0.0611988
0.183614
0.343318
0.297938
-0.189311
0.00831305
-0.0904501
-0.28289
0.085831
0.155791
-0.0234327
-0.0972646
0.109517
-0.0122523
-0.00520606
-0.0130744
0.00542266
-0.0670348
0.414202
-0.208163
-0.206039
0.0690107
0.0309676
-0.0999783
0.0652543
-0.0417926
-0.0234617
0.250784
0.0829658
-0.333749
-0.140711
0.0155023
-0.0496942
0.0388929
0.0108013
-0.00583129
0.0928354
-0.0116463
-0.0189579
-0.0818016
-0.0450316
-0.112442
0.157474
-0.0075391
-0.0896032
0.0971423
-0.14235
0.34674
-0.20439
0.351443
0.155645
0.110395
0.31676
-0.427155
0.0964536
0.142749
0.094337
-0.237086
-0.109981
0.00199678
-0.0483602
0.0171048
-0.0042862
-0.0118142
-0.15897
0.363133
-0.0412337
-0.0497957
0.0910293
0.18763
-0.284768
0.097138
0.210235
-0.411867
0.201632
-0.029746
0.250663
-0.363644
-0.0093226
-0.0996626
0.108985