/*--------------------------------*- C++ -*----------------------------------*\
| =========                 |                                                 |
| \\      /  F ield         | OpenFOAM: The Open Source CFD Toolbox           |
|  \\    /   O peration     | Version:  v2012                                 |
|   \\  /    A nd           | Website:  www.openfoam.com                      |
|    \\/     M anipulation  |                                                 |
\*---------------------------------------------------------------------------*/
FoamFile
{
    version     2.0;
    format      ascii;
    class       volVectorField;
    location    "400";
    object      U_0;
}
// * * * * * * * * * * * * * * * * * * * * * * * * * * * * * * * * * * * * * //

dimensions      [0 1 -1 0 0 0 0];


internalField   nonuniform List<vector> 
18232
(
(0.333947 0.0816753 3.35647e-20)
(1.02477 0.0229621 -6.36393e-22)
(1.0041 0.0108489 1.90613e-20)
(0.970338 0.00394889 2.8673e-21)
(0.969002 0.114001 0)
(1.00689 0.136767 2.03652e-21)
(0.970915 -0.000799577 -1.14531e-20)
(0.999401 -9.99604e-05 0)
(0.960916 0.110388 0)
(0.968885 0.113689 -6.68987e-21)
(0.971591 0.00819557 -2.2674e-20)
(1.06725 -0.00864391 3.48135e-21)
(0.971618 0.103231 1.20076e-20)
(1.06136 0.160223 -1.22796e-19)
(0.882567 0.0282129 0)
(1.3077 -0.0582978 -9.06933e-20)
(1.00091 0.000205521 0)
(1.00008 0.000680729 5.68739e-21)
(0.981834 0.00628365 2.01244e-22)
(1.03044 0.1264 -3.03745e-21)
(1.00969 0.137258 -1.60784e-22)
(0.978757 0.0230138 -5.48834e-21)
(0.972434 0.00908288 2.08749e-20)
(0.988535 0.0338559 0)
(0.887432 -0.0362155 -2.28687e-20)
(0.884063 -0.0307046 2.407e-20)
(0.999747 0.0141884 0)
(1.00715 0.13646 1.63427e-21)
(1.00009 0.000661867 5.1221e-21)
(1.00363 0.0108502 -1.27327e-20)
(0.999993 0.000265741 -1.14212e-20)
(0.207342 0.537636 0)
(0.996008 -0.0104255 0)
(-0.204372 0.836686 -1.5171e-19)
(0.988395 0.154055 6.24169e-22)
(1.01342 0.135066 -1.79931e-22)
(0.789323 0.126528 0)
(0.998766 -0.0013111 3.34797e-21)
(1.02131 0.14142 0)
(0.999913 -0.000535001 1.08624e-20)
(0.253779 0.00379955 -2.89857e-20)
(1.05068 -0.00497117 -1.03772e-20)
(0.982768 0.125112 0)
(0.653908 0.106009 -9.93109e-21)
(1.00108 0.00339225 0)
(1.04431 0.160881 -1.40296e-20)
(1.02321 0.0186156 -2.54237e-21)
(1.05125 -0.00490121 2.49672e-20)
(1.05631 0.125398 2.11414e-20)
(1.01856 0.0183212 -4.08624e-22)
(0.990396 -0.00710398 -5.33134e-21)
(1.00025 0.000210266 0)
(0.362293 0.0472131 7.34506e-20)
(1.06057 0.0309132 0)
(1.03198 0.100725 -1.89315e-21)
(1.0992 0.111746 -3.73641e-22)
(0.995946 -0.00250272 -1.66213e-20)
(0.993552 -0.0158066 1.56031e-20)
(-0.0928824 -0.0244405 -6.78861e-20)
(1.01983 0.0222268 1.70907e-21)
(0.881836 0.0228001 0)
(1.0011 0.00358071 6.49005e-21)
(0.982301 0.0628665 1.14934e-20)
(0.970643 0.00348309 -2.68706e-21)
(1.11896 0.0238503 -9.64519e-21)
(1.01736 0.0329077 -2.43087e-21)
(-0.0370293 0.572214 -7.9638e-20)
(0.216391 0.558668 0)
(1.00037 0.0138122 0)
(0.980881 0.0635616 0)
(0.995783 -0.00259818 -5.90424e-22)
(1.00247 0.00663941 1.96658e-20)
(0.243344 0.487055 1.89189e-19)
(1.03006 0.1504 0)
(1.09494 -0.0403931 0)
(1.11548 0.128503 1.64698e-21)
(0.958483 0.0344145 0)
(0.954429 -0.00878769 -3.87084e-20)
(0.376225 0.0581849 1.97746e-22)
(0.972414 0.0177508 -1.27209e-20)
(0.228584 0.562089 -5.739e-20)
(1.09964 0.0374805 3.18353e-20)
(1.06334 0.0231449 -1.24599e-20)
(0.999593 0.0381225 8.19222e-21)
(1.08006 0.176141 7.87411e-23)
(1.10227 0.109594 3.12391e-20)
(1.00325 0.0100967 6.55961e-21)
(0.982008 0.00640498 0)
(1.09937 0.035605 -3.34988e-20)
(1.07788 0.0630528 3.53815e-20)
(0.981541 0.00485197 4.02751e-21)
(1.00021 0.014762 0)
(0.999949 0.000340232 -1.71127e-21)
(1.10631 0.102528 0)
(0.981786 0.00491145 -3.75627e-21)
(0.978661 0.0617693 0)
(0.991684 0.00392754 -1.18321e-20)
(0.978039 0.0188395 0)
(1.04863 0.2687 0)
(1.00604 0.0194688 0)
(0.846672 0.00775826 7.92311e-20)
(1.05974 0.0297818 -4.34656e-21)
(1.08058 0.145857 9.6662e-21)
(0.872193 0.0734168 2.77653e-20)
(1.01281 0.135107 0)
(0.915646 0.0217 0)
(1.00334 0.0112438 -7.6874e-21)
(1.15738 0.038279 7.86108e-20)
(1.00026 3.20487e-05 1.72183e-20)
(0.98291 0.0604036 -8.68519e-21)
(1.01648 0.0331418 7.37433e-21)
(1.12407 0.125448 0)
(1.01725 0.0189825 0)
(0.97231 -0.000273902 -5.5805e-21)
(0.991048 -0.00693461 -5.96016e-21)
(1.02114 0.0592728 0)
(1.10116 0.0303843 0)
(1.03014 0.158425 1.35315e-20)
(1.05295 0.0849628 0)
(1.0241 0.0586084 3.91526e-22)
(0.996157 -0.000934639 -7.95427e-21)
(0.998628 -0.00124217 4.17599e-21)
(0.436263 0.183264 -2.73327e-21)
(1.00953 0.136467 2.22359e-21)
(1.33025 0.106644 -5.06331e-20)
(0.982038 0.123375 0)
(1.14079 -0.156884 1.09426e-19)
(1.01297 0.00711374 8.79933e-21)
(1.00873 0.136515 -1.66749e-22)
(1.12671 0.128406 0)
(1.00358 0.0124241 0)
(0.976457 0.0222462 2.35095e-20)
(1.0532 0.0868115 0)
(1.01526 0.0127017 0)
(0.343891 0.050324 0)
(1.1164 0.128538 -1.6212e-22)
(1.05445 0.127659 -1.16705e-20)
(0.999766 -0.000974778 1.70496e-20)
(1.02061 0.022158 3.31099e-21)
(1.01145 0.143943 0)
(1.03224 0.0991386 4.83317e-21)
(0.914097 0.0207 0)
(-0.599122 0.171725 -1.84019e-19)
(0.99044 0.00216091 1.23761e-20)
(1.01603 0.091135 2.49753e-21)
(0.981527 0.0870663 0)
(0.885682 0.0202748 2.31697e-21)
(0.999976 9.1856e-06 -1.56095e-20)
(0.885991 0.139673 0)
(0.992698 0.130718 -7.09341e-21)
(0.292116 -0.0792846 0)
(1.05347 0.000374176 1.06829e-20)
(1.10365 0.0406626 0)
(0.960851 0.0364549 -1.45224e-20)
(1.07438 0.0635081 -3.38056e-20)
(0.228782 0.000417657 1.26165e-19)
(1.23055 -0.00258112 0)
(1.11498 0.0343934 4.12841e-21)
(0.666691 0.0403769 -1.22791e-19)
(1.02026 0.0223209 -3.28757e-21)
(1.02447 0.023053 7.18004e-22)
(1.01551 0.0127544 0)
(0.999673 0.0145897 0)
(-0.00540069 0.54957 0)
(1.02314 0.109165 0)
(0.981799 -0.0243084 -2.14022e-20)
(0.847449 0.0988795 0)
(-0.576843 0.234481 4.62846e-19)
(0.928488 -0.039188 -5.59306e-20)
(1.00134 0.136646 -2.99429e-21)
(1.00173 0.0164856 9.42851e-21)
(0.99948 -9.56294e-05 -1.33043e-20)
(1.00339 0.0122829 -6.13191e-21)
(0.976953 0.0236878 -5.22797e-21)
(0.958924 0.0120058 -1.40448e-20)
(0.459683 0.0719597 -5.59872e-21)
(1 0.0391098 -2.09877e-21)
(0.999999 0.000284977 -5.67628e-21)
(1.0011 0.157425 -7.12036e-22)
(0.991215 -0.00978226 -3.42472e-20)
(1.01671 0.128394 0)
(1.05968 0.143254 3.79353e-20)
(1.00211 0.00625646 -2.62604e-20)
(1.08338 0.146858 -2.47558e-21)
(-0.393799 -0.0548061 2.83456e-20)
(1 8.97138e-06 0)
(1.00516 0.0316397 0)
(1.08315 0.172855 -1.23768e-20)
(0.999885 -0.000645849 0)
(0.46515 0.0695746 6.33421e-22)
(0.918368 -0.0203733 -2.32706e-20)
(0.991888 0.0113102 0)
(0.964528 0.116979 -7.0317e-21)
(0.948242 0.149605 0)
(0.991043 0.00202949 6.35022e-21)
(0.983926 0.0216968 0)
(1.01727 0.0186103 0)
(0.96362 -0.00033256 1.18485e-20)
(1.00842 0.000591322 -1.81066e-20)
(1.00845 0.0114367 0)
(1 0.000283121 9.97107e-21)
(1.01874 0.0675834 -2.66044e-21)
(0.837085 -0.0397082 -6.75479e-20)
(0.637364 0.234945 -8.20821e-20)
(1.15318 0.0292106 -3.021e-20)
(0.0988293 -0.102322 0)
(1.01054 0.208808 -6.95355e-23)
(0.567297 0.0339431 0)
(0.988513 0.130765 -1.28078e-20)
(1.05345 0.0698967 -5.88202e-21)
(1.00067 0.0159294 -9.17393e-21)
(0.885883 0.0193207 -1.23593e-20)
(0.853976 0.0101334 -6.46587e-20)
(1.04358 0.240001 4.54078e-21)
(1.32496 -0.0849517 1.49864e-19)
(1.01708 0.069834 1.71516e-21)
(1.10675 0.0451401 0)
(1.00019 0.0152341 5.43908e-21)
(1.00297 0.0108921 2.07696e-20)
(0.977683 0.018603 1.1043e-20)
(0.936589 0.147002 0)
(1.01946 0.0224305 -1.76165e-21)
(0.0753995 0.276291 4.10073e-20)
(0.979488 0.0539821 1.96325e-20)
(1.0085 0.000845172 1.26114e-20)
(1.00203 0.0157266 1.31997e-20)
(0.991707 0.130715 1.10513e-20)
(0.990055 0.0343813 0)
(0.991651 -0.00928302 1.23881e-20)
(0.996995 -0.0101797 -1.59572e-20)
(0.979225 -0.00806172 -1.74562e-20)
(0.931084 -0.031355 3.40133e-20)
(-0.754682 -0.0155001 -1.26771e-19)
(1.23256 0.000760091 0)
(0.995708 -0.0107205 7.1645e-21)
(1.02686 0.157325 0)
(0.952793 -0.0263801 -6.77104e-21)
(1.19247 -0.137416 0)
(1.01896 0.0184411 0)
(1.00034 0.000170634 -8.06396e-21)
(0.978336 -0.00842422 1.69877e-22)
(1.15937 0.145795 -7.09753e-20)
(1.18986 -0.145484 8.41026e-20)
(0.88718 0.0719259 0)
(0.624458 0.102266 -1.11128e-20)
(1.0012 0.134509 2.69049e-21)
(1.00004 0.000105681 1.00481e-20)
(-0.12658 -0.0562975 -5.30561e-20)
(0.200255 0.00174254 -1.06873e-21)
(0.952069 0.0450121 -1.4898e-20)
(1.11705 0.104318 -7.27922e-22)
(1.09638 0.116533 -1.42755e-20)
(1.00839 0.0183091 5.09122e-23)
(0.986507 0.132569 9.18577e-21)
(0.985161 0.020508 -1.48647e-20)
(0.404168 0.00200412 -1.52384e-19)
(1.01216 0.143106 -1.25518e-23)
(0.154349 0.259547 -3.65307e-20)
(1.06801 0.175529 -8.60891e-23)
(1.01558 0.12897 -4.92519e-22)
(0.995711 0.0483704 -1.62973e-20)
(1.06055 0.0323404 0)
(0.999005 0.130779 0)
(1.00002 0.000413119 0)
(1.01167 0.0175599 7.70217e-21)
(1.00006 0.000385343 0)
(0.60852 0.0993464 -7.07801e-21)
(0.668118 0.0430402 1.2315e-19)
(1.09925 0.113777 -2.79966e-20)
(1.0405 0.143559 0)
(0.975231 0.0218846 1.41203e-20)
(-0.231896 0.849085 -2.96169e-21)
(0.970717 0.163034 -5.75875e-21)
(1.00411 0.000948459 1.38829e-22)
(1.00908 0.0187254 0)
(0.426982 0.0626737 6.50621e-22)
(1.0602 0.0224487 0)
(0.95751 -0.0117111 -1.96797e-20)
(1.00034 0.000195867 1.0242e-20)
(1.33775 0.125702 0)
(0.593598 0.0967902 0)
(1.02301 0.0572295 -9.92117e-23)
(1.02096 0.0243651 3.08424e-21)
(0.547095 0.0853711 -2.06555e-21)
(1.05788 0.128432 -1.19976e-20)
(0.954022 -0.0226689 1.68336e-20)
(1.02013 0.0887626 2.17942e-22)
(0.677387 0.107866 -1.79924e-21)
(0.974839 0.0642865 -1.29717e-20)
(1.09665 0.0254592 -2.57987e-20)
(0.992034 0.0116392 1.2874e-22)
(1.07216 0.0434988 -3.53761e-21)
(0.490338 0.0733089 -8.43319e-22)
(1.0696 -0.0105789 -1.53552e-20)
(1.05388 -0.00105892 -1.12779e-20)
(1.04211 0.1447 2.20739e-21)
(0.554098 0.0872096 2.99888e-21)
(1.02164 0.0228096 0)
(1.00125 0.00361332 1.60874e-20)
(0.971985 0.0614754 7.01996e-22)
(1.03043 0.0324189 -7.73514e-24)
(1.00028 8.08487e-05 0)
(1.00561 0.1567 -9.31573e-23)
(1.11537 0.105849 0)
(1.00024 0.000118141 9.32464e-21)
(0.992955 -0.0157315 6.7375e-21)
(1.05382 -0.0931219 -4.9027e-20)
(1.04748 0.0308864 -5.14828e-21)
(1.00084 0.000232161 0)
(0.985004 0.154469 3.7637e-22)
(0.890185 0.0705585 2.72257e-20)
(0.995214 -0.000638414 0)
(1.1569 -0.0321173 6.73668e-20)
(0.962794 0.0301473 2.27195e-20)
(1.02122 0.0250156 -8.04252e-23)
(1.01888 0.0923691 -4.83338e-22)
(0.528995 0.082619 0)
(1.01419 0.0123371 1.62835e-20)
(1.04578 0.157605 -1.52567e-20)
(0.992436 -0.00717787 2.28987e-21)
(1.02421 0.157844 -2.65856e-20)
(1.02013 0.0586111 5.49732e-23)
(1.10633 -0.0302924 8.8044e-21)
(0.54491 -0.0628357 -8.12871e-20)
(0.850118 -0.0274291 0)
(1.01518 0.0328376 -1.1809e-21)
(1.09031 -0.148273 -3.73461e-20)
(1.01847 0.0596764 -2.95e-21)
(1.03791 0.0055477 0)
(0.977707 0.0660351 1.14845e-20)
(1.0577 0.0348831 0)
(0.98817 0.00563097 0)
(1.09788 0.064518 0)
(0.318884 0.439507 -8.90897e-20)
(1.03645 0.126949 0)
(0.266149 0.0870695 0)
(1.02674 0.141848 -1.9849e-21)
(1.09796 0.175105 0)
(1.00038 0.0135882 4.77152e-21)
(1.05186 0.065549 -1.8043e-21)
(0.99743 -0.00977707 -4.1228e-21)
(1.00823 0.191272 7.35048e-23)
(1.00002 0.000105107 -2.13831e-20)
(1.01442 0.0014749 0)
(1.01384 0.0120342 -1.718e-20)
(1.13341 0.0683256 -7.5561e-21)
(-0.359768 -0.0157295 0)
(1.01928 0.089728 1.41807e-22)
(1.05991 -0.0946376 7.05267e-20)
(0.953533 -0.0265477 -3.47066e-20)
(1.20374 0.0914509 4.39674e-20)
(0.855403 -0.00450638 -2.9643e-20)
(0.852535 -0.017377 -3.38861e-20)
(1.01111 0.017984 1.61921e-20)
(1.0677 0.048579 0)
(1.0108 0.0908068 -7.1251e-23)
(1.10695 0.10468 0)
(-0.28824 -0.000435216 0)
(0.998626 -0.00108842 7.02787e-21)
(0.99533 -0.00130966 0)
(1.0221 0.188075 0)
(0.984458 0.12214 0)
(-0.137231 -0.0273993 6.84073e-20)
(0.952899 -0.0310056 1.26709e-20)
(0.35842 0.081444 0)
(0.914615 -0.0179145 2.96635e-20)
(0.864222 0.10803 4.56632e-20)
(-0.342404 -0.0245213 2.83795e-20)
(0.918884 0.0246411 2.5837e-20)
(1.09791 0.171823 1.7351e-20)
(1.01433 0.138862 -4.29895e-23)
(1.0231 0.139023 0)
(1.02448 0.0233584 0)
(0.304717 0.762011 1.41244e-19)
(1.00835 0.0118143 -7.60038e-21)
(1.0051 0.019239 0)
(1.01868 0.0224866 -5.37285e-21)
(1.004 0.00235167 -9.60507e-21)
(1.29527 -0.0370784 1.355e-19)
(1.44366 -0.274179 -9.43664e-20)
(0.977837 0.0931978 0)
(1.06837 0.0444393 0)
(0.999977 -0.000131346 -1.95208e-20)
(0.969331 0.0151435 2.417e-20)
(0.258785 0.0012185 0)
(1.03556 0.00538223 0)
(0.971748 -0.0155417 0)
(1.00409 0.00262928 0)
(0.980281 -0.0101746 1.69166e-20)
(0.995119 0.0771567 0)
(1.04083 0.0993217 -1.78187e-21)
(0.743022 -0.0260416 -6.85304e-20)
(0.848466 0.132616 -1.99521e-21)
(1.03329 0.00127653 0)
(0.95726 0.14299 3.17916e-20)
(0.951902 0.0474155 0)
(0.447275 0.18452 0)
(1.00212 0.00619764 1.73576e-20)
(0.644914 0.244952 5.01464e-20)
(1.00364 0.00220771 0)
(1.02373 0.139026 0)
(1.31298 -0.116376 -1.16519e-19)
(1.07933 -0.11614 -3.47126e-20)
(0.149349 0.520098 -3.06898e-20)
(1.06702 0.048985 0)
(0.998801 -0.000901297 -1.4638e-20)
(1.01386 0.0958546 0)
(1.00027 0.000236186 -1.14017e-21)
(0.98979 -0.0183911 -1.28502e-20)
(1.00702 0.134601 0)
(1.00158 0.154637 5.13316e-20)
(-0.0129636 0.67245 -1.11243e-19)
(1.04566 0.0335925 0)
(1.01768 0.0589625 3.39445e-21)
(1.05756 0.159428 4.90642e-20)
(1.01781 0.131303 1.79834e-23)
(0.997625 0.00256697 -1.45794e-20)
(1.00003 0.000631912 -6.4322e-21)
(0.984036 0.140029 0)
(0.962903 -0.000726805 3.08254e-20)
(0.998251 0.0818164 -5.45653e-21)
(0.796468 0.0662219 1.00994e-19)
(1.04019 -0.0412862 2.1013e-20)
(1.00744 0.014481 0)
(1.14139 0.14415 0)
(1.10328 0.0848526 2.12138e-20)
(1.09409 -0.0362778 7.13486e-20)
(1.06001 -0.0245245 -1.3625e-20)
(0.860646 0.105843 -8.62992e-20)
(1.03297 0.12539 0)
(1.01322 0.0118408 -1.11346e-20)
(1.05254 0.125414 1.27081e-20)
(-0.276786 0.0124404 0)
(0.958845 -0.011267 2.26026e-22)
(1.09447 0.0660323 0)
(0.995134 -0.00146285 1.64152e-20)
(0.991894 -0.00668947 -2.89936e-21)
(0.996927 -0.0105969 2.12822e-20)
(1.02778 0.0230865 2.19313e-21)
(0.970093 0.00230327 0)
(0.84286 -0.0304802 1.09509e-19)
(1.11434 0.0980995 -2.61502e-20)
(0.997414 0.155818 9.06052e-23)
(0.99771 0.115281 -1.85918e-21)
(1.00507 0.0316187 9.17808e-23)
(0.995895 0.115411 -3.5602e-21)
(0.931008 0.0233114 -9.80247e-21)
(0.971917 0.0159694 3.67027e-21)
(1.09713 -0.0190366 -2.71168e-20)
(0.8514 0.0951667 0)
(0.985837 0.155083 -1.30762e-21)
(0.960375 0.020065 0)
(1.01344 0.00803812 -5.28709e-21)
(0.995021 -0.000794168 0)
(1.01312 0.142863 1.22813e-22)
(0.995016 0.0112364 0)
(-0.198209 0.916515 3.25639e-19)
(1.00002 0.000596815 2.27558e-20)
(0.970685 0.154602 1.50438e-20)
(0.980803 0.0940122 -8.8331e-21)
(1.00732 0.0147049 5.12259e-21)
(0.998477 0.150622 1.18211e-21)
(0.933997 0.0267102 0)
(1.14828 0.112805 -4.9035e-20)
(1.00605 0.0150913 0)
(0.980468 -0.0240978 5.94912e-21)
(1.00782 0.0121157 7.49737e-21)
(0.949794 0.0626533 3.87321e-20)
(0.96912 0.104471 6.24954e-22)
(0.978698 0.0899871 -8.32489e-21)
(0.997694 0.00256286 7.18983e-21)
(1.00584 0.157096 0)
(1.09617 0.0923887 3.65452e-20)
(1.19538 -0.0605744 -8.83267e-22)
(0.734524 -0.0227246 1.35152e-19)
(0.928724 0.139907 1.81266e-21)
(1.0197 0.0250852 3.34655e-21)
(1.05425 0.139329 0)
(0.298051 0.0816699 -4.14354e-20)
(0.997136 0.0484948 1.50251e-20)
(0.995859 0.131387 1.24044e-20)
(1.02978 0.0234361 2.44863e-21)
(0.996263 -0.000730884 2.84011e-20)
(1.04039 -0.0416261 -2.48847e-20)
(0.999807 -0.000687938 1.28939e-21)
(0.956025 0.121837 0)
(1.00869 0.0494884 0)
(0.995003 0.0480989 1.46142e-20)
(0.697542 0.109167 9.78785e-21)
(1.03147 0.00326572 0)
(0.998129 -0.000214868 0)
(1.00739 0.135159 -1.70755e-21)
(0.994458 0.011548 0)
(1.01604 0.0592633 -4.47615e-21)
(0.963509 0.133281 -1.40305e-20)
(1.09907 0.0843773 0)
(1.00818 0.00833718 7.64943e-21)
(1.01543 0.138554 0)
(1.07924 0.145629 0)
(1.00079 0.000145233 0)
(0.970587 0.00146411 -2.15318e-20)
(1.02262 0.0389667 1.25911e-21)
(0.931024 -0.033233 0)
(1.00037 0.147339 9.13787e-22)
(-0.314219 0.000746783 -1.1903e-19)
(1.01434 0.128139 1.38573e-22)
(0.987449 -0.00284432 -1.22598e-20)
(0.978759 0.0322923 2.09774e-21)
(1.00201 0.00504532 1.7151e-20)
(1.00496 0.0252894 0)
(1.01797 0.156295 0)
(0.958727 0.02264 -2.82739e-21)
(1.01517 0.0588896 5.06431e-21)
(0.816056 0.130178 0)
(1.01217 0.00760301 -5.69239e-21)
(0.986909 -0.00303393 0)
(0.97274 -0.0145178 -6.82275e-21)
(1.0364 0.113419 -1.0077e-21)
(1.00313 0.0379902 -1.07692e-22)
(1.00815 0.0199729 0)
(0.933242 -0.0274345 0)
(1.01578 0.0335721 0)
(0.90824 -0.0545405 -3.6019e-20)
(0.0434619 -0.0200607 -3.40091e-20)
(-0.0702178 0.661935 0)
(1.00646 0.0263221 0)
(1.01165 0.0180072 -7.86945e-21)
(0.993028 0.00321758 -1.08171e-20)
(0.980652 0.0526429 0)
(-0.320055 -0.0100483 1.14965e-19)
(0.997761 -0.000721052 8.73633e-21)
(1.13154 -0.149981 -8.2739e-20)
(1.00082 0.147601 -1.48331e-21)
(0.965641 0.139222 1.72663e-20)
(0.298985 0.348698 -9.74463e-20)
(1.00185 0.00596743 -1.93963e-20)
(1.13115 0.122031 -4.75389e-20)
(0.992597 0.00357536 0)
(1.095 0.162743 -1.74507e-20)
(1.11726 0.105489 0)
(0.952345 -0.00998165 5.74795e-20)
(1.03955 0.101424 -4.90326e-21)
(1.00225 0.00523079 -1.99754e-20)
(1.01325 0.00767521 4.30637e-21)
(1.00076 0.000205494 -8.55574e-21)
(0.93295 0.172426 -2.13837e-20)
(0.56126 0.0929065 -2.6275e-22)
(1.05027 0.087465 1.72936e-20)
(0.99579 0.0115136 -1.73616e-20)
(1.03439 0.125451 2.50816e-21)
(0.984221 0.118701 -1.15049e-20)
(1.00891 0.0114212 7.14186e-21)
(1.00356 0.0391766 -8.82986e-22)
(0.997971 -0.00022598 0)
(0.536232 0.0858499 2.98682e-21)
(0.272026 0.103893 7.70728e-21)
(1.011 0.0271867 -6.96057e-21)
(1.02665 0.0274163 1.33556e-22)
(0.980306 -0.0223545 -4.73643e-21)
(1.13462 0.121557 3.36626e-20)
(1.00249 0.132301 1.00516e-21)
(1.00002 0.000130555 -5.40286e-21)
(0.755114 0.116461 0)
(0.999923 0.000674275 0)
(1.14507 0.109766 5.49714e-20)
(1.00141 0.000182455 1.12222e-20)
(1.00828 0.00816187 7.82934e-21)
(1.21211 0.09498 6.16866e-20)
(0.428139 -0.0276633 1.31723e-19)
(0.995047 0.130818 -1.1665e-20)
(0.992863 -0.0077144 -1.41911e-20)
(0.983154 0.0104446 8.67918e-21)
(0.7255 0.116967 5.87795e-20)
(1.0074 0.050307 -4.2057e-21)
(1.00785 0.020102 -1.21792e-20)
(1.01946 0.0255069 -4.67325e-21)
(0.818624 0.175307 -1.5888e-21)
(0.885071 0.00571907 -2.60175e-20)
(1.04541 0.12772 1.07912e-21)
(0.999903 0.0131768 -9.41532e-21)
(0.455218 0.0662751 2.15112e-21)
(0.991895 0.00217086 0)
(1.00261 0.134152 1.94748e-21)
(1.10264 0.0593044 -9.40074e-21)
(1.00308 0.00126274 0)
(1.0362 0.114515 1.04952e-21)
(0.992283 0.00264344 0)
(1.04685 -0.0101333 -3.16515e-20)
(1.358 -0.364958 -9.61696e-21)
(0.00955963 0.413577 0)
(1.00905 0.0111932 6.89333e-21)
(1.00036 0.000586397 -1.4845e-20)
(0.998698 0.150639 -7.4108e-22)
(1.00282 0.00988396 -7.08117e-21)
(0.00184975 0.382887 -1.75483e-19)
(0.983243 0.0252809 -3.36845e-21)
(1.02855 0.0241136 -3.04135e-21)
(-0.185007 0.921846 -6.77352e-20)
(0.96393 0.152881 0)
(0.969452 0.0593029 -6.26284e-21)
(0.984545 0.0265807 0)
(1.00844 0.00560605 4.83834e-21)
(-0.396143 0.527758 8.04643e-20)
(1.09923 0.0623954 0)
(1.01695 0.0127554 0)
(0.907953 0.0807973 0)
(0.997853 -0.000862272 0)
(0.418168 0.0698919 -9.47669e-23)
(1.00034 0.000567004 1.51699e-21)
(0.960372 0.119793 0)
(1.01764 0.0192605 0)
(1.00455 0.0254221 -5.19806e-23)
(1.04998 0.0864951 -1.98699e-20)
(0.822461 0.0899156 -7.06574e-20)
(0.906207 0.073303 7.23611e-20)
(1.0005 0.00105698 -6.13833e-21)
(0.999989 0.012819 0)
(0.743888 0.114023 -2.11103e-21)
(1.00055 0.000915632 6.18232e-21)
(0.979413 -0.00981734 3.69921e-20)
(0.993031 0.0177324 -4.37853e-21)
(0.999954 0.000739798 7.04562e-21)
(0.506025 0.298756 -7.58316e-20)
(0.79569 0.121465 1.21102e-20)
(1.05285 0.0692825 0)
(1.02844 0.124334 5.41044e-21)
(0.984617 0.134602 0)
(-0.106991 -0.16751 0)
(0.975498 0.0441821 9.78481e-21)
(1.00414 0.0319765 3.24272e-21)
(0.987773 -0.00447708 0)
(0.982317 0.00951525 2.03127e-20)
(0.996217 -0.0132502 -1.73358e-20)
(1.00393 0.000913763 2.43447e-21)
(0.984426 0.138124 1.19055e-20)
(0.625106 0.0920002 -1.11179e-22)
(1.02205 0.110126 0)
(0.585585 0.0963951 2.06035e-20)
(0.99918 0.141363 0)
(1.05614 0.00480283 3.20504e-20)
(1.11161 0.107612 -1.92191e-20)
(1.08253 0.139172 0)
(1.00005 0.000186754 0)
(1.08228 0.1371 0)
(1.00565 0.0261566 0)
(0.992474 0.115247 -1.70622e-20)
(1.10222 0.0328533 0)
(-0.142774 -0.193152 0)
(1.02942 0.0426983 0)
(0.969158 0.0153582 3.58858e-20)
(0.623401 0.0909524 2.23884e-22)
(1.02212 0.0239266 0)
(1.01058 0.0590303 0)
(1.02578 0.0279691 -1.76582e-22)
(0.964467 0.142727 -7.85323e-21)
(1.00124 0.130119 2.92408e-22)
(0.992686 0.0174855 -1.12938e-20)
(0.999837 0.204838 -1.01451e-22)
(1.03508 -0.0460008 3.38842e-21)
(1.05531 0.150526 -1.86584e-20)
(1.02433 0.0391284 -9.94005e-22)
(0.999481 0.0159996 -5.19451e-21)
(1.02617 0.0361722 -1.20135e-21)
(1.05638 -0.0323428 -1.64711e-20)
(1.00414 0.0240006 2.70128e-21)
(1.06616 -0.0842856 -4.12317e-20)
(0.79871 0.0585651 -6.05068e-20)
(1.00387 0.0118458 2.19789e-21)
(1.0039 0.0307696 0)
(1.01825 0.0220662 5.99172e-21)
(1.00235 0.00199835 1.11629e-20)
(0.284315 0.0243725 -8.31328e-21)
(0.798358 0.12496 -3.91323e-20)
(0.983205 0.019889 -1.66658e-20)
(0.739658 0.118754 -7.18531e-20)
(0.970884 0.14003 1.6966e-20)
(0.808 0.122996 1.18941e-21)
(1.13707 -0.0370104 -5.08198e-20)
(0.992738 -0.00997852 -1.21607e-21)
(-0.236131 -0.13957 0)
(0.952894 0.0637187 -1.79531e-20)
(0.887975 0.015987 2.72932e-20)
(-0.013973 0.059828 1.00417e-19)
(0.996299 -0.0132633 1.15721e-20)
(1.0278 0.0438679 6.02712e-23)
(1.23748 0.133145 4.27633e-20)
(0.624909 0.0571493 3.45749e-22)
(0.981423 0.00849087 -2.07974e-20)
(0.991902 0.076295 0)
(0.122733 -0.0954195 1.92601e-19)
(0.963148 0.0106485 3.25341e-20)
(0.998757 0.0075105 2.37794e-20)
(1.09486 0.144126 1.19223e-21)
(1.03595 0.159357 -9.7376e-21)
(0.824295 -0.0683899 -1.07701e-20)
(0.982113 0.134567 -8.93931e-22)
(0.501809 0.0797465 0)
(0.871629 0.0118683 0)
(1.0396 -0.00600791 -7.37498e-21)
(0.49212 0.104237 -4.85666e-20)
(1.11439 0.0819424 0)
(-0.0020962 0.0821092 -1.12003e-19)
(1.07355 0.0678173 1.17635e-21)
(-0.116216 -0.0329994 0)
(1.06432 0.0249422 1.29343e-20)
(0.992074 0.0044584 1.16437e-20)
(-0.0659828 0.617758 0)
(1.00034 9.10745e-05 0)
(1.00067 0.000981398 -1.13387e-20)
(1.00095 0.00791435 0)
(-0.392035 0.464428 -1.57055e-19)
(0.769469 0.184144 9.07051e-20)
(0.993851 -0.00637524 1.77571e-20)
(1.24774 0.130783 -7.79323e-20)
(0.999926 -0.000227045 9.85046e-21)
(1.06328 0.00962452 1.33881e-20)
(1.0259 0.0775226 1.322e-21)
(-0.0821963 0.670383 -9.12155e-20)
(1.06926 -0.00447679 0)
(0.96969 0.135771 -7.66842e-21)
(0.974292 -0.000941553 -2.98946e-20)
(1.0095 0.0153737 4.31279e-21)
(0.987592 0.00608496 -7.186e-21)
(0.143018 0.049348 -1.21683e-19)
(1.13856 0.0667034 0)
(0.995195 0.156347 0)
(1.00003 0.000420271 -2.48285e-21)
(1.05578 0.139074 0)
(1.00027 3.64301e-05 -9.17045e-21)
(1.00034 2.73112e-05 -9.53111e-21)
(0.993061 0.0769917 0)
(1.00324 0.0101744 0)
(0.976026 0.0424937 0)
(0.908345 -0.0133493 -1.12217e-20)
(0.88399 0.0460917 4.3383e-23)
(0.999974 -0.000844192 2.30904e-20)
(1.37253 -0.370429 1.38506e-19)
(1.00374 0.0023839 -1.77755e-22)
(0.84376 0.013872 0)
(-0.418162 -0.0618326 0)
(1.05603 0.00432241 -3.33742e-20)
(0.247786 0.10983 0)
(1.00959 0.0150697 0)
(1.02515 0.14251 1.21299e-21)
(0.11032 0.410117 9.52928e-20)
(1.01336 0.0121543 1.11683e-20)
(-0.072495 -0.0310353 -1.76433e-20)
(0.955062 0.131287 -8.96133e-21)
(-0.0540853 -0.0544828 4.60536e-20)
(1.16637 0.0974225 0)
(0.837749 0.133212 4.61618e-20)
(1.00246 0.00189706 5.35416e-21)
(1.00995 0.0502403 -8.34076e-22)
(1.02136 0.0241338 -3.11073e-21)
(1.03762 0.128973 1.81196e-21)
(0.988606 0.135899 0)
(1.01033 0.13644 0)
(1.02037 0.02512 4.89743e-21)
(0.999355 -0.000807013 -2.73167e-20)
(0.477133 0.0745344 -2.7312e-22)
(-0.0675439 0.837979 2.95912e-19)
(1.00904 0.136517 -2.50011e-21)
(1.00286 0.000646434 -2.06742e-20)
(0.777612 0.182403 -2.17683e-21)
(1.00373 0.0115292 0)
(1.05528 0.0627259 0)
(0.0242246 0.0526609 0)
(0.852861 -0.00687331 0)
(-0.684389 -0.0398949 4.65457e-20)
(0.968259 0.0303745 1.87386e-20)
(1.00934 0.0586093 6.50888e-23)
(0.550371 0.0489582 -8.90874e-20)
(0.0889754 -0.0324415 2.79964e-19)
(1.01123 0.0485785 0)
(0.998649 0.00668325 3.71152e-21)
(1.07056 0.0667815 -2.30256e-22)
(1.25268 0.133257 9.34945e-20)
(1.0227 0.0781334 -4.35738e-22)
(1.00964 0.0108891 6.49938e-21)
(1.06128 -0.0254617 2.76547e-20)
(1.19436 -0.0686851 2.96841e-20)
(0.889712 0.161992 0)
(1.0255 0.0288774 -1.20822e-22)
(1.13298 0.0728132 1.14248e-22)
(0.999886 0.000595498 -2.79988e-23)
(1.00002 0.000460824 1.57873e-20)
(0.217543 0.380184 0)
(0.926402 0.137878 -8.83417e-22)
(0.502022 0.0762535 2.14434e-22)
(0.330968 0.0833767 0)
(1.04757 0.115379 -1.96181e-20)
(1.02321 0.12675 1.82891e-21)
(0.806776 0.126887 0)
(0.981409 0.0187767 -1.91519e-20)
(0.98543 0.0706429 -1.35362e-20)
(0.959031 0.117127 0)
(1.14136 0.143898 1.09006e-20)
(1.01812 0.0332992 5.07953e-21)
(1.04313 -0.00880452 1.63435e-20)
(0.751296 0.115297 -2.99791e-21)
(0.888619 0.0522346 -5.16981e-20)
(1.26325 0.137125 6.43731e-20)
(0.998586 0.00711427 -2.2542e-20)
(0.999944 0.000680113 0)
(0.983579 0.0199168 0)
(0.827487 0.00399503 -4.09091e-20)
(0.979492 -0.023873 0)
(0.115245 0.390194 1.29845e-19)
(1.02709 0.0970641 -1.10399e-21)
(1.01194 0.0433467 -2.5701e-21)
(1.19295 0.161221 -9.12451e-21)
(1.07332 0.0192198 4.77229e-21)
(0.273563 0.111851 -8.12149e-20)
(0.0486856 0.401662 -1.49929e-19)
(0.800888 0.183307 3.73833e-20)
(1.09396 0.143783 -2.19106e-21)
(1.03752 0.142662 2.04534e-21)
(0.956214 -0.010817 1.75633e-20)
(1.00298 0.00213903 8.36009e-21)
(1.03596 0.128761 0)
(-0.0404244 0.720198 0)
(0.942874 0.101837 4.6768e-21)
(1.0525 0.0647149 8.31209e-21)
(0.440971 0.230545 -9.95014e-20)
(1.02565 0.0291762 1.89115e-22)
(1.01414 0.0494829 2.85135e-21)
(0.971842 0.0119309 0)
(0.194183 0.377512 1.8891e-19)
(0.986934 0.0215768 1.30954e-20)
(1.0307 0.149621 0)
(1.09313 0.0928715 -3.48414e-20)
(0.991765 0.00352383 -2.98505e-20)
(1.35095 -0.309806 0)
(0.816513 -0.0717735 -3.04459e-20)
(0.0634317 -0.0465545 -3.83219e-21)
(1.02003 0.0253645 0)
(1.00611 0.0199093 0)
(1.00095 0.00808426 0)
(1.11019 0.127985 -3.87961e-20)
(1.00509 0.000489096 -2.08542e-21)
(1.05885 0.0154864 1.04025e-20)
(0.994058 0.00182333 0)
(-0.203422 -0.150786 -4.5634e-20)
(0.960235 0.00993131 9.96987e-21)
(1.30523 -0.0616517 0)
(1.07599 -0.0814335 3.89657e-20)
(1.02947 0.0414079 3.78963e-22)
(1.00224 0.0033745 1.63997e-20)
(0.990134 0.045328 0)
(1.00069 0.130185 -3.67441e-21)
(0.995844 0.0191248 -1.3065e-20)
(0.935432 -0.0081981 -3.68482e-20)
(0.671482 0.433838 -2.90361e-20)
(-0.626843 -0.0903619 1.03041e-20)
(0.880037 0.0268543 0)
(1.03252 0.152266 1.20118e-20)
(0.999259 -0.000339473 2.72365e-20)
(1.0019 0.00938786 0)
(1.01346 0.0582075 1.51405e-21)
(0.99923 -0.00099753 8.79653e-21)
(1.01229 0.0584674 0)
(0.993573 0.115908 1.26206e-20)
(0.869026 0.0651755 0)
(1.04509 0.0348481 2.07594e-21)
(0.999988 0.000252766 4.04559e-21)
(0.905957 0.0745251 -4.52283e-20)
(0.830877 -0.0637565 3.81158e-20)
(0.999826 -0.000467619 1.36015e-21)
(0.134871 0.0286054 0)
(1.11955 0.0896593 0)
(1.00011 0.000673518 0)
(1.00226 0.00270334 0)
(1.03394 0.152001 -9.31479e-21)
(0.912421 0.141459 0)
(1.00943 0.010445 0)
(1.30432 0.119004 7.87711e-20)
(1.14816 0.132608 0)
(0.999541 0.0126593 1.35483e-20)
(1.00039 0.000596523 1.23204e-20)
(0.367208 0.0910221 0)
(0.509606 0.359983 7.41183e-20)
(1.1128 0.096598 7.99255e-22)
(1.1448 -0.0400356 2.92605e-20)
(1.16366 0.096242 0)
(0.974756 0.00178321 1.03874e-20)
(1.08788 0.146936 -3.71137e-20)
(0.493747 0.0919954 1.56111e-21)
(0.490182 0.0841602 6.22475e-21)
(1.03267 0.0519288 -8.84163e-22)
(1.03162 0.0400899 -4.79688e-21)
(1.01302 0.140748 3.04007e-23)
(1.04656 0.116449 1.91672e-20)
(0.999949 -0.000298678 1.24669e-20)
(1.09776 -0.0238222 0)
(1.14784 -0.0320634 -2.96697e-20)
(1.02566 0.139274 -1.10836e-21)
(1.00771 0.00918481 0)
(0.995326 -0.00909094 1.01164e-20)
(1.01158 0.0423334 9.38147e-22)
(0.995284 0.0116751 -6.68883e-21)
(0.999995 0.000190328 3.36372e-21)
(0.757199 0.12372 0)
(1.0752 0.134117 -1.35099e-20)
(1.00524 0.000342252 0)
(1.00953 0.0111588 -2.00788e-20)
(0.0284445 -0.0319716 2.24735e-20)
(1.013 0.049735 -6.85548e-21)
(0.454726 0.166764 0)
(0.992437 -0.00756906 -2.51525e-20)
(0.993776 -0.0147841 -2.29393e-20)
(1.14815 0.135573 2.14296e-20)
(1.02731 0.03473 0)
(0.991838 0.102028 0)
(0.971607 -0.0170782 0)
(1.00824 0.00531247 -9.37522e-21)
(1.00157 0.00035537 0)
(1.00038 5.53051e-05 -6.82689e-21)
(0.232447 0.00584985 -8.94022e-20)
(1.00043 0.000631995 0)
(0.999268 -0.000318223 0)
(1.00784 0.00964629 0)
(0.986335 0.00382461 -1.48558e-20)
(0.303914 0.0738984 1.37478e-19)
(1.00371 0.0232945 -2.68848e-21)
(1.04553 0.0365499 5.88564e-22)
(1.01693 0.0181806 -5.33639e-21)
(1.11322 0.0915838 5.13247e-20)
(0.746852 0.165977 1.32123e-20)
(0.970183 -0.0171476 0)
(1.01371 0.148313 7.49414e-24)
(1.36353 -0.319116 0)
(1.00073 0.00762215 -4.34661e-21)
(0.999483 -0.000411479 -6.5083e-21)
(1.03264 0.0387563 0)
(0.996287 0.0190425 1.27844e-20)
(1.0015 0.000201152 0)
(1.01413 0.00108788 0)
(0.999972 -0.00025741 0)
(1.02461 0.131288 1.26523e-21)
(0.992723 0.100995 0)
(1.03126 0.0413269 0)
(1.06579 0.105366 -5.49266e-21)
(1.08856 0.0945785 0)
(0.999371 -0.000695725 0)
(0.987312 -0.00408002 1.28577e-20)
(-0.135724 0.00374152 -3.13385e-20)
(1.30154 -0.280954 0)
(0.648435 0.0577589 0)
(0.940557 0.10891 -4.35031e-20)
(1.01131 0.137462 0)
(0.967573 0.0135088 -1.48508e-20)
(0.999085 -0.000550388 -8.55105e-21)
(-0.76701 -0.0710942 -5.63667e-20)
(-0.600846 -0.0853352 -4.06624e-20)
(0.999979 0.0782214 -6.34127e-21)
(0.998798 0.00468664 0)
(0.600942 -0.00183897 -1.51916e-19)
(0.326953 0.0258174 7.37145e-21)
(0.998359 0.00636937 -8.94264e-21)
(0.879778 0.0636812 6.98239e-22)
(-0.07145 0.837281 -3.77102e-19)
(0.75088 0.120807 -2.51189e-20)
(1.03997 0.00823976 0)
(0.877895 0.0720383 0)
(1.0244 0.0228088 2.88439e-23)
(0.447073 0.0760117 -6.77057e-21)
(1.00025 0.000195594 8.77442e-21)
(0.999999 1.40388e-05 0)
(1.07594 0.135094 -6.58379e-21)
(-0.385056 -0.0183572 7.87014e-20)
(-0.0209297 0.510666 0)
(1.12977 0.0575458 0)
(0.721186 0.0774139 4.63474e-20)