/*--------------------------------*- C++ -*----------------------------------*\
| =========                 |                                                 |
| \\      /  F ield         | OpenFOAM: The Open Source CFD Toolbox           |
|  \\    /   O peration     | Version:  v2012                                 |
|   \\  /    A nd           | Website:  www.openfoam.com                      |
|    \\/     M anipulation  |                                                 |
\*---------------------------------------------------------------------------*/
FoamFile
{
    version     2.0;
    format      ascii;
    class       volScalarField;
    location    "300";
    object      k;
}
// * * * * * * * * * * * * * * * * * * * * * * * * * * * * * * * * * * * * * //

dimensions      [0 2 -2 0 0 0 0];


internalField   nonuniform List<scalar> 
18649
(
0.01642
8.20539e-05
0.0170635
0.000115302
6.40311e-05
0.0218477
8.60028e-05
4.59449e-05
0.0119258
0.00122392
8.00148e-05
7.70509e-05
6.80849e-05
8.63451e-05
0.113455
6.75939e-05
7.83479e-05
8.59167e-05
0.00108335
8.21503e-05
7.68349e-05
0.0700888
0.00773483
0.000109
0.00118064
0.00619666
0.0111263
0.0142655
7.95716e-05
0.057649
6.63025e-05
6.59865e-05
7.82144e-05
9.33968e-05
7.89269e-05
8.91298e-05
0.109246
8.38163e-05
7.99933e-05
8.66125e-05
0.0277906
8.90069e-05
0.000210986
0.0139977
0.0136509
0.0662751
0.00548212
9.50395e-05
8.76251e-05
0.00010574
0.000113435
0.00969555
6.91205e-05
0.0302782
5.31999e-05
0.000218282
0.105065
8.77519e-05
4.47288e-05
0.0124297
5.72408e-05
0.000156548
8.96645e-05
0.116428
0.0554601
0.0082692
0.00877498
9.04261e-05
0.014302
0.0704709
0.0113242
9.34173e-05
8.55233e-05
8.92046e-05
6.57442e-05
0.0135271
0.018695
7.94043e-05
0.0590004
4.75087e-05
6.5322e-05
8.86796e-05
0.0190859
0.00151886
4.86957e-05
0.000199289
8.51276e-05
8.4272e-05
4.78695e-05
0.0270919
0.117436
0.000154861
0.000109429
0.000110337
6.37973e-05
6.89605e-05
8.93313e-05
0.000105043
0.00526512
5.70872e-05
0.0173103
6.47245e-05
0.00288601
4.5999e-05
0.0121114
0.0125187
0.0203419
0.00257066
0.000204491
8.54158e-05
7.85828e-05
9.54526e-05
8.58728e-05
6.94201e-05
6.39452e-05
0.000101562
9.03176e-05
9.55231e-05
6.66626e-05
8.48079e-05
5.64068e-05
0.000103986
0.0126996
6.95467e-05
4.82242e-05
8.96223e-05
0.073358
7.36876e-05
7.96773e-05
4.88662e-05
8.69756e-05
0.11543
0.000198669
0.00023383
7.7203e-05
0.0654357
0.0148052
0.00365853
0.0148072
0.0141077
9.46758e-05
6.93891e-05
4.47242e-05
7.52474e-05
0.0121533
5.57566e-05
9.02466e-05
0.00024672
0.0123824
8.81114e-05
0.0185278
0.000148717
7.1244e-05
8.55184e-05
0.00010107
0.000104864
8.80846e-05
6.78035e-05
6.71806e-05
0.00729959
0.0197312
0.0175031
8.84378e-05
0.0145447
0.0134985
6.64015e-05
9.88723e-05
0.0116732
6.04687e-05
5.65687e-05
8.54298e-05
7.1064e-05
6.60253e-05
6.74967e-05
0.000103843
0.00882176
0.0120527
8.77311e-05
0.0118274
0.0205684
7.51267e-05
0.0149245
5.41302e-05
6.79529e-05
7.6643e-05
5.41224e-05
5.32118e-05
0.000102223
5.64377e-05
4.70441e-05
8.91229e-05
0.0188321
0.000142576
8.58629e-05
8.78932e-05
6.60943e-05
5.40046e-05
5.39611e-05
0.00756007
9.51387e-05
4.719e-05
6.36408e-05
0.00801649
8.5664e-05
7.50968e-05
7.11803e-05
0.000233779
0.0177736
9.09434e-05
6.87391e-05
5.65315e-05
8.50468e-05
5.34498e-05
9.01209e-05
0.0202848
9.09735e-05
8.61014e-05
8.89851e-05
6.75962e-05
0.00365613
8.41369e-05
4.88953e-05
0.0654391
0.000105351
0.0164124
9.79322e-05
0.000125107
0.000477733
0.000107829
8.63162e-05
4.69949e-05
6.57826e-05
9.50345e-05
7.79163e-05
0.0113879
7.48292e-05
8.82867e-05
7.64594e-05
5.36147e-05
4.45472e-05
8.80323e-05
0.0175236
9.7841e-05
0.059683
0.0148162
7.46613e-05
8.58168e-05
7.87121e-05
0.0772117
0.000102794
7.48099e-05
0.000327483
7.43681e-05
6.60953e-05
9.22923e-05
6.64773e-05
6.86084e-05
5.68303e-05
8.62729e-05
5.84256e-05
0.106995
5.16416e-05
5.05995e-05
8.52593e-05
5.3025e-05
0.000123394
5.64586e-05
0.000622034
6.64152e-05
6.10623e-05
0.000161039
0.0013169
8.9831e-05
6.09994e-05
0.111401
0.000104587
8.53094e-05
9.24239e-05
8.71427e-05
0.000158402
0.000281055
8.91008e-05
0.0183355
8.57263e-05
4.87383e-05
0.000191516
9.4076e-05
7.64879e-05
0.0145538
4.71941e-05
7.56606e-05
0.0209104
8.60886e-05
7.47579e-05
0.0711781
0.0783597
0.111505
0.0727505
9.46152e-05
6.74384e-05
6.36419e-05
0.0141454
0.000103056
0.00016262
0.000283892
6.47478e-05
0.00119628
0.000121527
9.51584e-05
0.000110747
7.59506e-05
0.00581355
4.48935e-05
5.31385e-05
8.58754e-05
6.50303e-05
8.91677e-05
0.0380352
0.0180036
5.32687e-05
0.0617248
6.02452e-05
5.65114e-05
7.92699e-05
0.0714972
7.70552e-05
0.0655242
0.00744982
6.75418e-05
8.74553e-05
8.73491e-05
0.0115134
0.00161474
6.33315e-05
0.0140799
7.51276e-05
0.00502381
6.18073e-05
9.85969e-05
0.000241802
7.83592e-05
0.00596407
0.0376463
0.00981532
0.00131573
0.000120481
0.000105363
7.92351e-05
0.0736822
0.00103449
8.81799e-05
0.000137747
5.17146e-05
7.40324e-05
9.20265e-05
8.77524e-05
7.70656e-05
0.00435819
6.45766e-05
5.29848e-05
8.4646e-05
0.017235
0.000166256
6.84756e-05
0.00619101
0.0156484
6.36401e-05
4.95404e-05
0.00538826
5.34892e-05
9.96192e-05
0.00151408
4.95923e-05
6.94912e-05
0.114237
8.67252e-05
0.000140406
0.00346753
0.00482097
0.000689807
0.000868501
5.34663e-05
7.39365e-05
0.00115773
0.00446552
8.52877e-05
7.95106e-05
6.70558e-05
8.73e-05
7.96661e-05
0.00148401
6.61132e-05
5.49746e-05
8.55677e-05
0.0148159
0.00219742
6.41999e-05
4.75876e-05
5.88594e-05
6.07161e-05
0.000290069
0.00197854
9.10544e-05
0.000114046
4.24219e-05
5.92814e-05
6.72788e-05
0.000717708
5.34794e-05
0.000104936
9.73898e-05
0.00011301
0.000160399
8.76581e-05
0.000304201
9.22415e-05
0.0127708
8.39005e-05
8.64056e-05
8.92726e-05
9.39085e-05
5.45176e-05
0.000107192
0.00574293
0.00808198
4.4425e-05
0.000224065
0.0006878
9.22444e-05
0.0762281
0.00341472
5.56789e-05
8.21778e-05
8.2501e-05
0.10874
8.07216e-05
7.38284e-05
0.00843735
7.952e-05
6.36158e-05
5.54962e-05
4.46588e-05
8.59064e-05
9.84145e-05
8.75938e-05
7.41009e-05
8.6205e-05
0.000160552
0.0223599
7.35181e-05
8.90818e-05
0.069779
8.9255e-05
0.0106869
9.39284e-05
7.18394e-05
7.75571e-05
6.01519e-05
0.0520998
0.000225917
6.59698e-05
0.0407789
8.04318e-05
0.0123761
0.0126107
6.8181e-05
4.45977e-05
4.49564e-05
7.36435e-05
8.47905e-05
7.58521e-05
5.0661e-05
9.00977e-05
0.000109039
0.000105794
0.000121823
8.52265e-05
7.39887e-05
9.39079e-05
0.0697477
9.53136e-05
0.0577472
8.44878e-05
5.69708e-05
5.15971e-05
0.0219939
7.48526e-05
0.00772174
0.0664058
7.64554e-05
7.55926e-05
0.0108827
4.5386e-05
9.13345e-05
6.71355e-05
9.42467e-05
0.000102607
6.7976e-05
5.14793e-05
7.01846e-05
0.000107628
8.89882e-05
8.55477e-05
7.6776e-05
0.0082421
0.00406997
0.0154342
4.68756e-05
6.69438e-05
0.00419807
6.31747e-05
8.51056e-05
6.53765e-05
0.000200841
0.0001993
8.62181e-05
0.0144508
7.66203e-05
0.000120354
6.67587e-05
6.81472e-05
8.32105e-05
8.78807e-05
0.066351
6.79033e-05
0.0103355
0.00615324
0.00175215
0.0106682
8.41518e-05
5.87565e-05
0.00151429
5.54224e-05
5.86241e-05
0.000186416
8.53493e-05
4.46525e-05
7.77958e-05
0.0685177
8.86249e-05
0.000146415
6.61526e-05
0.0752819
7.51987e-05
0.00010902
0.000194821
0.00487039
7.67165e-05
9.50122e-05
9.61518e-05
6.62774e-05
0.0158521
6.49472e-05
0.000116268
8.49274e-05
0.00403384
3.6992e-05
0.0101993
7.54868e-05
7.36641e-05
0.0107487
8.91453e-05
0.000209526
9.34794e-05
6.04127e-05
6.82101e-05
0.107707
0.000112713
9.09408e-05
0.000106708
8.90697e-05
0.000109516
4.55066e-05
6.48014e-05
0.0136549
4.58312e-05
0.0141794
8.46678e-05
0.00840484
8.91983e-05
7.02427e-05
7.47413e-05
0.0382446
5.27064e-05
5.20854e-05
8.93976e-05
8.71855e-05
0.000343659
0.0659353
7.63982e-05
7.20311e-05
6.27654e-05
0.00131285
5.43345e-05
0.00678532
7.43022e-05
8.91436e-05
0.000364411
6.7035e-05
0.00775446
5.15029e-05
0.0768904
5.82692e-05
4.85199e-05
6.66671e-05
0.000114527
5.94041e-05
0.00851344
8.80682e-05
0.0121756
8.72076e-05
0.0658797
5.24296e-05
7.51845e-05
0.00018332
8.2793e-05
6.47963e-05
6.09502e-05
0.000253435
0.000102847
6.82321e-05
0.000545063
0.00016619
7.37704e-05
9.12244e-05
9.30353e-05
0.0218945
0.0665272
0.0114644
0.0722405
8.8173e-05
0.0156962
0.0805548
8.18039e-05
0.000107381
0.0165577
8.52391e-05
0.000192074
8.30868e-05
0.00101314
8.9031e-05
0.0011594
0.0104235
7.38993e-05
0.000195337
6.2362e-05
8.39054e-05
5.52331e-05
8.48133e-05
0.0142098
5.1487e-05
0.000149683
0.00822107
0.000115302
8.55282e-05
0.0593275
8.5121e-05
7.43811e-05
0.0222986
7.45742e-05
7.03968e-05
0.0124933
5.13705e-05
8.46715e-05
0.000111807
6.72085e-05
6.43116e-05
8.8503e-05
9.08772e-05
5.97289e-05
9.31906e-05
9.27597e-05
7.21352e-05
6.57162e-05
9.24118e-05
0.00723117
0.000101791
0.000175182
0.00875205
0.00790508
8.13197e-05
0.000314468
0.0805978
8.64654e-05
0.000122613
6.55059e-05
9.61207e-05
8.53991e-05
6.98214e-05
7.50947e-05
6.451e-05
8.85343e-05
0.0192071
0.0984721
0.00663421
8.97335e-05
5.43346e-05
0.134672
5.16507e-05
0.016728
8.47524e-05
0.0104579
8.99983e-05
0.127048
6.07082e-05
0.00206601
6.44862e-05
0.0162127
7.48943e-05
0.00243273
0.000346008
9.03371e-05
0.0177432
5.92395e-05
0.0685081
6.07023e-05
9.71562e-05
0.0355962
5.67117e-05
4.72509e-05
6.85018e-05
5.25345e-05
0.000153179
0.128786
7.86173e-05
8.50577e-05
0.0067266
0.00531055
6.4485e-05
0.000127213
5.64542e-05
7.87849e-05
0.0189843
0.011588
9.53129e-05
0.000101604
8.89648e-05
0.0185644
6.23011e-05
6.53879e-05
0.00725127
0.000231175
4.85292e-05
9.56478e-05
0.000141718
8.83711e-05
6.56963e-05
4.64004e-05
0.0290399
0.000100373
5.29728e-05
7.88728e-05
0.0817961
8.71335e-05
0.000103015
0.000148969
8.99706e-05
0.0116142
8.60946e-05
5.34108e-05
4.84964e-05
8.44798e-05
0.000127519
8.93223e-05
5.51684e-05
5.83667e-05
0.000117134
6.53518e-05
0.00811261
0.00703971
8.14945e-05
9.61602e-05
0.00019224
7.31185e-05
5.15301e-05
5.20814e-05
4.56594e-05
0.000104418
6.565e-05
0.0679033
8.02276e-05
8.38417e-05
5.2245e-05
8.6386e-05
9.01039e-05
5.52334e-05
0.000246968
0.0489973
0.0157081
0.0519245
0.0575314
0.00794906
6.52516e-05
8.69778e-05
0.000639108
9.90189e-05
0.00954049
8.67862e-05
0.000125554
0.0118758
0.0180911
0.0111316
8.14686e-05
5.28294e-05
5.58776e-05
8.90115e-05
7.16497e-05
0.00594045
0.000138828
4.95695e-05
8.78315e-05
9.44963e-05
9.15917e-05
0.0751442
0.000224968
0.0981461
7.93402e-05
0.00830607
8.0274e-05
8.97092e-05
9.09658e-05
4.74119e-05
6.77906e-05
0.0182287
7.15394e-05
0.000120464
8.96785e-05
7.89588e-05
8.24249e-05
5.15921e-05
0.00992408
0.0300311
9.06806e-05
0.00832941
8.84164e-05
0.000123133
0.000115206
0.000174964
6.8556e-05
8.96582e-05
4.46568e-05
9.74273e-05
8.80266e-05
6.09653e-05
5.12576e-05
4.9528e-05
4.55784e-05
0.077982
8.66434e-05
9.03759e-05
8.27559e-05
6.75599e-05
7.95693e-05
6.40234e-05
0.00464722
5.91867e-05
5.12657e-05
7.60354e-05
5.23122e-05
6.529e-05
0.00916476
8.6629e-05
0.0156399
5.34188e-05
8.54633e-05
6.7795e-05
6.69639e-05
6.35735e-05
4.6336e-05
5.21368e-05
0.000118765
0.000669939
0.00765836
0.0697784
9.45288e-05
8.80763e-05
5.90983e-05
0.0559134
4.59354e-05
0.00271193
0.000136909
0.124537
5.27701e-05
0.00184789
0.00102245
8.67752e-05
7.23318e-05
9.62223e-05
0.0624573
9.54765e-05
9.61255e-05
8.43426e-05
0.0239006
0.0667145
4.95813e-05
0.0211013
8.9975e-05
6.12212e-05
6.78692e-05
6.98853e-05
7.8798e-05
4.61809e-05
0.0157601
0.0162444
4.8993e-05
7.97115e-05
7.62239e-05
7.36555e-05
6.61235e-05
0.0809797
0.0551179
0.000137284
4.64996e-05
4.67004e-05
4.46284e-05
0.0704469
0.0318544
0.00045186
0.000148869
5.32262e-05
0.0174929
0.018728
0.125095
4.66683e-05
5.10239e-05
0.000224513
8.59695e-05
0.0657359
7.12616e-05
6.21207e-05
5.37848e-05
9.81319e-05
8.62074e-05
4.8485e-05
8.02772e-05
6.35849e-05
6.52459e-05
0.000104697
0.0360333
0.0100782
0.000122134
0.0118169
8.86662e-05
0.000122729
8.39031e-05
5.35247e-05
7.10636e-05
0.0108098
0.0130641
0.0663032
0.131364
7.02125e-05
5.10296e-05
8.60784e-05
8.79124e-05
0.0101812
0.000112617
5.1911e-05
5.42407e-05
0.107681
8.36913e-05
8.99617e-05
7.85201e-05
0.101157
0.0674225
0.000198645
0.00772376
6.58298e-05
9.68085e-05
5.19034e-05
0.00740252
9.12582e-05
8.42702e-05
0.0105101
0.000464099
7.53881e-05
5.1583e-05
8.8566e-05
0.132554
0.00799502
0.0745046
5.915e-05
8.35649e-05
0.0173427
6.76705e-05
4.46319e-05
8.95483e-05
0.00466803
4.85416e-05
6.64635e-05
0.00516208
0.0580796
7.22263e-05
0.00140855
7.36942e-05
0.0148587
4.53095e-05
8.88348e-05
0.0221123
0.0782495
0.0157429
4.60439e-05
8.50957e-05
0.0699994
7.79995e-05
5.17223e-05
0.0579675
0.103733
5.53929e-05
5.95892e-05
8.93803e-05
0.00780448
0.00810126
0.0365895
0.00012096
8.66904e-05
8.76125e-05
8.91462e-05
0.00619702
0.000121398
0.0828468
0.000105848
7.21077e-05
0.0657821
0.00469299
0.0255703
0.000303278
0.118879
5.22666e-05
8.02318e-05
0.0696022
0.000147652
9.72163e-05
8.89148e-05
8.691e-05
0.0085573
8.39803e-05
0.0222169
8.03861e-05
0.000357469
7.9243e-05
0.00277063
6.52783e-05
0.00815534
0.000101663
8.83459e-05
0.0330093
0.000105303
5.36756e-05
0.00038035
0.0823882
9.1274e-05
7.82799e-05
0.00059009
6.33969e-05
0.0798394
8.02032e-05
0.0151342
7.17895e-05
4.89253e-05
7.5341e-05
0.00437725
5.49808e-05
5.15303e-05
5.99938e-05
0.005312
0.0364559
8.6546e-05
7.50379e-05
8.50761e-05
0.00292324
9.09045e-05
8.94386e-05
0.0765032
0.0225041
0.0151567
7.68263e-05
5.1894e-05
0.00966541
4.67123e-05
0.0103709
0.00558602
7.23663e-05
4.52293e-05
8.73822e-05
0.027743
0.103918
0.030328
4.62344e-05
7.31939e-05
0.012995
9.81609e-05
0.00171952
0.0619833
0.00500797
6.38152e-05
8.80324e-05
0.0173851
8.57557e-05
4.60718e-05
4.66575e-05
8.36942e-05
0.00581343
7.1595e-05
0.00544534
6.27214e-05
0.0666348
0.000165352
4.4582e-05
9.61409e-05
0.000202439
0.0757522
8.77671e-05
8.4499e-05
7.75522e-05
6.37889e-05
0.054694
0.000111904
0.000395745
9.39757e-05
0.00910578
0.139717
8.97631e-05
8.78509e-05
6.33772e-05
6.38906e-05
8.26848e-05
6.83384e-05
0.010487
9.4002e-05
0.0178675
0.000391233
6.08038e-05
0.0126605
0.00870507
9.86223e-05
9.72671e-05
0.11808
8.34873e-05
0.00758219
0.0022946
8.76676e-05
5.4918e-05
0.0163909
0.0137741
0.000199803
6.95012e-05
8.03218e-05
6.76037e-05
8.34162e-05
7.19669e-05
0.000644554
8.21261e-05
0.0123562
0.00970037
9.26239e-05
6.03929e-05
4.66891e-05
0.0147343
4.85046e-05
0.0790163
9.20526e-05
0.00182382
7.90602e-05
8.00697e-05
7.43581e-05
0.0103808
4.48527e-05
0.00733282
7.60112e-05
8.55354e-05
6.95946e-05
8.2474e-05
4.5904e-05
5.61726e-05
6.41017e-05
8.7157e-05
0.023493
0.000515906
6.74403e-05
0.0105637
4.50796e-05
6.82331e-05
0.0957958
7.20233e-05
4.59678e-05
0.00310522
6.76677e-05
0.000102645
0.00474336
7.5284e-05
4.82834e-05
0.00717278
7.41078e-05
0.0151666
4.73688e-05
0.00013166
0.133003
8.52877e-05
4.72295e-05
9.65609e-05
5.32624e-05
5.28074e-05
5.60175e-05
0.000458386
4.86697e-05
0.00674848
0.00240108
6.69252e-05
9.88738e-05
0.0962398
8.99017e-05
8.69885e-05
8.43069e-05
8.77633e-05
9.4262e-05
7.33411e-05
7.9676e-05
5.33253e-05
0.0221909
7.24193e-05
7.49325e-05
6.7524e-05
7.73169e-05
8.96786e-05
0.00706617
0.0025683
4.49685e-05
0.0132804
0.000160829
0.000724682
0.014925
0.0384969
6.68037e-05
5.62634e-05
8.77719e-05
9.21074e-05
0.0103938
5.38334e-05
0.0128871
7.20891e-05
0.000105294
6.82073e-05
5.24411e-05
0.00967632
7.60503e-05
6.44123e-05
0.102015
8.68782e-05
8.73453e-05
6.64379e-05
0.000107433
0.00811657
8.91977e-05
0.018355
0.0706833
5.17572e-05
7.38059e-05
7.00776e-05
0.00121967
7.96145e-05
8.59658e-05
0.00010236
7.34415e-05
0.0104478
0.0100067
0.00026319
0.0664132
0.0790909
0.00847623
0.00013497
7.04677e-05
0.0665907
0.000256109
7.18936e-05
7.19288e-05
6.32622e-05
0.00207494
8.5281e-05
8.75809e-05
0.0153748
0.0118635
9.41959e-05
5.05944e-05
6.01217e-05
0.0117969
7.77185e-05
8.53498e-05
8.63376e-05
0.0104556
9.43238e-05
0.00848097
8.64858e-05
0.000231895
0.000103146
8.98136e-05
0.0104211
8.1834e-05
8.01138e-05
7.71879e-05
6.66127e-05
6.00916e-05
0.00978395
0.0787656
7.2503e-05
4.49192e-05
7.36759e-05
6.72228e-05
0.0170417
8.53731e-05
7.40712e-05
6.32394e-05
8.36543e-05
6.66134e-05
7.17639e-05
8.18345e-05
5.89861e-05
0.000215241
0.000361019
7.79569e-05
8.95597e-05
4.65585e-05
8.70076e-05
0.000833329
0.0168867
6.56155e-05
9.25876e-05
6.08644e-05
0.0838127
9.01581e-05
0.0150988
4.58779e-05
0.0581916
7.5961e-05
8.28237e-05
0.00132533
4.86121e-05
0.0731086
9.35982e-05
0.100993
8.39452e-05
0.00896265
5.07964e-05
0.0585404
0.00040271
5.96034e-05
0.0177028
5.98877e-05
4.57679e-05
0.0155127
6.0797e-05
7.39227e-05
0.000193933
9.76752e-05
7.24134e-05
6.06319e-05
4.47105e-05
6.69103e-05
0.0156193
7.55093e-05
5.08133e-05
0.053897
8.8372e-05
0.0150227
6.2133e-05
8.55274e-05
6.08047e-05
8.06161e-05
0.00126106
0.000106773
0.0129423
0.0121396
0.000102949
7.48887e-05
6.0181e-05
6.5781e-05
0.0921165
7.55909e-05
7.4425e-05
5.98292e-05
8.59536e-05
0.00073424
0.0657352
6.01565e-05
0.0178223
7.07868e-05
9.57181e-05
4.72144e-05
8.57601e-05
8.17817e-05
0.0128117
7.24543e-05
0.000179148
0.0151311
7.76021e-05
6.40709e-05
0.0145063
0.0826411
4.47968e-05
0.109576
5.35356e-05
0.029963
8.97983e-05
0.00214519
0.00753302
9.83115e-05
6.32693e-05
0.000122719
6.77709e-05
8.12965e-05
9.2464e-05
9.51778e-05
8.54921e-05
0.00876721
0.0142097
8.9868e-05
7.68761e-05
7.5443e-05
6.46915e-05
0.000118493
7.75695e-05
7.07251e-05
8.36212e-05
6.05318e-05
9.28318e-05
0.000308173
8.38433e-05
7.93664e-05
9.50247e-05
0.0743336
0.000478267
8.96927e-05
0.0231642
0.00132498
0.000127042
0.0952225
6.47156e-05
8.88151e-05
7.46392e-05
6.63692e-05
7.93275e-05
0.130546
7.82738e-05
8.98505e-05
6.80796e-05
8.62976e-05
0.00886768
4.95518e-05
0.00549913
9.04846e-05
0.078789
8.91682e-05
0.0155609
5.35919e-05
9.91094e-05
8.65988e-05
7.84817e-05
8.5343e-05
7.71318e-05
0.0014208
8.88018e-05
8.85902e-05
4.54739e-05
0.00929046
0.0572817
7.48154e-05
6.21856e-05
0.00865464
0.0135795
0.0363998
5.92153e-05
7.25571e-05
0.0825815
8.88895e-05
0.00787643
0.000515999
4.90443e-05
8.60188e-05
0.00759607
7.95523e-05
8.96871e-05
5.77882e-05
0.000253749
9.31531e-05
0.000178303
6.45785e-05
0.000684359
0.000996713
0.0818911
0.0446037
7.97713e-05
7.17004e-05
7.02336e-05
7.95589e-05
4.68226e-05
0.0743541
6.57778e-05
0.0338492
8.4663e-05
0.00133488
0.00376718
6.504e-05
5.9422e-05
8.66264e-05
0.0105271
6.05219e-05
6.81133e-05
6.81226e-05
8.5365e-05
0.0274197
6.14061e-05
8.16118e-05
7.94266e-05
8.65776e-05
6.28133e-05
6.07557e-05
0.0105601
8.58778e-05
0.0134082
0.000103914
6.41647e-05
0.00817865
6.41257e-05
0.0243686
6.10127e-05
0.000416574
5.29923e-05
6.67857e-05
5.15855e-05
7.11402e-05
6.77235e-05
5.59313e-05
0.000179117
8.50002e-05
0.0129665
8.71314e-05
9.60959e-05
6.12721e-05
0.000120803
0.0105309
0.00870031
8.76756e-05
7.35113e-05
7.16589e-05
8.66587e-05
6.54747e-05
0.0186383
8.61795e-05
8.06021e-05
0.0801284
8.45482e-05
8.07952e-05
7.94474e-05
0.00137435
0.0983749
0.0110569
6.05132e-05
6.5496e-05
0.000655723
0.00995932
8.53146e-05
7.05512e-05
0.0340105
0.00970937
4.84811e-05
0.0037458
0.000702886
5.97076e-05
0.000122011
5.04397e-05
6.56379e-05
0.000181689
8.95195e-05
6.28644e-05
9.71022e-05
8.88659e-05
8.59418e-05
5.18317e-05
4.60116e-05
9.04265e-05
8.73263e-05
8.9213e-05
4.54205e-05
7.67266e-05
7.42958e-05
8.75508e-05
9.22071e-05
9.19155e-05
0.000147618
4.58247e-05
0.0610183
8.78645e-05
0.000413307
8.99796e-05
0.00990638
6.04373e-05
7.11841e-05
7.69697e-05
5.33903e-05
0.000128598
9.27158e-05
0.000437932
5.33021e-05
8.91701e-05
6.0004e-05
8.57269e-05
0.00889916
6.09813e-05
0.0104952
0.0541917
0.000106601
0.00147793
5.03995e-05
9.14007e-05
8.60204e-05
8.75763e-05
5.44501e-05
5.3071e-05
0.009214
0.0132743
8.8564e-05
8.9812e-05
6.47729e-05
0.0108986
5.16457e-05
7.17973e-05
6.11428e-05
5.46644e-05
4.66158e-05
0.00689234
6.72531e-05
0.00394975
8.24916e-05
7.9517e-05
0.00948253
0.000239314
8.69723e-05
0.000282565
0.0729543
0.0238786
0.00752471
5.9317e-05
6.2524e-05
5.673e-05
6.47592e-05
8.56458e-05
0.000136738
4.74135e-05
0.017754
4.74192e-05
9.67589e-05
4.4712e-05
8.4966e-05
0.00348344
0.000107035
0.0725168
8.68845e-05
4.46441e-05
0.0102565
0.108763
8.11062e-05
0.0635667
4.65719e-05
9.23902e-05
8.68014e-05
8.71814e-05
0.0756187
0.000261589
0.000108412
8.57045e-05
0.00231643
8.16709e-05
8.37602e-05
0.00071724
8.69999e-05
0.0106301
6.52025e-05
7.42406e-05
8.223e-05
5.27142e-05
0.000554894
0.120211
7.25778e-05
5.51678e-05
8.96486e-05
4.65772e-05
0.0166734
7.28015e-05
0.010461
9.30354e-05
0.000755334
0.000703091
8.50399e-05
0.0551232
0.000187127
5.02372e-05
6.79799e-05
0.0915818
0.000101431
0.0254046
7.43442e-05
6.6385e-05
9.59226e-05
8.57155e-05
0.0124392
0.00014309
0.00760445
0.00363734
0.00779835
8.58041e-05
5.92774e-05
0.0616276
5.92222e-05
0.0141964
0.000298322
9.7959e-05
0.0020581
8.694e-05
9.07472e-05
0.017416
6.17275e-05
5.43064e-05
0.125432
5.25251e-05
6.5601e-05
0.0661284
9.37307e-05
0.0144484
9.35672e-05
7.62873e-05
0.000388801
7.66961e-05
0.000102235
8.80943e-05
0.00229403
0.0558639
5.23505e-05
8.81144e-05
9.28321e-05
0.135691
0.000760652
0.0665195
9.98817e-05
0.128312
8.70258e-05
6.24503e-05
0.000113609
0.118912
5.98183e-05
0.0797021
6.88072e-05
0.0873524
8.80871e-05
8.41198e-05
0.0101729
0.00974375
0.000128314
8.2092e-05
0.00641662
0.0792312
0.0098135
5.45176e-05
5.18431e-05
8.95102e-05
5.06168e-05
5.93216e-05
7.00482e-05
5.01967e-05
8.13224e-05
0.00110863
9.8892e-05
5.22006e-05
7.85912e-05
0.00854516
0.000221386
7.65748e-05
0.113034
7.67156e-05
7.7892e-05
0.139295
6.21813e-05
8.81676e-05
0.011463
8.03455e-05
0.0162154
4.68224e-05
0.0076269
7.53745e-05
0.0728284
7.19667e-05
8.35992e-05
8.04185e-05
0.00687271
0.118214
0.000115604
5.79894e-05
0.000402988
0.013798
0.00604567
0.000496327
0.0107307
0.00132874
0.00150925
9.68257e-05
8.72772e-05
8.56035e-05
8.91105e-05
5.78521e-05
9.09262e-05
4.51281e-05
7.86163e-05
0.071051
0.000104655
0.0887653
0.0750776
0.0648034
0.030308
6.78271e-05
0.0141199
6.70442e-05
4.86826e-05
8.38748e-05
6.02597e-05
7.32581e-05
0.0810165
7.00719e-05
0.0590984
8.70613e-05
0.000638375
0.0106842
4.84807e-05
0.0588968
8.42514e-05
8.57158e-05
7.06611e-05
5.31836e-05
0.0104131
0.0144585
5.69105e-05
0.0164466
7.98393e-05
5.28708e-05
0.00921622
7.69188e-05
4.64591e-05
6.52844e-05
0.000120182
9.04611e-05
9.62933e-05
0.143556
4.6639e-05
0.0159013
8.0301e-05
7.88292e-05
0.000498439
0.00251568
0.1318
8.56054e-05
4.66915e-05
5.91146e-05
0.0146078
8.80549e-05
9.21825e-05
8.8108e-05
6.22147e-05
8.71089e-05
7.4632e-05
7.12726e-05
8.11908e-05
0.0604637
4.84712e-05
6.44786e-05
4.95896e-05
0.00937668
6.47977e-05
0.0018228
0.00700388
9.28585e-05
0.000983338
7.27328e-05
5.05059e-05
0.00539107
0.0647866
7.95787e-05
8.84208e-05
4.70761e-05
8.9092e-05
0.0811324
0.0920123
0.0816335
0.012407
6.4725e-05
5.16629e-05
0.0117517
5.8974e-05
0.0114284
9.35511e-05
5.88534e-05
0.000118825
0.0158788
7.86354e-05
5.19201e-05
6.28954e-05
8.37324e-05
7.65657e-05
5.78039e-05
7.77e-05
6.65602e-05
0.0184826
4.77664e-05
7.11333e-05
0.00326835
0.00103131
5.98374e-05
8.82963e-05
0.0381906
9.69889e-05
0.0679923
0.0850855
8.89668e-05
8.8361e-05
7.67281e-05
0.0221284
0.0111984
7.35864e-05
0.138033
0.0741545
0.00132686
6.58133e-05
7.05974e-05
4.91284e-05
7.60124e-05
0.0595868
0.000245921
0.0339854
0.0651935
6.97918e-05
4.50954e-05
0.136503
8.90952e-05
0.117826
0.0670115
0.000139314
0.00927526
0.00454661
8.43567e-05
6.65319e-05
7.58908e-05
0.0686414
0.0188771
0.00277521
4.60562e-05
9.69251e-05
0.0757222
0.000363623
6.94774e-05
4.72186e-05
8.54596e-05
9.45395e-05
0.000169835
0.0100162
9.25735e-05
0.000101006
0.0724896
5.9791e-05
0.000126218
0.00023929
0.000128219
0.000595261
5.52696e-05
0.0660221
7.74946e-05
0.0188596
5.89866e-05
6.1601e-05
0.137796
8.62926e-05
6.80919e-05
7.99977e-05
0.0128028
0.0214316
5.92867e-05
8.42467e-05
0.00102087
7.56781e-05
9.21068e-05
0.00666674
7.83908e-05
0.00900636
0.0199398
0.00116602
7.66345e-05
0.0674596
8.96136e-05
7.08247e-05
5.95529e-05
5.26036e-05
6.68109e-05
0.063118
8.03253e-05
0.00877323
8.84524e-05
0.000105717
7.39557e-05
0.000100232
9.11787e-05
8.7072e-05
0.00944236
8.67067e-05
0.0113755
7.81785e-05
0.00245417
0.000100359
0.00117635
9.22944e-05
6.44207e-05
5.42021e-05
9.16758e-05
0.000242856
0.0110176
0.000152983
0.000291919
0.00620001
8.39085e-05
8.61612e-05
6.04886e-05
0.0103402
0.0273466
0.0135116
0.000107327
0.00018178
6.01417e-05
0.114371
0.0170989
0.0673089
9.07182e-05
5.94231e-05
0.000105246
0.0743129
6.21369e-05
0.000230523
0.00656882
8.04575e-05
0.00015933
8.42436e-05
0.0732761
0.000283776
0.0701041
9.60398e-05
6.15079e-05
5.91602e-05
0.0797847
4.46915e-05
8.97036e-05
0.032205
9.78613e-05
5.96701e-05
0.000174171
0.00901831
9.51505e-05
6.27731e-05
0.000289174
0.00020495
8.03273e-05
9.1702e-05
0.0176497
0.0165289
0.000124594
0.0109213
0.00109908
8.85367e-05
8.86281e-05
0.00682963
7.04458e-05
6.12163e-05
0.00814558
0.000167648
8.49112e-05
7.41798e-05
7.56542e-05
0.000214923
0.063968
5.93015e-05
0.0669185
8.9841e-05
0.00465148
4.85664e-05
0.0155068
0.07163
6.52317e-05
0.0649833
0.0122461
8.41729e-05
7.21073e-05
0.000442144
9.0757e-05
0.000607321
4.75088e-05
8.51028e-05
9.1724e-05
8.97536e-05
8.61805e-05
0.141488
6.60173e-05
0.000106768
0.0851132
4.47421e-05
0.00716341
9.80869e-05
0.000170019
0.00919222
5.49163e-05
0.0171586
7.31026e-05
0.00379087
8.87704e-05
6.67492e-05
0.000107385
7.54031e-05
8.98575e-05
0.000106548
7.80216e-05
8.92339e-05
7.58555e-05
0.0105768
0.00850674
0.000538955
0.000223261
7.0042e-05
0.000180217
7.71138e-05
9.38365e-05
0.00643776
7.26359e-05
8.32799e-05
0.0121236
8.03996e-05
6.36981e-05
0.0248623
0.000101198
0.0311481
0.0545808
6.07568e-05
8.15642e-05
9.55355e-05
8.81044e-05
0.000104832
0.0834017
4.65114e-05
7.55461e-05
0.0805767
0.000551633
0.00517961
0.0826256
0.142908
5.5071e-05
0.013664
0.00134999
6.77976e-05
4.92185e-05
9.05321e-05
0.0128964
0.000198989
9.06737e-05
8.57497e-05
0.00750619
0.000106829
6.31794e-05
8.9756e-05
6.5716e-05
4.66386e-05
0.0672677
8.30462e-05
0.0129353
0.0576241
4.69867e-05
0.115844
7.12055e-05
9.13276e-05
0.0857248
0.0614484
0.0235193
6.04355e-05
8.88467e-05
0.0126039
9.00496e-05
9.05914e-05
0.0582038
0.0103704
0.128036
0.0151631
9.1717e-05
8.23046e-05
5.85556e-05
6.25994e-05
0.0928422
0.0703643
0.000103908
8.96039e-05
5.91152e-05
0.0133515
0.0092543
8.09016e-05
0.0148544
0.000117936
0.0725805
4.95008e-05
5.85577e-05
0.0103771
4.45919e-05
9.49778e-05
0.000594366
8.79242e-05
8.57116e-05
0.00925419
9.1859e-05
8.07168e-05
9.27484e-05
0.110093
8.9963e-05
0.000142504
6.31973e-05
0.0155686
0.00554023
0.0146724
7.67493e-05
5.88166e-05
0.000100252
0.0175945
0.0129343
8.89874e-05
7.70358e-05
9.83359e-05
4.91767e-05
0.00177568
0.000155078
8.66217e-05
8.49372e-05
7.60177e-05
6.97652e-05
5.97658e-05
7.66179e-05
9.04742e-05
9.24501e-05
0.00744651
0.00623983
0.00870737
9.44583e-05
0.000160171
0.000245998
8.03939e-05
9.31722e-05
0.00064322
7.24562e-05
7.84097e-05
7.25084e-05
9.62722e-05
7.21197e-05
0.000136188
0.00010942
0.0112848
8.85455e-05
0.0545248
0.0199576
0.0674213
0.000366633
0.00985912
9.11111e-05
8.76627e-05
0.125179
6.99126e-05
8.69873e-05
4.66468e-05
4.75633e-05
7.92763e-05
8.28867e-05
9.84499e-05
5.16828e-05
0.000109616
0.00411298
8.63364e-05
0.0154533
6.98633e-05
0.000114304
0.000114544
5.90058e-05
8.59925e-05
0.0148519
0.00014576
8.19662e-05
7.44579e-05
0.0877133
6.32082e-05
0.0135953
0.0676694
0.015316
0.0224168
9.20173e-05
0.000197062
0.040924
0.000915721
8.73109e-05
0.000154472
0.0912505
0.0212906
8.58313e-05
0.0636884
8.67322e-05
8.71062e-05
0.0939813
4.83973e-05
8.77032e-05
6.07011e-05
0.0066071
6.62559e-05
0.00823043
6.10131e-05
0.0017834
6.09142e-05
8.69476e-05
8.92575e-05
7.44456e-05
8.83465e-05
7.50188e-05
6.36313e-05
0.0864892
8.52897e-05
0.0127515
0.00922362
0.0255112
8.85918e-05
0.0835591
6.8851e-05
8.906e-05
0.00220188
0.0671854
6.69836e-05
0.000104119
4.65134e-05
8.68529e-05
9.69994e-05
0.0115736
0.0150541
7.99404e-05
0.0132758
0.0717724
0.000122651
8.91838e-05
5.097e-05
8.57811e-05
8.98599e-05
5.83398e-05
0.0328533
8.74921e-05
0.066242
4.77436e-05
0.143388
0.0157441
0.00104842
0.0647146
8.82047e-05
0.000250481
8.54387e-05
6.90104e-05
7.66552e-05
9.84396e-05
8.33534e-05
7.076e-05
7.85737e-05
0.0713423
0.104306
0.0157699
0.023959
5.98678e-05
5.33024e-05
7.90842e-05
7.28456e-05
7.05911e-05
0.00791927
9.76646e-05
9.87369e-05
8.06154e-05
0.065555
5.83404e-05
5.14987e-05
0.0154922
0.126854
0.0594434
6.68203e-05
8.7225e-05
8.80833e-05
0.000608283
0.0835142
6.72284e-05
0.0592704
6.43338e-05
8.64604e-05
6.57263e-05
4.67431e-05
0.00464829
0.000505801
8.92774e-05
6.51915e-05
0.129874
8.5872e-05
0.0690777
8.94189e-05
4.7022e-05
8.95163e-05
8.71805e-05
8.10064e-05
6.3546e-05
0.0337918
6.10367e-05
0.0120318
8.50049e-05
4.65753e-05
0.0444722
0.000129376
0.0708579
8.6194e-05
7.26315e-05
9.65479e-05
0.0277053
6.48381e-05
9.52647e-05
8.70579e-05
0.0747616
8.41426e-05
0.0126326
0.078093
9.70658e-05
5.70548e-05
8.62357e-05
8.56566e-05
9.87522e-05
9.24906e-05
6.00433e-05
7.3154e-05
0.078084
0.00295915
0.0629379
0.0115705
6.51742e-05
0.0858909
6.96742e-05
0.0997451
9.56304e-05
7.99858e-05
7.67996e-05
0.000217001
0.0156874
0.010905
8.6438e-05
0.0227348
8.29735e-05
7.66505e-05
5.49625e-05
0.000166186
6.27572e-05
0.0415967
5.96082e-05
8.00905e-05
0.079411
7.4161e-05
0.0869471
0.0877834
7.57272e-05
5.6989e-05
0.0769395
0.0780851
8.26932e-05
0.000141499
9.453e-05
8.38324e-05
8.62833e-05
0.0227972
4.59976e-05
8.5687e-05
0.00259446
8.48917e-05
0.000150332
0.0614345
9.93536e-05
0.00123374
0.061542
6.2683e-05
8.73861e-05
7.91861e-05
9.35615e-05
5.7786e-05
8.54052e-05
0.00784278
6.11648e-05
8.60933e-05
8.85556e-05
8.9556e-05
0.0997697
8.24984e-05
5.67966e-05
8.95575e-05
0.000161737
5.80039e-05
7.99331e-05
7.29106e-05
4.45809e-05
8.68225e-05
9.46719e-05
8.5956e-05
6.90185e-05
0.000110133
8.75955e-05
5.25711e-05
9.11278e-05
8.19134e-05
5.27443e-05
0.000263669
6.53869e-05
0.0530626
7.72814e-05
0.00204269
0.000115087
0.0680503
9.31896e-05
0.00901557
0.000116372
0.0921492
0.0680489
8.71431e-05
0.0688829
0.009603
0.00610819
5.26962e-05
6.09055e-05
0.00575084
4.46425e-05
0.000105515
8.20439e-05
0.0145221
8.33747e-05
8.31108e-05
0.000357358
6.0693e-05
0.0769804
0.0764999
0.00145047
0.000106719
0.0903254
0.0502346
0.0751272
0.00344571
6.08838e-05
0.0196722
8.87702e-05
0.0246931
0.0721105
0.0776551
0.0119392
7.9682e-05
0.0639585
8.85312e-05
0.0791547
6.66618e-05
7.84668e-05
5.9354e-05
0.000159797
0.0675316
0.0108864
8.36844e-05
0.0725856