/*--------------------------------*- C++ -*----------------------------------*\
| =========                 |                                                 |
| \\      /  F ield         | OpenFOAM: The Open Source CFD Toolbox           |
|  \\    /   O peration     | Version:  v2012                                 |
|   \\  /    A nd           | Website:  www.openfoam.com                      |
|    \\/     M anipulation  |                                                 |
\*---------------------------------------------------------------------------*/
FoamFile
{
    version     2.0;
    format      ascii;
    class       volScalarField;
    location    "300";
    object      k_0;
}
// * * * * * * * * * * * * * * * * * * * * * * * * * * * * * * * * * * * * * //

dimensions      [0 2 -2 0 0 0 0];


internalField   nonuniform List<scalar> 
18649
(
0.0164688
8.20539e-05
0.0171107
0.000115235
6.40311e-05
0.0219244
8.60028e-05
4.59449e-05
0.0119602
0.00121284
8.00148e-05
7.7051e-05
6.80848e-05
8.63451e-05
0.113317
6.75939e-05
7.83474e-05
8.59167e-05
0.00108795
8.21503e-05
7.68349e-05
0.0700978
0.00771918
0.000108964
0.00117158
0.00618118
0.0111249
0.0142541
7.95712e-05
0.0576491
6.63027e-05
6.59868e-05
7.8214e-05
9.3401e-05
7.8927e-05
8.91376e-05
0.109109
8.3804e-05
7.99933e-05
8.66125e-05
0.0278433
8.90074e-05
0.000210767
0.0139781
0.0136819
0.0662831
0.00545412
9.50404e-05
8.76251e-05
0.000105714
0.000113376
0.00968318
6.91203e-05
0.0303402
5.32001e-05
0.000217937
0.104699
8.77519e-05
4.47288e-05
0.0122929
5.72408e-05
0.000156512
8.96645e-05
0.116272
0.0554573
0.00827033
0.00862313
9.04279e-05
0.0143248
0.0704764
0.0113252
9.3421e-05
8.55233e-05
8.92046e-05
6.57433e-05
0.0135046
0.0187266
7.94044e-05
0.0590017
4.75095e-05
6.53213e-05
8.87083e-05
0.0192137
0.00159893
4.86957e-05
0.000198983
8.51274e-05
8.427e-05
4.78833e-05
0.0269423
0.117304
0.000154744
0.000109386
0.000110381
6.37973e-05
6.89604e-05
8.934e-05
0.000105141
0.0052663
5.70872e-05
0.0174788
6.47244e-05
0.00290895
4.5999e-05
0.0121381
0.0125338
0.0204562
0.00258609
0.000204166
8.54158e-05
7.85828e-05
9.54533e-05
8.58712e-05
6.94201e-05
6.39452e-05
0.000101783
9.03196e-05
9.55239e-05
6.66626e-05
8.48077e-05
5.64067e-05
0.000103966
0.0126263
6.95467e-05
4.82243e-05
8.96229e-05
0.0738291
7.36878e-05
7.96769e-05
4.88662e-05
8.69756e-05
0.115313
0.000198611
0.000233763
7.72031e-05
0.0654359
0.0148062
0.00374641
0.0148137
0.0141426
9.46769e-05
6.93892e-05
4.47241e-05
7.52477e-05
0.0121514
5.57565e-05
9.02467e-05
0.000246681
0.0123928
8.81114e-05
0.018547
0.000148626
7.12441e-05
8.55183e-05
0.000101058
0.000105011
8.80846e-05
6.78037e-05
6.71806e-05
0.00726373
0.0198162
0.0175559
8.84377e-05
0.0145675
0.0138802
6.64015e-05
9.82632e-05
0.0116873
6.04687e-05
5.65687e-05
8.54301e-05
7.1064e-05
6.60254e-05
6.74968e-05
0.000103826
0.00888225
0.0120311
8.77311e-05
0.0118449
0.0206315
7.51267e-05
0.0149371
5.41305e-05
6.79531e-05
7.66432e-05
5.41226e-05
5.32119e-05
0.000102209
5.64377e-05
4.70442e-05
8.91247e-05
0.0188418
0.000142512
8.58632e-05
8.78899e-05
6.60943e-05
5.40055e-05
5.39615e-05
0.0077775
9.51394e-05
4.71901e-05
6.36408e-05
0.00798136
8.5664e-05
7.50972e-05
7.11802e-05
0.000233702
0.0176936
9.09439e-05
6.87388e-05
5.65314e-05
8.50469e-05
5.34499e-05
9.01314e-05
0.0201901
9.0987e-05
8.61013e-05
8.89869e-05
6.75965e-05
0.00362942
8.41107e-05
4.8881e-05
0.0654415
0.000105382
0.01647
9.74357e-05
0.000125109
0.000492127
0.000107829
8.62868e-05
4.69951e-05
6.57822e-05
9.50356e-05
7.79164e-05
0.0109528
7.48292e-05
8.82875e-05
7.64597e-05
5.36147e-05
4.45472e-05
8.803e-05
0.0174941
9.79534e-05
0.0596828
0.0148586
7.46629e-05
8.58171e-05
7.87122e-05
0.0771886
0.000102778
7.48113e-05
0.000325675
7.43683e-05
6.60943e-05
9.22954e-05
6.64773e-05
6.86081e-05
5.68303e-05
8.62575e-05
5.84256e-05
0.106854
5.16416e-05
5.05994e-05
8.52555e-05
5.30251e-05
0.000123408
5.64588e-05
0.000615552
6.64153e-05
6.10622e-05
0.000161113
0.00131976
8.98403e-05
6.09993e-05
0.111258
0.000104566
8.53093e-05
9.24252e-05
8.71399e-05
0.000158357
0.0002806
8.91016e-05
0.0183043
8.57262e-05
4.87382e-05
0.000191203
9.40926e-05
7.64879e-05
0.0145528
4.71941e-05
7.56607e-05
0.0209751
8.60885e-05
7.47582e-05
0.0718348
0.0783376
0.111218
0.0727973
9.46162e-05
6.74385e-05
6.36418e-05
0.0141727
0.000103086
0.000162659
0.000283644
6.46329e-05
0.00118532
0.000121477
9.51591e-05
0.000110698
7.59506e-05
0.00583084
4.48933e-05
5.31389e-05
8.58753e-05
6.50297e-05
8.917e-05
0.0379374
0.0180489
5.3269e-05
0.061734
6.02452e-05
5.65113e-05
7.92699e-05
0.0715414
7.7055e-05
0.0663206
0.00741091
6.75417e-05
8.74553e-05
8.73492e-05
0.0114747
0.00161539
6.33316e-05
0.0140302
7.51276e-05
0.00503475
6.1762e-05
9.85943e-05
0.000241751
7.83589e-05
0.00584361
0.0376002
0.0097722
0.00138625
0.000120393
0.000105346
7.92351e-05
0.0737418
0.00102362
8.81806e-05
0.000137835
5.17146e-05
7.40335e-05
9.20297e-05
8.77424e-05
7.70654e-05
0.00438769
6.45759e-05
5.29849e-05
8.46441e-05
0.0170043
0.000164423
6.84758e-05
0.00616064
0.0155268
6.364e-05
4.95405e-05
0.00526883
5.34892e-05
9.96119e-05
0.00147562
4.95659e-05
6.94912e-05
0.114098
8.67251e-05
0.000140478
0.0033679
0.00483911
0.000690239
0.000868983
5.34666e-05
7.39375e-05
0.00116138
0.00448001
8.52878e-05
7.95104e-05
6.70558e-05
8.73e-05
7.96661e-05
0.00148472
6.61126e-05
5.49627e-05
8.5568e-05
0.0148276
0.00221022
6.4199e-05
4.75879e-05
5.88594e-05
6.07161e-05
0.000289829
0.00191073
9.10549e-05
0.000114065
4.1869e-05
5.92817e-05
6.72788e-05
0.000711712
5.34796e-05
0.000104921
9.73899e-05
0.000113028
0.000160264
8.7658e-05
0.000303655
9.22439e-05
0.0127417
8.38976e-05
8.64057e-05
8.92731e-05
9.39131e-05
5.45239e-05
0.000107158
0.00576269
0.00805753
4.4425e-05
0.000220908
0.000678098
9.22458e-05
0.0764382
0.00367796
5.56788e-05
8.21754e-05
8.24984e-05
0.108725
8.07216e-05
7.38284e-05
0.00833177
7.952e-05
6.36154e-05
5.54961e-05
4.46588e-05
8.59063e-05
9.84113e-05
8.75937e-05
7.41012e-05
8.6205e-05
0.000160398
0.0224459
7.35188e-05
8.90818e-05
0.0703886
8.9255e-05
0.0107333
9.39326e-05
7.18394e-05
7.75571e-05
6.01519e-05
0.0526284
0.000225639
6.597e-05
0.0423251
8.04318e-05
0.0123509
0.0123732
6.81811e-05
4.45976e-05
4.49564e-05
7.36437e-05
8.47904e-05
7.58534e-05
5.06609e-05
9.01085e-05
0.000109128
0.000105856
0.000121778
8.52265e-05
7.3989e-05
9.39181e-05
0.0703159
9.53169e-05
0.0577472
8.4487e-05
5.69708e-05
5.1597e-05
0.021996
7.48526e-05
0.00770774
0.0664186
7.64554e-05
7.55942e-05
0.0107096
4.5389e-05
9.13065e-05
6.71355e-05
9.42074e-05
0.000102616
6.7976e-05
5.14793e-05
7.01843e-05
0.00010769
8.89887e-05
8.55477e-05
7.67761e-05
0.00823129
0.00405837
0.015167
4.68757e-05
6.69439e-05
0.0043569
6.31741e-05
8.51055e-05
6.53762e-05
0.000200593
0.000199239
8.62171e-05
0.0144397
7.66203e-05
0.000120292
6.67587e-05
6.81472e-05
8.3208e-05
8.78807e-05
0.066353
6.79033e-05
0.0103357
0.00615172
0.00177056
0.0106618
8.41473e-05
5.87565e-05
0.00151518
5.54224e-05
5.86241e-05
0.000186132
8.53491e-05
4.46525e-05
7.77938e-05
0.0683998
8.86249e-05
0.000146546
6.61525e-05
0.0753447
7.51988e-05
0.000108985
0.000194816
0.00484166
7.67168e-05
9.50165e-05
9.61519e-05
6.62777e-05
0.0158985
6.49462e-05
0.000116223
8.49273e-05
0.00391282
3.64839e-05
0.0101925
7.54868e-05
7.36641e-05
0.0105816
8.90972e-05
0.000209217
9.34903e-05
6.04127e-05
6.821e-05
0.107658
0.000112652
9.09545e-05
0.000106695
8.90757e-05
0.000109474
4.55071e-05
6.48014e-05
0.0140202
4.58311e-05
0.0141658
8.46676e-05
0.00876105
8.91983e-05
7.02424e-05
7.47413e-05
0.039934
5.27083e-05
5.20855e-05
8.93982e-05
8.71855e-05
0.000343279
0.0659458
7.63982e-05
7.20311e-05
6.27652e-05
0.00131339
5.43346e-05
0.0067735
7.43022e-05
8.91436e-05
0.000363888
6.7035e-05
0.00774751
5.1503e-05
0.0771366
5.82692e-05
4.85199e-05
6.66671e-05
0.000114573
5.94042e-05
0.00852811
8.80682e-05
0.0121789
8.72075e-05
0.065892
5.24395e-05
7.51845e-05
0.000183106
8.27926e-05
6.47964e-05
6.09502e-05
0.000255225
0.000102903
6.82321e-05
0.00054117
0.000165809
7.37706e-05
9.12277e-05
9.30391e-05
0.0219544
0.0665302
0.0112226
0.0721176
8.81729e-05
0.0157445
0.0804934
8.18039e-05
0.00010742
0.016825
8.52369e-05
0.000191955
8.30868e-05
0.000951083
8.9031e-05
0.00116449
0.0104238
7.38993e-05
0.000196273
6.2362e-05
8.3903e-05
5.5233e-05
8.48132e-05
0.0138171
5.1487e-05
0.000151247
0.00820127
0.000115384
8.55281e-05
0.0593107
8.51079e-05
7.43815e-05
0.0223729
7.45745e-05
7.03968e-05
0.0124594
5.13707e-05
8.46672e-05
0.000111878
6.72085e-05
6.4311e-05
8.84998e-05
9.08777e-05
5.9729e-05
9.32227e-05
9.27639e-05
7.21351e-05
6.57163e-05
9.243e-05
0.00719698
0.000101845
0.000174927
0.00843524
0.00788411
8.13197e-05
0.000314515
0.0807273
8.64654e-05
0.00012256
6.55059e-05
9.61234e-05
8.53991e-05
6.98214e-05
7.50947e-05
6.451e-05
8.85343e-05
0.0193195
0.0983307
0.00662314
8.97432e-05
5.43347e-05
0.134863
5.16507e-05
0.0167859
8.47731e-05
0.0104585
8.99999e-05
0.127322
6.07082e-05
0.00194499
6.44851e-05
0.0162649
7.48946e-05
0.00244226
0.000329059
9.03489e-05
0.0180447
5.92395e-05
0.0684922
6.07005e-05
9.7195e-05
0.0356857
5.67116e-05
4.72512e-05
6.85018e-05
5.25345e-05
0.000152911
0.129322
7.86173e-05
8.50504e-05
0.00650876
0.00545685
6.4485e-05
0.000127279
5.64541e-05
7.8785e-05
0.0190058
0.0115646
9.53165e-05
0.000101633
8.89672e-05
0.0185929
6.23012e-05
6.53881e-05
0.00723985
0.00023094
4.85292e-05
9.56665e-05
0.000141613
8.83711e-05
6.56964e-05
4.64004e-05
0.0289196
0.000100364
5.29728e-05
7.88726e-05
0.0817142
8.71657e-05
0.000103041
0.000145822
8.99724e-05
0.0117554
8.60946e-05
5.34108e-05
4.84965e-05
8.44759e-05
0.00012741
8.93222e-05
5.51684e-05
5.83668e-05
0.000117171
6.53521e-05
0.00825804
0.00741628
8.14944e-05
9.61953e-05
0.000184191
7.31185e-05
5.15301e-05
5.20814e-05
4.56593e-05
0.00010444
6.56502e-05
0.0678994
8.02222e-05
8.38478e-05
5.22452e-05
8.63859e-05
9.01051e-05
5.52334e-05
0.000245174
0.0489584
0.0159205
0.0523338
0.0575188
0.00776865
6.52516e-05
8.69778e-05
0.000636273
9.90131e-05
0.00953955
8.67889e-05
0.00012545
0.0118687
0.0180844
0.0111779
8.14641e-05
5.28294e-05
5.58776e-05
8.90169e-05
7.16497e-05
0.0059662
0.000138893
4.95692e-05
8.78314e-05
9.45006e-05
9.15937e-05
0.0751042
0.000222164
0.098002
7.93402e-05
0.00856363
8.0274e-05
8.97092e-05
9.09683e-05
4.74122e-05
6.77907e-05
0.0182353
7.15394e-05
0.000120431
8.96875e-05
7.89588e-05
8.24246e-05
5.15919e-05
0.00991622
0.0298881
9.06941e-05
0.00810054
8.84169e-05
0.000123075
0.000115274
0.000174785
6.85556e-05
8.96588e-05
4.46568e-05
9.74346e-05
8.80275e-05
6.09654e-05
5.12576e-05
4.95278e-05
4.55783e-05
0.077897
8.66394e-05
9.03884e-05
8.27492e-05
6.756e-05
7.95651e-05
6.40235e-05
0.00449897
5.91868e-05
5.12657e-05
7.60354e-05
5.23124e-05
6.529e-05
0.00918894
8.66314e-05
0.0155306
5.3419e-05
8.54634e-05
6.7795e-05
6.69639e-05
6.35732e-05
4.6336e-05
5.2137e-05
0.000118732
0.000744292
0.00765613
0.0697809
9.45329e-05
8.80762e-05
5.90983e-05
0.0559015
4.59353e-05
0.00262176
0.000136978
0.124969
5.27702e-05
0.00181684
0.00101466
8.67752e-05
7.23319e-05
9.62906e-05
0.0624678
9.54766e-05
9.61283e-05
8.43426e-05
0.023713
0.0667526
4.95809e-05
0.0208871
8.99762e-05
6.12212e-05
6.7869e-05
6.98853e-05
7.87977e-05
4.61809e-05
0.0154187
0.0159306
4.8993e-05
7.97115e-05
7.6224e-05
7.36563e-05
6.61236e-05
0.0808995
0.0555803
0.000137185
4.64996e-05
4.67004e-05
4.46284e-05
0.0704231
0.0317398
0.000452102
0.000148908
5.32262e-05
0.0176227
0.0189403
0.125667
4.66684e-05
5.10239e-05
0.000222877
8.59707e-05
0.0657433
7.12616e-05
6.21208e-05
5.37848e-05
9.81312e-05
8.6191e-05
4.8485e-05
8.02753e-05
6.35403e-05
6.52459e-05
0.00010475
0.0360787
0.0101289
0.000122087
0.0118254
8.86661e-05
0.0001227
8.39327e-05
5.35246e-05
7.10636e-05
0.0107674
0.0130536
0.0662945
0.131275
7.02121e-05
5.10295e-05
8.60748e-05
8.79136e-05
0.00982741
0.000112649
5.1911e-05
5.42408e-05
0.108059
8.36912e-05
8.98933e-05
7.85198e-05
0.102072
0.067411
0.000198591
0.00770006
6.58298e-05
9.68228e-05
5.19035e-05
0.0074863
9.13191e-05
8.42676e-05
0.010512
0.000457635
7.53881e-05
5.1583e-05
8.8566e-05
0.132988
0.00801426
0.0744264
5.915e-05
8.3555e-05
0.017312
6.76706e-05
4.46319e-05
8.95483e-05
0.00469566
4.85417e-05
6.64899e-05
0.00518633
0.0580644
7.22263e-05
0.00139992
7.36942e-05
0.0149043
4.53094e-05
8.88007e-05
0.0221501
0.0785755
0.0160002
4.60439e-05
8.50957e-05
0.0699994
7.79996e-05
5.17225e-05
0.0578219
0.103637
5.53928e-05
5.95893e-05
8.93803e-05
0.0078245
0.00779716
0.0365501
0.000121049
8.66924e-05
8.76682e-05
8.91469e-05
0.00604885
0.00012134
0.0827351
0.000105875
7.21077e-05
0.065809
0.00471734
0.0256607
0.000303083
0.11958
5.22667e-05
8.02299e-05
0.0695823
0.00014754
9.72344e-05
8.89156e-05
8.69099e-05
0.00853052
8.39791e-05
0.0222619
8.03857e-05
0.000360192
7.92431e-05
0.00268294
6.52771e-05
0.007837
0.000101686
8.83464e-05
0.0327679
0.000105278
5.36756e-05
0.000420793
0.0822774
9.12885e-05
7.82797e-05
0.000647659
6.33964e-05
0.0797554
8.02033e-05
0.0151011
7.17894e-05
4.89253e-05
7.5341e-05
0.00422703
5.49807e-05
5.15303e-05
5.99938e-05
0.0053299
0.0364871
8.65459e-05
7.50379e-05
8.50761e-05
0.00320264
9.09072e-05
8.94386e-05
0.0768374
0.0225698
0.0150957
7.68263e-05
5.1894e-05
0.00970229
4.67123e-05
0.01037
0.00543959
7.23662e-05
4.52293e-05
8.73821e-05
0.0274286
0.103571
0.030225
4.62344e-05
7.31939e-05
0.0130466
9.81589e-05
0.00173029
0.0619917
0.00500769
6.38147e-05
8.80325e-05
0.0175167
8.57557e-05
4.60718e-05
4.66575e-05
8.36942e-05
0.00581239
7.15948e-05
0.00546624
6.27212e-05
0.0666282
0.000163344
4.4582e-05
9.61409e-05
0.00020484
0.0756458
8.7767e-05
8.44941e-05
7.75506e-05
6.37889e-05
0.0546885
0.000111959
0.000395152
9.31891e-05
0.00915786
0.140025
8.97632e-05
8.78515e-05
6.33767e-05
6.38899e-05
8.26845e-05
6.83384e-05
0.0104831
9.40035e-05
0.0178161
0.000391215
6.08038e-05
0.0126551
0.00875499
9.86221e-05
9.72668e-05
0.118655
8.34845e-05
0.00787198
0.00232658
8.76675e-05
5.49179e-05
0.0163473
0.0139125
0.000200056
6.95012e-05
8.03218e-05
6.76038e-05
8.34129e-05
7.19669e-05
0.000641364
8.21257e-05
0.0123583
0.00969932
9.26252e-05
6.03929e-05
4.66892e-05
0.0147892
4.85047e-05
0.0791862
9.2054e-05
0.00189309
7.90602e-05
8.00664e-05
7.43581e-05
0.0103794
4.48525e-05
0.00713599
7.60119e-05
8.55353e-05
6.95897e-05
8.24739e-05
4.59039e-05
5.61725e-05
6.41018e-05
8.7157e-05
0.0238091
0.000525201
6.74403e-05
0.0105227
4.50794e-05
6.82332e-05
0.0962607
7.20233e-05
4.59678e-05
0.00310567
6.76677e-05
0.000102634
0.00474755
7.52854e-05
4.83916e-05
0.00718746
7.41078e-05
0.0150997
4.73689e-05
0.000131574
0.133175
8.52878e-05
4.72296e-05
9.65605e-05
5.32629e-05
5.28076e-05
5.60174e-05
0.00046334
4.86698e-05
0.00697263
0.00240448
6.69229e-05
9.88696e-05
0.0957982
8.99035e-05
8.69885e-05
8.4306e-05
8.77633e-05
9.42647e-05
7.33411e-05
7.9676e-05
5.33258e-05
0.0222029
7.24193e-05
7.49324e-05
6.75242e-05
7.7317e-05
8.96887e-05
0.00705297
0.00261439
4.49684e-05
0.0132155
0.000160607
0.000725532
0.0149361
0.0383677
6.68038e-05
5.62633e-05
8.77718e-05
9.21098e-05
0.0103942
5.38334e-05
0.0128319
7.20891e-05
0.000105353
6.82073e-05
5.24411e-05
0.00966699
7.6051e-05
6.44114e-05
0.102006
8.63976e-05
8.73452e-05
6.6438e-05
0.00010746
0.00805773
8.91999e-05
0.0183219
0.0701121
5.17572e-05
7.3806e-05
7.00777e-05
0.00120742
7.96142e-05
8.59657e-05
0.000102345
7.34416e-05
0.0104467
0.00999242
0.000256803
0.0664229
0.0792483
0.00850433
0.000134992
7.02894e-05
0.066585
0.000250528
7.18935e-05
7.19287e-05
6.32621e-05
0.00212041
8.52808e-05
8.75815e-05
0.0154584
0.0118153
9.42135e-05
5.05943e-05
6.01218e-05
0.0117565
7.77186e-05
8.53497e-05
8.63376e-05
0.0104563
9.43251e-05
0.00840551
8.64857e-05
0.000231419
0.000103126
8.9814e-05
0.0104231
8.18341e-05
8.01138e-05
7.7188e-05
6.66126e-05
6.00917e-05
0.00979316
0.0786316
7.2503e-05
4.49191e-05
7.36759e-05
6.72228e-05
0.0170338
8.5373e-05
7.40712e-05
6.32393e-05
8.36543e-05
6.66136e-05
7.17639e-05
8.18328e-05
5.89784e-05
0.000215389
0.000361827
7.79567e-05
8.95598e-05
4.65585e-05
8.70075e-05
0.000875277
0.0169113
6.56157e-05
9.25911e-05
6.08644e-05
0.0837395
9.01595e-05
0.0152377
4.58779e-05
0.0581966
7.5961e-05
8.28212e-05
0.00139539
4.86092e-05
0.0733554
9.35608e-05
0.101149
8.3945e-05
0.00902036
5.07964e-05
0.0579092
0.000386129
5.96034e-05
0.0183063
5.98878e-05
4.57679e-05
0.0153966
6.0797e-05
7.39227e-05
0.000193611
9.76745e-05
7.24133e-05
6.0632e-05
4.47105e-05
6.69103e-05
0.0156176
7.55093e-05
5.08132e-05
0.0537322
8.83719e-05
0.0150235
6.21327e-05
8.55274e-05
6.08046e-05
8.06161e-05
0.00124232
0.000106759
0.0130805
0.0124947
0.000102944
7.48887e-05
6.0181e-05
6.5781e-05
0.0921736
7.55918e-05
7.4425e-05
5.98294e-05
8.59536e-05
0.0007431
0.0657467
6.01565e-05
0.0180187
7.07868e-05
9.57223e-05
4.72146e-05
8.57601e-05
8.17734e-05
0.0128574
7.24542e-05
0.000180803
0.0150847
7.76011e-05
6.40709e-05
0.0145294
0.0825682
4.47968e-05
0.109553
5.35356e-05
0.0298859
8.97984e-05
0.00209678
0.0079003
9.83076e-05
6.32692e-05
0.00012269
6.77709e-05
8.12964e-05
9.24663e-05
9.51898e-05
8.5492e-05
0.00873678
0.0142517
8.9868e-05
7.68761e-05
7.5444e-05
6.46917e-05
0.000118446
7.75696e-05
7.07248e-05
8.36211e-05
6.05318e-05
9.28409e-05
0.000306776
8.38433e-05
7.93663e-05
9.50256e-05
0.0745502
0.000468692
8.96927e-05
0.023176
0.00127603
0.000127054
0.0947677
6.47158e-05
8.88152e-05
7.46396e-05
6.63692e-05
7.93275e-05
0.130699
7.82735e-05
8.98509e-05
6.80796e-05
8.62976e-05
0.0088331
4.95514e-05
0.00549822
9.0485e-05
0.0787793
8.91685e-05
0.0158089
5.35919e-05
9.91164e-05
8.66009e-05
7.95641e-05
8.53433e-05
7.71319e-05
0.00139129
8.88073e-05
8.85902e-05
4.54738e-05
0.00928747
0.0572845
7.48154e-05
6.21854e-05
0.00858456
0.0136218
0.0364756
5.92153e-05
7.25571e-05
0.0824427
8.88896e-05
0.00786724
0.000514241
4.90443e-05
8.60191e-05
0.00749028
7.95523e-05
8.96871e-05
5.77882e-05
0.000248974
9.31621e-05
0.00017809
6.458e-05
0.000685923
0.000997404
0.0817775
0.0444138
7.97713e-05
7.17004e-05
7.02333e-05
7.95571e-05
4.68226e-05
0.0742383
6.57778e-05
0.0336799
8.46628e-05
0.00130326
0.0037365
6.50766e-05
5.94221e-05
8.66263e-05
0.010523
6.05219e-05
6.81133e-05
6.81225e-05
8.49259e-05
0.0266743
6.1406e-05
8.16118e-05
7.94249e-05
8.65775e-05
6.28133e-05
6.07558e-05
0.0106208
8.58787e-05
0.0137887
0.000103894
6.4178e-05
0.00812767
6.41232e-05
0.0240375
6.10126e-05
0.000434796
5.29925e-05
6.67857e-05
5.15855e-05
7.11402e-05
6.752e-05
5.59312e-05
0.000177707
8.49986e-05
0.0133667
8.71314e-05
9.60961e-05
6.1272e-05
0.00012083
0.0105243
0.0087517
8.76758e-05
7.35113e-05
7.16589e-05
8.66611e-05
6.54747e-05
0.0190039
8.618e-05
8.05971e-05
0.0801222
8.45479e-05
8.07952e-05
7.94474e-05
0.00147706
0.0985093
0.0111149
6.05133e-05
6.5496e-05
0.000652811
0.00997295
8.53146e-05
7.05512e-05
0.034076
0.0097081
4.84811e-05
0.00365662
0.000761796
5.97076e-05
0.000122085
5.04396e-05
6.56381e-05
0.00018354
8.95194e-05
6.28643e-05
9.71013e-05
8.887e-05
8.59424e-05
5.18317e-05
4.60116e-05
9.04269e-05
8.73268e-05
8.92134e-05
4.54204e-05
7.67268e-05
7.42961e-05
8.75508e-05
9.22151e-05
9.19171e-05
0.000147666
4.58247e-05
0.0610112
8.78644e-05
0.000412608
8.99807e-05
0.00989005
6.04374e-05
7.11842e-05
7.69697e-05
5.33903e-05
0.000128521
9.27176e-05
0.000434374
5.33021e-05
8.917e-05
5.99903e-05
8.57278e-05
0.00904528
6.09606e-05
0.0104953
0.054167
0.000106571
0.00150598
5.03994e-05
9.14048e-05
8.60205e-05
8.75768e-05
5.445e-05
5.30711e-05
0.00921306
0.0132676
8.85689e-05
8.9812e-05
6.47731e-05
0.0108972
5.16457e-05
7.17973e-05
6.11434e-05
5.46644e-05
4.66158e-05
0.00686781
6.72534e-05
0.00387125
8.24867e-05
7.95091e-05
0.0094619
0.000245005
8.69736e-05
0.000274879
0.0729763
0.0239707
0.0074801
5.93172e-05
6.2524e-05
5.673e-05
6.4759e-05
8.56458e-05
0.000136847
4.74138e-05
0.0177608
4.74194e-05
9.67576e-05
4.47119e-05
8.49658e-05
0.0034406
0.000107057
0.0727959
8.68844e-05
4.4644e-05
0.0101461
0.108672
8.11062e-05
0.0637593
4.65719e-05
9.23939e-05
8.6804e-05
8.71813e-05
0.0758637
0.000261072
0.000108412
8.57044e-05
0.00231698
8.16683e-05
8.37601e-05
0.000729208
8.69999e-05
0.010631
6.52062e-05
7.42405e-05
8.22292e-05
5.27143e-05
0.00055234
0.120089
7.2578e-05
5.51678e-05
8.96587e-05
4.65772e-05
0.0166286
7.28019e-05
0.0104631
9.30397e-05
0.00075366
0.000694782
8.50352e-05
0.0551161
0.000184323
5.02371e-05
6.78663e-05
0.0911193
0.000101434
0.0254745
7.43455e-05
6.63908e-05
9.59235e-05
8.57163e-05
0.0122876
0.000143136
0.00763439
0.00359897
0.00778784
8.58041e-05
5.92775e-05
0.0616091
5.90039e-05
0.0142197
0.000298309
9.79563e-05
0.00202649
8.69405e-05
9.07564e-05
0.0178288
6.16813e-05
5.43064e-05
0.125331
5.25252e-05
6.55224e-05
0.0661241
9.37325e-05
0.014462
9.35777e-05
7.62872e-05
0.000377541
7.66968e-05
0.000102235
8.80943e-05
0.0022631
0.0558664
5.23507e-05
8.81144e-05
9.28338e-05
0.135629
0.000761588
0.0665279
9.98757e-05
0.128209
8.70271e-05
6.24503e-05
0.000112608
0.118917
5.98184e-05
0.0796368
6.86205e-05
0.0874359
8.8087e-05
8.41193e-05
0.010165
0.0098017
0.000128229
8.20902e-05
0.00639174
0.0791989
0.00979711
5.45175e-05
5.18432e-05
8.95106e-05
5.06168e-05
5.93217e-05
7.00482e-05
5.01966e-05
8.13153e-05
0.0010956
9.8921e-05
5.22005e-05
7.85912e-05
0.00852723
0.000221336
7.6575e-05
0.112816
7.67156e-05
7.78905e-05
0.139273
6.21814e-05
8.81676e-05
0.011518
8.03453e-05
0.0162334
4.68225e-05
0.00767766
7.53754e-05
0.0730898
7.17711e-05
8.35984e-05
8.04185e-05
0.00684928
0.118084
0.000115582
5.79885e-05
0.000398757
0.0137362
0.00610793
0.000493196
0.0111425
0.00137547
0.00153094
9.68302e-05
8.72771e-05
8.56035e-05
8.91105e-05
5.78521e-05
9.09286e-05
4.51281e-05
7.86146e-05
0.0710339
0.000104645
0.0886224
0.0749564
0.0648175
0.0296074
6.78272e-05
0.0141578
6.70495e-05
4.86827e-05
8.38739e-05
6.02597e-05
7.3258e-05
0.0808956
7.00717e-05
0.0590939
8.70619e-05
0.00064037
0.0105416
4.84808e-05
0.0588756
8.4251e-05
8.57164e-05
7.06611e-05
5.31836e-05
0.0104037
0.0145052
5.69104e-05
0.0166047
7.98393e-05
5.28708e-05
0.00921127
7.69188e-05
4.64592e-05
6.52794e-05
0.000120147
9.04607e-05
9.62928e-05
0.143609
4.66391e-05
0.0159595
8.03011e-05
7.88293e-05
0.000498064
0.00245697
0.132117
8.5606e-05
4.66916e-05
5.91146e-05
0.0145405
8.94352e-05
9.21904e-05
8.81119e-05
6.22147e-05
8.71089e-05
7.4632e-05
7.12723e-05
8.22339e-05
0.0604463
4.84127e-05
6.44783e-05
4.95895e-05
0.00933813
6.47891e-05
0.00180781
0.00703958
9.28638e-05
0.00103702
7.27328e-05
5.06561e-05
0.00522457
0.0647992
7.95782e-05
8.84251e-05
4.70761e-05
8.89943e-05
0.0811156
0.0931336
0.0814973
0.0124256
6.47247e-05
5.16629e-05
0.0117943
5.8974e-05
0.0113914
9.35534e-05
5.88534e-05
0.00011879
0.0166458
7.86355e-05
5.19201e-05
6.28954e-05
8.37275e-05
7.65658e-05
5.78039e-05
7.76976e-05
6.65586e-05
0.0185963
4.77664e-05
7.1133e-05
0.00317806
0.00102089
5.98375e-05
8.82993e-05
0.038525
9.70137e-05
0.0680324
0.085024
8.89668e-05
8.83609e-05
7.67283e-05
0.0221812
0.0111676
7.35864e-05
0.137982
0.074176
0.00130949
6.58133e-05
7.05974e-05
4.91283e-05
7.60124e-05
0.0595621
0.000252956
0.0340347
0.0652059
6.97916e-05
4.50953e-05
0.136448
8.90951e-05
0.117787
0.0670469
0.000139305
0.00962067
0.00454737
8.43563e-05
6.65316e-05
7.5891e-05
0.0686046
0.0186591
0.00246987
4.60562e-05
9.69252e-05
0.0756707
0.000363145
6.94774e-05
4.72188e-05
8.54601e-05
9.4541e-05
0.000169793
0.0102653
9.25813e-05
0.000100994
0.0725189
5.9778e-05
0.000126292
0.00025613
0.0001281
0.000595195
5.52705e-05
0.0660196
7.74947e-05
0.0184905
5.89873e-05
6.1601e-05
0.137786
8.62925e-05
6.80919e-05
7.99974e-05
0.0127263
0.0207028
5.92869e-05
8.42466e-05
0.000995145
7.56795e-05
9.21083e-05
0.00661103
7.83886e-05
0.00908679
0.0196201
0.00107731
7.66348e-05
0.0673924
8.9623e-05
7.08243e-05
5.9553e-05
5.26036e-05
6.68109e-05
0.0631
8.03249e-05
0.00874474
8.84523e-05
0.000105688
7.3956e-05
0.000100222
9.11888e-05
8.7072e-05
0.00941997
8.67066e-05
0.0113933
7.81785e-05
0.00249314
0.00010035
0.00117686
9.22908e-05
6.44806e-05
5.41552e-05
9.168e-05
0.000242499
0.0110282
0.000152783
0.000291884
0.00615447
8.39084e-05
8.61627e-05
6.0489e-05
0.0101854
0.027192
0.0135512
0.000107305
0.000181581
6.01417e-05
0.115139
0.017089
0.0673015
9.07191e-05
5.94232e-05
0.000105219
0.0741947
6.21369e-05
0.000230176
0.00655972
8.04573e-05
0.000174084
8.42432e-05
0.0733142
0.00027591
0.0701681
9.60464e-05
6.15078e-05
5.91603e-05
0.0796467
4.46914e-05
8.97055e-05
0.0321642
9.78868e-05
5.96701e-05
0.000174122
0.00898811
9.51522e-05
6.2773e-05
0.000289149
0.00020482
8.0327e-05
9.17089e-05
0.0175807
0.0162855
0.000124487
0.0109135
0.00114575
8.85426e-05
8.8628e-05
0.00686172
7.04458e-05
6.12163e-05
0.00811123
0.000167404
8.49109e-05
7.41797e-05
7.56543e-05
0.000214592
0.0638944
5.93016e-05
0.0669208
8.98421e-05
0.00460481
4.85584e-05
0.0153413
0.0716304
6.52351e-05
0.0649909
0.0122971
8.41717e-05
7.21073e-05
0.000426026
9.07576e-05
0.000591547
4.75088e-05
8.51028e-05
9.17257e-05
8.97548e-05
8.61811e-05
0.141467
6.60173e-05
0.000106748
0.0850174
4.4742e-05
0.00705248
9.80865e-05
0.000169969
0.00919153
5.47972e-05
0.0170886
7.31026e-05
0.003929
8.87776e-05
6.67491e-05
0.00010737
7.5404e-05
8.98675e-05
0.000106531
7.80217e-05
8.92341e-05
7.58557e-05
0.01059
0.00847467
0.000537798
0.00022289
7.00419e-05
0.000179967
7.7114e-05
9.38383e-05
0.0067476
7.26359e-05
8.32802e-05
0.0121471
8.03996e-05
6.37407e-05
0.0245056
0.000101189
0.0310341
0.0545358
6.07569e-05
8.15622e-05
9.55361e-05
8.81044e-05
0.000104822
0.083485
4.65114e-05
7.55462e-05
0.0805463
0.000558287
0.00513416
0.0826132
0.142918
5.50723e-05
0.0136708
0.00132296
6.77978e-05
4.92185e-05
9.05438e-05
0.0127689
0.000195091
9.06744e-05
8.57496e-05
0.00746727
0.000106883
6.31788e-05
8.97574e-05
6.5716e-05
4.66386e-05
0.0667214
8.30414e-05
0.0129774
0.0577446
4.69867e-05
0.116612
7.12055e-05
9.13313e-05
0.0865622
0.0614442
0.0238498
6.04356e-05
8.88537e-05
0.01265
9.00497e-05
9.05921e-05
0.0581177
0.0103702
0.128287
0.0151958
9.23099e-05
8.23046e-05
5.85557e-05
6.25993e-05
0.0932921
0.0704405
0.000103899
8.9605e-05
5.91152e-05
0.0133554
0.00911851
8.09016e-05
0.0148342
0.000117913
0.072577
4.92997e-05
5.85577e-05
0.0103579
4.45919e-05
9.49835e-05
0.000621566
8.79241e-05
8.57125e-05
0.00922424
9.18605e-05
8.07169e-05
9.27591e-05
0.110064
8.99631e-05
0.000142588
6.31972e-05
0.0154333
0.00543997
0.0147016
7.67493e-05
5.88113e-05
0.000100254
0.0176418
0.0129589
8.89874e-05
7.70362e-05
9.83326e-05
4.91767e-05
0.00183629
0.000154958
8.66232e-05
8.49372e-05
7.60179e-05
6.97651e-05
5.97658e-05
7.66169e-05
9.04758e-05
9.24558e-05
0.00750833
0.00600688
0.00870672
9.44592e-05
0.000160439
0.000243504
8.03924e-05
9.31832e-05
0.000645043
7.24561e-05
7.84065e-05
7.25083e-05
9.62721e-05
7.21196e-05
0.000136083
0.000109445
0.0113336
8.85462e-05
0.0543972
0.0194027
0.0674662
0.000370893
0.00973741
9.11152e-05
8.76639e-05
0.125667
6.99124e-05
8.69873e-05
4.66468e-05
4.75634e-05
7.92763e-05
8.28867e-05
9.846e-05
5.16828e-05
0.000109571
0.00399705
8.63382e-05
0.0154478
6.98629e-05
0.000114282
0.000114578
5.90058e-05
8.59931e-05
0.0148001
0.000145782
8.19635e-05
7.44579e-05
0.0884853
6.32082e-05
0.0136075
0.0677362
0.0153264
0.0224499
9.20242e-05
0.000197288
0.0408893
0.000902128
8.73116e-05
0.000154341
0.0912503
0.0210293
8.58312e-05
0.0636996
8.67321e-05
8.71061e-05
0.093839
4.86697e-05
8.77032e-05
6.07011e-05
0.00678429
6.62559e-05
0.00820417
6.1013e-05
0.00169676
6.09147e-05
8.69481e-05
8.92575e-05
7.44456e-05
8.83465e-05
7.50188e-05
6.36305e-05
0.0859371
8.52896e-05
0.0128552
0.00918781
0.0256678
8.85921e-05
0.083747
6.88511e-05
8.906e-05
0.00214109
0.0672083
6.70143e-05
0.000104106
4.65133e-05
8.68529e-05
9.70028e-05
0.0115805
0.015091
7.99402e-05
0.0132744
0.0717558
0.000122704
8.91838e-05
5.097e-05
8.5781e-05
8.98599e-05
5.8337e-05
0.0327902
8.74922e-05
0.0662663
4.7745e-05
0.143601
0.0157038
0.00101864
0.0647292
8.82047e-05
0.000254722
8.54392e-05
6.90101e-05
7.66571e-05
9.84832e-05
8.34402e-05
7.07599e-05
7.85737e-05
0.0713694
0.104162
0.01577
0.0239057
5.98679e-05
5.33024e-05
7.90842e-05
7.28455e-05
7.01317e-05
0.0079185
9.76624e-05
9.87333e-05
8.06154e-05
0.0655499
5.83399e-05
5.14987e-05
0.0154607
0.126808
0.0594392
6.68207e-05
8.72254e-05
8.80833e-05
0.000609099
0.0835845
6.72288e-05
0.0592655
6.43341e-05
8.64603e-05
6.57366e-05
4.67431e-05
0.00469763
0.000497078
8.92779e-05
6.51915e-05
0.129802
8.58719e-05
0.0690405
8.94258e-05
4.71242e-05
8.95163e-05
8.71805e-05
8.10063e-05
6.35456e-05
0.0335618
6.10366e-05
0.0120185
8.50047e-05
4.65754e-05
0.0448423
0.00012944
0.0708334
8.61942e-05
7.26315e-05
9.65477e-05
0.0276778
6.48381e-05
9.52919e-05
8.70579e-05
0.0741014
8.41423e-05
0.0125313
0.0780378
9.70667e-05
5.70548e-05
8.7763e-05
8.56564e-05
9.87368e-05
9.25e-05
6.00433e-05
7.3154e-05
0.0782222
0.00288186
0.0629311
0.011578
6.51742e-05
0.0857832
6.96741e-05
0.0993629
9.56377e-05
7.99859e-05
7.67996e-05
0.000216757
0.0157341
0.010827
8.64379e-05
0.0228855
8.29734e-05
7.66505e-05
5.49625e-05
0.000166188
6.27757e-05
0.043065
5.96083e-05
8.00903e-05
0.0795919
7.4161e-05
0.0868633
0.0877544
7.57275e-05
5.69889e-05
0.0768842
0.0782693
8.2693e-05
0.000141332
9.45309e-05
8.38309e-05
8.62836e-05
0.022761
4.59976e-05
8.56869e-05
0.00248466
8.48915e-05
0.00015014
0.0614309
9.93468e-05
0.00127428
0.0615441
6.26829e-05
8.7386e-05
7.91861e-05
9.35643e-05
5.7786e-05
8.5405e-05
0.00792
6.11704e-05
8.60948e-05
8.85559e-05
8.9556e-05
0.0994583
8.24984e-05
5.67965e-05
8.95577e-05
0.000161969
5.80036e-05
7.99331e-05
7.29107e-05
4.45812e-05
8.68224e-05
9.46737e-05
8.59565e-05
6.90185e-05
0.000110297
8.75955e-05
5.25712e-05
9.10982e-05
8.19134e-05
5.27444e-05
0.000259583
6.53869e-05
0.0530603
7.72815e-05
0.0020262
0.000115061
0.0681222
9.31949e-05
0.00898523
0.000116346
0.0925294
0.0680642
8.71434e-05
0.068955
0.00960118
0.00610117
5.26963e-05
6.09055e-05
0.00589982
4.46425e-05
0.000105502
8.2039e-05
0.0146233
8.33735e-05
8.31096e-05
0.000357736
6.06935e-05
0.0769219
0.0765273
0.00140653
0.000106696
0.0904102
0.0501845
0.0751566
0.00347964
6.08895e-05
0.0197972
8.87709e-05
0.0244562
0.0721264
0.0776914
0.011901
7.96819e-05
0.0639705
8.85378e-05
0.0791868
6.66622e-05
7.84668e-05
5.93541e-05
0.000139804
0.067584
0.0108523
8.36832e-05
0.0725766
0.00084036