/*--------------------------------*- C++ -*----------------------------------*\
| =========                 |                                                 |
| \\      /  F ield         | OpenFOAM: The Open Source CFD Toolbox           |
|  \\    /   O peration     | Version:  v2012                                 |
|   \\  /    A nd           | Website:  www.openfoam.com                      |
|    \\/     M anipulation  |                                                 |
\*---------------------------------------------------------------------------*/
FoamFile
{
    version     2.0;
    format      ascii;
    class       volScalarField;
    location    "50";
    object      ddt0(epsilon);
}
// * * * * * * * * * * * * * * * * * * * * * * * * * * * * * * * * * * * * * //

dimensions      [0 2 -4 0 0 0 0];


internalField   nonuniform List<scalar> 
34253
(
1.07192e-08
6.41755e-11
-8.21676e-09
-3.09118e-10
1.96883e-10
1.03815e-09
1.92405e-10
1.41113e-08
-2.16884e-11
2.53868e-05
4.05742e-10
4.4461e-05
-1.18083e-09
-0.000173525
-2.41854e-10
6.53987e-10
8.29454e-09
6.62869e-05
2.34248e-11
-7.66739e-10
4.39937e-10
1.02728e-09
7.49839e-10
7.89306e-11
-1.12267e-09
4.29717e-10
3.58807e-10
1.50438e-10
1.87635e-10
-2.99742e-10
1.00628e-07
2.63525e-10
-3.17521e-10
3.00753e-10
1.09296e-10
0.00016414
-0.000311815
2.61997e-10
-2.17616e-08
-2.32359e-10
6.92502e-05
8.07861e-08
-3.41565e-06
0.000162453
3.52265e-06
8.21469e-10
1.13267e-09
1.34485e-09
-1.1006e-10
-1.42941e-10
6.38262e-12
-1.04795e-10
7.33908e-08
1.81922e-05
-1.62472e-09
-7.13031e-10
5.9907e-11
-4.7469e-11
-5.56838e-10
6.72309e-10
-2.2078e-10
-1.65223e-10
-3.79778e-10
6.52263e-07
6.7213e-11
0.000123036
-1.63075e-06
-1.29661e-06
-2.96388e-10
-1.28178e-10
-2.60843e-11
-1.21453e-08
-8.13937e-08
1.38426e-10
3.15775e-10
4.70329e-07
-7.04664e-10
-1.5832e-10
8.2669e-06
-1.60919e-10
0.000121479
1.45551e-11
-1.70365e-10
7.47074e-11
7.43601e-08
2.10881e-08
2.52666e-11
-5.42918e-11
-5.94752e-11
0.000142136
5.13019e-09
-2.12207e-08
9.64352e-08
-1.20977e-09
2.73359e-09
6.09717e-06
1.1286e-09
8.72475e-05
-7.30094e-08
2.01168e-10
2.25499e-10
-4.23655e-11
1.14177e-08
6.16318e-05
-1.56823e-08
1.57814e-10
-1.33551e-10
-2.66534e-11
1.68691e-05
1.13847e-08
4.12087e-10
7.22168e-05
-2.24603e-11
-1.08743e-10
-0.000208647
-4.93201e-06
1.93216e-10
-1.01102e-09
-6.19209e-09
-4.22007e-09
0.00016542
8.81649e-11
-1.95865e-10
4.99581e-05
1.20993e-09
7.61376e-07
-6.43709e-10
6.83938e-05
1.99627e-09
-1.28438e-09
8.69676e-06
1.16061e-07
-4.42053e-05
-6.23004e-10
8.23886e-05
3.90275e-09
2.94465e-10
2.67585e-10
-0.000131259
-7.83355e-11
1.78503e-10
1.11135e-10
1.25622e-10
-0.000766225
3.40776e-07
4.73982e-10
5.01856e-10
1.29184e-10
-7.45974e-10
-1.15643e-08
1.98734e-09
-1.85761e-10
-5.02019e-05
2.34821e-10
4.61717e-10
5.16476e-11
2.75265e-06
1.68577e-10
1.40174e-10
-1.76194e-05
-1.37264e-10
-2.71201e-10
2.9846e-10
8.65845e-08
-8.40758e-10
-4.45482e-05
1.08044e-09
-2.72169e-10
-1.41433e-09
3.428e-11
-1.32633e-09
1.01295e-09
1.83358e-10
-5.85355e-11
-2.59194e-08
1.20095e-09
1.28706e-08
-1.02227e-09
3.41742e-11
4.44044e-10
6.17622e-11
-3.10749e-10
3.04948e-09
-6.40166e-11
-7.95422e-11
1.17685e-09
-1.12976e-08
6.69481e-05
-3.41516e-10
0.000110362
-8.90298e-07
0.000158438
7.41177e-11
3.65917e-11
9.35686e-05
5.6519e-10
7.05431e-08
4.48453e-10
6.58882e-11
5.82204e-10
8.78457e-11
7.0306e-09
0.000179721
-5.39648e-10
8.29208e-08
1.56857e-10
2.99215e-10
-5.21239e-05
9.7428e-05
8.59945e-10
-1.55533e-09
-4.49288e-10
-3.81543e-11
-4.87366e-10
-1.04278e-09
-3.01703e-09
-9.45322e-12
1.29349e-07
-3.43396e-10
2.0411e-10
1.6578e-08
-4.37018e-10
8.4552e-08
-7.14367e-11
-3.00158e-11
2.50762e-10
-5.80977e-09
9.60094e-09
6.32126e-11
0.000154587
1.65065e-05
-4.14091e-11
-1.91644e-09
3.12984e-10
4.09099e-09
2.96727e-09
-2.15276e-10
0.000108706
4.03986e-10
8.43438e-08
5.98457e-10
5.50901e-11
-6.59396e-10
6.34636e-10
-4.60779e-05
1.08213e-08
1.1893e-11
7.61141e-11
8.04918e-10
7.69262e-06
-3.58076e-10
3.17536e-05
-9.45374e-11
1.32881e-10
-0.000125111
5.73531e-10
-0.000392063
2.36735e-05
-5.72523e-11
2.91301e-10
1.08027e-10
-1.06352e-09
-7.6989e-09
1.97842e-10
1.5386e-11
-5.09887e-10
3.65378e-05
7.23576e-10
-8.30243e-10
-2.49909e-10
-2.2573e-09
-2.92944e-09
-7.1214e-11
-4.22874e-10
5.19794e-10
2.57296e-10
7.13791e-08
-1.60374e-09
-1.9477e-10
4.21735e-07
3.90183e-10
9.06421e-06
5.27168e-10
1.59721e-11
3.42674e-05
6.0312e-11
1.65656e-10
-2.22214e-10
-8.38366e-10
-1.14308e-10
6.32919e-09
7.27999e-06
8.43051e-09
-2.10496e-10
-1.47649e-10
1.22225e-09
1.20013e-06
-1.2085e-11
-2.14923e-10
1.45337e-09
-1.46955e-12
0.000123097
-5.11367e-12
-1.97302e-10
-3.30401e-10
2.48135e-10
3.34456e-10
7.23572e-11
-4.38061e-11
-9.86027e-10
7.0436e-11
-3.96315e-09
-4.30554e-10
-4.00582e-05
-2.83379e-10
-1.90579e-07
-1.84733e-05
-1.37102e-09
2.01589e-09
9.194e-05
-1.59861e-10
2.96874e-09
-4.47617e-09
6.00135e-09
-1.69866e-08
-1.22297e-10
4.97623e-11
1.93316e-11
-1.45653e-10
-1.33549e-10
-2.28823e-10
0.000133211
1.32021e-05
-5.27344e-06
-2.23034e-07
2.29386e-10
-4.43571e-10
5.61253e-05
-3.66055e-05
2.94358e-10
8.48186e-09
9.3334e-05
8.95699e-11
1.72052e-09
-5.35926e-10
-6.736e-06
-8.2226e-12
-9.19096e-11
-5.01216e-09
1.61088e-09
2.77953e-10
7.23711e-09
5.17878e-10
3.25969e-05
-1.62952e-10
3.37154e-10
-5.2624e-10
-1.78838e-11
9.19701e-08
2.82409e-11
-2.56694e-10
3.68135e-10
-2.39971e-11
0.000111937
-7.84827e-10
3.90104e-11
6.98072e-11
2.99374e-05
-2.24894e-05
-2.16272e-11
1.24025e-10
-1.36662e-10
5.81276e-05
-1.83291e-11
6.4739e-11
-2.27533e-09
7.27345e-06
2.34767e-10
4.53357e-10
8.69314e-11
-2.43079e-08
-6.31056e-10
-2.25157e-08
-1.4606e-09
-2.57098e-07
-2.06591e-11
-0.000211268
-9.26293e-10
2.75068e-09
-5.54479e-10
-1.41741e-10
-4.40896e-09
-1.47851e-10
-5.60465e-10
-1.54433e-10
-6.24836e-05
1.14263e-11
6.1801e-11
1.56418e-08
1.18272e-10
2.39079e-11
4.11214e-10
-2.54501e-10
-9.54315e-10
6.06894e-11
8.95044e-11
-2.41401e-09
-8.80642e-11
8.21441e-05
7.44196e-11
1.32045e-10
-6.03567e-09
-3.49253e-11
4.76132e-06
8.04392e-11
-2.28978e-10
3.12031e-09
8.84788e-10
-1.92357e-10
4.77649e-10
2.08758e-08
3.09067e-08
3.33617e-11
0.000109624
1.67155e-10
-8.61624e-05
8.37059e-09
1.28791e-11
-4.8937e-09
-8.36234e-06
-3.93827e-05
-1.32113e-10
9.01838e-11
-8.56124e-05
5.02649e-10
-1.64253e-10
-4.17176e-10
4.47863e-10
9.55224e-09
6.62389e-11
4.35516e-05
1.87832e-11
1.37436e-11
-1.68514e-09
-7.59524e-05
-4.83619e-10
3.23898e-09
-2.53282e-09
-1.42575e-09
8.50245e-11
-0.00036235
7.55622e-07
-5.85605e-10
-6.44183e-11
1.16275e-05
-1.22271e-10
-9.57618e-06
-2.77942e-10
2.85977e-09
1.2219e-09
-7.10126e-05
1.40794e-10
8.79755e-06
3.57446e-10
-6.70173e-10
4.98591e-10
9.42812e-11
-0.000354953
7.38902e-07
3.63237e-06
-1.61875e-10
-2.51497e-10
1.76249e-10
7.54079e-10
-2.1538e-10
-3.33412e-09
-1.16921e-05
0.000119774
-1.70079e-10
-0.000250867
-6.09594e-12
3.33243e-10
7.3637e-11
-1.31026e-10
6.37977e-05
-1.46478e-10
-9.84082e-06
1.29294e-10
8.4186e-11
-5.5326e-05
-1.83927e-10
-1.14153e-10
4.14366e-11
5.625e-08
3.29192e-06
-1.62915e-10
-1.03626e-09
4.35262e-10
0.00010489
-1.40136e-09
-1.52504e-10
-1.02375e-10
8.76595e-11
0.000105152
0.000110337
2.61238e-10
-3.42142e-10
9.68515e-11
9.07001e-10
2.0579e-10
-9.37576e-11
2.95362e-05
-1.04266e-10
-1.85967e-10
4.09792e-10
-2.59007e-12
9.19136e-05
-2.08937e-10
1.91416e-09
4.91257e-13
-3.78973e-05
-6.52472e-10
1.33555e-10
-2.25093e-10
2.31943e-09
7.84765e-06
-1.25384e-09
-8.96354e-05
9.74888e-11
-8.14599e-10
2.31623e-08
1.41618e-10
-8.69269e-10
-9.15335e-11
6.5386e-07
-1.45585e-10
1.21866e-09
8.30024e-06
2.09373e-10
-1.04147e-10
-7.64911e-10
5.84554e-10
-2.85613e-07
-3.97902e-10
-7.08647e-08
5.43563e-11
-2.20421e-10
-2.2899e-10
2.24371e-10
-0.000367706
-7.20365e-10
2.029e-10
3.39581e-05
-7.48742e-07
1.12392e-10
-1.68762e-09
-7.06006e-09
-2.25379e-09
-7.59587e-11
2.25578e-10
-1.91308e-05
-5.69669e-10
1.0309e-08
1.07944e-09
2.4602e-05
-4.86844e-05
1.37103e-08
9.71741e-11
-1.33712e-10
-1.78004e-10
-2.34525e-10
-1.6254e-10
7.36654e-05
4.36812e-10
5.17115e-10
7.18304e-11
-8.71892e-05
6.45505e-11
1.15124e-10
1.3884e-09
-1.1872e-09
7.56687e-10
1.9765e-10
-1.32896e-10
-2.04063e-11
-2.4837e-05
-8.72972e-10
7.62771e-06
-1.09443e-09
2.24391e-05
1.38732e-10
-1.25078e-09
-2.47179e-11
-2.32709e-10
-1.16925e-10
7.07918e-11
-2.74563e-10
2.13421e-08
-5.07883e-10
1.77338e-06
2.20248e-10
1.78065e-06
7.29059e-10
-3.17891e-09
-7.06163e-10
1.60941e-10
3.23756e-06
-2.46431e-10
8.05824e-11
0.000148973
-1.57748e-08
-3.05914e-11
-2.59694e-10
-8.66446e-10
-3.79756e-11
-5.28061e-11
9.07111e-10
-3.39995e-09
9.01971e-10
3.02377e-10
-9.03695e-10
-1.5352e-11
1.85203e-09
-1.69551e-10
-6.43664e-11
-1.00372e-09
1.04637e-09
2.9112e-10
-4.80352e-09
-2.11333e-09
7.65641e-08
-1.09359e-10
2.07063e-11
-1.84569e-05
2.41265e-07
-0.000135637
-3.46544e-11
-5.25911e-09
-3.20938e-05
-5.71774e-11
-2.78324e-11
-2.66986e-05
-2.34773e-10
5.72283e-10
-6.89397e-05
6.77442e-11
2.83213e-05
8.15681e-10
-7.38499e-09
1.12786e-09
9.61103e-05
-5.08258e-11
-8.13222e-06
-2.57131e-10
1.55308e-10
-4.89434e-10
1.85573e-11
-4.98226e-10
9.37189e-10
2.73927e-05
3.11593e-05
0.000139934
5.19076e-10
-2.20992e-10
-5.48484e-05
2.36646e-06
3.22141e-05
6.37584e-12
1.01199e-09
4.05689e-11
-8.31604e-11
7.20332e-09
-4.33808e-12
-6.12733e-10
3.84155e-10
5.86969e-08
1.73194e-09
-2.86116e-11
1.99254e-10
-2.85624e-10
1.09615e-10
-1.67866e-10
1.17226e-09
-3.05038e-09
-7.94314e-12
1.42854e-10
-3.09567e-10
9.44841e-11
-1.55481e-10
5.13675e-09
-6.76746e-10
3.16006e-11
-1.19297e-09
4.65823e-11
5.98498e-11
5.2378e-05
-2.05433e-10
1.43162e-10
5.62099e-10
3.63963e-10
1.38767e-09
-9.0902e-05
7.65716e-05
-1.84022e-10
1.85182e-10
-7.45712e-05
-1.07146e-10
1.29237e-10
-4.24227e-10
-3.27451e-10
-1.43434e-09
-3.82554e-10
-1.27012e-09
-2.24563e-09
-1.28389e-10
-5.71308e-11
3.23747e-11
0.000137518
4.68379e-10
2.20554e-10
5.0925e-11
-1.36256e-11
-4.63897e-09
-2.69177e-10
1.31499e-10
-3.11073e-10
9.78988e-10
-5.6666e-11
0.000117912
1.10563e-10
-0.000126611
1.01513e-10
-1.80991e-10
-3.5099e-10
3.80178e-05
-1.10324e-10
2.66811e-10
-1.47253e-10
2.87472e-11
-1.05946e-10
-5.28447e-10
1.26813e-08
-7.25665e-11
9.03071e-11
0.000106402
1.16886e-10
1.67455e-10
3.03695e-10
-4.79077e-10
-2.08445e-09
7.26621e-09
2.20829e-11
2.26124e-09
-4.3842e-09
0.000161808
8.80718e-10
8.79622e-10
-2.84088e-10
1.18936e-10
2.61917e-09
1.60256e-09
1.4216e-08
-4.67471e-09
-0.000258305
-7.70573e-11
-1.06689e-09
-4.09824e-10
1.04295e-10
-6.57183e-11
4.54618e-10
-4.97467e-05
0.000204261
-3.75552e-09
-6.06809e-09
6.28864e-11
8.39489e-05
-1.4757e-10
5.06848e-10
9.03355e-11
-4.27779e-05
2.86739e-10
-1.95778e-10
3.495e-05
2.43833e-10
9.06327e-11
1.9794e-07
-6.90079e-09
-1.462e-10
-3.46411e-10
3.91344e-11
-4.63413e-10
2.4498e-05
-4.93144e-10
-4.59831e-10
-1.6795e-10
2.68823e-10
7.18914e-08
-1.69843e-09
-4.59646e-10
-4.52217e-11
-7.4745e-05
1.94337e-10
-1.73306e-10
-8.81572e-10
1.22745e-09
-5.29022e-11
-1.62494e-09
2.71461e-11
8.96937e-10
1.56389e-09
7.00207e-11
-1.32199e-09
-5.90079e-10
1.40203e-08
-9.64901e-08
1.06382e-10
-9.22951e-11
1.54228e-08
-3.3133e-10
-3.87463e-05
9.94917e-05
2.32374e-10
6.21095e-09
-1.1592e-09
-6.90588e-10
-1.28706e-10
5.15806e-05
-3.10141e-10
3.16619e-06
-1.05314e-09
-7.52359e-09
-8.83221e-10
1.11259e-10
2.33895e-10
-8.87919e-05
6.62884e-08
1.64351e-08
8.03812e-11
9.78204e-10
-7.31206e-10
1.99418e-10
-4.89411e-12
4.95487e-10
-6.903e-10
-6.57301e-09
-2.52006e-10
-2.33651e-10
0.000122167
-3.25219e-10
5.3493e-10
-9.1384e-10
0.000229662
2.51556e-10
6.73136e-11
-0.000129151
-8.77553e-05
4.73056e-08
1.95768e-10
-3.38778e-10
-0.000182433
-2.17811e-10
3.03145e-10
9.76107e-11
-1.82735e-08
3.7086e-06
-4.49714e-05
2.56658e-12
-1.65558e-09
5.69101e-08
-3.04189e-09
5.85732e-08
-8.90319e-05
-1.39907e-09
4.41504e-10
4.60761e-12
-2.50637e-05
-0.000157998
-5.80973e-10
-2.22162e-10
4.14589e-10
5.74439e-05
-2.20339e-10
1.90295e-10
2.07349e-09
5.56548e-10
3.05073e-10
-7.14424e-11
1.9911e-10
6.13522e-10
-9.50041e-10
1.93549e-09
-1.55977e-05
5.60602e-11
2.01735e-09
-2.95416e-09
6.5878e-10
-5.25076e-11
9.48534e-11
-2.8938e-10
3.08033e-10
1.69725e-10
1.16547e-10
-2.20898e-10
-3.12579e-10
-8.01803e-10
-0.000101573
-6.64465e-10
-5.4146e-10
-5.13054e-05
-2.59428e-10
-2.12796e-10
-1.28626e-09
8.95136e-10
-3.66002e-10
3.7894e-10
1.44264e-10
0.00011384
1.41896e-11
-3.0617e-09
1.09604e-10
-3.15201e-11
4.0061e-11
2.82767e-10
4.47364e-11
3.06894e-10
7.1353e-11
-0.000169845
2.08079e-10
9.94249e-09
6.18896e-10
4.8504e-05
7.70828e-11
-3.63966e-10
-1.67692e-09
-3.65914e-10
3.49374e-05
3.55056e-07
-4.0173e-11
0.000104425
-7.87063e-10
-2.58861e-10
3.30297e-05
1.35146e-07
7.07174e-10
-2.09734e-10
-1.17837e-09
7.12744e-10
3.26584e-10
3.33705e-10
-5.40142e-05
-7.98386e-10
1.82287e-10
-1.3795e-06
-2.33742e-10
-2.0949e-09
1.41957e-10
2.59049e-10
-1.64884e-09
1.81296e-10
3.32669e-05
-6.95751e-11
4.44045e-08
-3.77114e-10
-0.000230599
1.66472e-08
-1.37303e-10
2.40785e-10
-5.13823e-10
-1.25562e-09
3.98611e-10
2.36576e-10
-3.35681e-10
-7.7644e-05
-1.62182e-10
1.24957e-09
-1.22935e-10
-6.61407e-11
-1.63746e-07
-2.94167e-10
-6.93274e-05
-2.20934e-09
-1.12617e-09
3.19198e-10
-2.25823e-09
3.32141e-10
2.0931e-08
1.19432e-09
-1.87468e-11
-1.13463e-09
1.37702e-08
-5.32542e-09
2.22513e-05
-5.41217e-05
4.07736e-10
7.30296e-11
1.43439e-10
-2.32735e-09
-8.3051e-11
3.59497e-10
-8.56974e-08
3.02969e-10
-4.78534e-10
0.000133267
1.61416e-10
1.55888e-08
7.18065e-10
-8.96946e-09
-3.11371e-09
6.00067e-10
5.33219e-10
1.44532e-10
1.16193e-06
-1.91798e-10
-4.85339e-09
4.70236e-10
-0.000116337
1.05588e-07
8.75551e-06
2.99957e-08
3.64802e-10
3.48136e-10
1.03277e-07
1.98017e-11
-4.85265e-05
1.24938e-10
-5.93849e-11
-3.08503e-05
3.31404e-10
-2.79125e-10
1.73558e-08
-3.3203e-07
3.73552e-05
-6.14743e-10
3.48025e-11
8.60965e-08
6.75396e-10
-6.33332e-05
2.89506e-05
-1.85595e-08
-2.58408e-10
1.58968e-08
7.74813e-10
-2.67516e-10
1.769e-11
3.4605e-06
5.53808e-08
5.84931e-08
7.54906e-08
-5.05752e-12
-2.11342e-08
-2.99784e-10
-3.2179e-10
-5.96057e-08
1.76769e-10
-4.56709e-11
1.92117e-08
-1.82361e-08
7.80631e-10
1.96696e-05
1.69034e-10
4.0763e-11
4.10166e-10
1.40431e-10
8.41845e-10
4.69831e-10
-3.27839e-11
-4.34233e-05
-0.000466519
-1.04652e-09
4.98348e-11
-6.50386e-10
1.59302e-10
1.7146e-08
7.64707e-10
-2.8833e-09
-2.98937e-10
6.3268e-11
-3.6319e-10
5.96284e-06
-1.43077e-09
1.18137e-10
1.08215e-11
-2.9571e-10
-2.00373e-10
3.47913e-11
-1.77186e-09
2.42085e-10
9.38503e-09
3.57963e-10
-2.16514e-10
-8.40491e-11
1.49826e-06
9.84456e-10
1.55607e-10
7.16277e-13
-1.20271e-09
1.03737e-10
2.74651e-09
-9.41281e-07
6.75559e-11
-1.04537e-10
2.10898e-10
-1.55708e-05
2.14817e-10
-3.23283e-09
0.000120764
-5.42912e-12
-5.78193e-09
3.00159e-10
1.84087e-05
4.48279e-10
5.88781e-10
7.36947e-11
-3.22352e-10
-3.27723e-10
7.18401e-11
1.17557e-09
2.69048e-10
5.65749e-10
-1.5653e-11
0.000169434
-2.93266e-05
7.4738e-10
1.36932e-08
2.46655e-11
1.2784e-08
8.37465e-10
-7.26476e-05
-3.35948e-11
1.16289e-10
1.8439e-12
-6.41854e-05
9.52877e-07
1.78826e-10
-7.44818e-11
2.42428e-10
1.50841e-10
-3.61464e-09
-2.52239e-10
-6.48977e-10
4.23377e-05
6.46167e-05
-2.92211e-11
0.000127524
4.3163e-09
1.05802e-10
-7.09968e-05
6.6454e-05
-0.000124582
3.4457e-10
-2.43753e-09
1.30577e-09
7.51076e-05
1.17421e-08
8.59765e-05
3.22908e-10
1.17507e-07
1.26049e-10
4.19691e-10
-0.000284075
-9.03431e-11
-6.32308e-06
1.01711e-09
-2.88153e-11
8.9129e-10
-5.80761e-05
-1.38855e-09
-2.26421e-10
-1.30504e-10
3.1863e-10
-7.65794e-08
1.43488e-10
2.99275e-05
2.02477e-09
-3.94452e-11
-2.53913e-08
4.26387e-10
-8.05767e-11
-9.40773e-11
4.3391e-11
1.84286e-09
1.36251e-10
7.71508e-10
-1.4172e-10
3.25272e-11
4.75608e-11
-5.41681e-05
0.000156305
4.58433e-11
-6.60992e-10
-3.07353e-10
8.98353e-10
8.20023e-05
-1.3347e-10
2.51196e-05
1.21248e-09
-1.0562e-10
-2.46142e-05
-1.49744e-10
1.04469e-07
3.1736e-10
-2.20923e-11
-8.28886e-10
2.72e-10
-8.51263e-11
-1.48245e-09
-1.57932e-10
1.64668e-10
6.23108e-10
-2.68111e-10
8.29552e-05
1.82452e-10
5.02895e-10
4.63482e-11
-5.91542e-05
3.88141e-10
-5.75323e-10
-1.64315e-10
-2.58165e-10
9.29371e-11
4.25405e-05
-3.63419e-05
1.53903e-05
4.57973e-06
4.72442e-11
-9.40273e-10
-1.03849e-09
-1.48891e-09
-1.44564e-09
-8.22882e-11
2.14978e-10
4.6492e-12
1.97524e-10
-9.36057e-11
-5.15785e-08
-1.04394e-10
1.41451e-10
-0.000586048
-1.084e-09
-1.01382e-10
4.06091e-11
1.81209e-11
-1.41377e-08
-1.87648e-10
1.6328e-11
1.17772e-10
-8.92834e-07
8.48681e-10
2.26879e-10
-2.31116e-10
-1.18601e-09
-1.22379e-10
1.29964e-10
1.79737e-09
-7.17979e-10
-4.12671e-05
0.000114133
-4.37447e-10
4.1982e-10
2.41819e-09
5.87203e-10
0.000270419
-3.56093e-11
-5.91879e-11
-3.9776e-10
-0.000238846
2.35043e-09
-3.35703e-10
2.59145e-09
-1.63585e-09
-1.03549e-07
-7.47371e-05
-1.89856e-06
7.3949e-11
-4.07463e-11
1.84139e-10
2.83236e-11
9.13938e-10
0.000142815
2.44013e-11
1.74536e-10
2.45145e-10
3.7102e-05
1.75865e-10
6.52203e-11
2.87878e-10
-4.00589e-10
2.12152e-09
-2.34277e-10
-8.16769e-11
3.29045e-11
-3.79805e-10
-2.07446e-10
5.727e-10
3.79005e-09
-5.09087e-11
-1.39613e-09
9.03089e-10
-0.000141487
-3.0028e-10
0.00015438
-3.38674e-10
-6.81642e-11
6.50452e-05
-6.19357e-06
7.39671e-11
-0.0004224
-6.49323e-11
-6.0658e-10
-6.63424e-11
1.21523e-10
-2.43652e-10
-2.68744e-08
1.6611e-09
1.48282e-10
0.000107566
1.79917e-10
-5.73511e-11
4.00446e-09
4.12844e-11
-4.10874e-10
2.04171e-05
1.04381e-07
1.79845e-11
7.4898e-11
8.09736e-10
1.89913e-10
4.02215e-09
-0.000105837
-0.000168242
-2.53325e-09
-3.48001e-11
4.01503e-10
0.000160485
-1.70321e-09
4.23978e-10
1.97188e-09
2.14477e-10
3.6048e-10
-5.22323e-05
2.78114e-11
-8.42463e-05
5.74105e-08
-3.62534e-05
-1.3139e-09
-0.000173408
-1.5699e-09
-1.87638e-06
-1.1846e-10
-1.0173e-09
3.03294e-08
-8.12273e-11
2.2138e-11
5.03329e-05
-1.8187e-10
-7.87119e-12
-1.441e-10
-4.94428e-09
-8.42997e-11
-9.72094e-11
8.10961e-11
-1.41743e-09
1.84491e-09
1.06486e-09
-2.84566e-05
1.85398e-10
5.55158e-11
1.66007e-10
-2.81155e-09
-0.000386304
-0.000387033
1.62223e-10
-3.82047e-10
8.63833e-10
4.50929e-11
1.20979e-10
7.71784e-05
3.27728e-11
2.72884e-09
-3.53751e-06
8.33747e-07
-1.46893e-09
1.28192e-08
2.39257e-11
5.52875e-10
-4.41369e-10
2.25818e-09
-0.00013961
-1.23223e-10
-2.49591e-09
-5.88034e-09
8.1304e-12
4.27085e-11
-1.67089e-11
1.31721e-10
-7.02399e-11
-2.36576e-09
8.75685e-05
-7.43707e-05
1.22569e-10
-6.17529e-05
-3.90584e-12
-3.26751e-05
7.98165e-10
-1.31942e-10
-3.16119e-10
7.13908e-05
-5.36162e-10
-1.21397e-10
6.65958e-10
-3.37696e-09
3.19602e-10
9.16843e-10
-1.31247e-10
-7.00977e-06
-9.72466e-10
-9.96517e-12
-4.48588e-10
-6.95376e-11
-1.68931e-10
-1.45284e-06
-1.0827e-10
7.79494e-11
2.00622e-06
5.66402e-10
7.83978e-05
3.37492e-11
4.94625e-12
-1.88595e-09
-2.03248e-07
-9.25479e-11
1.69645e-09
3.86583e-11
2.36294e-10
-1.9791e-09
3.09219e-10
1.71518e-11
-3.1296e-06
1.92506e-11
-1.12136e-10
5.19799e-08
1.27291e-09
8.06544e-11
-5.92343e-05
-1.70306e-11
1.8247e-10
1.17892e-10
2.27481e-09
1.91283e-05
-5.31922e-10
9.35457e-08
-1.61121e-10
2.84631e-09
-1.70366e-10
-2.84083e-10
-2.94454e-10
-8.36962e-11
-1.26077e-10
-1.03366e-09
-2.02035e-10
-6.0726e-11
-3.10346e-09
-2.0281e-10
1.24694e-08
5.89515e-11
2.33024e-10
-7.51086e-09
8.6825e-11
-1.29598e-10
-3.03901e-10
1.38482e-08
-5.67642e-12
-2.91513e-10
-9.43157e-12
3.49769e-10
-4.14827e-05
6.45082e-11
8.05623e-11
-1.63743e-10
-1.46423e-09
-9.56008e-09
-5.88065e-05
-2.67072e-10
-6.47441e-09
1.34997e-10
2.69726e-10
0.000133197
-2.38375e-11
-5.89816e-09
1.09424e-09
3.25685e-10
1.66115e-08
2.61076e-10
-2.74361e-06
-1.27739e-09
7.4377e-10
9.98172e-11
1.46415e-09
-2.67541e-10
-6.53377e-05
-3.50735e-09
-7.06195e-12
-1.18902e-10
1.13339e-09
1.68127e-11
1.56852e-05
1.54388e-09
-4.31463e-05
-1.84568e-09
-7.63428e-07
1.17088e-09
0.000129925
-4.24551e-10
0.000137402
-5.09932e-10
-3.53814e-05
1.72644e-10
0.000100014
-1.013e-09
-3.17258e-12
1.29697e-09
5.59585e-11
2.02611e-10
-6.64268e-05
-3.03726e-10
3.86197e-11
-1.17275e-10
3.90881e-10
-9.91978e-11
2.1534e-06
-4.61808e-11
0.000130762
2.51265e-11
6.36226e-05
-6.16596e-05
8.36285e-12
1.37073e-09
1.33896e-10
4.13812e-10
-5.83908e-10
-5.20679e-05
-6.24985e-10
3.15494e-06
-3.38158e-10
-4.13438e-10
4.62741e-06
9.72467e-12
2.39996e-10
4.23787e-09
3.64288e-09
-1.59546e-11
5.30549e-10
-5.97694e-10
2.08339e-10
7.81748e-11
-1.99885e-10
1.60969e-10
2.66588e-10
-0.000210558
5.28928e-11
0.00011218
-5.54878e-06
-3.35553e-11
-7.72918e-10
-1.72443e-11
-1.88848e-10
-4.95644e-10
-7.21327e-10
3.95925e-11
1.28107e-08
3.04333e-10
1.01379e-10
-1.54178e-10
-1.26736e-09
-0.000191734
5.41112e-12
-2.82963e-10
-2.04103e-10
-1.14924e-10
-2.59301e-11
-1.09662e-10
3.1074e-10
6.9727e-05
0.000163084
-1.345e-10
-2.8538e-10
-2.72541e-10
1.11824e-09
-5.77106e-11
-5.88301e-11
1.22338e-10
-3.58113e-11
5.27332e-10
8.80137e-10
-2.94236e-10
-7.86073e-11
-2.55081e-10
-2.60757e-10
-5.24029e-10
2.19952e-09
-2.85542e-10
-5.76242e-11
7.11832e-10
0.000159542
-1.65795e-08
1.31454e-10
-5.59399e-05
5.12837e-05
1.65764e-05
7.23725e-11
1.33487e-10
9.508e-12
-2.65958e-10
2.93998e-09
1.37365e-08
-2.8531e-10
1.52688e-08
-4.05485e-05
-3.84741e-10
-1.09394e-09
5.75968e-10
-6.56835e-05
8.74422e-09
1.15555e-08
5.70866e-10
5.3769e-10
3.32345e-10
-4.08962e-05
-1.6112e-09
1.30914e-10
0.000137168
2.95856e-10
3.04156e-09
-6.00199e-10
-3.16755e-10
1.76276e-11
-5.36937e-10
5.87759e-09
-6.77825e-05
-2.04809e-06
-2.5774e-10
4.31819e-08
-5.00477e-09
3.6547e-10
7.22189e-05
5.87634e-11
-1.22572e-10
5.86694e-11
5.87415e-10
-4.07046e-10
2.60312e-09
-2.61007e-10
-2.33876e-06
-4.52984e-10
-1.94243e-10
-7.89137e-05
-3.55024e-10
-4.05831e-10
9.65626e-13
6.21555e-10
-1.36164e-08
9.26065e-08
2.61419e-09
-1.9255e-09
1.7086e-10
1.11094e-11
5.78719e-12
6.34313e-05
-8.23335e-10
2.57438e-09
3.78887e-05
-4.16433e-10
-4.92125e-12
1.37099e-10
1.81934e-08
8.17768e-06
2.63268e-11
3.75104e-05
6.62892e-05
-9.83661e-08
1.58317e-10
-9.15819e-11
-4.63155e-10
-0.000261079
-4.03064e-08
-1.01009e-08
-1.75745e-10
3.26545e-11
-5.48984e-10
0.000163358
2.80947e-05
-3.21859e-10
2.24701e-09
-1.41675e-09
2.09531e-10
-4.19884e-10
-9.07717e-10
6.21447e-10
-9.08864e-11
1.31197e-09
6.47782e-08
2.85366e-11
-2.20147e-11
8.915e-10
-2.05945e-10
2.59864e-10
-5.29638e-05
-1.79312e-09
1.40335e-08
-3.69954e-09
2.39339e-10
-4.95933e-07
-9.52231e-10
-3.64094e-10
-2.02811e-11
1.07889e-10
-2.23834e-11
7.44739e-09
-1.55678e-09
-2.78491e-10
-1.62977e-09
-1.1962e-10
7.1629e-05
4.42108e-10
2.22356e-06
-3.37981e-10
-1.70102e-11
5.30766e-11
3.90691e-10
1.28466e-10
1.94651e-09
-9.50706e-11
-4.98714e-05
0.000158515
0.000120649
-7.38179e-11
4.17264e-10
-3.11155e-09
1.24997e-10
-7.81416e-10
1.89362e-08
1.92027e-11
-6.85444e-05
-2.96087e-09
-5.77872e-10
4.86639e-10
-6.04435e-09
5.02679e-06
2.79016e-10
-0.000100644
-3.06702e-08
-2.34081e-09
5.89101e-10
-1.20142e-09
2.75467e-10
0.000102859
1.17496e-05
-7.67705e-08
4.30331e-08
9.69096e-10
-0.000181285
0.000145027
4.16244e-10
-2.07856e-11
8.81728e-11
0.000119964
8.66668e-10
-3.26772e-10
-2.91005e-09
6.77139e-05
-0.000272347
7.18056e-11
-4.45518e-11
3.90179e-10
-3.05228e-10
4.80296e-10
0.000150394
1.7066e-09
-4.48061e-10
-8.37797e-11
-3.39209e-10
2.10108e-10
-8.19677e-11
0.000113806
-9.37874e-06
3.26124e-10
1.37247e-10
-1.17289e-10
1.96327e-11
0.000162249
2.32745e-09
1.98419e-10
-5.85356e-12
-2.22456e-09
-1.46443e-10
3.2367e-05
-1.35502e-10
-1.41364e-09
-4.17433e-10
8.28477e-10
-4.35098e-11
-1.68076e-09
5.39761e-11
6.12536e-12
3.20058e-10
8.23407e-11
5.18979e-11
3.22411e-05
7.47664e-11
6.57054e-05
-2.976e-10
1.13807e-09
2.18132e-09
-8.96589e-11
-1.69055e-12
2.71737e-10
7.55401e-10
4.75388e-06
-1.80625e-09
7.57857e-08
5.01065e-11
4.64561e-11
-1.6944e-09
3.57049e-10
-5.31092e-09
-5.51772e-05
2.8372e-06
2.19037e-10
-4.96143e-11
8.42155e-11
-2.96679e-10
6.71463e-06
-8.85399e-05
-5.88899e-11
3.03118e-10
7.43406e-10
-1.46893e-10
-0.000183154
-3.45822e-10
0.000107722
-7.39922e-05
-4.91731e-11
1.22825e-09
-3.6688e-09
1.01977e-05
3.37428e-10
-1.18312e-10
-3.20864e-10
1.2323e-09
-5.28201e-05
9.63831e-05
-5.75377e-10
-4.91819e-05
1.7645e-05
-3.57858e-10
-1.71514e-09
-1.52626e-09
9.52185e-11
2.6186e-10
-6.61694e-05
5.14572e-11
-3.31009e-10
2.82381e-10
1.09639e-09
2.82226e-05
-1.07452e-10
1.04999e-07
-5.07353e-05
-1.0621e-10
4.46211e-10
2.29744e-10
4.85322e-10
-2.2271e-10
-7.06464e-10
1.39753e-10
-4.57361e-10
-9.47898e-10
9.50274e-07
-1.16055e-10
-1.99765e-09
-1.3236e-09
-0.000226631
-5.87268e-05
7.96195e-10
-5.03178e-11
-8.34975e-10
-5.52732e-10
-1.74799e-05
1.19254e-05
1.22581e-09
1.88323e-10
2.81863e-05
-7.21362e-05
-1.96766e-08
1.41788e-10
-4.95586e-10
-0.000153512
2.04475e-10
3.68721e-09
-1.49188e-07
1.00549e-10
1.08382e-09
5.2933e-10
-3.59669e-10
-1.08732e-09
3.89395e-10
-5.22597e-13
3.45295e-09
6.42255e-11
1.43027e-10
-7.37221e-10
-2.18496e-10
-4.40192e-10
5.33017e-11
3.07255e-11
1.57878e-08
-0.000192487
-1.43569e-09
-3.15402e-10
1.86297e-10
-1.63758e-09
-3.97841e-10
1.01924e-09
8.44534e-11
1.36401e-10
0.00010096
3.67165e-10
5.24547e-05
-1.41785e-09
1.12772e-08
-2.03332e-10
2.90739e-05
-2.8047e-10
4.40323e-10
1.98929e-10
1.74046e-11
8.03704e-05
-3.83719e-10
1.77994e-10
-8.50563e-10
-1.24152e-09
2.786e-10
0.00011495
-2.76045e-10
-1.54901e-09
2.33542e-10
0.000151684
-2.09069e-09
-2.90433e-08
-8.34237e-09
1.64886e-09
4.50685e-10
-1.90642e-11
7.2568e-11
-5.94966e-10
-3.95227e-10
-9.34618e-10
3.27046e-06
-8.66388e-10
-5.8184e-11
-1.25678e-09
-1.27122e-05
7.54694e-09
-5.95491e-11
-1.16991e-09
3.62256e-10
-2.81161e-10
-1.44161e-09
2.53708e-10
8.43595e-05
-8.49532e-05
1.49462e-10
-5.90756e-10
3.73048e-11
3.44934e-09
-1.57978e-10
-1.09912e-10
-4.82662e-11
2.34062e-11
-4.9346e-10
4.76699e-10
2.21491e-10
-5.1427e-10
4.69569e-10
-6.77688e-05
5.35436e-10
4.87289e-05
8.55174e-05
9.55124e-10
-3.01851e-11
5.82507e-05
5.81336e-08
0.000220318
-0.000299917
-2.55433e-05
4.52094e-10
-2.4802e-10
-4.00127e-05
-2.76507e-10
-2.1557e-10
-0.000181079
-2.54281e-10
-5.58015e-07
-1.04321e-10
-5.36311e-08
9.68263e-07
4.25136e-11
-8.8504e-11
-6.15648e-11
2.68607e-06
1.03092e-09
1.12845e-09
-1.09685e-09
-6.56393e-10
-2.84588e-09
-3.33652e-09
-4.70367e-10
-1.38334e-09
4.16602e-10
-3.45129e-10
-3.83097e-10
-1.59144e-10
-7.32331e-11
1.48785e-06
9.50226e-10
-2.0952e-09
-5.01882e-10
1.02959e-09
3.05659e-09
-1.45193e-09
2.36772e-10
-1.04957e-10
-1.26377e-09
-8.40435e-05
-5.98155e-05
-3.10402e-10
1.90746e-06
5.95918e-11
-3.13421e-10
-9.52529e-05
2.08031e-06
8.77814e-11
2.13574e-11
3.48274e-10
1.13446e-10
1.64704e-09
-5.68034e-07
-1.72261e-10
4.33941e-11
-1.6009e-10
-3.02482e-10
-3.21283e-09
-6.40664e-10
-4.10963e-05
0.000161712
-1.38599e-05
2.78712e-10
-3.53152e-10
-6.46319e-11
-1.28515e-09
5.44836e-10
-2.42724e-09
5.02811e-10
6.50168e-05
2.82152e-09
-1.65706e-05
-5.30701e-10
4.94521e-10
-7.57256e-05
-9.70198e-11
-4.00864e-10
4.01129e-10
1.58323e-09
-1.4331e-06
8.67844e-09
-0.000176363
1.16351e-09
6.84551e-10
1.43503e-10
6.48181e-11
-0.00022248
1.99119e-10
-3.41264e-10
-2.29985e-10
-8.41138e-05
-4.88668e-10
4.03565e-10
-2.2724e-08
0.000112508
5.58898e-10
1.00173e-10
-6.38686e-10
2.27833e-10
8.74688e-11
-8.8734e-10
-2.49135e-05
-1.87028e-10
6.87561e-07
-1.69233e-11
-8.34725e-05
-1.776e-09
-5.37107e-10
-2.40878e-10
2.73235e-10
6.43321e-09
-3.33212e-10
1.35989e-10
-5.57817e-10
2.94521e-10
-7.2925e-05
-4.41855e-10
-2.12852e-10
-3.01006e-12
-0.000150691
2.99952e-12
-1.18156e-06
1.0412e-05
-4.68045e-11
1.44544e-10
-0.00151639
5.1897e-10
-2.04959e-10
-1.89547e-09
-7.40337e-10
3.1317e-10
-3.47618e-05
-5.57078e-10
-2.65402e-05
-2.01405e-10
-1.92124e-06
-1.03728e-09
-1.47831e-10
-5.81428e-05
3.06102e-10
-1.97265e-09
1.29132e-08
-1.05253e-10
1.70686e-10
7.04503e-07
3.78519e-10
-7.46407e-10
-5.11142e-05
5.59789e-05
5.11617e-10
-1.1122e-10
3.11285e-10
-5.56945e-10
-3.07145e-10
-1.88012e-09
3.34109e-05
2.26747e-10
-6.76138e-11
9.65218e-06
0.000163461
2.29557e-10
2.80804e-10
7.74062e-11
1.95041e-10
-2.06382e-11
8.32561e-06
5.90085e-11
-9.30267e-10
2.79778e-10
1.17301e-09
-1.94985e-09
-2.98307e-10
1.50517e-09
-1.0533e-05
-5.18118e-05
1.26115e-11
-4.07809e-11
-7.21104e-05
-7.84438e-10
-4.3849e-10
1.27226e-09
9.9415e-09
1.7237e-09
-8.41359e-11
3.50038e-10
4.46403e-05
3.08425e-10
-1.37591e-05
0.00015711
-0.000173383
-2.50007e-10
-6.96266e-11
9.54446e-05
6.15666e-10
3.61955e-10
7.20624e-11
1.6376e-10
1.48507e-10
4.07295e-10
1.90451e-09
-1.88071e-09
-1.34911e-10
-3.35334e-07
3.01254e-10
2.39435e-10
-3.48888e-10
-3.03675e-08
4.87546e-10
-8.34889e-05
2.21045e-10
2.26982e-09
-2.74731e-05
-1.06059e-09
-1.2044e-09
8.16907e-11
0.000115511
-1.50504e-06
1.51473e-10
-7.90965e-10
2.43714e-10
1.95627e-09
-7.72975e-05
-1.34973e-10
2.16688e-10
1.01675e-08
5.91265e-09
-5.03024e-10
1.1441e-11
2.96957e-05
-1.05825e-10
-3.54254e-10
7.4398e-10
1.73191e-10
2.02089e-10
-1.53778e-10
5.7606e-10
-6.35261e-10
-2.81044e-09
-8.56164e-05
-6.73018e-10
-1.41742e-11
-1.95809e-10
-2.65999e-10
-1.93842e-09
-7.47102e-09
-8.12638e-05
2.86674e-10
8.41897e-10
-1.26363e-09
-2.08444e-10
-3.95122e-09
-2.15464e-10
3.15089e-10
5.1899e-11
1.88372e-11
1.20622e-09
-1.62355e-10
7.12552e-10
5.65111e-10
4.17831e-11
-3.86716e-10
-3.86926e-10
-1.87522e-10
3.03536e-09
-2.77426e-10
2.32475e-09
-6.71565e-10
-1.57185e-10
2.74155e-05
-3.13712e-09
2.72527e-10
7.52589e-08
4.37216e-10
-2.96119e-10
5.70874e-11
-2.60998e-10
-2.10916e-10
-7.41829e-11
-2.92288e-11
-3.15872e-11
-3.14148e-10
-3.19066e-09
8.40259e-11
-5.61781e-10
-6.83344e-06
-4.76068e-05
-1.17989e-10
-3.56687e-05
-6.83628e-11
-2.43694e-10
-6.71824e-10
-5.35662e-08
1.06334e-10
-4.82575e-10
9.62829e-12
-5.92392e-10
2.17715e-05
-4.38896e-10
9.26397e-09
2.03368e-09
-1.06127e-10
3.1908e-05
2.8889e-12
-5.22797e-05
1.23788e-10
1.94772e-09
-2.87515e-10
7.06679e-10
7.79067e-07
8.20508e-10
-5.53408e-05
4.01135e-05
-8.15317e-05
1.81111e-10
0.00015112
8.81838e-05
-4.46212e-05
-3.54128e-10
-2.94143e-10
6.38673e-11
-7.07546e-12
3.79067e-11
2.56956e-10
1.61125e-10
-8.40955e-06
4.24837e-10
1.475e-09
-7.96538e-05
7.24141e-12
2.05648e-10
8.01234e-10
2.2026e-10
-2.60396e-07
-3.08435e-05
1.5501e-10
4.86448e-11
-6.01876e-10
-4.79148e-10
-3.90253e-10
6.84032e-06
0.000158367
1.16205e-10
-8.39895e-05
-3.56376e-10
1.08545e-09
-3.70125e-10
1.04283e-08
-1.93432e-10
1.81687e-06
-8.6842e-09
-2.88703e-05
-2.3318e-09
7.09288e-10
4.21907e-06
-5.37076e-11
1.1906e-05
-2.67917e-05
3.38348e-11