/*--------------------------------*- C++ -*----------------------------------*\
| =========                 |                                                 |
| \\      /  F ield         | OpenFOAM: The Open Source CFD Toolbox           |
|  \\    /   O peration     | Version:  v2012                                 |
|   \\  /    A nd           | Website:  www.openfoam.com                      |
|    \\/     M anipulation  |                                                 |
\*---------------------------------------------------------------------------*/
FoamFile
{
    version     2.0;
    format      ascii;
    class       volScalarField;
    location    "50";
    object      k;
}
// * * * * * * * * * * * * * * * * * * * * * * * * * * * * * * * * * * * * * //

dimensions      [0 2 -2 0 0 0 0];


internalField   nonuniform List<scalar> 
34253
(
0.000187089
0.000145636
0.000184565
0.00010944
9.35084e-05
0.000111134
0.000104192
0.000144815
9.36629e-05
0.044733
0.000104344
0.0496427
0.000130758
0.069445
0.00012868
0.000104827
0.000201863
0.0264589
0.000102531
0.000109265
0.00012933
0.000109869
0.000113444
0.000101911
0.00012066
0.000104202
0.000104361
9.38481e-05
0.000105575
9.75288e-05
0.000503056
0.000121667
9.37316e-05
0.000135422
0.000103231
0.0960242
0.127384
9.34568e-05
0.000119302
9.36717e-05
0.082192
0.000411462
0.108781
0.0972053
0.00950753
0.000128977
0.000112613
0.000113716
9.76057e-05
9.36938e-05
0.000146217
0.000114839
0.000397581
0.0134515
0.000113655
0.000101806
0.000104583
9.46172e-05
0.000112785
0.000127142
0.000118917
0.00010248
0.000120018
0.000935518
0.000104696
0.0910154
0.0156856
0.0154887
9.39449e-05
0.000135777
9.58582e-05
0.000119042
0.0110769
0.000101667
9.13998e-05
0.000841906
0.000153535
9.54809e-05
0.00636848
9.1416e-05
0.0381573
0.000101921
0.000102222
0.000104932
0.00040876
0.000267573
0.000114589
9.31957e-05
0.000111798
0.0395835
0.000177031
0.000738783
0.000453034
0.000109648
0.000146195
0.00752788
0.000114019
0.0272028
0.00142488
9.43172e-05
0.000105924
0.000103954
0.000192062
0.0874425
0.00133282
0.000105434
0.00012046
0.000126112
0.0102899
0.000192052
9.08211e-05
0.0264644
9.40739e-05
0.000112703
0.0771311
0.0132854
0.000114176
0.000109155
0.00011819
0.000293524
0.0408433
0.000128828
0.000123882
0.0381625
0.000125203
0.000987638
0.000131144
0.045486
0.000132678
0.000158588
0.00641142
0.000436268
0.0429634
0.000119469
0.02502
0.000132113
0.000102995
9.75622e-05
0.0516684
0.000100968
9.40591e-05
9.71617e-05
0.000113001
0.0956924
0.000672451
0.000113159
0.000121913
0.000115937
0.000113018
0.000192692
0.000132462
0.000105868
0.0712608
0.000119917
9.35789e-05
0.000104412
0.0200337
0.000147456
0.000105275
0.00900895
9.57908e-05
0.000109834
0.000110728
0.000449318
0.000153294
0.0451306
0.000153918
9.53841e-05
0.000116615
9.7504e-05
0.000120804
0.000113898
0.00010305
0.000119016
0.000121018
0.000112571
0.000237321
0.000152145
0.000121439
0.000109724
0.000113175
0.000100229
0.000160554
0.000120588
0.000101237
0.000129046
0.000191785
0.0253074
0.000127083
0.0446069
0.0137194
0.0994846
0.000101005
0.000104797
0.0882459
0.000104738
0.000377516
9.1021e-05
0.000107723
0.00014276
0.000104048
0.000374009
0.0433039
0.000125057
0.000411148
0.00010101
0.000116075
0.044998
0.0352358
0.000108549
0.000439149
0.000111639
0.000148953
9.58557e-05
0.000129077
0.000121727
9.29971e-05
0.000519373
0.000106928
9.43916e-05
0.000213653
0.00010954
0.000442814
9.85984e-05
0.000106455
9.73548e-05
0.000265333
0.000221007
0.000106084
0.0364935
0.010118
0.00010226
0.000136507
0.00010112
0.000137735
0.000159633
9.55017e-05
0.0625609
0.000111162
0.000454939
0.000111349
0.000105262
0.000101275
0.000114214
0.0439025
0.000187277
0.000146701
9.79991e-05
0.00010799
0.00787482
0.000106814
0.0636559
0.000110681
0.00010686
0.0525253
0.000108591
0.130584
0.0479839
0.000102885
9.88049e-05
0.000104402
0.000113302
0.000128774
9.21267e-05
0.000106423
0.000100674
0.0309711
0.000107915
0.000106895
0.000127247
0.000119756
0.000476169
0.000105642
0.000107024
0.000102385
0.000104982
0.000380335
0.000133703
0.000113706
0.000755664
9.21424e-05
0.0065475
0.000100092
0.000105277
0.0609671
9.80897e-05
0.00012571
0.00012171
0.000126574
9.98379e-05
0.000188068
0.00369488
0.000201938
0.000113655
0.000107494
0.000116631
0.00107716
9.65309e-05
0.000101229
0.000147959
0.000147625
0.0425564
0.000102392
0.000101157
0.000104759
0.000109543
0.000108403
0.000106112
0.00010933
9.59838e-05
0.000101002
0.000321452
0.000113447
0.0389569
0.000104823
0.0011881
0.00939754
0.000114631
0.000118571
0.0406847
0.000108477
0.00015696
0.000298941
0.000128761
0.000790702
0.000111256
0.000102868
0.000101294
0.000128576
0.000110045
0.00011129
0.0422166
0.0065482
0.0569504
0.00133536
0.000103333
0.000138087
0.0469611
0.0755275
9.37199e-05
0.000361663
0.10733
9.53787e-05
0.000116425
0.000100462
0.0465214
9.63938e-05
0.000102962
0.000179916
0.000100282
0.000108455
0.000145318
0.000131667
0.0620046
9.76452e-05
0.000101001
0.000114085
0.000105946
0.000430001
0.000101808
0.000108358
9.75827e-05
9.66203e-05
0.0491532
9.4851e-05
0.000104545
0.000101919
0.0529422
0.00993021
0.000102701
9.81394e-05
0.000105905
0.0297812
0.000103247
0.000114162
9.91198e-05
0.10765
0.000102286
9.22001e-05
0.000101113
0.000480297
0.000109002
0.00220473
0.000147248
0.00195104
0.000106996
0.0778525
0.00010646
0.000117158
0.000108403
0.000106169
0.000337364
0.000148205
0.000112173
0.000100879
0.0579764
9.92396e-05
0.000116057
0.000253556
0.000120868
9.52289e-05
9.09179e-05
0.000103993
0.000106482
0.000106114
0.000103225
0.000121139
0.000112203
0.0294911
0.000104144
9.37631e-05
0.000169639
9.94325e-05
0.00288027
0.000113047
0.000105794
0.00016102
0.000116258
0.000106069
0.000118108
0.000267491
0.000762359
9.60214e-05
0.0873657
0.000101641
0.0631955
0.000207883
9.82117e-05
0.000180371
0.0573265
0.0404354
9.46168e-05
0.000103624
0.0640025
0.000112233
0.000106185
0.000113829
0.000100915
0.000202862
0.00010955
0.0496661
0.000101175
9.53424e-05
0.000122495
0.068794
0.000102103
0.000132079
0.000221627
0.000106901
9.76512e-05
0.113933
0.001044
0.000108558
0.000129474
0.00576784
0.000110061
0.111413
0.000103413
0.000132133
0.000113821
0.0449182
0.000113125
0.00825153
0.000109206
0.000153559
0.000123047
9.68445e-05
0.129572
0.0465883
0.0116112
0.000100403
0.000112791
0.000148224
0.000208199
9.45001e-05
0.000285726
0.106774
0.0899133
0.00010063
0.0850947
0.000111327
9.8217e-05
9.57965e-05
9.12829e-05
0.0310041
0.000103793
0.0546657
0.000126563
9.19174e-05
0.039107
0.000132444
0.000115079
0.000114342
0.000341297
0.0515442
0.00011491
9.46791e-05
0.000107938
0.0883435
0.000106904
9.97249e-05
0.000100457
0.000109846
0.029087
0.0539746
9.52355e-05
9.33782e-05
0.0001036
0.000112327
0.000101732
0.000119745
0.0784182
0.000113669
0.000106847
9.79784e-05
0.000100233
0.105467
0.000126476
0.000128988
9.96711e-05
0.0526216
0.000109157
0.00010128
0.000104102
0.000117324
0.0540854
0.000148625
0.0682788
0.000121679
0.000106329
0.000250943
9.78971e-05
0.000113816
0.000128548
0.000809529
0.000101888
0.000114697
0.00153372
0.000104499
9.3221e-05
0.000105818
0.000146922
0.0042473
0.000125143
0.00168966
9.60934e-05
0.000125739
0.000125668
0.000105793
0.113168
9.76275e-05
0.000105656
0.0798757
0.0051412
9.95441e-05
0.00012078
0.000177073
0.000223037
9.15579e-05
9.57106e-05
0.00885232
9.75938e-05
0.000220536
0.000119567
0.0324396
0.0701708
0.000243902
9.32706e-05
0.00010889
0.000103477
9.14186e-05
9.47242e-05
0.0298557
9.76908e-05
0.000108487
0.000104943
0.0599656
0.000125466
9.232e-05
0.000116901
0.000109873
0.000108079
9.80432e-05
9.13707e-05
0.000105338
0.0594656
0.000109978
0.00829316
0.000111517
0.0796854
0.000110917
0.000112289
9.56477e-05
0.000110141
0.000131443
0.000123079
0.000146437
0.000242733
0.000105912
0.00939608
0.000121403
0.019586
0.000122168
0.000163019
0.000120957
0.000103437
0.00761827
0.000105899
0.000110934
0.0941276
0.000697953
0.000102376
9.70237e-05
0.000106408
9.94057e-05
0.000149545
0.000108893
0.000131868
0.000198107
9.56165e-05
0.00010648
9.74383e-05
0.000118905
0.000103436
0.000105306
0.000110861
0.000116828
9.37302e-05
0.000192624
0.000138584
0.000413653
9.33275e-05
0.000110182
0.00957282
0.00055268
0.0577039
0.000118652
0.000124409
0.0502652
0.000102615
0.000106625
0.0378815
0.000105794
0.000105903
0.0420324
9.93625e-05
0.0539818
0.000108949
0.000120925
0.000118438
0.0907944
9.69965e-05
0.0527412
0.000107972
0.00011299
0.000109549
9.22291e-05
0.000106419
0.000109713
0.0329194
0.0557603
0.0370942
0.000108073
0.000107447
0.0479827
0.00133795
0.0535379
0.000148111
0.000117082
0.000109463
9.41415e-05
0.000783721
9.83607e-05
9.46426e-05
9.76073e-05
0.000348682
0.000123461
9.65997e-05
0.000100434
9.35203e-05
0.000114857
0.000107266
0.000155538
0.000163086
0.000126632
9.08419e-05
0.000125113
0.000100669
0.000104629
0.000577219
9.92103e-05
0.000115624
0.000151547
9.7885e-05
0.000132521
0.0647459
0.000104689
9.72486e-05
0.000108214
0.000100603
0.000103639
0.0344451
0.0577862
9.41429e-05
9.69498e-05
0.0628485
0.000101881
0.000100763
0.000109652
9.93468e-05
0.000122131
0.000114224
9.1158e-05
0.00014639
0.000107376
0.000110588
9.16934e-05
0.0868281
0.000114395
0.00011365
0.000147654
0.00011241
0.000207788
0.000119719
9.99146e-05
0.000101612
0.000151156
0.000112143
0.0693024
0.000103845
0.053814
0.00011633
0.000101332
0.000106353
0.0598365
0.000108468
9.18609e-05
0.000106821
0.000106517
0.000100447
9.57489e-05
0.000233879
0.000100329
0.000103144
0.0572456
9.87519e-05
9.92031e-05
0.000118488
0.000106316
0.000121551
0.000725109
0.000100112
0.000139708
0.000208052
0.0983305
9.42436e-05
9.11023e-05
0.000110954
9.65752e-05
0.000144118
0.000121647
0.000117864
0.000192899
0.123494
0.00012137
0.000482275
0.000106129
0.000107845
0.00014896
0.000123548
0.0403246
0.0468463
0.000127149
0.000261018
0.000102614
0.0622711
0.000108614
9.49868e-05
9.1223e-05
0.0489234
9.90835e-05
0.000121148
0.0474125
0.00013423
0.000123417
0.000512142
0.000176509
0.0001102
0.000104841
9.1686e-05
9.78742e-05
0.0783408
0.000106779
0.000107194
0.000106873
0.000105192
0.00107639
0.000114375
0.000107078
0.00010659
0.0201224
0.000100352
0.000105487
0.000114036
0.00012125
9.76973e-05
0.000121971
0.000104753
0.000108102
0.000122466
0.000109967
0.000112808
0.000105655
0.000357017
0.00358393
0.000111491
0.000111092
0.000247502
0.000106414
0.0738792
0.0874222
0.0001396
0.000350099
0.000113211
0.000104116
0.000237582
0.0825663
0.000122767
0.00945334
0.000122219
0.000286185
0.000110213
0.000146959
9.20028e-05
0.0636509
0.000391395
0.000268563
0.000102274
0.000131776
0.000119446
0.000105836
0.000119208
0.000112321
0.000109642
0.000281301
9.60436e-05
0.000107145
0.0429093
0.000105503
0.000122128
0.000160903
0.0502286
9.38057e-05
0.000115854
0.0791667
0.0643696
0.000320729
9.51485e-05
9.94528e-05
0.125189
0.000109191
0.000135246
0.000105781
0.00074949
0.055099
0.0710996
0.000105162
0.000118627
0.000363197
0.000126899
0.0003506
0.0306597
0.000145646
0.000107879
0.000102789
0.076683
0.0846178
0.000119796
0.000126901
0.00012048
0.0477933
9.53989e-05
0.00011837
0.000176505
9.12501e-05
9.79651e-05
9.9362e-05
9.71839e-05
0.000174058
0.000125172
0.000126898
0.0684289
9.2694e-05
0.000136344
0.000144306
0.000107918
9.21688e-05
9.13756e-05
0.00010374
9.33924e-05
0.000109911
9.61515e-05
0.000129655
0.000109297
0.000109531
0.0251996
0.000101519
0.000126477
0.0425592
9.30048e-05
0.000147674
0.000388798
0.000123099
0.000100089
0.000123952
9.83531e-05
0.102152
0.000108533
0.000146592
0.000104718
0.000103441
0.000115624
0.000118482
0.000142186
9.42397e-05
0.000121474
0.0666613
0.000117275
0.000207937
0.000109238
0.0672005
0.000109112
0.000100555
0.000136642
0.00010564
0.0524396
0.00361725
0.00010859
0.0321121
0.00012576
0.000105531
0.0510064
0.00305815
0.000126392
0.000130296
0.000119586
0.000107803
0.000143268
0.000103899
0.0399346
9.67644e-05
0.000113978
0.00578435
0.000103548
0.000399939
0.000105662
0.000100768
0.000119569
9.33634e-05
0.0498611
0.000111293
0.000327742
0.000141006
0.124864
0.000269405
0.000148149
0.000108518
0.00012551
0.000388439
0.000118125
0.000114081
0.000105662
0.0468333
0.000108421
0.000123724
0.00010074
9.97763e-05
0.00389666
0.000264594
0.0471888
0.000114168
0.000111476
9.56636e-05
0.000371829
9.33804e-05
0.000242088
0.000202522
0.00010921
0.000116416
0.000243959
0.000294991
0.044296
0.0417327
9.94822e-05
0.000113128
0.000116071
0.000898244
0.000112671
9.73021e-05
0.00401657
0.000123949
0.00012075
0.0410137
0.000104892
0.000209
0.000115052
0.000271264
0.0001424
0.000111701
0.000101397
0.000115358
0.055235
0.000100335
0.000318473
0.000108288
0.0515697
0.000496645
0.00744277
0.0009376
0.000112724
0.000117892
0.000507127
0.000105193
0.0730784
0.000108289
0.000113211
0.0433334
9.55703e-05
0.000130685
0.000291407
0.00476332
0.0522891
0.000132127
9.709e-05
0.000464113
0.00010824
0.0336811
0.0307626
0.000256572
9.73175e-05
0.00067299
0.000129641
0.000108234
0.000102821
0.00108412
0.000341946
0.000350691
0.000412891
0.000108978
0.000758909
0.00025447
0.000148139
0.00144398
0.00010659
0.000255403
0.000234698
0.00025204
0.000109053
0.00235624
9.82377e-05
0.000104856
0.000106367
0.000104664
0.000106783
0.000104095
0.000112229
0.0699118
0.126629
0.000113488
0.000119864
9.61007e-05
0.000100695
0.000226838
0.000114501
0.000142109
0.000100641
0.00014795
0.000105676
0.0768796
0.000115116
9.981e-05
9.2456e-05
9.42149e-05
0.000106274
0.000123758
0.00012096
0.000112085
0.000624365
0.000135387
0.000104712
0.000148402
0.00117831
0.000108324
9.34702e-05
0.000101462
0.000112111
0.000109402
0.000146255
0.00456718
0.000114982
0.000110903
0.000112351
0.0578128
0.000132524
0.000460995
0.0791395
0.000115682
0.000221999
0.00012613
0.013193
0.000106355
0.000126249
0.000135877
0.000103623
0.000113431
0.00010699
0.000147775
0.00010802
0.000115061
0.000125492
0.0328299
0.0450303
9.78356e-05
0.000266442
0.00011274
0.000209796
0.000123442
0.0498109
0.000116634
9.39888e-05
0.000115465
0.115089
0.0454648
0.000106754
0.000106851
0.000101182
0.000100677
0.000137871
0.000103159
0.000101891
0.0236127
0.0264434
0.000135281
0.0407667
0.000124573
9.84203e-05
0.0476764
0.0440962
0.0550477
0.000106434
0.000382253
0.000143663
0.0438764
0.000195746
0.0332156
9.97789e-05
0.0511726
9.16656e-05
0.000106554
0.0914808
9.351e-05
0.0486704
0.000117227
0.00010331
0.000133329
0.115339
0.000113853
9.42353e-05
0.000100443
0.000133138
0.00164621
0.000130158
0.0504818
0.000114675
0.000107354
0.000420564
0.000134481
9.97669e-05
0.000123115
0.000104504
0.000126399
9.9671e-05
0.000232314
0.000140458
0.000232031
0.000103208
0.0490312
0.0941643
0.000104626
0.000106568
0.000113082
0.000116097
0.0364479
0.00010231
0.0502805
0.0001098
0.000104001
0.0108276
9.05468e-05
0.000475523
0.000101123
0.000102827
0.000106408
9.77578e-05
0.000121108
0.000121342
0.00010626
0.000126618
0.000103395
0.000100377
0.0463888
9.92863e-05
0.00010386
0.000148044
0.0517524
0.000134876
0.000121235
0.00010535
0.00011002
0.000119398
0.0447701
0.0143738
0.0117754
0.0100263
0.000114114
9.77228e-05
0.000229968
0.000124317
0.000117491
0.000108743
0.000131384
9.9763e-05
0.000112997
0.00010658
0.001461
0.000100421
0.000101303
0.0916937
0.000127614
9.95602e-05
9.83688e-05
0.000106535
0.000774593
0.000106225
0.000106525
9.40566e-05
0.00384834
0.000114204
0.000130591
0.000106855
0.000120041
0.000115461
0.000123127
0.000140524
0.000106506
0.0303065
0.0436139
0.000140777
0.000105666
0.000141806
9.28475e-05
0.0658717
0.000108231
0.00012826
9.2633e-05
0.0843099
0.000117273
9.47519e-05
0.000115051
0.000120328
0.00266842
0.0506471
0.0769846
0.000112905
0.000106276
9.46329e-05
9.22383e-05
0.000120533
0.0388479
0.000107499
0.000110734
0.00010504
0.0197907
0.000105754
0.000103815
0.000104824
0.000105531
0.000117656
0.000104796
0.000115476
0.000115267
0.000104982
0.000101286
0.000126184
0.000141012
0.000117117
0.000114211
0.000207092
0.0556651
0.000125785
0.0930801
0.000106797
9.44825e-05
0.0338599
0.0513326
0.00010284
0.128686
0.000101247
0.000119791
0.000133603
0.000119661
0.000225468
0.000768903
0.000156669
0.000124123
0.0644217
0.000107576
9.16183e-05
0.000117552
9.97878e-05
0.000104136
0.0681281
0.000489879
0.000102454
0.000118346
0.000114426
0.000105401
0.000119658
0.0660002
0.0900362
0.000122589
0.000114306
0.000132295
0.0929825
0.00012096
0.000204005
0.000140177
0.000106361
0.000107496
0.0529598
0.000149536
0.0675378
0.00307465
0.0434782
0.000146836
0.0675446
0.000119033
0.0461147
9.3395e-05
0.000115161
0.0010206
9.42142e-05
0.000117405
0.0843195
9.26872e-05
0.000136087
0.000122265
0.000479292
0.000120318
9.30505e-05
9.80326e-05
0.000116722
0.00013467
0.000132148
0.0756693
0.000121745
9.54313e-05
9.31012e-05
9.90194e-05
0.127211
0.126
0.000106883
0.000124103
0.000126888
9.97913e-05
0.00010077
0.111601
0.000109772
0.000117684
0.00992127
0.00373667
0.000113251
0.00033263
0.000126706
9.83538e-05
0.000106621
0.000126187
0.084888
0.000100738
0.000122368
0.000211005
9.90169e-05
0.000104391
0.000105265
0.000107524
0.000112511
0.000502211
0.028952
0.117376
0.000102639
0.0357374
0.000126076
0.0763132
0.000112383
0.000102514
0.000103066
0.069257
0.000141365
9.05924e-05
0.00012393
0.000131873
0.000101657
0.00012948
0.000130119
0.0760218
0.000114045
0.000110925
0.000124446
0.000109487
0.00014192
0.00848699
0.000149025
0.000105758
0.00928643
0.000130582
0.0418454
0.000104851
0.000100383
0.000126963
0.00274286
0.000107284
0.000192008
0.00010778
0.000121796
0.0001216
0.000107949
0.000123278
0.0126746
9.36304e-05
9.40668e-05
0.000352906
0.000114831
9.82765e-05
0.121835
9.9716e-05
0.000100082
9.38547e-05
0.000114475
0.050835
0.000106256
0.000408912
0.000130503
0.000127102
9.77001e-05
9.6187e-05
0.000104079
0.000120531
0.000108242
9.45351e-05
0.000101308
0.000110536
0.000491622
0.000109678
0.00023645
9.97281e-05
9.31294e-05
0.000786228
9.10843e-05
0.000107451
0.000100488
0.000199832
9.99005e-05
0.000117843
0.000147687
9.71972e-05
0.0463447
0.000103398
0.000107805
9.44375e-05
0.000114363
0.000179083
0.0526696
0.000106488
0.000557833
0.000106836
9.7011e-05
0.0913973
0.000126013
0.000115073
0.000122712
9.78188e-05
0.000259207
0.000108276
0.00628351
0.000112375
0.000111628
0.000107837
0.000114699
0.000101543
0.0547141
9.8525e-05
0.000113813
0.00010232
0.00015006
9.52575e-05
0.00302645
0.000112049
0.117628
0.000129658
0.00562046
0.000109845
0.090315
0.000132024
0.0414083
0.000114537
0.0453277
0.000113355
0.106387
0.000114342
0.000117808
0.000119185
0.000108079
0.000107409
0.118978
0.000100367
9.39875e-05
0.00010627
0.000104955
0.00011509
0.00197648
0.000106651
0.0415717
9.90746e-05
0.024794
0.0387964
9.2478e-05
0.000128423
9.82933e-05
0.000104078
0.000105609
0.0391028
0.000101777
0.00682171
0.000103784
0.00014688
0.0055737
0.00010053
0.000118573
9.86236e-05
0.000114753
9.5762e-05
0.000122524
0.000132764
0.000108398
0.000110385
0.000121008
0.000113361
0.000113029
0.123443
0.00011442
0.0665464
0.00538264
0.000105374
0.000107428
0.000115058
0.000148484
0.000132431
9.78515e-05
0.000122742
0.000206955
0.000107448
0.000102052
0.000106555
0.000123589
0.0810909
0.000106747
0.000133159
9.75031e-05
0.000122283
9.94981e-05
0.000118266
0.000112672
0.0371053
0.0341415
0.000114282
0.000102178
0.000105124
0.000100087
0.000107788
0.000108184
9.17721e-05
0.000107342
0.000103295
0.000119868
0.000219684
9.55616e-05
9.33832e-05
0.000121783
0.000124891
0.000142973
0.000275244
0.000107228
0.000113565
0.0379645
0.000809821
0.000106317
0.120369
0.0250534
0.0536279
0.00011603
9.36366e-05
9.39082e-05
0.00010586
0.00015984
0.000199523
0.000111009
0.000321141
0.0483385
0.000104376
0.000121693
0.000101791
0.0534135
0.000196957
0.000348005
0.000109291
0.000110743
0.000114665
0.0481337
0.000118596
0.000105671
0.0883187
0.000112141
0.0001602
0.000104013
0.000123662
0.000104384
0.00010672
0.00011755
0.0298974
0.0100002
0.000107035
0.000306518
0.000119452
9.36895e-05
0.0392384
0.000106377
0.000147721
0.00010292
0.000115095
0.000102747
0.000143495
9.28112e-05
0.00516398
9.44397e-05
0.000101346
0.0654924
0.000106674
0.000138997
0.000102001
0.000104787
0.000412732
0.000394016
0.000144192
0.000115684
0.000113423
9.37755e-05
0.000122298
0.0609604
0.000133824
0.000119835
0.0563439
0.000120727
0.000108059
0.000102788
0.000234374
0.0756507
0.000134656
0.0510822
0.0710968
0.00170212
0.000110638
0.000103354
0.000400228
0.0851639
0.0010923
0.000182392
0.000126229
0.000103431
0.000111338
0.0955877
0.0461028
0.000105249
0.000142855
0.000137236
9.8339e-05
0.00010869
0.000110308
0.000108274
0.000239123
0.000123685
0.000394108
0.00013451
0.00010803
9.6594e-05
0.000108568
9.7545e-05
0.0407505
0.000131645
0.000331113
0.000320584
9.38752e-05
0.00282431
0.000110386
0.000125196
0.000110644
0.000111499
0.000104241
0.000119829
0.000138393
9.33335e-05
0.000118491
0.000113514
0.0419923
0.000112932
0.0461246
0.000105195
0.000108971
0.000115394
9.24141e-05
9.11298e-05
0.000131256
0.000106071
0.0542994
0.0381285
0.0743284
0.000379927
9.48168e-05
0.000129232
9.67868e-05
0.000117558
0.000234153
0.000123182
0.0586789
0.000126956
0.000112281
0.000134811
0.000262729
0.0043338
9.64992e-05
0.0536743
0.00129061
0.000121493
0.000122157
0.000118863
0.000107665
0.0403163
0.00251914
0.00166448
0.000306924
0.000120851
0.0587849
0.0119035
9.24371e-05
0.000107225
0.000103139
0.032832
0.00011621
0.000104221
0.000118495
0.0590774
0.127812
0.000179471
0.000101408
0.000105095
0.000105217
0.000195078
0.0377231
0.000137305
0.000108243
0.000127813
0.000105744
0.000132814
9.16541e-05
0.0651606
0.0575253
0.000119491
0.000123692
0.000105544
9.15194e-05
0.0933517
0.000183638
0.000103749
0.000143226
0.000178896
0.000104467
0.023076
0.000100577
0.000117066
9.99944e-05
0.000114008
9.80343e-05
0.000134172
0.000122554
0.000234363
0.000120701
0.000114148
9.92216e-05
0.0480093
9.88661e-05
0.113954
9.68876e-05
0.000117361
0.000247544
0.000144261
9.51065e-05
0.000147631
0.000122306
0.0469536
0.000398892
0.000373401
0.000131123
0.000102503
0.0001208
9.96037e-05
0.00047593
0.0495341
0.000961341
0.000103185
0.000116411
9.96457e-05
0.000126236
0.0555941
0.0646354
0.000108472
9.56219e-05
0.000104734
0.000105767
0.0982597
0.000104526
0.0612033
0.11978
0.000108588
0.000146783
0.00019904
0.00573473
0.000103735
9.18737e-05
0.000114313
0.000119616
0.0422528
0.034154
0.00010668
0.0520332
0.0463746
9.07619e-05
0.000191522
0.000131382
0.000114449
9.41177e-05
0.0187386
0.000114145
9.28855e-05
9.47168e-05
0.000140538
0.026184
0.000104505
0.000413954
0.0737893
0.000179503
0.000110152
0.000235642
0.000101423
0.000105379
0.000121703
0.000122115
0.000121495
0.000110655
0.00712247
0.000105611
9.85679e-05
0.000124804
0.0874384
0.0559871
0.000122674
0.000102771
0.000104108
0.000148121
0.044051
0.00762504
0.000112242
0.000113782
0.0227463
0.0590035
0.000370029
0.000100737
0.000101644
0.11727
0.000120644
0.000128165
0.00205786
9.9404e-05
0.000132265
9.63522e-05
0.000119843
0.000198025
0.00013567
0.000106831
0.000244542
9.49895e-05
0.000135248
0.000109607
0.000120542
0.000105344
0.000104734
0.00010328
0.00070066
0.0719571
0.000120026
0.000105435
0.00010528
0.000119537
9.1703e-05
0.000131825
9.4295e-05
0.000125676
0.0792042
0.00011406
0.0503006
0.000113833
0.000117716
9.7527e-05
0.0442511
0.000108338
9.92841e-05
9.94795e-05
0.000101123
0.11342
0.000105661
0.000110354
0.000106087
0.000129296
0.000123087
0.0477458
9.44708e-05
0.000124667
9.11568e-05
0.0125768
0.00011826
0.000763993
0.000171131
0.000126299
9.71308e-05
0.000124905
9.18884e-05
0.000106723
0.000106769
9.21403e-05
0.00422116
0.000106155
0.000134022
0.000117685
0.0581789
0.000556023
0.000106736
0.000406471
0.000112716
0.000108273
0.000130772
9.51468e-05
0.0290911
0.0613488
9.62975e-05
0.000106999
0.0001015
0.000168775
0.00014863
0.000100558
9.43257e-05
9.99905e-05
0.000108801
0.000128544
0.000130758
0.000108459
0.000103204
0.0578555
0.000102228
0.0867265
0.106379
0.000145294
0.000142047
0.0207649
0.00056311
0.0492135
0.128638
0.0577027
9.52375e-05
0.000117245
0.0322656
0.000106941
0.00010868
0.0540207
0.000129419
0.00459368
0.000100281
0.00145011
0.00118076
9.11355e-05
0.000148333
0.000105745
0.00954359
0.000114006
0.000114138
0.000126426
0.000101148
0.000137134
0.000499555
9.1905e-05
0.00011529
0.000112843
0.000185263
0.000105388
0.000104375
0.000103358
0.047034
0.000128378
0.00013783
0.000104138
0.000127565
0.00118905
0.000116277
9.30895e-05
9.12448e-05
0.000133362
0.0616396
0.0507525
0.000105274
0.00604775
9.18985e-05
0.000109402
0.0283542
0.119745
0.000114188
0.000103772
0.000147865
0.000135411
0.000109521
0.00788764
0.000106203
0.000112312
0.000130483
0.000115877
0.000135025
0.000111014
0.11196
0.0352215
0.0593504
9.71956e-05
0.000104042
0.000106358
0.000149791
9.35793e-05
0.000122337
0.000125902
0.0241488
0.000244889
0.0808061
0.000120372
0.000115318
0.0655948
9.53043e-05
9.68176e-05
0.000103774
0.000125545
0.0112926
0.000207986
0.0944247
0.000122711
9.10311e-05
9.20137e-05
9.89748e-05
0.078192
0.000120031
9.26163e-05
0.000110709
0.0238963
0.000102752
9.13581e-05
0.000812612
0.0345698
0.00013326
0.000115442
0.000109375
0.000104167
9.91389e-05
0.000114053
0.0118014
0.000114525
0.0758665
0.00010465
0.0597151
0.000115539
0.000106705
0.000104533
0.000110854
0.000388168
0.000103037
9.33568e-05
0.000119224
0.000104551
0.0487262
0.00010529
9.98052e-05
0.000103932
0.0893818
9.17808e-05
0.00610059
0.00728051
9.37383e-05
0.00013775
0.125821
0.000108971
0.000110281
0.000119969
0.000110345
0.000100802
0.0349406
9.62378e-05
0.0780046
0.00014646
0.055282
0.000108213
0.000101086
0.050832
0.000104858
0.000124922
0.000735251
9.32649e-05
0.000100786
0.00103421
0.00010524
0.000108616
0.0467408
0.0853118
0.000108267
9.96592e-05
9.4376e-05
0.00010576
0.000108491
0.000125907
0.0455605
0.000136829
0.000100533
0.00934038
0.0896962
9.33393e-05
9.37516e-05
0.000127656
0.000108537
0.000114062
0.00160087
9.97428e-05
0.000112619
9.569e-05
0.000107979
0.000114018
0.000109611
0.000113963
0.0442357
0.0490806
9.10669e-05
0.000102516
0.0654568
0.000115439
0.000104032
0.000112821
0.000119596
0.0001176
0.000108023
0.00011254
0.046967
0.000103843
0.017092
0.0994675
0.0281188
0.000105507
0.000104171
0.0299823
9.90611e-05
0.00013364
9.32139e-05
0.000103397
0.000149392
9.96989e-05
0.000128993
0.000113989
0.000115733
0.00509337
0.000114111
0.000110114
0.00010559
0.0012685
9.90855e-05
0.0654712
0.000114038
0.000117718
0.0458346
0.000219929
0.000117694
0.000131805
0.0658228
0.00450676
0.000121106
0.000105429
0.000105758
0.000131155
0.0645241
9.32e-05
0.000103919
0.000182584
0.000124025
0.000125404
0.000111516
0.045343
0.000109705
0.000127882
9.6183e-05
9.9259e-05
0.000101342
0.000112871
0.000131268
0.000114058
0.000124931
0.0531553
0.000129697
0.000106792
0.000102615
0.000125519
0.000119881
0.000308903
0.0595972
0.00011245
0.000111507
0.000151418
0.000109584
0.000117821
0.000100394
0.00011398
0.000145101
0.000146284
0.000107923
0.000130212
0.000114158
0.000107709
0.00010934
9.29171e-05
0.000105734
0.000100421
0.000147221
0.000103953
0.000183489
0.000129266
0.000123153
0.0298628
0.000133789
9.78077e-05
0.000444907
9.6139e-05
0.00010563
9.4917e-05
0.000103246
0.000257982
9.95384e-05
0.00012363
0.000104191
0.000101595
0.000141353
0.000103825
0.000125433
0.113829
0.038801
0.000103521
0.0461747
0.000103708
0.000109079
0.000106653
0.00100112
9.48714e-05
9.18787e-05
0.00013615
0.000109797
0.051268
0.000106125
0.000196308
0.000113801
0.000109584
0.0534195
0.000109977
0.0448683
0.000109921
0.000137094
0.000122635
9.69045e-05
0.00123789
0.000107845
0.0544944
0.0623792
0.0672053
9.27658e-05
0.101758
0.0655018
0.0416195
0.000107628
0.000101283
9.8711e-05
9.98754e-05
9.56841e-05
0.000115155
0.000110121
0.0205094
9.56872e-05
9.82322e-05
0.0643046
0.000121684
0.000109776
0.000115216
9.75966e-05
0.00254542
0.0193583
9.51752e-05
0.000109239
0.000128151
9.84079e-05
0.000126298
0.00729192
0.097704
9.49617e-05
0.0588849
0.000104162
0.000114736
0.000109054
0.00013178
0.000105512
0.0811029
0.000212117
0.0480215
0.00012051
0.000131562
0.00271583
9.85958e-05
0.0693916
0.031032
0.000127828
0.000108815
0.000126392
0.000112748
0.000114091
0.000108275
0.00014764
0.000117619
0.000135304
9.20181e-05
0.000147638
0.0001054
0.000134334
9.1814e-05
0.000108989
0.000131666
9.78778e-05
0.000100218
0.000103842
0.000111031
0.000119731
9.70207e-05
0.000112105
0.0228632
0.0523829
0.000114414
0.000115302
0.00011623
0.000101196
0.000225378
0.000108864
0.000147108
0.00786525
0.000101479
0.000123513
0.000113954
9.91237e-05
0.0229669
0.000138045
0.0687374
0.0109558
0.0629187
0.00731097
0.0489948
0.000128097
0.0978922
0.000148358
0.0906392
0.000121966
0.000114144
0.00011051
0.000105763
0.000105723
9.37591e-05
0.0001327
0.000100243
0.000102534
0.000131965
0.000121072
0.000110152
0.000100689
0.103406
0.0542687
0.000105933
0.000505597
0.000101662
0.000129345
0.00021652
0.000114466
0.000112926
0.0542205
0.0936089
0.0904515
0.0735227
0.000104374
0.000107254
9.89914e-05
0.00012602
9.64087e-05
0.00015596
0.000120954
0.000119544
0.000110352
0.000528328
0.00011247
0.000197663
0.0615985
0.000120536
0.000105297
9.60271e-05
0.00691738
0.0740439
0.000111979
0.000110825
0.119552
0.000117944
0.000103511
0.000111067
9.93645e-05
0.105891
0.000120396
0.0105662
0.0638444
0.000112967
9.59106e-05
0.0001371
0.000121439
0.000112244
0.000107844
9.8922e-05
0.000120255
9.85034e-05
0.000113129
0.00011956
0.000104826
0.000114362
0.000107515
0.000122763
0.00010689
0.000103915
0.000107597
0.000105146
0.00127737
0.000112253
0.0425544
0.000120046
0.0462845
0.000102208
0.000102061
0.000105606
0.00118916
0.000112572
0.000104189
9.84908e-05
0.000139133
0.114912
0.000113081
0.078752
0.0199548
0.0638946
9.7623e-05
0.000633453
0.00643321
9.27404e-05
0.0482506
0.000112082
0.000114118
0.000274662
9.44154e-05
0.000105683
9.53913e-05
9.99003e-05
0.000107342
9.78505e-05
0.000104014
0.000524409
9.10388e-05
0.00070474
0.000122723
0.000117305
0.000111807
0.000110511
0.0488607
0.000463476
0.000105282
0.032776
0.00010565
0.00021473
0.000102976
0.0491128
0.000109958
0.000105985
9.28208e-05
0.000401759
9.98642e-05
0.00010297
0.00013068
0.0582671
0.0247489
0.0361052
0.000145499
0.0492694
0.000132702
0.000114233
9.43644e-05
0.0532216
0.000196631
0.000107059
9.76095e-05