/*--------------------------------*- C++ -*----------------------------------*\
| =========                 |                                                 |
| \\      /  F ield         | OpenFOAM: The Open Source CFD Toolbox           |
|  \\    /   O peration     | Version:  v2012                                 |
|   \\  /    A nd           | Website:  www.openfoam.com                      |
|    \\/     M anipulation  |                                                 |
\*---------------------------------------------------------------------------*/
FoamFile
{
    version     2.0;
    format      ascii;
    class       volVectorField;
    location    "250";
    object      ddt0(U);
}
// * * * * * * * * * * * * * * * * * * * * * * * * * * * * * * * * * * * * * //

dimensions      [0 1 -2 0 0 0 0];


internalField   nonuniform List<vector> 
18232
(
(-9.60391e-05 0.000717058 0)
(-0.0518583 0.0198297 9.61366e-21)
(-0.105163 0.942604 1.4456e-18)
(-0.0422126 0.00206171 0)
(0.0022595 -0.000711391 7.07936e-21)
(0.0169447 0.144292 -4.32454e-21)
(0.0281085 0.0762024 1.18568e-20)
(-1.90858e-05 -8.09947e-06 -1.88763e-22)
(5.12046e-06 4.43944e-05 0)
(0.0197452 0.0701341 0)
(0.00221285 -0.00124831 -3.04572e-21)
(0.000807833 0.000726275 3.43629e-21)
(-0.0686781 -0.0120632 -8.90909e-21)
(0.0172841 0.079927 -2.46989e-20)
(0.0257293 0.0115928 1.6535e-21)
(-0.210914 -0.254872 2.35937e-20)
(-0.0135953 -0.00283991 2.21882e-20)
(-0.241989 -0.0858005 2.22924e-20)
(2.47563e-05 -2.87066e-06 -4.32084e-22)
(0.0450577 0.0732533 -1.90207e-20)
(-0.0873872 0.143248 -3.65973e-20)
(0.0254408 0.0881999 8.78799e-21)
(-0.0672936 -0.00898466 5.06362e-21)
(-8.56543e-05 0.00149433 1.00851e-21)
(-8.55188e-05 0.000622163 -1.50324e-21)
(-0.000760416 0.000104742 1.15028e-21)
(0.00133832 0.00480978 1.96113e-21)
(-0.0338169 -0.0463781 9.48423e-21)
(7.33362e-05 4.93676e-05 -3.70505e-22)
(-0.0509294 0.0225014 0)
(-0.000727049 1.56482e-05 -1.02183e-21)
(0.0450849 0.0524981 0)
(0.0050798 -0.0227104 0)
(-0.000480556 -0.00185496 -1.23962e-20)
(-0.0342887 -0.000860106 -3.80672e-20)
(-2.20101e-05 -9.45152e-06 -1.60446e-22)
(-0.068426 0.120289 -7.75449e-20)
(0.342331 0.158495 3.65118e-20)
(-0.027111 0.0693968 1.71899e-20)
(-2.93172e-05 -2.00592e-05 0)
(-0.0370134 0.00743636 4.01986e-21)
(0.000100531 0.000199529 2.97512e-21)
(-0.174718 0.240232 -1.99076e-18)
(-0.000176843 0.0013448 6.68226e-22)
(-0.0505093 0.00543219 0)
(0.000732193 -0.00109063 -1.06171e-20)
(0.231687 0.0619485 -1.76576e-20)
(0.0035295 -0.0150817 0)
(0.0202347 0.00604966 -3.39348e-20)
(0.0207257 0.153804 -2.84506e-20)
(-0.0139202 -0.00842317 -1.63216e-20)
(0.0222203 0.00722004 -1.18591e-20)
(0.000126379 4.56457e-05 -6.22965e-21)
(-0.0057935 -0.00193715 2.60079e-21)
(0.000206337 -1.62055e-05 2.21344e-21)
(0.000153818 9.48813e-05 0)
(-0.138927 -0.21827 -1.81214e-20)
(0.244508 0.0499751 -2.23072e-20)
(0.000557817 -0.000236939 -1.06745e-20)
(0.019624 0.0103021 -1.26602e-20)
(-0.0189035 -0.0631531 0)
(0.162885 0.122516 3.25412e-20)
(-0.0927896 0.0273012 2.33483e-20)
(0.0205136 0.0654377 2.86895e-21)
(-0.00429121 0.00289346 -2.78737e-21)
(-0.00102645 -0.000858971 1.02383e-20)
(-0.0297563 0.0471145 6.43099e-21)
(0.000905481 -0.0026036 6.12544e-21)
(-0.000421039 0.00439967 0)
(0.000504383 -0.000442591 7.44605e-21)
(-0.000168691 -0.000757801 0)
(1.56761e-05 0.000162181 0)
(-0.0343558 -0.0498927 -6.55474e-21)
(0.000106904 0.000121834 0)
(-0.0201234 -0.0448603 1.51166e-20)
(6.36307e-05 0.000134848 0)
(0.000169055 0.00865594 0)
(-0.0596421 0.0362481 0)
(-0.108826 0.0162531 0)
(0.0125265 -0.0158191 -7.31977e-21)
(-0.0978648 -0.0512322 -2.4795e-20)
(-0.0320642 0.00659974 -7.45406e-21)
(-0.0924474 0.0764465 6.36858e-20)
(-0.00162164 0.010779 0)
(4.82242e-05 0.000147704 -1.9877e-23)
(0.00343497 0.365985 -1.25752e-19)
(0.00225277 -0.00139713 -8.24255e-21)
(1.43847e-05 3.38601e-06 0)
(0.00757833 -0.0354707 1.05074e-21)
(0.00833494 0.414678 -3.10347e-20)
(-0.0062137 -0.00522907 0)
(-6.78368e-05 -0.000252038 0)
(-0.0210726 -0.0472468 1.39488e-20)
(0.212463 0.0529796 -5.01263e-20)
(-0.00543505 0.00175206 6.53437e-21)
(-0.00335746 0.00960012 3.25725e-21)
(-5.455e-05 -0.00106091 1.16589e-20)
(-6.14463e-05 -0.000341751 4.05092e-21)
(8.5308e-05 -0.00107956 -6.86485e-21)
(-0.00221001 -0.00403546 5.26208e-21)
(-0.0283883 0.253156 -4.85056e-21)
(0.16898 0.134902 3.49716e-20)
(-2.29843e-05 0.000249573 0)
(8.95396e-05 0.000154296 -1.16593e-22)
(-0.000148892 -5.44532e-06 0)
(-0.0350125 -0.0326888 -5.16318e-21)
(0.00103669 -0.00108403 0)
(0.0156037 0.0883772 0)
(-0.223445 -0.0712333 0)
(-0.00222039 0.0295183 0)
(-0.00787967 0.0233794 -1.34219e-20)
(-9.97731e-05 0.00736224 -2.66849e-21)
(-0.0208173 -0.0422433 -1.84121e-20)
(0.0129372 0.161327 4.31414e-21)
(9.47831e-05 0.000122648 5.66014e-23)
(0.00287869 0.000605023 -2.16796e-21)
(-0.000755025 -0.00453711 2.6023e-21)
(-0.0334875 -0.0184427 2.79167e-20)
(0.0167235 0.128952 4.1679e-20)
(-0.00100949 -0.000848868 -3.52349e-23)
(3.20496e-05 0.000138357 5.70003e-23)
(-0.0167644 -0.0697547 4.58219e-20)
(-4.54683e-05 -1.4412e-06 -2.90115e-21)
(0.131035 -0.0279965 5.80031e-20)
(8.78303e-05 7.17493e-05 2.67239e-21)
(1.92951e-05 2.92537e-05 0)
(-0.00176085 -0.00803282 -3.22506e-20)
(0.0625019 0.430891 0)
(-0.0509429 0.0301916 0)
(-0.0273417 -0.0211609 -2.32071e-21)
(-0.00401827 -0.00151869 8.93853e-22)
(-0.0336123 5.42863e-05 3.52366e-20)
(0.000156851 6.08882e-05 1.86921e-21)
(0.000106329 -0.000308988 5.33473e-22)
(0.00133438 -0.00295258 -1.17625e-20)
(7.79291e-05 1.60564e-05 2.10967e-22)
(-0.0415003 0.00068225 0)
(-0.00951791 -0.0210082 -3.83324e-21)
(-0.187034 0.135909 2.99515e-20)
(0.0131831 0.185234 -1.14685e-20)
(7.79949e-05 3.67635e-05 -6.15912e-24)
(-0.258005 0.487406 -9.95146e-20)
(-0.0818312 1.26493 1.53506e-19)
(-0.102753 0.0819389 -6.67079e-20)
(7.53769e-05 -8.65134e-06 -9.42177e-22)
(0.000117814 -0.00159112 -7.19978e-23)
(-0.000994179 -0.0101598 9.22548e-21)
(0.057564 -0.0826376 -9.83667e-22)
(-0.000639907 -0.00137021 0)
(0.00211694 -0.00143026 6.72127e-21)
(-0.0803801 -0.0451636 5.84424e-21)
(0.000177224 0.000105293 -3.81502e-21)
(-0.00563576 0.209195 -2.12998e-20)
(-0.00271182 -0.00658473 5.40147e-21)
(-0.0119878 -0.0509729 -2.4994e-20)
(-0.0803465 -0.0299652 -2.1264e-20)
(-0.0986273 0.505444 2.9243e-19)
(-0.0158416 -0.0127427 -3.70282e-21)
(-0.00343795 -0.00151056 0)
(-0.31725 0.560845 -3.96547e-20)
(-0.00028216 0.000288199 0)
(0.191343 0.0611735 0)
(-0.00532986 -0.0536394 5.09663e-20)
(0.0361908 0.398587 -6.09812e-20)
(-0.00548267 0.0378554 8.7278e-21)
(7.12426e-05 -0.000186833 7.94527e-21)
(0.037488 -0.04626 4.09211e-20)
(0.265057 0.174955 -5.5501e-20)
(-7.20008e-05 -3.28607e-05 -1.17372e-20)
(-0.0826607 -0.0240132 1.67503e-20)
(0.00103412 0.000994766 0)
(0.131535 0.0102401 -9.27526e-22)
(-0.0481708 0.0432884 1.46224e-20)
(0.000127136 4.58134e-05 2.78848e-21)
(-5.58883e-06 -0.000152229 -4.80563e-22)
(4.34651e-05 0.000203469 -1.67035e-21)
(0.0111769 -0.0865248 -4.29319e-20)
(0.000253911 -0.00177875 2.28211e-22)
(9.18926e-05 0.000163825 -8.52043e-24)
(5.29502e-05 0.000192767 -1.64714e-21)
(0.000152985 0.000261651 1.96476e-21)
(0.00997053 0.126421 -1.99053e-20)
(-0.00225969 -0.00527758 1.06395e-20)
(-0.00467954 -0.117305 -6.04356e-21)
(-4.18431e-05 1.30802e-05 -3.79987e-22)
(5.24402e-05 -8.70624e-05 0)
(8.57087e-05 1.389e-06 3.16056e-22)
(-0.0347265 0.136586 3.1143e-21)
(-0.00406308 0.0388407 1.07221e-20)
(-0.0341779 -0.00569341 -2.11126e-20)
(0.00121371 -0.00430413 5.33909e-21)
(0.085441 0.102965 4.0152e-20)
(-6.61135e-05 0.000336678 -1.32303e-21)
(-2.01414e-05 0.000271427 0)
(0.000949503 0.000702036 0)
(-0.000144884 0.000351445 -1.17502e-21)
(0.0433872 -0.0145029 3.81003e-20)
(-0.000195014 -0.00147801 9.45934e-23)
(-0.00210731 -0.0051566 -1.04125e-21)
(8.55297e-05 -1.38435e-05 -7.142e-21)
(0.000490746 0.00153626 1.27679e-21)
(0.00020416 0.000191879 0)
(0.000581072 -0.000765153 0)
(2.531e-05 -0.000178479 -9.91061e-22)
(0.000420137 -0.00198357 8.76718e-21)
(-0.00380617 -0.000381285 0)
(-0.00268486 0.0272027 6.29657e-21)
(2.60009e-05 -1.74505e-05 1.25748e-22)
(0.00230858 0.00145434 0)
(-2.72992e-05 -7.6088e-05 5.53137e-22)
(7.48874e-05 -6.21211e-05 0)
(-0.000497817 -0.00119564 0)
(2.58689e-05 -0.000131123 2.1906e-21)
(-0.00171521 0.0132372 0)
(0.000552733 3.04905e-05 5.54211e-21)
(-0.130291 -0.117959 0)
(-0.000952994 0.00550554 -2.89007e-21)
(-0.000105823 -7.04688e-05 7.5739e-21)
(-0.0154848 -0.089713 6.87962e-21)
(-0.0987572 -0.053083 6.88043e-23)
(-0.00455597 -0.0077593 0)
(-0.0013598 0.0159327 0)
(-0.0301839 -0.0428526 -3.72577e-21)
(0.125718 -0.0103006 0)
(0.0049523 -0.00729288 2.84916e-21)
(0.000189096 0.000183542 -2.12009e-21)
(0.00161398 -0.00232642 0)
(-0.00144841 0.00198515 9.20978e-21)
(0.0214799 0.00807743 0)
(-0.0326 0.00722724 1.14412e-20)
(0.00540341 -0.10427 -9.28479e-20)
(6.99182e-05 -7.89254e-05 0)
(-1.24952e-05 -0.000148014 4.90122e-22)
(8.03401e-05 0.000182164 6.93109e-23)
(-0.00608816 0.00207365 0)
(9.58345e-05 0.000122196 0)
(-0.00664087 -0.000199199 3.51211e-21)
(-0.0725912 3.41409e-05 1.51828e-20)
(-6.21081e-05 0.0122587 0)
(-0.00136202 0.00301557 -7.63772e-21)
(-0.415141 0.650063 -1.92977e-19)
(-0.000181373 0.000526328 1.35523e-21)
(-0.00147759 0.000672659 0)
(0.0026169 0.00357991 0)
(0.217958 0.0701662 5.24253e-20)
(-3.13278e-05 -8.04716e-06 1.65236e-22)
(-0.00993821 -0.0160125 -7.57231e-21)
(-0.0012057 0.00964958 -5.00393e-22)
(0.000147765 2.2565e-05 8.02795e-21)
(1.56173e-05 -0.000178785 9.96255e-22)
(-0.34778 0.431182 0)
(0.00168865 -0.015892 -1.46903e-21)
(-0.127005 0.156123 0)
(-0.0168702 -0.00951651 2.98147e-20)
(-0.0359907 -0.00798983 2.05397e-20)
(-0.00308353 -0.103667 9.70396e-20)
(0.0010728 -0.00242687 -4.32861e-21)
(-0.150597 -0.136265 -4.17036e-20)
(-8.60594e-05 0.000351344 6.42098e-22)
(6.05015e-05 0.000160922 -9.56402e-21)
(-0.026736 -0.0861342 -8.88806e-21)
(-1.32545e-05 -0.000124737 0)
(0.126226 0.420832 4.77061e-19)
(4.88559e-05 -1.7285e-05 -3.08989e-21)
(-0.00103614 0.000127019 1.41264e-21)
(-0.0671787 0.0128802 9.96224e-23)
(-0.00264876 0.0164825 5.59144e-21)
(-0.000960785 0.00223464 -6.21752e-21)
(-0.000136515 0.000626924 -1.53185e-21)
(0.0946658 0.474075 2.21378e-18)
(-3.39249e-05 -1.02073e-06 3.60771e-22)
(-0.00539191 -0.00228853 0)
(-0.0703165 -0.0604056 -1.43975e-20)
(-0.206925 0.179229 0)
(0.052551 -0.147725 1.53146e-21)
(0.000145766 0.000179205 0)
(-0.140631 -0.112252 1.91792e-21)
(-0.000974022 0.000453559 -3.6945e-22)
(0.000261607 0.000168727 -5.56056e-22)
(0.0461502 -0.142083 -1.44434e-21)
(-0.0520618 0.037259 -2.89887e-20)
(0.0494394 0.132258 -5.06208e-20)
(-0.0268119 0.0410225 -6.34702e-21)
(5.92059e-05 -0.000164236 -2.71933e-22)
(-0.0034806 0.0184251 3.65515e-24)
(-0.000280906 -6.74351e-05 -1.52707e-21)
(-8.42626e-06 -1.65324e-05 7.27606e-21)
(-0.000137724 -0.000132589 0)
(0.00759057 0.391018 0)
(-0.129883 -0.064291 1.86231e-20)
(0.0398903 0.163044 0)
(0.100475 0.158454 0)
(8.285e-05 -1.46803e-06 2.5371e-22)
(0.0011721 -0.00243444 3.8299e-23)
(-0.000703854 0.0021549 0)
(-8.26054e-05 -5.07978e-05 -8.92633e-21)
(0.000342531 0.000258196 5.35245e-21)
(6.1425e-05 -9.76038e-05 -7.39284e-22)
(0.000649783 0.00103122 5.35309e-21)
(-0.0356524 -0.0193156 -2.47526e-20)
(0.00117914 -0.00153765 -1.95823e-23)
(-0.0847988 0.0634686 1.73112e-20)
(-0.145677 0.161701 5.86552e-21)
(6.92681e-05 0.000148518 -4.25991e-21)
(5.20977e-05 -0.00017968 7.42059e-22)
(0.000132137 -0.00021744 -5.11813e-21)
(-0.000612383 -0.00225887 -1.29713e-20)
(0.0111724 -0.0159698 0)
(-0.000208819 -0.00126312 -7.28298e-21)
(-0.000154585 0.000235204 4.56078e-21)
(-5.21302e-05 -2.01006e-05 4.44099e-21)
(-0.0410435 0.0353109 0)
(0.00777624 -0.0392855 0)
(0.000199609 9.50596e-05 2.17233e-21)
(0.00262068 -0.00275458 -3.74497e-21)
(0.0894433 -0.170332 1.78459e-22)
(-0.000218858 0.000258282 0)
(0.00144941 -0.00044121 -6.36136e-22)
(-0.00370818 0.00728801 -1.74661e-20)
(4.91694e-05 0.000166216 1.4061e-23)
(-0.000242158 -0.00154929 0)
(0.116008 0.0941916 -7.54296e-20)
(-0.0217086 -0.0538384 -1.41745e-20)
(5.44433e-05 -9.56742e-05 0)
(-0.0427715 0.0328985 0)
(0.166322 0.0476934 3.35074e-20)
(0.000972547 0.000752191 -6.92078e-21)
(-0.000453706 -0.00150124 -1.11177e-21)
(-0.00014859 -0.00116749 7.19791e-21)
(-1.14874e-05 -3.87691e-05 5.3093e-21)
(0.00189232 -0.0227924 1.75364e-20)
(0.0154335 -0.0538217 -5.30986e-21)
(0.0698973 -0.166997 6.55013e-21)
(-0.000559306 -0.00190346 1.70027e-20)
(0.000950324 -0.0193697 0)
(-0.0223331 -0.0460877 5.57978e-20)
(-2.42112e-05 0.000230443 -2.125e-21)
(0.000649997 0.00117676 0)
(-0.013247 -0.0103251 6.96004e-21)
(-0.00521145 -0.00885824 -2.7386e-21)
(0.015133 0.068891 3.99238e-21)
(-0.121715 -0.0454889 -2.1008e-20)
(0.00175248 0.00472242 2.44779e-21)
(0.018793 0.0551799 -1.71353e-20)
(-0.00316168 0.00848685 1.87978e-20)
(0.0145562 -0.0177114 0)
(0.117786 -0.298825 0)
(-0.000218114 -0.000137008 2.90064e-21)
(0.000184338 -0.00230124 0)
(-3.61532e-05 -6.88274e-05 8.58347e-22)
(-1.83177e-05 -0.000103885 -2.4079e-21)
(0.0280944 -0.00389228 4.21272e-21)
(-0.0314467 -0.00545283 0)
(0.000660242 0.00062566 -7.83484e-21)
(-0.000483723 -0.00386159 -7.78561e-21)
(-2.27775e-05 -0.000102027 2.62465e-22)
(0.262981 0.189018 3.62123e-20)
(-0.000173617 -9.66828e-05 -2.04998e-21)
(0.0010727 0.000768091 5.50442e-21)
(-0.000247294 -0.00147576 -1.52401e-20)
(-0.000360475 -0.00127262 0)
(0.107627 -0.0415428 -2.67355e-20)
(0.02864 -0.030423 -2.24812e-21)
(2.29599e-06 -2.10921e-05 0)
(-0.000114605 -0.00143729 0)
(-4.56811e-05 -0.000194324 0)
(-1.29354e-05 1.78428e-05 3.37613e-22)
(-0.000252212 -0.00153138 0)
(-0.0314569 -0.0199467 -2.01461e-21)
(-0.000288057 -2.30724e-05 -2.59847e-21)
(-3.67482e-05 -1.63379e-05 -2.01095e-22)
(0.000460043 0.00726619 0)
(0.0345271 -0.298911 0)
(0.000771657 0.00145473 -4.66911e-21)
(-0.0038631 -0.00310329 0)
(0.000139138 1.48599e-05 0)
(0.0408341 0.16219 0)
(6.98116e-05 0.000228364 -9.39783e-24)
(0.000453807 -0.000791285 1.13783e-20)
(0.155115 0.149248 0)
(-0.0037383 0.103824 0)
(6.13525e-05 8.49011e-06 0)
(9.74644e-05 -0.00193289 9.13689e-21)
(-0.0120159 -0.0144811 3.70787e-21)
(1.60745e-05 7.76555e-05 7.20754e-24)
(1.22074e-05 9.23274e-05 1.8322e-23)
(0.00757151 0.00181974 2.52009e-22)
(0.00558125 -0.0136679 0)
(0.0048349 0.00224359 4.41703e-22)
(0.000505318 -0.000770776 -6.3591e-21)
(0.00340177 -0.000524688 0)
(-0.0104112 -0.0587656 7.38105e-22)
(0.000171786 -5.43982e-05 -3.32264e-21)
(7.85282e-05 2.25296e-06 7.88613e-22)
(-0.00091807 0.00150599 -3.66106e-21)
(-0.000983157 -0.00207628 8.49758e-21)
(0.0151844 0.0681614 0)
(-0.000203512 -0.000126807 -4.41633e-21)
(0.105235 0.14368 3.81528e-20)
(-0.00157709 -0.00332916 0)
(-0.061743 0.0414987 -3.50552e-20)
(-1.7642e-05 0.000137332 0)
(0.00579469 -0.00286285 -9.75731e-22)
(-0.000917989 -0.00706982 -2.38125e-22)
(0.0977441 0.452001 -4.38679e-21)
(0.034197 -0.0147514 1.91949e-21)
(0.00439933 0.00450184 0)
(0.103123 -0.0338098 0)
(-0.0203956 -0.0363759 1.09726e-20)
(0.00409038 0.0016915 0)
(-0.0380706 -0.10986 6.37736e-21)
(0.00449408 0.00391896 -8.83345e-22)
(-0.00112014 -0.0141785 0)
(-0.00024677 -0.00156085 8.79158e-23)
(0.00113842 0.000696619 -4.65148e-21)
(0.00178138 -0.000621981 0)
(-0.000996055 -0.00502622 0)
(0.0411969 0.496356 0)
(-2.19913e-05 3.83049e-05 -1.17877e-21)
(-0.00127877 0.00212381 -4.00679e-21)
(0.00207611 -0.001063 0)
(0.0797892 0.118365 -6.025e-20)
(-0.00778937 0.0239649 0)
(0.00837047 -0.0114424 0)
(-0.00365313 0.000612035 1.74887e-20)
(0.012683 -0.000677955 1.96987e-20)
(0.060947 -0.0284561 -1.63985e-20)
(-6.73142e-05 -1.481e-05 3.19802e-21)
(-0.000151232 -0.00157195 9.96099e-21)
(0.0548437 0.183858 -1.08431e-20)
(-0.0920208 -0.127852 -2.26013e-20)
(0.000827956 -0.00344446 4.95914e-21)
(-0.000176587 -0.00146769 0)
(9.85161e-05 -5.35675e-05 0)
(-1.06483e-05 0.000116731 1.47219e-21)
(6.34172e-05 0.000130602 0)
(0.0415959 -0.0515916 5.38384e-21)
(-0.00838558 -0.00775421 1.01613e-21)
(-3.58443e-05 3.56226e-05 0)
(0.0208524 0.00920941 0)
(-0.000768637 -0.00103802 3.90342e-21)
(8.80373e-05 -8.98178e-06 1.11402e-21)
(-0.0270987 -0.0419425 3.00713e-20)
(7.98254e-05 -3.43862e-05 0)
(0.000563911 0.0012982 0)
(0.00110089 -0.000945522 0)
(0.0271375 0.00786799 1.17974e-20)
(-0.117983 0.00592308 0)
(2.63017e-05 -0.000147413 -2.24699e-21)
(-0.00081067 -0.002746 1.96623e-20)
(0.226556 0.184597 7.97842e-20)
(-0.00274503 -0.00347768 1.42381e-20)
(0.0585953 -0.0240418 -8.47473e-21)
(0.000118593 8.1581e-05 0)
(9.88048e-06 5.70093e-05 2.62766e-21)
(2.27265e-05 -5.30204e-05 -5.57969e-21)
(1.77003e-06 -0.00168902 2.6115e-21)
(0.0520557 0.0537592 5.81133e-22)
(-0.00502884 0.013769 -5.01142e-21)
(0.00015512 0.000147971 0)
(0.00103078 0.000804571 -3.5157e-21)
(-4.46318e-05 1.06917e-05 0)
(0.00345668 -0.00271049 0)
(0.000708664 0.000301144 4.32998e-21)
(0.00247193 -0.00586576 8.59621e-21)
(0.0041229 -0.00172257 0)
(-7.57045e-05 3.76494e-05 0)
(-0.0085322 -0.0440748 -4.3585e-21)
(4.04224e-05 0.000181344 0)
(4.22872e-05 0.000159407 1.11868e-23)
(0.0569367 -0.350567 -2.30567e-19)
(0.00054887 -0.00749613 0)
(0.0162296 0.400217 2.79305e-20)
(-0.111208 0.651604 1.3642e-20)
(-0.0286691 0.063661 0)
(1.20602e-05 3.52567e-05 3.00169e-22)
(3.69048e-07 3.86369e-05 1.42287e-22)
(-2.89973e-05 -0.000666136 7.08584e-21)
(-0.00240065 -0.0128365 1.80362e-22)
(-0.00014583 0.000207702 -4.87297e-21)
(0.000140191 0.000243007 1.40326e-22)
(-3.43676e-05 -0.000253118 0)
(0.0508388 0.0688955 0)
(-2.53309e-05 3.89376e-05 -1.09618e-21)
(0.00016298 0.000215378 -3.95373e-21)
(0.00022692 7.44774e-05 0)
(0.0396147 -0.0519191 4.41362e-21)
(-0.074049 0.0536505 2.92532e-20)
(-0.0077274 0.103948 -8.06087e-21)
(0.00512504 -0.00138999 4.25528e-21)
(0.00229098 0.00434242 0)
(-0.131934 0.279282 -7.74234e-21)
(0.221656 0.096878 4.64826e-20)
(-5.63249e-05 6.38717e-05 -2.06549e-21)
(-0.029538 -0.0571698 -1.45009e-20)
(0.00104442 0.00160518 0)
(-0.21665 0.852508 3.23688e-20)
(0.00014747 0.000617693 -1.83667e-21)
(0.00368449 -0.00229754 0)
(5.30809e-05 -8.16857e-05 8.84083e-22)
(0.00629071 -0.0351088 -1.05901e-21)
(5.46326e-05 -3.80589e-05 9.85825e-22)
(-2.99552e-05 0.000281036 1.39559e-21)
(0.000457593 -0.00135633 1.58971e-21)
(-0.209667 0.184067 -5.94698e-20)
(-2.9042e-05 -9.32145e-05 -1.00896e-21)
(-0.00494675 0.0118639 0)
(-0.00011148 0.000303489 1.61473e-21)
(0.0421947 0.312175 1.7291e-20)
(-0.000892401 -0.00092775 -8.10784e-21)
(0.0191973 -0.00444506 0)
(0.000140015 0.000130304 0)
(0.00573639 -0.000415872 6.92543e-21)
(2.1662e-05 2.55748e-05 -1.05041e-22)
(-0.102816 -0.434435 -1.00951e-19)
(0.00397852 -0.000282305 6.22904e-22)
(-4.2189e-05 4.80896e-06 -2.12754e-23)
(-2.31792e-05 -0.000236238 6.51249e-22)
(-8.87359e-05 -0.000448391 0)
(5.82543e-05 -0.000118533 2.11403e-21)
(7.80066e-05 -2.7744e-05 -6.52172e-22)
(4.40919e-05 -2.55005e-05 -3.35536e-21)
(0.000580598 0.000826163 2.60552e-21)
(9.78117e-05 0.000415872 -1.82475e-21)
(7.30292e-05 0.000183664 0)
(2.41253e-05 -0.000305763 4.46308e-21)
(-0.00706547 -0.0313696 -3.61841e-20)
(0.00242218 -0.41139 0)
(1.24679e-05 6.30343e-06 0)
(0.0173969 0.0343691 1.89131e-20)
(9.50877e-05 -0.000372835 0)
(-0.376897 0.0753669 7.48277e-21)
(-0.0236619 -0.0710475 -2.15699e-20)
(6.47624e-05 0.000148834 0)
(-0.0161139 0.0521494 0)
(0.0041647 -0.00428227 9.3509e-23)
(0.0562294 -0.0580561 5.235e-20)
(0.000179223 0.000156436 -3.67364e-21)
(-0.0283388 -0.0944391 -8.96919e-21)
(2.79591e-05 -4.98573e-05 7.10726e-21)
(-0.000156662 -9.07048e-05 2.96051e-21)
(0.107614 -0.230395 1.78728e-19)
(0.00293263 0.00487714 1.99509e-21)
(0.00701414 0.00302022 -1.35178e-23)
(-0.0223924 0.280407 3.2692e-19)
(0.000100291 -0.000171653 -1.60254e-22)
(-0.0024309 -0.00408474 0)
(-3.24061e-05 5.7293e-05 1.29406e-21)
(0.0583452 0.150208 2.46327e-21)
(-2.66102e-05 -0.000110064 0)
(-0.0202161 -0.0173172 0)
(0.00160916 -0.00159556 -5.31394e-21)
(-0.0147338 0.00101314 2.34317e-20)
(8.26469e-05 -7.03986e-07 -7.13923e-22)
(-0.0533117 0.0496148 2.52145e-20)
(0.00567317 0.0266754 3.51797e-21)
(4.98419e-05 -0.000228863 -9.96477e-22)
(-0.000167497 -0.000155718 0)
(2.44896e-06 -0.000235261 -7.51734e-23)
(0.00969708 0.00324462 2.70435e-22)
(-0.000151746 -0.00725404 -8.00227e-21)
(-0.000155866 8.12324e-05 0)
(6.78919e-05 -1.27331e-05 0)
(-0.0200077 -0.07352 0)
(-0.00141667 0.256295 -4.33297e-20)
(-0.00908586 -0.0189801 1.31684e-19)
(0.00659021 0.0224804 1.36025e-20)
(0.0124187 -0.021681 3.57191e-21)
(-0.132655 -0.123173 -2.04172e-21)
(0.00536131 -0.011157 1.92255e-21)
(2.7416e-06 0.000355591 -5.50278e-22)
(-0.255562 -0.0895449 -5.04229e-20)
(-0.000136514 -0.000135312 -4.04646e-21)
(0.00381382 0.00309301 1.75306e-22)
(2.27776e-05 0.000301104 8.15975e-22)
(3.20813e-05 1.65135e-05 1.0496e-22)
(-3.51007e-05 -8.55034e-05 0)
(-5.78198e-07 -6.76558e-05 4.3182e-21)
(0.000132477 0.000292184 -2.25211e-23)
(-0.203067 -0.215363 0)
(-0.00286988 -0.00158095 -2.1303e-20)
(4.8453e-05 -4.23268e-05 0)
(-0.00227843 0.138983 -1.34602e-20)
(-0.113602 -0.432085 0)
(-0.0897446 0.0772033 0)
(-0.000120723 0.000407357 -4.17096e-22)
(-0.00640095 0.0784721 1.40393e-20)
(-4.23455e-05 -0.000518283 7.72343e-22)
(0.000804586 -0.00235701 -9.29337e-21)
(5.91012e-06 0.000129825 0)
(-0.000118092 -9.74969e-05 0)
(8.06731e-05 -4.12077e-05 0)
(-0.0234739 0.279267 8.33582e-19)
(0.0038359 0.000114073 0)
(-2.69938e-05 0.000195814 -4.44756e-21)
(0.044801 0.306197 -1.84052e-20)
(0.000508555 -0.000589497 5.54346e-21)
(-0.0182428 -0.00700266 1.63877e-21)
(-0.0299781 0.12657 3.84168e-21)
(3.99221e-05 -6.65644e-05 0)
(0.0103688 0.00554227 0)
(-0.000153635 0.0691462 3.62963e-21)
(-0.140618 -0.25026 6.68117e-21)
(0.00022975 -0.00177854 0)
(-0.000467434 0.00181374 -2.77327e-21)
(9.42864e-05 1.32819e-05 9.90865e-22)
(6.80726e-05 -8.31361e-06 4.77149e-21)
(-0.000189678 3.08277e-05 0)
(-0.246562 -0.0531401 -4.17154e-20)
(0.00351325 -0.000546945 0)
(-0.106688 0.0592688 0)
(-0.000137513 -0.000630103 1.84914e-21)
(0.00429861 -0.00442023 1.76457e-21)
(-0.0641721 0.0414439 0)
(7.07091e-05 2.29317e-06 -5.11336e-21)
(-0.167134 0.281874 0)
(-0.252528 -0.0693063 0)
(0.0051951 0.00787052 -2.66994e-21)
(0.00022057 -0.00105789 3.5517e-21)
(-1.24032e-05 1.27716e-05 -9.86838e-24)
(5.67174e-05 0.000104558 -6.68806e-22)
(7.24936e-05 -0.00016346 -2.16124e-21)
(-0.00261091 -0.00664957 -3.06885e-21)
(0.0559496 0.0850549 0)
(-0.0163624 -0.00908756 -3.36046e-21)
(0.00698597 0.0775199 2.32264e-22)
(0.0151383 -0.0431448 7.30091e-22)
(0.0249407 -0.0034077 -4.01197e-21)
(0.0052252 0.0224856 1.67177e-20)
(-0.00189388 0.00462235 3.95163e-21)
(0.00158626 -0.0085075 0)
(-0.000675869 -0.000932431 -6.68388e-21)
(0.000526462 -0.000504024 0)
(-0.0594582 0.00417095 -5.17848e-21)
(0.0333251 0.0626658 -6.8025e-22)
(0.0192233 -0.0127117 -2.02972e-21)
(-0.0265723 -0.0270816 1.99009e-21)
(0.000104741 1.59804e-05 -4.20391e-21)
(0.00010379 0.00118113 3.53325e-21)
(0.00905822 -0.00821449 0)
(0.102508 0.289729 4.82801e-21)
(7.47752e-05 -0.0138792 -2.34455e-21)
(-4.20415e-05 -1.34597e-05 4.09655e-22)
(0.000353848 -0.00158904 -1.57401e-21)
(0.0408932 0.0552866 0)
(-0.00868337 0.00033959 4.69518e-22)
(0.0130608 0.114251 0)
(0.00408798 0.000506679 0)
(0.00741777 -0.0122956 2.46027e-21)
(-1.7844e-05 -0.000132501 9.46138e-22)
(-0.0086091 -0.00760387 7.27683e-21)
(-4.22783e-05 4.11242e-05 2.38225e-22)
(-0.00783758 -0.0289978 0)
(-0.00756322 0.10278 1.77994e-20)
(0.000181956 0.000321496 -6.23731e-21)
(3.95736e-05 -0.00020672 9.16343e-22)
(2.55154e-05 4.33371e-05 -1.81074e-21)
(0.00201653 -0.00857501 0)
(8.46026e-05 -0.00041827 4.67461e-21)
(0.000778668 0.00180045 -2.88097e-21)
(0.0243898 0.0272949 -2.31162e-20)
(0.00926439 0.0094652 0)
(0.000488402 0.00160301 0)
(3.52039e-05 -0.000200709 -4.17788e-22)
(0.0214969 0.00174195 -6.00377e-21)
(0.0426503 -0.0559985 3.26333e-21)
(0.0220953 0.015897 0)
(0.00111762 -0.00181209 0)
(5.22487e-05 0.000153727 -6.53565e-23)
(0.00104739 -0.00231573 9.55207e-22)
(0.0440972 0.189978 -3.60557e-21)
(0.000313692 -0.00108774 -3.55151e-21)
(0.00278009 0.00112934 1.01567e-20)
(0.035675 -0.000826307 0)
(-9.22892e-05 -0.000111899 -3.07364e-21)
(2.06218e-05 -0.000105778 7.66394e-21)
(-0.00501677 -0.00686223 -6.55095e-21)
(0.0059266 0.017839 -5.58111e-21)
(3.98018e-05 0.000295115 0)
(0.000470019 -0.00135564 -8.84755e-22)
(-0.00083068 0.000762767 3.04248e-21)
(0.000125103 4.54566e-05 1.98473e-21)
(-0.0902454 -0.0635423 -6.27791e-21)
(2.32272e-05 2.1203e-06 0)
(0.000890136 -0.00175714 0)
(0.00203592 0.0015929 -1.53508e-22)
(-0.206301 -0.0620186 0)
(-0.00291443 -0.00269726 0)
(-0.000239677 -0.00132105 1.37561e-21)
(-0.000832235 0.000859538 0)
(0.0112035 -0.00102974 -6.5799e-21)
(-3.10843e-05 4.77067e-05 -4.96707e-21)
(-2.31788e-05 -1.5524e-05 2.10736e-22)
(0.0494373 0.221534 8.09952e-21)
(-0.00372062 -0.0114483 -6.83763e-21)
(0.00204824 -0.000143207 5.23231e-22)
(-3.6381e-05 -7.59096e-06 -6.39235e-22)
(0.000142828 0.000173496 0)
(-0.01678 -0.0774051 -8.17032e-20)
(0.00196857 0.00241089 0)
(0.0452766 0.0673017 1.29839e-21)
(-0.00136664 0.000633357 0)
(0.000677392 0.001452 0)
(-0.00180443 0.00305106 4.05793e-21)
(0.0102324 0.0820374 2.74844e-20)
(0.00141897 -0.00210428 0)
(-0.0143314 0.00146656 -2.37372e-21)
(0.0183469 -0.0191701 -1.17256e-20)
(0.000193067 0.00028476 0)
(0.00299513 0.00437562 1.20786e-20)
(-0.000909986 0.00127038 8.35294e-22)
(-0.00351619 -0.00320158 6.01631e-21)
(-0.00103508 -0.00196099 1.47315e-20)
(0.000102175 9.24847e-05 0)
(-0.138917 0.139631 -3.40692e-20)
(-0.00106012 -0.0036982 0)
(-0.00388201 -0.0121573 6.92771e-21)
(-0.00997594 -0.0108946 3.52908e-21)
(-4.41086e-05 -2.4789e-05 -1.152e-21)
(-0.147499 0.181371 0)
(0.00665753 0.0122781 2.04811e-21)
(-0.0308671 0.363975 0)
(0.00108856 0.00509987 0)
(0.00862172 -0.000961646 -7.42299e-21)
(0.00117053 -0.00141343 -5.83074e-21)
(-0.000537007 0.0048448 -5.48938e-22)
(0.000575996 0.000367262 0)
(0.0035849 -0.000778159 3.79436e-21)
(-0.0482479 -0.0952003 1.49474e-20)
(5.41014e-05 -0.000108796 0)
(0.00292892 0.00408767 -3.39216e-22)
(0.000178663 0.00341053 -8.40236e-21)
(0.00107559 -0.0013902 0)
(0.000133918 -0.000179336 -8.55943e-21)
(-0.0340494 -0.0373961 0)
(-0.00146192 -0.00271717 0)
(-0.00751203 -0.00132707 0)
(-0.00188134 0.000297297 0)
(0.0179301 0.0624185 -2.65268e-21)
(-0.000917516 -0.00131193 0)
(0.0308384 0.0443103 -1.29176e-21)
(-0.0249753 -0.0499283 4.7225e-22)
(-0.00265019 -0.00161664 0)
(0.0229808 -0.0107952 0)
(0.0462434 0.225784 -2.83235e-21)
(-0.0734249 0.0617686 1.95252e-20)
(0.00265479 0.00199408 9.98575e-22)
(0.0297874 -0.021265 0)
(0.00665004 0.0251247 -2.92262e-20)
(-0.25329 -0.0815159 -9.23789e-20)
(0.00615257 -0.00105848 5.54609e-22)
(0.00039397 0.00180207 -6.06102e-21)
(0.0119509 -0.0214723 -1.51421e-22)
(0.000136439 0.000157288 0)
(-0.0526654 -0.133204 -2.42965e-19)
(-0.147431 0.119405 3.11625e-20)
(8.09267e-05 0.000148394 -1.81285e-21)
(-0.0108685 -0.0767421 0)
(0.0058159 0.00210038 -4.08717e-22)
(0.00527527 0.148657 -7.20117e-21)
(1.69316e-05 -9.96073e-06 -5.86845e-22)
(4.22612e-05 -0.000219371 -4.47742e-22)
(-0.0233803 0.0630289 0)
(-0.126002 0.469919 1.1692e-19)
(-9.53129e-06 -2.48319e-05 1.40804e-22)
(0.00111086 0.00738511 0)
(0.0140933 0.0601942 5.88729e-21)
(0.00157885 -0.00269693 1.05698e-20)
(2.18894e-05 7.42974e-06 1.09906e-21)
(0.0209048 -0.00239535 1.13916e-21)
(-0.022612 -0.0256832 9.11888e-21)
(0.0053389 -0.00769955 1.50353e-21)
(0.158712 0.13462 -3.21477e-20)
(0.000108485 -0.000549604 -4.22648e-21)
(0.000154856 0.00921666 7.67189e-21)
(3.38739e-05 0.000222618 0)
(0.00769452 -0.0156412 1.15648e-20)
(-0.00497009 0.0123461 2.97566e-20)
(-0.139301 -0.0596309 7.52146e-21)
(0.000818051 2.95716e-05 3.02816e-21)
(-0.226536 -0.300494 3.65624e-20)
(-0.00162078 0.000852719 0)
(-0.0153159 -0.0225826 -1.96622e-21)
(-0.00173551 0.000472659 0)
(-0.000594509 -0.00177959 0)
(0.00257083 0.0843667 1.67728e-21)
(0.00176083 -0.00298708 0)
(-0.00694633 -0.0209171 7.30531e-20)
(7.82867e-05 6.86151e-05 -1.32917e-21)
(-0.00017919 0.000357764 6.90178e-21)
(-0.00925855 0.115668 -1.47091e-20)
(0.0115068 -0.0576003 1.27175e-21)
(-0.000104991 0.000283692 3.06314e-22)
(-0.00569779 0.000649372 -8.76564e-22)
(0.00417526 0.00097621 0)
(-0.000137477 -0.000132962 0)
(-3.41567e-05 -4.73048e-05 0)
(-0.0219695 -0.0163943 0)
(0.00643494 -0.0100665 2.51207e-21)
(-0.0640457 0.0140234 -1.93256e-21)
(-0.0218313 -0.038277 6.70744e-21)
(-0.00259448 -6.64832e-05 2.13125e-21)
(-0.0059158 0.00477803 0)
(3.27866e-05 -3.64341e-05 0)
(-0.00372764 -0.00403341 -1.80031e-20)
(0.006354 0.00573494 8.58246e-21)
(0.00627421 -0.0115351 -1.5703e-20)
(0.00388059 -0.00532542 1.32574e-20)
(0.000186137 -7.82656e-05 4.41456e-21)
(-1.22972e-05 5.26146e-05 0)
(-0.0651773 0.0213923 2.27906e-21)
(0.00537929 0.00272662 0)
(0.0568875 0.13255 5.85212e-21)
(0.0571123 0.0345024 2.14498e-20)
(-0.00106257 3.83265e-05 1.31478e-20)
(0.00471909 -0.00552459 -8.18329e-21)
(0.00135982 -0.000541365 2.04966e-21)
(-0.112727 -0.215931 2.35847e-19)
(-1.16307e-05 9.82511e-06 -1.93694e-24)
(8.72362e-05 -1.9321e-07 6.98976e-22)
(-0.000274315 9.88696e-05 1.49915e-21)
(0.00244332 -0.00184571 7.92993e-22)
(-9.03123e-05 0.00136627 -4.65453e-21)
(-0.0133784 0.0521905 0)
(0.000214155 7.60854e-05 -6.26837e-24)
(-0.0416596 0.00445299 -1.45212e-21)
(4.77978e-05 0.000187398 3.83857e-23)
(0.00250775 0.00782718 0)
(0.00136559 0.0122496 7.88692e-21)
(6.75701e-05 -9.33039e-06 -4.06032e-23)
(7.41971e-05 -8.46783e-05 0)
(0.000139257 -0.000123144 6.39073e-21)
(7.8892e-05 5.27938e-05 9.96851e-22)
(0.0193404 -0.00312552 0)
(-0.000159124 0.000429046 -6.25936e-21)
(0.0136618 0.00481994 3.80803e-21)
(0.0166347 -0.052303 5.48437e-21)
(0.0926436 0.271473 -2.61406e-20)
(-0.0188403 0.031434 -2.06094e-20)
(-0.000132686 -0.000183877 0)
(-0.0640436 0.0099443 -2.14794e-21)
(-0.00259206 -0.00184852 3.89777e-21)
(0.00190202 0.00185646 -4.72728e-22)
(-9.65242e-05 -2.91259e-05 0)
(-0.000457399 -0.00163229 0)
(-0.00703854 -0.0603818 1.65e-20)
(-0.04167 -0.0046182 -3.11093e-21)
(-0.250377 -0.0652667 3.81534e-20)
(0.0130466 0.0540357 1.89614e-20)
(-0.000136939 -0.000161977 2.81198e-21)
(0.00159358 0.00216775 -5.91976e-22)
(-0.00301732 -0.00277927 -1.48006e-20)
(4.60952e-05 0.000219007 -1.00815e-23)
(0.011375 0.00213873 1.57575e-21)