/*--------------------------------*- C++ -*----------------------------------*\
| =========                 |                                                 |
| \\      /  F ield         | OpenFOAM: The Open Source CFD Toolbox           |
|  \\    /   O peration     | Version:  v2012                                 |
|   \\  /    A nd           | Website:  www.openfoam.com                      |
|    \\/     M anipulation  |                                                 |
\*---------------------------------------------------------------------------*/
FoamFile
{
    version     2.0;
    format      ascii;
    class       volScalarField;
    location    "250";
    object      ddt0(omega);
}
// * * * * * * * * * * * * * * * * * * * * * * * * * * * * * * * * * * * * * //

dimensions      [0 0 -2 0 0 0 0];


internalField   nonuniform List<scalar> 
18232
(
4.24731e-06
-0.242449
1.30573
0.0107043
-0.00015828
1.94744
-0.0257682
-1.14934e-05
-0.00023438
-0.0503126
-0.000181303
1.43304e-05
0.0139927
0.136966
-0.00463705
1.08063
0.00142544
0.199948
-7.75489e-06
-0.0362562
0.0244547
0.0696871
0.0170017
7.75594e-05
2.74042e-06
2.8048e-05
0.000414581
0.0280179
1.46067e-06
-0.309067
2.34893e-05
0.0352554
0.107638
-5.29176e-05
0.00801983
-1.14276e-05
-0.87752
-0.661673
-0.731811
4.03221e-06
0.0353949
-3.81666e-06
0.836955
8.5991e-05
0.0178093
0.000795507
-0.160225
0.0757414
-0.00359009
2.02129
0.00334878
-0.00445969
3.94109e-06
-0.0055696
7.30581e-06
-8.43936e-05
1.74438
-0.0620115
4.26137e-05
-0.0034555
0.00150615
0.0473317
0.156245
-0.239216
0.0001147
2.1512e-05
-0.738841
0.000608235
0.000150229
5.08084e-05
1.05425e-05
-2.37078e-06
0.0307171
-4.18309e-06
0.0015791
-3.54573e-06
0.000212205
0.163027
0.326017
0.115981
0.0417642
0.0104332
0.0308943
-0.00123879
-3.10884e-07
0.165331
-0.000175561
1.11162e-06
0.00294714
0.236125
-0.00174076
-7.37044e-06
0.00123891
-0.296715
-6.7135e-06
0.0012056
-4.53378e-05
-5.38967e-06
-4.58338e-05
-0.000309637
1.26416
0.560554
-5.94394e-07
4.62519e-06
9.92311e-06
0.024668
-6.28571e-07
0.111612
-0.085226
-0.270364
-0.0192867
0.000241612
-0.000871601
-0.0516437
5.324e-06
0.000356524
-0.00022001
0.0348679
0.0255374
1.24107e-05
-6.67056e-07
0.0195374
-4.55002e-05
-0.0217709
-3.76537e-06
9.02414e-06
-0.000110174
0.309262
0.0301514
0.0111126
0.000177302
0.00916711
7.75672e-06
2.97798e-06
2.33859e-05
1.57265e-06
0.0117378
-0.00115619
-4.3251
1.5971
1.86475e-06
2.75382
0.230555
0.0314884
1.03571e-05
0.000147907
-8.58891e-05
-0.0203068
-9.64097e-05
-0.000203081
0.0299648
6.79264e-06
1.04016
-0.00104171
1.1492
0.0246807
-0.266735
-0.000349552
0.000122285
2.44122
2.181e-05
-0.121715
0.219858
-0.0717435
-0.0559399
6.53118e-06
-0.00987937
-0.540265
3.74256e-06
0.0241339
1.73079e-05
-0.0215536
0.0301517
-5.83604e-06
-3.00178e-06
1.48013e-07
-0.0570641
1.26206e-05
1.09114e-05
1.46163e-07
7.78568e-06
0.247399
-0.000377126
-0.043859
-6.72358e-06
6.83047e-06
7.02762e-06
-3.7011
-0.00163229
0.00638656
-0.000296985
0.167498
1.05998e-05
-1.21086e-05
1.60015e-05
-2.25081e-05
-0.0129813
0.000152427
-0.000675513
-3.90109e-06
-0.000154352
4.9056e-06
6.47085e-05
-3.36975e-07
3.06819e-05
0.000152318
-0.00128433
-8.01206e-05
8.87922e-05
-6.51675e-06
2.10268e-06
-2.29147e-05
7.9035e-07
-0.00509383
5.53968e-05
0.305258
0.000559917
3.93851e-06
0.0220239
0.0379078
-0.000368259
0.00398027
0.031376
-0.0211772
0.00298218
6.63289e-06
-0.000144385
0.000165371
-0.00312415
0.012947
-0.119497
1.78241e-06
-3.95979e-06
4.98457e-06
0.00115209
5.28067e-06
0.00146875
0.0292408
0.00124264
0.000217796
2.16979
8.41261e-06
0.000188429
0.00123273
0.11337
-1.10548e-05
-0.00236891
0.000901878
4.33371e-06
-1.06004e-06
3.21057
-0.00303169
0.197847
-0.000575027
0.00924015
-0.122106
0.000231459
0.626876
2.87284e-05
7.37073e-06
0.0215192
3.95139e-07
0.469341
-2.63558e-05
8.82197e-06
0.024535
-0.0212008
0.000208614
4.52311e-06
-0.344302
-7.29015e-06
0.00129682
0.0268493
-0.268619
0.186349
-6.86483e-06
0.0727168
-1.89596e-05
2.49584e-06
-0.0923899
0.116692
0.0118895
-0.383299
2.67215e-06
-0.0229659
-4.86395e-06
1.90181e-06
-8.60573e-06
0.221228
0.0672234
-0.31291
0.471039
1.80031e-06
0.000365221
0.000232031
-0.000358752
7.62161e-06
2.09694e-06
-0.000116582
0.036787
0.000107436
0.0334341
0.239136
5.73205e-06
2.10356e-06
3.70245e-06
0.000191527
-0.00237553
-4.07079e-05
-3.58193e-06
-5.68469e-05
0.0276658
0.00258478
7.32459e-06
-0.000236957
0.175406
1.90377e-05
0.000793975
-0.0014381
5.59859e-07
-5.1075e-05
-1.65583
0.00346968
5.21835e-06
0.0259732
-0.153955
2.33721e-05
-6.69445e-05
-4.55731e-05
6.40876e-06
0.0870345
-0.00186844
1.68817
-0.000175725
-0.00366532
-0.00178693
-1.14643e-06
3.57645e-05
0.00379782
-0.0350823
0.0239059
0.0667601
0.000499796
0.027323
-0.00167806
-0.00417654
1.10194
-7.6571e-06
-5.83759e-05
-5.58626e-06
-9.97099e-06
-0.00430496
0.00470437
-3.62762e-05
0.00105109
-6.03625e-06
-0.206919
4.28574e-06
1.54977e-06
4.7878e-05
-3.17956e-05
-0.016399
-0.00786102
7.73441e-06
-3.06082e-05
-5.18857e-06
1.6829e-06
6.38422e-06
0.0222122
-2.15458e-06
-7.60248e-06
0.000307775
0.744264
-9.0359e-05
0.00141571
-5.01845e-07
-0.306731
2.78037e-07
-2.9959e-05
-0.288784
0.0882686
-8.9951e-06
-5.92174e-05
-0.000358798
5.27016e-07
-2.42254e-07
-0.00110641
0.0672866
0.000124964
-3.20915e-05
0.000670155
0.0195844
8.40775e-06
-2.69471e-06
0.000188925
0.00109202
-0.262547
-6.20067e-06
-1.83372
-5.83082e-05
0.0355408
-1.58446e-06
0.000145132
-0.000176837
-0.0557898
-0.00395549
0.000260001
-0.0200729
-0.00146789
-0.000903902
0.0174092
0.000214077
-0.00123426
7.53138e-05
-2.94368e-06
-0.000133433
5.64803e-05
-0.00395851
1.2109e-07
0.000180124
0.00136232
0.242799
0.0299332
0.130718
5.84065e-05
-0.00356579
-0.0131239
-0.000259703
5.85786e-05
-0.286346
-0.536661
0.000685245
5.34698e-05
7.96654e-06
-1.14585e-06
1.23842e-05
-0.0134952
0.00034232
2.58157e-07
-0.00371057
-9.56064e-06
1.55034e-05
0.0295564
-1.40552e-05
6.13395e-05
1.40985e-05
-0.00338469
-0.81868
-7.76639e-07
1.1789e-05
-0.447992
0.000109473
-0.0132632
-3.60036e-06
-5.27005e-06
-5.81811e-06
-3.98201e-05
-0.347563
0.00103166
-4.51322e-06
9.51257e-06
-2.47622e-05
0.00166583
3.50334e-05
-0.000251363
0.000560422
4.68412e-06
0.0243983
-1.02125e-06
-1.60413e-06
0.562439
-0.000177711
0.233319
-1.97541
-0.462422
-6.72748e-06
-7.40136e-06
6.36705e-06
-0.00904725
-5.07145e-06
2.0103e-05
2.41959e-06
-0.138963
1.88385e-07
7.75973e-06
6.81143e-06
-0.0152651
0.0365494
0.0331511
9.32752e-05
0.000491816
-0.650357
-0.72812
-5.16351e-08
0.0261728
3.33508e-05
-0.595003
-8.09099e-06
0.00161853
2.69895e-07
0.00861972
-1.8884e-05
-1.76606e-05
-8.98025e-05
-3.5276
-4.92069e-06
0.0012817
1.16841e-06
-0.471466
-2.35678e-06
-0.00204149
0.000122079
-0.000297096
7.16348e-06
-0.167559
0.000219304
-4.4249e-06
1.61839e-06
5.92485e-06
1.83165e-06
1.26405e-06
2.81964e-06
-6.52433e-05
-9.35647e-06
-7.21338e-06
3.7642e-06
-0.00162467
-0.0626514
0.00016158
-0.00401657
1.09622e-05
3.3673
0.0230428
8.22334e-06
0.00288182
-0.000376462
0.134489
6.95686e-06
0.0206712
-1.71073e-06
-5.62257e-06
0.799605
-0.00117167
-9.51047e-06
0.237164
-0.000661123
0.000579523
-8.36177e-07
-0.598194
1.14307e-06
-0.00820296
0.000840831
0.00816879
1.4169e-05
0.0270834
-0.0014856
-1.2056e-05
-9.6517e-06
-8.66425e-06
0.000766455
-0.000717637
-2.63451e-06
9.69009e-06
0.0214244
0.206032
0.0218093
-0.00138719
0.0660643
0.0860298
-0.0103416
2.23292e-06
0.276027
-5.40086e-06
0.000123721
3.39129e-06
8.97167e-06
-4.17834e-06
-7.3982e-06
6.4116e-06
1.24899
0.00021133
-1.55982e-05
0.00798164
-0.139853
0.20126
8.07216e-06
0.0132693
-1.67432e-05
-0.000752979
-2.19041e-06
-0.000474071
1.81506e-06
0.0631798
-0.000212878
-1.7427e-06
-0.479823
-3.43768e-05
0.0030907
-0.0568603
-1.04318e-06
0.000197459
-0.0205124
2.07412
-7.33031e-05
-0.00198422
4.53051e-06
8.09892e-06
-4.90677e-06
0.160772
-0.000206552
-0.787661
-1.08929e-05
-0.000818598
0.147793
6.46167e-06
-1.6582
0.151616
-0.000830604
-3.81503e-05
1.06754e-06
1.00568e-05
1.64658e-06
-0.00509975
-0.169999
0.00206692
0.0046169
0.0227572
-0.00367404
-0.000287809
0.000498716
-0.0207818
0.000123651
-3.02986e-05
-0.104655
-0.312262
-0.00454365
0.00750235
1.73529e-06
-4.97619e-05
0.00216667
0.101251
-0.0243556
-6.38869e-06
-6.84815e-05
-0.247714
0.000859241
0.0675724
-0.000323175
0.00248542
-4.45606e-06
0.000912884
-7.16279e-06
-0.00189923
0.0348495
3.89552e-06
-1.17119e-05
2.04171e-05
-0.0124277
-7.11968e-06
-0.000191816
-0.00410154
-4.81243e-05
2.55678e-05
-1.35723e-05
-0.00187074
-0.0153568
-0.00455269
8.93764e-05
3.83523e-07
0.00152233
-0.296932
-3.7024e-05
-0.000142823
0.116379
-4.8235e-06
3.9777e-06
-0.00215488
-3.91998e-05
5.55053e-06
-0.000118005
0.000477012
1.72862e-06
0.0311671
-0.000468299
-0.000175792
9.69883e-06
-0.171233
0.000930114
6.45977e-05
5.77042e-05
0.000629804
-9.5521e-07
-8.38479e-06
1.32854
0.000185574
0.00155382
-5.78897e-06
-5.62933e-06
0.020004
0.000839173
-0.369054
0.00017232
7.43548e-05
-0.00251562
0.00928324
0.00131676
0.00577382
-0.00236514
2.78094e-06
0.00049581
-6.53584e-05
0.0010422
0.000250882
-8.9722e-07
0.141601
-0.0013422
0.000674216
-0.000977855
-2.16497e-06
0.110238
-0.00110108
0.137752
-0.00156363
0.00257991
0.000138907
0.000312783
1.13254e-05
-0.000175396
0.0354388
1.62332e-06
0.000166141
-0.00277902
-4.77802e-05
4.30532e-06
0.0326984
0.00143617
0.000720478
0.000148982
-0.453374
3.71382e-05
0.0241345
0.0290303
0.000332491
0.0173516
0.801724
0.110437
0.000113183
0.0244245
-0.000916726
0.0932934
-0.000617334
-9.74e-05
0.00422789
-5.98136e-06
-0.996025
0.0937879
-6.00327e-06
-0.00502801
-0.00081235
-0.0424848
9.83925e-06
-1.29806e-05
0.0336073
0.94429
-1.46314e-05
0.000229805
0.0205571
-0.000110683
5.02332e-05
0.00649224
0.000495818
-0.00487612
0.498819
7.43265e-06
0.000386873
5.36132e-06
-0.00966057
0.014239
0.0920742
9.64008e-06
0.744184
0.000189448
-0.00193779
0.000155223
-0.000219892
0.105868
0.000520251
0.0261449
2.75307e-06
4.81495e-06
0.0356375
-0.00393393
2.22918e-05
0.000374054
-0.000367006
-3.75571e-06
-6.66753e-06
0.0106931
-0.0030043
-0.0204965
-0.00171103
-0.000242254
-0.000136466
-2.85157e-06
9.84556e-05
-0.00125191
-0.00926981
0.000897719
1.95552e-06
9.77647e-07
-0.0859443
1.21481e-05
-0.545271
-0.0563269
6.10142e-05
0.0040686
-3.95851e-05
-0.727938
3.56009e-06
2.54135e-05
4.27293e-06
-0.000368682
-1.17895e-05
0.0140677
7.15829e-06
0.0421356
-1.87171e-07
4.77219e-05
2.24007e-06
1.23294e-05
7.24361e-06
4.95163e-06
2.32414e-06
-0.00242962
3.97414e-06
-0.00162266
0.00153889
-0.311183
0.0237013
-6.19645e-06
-0.118832
0.000522696
-2.23499e-05
0.000138259
-0.000113654
-0.00614457
0.043436
0.1086
-0.242312
-6.16521e-06
-1.11353e-05
0.000997351
-1.62543e-06
6.74839e-05
7.4039e-06
-0.771191
0.00341701
-1.66994
0.000200341
-5.41226e-05
-0.00187674
-0.000190515
0.100408
4.13877e-05
0.0249594
0.000215737
-5.80168e-06
0.0136128
-2.92825e-06
0.00383779
-0.000413543
-0.00385413
0.0276457
4.19952e-05
1.77662e-05
-7.82211e-06
-7.75743e-05
1.35787e-05
-1.17786
0.0395512
0.00425105
-0.000105621
1.55212e-06
-0.00739408
0.901915
-0.000323291
-0.00103536
-0.044904
-0.0639792
-0.00561245
0.000147973
0.000634739
0.000153071
0.00296672
0.000177226
3.62437e-06
2.19382e-05
9.06244e-06
0.0490118
0.000118966
-0.000213593
-1.81917e-05
-9.63288e-06
-0.368471
-5.08858e-05
2.34823e-06
-7.0522e-06
3.58007e-06
-3.47813e-06
1.40083e-05
-0.00279544
2.72033e-07
0.0167078
0.163855
-0.0339637
6.89799e-06
0.0755013
0.0447476
0.0229722
2.51089e-06
-0.053388
-0.0362146
-2.73143e-05
0.000341519
0.000131494
0.000274628
-2.3375e-05
-0.00261742
0.00234474
0.130369
-3.41167e-06
-0.00022263
0.00022431
1.04848e-05
9.60875e-07
1.0303e-05
0.0284947
0.0501493
0.00397674
4.12836e-05
1.95794e-06
-4.21418e-05
-0.10591
2.85931e-06
3.04569e-05
0.0194261
9.31637e-06
0.652344
0.000175724
1.33034e-05
-0.818748
1.34185e-05
0.00151615
-0.104088
-0.000578299
-6.1921e-06
0.000876033
-0.00514983
-0.0769979
-0.422645
-0.212037
-0.00164868
3.84322e-07
-7.88727e-07
-0.484393
-0.00138233
-2.05572e-06
2.98374e-05
0.00137929
4.68571e-06
-0.096105
-1.00632
-0.0372988
0.000630661
0.236954
-0.017897
-0.0021484
0.000180186
0.000612101
-4.26844e-07
-0.00522301
6.265e-06
9.82703e-05
-0.0226724
-0.000667657
-4.94291e-06
0.0121103
6.09018e-07
0.00627492
0.000663796
0.000216175
0.00018725
1.97581e-07
1.42011e-05
0.133919
-1.10303e-06
-0.0140505
-0.000165211
-1.69918e-05
6.36296e-07
-5.92588e-07
1.54116e-05
0.0479976
-4.95932e-06
1.46154
6.11726e-05
-0.0290738
2.06752e-06
6.74251e-05
-0.00316237
2.64096e-06
1.60519e-06
-1.28575e-05
-0.000410889
-0.00114645
-6.91644e-06
-0.00326379
-0.000915253
0.0220534
0.892385
-2.07477e-05
5.9875e-05
7.33329e-06
0.000228163
-0.000177401
-4.63e-05
0.0323314
1.09457e-06
-0.000221235
-8.49909e-05
-0.464596
-0.0486668
0.018678
-3.77074e-06
5.3912e-07
8.26742e-07
0.0208099
-4.79034e-06
-4.01389e-06
-0.0269634
0.0150193
3.78307e-06
0.000742052
-0.0246895
8.13495e-05
9.80122e-05
-1.87998
0.000661015
3.99028e-05
-0.00191372
-0.0746038
9.94865e-07
-0.290317
0.0010527
5.37022e-06
0.00146507
1.59068e-06
-0.473014
0.000199323
-1.56631e-06
-0.347625
-6.81691e-06
-0.000107604
-2.83879e-05
-1.48226e-05
3.4157e-06
-0.000490631
0.000389073
-0.0154344
2.51182e-06
-0.0246325
4.07582e-07
0.0531213
2.47397
-0.00305997
0.0247634
3.42974e-06
-0.047162
1.50219e-06
-0.0564707
4.68589e-06
0.0538541
-0.0241428
-0.0178412
0.000967803
0.544266
0.046075
0.484131
-0.000286864
-7.86978e-06
-0.00303384
0.0679414
0.397063
-0.000100972
0.00227459
0.0150459
-2.16322e-05
0.0228374
-7.94429e-06
4.35342e-05
0.0205972
3.73208e-06
6.40688e-06
0.0003804
-2.27869e-06
9.98839e-07
-0.12778
6.23705e-06
0.0523049
8.81473e-07
-0.6105
-0.392696
3.29783e-06
-5.40763e-06
-1.908e-05
-7.11524e-05
-0.0116181
-0.00129408
-0.0193532
0.000286018
-0.141409
-6.39649e-06
-9.71934e-06
1.00025e-06
-2.25842e-06
1.42723e-06
-0.314768
-2.21795e-06
1.60894e-06
-9.32368e-07
-0.0466384
-2.78675e-05
-0.000643121
0.0144361
0.000447515
3.89454e-06
0.0233159
9.86629e-06
-6.0543e-06
-3.84938e-06
0.0172501
-7.6051e-06
-0.146738
1.07978e-05
3.5386e-07
0.00349926
4.53959e-06
9.03929e-06
0.014265
-0.00236782
0.023191
0.0243911
0.0006235
-1.08783e-05
1.75533e-06
1.33148e-05
0.00814463
-0.0531338
-2.37691
-1.86366e-06
-0.577134
1.29978
4.00307e-05
1.1913e-05
0.00117915
0.0185672
-0.0893207
-5.33866e-05
0.000213673
-5.6107e-06
-0.000913128
5.70077e-05
0.0223623
7.48622e-08
0.0157708
1.51851e-06
-1.18614e-07
-0.0228491
0.0023872
-0.00010213
0.0121351
-4.65891e-06
-0.074122
4.11769e-06
1.05288e-05
0.0152626
5.37154e-05
2.2567e-05
0.0155107
6.33955e-06
-0.000158481
-5.26274e-06
-0.00230021
-3.79095e-06
0.0233974
-0.000100221
-0.000101179
0.0231311
8.95424e-05
0.00121931
3.1172e-06
-1.62062e-06
0.000103124
0.000182552
-0.00730546
0.00165893
3.29999e-05
4.08778e-05
0.0336776
8.53168e-06
-0.00361718
-5.19966e-05
-0.000159252
0.000306577
-2.72122e-06
6.6784e-05
-0.011727
-0.00723854
0.0339252
0.0200668
-0.00128696
0.00813525
-0.00674916
3.26453e-06
-0.00101074
-1.91979e-06
6.77027e-05
-1.80207e-06
-2.77723e-05
0.10791
-1.69531e-06
0.943936
0.000244342
3.86971e-05
0.000459533
7.84603e-06
0.0191193
8.50422e-06
0.0214171
-1.13032e-05
-0.00139102
-0.00309928
0.000319047
-0.0205521
-6.76008e-05
2.77619e-05
0.000149015
-0.000991413
-0.00254027
-2.62313e-05
0.0359389
-8.67778e-06
-0.000183757
1.2995e-05
-5.51721e-06
8.28925e-06
-0.254618
1.20674e-06
7.69227e-08
0.000227602
0.24586
-0.00163372
6.41394e-05
0.0173555
-3.56735e-06
-3.80462e-06
2.46158e-05
3.21135e-05
-1.6369e-05
2.78537e-05
-3.0473e-06
-2.36033e-06
0.0460266
0.000925399
9.08908e-06
4.40485e-05
-5.99433e-05
1.95308
-0.25711
-0.00991349
0.000344338
0.0242639
-0.000468377
-0.0674104
5.69324e-05
0.000732045
-1.134
5.53237e-06
-8.19713e-07
-6.73285e-05
-0.00253325
-0.174495
-4.01862e-05
-1.63812e-06
-6.99822e-05
2.53865e-05
0.173826
0.0538946
-4.38866e-05
-0.00918957
-5.48522e-05
1.79371
0.00184722
-9.15343e-05
7.59708e-05
-0.00593594
6.90897e-05
-0.00113608
-0.0172543
0.000965468
7.95729e-05
0.0230032
-0.00470611
0.00171076
-0.00228113
0.000179478
-0.00233866
-1.55554e-06
1.69184e-05
0.0925078
-3.21795e-06
3.97944e-06
-0.0004406
0.432707
-4.83106e-06
-0.0612997
9.33955e-06
-0.0114692
4.89909e-06
0.000165863
0.000336151
0.000205058
-0.000432846
-0.0016208
3.13243e-06
-0.855612
1.77402e-05
0.00514055
-0.00184214
-0.000260035
-1.02986e-05
0.222209
2.2094e-06
-1.14638e-05
0.0288029
-6.87514e-07
0.971715
-0.000122409
0.0240652
0.000796329
6.41324e-06
-0.143937
1.19639e-06
-0.00310159
0.0255658
3.63782e-07
-0.104785
-0.140931
-9.80997e-05
-1.14481e-06
0.00886613
0.0567066
0.000133088
-0.0677612
7.66369e-05
-0.000412552
0.0774102
0.0903435
-7.21683e-06
-0.151241
-0.127136
6.94801e-06
9.56773e-06
0.0230641
-0.0092772
-7.69766e-05
0.0475212
0.0042496
0.100378
-0.000551377
2.964e-05
-0.000467669
7.38251e-05
1.09631e-06
-0.447075
0.0254852
-6.07925e-05
0.0866712
-5.48181e-06
9.44926e-06
0.00911896
0.0329428
-9.91409e-06
7.93194e-06
0.0286758
-0.278649
-0.000122183
0.000183666
-6.67552e-06
0.141275
0.723539
0.00274154
-0.000564217
0.259131
-2.34707e-05
-0.0578959
0.000702574
3.48422e-05
5.63699e-05
1.37416e-05
-9.82691e-07
-2.20025e-06
-0.000443836
0.0488075
-0.00284894
6.31884e-07
-0.0389354
0.014744
-0.331979
0.00067925
-0.871891
0.00393495
0.000164576
1.21781e-06
-4.30817e-06
-0.000741426
0.000510496
-1.21082e-05
0.000112195
0.169323
0.0353092
3.08023
-0.00173054
0.0129634
4.63102e-06
-0.00502149
-0.351513
0.0152392
-0.00244825
0.000357017
-2.7696e-05
-3.53323
5.52204e-05
0.00279064
-0.00556498
0.000123782
0.0209482
2.07243
-0.185151
-0.000125857
0.83467
0.00589733
0.0155974
-1.17108e-05
0.0824071
0.00474805
0.0340288
0.169475
-2.50519e-06
-0.125289
-3.65709e-06
-3.00305e-05
-0.0581413
0.0233033
-0.682326
0.109915
-0.000187765
0.112975
0.0716643
0.20486
4.56387e-05
-1.18093e-05
-3.84207e-06
0.304301
0.0127647
0.0522469
-0.00155128
0.610436
-0.033165
-0.0579336
0.00277364
1.9252
0.00261734
-2.78246e-05
0.00137039
-0.0323228
9.64697e-06
0.000359559
0.00019396
-0.288259
-0.00200382
-0.00229148
1.13057e-05
-0.099885
0.315469
-0.0145609
-0.00752045
0.0574182
2.47749e-05
-0.000952395
-0.01222
0.0423856
0.391066
0.134975
8.79765e-05
0.0559018
-9.44998e-05
9.72971e-05
0.0274155
2.1869e-06
-7.36428e-06
0.0170448
-0.221558
5.76793e-06
-0.387922
-0.198991
0.019768
-0.000159659
-0.350458
0.158742
-0.000184597
-0.0453171
2.4187e-05
0.000783074
0.043114
0.000746594
0.00077285
0.000363493
-0.00513402
0.000604835
0.000427014
0.00112971
-0.00206053
-0.111093
-2.76907e-05
0.00151438
0.0185278
0.0196549
-2.34177
0.00107947
0.148924
-2.71625e-05
-0.0583962
-0.00266937
-8.03932e-06
0.165129
0.00336233
0.000301464
-0.000500469
0.000109749
-0.374256
-0.00316908
-0.000138662
0.00234164
4.93881e-06
0.147515
-0.24987
-0.000660333
-7.79273e-06
0.22609
0.163269
-2.7687
-0.0086867
0.000124437
-0.000512949
-5.28219e-06
-1.92574e-05
-8.07057e-06
0.00819698
0.0120285
-7.15701e-06
1.98326e-06
-1.39103e-05
-0.000124493
0.0484358
0.0016691
0.0437455
-2.87316e-06
0.00107167
4.01148e-06
-0.0159948
-6.29541e-06
-1.40355e-06
0.0475083
0.0653065
0.000166042
-0.000162034
1.16528
0.404608
0.00863999
-4.54315e-06
-0.210592
0.680238
-0.00100605
0.0198344
-0.000412189
6.69292e-06
0.138167
-0.000642598
-0.153405
3.53405e-06
0.00473262
-0.00130283
0.00213482
6.50118e-05
-2.43718e-05
0.000793212
-0.00127499
0.0012095
0.0122217
8.62094e-10
-0.00115142
-0.000255853
0.0136703
8.89202e-06
-0.049237
5.27426e-07
-0.00901719
-3.31337e-05
0.0035952
0.000840491
-0.000793934
1.77557e-06
-0.00116118
0.1037
0.000761616
-0.116479
-0.0150245
9.24596e-06
0.786789
0.00125922
0.0254781
0.00297194
0.000281494
-0.0739682
2.57676e-06
0.0150133
-0.000593315
7.57041e-06
0.000310373
0.00045081
0.000195385
-6.89549e-06
-0.0328968
-1.2234e-05
1.88725e-05
0.091443
6.33866e-06
-0.0601538
9.47487e-06
0.00561828
2.34455e-06
0.000198734
-0.0126723
1.89281
2.43951e-05
-2.79871e-05
9.75553e-07
5.1927e-05
1.40812e-06
1.66223e-05
-0.0720545
-0.0787515
0.00068728
2.41007e-05
-0.000354821
-0.00564903
0.00434342
0.977711
-9.06368e-06
0.000146303
0.0257744
0.109131
0.0695391
0.000818497
-0.088438
0.756151
-0.000325296
-4.37986e-06
-0.00287087
0.0229171
-0.000211806
-3.58008e-05
7.01675e-05
-2.72209e-06
2.4597e-05
0.0015201
0.0416609
4.21042e-06
5.35654e-07
0.0273426
-1.09981e-05
0.704209
-0.000134775
-0.000165857
-0.00205508
0.0276082
-0.000117224
0.0168577
4.08892e-06
2.72185e-05
0.000195336
0.00101682
0.0005551
-0.000690493
0.00307185
0.0283199
-0.0113743
0.0231324
0.22609
0.00484148
8.57895e-05
0.000804175
-2.37727e-05
0.000604896
2.93053e-07
-0.0020775
-4.38031e-06
-2.28977e-05
-0.356073
5.564e-08
-0.000100158
0.0139733
-2.67206e-05
-1.85191e-05
-5.74476e-06
0.0016633
-2.5884
0.191471
5.95014e-06
1.29748e-05
0.0535139
0.352464
-0.00312509
0.0349525
0.0296769
0.243467
0.0412246
0.0324406
-4.75637e-06
-0.0244571
2.64655e-06
0.0390117
0.0221662
0.000101302
-0.0424092
7.40303e-05
-0.30999
-5.27285e-06
-0.00658145
-0.329904
-1.20447e-06
-0.00518115
2.17631e-07
0.00891731
-4.21208e-06
0.0245014
-0.0737891
0.760192
-0.0384717
-0.012206
-0.000377183
-2.5193e-06
0.000293838
9.78555e-06
0.000163566
-0.00243341
0.0199706
-4.51543e-06
3.0755e-07
4.90195e-06
-0.000132684
-4.81759e-06
-0.464107
-0.0349175
3.50779e-06
-7.69601e-05
-0.00570236
0.00076281
0.000341795
0.599462
-4.41587e-05
1.56075e-07
-9.66391e-06
0.00920414
0.0412865
0.00225992
0.0146856
-1.654
0.000265511
0.012425
-0.0519504
0.369089
-6.46148e-05
0.0193606
2.15006e-06
-0.952495
0.00195744
0.0218526
6.01476e-06
2.58219e-05
-0.00340726
0.00922223
-0.00550949
-0.00389251
0.0001282
1.57931e-06
-6.7726e-06
-0.814669
0.155517
1.97531e-05
5.70035e-05
-0.00167047
4.77674e-06
0.261508
0.132354
-0.000625558
0.0002621
0.00231991
0.00894449
7.20094e-06
0.00396304
0.000175639
1.77978e-05
0.00036014
-0.237159
2.36945
0.00603856
-0.0828729
7.68298e-06
-7.52849e-06
0.000293585
5.40262e-06
1.00029e-05
0.0343374
0.000131968
-0.0311918
-2.37785e-06
0.00277617
-0.0037069
-3.16748e-05
-0.0125623
-0.595142
0.0145523
-0.0271602
-0.000145672
-0.472401
-0.00292411
0.0027598
0.690948
-0.207859
2.35286e-05
-4.50341e-07
-0.000240595
0.000156823
0.101811
0.0334177
-4.64365e-06
-9.36476e-06
0.000728153
0.0729839
-0.00485017
1.21918e-05
-0.000820263
0.124259
0.00091114
0.000427098
0.0507955
-0.235959
-2.49358e-06
8.62373e-05
2.43156e-05
-0.00510292
0.041694
-8.40091e-07
-0.00017725
0.00452326
0.00248374
0.000953586
0.398984
1.62718
-0.00192642
0.00825563
-0.000653245
7.18186e-06
0.0105264
8.48197e-06
0.145112
-0.37046
-2.68379e-05
0.191164
-7.5189e-06
-0.0749703
-3.75539e-06
-0.00224486
-2.88667e-05
0.0661937
-0.000392851
-0.446133
0.00614715
-8.77581e-06
-0.000617896
0.0161858
-0.00368342
-0.457999
0.592707
-3.10458e-06
-5.84237e-05
-3.49859e-05
0.83303
0.000124865
-0.000307198
-0.000241053
0.0297692
-2.25742e-06
-7.79487e-05
-0.000200872
-0.334564
-1.44059e-05
-0.0200195
0.00011851
0.00044439
1.60412e-07
0.0183828
0.00469684
-0.00041676
-0.000855683
-4.09641e-05
-2.64359e-06
-0.000165214
5.96389e-05
-1.17945e-05
-0.754929
-4.44831e-06
0.0056612
-0.074103
-0.000271536
1.18689e-06
6.92045e-06
-3.17267e-06
-0.00149849
-4.27397e-06
1.83784e-05
-0.32876
0.000482293
0.00920057
-8.88903e-06
0.000651274
4.15907e-06
0.00040251
-0.0759907
0.0238326
-0.0964585
0.0436242
9.5699e-05
5.01321e-05
-5.35053e-05
-0.000346646
0.000301216
-4.25439e-06
0.72193
0.912006
9.12072e-05
3.59736e-06
0.0174922
-3.57906e-06
0.0884785
0.00305152
0.000450637
-0.113503
0.0276865
1.7291e-05
-0.0018104
2.92323e-06
6.91809e-06
-6.23168e-06
-3.65744e-06
-1.91496
-2.07523e-06
3.1054e-05
0.394262
6.31004e-05
0.672798
-0.000408477
1.10131e-05
0.0508599
-0.00505973
-4.0601e-05
-0.132785
0.0599374
-0.116071
4.48279e-06
0.0182157
4.03035e-05
-0.0789946
0.195351
1.14857e-06
0.0133986
0.0017647
0.000294138
0.000109136
-0.0041208
4.71453e-06
-4.68451e-06
-0.00219713
0.207736
1.16841e-05
0.00538929
1.66784e-06
2.40614e-07
0.0179682
5.33932e-06
0.0667731
-0.0366255
0.229172
-1.20513e-05
2.28753e-05
0.000571705
-1.31338e-05
0.00296073
0.0194436
0.0324855
-9.73351e-06
-0.311131
-0.000446511
-2.86052e-06
-8.84499e-06
0.000901962
0.330989
2.18171e-05
0.189736
2.08761
-0.0120506
3.97933e-05
-0.00358497
-0.00977657
8.73482e-05
0.417276
-0.00919047
-0.000161372
0.124041
-2.04606e-06
0.666867
3.1104e-06
-6.18041e-06
2.22123e-05
1.21971e-05
-5.45925e-06
-0.00137491
9.29746e-07
-1.05146e-05
0.00360835
-2.64061e-05
0.000193435
-3.5039e-06
0.0336954
9.84409e-06
-8.23372e-06
0.000240031
-0.0134672
-5.52415e-05
-1.96495e-06
6.87208e-05
0.250804
-0.0186131
0.0145775
0.000895887
7.69159e-07
9.78225e-07
0.0041744
-1.59468e-05
0.0405848
0.076507
2.30356
0.041752
-5.941e-07
0.072201
-0.125991
-0.145406
9.63705e-06
0.0120178
-0.0515896
-0.0225474
1.68869e-06
-7.0971e-07
2.99918e-06
2.35618e-05
0.0227588
0.00552081
7.3373e-05
0.105233
-0.000488337
0.00010976
-2.33787e-05
6.40634e-07
-2.13537e-06
0.00207069
0.0477848
0.0346276
-0.00120253
0.0333423
0.300246
0.647926
-0.000804586
1.81915e-06
-0.000105587
8.00528e-05
1.65438e-05
9.63979e-06
5.38583e-05
-2.80251e-05
1.56911e-05
1.37448e-05
2.14441e-06
-4.60511
-4.51205e-05
-0.000235097
0.0627634
0.000868169
-0.00796476
-8.76507e-06
0.000327391
2.9145e-05
-0.0423419
0.0041932
-0.00436208
3.1238e-06
0.000114762
6.09337e-05
0.000171382
0.000492836
-0.268394
1.69165
-0.000400434
0.066058
-1.43729e-06
-0.00291742
0.217485
-0.00836818
-0.0106485
0.00308659
0.0111084
2.81301e-06
-6.96256e-07
4.67683e-05
0.218869
0.00192402
0.00430955
0.0931483
2.49724e-06
0.134408
0.279524
-0.000130502
-2.32921e-06
-0.114152
0.000175257
0.0605343
-0.00573163
-0.070126
9.20354e-06
-0.0879311
-1.69239e-06
2.89534e-05
-1.98141e-06
-0.017569
0.0916085
-0.0865821
0.00101418
1.93435e-06
-0.000237132
0.000232743
0.0134568
-0.168148
-1.11466e-06
0.00144028
3.41524e-05
0.0022944
-0.474614
-7.47219e-06
-3.14866e-06
0.000160243
0.000132887
2.482e-05
-0.000190039
0.00017845
-0.106326
0.00167721
-0.177442
6.66179e-06
0.0410358
5.83656e-06
-1.23988e-07
9.7339e-07
6.92051e-06
-0.00294479
1.49405e-06
-0.0284801
-0.00180045
0.00953139
-3.34219e-05
9.5386e-07
-0.00983501
8.02704e-05
-0.001266
0.0995528
3.49352e-05
-6.08506e-06
-2.72129e-05
0.951851
-0.00529365
7.99862e-06
0.000338276
4.62502e-06
0.108578
2.42771
0.003082
1.34632
-0.071691
0.000283604
0.783822
-8.3799e-06
-0.186188
2.72376e-06
-0.0004234
1.28791e-05
0.0143046
-1.15579e-05
-4.46556e-06
-0.00276618
-4.37302e-06
-3.75445e-06
-3.12551e-06
0.00139169
-0.100216
1.92722e-07
0.00013352
-2.34577e-05
0.000178794
0.0595336
0.0640109
-4.23909e-06
0.00872802
0.00230913
-0.107055
0.00498594
0.215015
-0.245296
1.21568
-0.000816596
3.99149e-06
-7.48314e-06
0.0742008
0.00157026
0.000138432
-6.45788e-06
5.22119e-07
-7.64974e-06
-0.000186352
0.00133792
-0.207657
-2.6742
2.68046e-05
3.12788e-05
5.17246e-06
-0.60418
-0.000245862
-0.000711045
-8.9434e-06
1.888e-06
-0.151793
-9.19406e-05
0.00165509
-0.197132
0.000185123
-0.0171836
2.91407e-05
0.0110754
-0.00104239
2.98883e-06
4.70069e-05
1.47452
0.00171896
0.00258447
-0.221126
-0.0601329
0.000560423
1.93991e-05
0.759233
0.0277952
2.9997e-06
-0.000122765
0.0609216
1.02106e-05
1.16466e-06
0.000552129
-3.28332e-05
0.000634111
-0.0526743
0.151358
-0.25674
2.26117e-06
-5.03363e-06
0.00107454
0.000565693
-0.00291669
-0.0118702
0.00595792
0.0103803
-1.57504e-05
-0.000235171
0.000233266
0.00150565
0.0045395
1.71389e-05
0.00294929
6.38433e-06
3.22027e-06
3.98576e-06
0.0228561
0.0342377
2.95465e-05
-0.404553
-1.48472e-05
0.0532928
-0.00152646
8.51455e-07
4.97852e-05
-0.000439012
0.12978
0.000325163
-3.1812e-06
2.27612e-06
1.00755e-05
-1.43451e-05
-0.0344677
-0.00399881
-4.9048e-08
0.0161353
0.153498
0.000156704
0.000431322
-3.28335e-06
0.000126814
-0.267173
-0.00143653
3.6998e-06
-0.223326
0.0232428
0.000356681
0.000133385
2.00388e-05
-0.732926
-0.00741434
-0.000699676
-0.00533682
-7.16994e-05
0.000247575
5.52449e-05
0.00435186
0.00321077
-0.022457
-0.00625419
-0.0298239
-0.000417497
0.000348408
-9.82285e-05
-0.00132795
-0.000414366
0.00531217
-2.39184e-06
-0.00114209
-3.58131e-05
-0.514399
5.65194e-07
-0.00010451
0.000168853
0.000225219
-3.36414e-05
0.00149953
8.09845e-05
-0.00184857
-2.80407e-07
-2.77406e-06
-0.000245258
0.0434726
0.00539056
-0.000359119
0.0120129
9.68624e-07
4.72333e-05
-1.09523e-06
-0.00350299
3.80539e-05
0.000507023
0.00675126
5.33063e-05
5.32659e-07
-1.33312
-0.00453132
-0.415536
0.0679404
-1.08592e-05
0.000194725
-0.145544
-0.0326179
5.51616e-07
0.0504901
7.32456e-05
-0.0377029
-1.93607e-06
0.000411986
-0.464091
0.025712
-2.75469e-06
-0.00269177
-0.000277886
-0.0127818
3.90944e-06
0.0152968
-4.56445e-06
9.18796e-06
9.61094e-05
0.043374
-2.19063
0.0147785
0.0160266
0.00349947
0.00013037
0.000110599
-0.000206753
0.0077346
0.64908
-0.011946
9.224e-07
-1.32511e-06
-0.00300632
2.70465e-05
-4.93159e-06
-0.119036
0.000296887
0.0290381
1.19618e-05
5.51169e-06
0.00156001
-0.00996485
-0.0288848
-0.00543608
0.204127
0.664874
0.000120343
3.81568e-06
4.36111e-06
-0.0041504
1.05562e-07
1.02716
-6.27566e-06
-2.71439e-06
-2.01485e-06
0.891197
-1.07591e-05
2.40122e-07
0.0207143
-0.0111729
-0.00274959
-2.35018e-06
0.000399768
5.59055e-06
8.08986e-07
0.0772193
-2.28699e-06
0.000921075
7.45028e-05
0.00052883
4.77584e-06
-1.08667e-05
0.00266339
3.32386e-05
1.90624e-06
4.19754e-06
4.13288e-06
0.0217532
0.0133956
-1.6694e-06
2.10491
0.0341311
9.30878e-06
3.39769e-06
4.89579e-06
-6.52785e-08
3.73386e-06
-0.000575446
-0.00372313
-0.0013506
-0.128453
-0.0148103
0.189783
5.45023e-06
-1.71756e-06
-0.000192357
0.0416286
-0.0641387
-0.00385992
1.93751e-05
-1.41117e-06
-0.00169491
-0.00513039
0.0253917
-2.97097e-05
0.00282079
3.56712e-06
-0.00308936
-0.000465309
0.134533
6.52267e-06
2.46572e-05
8.96889e-05
1.37299
0.0233542
-0.000205177
-0.0858637
0.141618
0.0575498
-0.106428
-0.00249643
0.00205571
0.00524685
-0.00428437
-0.0016782
0.0154164
0.023932
0.0999728
0.000407922
4.17094e-05
-2.05385e-05
2.01239e-06
9.03871e-05
6.82707e-05
-0.0145348
-0.00607183
0.0818788
0.0222734
0.0316131
5.8821e-05
-0.00706415
-0.00963047
-0.000533591
-1.10985e-05
-0.0074253
-0.0311844
-2.58239e-06
-0.0415312
-0.214928
0.00084752
0.018117
-3.96195e-06
0.000353799
-0.00157448
7.77525e-05
2.18815e-06
0.0359127
1.37998e-05
-3.17752e-05