/*--------------------------------*- C++ -*----------------------------------*\
| =========                 |                                                 |
| \\      /  F ield         | OpenFOAM: The Open Source CFD Toolbox           |
|  \\    /   O peration     | Version:  v2012                                 |
|   \\  /    A nd           | Website:  www.openfoam.com                      |
|    \\/     M anipulation  |                                                 |
\*---------------------------------------------------------------------------*/
FoamFile
{
    version     2.0;
    format      ascii;
    class       surfaceScalarField;
    location    "250";
    object      ddtCorrDdt0(phi);
}
// * * * * * * * * * * * * * * * * * * * * * * * * * * * * * * * * * * * * * //

dimensions      [0 3 -2 0 0 0 0];
oriented        oriented;


internalField   nonuniform List<scalar> 
27087
(
0.00011134
-0.000263894
0.000152523
0.00475982
-0.01755
0.0127901
0.0177393
0.0393916
-0.0571308
0.000478024
0.00589551
-0.00637351
-0.00114695
0.000443405
0.00070357
-0.00664255
0.0176103
-0.0109678
-0.0170989
0.0354241
-0.0183252
7.59821e-06
-9.94761e-06
2.35681e-06
-2.17431e-05
-4.94287e-06
2.66859e-05
-0.0301337
0.0130348
0.000892987
-0.00123058
0.000337609
-0.000390344
0.000423966
-3.36109e-05
-0.0163967
0.0329057
-0.016509
-0.0159355
0.0356129
-0.0196774
0.00643177
-0.00514834
-0.00128343
0.00395562
0.0408232
-0.0447789
-0.00123611
-0.000740339
0.00197646
0.0419844
-0.0244179
-0.0175665
1.19785e-05
-8.4557e-06
-3.52103e-06
0.0125007
-0.0181909
0.00569023
-0.0229535
0.0158173
0.00713617
0.0194886
-0.0285503
0.0121536
-0.000167453
-0.000242923
0.000410363
-0.000183032
0.000294368
-0.000288118
0.00020997
7.81398e-05
0.000996966
0.00059421
-0.00159118
0.0273424
-0.0209029
-0.00643954
-4.45308e-05
4.60863e-05
-1.54275e-06
0.0138303
-0.00907048
-0.000137417
-0.000150704
0.0203113
-0.00781063
0.00778843
-0.00138264
-0.00640578
-0.000598659
0.000285163
0.000313506
-0.00477793
0.00525597
-4.09417e-06
1.16957e-05
-0.00701664
-0.0159368
-0.0739303
0.086871
-0.0210206
0.000505347
0.0205152
-2.3322e-06
-1.24262e-05
1.47669e-05
-0.00583224
0.0108474
-0.00501518
8.49319e-06
6.13374e-05
-6.98329e-05
0.0634081
-0.0456688
-0.000461858
0.000294408
-0.0123436
0.00651139
0.000750181
-0.000157508
-0.000592681
0.0627116
-0.0350926
-0.027619
0.0012152
0.00657323
0.00633102
0.000100759
0.00759296
-0.0142355
0.00182209
-0.0030582
-0.0025177
-0.00263064
-4.98224e-05
8.66241e-05
-3.67963e-05
-0.00367191
0.00107517
0.00259673
4.83465e-05
4.2229e-05
-9.05776e-05
-8.67036e-05
6.49601e-05
-0.0376019
0.0415575
0.0304582
0.0322534
0.00021891
2.98833e-06
-0.000221907
-0.00524789
0.0027302
0.0111262
-0.0111842
5.80484e-05
0.0388864
-0.0487482
0.00986173
-0.0358315
0.0244354
0.0113961
-0.0164775
-0.0136561
-0.00140786
-0.000696645
0.00210451
-0.000682206
0.000419749
0.000262443
-0.0143242
-0.00669642
0.000124255
0.000625947
4.45332e-05
0.00125765
-0.00130218
0.000138751
8.01407e-05
1.92019e-05
0.000114521
-0.00013372
8.90594e-05
-9.5628e-05
0.0191901
0.0049089
-0.0240991
-7.55773e-05
8.40463e-05
0.00812478
0.00300141
-6.408e-06
6.77561e-05
-0.00192873
-0.00030257
0.00223131
-0.00724811
0.0228613
-0.0156132
-0.0251759
-0.0106555
-0.00408662
0.0105695
-0.00648286
-0.0160676
0.00887415
0.00719347
0.00466034
-0.00477805
0.000117733
-0.000300091
-0.00981389
0.010114
-0.00395727
0.00536893
-0.00141165
8.72286e-05
-5.13045e-05
-3.59228e-05
-0.0384454
-0.0539537
0.0923991
-0.000253964
1.19708e-05
-0.0203393
0.0161348
0.00420454
0.0487942
-0.0260747
-0.0227195
-0.000761681
0.00132374
-0.000562081
9.68281e-05
1.5722e-05
-0.000112556
0.0095754
-0.00145061
-0.0523195
0.0251582
0.0271613
-0.00200551
0.00059765
-0.00348436
-0.000472906
-0.000195627
-0.00018343
0.000379056
-1.65249e-05
0.00011335
0.000313792
-0.000509422
0.000632056
-0.00125385
0.000621786
-0.0234715
0.0222546
0.00121686
0.0578568
-0.0189704
-0.0001079
2.79204e-07
0.000107591
-9.89694e-05
4.40651e-05
5.49041e-05
-2.80338e-05
4.7238e-05
0.0166824
0.01066
0.000246647
-0.000477642
0.000231012
0.0145669
0.021046
0.0114789
0.0305055
-0.0118367
0.0122245
-0.000387778
-0.00843537
0.0107102
-0.00227482
1.12975e-05
-0.00194003
0.00688619
0.00268922
-0.0182872
0.0120856
0.00620166
-4.58541e-05
-5.31173e-05
0.000330082
-0.000801413
0.000471348
0.000910814
-0.000278754
0.0100654
0.00912477
0.0220022
-0.029299
0.00729688
-0.000156359
-0.00052585
3.14783e-05
5.57517e-05
0.0193205
0.0139951
-0.0333157
-2.12046e-05
2.2079e-05
-8.74355e-07
0.0304686
-0.0157606
-0.014708
4.20901e-05
-4.84789e-05
-1.91658e-06
-1.77336e-05
1.96469e-05
-0.000255075
0.00115131
-0.000896208
0.0115312
0.037263
0.00725949
0.00206149
-0.00932098
0.0117448
-0.000460855
-0.0112839
-0.000651793
0.0015898
-0.000938002
-0.00548655
0.000708642
1.99769e-05
4.70949e-05
-6.70639e-05
-9.60315e-05
7.19236e-05
2.41073e-05
0.00101918
-0.000894928
2.73436e-05
-4.34369e-05
1.61006e-05
0.00047322
0.0054223
0.00259912
-0.00421641
0.00161729
0.0193292
0.00764821
-0.0269773
0.0024198
0.0151905
-1.71845e-05
-0.0724299
0.0290147
0.043415
0.0309331
0.032475
0.0096608
-0.0099609
-4.3448e-05
2.67214e-05
1.67352e-05
0.000509134
-0.000192425
-0.000316717
-0.00134183
0.00108676
-0.00288313
0.0156966
-0.0128134
-0.000298255
-0.00020769
0.000505935
-0.000427748
-0.000802819
-0.00681317
-0.00762371
0.0144369
-7.31634e-05
9.31406e-05
-0.0189847
-0.00448683
-0.000843577
0.00129738
-0.000453814
0.00712186
-0.01452
0.0104511
0.00406899
0.0508656
-0.0199325
-0.000225409
0.00292841
-0.002703
-0.00141935
0.000767565
-0.0169236
-0.0555062
0.000130851
-8.23901e-05
-4.84396e-05
-0.0217568
-0.0269914
0.00656862
0.000553235
-0.0781294
0.039684
-0.000717894
-0.0111189
-5.87665e-05
1.71429e-05
4.16268e-05
0.00974625
-0.00345182
-0.00629443
0.00693135
-0.0808617
3.33645e-06
-4.4566e-05
4.12561e-05
-0.00525329
-0.00926674
-0.000356051
-7.56071e-05
0.000431644
0.00468253
-0.0278668
0.0231842
-0.00105883
0.00831832
-2.66374e-07
-7.53322e-05
-5.29908e-05
-1.02895e-05
6.32717e-05
2.29089e-05
4.37175e-05
-6.66084e-05
-0.0325765
0.0403388
-0.00776237
0.000647863
-0.000333039
-0.000314846
-9.17028e-05
6.3503e-05
2.82133e-05
8.57853e-05
-6.28765e-05
3.78525e-05
-0.000123245
8.53922e-05
0.0376552
-0.0156531
-0.000546369
-0.000795461
0.0253382
-0.0579146
-2.38831e-05
2.73595e-05
-3.47303e-06
-2.20151e-05
-1.76556e-05
3.96723e-05
4.36121e-05
-2.08903e-05
-2.27347e-05
0.0123126
-0.0114449
0.00617674
0.00526817
0.0040256
0.00188164
-0.00590723
0.000161591
0.000857586
0.00578039
-0.0308402
0.0250599
-1.3983e-05
-0.000121173
0.000135163
1.36334e-05
-0.000111107
9.74789e-05
-0.000366455
1.04074e-05
-0.00017416
5.23075e-05
0.000121851
0.00346018
0.00628608
0.000164307
0.000344828
-0.00133131
0.000784954
-2.13946e-06
4.42264e-05
0.000406397
-0.000721814
0.000315418
-0.000126048
0.000139195
-1.31485e-05
0.000215301
-6.47486e-05
-0.000150561
-7.63744e-05
5.21027e-06
7.11696e-05
0.00045544
0.0011862
0.000403604
-0.00483193
-0.00661297
-1.60084e-05
1.10675e-05
0.000172556
0.000574443
-0.00074701
2.62956e-05
1.85474e-05
-4.48424e-05
-2.99564e-05
4.51111e-05
-1.51694e-05
-0.00048815
-2.40801e-05
0.000512205
-6.38317e-05
1.42313e-05
4.96081e-05
-0.00565793
0.00581069
-0.000152766
0.000137763
7.75486e-05
-0.0216961
0.0261648
-0.00446868
-0.00156949
0.0015808
-4.25695e-05
4.58969e-05
0.0377918
-0.0277949
-0.00999695
-0.0112277
-0.00483988
0.000656487
-0.00150008
-0.000289001
-0.00204649
-0.0167619
0.0188084
-0.0148962
0.0195788
0.00237769
-0.00385866
0.00148097
-0.000103128
-2.29176e-05
-0.000823644
-0.000445367
0.00126902
-0.000405948
0.000845747
-0.000439789
0.00315224
-0.00507266
0.00192043
0.00406096
0.0005994
0.0326839
0.00765494
-5.21271e-05
2.21815e-05
1.66391e-05
-6.9631e-05
4.04988e-05
3.8282e-05
-7.88091e-05
-0.00262982
0.00265204
-2.22011e-05
-4.76337e-05
-0.00161518
-0.00101467
-0.00109317
0.00939344
-0.00830025
-0.00417167
0.0020171
0.00215457
0.00103618
-8.1273e-06
-0.00102804
-0.0849482
0.0389237
0.0460243
-2.19368e-05
0.000218539
-0.00019659
-0.000634983
0.00022903
0.00205165
-0.00177595
-0.000275691
-0.0218613
-1.6712e-05
1.18642e-05
4.84793e-06
0.00320622
-0.00202373
-0.00118248
-0.00173234
-0.00243934
-6.32774e-05
1.34486e-05
1.68622e-06
-7.80636e-05
-0.0559335
-0.00298206
0.00292361
5.84691e-05
0.0114267
0.0126404
-0.0240671
0.00196669
-0.0021921
-0.00146094
-0.00639222
0.0390761
-0.000224802
-0.000451114
0.000675907
0.00973182
-0.031428
0.000144056
-0.000158033
-2.90744e-05
-2.96881e-05
0.0201551
0.0176367
-5.3911e-05
2.15592e-05
3.23645e-05
0.0444363
-0.0195229
-0.0249134
-1.36295e-05
2.29014e-05
-9.26592e-06
0.000361716
-0.000217921
-0.000143787
0.00655193
-0.00764509
-0.00681209
-0.0006443
0.00745638
0.00108072
-0.000204972
0.0159622
0.028474
6.66188e-07
1.25874e-05
-1.32534e-05
-0.00283861
0.00122342
-0.0161427
0.00932954
0.0222641
0.00954716
-0.0318111
0.0347348
-0.0104913
-0.0242436
8.23978e-05
-9.77612e-05
1.53127e-05
-0.019102
0.0253137
-0.00621172
0.000135564
0.000226151
0.000115965
2.32325e-05
0.023053
0.0116818
-0.0166208
0.00937268
0.014313
-0.000947696
0.0167369
-0.00659401
-0.0101429
-8.23362e-05
1.81155e-05
6.42242e-05
-0.0010014
6.92608e-05
6.93861e-05
-0.000138643
3.02987e-06
3.64729e-06
-6.68273e-06
-5.98011e-06
5.79526e-05
-5.19841e-05
0.0381733
-0.0209691
-0.0172042
-0.00975358
-0.0101312
0.0198848
-0.0163332
0.0111594
0.00517381
0.0196164
-1.14098e-05
-3.20279e-05
0.000983131
-0.000807213
-0.000175896
-0.000669844
0.000661726
-2.03971e-05
3.05136e-05
-1.01232e-05
0.000209381
-9.34239e-05
-1.87838e-05
-3.33467e-05
-0.000810941
0.00031199
0.000498952
0.0153019
-0.00523657
0.000618203
0.000364927
-0.0147703
0.00495644
0.025175
-0.0137483
-3.37554e-05
7.4249e-05
-1.71648e-05
-6.51777e-05
6.77212e-05
-2.99229e-05
-3.77834e-05
-0.000598188
0.0007018
-0.000103617
0.0047376
-0.000357332
-0.00438025
-0.00036771
-0.000120072
0.000487751
-0.000127311
5.5316e-05
7.19976e-05
-1.12523e-05
-9.95724e-06
-0.00650808
-0.000316279
0.00682435
-0.0126677
-0.00767159
9.11272e-05
-4.27796e-05
-0.000905002
0.0018622
-0.000957168
-0.0425556
0.0320643
6.10401e-05
6.98083e-05
7.45524e-05
-0.000613271
0.000538723
-0.00220959
-0.00127476
-9.59185e-05
6.37574e-05
3.21633e-05
-0.000333283
-0.000176981
0.000510266
0.0176122
-0.0293473
0.011735
-0.00533399
-0.00585025
-7.88939e-05
-0.00756691
-0.0380318
0.016275
-6.26062e-05
-0.000327755
-0.000631539
-0.000551141
-2.62137e-05
9.39176e-05
-0.00858191
0.00719926
0.010734
-0.00309116
-0.00764289
-0.0261444
-0.0164112
-0.000311732
-0.000286923
-0.00404003
0.00105796
0.00289269
-0.00822668
-9.8407e-05
-9.50958e-06
0.000205743
-0.000449128
0.00024338
-1.75685e-05
0.00529288
-0.00527531
-0.000361355
-0.00331055
-0.00962748
0.00764514
0.00198233
0.0111963
-0.0209498
0.00183108
-0.000834108
-0.0060225
-0.00360502
1.75321e-05
-0.00222712
0.000549857
0.00418775
-0.0646088
0.0120346
0.0525743
1.86676e-05
8.79234e-05
-0.000106581
-0.00024411
0.000526667
-0.000282559
-4.38844e-05
2.09314e-05
2.29615e-05
4.71666e-05
1.89778e-06
-4.90853e-05
-0.00494463
0.0062744
-0.00132978
0.00889711
-0.0125703
0.00367321
5.88109e-05
0.000300684
-0.000359499
-0.000920431
0.000359431
0.000561002
-1.75877e-05
-0.0656914
0.0726227
-7.21772e-05
-2.22745e-05
-0.000105286
0.000467153
-0.000361865
0.000501923
-0.000319849
-0.000182074
-0.000608215
0.0137321
-0.0236749
0.00994277
0.00750673
-0.000521519
-0.00698522
1.10074e-05
-1.7753e-06
-9.24067e-06
-0.000526402
0.000349406
-1.40182e-05
-5.04177e-05
6.44512e-05
-5.13792e-06
1.33409e-05
-8.20618e-06
0.000452924
-0.000165973
-0.000286915
0.00991575
0.00182904
0.000137613
-6.83535e-05
-9.68971e-06
-7.02082e-06
0.00152851
-0.0275919
-0.0370169
-0.000262891
-0.000548053
-0.000479876
-0.00235873
3.64092e-05
-5.23456e-05
1.59287e-05
-0.00542683
-0.0109064
-9.31853e-05
-1.51077e-05
0.000108292
4.57663e-05
-0.000352427
0.000306662
-0.0521489
0.0482282
0.00392062
-0.033942
0.0267649
0.00717702
1.40858e-05
2.50105e-06
-1.65863e-05
-0.000577155
0.00310976
-0.000510627
5.19934e-05
-2.25783e-05
-2.94164e-05
3.447e-05
1.75227e-05
-0.0020998
0.00107389
0.00102592
-0.00372608
0.00494128
0.00130311
-0.000298684
-0.00100442
0.000317655
-0.000271889
0.000715332
-0.00138274
0.000667416
0.0295213
-0.0102007
-0.000103958
8.19455e-05
2.81437e-05
1.54764e-05
-0.000174058
-0.000495781
-0.00033773
0.000829851
-0.000492095
0.0271854
-0.0179421
-0.00924329
8.80491e-05
-0.0175164
0.0351286
0.00138714
-0.000235809
0.00676744
0.00325449
-0.0100219
3.26107e-05
2.08753e-05
-5.34622e-05
2.6371e-05
0.00120811
-0.00123448
0.00071163
0.000675515
0.118901
-0.0269682
-0.0919329
0.00105587
0.00645086
-0.000202095
-0.00141216
0.00161425
-0.00541293
0.0191451
-0.00709222
0.00132109
0.00577115
-0.00140349
0.00211883
0.0211719
0.0293495
-0.0505214
0.00128847
1.46481e-05
0.0063227
0.000282814
-0.00660551
0.000367189
0.000134737
0.000357926
-0.000463214
-0.000237019
0.000680432
-7.30858e-05
-0.000535923
0.000609035
0.0116296
-2.23384e-05
1.18532e-05
1.04812e-05
0.000671693
-0.000458433
-0.000789194
0.00124763
0.0265891
-0.0208087
-0.000529409
-0.00790595
-0.0078127
0.000281088
-0.000699749
0.000418642
0.00514523
-0.00127874
-0.00386648
0.0152539
-0.0117937
1.61579e-06
-2.19972e-05
-0.000422945
0.00035464
6.83174e-05
0.0175408
-0.0143227
-0.0032181
0.0147399
0.0347975
-0.0495373
-0.000382312
0.000133075
3.83104e-05
-5.84696e-06
-3.24772e-05
5.35818e-05
-2.09708e-05
1.93344e-05
3.85779e-05
-5.79079e-05
0.0132353
-0.00236357
-0.0108717
3.71869e-05
0.00169884
-0.00173604
-1.30303e-05
-9.30728e-06
-0.00209565
0.000597703
-0.000621778
-2.58511e-05
-1.75918e-05
0.0204528
-0.0155439
-3.42585e-05
2.06295e-05
0.000482312
-0.000172236
-0.000310078
0.00049791
-0.000251259
-0.00666477
0.00726487
-0.000600101
0.0333744
-0.0377505
0.00437611
-1.39763e-05
-4.98498e-05
-0.000523775
-7.4394e-05
-0.0535143
-0.012177
0.0018715
7.58626e-05
-0.00194734
0.00431743
0.0109365
8.91638e-05
-8.36912e-05
-5.46879e-06
-2.52426e-05
1.26674e-05
1.25802e-05
8.25624e-06
-3.35152e-05
-6.84322e-05
-0.000457968
-0.00607585
0.0316087
-0.0255328
-0.00129741
-0.00265679
0.0039542
8.36158e-05
5.55903e-06
0.000111923
0.000312044
1.45788e-05
2.23794e-06
-1.68274e-05
-0.00067151
-0.00108072
0.00175224
0.00023467
-0.000116008
-0.000118658
0.00141675
0.000287163
-0.00170391
-0.00205425
-3.22549e-05
-0.00437666
0.0245317
1.18489e-05
7.72123e-05
-6.41496e-05
0.00363767
0.0431259
-0.0467635
0.0010724
0.00034435
0.0120986
0.0193272
0.00241277
4.08617e-06
-1.56276e-05
1.15402e-05
-1.11916e-05
1.5284e-05
0.000234692
-0.000161993
-7.27073e-05
0.00124087
0.00508183
-7.30495e-05
-5.42639e-05
8.41661e-05
-0.000118898
3.47339e-05
9.18849e-05
-5.04426e-06
-8.68258e-05
0.00619218
0.0141191
-1.77468e-05
5.3163e-06
1.2414e-05
0.000128982
0.000105068
-5.79707e-05
0.00236893
0.0108664
0.0263042
-0.0181668
-0.00813742
-0.00477071
0.0138381
-0.00906739
-0.000849982
0.00118008
-0.000967397
0.0015616
-0.0290364
0.0291154
-7.89722e-05
0.0171425
-0.00577118
-0.0113714
3.20115e-05
-1.59968e-05
-1.60216e-05
-0.0181322
0.0275094
-0.00937727
0.000631668
-0.000199124
-0.000432531
-0.0644468
7.70014e-05
-0.000213395
0.000136404
-0.00153915
-1.73002e-05
-2.58383e-05
4.31275e-05
0.000169018
0.0159657
-2.40474e-05
-7.96609e-06
3.20155e-05
-0.000107534
-3.46251e-05
-0.000406102
0.000440721
0.0299123
4.08563e-05
-1.99269e-05
0.00177324
-0.00307066
-0.000127716
-4.64392e-05
-0.0101652
0.0299385
-0.0197733
0.000441341
0.00082201
-0.00383746
0.00301547
-1.29853e-05
-7.37188e-05
0.00285916
-0.00199796
-0.000861225
-1.61784e-05
1.7716e-05
-1.53423e-06
-0.0191474
0.0592979
-0.000823602
1.76315e-05
-1.69672e-05
8.47896e-05
7.0779e-06
9.29226e-05
0.000141775
-7.8753e-05
3.63624e-05
4.23811e-05
-3.78164e-05
3.68395e-05
9.70325e-07
1.34951e-05
-3.23412e-05
1.88399e-05
-0.000278154
-0.000352664
0.000630817
0.000115118
-3.81115e-05
3.47983e-05
-2.07133e-05
0.000160067
5.5218e-06
-0.000165589
0.00630339
-0.00198827
-0.00431512
-0.00914055
0.103417
1.42561e-06
9.02974e-06
-1.04577e-05
-0.000333748
-0.000110603
-1.19029e-05
0.000122529
0.00414738
-0.0466026
0.0424552
-0.0335365
0.0154043
-5.57368e-05
-1.74224e-05
0.000782808
0.0054726
-0.00625542
0.000805287
0.000624055
-0.00142931
0.0196933
-1.81757e-05
0.0187283
-0.0465232
-3.19331e-05
4.082e-05
-8.85686e-06
-3.11365e-06
6.37607e-05
-6.06526e-05
0.0475315
-0.0438938
0.000710387
0.00149952
-0.00220993
-0.00157578
-0.000524031
0.00547449
-0.0594282
5.67225e-05
-9.44148e-05
3.76901e-05
0.000217085
-0.00171424
0.00149716
3.10931e-05
9.16272e-07
0.00212537
0.00957529
-0.0117006
-2.74368e-05
-2.64667e-05
0.000877524
0.00874339
-0.00962089
-0.00040576
7.05495e-05
0.000335218
0.000854888
-0.00162331
0.000768458
-3.04413e-05
9.54335e-06
0.00882894
0.00788918
-0.00347992
-0.00440926
-9.94361e-05
1.30882e-05
8.6353e-05
8.34015e-05
-8.93753e-05
5.02971e-05
-3.12136e-06
-0.00271461
0.000961477
0.00175315
0.00019726
-0.00127003
0.00107277
-3.63306e-05
-2.09896e-05
5.73059e-05
2.43394e-05
4.23614e-06
-2.8572e-05
-0.0195414
0.0248813
-0.0154581
-0.00942329
-0.013975
0.0206204
-0.00664534
0.0052211
0.00266809
0.00600413
0.00456538
0.00706284
-0.00108907
-0.0054587
0.00654779
-0.000178563
4.94348e-05
0.000129103
0.0142688
-0.0386867
-4.75309e-05
4.44124e-05
0.00205937
-7.71234e-06
-7.40358e-05
-0.00010452
-5.93494e-06
-1.02428e-05
-1.62008e-05
-2.29682e-05
3.9164e-05
4.53538e-07
-9.35204e-06
8.88417e-06
0.000131904
-4.77367e-05
0.0414023
-0.00057903
0.000549178
0.00132231
1.42579e-06
-2.54933e-05
-0.0113623
-0.0069249
0.0405417
-0.0274772
0.0372284
-0.00975118
-0.00018365
0.000178723
4.93232e-06
0.0108325
-0.00343771
-0.00739481
0.000206836
-7.26658e-05
-0.000134163
-0.000112749
-0.000494618
0.000607358
5.73573e-05
-6.0751e-05
4.07151e-05
6.13734e-06
3.89718e-05
0.00275013
0.0221312
0.000397181
-0.00117154
0.000774338
7.45984e-05
-5.44107e-06
-6.91599e-05
0.0194775
-0.0296428
0.000384208
-6.65495e-05
-0.00151764
-0.00184112
0.00335877
-9.63843e-05
-0.0152964
0.0153929
-1.33162e-05
-2.28866e-05
3.61924e-05
0.00298361
-0.0028976
-8.60071e-05
0.0278571
-0.01639
-0.0114671
-0.0445963
0.00699446
0.000530332
-0.000598767
-7.69274e-05
-0.000465887
0.00054282
6.70312e-05
1.95886e-05
-3.38019e-05
2.75845e-05
6.22186e-06
-5.0021e-05
-2.62036e-05
7.62121e-05
-0.0412811
0.0190084
0.0222728
-0.00167232
-0.00091373
0.00258604
0.0335552
-0.0318372
-0.001718
9.2065e-05
0.000114769
0.00173192
-0.00092662
0.0205788
0.00228254
3.55467e-06
-3.73575e-05
-0.0234895
-0.00554683
-0.0180152
-0.0232659
-0.00325601
-0.000965484
0.00422152
-5.08121e-05
0.000364609
-3.27152e-06
9.98336e-06
-3.89801e-05
-2.32479e-05
6.22308e-05
-4.62821e-05
-3.24695e-05
-0.00139961
0.00247478
-0.0257639
0.00884395
0.01692
0.0047584
-0.00479792
3.95262e-05
0.0119526
-0.0065857
-0.00536689
-0.0191198
0.00494633
0.0141735
-0.00587201
0.00092739
-8.43733e-05
-0.00474755
-0.00119401
-0.00037548
0.000570206
-0.00315461
0.00258442
-4.27946e-05
0.000327967
0.000277007
0.000107204
0.0141134
-0.0192319
0.00511841
0.00981204
-0.0284409
0.0186289
-0.00487174
0.0054216
0.00974405
-0.0102049
2.95763e-05
-5.72332e-05
2.76595e-05
-0.000409121
0.00013098
0.00240655
0.00429264
-0.00669916
0.0307117
0.0361253
-0.066837
-0.00480617
0.00537638
-2.10854e-05
-2.79808e-06
0.00049571
0.0306406
-0.0208285
-0.00208871
-0.000261083
0.00234979
-0.0426706
0.0142576
0.028413
0.00136278
-0.000965598
0.00478424
5.81604e-05
-4.15246e-05
-0.00152189
0.00155908
1.36661e-05
1.36867e-05
0.00324795
0.00305545
0.0071819
-0.000141126
0.000140231
9.06484e-07
-8.61074e-05
7.20778e-06
7.89043e-05
-1.53987e-05
1.3489e-05
-0.00424367
-3.53259e-05
0.00015716
-0.000121817
0.000994999
-0.000588592
0.0069102
0.000354676
0.00276808
0.000215529
0.000236882
0.000245432
-2.94563e-06
-8.31691e-05
-0.00359246
0.00441448
-0.0136619
0.0107788
0.00666043
0.000249779
-0.000671562
0.000293111
0.000378481
-4.01656e-05
0.000578975
-0.00147211
0.000893131
0.012114
-0.000403231
0.000398767
-0.000945159
0.000546388
-0.0148905
0.00895278
0.00593777
2.83015e-05
-4.23159e-05
-2.99237e-06
3.28712e-05
-2.99152e-05
0.000443167
-0.00120485
0.00186789
-0.00418932
0.00232143
5.82848e-05
-0.000132328
0.000114123
-0.000520219
-0.000341152
0.000607517
-0.000266367
5.86694e-05
-2.90701e-05
0.0110415
-0.0186652
-6.942e-07
2.11247e-06
-0.000155102
0.000773315
0.000764123
-0.000591569
-0.00909562
0.0289817
-0.0198862
0.00198334
-0.00176626
-5.57617e-05
0.000668822
-0.000366833
-0.000301999
-0.0043227
-0.000393106
0.00471581
2.22217e-05
-2.33885e-05
1.17035e-06
-1.37847e-05
0.00283817
0.015082
-0.0179203
0.000667571
-0.00414215
0.00347459
-0.000714638
-2.14273e-05
3.10731e-06
1.83169e-05
5.91147e-06
4.6789e-05
-5.27383e-05
0.0155462
-0.000532109
0.000568005
-3.59067e-05
0.0245647
-0.000500057
-0.000134926
-0.000312249
0.000517994
-0.00170625
0.00162932
-0.0104774
0.00389169
-0.00129879
0.000491592
-0.00132688
0.00218179
0.000955651
-0.00582739
-0.000138111
-3.00782e-06
-0.000654493
-0.00014693
0.000327671
0.00150347
-0.000374928
0.000604439
-0.000229505
5.00528e-05
-1.36437e-05
-0.0245195
0.00950916
0.0150104
-0.000436215
0.000702001
-0.000265808
0.00333974
-0.00267219
0.00250164
0.000704565
5.00797e-05
-9.25499e-05
4.24691e-05
0.0219169
0.00497495
-0.0268917
0.00432106
-0.00245318
-0.0124235
-0.02159
0.0340135
0.000818292
0.000944168
-0.00176244
0.00281317
0.00147947
-0.0003422
-0.000329355
0.00140547
-0.000122344
-0.00128311
7.40373e-05
0.000160632
-0.000772767
0.00325125
-0.0182157
0.0149645
-5.57705e-05
3.69759e-05
0.000151718
0.00103021
-0.00118193
-0.00126451
0.00208281
-0.000340443
-0.000252771
0.000593221
6.27952e-05
3.12801e-05
-9.40813e-05
0.0184063
-0.000453802
-0.000466644
0.000393125
-0.00248182
0.000745774
-0.000152627
-0.000593135
0.016238
0.0109474
0.000543314
-0.000508567
-3.47456e-05
0.00766652
-0.00249417
0.0107475
-0.00116506
-0.0120517
0.0115549
0.000496797
0.0158296
-0.0129915
0.00197424
0.02433
0.000899151
-0.00032471
-0.0105399
-0.0015118
0.00513673
0.0416747
-0.0204038
-0.0212708
-0.000436142
0.00159319
-0.00115703
-0.000409827
-0.00571849
0.00732892
-0.00161044
8.21297e-05
0.00350917
0.0132491
-0.0109595
-0.01356
6.14375e-05
-5.55354e-05
0.00384262
-0.0122697
0.00842713
0.00253509
0.000324078
0.015734
-0.00364841
3.50813e-06
7.50725e-06
-9.22292e-05
0.00649928
0.000443215
-0.00694252
0.0566091
-0.0390356
-0.0175736
8.62623e-06
6.36287e-06
-1.49882e-05
0.00272008
-0.00139554
-0.00132455
0.000223893
-0.00104753
1.02545e-05
2.27762e-06
-1.25503e-05
-0.00812819
0.00892383
-0.000795643
-0.00519133
0.00538582
-0.00019447
-0.00450942
0.0056015
-0.00109207
-0.0422871
0.000153491
6.58187e-06
0.00062224
-0.00235458
-5.14576e-05
3.75051e-05
1.39625e-05
-0.00755396
0.00304457
0.000560173
-0.00154063
0.0118304
-0.0219616
0.000125726
-0.000181092
5.53655e-05
0.0510754
0.000605911
-0.0516813
-0.000677724
0.00017767
-0.00647527
0.0073528
6.80497e-05
0.000601006
-5.77007e-05
-0.019375
0.000519999
0.00050752
-0.00102753
-0.00284489
-0.00916253
0.0120074
-5.00832e-05
8.167e-06
4.19194e-05
-9.24261e-05
0.000184024
-9.15865e-05
-0.000128274
0.0109608
0.00120688
0.00952716
2.32252e-05
9.72951e-05
-0.00012051
0.0018178
6.378e-05
-0.00188158
0.000713174
0.000649601
-7.17791e-05
3.5453e-05
-2.53857e-06
0.000956759
-0.00732289
0.00636613
0.00275432
0.00284718
0.0290494
0.00215814
-0.0312075
-0.000206025
-0.000376149
0.00107448
-0.000698336
0.000251039
0.00107269
2.33754e-05
-3.33622e-05
9.96912e-06
0.000756145
-0.000475052
-0.000720917
-0.00154983
0.00109153
-0.00162364
5.35907e-05
-0.000105044
-5.89175e-06
-0.0181611
0.0181552
5.87209e-06
0.00128127
-0.00178941
0.000508151
-0.00828796
0.0104133
-0.00744436
-0.0107465
-0.000467226
0.000182245
0.000284977
-0.00110434
-0.00044233
4.47486e-05
0.000397584
-0.0264979
0.030007
1.53656e-06
-6.67596e-06
2.69834e-05
-3.81808e-05
1.11793e-05
-0.000105173
3.31711e-05
7.19832e-05
-0.000505148
0.000687877
-0.000182761
0.000443973
1.37914e-05
-0.000457757
0.00728209
-6.09012e-05
-0.00432561
0.015036
-0.0107104
7.56091e-05
0.00206129
0.0006588
0.00268353
2.68522e-05
-2.50992e-06
-3.00582e-05
-1.70114e-05
4.70824e-05
-9.29076e-06
7.2068e-05
-8.90305e-06
-4.11796e-05
0.00101956
-0.00394437
0.00292481
-0.000157553
6.51246e-05
-0.00356154
0.00125291
0.00230863
0.00520624
-0.00829739
-0.0222101
0.0096785
0.0125315
-0.00373698
-0.000405243
0.00414213
-1.73001e-05
-7.26318e-05
8.99474e-05
-0.00432329
0.0184367
-0.000108515
-0.00052256
0.000631038
-0.00012765
0.000891779
3.04975e-05
-0.000621613
0.000432446
0.00018915
0.00898091
-0.00513828
0.0109763
0.0236595
-0.0237725
0.00729494
-8.90821e-05
0.00057349
-0.000701143
-3.23271e-05
-0.000556123
0.000588441
-0.00011419
-0.00128647
-0.00142813
-2.44327e-05
6.69632e-06
-0.00200832
0.0353827
-0.00398528
0.00793825
-0.00395295
-0.00772245
-0.00618521
0.0139075
-0.00138957
0.00118748
-0.000782764
-0.000504773
0.00546456
-0.00495979
-0.00135037
-0.00245616
0.0243731
-0.000298278
-0.000168945
0.024046
0.00291965
-0.0269656
8.67334e-05
0.00173106
1.37449e-05
-0.00363207
0.0089251
-0.00529303
1.18956e-05
1.1496e-05
0.000330535
0.00856657
-0.000139954
-0.000365215
-0.00171986
0.00151004
0.000209815
-0.00450735
0.000770358
-1.71687e-05
4.38862e-05
-3.94282e-05
0.000165145
-0.000164899
7.97734e-05
8.51253e-05
1.51756e-06
-1.08508e-06
-0.000469715
0.000876866
-0.000407152
0.0356572
0.0154735
-0.0511307
-0.00705595
0.0103104
-0.0042405
0.00480746
-0.00056694
0.000402972
-0.000610664
3.7188e-05
0.00116005
-0.0275799
0.0264199
0.0133874
-0.0639496
0.0505622
-0.000563868
-0.00113405
0.000865047
0.00984516
0.0110563
-0.0111527
0.00613663
0.00260676
-3.85622e-05
3.31504e-05
5.413e-06
-0.00474942
0.000426713
0.000911996
-0.00134813
-0.00387822
0.00386065
-0.000992799
-0.00069082
0.00168362
-4.23939e-05
-0.000141264
0.000494434
-0.000964147
0.000130385
-0.000156145
2.58193e-05
-0.011373
0.00431702
-5.20559e-06
-3.33574e-05
0.00097798
0.000227445
-0.00120543
0.000433907
-0.000602561
0.000168664
0.00086915
-0.000435237
0.0186005
0.0392563
0.000698992
-0.000640189
-6.44236e-05
9.79703e-05
-3.3576e-05
1.52711e-05
4.99322e-06
-2.02666e-05
5.19656e-05
-4.37893e-05
-2.65696e-05
7.66515e-05
-0.000114255
3.64884e-06
-0.00305464
-0.00154865
0.0046033
0.000177115
-0.000127687
-0.00605798
0.00464219
0.00141579
-0.0110444
0.0236849
0.0263845
9.72788e-05
-1.54964e-05
0.000145901
0.0310052
-0.0049829
-0.0260224
-0.00721462
0.00765785
-0.0219648
4.80171e-06
-1.78419e-06
0.0242954
-0.0154538
-0.00884164
0.00871114
0.0176734
0.000178903
9.81042e-05
-0.000691317
0.000895315
-0.000203997
0.00202698
-0.0019511
-0.00111389
-0.000558436
0.00082352
-0.00601483
-0.0028179
-0.00163422
0.0026122
0.000105629
0.0234125
-0.0235181
0.000119413
-0.000107502
-1.19084e-05
0.00143445
0.000864795
-0.00127056
-5.9859e-05
-6.62915e-06
6.65068e-05
0.000134718
-1.55747e-05
-4.42887e-05
0.00270903
-0.017503
0.014794
0.0144007
-0.0116916
0.00114533
-0.000248857
-0.000200269
4.95937e-05
-1.12848e-05
0.000615555
-0.000314873
-0.0238852
9.35251e-05
0.0237916
-9.67514e-05
0.000138827
-4.20885e-05
-2.22611e-05
1.64024e-05
-0.00691719
-0.00800552
0.0149227
4.47201e-05
4.71023e-05
-9.18179e-05
0.0691232
-0.0557357
0.000498417
0.00152857
6.01697e-05
-4.08251e-05
-0.00693149
0.0168638
-0.00993225
-4.91702e-05
3.34307e-05
1.57524e-05
-7.38379e-05
0.00355045
-0.00347661
-0.00969492
0.0262112
-0.0165162
-2.32487e-05
-5.50756e-05
-1.21395e-05
-9.28607e-06
-0.000794919
0.000784084
1.08232e-05
0.00386886
-0.0138325
0.00996369
0.0360887
-0.0201792
-0.0159095
-0.030999
0.0173428
-0.0368391
0.00936192
-0.00341197
3.12112e-05
-4.85029e-05
1.72295e-05
-0.00011091
9.36866e-05
-0.014761
-0.00248427
0.0035758
-6.80247e-05
5.77397e-05
-0.000128275
0.00012139
6.86086e-06
0.0010465
0.00160554
1.9641e-05
-4.08257e-06
-1.55668e-05
0.0157388
-0.00195653
-0.0137822
0.00786137
-0.014793
0.0177393
-0.0210703
0.00333118
0.000607162
-0.000639474
-0.038811
0.0389166
0.00347036
0.0122262
-0.0155479
0.0132637
0.0022842
-9.77693e-05
-0.000426429
0.00052419
0.00286801
-0.00326112
-1.43948e-05
1.47552e-05
-3.53034e-07
-0.0109497
-0.0120099
0.0229596
-3.4033e-05
2.61036e-05
7.93177e-06
-0.000676539
0.00057876
0.00921351
0.000559193
-0.00977272
0.00108602
3.01201e-05
8.92862e-05
-0.0112153
0.00474
-6.57341e-05
7.09446e-05
-0.00265456
-0.000610358
0.000377767
0.000232613
-0.00123785
0.000691846
-1.57723e-05
-0.000676071
3.24302e-05
-0.000237799
0.00144593
0.0130613
-0.0241058
0.000116382
-4.92007e-05
-6.71673e-05
-0.0147648
0.00376559
0.0109992
0.0015595
0.00018423
-0.00174373
1.82947e-05
-2.675e-05
9.85379e-05
2.39865e-05
-0.000122526
0.000102427
-8.52008e-05
2.71334e-06
9.59501e-07
-0.00105331
0.0151172
-0.0140638
6.88971e-05
4.19742e-05
-0.00011087
0.00921948
-0.0508288
-0.00127193
0.00155909
0.00821601
0.0208333
0.000114551
-7.50918e-05
-3.94624e-05
-0.000336656
0.00157363
-0.00123702
-0.0015022
0.00112606
-1.13962e-07
-3.15801e-06
-1.6248e-05
-6.80377e-05
8.42865e-05
-9.3767e-05
-7.11361e-05
0.00168289
-0.000969722
-0.000131726
-0.00211306
0.00224481
1.29367e-05
2.33194e-06
-0.000561012
0.00570623
0.00540303
-0.00263494
-0.000711818
-0.00565135
0.00636319
-0.0706082
0.0430163
2.40467e-05
-9.46808e-06
0.000439128
-0.00017337
-0.000265749
6.95172e-05
-6.00708e-06
0.00170041
-0.000419131
0.000438367
0.00060771
-0.00104607
-0.000527642
0.000572397
0.0227142
-3.18731e-05
1.94561e-05
-0.000542206
0.000257049
0.000561963
-0.000819013
-0.0357751
0.050515
0.00501827
0.0228389
-0.0169912
-0.00234901
0.0193402
7.50421e-05
-4.93836e-05
-2.56572e-05
0.000202783
0.000555966
-0.000758741
-8.1987e-05
-0.00601577
0.00530396
-1.38336e-05
8.27292e-05
4.58096e-05
-7.23686e-05
-0.0257469
-0.0091239
0.0348708
0.00139875
0.0126366
-0.0140353
-9.31495e-05
2.87138e-05
-0.00125172
0.00168617
-0.00043445
0.00768251
-0.0334294
0.000248815
0.000382859
-1.20066e-05
0.000601717
0.0476265
-0.000410799
5.0199e-06
-0.000133297
0.0064117
-0.00691648
-0.012447
0.0316567
-0.0192097
5.73979e-05
-5.44764e-05
-2.91959e-06
-0.0330396
0.0657319
-0.0326923
-0.000866144
0.000913075
-4.69176e-05
7.06545e-05
4.38934e-05
0.00124675
-0.00174749
0.000500728
-1.4359e-05
-3.49813e-06
1.78589e-05
0.021661
-0.00451846
4.66763e-05
-0.00047312
7.81698e-05