/*--------------------------------*- C++ -*----------------------------------*\
| =========                 |                                                 |
| \\      /  F ield         | OpenFOAM: The Open Source CFD Toolbox           |
|  \\    /   O peration     | Version:  v2012                                 |
|   \\  /    A nd           | Website:  www.openfoam.com                      |
|    \\/     M anipulation  |                                                 |
\*---------------------------------------------------------------------------*/
FoamFile
{
    version     2.0;
    format      ascii;
    class       volVectorField;
    location    "250";
    object      U_0;
}
// * * * * * * * * * * * * * * * * * * * * * * * * * * * * * * * * * * * * * //

dimensions      [0 1 -1 0 0 0 0];


internalField   nonuniform List<vector> 
18232
(
(1.0144 -0.00183175 0)
(0.979093 -0.0679501 -6.43173e-21)
(-0.779755 0.0906945 1.36793e-19)
(1.13191 0.107796 0)
(1.01898 0.00267312 3.59919e-21)
(1.10072 0.509961 -1.35678e-19)
(0.857565 0.039928 5.43932e-21)
(1.00789 -0.000146138 7.57998e-22)
(1.0295 -0.000873321 0)
(0.868246 0.0149622 0)
(1.01975 0.00251471 -1.51471e-21)
(1.04197 0.0286872 -2.47638e-21)
(1.03195 -0.137115 4.23167e-22)
(0.827276 0.0173443 -1.50141e-20)
(1.00666 0.106947 -1.27817e-21)
(1.25223 0.0122852 -4.82365e-21)
(1.13655 0.085101 -2.99437e-20)
(1.11053 -0.0670699 4.36316e-21)
(1.0033 -4.21136e-05 -6.31594e-22)
(0.887577 0.150295 7.39331e-21)
(0.648513 0.0396708 -1.14473e-20)
(0.832566 0.0320946 5.21235e-21)
(1.04042 -0.120855 -8.5713e-23)
(1.02841 0.0270487 -3.81078e-23)
(1.0146 -0.00208194 -1.11635e-21)
(1.01442 0.00290383 5.59987e-22)
(1.0219 0.0417813 -6.15323e-22)
(0.810985 -0.158955 1.19752e-20)
(1.0117 -0.00108684 -1.19386e-21)
(0.978648 -0.0644633 0)
(1.01462 0.0027027 -4.98374e-22)
(0.882304 0.137481 0)
(1.05374 -0.000984107 0)
(1.08106 0.0169854 1.34598e-20)
(1.13443 0.105992 3.32501e-20)
(1.00831 -0.000133157 8.23717e-22)
(0.727223 0.0311752 -4.51131e-20)
(0.462923 0.473633 8.29328e-21)
(0.880193 -0.0249592 -6.17135e-21)
(1.02141 0.00726441 0)
(0.995262 -0.0321857 -3.13153e-21)
(1.02996 0.0119347 -1.17859e-21)
(-0.77762 0.108095 -1.88862e-19)
(1.02781 0.0267728 2.61327e-22)
(0.999276 -0.0410939 0)
(1.07511 0.042167 1.28626e-20)
(0.886387 0.602919 -9.0427e-21)
(1.04887 0.00506119 0)
(1.00367 0.101904 8.98893e-21)
(1.1217 0.502856 4.85365e-20)
(1.13442 0.0848506 2.40595e-20)
(1.01376 0.102116 2.70927e-21)
(1.01 0.000568814 -2.96851e-21)
(1.04576 -0.00412865 -1.15945e-22)
(1.01288 0.000665784 1.25283e-21)
(1.02882 -0.000875875 0)
(1.26813 0.035032 3.6704e-21)
(0.838171 0.614167 -4.64497e-21)
(1.0519 0.0239251 9.00501e-21)
(1.01512 0.0999427 3.87839e-21)
(1.13777 0.112696 0)
(0.775477 0.404811 -2.64339e-21)
(0.854625 -0.234646 1.49442e-21)
(0.888407 0.023814 2.62489e-21)
(1.0133 -0.00378811 -1.15793e-21)
(1.01692 0.000687273 7.011e-21)
(0.889398 -0.0326332 -2.63571e-21)
(1.07473 0.0404299 -7.31229e-21)
(1.01223 0.00614504 0)
(1.0507 0.0229661 -6.34257e-21)
(1.04216 0.00274297 0)
(1.01842 -0.000630731 0)
(0.979593 -0.116088 2.2454e-21)
(1.03065 0.0124254 0)
(1.13626 0.113629 -1.0604e-20)
(1.0295 0.0118335 0)
(1.01809 0.0383572 0)
(0.875516 -0.133865 0)
(0.868393 -0.224073 0)
(1.05245 0.0119216 -1.69071e-21)
(1.12423 0.0649413 3.94636e-21)
(1.13905 0.110811 1.1839e-20)
(1.05123 0.152155 -2.02408e-20)
(0.998673 0.00363629 0)
(1.01783 -0.000438341 1.39086e-23)
(0.372279 0.0512064 -4.97476e-21)
(1.01936 0.00277623 -4.18078e-21)
(1.00256 -9.17761e-05 0)
(0.858039 0.0194673 -2.16874e-21)
(-0.46253 0.305081 -5.85597e-20)
(1.12895 0.0523894 0)
(1.0218 0.0135393 0)
(1.13379 0.109927 -6.98574e-21)
(0.790428 0.631629 -3.36763e-20)
(1.01475 -0.00482726 2.63473e-21)
(0.999061 -0.000178653 1.48378e-21)
(1.01709 0.00127985 5.47558e-21)
(1.02146 0.0128674 4.47256e-22)
(1.0172 0.00135913 -3.22153e-21)
(1.10122 0.0516525 -6.70612e-21)
(0.967061 0.500952 -6.64581e-20)
(0.749149 0.420427 7.16818e-22)
(1.01258 0.00492665 0)
(1.015 -0.00208104 -2.27821e-21)
(1.04175 0.00341921 0)
(0.817989 -0.164677 -6.47449e-21)
(1.05915 0.0320666 0)
(0.801605 0.00768562 0)
(1.09548 -0.058448 0)
(0.946773 -0.00380542 0)
(0.971205 -0.0107226 -7.88502e-21)
(1.01857 0.0357662 1.63765e-21)
(1.13233 0.108611 1.20409e-20)
(1.08869 0.329787 -2.62367e-20)
(1.01469 -0.00197118 1.63818e-21)
(1.05625 0.0567839 2.94193e-21)
(1.09874 0.0516438 -3.09582e-21)
(0.978974 -0.125056 -6.20052e-21)
(0.706559 0.0331285 -1.406e-20)
(1.01722 0.000737262 -2.56855e-23)
(1.01815 -0.000535323 -3.99873e-23)
(1.01062 -0.0306583 6.60439e-21)
(1.00446 -0.000187247 -2.8985e-21)
(1.0481 0.29794 1.61187e-21)
(1.02878 0.0115466 -9.05042e-22)
(1.009 0.000680671 0)
(1.10139 0.058497 -1.26343e-20)
(-0.528031 0.305866 0)
(1.11527 0.139008 0)
(1.04437 -0.0195012 2.4205e-21)
(1.02297 0.0193 -2.38411e-21)
(1.13377 0.105042 -2.96943e-20)
(1.0119 0.000533883 1.1149e-21)
(1.01703 0.0060748 5.89877e-23)
(1.07595 0.0382396 1.39862e-20)
(1.01134 -0.000967358 6.16073e-22)
(1.13226 0.10812 0)
(1.11758 0.0965749 4.38249e-21)
(0.848075 0.0617381 3.09802e-20)
(1.07228 0.515368 5.58095e-20)
(1.01161 -0.00107007 5.19062e-24)
(-0.575855 -0.277269 8.34691e-20)
(-0.781455 -0.00628052 2.676e-19)
(1.04362 0.139658 2.2974e-20)
(1.0117 0.00104705 -1.58232e-22)
(1.06915 0.0256914 1.49488e-22)
(1.0985 0.060299 -1.20412e-20)
(1.13215 0.198624 -3.15054e-22)
(1.02239 0.0178968 0)
(1.02039 0.00275467 3.37737e-21)
(1.14346 0.0795659 -1.01103e-21)
(1.01174 0.000421144 -2.24199e-21)
(0.982511 0.500772 6.11629e-20)
(1.10897 0.0685832 -8.33989e-21)
(0.340415 -0.616851 1.27398e-20)
(1.1226 0.0857302 4.97572e-21)
(-0.772117 -0.0266936 -1.08004e-19)
(1.12799 0.0938456 3.1093e-20)
(1.0234 0.018966 0)
(-0.542665 -0.192421 4.59647e-20)
(1.0272 0.0201629 0)
(0.812004 0.406892 0)
(0.346105 -0.589301 -1.60166e-20)
(0.372123 0.0912125 -4.82002e-21)
(0.954859 0.00628507 6.86699e-21)
(1.01769 0.0065132 5.48999e-22)
(1.07365 0.169887 1.13189e-21)
(0.50696 0.45493 -8.79023e-21)
(1.03454 0.00115273 5.04517e-21)
(1.12669 0.0840671 -5.57296e-21)
(1.03896 0.0292797 0)
(1.01135 0.336456 -3.46783e-22)
(1.11727 0.143423 -2.69435e-20)
(1.03106 0.012345 -1.18124e-21)
(1.016 -0.00188764 7.59164e-22)
(1.00913 -0.000139917 -1.12078e-21)
(1.11826 -0.0369651 2.00368e-21)
(1.0688 0.0293366 -3.31678e-22)
(1.01562 -0.00223747 1.66205e-22)
(1.0091 -0.000126375 -1.07645e-21)
(1.01257 0.000178946 1.13956e-21)
(0.704188 0.0236318 6.7287e-21)
(1.0993 0.0630134 -1.50469e-20)
(1.11849 -0.0568371 -4.38697e-22)
(1.01611 -0.00246587 8.08439e-22)
(1.01086 0.0008532 0)
(1.00629 -0.000165665 6.2142e-22)
(0.799853 0.0559052 2.59961e-21)
(0.972025 0.0436759 -4.22371e-21)
(1.13232 0.102606 1.44568e-20)
(1.07523 0.0373552 -6.32619e-21)
(0.780822 0.198708 -9.53422e-21)
(1.02418 -0.00214257 6.44077e-22)
(1.02339 -0.00200779 0)
(1.03904 0.027984 0)
(1.02528 -0.00236583 5.08261e-22)
(1.06601 0.173048 -9.38903e-23)
(1.06833 0.0251143 -4.27556e-23)
(1.09755 0.0625924 1.3816e-21)
(1.02833 0.0112806 2.50654e-21)
(1.01703 -0.00133604 8.58174e-22)
(1.01361 0.000355424 0)
(1.04783 0.0201869 0)
(1.01651 -0.00174534 1.33125e-21)
(1.06829 0.0275624 -9.07217e-21)
(1.02275 0.0197135 0)
(0.977226 0.0451366 -3.64283e-21)
(1.02959 -0.00085937 -3.2537e-23)
(1.03934 0.0422116 0)
(1.01693 -0.00251445 -8.11664e-22)
(1.0113 -0.00106243 0)
(1.01726 0.000929436 0)
(1.00994 0.00150407 1.08311e-21)
(0.992047 0.000321193 0)
(1.04681 0.0211169 -4.10415e-21)
(1.19144 0.0180517 0)
(1.01794 0.0347069 1.88202e-21)
(1.03484 0.00117569 -3.3164e-21)
(1.04213 -0.0149743 -9.54744e-21)
(1.1271 0.0686611 -4.84475e-22)
(1.11104 0.0700644 0)
(0.993902 0.00236707 0)
(1.04691 -0.083977 -1.41453e-21)
(1.01705 0.310761 0)
(1.03047 0.00760121 9.08418e-22)
(1.01331 0.000386834 -1.20888e-21)
(1.02164 0.0026893 0)
(1.01413 0.00226844 4.67191e-21)
(1.02314 0.0975951 0)
(1.13974 0.111241 -1.88963e-20)
(1.10702 -0.0605987 1.46167e-22)
(1.01121 -0.00106217 0)
(1.01618 -0.00200531 -7.74265e-22)
(1.01006 0.000136695 1.66197e-23)
(1.01795 -0.00687271 0)
(1.01539 -0.00218657 0)
(1.01964 -0.00684347 1.17731e-21)
(1.11323 0.0979866 -1.15601e-20)
(1.007 0.0385418 0)
(1.01274 0.00483691 -4.83645e-21)
(-0.582465 -0.427583 4.88797e-20)
(1.01461 -0.00246861 1.07225e-21)
(1.0145 0.00174559 0)
(1.0251 -0.00187863 0)
(0.830993 0.624968 4.23277e-20)
(1.00954 -0.000264549 -9.42468e-22)
(1.11973 0.0906375 9.51722e-21)
(1.00989 0.038673 -1.33944e-22)
(1.01013 0.000733476 4.55348e-21)
(1.01666 -0.00186918 -1.33821e-21)
(-0.571884 -0.336476 0)
(1.09942 0.0998623 2.25558e-21)
(0.481407 -0.0459538 0)
(1.12727 0.0938829 -4.02323e-20)
(1.13257 0.103132 -1.49202e-20)
(1.10249 -0.0272916 4.86383e-23)
(1.07256 0.0443285 5.08082e-21)
(1.20513 -0.00952252 -2.31223e-22)
(1.02431 -0.00216768 -2.89018e-22)
(1.01792 0.00693019 -6.63848e-22)
(1.06792 -0.0246818 1.65286e-21)
(1.01005 0.00175913 0)
(-0.84537 0.595926 -3.99764e-19)
(1.00525 0.000144411 -1.45541e-21)
(1.02496 0.0224037 1.73806e-21)
(1.116 0.102037 1.05222e-22)
(0.984613 0.000277059 3.45275e-21)
(1.01222 0.0057363 5.0016e-21)
(1.01447 -0.00218299 -1.15296e-21)
(-0.878626 0.572102 4.24837e-19)
(1.01013 -4.07398e-05 -3.40482e-22)
(1.02077 -0.00672976 0)
(1.14701 0.0773922 4.22395e-21)
(0.872285 0.111853 0)
(1.27285 0.1808 -2.07286e-20)
(1.03239 0.0126499 0)
(1.16905 0.0274829 6.98875e-23)
(1.0253 0.0226624 -4.59431e-22)
(1.01377 5.25894e-05 -3.22098e-22)
(1.2578 0.16994 1.57383e-20)
(0.882222 -0.123413 1.17391e-20)
(1.18107 0.380548 5.9809e-21)
(0.913744 -0.0226316 3.08392e-21)
(1.01749 -0.00157339 3.18444e-22)
(0.987674 0.00397066 1.7815e-21)
(1.01362 0.00280571 -7.33776e-22)
(1.00701 0.000359367 2.96702e-21)
(1.02423 0.015313 0)
(-0.370186 0.353628 0)
(1.13012 0.0383193 3.33954e-22)
(-0.297467 0.545237 0)
(1.17911 0.415891 0)
(1.01124 -0.000953121 6.13044e-22)
(1.02774 -0.00421678 2.87862e-21)
(1.01299 0.00405338 0)
(1.02936 0.000318726 3.83692e-21)
(1.01409 0.000183054 3.14329e-21)
(1.0113 -0.00113143 -1.40484e-21)
(1.01688 -0.00062578 2.66321e-21)
(0.959696 -0.13322 7.21268e-21)
(1.02689 -0.00355669 -1.87993e-21)
(1.0626 0.146706 -1.00683e-20)
(0.482557 -0.0216864 -9.69005e-22)
(1.01018 0.000286125 -2.45393e-21)
(1.01771 -0.00169165 -7.62964e-22)
(1.02106 0.006427 5.4314e-22)
(1.08231 0.0223657 1.4388e-20)
(1.0709 0.109669 0)
(1.01723 0.00114255 -3.32617e-21)
(1.0135 -0.0024273 3.97298e-21)
(1.00481 -0.000163781 4.48098e-21)
(1.12835 0.14473 0)
(0.828654 0.0170945 0)
(1.01268 0.000572796 1.25059e-21)
(1.02211 0.00349005 -1.80355e-21)
(1.27728 0.200293 9.04662e-21)
(1.02751 0.020856 0)
(1.0276 -0.00275494 2.79363e-21)
(1.00217 0.00222572 -8.46695e-21)
(1.01865 -0.0005546 -8.3152e-24)
(1.02179 0.0174357 0)
(0.732727 0.225262 1.67705e-20)
(1.1419 0.116426 2.48274e-21)
(1.01727 0.0065067 0)
(1.12582 0.138262 0)
(0.832237 0.384774 -3.8913e-21)
(1.04219 0.028062 5.41162e-21)
(1.02211 0.017878 -1.71704e-21)
(1.01739 0.00125129 3.2873e-21)
(1.0207 0.00609983 -5.58192e-22)
(1.05451 -0.00230818 3.3739e-21)
(1.12467 0.145583 8.00398e-21)
(1.30728 0.210455 -1.17727e-20)
(1.08217 0.0195848 -1.84509e-20)
(1.10234 0.10246 0)
(1.14209 0.116592 -8.79835e-21)
(1.01248 0.00451625 -9.62605e-22)
(1.03276 0.0287286 0)
(1.03473 0.00468046 -8.00124e-21)
(1.0517 -0.0058245 5.93333e-23)
(1.19317 0.219611 -8.67826e-21)
(1.13853 0.034562 -4.33307e-22)
(1.021 0.0404393 -1.5728e-21)
(1.19569 0.200601 4.10228e-20)
(1.00322 0.00379109 9.48758e-21)
(1.06858 0.112352 0)
(1.14326 0.565038 0)
(1.01323 0.00281395 1.39847e-21)
(1.06681 0.0311766 0)
(1.01619 -0.00229717 -1.50872e-21)
(1.02455 0.0139937 1.83786e-22)
(1.04272 0.130477 -1.25852e-22)
(1.02689 -0.0228684 0)
(1.01631 -0.000109933 -4.62997e-21)
(1.08777 0.0357403 9.33565e-21)
(1.01673 -0.00241516 -4.00129e-22)
(0.499372 0.386721 7.58554e-21)
(1.03378 0.000291029 8.18811e-22)
(1.01645 0.0132903 4.48703e-21)
(1.06918 0.0190909 1.50162e-20)
(1.0175 0.00105179 0)
(1.07485 0.269625 -1.47356e-21)
(1.05848 0.127823 -1.00964e-22)
(1.00574 -0.000172135 0)
(1.02149 0.0174426 0)
(1.02359 0.0138205 0)
(1.01088 -0.000178684 -3.65551e-22)
(1.07178 0.0198575 0)
(1.03895 -0.0275712 2.20555e-21)
(1.01375 0.00305815 -1.24674e-21)
(1.00975 -0.000278668 1.14694e-21)
(1.01866 0.0400501 0)
(1.10761 0.586451 0)
(1.01678 -0.000138026 -2.44654e-21)
(1.02166 -0.0055772 0)
(1.03295 0.0073643 0)
(-0.25277 0.539388 0)
(1.02038 -0.000767584 5.25296e-24)
(1.01649 0.00137661 5.81923e-21)
(0.746001 0.337579 0)
(0.766443 -0.0209751 0)
(1.02761 0.0141464 0)
(1.06828 0.0296969 -9.83701e-21)
(1.11913 0.0940543 -4.24622e-21)
(1.0162 -0.000244185 -4.79899e-24)
(1.01644 -0.000254593 -1.18946e-23)
(1.0432 0.0688616 6.71001e-22)
(1.04823 0.00564093 0)
(1.03665 0.0538198 8.69142e-22)
(1.01646 0.00146431 -3.241e-21)
(1.02702 0.000752731 0)
(1.02917 -0.0143876 5.33298e-22)
(1.01106 0.000789032 -1.87566e-21)
(1.00679 -0.000169898 1.78922e-21)
(1.01338 0.00362674 -2.04725e-21)
(1.0922 0.0416337 -1.0453e-20)
(0.934441 0.0315653 0)
(1.01335 0.00301797 -2.12883e-21)
(0.722046 0.210683 -8.58059e-21)
(1.10144 0.0577047 0)
(1.1036 0.135477 2.99537e-20)
(1.00911 -0.000606024 0)
(1.05761 0.0632807 -5.56004e-23)
(1.10084 0.0552441 -5.93919e-22)
(0.304923 0.168415 -3.59437e-21)
(1.05372 0.12631 9.62746e-23)
(1.03165 0.0516922 0)
(1.07946 0.253607 0)
(1.12945 0.106135 -8.9027e-21)
(1.02684 0.00244373 0)
(0.990833 -0.0913976 1.1442e-21)
(1.03483 0.0516326 -4.30881e-22)
(1.05493 -0.000282261 0)
(1.06824 0.0176513 -2.36028e-22)
(1.01668 0.0138011 -3.39071e-21)
(1.01852 0.00221441 0)
(1.08881 0.042312 0)
(0.283421 0.137926 0)
(1.00799 -0.000349544 -9.12317e-22)
(1.0137 0.00282728 -2.10056e-21)
(1.02823 -0.00219915 0)
(0.784559 0.221862 1.45837e-20)
(0.97762 -0.00588928 0)
(1.05484 0.0119775 0)
(1.12995 0.0485193 -2.68044e-20)
(1.03122 0.0222146 6.93185e-21)
(1.06339 0.182724 7.86189e-23)
(1.03122 0.000455172 -1.37604e-21)
(1.06584 0.0166484 -9.49602e-21)
(-0.180728 0.538598 -6.59628e-20)
(1.05131 -0.244356 6.03577e-21)
(1.0748 0.042639 -5.94201e-21)
(1.07083 0.0189573 0)
(1.01764 0.00201083 0)
(1.00904 -0.000566385 1.07201e-21)
(1.02038 -0.00157462 0)
(1.1193 0.175039 2.45191e-21)
(1.11941 0.0814713 -1.44352e-21)
(1.00777 -0.000348663 0)
(1.02013 0.103586 0)
(1.01741 0.000862339 1.70439e-21)
(1.01161 0.00103102 1.87099e-22)
(1.00526 -0.101931 -2.51303e-21)
(1.00668 0.000363616 0)
(1.03192 0.0299502 0)
(1.05917 0.0310051 0)
(0.99364 0.100162 -3.41677e-21)
(0.999852 -0.251962 0)
(1.01011 0.00149429 -1.11074e-21)
(1.08397 0.0217955 -2.17956e-20)
(0.544392 0.376917 8.68017e-21)
(1.02384 -0.00207918 4.96766e-21)
(1.0557 0.179693 -5.61792e-23)
(1.032 0.00777864 0)
(1.02669 0.0124136 -6.69423e-22)
(1.02719 0.0121356 1.59717e-21)
(1.0218 0.0175464 3.82076e-21)
(0.891605 0.112532 3.50715e-21)
(1.00229 0.0301845 2.68147e-21)
(1.03153 0.00774139 0)
(1.04086 0.0283893 2.69727e-21)
(1.0041 -0.000104916 0)
(1.02781 -0.000563322 0)
(1.04304 0.0250133 -3.3813e-21)
(1.08237 0.0670015 -9.4055e-21)
(1.02797 0.000804727 0)
(1.02109 0.00672999 0)
(1.08313 -0.00254992 1.54448e-21)
(1.01866 -0.000607777 0)
(1.01817 -0.000533726 -5.61698e-24)
(1.03312 0.648842 -2.86283e-20)
(1.08188 0.0666737 0)
(-0.434735 0.349082 4.54029e-20)
(-0.731437 -0.120834 -1.18244e-19)
(0.904244 -0.0171187 0)
(1.00899 -0.000337365 1.53364e-21)
(1.0091 -0.00034124 9.22737e-22)
(1.04513 0.00457477 -4.38317e-21)
(1.0552 -0.00211895 1.33835e-23)
(1.01342 -0.00248537 -4.23775e-21)
(1.02477 -0.000831314 -6.66618e-23)
(1.03576 0.00260189 0)
(0.864482 0.13743 0)
(1.00834 -0.000431904 -8.55927e-22)
(1.01276 0.000326537 -2.33937e-21)
(1.01219 0.000480673 0)
(1.11682 0.170547 2.41082e-21)
(0.820919 -0.156573 -5.21309e-21)
(1.11127 0.274242 2.02983e-20)
(1.05601 0.0606123 -6.30465e-21)
(1.02207 0.0429583 0)
(0.775614 0.265358 3.63803e-21)
(-0.659462 0.699806 -6.41706e-20)
(1.00887 -0.000656976 -1.70966e-21)
(1.03156 -0.0688251 -5.60395e-22)
(1.03501 0.0314791 0)
(-0.684945 -0.222203 -4.11756e-20)
(1.03228 0.0188686 7.77395e-22)
(1.02868 -0.00123271 0)
(1.0106 -0.000888081 1.47511e-21)
(0.889189 0.00894214 2.18413e-21)
(1.00783 -0.000269405 1.41016e-21)
(1.02351 -0.00201409 -7.09721e-22)
(1.02068 0.017132 1.81225e-21)
(0.857921 0.0793969 -3.69534e-20)
(1.01604 -0.00219931 1.76731e-21)
(1.00271 0.0286007 0)
(1.02494 -0.00232794 -7.18559e-22)
(0.252931 0.457465 1.56964e-20)
(1.01711 0.000797115 -3.54772e-21)
(1.0368 0.100903 0)
(1.02813 -0.000814395 0)
(1.02085 0.0082827 3.74853e-21)
(1.01336 -2.14073e-05 7.50155e-23)
(0.663579 -0.311059 3.5332e-20)
(1.0578 0.0617032 -1.83079e-21)
(1.01173 -9.86639e-05 2.02319e-23)
(1.03565 0.00233949 -3.09891e-22)
(1.04446 0.00449041 0)
(1.00964 0.00110273 1.10888e-21)
(1.01086 -0.000841857 -1.33397e-21)
(1.0078 0.000491146 -1.66327e-21)
(1.01662 -0.00117145 1.52111e-21)
(1.03166 0.0190345 7.265e-22)
(1.02716 0.0139867 0)
(1.02059 0.0130831 9.73426e-22)
(1.11842 0.109355 -1.35851e-20)
(1.02493 -0.112251 0)
(1.01937 0.00110778 0)
(0.996383 0.10611 -3.45103e-21)
(1.01945 0.0118208 0)
(-0.163296 -0.630513 1.62348e-20)
(1.03628 -0.0569442 1.15506e-21)
(1.01144 0.000457196 0)
(1.15316 0.204415 0)
(1.06175 0.0593174 4.62336e-23)
(0.872516 0.325807 1.22122e-20)
(1.01224 0.000294253 -2.20836e-21)
(1.02091 -0.0344393 1.2663e-20)
(1.03205 0.00385998 -3.21316e-21)
(1.01432 -0.00296145 3.13273e-21)
(1.02392 0.667477 2.45709e-20)
(1.01731 0.00244234 1.89417e-21)
(1.04521 0.0715539 2.66359e-21)
(0.428761 -0.00187411 1.44166e-20)
(1.03111 -0.000935032 2.98226e-23)
(1.02297 -0.00370921 0)
(1.00885 -0.00065051 1.03133e-21)
(0.058716 0.524728 6.87015e-20)
(1.01019 0.00179096 0)
(1.05512 -0.00517949 0)
(1.06917 0.0535449 5.12727e-21)
(1.15744 0.0902226 -1.56443e-20)
(1.00538 -0.000128739 -1.47033e-21)
(1.10669 0.142177 -2.35725e-20)
(0.989103 0.0571062 -1.60712e-21)
(1.02056 -0.00288702 8.90749e-22)
(1.02379 0.0147952 0)
(1.02418 0.0134739 4.7527e-24)
(1.03826 0.0756042 -1.08555e-22)
(1.09662 0.0672317 1.09333e-20)
(1.01276 0.00326282 0)
(1.0132 -6.55699e-06 0)
(1.00913 -0.0428373 0)
(0.849709 0.519101 -7.31164e-20)
(1.06665 -0.00355302 -1.19847e-20)
(0.985201 0.0577893 -5.98544e-21)
(1.04812 0.0168081 9.99668e-22)
(1.16816 0.0094514 -7.46197e-23)
(1.05583 0.000432056 2.36308e-22)
(1.01825 -0.00308471 1.34228e-21)
(1.05334 -0.0842633 -9.44565e-21)
(1.01415 -0.00287836 -4.26283e-21)
(1.0245 -0.000975435 -9.37696e-22)
(1.01759 -0.00291232 -2.45952e-21)
(1.01302 -3.38506e-05 -7.49568e-23)
(1.01542 -0.00197776 0)
(1.01916 0.000402819 -1.22289e-21)
(1.02477 -0.000859964 1.18381e-23)
(1.23423 -0.00197127 0)
(1.02336 -0.0026547 -6.95201e-21)
(1.00749 -0.000286424 0)
(1.10157 0.313617 2.81254e-20)
(0.682208 -0.273637 0)
(0.924832 -0.203276 0)
(1.0198 -0.00368144 6.13457e-22)
(1.15856 0.223303 -4.2892e-20)
(1.02163 0.0154585 4.5988e-22)
(1.07184 0.0464435 1.14684e-20)
(1.01755 -0.000482523 0)
(1.03045 -0.000933261 0)
(1.01123 -0.00100266 0)
(0.807946 0.524601 1.14285e-19)
(1.01702 0.0182843 0)
(1.01221 0.0042864 -1.99075e-21)
(0.288142 0.426255 -1.18491e-20)
(1.01634 0.00125968 2.96605e-21)
(1.13096 0.0920877 3.21218e-21)
(1.01692 0.300803 -1.48727e-20)
(1.00993 -0.000638103 0)
(1.00296 0.0629987 0)
(0.856426 -0.0322319 -3.87048e-21)
(1.2844 0.0610801 -2.79519e-21)
(1.02148 0.0175884 0)
(1.026 -0.00764739 1.39335e-21)
(1.00999 0.000592042 4.57261e-22)
(1.00733 0.000238482 2.63969e-21)
(1.01427 -0.00293639 0)
(0.909811 -0.113585 -1.38619e-20)
(1.01514 0.00138472 0)
(0.977142 -0.297781 0)
(1.02163 0.0153434 8.3257e-22)
(1.06193 0.056316 4.7203e-23)
(0.856223 -0.14449 0)
(1.00731 0.000275443 -2.86766e-21)
(0.801335 0.228479 0)
(0.90743 -0.123611 0)
(1.01751 0.00635418 -1.99015e-21)
(1.01683 0.00133674 1.75769e-21)
(1.01112 -1.87199e-05 1.13591e-23)
(1.02149 -0.00174498 4.1727e-22)
(1.00976 0.00117066 -1.13276e-21)
(1.04597 -0.00205026 6.10717e-23)
(0.839441 0.155322 0)
(1.02708 0.00311148 4.57303e-21)
(1.13675 0.259678 2.93896e-21)
(1.08207 0.0181718 -1.57664e-21)
(1.04565 0.131791 3.09422e-22)
(0.979968 0.0507923 -6.69478e-21)
(1.01854 0.0327167 -2.54153e-21)
(1.05488 -0.00399639 0)
(1.08171 0.0168431 7.14426e-21)
(1.01611 0.00122987 0)
(1.00723 -0.0799629 4.65253e-21)
(0.921813 0.0662426 3.45977e-21)
(1.06413 0.113843 -2.02126e-21)
(1.04582 -0.0174444 -4.74981e-21)
(1.01463 0.00236306 -5.43764e-22)
(1.01651 -0.00135708 2.2017e-21)
(1.02939 0.0135966 0)
(0.475187 0.145818 4.54738e-21)
(1.05456 -0.00534978 -1.93062e-22)
(1.01627 -0.00245607 -7.61079e-22)
(1.02103 0.0171043 -1.80145e-21)
(0.919314 0.0869059 0)
(1.01937 0.0160092 -5.52517e-22)
(0.748779 0.0220138 0)
(1.01678 0.0196088 0)
(1.02863 0.00877943 9.85832e-22)
(1.01604 -0.00205187 -1.56636e-21)
(1.12125 0.0837099 -9.64651e-21)
(1.01624 -0.0025461 -4.95766e-22)
(1.11714 0.106267 0)
(1.1192 0.296403 -4.16009e-20)
(1.01435 0.0076213 -2.57113e-21)
(1.0207 -0.00310078 -7.87972e-22)
(1.00737 0.00054277 -5.75141e-22)
(1.05657 -0.000145194 0)
(1.01934 0.0143963 2.46525e-21)
(1.01717 -0.000897188 -9.26039e-22)
(0.984696 0.105197 3.8829e-21)
(0.999199 0.0653686 0)
(1.03149 0.0307385 0)
(1.02106 -0.00324052 4.05553e-22)
(1.03438 0.1073 7.66051e-22)
(1.1369 0.195051 1.26982e-21)
(0.982889 0.0988448 0)
(1.06218 0.0322139 0)
(1.0183 -0.000499096 4.58492e-23)
(1.03538 -0.00325259 -2.50104e-22)
(-0.233542 0.544979 -1.07188e-20)
(1.01689 0.00143213 -1.76463e-21)
(1.01807 0.0181274 7.44666e-21)
(1.02386 0.0535585 0)
(1.02298 0.0139414 -6.21776e-23)
(1.03295 0.00154496 -3.40628e-21)
(1.12713 0.0558961 1.74413e-20)
(1.00918 0.0624125 1.91048e-21)
(1.01739 -0.00280221 0)
(1.02094 0.0173259 -1.0486e-21)
(1.0259 -0.00683517 -1.94852e-21)
(1.01398 0.002087 2.80706e-22)
(1.14453 0.0717052 1.06619e-21)
(1.01776 0.000930158 0)
(1.0259 -0.00409934 0)
(1.03838 0.0412659 1.25987e-22)
(0.0630221 -0.647893 0)
(1.0227 -0.00419245 0)
(1.06671 0.0179937 -1.47304e-21)
(1.02517 -0.00616242 0)
(1.02283 0.0166386 -3.31524e-21)
(1.011 0.00286951 -2.09437e-21)
(1.0097 -0.000202547 -9.44268e-22)
(1.05993 0.47836 4.23417e-20)
(1.03285 -0.00441414 -2.28995e-21)
(1.02854 -0.00220663 -1.92602e-21)
(1.01223 -0.000125535 5.75895e-22)
(1.03206 0.0118448 0)
(1.05479 -0.0169777 1.03753e-20)
(1.06793 0.0795036 0)
(0.894161 0.091394 -3.89651e-21)
(1.01479 0.00139892 0)
(1.03338 0.0297829 0)
(1.02659 -0.00816486 -2.11863e-21)
(1.1447 0.281043 -8.12564e-20)
(1.02899 -0.00334468 0)
(1.15766 0.0893465 1.01078e-21)
(1.0649 0.116361 -2.0762e-21)
(1.01429 0.00733551 0)
(1.05803 0.0587951 -3.49633e-21)
(1.02525 -0.00608618 -6.31985e-22)
(1.02193 -0.00519101 2.1371e-21)
(1.08416 0.0147848 -1.60189e-20)
(1.03317 0.00800572 0)
(0.324629 -0.156912 -2.06886e-20)
(1.09229 0.0330558 0)
(1.03347 -0.00355858 2.32381e-21)
(1.11923 0.0890875 -4.31968e-21)
(1.02115 0.0118099 -5.83664e-23)
(0.893284 0.186639 0)
(1.0093 0.0649252 -9.76192e-22)
(-0.0239988 0.360895 0)
(1.02376 -0.00389612 0)
(1.02736 0.013033 -3.78557e-21)
(1.06333 0.0335647 6.29112e-21)
(1.02083 0.03149 3.91658e-22)
(1.04225 0.025016 0)
(1.01806 0.0193326 2.77551e-21)
(1.18905 0.0964435 -4.03792e-21)
(1.0112 -0.00113758 0)
(1.03242 0.0476562 -8.57938e-23)
(1.02371 -0.00461145 2.86374e-21)
(1.01966 0.0167784 0)
(1.03845 0.00916193 4.88031e-21)
(1.03127 -0.0973655 0)
(1.08867 0.0381504 0)
(1.0204 0.0160797 0)
(1.01591 0.000697913 0)
(0.919698 0.0230184 -2.74794e-21)
(1.07446 0.0162087 0)
(1.2084 0.186561 3.69112e-20)
(1.0556 -0.0710803 8.70056e-21)
(1.0233 -0.00275102 0)
(1.05292 0.0294524 0)
(1.03189 0.476694 -3.70372e-20)
(0.809241 -0.139549 -3.69098e-21)
(1.03898 0.0422028 -2.55816e-21)
(1.05846 0.0288114 0)
(0.980911 0.0527076 1.07187e-20)
(0.835358 -0.158413 -1.67252e-20)
(1.04979 0.0637153 -1.80853e-22)
(1.01689 -0.000951388 -3.22963e-21)
(1.05213 0.0346614 2.00508e-21)
(1.03183 0.0127531 0)
(0.494397 -0.525109 4.27443e-20)
(0.379564 -0.165936 1.87924e-20)
(1.0314 0.0116155 7.94794e-22)
(1.14734 0.130106 0)
(1.01954 0.00714591 -6.94613e-23)
(1.06796 0.316022 4.68035e-20)
(1.00483 -0.00015234 -7.26951e-22)
(1.02084 -0.00303456 3.62413e-22)
(1.13804 0.194469 0)
(-0.487905 -0.04791 -2.42129e-20)
(1.01045 -0.000242911 -4.10286e-22)
(1.01554 0.0434607 0)
(1.20744 0.204121 -7.97974e-20)
(1.02201 0.00261096 4.64485e-21)
(1.0185 0.00177587 -1.16772e-22)
(0.989243 0.0403988 2.22899e-21)
(1.1284 0.101357 -9.0081e-21)
(1.03691 0.00804748 4.7402e-22)
(0.766775 0.36023 2.61211e-21)
(1.02022 0.0125822 -9.2226e-22)
(1.01079 0.041741 -3.5641e-21)
(1.01585 0.00593218 0)
(1.04071 0.0128073 3.37214e-21)
(1.19457 0.101074 -7.41329e-20)
(1.12889 0.0201941 -8.0428e-22)
(1.0464 0.0235722 -2.36714e-21)
(1.25949 0.0576884 -1.43312e-20)
(1.01518 0.00120227 0)
(1.05489 0.000246208 -4.41099e-21)
(1.01548 0.000833504 0)
(1.0744 0.0160256 0)
(0.796505 -0.00396823 -4.96731e-21)
(1.07169 0.0577843 0)
(1.08528 0.00518395 -3.55209e-21)
(1.01235 -0.00132339 -4.6567e-21)
(1.0141 -0.00244159 5.50865e-21)
(1.16293 0.234962 3.88904e-20)
(1.12114 0.137681 -1.70086e-21)
(1.02392 -0.00216953 -1.47612e-22)
(1.02167 0.0185908 6.02673e-21)
(1.01567 0.0187516 0)
(1.01263 0.00295034 0)
(1.01678 -0.0025422 0)
(1.04289 -0.00488274 0)
(1.03483 0.00992792 9.53136e-22)
(1.00575 -0.098817 -1.64887e-21)
(1.1306 0.10769 -7.67876e-21)
(1.02592 -0.00995268 3.63319e-21)
(1.13043 0.0529288 0)
(1.03267 0.00315425 0)
(1.1329 0.0483972 2.75779e-20)
(1.01885 0.00917328 5.95587e-21)
(1.04299 0.00904184 -4.59579e-21)
(1.06986 0.0801771 -5.46422e-21)
(1.01587 0.00573239 6.3277e-22)
(1.00823 -0.000444067 0)
(0.953887 -0.110527 -1.49494e-21)
(1.04298 0.0613122 0)
(0.0213804 0.518971 -8.02476e-20)
(0.901069 0.15201 -8.45187e-21)
(1.01513 0.00195095 6.38036e-21)
(1.03213 0.00674745 -3.09551e-21)
(1.01927 0.0170127 2.15132e-21)
(0.521751 -0.493109 -4.02697e-20)
(1.00958 -2.57425e-05 6.71224e-24)
(1.00586 -0.000143466 1.29339e-21)
(1.01372 0.0034083 7.52158e-22)
(1.05473 0.0458962 -8.33803e-22)
(1.01618 -0.00218523 -3.27184e-21)
(1.14526 0.193415 0)
(1.01322 0.000659471 6.43595e-24)
(0.9796 -0.125059 -7.6892e-22)
(1.0187 -0.000568598 -2.61866e-23)
(1.01365 0.0453407 0)
(1.01145 0.0428524 -3.56559e-21)
(1.0122 -2.44381e-05 3.18108e-23)
(1.01875 -0.00153832 0)
(1.038 0.00882864 -3.513e-21)
(1.0121 -0.00124888 3.32301e-21)
(1.04287 0.0984154 0)
(1.01393 -0.00221765 -4.95658e-21)
(1.03226 0.0826937 -3.30867e-22)
(1.12372 0.146689 -7.80928e-21)
(-0.602693 0.585263 6.07406e-20)
(1.15369 0.135923 4.6077e-20)
(1.01248 0.00262822 0)
(0.993458 -0.0904471 1.63686e-21)
(1.11407 0.0488473 -5.57744e-21)
(1.03707 0.040134 7.8703e-22)
(1.02802 3.72887e-05 0)
(1.07569 0.0345583 0)
(1.14744 0.128384 1.15079e-20)
(0.968241 -0.132432 5.65454e-22)
(0.83385 -0.151437 8.11159e-21)
(0.900488 0.00388352 1.25027e-20)
(1.01262 0.00290268 1.32016e-21)
(1.03635 0.0387819 8.1753e-22)
(1.10743 0.0444136 1.9947e-20)
(1.02009 -0.00082733 5.92641e-24)
(1.04089 0.0789864 9.93269e-22)
(1.0088 0.000673362 0)
(0.985375 -0.253774 -5.50882e-22)
(1.05444 0.011689 -4.80953e-22)
(0.311403 -0.552266 -3.28321e-21)
(1.03124 0.0506397 1.00493e-23)
(1.01977 0.0172668 0)
(1.03571 0.0513714 0)
(1.0225 0.0036283 0)
(0.874806 0.176621 -7.22748e-21)
(1.0154 0.00181547 1.91358e-21)
(1.07164 -0.116257 9.02837e-21)
(1.02165 0.0191641 -6.57158e-21)
(1.01416 -0.00289202 2.87447e-22)
(1.01014 -0.0153917 1.37086e-21)
(1.03225 0.00322506 3.21962e-21)
(1.02412 -0.0221602 5.79902e-21)
(1.05619 0.0454009 8.10424e-21)
(1.04447 3.50864e-05 -8.91611e-24)
(1.15634 0.12843 0)
(1.0102 0.000884895 0)
(1.04584 0.0232694 7.29207e-21)
(1.0233 -0.00242497 2.72816e-22)
(1.02173 0.000953536 0)
(1.02316 0.0206111 1.13135e-21)
(0.709706 0.472699 -8.72388e-23)
(1.09465 0.137247 1.09565e-20)
(1.12769 0.099484 0)
(1.02262 0.0182035 -1.12354e-22)
(1.01193 -0.00116816 7.02238e-22)
(0.913324 0.109021 6.31717e-21)
(0.511184 -0.0988119 0)
(1.07311 0.0459395 6.82257e-21)
(1.09862 0.0668441 1.68264e-21)
(0.964416 -0.00496177 9.90283e-21)
(1.03216 0.319373 1.79871e-20)
(1.05151 -0.00713357 -5.43329e-24)
(1.0269 -0.0024748 1.93245e-22)
(1.02502 0.0157587 5.20196e-21)
(1.0505 0.0617954 1.87482e-21)
(1.03549 0.00560234 9.22293e-21)
(1.02785 0.0447682 4.91406e-22)
(1.0193 -0.00342457 1.24445e-21)
(1.02332 0.0201508 1.12398e-21)
(1.03954 0.00406098 -6.51392e-21)
(1.09265 0.131095 0)
(1.02645 -0.00239337 -9.73991e-23)
(1.01976 -0.00850877 -2.95268e-21)
(1.01521 0.0137395 -2.64047e-21)
(1.01508 0.013395 0)
(0.735962 0.410904 3.3426e-22)
(1.01653 0.000433812 3.13506e-21)
(1.01036 -0.000129829 0)
(1.0107 -0.000502342 0)
(1.01261 -0.00144509 1.36027e-21)
(1.02077 0.0112806 0)
(1.01945 0.0120553 -3.01427e-22)
(1.07442 0.103805 4.89161e-21)
(1.01854 -0.00319815 -1.29517e-21)
(1.12951 0.111408 0)
(0.398766 -0.0722536 1.88529e-20)
(0.809413 0.148569 2.91217e-21)
(1.03957 0.00404356 5.7507e-21)
(0.096574 0.411606 -6.50442e-21)
(1.13095 0.182131 -2.36151e-20)
(1.08342 0.0146968 4.47703e-21)
(1.00677 0.000362276 -1.63757e-21)
(1.02164 -0.0996381 0)
(0.832975 0.156055 -1.86972e-21)
(1.0158 0.00104956 -5.70418e-21)
(1.10924 0.031529 -8.76235e-21)
(1.02359 -0.00108059 5.62806e-22)
(1.01594 0.00187035 5.96168e-21)
(1.12917 0.103346 8.66996e-21)
(1.04123 0.104264 0)
(1.01969 -0.0111401 1.35293e-21)
(0.788118 -0.049119 3.8481e-21)
(1.02069 0.0123587 6.481e-22)
(1.02116 0.00391773 -4.51208e-22)
(1.07092 0.0518683 0)
(1.01693 -0.00254266 0)
(1.01902 -0.00337806 0)
(1.01684 -0.00249915 9.47764e-22)
(0.951227 0.0708295 2.53894e-21)
(0.95664 0.0608607 1.68434e-21)
(1.12815 0.10159 1.0174e-20)
(1.03327 0.0279886 4.6835e-22)
(1.01735 0.00191896 0)
(1.01637 -0.000417912 2.76648e-21)
(1.06494 -0.0475965 -3.0644e-21)
(1.01315 0.00529113 -7.27255e-22)
(1.01763 0.00165097 3.28487e-22)
(1.06264 0.0533833 -2.85419e-21)
(1.01147 0.000918569 0)
(0.489623 -0.0619198 -6.89954e-21)
(1.02304 -0.000403204 -2.7134e-21)
(1.02062 -0.00161849 -2.3014e-22)
(0.486287 -0.463166 0)
(1.02079 -0.00170457 0)
(1.03766 0.00911666 6.07691e-21)
(-0.529908 0.538964 -1.19649e-19)
(1.02991 0.000164778 2.78265e-21)
(1.01256 -0.000105548 -5.37461e-22)
(1.03161 -0.00175059 -1.03714e-21)
(1.15429 0.138435 0)
(0.783258 0.121267 5.47207e-22)
(0.894038 0.0376847 -1.37547e-20)
(0.948967 -0.206112 -3.21e-22)
(1.0744 0.106507 3.50181e-21)
(1.01049 -0.000880436 0)
(1.01318 0.00594557 -1.36536e-21)
(0.913045 0.0436979 -2.75142e-21)