/*--------------------------------*- C++ -*----------------------------------*\
| =========                 |                                                 |
| \\      /  F ield         | OpenFOAM: The Open Source CFD Toolbox           |
|  \\    /   O peration     | Version:  v2012                                 |
|   \\  /    A nd           | Website:  www.openfoam.com                      |
|    \\/     M anipulation  |                                                 |
\*---------------------------------------------------------------------------*/
FoamFile
{
    version     2.0;
    format      ascii;
    class       volScalarField;
    location    "150";
    object      ddt0(ReThetat);
}
// * * * * * * * * * * * * * * * * * * * * * * * * * * * * * * * * * * * * * //

dimensions      [0 0 -1 0 0 0 0];


internalField   nonuniform List<scalar> 
18355
(
12.8345
-0.0154187
15.0986
0.137769
785.337
-38.2901
-3.6756
-94.4157
0.00554047
71.7619
25.2737
26.979
25.9022
164.325
-0.0470343
-0.0122926
0.339841
-5.61358
-4.96619
-4.33103
-79.4954
1.74116
0.128732
1.6459
0.255502
-2.74234
-4.40883
-0.0633667
0.0984787
-1.54021
-172.145
211.655
0.264515
0.00665937
0.0462232
4.54024
-25.7538
5.67627
23.0573
-0.360758
-0.211088
-5.10464
0.00410823
-0.037332
-0.0456694
53.7259
0.193663
-0.152249
-60.5804
1.22867
0.02464
16.2198
0.671219
-35.8253
0.289809
-6.74423
0.0584775
33.0092
1.5045
-241.018
0.0119131
2.15057
-43.1752
-6.33104
6.49561
0.0881206
3.85798
-20.7346
0.0111778
89.422
3.23314
0.0615014
104.116
-19.3013
-61.7438
-0.000430294
18.7615
-0.0210755
1.79015
-87.7376
3.4263
-174.147
0.0156242
13.8426
-26.0446
0.0928921
-0.26863
-23.1593
-0.030997
-21.3618
81.4467
-270.913
-173.107
2.2216
-92.0147
-19.1386
0.18909
-8.37202
-13.9854
3.51872
-25.4164
2.16392
2.38241
-0.0715307
6.60941
0.00123543
25.8173
-140.61
-26.1279
0.0193679
0.0661717
0.0467444
55.6312
17.5416
-146.603
75.3078
1.74526
-70.4464
10.7379
2.73288
195.113
19.7115
49.0863
-28.6428
-95.1635
35.9001
-2.14551
0.0952301
11.2858
1.04074
0.12974
15.1814
0.638119
-3.51346
-68.1538
-0.338354
6.64347
2.8253
-0.417548
-321.914
-13.8427
132.599
0.562613
54.3261
-69.2154
-0.42499
-400.62
-0.0523836
30.179
-22.9156
-0.10488
4.00679
-13.4665
5.137
0.00168875
0.0163355
-0.350757
0.0171735
0.487738
0.0629635
-9.25043
0.370331
0.0111094
28.4262
-18.4272
13.4157
-1460
-1.03336
-113.78
-19.6846
-0.0906372
-4.10467
0.0380895
140.987
-0.035619
-0.138699
0.00354482
-0.0613803
-3.83844
3.47823
0.22486
148.095
1.71033
0.125622
-7.95754
2.24826
0.0430368
-20.3418
-0.586868
-1.98638
86.8758
-42.4537
-0.0459473
-0.165398
-0.0417705
187.945
0.0252391
-0.698842
-0.0157178
103.963
1.65933
-31.0222
29.0718
0.0757801
0.680636
0.373092
-191.958
0.417035
0.435054
21.7996
-1.11145
23.5921
-6.35417
-3.75295
0.00283439
307.332
8.20256
-13.5192
1.18969
0.303937
-76.0268
-0.0254081
-19.6887
312.654
39.1773
-12.5679
-0.057552
8.45255
-134.817
56.453
-8.93254
6.43025
-9.27585
-0.0376225
13.6779
105.388
-4.57731
140.675
-8.44002
-7.26759
-0.0147012
-5.75406
-7.06325
32.3689
-0.306685
-0.712633
-0.400475
43.5423
34.3978
3.97892
5.3278
9.05332
8.34959
263.406
-0.048563
31.9811
-2.1693
-0.354115
-1.0622
0.125386
-27.4892
18.5791
-36.4727
-2.43047
14.912
-5.99634
151.594
-51.5376
0.194986
-0.192423
10.6572
0.0147728
-47.1393
-26.8058
-0.249785
2.04948
-26.6039
-0.220925
-50.8497
12.9389
-48.9644
1.05386
76.5851
0.000470191
-25.3572
0.238092
8.30943
-0.152622
10.4252
26.5777
0.249131
-19.4456
6.31095
-22.1034
195.455
0.031528
-0.121326
-47.7242
4.78239
177.307
-23.376
-147.183
-135.638
-45.2837
-26.637
-29.9582
0.295579
-14.552
2.537
-15.8486
-92.7594
16.5868
0.672868
14.785
-61.1623
78.69
0.824831
0.119532
0.0636982
22.8881
6.16387
34.9848
-36.9974
-53.5366
-12.9272
36.9995
-0.0383449
0.44281
-9.13275
-0.103864
36.6708
-0.261533
442.099
-0.000117771
-110.595
-0.371242
0.797162
-27.1233
12.9076
-1.62381
19.6825
-127.392
12.6805
-0.177934
-0.0875908
-7.85644
80.4329
-0.186678
0.353062
-49.5552
2.74562
-0.326873
18.1759
-10.6937
-0.252308
-14.9749
9.99925
-0.292856
11.9697
0.330412
0.411751
4.31625
293.309
-52.0041
0.37207
-0.126832
-40.7291
0.0706783
-0.0854475
8.85886
-64.8193
-16.9237
0.494216
-1.3103
5.25401
7.51821
-0.174003
-16.7081
0.115043
-37.485
183.246
2.02859
1.10067
-18.0408
0.440596
-11.7306
0.0427798
52.5769
-7.109
1.3183
0.0193141
0.111666
-43.7657
-3.25484
-0.502659
88.2198
-56.7134
-55.4211
-1.22402
27.1412
-0.751265
0.246627
-15.3242
-0.411285
-12.4581
-9.07592
-23.0272
17.107
-67.6616
-2.12552
-75.6483
-0.0603545
232.003
2.43651
-0.0868392
-72.6305
-0.863059
-1.42903
-15.4012
24.7058
-0.274346
-6.2919
-3.15891
-17.7808
-0.827213
0.098822
-22.283
11.2167
-6.9453
157.525
28.682
-0.0454775
-18.5191
-3.05182
0.0787062
1.36237
18.2507
-24.0194
-100.674
5.68362
0.172929
-3.88217
-0.06594
0.305356
-9.59462
-35.6202
101.708
0.12248
0.139322
-0.400656
20.3071
137.628
-0.0765675
8.23013
-25.332
-0.170407
132.603
7.48124
2.18752
-0.0109908
-79.3807
24.1121
-367.838
0.188817
-3.12694
1.05151
0.189836
-45.9743
11.4351
44.5987
109.554
1.40338
-11.2142
1.49224
32.0826
11.4422
3.48164
5.46148
0.184816
-2.80856
0.226672
10.6426
163.186
58.8089
-7.5589
-0.650143
1.82834
6.15179
-15.5031
10.5712
-0.190546
-0.0138041
-28.369
-0.0125103
5.12656
-20.3384
-0.738239
-63.6413
1.04361
0.109871
11.752
2.5011
-24.9669
22.3237
38.759
32.5883
-116.737
-1.58673
-12.9017
-33.4495
-12.4993
3.35985
30.352
-0.174662
-1.71823
133.272
-1.12847
1.98391
-28.011
-0.283528
-12.6295
162.142
-13.3246
12.3599
-1.96245
-0.175613
-5.61717
-933.342
-12.3303
17.3597
-22.5656
-0.582291
10.3622
-0.704665
6.55947
-146.528
275.162
148.915
38.3663
36.6353
198.386
61.339
0.23799
-0.382651
52.3757
-9.81624
0.457149
-0.43578
-73.4139
0.234217
29.3726
12.3857
1.51126
8.21122
0.24178
22.3905
5.00113
-0.0184631
337.763
0.55603
749.901
-10.7495
-0.565002
71.0403
-33.5845
-74.1921
0.0201561
-0.0481709
-3.46875
2.06442
-1.65549
-0.372011
5.40693
0.134376
15.8503
0.83638
2.87695
-0.00349199
-13.399
45.9857
-0.0366117
37.2506
-2.15146
327.617
41.2413
-18.8455
174.153
0.0323266
64.2078
3.41413
-11.1099
-15.6803
0.0173395
-50.9974
2.42439
-0.0760726
-10.2223
-29.1011
3.50632
-56.9914
-0.0722642
7.58981
-12.8527
-0.0756625
-0.243009
2.56426
-20.203
-13.6987
41.2536
0.213212
-0.163264
3.93821
-23.9461
10.0008
-8.21612
-124.748
11.486
1.83797
566.841
563.565
23.3516
19.6614
0.476257
45.0923
-7.575
-0.0970835
-14.4085
-7.32804
270.149
209.602
-4.74272
4.54131
-0.00239312
-168.748
19.5028
-0.781734
-0.0638577
-137.377
1.49479
-8.52205
6.77788
-3.93563
107.376
-1.23239
-28.8906
0.442018
-19.8654
70.5461
28.5435
0.202561
53.1324
186.186
-1.72659
28.1987
-1.03538
-672.488
-0.266764
1.85426
372.223
-0.0580405
58.4819
-60.2116
-49.409
-2.77939
-0.311553
-10.2673
43.7655
0.0365798
19.6757
37.4165
-27.2585
-2.00408
0.152462
-28.1348
-2.25868
-1.18325
-3.0691
-82.09
0.16713
-7.74775
0.127949
17.5853
-0.306663
-16.3897
15.5453
13.8579
-116.6
-4.59021
-0.441991
-17.3704
-0.0685579
-0.00610747
-0.466926
-0.0573869
58.1577
-18.6779
-1.34758
-0.0795247
269.785
0.61046
-6.00322
9.85258
4.20728
0.227403
37.7102
4.70745
7.85879
0.343504
0.0360563
-0.0850145
-0.663296
-0.137083
49.2268
-5.59777
-13.0832
-3.53105
8.96829
-4.37986
-31.4396
12.192
-0.0324815
10.0906
-28.8658
-0.0752618
145.595
75.3721
-0.113042
10.2239
0.0754499
-69.2486
-8.7839
-0.131197
-7.05606
59.154
-0.474635
-0.109297
-13.1062
7.05066
-37.1314
16.3589
-0.221367
76.0834
13.538
23.63
0.18939
-6.24475
-2.4637
2.57604
0.528449
0.0690852
-0.0449506
8.10823
1.23044
0.495052
0.0219948
0.219137
6.50368
-29.0201
11.5912
0.420647
50.1216
-0.591494
-0.941655
-22.4616
0.44357
-9.69274
0.036456
0.0297199
-0.0645544
0.777658
-9.80779
-1.84762
-85.4067
-127.175
-20.3062
0.305545
13.7842
0.0315507
0.0299965
-4.87112
28.8759
-18.0062
-8.54507
-0.231122
-0.0334649
-21.5683
0.0163531
-44.918
0.341524
2.53821
-0.0600712
-9.76643
81.2232
0.312016
1.9476
-0.0535692
-0.885816
-4.57713
-12.3851
10.2071
29.9801
9.28704
-8.5636
-50.3012
0.0349079
-14.702
1.79085
34.8024
1.29264
0.282877
-4.03926
-53.7891
-0.980613
-2.13222
218.139
19.2981
118.217
-0.02708
0.0815259
-0.0254472
-0.533909
-0.755155
-3.10623
225.283
-54.3105
0.442227
-0.0160174
0.71518
-0.0944314
1.88189
-1.36009
-7.86952
-9.06575
26.021
-0.566855
-0.836643
50.3351
-0.231843
21.4544
-57.5955
-22.2907
4.69827
179.725
11.5459
-0.270642
0.0103775
-0.88462
-0.620194
136.312
-21.778
10.6159
-0.0458084
2.21319
-13.3421
2.07137
-63.0828
-57.1848
0.00247952
1.32699
-0.175592
-0.277916
-0.0386643
-11.643
98.6782
-0.192113
3.68433
-0.0888984
-0.125745
0.264287
1.02708
-62.1245
-0.0212906
-12.995
-0.123534
-73.5341
1.09477
-18.9043
-414.652
-7.35136
-5.73567
-6.88137
54.6117
-0.362967
-0.0856048
0.0832626
-9.29786
0.0205567
-6.22197
20.5635
2.235
20.6027
1.51251
23.5756
15.9388
-0.130515
-0.0725926
-9.53149
-154.178
-0.604866
-142.613
-0.070837
0.00573027
-19.2665
-133.172
15.4448
5.69909
26.8927
-0.0804353
30.4696
237.014
-11.6102
-0.89377
112.078
39.6164
-14.4211
-61.2265
0.0704131
-0.0733386
-3.09958
0.0941432
-0.157267
-376.872
224.833
-0.010313
0.030146
7.3914
-16.9148
-0.43896
-1.18989
5.6267
16.757
-0.685277
-57.854
-2.22464
4.80588
-0.60477
-1.06764e-05
0.00266626
-12.261
-3.78514
10.701
-0.200676
-0.117604
-32.3895
52.9332
-0.1301
1.03806
-174.579
-0.479939
0.0790789
-0.403519
-13.8094
-0.0109268
-0.514684
-0.0471633
8.29569
-0.035647
-28.3932
23.2278
-1.56772
-22.0118
-34.3568
-7.45442
-11.1084
-0.166078
-12.0843
-0.110325
0.0323539
-0.253319
4.7923
17.7677
66.5958
-25.8374
22.3995
-0.49699
-3.07607
-8.07393
-49.3881
-7.77745
0.158658
493.314
-3.74135
0.0250826
0.234661
44.0529
8.78302
0.680885
-0.17149
4.40433
-16.1194
-13.6428
-26.5406
35.7761
-3.29966
-6.70185
-75.2133
-3.11625
-4.53062
1.13811
97.9793
37.1775
-0.861627
0.0615354
-5.86343
21.6549
-32.2383
-0.0886664
21.1596
-28.264
20.582
30.8217
-21.4305
-0.0102461
6.10276
-3.0146
2.44603
0.200751
0.97356
2.78462
-0.169392
3.12886
23.5417
-0.085286
17.292
-16.2244
-2.09095
-0.0989798
2.03457
-0.817165
-0.201124
-52.8855
-148.811
22.2462
13.799
-0.265029
36.8697
-0.107354
-68.8266
-0.42869
3.34465
-19.7134
18.7057
4.5383
-5.08859
73.6205
31.1813
-48.4851
0.380009
-0.121717
4.99962
-20.2137
-0.0788736
-32.7567
-23.0309
2.32737
0.0213319
-0.107904
-4.00255
-2.12366
0.497856
39.6366
111.846
45.4495
2.42679
215.35
0.283748
118.706
2.26879
9.18591
245.21
16.3423
-0.0452187
-1.02231
1.28778
-66.3351
-0.0653995
0.30228
9.43156
3.78598
-0.00155445
-0.289774
-3.93656
-0.225868
137.629
25.6148
0.415971
-0.0240276
0.491643
-115.884
4.20701
-136.696
-2.09646
0.106572
-5.42961
4.61396
67.2669
-15.249
-0.57193
-0.26061
2.5111
-0.618614
11.1803
-38.5967
-74.9949
-0.0497108
6.26981
-32.0574
88.0866
3.96034
17.7262
13.5367
-24.345
0.169877
-18.059
-7.11442
4.38821
30.6723
-0.526409
14.012
-0.851613
35.2085
-0.422282
-3.50967
11.276
36.3966
-221.158
-0.926718
3.20888
1.46336
-0.198635
0.848152
-3.93893
-0.411873
12.0464
-1.23224
4.07653
-57.1687
-45.2419
56.5039
1.78341
-14.9912
-0.580216
10.1639
-2.85338
21.6653
-0.0335092
-2.22315
0.720148
-26.6537
-3.59367
1.14386
1.7976
0.824414
9.76273
6.49739
-5.74748
50.4293
-9.2624
0.17409
-1.10763
0.586045
7.59179
-4.24646
2.6054
-0.00462003
-0.111391
1.31487
-1.49285
0.198017
-25.0003
-0.0296878
-1.26944
45.1038
40.7388
242.821
7.72725
-38.2639
-0.12023
-22.6699
-23.7843
0.210848
-0.0404528
-9.06727
0.134874
-13.1638
-30.3778
-9.50825
-0.131581
332.198
51.7996
-2.64736
-71.7316
15.8971
112.407
0.985346
12.6499
-19.6514
0.063383
-14.551
-0.165077
-0.467519
2.10271
-0.521649
17.8591
49.264
6.43133
1.35077
-0.956474
-0.273046
29.7065
0.0474488
-0.711799
62.2998
-3.02548
-13.4852
-4.20112
-4.66956
0.193255
0.002819
12.4598
71.2269
-2.38628
-0.567204
-1.49329
-9.68473
0.0788512
-0.636631
-225.601
0.00195905
-9.9462
0.250399
9.09436
-20.7678
-0.0938384
-7.1594
11.8832
-1.10174
-0.691637
40.1117
-13.8392
17.5709
0.131894
0.372985
-11.0286
202.969
4.65811
0.546998
-0.242089
0.192052
-0.217012
1.37975
31.6528
5.38215
-19.0716
1.9388
486.589
-0.357372
5.151
-33.1236
-18.5148
0.0301802
-59.0804
-1.83131
0.398687
31.4878
1.05573
-31.1283
0.0616871
19.5825
-5.20165
0.108513
-0.0413895
-360.434
136.468
-0.237353
-82.0442
-0.0308784
-1.70906
0.0853736
23.6191
-0.112586
-0.0472393
25.2704
9.63596
-0.382946
0.774059
0.77979
-7.94972
1.13015
-0.163664
-7.10269
-1.09716
23.3129
-1.33154
-0.94629
109.088
-21.901
0.032793
-0.305906
-0.13073
-0.481166
-10.2558
-9.21532
-221.346
-12.2727
-0.136861
7.90478
29.8329
-0.427171
0.833575
6.32117
-11.142
-18.464
0.00286501
-14.5976
-2.54414
2.64303
-0.0219584
-9.11282
-0.0561235
-12.5213
-0.99772
-5.85179
0.261866
26.3511
0.47338
-14.861
-23.2192
0.850988
-8.09311
11.6036
-4.80399
-7.35601
-7.88432
0.175557
61.3918
1.52107
-50.7486
29.0433
15.5011
8.59977
-2.09184
-12.3252
-0.321035
-12.3098
-0.0583795
22.6216
-20.8611
-0.0469175
0.755661
79.4283
34.9525
0.381937
-0.582974
152.273
0.258883
-0.0187702
-123.801
29.4831
0.0479008
-140.528
0.0233599
11.2763
-8.06334
-0.521069
-0.189062
-1.98086
-1054.82
0.251081
-23.5482
0.0995163
0.240159
0.174593
118.474
-0.43473
-11.9105
0.293737
-391.02
-26.0339
0.0295205
-0.0257928
13.9627
0.597876
-0.0449179
531.184
296.333
-3.61156
131.756
5.15187
-15.0673
1.18402
-3.69963
-7.80671
-26.3705
20.0788
0.0525501
-9.30553
0.798973
15.8891
54.5769
0.521578
17.3243
0.0155307
-2.99198
120.575
0.10942
9.15647
-3.69022
-21.6885
-0.131047
0.827823
-13.5122
-4.60264
-0.238114
-2.13403
0.0129521
-0.14675
-7.79818
34.6142
-1.48095
0.171102
1.43122
-6.74869
0.00934357
189.374
0.546987
5.70472
-0.208699
14.1307
0.0069158
0.116585
-38.1845
-1.33718
16.0305
-0.369014
0.086368
126.096
-14.6917
-84.4496
15.1749
-2.74276
4.17113
-54.8787
-0.170264
-4.19867
-0.164808
-179.021
-0.0675399
-17.7313
-0.0951669
31.1388
92.9378
4.48758
31.8473
28.4464
41.9735
0.946196
6.27182
81.8372
-15.8687
0.127348
0.0185831
-11.0299
-12.7225
2.08237
0.151075
-0.115965
-0.0873279
13.8613
-36.2355
0.292508
-30.2694
-5.32195
13.9006
-7.20198
-39.3914
-13.216
-16.4921
0.223984
23.6718
-688.76
0.119217
0.0127569
0.763714
-456.45
8.57838
-19.4055
3.34553
8.00321
-1.6369
-0.575335
54.5621
-22.6707
20.1707
-6.0249
6.38204
-0.0158489
0.204805
-2.13
0.865583
0.470642
0.207749
30.9452
0.167713
-164.814
-17.6281
-0.221997
-0.180586
-11.5836
-0.415383
-2.18513
-39.3371
-0.288989
-223.074
-5.09311
0.067544
0.0791497
29.6938
15.8239
0.0452481
0.147147
0.303043
20.5469
4.28345
137.334
23.1722
0.12597
8.01458
38.7095
3.00266
-0.742758
14.8472
-16.1778
-44.5559
2.46298
-0.525694
-3.27983
-218.99
-12.7526
-262.653
14.0826
0.0844024
-1.74931
0.109403
-0.47819
-10.4038
1.94549
-0.427249
0.151971
-8.43825
24.6211
-6.09181
-20.9239
-6.18776
10.0394
-0.169345
0.945725
-15.9883
46.3212
-0.216215
-0.654295
7.19043
-14.0774
-27.6175
3.22317
63.434
0.0608043
-10.6654
-1.70905
-0.113152
0.0890275
23.2103
-1310.93
5.72925
-35.0306
30.3938
-63.5124
0.212426
3.91295
7.43918
-0.0242195
-4.8875
1.29255
-0.481261
-5.29054
-1.67773
-9.4529
52.0208
-44.2597
-58.4761
-0.500248
-0.0283715
-3.73036
0.361831
-4.4427
16.6695
0.125253
-0.506694
-0.226644
1.39204
-1.82719
-1.12501
0.0717933
12.6853
0.137877
-28.0381
-0.156436
74.591
27.3329
0.604496
-0.396697
-12.2932
12.0494
298.814
-0.165067
-32.5693
-0.346086
-0.062578
10.1125
18.3002
0.0218297
-0.132508
-7.25065
-0.0429176
0.0991942
-3.66817
-2.02071
-10.0085
-4.76264
-2.92895
-21.2159
339.432
9.32785
-0.530518
-0.0240608
17.7574
-35.5745
-0.135748
-17.7923
1.50126
-54.3249
-14.6653
3.30213
-0.398184
-0.38171
10.2243
17.5786
8.76304
0.646615
-21.9648
15.7627
-3.52258
-23.0847
-1.68601
0.297548
1.362
0.155943
-4.44932
0.119078
0.203044
-3.31837
0.370925
-126.655
6.92861
-3.62637
-0.0167809
55.6443
31.8612
-11.44
-284.65
-52.2938
-1.98635
-0.346389
14.2752
0.0613198
-18.8288
-2.59753
26.6155
13.509
36.5276
-20.5628
15.6153
-17.2127
-0.185365
0.592043
-2.70674
-0.0477384
-2.9436
-9.1473
0.0111369
57.5874
150.782
-9.0895
-0.159863
-49.9353
-0.00153042
0.00552062
-1.895
7.31109
1.95075
39.7222
0.0160657
-0.297483
198.783
0.138223
-16.9665
0.370021
-8.70121
-74.2436
60.2591
42.7671
-22.0082
-179.545
-10.7683
0.0544952
-0.394756
-3.00307
0.212847
-0.247915
-6.10119
-0.501337
-89.7047
-0.105134
452.044
16.7137
-93.5878
47.6536
-58.2476
-8.68233
0.239965
58.3847
0.117672
10.7583
6.06603
-1.98064
24.0577
30.3291
4.22775
7.72777
-0.618274
-3.89505
-0.075556
-113.955
0.0432362
0.731376
12.8446
-12.7044
0.1952
3.47514
-0.927607
-2.61642
60.4977
-19.0567
22.5817
-0.061055
71.1114
0.53936
-4.52511
-2.75208
0.082593
-22.1626
-8.71863
-0.0191018
-2.8522
-2.06308
31.0588
-32.952
-0.13166
328.779
-46.0184
-0.160794
-0.614211
12.6521
-0.0975713
26.4
-12.2609
-1.11172
-36.4615
0.00606071
0.0152464
9.88951
2.14302
-0.887546
-5.48391
7.13092
-0.129564
-5.69398
72.5828
72.9337
-16.7901
-11.8854
-45.5009
0.0684901
30.9669
-10.3462
-0.382658
254.011
0.125031
-42.0179
-106.871
4.2355
113.279
-263.08
-0.918793
-51.5448
198.407
36.2577
-0.0717641
-8.24898
11.9488
-36.0429
39.3998
-1.17783
-14.9834
5.31643
-0.129439
-6.04037
-31.8062
4.28058
-14.5331
-22.3918
-0.764887
22.5765
31.0019
-0.263548
0.0658707
-0.39197
31.4026
-117.971
4.18707
-28.1754
142.184
-0.955979
-0.457178
21.4554
-1.2206
36.4778
-0.573447
17.1865
-62.9335
44.7775
22.8063
0.0477406
-65.731
-70.1795
56.3555
-0.0773607
-0.00612731
26.1346
-1835.19
-0.362373
0.297854
2.9434
-144.287
-8.18867
-0.107596
273.045
-3.97849
-14.0747
-0.010811
-21.4332
-0.0812474
-43.7495
52.231
-0.200033
-5.71538
-2.60823
-21.9646
-65.3802
-9.40747
-54.0978
-0.043886
8.93272
1.53098
-9.56237
6.66423
-1.21202
0.818551
27.474
190.152
1.21469
191.888
0.316404
37.7605
0.0200964
-3.14369
12.031
-14.8459
28.2232
-5.50053
-4.58854
-47.4505
316.145
0.242533
172.952
108.686
-0.0274578
-0.199663
1.61211
160.74
0.184058
-0.0544451
-17.2561
-1.39955
-1.67933
-122.791
-0.049842
0.132559
0.425823
83.7658
6.89056
24.087
0.224051
34.9858
-5.66792
-40.6901
42.4127
-0.253946
0.0848934
-1.96597
28.7554
-0.0436619
-1.70694
-1.61013
-12.6102
-5.49035
-5.15814
33.6007
5.77804
0.106265
-10.7469
10.2537
27.7301
-0.0620307
-1.2783
8.34524
13.9627
1.24334
24.1998
15.7362
8.19436
302.023
-2.83158
56.3496
-3.03339
-83.7016
1.71091
1.20209
2.1303
-7.07022
-0.285548
-0.0471037
-0.0477174
13.1357
-177.022
-0.519987
-0.0516245
9.33766
9.87101
-38.8803
0.010937
-0.304595
-0.00756814
38.8912
11.8302
0.789432
1.17593
15.8103
-0.176131
10.0026
-30.5107
-8.35537
-22.8152
7.29458
-0.41711
299.048
-52.7863
-20.7509
-4.0559
-43.9723
0.164887
26.3865
0.641885
6.4174
32.443
42.5624
0.154274
-9.31674
1.47476
0.433186
0.335974
248.95
-0.277644
-4.83532
-11.7181
-3.99067
0.0801248
-26.5534
-3.86677
-0.366549
-0.158528
59.9504
-0.395052
-3.63322
-0.278073
0.148463
-1151.69
5.86642
15.0485
0.148509
-4.11248
-3.29475
-21.7674
19.8791
-24.3672
33.4631
1.16109
33.3152
-3.89895
0.138436
0.00530976
-0.0752096
-0.0528711
2.38236
0.0749178
-2.76922
-17.2719
0.129635
-0.188896
0.375934
0.377214
13.1275
0.0707116
70.547
22.6737
-283.22
-15.2006
92.5937
-10.21
0.0019849
9.14837
-0.123549
25.5026
1.22107
0.21833
28.5091
0.027657
-0.149785
-25.1592
-71.4035
0.953302
0.070368
52.6352
-1.22424
-191.86
-0.469043
0.261979
-0.0994075
-7.21703
8.25453
9.73599
-24.8862
-16.4755
0.212392
-0.892676
-11.9513
109.326
-0.28881
9.61332
0.143779
73.9239
13.6017
-3.71619
15.0031
-0.705691
11.4259
-7.29615
-12.9336
-17.7619
-35.1041
-18.0481
23.2134
-0.929141
18.8815
-1.09464
391.747
28.5317
-4.55848
2.30653
80.0394
-9.75817
51.7454
3.01064
-11.1206
-1.82027
6.55569
-0.0221415
15.0138
0.111309
32.7783
0.440769
0.33585
0.0541084
266.73
-1.40442
-2.05782
-1.94751
21.8971
-820.434
5.01659
162.141
-0.0355651
0.458235
-10.4718
0.325122
-0.077743
32.0942
-3.3947
-0.500173
-0.257192
-24.4308
-0.354487
-0.0860708
532.122
1.11515
0.310419
0.00193388
-0.363453
-13.5716
-2.38699
169.733
-93.6766
2.15093
-0.296806
95.4155
25.5702
2.38427
2.10343
26.8837
15.8941
-0.469169
-0.863153
-0.0428423
-0.359433
-19.5442
34.2019
-0.230869
-1.14382
-5.1553
-19.1155
101.954
242.599
-19.1682
133.114
-0.531685
4.88755
-11.5896
-0.2724
17.879
151.758
-18.7179
348.187
-503.054
-0.219738
0.186148
-2.13769
-25.1092
41.3144
-0.00754283
-5.44172
-22.0579
115.434
-1.0661
-9.72486
37.1335
-0.842617
17.9773
-9.8509
0.450103
-0.204017
1.32304
-86.0589
0.590144
0.233608
0.381568
209.966
40.6137
-11.8944
-1.06304
0.0209082
-144.004
-7.58987
-45.1559
-5.10279
11.3056
-1.72852
-0.291328
-0.263431
-55.6649
36.2937
38.2063
0.130344
0.207764
0.15617
-0.122495
-0.0653917
-3.57176
-15.9188
-0.124325
-0.127445
0.306894
-65.1452
-14.9479
55.1478
32.9475
-19.2439
-5.18553
48.6926
-48.9263
-27.0492
-9.43781
-16.2471
62.2863
-0.149278
471.599
-11.2194
0.0273466
0.535856
-21.1713
2.98011
-8.28802
0.967774
0.0329325
114.291
-0.50555
-0.348921
-0.415332
2.67134
-26.5985
-8.28728
0.557128
-8.27295
-99.1647
8.89723
22.7751
-0.0662639
5.08921
-0.351502
-0.864839
-1.38333
-0.310652
-0.199863
21.2245
-21.4347
7.56265
2.06953
3.70307
31.196
-4.15301
6.30805
-6.79037
-5.23684
-41.5699
0.0110196
-2.52055
60.4695
-33.9739
0.00182638
-0.00087028
-0.159918
-0.0126902
13.6676
0.00190551
-42.3865
-30.3918
-1.74928e-05
-62.5673
-1.31645
15.1099
0.0671369
175.472
-3.02186
-16.6162
-0.165469
-0.707391
17.4396
-0.5395
9.19256
-216.496
-0.0632418
3.13355
-1.28751
-0.00172908
263.617
-24.8817
1.59762
-4.82896
-0.0605212
-17.9627
0.0955924
-0.0103662
-0.89467
-8.90706
-1.82781
-0.105569
-0.102429
0.647695
-7.96715
0.876597
-50.2441
0.064374
0.272235
-0.0413983
-57.4735
3.95258
-0.025861
0.139971
-0.0234355
-28.1812
-438.114
-5.32095
0.826128
-7.80473
0.080068
-22.6815
0.0976616
-0.378956
553.939
171.123
22.7323
-2.24701
11.3833
-6.08674
-0.0286287
-37.505
0.0261109
-47.5503
-1.19732
-11.4295
-18.9005
-279.725
-8.82426
-104.974
-4.90759
39.6015
-12.0162
10.0676
-36.0133
18.3724
-4.35275
12.1927
36.6944
12.847
0.00223502
-0.275301
15.0581
580.534
1.13483
34.3342
23.0643
-0.0530592
-0.725334
-22.997
786.103
18.9189
-9.07597
-2.75119
0.0572642
-41.3318
-7.01153
-8.14915
115.731
-0.119401
-8.53476
28.2381
-3.19193
7.1393
-1.92845
45.3977
-5.02961
-27.8775
-0.00258814
-0.169375
-0.632755
40.1501
-4.8217
100.463
-5.34028
-1.70759
-0.732968
31.1591
0.0584076
19.1595
-11.5984
-374.3
-0.175874
-8.28411
68.6458
130.257
-4.18278
18.7125
-0.607945
-92.6362
0.0106491
-97.5213
4.27404
5.17133
-11.7486
45.2748
-103.847
14.8277
-0.517613
-42.7765
21.041
0.0167386
-0.29794
31.7514
-2.16243
63.9855
-0.0672354
0.0453714
0.508884
0.761152
170.117
-0.19795
-0.0319436
9.97009
-27.8916
-10.9757
-4.85039
12.57
-8.72329
-7.06642
-0.250253
-0.396741
-249.127
-18.8517
-0.0313278
-9.19053
-2.10266
13.507
-0.232171
175.208
9.80046
-0.629249
0.0364988
-0.0071604
0.291862
-0.10453
-345.484
-34.1733
-1.71727
-0.266435
-0.300948
-0.0358725
-5.21665
26.7388
-15.9811
76.7374
0.0727781
5.27909
-1.00143
-10.7759
-0.194315
-0.528734
54.787
0.0450938
1.62973
-5.49717
-11.5038
40.7461
-0.50027
0.0656421
10.5241
-1.98692
-50.1099
14.1278
-6.08661
-13.4391
41.3471
-14.1592
-0.215853
-3.18141
2.42959
-3.09794
5.32197
164.043
1.50297
-7.57368
-0.00919677
0.39112
-0.3642
-1.99581
44.7417
-0.213697
0.0541505
11.3786
0.354735
-96.1398
0.172883
0.363953
-0.00660125
3.22575
-0.0034284
0.310873
-0.971707
-0.26152
0.106973
13.8608
-46.1272
-0.00212489
6.11288
0.970439
-18.4323
-35.2685
-2.45781
-0.455756
285.478
0.767026
-1.61389
28.0697
-0.275208
-2.14908
149.877
-9.55813
-13.5456
-0.314273
3.67906
-8.73645
0.272105
-0.846299
-248.133
96.2917
0.194007
0.0581249
11.167
-5.14003
47.0605
22.4023
12.5942
-0.50061
0.858341
-1.17609
0.140462
76.6172
-81.0982
-15.4834
-16.6522
21.8618
19.6301
-0.0481083
-0.0750311
-6.21181
-0.194895
-3.47458
-78.2136
0.0185158
-4.14563
-0.235929
-2.41867
-0.231298
-9.06369
-4.54054
52.1846
-0.231058
0.199429
12.4418
-0.0207157
-21.2665
-7.64546
18.0985
369.309
-83.7177
-2.54091
80.1082
0.0111964
130.271
-8.10927
-0.225019
5.45959
-0.0646143
-16.085
-36.4369
0.543413
-7.58001
-261.992
-0.281389
-0.0270747
15.6562
1.74069
15.5593
0.483878
-5.19076
-59.3685
-0.262301
8.67113
-8.142
-173.664
-0.0289201
-184.516
-0.747486
44.032
98.7839
-13.106
-19.501
23.4046
-4.19883
-0.00863949
10.2486
-4.49694
-0.0105039
55.6177
0.00417931
2.4487
0.645304
-28.2503
-0.175211
-14.8977
-0.0133806
39.7368
-9.4405
-4.80437
-12.383
9.21057
-3.59804
0.0340623
-0.81378
-3.14824
11.6257
-1.0071
1.25175
-17.466
-0.60554
-19.8832
-0.517048
-4.22971
-0.0757352
27.5735
-0.417056
-1.13086
-3.70508
-1.95016
22.8921
19.7062
-922.366
-0.77445
-32.9516
-0.385338
145.372
0.533913
-7.9811
-0.267028
-0.720113
-1.92452
-105.153
-9.34776
-157.063
0.0367153
0.572511
26.0758
-0.0443985
29.0884
26.4437
1.5067
-45.3288
-43.074
-36.7305
2.76731
-0.0334821
0.0509808
-49.9072
34.9646
-6.51173
-18.8465
9.51005
19.4964
18.5246
-0.0154687
-3.95129
5.1549
0.0278981
-11.2995
35.6158
-4.61101
34.8793
0.549847
-37.7497
0.179906
-0.535968
-5.86295
-240.407
6.08956
36.944
-24.9865
18.478
-25.171
-23.9299
-0.809597
220.151
-0.386876
-0.538861
-2.43892
-3.23927
-27.7178
-19.7273
6.1077
-74.4607
18.8438
0.0798595
1.11503
63.8009
-0.198619
-0.756429
-10.9989
62.4725
-0.0177745
-0.0290161
-0.667022
-71.747
0.296883
0.116823
-0.0897906
23.409
-13.4431
-11.3186
-1.73952
0.0976393
-0.0704105
0.229529
19.971
26.7814
-60.5714
-0.359089
-24.3994
0.0149161
84.5816
-113.059
-30.9703
0.307326
-373.539
0.152759
-0.212576
23.9777
-0.16453
11.9675
-55.601
-0.0234336
23.6108
0.29062
-0.0680653
-1.44492
2.91
-0.51473
-19.0936
-59.0644
-4.96827
5.88664
-0.0604993
18.6894
32.4395
-5.34376
-7.85527
-2.78153
38.9855
0.0796229
1.02933
-5.12073
18.9533
8.71802
-0.157194
-0.216574
-19.3943
-11.5564
-30.9199
0.0143254
-10.4141
-73.7991
8.67855
-1.11395
0.178336
140.938
-21.1313
1.51464
3.1242
-21.762
-0.0840063
1.45449
-7.81861
-251.325
0.0732605
-1.81464
-0.020358
-66.1747
-6.38641
193.741
-9.76768
-12.0038
-3.84791
-0.352311
-1.01476
64.4485
2.84794
9.75896
-6.65581
0.526626
17.2996
-0.148981
-5.59979
17.2712
-0.106621
0.0868027
532.968
0.360153
-29.6745
-0.581429
-2.39729
-0.0315376
-4.32164
-0.132732
0.0117356
-1.16474
-137.356
2.87313
-7.85187
0.0293688
-3.33683
-0.169464
-10.3211
3.98122
51.0514
-0.0795731
-0.33372
8.69022
0.0133244
14.3297
0.112463
-0.255242
0.0967446
-0.12378
0.0897575
349.563
-10.5246
-20.5287
47.4762
5.05966
1.76037
0.0255253
0.236034
30.5361
14.1376
-45.2122
0.30194
-0.118023
-10.493
-0.646431
-17.5623
59.8104
-89.5737
-0.0305767
-3.66531
19.4634
-1.07793
35.3518
29.5886
-173.581
13.7043
-1.29722
-1.68142
-1.19077
-7.18513
-6.67039
6.95316
0.138514
-0.236389
0.11326
0.0337381
-23.3906
-1.39372
-19.2216
-0.0702261
-5.86832
-7.88123
14.4135
26.911
-3.01316
0.00160005
49.9283
-18.0068
-0.090235
0.0564394
16.0022
-262.015
-14.4407
2.20975
-0.0106727
-52.2986
22.0259
18.7787
-3.53442
-2.49932
6.24538
-3.30076
-1.09909
-0.264403
5.3076
17.058
0.0447546
-0.0854786
19.2572
-273.848
0.111283
-15.5181
0.151571
134.227
-5.8981
-6.34341
0.828081
1.13407
12.5927
-13.0389
-0.451783
-0.326399
-0.00448969
0.246023
-0.174117
-0.0494431
23.7651
-94.6389
4.54679
-21.0271
5.69496
12.302
0.34578
-2.32407
0.684552
-92.3693
96.54
-2.85103
0.0969892
2.35646
-19.4222
-34.4184
-9.01345
0.214895
-0.0339924
48.4766
-4.67631
-23.1825
-0.103471
-4.61572
-22.5836
0.217165
-29.3881
33.0977
23.6446
236.194
14.1668
7.89428
-42.9205
-10.8371
9.65022
-3.11154
67.7984
11.6215
1.61897
54.3278
26.1802
-0.485702
40.8993
29.3503
-0.462456
-0.000491033
-1.29378
0.175869
-0.18374
-245.527
-84.2985
0.0263543
-16.168
144.066
-4.13533
28.6179
122.856
-1.17847
4.65021
-400.557
32.0478
-3.62483
-46.2139
-0.421854
0.0733038
0.776134
30.1575
-80.0916
14.4449
-2.94176
-27.4485
108.803
-11.5351
26.7849
0.0521006
1.05356
1.84629
24.4911
-3.00134
-16.6142
-6.22199
0.265318
-9.0861
-5.53464
183.373
30.0411
28.1386
-0.013588
0.940995
0.473639
-11.0243
24.8258
23.5551
-2.17422
27.5254
-121.907
94.5155
-5.81052
-13.805
14.5973
-6.97705
-98.9431
0.283959
-6.44023
40.3932
-16.4191
62.2892
27.6399
-1.82619
15.5098
0.310275
-24.5683
0.041703
0.116239
-0.78941
32.4684
-25.7877
-5.64828
-0.0291214
-555.415
16.7214
-31.2758
0.264914
-2.85339
22.635
0.393451
-0.0735532
-0.167049
-16.9023
5.04037
371.782
-2.41446
-3.30593
9.99925
17.967
-2.79602
55.822
18.4246
-10.2403
0.0318441
-0.149093
-0.0354401
0.631417
-18.215
-3.09436
-5.06488
0.0165278
-114.416
421.114
5.0169
-7.66188
-7.90623
0.299975
-3.98665
-0.122161
199.307
-4.87776
0.0904263
1.36292
-16.0863
16.784
0.232348
-0.715286
0.644601
0.758806
0.963229
-191.207
13.9566
37.0054
0.161275
268.753
-0.0335672
-0.783219
-10.192
-1.08793
-0.255171
-9.03847
58.9436
72.7052
-15.5918
18.1072
0.0189379
-0.374283
-16.7478
-13.3692
-8.42145
309.949
-1.14796
0.0811486
18.5876
37.2458
5.02649
4.30909
-58.287
119.864
19.9375
0.0402188
-0.287195
107.655
16.5119
14.4593
-0.048217
-20.0634
3.67891
0.0138664
3.44851
-3.18688
0.650794
-8.73038
49.5514
-0.122578
0.215392
0.0224511
-0.0308143
6.97397
0.219873
-2.59607
-9.31697
41.0769
-0.0810514
33.1909
-10.4955
-4.06969
8.17657
18.1434
46.2682
-0.0254124
18.1034
-0.13412
-47.1497
517.733
18.4515
-70.2289
-0.366029
-32.3165
-64.6226
3.84485
-7.90064
-39.7273
22.1057
-4.47992
-105.193
-0.55709
-3.84395
-13.0097
-26.9042
-0.56296
-11.699
12.7196
25.184
160.411
2.21112
0.307895
0.969046
0.00134298
-0.221181
200.296
-0.996242
0.237879
-0.54845
160.304
-3.56389
7.56649
25.3324
-5.49328
-0.0545403
-31.0954
129.987
-0.100875
44.9744
13.9221
16.6661
32.1106
2.72364
56.6173
64.5701
-123.22
0.776076
0.26301
18.4357
-71.3819
2.62461
3.56597
-2.24704
-0.416796
-0.000189806
15.7998
18.5458
-0.668044
19.5019
-0.129193
-0.115876
36.0053
86.5316
3.88145
77.1106
-11.3136
0.0763787
11.8643
-4.85756
-27.0472
-23.1581
4.51368
-0.0786339
40.9116
-1.38891
90.7424
5.56416
-0.0847629
36.8259
60.8767
-13.2468
33.3307
-0.416156
-0.571544
-40.465
0.525754
19.4708
-0.195623
430.586
-11.5039
0.687304
-0.265542
2.41235
-2.17199
36.5464
-0.0565906
1.24514
4.46983
-3.07904
0.141519
-1.86696
17.9875
29.6884
5.13685
-12.6529
-17.2094
28.5761
34.8298
-2.1157
-1.68547
24.6671
7.88107
1.30205
27.4984
-0.025001
-40.5913
4.3328
-0.116884
9.39231
29.5269
0.403
0.626956
29.0142
10.3952
-9.41153