/*--------------------------------*- C++ -*----------------------------------*\
| =========                 |                                                 |
| \\      /  F ield         | OpenFOAM: The Open Source CFD Toolbox           |
|  \\    /   O peration     | Version:  v2012                                 |
|   \\  /    A nd           | Website:  www.openfoam.com                      |
|    \\/     M anipulation  |                                                 |
\*---------------------------------------------------------------------------*/
FoamFile
{
    version     2.0;
    format      ascii;
    class       volVectorField;
    location    "150";
    object      ddtCorrDdt0(U);
}
// * * * * * * * * * * * * * * * * * * * * * * * * * * * * * * * * * * * * * //

dimensions      [0 1 -2 0 0 0 0];


internalField   nonuniform List<vector> 
18355
(
(-0.0827203 0.0657205 0)
(-1.29303e-05 5.08168e-05 0)
(0.0521347 0.0499104 0)
(-8.7921e-05 -1.11948e-06 0)
(-0.0171274 -0.00751737 0)
(0.0707903 -0.00194931 0)
(0.00149094 0.00113982 3.54862e-21)
(-0.0229691 -0.00012134 -1.79755e-22)
(-6.74432e-05 3.18971e-06 0)
(0.015486 0.0569879 4.32947e-21)
(0.00611316 -0.0036167 -1.38278e-20)
(0.0458298 -0.00392169 3.54401e-21)
(0.047356 -0.00199381 -7.12773e-22)
(-0.0780821 0.0573096 0)
(-6.96444e-05 -5.53372e-07 -2.67143e-22)
(1.18091e-05 5.5722e-06 1.56966e-22)
(-7.55987e-05 1.59967e-05 0)
(0.00300881 0.00113555 6.95498e-21)
(0.008964 0.0851443 2.03076e-20)
(-0.0031508 -0.00163451 0)
(-0.187695 -0.264053 8.39791e-20)
(-0.000665532 -0.000136822 0)
(-1.06968e-05 -2.71315e-05 -5.24452e-23)
(0.0616509 0.0101628 0)
(-1.55174e-05 -3.66114e-05 -5.41145e-23)
(0.0018343 -0.000225521 2.41341e-21)
(0.00161575 0.000671979 -1.33295e-21)
(-9.10538e-05 2.5789e-05 3.82969e-21)
(-6.3913e-05 -8.05777e-06 6.15151e-23)
(0.00633419 -0.000402693 -1.9007e-20)
(0.0395816 0.0656828 0)
(0.00957713 -0.027227 1.7231e-20)
(-8.12014e-05 -7.2642e-05 0)
(-1.11133e-05 3.25638e-05 2.74304e-22)
(-2.44128e-05 9.73731e-07 0)
(-0.000882205 -0.00177065 1.28377e-20)
(-0.00173521 0.00522522 3.50917e-21)
(-0.000639401 -0.0020799 -1.23918e-20)
(0.00687715 -0.00119022 9.95359e-21)
(0.000593054 -0.000102325 -2.53081e-21)
(-4.74075e-05 4.32068e-06 5.28543e-23)
(0.00673535 -0.00421847 8.87492e-21)
(-3.63864e-06 5.40977e-05 -4.21968e-22)
(-1.25287e-05 4.92833e-05 0)
(-1.18383e-05 4.3073e-05 0)
(0.0701166 -0.0124935 -2.05719e-21)
(-0.000100753 5.27923e-05 -7.02614e-21)
(-0.000116853 4.56271e-05 9.05961e-21)
(0.0542773 0.0320482 0)
(-0.000605079 -0.000549461 5.58685e-22)
(-1.14591e-05 -5.14917e-06 -8.72492e-22)
(-0.096382 -0.160157 -1.87143e-21)
(-0.000712448 -0.000363029 5.95312e-22)
(-0.0482482 0.0821074 0)
(-0.000134672 0.000110972 0)
(-0.00333826 -0.000530801 0)
(-1.29722e-05 -1.00331e-06 4.74804e-22)
(0.0392017 0.0609056 0)
(0.002117 -0.000293429 -5.27106e-21)
(0.0842086 0.00860113 -1.02458e-20)
(-5.63833e-06 5.28621e-05 -4.37508e-22)
(0.030522 0.0113339 9.87832e-21)
(-0.0556018 0.0561189 0)
(-0.000166841 0.00131601 1.49952e-25)
(-0.00964619 -0.0419863 0)
(1.45687e-06 -1.10161e-05 -5.21457e-22)
(-0.00285738 -0.000516572 -5.22098e-21)
(-0.00216436 0.00545481 0)
(-1.60849e-05 -3.93179e-05 -7.08567e-22)
(0.0243655 0.0667759 -3.52196e-20)
(0.000125575 -0.000167536 1.97891e-21)
(-0.000136095 0.000109102 0)
(0.00410013 -0.021314 -5.94844e-21)
(0.00350352 0.00422939 0)
(0.0141395 -0.0615747 1.59773e-20)
(-1.61978e-05 -1.83239e-05 -6.49873e-22)
(0.0774201 0.0114884 -1.42473e-20)
(-1.11191e-05 -4.24921e-06 9.50822e-22)
(0.000145987 -0.000111283 -1.14006e-21)
(0.0227087 -0.0557136 0)
(-0.0028633 -0.000940875 4.76496e-21)
(0.0439276 -0.0168934 -1.80487e-21)
(-1.44637e-05 -2.7133e-05 7.22031e-22)
(-0.00368712 -0.00253158 -1.32594e-20)
(-0.0288993 -0.00221142 5.76305e-20)
(-1.66408e-05 -4.13786e-06 3.74279e-23)
(-0.000105102 -5.25904e-06 0)
(-0.0185985 0.00448601 2.76732e-20)
(-7.75409e-05 -0.000101953 4.01846e-21)
(-0.0189018 0.00257691 0)
(0.000788098 0.0187299 8.37612e-23)
(0.0612936 -0.144379 2.86975e-20)
(0.0485395 -0.00861237 0)
(-0.00045607 -0.000650824 1.87477e-21)
(-0.0715423 0.102744 3.03358e-21)
(-0.00314969 0.002006 7.67072e-23)
(-8.06438e-05 -9.92218e-05 0)
(-0.00191185 0.000782637 2.04735e-23)
(-0.000170265 0.0429608 0)
(-0.000479518 -0.000230375 -5.3239e-21)
(-0.028155 -0.00611329 1.16457e-20)
(8.0397e-05 -0.000112611 -9.11927e-22)
(-0.000199537 -0.000603287 -1.90695e-21)
(-2.98571e-05 4.10459e-05 1.32602e-23)
(-0.0030181 -0.00143319 1.13484e-20)
(1.06239e-05 -2.32516e-06 6.12503e-23)
(-0.00897384 -0.0430655 -2.51206e-20)
(-0.0768008 0.135596 0)
(-0.00958885 0.0083468 -2.23196e-20)
(1.77204e-05 6.26668e-05 3.5882e-22)
(-2.0668e-05 -6.27863e-06 7.39237e-22)
(4.62179e-06 -1.85622e-06 -6.48989e-22)
(0.00788379 -0.0124002 1.33472e-20)
(-0.00327298 -0.00246905 0)
(0.0799786 0.0193487 -1.26341e-21)
(0.000285322 -0.00839842 1.44359e-20)
(9.33274e-05 -6.95933e-05 6.38373e-22)
(0.0328627 -0.0708174 0)
(-0.00132455 -0.00148925 1.29524e-20)
(-0.00282134 -0.000745171 5.05031e-21)
(0.0195706 0.0438855 0)
(0.0604552 0.0488527 0)
(0.002542 0.0128563 0)
(-0.0227744 0.00344462 -1.29457e-20)
(0.0371698 -0.034641 0)
(0.063799 0.0120815 0)
(0.00149466 0.000836816 -3.31686e-21)
(-7.87602e-05 2.5456e-05 -6.41291e-21)
(-0.0546131 0.0849313 -2.51871e-20)
(-0.000425576 7.98948e-05 0)
(-8.30697e-05 -0.000110513 0)
(-0.104767 -0.194535 -8.18326e-21)
(-0.000117695 -0.000109641 0)
(0.0117848 0.0330836 2.33344e-21)
(-0.0722938 -0.008464 0)
(-7.85715e-05 -9.29636e-05 3.07222e-21)
(0.00731327 0.0888621 3.64966e-21)
(-0.00755032 0.0587767 0)
(-0.000125134 -1.05207e-05 -2.14689e-22)
(-0.0565117 -0.263026 -3.4605e-20)
(-0.00291044 0.00290308 1.49588e-20)
(0.0211354 -0.0349122 -9.52597e-21)
(-9.22044e-05 -5.36521e-05 0)
(0.0889661 0.0546823 3.09725e-20)
(-0.0712238 -0.0417355 0)
(-6.9695e-05 1.04167e-05 0)
(0.0919571 -0.00855767 7.88445e-21)
(9.72354e-06 0.00013905 4.27862e-23)
(0.00770805 -0.00843983 -1.30364e-20)
(0.0366393 0.00206475 0)
(-8.7037e-05 2.79566e-05 1.0888e-22)
(-0.0027224 -0.000760553 -4.8046e-21)
(0.00156078 0.00167494 0)
(0.00839243 -0.0015638 0)
(1.05192e-06 6.74078e-05 0)
(-1.48968e-05 -9.31376e-06 -3.50063e-23)
(-8.17791e-05 3.80855e-05 7.47018e-21)
(-1.53032e-05 -1.87322e-06 0)
(-9.9525e-05 -5.65672e-05 0)
(-1.2024e-05 -7.64097e-06 0)
(0.00486051 0.00213554 2.20887e-20)
(-0.000121476 -5.14084e-05 0)
(1.73998e-05 5.87413e-05 0)
(0.0129486 -0.0104193 -7.25334e-21)
(0.00541923 0.00237289 6.48483e-21)
(0.0218702 0.0175318 -3.98435e-21)
(0.0872565 -0.00683058 0)
(-0.100983 0.0972938 1.90176e-20)
(-0.0153301 -0.239111 0)
(-0.0031737 0.00297371 1.93358e-20)
(-1.54777e-06 2.01465e-06 0)
(0.0123539 0.0319327 -1.96227e-21)
(5.12648e-06 -2.98842e-06 2.28985e-22)
(0.0694528 0.0167086 -5.95023e-21)
(-2.00575e-06 -9.9698e-07 0)
(-6.0352e-05 8.41904e-06 0)
(6.03652e-06 9.52481e-07 3.3496e-22)
(-3.44508e-05 6.45723e-05 4.92138e-23)
(-0.000527098 0.0014972 7.13598e-22)
(-0.00730906 -0.00622841 -1.5855e-20)
(-2.83988e-05 -6.6794e-06 0)
(0.0158258 0.0325027 5.51905e-21)
(-0.000516192 -8.27993e-05 -3.58927e-21)
(-0.000107214 3.70184e-05 7.2007e-21)
(0.0121618 0.00330311 8.8238e-22)
(-0.000131162 -0.000636652 -1.42351e-21)
(-1.30887e-05 1.36924e-06 -3.04223e-23)
(-0.0186036 0.002938 -3.89877e-20)
(-4.85996e-05 4.00743e-05 0)
(0.00187746 0.000645108 4.47525e-22)
(0.0635689 -0.00708106 1.09452e-20)
(-0.00398769 0.0343828 0)
(-1.52049e-05 2.39012e-05 1.35504e-22)
(-4.47551e-05 -8.15612e-05 3.89822e-22)
(-3.46419e-05 6.2745e-06 -1.69053e-22)
(0.0761197 0.0114045 -1.37309e-20)
(-1.86485e-05 -1.16573e-05 0)
(-0.0584042 0.135449 -1.8497e-20)
(-1.14491e-05 3.89824e-05 0)
(-0.0872128 0.0346468 -7.05425e-21)
(-6.21823e-05 -0.000542997 7.17402e-22)
(0.000888383 0.00252284 1.52167e-20)
(0.00822423 -0.00207045 -1.86771e-20)
(-3.0905e-05 1.98891e-06 -4.99791e-23)
(-0.0904005 0.0962974 0)
(-0.000337358 0.000123776 4.1041e-21)
(0.0316688 -0.139646 6.74071e-22)
(-8.02786e-05 3.77607e-05 -4.12235e-23)
(-1.23336e-06 -3.93717e-05 -3.17304e-22)
(0.00199283 -0.00143621 2.33713e-22)
(1.65158e-05 -0.000241608 7.85463e-21)
(0.0406357 0.0181487 -8.91297e-21)
(0.00269083 0.0015766 0)
(0.00202928 0.0018167 0)
(2.36257e-05 0.000140109 0)
(0.0802968 -0.0205815 0)
(-0.0070881 -0.00640218 2.99338e-20)
(-0.000996859 0.00300829 -6.44794e-21)
(-0.000398824 0.00015909 0)
(-9.53008e-05 2.54704e-05 0)
(-0.00816868 0.00803862 0)
(-1.5584e-05 -4.02576e-05 4.89891e-22)
(-0.0161159 0.00543356 2.46779e-20)
(0.00161345 -0.00554611 1.97827e-23)
(-0.00354149 0.0149263 0)
(-0.00059539 0.00368595 -9.48151e-22)
(-2.74759e-05 -6.19658e-05 0)
(-0.0142318 0.0535866 4.71075e-21)
(-0.148412 0.0243396 0)
(-0.00188815 -0.0159439 -5.41812e-21)
(4.59766e-05 0.000555927 -3.0683e-21)
(-0.00301265 -0.00100804 0)
(0.0310281 -0.00141298 1.68812e-20)
(-2.28654e-05 -4.96539e-05 1.75459e-23)
(0.0138746 -5.79129e-06 6.63813e-21)
(-0.00105419 0.017185 -6.3624e-22)
(-0.000483818 0.000498451 8.26339e-21)
(0.0670834 -0.0123418 1.89329e-22)
(0.000487588 0.00286269 1.97788e-21)
(0.00212424 0.00233301 0)
(-1.88106e-05 3.98286e-05 2.55674e-22)
(-0.000467724 0.00108104 -9.47727e-21)
(0.00174934 0.00183879 1.7648e-22)
(-0.00498964 -0.0152129 0)
(-0.00034384 0.000154354 -3.69982e-21)
(-0.000130725 0.000133618 0)
(-0.000108574 5.3044e-05 1.0471e-21)
(0.0346198 0.0196316 6.60153e-21)
(0.0482895 0.0216302 -3.26994e-21)
(0.000366845 -0.000169586 9.74645e-22)
(-0.000149854 0.00130256 2.41844e-22)
(0.0484975 0.0257663 3.81312e-23)
(0.0477933 0.028861 4.75342e-22)
(3.887e-05 -0.00435744 -1.90755e-22)
(-2.75329e-05 7.21862e-05 -4.54104e-23)
(0.00717205 -0.0109489 -5.60573e-23)
(0.000565316 0.00278964 2.28713e-21)
(-0.000103082 7.93636e-06 8.79929e-22)
(-0.00125197 0.00365178 1.06485e-21)
(-6.63165e-05 -7.02726e-05 0)
(0.0362867 0.00887701 0)
(-0.0324596 -0.00532412 -2.41938e-21)
(0.000819317 0.0344955 1.70554e-20)
(0.00284465 0.00551089 7.359e-21)
(0.00941847 -0.00204282 -9.86232e-21)
(0.0165669 0.00977518 -1.49803e-21)
(0.0073006 -0.0164785 -1.94853e-20)
(-0.00644347 0.0426857 3.37809e-20)
(-6.09394e-05 -6.10092e-05 0)
(-0.000144511 0.000131084 6.26096e-21)
(0.00225608 -0.00165366 0)
(2.0062e-05 7.08555e-05 2.54869e-22)
(0.000144478 0.00302078 -9.36272e-21)
(-0.000788906 0.00324626 1.75394e-21)
(-0.000102078 3.77709e-05 0)
(-0.00023254 5.37303e-05 8.88321e-21)
(-0.00237921 0.0110693 -9.59577e-21)
(-7.93762e-05 -7.28483e-05 -1.51523e-21)
(-0.0529973 0.00338229 -5.22858e-20)
(0.0377935 0.191063 0)
(-0.00169069 0.0178651 -1.62912e-20)
(0.000143579 -0.00035522 -8.83501e-21)
(0.00119705 -0.00828392 -1.25789e-20)
(1.47582e-05 7.3533e-05 -6.77239e-23)
(-0.0163267 0.00537321 -1.11311e-20)
(-0.000288997 0.000160952 -1.35926e-20)
(-0.00712638 -0.007871 0)
(-4.43305e-05 -1.41889e-06 5.22828e-21)
(-0.00653758 -0.00715793 -7.10048e-23)
(0.00237171 0.0278526 -1.54988e-21)
(-5.48527e-05 -5.7136e-05 0)
(0.0046742 0.0135172 0)
(-0.00157837 -0.000834006 8.4575e-21)
(-0.0035168 0.00276257 -2.79317e-21)
(0.00454883 -0.0134343 0)
(-6.97844e-05 1.7093e-07 0)
(-4.36626e-05 -8.53719e-05 4.99974e-22)
(-0.0531267 0.00947836 4.84834e-20)
(-0.000153334 0.000369571 5.27056e-21)
(0.0139324 -0.0190172 1.04628e-20)
(-0.000795219 0.00489383 7.15461e-21)
(-0.0658987 0.0113669 0)
(-0.0181444 0.0116306 1.69328e-20)
(-0.000950634 0.0356143 -1.38467e-20)
(0.00209054 0.00206591 1.92189e-22)
(-0.00322811 0.0164079 -1.50383e-20)
(-0.000595207 -0.000237809 0)
(1.0804e-05 0.00129411 0)
(0.00264548 0.00486733 -1.08422e-21)
(0.00444762 0.0162392 0)
(0.0140355 0.0234712 -3.25763e-20)
(0.0693921 0.0657921 9.8294e-21)
(-0.000120881 4.89022e-05 0)
(-0.00110649 -0.00689165 -1.61642e-20)
(-0.0569611 0.0296169 2.22265e-20)
(0.00128322 -0.0112997 -1.68907e-20)
(-0.000122519 6.06998e-05 -2.65183e-21)
(-0.000112373 2.21349e-05 2.77736e-21)
(-9.80636e-05 5.15762e-05 9.93505e-22)
(0.0131811 -0.000903632 -7.54242e-21)
(0.0644291 0.0628418 0)
(0.0719363 0.0881041 3.09784e-20)
(0.011988 0.0263033 -1.16489e-21)
(-0.000507418 0.0168139 9.56921e-21)
(-0.00274367 0.00321667 1.86027e-20)
(0.0334521 0.00888758 0)
(7.87647e-06 0.000115854 -6.98626e-23)
(-0.000332066 0.000151087 6.979e-21)
(-0.00276023 0.002439 -2.23567e-22)
(-0.000157001 0.000176366 0)
(-0.0033111 -0.0193459 5.89026e-21)
(-3.2126e-05 3.21911e-06 1.4148e-23)
(0.0561024 0.0121964 2.61778e-21)
(-6.51895e-07 -1.87418e-05 0)
(0.0602043 -0.0431303 1.10343e-20)
(-7.90034e-05 3.63391e-05 -1.86718e-21)
(0.000516045 -0.000137903 2.34351e-21)
(0.00174777 0.00372771 3.16931e-21)
(0.0459719 0.00399548 2.29932e-20)
(-0.0971887 0.111655 4.17477e-20)
(-0.00671243 -0.0159725 0)
(0.00628306 0.0270675 -3.96014e-21)
(0.000107432 -0.00078394 0)
(-7.64025e-05 -0.000113465 -3.25463e-21)
(-0.000155174 0.000159655 0)
(-0.00250518 0.00563136 -3.32957e-23)
(0.0240997 0.0491567 -1.12742e-20)
(-7.32103e-05 -0.000117621 0)
(-9.64263e-05 -1.6574e-05 -3.97046e-21)
(0.0130595 0.00655523 6.04631e-22)
(-0.000220059 -0.000532819 1.58966e-20)
(-7.72694e-05 -0.000112079 4.74049e-22)
(0.0530765 0.014769 1.88855e-20)
(-0.00112006 0.00388416 0)
(-0.000102008 5.54211e-05 -4.35217e-21)
(0.000282193 0.000974489 2.284e-21)
(-0.00713864 -0.0101006 1.36024e-20)
(-0.000119457 1.28862e-05 -3.41416e-21)
(-0.00617339 -0.00861191 4.73894e-21)
(-3.71743e-05 -7.08819e-05 1.27187e-21)
(-9.58971e-05 -1.35431e-05 9.65626e-21)
(-0.000401046 -0.000280979 1.54611e-20)
(0.0929707 0.00321506 9.83857e-21)
(0.0209168 0.00790521 1.63365e-22)
(6.76432e-06 -4.16094e-05 -1.1691e-21)
(-0.000109516 -3.6381e-05 0)
(-0.00164977 0.0108096 -9.5339e-22)
(-9.67631e-05 6.34806e-05 -3.73432e-21)
(2.8009e-06 6.35294e-07 -3.55205e-22)
(0.0262571 0.0195296 1.01536e-20)
(0.0229499 0.00337027 1.19669e-21)
(-0.00572962 0.0112293 1.06536e-20)
(-0.00014434 0.000140837 0)
(-0.000510661 0.000485015 5.16779e-21)
(0.0425846 0.00494416 1.27459e-21)
(-0.0014947 -0.00287769 -4.65124e-22)
(0.00744962 -0.0147771 5.82382e-23)
(0.000228818 0.00104895 0)
(-7.40011e-06 -1.50017e-05 -9.97789e-23)
(-0.00205496 0.00952876 0)
(-0.00407361 -0.0188166 5.78381e-21)
(-0.000392318 -4.23156e-05 4.71616e-21)
(-7.4572e-05 -1.05231e-05 0)
(0.00351003 0.00184826 3.36455e-20)
(-4.42614e-05 -4.52493e-06 0)
(0.00398433 0.00221408 4.72998e-22)
(-3.48482e-05 2.00615e-05 0)
(0.0342044 -0.0297892 0)
(0.0019851 0.00156575 0)
(-0.00253492 -0.000311246 0)
(3.77778e-06 -5.12045e-06 2.78816e-22)
(-9.79658e-05 6.65552e-05 -5.60985e-23)
(-0.000557625 0.00464361 5.57242e-21)
(0.00250919 0.000999735 9.11114e-22)
(0.0174086 0.021822 -6.94681e-21)
(0.122696 0.0366187 -1.33381e-22)
(0.0218296 0.0121811 9.1588e-22)
(0.00049148 0.00397186 2.15158e-21)
(0.0516228 0.0306313 -1.06154e-20)
(0.00341756 -0.00770356 3.41317e-21)
(-7.26921e-05 3.50981e-05 1.98237e-21)
(-3.71543e-05 2.57856e-06 0)
(0.00421034 0.0126738 -1.63494e-20)
(-4.73545e-05 5.65536e-05 -2.16878e-21)
(-0.00504758 0.0128343 -1.3147e-20)
(0.00101837 0.000972323 0)
(0.00659395 0.00703297 1.28521e-20)
(0.0352995 0.00114958 -2.09301e-20)
(-0.00247363 0.0215513 -1.10004e-20)
(-0.128744 0.0821861 -5.30086e-20)
(-0.0116581 0.0302233 -2.59544e-21)
(-3.47695e-05 3.20895e-05 0)
(0.387541 -0.0540395 9.13811e-21)
(-0.000540707 -0.000125972 1.02177e-20)
(-0.000104437 4.26755e-05 0)
(-0.196244 -0.316123 -4.09176e-20)
(-7.55105e-05 4.24485e-05 9.71518e-21)
(-0.00243874 0.00796843 0)
(0.0010455 0.00102251 0)
(-0.00535976 -0.0524808 2.91944e-20)
(-9.04258e-05 4.967e-05 -7.94241e-21)
(0.0125249 0.0332053 8.43867e-21)
(0.0396859 -0.072465 -5.20051e-21)
(-0.00195165 0.0356662 0)
(-0.000166248 -3.63682e-05 -2.80145e-21)
(-1.36225e-05 4.09885e-05 1.91413e-22)
(0.000642 0.0284944 -3.6017e-20)
(-0.00147299 -0.00141433 -1.38804e-20)
(0.000157272 0.000388351 -5.02993e-22)
(0.0178977 0.0410996 -8.20953e-21)
(-0.0200164 -0.0134602 0)
(-0.000102061 4.59744e-05 -3.52622e-21)
(0.00456083 0.0138659 1.20943e-22)
(0.0159512 0.0142265 1.29197e-20)
(-1.87591e-05 4.8659e-05 -1.22179e-22)
(0.000919718 -0.000439742 -2.06688e-22)
(-0.00600151 -0.0120866 1.71137e-20)
(0.0888933 0.0269468 -2.3639e-21)
(-0.00938712 0.0154586 -3.94562e-20)
(-0.000109101 -0.000678125 0)
(-0.000688209 -0.000260021 -3.39531e-22)
(0.00351257 0.00982789 -9.3728e-21)
(-4.57865e-05 3.00504e-06 2.33655e-21)
(0.000101468 6.91601e-05 0)
(0.000278186 0.000313277 0)
(-0.00223227 0.0203638 8.00453e-21)
(0.10435 0.0684013 -3.68063e-22)
(3.26657e-06 5.57241e-06 -9.99993e-23)
(-1.78515e-05 1.14939e-06 0)
(-9.9445e-05 2.58423e-05 -2.02625e-21)
(0.0514039 0.00229899 0)
(-0.00419474 -0.0197807 -3.26424e-21)
(-6.11872e-05 -7.478e-05 0)
(-0.00307708 0.00769757 0)
(-0.0168607 0.00718662 -3.6788e-20)
(-0.000192156 0.000107715 1.09776e-20)
(0.0939474 0.0188899 -1.95402e-22)
(0.0320432 0.00775074 -1.21649e-20)
(-0.000564189 -4.37182e-05 1.00312e-20)
(-4.17049e-05 2.76562e-07 0)
(-0.00782295 0.0127113 1.86569e-20)
(0.0439675 -0.00091667 -3.05148e-21)
(-0.0483401 0.0160419 1.85277e-20)
(2.95534e-05 3.07074e-05 0)
(-0.029567 0.175459 -2.02789e-20)
(-0.000120447 -3.58933e-05 8.81378e-22)
(1.44907e-05 2.20198e-05 0)
(-0.0185564 0.0116139 -1.94299e-20)
(-0.00182683 -0.0010395 9.98748e-21)
(0.0345371 -0.0503651 -6.29703e-21)
(0.00214914 -0.0152903 1.18371e-20)
(-0.00268673 -0.000261606 1.02429e-20)
(0.00434118 0.00563307 0)
(-0.000685978 -3.04664e-05 -5.9708e-21)
(0.0557045 -0.0015489 -4.06853e-20)
(-0.00138388 -0.00152891 -8.79168e-21)
(0.0031003 0.00328571 4.73621e-21)
(-0.000245854 -0.000441252 -8.22814e-21)
(4.47774e-05 5.32571e-05 2.61877e-22)
(-0.000413794 0.000268313 0)
(3.6304e-05 4.33292e-05 2.71179e-22)
(0.0242225 0.0234042 0)
(0.0963225 0.0792545 -3.4314e-21)
(-0.00400975 -0.0584452 2.24763e-20)
(0.00464029 0.00129259 0)
(0.000200329 -2.93271e-05 4.34427e-21)
(-0.000234009 -0.000437605 -1.57889e-20)
(0.00257167 -0.00159367 -1.27801e-22)
(0.0026377 0.00247499 0)
(-0.000923648 0.00242271 2.65738e-22)
(0.000241686 0.000215442 -8.06588e-22)
(-6.7501e-05 4.99625e-05 2.55505e-21)
(-0.0167858 0.012102 -1.72888e-22)
(-2.43548e-05 4.65238e-05 0)
(-0.00101649 0.00147949 -6.77967e-22)
(-0.118765 0.366673 1.46476e-20)
(-0.0410157 0.147798 -4.38718e-21)
(-0.0551389 0.043238 4.38789e-22)
(-0.000390508 -7.87901e-06 0)
(-2.91664e-05 -1.89007e-06 0)
(-0.00693493 -0.013122 2.12474e-20)
(-0.000623877 -0.000147282 0)
(0.0347252 0.0028594 3.02431e-22)
(0.0580478 0.0685155 8.40803e-21)
(0.000361101 -0.00501674 1.00881e-20)
(-0.0028442 -0.00332029 0)
(-0.000394129 0.0110629 -1.16083e-20)
(-0.00122827 -7.29808e-06 1.16247e-20)
(-0.002535 0.00119697 1.00523e-20)
(-0.0675275 -0.0926819 0)
(-0.013314 -0.000952919 1.19955e-20)
(-0.000459647 -0.00150595 0)
(0.0146359 0.0520608 -1.17849e-21)
(-0.000111742 -8.34872e-06 -2.35876e-21)
(-0.0915712 0.114177 1.42998e-20)
(0.377148 -0.0069556 -3.23695e-20)
(0.0010281 0.0025554 -5.77092e-21)
(0.000836083 -0.000258059 -1.88146e-20)
(-0.0746277 -0.0955556 -8.44856e-22)
(-9.60751e-05 3.98122e-05 3.49836e-21)
(0.0124564 0.0266404 0)
(0.00990494 -0.0277823 0)
(-0.0506535 0.0542565 1.30285e-20)
(-0.00121682 -0.00172693 2.62615e-20)
(-0.000384794 0.000223201 0)
(-0.000176578 0.000144397 9.06352e-21)
(-0.060679 0.0443132 7.55133e-21)
(-0.0291061 0.0160867 2.57623e-21)
(-0.0503381 0.051241 0)
(0.0138561 -0.0652719 0)
(0.00119006 0.00302166 -2.17337e-20)
(-0.000176675 0.000155345 -4.51301e-23)
(-0.00381531 -0.00204071 1.6052e-20)
(-0.000116 0.000130114 0)
(-0.00278343 -0.00478886 -6.211e-21)
(-0.121529 -0.285761 0)
(0.0832959 0.00454429 0)
(0.10405 0.0770292 2.88611e-21)
(0.0736527 0.0308851 2.17496e-20)
(-0.000827212 -0.0134137 1.33708e-20)
(0.00474133 -0.0221619 -3.81746e-20)
(0.00939126 -0.011827 7.59947e-21)
(-0.000108507 6.03499e-05 3.25955e-21)
(-0.000110297 -0.000106163 0)
(3.54155e-05 -0.0162337 -7.81304e-21)
(-0.00536858 0.00149145 -4.54016e-21)
(-0.000311589 0.000138283 1.36836e-20)
(-0.000109873 0.0001085 0)
(0.0509577 -0.0413348 -1.19288e-20)
(-7.42793e-05 -0.0001021 1.06174e-21)
(0.0673852 0.0452722 -1.84522e-20)
(-0.00326729 -0.00876387 1.10488e-20)
(0.0244349 0.0196092 5.56394e-21)
(0.045242 0.0112618 -1.4761e-21)
(-0.000106703 -0.000112098 0)
(-0.00300325 -0.00289757 2.18176e-22)
(-0.0498331 0.106871 0)
(-6.09764e-05 4.60128e-05 -8.44736e-21)
(0.113478 0.0578356 1.41851e-20)
(-6.00813e-05 8.23695e-06 -6.94029e-21)
(0.0331811 -0.109786 8.70087e-21)
(-0.0132108 -0.00232214 3.3885e-20)
(-5.10371e-05 8.95026e-06 -2.9884e-21)
(0.0106576 -0.0214318 -6.75007e-21)
(-0.000793704 0.0377243 -1.93209e-20)
(-0.0128411 0.0401035 0)
(-3.23891e-05 -5.05822e-07 5.39334e-23)
(-1.7215e-05 -6.75266e-05 -6.15881e-22)
(0.00265541 0.0102369 0)
(0.00101673 0.00235596 1.09277e-20)
(0.0197829 0.0240222 -4.81391e-21)
(-4.95395e-05 4.32935e-05 -1.07396e-21)
(0.0308179 0.00509086 -9.41006e-21)
(-6.96189e-05 -0.000102998 -2.17103e-21)
(0.048074 0.0560925 0)
(-3.17838e-05 1.29519e-07 0)
(-0.000132001 -5.78302e-05 3.43307e-21)
(0.0489317 0.0614329 -1.97905e-20)
(0.0063249 0.00339118 2.6961e-21)
(-0.00141298 0.0106039 0)
(-4.96629e-06 -4.61912e-07 0)
(-0.00261326 -0.00444023 3.20703e-21)
(-0.00545083 0.00188728 -1.87506e-21)
(0.0502222 0.0255843 0)
(0.0888198 0.0600866 2.62083e-20)
(-0.00177961 0.00237928 -6.33097e-21)
(0.00265187 -0.00749652 2.18759e-22)
(-1.22796e-05 1.96418e-06 -6.54931e-22)
(-1.31622e-05 -0.00847651 -3.23826e-20)
(-0.000220458 -0.000324614 1.01162e-20)
(-0.00155229 0.00207653 -4.99319e-21)
(-0.0219199 -0.0673731 -3.47008e-21)
(-6.8838e-06 2.60673e-05 -1.91858e-23)
(0.0176716 0.00647396 0)
(8.07605e-06 -0.000118009 -2.04803e-21)
(-4.50465e-06 3.0344e-06 -2.91848e-22)
(-0.00299099 0.00147538 -5.94741e-21)
(0.0349382 0.00793611 -3.07104e-22)
(-0.00172424 -0.00478449 0)
(-0.0669285 -0.0195933 1.82788e-20)
(-0.00202936 0.00278696 -1.3494e-21)
(0.00710701 0.0072487 -1.73171e-21)
(0.0500314 -0.0497021 -1.92056e-20)
(1.15755e-05 0.000122215 -4.60205e-23)
(-0.000103143 6.33084e-05 3.32859e-21)
(-0.00760073 0.150729 -5.09205e-20)
(-0.0175461 0.00249364 1.361e-20)
(-0.0194188 0.307536 -8.59774e-21)
(-0.00382155 -0.0268005 1.09978e-20)
(0.000329276 -7.47851e-05 0)
(-0.000107716 0.000113616 1.48225e-21)
(0.000163055 -0.000198415 -1.28837e-21)
(0.00387651 0.0065609 0)
(0.0002142 -0.000497473 -1.42166e-20)
(0.00103419 0.000509814 -1.88287e-23)
(-0.104534 -0.04612 0)
(-0.15181 -0.314622 9.53783e-22)
(-0.000140492 -8.97135e-06 1.7946e-21)
(0.1219 -0.0234367 1.54638e-20)
(0.104916 0.0023027 0)
(0.00403599 -0.00297709 -1.86011e-20)
(0.0673926 0.0449042 6.91763e-21)
(0.00010346 5.92298e-05 -4.05826e-23)
(-0.102598 0.0524557 0)
(-0.0367276 -0.010491 0)
(7.18901e-05 0.000195972 -6.77492e-23)
(0.0532652 -0.0627817 3.68373e-22)
(0.00477707 0.0108209 4.90232e-21)
(0.0880407 0.0299747 0)
(0.0492572 0.00699431 0)
(3.16309e-05 0.000365516 2.2582e-21)
(0.000203381 -0.000152876 -1.37463e-21)
(5.62164e-06 4.00729e-08 -2.32711e-22)
(0.0141667 0.0096513 0)
(0.017216 -0.00325604 -3.17149e-21)
(-0.000192591 -2.5926e-05 3.01954e-21)
(-0.000207661 0.000399433 0)
(-0.105319 -0.018529 2.03778e-20)
(-0.00049069 -0.00016148 -1.05789e-20)
(0.00565262 0.0114714 1.29342e-20)
(0.00027141 -0.000385689 4.54853e-22)
(0.00409381 0.00946676 1.07566e-20)
(0.102417 0.0823055 6.66617e-21)
(-0.0631983 0.0179967 -4.81378e-21)
(-0.00923168 -0.0258955 -2.79954e-21)
(-0.0847737 0.0181108 -5.9211e-21)
(-0.0204193 0.00227423 0)
(0.0732716 0.00846886 1.28037e-20)
(-0.00326433 -0.00314075 -1.2344e-20)
(-9.14852e-05 -7.91608e-05 0)
(-0.00167388 -0.00713197 1.30967e-20)
(0.0384627 0.0610688 -3.24137e-21)
(0.00847406 0.000989391 0)
(0.0151247 0.000991824 -1.05949e-20)
(-0.000170829 -2.44733e-05 -1.99095e-23)
(-0.131881 0.041112 0)
(-9.52388e-05 2.09043e-05 9.81058e-22)
(0.000385728 -0.00022258 -2.29775e-21)
(0.175272 0.0364461 0)
(-3.89377e-06 -6.47175e-07 3.69043e-22)
(-0.00208736 -0.00732732 0)
(-0.000736455 0.0115172 0)
(-0.0518268 -0.0171386 -1.85116e-20)
(-9.45638e-05 0.000118614 -5.09361e-23)
(-7.91822e-05 4.67868e-05 3.50158e-21)
(-0.00301941 0.00139236 -2.39466e-20)
(-0.00297085 -0.00431172 0)
(-4.75027e-06 -1.61253e-05 1.05889e-21)
(0.000589844 -0.00189661 1.08027e-21)
(0.0145754 -0.00175414 3.17354e-21)
(-0.0409799 0.0741582 0)
(-0.00241898 0.000226421 -9.76124e-21)
(-6.65489e-05 -9.22509e-06 0)
(-0.0229937 0.00588665 0)
(0.0455432 -0.070142 -2.68041e-21)
(-0.000192096 -3.76165e-06 8.32196e-21)
(-0.0976198 -0.0112475 5.89334e-21)
(0.0962145 0.0108442 -1.90927e-21)
(-0.000174666 0.000123235 -1.24484e-20)
(-0.0638667 0.146236 1.33381e-20)
(-9.73345e-06 -3.0475e-05 0)
(0.0494611 0.0628505 -1.45291e-20)
(-0.000125224 0.000137504 0)
(0.000981632 0.00147039 0)
(0.0534361 0.028888 1.07298e-20)
(-0.00107628 -0.00196863 -9.79134e-21)
(0.0658158 0.0657535 2.5191e-21)
(-0.00239645 9.15018e-05 1.2826e-20)
(-8.91847e-05 4.33836e-05 2.72659e-21)
(-0.0811004 0.146242 -1.38921e-20)
(-0.000116165 0.000130392 3.62329e-21)
(1.203e-05 7.17079e-05 0)
(-0.000114883 5.09992e-06 4.0123e-21)
(-8.8568e-05 -6.43449e-05 0)
(-0.00210757 -0.00757333 1.29514e-20)
(-0.0160946 0.00428791 0)
(-0.131434 0.0748795 1.77688e-20)
(-2.24093e-05 -2.43749e-06 0)
(0.111238 0.0692857 6.73789e-21)
(0.00289959 0.000989806 0)
(-0.07461 -0.0276057 1.88549e-20)
(0.0321347 0.171212 -4.75821e-20)
(0.000959535 -0.000684415 -6.28536e-21)
(-0.000156315 0.000148047 -4.94415e-21)
(-0.00311934 -0.00380369 -1.65641e-20)
(0.000368142 2.15673e-05 0)
(0.032576 0.0299739 1.17898e-20)
(-0.000134235 -7.62018e-05 1.83604e-21)
(9.2676e-06 6.85671e-05 0)
(7.86231e-07 3.29421e-05 7.56209e-22)
(-0.000178538 -2.84373e-05 1.38646e-20)
(-6.59054e-05 4.30723e-05 8.23311e-21)
(0.0663945 0.0507252 0)
(0.00467945 0.000666388 -1.30484e-20)
(0.00362085 0.0161081 -3.94667e-21)
(-0.00308325 -0.00109483 -5.68398e-22)
(-0.00231377 -0.00739875 0)
(0.00433806 0.00142066 -1.5249e-20)
(0.0031116 0.00511585 0)
(-0.0351499 -0.00208188 2.2538e-21)
(-1.54075e-05 2.72172e-05 -2.72108e-22)
(0.0245721 0.0194616 0)
(-0.0248504 0.00564413 0)
(-3.29517e-05 -7.08867e-05 -2.46262e-22)
(0.0883198 0.0401194 0)
(0.0715748 0.111049 -2.92239e-20)
(9.45674e-06 7.11269e-06 8.78089e-22)
(-0.0133795 -0.0617963 0)
(-2.13333e-05 1.45727e-06 0)
(0.0318464 0.00609099 -2.00057e-20)
(0.00612195 0.00473276 -4.37954e-21)
(6.05632e-05 0.000175516 7.98175e-23)
(0.00256882 0.00958714 -1.25375e-21)
(-0.0016968 -0.00649299 -1.30598e-20)
(-0.0434808 -0.0271947 -1.55872e-20)
(6.15437e-06 2.86791e-06 -7.73165e-22)
(0.000626692 0.002144 -7.45887e-21)
(-0.0548567 -0.109076 -4.76028e-21)
(-0.0507241 -0.0533518 -2.36026e-20)
(0.0327841 0.0102057 5.17145e-22)
(-6.41306e-05 5.34165e-05 -3.42391e-21)
(-0.00388961 0.0226173 -7.29437e-22)
(0.0234715 -0.00516486 0)
(-0.122607 0.0318745 0)
(-3.98449e-05 4.11573e-05 -5.52475e-21)
(-0.00124372 0.00122238 0)
(-1.4561e-05 0.000571979 -2.6976e-21)
(-0.000108127 -8.38377e-05 -1.92228e-21)
(-0.000136174 6.99236e-05 5.19708e-21)
(-3.04735e-05 1.58254e-06 -4.93617e-23)
(-9.32303e-06 4.25827e-05 -8.37493e-23)
(-0.0232075 -0.0479327 -2.98676e-21)
(-0.00339732 0.00755143 -4.24658e-23)
(-5.48057e-05 -2.60042e-05 2.88987e-22)
(-1.14969e-05 2.864e-05 1.74676e-24)
(-6.87367e-06 -5.21641e-06 7.25611e-22)
(-0.000160851 -9.79979e-05 -9.82858e-21)
(-0.0429776 -0.0488262 4.07191e-20)
(0.0198197 -0.00128416 0)
(-3.49793e-05 -5.36755e-05 4.65022e-22)
(-0.00243302 -0.00494263 -1.33047e-20)
(0.000117949 -3.82761e-05 0)
(0.000142803 3.63845e-05 8.29454e-21)
(0.000241653 0.00153432 1.14938e-21)
(-8.99588e-05 -2.12452e-05 8.77464e-22)
(0.0150338 0.00650485 4.72599e-21)
(-7.29769e-06 1.39597e-05 0)
(-8.90418e-05 -7.93805e-05 2.75272e-21)
(-1.92792e-05 2.25436e-06 0)
(-0.000370156 4.57657e-05 4.48034e-21)
(-0.00365418 0.00341775 -4.61737e-21)
(0.00263346 -0.00107753 0)
(0.0760553 0.0307759 1.2948e-20)
(0.0954631 -0.123358 0)
(-0.00219473 0.00281495 8.95708e-21)
(-8.37065e-05 -0.000104494 0)
(0.0449456 0.00954717 -1.65642e-21)
(6.16513e-06 6.42513e-05 6.73953e-23)
(-9.81015e-06 1.68973e-05 1.88559e-24)
(0.00255469 0.000392752 -3.57244e-22)
(0.0288465 0.0149098 1.55109e-21)
(0.00425862 0.003594 -2.13163e-20)
(0.00226246 0.000941861 4.2648e-22)
(2.59292e-05 8.80377e-05 0)
(-1.09949e-05 3.31201e-05 2.34257e-22)
(0.00474086 0.00139131 -8.29858e-21)
(-1.64251e-05 -4.8659e-05 0)
(0.00275811 0.00672422 1.34795e-20)
(-0.000133616 -7.93965e-05 0)
(-0.000419115 -0.000136575 -1.39471e-20)
(-0.000136723 6.77597e-05 -1.68785e-23)
(-0.0012131 0.00144876 -8.65739e-21)
(-0.0918733 -0.0161059 -1.03275e-20)
(-8.5906e-05 -8.16661e-05 1.42571e-21)
(-0.000654056 1.77565e-05 1.64092e-20)
(-4.09899e-05 4.18871e-06 -2.16054e-23)
(0.00468668 0.0392421 4.95138e-21)
(-0.0532815 0.0797024 -2.77295e-21)
(0.00106762 0.00371526 0)
(0.000332727 -0.000577772 1.44459e-20)
(0.00182928 -0.00722944 5.29371e-21)
(-0.00447184 -0.00620024 -8.89986e-21)
(0.0127198 0.00394961 -5.98582e-21)
(-0.0456748 -0.0773458 6.61001e-21)
(-3.37039e-05 -3.14025e-06 2.09792e-23)
(-0.0457783 0.0268707 5.83871e-22)
(-0.000662756 -1.31382e-05 -6.0677e-21)
(0.0657011 0.0312718 1.21053e-22)
(-0.00135414 -0.00110622 -5.15888e-21)
(2.24093e-06 -8.25676e-06 0)
(0.0002685 0.000202514 -1.27388e-22)
(-0.0277493 0.0805635 2.28869e-20)
(0.000223842 0.000179857 -2.71321e-22)
(0.00113968 0.00525821 -1.24682e-20)
(0.00403919 -0.00897432 -3.18547e-22)
(0.0571698 0.014653 -1.81645e-21)
(0.00522608 -0.0175749 3.60099e-20)
(-6.58821e-05 -2.08753e-07 -1.87359e-21)
(-6.55626e-05 -1.28138e-05 4.63846e-22)
(-1.94287e-05 4.19895e-06 -2.26742e-22)
(-0.000186777 -4.9159e-05 -7.27736e-21)
(0.00259277 0.00481684 5.5951e-21)
(0.0117579 0.0584465 -1.33043e-20)
(0.0593148 0.019419 0)
(-0.00482189 0.0209159 0)
(-0.000157974 0.000125854 -5.58072e-22)
(-1.47693e-05 -5.7755e-05 -9.36295e-23)
(-9.67917e-05 -5.91825e-07 -7.22601e-23)
(-0.000121242 5.41955e-05 2.55115e-21)
(-1.09295e-05 -2.46172e-05 -3.48634e-22)
(-0.000552776 0.000179804 -3.69861e-21)
(0.00398547 0.0163129 -1.34204e-20)
(-0.00267593 0.0071861 0)
(0.0328652 0.0201147 3.44681e-21)
(-0.000112394 9.68722e-05 5.46236e-22)
(-8.71242e-05 3.69767e-05 0)
(0.01376 -0.0119332 -3.21463e-21)
(-0.000102059 0.000115004 -6.23587e-21)
(0.0574548 0.00353157 -1.58439e-20)
(-0.00121027 0.0183592 0)
(-0.0220307 0.00497098 1.34071e-20)
(0.0426744 0.0328251 0)
(0.12073 -0.0529509 0)
(0.0110185 0.00398773 -6.83814e-22)