/*--------------------------------*- C++ -*----------------------------------*\
| =========                 |                                                 |
| \\      /  F ield         | OpenFOAM: The Open Source CFD Toolbox           |
|  \\    /   O peration     | Version:  v2012                                 |
|   \\  /    A nd           | Website:  www.openfoam.com                      |
|    \\/     M anipulation  |                                                 |
\*---------------------------------------------------------------------------*/
FoamFile
{
    version     2.0;
    format      ascii;
    class       volScalarField;
    location    "150";
    object      omega_0;
}
// * * * * * * * * * * * * * * * * * * * * * * * * * * * * * * * * * * * * * //

dimensions      [0 0 -1 0 0 0 0];


internalField   nonuniform List<scalar> 
18355
(
2.31207
0.0204289
0.199597
0.0209809
0.070913
0.0798206
0.0216431
0.0972042
0.0220241
0.264452
0.0259614
0.125314
0.1336
0.624911
0.0210331
0.0201942
0.0209737
0.0243544
0.153748
0.022599
1.91774
0.0219151
0.0204635
0.0685294
0.0204698
0.0221595
0.021655
0.0210166
0.0223123
0.0266998
0.110787
0.0407265
0.0203426
0.0200678
0.0212322
0.0220883
0.026325
0.0221576
0.0271627
0.0219146
0.0222738
0.0265575
0.0200845
0.0204162
0.020427
0.243315
0.0209923
0.0209815
0.110333
0.0212319
0.020859
1.54957
0.0212861
0.131177
0.0212857
0.0226868
0.0212432
0.249666
0.0222599
0.854451
0.0200769
0.0850632
0.126601
0.0213062
0.048481
0.0206298
0.0234814
0.0264265
0.0200243
0.476934
0.0209456
0.0212869
0.0349163
0.0253619
0.489892
0.020042
0.218791
0.0200524
0.020916
0.431764
0.0234647
0.207489
0.0200343
0.0243
0.041485
0.0217773
0.0223101
0.0345868
0.0208795
0.0346329
0.633761
0.422482
0.138771
0.0212325
0.425028
0.0210074
0.0208662
0.0216833
0.0707147
0.0218459
0.0397514
0.0208839
0.0211863
0.0195127
0.0236411
0.0202072
0.0487595
0.363612
0.0298131
0.0201496
0.0208608
0.0215308
0.0307488
0.0240863
0.283407
0.0267458
0.0208602
0.462865
0.0228192
0.0233376
0.338963
0.206802
0.705458
0.0391249
0.422381
0.285503
0.0216925
0.020975
2.34404
0.0216647
0.0208698
1.5787
0.0212744
0.0766788
0.0842923
0.0208716
0.158156
0.590143
0.0211215
1.06825
0.0245279
0.0294826
0.0209569
1.43206
0.0858792
0.0216457
0.558009
0.0196068
0.0306531
0.233109
0.0210092
0.0232517
0.0214153
0.0264644
0.0200946
0.0205191
0.0209811
0.0217897
0.0209652
0.0206161
0.0247342
0.0212821
0.0201567
0.030081
0.0258552
0.060928
0.891397
2.1795
1.57749
0.024538
0.0214224
0.0726319
0.021691
0.131832
0.0213294
0.0220184
0.0213802
0.0195273
0.0225217
0.0271327
0.0218656
0.0541566
0.021794
0.0210399
0.0429918
0.02118
0.0217923
0.0336096
0.0213483
0.0217888
0.267893
0.0706926
0.0204596
0.0200567
0.02138
0.278455
0.0205623
2.127
0.0204395
0.646248
0.0211397
0.0232526
0.0274856
0.0217122
2.24041
0.0215778
1.30351
0.0210347
0.0202921
0.0213935
0.0215726
0.0517539
0.0220083
0.0218871
0.0196186
0.237911
0.0271465
0.0246949
0.0215962
0.0209949
0.0291146
0.0199737
0.0330323
0.011743
0.0550668
0.0242642
0.0199956
0.593471
1.00684
0.0317033
0.021414
0.0236494
0.0824309
0.0199889
0.0305552
0.0488193
0.0219616
0.257874
0.0243747
0.0220358
0.0204563
0.0224611
0.0217796
0.0304677
0.021575
0.0212911
0.0209837
0.0528575
0.0598313
0.0210295
0.022283
0.05579
0.158218
0.0154337
0.0195307
0.0453663
0.0243456
0.0216722
0.0243123
0.0208127
0.212871
0.34804
0.0644013
0.0286849
0.0281909
0.0339913
0.0288339
0.0774126
0.0208054
0.0212929
0.0219521
0.0201469
0.0232662
0.0248895
0.0209776
0.0215723
0.0311445
0.0208572
0.0691293
0.737716
0.0292611
0.0216021
0.0274592
0.0201354
0.0353347
0.0215277
0.0279561
0.0218329
0.0275276
0.256594
0.0203184
0.04327
0.0226766
0.022265
0.0262837
0.0213166
0.0200396
0.0634338
0.0215715
0.031017
0.0264281
0.400905
0.0364408
0.0665573
0.0237275
0.0322524
0.0211696
0.0236787
0.028337
0.0431171
0.0323679
0.263981
0.0210745
0.0238831
0.107828
0.0279453
0.0210694
0.0209738
0.020995
0.0475938
0.26205
0.384558
0.054569
0.0308167
0.0243037
0.0481411
0.0196041
0.0215583
0.0242771
0.021367
0.0315984
0.0210786
0.143713
0.0202294
0.389296
0.0213078
0.0218627
0.024096
0.140832
1.99043
0.0303996
0.0418643
0.0219386
0.0208917
0.021357
0.0241943
0.256353
0.0209156
0.0215131
0.130893
0.0218645
0.0209177
0.157676
0.0236932
0.0209894
0.0213127
0.0285629
0.0222388
0.0285169
0.0200492
0.0213671
0.0218078
0.273993
0.0835256
0.0200285
0.0209433
0.0279072
0.0210027
0.0215249
0.0508392
0.103062
0.0329264
0.0213416
0.0219973
0.135552
0.021969
0.0586368
0.023768
0.0202626
0.0293988
0.0200611
0.0217294
0.0212983
0.0243846
0.0215459
0.0235198
0.0213801
0.054185
0.0216849
0.0230615
0.0209261
0.0209964
0.0230707
0.0222233
0.0657822
0.383587
0.101988
0.0227539
0.152025
0.0276685
0.021316
0.0210521
0.0404403
0.0213477
0.0344098
0.021509
0.0273199
0.0453011
0.0393191
2.04093
0.0669982
0.0195197
2.70051
0.021844
0.0209685
1.91324
0.0212902
0.0282288
0.0206379
0.0537288
0.0212846
0.0710035
0.460165
0.0601465
0.0212837
0.0204591
0.0626413
0.0228104
0.0210397
0.189247
0.280609
0.020962
0.0417099
0.0659541
0.0204545
0.0221838
0.0293408
0.166735
0.036235
0.0218709
0.0212131
0.0356679
0.0212717
0.0201924
0.0212016
0.060905
0.390773
0.0202448
0.0222264
0.0214297
0.14935
0.0210306
0.0200421
0.0283524
0.0338585
0.0214819
0.272067
0.0861411
0.0218334
0.0213938
0.0351245
0.156635
0.189445
0.0202223
1.99904
0.0211642
0.020239
0.0388426
0.0229184
0.0566652
0.0346738
0.0231779
0.02589
0.0219198
0.15288
0.0229627
0.0276834
0.0219066
0.0201997
0.0217225
0.0202158
0.085407
0.396212
0.0539558
0.0247883
0.0216243
0.021912
0.0215563
0.0237479
0.0221425
0.0200313
0.0213877
0.0359866
0.0204622
0.0221002
1.99556
2.1184
0.113591
0.0216416
0.0220401
0.029364
0.0218761
0.22135
0.226091
0.0235555
0.0244316
0.0258836
0.0222203
0.0234151
4.1873
0.0295378
0.0219025
0.281477
0.021622
2.06872
2.89818
0.0247755
0.0221227
4.26096
0.0209845
0.0676844
0.0411818
0.355099
0.0229861
0.0217029
0.0214681
0.398241
0.147706
0.348951
0.433537
0.0234709
0.0214555
0.0242716
0.0212989
0.0232575
1.71586
0.345622
0.41904
0.110399
0.027274
0.0383219
0.0319117
0.0210001
0.0211538
0.0280644
0.023895
0.0215446
0.0212967
0.467151
0.0208502
0.116203
0.0245409
0.0786927
0.142576
0.0211602
0.0241262
2.30826
0.0213811
0.339017
0.021178
0.0720246
0.0294749
0.0218891
0.0318014
0.0762915
0.0692781
0.0219432
0.0200109
0.033926
0.0250123
0.0799582
0.0213759
0.0873616
0.0208425
0.216738
0.0213377
0.0211714
0.19423
0.0249828
0.0384882
0.021155
0.024761
0.0229728
0.147505
0.399505
0.023951
0.0331517
0.0212304
0.0271959
0.0217642
0.023802
4.00842
0.0204206
0.0830951
0.0215689
0.0213027
0.0238755
0.196777
0.0239263
0.0693048
0.0223978
0.0352274
0.46272
0.0196126
0.0209909
2.22049
0.0335305
1.9389
0.0355874
0.0217514
0.0213024
0.0209903
0.0253561
0.0220492
0.0203779
0.13212
1.66431
0.0211555
0.434515
0.192912
0.0249835
0.211647
0.0202097
1.982
0.308894
0.0196725
0.467867
0.0384149
0.312127
0.248506
0.0211205
0.0209886
0.0216047
0.0241475
0.0465327
0.0213063
0.021948
0.128195
0.0217982
0.0396205
0.0210835
0.0362603
0.432277
0.403871
0.148545
0.423407
0.0349076
0.215539
0.0243965
0.0209233
0.0260411
0.254275
0.0264502
0.0451193
0.0212962
0.413802
0.0214053
0.0218019
1.84666
0.0217653
0.0264362
0.0281488
0.0620644
0.0214745
0.0212915
0.0237926
0.0250893
0.0199683
0.0226806
0.0336636
0.142066
0.0230073
0.0213096
0.0375717
0.464913
0.0212395
0.432768
0.267333
0.0214726
1.68697
0.0200023
0.203505
0.0213498
0.0206417
0.194971
0.0231789
0.129994
0.022899
0.021296
1.71356
0.0213458
0.0201308
0.0215168
0.0209337
0.0268509
0.0332266
1.96566
0.0221495
0.449877
0.0229763
0.430008
0.698466
0.0222031
0.0213514
0.0247139
0.0201868
0.111738
0.0211979
0.0201092
0.0201409
0.0212933
0.021372
0.231957
0.0252636
0.0451609
0.0226849
0.0237948
0.0243725
0.0249343
0.377253
0.0204646
0.0833573
0.0393957
0.020011
0.452047
0.249106
0.0208054
0.429043
0.0212807
0.0656686
0.0350357
0.0196565
0.0345143
0.0256293
0.428732
0.0209439
0.0240724
0.40895
0.0729363
0.0457552
0.021367
0.25087
0.0756386
1.86975
0.0213745
0.0227262
0.0210487
0.0214963
0.021066
0.0210907
0.0204143
0.430676
0.0259863
0.0208682
0.0200601
0.0206442
0.0218283
0.068104
0.0746561
0.0203144
0.0251557
0.0215602
0.0215903
0.0215308
0.0209536
0.0338867
0.0200559
0.0208917
0.0218203
0.0216161
0.0229958
0.0220651
0.261096
0.139257
0.0240194
0.0208739
0.151529
0.0200985
0.020063
0.0220073
0.0445665
0.0247319
0.021627
0.0201657
0.0204481
0.0258687
0.0200165
0.0269422
0.0211892
0.0217623
0.0210647
0.0226561
0.655131
0.0209165
0.0218589
0.0211413
0.167213
0.362419
0.0265504
0.0220561
0.0275355
0.0248503
0.0326108
3.87446
0.0217553
0.337102
0.0218821
0.0982774
0.0220396
0.0202731
0.0200886
0.505502
0.0200344
0.0267912
0.0224971
0.170501
0.0369629
0.0223834
0.0210101
0.0209829
0.0212241
0.0280742
0.103286
0.061745
0.0427324
0.0215356
0.0200129
0.0226413
0.0210662
0.0208212
0.0217913
0.0449781
0.0248484
0.0520358
0.0215295
0.0214406
0.0336981
0.0213042
0.15738
0.043969
0.0363119
0.137327
0.707794
0.0293012
0.0209896
0.0200205
0.0216776
0.0212275
0.438927
0.046329
0.107229
0.0203056
0.0215939
0.0232211
0.0208395
3.75634
0.20646
0.0200592
0.0200693
0.0209954
0.0210721
0.0209244
0.0213138
0.22236
0.0199817
0.0219582
0.0203123
0.0205923
0.0210742
0.0214755
0.0264459
0.0205862
0.0247673
0.0201598
0.112205
0.209867
0.0240715
0.054658
0.0226989
0.0218845
0.068744
0.271387
0.0213224
0.0206899
0.0204788
0.0278919
0.0220362
0.0294439
0.0420686
0.021518
0.0220156
0.0214875
0.10423
0.0750765
0.0221378
0.0205942
0.0242343
0.0362158
0.021146
0.0696982
0.0207725
0.0199661
0.0241336
0.649821
0.436054
0.0700428
0.228223
0.0200542
0.0290695
0.0595184
0.0248559
0.0212175
0.0602521
0.0236071
0.18602
0.807849
0.0208254
0.0200617
0.0214837
0.0219239
0.0200637
0.00861645
0.111191
0.0201072
0.0215437
0.0219696
0.0364639
0.0212572
0.0208858
0.0302568
0.0219526
0.0207237
0.045204
0.0927887
0.0836171
0.0212257
0.0202366
0.0201205
0.0211795
0.0243241
0.0273906
0.0208792
0.0205651
0.0228266
0.285904
0.0204629
0.0214202
0.0666091
0.0209243
0.0207632
0.0213491
1.93842
0.020215
0.0214503
0.0204657
0.0229618
0.0202281
0.0251802
0.144106
0.0214205
0.161947
0.0277727
0.221674
0.0546064
0.0209919
0.0253906
0.0208507
0.0207469
0.0210037
0.423814
0.279513
0.0310326
0.02656
0.477961
0.0714777
0.0221811
0.0992136
0.0482762
0.0233248
0.0200579
0.539728
0.0222216
0.0207094
0.0203962
0.251474
1.73554
1.83004
0.0207138
0.0931069
0.321471
0.0243164
0.0311551
0.0242
0.0232482
0.0338321
0.0636548
0.0230896
0.0222672
0.0252101
3.02165
0.226307
0.021248
0.021482
0.0211013
0.332082
0.0237997
0.0219853
0.477428
0.0251547
0.0353924
0.0241837
0.23079
0.0206782
0.0974718
0.0220686
0.0200681
0.0209911
0.0201097
0.0200778
0.0209022
0.0217267
0.219106
0.0204529
0.0962219
0.0261087
0.0216803
0.0207582
0.0893712
0.0212
0.0215337
0.0230722
0.187092
0.0499777
0.0231552
0.0215359
0.322512
0.0206734
0.0383908
0.0215177
1.75614
0.0320617
0.28392
0.0254292
0.0210399
0.0305004
0.199619
0.195791
0.020562
0.0213423
0.0367533
3.90064
0.0195722
0.0464856
0.0208556
0.026539
0.020871
0.0200479
0.0220335
0.02211
0.0200215
0.0353217
0.0329779
0.0240955
0.133476
0.775226
0.0221739
0.190802
0.020128
0.110643
0.326266
0.168435
0.0200242
0.0225799
0.0214971
0.248835
0.0211518
0.020758
0.08975
0.0215202
0.0215244
0.0222013
0.022021
0.021252
2.85828
0.363192
0.0633223
0.0207576
0.0214611
0.182144
0.0201403
0.208675
0.0216226
0.0214832
0.0219858
0.0234861
0.230742
0.0208666
0.0214781
2.12891
0.0215986
0.0217916
0.036998
0.360336
0.082379
0.02143
0.0210772
3.38099
0.333518
2.2972
0.02282
0.0334221
0.205868
0.0203456
0.0318333
0.0231119
0.420292
0.0236291
0.0215008
0.0222023
0.0200319
0.355846
0.0214672
0.0203862
0.34861
0.0284458
0.0377132
0.0199836
0.0226011
0.020032
0.0196415
0.0202005
0.0221824
0.0216231
0.0218786
0.0200208
0.0217644
0.0449187
0.0274031
0.0264453
0.0206642
0.0240354
0.021072
0.241531
0.0216625
0.0220468
0.0215608
0.0200961
0.0218288
0.0214495
0.0211883
0.0212431
0.0208378
0.0202066
0.308649
0.412613
0.0212642
0.350981
0.0343718
0.0217429
0.0216992
0.0221625
0.397658
0.0218204
0.0201186
0.0200994
0.0200335
2.22512
0.0212923
0.0202778
0.176911
0.0200186
0.0197498
0.027262
0.0283988
0.0677185
0.144087
2.00125
0.02007
1.00072
0.0248761
0.0212372
0.0204229
0.0242301
0.0212853
0.0277923
0.05789
0.0233891
0.02201
1.11272
0.0772998
1.99511
0.0806603
0.363389
0.0695474
0.0206508
0.221585
1.97364
0.0201266
0.972296
0.0207094
0.0223187
0.140348
0.0207426
0.249603
0.024973
0.022794
0.0219911
0.0377416
0.0213775
0.0922252
0.021243
0.0201851
0.398024
0.0197579
0.0224989
0.0218498
0.0513842
0.0212026
0.0214194
0.0229313
0.250817
0.0212224
0.0212838
0.0202286
0.0235481
0.0211875
0.0223085
0.0278959
0.0209811
0.025788
0.0217152
0.0233637
0.0221303
0.0209438
0.0219165
0.0992957
0.021592
0.021699
0.0241695
0.26405
0.0221915
0.0211311
0.0214278
0.025498
0.0688664
0.0225471
0.0210237
0.020972
0.0205675
0.0196289
0.0200406
0.0257711
0.0292695
0.0531968
0.0215474
0.537668
0.0206543
0.0216472
3.84675
0.0457475
0.0199764
0.0747815
0.0207826
0.0210188
0.404302
0.0218713
0.0380932
0.0197408
0.14611
0.020413
0.0200087
0.0202553
0.0199513
0.0731252
0.0215626
1.12895
0.0202333
0.0209287
0.0207418
0.148585
0.021251
0.0206568
0.023461
0.0226749
0.0212736
0.0214577
0.0208004
0.0217818
0.0215414
0.0208495
0.0238594
0.0200018
0.852018
0.0662643
0.0202113
0.0473264
0.0255329
0.0209403
0.0206679
0.0219629
0.020764
0.0284942
0.0246097
0.0245834
0.0196363
0.0217087
0.0745766
0.15106
0.0212278
0.0217699
0.0869015
0.0232015
0.256003
0.0202146
0.0202947
0.0226637
0.0226261
0.021383
0.0255996
0.0209522
0.0198284
0.0212539
0.0231067
0.0208105
0.120174
0.0213228
0.0239919
0.0282255
0.0210307
0.420374
0.416804
0.0232667
0.0262804
0.0269338
0.0198805
0.0465242
0.0214397
0.0322841
0.503879
1.55588
0.0357267
0.0189723
0.0261194
0.0210153
0.0282691
0.0204922
0.316559
0.0280037
0.0215583
0.0208098
0.0452227
0.0340474
0.0212302
0.0212291
0.291112
0.0216818
0.0206482
0.679616
0.0529662
0.0201149
0.807677
0.0203122
0.0396444
0.0561363
0.0212687
0.0214374
0.0235042
0.447457
0.0207949
0.0252791
0.0214414
0.0212765
0.0208317
0.598381
0.0217478
0.0214189
0.0211183
0.211315
0.0255459
0.0208106
0.0197797
0.109543
0.0211577
0.0204442
0.0622439
0.734616
0.0219139
0.256396
0.0238277
0.0472299
0.022724
0.057786
0.416646
0.0216069
0.0232502
0.0203149
0.0239132
0.0212089
0.501876
0.100626
0.0205348
0.0221563
0.0203385
0.0200517
2.48298
0.0212185
0.0226398
0.0226383
0.0502261
0.0214566
0.0216933
0.0246115
0.406141
0.0215264
0.0214301
0.0203682
0.0204923
0.0237076
0.0458479
0.0215804
0.0211282
0.0212984
0.0211213
0.0203222
2.80413
0.0217567
0.0210607
0.0210996
0.060093
0.0202908
0.0204463
0.0336097
0.0209315
0.0495747
0.0212569
0.0214346
0.146986
4.49924
1.79951
0.0335081
0.023271
0.0218341
0.448735
0.020646
0.0246507
0.0200099
0.559499
0.0195053
0.023821
0.0214659
0.677377
0.0358679
0.031985
0.407439
0.0223565
0.0481923
0.0217251
0.0220216
2.64261
0.0336831
0.0211804
0.0203047
0.0233944
0.0265891
0.0214281
0.021299
0.0206384
0.0199292
0.172604
0.243326
0.0217196
0.0203839
0.388663
0.901306
0.0230313
0.022533
0.0229451
0.0241967
0.021209
0.0227237
0.0301674
0.0209139
0.0203271
0.0215141
0.0130321
0.213249
0.024866
0.021552
0.0216121
0.0256377
0.0213434
0.0253318
0.0371143
0.174787
0.023208
0.42833
0.0201173
0.0212345
0.0218425
0.0200453
0.0216017
0.0208619
0.0346702
0.0210119
0.251806
0.021411
0.0206438
0.0204012
0.0237816
0.0224522
0.0444851
0.0523126
0.020165
0.274767
0.0211656
0.0204349
0.0198168
0.33066
0.208945
0.0198397
0.0208159
0.0207749
0.0226034
0.172951
0.143865
0.0233475
0.0219414
0.141048
0.422809
0.0219784
0.0211488
0.244362
0.0236058
0.050757
0.0235388
0.0211531
0.0615728
0.0124262
4.58765
0.00973172
0.591869
0.0203174
0.0209292
0.0217921
0.021498
0.0234804
0.0216901
0.0215547
0.0207946
0.0217814
0.0225853
0.0217717
0.0211866
0.0227597
0.0219385
0.0213401
0.0208813
0.0339317
0.0163706
0.0209225
0.0215191
0.167561
0.021501
0.0217148
0.021959
0.721233
0.0204325
0.0376837
0.0225572
0.0201865
0.0210765
0.332663
0.299203
0.0220418
0.0221447
0.0234918
0.0352606
0.0208754
0.0264255
0.0380902
0.0210594
0.104012
0.0208253
0.0213329
0.021182
0.0217525
0.0283406
0.0627675
3.22068
0.0244934
0.0201961
0.0214494
0.0211273
0.0498673
0.0219399
0.364507
0.0208239
0.0213728
0.0213578
0.0745485
0.0209789
0.0215741
0.0212622
0.139197
0.0204302
1.99551
0.0203428
0.028542
0.0213451
0.0290373
0.0209957
0.0234255
0.60879
0.0291826
0.020203
0.0408234
0.0215159
0.0214433
2.34117
0.59186
0.0203228
0.0212492
0.0232935
0.0202494
0.0211156
0.0218664
0.0217007
0.0226265
0.0513296
0.0221372
0.0258153
0.0227376
0.0216925
0.0209881
0.0211816
0.0227628
0.0275153
0.0213926
4.03555
0.0207422
0.481255
0.037411
0.0201781
0.0207317
0.0207087
0.065776
0.0213785
0.0237072
0.0215076
0.0206769
0.555033
0.0227137
0.0290761
0.0216599
0.0214673
0.0226528
0.0212414
0.0226899
0.0213685
0.022801
0.0219744
0.0218911
0.307023
0.0248583
0.394491
0.0210003
0.0279731
0.0224154
0.309788
0.0614714
0.904444
0.0225846
0.019981
0.0407384
0.0209046
0.37327
0.0221363
0.0483273
0.0224358
0.346979
2.04797
0.0233472
0.0295382
0.0207497
0.0205398
0.0218947
0.0198959
0.0217311
0.0228698
0.0207873
0.0248334
0.0181216
0.304854
0.0208996
0.115207
0.0201021
0.021195
0.0211558
0.0971157
0.021643
0.0480222
0.0217542
0.0210829
0.490944
0.0208848
0.0235504
0.0210534
0.0234692
0.861732
0.0255641
2.79529
0.0205962
0.0591955
0.022845
0.021123
0.0211642
0.0278012
0.0243387
0.0212783
0.022659
0.0213262
0.310273
0.0206522
0.363973
0.215668
0.0671161
0.0249043
0.109114
0.0264258
0.0199159
0.20963
0.0211929
0.0851258
0.0218536
0.022565
0.27604
0.263287
0.0259485
0.121839
0.0213863
0.275846
0.0195576
1.7392
0.0201541
0.0229678
0.0423344
0.0209392
0.0207206
0.0219743
0.0212676
0.0352189
0.25804
0.0311829
0.352079
0.0207219
0.641201
0.0214443
0.0217065
0.021047
0.0212029
0.356382
0.021614
0.0205702
0.0367565
0.0218116
0.299007
0.0641954
0.021269
0.0209919
0.0331331
0.0208583
0.0214377
0.023933
0.0203239
0.0558715
0.0272294
0.0227225
0.0228422
0.0204439
0.0213161
0.0580489
0.0220198
0.0214502
0.0222451
0.0198372
0.0201331
1.91287
0.0266121
0.427993
0.0263872
0.0523177
0.0267366
0.0211178
0.0257305
0.0204737
0.0209838
0.101082
0.0241713
0.0209239
0.0454917
0.0235361
0.272821
1.02881
0.021084
0.0246075
0.0397069
0.801673
0.0203153
0.0204088
0.0217103
0.0240912
0.299594
0.0247205
0.0235724
0.0218442
0.0211761
0.0199763
0.12085
0.0237671
0.0226214
0.387811
0.0216379
0.0229508
0.0244426
0.0214874
0.0212404
0.0210091
0.0535083
0.103217
0.0218931
0.0230818
0.29075
0.0209269
0.0219762
0.0233809
0.021592
0.340246
0.415089
0.0399882
0.074391
0.71647
0.0226925
0.0208478
0.0680518
0.0206889
0.0263951
0.0210416
0.0201855
0.295365
0.0267691
0.0210829
0.0207521
0.026706
0.220169
0.0231172
0.0200029
2.45552
0.0228164
0.0357056
0.0201384
0.026905
0.0195834
0.0226928
0.0255852
0.0211745
5.31613
0.021974
0.0347
0.0978244
0.296173
0.0845056
0.0211999
0.0627943
0.0242
0.0243422
0.0224861
0.0227557
0.021448
0.0226292
0.10196
0.0227567
0.153265
0.0207857
0.210284
0.0202945
0.0219055
0.238626
0.0243222
0.211824
0.023195
0.0220987
3.67347
2.4722
0.02087
0.411929
0.0331629
0.0207251
0.0198345
1.82673
0.307162
0.020475
0.0202803
0.0207051
0.0202342
0.409656
0.328229
0.0195188
0.0198038
0.0208659
0.238576
0.04697
0.248207
0.0201933
0.303481
0.0215909
0.055084
2.77797
0.024058
0.0205851
0.0204891
0.259766
0.020343
0.021046
0.0202046
0.0247955
0.0228579
4.1233
0.0247265
0.0218081
0.0211984
0.0261774
0.19216
0.0405726
0.0211233
0.0208795
0.152941
0.0492638
0.0219767
0.603307
0.0283086
0.0229628
1.93129
0.0226759
0.0255519
0.0218227
0.0416565
0.0214255
0.0218184
2.22705
0.027226
0.021052
0.0213519
0.0195913
0.0365734
0.108302
0.0209775
0.020273
0.022161
0.0685715
0.0218089
0.0202009
0.0212455
0.0206568
0.0257287
0.0417074
0.0214425
0.0209451
2.43983
0.0211102
0.183428
0.0288081
0.0301271
0.0234533
0.0227031
0.0214819
0.258495
0.0801529
0.0714371
4.32331
0.0283138
0.0208782
0.307567
0.0202153
0.0766404
0.425444
0.0248985
0.0211314
0.0235139
0.074114
0.021203
0.0210076
0.363414
0.0212649
0.0236716
0.0206454
0.0216926
0.0203293
0.059292
0.129251
0.0201412
0.0210249
0.97328
0.0211934
0.0198918
0.0209996
0.0208286
0.957478
0.0251762
0.0230465
0.0224011
0.0219745
0.01998
0.0355545
0.106276
0.0259315
0.257928
0.0238136
0.0235631
4.19332
0.02089
0.0203668
0.0210747
0.0208332
0.0218249
0.0197574
0.0221108
0.408923
0.0211963
0.0210967
0.0227291
0.0208142
0.370288
0.0216778
2.82371
0.185443
0.00767959
0.028847
0.229029
0.0237308
0.0211775
0.0235233
0.0209535
0.0225753
0.0212209
0.0218004
0.29464
0.0202916
0.0213253
0.0407053
0.204572
0.0217034
0.0208468
0.186358
0.0224125
0.0147644
0.0213118
0.0208574
0.0210708
1.75787
0.0214594
0.201535
0.0504527
0.0139616
0.0208379
0.0210887
0.0235901
0.225712
0.0201481
0.0377457
0.0211015
2.85179
0.233407
0.0220907
0.169754
0.0215508
0.0230795
0.0235248
0.2875
0.0235727
0.0259642
0.0266247
0.36928
0.0217023
0.0360843
0.0214535
0.0096307
0.146894
0.165409
0.0209478
0.0282738
0.28365
0.436953
0.0230968
0.0235971
0.300013
0.298964
0.0208171
0.0551434
0.0211938
0.024165
0.0214813
0.0223145
0.0222368
0.374353
0.0216616
0.0218103
0.0561021
0.37128
0.0342617
0.128609
0.35332
0.0207851
0.300018
0.0628328
0.0210484
0.0211239
0.317854
0.023255
0.0214927
0.0212148
0.0362225
0.0206991
0.0212574
0.536775
0.0214639
0.0217483
0.0210425
0.0214045
0.0225033
0.0203634
2.54625
0.0152959
0.0231755
0.0204972
0.0287117
0.127505
0.0208949
0.0216984
0.296355
0.176811
0.0213534
0.0239821
0.0207076
0.0209366
0.0446237
0.167626
0.0209371
0.0210902
0.318224
0.57781
0.908225
0.0317749
0.0220328
0.197703
0.0207471
0.0245358
0.0237594
0.0205341
2.42712
0.852661
0.037422
0.0213396
0.62948
0.0198403
0.0198006
0.0228356
0.0318518
0.571526
0.0203366
0.0326349
0.9659
0.382228
0.0216419
0.0224502
0.268859
0.0209861
0.0236923
0.367042
0.0209633
0.0211977
0.0207039
0.286254
0.0209121
0.0241385
0.0219366
0.022411
0.0275525
0.394482
0.0211883
0.0211355
0.0287863
0.0217315
0.0220258
0.022088
0.106071
0.125868
0.0209933
0.0213478
2.99736
0.336292
0.751322
0.0207606
0.0213593
0.0228567
0.0215258
0.0212734
0.0214359
0.0204614
0.0218309
0.0206847
0.0207646
0.0541481
0.0233395
0.0268979
0.805174
0.0653149
0.0490537
0.0246719
0.046211
0.137982
0.0292844
0.0222275
0.0258986
0.0210699
0.225149
0.0201768
0.020282
0.0207008
0.394789
0.0208999
0.409877
0.0217944
0.0201281
0.0410542
0.0211733
0.0211496
0.021167
0.0248321
0.373769
0.0216182
0.0205436
0.0225869
0.852374
0.0481945
0.302151
0.0210421
0.0336546
0.0214915
0.0215444
0.0201888
0.0207258
0.0213581
0.0228937
0.32114
0.0232252
0.0238407
0.122179
1.02892
0.133208
0.0208511
0.0988861
0.0322372
0.520242
0.0204887
0.0206877
0.00960363
0.552059
0.0197949
0.021364
0.0207168
0.0203435
0.127396
0.0221742
0.056951
0.0212971
0.0197804
0.0186698
0.0214356
0.597167
0.0211004
0.0109973
0.0217864
0.026106
0.0220557
0.0613636
0.298255
0.0212169
0.0403022
2.29069
0.0211241
0.0215434
0.0414823
0.0197322
1.66853
0.0295453
0.020987
0.058105
0.0200153
0.0211813
0.0215939
0.02083
0.0202169
0.0221507
0.0206712
0.0207162
0.0215232
0.021889
0.0479715
0.0201776
0.134682
0.0205266
0.0209025
0.0271351
0.0443073
0.0220523
0.0197285
0.0212004
0.0224493
0.0432136
0.649327
0.032737
0.0219239
0.0219501
0.0207541
0.0285796
0.0209367
0.0224616
0.35992
0.254136
0.0470279
0.0210502
0.0218037
0.0221397
0.0197351
0.0422605
0.0201161
0.114524
0.0219708
0.170779
0.0257502
0.369946
0.0215733
0.0630381
2.03058
0.312129
0.376023
0.0245654
0.279019
0.32237
0.0218692
0.0341143
0.403038
0.0217438
0.0207517
0.0213363
0.0238599
0.0532759
0.0214723
0.0239209
0.569041
0.0195185
0.0214684
0.304312
0.307301
0.103134
0.380207
0.35632
0.0221248
0.0545078
0.023336
0.0236497
0.0921901
0.022494
3.866
0.0399301
0.0235785
0.0214157
0.0227159
0.010228
0.020486
2.0428
0.0197905
0.0212474
0.0212691
0.52822
4.18452
0.0603442
0.021303
0.0224417
0.020464
0.483679
0.0210338
0.0219891
0.0232884
0.0435664
0.0206765
0.0745014
2.89675
0.195556
0.0218157
0.0615324
0.0206717
0.107979
0.0198241
0.103308
0.0207341
0.0663365
0.0260252
1.00057
0.124048
0.0228129
0.0225708
0.0316813
0.0238405
0.0211043
0.0207074
0.0251157
0.0219048
0.270757
0.0195991
0.0210855
0.0214329
0.0214033
0.170755
0.0207387
0.0201209
0.0215279
0.0630733
0.0260683
0.0553331
0.0227288
0.0224854
0.0819305
0.0206742
0.02131
0.0683668
0.0440831
0.0201184
0.0324957
0.0228093
0.338778
0.0212485
0.154883
0.0209229
0.0212225
0.0202238
0.0201758
0.0211654
0.0210753
0.3027
0.0603796
0.02157
0.0213187
0.0211303
0.0221977
0.0263489
0.346201
0.0210023
0.0285771
0.0242814
0.325055
0.0216585
0.0418679
0.0212942
0.0212555
0.028052
0.0212217
0.0214525
0.0207059
0.020144
0.421776
0.0213846
0.0207309
0.0384317
0.394105
0.0424919
0.0217261
0.0198998
0.0236318
2.7356
0.023081
0.0217027
0.0215301
0.202059
0.0218692
0.0211311
0.50312
0.0208148
0.0245305
0.0229285
0.0215397
0.0201684
0.0534942
0.0256476
0.0206275
0.0212809
0.021364
0.0208992
0.0357641
0.0228488
0.0213969
0.0197728
0.0219997
0.020185
0.0212482
0.0771336
0.0206474
0.0241603
0.0235608
0.315878
0.0197304
0.0224582
0.0543798
0.0260783
0.176805
0.0209914
0.021492
0.181499
0.0214035
0.0201869
0.341721
0.0214159
2.08555
0.787278
0.0666216
0.35152
0.0214175
0.0262376
1.81021
0.0212489
0.0200027
0.319405
0.0970825
0.0208972
0.0201334
0.0227102
0.0203801
0.200179
0.0460641
0.974042
0.0214875
0.021651
0.0212245
0.0211194
0.506356
0.447636
3.88928
0.0243341
0.022479
2.44096
0.0213369
0.0208966
0.022659
0.0209294
0.021848
0.105501
0.0197322
0.407778
0.0218345
0.0219373
0.0213948
0.0261773
0.0204454
0.452467
0.0206932
0.021203
0.0226349
0.0201576
3.18976
0.0240535
0.0259157
2.68579
0.12615
0.0299254
0.372035
0.0213307
1.06143
0.026554
0.0206931
0.0223336
0.0217628
0.403233
0.474984
0.0214546
0.0233775
0.0334484
0.0210673
0.0205748
0.0240058
2.13408
0.598032
0.0215358
0.0220033
0.0925183
0.0228024
0.0700185
0.0688609
0.0650144
0.0201393
0.416164
0.0215321
0.289798
0.0561185
0.0340009
4.29317
0.298098
4.02728
0.0203567
1.07161
0.0199309
0.0197821
0.24215
0.0197623
0.0221695
0.0211491
0.0604879
0.0206153
0.140443
0.0201673
0.0274978
0.400197
0.0258441
0.024547
0.398981
0.0218183
0.0202311
0.0218631
0.0947498
0.0242138
0.136734
0.0214197
0.0254807
0.0217756
2.20634
0.0214193
0.0215692
0.0213698
0.577756
0.0314874
0.0215285
3.89298
0.0211024
0.0214259
0.0248502
0.535594
0.0213955
4.00755
0.021436
2.44557
0.0214292
0.0427199
0.0209861
0.0518308
0.0214279
0.0584459
0.0244722
0.0146262
0.0208968
0.0217505
0.308177
0.0203549
0.0238373
0.0267285
0.0200693
0.0584571
0.327029
0.138053
0.0220233
0.0197384
0.0211896
0.131096
0.0237211
4.91211
0.023836
0.307329
0.0236737
0.106824
0.0205398
0.0294515
0.124445
0.022887
2.15651
0.0235402
3.74563
0.166434
0.0207718
1.95525
0.0223913
0.0211424
0.0227286
0.0826472
0.0234237
0.160458
0.0248124
0.119804
0.0433546
0.0644262
0.0482943
0.296139
0.0214587
0.0215338
3.90632
3.77391
0.0359393
0.0234389
2.23929
0.256518
0.0232108
0.0214357
0.0212116
0.142215
0.0207093
0.020927
0.0326365
0.293162
0.0198245
0.0206149
0.0221826
3.47827
0.0205073
0.0243569
0.0198253
0.12424
0.0155938
1.10147
0.0218348
0.0206512
0.021336
0.0202695
0.554045
0.0346187
0.244603
0.021325
0.0282525
0.0202104
0.209919
0.182318
0.0504676
0.0207927
0.034366
0.0208889
0.0215852
0.312189
0.0210737
0.0238454
0.0507138
0.0201493
0.11623
0.0206966
0.0198345
0.021557
2.14782
0.0207944
4.39532
0.11435
0.349581
0.261967
0.0207078
0.480177
0.0666148
5.11674
0.0314557
3.67044
0.180015
0.0215665
0.0317178
0.0217393
0.0283798
0.0221371
0.022908
0.0212072
0.02534
0.370294
4.10461
0.0243125
0.0232422
0.833191
0.301785
0.0212097
0.0214323
0.594328
0.0354777
0.0205656
0.265021
0.0364258
0.0222571
0.0204754
0.022374
0.370497
0.0216273
0.0601106
0.0195919
0.847998
5.19339
0.0706002
0.0223401
0.0215676
0.0211847
0.0212728
0.0214739
0.0244412
0.0224937
0.0215987
4.17182
0.0208385
0.0214229
0.0210595
0.269716
0.371145
0.0212518
0.0214561
1.41153
0.0204823
4.18304
0.021528
0.0213731
0.0197288
0.0216186
0.0205977
0.0227396
0.0201542
0.222285
0.0217969
0.0800364
0.0213533
2.01481
0.021422
0.0243362
1.76896
0.185685
0.0213182
0.0214481
0.0317006
0.0197307
0.60124
0.39854
0.022542
0.0207607
0.0212373
0.0203232
0.0284311
0.317322
0.0364748
0.319417
0.0347474
0.0213716
0.0211877
0.0205308
0.869021
0.264977
0.0206561
0.0211325
0.0208138
0.0271023
0.0213792
0.307969
2.66877
0.0287253
0.0202752
3.65443
0.128544
0.0214464
0.0459919
0.0240926
0.0498967
0.0336595
0.0337255
0.0268964
1.83504
0.0320016
5.00258
0.0208558
0.0205192
0.0206996
0.020324
0.0215032
0.0279012
0.0204824
0.0251079
0.020008
0.257997
0.0209864
0.0280232
2.63627
0.0220682
0.0198059
0.0281483
4.50678
0.0212597
0.0206081
0.180459
2.10066
0.303815
0.0219979
0.0197393
0.235384
0.131526
0.0237269
0.0535364
0.0213973
0.0326718
0.0215224
0.12893
0.0206746
0.0215833
0.382574
0.020417
0.0229402
0.303816
0.055402
0.0206405
0.0206973
0.0207466
2.71218
0.0238327
0.0259969
0.0214284
0.0207866
0.126989
0.0309633
0.0211525
0.0212936
0.0197364
0.0230074
0.0205955
0.0227954
0.184634
0.282516
0.0235344
0.0382379
0.0208087
0.0393409
0.0212099
0.0215557
0.0207686
0.250412
0.0382662
0.020034
0.0228849
1.0784
0.0356712
3.74692
0.0511005
0.0212953
0.0207719
0.0277
0.0224341
4.18458
0.0205094
3.98561
4.28269
0.0209045
0.0375244
0.287155
0.025333
1.39066
0.1154
0.0219372
3.82429
0.0255036
0.0212034
4.00269
0.18863
0.103929
0.0217286
0.345857
0.276778
0.0213392
0.175526
0.326838
0.0213811
0.0206959
0.0218254
0.0200222
0.0215477
0.21352
1.8473
0.021426
0.0215267
2.76162
3.86663
0.0335715
0.0483875
0.0210536
0.0276811
1.92786
0.0483635
3.76017
3.72869
0.021256
0.0214576
0.0210466
0.0237321
3.36195
0.273479
0.0208098
0.0346394
0.372192
0.325605
0.0466483
0.0211389
0.0214944
0.0219441
0.24801
0.0224044
0.0352594
0.0283013
0.0220195
0.396363
0.0231338
0.0453019
0.145846
0.352854
0.0212205
0.0212086
0.0226399
0.0307542
0.218662
0.245039
0.0218754
2.65159
3.07157
0.0309438
0.0317214
0.421664
0.301082
0.255271
0.311285
0.0213263
0.347887
0.930777
0.0296972
0.0269734
0.131036
0.0226821