/*--------------------------------*- C++ -*----------------------------------*\
| =========                 |                                                 |
| \\      /  F ield         | OpenFOAM: The Open Source CFD Toolbox           |
|  \\    /   O peration     | Version:  v2012                                 |
|   \\  /    A nd           | Website:  www.openfoam.com                      |
|    \\/     M anipulation  |                                                 |
\*---------------------------------------------------------------------------*/
FoamFile
{
    version     2.0;
    format      ascii;
    class       surfaceScalarField;
    location    "150";
    object      phi_0;
}
// * * * * * * * * * * * * * * * * * * * * * * * * * * * * * * * * * * * * * //

dimensions      [0 3 -1 0 0 0 0];
oriented        oriented;


internalField   nonuniform List<scalar> 
27284
(
-0.129152
-0.00973199
0.138884
-0.130439
-0.337783
0.468221
-0.101024
0.128765
-0.0277412
0.450307
-0.0638474
-0.38646
-0.524004
0.313707
0.210298
0.375981
-0.35812
-0.0178607
-0.398931
0.0643068
0.334625
-0.264521
-0.259483
0.356785
0.110983
-0.467768
-0.274399
-0.133669
0.408068
0.0794268
-0.27415
0.194723
0.0344883
-0.11436
0.0798714
0.105237
-0.0707489
0.29701
-0.280641
-0.0163691
-0.194714
-0.270233
0.464947
-0.444651
-0.033541
0.478192
0.031847
0.41846
-0.323976
0.142149
0.181827
-0.116249
0.129141
-0.0128922
0.408724
-0.407332
-0.00139197
0.217225
-0.02717
-0.190055
-0.33702
0.200543
0.136477
-0.530261
0.0592302
0.471031
0.355618
0.0203628
-0.461689
-0.0685714
-0.306925
-0.100045
0.406969
0.453984
-0.329649
-0.124334
0.262794
-0.451069
0.188275
-0.0622084
0.418994
0.0819958
-0.245523
0.163527
0.391092
-0.273027
-0.118065
0.23745
-0.0759329
-0.161517
0.317749
-0.472342
0.154594
-0.371892
0.552261
-0.180369
0.479552
-0.493424
0.0138719
0.290994
0.0112104
-0.302204
0.183834
-0.154831
-0.029003
0.356194
-0.0651999
0.232882
-0.150886
-0.171693
-0.131493
0.303186
-0.46885
0.480238
-0.0113879
-0.166096
0.506249
-0.347595
-0.158654
-0.323153
-0.126858
0.450011
-0.453592
0.0938339
-0.0120427
-0.0817911
0.245649
-0.444519
0.19887
0.44109
-0.195441
0.247945
-0.292798
0.430865
-0.138067
0.0126151
-0.395324
0.382709
0.113294
0.0570137
-0.170307
0.135216
-0.428015
0.157264
-0.0614563
-0.0958078
0.0976767
-0.385383
0.287706
0.407436
0.0012878
0.0143811
-0.402266
0.387885
-0.133727
0.017607
-0.324532
-0.0473202
0.092723
-0.0454028
0.134357
0.150891
-0.124276
-0.0266149
0.0152993
0.141965
0.148389
-0.442068
0.293679
0.298417
-0.138688
-0.159728
-0.155456
-0.313732
0.469188
0.293714
-0.199227
-0.0944873
0.16937
0.0144636
-0.345655
0.525574
-0.179919
-0.0333697
-0.290614
0.323984
0.311148
0.103249
-0.414397
0.316069
-0.218392
-0.26991
0.121004
0.148906
0.129186
-0.312378
0.183193
0.552707
-0.260311
-0.292396
-0.382753
0.507148
-0.124395
0.0956493
-0.229376
-0.554287
0.171534
-0.117144
0.428292
0.328191
0.224516
0.14861
0.145105
0.429339
0.00140106
-0.43074
0.161493
0.129251
-0.241883
0.112631
-0.00922844
-0.133902
0.14313
0.435523
-0.485673
0.0501497
0.0472331
-0.442326
0.395093
0.195149
-0.0538888
-0.14126
-0.34523
0.478844
-0.133613
0.125095
0.0700546
0.361412
-0.145803
0.0643339
0.182523
-0.246856
0.4185
0.0108387
0.289676
0.141189
0.0981283
-0.352682
0.254553
-0.141603
0.44962
-0.308016
0.164383
-0.464469
0.300086
-0.458211
0.316608
-0.192001
0.0746358
0.117365
0.183436
-0.298996
0.11556
0.138608
-0.147837
0.323436
-0.440579
0.431881
-0.142205
0.403072
0.0694764
-0.472549
-0.258897
0.126942
0.131955
0.0991125
-0.543763
0.143308
0.155109
0.34042
-0.242291
-0.0158746
0.151669
-0.135794
-0.622744
0.22553
0.397213
-0.366155
0.380536
0.459222
0.00685773
-0.466079
0.338511
-0.141525
-0.196986
0.25249
-0.123239
0.0865768
-0.000940363
-0.0856364
0.0874931
-0.238608
0.151115
-0.0961653
0.419601
0.564589
-0.236398
-0.279617
0.127515
0.152102
-0.0435854
-0.155642
0.289357
-0.322726
-0.107174
0.00615032
0.29422
-0.0523647
0.192839
-0.140474
0.301316
0.263273
-0.0750725
-0.0251949
0.100267
0.0550526
0.47826
-0.446413
-0.00562773
-0.123525
-0.124721
-0.141827
0.266548
0.451462
-0.287079
-0.0545496
0.167843
0.121471
0.221354
-0.342825
-0.0057435
-0.0995072
0.105251
0.193436
-0.0715081
-0.121928
0.30231
-0.477441
0.175131
-0.0208208
-0.0954283
0.300234
-0.34673
0.0464955
0.378649
-0.524567
0.145918
-0.198072
0.262406
0.22953
-0.121521
-0.10801
-0.506089
0.329585
0.176503
-0.324369
-0.110899
0.435268
-0.114761
0.134643
0.138187
0.0552495
-0.0438249
-0.280639
0.324464
-0.080185
0.0844818
-0.0042968
0.130231
-0.486806
0.356575
0.18517
0.153341
0.365281
0.0483485
-0.413629
-0.196658
0.459452
-0.189744
0.146159
0.153154
-0.452354
0.2992
0.474219
-0.334343
-0.139875
0.126851
-0.474446
-0.00715587
0.344788
-0.337632
0.479708
-0.00144855
0.404546
0.0309772
-0.343211
0.0188417
-0.409412
0.402256
-0.135348
0.309567
-0.174219
0.320278
-0.198807
-0.296555
-0.326189
0.443946
-0.320558
-0.123388
-0.138564
0.310521
-0.171957
0.29388
0.0987895
-0.39267
-0.0883635
0.00817851
-0.134107
-0.000517254
0.134624
0.181095
-0.216379
0.0352837
0.0887796
0.140751
0.522824
-0.497807
-0.0250165
-0.124881
0.119137
0.529667
-0.516529
-0.0131382
0.424971
-0.177026
-0.468886
0.470965
-0.00207894
-0.401988
0.358163
0.396697
0.0625243
-0.332053
0.454454
-0.122401
-0.0140278
-0.177305
0.191333
0.28247
-0.183068
-0.0994026
-0.478038
0.463423
0.0146145
-0.13489
0.42877
-0.193551
0.311752
-0.118201
0.482697
-0.225764
-0.256933
0.147587
0.290962
-0.438549
0.263303
0.168578
-0.521014
0.347028
0.173986
-0.206856
0.0801947
0.126661
0.16523
-0.414839
0.249609
0.138781
-0.468431
-0.0980188
0.0229463
-0.102846
-0.0891545
0.131704
0.320586
-0.452289
0.345748
-0.53431
0.188562
0.455368
-0.0106831
-0.444685
-0.0823568
-0.0321636
0.11452
-0.383745
0.39636
-0.124776
0.0275158
0.0972605
-0.461089
0.123306
0.00731626
0.289694
0.445202
-0.181899
0.313256
-0.216833
-0.096423
0.0576838
0.175198
0.370313
-0.517159
0.146846
0.00725058
-0.141357
0.283532
-0.107775
-0.175757
0.276406
-0.0953105
0.314415
0.168282
-0.326066
-0.123953
0.450019
0.148049
-0.448017
0.299968
-0.190522
-0.124597
0.315118
0.334343
0.0245638
-0.358907
-0.147861
0.449468
-0.301608
-0.447452
0.299591
-0.379808
0.510039
0.216238
0.208733
0.181074
0.101396
-0.117019
-0.0593705
0.17639
-0.114324
0.275056
-0.160732
-0.153908
0.4338
-0.279893
-0.165604
0.149729
-0.347039
0.516812
-0.169773
-0.154844
0.199098
-0.0442534
-0.523524
0.26353
0.259993
-0.220296
-0.125432
0.345728
0.526915
-0.212154
-0.314761
0.50362
-0.367083
-0.136536
0.313024
-0.0127898
-0.151429
-0.00815097
0.15958
-0.253386
0.117881
0.135504
-0.269601
-0.170285
0.439886
-0.110287
-0.48823
0.315692
0.172538
0.156581
0.329214
0.114732
0.15748
-0.377776
0.0796041
-0.253244
0.17364
-0.00418493
0.207388
-0.0724105
-0.134977
-0.159485
-0.287967
0.0887001
-0.428842
0.340142
0.158776
-0.172804
-0.448928
0.289443
0.135127
-0.283726
0.148599
0.169208
0.159922
-0.397166
0.237243
-0.461581
0.198432
0.263149
-0.00722165
0.341565
0.328901
-0.0478003
-0.281101
-0.180367
-0.239361
0.419728
0.45551
-0.307121
0.353465
0.0995853
0.00535244
-0.104938
-0.303286
-0.220238
0.201999
-0.534052
-0.607244
0.305252
0.301992
0.108823
0.0985649
-0.29418
-0.136109
0.430289
0.321812
0.205102
0.443126
-0.301543
-0.141584
-0.121529
0.486809
-0.128708
0.419172
-0.290464
-0.0142303
-0.104948
0.119179
0.00697256
0.106347
-0.113319
-0.163561
0.221244
0.408983
-0.271472
-0.137511
-0.49899
0.197653
0.301336
-0.174902
0.136568
0.0383337
0.31166
0.131466
-0.22546
-0.462892
0.199837
0.263055
0.331279
-0.501316
0.170038
0.20964
0.103616
0.0473612
-0.16438
0.453207
-0.310938
-0.142269
0.329686
-0.148791
-0.180894
0.0741812
-0.267697
0.193516
0.458189
-0.155879
-0.000663303
-0.135858
0.136521
-0.130536
0.308947
0.0660714
-0.286745
0.220674
-0.317186
0.126664
0.0569512
-0.227282
0.17033
-0.149963
0.481242
-0.0136863
-0.17982
0.193506
-0.192796
0.307619
-0.114823
-0.00807885
0.178912
-0.170833
-0.129467
-0.339383
0.172995
0.181221
-0.498507
0.461537
-0.143788
0.188292
-0.101491
-0.0868005
-0.183523
-0.0934835
0.277007
-0.165136
0.458225
-0.29309
-0.277758
-0.221231
-0.470988
0.276274
0.498435
-0.152687
-0.141652
0.140988
0.124411
0.205275
-0.308436
0.180971
-0.0473576
-0.133614
-0.0166684
-0.190316
0.0568964
0.13342
-0.117076
-0.330801
0.13898
0.191821
0.257434
-0.183253
-0.30995
-0.116831
0.42678
-0.143599
0.189161
-0.045562
-0.13209
0.139062
0.074617
0.113675
0.496147
-0.345636
-0.150511
-0.110011
0.057002
0.0530085
-0.0428513
-0.234444
0.277296
0.241276
-0.365134
0.123858
-0.139577
0.00255268
0.137024
0.195128
-0.138177
-0.341754
0.298903
0.182748
0.258342
-0.482039
0.229548
0.252491
0.109929
-0.135557
0.025628
-0.0514542
-0.0585563
-0.0785356
0.108143
-0.0296074
0.325952
0.170194
-0.201626
0.246261
-0.157842
-0.0884195
-0.462976
0.224155
0.238821
0.159158
0.31389
-0.473048
0.189113
-0.296889
0.124741
0.209967
-0.354226
0.144258
-0.118259
0.371156
0.108396
0.216596
-0.402136
0.18554
-0.494199
0.344464
0.149736
-0.0638808
0.365197
-0.330773
-0.121158
0.451931
-0.324497
0.152804
-0.33229
0.225246
0.107045
0.0485479
-0.123219
0.0746712
0.135371
-0.120009
-0.0153618
-0.141092
-0.142633
0.500544
-0.174591
0.171426
0.139367
-0.310793
0.118457
-0.463687
0.354788
-0.144821
-0.255294
-0.160681
0.415975
-0.45979
0.185391
-0.468681
0.214895
0.253787
0.422806
0.0193708
-0.442177
-0.162337
0.510809
-0.348472
0.310428
-0.198059
-0.112369
-0.46848
0.32063
0.147849
0.0753682
0.0286112
-0.103979
0.0975794
-0.352874
-0.464252
0.219995
0.244258
-0.187237
0.453992
-0.266755
0.288334
-0.109422
-0.0268795
0.39127
-0.36439
0.147759
0.140575
0.317268
-0.491294
0.174026
0.383566
0.0392397
-0.119833
0.30327
-0.0798234
0.0325032
-0.554012
0.261909
0.292102
0.520103
-0.202835
-0.320738
0.472809
-0.152071
-0.260649
-0.171295
0.431944
-0.320625
-0.161414
0.355638
0.138188
-0.493826
-0.427678
0.207925
0.219753
-0.283559
-0.270452
0.0293244
0.22811
-0.213418
-0.14256
0.355978
0.225914
-0.146309
0.0280137
0.0772235
0.154981
-0.468446
0.313465
-0.251851
-0.355393
0.033933
-0.177533
0.354343
0.119111
-0.473454
0.091887
-0.352536
0.403845
-0.0851979
-0.318647
-0.203744
0.315821
-0.112077
0.498333
-0.307091
-0.191242
-0.182593
-0.141383
0.424676
0.0214329
-0.446109
0.258398
-0.396648
0.13825
0.405558
0.0498095
-0.140686
-0.101389
0.242075
-0.295774
0.0566937
-0.204419
0.147725
-0.466619
0.311162
-0.234704
-0.0999636
0.309603
-0.45702
0.313602
0.143419
0.17017
-0.0953471
-0.0748226
-0.100067
0.0760828
0.0239845
0.572527
-0.310617
0.492938
-0.346903
-0.146035
-0.0219103
0.121496
-0.447363
0.166033
0.28133
-0.405333
0.0745596
-0.323308
-0.156049
-0.018935
-0.107
0.125935
0.416593
-0.251363
0.221414
-0.19209
-0.269503
0.33381
-0.145725
0.328031
-0.182306
-0.318678
-0.144298
-0.278945
-0.0818644
0.360809
0.1207
0.0146705
0.152495
-0.133808
-0.0186876
-0.0996409
0.502713
0.0982142
-0.0655789
-0.0326354
-0.105589
-0.193407
0.297636
0.155571
0.0408122
0.176413
0.337034
-0.458192
0.452191
-0.360304
-0.132637
0.434563
-0.301926
0.281872
-0.138565
-0.0256192
0.362653
-0.0239724
-0.100908
0.164057
0.256568
-0.420626
0.00150218
-0.12163
0.120128
0.115101
0.213714
-0.328815
-0.0627419
-0.30312
0.365862
-0.103446
-0.148722
-0.130894
-0.30937
0.450919
-0.141549
-0.425061
0.291393
0.2962
-0.424908
0.453471
-0.155835
-0.120426
0.0866139
0.0835558
-0.408708
0.345966
0.126146
-0.279642
0.153497
-0.287784
0.146692
0.129569
-0.257325
0.127755
-0.013793
-0.126317
0.14011
0.208025
0.102403
0.0561157
-0.366065
-0.120294
-0.017946
0.13824
0.504625
-0.288814
-0.215811
-0.343621
0.482751
-0.13913
0.314952
-0.50219
-0.404377
-0.0266971
-0.0733702
0.486744
-0.132401
-0.0132385
0.387936
-0.374697
-0.379123
0.388315
-0.009192
-0.0572542
0.105802
0.359814
0.0440303
-0.492272
0.342467
0.149805
0.0875784
0.364612
-0.168531
0.262449
0.00856185
-0.271011
-0.095043
0.0126862
0.0999212
0.0509697
0.0800735
-0.273624
0.374157
0.050519
-0.144826
0.131033
-0.0972264
0.114368
-0.0171415
0.232302
-0.266123
0.0338217
-0.356065
0.510362
-0.154297
-0.0754644
0.1231
-0.0476356
-0.0565883
0.435237
0.130679
-0.181888
0.15421
0.0276781
-0.135789
0.274929
-0.13914
-0.235095
0.0944086
-0.149628
-0.120282
-0.133051
-0.154392
0.283578
-0.217335
-0.119685
-0.0316058
0.106974
0.277719
-0.150204
0.0196383
-0.145021
0.125383
0.320989
-0.14481
-0.17618
-0.329359
0.492886
-0.163526
-0.0667968
0.224031
-0.157234
0.181003
-0.127721
0.0368091
0.0909121
0.0951412
-0.0190584
0.140823
0.141049
-0.16501
0.307159
-0.0975568
0.288151
-0.190594
0.12293
0.455915
-0.307867
-0.11957
-0.211231
0.445792
-0.286628
-0.159164
0.48951
-0.337719
-0.151791
0.428928
-0.217774
-0.211154
0.00197845
-0.181798
-0.320008
0.303331
0.142461
-0.0189992
-0.0604934
0.0794926
-0.0343424
-0.090434
-0.124277
0.138897
-0.263618
0.318669
-0.331908
-0.140025
0.280616
0.348573
-0.470101
0.0802263
-0.123312
0.0430858
0.390787
-0.149511
-0.248293
0.11155
0.136743
-0.196786
0.293381
-0.0965952
0.165947
-0.257043
0.0910958
0.0949498
-0.228366
0.133416
0.0740109
-0.011448
-0.0625629
0.230767
-0.147081
-0.0836862
-0.308913
-0.0954038
0.404317
-0.27686
0.440102
-0.163242
-0.327332
0.374565
-0.120526
0.0494304
0.0487838
-0.0509185
-0.0965023
0.147421
-0.133191
0.259337
0.000166065
0.0738448
0.161267
-0.472205
-0.128424
0.104451
0.211219
0.0262311
0.338713
-0.468496
0.129783
0.10491
0.172809
-0.259521
0.192724
0.219426
-0.344703
0.125277
0.347533
0.0632873
-0.41082
0.235165
0.48954
-0.150828
0.138959
0.296052
-0.435011
0.0981921
-0.315025
0.338192
-0.118767
-0.130438
-0.111444
-0.158839
-0.238327
-0.239077
0.357745
-0.118668
-0.225242
0.352905
-0.136667
0.100673
-0.0055316
0.243387
-0.223273
-0.0201138
0.0800428
-0.303978
0.223935
0.171406
-0.247338
0.322394
-0.137223
-0.267441
-0.177078
-0.446533
0.176805
0.269729
0.312703
-0.23266
-0.216755
-0.0872589
0.304014
0.122147
-0.314943
-0.399084
0.240245
0.286758
-0.350639
0.445466
-0.287335
-0.158132
0.00341769
0.23997
-0.2454
0.327371
-0.0819719
0.133228
-0.0421131
-0.0911153
-0.0685211
0.0965348
-0.216782
-0.229752
0.105826
0.146664
0.113841
-0.119469
0.268724
0.160204
-0.109187
0.0498737
0.0593133
0.163137
0.335196
0.0864799
-0.24356
0.15708
0.138614
0.0921525
0.388818
0.0914201
0.177312
0.145081
-0.100266
0.127404
0.0250906
-0.0630647
0.433377
-0.529208
0.218481
0.310727
-0.13116
0.155418
-0.0242579
-0.161804
0.110886
0.102837
0.030391
0.163939
0.254312
-0.41825
-0.105781
-0.0184949
0.307867
0.137599
0.116169
-0.0359428
-0.449647
0.126339
-0.180793
0.395876
-0.215083
-0.135494
0.0551781
0.0803161
-0.462179
0.324366
0.137813
-0.203811
0.36129
-0.160475
-0.30841
0.107617
-0.251468
0.143852
0.161434
-0.475236
0.313803
0.412571
-0.195975
-0.00680572
-0.0717299
-0.0483066
0.165981
-0.117674
0.537792
-0.274262
0.341695
0.154869
-0.496564
-0.139788
-0.312079
0.128326
0.183753
-0.18313
0.134823
0.0631657
-0.073217
0.0100513
0.151129
-0.449298
0.298169
0.233753
0.338774
-0.18548
-0.123887
0.309367
0.114914
0.40791
0.220775
-0.0900951
-0.13068
0.477119
-0.128546
0.44653
-0.291549
-0.0570206
-0.134893
0.191914
0.436029
-0.291306
-0.144723
0.14936
-0.00689464
-0.142466
0.154597
-0.408173
0.253575
-0.327648
-0.241586
-0.0162466
0.108528
-0.0922813
-0.081761
-0.0695147
0.0505155
-0.108703
0.253878
-0.145174
0.176147
-0.30829
0.132143
0.150663
-0.394362
0.2437
0.436257
-0.333008
-0.189578
-0.122801
0.295612
-0.0778006
-0.217811
0.354825
-0.487462
-0.205747
0.0435745
0.162173
0.0356144
-0.164483
0.128868
0.189824
-0.370617
-0.256659
0.120797
0.135862
-0.12709
-0.188934
0.252472
-0.0635384
-0.121586
0.0496655
0.0719201
-0.525876
0.182255
0.161926
-0.171658
-0.494744
0.164969
0.329775
0.402348
-0.42987
0.0275212
-0.246692
0.401289
0.00418771
0.126135
-0.130322
0.0995899
-0.0911912
-0.00839869
0.255128
0.157443
0.299322
-0.451073
0.151751
0.255891
0.136489
0.393178
0.444182
-0.296595
0.139381
-0.0294519
-0.0856551
-0.213891
0.299546
0.0969879
0.157709
-0.254697
-0.160162
-0.0455855
0.206163
-0.102812
0.433881
-0.29736
-0.136521
-0.135925
0.0156312
0.112188
-0.0798574
-0.0323302
-0.0688301
0.416363
-0.323103
0.455826
-0.132723
0.363637
-0.432468
-0.105599
0.185794
-0.125985
0.221635
-0.142467
-0.313225
0.436389
-0.123163
-0.126955
-0.110797
0.237751
0.414583
-0.159455
0.167679
0.306539
0.137867
-0.119404
-0.0184629
0.308948
-0.193847
0.00455801
-0.155987
-0.431082
0.0519598
0.103757
0.194062
-0.297819
-0.126147
0.0825745
0.0435723
-0.071536
0.427174
0.113177
-0.240131
-0.375106
0.134507
-0.191528
-0.203193
0.362691
-0.159498
-0.364114
0.277083
0.0870309
-0.15797
0.207906
-0.049936
0.249223
-0.141607
-0.504329
0.204114
0.300216
0.498505
-0.356704
-0.141801
-0.316054
0.167351
0.148702
-0.105001
0.0435443
-0.0760228
-0.128396
-0.0734743
0.40809
-0.334616
0.131248
-0.183613
-0.244115
0.318818
0.0380263
-0.356844
0.469089
-0.105452
-0.00846616
-0.0822533
-0.0922969
-0.0241457
0.116443
-0.494125
0.195349
0.298776
0.0499733
0.0787915
0.428786
-0.146583
-0.282202
-0.0656845
0.500248
-0.0701827
-0.0653115
-0.256253
0.103653
0.1526
-0.116282
-0.141042
-0.216586
0.140564
-0.0832967
-0.280818
0.0159292
-0.108226
0.279615
0.14917
0.373257
-0.52322
0.328295
-0.355175
-0.467661
0.154436
0.248182
-0.135005
0.145209
-0.0257514
0.146452
0.457795
-0.00622577
-0.451569
-0.0506091
-0.0585778
-0.258842
0.384998
-0.126156
0.382219
0.0868704
0.159221
-0.289757
-0.222417
-0.0572257
0.14137
-0.139918
0.367763
-0.524015
0.156252
0.0797293
-0.116788
0.0370588
0.254085
0.0777906
-0.331876
0.375569
0.113866
-0.489436
-0.327945
0.494016
-0.166071
0.223292
0.424128
-0.155404
0.042729
-0.111017
0.0682875
-0.303574
0.162357
-0.0877396
-0.216138
-0.191193
-0.102451
-0.262683
0.146433
-0.281781
-0.460314
0.330627
0.129687
0.105887
0.313285
-0.297138
-0.0278001
0.0167682
0.17607
0.13924
-0.506323
0.128387
0.224518
0.0737631
0.0384245
-0.379696
0.000757317
0.378939
-0.343382
-0.113818
0.4572
0.510388
-0.211625
-0.298762
-0.21543
-0.2728
0.0350812
0.114279
-0.100755
0.503104
-0.149106
0.125811
-0.236608
0.476585
-0.094366
-0.434114
0.0544177
0.173892
-0.00959836
-0.164293
0.0736962
0.327608
-0.401304
0.0124158
0.139758
-0.152174
0.325389
-0.332611
0.287974
0.136154
0.467887
-0.196746
-0.271141
0.0915673
0.0281033
-0.119671
0.153775
-0.247821
0.41176
0.032203
0.139744
-0.171947
-0.157616
0.456938
0.201234
0.107768
-0.309002
-0.351648
0.0783683
0.27328
-0.162069
-0.331355
-0.428406
0.301548
0.133203
-0.262116
0.349694
0.430014
0.0320997
-0.462114
0.263062
0.2892
0.292862
0.17055
-0.463412
0.140384
-0.319099
0.178715
-0.16422
0.176636
0.117996
-0.0264287
0.135471
0.144549
0.104674
0.10985
-0.301301
0.191452
-0.292893
0.195337
0.145244
-0.414845
-0.431637
0.276231
0.132753
-0.584348
0.256693
0.327655
0.442688
-0.303258
-0.139431
-0.2975
-0.223514
-0.126051
0.264948
-0.21455
0.328701
-0.114152
0.476494
-0.334609
-0.141885
0.0806563
-0.0815967
0.269002
0.0173094
0.148671
-0.309718
-0.154751
-0.00012008
-0.0971063
0.50242
-0.321286
0.341124
0.13537
-0.0805745
0.405964
0.126974
0.496404
-0.15528
0.473762
-0.338112
-0.135649
-0.140503
0.120943
0.234775
0.290799
-0.230263
0.328093
-0.0978303
-0.142394
0.396479
-0.323578
0.101915
-0.363831
0.261916
-0.143461
0.175664
-0.31422
0.279833
0.0343864
0.301729
0.13466
0.048344
0.178893
-0.227237
0.1241
0.380526
-0.0904595
0.0696387
-0.152412
-0.316084
-0.064158
-0.0961207
0.160279
0.198395
0.0972168
-0.130286
-0.317077
0.0884162
-0.333816
-0.388362
0.261722
0.126641
-0.0824014
0.0709534
-0.139699
-0.338339
0.135635
0.353906
-0.168991
0.294927
-0.104115
-0.190812
-0.28164
0.373998
-0.0923581
-0.453294
0.329341
-0.517126
0.359237
0.157889
-0.303831
-0.0488506
0.154681
0.334829
0.0880017
-0.15216
0.285941
-0.0742531
0.102864
0.29241
0.0224086
0.373494
-0.395903
0.274577
-0.348052
0.36188
-0.511442
0.149562
0.436203
-0.117386
-0.112451
-0.046522
0.118893
-0.0723714
-0.181268
-0.220868
-0.143128
-0.0213912
0.164519
0.0120779
0.21777
-0.229848
-0.559118
0.220803
0.338315
0.00809086
-0.450417
0.128792
-0.383766
0.254974
0.120228
-0.409198
0.288971
0.226886
-0.0164216
-0.210464
0.0939072
0.0684494
-0.422797
-0.203522
0.233353
-0.221275
-0.210538
-0.150599
0.361136
-0.138742
-0.248421
0.0571136
-0.0135159
-0.129612
0.0957036
-0.201303
-0.0940077
0.123263
-0.0292553
0.050646
0.042077
0.27232
-0.119531
-0.152789
0.31838
-0.472287
-0.324343
0.0985853
-0.271076
0.172491
0.0672439
-0.36351
0.296266
0.0780793
-0.368694
-0.111122
-0.0243305
0.135452
0.11982
-0.0400908
-0.473704
0.173917
0.299786
0.149005
0.390231
-0.131833
0.39351
-0.273283
-0.0662818
-0.0161196
-0.438586
0.115483
-0.297594
0.149493
-0.487213
-0.0920056
0.419471
-0.327466
-0.249733
-0.303472
-0.16521
0.283707
-0.0719934
0.0977149
-0.0257216
-0.355121
0.513556
-0.158435
-0.297702
-0.291955
-0.181749
0.484386
-0.326235
-0.158151
-0.263386
-0.117236
0.318469
-0.272286
0.0755002
0.179114
0.305272
-0.141756
-0.320422
0.145817
-0.485024
0.322687
-0.0664074
-0.19331
0.358331
0.0269285
-0.38526
-0.44911
0.283974
-0.104844
-0.158604
0.263448
-0.032055
0.118669
0.296034
-0.443568
0.147534
0.0941346
-0.319669
0.477815
-0.158146
-0.246412
-0.215277
0.443269
-0.153064
-0.290205
-0.116573
0.463601
0.152655
0.119665
-0.142568
0.43353
0.116659
-0.313804
0.197145
0.123664
-0.362805
0.239141
0.154246
0.228683
0.15845
0.136476
0.164414
0.33613
0.431845
-0.426799
-0.00504581
0.444788
0.0336175
-0.478405
0.0920604
-0.308815
-0.107946
-0.0823695
-0.404591
0.261691
0.1429
0.00171612
-0.135524
-0.447013
0.17678
0.193404
0.323408
-0.140532
-0.0980802
-0.201335
0.299415
0.419675
-0.280716
-0.133235
0.448928
0.0238693
-0.0958626
-0.553637
0.232204
0.321433
-0.361038
0.46651
-0.105473
-0.289785
0.132127
0.157658
0.0834093
-0.29937
0.215961
0.257659
0.178544
-0.148962
0.141518
0.249269
-0.125782
0.0302005
0.0955813
-0.298907
0.200827
0.400047
-0.107184
-0.309683
-0.243954
-0.364403
0.16121
0.295917
-0.0129048
-0.283013
-0.302106
0.276467
-0.326272
0.483335
-0.332133
-0.151202
0.314724
-0.198065
0.223008
-0.0515819
0.0212015
0.119083
-0.140285
0.380626
-0.0384505
-0.342175
-0.328016
0.47575
-0.147734
-0.27312
-0.143623
0.416743
-0.310457
-0.152435
-0.133239
-0.288503
0.421742
-0.478872
-0.0432772
-0.0936264
0.136904
-0.0945544
-0.0270895
0.121644
0.373225
-0.305981
-0.28343
-0.21077
-0.134676
0.507933
0.497698
-0.341619
-0.156079
-0.316483
-0.143831
0.0921762
-0.42652
-0.186316
-0.291125
-0.306654
0.481252
-0.174598
0.280784
0.162241
0.305645
0.12476
0.316967
-0.441727
0.157972
-0.391857
0.233885
-0.0194209
0.146825
-0.253585
0.470923
-0.167065
-0.303857
0.317434
-0.337865
0.020431
-0.0429467
0.202132
-0.159185
0.443576
-0.355981
0.145443
-0.314398
0.439159
-0.501816
0.352065
0.149751
-0.0251798
0.402944
-0.377764
-0.208224
0.0736795
0.134545
-0.108959
0.077353
0.385685
-0.227713
0.0254777
0.103664
0.148071
-0.165798
0.0177262
0.0122473
-0.0859416
0.0736944
0.0155966
-0.125149
0.109552
-0.451117
0.289985
0.161132
0.289189
-0.205779
-0.443928
0.281154
0.162774
-0.332768
0.402067
-0.0692994
-0.308791
0.456197
-0.147406
0.251594
-0.396195
0.144601
-0.376675
0.115584
-0.436143
0.0261407
0.371434
-0.297258
-0.0741764
0.0777676
-0.109823
-0.257183
-0.0897991
-0.150556
0.297967
-0.147411
0.225547
-0.335565
0.110017
-0.316841
-0.174453
0.25089
-0.130093
-0.123718
-0.0850566
0.208774
0.445445
0.0351831
-0.480628
0.158618
-0.47235
0.11262
-0.0698915
-0.134531
0.170145
0.104485
-0.130237
0.40963
-0.0408587
-0.368772
0.0829222
0.048111
-0.131033
-0.359109
0.459951
-0.135585
-0.182058
0.274588
-0.0925303
0.272998
-0.184229
-0.0887687
0.13139
-0.116442
0.151523
-0.505497
0.290067
-0.305757
0.20802
0.097737
0.0916983
0.0408398
-0.229774
-0.0231146
-0.0613511
0.174257
0.206369
0.4322
-0.0905052
0.123109
-0.432479
-0.074448
-0.0298237
0.104272
0.323438
-0.259184
0.127691
0.129579
0.241856
-0.095661
-0.112563
-0.310192
0.1424
0.167792
0.174494
0.0985039
-0.304906
0.353255
0.405489
-0.374753
-0.0307353
0.270948
-0.112498
0.106096
0.151379
-0.257475
-0.559503
0.231554
0.327949
0.373588
0.0602122
0.327761
0.137077
-0.464838
-0.229198
-0.330305
0.439087
0.146551
0.16927
-0.0733387
-0.307372
0.481865
-0.174493
0.151219
0.119729
0.126817
-0.174174
0.10238
0.175971
-0.27835
0.281789
-0.373795
0.0147422
-0.108369
0.386235
-0.128576
0.115511
-0.303423
0.187912
0.0983952
-0.445298
-0.221865
-0.0511625
0.141638
-0.292194
-0.151342
0.184907
-0.308359
0.123452
0.0491075
-0.110201
0.0610935
0.0311394
0.374349
-0.124991
0.313996
-0.129089
0.139303
-0.0348177
-0.253015
0.0709573
-0.186511
-0.240579
-0.141769
0.203395
-0.0616254
0.13612
0.314799
0.44517
-0.123303
0.247776
-0.124473
-0.325237
-0.113348
-0.472289
0.375358
0.0969313
0.41236
-0.0949264
-0.15072
0.143826
0.0731211
-0.00995536
-0.30258
-0.177684
0.480264
0.116134
0.039548
-0.155682
-0.420698
0.02119
0.399509
-0.300118
0.292527
-0.146379
-0.345893
0.452383
-0.117679
0.223775
0.193292
0.326811
-0.142841
-0.13675
0.254631
0.38883
-0.247313
0.0322884
-0.109194
0.0769053
0.128706
0.122184
0.239509
-0.0735624
-0.50615
0.309404
0.547384
-0.31583
-0.042893
-0.0738952
0.0666302
0.0329597
0.0833806
-0.0780282
0.481707
0.286688
0.149341
-0.123527
-0.188942
0.312469
-0.0657169
0.0711099
0.399855
0.374004
0.05601
0.119731
-0.206036
0.119245
0.188374
-0.448638
0.312529
-0.0956463
0.247025
0.249291
-0.32849
0.0791993
-0.038584
0.0880144
-0.448768
0.229028
0.025163
-0.128393
0.10323
0.138155
0.0764754
0.0353194
-0.209214
0.173894
0.517256
-0.483978
0.332908
0.15107
0.0979976
0.190154
0.192707
-0.316234
-0.152112
0.249099
-0.34259
0.103513
-0.0714799
0.0594371
-0.486383
0.1835
0.0950735
-0.278573
-0.091711
0.121206
-0.306686
0.0164814
0.210404
-0.0950829
-0.0556373
0.00846013
-0.0829081
-0.271744
0.140655
0.211232
-0.351887
0.19452
-0.0791528
0.069512
0.00964076
0.167232
0.247351
0.146135
-0.328403
-0.136077
0.46448
-0.150816
0.0343736
0.092025
-0.0797777
-0.164152
-0.308191
-0.112132
-0.225779
-0.079978
0.398815
-0.147221
0.160673
-0.242119
0.0814456
-0.351867
-0.0170667
0.368934
0.0386061
-0.292836
0.25423
-0.509244
0.303465
0.20578
-0.108936
0.0593407
0.0495955
-0.105724
0.289224
-0.306302
0.486665
-0.180363
-0.475857
0.323445
-0.252237
0.41827
-0.452202
0.163233
0.288968
0.199376
-0.53578
0.336404
0.0137595
-0.197283
-0.526555
0.297357
0.350578
-0.451333
-0.49887
0.20597
0.2929
0.194765
0.118496
-0.313261
-0.172963
-0.121348
0.294311
0.279751
-0.309868
-0.165527
0.151615
-0.0354809
0.0977683
-0.274679
0.436113
-0.317555
-0.134376
0.451931
0.1268
-0.268184
-0.235038
0.433864
-0.203189
-0.230676
-0.186504
0.284502
0.304853
-0.266247
-0.40373
-0.112799
-0.362445
-0.111073
-0.503585
0.170867
0.332718
-0.271084
-0.126782
0.397865
0.245545
-0.394324
0.148779
0.297345
-0.177286
-0.321584
-0.354892
0.0686058
0.286286
0.444508
-0.33862
-0.116267
-0.287256
0.403523
-0.0598288
0.127107
0.0283112
0.0951906
0.368233
-0.160935
0.124849
-0.242528
0.369714
-0.296872
-0.0728422
-0.13837
0.368965
-0.230595
0.227162
0.320223
0.144712
0.338623
0.352055
0.339011
-0.241425
-0.0975864
-0.334183
-0.100304
-0.308405
0.0134718
0.339418
-0.35289
-0.339437
0.495366
-0.155929
-0.506963
0.167526
0.273717
-0.14159
-0.115918
-0.0726806
0.101305
0.512457
-0.160186
-0.352271
-0.351246
0.283784
0.0674627
-0.220005
0.124344
0.332546
-0.368728
0.0361818
-0.277276
-0.300324
0.444435
-0.144111
0.360265
-0.044196
0.0513823
0.132618
-0.184
-0.106034
-0.204654
-0.0270446
0.231699
0.379151
0.0526936
-0.0660683
-0.0600785
-0.292003
0.166181
0.125822
0.0887577
0.282475
-0.10425
-0.178225
0.316546
-0.432836
0.11629
-0.155546
0.250921
-0.095375
-0.317907
0.488193
-0.170286
0.0376523
0.0785168
0.140758
-0.183704
0.349654
-0.496035
0.146381
-0.28143
-0.0698168
0.373846
0.0357846
0.230298
-0.179631
-0.0506663
-0.0268044
-0.0964147
0.131706
0.258949
-0.390655
-0.445161
0.119923
0.116197
-0.256897
0.140701
-0.229273
-0.346669
0.246624
-0.0791929
-0.293897
0.37309
0.383788
-0.157647
-0.226141
-0.264468
0.10626
0.158208
-0.136458
0.38575
0.122436
-0.460549
0.314718
0.0549958
0.340277
-0.326805
0.483734
-0.332814
-0.15092
0.16144
-0.266284
0.0210485
-0.120486
0.0994371
-0.471771
0.290842
0.180929
0.0017737
0.399585
0.126207
0.437975
-0.141941
-0.387351
0.300561
-0.507289
0.354255
0.153034
-0.117795
0.212745
-0.388717
0.246324
0.0335267
0.196771
0.309292
0.0487616
0.246259
-0.295021
0.0245271
0.0999653
-0.124492
0.145673
-0.249716
0.104043
0.255294
-0.489622
0.336995
0.152627
-0.451693
0.162184
0.289509
-0.259061
0.100457
-0.0766427
0.124754
-0.183044
-0.218391
-0.0992487
0.317639
0.153084
0.235747
0.504563
-0.215093
-0.289469
-0.360751
0.121067
0.239685
0.266139
0.145838
-0.411977
0.17106
-0.401469
0.230409
0.0731428
0.216046
0.10372
0.169997
-0.0490518
0.223652
-0.1746
0.40577
-0.130413
-0.275357
0.29061
-0.241849
-0.146781
-0.325508
-0.0557784
0.406356
-0.333263
-0.23331
0.42139
-0.1041
-0.331351
0.18256
-0.107466
-0.173175
0.12898
0.267405
-0.396385
-0.347752
-0.122028
0.469779
0.0838156
-0.0665666
-0.017249
0.0252575
0.112609
-0.310925
0.138284
0.132952
-0.480704
0.328109
0.077661
-0.228962
-0.22074
0.156188
-0.325884
-0.140632
0.466517
0.11832
-0.0399513
-0.0783685
-0.46513
0.158829
-0.207745
-0.286381
-0.156186
-0.280079
0.436264
-0.142909
-0.250394
0.094848
-0.185791
-0.201883
0.0180313
0.183852
-0.308609
-0.45229
0.124274
0.357599
0.044468
-0.103945
0.0354243
-0.404928
-0.0928791
0.267163
0.10982
-0.376982
-0.50631
0.210952
0.295358
0.146113
0.153084
0.24227
-0.395354
0.200561
-0.317796
0.133774
0.275848
-0.409623
-0.324343
0.206962
0.117381
0.190837
0.153424
0.304764
0.229024
-0.102224
-0.202535
-0.333245
0.274621
-0.298551
0.0239296
-0.103261
0.204129
0.317533
-0.521662
0.232813
0.147048
-0.379861
0.0560788
0.11446
-0.170539
-0.170715
-0.296946
0.369733
-0.240754
0.0309962
-0.254326
0.386032
-0.165622
0.133477
0.0321455
0.200091
-0.0912679
0.37652
-0.157643
-0.218878
0.242109
0.134411
0.287563
-0.111416
-0.0277748
-0.0915202
0.119295
0.0805307
0.0377891
-0.0634498
0.395996
-0.205376
-0.12457
0.0300151
-0.320104
0.105554
0.199656
-0.140819
-0.478752
0.168591
0.310161
0.459238
-0.149984
-0.309254
0.130572
-0.465182
0.196377
-0.493308
0.29693
0.159388
-0.134861
-0.164424
-0.287269
-0.399821
-0.115815
0.515636
-0.304149
-0.112532
0.338079
-0.475843
0.157936
-0.0184556