/*--------------------------------*- C++ -*----------------------------------*\
| =========                 |                                                 |
| \\      /  F ield         | OpenFOAM: The Open Source CFD Toolbox           |
|  \\    /   O peration     | Version:  v2012                                 |
|   \\  /    A nd           | Website:  www.openfoam.com                      |
|    \\/     M anipulation  |                                                 |
\*---------------------------------------------------------------------------*/
FoamFile
{
    version     2.0;
    format      ascii;
    class       volScalarField;
    location    "150";
    object      ReThetat_0;
}
// * * * * * * * * * * * * * * * * * * * * * * * * * * * * * * * * * * * * * //

dimensions      [0 0 0 0 0 0 0];


internalField   nonuniform List<scalar> 
18355
(
55.0709
615.721
325.917
601.895
763.392
310.74
576.329
695.17
581.288
172.007
506.032
403.933
402.094
143.665
603.247
619.445
600.887
525.088
315.802
595.45
76.5524
564.863
614.856
318.518
614.685
566.447
575.735
600.034
578.684
504.386
245.539
526.313
616.534
621.565
595.522
597.007
501.741
596.107
500.772
566.453
584.081
501.243
621.274
615.937
615.765
395.881
601.998
602.471
255.229
604.763
604.908
52.884
604.747
408.196
594.824
593.734
596.387
239.216
562.829
385.042
621.414
401.389
414.823
600.492
578.108
609.236
559.605
498.159
622.276
125.97
604.001
595.026
544.173
521.224
134.716
621.969
239.41
621.785
603.939
149.649
560.27
217.995
622.11
573.628
568.976
584.554
578.612
570.904
606.824
572.491
111.276
332.58
263.059
604.385
148.131
599.047
606.029
597.529
390.903
569.548
571.801
605.524
604.169
631.234
567.301
619.269
575.307
164.177
535.124
620.184
603.449
591.572
503.92
571.088
366.247
553.598
605.862
136.829
563.275
564.982
171.929
326.44
100.768
563.479
149.989
378.871
575.121
601.647
50.7467
573.395
606.243
52.3421
590.119
387.47
519.873
607.021
315.622
106.257
597.555
168.025
527.251
451.962
603.822
65.2389
521.771
597.089
467.289
629.579
498.447
156.284
600.927
565.135
576.514
478.314
621.087
612.89
601.298
589.594
605.171
609.989
514.289
589.584
620.021
439.469
506.535
363.671
406.026
42.0637
85.5192
531.342
592.793
391.596
588.772
272.671
594.559
589.256
594.954
631.257
549.93
587.975
586.917
407.936
569.317
599.521
321.778
603.752
585.078
577.283
600.702
571.628
384.33
396.314
615.227
621.391
603.203
356.736
610.56
39.4245
615.559
129.5
604.196
558.217
493.246
588.857
43.3177
576.517
106.305
597.796
617.171
575.037
574.729
348.697
554.829
562.921
629.257
211.769
587.303
517.858
576.433
601.719
533.866
622.998
571.987
705.327
385.111
565.213
622.601
106.653
216.323
575.022
598.838
563.942
261.82
622.721
430.727
431.293
567.545
389.938
520.741
562.95
615.273
555.493
572.187
581.239
576.912
595.364
602.093
348.066
324.981
599.364
594.877
325.528
364.879
742.569
631.292
496.775
515.68
592.792
564.611
607.431
163.694
157.057
404.229
485.44
485.269
424.771
473.609
387.349
607.624
595.409
565.979
620.156
564.428
513.659
602.332
574.257
540.227
607.469
518.087
87.602
543.831
573.054
545.509
620.368
566.462
579.87
587.365
591.62
586.919
123.062
616.879
430.839
560.406
579.895
512.032
594.289
621.753
526.998
575.271
479.746
498.421
184.038
544.883
401.326
538.164
533.913
605.059
528.665
483.27
427.416
336.592
308.936
601.32
588.178
443.23
544.46
600.953
603.061
600.274
433.783
312.385
260.952
339.097
534.207
527.626
329.336
629.676
578.109
525.513
590.428
579.741
599.021
291.411
618.85
152.912
599.986
565.527
541.978
394.066
41.3093
584.041
396.668
562.988
607.121
590.675
569.308
169.766
605.131
588.969
260.496
567.948
606.274
376.851
572.321
601.369
595.721
586.879
584.359
586.078
620.973
595.47
569.365
427.32
288.083
621.354
603.485
516.19
600.396
591.27
309.177
276.338
533.578
589.776
566.337
399.903
603.833
477.931
526.003
617.945
516.748
654.431
570.991
595.579
523.967
590.765
534.072
604.42
417.278
570.79
562.349
603.474
600.797
572.864
558.746
405.798
309.246
259.217
568.836
364.65
511.518
599.225
598.737
438.316
599.832
524.602
583.391
496.767
337.367
410.978
42.0074
432.577
630.988
91.2639
570.614
602.417
74.6442
599.583
533.037
599.998
572.803
602.064
395.301
117.902
410.559
591.36
615.112
404.22
561.987
601.815
219.364
184.506
602.524
436.314
403.588
615.263
558.218
584.432
238.015
486.148
567.834
604.832
450.937
600.052
618.019
597.019
350.221
308.402
618.257
580.606
598.038
391.764
598.424
621.706
534.602
568.744
586.819
366.043
398.949
568.411
597.055
490.26
394.064
226.971
618.568
38.166
597.948
618.284
554.404
563.347
418.849
552.086
564.487
512.375
564.632
375.71
562.413
487.398
566.724
618.924
574.638
618.624
396.417
271.575
567.378
519.711
575.941
567.059
565.195
535.449
596.566
618.417
600.033
562.531
615.171
593.072
41.3943
38.7301
432.786
573.853
584.468
585.542
569.822
166.935
310.167
586.172
572.531
544.546
561.703
547.041
69.9314
584.379
597.142
136.562
591.15
40.6088
64.541
514.784
560.594
65.364
601.99
397.641
509.644
118.748
562.969
574.86
584.84
139.057
464.339
122.065
125.716
552.395
587.1
573.36
595.644
595.219
99.7844
167.56
308.329
294.108
571.555
540.836
493.817
601.908
595.692
566.502
586.897
579.384
596.083
133.897
606.541
287.85
588.891
392.363
398.833
594.626
571.47
43.9475
598.931
384.715
593.499
520.077
585.812
590.735
485.148
384.856
432.314
585.598
622.468
457.759
503.889
390.271
602.159
401.586
606.659
310.555
593.181
599.202
351.203
498.993
469.221
597.465
572.755
589.094
264.232
260.873
530.17
645.037
595.518
555.124
569.924
531.213
57.7925
615.839
268.699
575.243
595.915
544.213
175.862
589.813
541.348
593.814
450.991
116.146
629.451
601.468
38.4191
575.583
37.8765
577.882
569.476
596.598
603.097
518.142
562.242
605.273
471.052
51.3927
599.379
199.514
286.349
522.351
342.16
617.574
75.3667
131.766
627.66
113.383
442.335
351.408
190.107
602.341
601.95
591.544
339.66
433.482
591.889
569.117
467.493
569.799
439.526
599.886
451.002
292.845
139.338
400.539
137.743
576.211
238.301
573.556
605.441
566.787
187.699
475.111
438.472
591.624
312.698
592.828
568.229
119.282
588.006
573.628
499.838
549.292
600.265
600
546.072
575.519
622.996
586.389
465.468
397.415
561.63
598.347
566.32
114.664
594.842
136.989
370.595
584.178
56.6004
622.19
320.698
592.753
600.164
354.309
561.561
242.281
560.601
600.18
63.4646
591.687
620.47
592.632
604.241
574.013
572.257
42.7235
581.61
398.38
548.591
138.279
91.5562
554.13
589.347
575.021
613.76
386.926
595.854
620.797
619.526
591.83
598.655
330.079
512.398
425.69
593.337
591.104
519.891
520.922
148.208
615.144
398.803
563.897
622.308
126.836
289.733
605.761
136.033
596.138
262.96
449.594
628.057
455.913
568.285
138.7
601.986
523.471
134.659
553.983
369.693
598.174
174.389
414.698
97.9277
601.504
547.532
604.356
579.129
601.378
598.426
615.953
137.851
553.264
605.949
621.72
607.521
567.653
559.437
413.537
616.868
572.56
576.976
576.549
593.928
603.961
421.672
621.76
605.431
589.145
575.097
590.457
560.636
370.974
430.173
532.885
605.779
396.556
620.986
621.617
559.828
373.807
516.769
568.942
618.957
615.404
508.819
622.424
514.463
594.053
570.271
601.293
549.339
122.329
605.873
571.239
597.571
311.584
116.501
493.735
558.889
518.422
589.066
434.358
83.7033
589.494
125.614
570.561
300.265
598.01
617.566
616.193
125.276
618.401
492.59
620.091
373.531
530.734
577.825
604.506
598.731
594.317
486.111
363.252
392.112
440.62
596.299
622.461
572.919
600.566
608.226
566.83
425.996
562.21
313.261
595.902
595.868
471.918
595.978
392.026
437.014
572.44
367.82
402.013
473.316
602.407
622.309
576.977
599.406
135.939
433.405
386.698
617.372
575.969
542.96
607.473
92.7829
241.878
621.638
617.06
602.147
601.954
604.662
598.843
369.573
621.389
597.641
617.261
612.803
602.003
579.403
526.618
612.789
499.428
619.03
289.008
346.557
538.43
366.604
577.595
570.458
402.315
175.168
596.249
609.118
614.894
486.163
583.22
473.749
323.95
577.172
586.83
599.611
293.726
382.3
581.336
610.254
584.068
531.416
596.206
420.189
606.573
623.124
533.047
125.03
122.262
293.61
373.063
621.518
455.505
545.325
583.942
593.405
561.246
580.483
302.827
103.803
603.544
621.373
599.909
598.123
621.243
592.312
294.969
620.893
576.15
564.888
453.495
591.463
607.776
442.542
568.119
610.599
306.196
370.259
385.456
600.268
618.707
620.645
596.457
522.446
466.641
606.595
611.89
576.914
152.539
615.153
601.46
442.639
605.505
607.774
594.453
52.6184
619.068
596.02
615.153
526.763
618.885
538.623
378.16
600.873
311.906
512.327
377.686
414.754
601.293
581.917
608.081
608.564
600.845
124.886
137.011
438.309
498.375
145.284
400.331
559.102
366.795
457.073
591.45
620.956
168.401
565.386
608.639
612.116
324.343
50.5356
44.0682
609.037
394.228
128.714
512.962
471.17
541.986
541.944
456.573
268.284
543.061
564.093
521.368
59.1283
336.513
594.273
591.567
598.086
325.976
550.751
563.836
144.458
534.579
453.734
536.679
153.043
610.455
299.723
559.97
619.048
602.497
622.998
619.121
606.645
570.962
315.512
614.011
295.666
502.034
578.695
607.423
374.593
595.359
577.473
550.74
211.58
469.377
561.811
578.471
292.449
611.164
549.162
579.311
45.8478
465.313
111.598
584.819
603.019
434.226
241.787
292.207
613.262
593.432
446.247
63.6304
630.349
428.322
584.819
504.696
606.896
621.598
565.052
563.231
621.35
457.267
570.166
569.324
383.758
107.23
563.797
226.429
617.002
389.519
339.861
362.189
622.048
592.953
580.599
216.193
598.088
608.622
394.442
578.092
579.785
580.637
563.901
593.946
65.4071
106.526
403.927
608.403
592.07
492.436
614.353
237.271
576.433
581.444
567.171
595.055
396.43
584.753
589.651
37.173
574.365
567.518
450.894
324.294
253.537
594.143
599.113
86.7087
149.742
49.2333
598.736
456.427
380.114
616.508
437.335
540.816
127.45
555.672
596.098
595.212
620.717
281.431
589.38
614.72
122.206
488.382
491.8
621.069
562.953
620.651
628.52
618.472
591.753
589.473
564.444
620.456
569.631
436.738
499.688
557.158
613.856
529.816
601.341
136.71
576.198
592.34
592.32
615.507
568.169
585.803
596.275
591.747
607.006
618.454
210.689
139.752
594.102
286.929
455.537
589.78
576.372
558.594
185.221
599.149
616.782
621.032
621.865
41.5685
593.248
617.591
304.053
622.33
625.617
554.737
529.563
511.194
367.714
57.8625
619.143
77.1751
533.101
592.046
615.797
513.85
593.072
582.142
410.828
542.85
585.239
173.86
407.59
38.6195
286.279
135.863
437.771
615.777
305.977
53.9557
620.418
76.1003
609.52
553.166
396.457
609.605
200.399
563.04
563.864
571.058
398.579
594.453
293.831
594.05
618.326
180.922
624.483
570.952
572.592
419.657
598.897
604.658
562.447
191.249
594.851
592.209
616.273
548.322
595.424
550.74
391.214
603.656
505.224
573.896
593.422
535.142
603.293
569.813
392.079
576.156
598.77
563.434
142.304
580.652
598.196
603.548
582.843
487.739
552.54
600.219
603.889
613.646
628.813
620.724
512.303
439.909
415.284
573.223
211.002
611.606
573.214
72.6793
436.692
622.881
400.46
568.789
599.608
129.176
566.105
560.321
627.122
360.471
613.281
622.098
618.387
426.53
445.09
576.717
152.998
618.734
606.91
609.695
399.842
596.822
611.633
547.193
560.82
595.352
580.397
609.32
593.424
575.916
607.915
539.04
620.695
90.8363
400.114
616.919
444.901
506.806
602.835
611.383
586.255
609.197
481.853
513.688
571.775
584.103
570.794
411.963
355.472
591.876
570.528
384.599
587.806
144.973
619.127
608.355
602.852
552.848
592.425
504.248
602.912
571.031
592.966
593.543
614.5
407.139
594.848
519.258
453.307
597.02
128.202
129.52
579.48
531.885
581.372
624.918
462.394
580.996
487.034
131.185
52.8128
414.651
567.074
580.244
605.821
583.131
612.627
297.838
452.277
590.676
608.989
415.073
578.122
589.855
593.544
363.532
589.974
611.521
116.881
426.554
620.633
226.307
617.604
390.95
417.454
594.801
596.943
570.316
411.348
609.604
548.006
598.506
593.469
606.923
137.099
585.549
589.691
605.3
430.605
543.299
609.484
626.39
383.758
594.46
615.253
571.992
436.147
569.546
362.171
573.268
432.259
588.506
409.392
128
565.571
590.11
617.126
543.841
593.051
128.844
573.9
613.754
583.456
617.119
618.632
71.5635
593.187
550.333
556.92
385.042
596.665
573.708
510.263
129.325
593.231
589.228
615.735
611.845
545.947
443.93
581.824
596.91
592.848
601.562
617.047
87.234
569.73
601.634
598.021
411.944
617.283
614.967
491.684
607.762
503.314
595.838
592.757
275.716
50.5088
75.5791
520.845
536.462
575.655
241.566
611.977
513.442
620.194
134.998
631.483
544.83
596.515
93.6498
570.055
425.306
253.079
576.249
457.989
574.762
560.79
54.1972
458.822
597.599
617.733
544.712
580.33
602.586
592.798
611.915
624.175
312.215
148.16
574.54
594.933
318.129
84.2254
591.63
568.095
546.494
525.581
598.558
593.668
798.34
604.419
617.325
579.454
587.604
286.196
530.035
574.051
586.913
584.64
593.08
561.792
571.535
323.752
581.649
136.113
620.728
592.024
576.358
623.621
590.907
606.463
439.873
599.887
198.94
572.731
610.748
613.985
467.308
557.545
435.185
540.443
619.157
256.199
545.315
614.312
625.677
129.621
298.956
625.255
609.304
613.002
588.531
359.162
433.928
555.441
598.056
381.588
254.668
567.62
597.324
296.321
532.256
298.698
532.61
595.431
406.794
672.518
47.7418
709.127
110.87
616.52
606.556
589.419
588.879
541.919
572.819
583.335
607.874
592.096
583.524
582.668
597.654
557.952
565.945
595.103
610.907
536.372
581.841
604.266
594.69
313.885
570.467
559.619
571.738
109.589
615.372
450.806
597.289
618.063
605.532
270.751
364.367
604.898
575.69
552.899
558.588
605.759
587.601
441.094
599.621
358.479
608.57
599.215
593.94
598.178
483.907
421.783
99.6818
490.771
617.432
601.021
598.868
393.967
569.767
138.91
607.113
593.873
597.635
395.497
605.348
580.69
594.985
363.982
615.026
48.7736
616.037
538.772
581.825
480.061
601.493
533.819
108.207
633.997
617.326
536.137
594.506
593.562
33.4794
114.463
617.427
596.388
590.404
618.496
605.291
579.621
577.262
582.169
421.896
563.617
504.252
595.292
584.624
602.432
597.98
532.07
519.238
602.483
58.9203
613.413
240.823
462.181
614.54
609.783
610.377
325.588
591.806
536.555
578.251
595.853
124.724
596.381
546.794
578.996
582.096
549.52
590.137
595.797
601.795
534.978
564.664
565.27
194.451
509.519
138.056
601.377
535.045
569.85
121.662
445.176
87.7526
551.394
621.615
440.427
604.263
137.004
564.584
467.5
556.76
270.744
40.8506
561.935
533.828
609.728
613.936
578.663
624.506
571.422
558.81
607.948
547.798
714.996
124.665
606.192
385.493
620.954
595.649
597.049
396.166
598.402
400.589
589.165
608.202
204.213
605.438
536.055
600.725
532.587
95.4449
528.001
42.1623
600.569
477.296
549.921
598.257
607.424
470.111
551.459
592.749
546.793
599.571
208.935
609.545
413.634
294.257
403.997
566.771
528.541
541.858
624.562
238.632
595.898
301.378
567.902
559.315
113.953
122.005
587.093
283.528
602.975
131.018
630.022
83.0509
620.015
553.382
487.535
609.351
610.07
565.222
596.649
534.492
155.426
574.529
141.909
605.962
113.976
597.587
599.523
604.823
597.489
140.776
590.229
613.482
462.681
579.031
123.973
560.496
593.743
567.911
489.162
607.925
588.224
555.749
617.207
420.272
579.839
547.359
568.256
615.464
593.741
415.765
559.707
588.076
557.837
618.432
619.621
39.3238
560.884
263.903
500.686
429.037
519.993
597.186
519.463
604.148
601.76
418.32
554.583
558.732
450.579
577.796
379.844
130.59
608.32
540.103
996.682
246.383
617.4
604.629
582.023
553.578
146.311
503.439
530.762
566.576
598.567
619.062
263.162
531.871
553.167
132.376
589.688
549.341
536.829
597.331
594.401
608.95
430.083
423.989
564.918
579.01
380.818
608.089
590.036
560.903
579.933
115.011
105.681
347.797
530.568
102.85
557.483
606.146
397.937
582.949
545.644
605.691
619.523
126.359
698.76
598.932
610.01
588.259
244.324
586.434
620.509
97.5247
543.882
454.12
620.345
538.735
630.149
576.651
545.86
598.267
34.6495
566.274
486.457
460.717
127.028
479.895
598.605
409.14
517.445
513.974
605.477
559.412
582.399
563.841
359.547
546.386
276.618
609.619
394.258
617.894
569.804
300.903
522.873
394.201
533.47
564.637
81.5032
96.8085
605.884
245.768
561.915
609.158
625.098
45.1343
250.641
614.936
618.003
604.019
615.959
238.53
372.981
631.437
626.101
605.904
361.537
436.32
130.701
618.992
332.948
581.819
535.31
42.2755
563.172
610.191
613.193
122.34
616.891
600.291
617.434
579.645
594.311
41.6624
555.382
569.098
596.067
491.117
379.766
431.381
598.392
608.091
360.775
426.403
598.136
101.479
480.691
559.522
110.624
545.359
573.034
573.359
295.487
581.838
570.275
39.2145
488.522
599.832
600.988
629.945
436.509
402.223
603.035
618.142
556.19
423.606
548.761
619.363
595.535
609.835
567.835
440.582
604.151
609.229
35.6019
597.462
234.871
527.135
586.69
548.051
604.039
591.059
267.569
488.594
413.356
38.3767
527.783
605.675
276.512
617.466
410.874
240.849
581.826
598.089
542.839
397.778
592.135
609.059
214.97
595.735
549.846
599.337
596.782
616.804
564.62
399.579
619.38
599.653
75.7511
593.825
621.583
601.931
609.007
224.964
534.144
560.862
577.193
568.564
623.017
524.325
412.491
504.331
319.102
541.893
559.127
39.258
605.217
616.737
605.512
609.081
569.122
626.832
596.726
246.661
600.23
597.853
575.289
609.035
134.789
572.476
50.4217
331.644
757.756
479.472
200.259
525.359
597.424
533.418
602.797
557.814
611.197
567.884
277.223
617.96
589.652
446.266
293.696
574.075
606.29
377.86
557.605
631.177
599.729
606.046
599.808
46.0852
593.827
293.114
421.749
592.231
606.484
607.91
587.531
184.664
619.21
442.507
597.457
50.7025
359.945
593.065
383.839
582.897
560.786
588.158
343.475
532.347
516.367
563.054
124.713
571.28
444.603
595.169
684.376
354.657
313.801
608.876
536.511
129.21
162.76
539.916
549.674
130.679
128.582
609.345
430.373
596.851
557.824
579.2
581.06
581.54
261.719
573.865
580.523
410.107
123.262
396.167
371.249
171.136
609.45
132.029
401.474
601.389
597.928
133.329
534.759
590.009
599.56
570.806
609.795
595.869
435.706
581.737
574.207
600
600.277
553.439
615.403
71.9882
558.076
543.774
614.593
510.028
282.806
608.832
598.374
132.147
331.849
598.781
522.152
609.326
603.518
495.954
368.135
603.444
607.638
119.608
113.006
85.0775
884.82
564.418
199.226
609.806
517.67
530.897
614.597
39.8264
94.2152
445.762
878.343
230.978
624.954
626.129
546.73
572.056
107.836
617.101
587.206
73.7018
324.736
580.851
551.898
345.078
607.988
568.456
130.679
603.623
596.264
615.485
379.658
611.244
557.563
565.76
840.099
519.864
113.718
595.239
596.594
528.005
578.018
567.758
593.773
383.511
387.512
601.9
585.796
115.586
320.011
99.4188
607.977
601.429
572.34
599.15
593.77
603.801
569.69
595
610.989
609.88
465.678
579.655
500.416
92.4934
398.877
423.474
534.033
417.584
403.102
477.724
588.009
550.158
599.213
393.84
610.899
618.106
613.715
128.228
608.215
125.234
567.936
620.481
498.16
596.423
595.746
597.087
516.103
297.37
587.746
614.607
541.009
112.751
425.893
122.496
605.669
542.439
598.875
590.323
618.009
609.69
600.931
604.113
158.42
603.1
588.241
371.526
69.5223
385.81
607.877
362.575
472.901
121.186
614.11
610.515
661.771
121.094
626.278
584.953
609.582
616.941
383.876
583.277
534.94
578.151
626.581
536.198
604.169
99.2622
601.29
737.722
580.725
519.977
567.297
403.993
125.765
600.48
435.434
181.988
598.638
577.034
438.746
627.496
113.995
481.801
599.18
411.987
622.278
591.869
590.021
603.774
616.648
561.895
610.104
609.09
600.839
572.814
424.442
621.365
330.813
613.921
605.589
491.756
463.158
566.241
627.518
595.817
576.762
445.284
189.514
471.695
565.894
568.985
609.761
483.567
603.182
582.432
364.942
380.461
445.06
600.056
577.201
558.746
627.38
428.735
620.68
523.821
564.083
310.039
506.096
404.04
586.178
412.343
34.8998
125.15
135.31
573.503
138.784
320.177
570.27
466.969
295.633
617.225
608.323
588.904
569.362
514.845
579.315
556.071
109.7
631.45
599.555
338.213
273.266
411.341
131.477
142.962
562.325
560.934
580.641
580.548
391.66
576.584
52.7511
398.146
533.154
593.169
548.251
655.945
611.961
47.2811
626.386
594.666
598.528
123.528
40.4603
630.558
591.745
553.21
614.523
236.406
601.139
589.934
549.419
401.022
610.041
387.527
49.3601
209.82
596.052
484.385
614.552
269.093
625.683
366.143
565.396
421.904
568.169
72.9254
401.943
558.094
597.432
892.165
556.546
597.524
609.504
514.801
572.289
164.341
629.059
599.942
598.284
601.382
269.2
609.838
620.658
590.612
293.788
584.935
414.969
564.227
553.399
378.999
613.069
596.699
452.874
436.86
620.681
586.575
545.333
128.001
596.761
316.715
563.551
593.393
619.036
619.755
595.285
599.343
307.298
426.78
574.812
599.514
596.985
582.299
502.364
264.256
605.628
490.622
554.446
116.569
574.018
453.105
596.455
596.917
520.189
595.49
580.157
608.265
613.96
293.064
602.399
610.034
522.226
136.619
516.259
563.471
618.316
557.621
42.5466
546.551
571.923
593.867
318.974
577.086
599.798
208.637
611.716
517.95
571.209
578.488
619.009
413.638
541.928
612.16
593.906
586.969
605.02
301.719
572.396
600.156
626.743
566.934
619.62
590.103
403.809
611.718
555.52
551.412
377.392
627.35
560.686
416.076
510.714
310.134
606.26
599.114
263.707
602.243
617.856
144.947
582.954
33.9949
107.585
420.172
375.811
597.584
587.815
43.3058
590.713
620.24
185.338
264.705
604.888
620.32
565.422
615.948
342.058
399.064
75.1467
588.298
575.091
592.835
600.265
323.042
135.424
60.6554
522.598
557.7
39.593
591.582
604.934
596.292
603.869
573.081
305.209
627.43
131.422
598.688
596.626
601.057
498.959
614.121
247.172
610.73
594.205
562.356
620.047
96.5628
561.787
503.636
113.935
274.286
587.008
251.866
597.35
321.485
498.51
609.203
564.315
589.909
107.756
243.428
599.318
583.228
324.438
600.041
613.394
531.582
31.9254
98.9083
577.122
594.947
471.158
597.211
413.397
415.289
482.331
620.35
378.482
598.465
169.697
474.889
458.533
56.9629
282.862
41.1879
616.906
66.6045
614.194
626.573
371.555
626.728
565.084
595.186
490.995
612.426
323.264
619.903
475.528
132.61
506.295
516.541
110.439
574.747
618.917
570.584
367.307
532.753
330.924
602.658
515.61
568.769
53.8221
592.31
593.341
602.536
108.548
473.48
578.206
41.778
599.384
584.564
514.055
246.276
599.95
70.0916
604.106
73.1911
582.21
439
602.031
419.278
603.503
492.894
521.131
458.951
604.78
569.354
270.308
616.924
560.267
510.217
617.35
556.7
334.157
399.333
597.919
627.232
596.256
412.223
543.233
38.1908
524.203
125.574
584.746
256.726
613.974
588.09
400.578
572.718
63.567
545.385
47.3601
344.618
609.732
59.8217
576.973
596.473
548.706
416.749
549.804
350.752
522.347
377.647
437.01
422.185
435.733
373.455
585.176
594.991
39.1019
42.2781
554.861
536.154
32.0915
302.665
592.366
583.416
593.85
265.81
610.724
608.577
463.689
317.198
625.623
612.306
562.994
98.1203
614.372
553.123
625.552
347.782
578.714
68.1949
571.225
612.057
588.979
618.997
114.393
452.426
283.473
596.417
482.891
619.226
372.678
362.487
428.667
609.474
373.106
605.132
578.586
282.582
600.452
568.341
282.493
620.197
381.293
608.68
625.345
591.099
64.2492
609.693
55.6929
489.436
146.481
130.21
609.396
134.346
416.758
35.5945
586.972
42.7124
338.421
579.26
588.239
569.475
470.216
612.216
566.9
598.462
511.275
137.363
67.9939
551.367
583.272
101.5
139.679
593.76
595.611
158.888
455.07
616.279
351.77
455.359
589.594
617.18
555.181
363.853
583.229
408.727
629.965
100.381
34.5194
464.018
556.808
565.895
597.155
596.414
580.236
543.285
553.258
588.308
43.4765
606.436
589.426
599.631
127.612
309.359
594.099
592.548
221.205
614.595
66.6649
597.421
588.278
627.504
595.505
612.784
574.511
624.216
297.416
597.565
329.061
601.79
44.894
602.269
520.86
46.466
339.536
596.363
599.123
449.56
627.517
100.861
116.252
579.863
608.125
595.454
616.882
484.362
138.869
576.461
143.696
586.124
604.308
597.53
613.771
83.8122
290.019
582.486
596.796
608.717
493.604
602.791
230.366
120.596
544.048
618.134
48.114
347.365
599.855
337.909
593.586
291.472
465.731
469.429
494.407
50.7422
465.372
33.1557
606.415
614.161
609.679
618.554
580.289
486.467
614.419
515.244
622.399
385.199
589.517
584.778
37.6099
566.024
626.056
477.541
54.089
591.923
612.438
326.421
192.942
245.953
562.574
627.336
242.436
374.973
567.751
416.947
587.14
470.61
579.818
398.137
611.123
613.593
118.121
615.829
571.169
288.315
482.127
612.25
575.007
609.947
114.06
560.097
503.98
604.46
608.988
374.504
548.586
597.507
596.907
627.38
545.888
609.543
572.416
347.903
264.918
561.228
452.247
605.762
580.092
597.689
578.733
609.223
387.65
480.321
619.045
571.819
66.268
458.254
74.5316
421.393
591.458
609.612
514.524
596.025
61.2031
614.497
42.4444
59.6435
604.697
447.934
299.157
515.841
107.267
404.198
566.961
78.421
510.113
621.375
39.7284
225.951
392.284
571.081
257.548
261.638
598.607
380.091
266.175
603.434
609.564
572.713
621.78
591.558
212.753
239.601
597.772
536.466
66.2182
43.1293
453.574
395.036
599.911
506.003
213.062
425.473
43.7453
80.8776
596.655
580.24
599.116
593.964
101.552
284.894
609.765
458.123
326.603
138.826
572.244
596.721
577.564
570.919
350.778
560.87
454.597
585.294
567.856
111.665
594.26
420.071
372.241
310.685
595.931
593.335
573.167
585.787
363.789
266.471
573.239
37.5813
122.788
567.975
465.192
266.422
124.472
135.453
254.976
592.126
144.868
81.2835
555.779
568.421
380.083
553.956
402.637
538.216
585.055
622.742
578.419
608.954
115.1
574.034
594.724
570.965
210.865
316.101
425.034
599.862
560.826
388.997
621.745
621.976
612.597
582.903
657.268
263.849
573.17
556.28
268.842
337.306
620.495
334.46
34.6316
137.529
556.838
566.94
571.298
554.094
354.143
462.453
49.6903
554.69
393.314
171.207
428.332
43.9643
133.461
597.92
559.346
604.576
696.158
595.956
594.174
558.748
442.042
593.045
590.914
598.709
599.435
338.304
602.022
197.231
582.042
425.753
585.382
363.054
621.125
573.77
351.813
587.453
611.591
137.434
372.247
368.823
357.387
518.904
608.292
560.996
577.348
420.428
552.547
347.713
592.156
595.2
385.487
437.948
617.036
421.853
260.479
79.6343
277.728
593.797
622.078
534.59
338.827
389.217
591.106
479.288
568.879
625.503
291.622
574.66
570.591
419.319
366.922
598.571
581.44
608.232
620.837
393.612
606.321
40.0385
563.681
42.6468
560.468
89.7387
576.118
551.245
573.365
320.994
371.607
600.524
34.6971
588.286
380.741
179.748
78.4068
405.112
581.665
553.99
433.883
554.078
554.963
541.578
568.766
558.381
401.22
594.76
575.543
492.425
520.416
600.974
348.723
575.532
410.605
299.408
494.739
606.07
553.305
626.657
610.63
106.413
601.653
600.492
565.674
686.35
566.591
387.799
359.128
485.976
614.767
381.717
65.6352
581.486
347.02
556.632
389.584
280.75
386.109
331.228
337.699
432.463
603.44
549.57
291.428
238.347
576.656
563.154
565.593
578.438
616.602
498.522
491.079
609.778
61.1794
577.034
595.189
370.979
170.427
572.07
356.787
545.626
612.158
368.222
550.9
384.594
533.906
430.386
609.753
499.065
44.0453
423.334
595.433
608.506
531.218
69.4708
47.4149
60.4879
601.563
599.309
75.5988
131.272
474.88
604.264
146.423
536.659
140.772
607.074
589.724
539.698
356.252
597.003
599.409
604.911
44.3036
613.778
551.808
408.53
120.4
374.437
337.044
450.48
415.235
252.532
560.229
565.964
126.791
429.705
539.617
609.991
618.35
428.391
559.212
603.176
446.203
421.073
141.209
572.994
325.205
493.612
423.298
618.861
597.59
418.823
620.495
508.927
326.376
495.887
573.372
578.883
386.007
386.22
432.975
402.558
610.948
315.877
465.496
343.728
550.865
592.988
440.921
142.505
612.905
52.9646
358.968
304.699
577.644
443.096
389.506
386.242
617.578
116.22
625.925
580.979
567.226
566.555
577.129
40.742
63.8326
598.774
569.108
556.159
265.486
589.151
572.007
447.369
600.907
623.304
415.051
600.856
341.064
447.323
550.242
378.012
230.415
445.364
599.251
586.955
438.668
565.789
599.131
569.472
579.006
397.74
231.295
537.36
391.092
426.925
51.1122
440.907
537.572
541.766
261.719
436.471
602.11
565.218
333.957
549.359
598.656
603.765
492.408
53.3042
564.993
533.113
586.264
576.559
289.113
276.595
620.592
567.252
582.305
139.185
501.267
598.64
598.719
526.82
461.968
286.361
600.767
602.814
463.808
562.986
591.047
446.282
580.44
379.002
358.056
577.805
607.89
587.976
573.563
439.694
368.336
614.079
567.744
141.806
588.213
376.973
68.8929
349.391
573.116
102.254
543.462
335.453
606.559
600.004
396.796
553.506
251.929
451.854
560.948
471.636
581.097
198.299
505.223
57.6121
577.723
92.9977
407.59
569.93
389.025
600.642
413.188
155.225
172.2
415.543
364.062
626.686
421.193
379.958
405.084
438.254
496.895
575.697
600.775
479.081
371.556
577.609
546.285
539.89
423.843
600.266
465.513
582.805
616.333
597.456
607.74
518.474
523.301
577.609
597.776
595.304
592.697
622.048
539.235
51.2526
531.059
408.009
592.849
132.204
576.254
370.784
600.66
512.613
420.283
550.812
530.486
385.871
528.363
569.916
569.998
431.406
609.081
376.377
390.177
595.325
258.114
404.506
598.931
485.873
617.08
190.841
572.029
461.176
625.419
414.661
551.533
540.002
575.396
423.007
422.648
516.368
583.006
566.243
607.894
613.237
424.066
536.497
572.598
128.698
425.928
574.694
610.174
590.62
586.487
429.697
479.75
439.36
432.446
577.735
587.62
543.316
618.74
556.952
73.3065
73.2409
580.504
437.141
579.547
564.243
557.554
573.209
414.256
375.267
601.853
560.953
618.675
596.441
401.605
581.183
369.151
595.801
353.67
600.923
612.262
427.029
601.651
564.675
622.185
458.938
454.313
136.858
594.362
418.713
453.87
318.468
448.529
479.302
592.247
550.833
348.714
605.102
588.915
570.328
552.589
346.564
566.971
319.679
597.124
537.192
529.38
583.922
579.207
596.846
593.556
617.01
549.027
597.176
223.848
459.223
601.272
603.62
567.751
369.335
607.771
544.79
386.577
52.5083
168.36
568.842
599.34
458.716
541.917
272.204
562.248
630.771
596.123
555.757
602.036
595.839
599.71
590.62
588.529
596.13
547.298
591.985
610.797
562.076
180.436
588.097
559.812
612.448
471.425
566.13
561.045
550.734
570.248
609.281
597.429
578.908
378.409
568.414
80.0499
564.933
588.521
588.546
565.333
79.2093
332.816
600.157
582.342
502.548
598.902
560.48
612.987
410.994
485.128
631.326
558.568
588.898
447.373
387.445
601.464
403.34
42.5802
591.373
596.426
577.151
526.867
588.52
580.008
249.591
563.794
105.366
559.654
560.22
445.596
594.625
579.307
109.245
154.494
580.402
595.795
535.06
563.641
545.906
261.044
565.943
424.965
491.302
551.029
587.747
621.911
452.229
597.487
559.302
549.998
271.199
487.084
506.572
568.789
566.52
575.453
595.022
579.337
578.423
547.648
313.456
593.535
560.433
570.05
569.431
534.478
583.642
598.203
580.692
241.071
604.654
53.5579
54.5864
596.483
594.29
392.148
595.972
424.96