/*--------------------------------*- C++ -*----------------------------------*\
| =========                 |                                                 |
| \\      /  F ield         | OpenFOAM: The Open Source CFD Toolbox           |
|  \\    /   O peration     | Version:  v2012                                 |
|   \\  /    A nd           | Website:  www.openfoam.com                      |
|    \\/     M anipulation  |                                                 |
\*---------------------------------------------------------------------------*/
FoamFile
{
    version     2.0;
    format      ascii;
    class       volScalarField;
    location    "400";
    object      k_0;
}
// * * * * * * * * * * * * * * * * * * * * * * * * * * * * * * * * * * * * * //

dimensions      [0 2 -2 0 0 0 0];


internalField   nonuniform List<scalar> 
18618
(
0.000147704
0.000200785
0.000146883
0.000148184
0.000147166
0.00015004
0.000287932
0.0223655
0.000195732
0.000179791
0.000147117
0.000147742
0.000146975
0.000147863
0.000146361
0.000150079
0.00014716
0.000147686
0.000144427
0.000246433
0.000146338
0.0631576
0.000144199
0.000147667
0.000249454
0.000196805
0.000173065
0.00012308
0.000166809
0.000146826
0.000149705
0.000148271
0.000167235
0.00014606
0.000153706
0.029115
0.000145978
0.000201393
0.0265482
0.000144245
0.0285943
0.0609856
0.0214766
0.00731655
0.000160549
0.000156393
0.0267962
0.000158523
0.000177168
0.00270845
0.000172419
0.00014864
0.000167079
0.000165039
0.000143721
0.000199397
0.000164679
0.00017664
0.0277816
0.000196509
0.0282652
0.0030677
0.000176806
0.000146595
0.000203287
0.000183578
0.000196126
0.00016097
0.000145005
0.0326742
0.000181902
0.00014442
0.000148964
0.000231455
0.0117597
0.0325664
0.000148712
0.000147238
0.000145121
0.000183712
0.000154769
0.000146043
0.00014857
0.000151485
0.0637142
0.000146261
0.00019972
0.033411
0.00205701
0.0143942
0.000145926
0.0318189
0.000201838
0.000144643
0.0306428
0.0025891
0.000149576
0.000192491
0.000146505
0.0264104
0.00152295
0.0256427
0.000148209
0.000200131
0.000166963
0.000183678
0.000234669
0.000145751
0.000650043
2.12685e-05
0.0309506
0.000156094
0.0294701
0.00805921
0.000147481
0.000144336
0.000273387
0.000148199
0.000167694
0.0111974
0.000151518
0.00014983
0.000155573
0.000149285
0.000178067
0.000185057
0.000156271
0.000202281
0.000200754
0.000178981
0.015
0.000261362
0.000255106
0.000164355
0.000145963
0.000166306
0.000147271
0.0359903
0.0502042
0.000147236
0.0253094
0.000210612
0.000145151
0.000146081
0.000155704
0.000147489
0.000144185
0.000148537
0.000146336
0.000148798
0.000239687
0.000147313
0.000167666
0.000149796
0.000155243
0.0302619
0.00678268
0.000165787
0.000148298
0.00287517
0.000177607
0.000158576
0.0119985
0.000229486
0.000147821
0.000156095
0.000151362
0.0626757
0.000147686
0.000193528
0.000149916
0.000166745
0.000184319
0.000192654
0.0200061
0.000148381
0.000184889
0.000149831
0.000147337
0.00016232
0.000225904
0.000153567
0.000452568
0.000148918
0.00014772
0.000159737
0.000227253
0.000174412
0.000198037
0.00014783
0.000147153
0.000157396
0.000156083
0.000147223
0.000145101
0.000206199
0.000147215
0.000149691
0.0188674
0.0001614
0.000186111
0.0459748
0.000228147
0.0161332
0.000186668
0.000152122
0.0296209
0.0260562
0.00014842
0.000144459
0.000196607
0.000194379
0.000151648
0.000144212
0.00014843
0.000149589
0.0030966
0.000257467
0.000151796
0.000148964
0.000148794
0.000155132
0.0378031
0.000149434
0.0336486
0.000147832
0.000149719
0.000183218
0.000198411
0.000161245
0.000152264
0.000162432
0.000145978
0.0258009
0.000162262
0.000148049
0.000148789
0.00019148
0.000227681
0.000151384
0.000197658
0.000148505
0.000147623
0.0243479
0.000177023
0.000172349
0.000205971
0.00014803
0.0353653
0.000148305
0.000144648
0.061641
0.000158775
0.000245587
0.000168904
0.000156576
0.000191522
0.000147535
0.000143987
0.000149109
0.000147474
0.00260317
0.000244865
0.000152937
0.0627365
0.000203768
0.000193825
0.000158853
0.000182724
0.000156611
0.000183107
0.000147338
0.000150833
0.000147443
0.000149837
0.000155266
0.000165972
0.000149307
0.000148615
0.0370603
0.000146958
0.000177557
0.000147787
0.000150147
0.0305315
0.000148304
0.000146132
0.00016276
0.000177369
0.000184855
0.000145833
0.00017685
0.000148052
0.0001684
0.0379259
0.000193232
0.0363679
0.0012567
0.0131545
0.000147906
0.000159805
0.000146533
0.000168309
0.000152038
0.000147453
0.000148405
0.000147647
0.0185352
0.000184936
0.00234331
0.00020601
0.000143972
0.000176358
0.000149477
0.000148943
0.000147254
0.000150077
0.0001643
0.000174496
0.000267375
0.000144112
0.000221592
0.000148164
0.0502452
0.000149136
0.000202278
0.000221338
0.000147248
0.000150034
0.00838939
0.000164822
0.0442235
0.000147693
0.000148881
0.000166917
0.000147242
0.000185703
0.000151545
0.000151166
5.35477e-05
0.000176482
0.000176358
0.0538296
0.000179542
0.000147511
0.000177792
0.000154275
0.000183438
0.000177071
0.00014429
0.000147892
0.000145872
0.000502586
0.000148296
0.000147388
0.00014778
0.000148208
0.000177201
0.00014934
0.000150606
0.00014581
0.0309938
0.0627698
0.000176931
0.0160034
0.0639781
0.000147652
0.000148924
0.000178661
0.00019312
0.000145864
0.000148035
0.000154004
0.000161371
0.000144143
0.000147224
0.000182308
0.000151725
0.000146992
0.000176715
0.00017882
0.000149897
0.000146141
0.000149816
0.000164996
0.000145345
0.000174434
0.0194162
0.000147566
0.000178242
0.000150065
0.000147894
0.000239639
0.0308007
0.000147912
0.000169047
0.0319519
0.000137018
0.000147922
0.0197039
0.000148058
0.000166606
0.000160312
0.0140226
0.000145431
0.000213487
0.000147366
0.000151816
0.000164414
0.000147512
0.000148571
0.000149955
0.000145473
0.000145746
0.000151238
0.000176065
0.000144054
0.000152159
0.00016617
0.000161768
0.000144468
0.02707
0.000159634
0.000160048
0.000145314
0.0416976
0.000176707
0.000155537
0.000205716
0.00238137
0.000147922
0.000147478
0.000156093
0.000146697
0.000145683
0.000156723
0.000148762
0.000148435
0.000201899
0.000186533
0.000154558
0.00020752
0.000148432
0.000162797
0.0326963
0.000177885
0.000153763
0.0116594
0.00018606
0.0001478
0.000156189
0.00014962
0.000176933
0.000160102
0.000147517
0.000196431
0.000147529
0.000148425
0.000150004
0.0625864
0.0120742
0.000156408
0.000165633
0.000147692
0.000180199
0.000149477
0.000147477
0.000149958
0.000200582
0.000145382
0.000156438
0.000166218
0.00015522
0.000128458
0.000158699
0.000154958
0.0302758
0.000160052
0.000205747
0.000164308
0.000168472
0.000151291
7.79048e-05
0.000151963
0.000174365
0.000148355
0.000179537
0.000153749
0.000164992
0.000162251
0.000199711
0.0448506
0.000148353
0.000148978
0.016784
0.000152967
0.000195921
0.0497702
0.000151172
0.000149168
0.000149902
0.00014607
0.000215044
0.000147728
0.000160814
0.000184745
0.000152222
0.000154144
0.000220788
0.000174739
0.0372754
0.000145722
0.000160081
0.000160369
0.000178096
0.000148613
0.000150649
0.000149042
0.000168748
0.0163822
0.000148496
0.000148597
0.000196142
0.000177632
0.000147471
0.000147942
0.0146183
0.000148202
0.0105691
0.000148745
0.000216863
0.0144964
0.000152057
0.000155978
0.000178761
0.000149481
0.0264834
0.000149958
0.000145818
0.000148
0.000172135
0.000153212
0.000177138
0.000162522
0.00014782
0.000148493
0.000211984
0.000632562
0.000144402
0.000147784
0.000147258
0.000183824
0.000173696
0.000146182
0.000196982
0.000145472
0.00631429
0.000147733
0.000174726
0.000178782
0.0475637
0.000151088
0.0123491
0.00015372
0.000147001
0.000182626
0.000226782
0.000147187
0.000183596
0.000147642
0.000147961
0.0352792
0.000148512
0.0413819
0.039647
0.0186621
0.000164023
0.000171739
0.000230684
0.000145547
0.000162887
0.000154337
0.000165797
0.000148559
0.000148176
0.000145472
0.000148392
0.000145245
0.0173975
0.000166878
0.000147159
0.000145798
0.000148538
0.000145948
0.000150129
0.000162845
0.000203236
0.00283354
0.000180423
0.000146251
0.000147993
0.000203326
0.000163946
0.000148822
0.000147432
0.000165077
0.000148035
0.000149678
0.000147506
0.000159653
0.000251066
0.0300606
0.0216046
0.000249574
0.0272994
0.000146211
0.000160347
0.0047215
0.000147747
0.000153545
0.000150499
0.00014522
0.000235939
0.000172159
0.000149544
0.000196388
0.000148206
0.00014766
0.000193583
0.00014824
0.000154017
0.000147243
0.0139923
0.00014946
0.000175208
0.000203761
0.000210184
0.000151706
0.0139774
0.000178253
0.000148552
0.000147158
0.000170576
0.000168769
0.00014534
0.000200306
0.000162936
0.000149218
0.00015037
0.000151623
0.0119499
0.000147866
0.000145432
0.00016843
0.000150239
0.000154553
0.000147193
0.000213646
0.000146237
0.00014705
0.0237033
0.000190406
0.000148394
0.000145924
0.000175765
0.000147672
0.000167204
0.000148355
0.000168431
0.000154163
0.0143981
0.00014996
0.000148957
0.000149261
0.000146187
0.000201929
0.0622292
0.000201313
0.0523359
0.000171213
0.0287293
0.000167254
0.000177224
0.00014841
0.00014866
0.0141742
0.000220608
0.000148541
0.000160284
0.000147602
0.000210864
0.000144778
0.000147042
0.000147227
0.00020089
0.000178958
0.000148793
0.000147702
0.000147647
0.000141642
0.000216788
0.000155462
0.000158747
0.000186246
0.000151085
0.000145117
0.000166843
0.0268996
0.000158859
0.000146212
0.000144005
0.000148639
0.000158599
0.000121717
0.0181929
0.000216958
0.000161739
0.000201802
0.000145827
0.000152613
0.000167837
0.000144051
0.0277806
0.0161957
0.0301903
0.000174118
0.000339351
0.000146403
0.000147211
0.000172038
0.000182148
0.0131353
0.000147706
0.000163318
0.00596513
0.000148113
0.000211396
0.0126709
0.000144784
0.000147303
0.000157586
0.000148902
0.000151787
0.0132793
0.0138291
0.0374602
0.000171284
0.000181495
0.000176579
0.0139422
0.000145936
0.000172585
0.000148017
0.000151464
0.013847
0.000143974
0.000239204
0.000147666
0.000155591
0.000202798
0.00017484
0.000149636
0.000149472
0.000169018
0.000147629
0.000191906
0.000175941
0.000148379
0.00017125
0.0279401
0.000148131
0.000155405
0.00016471
0.000147468
0.00014796
0.000147736
0.0262473
0.000173661
0.000146214
0.000147832
0.00015434
0.0293106
0.000144012
0.000148047
0.00958873
0.000145846
0.000144717
0.000209221
0.0154221
0.000204985
0.000147516
0.000145182
0.000177038
0.000149091
0.000148993
0.0247613
0.000176304
0.000192806
0.00014519
0.00015613
0.000148703
0.00015876
0.000146467
0.000161839
0.000176787
0.000145762
0.0150179
0.000166364
0.000151629
0.0118472
0.000193096
0.000160347
0.000162603
0.000174795
0.000154622
0.000147118
0.000148557
0.000145199
0.000149598
0.000150929
0.000166511
0.000155531
0.000144942
0.011814
0.000162925
0.024297
0.000237259
0.000159342
0.000173045
0.000148749
0.000148193
0.000145962
0.00020893
0.00408467
0.000148762
0.000147221
0.0279167
0.000147941
0.00014593
0.000149322
0.000209835
0.000148715
0.000195495
0.000149311
0.000154916
0.0218146
0.000145152
0.000147948
0.000144449
0.000148342
0.0212108
0.000154164
0.0463156
0.000147817
0.0335494
0.0234589
0.063496
0.0163911
0.000159979
0.0143754
0.000148169
0.000156255
0.000153344
0.000177306
0.000208732
0.000149165
0.000154376
0.000154416
0.000167277
0.000147551
0.000146517
0.0255474
0.000146234
0.000145739
0.000305465
0.000148113
0.000161193
0.0273419
0.000148163
0.000151949
0.000152078
0.000145968
0.000172091
0.000157875
0.000148675
0.00020666
0.0193666
0.000175975
0.000151673
0.013385
0.0146184
0.000165248
0.000147255
0.000145133
0.000194926
0.000147918
0.000147096
0.00014759
0.000144929
0.000148181
0.000149907
0.000149032
0.000187668
0.000147593
0.000149396
0.000165881
0.000195615
0.000147271
0.000145952
0.000148305
0.000147237
0.00014744
0.000149092
0.000145886
0.000145815
0.0174365
0.000175322
0.000197551
0.00014908
0.00015009
0.00015952
0.000150822
0.000165545
0.000154996
0.0440928
0.0110404
0.0280368
0.000147951
0.000147209
0.000204045
0.00017933
0.000176803
0.000146295
0.000147268
0.00015478
0.000147787
0.000177211
0.039173
0.000147344
0.000147471
0.0316276
0.031126
0.000173472
0.00018433
0.0463921
0.0246996
0.000148137
0.000160946
0.000174151
0.000171851
0.000190995
0.000148357
0.000148441
0.000179112
0.000164804
0.000146066
0.000148261
0.000148822
0.000148244
0.000153544
0.0627932
0.000164582
0.000145468
0.000155127
0.000148481
0.000147929
0.000148555
0.0135586
0.0143117
0.000147981
0.000150522
0.000209294
0.00015191
0.000146497
0.000145925
0.000146513
0.0128884
0.000148608
0.000161107
0.00014947
0.0335623
0.000147696
0.000147612
0.0630452
0.000163046
0.000192604
0.000146706
0.0143349
0.000149024
0.000147848
0.0529893
0.000146036
0.0432406
0.000147091
0.000207437
0.045238
0.000172531
0.000183173
0.0296714
0.000184471
0.0174922
0.000149147
0.000148117
0.000147061
0.000163931
0.000147891
0.000169579
0.000149806
0.0634381
0.000178046
0.000151426
0.000145466
0.000154248
0.000148969
0.000149602
0.000147713
0.000148275
0.000151968
0.000153052
0.000145853
0.00014739
0.000207181
0.000148061
0.000177312
0.000145958
0.000193625
0.000146209
0.0217508
0.000196969
0.0110091
0.000177641
0.000146217
0.000215163
0.0632383
0.000158789
0.0305707
0.000147798
0.0002338
0.000180985
0.000145717
0.000176793
0.000148284
0.0440377
0.00016463
0.000145565
0.000148229
0.00016343
0.000153008
0.000192953
0.000148864
0.000174254
0.000150739
0.000148869
0.0318069
0.000150958
0.000147617
0.000220196
0.000162511
0.00015239
0.0509269
0.000157905
0.000146958
0.000175177
0.000146321
0.000143877
0.000181993
0.000152323
0.000145691
0.000158571
0.000158412
0.000177228
0.0640765
0.000148454
0.000215697
0.00014486
0.000148864
0.000149181
0.00015045
0.000151437
0.000197771
0.000217519
0.000163052
0.000148744
0.0127391
0.013781
0.0635469
0.000146004
0.000148164
0.000156374
0.000147025
0.000149532
0.000153624
0.000150211
0.000154177
0.000144716
0.000147806
0.00014831
0.000148866
0.000159252
0.000147818
0.000146021
0.00018276
0.000132668
0.000187546
0.0641213
0.00017275
0.000177613
0.000148781
0.0508237
0.000204251
0.000166847
0.000159032
0.000162373
0.0525519
0.00020477
0.000147695
0.00016467
0.0259631
0.0447285
0.000202854
0.000146703
0.000195096
0.000165087
0.000153484
0.000147552
0.000171787
0.000154475
0.000162792
0.000151422
0.000163433
0.0208101
0.000206016
0.000147369
0.000144921
0.000149067
0.000147575
0.00019215
0.000149548
0.00017693
0.000148165
0.000151497
0.000146741
0.000148366
0.0001467
0.000198525
0.000160552
0.000177151
0.000147644
0.000147849
0.000172573
0.00017448
0.0390045
0.000149346
0.000147318
0.0114666
0.000147208
0.000146877
0.000150546
0.000149194
0.0595209
0.000144874
0.000174099
0.00019574
0.000147721
0.000177948
0.013596
0.000147607
0.000148561
0.00016176
0.000146263
0.000171564
0.000147485
0.000242716
0.000164794
0.000147903
0.000148082
0.000181867
0.000148413
0.022891
0.000236198
0.000146019
0.000184659
0.000176025
0.000177775
0.000220708
0.000148467
0.000169501
0.000173795
0.0136236
0.000147552
0.000154409
0.000151418
0.000151557
0.000146285
0.0342895
0.000202776
0.000154275
0.0123047
0.00014991
0.000152881
0.000147021
0.000162592
0.000145722
0.000147648
0.000149398
0.000148516
0.000138308
0.000209237
0.000148348
0.000148149
0.000147975
0.0196517
0.000183926
0.000151921
0.000174747
0.00031164
0.000163798
0.000146661
0.000147585
0.000202028
0.000146727
0.000147986
0.000147851
0.000148773
0.000151431
0.00014782
0.000152868
0.000147869
0.000148055
0.000148161
0.000176205
0.000163166
0.000179532
0.000175196
0.000153369
0.0084657
0.000149333
0.000148457
0.0104975
0.0155755
0.000165898
0.000148444
0.000146901
0.000146991
0.000149282
0.000147303
0.0503291
0.0193191
0.000146039
0.000149505
0.000164368
0.000147866
0.0128018
0.000175265
0.000147728
0.000161209
0.000166023
0.00094578
0.000147021
0.0340793
0.000165874
0.0134115
0.000160487
0.000197573
0.000166483
0.000144707
0.000149132
0.000145432
0.0133165
0.0409114
0.000153013
0.000147207
0.000144502
0.000192145
0.000194814
0.00015285
0.000146087
0.000147497
0.000156368
0.000165896
0.00018922
0.000147972
0.000205513
0.000147831
0.000240276
0.000151304
0.0001665
0.000145889
0.000146774
0.000321479
0.0164314
0.000172637
0.000151976
0.000148607
0.000152936
0.000180084
0.000147978
0.000147992
0.000157284
0.000144904
0.00014889
0.000149895
0.00014872
0.000168201
0.000166679
0.000150033
0.00017753
0.000190116
0.000153532
0.000158582
0.000149669
0.000145898
0.000146594
0.000159031
0.000153256
0.000145734
0.000158108
0.0195057
0.000168268
0.000151891
0.000196317
0.000161955
0.000166065
0.000145215
0.000145672
0.000252589
0.0001666
0.000145856
0.000197792
0.000155522
0.000194546
0.000150032
0.000147648
0.000179769
0.000147675
0.000174493
0.000178022
0.000194454
0.000219127
0.0255748
0.000191567
0.000168186
0.000148168
0.00015865
0.000191551
0.000149714
0.000148121
0.000148433
0.0147913
0.00014662
0.0412523
0.000165224
0.034726
0.000148254
0.000173427
0.000154883
0.00014823
0.000146336
0.000166243
0.000150803
0.000148648
0.000162077
0.000193352
0.000228395
0.000192339
0.0151496
0.000193742
0.000150281
0.000172409
0.000150597
0.000144847
0.00020605
0.000147444
0.000183546
0.000170242
0.0539399
0.00985188
0.0130865
0.000167248
0.0392103
0.0404271
0.000230126
0.000154103
0.000156261
0.00014838
0.000149716
0.0494309
0.000265479
0.000157082
0.000185164
0.000152038
0.000153445
0.000147793
0.000177469
0.000203453
0.000152512
0.0002067
0.0550118
0.000148755
0.0267074
0.000145636
0.00200404
0.0118317
0.00014554
0.000146695
0.00016706
0.000149389
0.000147559
0.000146265
0.000158995
0.000149073
0.000147658
0.000144372
0.000203628
0.000153816
0.0137818
0.000169075
0.000155716
0.000177544
0.000186769
0.000185232
0.00014718
0.000146887
0.000162086
0.00016663
0.000179189
0.000156068
0.000148167
0.0160118
0.000195378
0.000151585
0.000148208
0.000145395
0.000145081
0.000153601
0.000155088
0.000143837
0.000149013
0.000175632
0.000185342
0.000128491
0.000146431
0.0322874
0.000146794
0.000153876
0.000152173
0.000172232
0.000149794
0.000148018
0.000145479
0.000154567
0.000160859
0.000216776
0.00017798
0.0480681
0.014842
0.000146072
0.000161599
0.0469546
0.000145445
0.000185448
0.000198394
0.045546
0.000147621
0.0480446
0.0105948
0.000147676
0.0137762
0.000214159
0.000154359
0.000177773
0.000197722
0.000162819
0.000191714
0.000148339
0.000172905
0.000148868
0.000163673
0.000186234
0.000154679
0.000156412
0.000160559
0.000192661
0.00655855
0.00014841
0.0235149
0.000160847
0.0324047
0.0279129
0.0320222
0.000145004
0.000159351
0.000148523
0.00969454
0.000146588
0.000149384
0.000254824
0.026146
0.000172887
0.000159325
0.000173224
0.000149121
0.000148299
0.000206986
0.000158595
0.0119698
0.000236355
0.000145821
0.000218343
0.000147588
0.000157449
0.00014559
0.000184612
0.000189874
0.000261938
0.000163538
0.000172107
0.00014824
0.000195775
0.000169715
0.000149806
0.000199222
0.000151742
0.0440703
0.000178117
0.000184052
0.000148729
0.000202839
0.000181462
0.0289358
0.0139883
0.000172063
0.00119283
0.000146974
0.000151417
0.000149806
0.000151524
0.000148153
0.000157444
0.000146822
0.000183796
0.000147217
0.000148846
0.000176809
0.0307544
0.000168679
0.000156702
0.000146991
0.063792
0.000154624
0.000182626
0.000148795
0.000178129
0.0210978
0.000152831
0.000148451
0.000171879
0.000145499
0.000184378
0.0643612
0.0241379
0.000166008
0.000209222
0.000147857
0.000157338
0.000159668
0.000158108
0.00019765
0.000152751
0.000152204
0.000172051
0.000129566
0.000167129
0.000173786
0.000155867
0.000152586
0.0103116
0.000151689
0.00014783
0.000153203
0.000147677
0.0433798
0.000162868
0.000162615
0.00743028
0.00014722
0.012389
0.000146538
0.000145795
0.000164456
0.000198613
0.0523885
0.000148027
0.000146434
0.000147786
0.000173924
0.000145493
0.000147698
0.000209312
0.0577763
0.039651
0.0164193
0.000196411
0.000145291
0.0485574
0.000148018
0.000202591
0.0001446
0.000151984
0.000146889
0.000153892
0.000148902
0.000143911
0.000184884
0.000176219
0.0295567
0.000144842
0.000161647
0.000180335
0.000147411
0.000183424
0.0178827
0.000146956
0.000148654
0.000148853
0.000157172
0.000148998
0.000152393
0.000148794
0.000145618
0.000225997
7.54245e-05
0.000147385
0.00015466
0.000147775
0.000147655
0.000149691
0.000150377
0.00016142
0.000149344
0.000174715
0.000158964
0.000148145
0.0275359
0.00014744
0.00014915
0.000148605
0.000207911
0.000162756
0.000148629
0.000148676
0.000152064
0.000148305
0.0128862
0.00012155
0.00726678
0.0396208
0.000145276
0.000165728
0.00015394
0.000147608
0.000166785
0.000147948
0.000148671
0.0313639
0.000153432
0.00014827
0.0601142
0.0353397
0.000179589
0.000154664
0.000152792
0.000148339
0.000145664
0.000241175
0.000148645
0.000151421
0.000165041
0.000145261
0.000149852
0.0331105
0.000163888
0.0341431
6.18792e-05
0.000219005
0.000161761
0.000148563
0.000155555
0.000151412
0.000232307
0.00018339
0.014578
0.000155737
0.000148958
0.0322245
0.00014981
0.000159071
0.000168352
0.000149869
0.000149827
0.000214921
0.0444445
0.000190549
0.00014584
0.0248092
0.000166535
0.000161687
0.000145236
0.00015004
0.000205931
0.000160533
0.00014736
0.000150699
0.000158259
0.000177261
0.000145413
0.000146467
0.000208934
0.000153617
0.000144859
0.000149899
0.000126733
0.0233577
0.000207734
0.00224243
0.000153949
0.000203266
0.000235679
0.000146593
0.000148219
0.00014656
0.000147379
0.00017433
0.000148356
0.000144815
0.000148125
0.000148004
0.000147736
0.000146517
0.0001624
0.000148397
0.000146734
0.000149796
0.0174659
0.000159247
0.0178578
0.000149981
0.000146002
0.000146588
0.000177016
0.0128167
0.000181874
0.000153818
0.0450739
0.000146006
0.000148243
0.000153884
0.000147371
0.000165572
0.000150497
0.000145648
0.000147065
0.000192272
0.000200572
0.0289775
0.000149664
0.000190002
0.000355203
0.000148565
0.000158848
0.000147095
0.000147286
0.000149856
0.000215115
0.00167705
1.47005e-05
0.000171987
0.000148228
0.000181642
0.000148196
0.00017767
0.000148438
0.000149195
0.000146946
0.00014935
0.0633278
0.000184749
0.0485491
0.000192136
0.000195197
0.000147833
0.0283728
0.000147888
0.030059
0.000148526
0.000192358
0.0633772
0.00019659
0.000147504
0.0318996
0.000148309
0.000193452
0.000147587
0.000152106
0.000151
0.000147877
0.000156023
0.000156361
0.000149377
0.000152946
0.000147787
0.000161581
0.00014835
0.000157727
0.000160358
0.000176732
0.0142475
0.000158614
0.000149707
0.000191366
0.000161538
0.000213457
0.000144562
0.0382996
0.000204524
0.000186425
0.0442197
0.000148167
0.000147191
0.000144302
0.000164819
0.0294053
0.000148206
0.000152571
0.000158126
0.0353803
0.00444869
0.0130144
0.000148348
0.000188122
0.000147811
0.000179016
0.0139214
0.000180535
0.000152423
0.000148477
0.000177141
0.000149847
0.000166601
0.000146753
0.000171581
0.000143679
0.000157426
0.000144547
0.0232672
0.000146566
0.000213568
0.013312
0.000147699
0.0131473
0.000166249
0.0198846
0.000149721
0.000153609
0.000144364
0.00019906
0.00014872
0.000148792
0.0257063
0.0397735
0.000149959
0.000180653
0.000169676
0.000182207
0.0173287
0.000163933
0.000148446
0.000156175
0.000158272
0.000150918
0.000147155
0.000147357
0.000149812
0.000181466
0.000175814
0.000202834
0.000195055
0.000211031
0.000151245
0.000189997
0.000148528
0.000162387
0.000148868
0.000153052
0.000147288
0.000166507
0.0502587
0.000165058
0.000148299
0.000156929
0.000144255
0.000162236
0.000148659
0.000149155
0.00014853
0.00019562
0.00015013
0.00014765
0.000156999
0.000191964
0.000202885
0.000153514
0.000155542
0.0461807
0.000170282
0.0001449
0.0584693
0.000146706
0.000145196
0.00736043
0.000148824
0.00726677
0.000182946
0.000148898
0.000237404
0.000156679
0.000190905
0.000147921
0.000172069
0.000145362
0.0001592
0.000177126
0.000155838
7.8365e-06
0.00013549
0.000166366
0.000148343
0.000163061
0.000151008
0.000190593
0.000147017
0.000145845
0.00014707
0.0412667
0.000148363
0.000146615
0.00014807
0.000146973
0.000177281
0.000155034
0.000181914
0.000163361
0.000147106
0.000147768
0.000176277
0.00021671
0.000147953
0.00019585
0.000147101
0.000148781
0.000209474
0.000144826
0.0487354
0.000202571
0.000148021
0.00014575
0.0001485
0.000162196
0.00276137
0.000153685
0.000173226
0.000187022
0.000160979
0.000148139
0.000188102
0.000174896
0.000148312
0.000169253
0.000164388
0.00016648
0.0551181
0.000182697
0.000156005
0.000149043
0.000148882
0.000172375
0.000175562
0.0002403
0.000197455
0.00017756
0.000149257
0.000145594
0.0187107
0.000153613
0.000923851
0.0204395
0.000204843
0.0174442
0.000185982
0.000145633
0.000147903
0.000182397
0.000150103
0.000156278
0.000182969
0.000194951
0.000149388
0.0108871
0.000177752
0.000144758
0.00014779
0.000176203
0.0397865
0.000147134
0.000144989
0.000205824
0.0373976
0.00015024
0.0227138
0.020377
0.000169926
0.000221141
0.000147811
0.000148315
0.0537625
0.00017538
0.000149004
0.000177596
0.000220624
0.000148294
0.000150612
0.000152238
0.000150495
0.000148389
0.000213172
0.000148258
0.00440958
0.000148893
0.0142155
0.000162486
0.025219
0.000149132
0.000147446
0.000147219
0.000176203
0.00910079
0.000206125
0.000145877
0.000173366
0.000145769
0.000178937
0.000144609
0.000148418
0.0167454
0.000190418
0.0480194
0.0048293
0.00014718
0.000161624
0.000148248
0.000147975
0.000928794
0.000155348
0.000148283
0.000152114
0.000148335
0.000148896
0.000159107
0.000149074
0.0594394
0.00144687
0.000145177
0.000149608
0.0001885
0.000123382
0.0129201
0.000149238
0.000147198
0.0502474
0.000205447
0.000160967
0.000172524
0.000151094
0.0223909
0.000146655
0.000183929
0.000146319
0.000158951
0.000147987
0.000154002
0.000174786
0.000149355
0.000157868
0.00909731
0.000155207
0.0522804
0.000148853
0.000173677
0.00388841
0.000146683
0.000147827
0.000146236
0.000180732
0.000146453
0.00014555
0.000146227
0.0461322
0.0168612
0.000170916
0.000148399
0.000148371
0.000148473
0.000165904
0.000144217
0.00015393
0.000149698
0.000147079
0.000155049
0.000156498
0.0585832
0.000165741
0.0323512
0.000178636
0.000148707
0.000178445
0.0001478
0.0527691
0.000192796
0.000148673
0.0029653
0.000158723
0.000149134
0.000149305
0.000148016
0.000146267
0.000148105
0.000148094
0.000187904
0.000147416
0.000144175
0.000148037
0.000184873
0.000153521
0.000202104
0.000148159
0.000165113
0.000190916
0.000177699
0.000163752
0.000147893
0.0130518
0.00014751
0.000189327
0.000168518
0.000173773
0.000147613
0.000192116
0.000148254
0.000149727
0.000148031
0.000176543
0.000218061
0.044351
0.00015814
0.0311849
0.00014576
0.00014839
0.000147088
0.000167829
0.000199227
0.00016332
0.000161858
0.0528692
0.000201744
0.000172198
0.000148803
0.000146404
0.0001473
0.000146215
0.000182591
0.000147057
0.000149259
0.000165872
0.000161621
0.0375015
0.000190122
0.000155569
8.64117e-05
0.00015151
0.000194269
0.0381899
0.000165674
0.000154352
0.000225932
0.000144708
0.000147265
0.000222143
0.0238762
0.000145762
0.000151636
0.000166375
0.000147265
0.000204515
0.000148658
0.000175443
0.000187616
0.000159221
0.000146591
0.0273399
0.000172851
0.0243138
0.000144985
0.000145131
0.000195808
0.000153885
0.000148265
0.000145446
0.000145585
0.000178944
0.000207723
0.000151121
0.000148054
0.00018576
0.00324967
0.0484986
0.000159088
0.00283801
0.000194986
0.0282617
0.0192811
0.0486876
0.00014647
0.000145296
0.000190197
0.000148449
0.000171949
0.000174215
0.000147417
0.0170383
0.00017846
0.000146162
0.000151746
0.0312938
0.00914465
0.0470227
0.000148495
0.0325253
0.000154854
0.000162982
0.000161645
0.000221924
0.00019549
0.000145783
0.000148016
0.00015556
0.00852555
0.000162516
0.000240878
0.000196393
0.000189726
0.000153654
0.000147171
0.00014811
0.00014886
0.000148459
0.000159025
0.000144204
0.000156552
0.000148184
0.00015416
0.000193398
0.000148144
0.000145815
0.00155511
0.000145865
0.000174511
0.000150158
0.0320125
0.000192439
0.000170475
0.000172776
0.000145249
0.000176625
0.000145763
0.01559
0.000153345
0.000210943
0.000150797
0.000156439
0.000147046
0.000149058
0.000148126
0.000236541
0.000194702
0.000147799
0.00019372
0.0233618
0.00019382
0.000151608
0.0634648
0.000146378
0.055314
0.000219653
0.00014902
0.000151849
0.0554445
0.000149864
0.0516858
0.000151192
0.0385156
0.000154297
0.000148551
0.000187631
0.000145731
0.000209619
0.000156175
0.000144324
0.000182391
0.000183967
0.000149959
0.000147596
0.000150112
0.000208692
0.000187154
0.000178251
0.0397564
0.000148858
0.000227074
0.000148409
0.000149663
0.00015545
0.000226811
0.0403435
0.000147605
0.000180735
0.000147193
0.000156274
0.000148893
0.000144937
0.000147523
0.0434917
0.000158057
0.000149037
0.000184148
0.000146496
0.000190379
0.000182345
0.050436
0.000189975
0.000150878
0.000175832
0.000189881
0.000166168
0.000144374
0.000146048
0.00014471
0.000163483
0.000161483
0.000165393
0.000173268
0.000147741
0.000152375
0.000146187
0.000146391
0.000179536
0.000147834
0.000144731
0.000149838
0.000147047
0.00016889
0.000167528
0.0117382
0.000147921
0.0336809
0.000197007
0.0447723
0.0382537
0.000257981
0.000175552
0.000182568
0.0260024
0.000148025
0.000171944
0.000150816
0.00036299
0.000183139
0.000147622
0.000148128
0.0251253
0.000144839
0.000187176
0.000151866
0.000202274
0.000188509
0.000239595
0.000147159
0.000169481
0.000169149
0.000150003
0.000152753
0.000148074
0.000161776
0.000147641
0.000167458
0.000148214
0.000147986
0.000162586
0.000145283
0.000180824
0.000146382
0.000161241
0.027667
0.000165243
0.000160961
0.000148397
0.0359776
0.000154099
0.000148828
0.000144115
0.000153972
0.000149018
0.00014805
0.000190282
0.000146291
0.00016093
0.000148078
0.000146744
0.000176289
0.000165975
0.000147899
0.000149455
0.0309529
0.000170777
0.000148526
0.000149381
0.000147684
0.000412473
0.0133783
0.000146375
0.000146959
0.000174096
0.0134116
0.000149334
0.000173353
0.0001786
0.000185931
0.000151598
0.000155519
0.000621524
0.000144894
0.000146359
0.000207163
0.000176407
0.0121352
0.0547801
0.0130406
0.00884094
0.000252607
0.000146049
0.0644561
0.000147892
0.000147759
0.000154306
0.000149853
0.0609421
0.000148458
0.00016283
0.0234455
0.000221411
0.000229959
0.00018911
0.000147628
0.00014615
0.011315
0.000145172
0.000207382
0.000155872
0.000149027
0.000148969
0.000148342
0.000152895
0.000147735
0.000145802
0.000151565
0.000149219
0.0548962
0.000144798
0.000161386
0.00017783
0.000163638
0.000147463
0.000149238
0.000168054
0.0107785
0.000149179
0.000150817
0.000170639
0.000180831
0.000192562
0.0421673
0.000166344
0.000145425
0.000148416
0.000165799
0.000149295
0.0467807
0.000161739
0.00014794
0.000149067
0.000150474
0.00017186
0.000176131
0.000159371
0.000189971