/*--------------------------------*- C++ -*----------------------------------*\
| =========                 |                                                 |
| \\      /  F ield         | OpenFOAM: The Open Source CFD Toolbox           |
|  \\    /   O peration     | Version:  v2012                                 |
|   \\  /    A nd           | Website:  www.openfoam.com                      |
|    \\/     M anipulation  |                                                 |
\*---------------------------------------------------------------------------*/
FoamFile
{
    version     2.0;
    format      ascii;
    class       volVectorField;
    location    "400";
    object      U;
}
// * * * * * * * * * * * * * * * * * * * * * * * * * * * * * * * * * * * * * //

dimensions      [0 1 -1 0 0 0 0];


internalField   nonuniform List<vector> 
18618
(
(0.995598 0.0200159 -1.15233e-22)
(1.11883 0.0311421 0)
(1.02075 0.0156133 3.84588e-21)
(0.981378 -0.0030229 7.67056e-21)
(0.999482 0.0173705 9.14585e-21)
(0.955956 -0.0129654 -8.21765e-21)
(1.18742 0.132722 -6.32393e-20)
(0.372724 0.0167178 0)
(1.09091 0.0140025 0)
(1.08103 -0.00388762 -2.24391e-20)
(1.00001 0.017236 0)
(0.991814 0.0186349 -4.15638e-21)
(1.00836 0.000533446 -3.02807e-21)
(0.993212 0.0205366 -1.60598e-20)
(1.00308 0.00878201 -3.23236e-21)
(0.954142 -0.0167624 1.18727e-21)
(1.02282 0.0143896 2.87746e-22)
(0.995329 0.0199684 1.13935e-20)
(1.01784 0.00530123 0)
(1.08521 0.00306627 1.78248e-20)
(1.00339 0.00885876 0)
(0.490638 0.00464379 1.01352e-19)
(1.01415 0.00382784 0)
(0.99231 0.0175547 9.34847e-21)
(1.17129 0.261022 0)
(1.09148 0.0134292 -1.63264e-20)
(1.08574 0.110093 0)
(1.01488 0.527995 -3.07295e-20)
(0.922243 0.216716 1.37742e-20)
(1.0202 0.0158583 -3.60353e-21)
(0.989438 0.0364305 1.14742e-20)
(1.0096 0.0295091 -3.89976e-21)
(1.05265 -0.00279514 -5.89569e-21)
(1.00542 0.00596675 -3.29586e-21)
(0.917061 0.0175529 -2.44499e-20)
(0.956684 0.0230976 0)
(1.0142 0.014559 -2.09475e-21)
(1.10533 0.00116657 4.25192e-20)
(0.406793 0.0119311 1.69074e-21)
(1.01397 0.00412438 -4.41107e-21)
(-0.0350457 -0.0120917 6.78184e-20)
(0.559299 -0.00485829 -2.81383e-21)
(0.737944 0.0339616 -2.96839e-20)
(0.881837 0.0452128 2.68613e-20)
(1.0545 0.0407661 -5.97425e-21)
(0.890143 0.0302542 1.86526e-20)
(0.531171 0.0185032 0)
(0.976258 0.100981 -1.81971e-20)
(1.09807 0.0720031 5.19075e-21)
(1.07308 0.0297586 5.46952e-20)
(1.08136 0.119345 1.33698e-20)
(1.01881 0.028175 0)
(1.0313 0.153642 6.33618e-21)
(0.915651 0.199267 0)
(1.10967 -0.00239254 -4.9898e-21)
(1.10276 -0.00257571 0)
(0.98554 0.164649 0)
(1.07665 0.00592351 7.59351e-21)
(-0.0421147 -0.0131021 -6.83837e-20)
(1.13105 0.00892207 0)
(0.182848 0.00102823 -3.98404e-20)
(1.17667 0.0891614 -4.42589e-20)
(1.09699 0.0758445 4.01148e-21)
(1.00388 0.00126831 0)
(1.14958 0.0954539 0)
(1.11438 0.072985 -9.4706e-21)
(1.12544 0.0164652 0)
(1.05563 0.0362771 6.19823e-21)
(1.00882 0.000624677 -6.16805e-21)
(-0.0249646 -0.0137455 5.00471e-20)
(1.08264 0.0167741 8.77095e-21)
(1.01755 0.00540054 7.2814e-22)
(0.998797 -0.00184518 -9.55785e-21)
(1.09234 0.00344506 0)
(0.257463 0.0142664 0)
(0.930045 0.0192835 0)
(0.997535 -0.00430407 0)
(0.992086 0.0102712 -1.14386e-20)
(1.01021 0.00567657 1.06426e-20)
(1.11631 0.0776271 6.32766e-21)
(1.04207 0.0292674 2.89235e-21)
(1.00553 0.0058083 6.6404e-21)
(0.977381 -0.0119632 9.64739e-21)
(0.976371 0.0461256 1.20372e-20)
(0.421112 0.000910259 -9.96102e-20)
(1.01452 0.0158774 0)
(1.14488 0.0814373 -1.14931e-20)
(-0.0114872 -0.0152936 -3.92868e-20)
(1.17708 0.0894871 4.5888e-20)
(0.00187835 0.147277 -6.18376e-20)
(1.00956 0.0129816 0)
(0.209796 -8.57858e-05 3.40267e-20)
(1.0838 0.0132583 0)
(1.01289 0.00544744 -4.57162e-21)
(0.275298 0.00237078 -3.05591e-20)
(1.18119 0.100084 0)
(0.988605 0.0347984 0)
(1.08487 0.0135266 -2.4629e-20)
(1.00447 0.000381975 0)
(0.625281 0.0223789 0)
(1.0779 0.0302513 -4.7138e-20)
(0.127736 0.103953 0)
(1.00918 0.0278936 0)
(1.08375 0.0134174 1.49203e-20)
(0.935467 0.220679 8.51857e-21)
(1.09539 0.0298991 1.7635e-20)
(1.16122 0.253198 3.53534e-20)
(1.00621 0.000795849 1.08838e-24)
(1.17682 0.098697 -3.79947e-20)
(1.18447 0.103968 3.14537e-20)
(0.0276472 -0.0106118 2.39198e-20)
(1.0435 0.0109615 0)
(0.562665 0.0148705 0)
(0.853358 0.0711844 -3.28942e-20)
(0.990215 0.00503657 5.09109e-21)
(1.01373 0.00438637 -1.351e-21)
(1.17943 0.139964 4.27062e-20)
(0.980615 -0.00240081 0)
(1.03145 0.156726 2.84956e-21)
(0.347337 0.0192688 0)
(0.934572 -0.0112233 -2.74848e-20)
(1.02213 0.0316962 4.26515e-22)
(1.04506 0.0279997 4.30244e-21)
(0.964977 -0.00441513 0)
(1.09001 0.0398103 -2.49909e-20)
(1.10906 0.0519993 5.3619e-21)
(1.036 0.054102 0)
(1.148 0.102169 0)
(1.14939 0.13797 -3.43086e-22)
(1.07941 0.00270847 -3.55513e-20)
(0.716906 0.0477233 0)
(1.10396 0.018771 1.76254e-20)
(1.08385 0.00370968 -5.20162e-21)
(0.989253 0.154151 3.62317e-21)
(1.00648 0.00904321 3.14917e-21)
(1.0641 0.0223452 1.25505e-20)
(0.99965 0.00538081 4.35272e-21)
(0.0481726 -0.0118915 -1.1253e-20)
(0.686613 0.0968733 5.09075e-22)
(0.995245 0.014464 0)
(0.282608 0.00858109 -6.46606e-21)
(1.18448 0.105022 2.66678e-20)
(1.00999 0.00533793 -5.55821e-21)
(1.00517 0.000773229 -4.57504e-23)
(1.0429 0.0117127 2.40326e-21)
(0.99049 0.00453614 -1.02569e-20)
(1.01207 0.00140095 1.37511e-21)
(0.978358 -0.0116882 -2.98169e-22)
(1.00456 0.000478282 -5.04072e-21)
(0.979917 0.0213528 -1.11402e-20)
(1.10951 0.00447269 1.43558e-22)
(0.998752 0.0180596 2.40517e-21)
(1.04946 -0.00523233 -5.03296e-21)
(0.961039 0.0129215 0)
(1.04389 0.028035 -1.23898e-21)
(0.315376 0.0046484 -6.48194e-21)
(1.01868 0.0100243 0)
(1.05625 0.0831342 -5.31938e-21)
(1.01926 0.0254914 0)
(1.04859 0.618059 -2.61052e-20)
(1.08899 0.0377068 3.23431e-20)
(0.982719 0.0991324 -3.49942e-21)
(1.08731 -0.0177054 6.54179e-20)
(1.12692 0.0152923 -2.42861e-20)
(0.989251 -0.00132335 0)
(0.964933 0.0792403 -4.60227e-21)
(0.975298 0.0454776 -2.49513e-21)
(0.37041 -0.0127028 -4.22171e-20)
(0.986254 0.00864683 0)
(1.08463 0.0129415 3.30482e-20)
(0.999997 -1.24076e-05 -1.90075e-20)
(1.05119 -0.00232487 -1.08229e-20)
(1.11221 0.0671019 -4.00255e-20)
(1.12578 0.195891 4.22196e-20)
(0.70536 0.0373114 -4.56527e-21)
(0.981522 -0.010105 1.95806e-21)
(0.981956 0.392918 -9.00895e-21)
(0.96059 0.0119352 9.02175e-21)
(1.00207 0.000300611 -2.67554e-21)
(1.05787 0.043705 9.0873e-21)
(1.10764 0.00507788 4.74017e-20)
(0.918911 0.0170941 0)
(1.06966 0.533808 0)
(0.998819 -0.00157994 -9.37334e-21)
(1.00133 0.000235942 -6.9037e-21)
(0.949816 0.110823 8.30512e-21)
(1.12547 0.0136403 -2.1409e-20)
(0.801176 0.3359 0)
(1.14163 0.0846308 1.13145e-20)
(0.994033 0.0205395 6.88725e-21)
(0.999481 0.00620329 9.32851e-21)
(0.912794 0.0733797 -3.46784e-20)
(0.963533 0.0814127 4.08484e-21)
(1.02295 0.0147783 -3.94728e-22)
(1.0101 0.00519567 0)
(1.10267 0.00972819 2.76994e-20)
(0.995218 0.014709 4.82276e-21)
(0.98839 0.0359195 7.38813e-22)
(0.539163 0.0307372 0)
(1.05599 0.0392616 1.21512e-20)
(1.10923 0.048735 4.36483e-22)
(0.75058 -0.0101129 0)
(1.08732 0.00394742 0)
(0.512928 0.0324811 0)
(0.952484 0.39713 9.45723e-22)
(0.965717 0.0462603 1.79137e-21)
(0.332241 0.00555247 2.58548e-20)
(0.132344 0.106197 8.85594e-20)
(1.00057 0.000124775 -1.14296e-20)
(1.01426 0.0051618 -2.99652e-22)
(1.14415 0.111727 0)
(1.13723 0.110363 1.8646e-20)
(1.01083 0.0489873 3.06107e-21)
(1.01193 0.00131882 0)
(0.995607 0.0275065 1.38674e-20)
(0.999772 -0.00159014 -3.48286e-21)
(1.0607 0.0249143 0)
(1.18242 0.252915 1.23819e-20)
(0.935959 -0.00396707 1.7467e-21)
(1.0256 0.0233478 3.4033e-22)
(0.981157 0.0217846 0)
(1.04342 0.0291771 1.5088e-21)
(0.495333 -0.00359389 0)
(0.999561 -0.00235877 0)
(-0.000498516 -0.0141182 -5.22051e-20)
(0.988737 -0.000962934 -8.07455e-23)
(1.02163 0.0319798 0)
(1.11598 0.087716 0)
(1.14392 0.138277 3.11162e-20)
(1.057 0.0344453 -4.58891e-22)
(0.972669 0.0509255 -1.95511e-20)
(1.05864 0.0393312 -3.90629e-21)
(1.00615 0.000788929 -4.72134e-21)
(0.303466 0.00728817 -3.28708e-20)
(1.05793 0.044481 0)
(1.00079 0.00121305 7.25238e-21)
(0.998164 -0.00256708 -9.7647e-21)
(1.08366 0.012678 -2.4286e-20)
(1.08593 0.00500759 3.31817e-20)
(1.03535 0.0144987 -2.92204e-21)
(1.11783 0.0353137 -1.67807e-20)
(1.019 0.0272439 0)
(0.998254 0.00429119 -4.05169e-21)
(0.594238 0.0250857 -2.17956e-22)
(1.07688 0.00451026 0)
(1.05629 -0.0145011 -2.17394e-21)
(1.10418 0.011186 -1.32944e-20)
(1.00083 0.00116955 0)
(0.0362805 -0.0118164 0)
(0.979039 -0.00439798 -1.10583e-21)
(1.0127 0.00518637 -8.93755e-21)
(0.546868 0.000317823 0)
(0.980853 0.102212 -8.0926e-21)
(1.10393 0.0192223 4.9072e-20)
(1.06846 0.021611 8.36609e-21)
(1.03651 0.055978 0)
(1.08568 0.0135679 0)
(0.998032 0.00466591 5.03487e-23)
(1.01386 0.00291402 -3.83474e-21)
(1.02579 0.0239146 2.11515e-23)
(0.990249 0.00549002 1.25482e-22)
(1.06015 0.0248428 0)
(1.18097 0.250387 -1.18992e-20)
(0.924425 0.00898307 -2.21194e-20)
(0.519508 0.00410222 0)
(1.10421 0.00520748 0)
(1.08774 0.012763 0)
(0.973793 0.101504 4.72201e-21)
(1.11018 0.059701 2.50556e-20)
(0.899023 0.0558638 -2.0259e-20)
(1.11526 0.0933157 2.40481e-20)
(0.999574 0.00510565 6.01348e-21)
(1.01991 0.0395032 0)
(0.99069 0.00574915 1.11212e-20)
(0.999978 -6.36353e-05 8.35569e-21)
(0.926353 0.0535648 1.86534e-20)
(1.06659 0.0397739 -1.36405e-20)
(0.982296 0.0282445 -5.99523e-21)
(1.02688 0.0183258 -7.85558e-23)
(0.49371 -0.000698967 2.33034e-20)
(1.00208 0.00439508 0)
(1.07756 0.0102859 1.51851e-20)
(0.985396 0.00339664 0)
(0.996861 0.0415036 0)
(0.477036 0.0107274 0)
(0.979428 -0.00390129 2.61349e-22)
(1.0119 0.0150496 -4.32506e-21)
(0.915088 0.163512 -1.47794e-20)
(1.08768 0.0354702 7.71786e-21)
(1.08476 0.0169848 4.33085e-20)
(1.0213 0.00884192 1.31606e-21)
(1.0802 0.0219021 1.71342e-21)
(0.98306 -0.00126697 2.10212e-20)
(1.04925 -0.00666685 0)
(0.785773 0.163676 3.41567e-20)
(1.12653 0.20623 -4.06966e-20)
(0.317618 -0.00246503 0)
(1.0831 0.0308139 0)
(1.06815 -0.0111192 -8.77235e-20)
(1.00999 0.0262262 7.30958e-21)
(0.954722 0.113892 -8.79682e-21)
(1.00408 0.00123872 2.46063e-21)
(1.06914 0.0759257 -1.54136e-20)
(0.965157 0.0468206 -1.52218e-21)
(1.00044 0.00418244 0)
(1.00057 0.00012968 1.03149e-20)
(0.988432 0.0131051 8.85171e-21)
(0.757387 0.0416773 0)
(1.11447 0.0714854 4.53689e-20)
(1.05669 0.0109561 0)
(1.09133 0.00601354 -1.0069e-23)
(1.01402 0.00303248 2.23186e-21)
(0.808361 0.347998 -1.90973e-20)
(0.999617 -0.00207099 0)
(0.99861 -0.00254621 -6.31746e-22)
(0.994679 0.014171 -2.47982e-21)
(0.997754 0.0411544 3.95519e-21)
(1.05155 0.00236235 -3.29944e-22)
(1.07341 0.00571232 1.34561e-20)
(1.16717 0.086443 -1.67327e-20)
(1.01183 0.00102703 -8.58241e-21)
(1.10779 0.00714569 8.30376e-23)
(0.998992 0.00190218 0)
(0.693023 -0.0100681 3.71921e-21)
(0.9992 -0.00144673 9.22143e-21)
(1.09943 0.00619127 5.94829e-20)
(1.12461 0.0159924 1.91804e-20)
(0.993995 0.0143869 1.34567e-20)
(1.03222 0.00986686 1.17961e-22)
(1.12259 0.369718 3.81118e-20)
(1.03504 0.113008 0)
(0.641731 0.143554 -1.96212e-20)
(0.988752 0.013746 -1.05875e-22)
(0.998435 -0.00258659 6.32492e-22)
(1.06482 0.0228626 -7.26304e-21)
(0.999525 0.00555829 -1.73521e-20)
(1.13611 0.00886547 7.69272e-20)
(1.00956 0.0504351 -2.05694e-21)
(1.03489 0.0146011 3.00863e-21)
(1.08013 0.013915 -3.32286e-20)
(1.07893 0.0196816 -4.08193e-22)
(1.09617 0.0802082 -9.62889e-21)
(0.614 0.082401 3.95148e-20)
(1.1065 0.136915 0)
(1.00038 0.00401564 0)
(1.09189 0.0450197 -6.85102e-21)
(1.01384 0.0631238 -2.50988e-21)
(1.11123 0.0631446 -1.27625e-20)
(1.08054 0.021035 0)
(1.01395 0.00422333 4.35995e-21)
(0.9926 -0.00103532 9.77171e-21)
(1.02211 0.00752014 5.22148e-23)
(1.09875 0.0286184 0)
(0.999849 0.00169936 -6.17669e-21)
(0.990641 0.00646417 -1.0239e-20)
(1.00131 0.00022094 0)
(0.999134 0.00174055 -1.02299e-21)
(1.08 0.0205015 1.4967e-20)
(0.963294 -0.00587546 -1.13791e-20)
(1.01995 0.0391963 -3.62801e-22)
(1.00657 0.00482481 1.19278e-20)
(0.474955 0.00825979 -1.50595e-20)
(0.502267 -0.00626837 -1.19657e-20)
(1.07614 0.00210086 0)
(0.664294 0.043098 -4.37667e-20)
(0.433945 -0.000758992 -1.08237e-22)
(0.998046 0.00398448 5.90854e-21)
(0.998735 -0.0019018 6.02503e-21)
(1.0787 -0.00409612 -3.20139e-20)
(1.08358 0.0127646 2.991e-20)
(1.00969 0.012671 -5.07256e-21)
(0.983639 -0.0018028 -1.34794e-20)
(0.907776 -0.00816142 1.1534e-20)
(1.05507 0.0451574 2.00002e-20)
(1.0117 0.00103482 8.72117e-21)
(0.992223 0.0107474 1.31891e-20)
(1.11499 0.100001 0)
(0.935235 -0.00931396 1.45298e-22)
(1.00209 0.00431238 0)
(1.04158 -0.0335276 -1.04263e-22)
(1.10282 0.14279 0)
(0.999988 0.000158374 0)
(1.0113 0.0151916 2.27884e-21)
(1.03175 0.0100434 6.00496e-22)
(0.909563 0.185687 0)
(1.00936 0.00643555 0)
(1.08847 0.0973809 0)
(0.968919 0.300863 1.63041e-21)
(0.99826 0.0043293 4.12016e-21)
(1.07793 0.0105331 0)
(0.958478 0.0140345 -2.17403e-20)
(0.997618 0.00261737 1.27799e-20)
(1.11214 0.0058907 2.20596e-20)
(0.0146423 -0.0111375 3.29445e-20)
(0.992558 -0.00121258 -2.14203e-20)
(0.81653 0.256379 3.7119e-20)
(0.191356 -0.00129897 -1.75375e-20)
(1.09557 0.0275475 0)
(1.00096 0.00121423 0)
(0.7914 0.0388205 2.09824e-20)
(0.983517 -0.00231512 -3.56664e-21)
(1.05439 -5.47177e-05 -1.00794e-20)
(1.0521 0.0148115 0)
(0.958319 -0.000346173 0)
(1.00889 0.00619838 0)
(1.12903 0.0166671 5.12957e-20)
(0.999692 0.00496523 -5.08402e-21)
(0.975723 0.0489747 8.25701e-21)
(1.05249 0.00346698 1.04901e-20)
(0.990374 0.00414083 1.14959e-20)
(1.02268 0.0246668 3.02343e-22)
(0.999991 5.29852e-05 0)
(1.00861 0.00618075 0)
(1.02189 0.00722083 0)
(0.975996 0.0437655 2.51023e-21)
(1.07604 0.0100964 0)
(1.01348 0.00280371 -4.6209e-21)
(1.03704 0.0131843 4.65613e-21)
(1.05887 0.0813449 -6.33027e-21)
(1.05696 0.0449353 -9.84204e-21)
(1.01395 0.00515469 0)
(0.279007 0.00641836 0)
(1.05179 0.0163333 -1.3007e-20)
(1.05376 0.0392371 6.42818e-21)
(1.00941 0.006211 -3.1503e-21)
(0.750081 0.141995 -6.98498e-20)
(1.07669 0.0105204 -1.45254e-20)
(1.04307 0.0123439 -2.5955e-21)
(1.11909 -0.0321872 0)
(1.07792 0.0309298 0)
(0.99783 0.00271239 -1.06839e-20)
(0.998032 0.00484206 0)
(0.894846 0.0424839 3.87275e-20)
(1.00357 0.00099416 0)
(1.01293 0.0127375 1.70532e-21)
(0.898741 0.0516273 2.76077e-20)
(0.997831 -0.00431587 -9.10514e-21)
(0.977689 -0.00489134 1.74402e-20)
(1.13737 0.0572944 -5.67973e-20)
(1.10058 0.0309312 1.10744e-20)
(0.934157 0.0496122 -1.23296e-20)
(1.12138 -0.0277367 -1.39244e-20)
(0.980345 -0.0102683 -2.74519e-21)
(1.0398 0.0883015 6.39212e-22)
(0.516756 0.00756237 1.27158e-20)
(1.08903 0.0374052 0)
(0.956397 0.0558974 -2.00933e-20)
(0.888678 0.0467274 0)
(1.09704 0.0267311 2.55072e-20)
(1.00077 0.0023807 0)
(0.959532 0.0788479 1.07497e-20)
(0.999793 -0.00143143 7.07557e-21)
(1.04944 -0.0323664 -1.12145e-20)
(0.978812 0.115106 1.78713e-21)
(1.0008 0.00359806 8.07407e-21)
(1.13913 0.0813798 2.1482e-20)
(0.990602 0.00382752 -9.09391e-23)
(1.01982 0.0261838 0)
(0.999784 0.0407889 -2.32602e-21)
(0.334695 -0.0129576 0)
(0.976665 -0.00165123 -5.94039e-21)
(1.04583 0.0177324 -8.82992e-21)
(0.748535 0.145651 -4.56837e-20)
(1.00086 0.00269518 7.76605e-21)
(1.10992 0.130673 0)
(0.990165 0.0332845 -7.9505e-21)
(1.00098 0.00353744 0)
(0.999996 5.61077e-05 -6.37482e-21)
(1.13488 0.0536548 3.83692e-20)
(1.00968 0.00748924 -3.6299e-21)
(1.04602 0.0181807 6.79208e-21)
(1.05675 0.0847577 4.64016e-21)
(1.04257 0.0127231 0)
(1.12898 0.011753 8.38298e-21)
(1.05124 0.0198241 0)
(1.0141 0.0662415 2.15675e-21)
(0.29096 0.00393682 1.30529e-20)
(1.05083 0.0117024 1.28794e-20)
(1.09224 0.0060647 -2.72622e-20)
(1.03193 0.110274 -2.06414e-21)
(0.820385 0.251534 -3.52075e-20)
(0.939164 -0.0104288 2.5458e-20)
(1.08049 0.0156632 1.13534e-20)
(1.03572 0.00740134 -1.1485e-21)
(0.906243 0.312606 1.35056e-20)
(0.978891 -0.00503155 0)
(1.10694 0.13553 -5.43104e-21)
(1.03728 0.034088 7.48046e-21)
(0.994734 0.160768 0)
(1.05916 0.0349683 7.87623e-21)
(1.08892 0.0114262 -7.05101e-21)
(0.669006 0.135172 7.72321e-20)
(0.996847 0.0268884 -6.53519e-21)
(0.998703 -0.00251672 0)
(0.94247 0.0332414 0)
(1.08061 0.0112972 4.34716e-21)
(1.09228 0.0145963 -1.49095e-23)
(0.74438 0.0477492 -5.37294e-20)
(0.941285 -0.015361 -3.42545e-20)
(0.999246 -0.00139043 -9.38687e-21)
(0.999981 -4.6934e-05 -1.3826e-20)
(1.00602 0.010215 -5.25347e-21)
(1.13099 0.00565682 -6.62031e-20)
(1.00087 0.00262478 0)
(1.05289 0.0135949 3.39541e-21)
(1.11326 0.0666375 2.64112e-20)
(0.969041 0.0485218 0)
(0.953031 0.0609118 2.19979e-20)
(1.0916 0.00302809 7.88129e-21)
(0.95902 0.298749 3.20018e-21)
(0.895442 0.0208563 0)
(1.00709 0.00545949 -4.88485e-21)
(1.05086 0.0118044 -1.89463e-20)
(1.05166 0.0124283 3.66041e-21)
(1.09171 0.0433963 -1.42841e-20)
(0.99942 0.000741102 9.03821e-21)
(1.03349 0.00794546 -6.30474e-23)
(0.998869 -0.00241482 0)
(1.04676 0.155133 1.08061e-21)
(0.652679 0.0416866 0)
(1.02276 0.0242379 0)
(0.999457 0.000807568 0)
(1.09552 0.00482734 -1.81031e-20)
(1.09332 0.0519898 -3.28502e-20)
(1.02366 0.0153827 -9.71875e-22)
(1.00091 0.00128548 -7.68298e-21)
(0.75163 0.0501435 -2.94699e-20)
(0.994737 -0.00367917 0)
(0.376578 0.0260832 7.15487e-21)
(1.00018 0.00074154 0)
(1.0861 0.0185698 -5.10397e-21)
(1.04148 -0.0670075 0)
(0.968264 0.0487248 0)
(0.958066 0.0779456 -2.95859e-20)
(1.07881 0.0126373 0)
(0.999897 0.000314842 -6.3131e-21)
(0.157623 0.00175111 0)
(0.999995 -3.6335e-05 1.44839e-20)
(1.00668 0.00604526 6.91669e-21)
(1.0095 0.0266059 -3.80853e-21)
(1.07146 0.0153144 1.8391e-20)
(0.920143 0.00917848 3.3798e-20)
(1.04445 -0.0325231 -5.44946e-21)
(0.922301 0.15921 1.3078e-20)
(0.996499 0.00263106 2.88732e-21)
(0.999395 0.000970475 -4.40245e-21)
(1.09532 0.00573982 0)
(1.17914 0.0791518 -4.2615e-20)
(1.01472 0.00516941 2.68576e-21)
(0.985642 0.00291183 0)
(0.999158 0.00574648 0)
(1.08293 0.0157695 -2.00883e-20)
(0.938959 0.312061 0)
(1.0146 0.0153763 0)
(1.14235 0.133153 -7.8534e-20)
(1.01081 0.00995046 -4.45408e-21)
(0.653139 0.0504274 4.45414e-20)
(1.00075 0.00276283 -6.88875e-21)
(1.07201 0.174634 -7.19682e-21)
(1.07888 0.0125775 -2.02722e-20)
(0.714738 0.113425 1.81934e-20)
(1.03464 0.0153202 2.62267e-21)
(0.909865 0.0394746 0)
(0.951254 0.0524577 5.91876e-22)
(0.99548 0.00892676 -2.32487e-21)
(1.08318 -0.018813 -1.73595e-20)
(1.13019 0.0116767 2.20672e-20)
(0.997194 0.0159526 0)
(1.11208 0.0631524 -2.58607e-20)
(0.989534 0.0143606 -6.13765e-21)
(1.00104 0.000337247 0)
(0.562466 0.00311656 0)
(0.99653 -0.0047823 -1.66104e-20)
(0.790248 -0.0133562 3.08553e-20)
(0.85697 0.0619771 6.28347e-20)
(0.694586 0.03968 0)
(1.17787 0.0860099 7.09609e-20)
(1.0769 0.124024 -5.79244e-21)
(1.09426 0.00218484 2.26286e-20)
(1.01482 0.0119563 0)
(1.04434 0.0856469 2.87722e-21)
(0.933746 0.0476024 -2.48032e-20)
(1.06609 0.0415673 0)
(0.999452 0.000833106 5.04292e-21)
(0.993514 -0.00733607 8.53231e-21)
(1.01479 0.0116117 0)
(0.999685 0.00141537 4.77776e-21)
(1.00972 0.00624838 0)
(0.0236398 0.125638 5.97788e-20)
(0.749159 0.190867 -5.62096e-20)
(1.00187 0.00361356 0)
(1.00667 0.00513235 -9.15672e-21)
(0.995504 0.0281897 -6.36674e-21)
(1.01463 0.0144811 -2.56221e-21)
(0.998895 0.0415481 -1.4607e-20)
(1.04566 0.0836852 8.64611e-21)
(1.15209 0.144095 0)
(1.05555 0.0231693 6.55175e-21)
(1.1085 0.124977 2.93057e-21)
(1.00472 0.00481954 -7.18795e-21)
(0.997936 0.00218237 0)
(1.10301 0.00782955 -3.87769e-20)
(0.984977 0.154285 -3.93964e-21)
(0.982524 0.0233264 -1.16068e-20)
(0.990349 0.00633787 0)
(1.0346 0.115993 5.43838e-21)
(1.00091 0.000341247 0)
(1.03141 0.00970632 -8.00723e-22)
(1.00199 0.000314757 3.09994e-21)
(0.978629 0.105744 -3.86977e-21)
(1.13737 -0.0962169 2.91523e-20)
(0.354033 0.00655403 -1.33958e-20)
(0.763902 0.0334415 3.63979e-20)
(1.17675 0.131362 -6.55517e-20)
(0.0919587 0.1208 -9.39261e-20)
(1.00732 0.000508925 0)
(1.05159 0.0126728 1.19373e-20)
(1.03915 0.016717 -1.49789e-20)
(0.985797 0.00391632 0)
(0.950817 0.055455 -1.63689e-20)
(1.03329 0.00813573 0)
(1.00979 0.00591974 2.82656e-21)
(1.08781 0.00342195 -4.68976e-23)
(1.08117 0.117624 -1.46166e-20)
(0.999924 0.000298069 0)
(1.08646 0.0123313 0)
(1.0168 0.0263896 -2.52677e-21)
(0.986928 0.00459899 0)
(1.13492 0.084717 -5.90749e-20)
(0.99505 -0.00381833 0)
(0.960697 0.0598575 -1.53883e-20)
(0.994097 0.006889 1.10358e-20)
(1.06142 -0.042565 6.80742e-20)
(1.03093 0.00981541 0)
(0.896116 0.334473 -2.54691e-20)
(1.14017 0.0620957 3.50815e-20)
(1.08594 0.00702994 0)
(1.01373 0.047308 -1.21282e-21)
(1.06018 -0.071701 0)
(1.07817 0.00280688 0)
(1.01176 0.0295958 -3.13608e-21)
(0.9981 0.016404 -5.21167e-21)
(1.15402 -0.000830037 -9.37589e-21)
(0.838983 0.244503 0)
(1.00976 0.0072309 3.46498e-21)
(1.09868 0.00467947 0)
(0.819981 0.130071 -1.06416e-19)
(0.966075 -0.00918855 0)
(1.02099 0.0374582 -8.83258e-22)
(0.937872 0.00377087 8.60293e-21)
(0.801929 0.0542978 -1.12427e-19)
(0.996679 0.00232299 -2.82255e-21)
(1.01092 0.00973695 9.28998e-21)
(1.04175 0.15545 -2.61399e-21)
(1.03275 0.011103 0)
(0.991167 0.0709466 1.13332e-20)
(1.00187 0.00348205 -4.81398e-22)
(1.08694 0.0171702 -1.92432e-20)
(1.00481 0.00534876 -4.0772e-21)
(0.999748 0.00650106 -6.54036e-21)
(-0.130522 -0.0188407 0)
(1.08354 0.0123786 -5.78953e-21)
(0.999613 0.00134441 1.00875e-20)
(1.00617 0.00626188 -3.82817e-21)
(1.07544 0.00573707 -7.24439e-21)
(0.996444 0.0206459 -5.87406e-21)
(1.06771 0.0300705 7.29757e-21)
(1.00042 0.00114579 1.0485e-20)
(0.843617 0.247243 2.88697e-20)
(0.958339 0.0615822 1.84375e-20)
(0.761402 0.0507304 -2.34097e-20)
(0.999995 -5.74045e-05 6.78902e-21)
(0.998874 -0.00152338 0)
(0.981768 0.0275444 0)
(1.00499 0.000671986 6.18335e-21)
(1.13738 0.0563446 -3.27249e-20)
(0.303631 -0.0112014 -4.90185e-20)
(1.12169 0.0345718 1.39354e-20)
(0.622909 0.0957628 -5.47331e-20)
(1.06945 0.00758675 2.51922e-20)
(-0.0287425 -0.0142272 5.8341e-20)
(1.06677 0.0249546 -3.06296e-20)
(1.07758 0.00807554 0)
(1.00039 0.00100108 3.53748e-21)
(0.997366 -0.00440576 6.06472e-21)
(0.979213 0.0340082 0)
(1.10591 0.00731308 -9.64207e-21)
(0.99672 -0.00486379 1.64465e-20)
(1.05239 0.0152784 1.34022e-20)
(0.995622 0.00378336 0)
(1.08226 0.0147108 -1.13892e-20)
(1.01195 0.00532296 1.1028e-20)
(0.999938 0.00627552 2.54827e-21)
(0.992158 0.00925929 0)
(1.10237 0.0177778 4.463e-20)
(0.886806 0.370346 0)
(0.974392 -0.0134157 -2.98525e-20)
(0.999986 0.00353868 8.13019e-21)
(1.00004 0.00369941 1.26039e-21)
(1.09676 0.0282202 0)
(1.12236 0.0153549 2.14705e-20)
(1.0221 0.0630753 2.59284e-22)
(0.986671 0.101092 4.1232e-21)
(1.11404 0.05794 0)
(1.03422 0.00776659 0)
(1.00992 0.00488926 -1.41064e-21)
(1.0656 0.0240542 3.16604e-22)
(0.652295 0.0214361 0)
(1.05025 0.0402762 -2.1742e-23)
(1.00482 0.00461792 7.79279e-21)
(1.01315 0.00223543 2.82898e-21)
(0.976463 -0.0121099 1.39121e-20)
(1.0508 0.0193807 5.30286e-21)
(1.08073 0.0112382 2.4075e-22)
(-0.000623442 0.199087 -1.86109e-20)
(1.08807 0.00615492 3.44056e-20)
(1.0577 0.0363889 -1.53837e-20)
(1.10373 0.00427304 -2.43785e-20)
(1.01154 0.0134015 5.39946e-22)
(1.00745 0.000169734 4.62424e-21)
(1.05295 -0.00383194 1.28413e-20)
(1.01364 0.00306489 0)
(-0.135815 -0.0237991 0)
(0.967362 0.0312382 6.71734e-20)
(0.592926 0.014004 -3.50407e-21)
(1.06899 -0.00713383 -6.02735e-21)
(1.10092 0.0290316 1.68445e-20)
(1.02159 0.0113691 0)
(0.994434 0.00711772 0)
(1.08272 0.0672022 -1.1025e-20)
(1.08264 0.0167922 0)
(0.693334 0.0497471 6.1106e-21)
(0.998083 0.00381018 0)
(1.0422 0.0902294 -6.1242e-21)
(1.0516 -0.00975632 0)
(1.01709 0.0260105 0)
(1.10011 0.0284576 0)
(0.748309 0.0522082 3.33337e-20)
(1.01174 0.00501156 1.5847e-23)
(1.00233 0.000358015 6.28203e-22)
(0.913867 0.0790746 2.33548e-20)
(0.998264 -0.00414522 2.15558e-20)
(0.934276 -0.0138482 2.40804e-20)
(1.07695 -0.0820005 0)
(1.05338 0.00242161 -6.21184e-20)
(0.133995 -0.00663309 0)
(1.02641 0.208676 4.19951e-21)
(1.11115 0.118216 1.17083e-20)
(1.07615 0.00347829 1.28143e-20)
(0.684501 0.0431648 -1.32457e-20)
(1.00894 0.0125454 4.85941e-21)
(1.06759 -0.00298106 -1.09494e-20)
(0.998105 0.00225468 0)
(1.01179 0.047989 0)
(0.595101 0.0415696 -2.77358e-20)
(1.01314 0.00213014 5.5786e-22)
(0.923239 0.542726 4.92924e-21)
(0.99673 0.0204841 -7.65897e-21)
(1.04541 0.0274675 1.51514e-23)
(1.17875 0.0811045 0)
(0.899826 0.324696 1.05841e-20)
(1.02028 0.0321497 -1.00683e-21)
(1.00008 9.27242e-05 0)
(1.06881 0.0211421 5.05078e-21)
(0.986999 0.00823663 0)
(1.13513 0.11539 -5.14297e-20)
(1.15383 -9.77606e-05 0)
(1.01736 0.0274714 4.39815e-21)
(1.06923 0.00821735 -3.6304e-20)
(-0.136732 -0.0191648 5.15389e-20)
(1.00066 0.00125426 6.93903e-21)
(0.930741 0.059113 2.73634e-20)
(1.02993 0.120354 -3.58423e-21)
(1.00078 0.00389777 -8.86104e-21)
(0.986496 -0.00254915 -1.05509e-20)
(1.0023 0.0229686 -2.87119e-21)
(0.321188 0.0083682 2.40494e-20)
(0.817941 0.335417 1.62489e-20)
(1.00481 0.00490904 -4.29604e-21)
(1.00078 0.00229942 -7.58734e-21)
(0.991939 0.0686821 -5.19505e-21)
(-0.101453 -0.0198701 -3.70463e-20)
(1.01288 0.000544426 0)
(0.984088 -0.00276831 3.49157e-21)
(-0.0762031 -0.0121707 0)
(1.00652 0.0057406 7.37362e-21)
(1.01222 0.00508253 0)
(1.0873 0.0172883 1.93138e-20)
(0.685574 0.0453962 1.07691e-20)
(1.08351 0.0146484 3.51241e-20)
(1.00098 0.00346337 8.13073e-21)
(1.0096 0.00498825 1.3349e-21)
(1.04866 -0.0294157 6.87362e-21)
(0.967212 -0.00981919 -7.70499e-23)
(0.999646 0.000220489 0)
(0.749827 0.0254167 -1.62147e-20)
(1.07798 0.0183825 0)
(1.08538 0.0135053 0)
(1.11105 -0.00303056 0)
(0.969664 0.0795556 0)
(0.975227 -0.0129145 2.85053e-20)
(0.991173 0.0983109 2.47228e-21)
(1.00866 0.0165712 -6.50852e-21)
(1.05761 0.0368368 7.23863e-21)
(1.07873 0.0193605 -6.9065e-21)
(1.01163 0.0130044 -4.52972e-21)
(0.287978 0.01868 6.49668e-21)
(1.06593 0.0578484 -1.42771e-20)
(1.01541 0.046445 0)
(0.856412 0.0522189 -4.88731e-20)
(1.08825 0.00919949 9.85213e-22)
(1.01217 0.100951 -9.75351e-22)
(0.829522 0.123667 8.59918e-20)
(1.06996 -0.00949193 0)
(0.988674 0.0696722 0)
(0.999526 0.00597328 -5.1171e-23)
(1.02835 0.0127579 -4.70943e-23)
(1.00942 0.00466662 0)
(0.962842 0.00992268 -8.58533e-21)
(1.0339 0.00842903 0)
(1.04266 -0.00363489 0)
(0.927654 0.0561305 -1.47911e-20)
(1.01482 0.00815872 -1.82698e-21)
(1.00052 -0.0113393 -1.27381e-20)
(1.00599 0.125606 2.81193e-21)
(0.707987 0.0279095 -5.27661e-20)
(1.17129 0.135904 2.11957e-20)
(0.988863 0.100473 -6.70811e-21)
(0.9473 0.280436 5.57006e-21)
(0.99807 -0.00263482 9.72276e-21)
(1.00061 0.00114035 -7.85236e-21)
(1.01661 0.0135662 -3.00871e-22)
(1.10505 0.00996349 4.51567e-20)
(1.05263 0.0233479 -7.05459e-21)
(1.02475 0.0230246 -3.63112e-22)
(0.99634 0.015338 -1.00653e-20)
(0.86162 -0.0172418 -4.03001e-20)
(0.99071 -0.00307933 -5.47395e-21)
(1.00692 0.00958478 1.09738e-21)
(0.990379 0.0330089 8.9051e-21)
(1.12181 0.0178078 -6.16622e-20)
(1.02315 0.0246343 0)
(0.838331 0.47116 0)
(0.964092 -0.00738323 0)
(1.01149 0.0655105 0)
(0.804297 0.0309399 3.70547e-20)
(1.01013 0.00597706 -6.13765e-21)
(0.990731 -0.00316891 -1.11327e-20)
(1.01479 0.00542654 -5.65363e-21)
(0.999916 0.00148775 7.61381e-21)
(0.0648081 0.116447 2.63751e-20)
(1.10715 -0.00387364 -1.04226e-20)
(0.213664 -0.0095442 -9.41233e-21)
(0.989371 -0.0014299 1.93503e-21)
(0.0883912 -0.0058119 2.39589e-20)
(0.695584 0.0287927 4.70278e-20)
(0.475128 -0.00316716 -2.35407e-20)
(0.623099 0.0401882 2.82769e-20)
(1.01261 0.101079 0)
(0.797781 0.0516375 -4.22956e-21)
(0.985569 -0.00821727 -1.44163e-20)
(0.8895 0.0315839 -1.85407e-20)
(0.941895 0.0438926 -1.82384e-20)
(1.09409 0.0559595 0)
(1.08688 0.00916961 0)
(0.965799 -0.00684059 0)
(0.9943 0.0689271 -1.0432e-20)
(0.986585 0.0688654 -1.02248e-20)
(0.939125 0.217984 3.03813e-20)
(0.994555 0.00374479 -4.41883e-21)
(1.01264 0.0176395 9.00635e-21)
(0.88655 -0.016732 2.63497e-20)
(1.00474 0.00433767 0)
(1.00696 0.00517299 -4.95086e-21)
(1.13116 0.0100559 0)
(0.984549 0.0159957 5.56101e-21)
(0.844933 0.0974131 -2.42638e-20)
(0.0938115 0.122994 1.02011e-19)
(0.983774 0.0158504 1.16796e-20)
(0.990407 0.0534682 1.78015e-21)
(0.99068 0.054792 2.08306e-21)
(1.00851 0.0124699 0)
(1.05712 -0.012623 0)
(0.967929 0.0959121 5.66607e-21)
(1.00042 0.000154166 0)
(1.10246 0.0114481 -5.85175e-20)
(0.922357 -0.00881151 0)
(1.07445 0.183866 -6.63048e-22)
(1.03586 0.016267 0)
(0.810251 0.0530293 7.35207e-20)
(1.04691 -0.0295433 -1.0492e-19)
(1.0458 -0.00138979 7.11272e-21)
(0.999351 0.0179762 -8.69591e-21)
(1.01941 0.00761964 -3.13677e-21)
(1.13909 0.185644 7.49684e-21)
(0.987529 -0.00240793 -3.23663e-21)
(1.00258 0.000301816 -6.37715e-22)
(1.00889 0.0243048 5.18615e-21)
(1.01458 0.00808636 -1.91222e-21)
(0.984864 -0.00798742 -7.5559e-21)
(0.999992 0.000157793 1.7861e-21)
(0.998945 -0.00183234 9.15936e-21)
(1.06771 -0.0532637 0)
(1.00154 0.000254965 0)
(1.00846 0.000277918 4.71893e-21)
(0.728588 0.144922 0)
(1.08831 0.0126239 0)
(0.995722 0.0156609 0)
(1.00639 0.00853257 5.32462e-21)
(1.00047 0.00110054 -1.07023e-20)
(0.996631 0.016259 -5.19165e-21)
(0.997429 0.00510144 2.12104e-21)
(0.982497 0.0260375 0)
(1.0166 0.0133431 1.34924e-22)
(1.01082 0.0130226 0)
(0.938857 -0.00917243 -1.69524e-20)
(1.07458 0.00522714 -1.33418e-20)
(1.14547 0.128688 3.44639e-20)
(0.998951 -0.00237236 -1.11336e-20)
(1.03237 0.0106048 6.1496e-22)
(1.05191 0.0171626 5.26075e-23)
(1.03405 0.0156526 -1.4136e-21)
(1.04598 -0.00178108 -7.7045e-21)
(0.928126 0.0483762 6.02464e-21)
(0.811699 0.00946473 0)
(0.284588 0.0170605 9.5475e-21)
(0.697743 0.0178936 0)
(0.996737 0.00176957 0)
(0.997552 0.0166499 -5.62272e-21)
(1.12486 0.03667 0)
(1.07984 0.00440979 -1.97203e-20)
(1.09745 0.0775272 -5.3716e-21)
(1.0045 0.00430183 0)
(0.998325 0.0175522 1.27139e-20)
(1.04213 0.0138229 -4.78263e-21)
(0.987982 0.000747464 1.43402e-20)
(0.871686 0.347024 4.71239e-20)
(0.332812 -0.00526663 3.67528e-21)
(0.990795 0.00725359 0)
(0.997589 0.00476777 0)
(0.635393 0.0101399 4.09974e-20)
(0.0982523 -0.00535707 0)
(1.08643 0.0888159 -6.94222e-21)
(1.09542 0.0295595 -1.64898e-20)
(0.729358 -0.0135952 -7.95552e-21)
(0.187033 0.0655933 -1.04182e-19)
(0.994228 -0.00324394 5.7335e-21)
(1.05543 0.0365179 1.35612e-20)
(1.07323 0.00648627 -4.08904e-20)
(1.08189 0.0656944 1.12478e-20)
(1.0879 0.0086117 -2.87966e-20)
(1.02212 0.0231866 0)
(1.01439 0.0293055 -3.73441e-21)
(0.883988 0.371796 -1.33221e-20)
(1.02941 0.119643 4.49432e-21)
(1.01416 0.0148021 0)
(0.996386 -0.00110577 6.62635e-21)
(1.02782 0.0178852 2.42367e-22)