/*--------------------------------*- C++ -*----------------------------------*\
| =========                 |                                                 |
| \\      /  F ield         | OpenFOAM: The Open Source CFD Toolbox           |
|  \\    /   O peration     | Version:  v2012                                 |
|   \\  /    A nd           | Website:  www.openfoam.com                      |
|    \\/     M anipulation  |                                                 |
\*---------------------------------------------------------------------------*/
FoamFile
{
    version     2.0;
    format      ascii;
    class       volScalarField;
    location    "200";
    object      omega_0;
}
// * * * * * * * * * * * * * * * * * * * * * * * * * * * * * * * * * * * * * //

dimensions      [0 0 -1 0 0 0 0];


internalField   nonuniform List<scalar> 
18540
(
4.10519
0.0222778
0.0218323
2.91365
0.0254804
0.0322741
0.0254053
0.06282
0.0887551
0.0223655
0.0254588
0.0220082
3.38278
0.0220054
3.45889
1.11384
0.0895106
0.0295741
4.89781
5.87422
0.0487121
0.0905887
0.0221064
11.7826
0.0615075
0.0388018
20.3888
0.0661839
0.0308137
6.05097
0.0222715
0.0220307
0.144322
2.40275
0.0290093
2.95186
0.096536
0.0219534
0.0217157
0.143021
0.0222517
0.0220819
4.36638
4.03907
0.0642186
0.0378764
2.37412
0.0218324
0.044092
0.0372559
0.0220085
4.6344
5.64065
0.022247
0.0329045
0.0371029
3.52086
2.87311
6.0809
0.0216803
7.16979
0.0268142
0.0304022
0.25597
4.41099
0.0218635
0.0894561
0.0221202
7.04893
0.0216896
0.0357627
0.0374233
0.157936
3.01634
0.0580588
0.141474
0.0778793
0.0220748
0.028588
0.174133
0.0246327
10.4036
0.0219563
0.185006
6.07704
4.26487
0.0220496
0.0221342
0.0281057
4.33415
0.32007
0.149156
0.0488002
0.0216436
0.026161
0.022367
0.02502
0.0416068
9.61229
10.3111
0.0221519
0.0220315
0.154669
2.1151
6.59704
0.136991
0.0221882
4.22645
0.0310761
0.0252291
28.376
8.72704
0.0220849
0.0285644
4.99956
0.037131
0.0385947
0.040667
0.0285683
0.0324988
9.94606
10.9016
6.69777
7.61516
0.0220322
0.0302297
0.0401154
0.0366592
6.01297
0.165369
1.00615
0.0380769
0.0566474
4.17011
0.0218386
0.0216822
0.0251975
0.0309157
0.0223745
0.0218574
4.48629
0.121624
0.0396883
8.45102
0.0217948
0.0217734
0.0396531
4.1257
0.0314131
10.4746
0.0218156
0.0226607
0.021812
4.39879
0.493722
0.0823512
10.0386
0.0217987
0.0219618
5.23157
0.0821922
0.0495504
0.0222521
0.0218389
6.60944
0.022006
4.176
0.0361681
3.55614
0.0220828
0.0221364
0.0326906
0.0248022
0.0276218
0.0222677
7.08142
0.0268418
2.79119
0.406132
0.847262
0.026856
0.041376
0.0507788
0.144796
0.0254305
9.35766
0.0227415
0.0251216
0.309793
0.0374737
0.0318729
0.0242514
24.2966
0.0220372
0.0677842
0.0219612
0.0421211
0.238434
0.185028
0.028156
0.0381183
0.150769
0.0360128
0.0359117
4.02076
7.15971
0.0220116
2.95859
2.79861
0.0388209
0.0220346
3.78524
2.77891
0.0221752
0.0447571
0.0374086
7.28747
0.183706
15.8028
4.48544
4.37212
0.0832182
5.0302
0.0799269
1.95696
4.7786
0.0344712
0.0394633
5.44077
0.0585616
0.0253936
0.365289
0.167019
0.0252999
0.0222604
0.0267424
0.0220495
0.0302853
0.0787648
0.0357295
0.809565
0.606962
0.266051
0.0345528
3.98446
2.72659
0.0222532
0.0217856
0.0347047
0.0222144
0.087402
2.72986
4.12382
0.0227489
0.0258721
0.260195
0.35591
0.324797
0.0220068
4.9759
0.186566
3.13296
0.0222339
17.2409
8.41516
0.0344785
7.62772
6.09943
0.0219502
0.0221673
6.64727
7.63552
38.9959
0.0230073
0.162992
3.26955
0.0218026
0.0482076
0.340993
0.0219588
0.0221686
3.56181
0.0257727
0.0220497
3.07082
0.0216962
0.960935
0.056221
2.88519
0.180111
4.43923
4.44114
0.0489027
0.0219504
10.4627
0.0642255
0.298688
0.0389753
8.94465
0.0711892
0.022114
6.31978
0.525089
0.0547437
0.0989862
0.0220267
0.774802
0.0218225
0.32006
0.0220394
7.24534
0.0225488
3.20777
0.0414928
3.52623
2.04336
3.35605
0.0220119
5.12684
2.9712
5.02574
0.703943
0.0221622
8.47161
0.0253661
0.0220883
0.0462676
0.0287368
0.0220076
0.0219737
0.0217793
0.115396
0.208303
0.0289994
1.01543
0.153162
0.0220952
0.0221723
7.54726
0.0560921
0.0372014
0.0393956
0.0242774
0.0972722
0.321409
0.208568
0.0219626
0.0856132
0.0252052
0.695146
0.682335
0.0221761
11.3609
0.0223371
0.022169
6.43693
0.0221592
0.0218098
0.0219846
4.41644
0.0647977
0.0218459
0.0220332
0.0268516
4.9305
0.0481855
0.0216401
0.022074
0.0221114
0.0220163
3.041
0.0217843
0.271548
0.024743
0.0221687
0.613027
0.0220444
2.69977
0.0252476
34.6877
12.7072
0.021827
0.0878222
0.389651
0.03101
0.0217675
0.143159
5.99118
0.0221911
10.6192
6.84709
0.0218333
0.0279226
5.25311
3.0607
0.0220767
2.93021
2.92813
0.0221979
1.17566
15.3681
4.14267
0.0248708
0.0221645
0.0456924
0.0218056
3.93776
9.20045
0.0223049
0.0780105
20.3384
3.34876
0.180182
0.0218454
0.045365
2.70061
0.0221653
0.0370643
0.290598
0.221165
0.580848
4.14279
0.0220214
4.78493
0.0217557
0.053419
0.0217484
0.885661
0.0287328
0.0372351
0.0219784
3.16179
0.0461085
5.66705
0.0249657
5.56022
0.0221154
0.021685
10.1662
0.0220109
0.15124
0.0250487
0.0854335
4.0675
0.0220097
0.0222011
0.0221416
4.62152
0.0220094
0.0216995
8.05309
2.92679
0.021738
0.0216872
0.0220668
0.0220982
0.0453732
0.0220112
6.23042
33.429
0.0256779
0.0222194
0.0454795
0.0280436
0.0221643
0.0420145
6.65829
0.0276433
0.322008
0.156815
7.03066
0.0938637
2.91516
4.19321
0.278419
0.0215833
3.213
0.0220172
4.62793
0.0215559
0.0499841
0.0216149
7.41212
0.0222455
0.0276089
0.0281579
0.0551106
2.96314
0.02201
0.0229014
0.973175
0.0734476
0.124826
7.90987
7.33396
3.88009
0.0288007
3.2897
0.212884
0.0247679
0.318751
0.0935949
0.0216542
0.188715
0.0222755
0.0257612
0.503164
0.0225994
0.0989545
2.82179
0.0221073
0.0220989
0.0220841
0.0763193
3.7795
0.0245536
0.0268506
0.0219173
6.48935
0.022112
34.7246
0.0220706
0.14137
8.82814
0.0527504
0.0215802
0.0221079
2.93751
0.0219218
0.0220511
5.85488
0.528923
0.0515974
0.0221231
0.0222557
0.0224568
4.89598
0.7431
0.0339369
0.0220288
0.0221854
0.0348679
0.276766
0.0612572
0.0292368
0.0215861
2.79784
5.12369
0.0253481
0.0342914
0.0265602
0.0218522
0.175448
6.44475
0.0216061
0.0451547
0.293981
13.8982
3.43809
0.0219957
0.025154
0.0279045
0.0217217
0.0259787
0.0236932
3.01777
0.0218525
0.0942043
0.0260049
0.0427924
0.0216569
0.0222671
0.247849
0.0226119
0.50358
3.65004
0.0218471
0.0280884
0.0220738
0.0218632
0.133108
0.022173
6.46336
4.24556
3.26038
0.0322808
0.0219979
0.0220075
0.0254106
0.349441
0.0381446
0.0214743
0.0220706
0.0222419
4.83851
0.0220088
0.0218892
7.99287
0.0231524
0.0217099
11.5213
0.0773272
0.0219892
0.0506223
5.47045
0.0310598
0.0432447
0.0221582
0.022061
0.0807856
0.028502
7.3423
6.91958
6.01675
0.0219919
3.45509
0.0220039
0.0222684
3.86191
0.0222334
3.72442
3.89197
0.0226071
3.00807
0.265926
7.23647
0.064148
0.0260189
0.542858
3.95721
0.0287795
2.76484
3.40006
2.77989
0.0222563
0.0223849
0.0236978
0.287125
0.021592
0.0314261
3.97621
3.04307
0.022318
0.0446773
20.2563
0.251456
0.0240806
0.0343692
0.0220723
0.0248304
2.75047
0.0219896
0.0220765
0.0218709
0.0358413
4.06303
0.0219831
23.9125
0.0221
3.45752
0.0219946
5.80731
0.326239
0.0265955
3.0287
0.059639
0.022132
3.92619
3.95492
0.0423534
0.0256943
1.6002
3.36778
0.0998865
11.4622
0.0226364
5.44771
5.2165
0.0220057
0.0220507
0.0223444
0.0218661
3.40451
0.0279119
0.0244595
0.0290532
2.78967
0.032961
0.0246806
0.0234815
0.0226539
29.6327
0.698693
3.25652
0.029911
3.07829
0.021673
0.0524626
0.0246302
5.16051
0.0417103
0.0217104
0.023025
0.0222849
0.0216825
0.0217094
0.516969
0.0275856
0.0718642
5.36727
0.0217179
0.0223097
6.77165
3.82005
4.01323
0.0221331
0.0221624
0.031129
0.0218253
0.100572
0.235351
0.024396
0.0222763
0.0221465
0.0343834
0.0335455
0.0486722
0.0220571
0.0222695
0.033437
0.263841
0.0259043
0.0282352
0.0635533
3.31935
0.0221703
0.0233619
4.15725
0.144087
0.0669076
0.0219769
0.0866981
15.2109
0.0811549
0.0300337
0.0307561
2.71487
0.0219156
25.4005
0.207605
4.31466
0.0219511
0.0219834
0.0222203
0.0218841
0.0903663
0.0246622
0.0371872
0.0217612
0.0222466
5.02191
0.0221595
0.0217913
0.0218601
2.79674
0.416761
0.0217585
0.03256
0.11871
0.0359195
0.0420311
0.0634428
0.142179
0.128517
0.0233151
0.123089
0.0219775
0.803151
0.0416533
0.0218294
0.115661
3.76318
0.0220402
10.3503
0.0610765
0.114303
0.0223785
18.363
0.106061
0.047516
0.0253746
0.0469138
11.0936
0.0220149
0.0236836
2.78117
0.0263412
0.0335483
0.400654
0.0405278
0.0297511
0.02679
4.0244
0.0248252
0.0224204
8.5632
0.0231339
0.0217937
0.54698
0.0218874
0.030303
0.021955
0.0616153
4.00109
0.0221786
0.0249397
3.04346
0.0218594
7.66378
0.0220095
2.37766
0.0218063
0.0224285
0.0238771
2.79472
0.0313308
0.0424866
0.0283724
0.0316279
0.0218043
0.027191
3.27029
0.299895
0.0222813
5.15347
0.132438
0.032757
4.74201
0.0220064
0.0222331
0.0220183
21.2363
0.113554
0.0219417
0.0216156
0.0218633
22.2544
0.0257204
0.0224504
0.0904768
0.022022
0.0224568
0.327882
2.19007
0.0258728
0.0218662
2.95366
0.0222379
0.0267724
4.79591
0.127183
8.61727
0.0218015
19.7328
0.022481
0.025809
0.0218385
0.0221134
13.3043
0.0706
0.0218231
5.28732
0.0221141
0.0476926
6.98961
0.0221007
0.0701382
0.436353
0.0300662
12.1541
0.0221668
13.991
0.0221431
5.99828
0.0716071
0.0222386
6.51264
0.0238863
0.0295714
2.37619
0.022127
0.0222421
6.14086
0.0303404
8.24866
0.0221613
0.0221827
0.111999
3.24099
0.0254436
10.0305
0.0221041
0.0221624
0.0257102
0.02197
2.00272
3.88167
0.0223189
4.00551
2.30838
0.0219775
0.0219827
0.021988
0.159445
0.0406811
0.0411535
2.73319
0.0222898
2.84855
0.0506173
2.73356
3.01681
0.0222233
6.2482
15.0132
4.07379
3.21653
0.0220218
0.0218635
10.5342
0.0349034
4.38317
8.73375
0.0218737
0.0314279
0.0220264
0.0249816
0.12474
0.0220196
4.12834
0.0277549
0.0637892
0.176445
32.3908
0.0217976
0.0220073
0.0408216
3.32186
0.0281319
0.0651022
2.99314
3.0974
0.0234042
3.19385
0.0220088
0.214394
0.0221504
0.0218453
4.89579
4.47391
6.41272
5.39712
0.0217343
0.0682579
0.0219462
4.87543
0.0216336
5.22658
0.0254968
0.0439441
0.0216438
0.0216302
27.5122
4.83336
0.0220114
0.0217685
0.0220038
0.0222708
1.63619
0.247243
0.0220095
3.81705
6.21148
0.0219899
0.021997
4.01818
0.170137
3.07337
2.73552
0.0525441
0.021874
0.022105
2.21773
3.56284
0.259147
3.59426
0.0351314
2.73174
0.0215492
3.29681
0.0239325
0.100815
0.022007
0.0223347
3.71124
0.0247887
6.65136
0.0216973
9.57781
0.0284911
0.0353502
2.19749
4.12957
0.0456209
1.55557
0.463749
0.0233466
0.379748
5.61354
10.8025
4.48875
0.0494663
0.0275551
0.0222704
0.0373858
0.0220082
0.0218438
3.88695
3.3996
0.0221727
3.90839
0.0221206
2.42258
0.0221746
0.0221426
0.0219851
3.21512
0.0221631
1.82643
0.0221339
0.0215498
0.138954
0.0236865
11.1483
0.114909
0.0219956
0.0221114
27.8273
0.0382398
3.44937
0.0220687
0.0558103
0.0242615
0.160025
0.0251588
0.0216202
0.052713
0.0217602
0.327434
0.0219764
0.021742
0.0217889
0.0249208
4.07291
2.7694
0.053889
0.0445799
0.0220074
0.0342034
3.86987
0.0220096
0.0219961
0.0732423
4.8685
0.0230528
0.0243716
0.0265747
0.0475065
0.16963
2.49513
0.517013
0.025201
0.0220955
0.0216477
0.0228672
0.0224472
0.0763416
0.0220468
2.22461
4.43951
7.98697
0.0296096
2.99475
2.62917
0.0304146
0.0379626
0.037136
0.0217167
4.69529
0.0217817
0.0606246
0.0346303
0.0218005
0.0252366
2.91945
0.296326
0.0223754
0.0253187
3.7984
5.55916
1.3375
0.0218005
5.72179
0.138873
0.0338037
4.32441
0.0221373
0.0222017
8.07868
5.92206
0.150814
0.0220017
3.46499
4.1085
3.60047
0.0453408
9.62625
0.0221277
2.76899
0.0482434
0.022154
0.0375176
16.657
7.55801
0.0221375
2.64138
0.0226457
0.0265979
3.88079
0.0221943
0.0509991
0.0304949
3.83675
0.0341075
0.0215213
0.046867
0.0220421
7.16144
0.116623
1.84739
0.0217152
0.0348063
0.0217088
0.0222606
0.0222051
0.182845
10.3861
0.0221439
0.266466
0.038891
21.4459
0.0218753
0.454286
0.234233
0.0782985
0.022262
0.568561
0.0221672
0.0218035
0.0222773
0.0217173
4.55509
3.6071
0.022278
0.0222737
5.64989
0.0217989
0.0438144
0.0219597
0.021763
0.0218675
0.0220881
2.4467
0.0219902
0.0233419
4.32593
3.50818
0.0291136
0.0220708
0.0222551
8.35673
0.0221548
0.0220466
4.9486
0.0222687
0.0222631
0.10166
0.0423602
0.0218088
0.0233534
6.22547
0.076959
4.7375
0.0220727
8.85088
0.121266
13.2949
11.0167
14.5145
1.06014
0.0614821
3.20272
4.83083
0.299392
3.076
4.41394
0.0216964
0.0222895
0.0230916
4.8994
0.0217878
0.022106
0.0217956
0.0251514
0.021729
0.0218458
4.35934
6.66953
0.0221389
2.73349
0.106767
0.133613
6.38437
0.0218133
0.022558
3.31505
0.552454
0.0222669
5.93801
0.0221814
0.0355524
0.0221612
3.80698
0.347905
5.40403
11.7789
0.0228909
0.470159
0.0216797
3.89038
0.0240949
8.74695
4.50203
0.383322
0.0221767
0.0421813
0.0222082
2.474
0.0280243
4.72989
4.97948
0.0219261
2.64201
4.32829
0.0218653
0.0219532
0.0219723
0.133205
0.0217221
0.766395
0.0345782
0.0374183
4.36854
0.271084
1.93797
0.0215949
5.51717
0.0218561
0.0621105
0.0219236
0.0221777
1.18633
5.51017
0.0218819
0.0692646
0.0220139
0.0219788
0.0239021
0.0218869
0.0462084
0.0465022
4.42368
25.9316
0.0217872
2.15242
8.8736
5.42868
2.77486
0.0220093
0.0217273
0.0292057
0.0243838
0.0525207
17.1369
0.0219225
0.152076
1.09542
0.0256622
0.0222681
3.09293
3.62324
6.05029
0.0391598
0.0243704
0.28701
0.0215207
3.7572
0.0267817
0.0215112
0.0217903
11.4285
0.0357276
0.0220662
0.172623
0.0221622
0.0217821
2.6496
0.0233635
0.0232359
0.021958
0.0217002
3.05523
2.80728
5.96877
0.0347601
0.0221513
5.43632
4.5915
7.3197
0.0215074
0.121094
10.722
0.120089
4.74766
0.0230728
3.99629
0.0221942
0.0218539
7.55668
0.0222518
0.0219086
2.93931
3.9171
0.0402301
0.0338087
0.108412
8.65755
0.0225385
0.0316612
1.02187
0.0268881
0.022179
0.0276834
2.73202
0.0216884
2.74682
0.0629935
6.83354
0.0265084
5.63269
0.0215895
0.0219927
4.07275
0.0452316
2.6717
0.0254765
0.0216679
0.0222457
0.0219189
7.01357
5.02367
0.192139
5.60102
0.034673
0.021881
4.61831
0.0216903
0.032101
0.0689781
0.0273346
0.0247823
0.0218761
0.0268892
0.0238607
0.0457446
4.34358
0.0398459
10.5127
0.0220082
0.0315751
0.0354692
0.0220169
2.23283
0.0222245
0.143695
10.644
0.221008
0.0339835
0.0407504
0.0222955
0.0218045
3.28167
4.78791
3.5294
0.0216936
0.0221643
9.59917
0.358974
0.124967
0.0217926
0.0219768
0.0231606
5.99749
6.55337
0.365521
0.350116
0.0502946
0.0442879
14.2707
5.78774
0.0221131
0.271616
0.0290853
0.0219139
0.0218017
0.0551399
10.1748
5.08625
6.23525
0.120713
0.0216925
0.0219626
0.298053
0.483208
0.893117
3.27002
0.039709
0.0222118
3.30727
4.4509
0.0446802
0.0219603
18.3638
0.022171
0.0222493
4.35662
0.0607467
0.0238451
0.106315
4.29845
2.89317
0.046121
0.0215099
0.0220143
0.0368456
0.0223069
0.0220598
0.0221438
0.0303349
2.88602
0.0984755
0.0226393
0.0219603
3.86977
4.9104
0.0220968
0.0292053
0.0220579
0.0261677
0.022173
0.0219032
0.0247979
7.29063
0.0222883
0.0265668
0.11779
0.152688
4.30369
4.23168
0.0474758
0.182663
3.52594
6.68245
0.405979
0.0219136
0.0394843
3.89898
5.17329
6.49795
4.54635
0.0252563
1.12336
6.842
3.03459
0.0326012
0.0747281
3.98699
1.18527
0.0748944
4.89562
2.01406
0.0219744
0.0219132
0.0235
0.161194
0.0970818
0.0361334
1.90634
7.41485
0.483225
3.81483
0.0504129
0.0248155
5.23624
6.00196
0.313317
0.0240372
5.26749
0.0218212
0.0881933
0.0221697
4.0475
0.0224925
0.0228956
0.0217205
4.97327
0.0218791
0.104599
0.0247462
4.80211
3.60593
0.0380964
1.17554
0.0251011
0.0219687
3.84498
3.62969
0.0220633
0.0223818
0.248627
0.0548881
0.0219728
0.0221464
0.0222798
0.0880673
0.0425923
0.0223115
0.0221279
5.31157
8.31284
3.01963
0.0473167
2.93712
0.023793
0.0225452
0.022311
4.34787
0.0218822
0.0220339
1.09796
0.0558004
0.0221501
0.148719
0.0253983
0.0222255
0.460253
0.130956
0.0224822
0.0339351
2.78477
0.0220044
0.0232734
6.70415
0.022029
0.114708
0.0314876
0.0219896
0.0324165
5.87625
0.0219635
0.0390981
6.86561
0.0224903
0.0219819
4.05984
0.0220251
4.77433
0.143206
0.0216561
0.227981
0.0720205
0.0220081
4.73663
5.12628
0.0221603
0.0338937
4.05463
0.081191
5.75397
0.0218857
3.89972
0.0271977
0.0282995
0.12172
0.0221692
0.151475
3.53802
0.0220906
0.0216447
0.0217009
0.0220018
0.022076
0.0903546
0.0296129
1.13116
0.0301339
0.0276807
4.10615
2.1558
0.0220303
0.0223254
0.69054
5.03292
3.08102
0.0506071
0.0221503
0.0256801
0.0800936
4.85434
0.0664358
3.8444
2.63452
0.349828
0.02907
0.0957286
0.0219152
0.0704857
3.40507
0.0218441
0.0217134
0.0222752
3.14425
0.147368
5.3962
0.071327
0.0675754
0.0220228
0.0219333
0.0214757
0.0220053
0.0218887
0.0218688
0.0496262
6.84869
0.0220245
0.042649
1.22844
3.39657
0.0219808
0.022248
0.0216965
4.36425
0.0221346
0.0244368
0.0503137
0.0269921
0.0455037
0.0579176
0.0227462
0.0237058
6.98126
0.406413
1.0679
0.0228672
3.53076
0.0237968
0.0280769
0.0222169
2.98529
0.163811
0.0222225
0.0219795
8.85922
0.0220728
0.0242075
0.0258032
0.0222856
0.0220171
0.0221505
5.04434
0.0232983
3.44681
0.0220607
3.94576
0.0316332
0.503088
0.0344173
0.0341451
0.040003
0.0221579
0.0258104
7.68813
0.0379202
0.133981
0.0220143
0.313082
0.0405462
0.138852
0.127463
3.3734
4.25217
0.0218397
3.73902
0.0610096
0.021842
4.16568
0.0344289
0.0378327
4.30083
0.0309909
0.0819418
0.0266638
0.0250035
0.244608
0.166992
0.0221775
0.0220374
1.00378
3.52426
0.0991791
3.15707
0.0678826
0.0218672
3.80585
3.99774
0.563256
3.60398
1.91498
0.158664
0.0447379
0.0220861
0.0221703
0.0242093
0.0233713
0.0216518
4.38431
0.133773
0.0218511
0.596919
0.0226194
2.67748
0.279893
5.31801
7.29367
0.0561839
6.49682
0.0447599
0.0391852
3.38916
0.406995
0.0216946
0.0221803
4.96979
4.2791
0.0218746
6.13884
0.0219982
0.0217109
0.116504
2.73405
1.11757
12.0656
0.0218743
0.0220974
0.0219014
0.0215872
0.0218699
0.0839245
8.58374
3.03757
0.0271552
0.022798
5.13455
0.021961
0.0219236
0.0539022
0.0299857
2.58206
3.98447
0.0519032
2.9686
0.0221569
3.69703
3.06435
0.022129
0.0336938
0.0308513
6.45383
0.0220103
0.0220021
0.0220115
0.0414051
10.4035
0.048526
0.0220999
0.022155
0.022002
0.021978
4.31355
8.36878
2.18062
0.113022
3.38985
1.20612
0.0215826
0.0758657
0.0234504
3.18641
0.0787183
0.0284964
5.5091
4.42415
0.0219217
0.0260567
0.167324
0.0220055
0.0218037
5.70978
0.120232
0.0222766
0.0216146
6.87218
5.50748
0.0222001
0.0488751
0.114387
5.73643
0.0221423
8.40388
0.0327043
4.03037
4.26436
2.81098
2.7444
0.0220897
0.0219672
0.0220264
3.64328
3.67677
0.0220218
0.328928
3.95631
3.96035
2.21132
0.0219662
10.7991
7.33856
0.0220718
0.030532
4.26804
0.0479342
25.9763
0.0222797
3.07849
0.0222667
0.526447
1.01904
0.244325
0.0226413
0.0257801
2.86202
0.022292
0.021782
0.0867282
0.0222785
3.52861
10.3352
1.464
4.51348
0.0556529
0.0949888
0.0217671
0.279472
0.0218494
0.0326577
0.0219678
0.235651
1.61331
0.0219719
9.35314
0.0222819
8.73711
3.22497
3.71129
0.0217829
6.72752
3.32222
4.58004
3.78697
0.0221169
3.37966
11.9468
0.0219989
10.2273
0.0499587
0.109885
0.236582
0.0369782
4.63943
0.176627
0.030793
0.0290045
3.68201
4.26017
0.0225006
0.0987314
4.00763
2.80344
0.48428
6.00645
0.0297739
0.0219216
0.0222377
2.75248
0.0221363
0.0220706
0.0629618
0.0226954
0.0219636
3.06511
0.022206
4.07439
3.83609
0.0270036
0.118952
3.52025
0.0232971
0.12669
0.100968
0.0217645
0.238938
0.435465
0.0214977
11.4406
0.045796
0.0219267
0.0230217
0.0356458
0.0219047
0.0217871
0.0363913
0.0254166
0.102274
0.0798556
0.0492186
0.0277704
0.101474
0.0237681
10.282
4.19051
0.0220572
0.0367559
0.0692606
3.61457
2.92109
0.155937
2.64394
0.0494261
0.0254061
6.94407
0.0222688
0.0753625
3.86623
0.0222696
15.2388
0.0224356
0.0220845
0.0597354
0.0218381
0.0300339
0.0670293
13.448
0.100582
6.8544
3.97532
0.0233691
0.095715
0.0285477
0.0219108
0.0218093
0.021488
0.150356
0.0221755
0.0219766
0.580128
2.44396
0.0216197
0.0220132
0.304939
0.0221091
0.0217665
0.0220425
0.0219251
0.0455733
2.83741
0.0366645
6.50075
0.181637
0.0227856
0.137795
0.0221996
0.0235424
0.0288083
2.98102
5.2528
0.0297424
0.0261533
0.0216386
0.0241271
3.45491
0.0221311
0.0338472
0.022019
0.0220817
5.65723
2.2496
0.0218608
0.0220933
0.0217125
3.81714
3.03524
0.0247032
0.0222611
0.0322512
3.37305
3.34577
3.32893
0.0221934
0.0219604
0.0220631
0.0503046
0.0247111
0.147468
0.127368
0.235085
0.032137
0.0221831
0.0222022
0.134803
0.0220558
4.12034
0.0218989
0.0221696
0.0668316
0.0220951
0.0340883
0.025982
0.0216117
2.84282
0.021811
0.0314698
0.0220059
7.60767
0.0219312
0.157295
0.0218088
0.0218948
0.0221693
0.0280287
0.022003
0.0220051
3.65367
0.0304772
3.73622
10.181
0.0712043
7.94793
0.0904407
0.0975663
0.177383
4.70776
2.73239
0.0220113
0.0219701
0.0220871
6.62674
3.00314
3.05853
3.94719
5.12453
0.0248127
4.31646
1.25214
1.76868
29.3076
4.93231
4.56772
0.0326501
0.0313607
0.109625
0.138685
4.84913
0.0225404
0.0229385
6.03481
0.0218775
3.53626
1.33366
0.022101
0.022123
0.0224598
3.3856
0.0219746
0.0228548
4.0604
0.0318351
5.55111
4.53313
16.5717
0.0220045
0.0249113
0.093583
4.54454
20.6248
0.0503562
1.11184
0.0854043
0.0217754
2.92473
0.0220755
4.34194
0.0218064
0.0218012
0.108592
0.0368693
0.0220789
0.133701
0.066272
1.91869
3.68325
0.0222608
0.026808
4.4861
0.0222109
0.543744
4.37212
3.29965
0.0393938
7.83304
6.26801
5.02439
0.0384317
4.54777
5.82123
8.41854
2.12428
0.0222699
9.24041
4.88295
2.61581
2.86532
0.024376
5.67375
6.88565
0.0232687
0.0215753
0.036387
0.0219729
5.68241
2.80048
0.129159
0.0306784
0.02228
0.0224472
0.0231839
3.71762
3.8033
0.216069
0.0291394
3.80607
3.38281
0.0281609
0.0430501
0.0386773
0.368909
0.0220126
0.0372912
0.0222775
0.0215736
4.36346
2.80541
0.0452591
0.0967395
0.0517996
0.0229015
0.0219817
0.0218197
0.03041
3.32
0.0437952
0.109324
0.0215014
0.0222637
0.0218677
0.0221824
0.0226939
3.2569
0.119533
0.0481039
0.0622521
0.268548
0.0482022
0.0433579
0.116729
0.0218739
1.49943
3.33497
0.0321688
0.591945
0.0222188
2.77795
3.07726
0.0218755
8.61092
0.030227
5.71563
0.0522035
0.0219144
0.774648
9.51606
0.0273554
3.40551
5.29024
0.114815
0.0230296
0.826437
3.86082
3.12934
2.90971
3.075
3.0663
0.0232564
0.0220836
3.57917
0.022011
2.89184
2.8079
0.0220135
0.0231662
0.0222213
3.84429
4.26661
0.0219825
0.0221679
0.0249227
0.0399001
9.30026
2.07462
0.204513
0.0249188
28.3122
0.0397495
0.0216334
0.0428107
0.0333363
2.75199
3.74833
0.931211
0.0228831
5.75632
0.0337821
2.91433
0.0216462
0.0220267
0.0217054
0.427364
0.0266649
7.30111
0.32136
0.101523
0.0220518
0.0464321
3.03579
4.45316
0.0222741
0.0321918
0.323744
0.0214983
2.75372
2.84293
15.6803
3.08587
0.0219913
0.02155
0.0220066
0.0220231
0.143643
7.27085
2.8677
0.0706957
0.0215688
0.0278943
0.0219908
0.0228964
1.05806
2.59859
0.0251412
3.76773
2.92403
3.79874
0.102003
3.09857
0.898412
3.91854
0.0222285
0.162459
3.44334
0.0246821
0.0248706
0.0969826
3.46284
0.116561
3.15483
0.278338
0.0267886
0.0218144
0.110976
5.0278
0.205153
0.0229734
5.889
0.094571
3.25982
8.05861
4.04635
0.0220237
0.236068
0.205132
0.0293301
4.11192
0.0333235
6.44892
0.0221922
3.35748
0.0220066
0.0222163
0.0670242
13.8112
0.0475038
0.117231
0.0218154
0.106341
3.00296
0.032573
3.71365
0.0222681
0.270544
0.0220678
0.0218133
0.308907
0.0218871
0.122139
0.0534668
0.120091
0.0235979
0.221456
2.68591
2.96084
0.021653
5.7765
7.7011
9.79098
0.0602979
0.275864
3.54434
3.78359
0.0236938
0.408965
0.0216186
0.0220871
0.359247
0.0220503
0.207086
5.7578
0.324214
0.0259281
6.81058
0.0220883
4.51151
3.04947
0.0251716
2.8194
4.04376
0.0219257
2.70045
0.0262527
0.0248357
0.0501445
0.032249
0.0220146
2.03514
0.0222111
4.30238
24.4095
3.08271
0.160246
0.0291749
0.0358466
3.49929
0.0221501
0.0588283
0.0560095
1.56742
0.0812075
4.52379
0.0846104
0.164464
3.53193
7.97973
3.92926
0.180927
0.0219941
0.021996
0.022183
0.0407258
3.50303
0.0260569
2.68397
7.92352
16.0822
1.46167
0.0219639
0.0645006
0.0216581
5.94904
0.0222729
0.0236105
4.79052
0.0231489
1.03013
0.060107
0.0221787
3.22422
1.6862
10.3969
2.82491
0.0406998
3.55648
0.25273
0.0432289
0.0759763
3.95673
0.0244903
0.0229472
0.0220798
0.108088
2.90217
3.25419
26.1243
4.49616
2.83963
0.0216845
2.07263
3.6166
0.230137
0.0438601
0.0220056
3.29234
0.0229765
2.80238
3.27612
0.0221204
4.42908
10.3172
9.60388
0.0220052
0.0217191
0.0216923
10.339
2.99131
0.0219866
8.91244
3.45616
0.021972
4.27832
0.0232378
0.0530088
0.0269958
0.0220928
0.0228731
10.1273
5.59964
0.0706833
0.313675
0.0219955
0.103226
7.78094
0.021665
4.39909
5.95265
0.348091
0.0840527
0.0731958
0.170642
0.197085
0.0449752
0.0219212
5.14646
2.77209
7.85985
0.0220577
0.11238
0.0402685
0.0221434
0.103977
0.0307194
0.0236172
0.0222576
2.88161
0.0472885
0.105622
0.0252542
3.32089
0.0364804
0.269925
0.131599
3.00611
0.0221642
2.83338
0.0220137
0.0304402
0.025526
0.351962
0.0347447
0.0217567
0.0221115
3.82238
0.0219096
0.0263481
4.53858
3.37331
4.41773
0.300204
3.68366
9.71132
2.75677
18.1366
0.135082
0.0274816
0.0274631
0.0378038
0.0219261
0.0471606
5.7471
0.126751
3.12052
0.525452
0.0221833
1.22198
0.0253877
2.95475
0.0219934
0.0220092
3.92517
0.211643
0.22629
0.0215154
3.7134
0.0264678
2.86134
0.0223603
0.102304
0.0853943
5.44337
2.97407
0.0221099
0.0217922
0.023324
0.0221355
0.0344146
17.2954
0.034152
0.0319721
0.0358232
0.0233434
0.0218632
0.175403
3.02178
0.0219651
5.4809
3.2668
0.0222071
0.0221765
0.0220153
0.373727
0.0360546
9.98463
0.0223801
0.276503
0.813106
3.72341
3.49712
0.0270711
10.9645
0.0216719
4.78105
0.529732
0.0286007
0.0219963
0.176477
0.0221782
0.0218031
0.0220719
2.77974
5.4149
2.85409
0.0272382
3.3634
0.0221902
0.0221895
0.0320249
2.95713
0.0215527
0.0221125
0.0323827
0.023992
2.91372
3.1921
0.090345
0.0322624
0.105783
3.29861
0.200452
0.0231464
0.0215544
0.170339
0.0805024
2.96081
0.398487
4.60063
0.0352461
6.94452
2.88238
0.0509977
2.99178
3.01345
0.0216674
0.0217056
9.65087
0.0333227
3.20409
3.42536
8.93936
0.0233857
7.65203
0.0220475
0.0225016
0.022019
10.2482
0.0242226
2.93994
0.0224189
0.106666
4.12027
6.07878
4.1859
0.0368329
3.24916
0.0220145
0.0220872
0.0220682
0.0217929
1.31406
4.63793
0.0220927
4.7126
2.96762
0.642019
2.18413
0.184747
4.4734
0.0525405
2.80102
5.8452
0.0305867
0.120405
0.044129
5.42519
0.0218243
0.0239845
3.78142
0.0314213
0.0221144
0.0220641
3.64223
0.0235456
0.207085
0.0219105
3.2936
0.0315701
0.0477298
0.0263577
0.226898
0.0902074
6.18035
0.0273215
0.0218216
0.0216739
4.27095
3.29214
7.15244
4.28066
0.0257065
4.64013
0.0268975
0.351029
0.100727
3.53408
3.07518
0.0220843
2.84004
26.307
5.65037
0.041565
6.19132
3.92407
0.0274665
4.30324
1.80567
0.104649
2.89248
0.0250527
0.0413642
0.0517237
0.0266008
0.0218939
0.0609475
0.230008
2.62112
0.0225568
3.66644
0.0260042
0.0381818
0.030963
0.022174
0.0220038
2.34215
5.87156
14.8709
0.0260036
0.0217511
0.0224575
0.0220515
0.0353488
0.022749
3.59219
0.840369
3.0431
6.27521
0.022195
0.16745
2.85243
0.0239134
3.95535
4.13851
4.11432
0.0219857
0.02218
3.9691
5.83278
0.245592
0.0464114
0.0219618
3.62636
0.0231555
0.0283688
0.0550114
4.9106
0.0235597
0.0219867
2.76468
0.0796027
3.04397
2.9739
1.88064
2.25884
0.0218989
0.391814
3.97025
0.0912155
4.05059
0.163972
0.0296023
2.94256
4.18328
0.0225
0.0775987
0.0303576
0.0219884
8.62444
0.281593
20.7246
4.44362
0.142147
0.0248192
0.117248
0.0687754
0.0217069
0.0525804
0.0258786
0.0218163
0.0340212
0.02283
0.0327902
0.064138
4.94862
3.44237
0.691461
6.73624
0.0844155
0.0224352
0.0288558
2.99544
0.0225649
3.26738
0.208829
4.16393
0.0322236
3.71683
0.044689
3.09125
0.0250359
7.02058
6.59137
0.022491
3.63589
5.43664
2.92594
2.62172
7.91256
0.0367267
6.09096
6.67382
8.30173
0.0406032
0.397674
0.0216565
9.48872
3.0118
0.551302
0.462737
0.0574223
3.30012
0.062179
0.0220042
0.0220289
0.0217106
3.98514
3.90423
0.0220291
0.0595674
0.021952
2.97672
0.0305524
0.0229305
0.266117
0.0245381
0.0265498
1.09818
0.0583129
0.0900847
0.027188
0.0314482
0.0219069
7.4207
1.1415
0.0223667
0.029177
0.0741252
6.18583
0.0229095
22.5855
0.0224788
0.0357765
3.35292
1.49416
2.78024
0.765047
0.0216407
11.4297
3.6077
34.8235
3.43135
0.0313611
7.95658
0.0968973
0.0289636
0.298968
23.4764
0.0866178
2.89227
0.0259523
0.021818
0.0231717
0.0223253
4.46013
0.478339
1.75733
0.138934
0.0225785
0.0221797
0.0347223
0.0229185
0.041995
5.59081
2.96988
0.029678
0.0223427
2.75538
0.0220509
0.0701888
3.41497
0.123576
0.048501
0.0258586
0.0226568
3.97731
0.0219717
3.22159
0.053122
0.0221122
8.49578
0.0224846
2.93222
12.7754
0.0256606
0.0215841
13.7375
4.76066
3.32319
0.0218844
0.0214982
0.0236507
0.0489518
0.0222312
0.0309108
0.0885471
0.0219912
0.0221304
0.0221041
0.458852
0.0229869
0.023224
0.148642
8.35077
4.47988
1.23164
2.9926
0.0704008
0.0378511
25.1937
0.0256712
0.030921
2.23001
8.58863
0.0367491
0.0278193
4.17262
0.0430598
2.91427
4.06152
1.96807
0.0468095
0.0411536
0.0369396
4.44342
8.2414
8.03967
6.51623
1.42001
2.51202
0.0221035
4.99505
17.9149
3.77656
13.0881
3.91069
0.035766
0.0220219
7.43663
0.0377559
0.0245539
7.28689
0.794347
0.0494132
2.8572
2.82157
0.0220129
0.0767715
5.31494
0.0222751
7.70222
3.86444
0.0598961
0.0366048
6.73176
0.563267
0.0527753
4.07349
0.0220359
0.141121
0.059727
0.0364585
2.11736
0.0668214
0.0719064
0.0672865
0.661434
0.022278
4.46346
0.0258613
0.0335373
0.232479
28.314
8.31528
2.23204
0.024171
1.85548
0.650031
2.69595
3.89185
2.8692
4.18474
6.19418
2.80577
0.0235676
2.1212
0.206647
0.477221
0.0222312
3.98282
3.01348
0.0264872
2.75331
0.398505
5.55619
0.0220912
0.0217946
0.0216353
2.84625
6.8258
0.022051
4.36552
3.98926
0.0221481
6.25337
2.38342
5.96081
3.02152
2.45099
0.0220465
0.0415993
16.6469
4.7889
2.14937
0.0230636
1.86717
2.89725
1.65588
3.28222
6.2701
0.0375791
0.217211
0.0284863
0.0221677
0.0218209
0.0220094
3.34703
0.0276773
0.0272258
2.55346
0.413452
1.26043
0.0220952
29.9046
0.021866
2.94588
0.023603
0.0221807
3.08152
29.7446
1.77655
0.0257525
0.0297666
0.0222731
0.185339
0.0232679
0.237434
2.6506
0.269656
3.02843
17.554
4.30707
0.196054
0.0246473
0.02686
0.021793
0.0314574
0.0224525
3.27932
0.134836
0.0463651
4.07922
0.0219345
3.62292
0.0395193
0.0220062
0.316543
0.114942
0.024513
0.0264224
0.081877
0.395077
0.022079
0.043388
6.06311
3.15139
2.69937
0.0234363
2.81827
0.116093
0.271825
2.86875
0.0222821
4.21032
0.114924
0.0263962
11.2455
5.72758
0.02201
0.0320713
0.059259
0.0527692
0.0216585
0.0220975
0.0363369
0.0245582
23.0538
0.0478529
0.0957166
3.63774
0.0218959
0.0286929
0.0216966
4.20903
0.0605088
0.0234367
0.021845
0.0248978
16.4067
0.022065
0.0222804
1.89842
0.0460179
0.0220642
4.44601
0.0240984
4.5592
0.167435
0.0457552
2.32714
4.15461
0.0217613
2.91867
0.787903
9.73235
4.37717
0.0225811
0.0625928
0.0315842
5.18567
0.0222222
12.8959
3.0014
0.0233375
0.0267783
0.0223641
0.0221267
0.0545767
3.21841
4.46654
3.76182
7.67171
0.0658738
0.135127