/*--------------------------------*- C++ -*----------------------------------*\
| =========                 |                                                 |
| \\      /  F ield         | OpenFOAM: The Open Source CFD Toolbox           |
|  \\    /   O peration     | Version:  v2012                                 |
|   \\  /    A nd           | Website:  www.openfoam.com                      |
|    \\/     M anipulation  |                                                 |
\*---------------------------------------------------------------------------*/
FoamFile
{
    version     2.0;
    format      ascii;
    class       volScalarField;
    location    "200";
    object      p;
}
// * * * * * * * * * * * * * * * * * * * * * * * * * * * * * * * * * * * * * //

dimensions      [0 2 -2 0 0 0 0];


internalField   nonuniform List<scalar> 
18540
(
-0.27661
0.0167847
-0.00300859
-0.308248
-0.0611076
-0.0763184
-0.0613205
-0.17772
0.332663
0.0315202
0.0712883
0.0438047
-0.294514
0.0350861
-0.277874
-0.271768
-0.105885
0.12819
-0.299281
-0.374578
0.248276
-0.231559
0.0138091
-0.326593
-0.172221
-0.0347049
-0.3515
-0.172614
-0.0823536
-0.287906
0.0165488
0.0371346
-0.221452
-0.286669
0.0151071
-0.31171
-0.239542
0.00803519
-0.0156052
0.214499
0.0154532
0.0306793
-0.487931
-0.268755
-0.169143
-0.0364077
-0.282456
-0.00257693
0.241062
-0.101169
0.0358357
0.506411
-0.38171
0.0124339
-0.0322705
-0.0788732
-0.295458
-0.506569
-0.461937
-0.0176635
-0.315662
-0.0737123
-0.0305277
-0.238312
-0.28037
-0.00705218
0.114221
0.0104515
-0.473298
-0.0155582
-0.0761183
0.1699
-0.231907
-0.5076
-0.115356
-0.191711
-0.0987678
0.00944218
0.122203
-0.271333
0.0119586
-0.494822
0.00772338
-0.208947
-0.317372
-0.259099
0.0286391
0.014247
-0.0413688
-0.25873
-0.343659
-0.273881
-0.0518779
-0.00849451
-0.0690035
0.0323786
-0.0175625
-0.130799
-0.253983
-0.286549
-0.0285713
0.00774777
-0.256533
-0.274352
-0.294774
-0.218857
-0.0295419
-0.489801
-0.0251491
0.103253
-0.267521
-0.306738
0.00970823
-0.0169003
-0.506473
-0.0167169
-0.00700853
-0.128075
0.0142606
-0.0788193
-0.300721
-0.505212
-0.343055
-0.485962
0.0112349
-0.0792812
-0.0972783
0.103142
-0.487762
-0.179006
-0.356741
-0.0236789
-0.113162
-0.26573
-0.00181195
-0.00373549
0.0690098
-0.0613105
0.0624698
-0.00768392
-0.278869
-0.240625
-0.11572
-0.288048
-0.0121469
-0.00553977
-0.0944572
-0.26305
-0.0606993
-0.507106
-0.00146529
0.0683153
-0.00709066
-0.505711
0.24904
0.320698
-0.503076
-0.0123958
0.0143329
-0.490064
-0.167003
-0.117314
0.0310125
-0.0015296
-0.298144
0.0437818
-0.266846
0.104584
-0.277751
-0.0207194
0.0145904
-0.0836821
-0.0313799
-0.0424227
0.0146226
-0.493503
-0.0710487
-0.351232
0.220657
-0.170853
-0.037839
0.0698211
-0.119053
-0.26826
0.109905
-0.296011
0.0558944
-0.0614368
-0.373302
-0.00362335
-0.0824498
0.0119655
-0.35073
0.0117085
0.26974
0.0148295
-0.0932801
-0.315677
-0.212152
-0.022619
-0.0447839
-0.282782
0.0795343
-0.0971622
-0.259977
-0.295682
0.0459112
-0.311394
-0.470939
-0.117304
0.0368589
-0.502666
-0.355998
0.0162062
-0.0483632
-0.123708
-0.486508
-0.0838201
-0.339919
-0.262329
-0.502072
-0.186347
-0.258679
0.319953
-0.271601
-0.298112
-0.11104
-0.115373
-0.474873
-0.14536
-0.0213094
-0.341473
-0.233628
-0.0167197
0.0309825
-0.070579
0.0355396
0.159062
-0.164197
0.0853476
0.467348
-0.268396
-0.311683
-0.109176
-0.259023
-0.489892
0.0157145
-0.00492382
-0.10605
0.0450797
-0.11088
-0.467943
-0.498321
0.0708285
0.11373
-0.230336
-0.346618
0.36777
0.0431587
-0.363875
-0.212663
-0.340448
0.0633199
-0.189849
-0.302692
-0.107025
-0.44812
-0.447456
0.00764391
0.0163499
-0.505055
-0.294915
-0.313609
-0.0356326
-0.248672
-0.279991
-0.00712503
-0.153544
-0.347489
0.0169123
0.0263141
-0.276628
-0.0579607
0.0350293
0.336884
-0.0160418
0.414151
-0.143036
-0.318559
-0.241077
-0.502205
-0.262007
-0.00223742
0.00735767
-0.508644
-0.114579
-0.310303
-0.0432015
-0.461907
0.279642
0.0463058
-0.444457
-0.239329
0.198968
0.0797985
0.025601
0.472862
-0.00101261
0.356132
0.0362449
-0.331968
-0.0366005
-0.283763
-0.0957737
-0.435698
0.444742
-0.275429
0.0421352
-0.257529
-0.495094
-0.338936
0.273035
0.0434705
-0.460514
-0.0557127
-0.0265785
-0.116757
-0.0123267
0.025928
0.0130402
-0.00544614
-0.236292
0.301794
0.153254
-0.34383
-0.160845
-0.0217249
0.019109
-0.289308
0.19025
-0.120715
-0.117745
-0.0563854
0.105105
-0.349633
0.282074
0.0165706
-0.190191
-0.0632186
-0.170628
0.00388742
0.0184798
-0.507454
0.0258058
0.025269
-0.487735
0.0174389
-0.00770145
0.0106449
-0.359867
-0.118237
-0.000842329
0.025856
-0.0343116
-0.508032
0.0127148
-0.0165674
0.0306599
-0.0207895
0.0111452
-0.29137
-0.004167
-0.329732
0.0358632
0.0186702
-0.240268
0.0360701
-0.25651
-0.0564895
-0.359924
-0.492658
-0.000655398
-0.124051
-0.349874
0.0758533
-0.00605181
0.363961
-0.284818
0.0113042
-0.478371
-0.483982
-0.000207643
-0.045876
-0.447839
-0.292589
0.0231591
-0.501994
-0.312574
0.0114209
0.398483
-0.486708
-0.266689
-0.0612768
0.0353082
-0.120397
-0.00909693
-0.277664
-0.342143
0.0459656
-0.134071
-0.32669
-0.498094
-0.204908
-0.00058948
-0.122846
0.451749
0.0193078
-0.0808381
-0.326418
0.319432
0.125775
-0.281758
0.0110255
0.50152
-0.00419829
-0.12462
-0.00454373
0.329835
0.0632279
-0.00765164
0.0136983
-0.329711
-0.125938
-0.455116
-0.0104054
-0.72595
0.0140947
-0.00827056
-0.509826
0.038338
0.373718
0.0993564
0.330506
-0.312089
0.0370373
-0.0291992
0.0540875
-0.311684
0.0432703
-0.0166928
-0.513786
-0.501716
-0.00327638
-0.00917589
-0.0265731
0.0597866
-0.0904341
0.0362814
-0.308862
-0.354628
-0.0574361
0.0146921
-0.119192
-0.045836
0.0148821
-0.0390642
-0.49559
-0.0629218
-0.299835
-0.243075
-0.0768539
0.0895187
-0.50463
-0.499734
0.277927
-0.0145031
-0.331772
0.00810018
-0.25551
-0.00826797
-0.158351
-0.0134898
-0.454002
0.0455505
-0.064207
0.0187937
-0.115506
-0.49623
0.0408469
-0.0373262
0.423165
-0.164449
0.200585
-0.325165
-0.305022
0.293229
-0.011007
-0.342457
-0.286958
0.068873
0.285053
0.0480105
-0.0169805
-0.069239
0.0304506
-0.057844
0.0129715
-0.035068
0.200401
-0.345946
0.0461662
0.0591949
0.0311415
-0.131901
-0.274439
0.0322331
-0.0780673
0.00525983
-0.305987
0.0101996
-0.300462
0.0338956
-0.151399
-0.465834
-0.113818
-0.014144
0.0220772
-0.317707
0.0056118
0.0273396
-0.508735
-0.257586
-0.0117241
0.0139914
0.0134205
-0.0353587
-0.414436
-0.172749
0.00799597
0.0294315
0.0173144
0.18409
-0.340789
-0.157889
-0.0617173
-0.0139927
-0.504719
-0.410252
0.0908673
-0.104418
0.129715
7.54748e-05
-0.238742
-0.450393
-0.0132413
-0.0919028
-0.305594
-0.489048
-0.312033
0.0045462
-0.0232425
-0.00702981
-0.00608084
0.125505
-0.0437121
-0.293929
0.000356889
0.035026
0.125366
0.0713055
-0.013751
0.0305975
-0.117018
-0.035651
0.16408
-0.501332
-0.0220843
-0.0185993
-0.0269752
-0.00501726
-0.270821
0.0158603
-0.514772
-0.467111
-0.470788
0.174015
0.0301358
0.0410498
-0.0555138
-0.355786
-0.102888
-0.0108351
0.0333927
0.0441978
-0.502149
0.042822
-0.0225183
-0.490362
-0.0404603
-0.0157917
-0.502121
-0.173654
-0.0252591
0.107421
-0.488407
0.0708039
-0.0379438
0.0355985
0.0373918
-0.17878
-0.0623563
-0.311741
-0.487848
-0.489131
0.010356
-0.400777
0.00997555
0.0189908
-0.290175
-0.0283623
-0.319588
-0.297489
-0.0011962
-0.472395
-0.271518
-0.299658
-0.137026
-0.0592651
0.457063
-0.332627
-0.0813889
-0.300247
-0.507073
-0.491586
0.0125345
-0.0343496
0.0930563
-0.351631
-0.0141696
-0.0840191
-0.315943
-0.288945
0.0619089
-0.0945657
-0.477725
0.299925
0.0148547
-0.0376068
0.0370709
0.0663591
-0.400459
0.0144134
0.0360728
-0.0227953
0.161922
-0.273719
-0.0247091
-0.301218
-0.0270767
-0.348168
0.0150461
-0.287246
0.0508991
-0.0712741
-0.50672
-0.155068
0.0540461
-0.290837
-0.279675
0.229063
0.00596999
0.429581
-0.308232
0.180994
-0.353635
0.0540925
-0.289345
-0.297847
-0.0182443
0.0332688
0.029274
-0.00415993
-0.364215
-0.0773457
-0.0292425
-0.0833596
-0.436395
-0.0403759
-0.0612571
0.089563
-0.00164892
-0.35838
0.309172
-0.506937
-0.0851987
-0.294067
-0.009491
-0.124794
-0.0594192
-0.504386
0.0450082
-0.0150116
-0.0392564
-0.0266293
-0.00869243
-0.0068139
0.412535
0.0184029
0.296448
-0.398035
-0.0169729
-0.0333046
-0.293793
-0.398869
-0.276837
0.0294812
0.0156618
0.162537
-8.89648e-05
-0.0997749
-0.293235
0.0656269
0.0120697
0.014812
-0.0532057
0.0994906
0.245882
0.0378212
0.0247691
-0.0480084
-0.11405
0.0970066
-0.0794999
-0.137472
-0.345769
0.0167217
-0.00638742
-0.309723
-0.277635
-0.114307
0.00497766
-0.225086
-0.492897
-0.181391
-0.086583
-0.0887881
-0.507543
-0.0164048
-0.468257
-0.245688
-0.297568
0.0100186
0.00982876
-0.00636135
0.00324765
-0.230642
-0.0579236
0.188158
-0.00384262
-0.0297803
-0.29478
0.0153408
-0.00368125
0.00126563
0.372899
-0.354828
-0.006591
0.0957246
-0.2523
-0.107172
0.0053672
0.292973
-0.206526
-0.206425
0.00467116
-0.263634
0.0093039
-0.288545
0.21962
0.000170116
-0.164989
-0.26706
0.0343303
-0.495328
-0.0806245
-0.190906
0.0278356
-0.264583
-0.244568
0.251874
0.105105
-0.0929266
-0.309506
0.0258113
-0.049214
-0.439591
-0.0687359
0.00625847
0.275889
-0.127103
-0.0777681
-0.0759371
-0.27745
0.0873473
-0.0254121
-0.292597
-0.00956676
-0.00325818
0.437473
0.00345553
-0.0228183
0.0100552
-0.167767
-0.496692
-0.0268449
-0.0596232
-0.495897
0.00101077
-0.387021
0.0267616
-0.302934
0.000102386
-0.0267968
-0.0440296
-0.348234
-0.0296933
0.235941
0.0667273
0.169257
-0.0084359
-0.0476539
-0.279281
-0.370374
0.0384115
0.438019
-0.225775
0.170888
-0.289238
0.0386168
-0.0278203
0.0497945
-0.476234
-0.250147
0.0092547
-0.0104555
-0.00358943
-0.3575
0.00840923
-0.0266513
0.128659
0.0467966
-0.0280683
-0.350915
0.455755
-0.0585681
-0.00288396
-0.302894
0.0124976
-0.0709317
-0.262583
-0.2599
-0.30428
-0.0208971
-0.268544
0.00922111
-0.0578709
-0.000253895
0.0592097
-0.363828
0.309538
-0.0214973
-0.499645
0.00630504
0.104014
-0.489631
0.0134591
0.309208
0.463745
-0.0663646
-0.487543
0.0172713
-0.300867
0.0526051
-0.466411
-0.139261
0.0116545
-0.338033
-0.0454101
-0.0252521
-0.304333
0.0105672
-0.025282
-0.326676
-0.0327128
-0.179304
0.0268546
-0.000860369
-0.159469
-0.328666
-0.0113524
-0.497907
0.0216435
0.0249499
0.0936486
0.0116474
0.456393
-0.288352
0.0456627
-0.266173
-0.286493
0.0111736
0.0113949
0.0227695
-0.210145
0.0602979
-0.114723
-0.508002
0.0325691
-0.476274
-0.117442
-0.283408
0.392109
0.0258644
-0.50623
-0.490428
-0.265579
-0.3021
0.0260595
-0.00232071
-0.305334
0.113141
-0.258859
-0.308237
-0.0105836
-0.0660603
0.0105323
-0.0612917
-0.221089
0.0104437
-0.267324
-0.0815279
-0.172446
0.283687
-0.266125
-0.00658471
0.0444877
0.215685
-0.28558
-0.0573027
-0.0872391
-0.474752
-0.293261
-0.0443616
-0.444702
0.0427302
-0.248244
0.0311485
-0.0163759
-0.499427
-0.443111
-0.30341
-0.429107
-0.00534227
-0.137244
0.00937827
-0.261943
-0.0105498
-0.502581
-0.0543561
0.00941059
-0.0105431
-0.0103665
-0.4747
-0.316205
0.0262815
-0.00343474
0.0304998
0.0119863
-0.324654
-0.235579
0.0272413
-0.310535
-0.287585
-0.0107299
0.0224545
-0.448564
-0.2468
-0.291277
-0.431143
-0.13266
-0.00992344
0.00743823
-0.293182
-0.496482
-0.233937
-0.313609
-0.0953958
-0.509075
-0.0123069
-0.299082
0.0143652
-0.0161176
0.0073905
-0.0317811
-0.255434
-0.0258186
-0.511792
-0.00505422
-0.505739
-0.0639762
-0.108904
0.345619
-0.289653
-0.121513
0.410369
0.439841
-0.0472544
0.0427748
-0.275544
-0.309564
-0.478777
0.00279964
-0.0752386
0.02655
0.175478
0.0452116
-0.0170092
-0.292448
-0.325592
0.0354852
-0.278364
0.0251557
-0.424998
0.0536388
0.0129746
0.0223613
-0.48801
0.0257944
-0.309323
0.0353509
-0.0120926
-0.272012
-0.0426894
-0.318833
-0.23886
0.0300438
0.021297
-0.455215
-0.100877
-0.372013
-0.0215
-0.145043
0.0636826
0.173952
-0.0310053
-0.0105611
-0.123267
-0.00693991
-0.365489
-0.0187508
-0.00497292
-0.0126822
-0.022503
-0.315054
-0.360116
-0.142567
0.0073566
0.0109002
-0.0456275
-0.262389
0.031397
0.022085
-0.16676
-0.294965
0.00496318
-0.0161474
-0.0683616
0.0418876
0.256939
-0.279755
-0.149729
-0.0274802
0.0581214
-0.0102056
0.080143
-0.0328525
0.320095
0.025564
0.445694
-0.257305
-0.301732
-0.0890129
-0.304776
-0.284526
0.16412
-0.0149723
-0.0949608
-0.00973025
-0.460021
-0.0124824
0.285401
-0.105232
-0.00279715
-0.0525918
-0.507905
-0.337234
0.0644743
0.108429
-0.265822
-0.509651
-0.307689
-0.00157323
-0.346115
-0.270294
0.175861
-0.289829
0.0355004
0.0552052
-0.470393
-0.491309
0.182712
0.0104776
-0.488182
-0.264575
-0.333835
0.244414
-0.294182
0.0248692
-0.356895
0.244112
0.0146811
-0.099693
-0.477017
-0.450596
0.0289018
-0.305421
-0.0106627
0.129396
-0.265108
-0.0301149
0.117251
-0.0874533
-0.397965
-0.0951478
-0.0121388
0.0479493
0.0248631
-0.427891
-0.228852
-0.304107
-0.00935767
0.0907593
-0.00766044
0.0171611
-0.0242232
-0.246095
-0.291169
-0.0294411
-0.253947
0.213015
-0.295373
-0.0219248
-0.234119
-0.259485
-0.166883
0.0153025
-0.314667
0.0152147
-0.00130535
0.0187302
-0.00648546
-0.334083
0.518207
0.0245248
0.021221
-0.504835
-0.018838
-0.120544
0.0162784
-0.00612504
-0.00148645
0.05391
-0.287293
-0.0189981
-0.0033714
-0.267902
0.0641648
-0.0728397
0.0234898
0.0174455
-0.177553
0.0307147
0.0244098
0.416786
0.0193229
-0.031369
-0.0338115
0.0524704
-0.0194575
-0.0429047
-0.493619
-0.17116
-0.280293
0.0365249
-0.282976
0.316126
-0.488839
-0.495472
-0.496203
-0.259114
-0.180192
-0.495167
-0.509376
-0.336268
-0.504389
-0.257064
-0.0153867
0.0446338
-0.00587704
-0.256377
-0.00228344
0.0209044
-0.0185248
-0.0127792
-0.0057542
-0.0162008
-0.260968
-0.291744
0.0172891
-0.397886
0.302279
-0.0587085
-0.284908
-0.00914426
0.065612
-0.51023
0.285084
0.0298326
-0.29838
0.0169391
-0.110991
0.0161262
-0.273748
-0.348834
-0.509865
-0.487395
0.0742243
0.457041
-0.00950638
-0.48731
-0.0443595
-0.486892
0.193991
-0.354598
-0.0230256
-0.130804
0.0149239
-0.30142
-0.050682
-0.262353
-0.456687
0.00786463
0.489243
-0.486058
-0.0165739
-0.00703059
0.0111428
-0.26447
-0.00879804
-0.37908
0.180589
-0.080406
-0.337245
-0.236031
-0.251328
-0.0110947
-0.452795
0.00163478
-0.170609
0.00744728
0.0174935
0.505503
-0.463773
0.00216297
0.311101
0.030428
0.00938668
-0.0531048
-0.0119526
0.0955607
-0.124058
-0.261334
-0.483718
-0.0179025
-0.297484
-0.301785
-0.486202
-0.504394
0.0429289
-0.00846292
0.148571
-0.0451787
-0.141955
-0.472392
0.00479706
-0.248956
0.499624
-0.0179056
0.0251611
-0.29968
-0.506071
-0.288421
-0.120416
-0.0178585
-0.136147
-0.0123113
0.353298
-0.0480541
-0.0123209
-0.0176231
-0.498614
0.143264
0.0374343
-0.28008
0.0178457
-0.0170258
-0.276395
0.000847414
-0.0127482
-0.00629464
-0.00801784
-0.288191
-0.508313
-0.341252
0.173431
-0.0288615
-0.507672
-0.43513
-0.487593
-0.0125091
0.365039
-0.488353
-0.245067
-0.255067
-0.00833763
-0.26999
-0.029894
0.00147919
-0.478487
0.065002
0.00464093
-0.300022
-0.270967
-0.062964
0.0799499
0.352706
-0.295852
0.00727972
0.0205191
0.485674
-0.0640785
0.0199263
-0.0799867
-0.433407
-0.00876934
-0.507809
0.292363
-0.290023
0.130552
-0.503841
-0.0109704
-0.0181079
-0.265799
0.242728
-0.31777
-0.0107008
-0.00983325
0.0133709
0.00459966
-0.506561
-0.371052
-0.248584
-0.499488
0.136986
0.00232811
-0.260632
-0.0161556
0.136386
0.303614
-0.0752557
-0.0571204
-0.00701195
-0.063516
-0.0452611
-0.123744
-0.256827
0.0450125
-0.284023
0.0433715
0.0976184
-0.0970707
0.0449355
-0.291796
0.0260484
-0.213078
-0.510486
-0.276486
0.106535
-0.0619652
0.0253229
-0.0059125
-0.355838
-0.509566
-0.309859
-0.00792808
0.0306141
-0.487307
0.451028
0.0474076
-0.00202322
0.0196831
-0.0116803
-0.389331
-0.300419
-0.359151
-0.296649
-0.115335
0.0030442
-0.361284
-0.288877
0.0361859
-0.135348
-0.0870193
-0.0170882
-0.00546116
0.227143
-0.505944
-0.255965
-0.327211
-0.253535
-0.00748893
0.0170751
-0.328599
-0.154819
-0.283337
-0.506008
0.0120521
0.0622109
-0.498738
-0.259006
0.13476
-0.00697146
-0.321807
0.0131056
0.0117311
-0.350224
-0.133491
-0.0460733
-0.113504
-0.32566
-0.469423
0.015154
-0.0125029
0.042071
-0.0759612
-0.0310603
0.02911
0.0106966
-0.0791183
0.426533
0.0158682
-0.0354044
0.00855085
-0.49799
-0.258405
0.035647
0.0112468
0.034536
-0.0452714
0.0180744
-0.0168628
-0.0560129
-0.512269
-0.029749
-0.0633817
-0.258675
0.204372
-0.264978
-0.264647
-0.0741704
0.294471
-0.500075
-0.28544
-0.361016
-0.000654935
0.0247802
-0.271927
-0.464454
-0.488559
-0.291994
-0.0105673
-0.282407
-0.323504
-0.313325
0.0771066
0.297761
-0.269204
-0.410314
-0.132889
-0.263643
-0.265388
-0.00634617
0.00482924
-0.045007
-0.234509
-0.232455
0.197941
0.434849
-0.513477
0.459656
-0.289672
0.131907
-0.0106293
-0.302319
-0.284056
-0.285765
-0.0306023
-0.495379
-0.00860746
-0.222338
0.0380142
-0.267885
-0.0137973
0.0808971
-0.00380362
-0.314524
0.00278232
-0.0112359
0.103946
-0.380088
-0.277042
-0.0278361
-0.201452
-0.0566405
0.0184411
-0.271717
-0.510771
0.0344294
-0.032248
-0.282417
0.133358
0.00852401
0.0352734
0.0326366
-0.225284
0.229848
0.039822
0.030315
-0.490494
-0.390981
-0.49629
-0.0739389
-0.509574
0.0168701
-0.0220716
-0.0318065
-0.264174
0.00292659
0.0296191
-0.349323
0.137752
-0.0292735
-0.235495
-0.056977
8.98473e-05
0.450429
0.372218
-0.0163261
-0.104947
-0.398039
0.0345673
0.00267401
-0.421627
0.0391977
-0.180588
-0.0920672
0.00653956
-0.0941705
-0.30045
0.0111425
0.202625
-0.445755
-0.013532
0.0229131
-0.453395
0.0392363
-0.281254
-0.213698
-0.0133317
-0.327821
-0.157381
0.0248619
0.522023
-0.297602
0.0351857
-0.105161
-0.267192
0.268533
-0.499681
-0.0113674
-0.487962
-0.0729911
-0.0574631
-0.0414131
0.0110287
0.383046
0.520603
0.0575388
-0.0127011
-0.0112215
0.0114122
0.0366392
-0.223732
-0.0772998
-0.263393
-0.0749468
0.0643225
-0.451871
-0.294572
0.0284453
-0.031242
0.44409
-0.290046
-0.509063
-0.11813
0.0353939
-0.019325
0.331703
-0.256647
0.285862
-0.507385
0.442291
0.445593
-0.0866971
-0.229829
-0.00163111
-0.198726
0.185505
-0.021264
-0.0171132
0.0297158
-0.506928
-0.277482
-0.313041
0.0884154
-0.17712
-0.0193717
-0.0241211
-0.010846
0.0252383
-0.0224279
0.00212627
0.123658
-0.506122
0.049988
0.22215
-0.353794
-0.285655
0.0225482
-0.0292015
-0.0075301
-0.287084
0.00359289
-0.0545822
-0.116904
0.132051
0.142634
0.276441
-0.0337764
-0.0458397
-0.30191
-0.35914
-0.245921
0.053757
-0.272356
-0.00679308
-0.0687132
-0.0270676
-0.295858
0.269056
-0.0313266
0.0193731
-0.306241
0.0226009
-0.0528181
0.0995316
-0.0276232
-0.00323113
0.0108301
-0.516434
-0.0395914
-0.285114
0.0267121
-0.454194
-0.0931977
-0.304317
0.097675
-0.101975
0.219818
0.0551246
-0.0308735
-0.467407
-0.115843
-0.26384
0.040426
-0.209732
0.208227
-0.179573
-0.218364
0.478843
-0.265839
0.000675812
-0.281538
-0.166673
-0.0213937
-0.266047
-0.108058
0.204554
-0.288184
0.134597
-0.164155
0.131322
0.108173
-0.234735
-0.0722322
0.0253605
-0.00379612
-0.37506
-0.500992
-0.234386
-0.500032
-0.189378
0.00188848
-0.29866
-0.27018
0.251966
-0.487561
-0.387011
-0.249657
0.127337
0.0378575
0.00475857
-0.0569451
-0.0357994
-0.0166476
0.269157
-0.00975622
0.00133899
-0.320089
-0.0376905
-0.324474
0.0307883
-0.438781
-0.500255
0.270443
-0.297418
0.127157
-0.106331
-0.40446
-0.242763
-0.0168714
0.0203163
-0.256951
-0.264585
0.000599777
-0.370108
0.0329872
-0.016422
-0.170004
-0.507453
-0.299415
-0.490668
0.00126336
0.0380532
-0.0174234
-0.0095051
-7.18585e-05
0.256845
-0.284817
-0.47175
-0.06534
0.0730738
-0.368102
0.0105913
-0.0115373
-0.144406
-0.0789098
-0.30872
-0.417492
-0.116616
-0.301706
0.0145243
-0.387252
-0.289374
-0.0269573
-0.0964059
0.12629
-0.395513
0.0431871
0.00171726
-0.00673817
-0.118659
-0.286977
-0.152891
0.0127769
0.0276597
0.0330755
0.0104139
-0.292544
-0.507889
-0.26119
-0.156288
-0.487479
0.494066
-0.0145816
-0.136964
-0.0347347
-0.442035
0.323371
-0.0846475
-0.300084
-0.254477
-0.0238256
-0.0712818
0.316741
0.00904
-0.00238802
-0.471511
-0.0174291
0.0262005
-0.0100588
-0.504111
-0.298449
0.0150426
0.247103
-0.169064
-0.45715
0.0312956
-0.310741
0.176576
-0.300374
-0.317201
-0.507837
0.512394
-0.000666761
0.0150192
0.0414778
-0.409586
0.327674
0.0419001
-0.325044
-0.30863
-0.275035
0.482184
0.0143311
-0.399055
-0.500278
0.056485
0.130271
-0.262192
-0.0943982
-0.463878
0.0215691
-0.508642
0.028116
0.2075
-0.359482
-0.154909
-0.0234341
-0.0142854
-0.442498
-0.00566368
-0.0045955
-0.224803
0.0209484
-0.284003
-0.294704
0.382685
-0.00900566
0.246598
-0.225897
-0.0064717
-0.203774
0.0011437
0.138437
0.0179581
-0.234398
-0.286964
0.0065755
-0.29094
0.026371
-0.31009
-0.294121
0.520186
-0.0203491
-0.447904
-0.411402
-0.252686
-0.295108
0.036866
-0.469259
-0.49356
0.00893776
-0.50647
0.212224
-0.168654
-0.237181
0.201246
-0.369898
0.392515
0.162025
-0.0627001
-0.300297
-0.458
0.0556869
-0.236526
-0.311034
0.488262
0.210019
-0.299676
-0.0745997
0.000851404
0.0157338
-0.480157
0.031003
0.0196772
-0.13741
-0.0360904
0.0124923
-0.30669
0.0310848
-0.253926
-0.293601
-0.0734719
-0.255541
-0.280957
-0.00568087
-0.265978
0.00716512
-0.0197845
0.335677
-0.363789
-0.0117632
-0.27103
0.179453
0.00461242
-0.0428397
-0.021354
-0.00218236
-0.0045049
-0.111801
0.118817
-0.167715
-0.16639
-0.117719
-0.0778283
-0.225058
-0.045145
-0.492675
-0.269335
0.0236498
-0.0264366
0.277077
-0.229107
-0.500712
0.3843
-0.252242
-0.14077
-0.0515642
-0.484326
0.0118385
-0.159124
-0.269428
0.0232846
-0.485649
-0.0238358
0.0357636
0.237255
0.000527806
-0.0647983
0.0873738
-0.491353
-0.165046
-0.456345
-0.49522
-0.0385439
0.136367
0.14545
-0.0240596
-0.00447592
-0.0107548
-0.22287
0.0111502
0.0143979
0.458854
-0.303059
-0.0101445
0.043386
-0.0131294
0.0371806
-0.0127771
0.0086555
-0.01226
-0.090945
-0.446953
0.198939
-0.426056
-0.250446
0.0558346
0.292835
0.0140697
0.0164584
-0.0818372
-0.289438
-0.30159
-0.0652666
-0.0660596
-0.0162682
0.107221
-0.282114
0.0311474
-0.10846
0.030436
0.0329717
-0.287354
-0.298616
-0.0219757
0.0128023
-0.00466731
-0.294545
-0.296136
0.0865893
0.0136369
-0.0952633
-0.18249
-0.26484
-0.346191
0.0348129
0.0132422
0.0233273
-0.157942
-0.0105042
-0.280011
0.33665
-0.23583
-0.0812637
-0.0304145
0.0346852
0.370805
0.0166452
-0.506055
-0.00580811
0.0295293
0.265789
-0.00119325
0.167133
-0.064984
-0.0142555
-0.478635
-0.00188329
-0.0977359
0.0241596
-0.376866
0.00493247
0.34102
-0.00489383
-0.0233374
0.0302719
-0.0542024
0.031605
-0.00193767
-0.503057
-0.0024438
-0.296795
-0.485899
-0.159885
-0.466679
-0.221645
-0.241854
-0.241631
-0.418761
-0.396587
0.0237808
-0.00600622
0.0328883
-0.28633
-0.323111
0.480149
-0.418883
-0.455855
0.0889606
-0.258168
-0.257904
-0.4319
-0.477375
0.334458
-0.487215
0.0165137
0.00112321
-0.226804
-0.227731
-0.327353
0.0557668
-0.0352319
-0.2998
0.00295045
-0.48693
-0.235056
0.0352408
0.0300698
0.00757774
-0.490417
0.0116624
0.0541949
-0.305779
-0.073913
-0.285815
0.509809
-0.0593023
0.0340929
-0.0561277
0.151691
0.520153
-0.3285
-0.158509
-0.231805
-0.172782
-0.0129748
0.423884
0.0194806
0.268358
-0.00203226
-0.00211273
-0.228879
0.182808
0.0153114
-0.173975
0.256758
-0.420947
-0.503912
0.028385
0.0147474
-0.284555
0.0313396
0.424038
-0.255948
-0.509166
-0.0506264
-0.281842
-0.490944
-0.262914
-0.0156891
-0.262032
-0.281278
-0.467565
0.37578
0.0118066
-0.475198
-0.352065
-0.292149
-0.315783
0.0873869
-0.279741
-0.438025
0.0183263
-0.0143888
-0.0940847
0.0192169
-0.271337
-0.503393
-0.213963
0.0932702
0.0201269
0.00541228
-0.00136377
-0.463978
-0.363678
-0.293682
-0.0700172
-0.272893
0.516831
-0.0663697
-0.1234
0.209423
0.440069
0.0375278
0.187021
0.0119573
-0.0092869
-0.257135
-0.473585
-0.13631
-0.148525
-0.143376
0.0152949
-0.00323796
-0.00785393
0.155531
0.457154
0.149772
0.206566
-0.0116321
-0.0322896
-0.021811
-0.0297369
-0.0387911
-0.493105
-0.21923
0.170072
0.287202
-0.340553
-0.145331
-0.117533
0.286914
0.00148627
0.43467
-0.281596
-0.101109
0.0853582
0.0262336
-0.503666
-0.416931
0.00271628
-0.271547
-0.0651587
-0.380585
0.207247
0.00122061
-0.38682
-0.506542
0.0147116
-0.301231
-0.499145
0.328008
-0.0450014
-0.267943
-0.253517
-0.500772
-0.475574
-0.492009
-0.490344
0.0157894
0.0376391
-0.374053
0.0096036
-0.49635
-0.503853
0.00988285
-0.036678
-0.00280786
-0.297718
-0.400264
0.0198155
0.0197165
-0.0106986
-0.117006
-0.467951
-0.179628
-0.240916
-0.0177224
-0.242598
0.209437
-0.015918
-0.135482
-0.0980267
-0.508757
-0.391365
-0.350119
0.0114816
-0.334127
-0.0768433
-0.30012
-0.0130697
0.0378162
-0.00720426
0.455035
-0.073876
-0.307287
-0.289479
-0.0914874
0.0378929
-0.000741354
-0.287609
-0.257154
0.0205966
-0.0578202
0.419498
-0.0106013
-0.374672
-0.325819
-0.481759
-0.500576
0.0221963
-0.011315
0.0430255
0.0102455
0.369559
-0.42897
-0.311283
-0.196895
-0.0114841
0.141347
-0.001298
0.0133304
-0.166552
-0.322421
-0.0574455
-0.323654
-0.505088
-0.326396
-0.227751
-0.33764
-0.270429
-0.283978
0.0205052
0.102279
-0.445046
0.0372922
0.00361828
0.0675435
-0.507322
-0.219523
-0.499483
0.433884
-0.0734583
-0.00349193
-0.214474
-0.280042
-0.238507
-0.0419125
-0.331086
0.0153017
-0.492658
-0.306995
-0.32334
0.0457104
-0.29779
-0.291935
0.149887
-0.272995
-0.102851
-0.34737
0.0141606
-0.266035
0.0436338
0.0343014
-0.175247
-0.483912
0.180313
-0.246906
-0.00396268
-0.234536
-0.466137
-0.0631912
-0.486791
-0.0306171
-0.330486
0.00914243
-0.0015331
-0.34097
0.00372053
-0.216586
-0.161327
-0.239197
-0.0516501
-0.298123
-0.493198
-0.290134
-0.00874138
-0.346315
-0.301625
-0.479064
-0.0538017
-0.331397
-0.289805
-0.502565
-0.0329119
0.451157
-0.00976119
0.0376642
-0.355188
-0.00363504
-0.139013
-0.273256
-0.341145
-0.0508378
-0.502756
0.0359232
-0.29005
-0.291109
-0.0104177
-0.335352
-0.510737
0.00477915
0.509791
0.0187257
-0.0551208
-0.149417
-0.0709083
0.0227764
0.497707
0.0566437
-0.290909
-0.45013
-0.314692
-0.241924
0.00322997
0.176503
-0.457028
0.0272831
-0.157205
0.269913
0.369639
-0.217315
-0.463164
-0.224936
-0.0480921
-0.34737
-0.295631
-0.292249
-0.234532
0.0139974
0.0135258
0.0133719
0.0175378
-0.280582
0.021958
-0.493014
-0.448994
-0.471458
-0.419202
0.00828109
0.293008
-0.0170834
-0.284539
0.017184
0.0388471
-0.436854
-0.0465834
0.354657
-0.0478681
0.0163982
-0.488104
0.478037
-0.307414
-0.353814
-0.120385
-0.499897
0.413562
0.221849
-0.205485
-0.269678
-0.0263937
-0.0403445
0.0317863
-0.151516
-0.323713
-0.488964
-0.482208
-0.27412
-0.390613
-0.00782992
0.481633
-0.509575
-0.330878
-0.119845
0.041959
-0.281611
-0.0184314
-0.337785
-0.263859
0.0359546
-0.25856
-0.275432
-0.490266
0.0335136
-0.00598966
-0.00672329
-0.308448
-0.175689
0.00677854
-0.464359
-0.363762
0.00739987
-0.264467
0.0707427
-0.0281165
-0.0656565
0.00300401
0.00725323
-0.310433
-0.457184
0.307581
-0.332267
0.0226865
-0.236981
-0.310088
-0.0139866
-0.263399
0.337331
0.00395981
-0.218573
-0.136754
-0.255854
-0.0836261
0.0918188
0.0045435
-0.280333
-0.122326
-0.501045
0.0297516
-0.257314
0.216023
0.0366107
-0.221927
-0.0492311
0.0537093
0.0210299
-0.325122
0.171402
-0.157221
-0.0595459
-0.493927
-0.112615
-0.339066
-0.207181
-0.294061
0.0299889
-0.502974
0.0427034
0.16247
0.0247298
-0.330274
-0.0921293
-0.00695098
0.0168888
-0.291001
-0.0239563
-0.0604144
-0.494886
-0.332033
-0.328221
-0.26292
-0.499482
-0.310059
-0.372808
-0.299116
-0.220603
0.0218482
-0.0754469
0.0258691
0.00543229
-0.148994
-0.302288
0.00637278
-0.347295
0.395422
-0.027895
-0.296795
-0.0553027
-0.292233
0.0172258
0.0230843
-0.283683
-0.317714
-0.275752
-0.0104854
-0.30604
0.0183694
-0.311333
-0.00162178
0.22803
-0.223744
-0.491614
-0.290762
0.0349907
-0.0101404
-0.00843418
0.0348469
0.0762757
-0.359485
-0.0748821
-0.0940496
-0.0959012
-0.00529938
-0.00909402
-0.203887
-0.100564
0.009817
-0.265577
-0.467199
0.0344178
0.0332148
0.0425127
-0.271829
0.112107
-0.47885
0.00802891
-0.340054
-0.135599
-0.276261
-0.281059
-0.0768514
-0.414164
-0.00854266
-0.261612
0.433287
-0.0609436
0.00827497
0.101109
0.0293731
-0.0208807
0.0302332
-0.393074
-0.26465
0.299088
-0.0601882
-0.486514
0.0133066
0.0332603
0.174708
-0.311369
-0.00876067
-0.000300288
-0.000948063
-0.051783
0.270867
-0.489486
-0.226112
-0.0530691
-0.16546
-0.337472
-0.213799
-0.0370859
-0.0111042
-0.249636
-0.12955
-0.294393
-0.349435
-0.260992
-0.0245901
-0.42266
-0.314037
-0.157103
-0.37407
-0.287921
-0.00849365
-0.00635905
-0.321713
-0.0720943
-0.470219
-0.329626
-0.502443
0.0234462
-0.308678
-0.00308889
0.0642669
0.00801342
-0.440217
-0.0552972
-0.429777
-0.0193601
0.346509
-0.289292
-0.426239
-0.426085
0.137484
-0.327856
0.0412803
0.0446385
0.0164082
-0.0113732
-0.201302
-0.271963
0.000717278
-0.506373
-0.350149
-0.275761
-0.136348
-0.216918
-0.260564
0.215172
-0.36507
-0.341479
-0.0894021
-0.211969
0.171414
-0.262034
-0.00102779
-0.0548144
-0.365513
0.131362
0.0345779
0.0169624
-0.379318
-0.0331366
-0.207025
-0.00332267
-0.284689
-0.0929155
0.202705
0.0925989
-0.318946
-0.155928
-0.291186
-0.0679389
-0.00246952
-0.00903034
-0.303728
-0.415087
-0.439268
-0.274553
0.119909
-0.462307
-0.0710848
0.438835
-0.152617
-0.336645
-0.387495
0.0119262
-0.318184
-0.479157
-0.500507
-0.11762
-0.350717
-0.29442
-0.0631394
-0.265644
-0.146317
-0.237037
-0.495473
-0.0530695
0.141883
0.235537
-0.0617469
0.00292388
0.28633
0.370515
-0.300854
-0.0371045
-0.274628
-0.0692529
0.0525529
-0.0744824
-0.0280997
0.0325634
0.511146
-0.282422
-0.481858
-0.0419587
-0.0192748
-0.0252042
0.0546583
0.131139
-0.0347312
-0.510499
-0.354319
-0.474281
-0.295296
0.0130183
-0.217669
-0.500146
-0.0459631
-0.264179
-0.313496
-0.326653
0.01619
-0.0304256
-0.496995
-0.394747
0.251685
-0.146115
0.0121548
-0.301346
-0.0428977
-0.0801534
-0.128693
-0.261274
-0.00532613
0.00923289
-0.423233
-0.179239
-0.344792
-0.49186
0.418035
0.415591
-0.00499566
0.432335
-0.505234
0.169162
-0.510568
-0.255393
0.155954
-0.495864
-0.284491
-0.0341736
-0.102873
-0.0880973
0.016824
-0.275664
-0.156261
-0.442238
-0.263265
-0.240476
0.084484
0.222271
0.305078
-0.0109489
-0.157167
-0.0673597
-0.000555399
-0.105022
-0.00405814
-0.10224
-0.173786
-0.498347
-0.494579
-0.243515
-0.307339
-0.220116
-0.0340794
0.00475259
-0.38975
-0.0156128
-0.299915
-0.208275
-0.430439
-0.0774914
-0.371986
-0.139008
-0.504521
0.0240119
-0.428109
-0.400629
-0.0101266
-0.368922
-0.494854
-0.307255
0.470966
-0.46353
-0.0975421
-0.333082
-0.493448
-0.451796
0.0318419
-0.353015
-0.0084004
-0.327211
-0.293681
0.107653
0.319666
-0.162168
-0.506
-0.163998
0.0139518
0.00833705
-0.00635735
-0.268123
-0.371064
0.0406452
-0.164181
0.0125622
-0.493751
0.158504
-0.0395639
-0.404387
-0.0244986
0.0215607
-0.129921
-0.162185