/*--------------------------------*- C++ -*----------------------------------*\
| =========                 |                                                 |
| \\      /  F ield         | OpenFOAM: The Open Source CFD Toolbox           |
|  \\    /   O peration     | Version:  v2012                                 |
|   \\  /    A nd           | Website:  www.openfoam.com                      |
|    \\/     M anipulation  |                                                 |
\*---------------------------------------------------------------------------*/
FoamFile
{
    version     2.0;
    format      ascii;
    class       volVectorField;
    location    "400";
    object      ddtCorrDdt0(U);
}
// * * * * * * * * * * * * * * * * * * * * * * * * * * * * * * * * * * * * * //

dimensions      [0 1 -2 0 0 0 0];


internalField   nonuniform List<vector> 
18355
(
(0.0020715 -0.010514 1.70225e-21)
(-0.0334992 0.010865 0)
(0.000397258 0.000200897 -5.30645e-22)
(0.000124201 -0.000227718 9.85116e-22)
(-0.000374377 -0.00176393 -7.53695e-23)
(0.0147549 0.0137755 -2.94617e-20)
(0.000193008 8.70867e-06 0)
(-0.0036781 -0.0160691 1.35652e-20)
(-0.000230124 0.00301511 0)
(0.0179629 0.00929475 0)
(-0.000139337 -7.37785e-05 2.36579e-21)
(-0.00701561 -0.00602114 -2.17969e-21)
(0.00123991 -0.00037628 -6.84397e-21)
(0.000178217 0.000519233 2.77664e-21)
(0.00161774 -0.000492037 0)
(0.000793212 0.000231228 1.289e-21)
(-0.0111694 0.00166397 6.15305e-22)
(0.000302655 -0.000131442 0)
(0.000566377 0.00319583 1.5309e-21)
(-0.0614334 0.0484268 2.18359e-21)
(0.00203847 0.00275666 4.82648e-21)
(0.00055897 0.00161716 4.38311e-21)
(0.047093 0.00235008 0)
(-0.000607333 -0.00139531 -3.76759e-23)
(-0.000340528 -0.00444997 0)
(6.0194e-05 0.000606003 -4.69956e-21)
(-2.27262e-05 0.000774998 4.03184e-21)
(0.000419764 -0.000296857 -5.42978e-21)
(0.0378146 0.0794817 -6.62181e-21)
(0.000472149 0.000755656 -5.71291e-21)
(-0.000510015 -0.000477173 5.65675e-22)
(-0.000787368 -0.000119909 -4.30387e-21)
(0.000295578 -0.000148714 1.42832e-21)
(0.000123109 -6.44386e-06 1.10851e-21)
(0.00255416 -0.0201056 -1.56482e-21)
(0.00258388 -0.0075915 -2.48814e-21)
(0.000806346 0.00225098 0)
(0.0146284 -0.163978 -4.30268e-21)
(8.44653e-05 0.00376421 2.83835e-20)
(-0.000134577 -0.000131336 -3.12761e-22)
(0.000209237 0.00022841 -2.17568e-21)
(0.107278 0.170826 0)
(0.000453939 0.000186426 0)
(0.035255 0.00571243 0)
(-9.91204e-05 -1.07856e-05 0)
(0.0181758 0.00937919 -4.49255e-20)
(-0.00212121 -0.00148858 -2.78577e-21)
(3.3338e-05 -0.00352961 1.96164e-20)
(-0.00200665 -0.00136013 -3.1909e-20)
(0.000279469 -7.13242e-05 1.76537e-21)
(-5.83494e-05 -0.000168742 -5.08746e-22)
(0.00046581 -0.000264492 5.14039e-22)
(6.30978e-06 -7.8545e-05 2.02646e-21)
(-0.0153535 0.0315632 1.51539e-21)
(8.59057e-05 0.000691618 0)
(0.000106806 1.79008e-05 -1.95268e-22)
(0.0278866 -0.0198602 0)
(0.00135857 -0.000392587 6.19996e-22)
(0.143382 0.113929 4.04138e-20)
(-0.00951696 -0.0310494 -9.79032e-21)
(0.00032615 -4.74204e-05 -8.99776e-22)
(0.00293533 0.0114473 0)
(0.000267977 -0.000196752 4.11152e-22)
(0.034801 0.0733051 1.09804e-20)
(-0.00625274 -0.00713425 9.29964e-22)
(0.00102583 -0.00898152 -2.15078e-21)
(0.00106783 0.00744821 0)
(-0.00426866 -0.00626959 -1.18886e-20)
(-2.08185e-05 0.000737334 -3.32294e-21)
(0.000808397 0.00100502 1.39523e-21)
(-0.00115098 -0.0426539 0)
(-4.39857e-06 -1.24042e-05 1.67806e-21)
(-0.00954109 -0.0264409 0)
(0.000301992 0.000171135 -1.96077e-21)
(0.000127156 -0.00130753 -1.12141e-20)
(0.000221464 -0.000120403 6.11019e-22)
(-0.0405678 0.0498068 3.72854e-21)
(-0.0014744 -0.0019221 0)
(0.000736585 -0.00283957 2.42701e-22)
(0.000548826 -0.000167777 -5.30872e-22)
(0.00019949 -1.778e-05 -1.77483e-21)
(-0.0576409 -0.0141652 4.24578e-20)
(0.00136197 0.00794551 -5.53131e-21)
(0.027393 0.0196609 9.11381e-21)
(6.79063e-05 0.000511489 3.18881e-21)
(6.65211e-05 -0.00102681 2.76077e-21)
(-0.106066 0.0415585 0)
(-0.0582882 0.0502701 1.62409e-21)
(0.03236 0.0677804 -1.96993e-20)
(0.0109923 0.0279006 2.67029e-21)
(-0.00845028 0.0360919 -4.70942e-20)
(-9.80879e-05 -7.87278e-06 1.16854e-21)
(7.68945e-05 0.00067955 -4.64938e-21)
(-0.000115817 -7.30463e-05 0)
(0.000391718 0.049806 0)
(0.0503521 0.00172637 6.42468e-21)
(0.000412228 -0.000292115 0)
(0.00216155 -8.97551e-05 -4.55783e-23)
(-0.0122493 0.0289084 -1.22221e-21)
(-0.0017889 -0.000414204 0)
(0.0113952 0.0245382 0)
(-0.00215102 0.000693116 -7.87402e-23)
(-0.000208206 -0.0342078 0)
(-0.0122701 0.0511202 -8.28674e-22)
(-0.000717295 -0.00166037 1.02085e-21)
(0.00279264 0.0057402 1.11738e-21)
(-0.0142616 -0.00330028 9.24333e-23)
(0.0150491 -0.0592955 9.34222e-21)
(0.00234807 0.00147945 6.86333e-21)
(0.0513983 0.0963133 -1.93694e-20)
(0.000451291 0.000391465 -4.27981e-21)
(0.000477593 -0.000527866 0)
(4.83331e-05 0.000632027 -5.05595e-21)
(-0.000442948 0.0046105 0)
(-0.03875 0.0260636 0)
(0.000132534 1.39379e-05 2.86496e-21)
(-0.0073863 0.0025952 1.73178e-20)
(-0.0417534 0.0499268 3.61506e-21)
(-0.0377408 0.0370912 1.33024e-19)
(0.0133658 -0.00724959 -5.87174e-21)
(0.0198813 0.0106323 1.65754e-22)
(0.0275204 -0.044646 0)
(0.00189789 -0.0059884 0)
(-0.00367631 -0.0158064 1.50929e-19)
(0.000371339 -0.000425753 -9.53163e-22)
(-0.0801482 -0.103243 7.39145e-20)
(0.000528352 6.3638e-05 -8.87235e-22)
(3.3381e-06 0.000320561 1.08153e-21)
(0.0203195 0.0171818 4.66393e-22)
(-0.000117494 -5.88782e-05 -3.59643e-22)
(-5.36814e-05 -0.000183994 0)
(0.0117927 0.0110029 1.18404e-20)
(0.00615384 -0.00164279 -1.74753e-21)
(-0.000479821 0.00105942 0)
(0.000651022 0.0186438 1.668e-20)
(-4.33351e-05 8.34168e-05 -2.26416e-21)
(0.00147107 0.00396754 -1.24942e-23)
(-0.000122304 -0.00020101 0)
(0.000266057 0.000351126 0)
(0.0240986 0.0128561 9.67764e-21)
(0.0146899 0.0345631 0)
(0.0283916 0.0800935 -9.70794e-21)
(0.00125659 -0.00017606 0)
(0.000482413 0.000269595 6.45642e-21)
(0.00792556 -0.00595623 -9.55358e-22)
(-3.48113e-05 0.000873905 -5.24003e-21)
(0.00252227 0.0128867 3.16442e-20)
(-0.12729 0.0648488 -1.32634e-20)
(0.000965725 -0.00149587 -7.63589e-22)
(-0.133388 0.0680174 1.51597e-20)
(-0.000209722 -0.000611059 -7.4732e-22)
(7.23049e-06 -0.000132984 2.9721e-21)
(-0.0087271 -0.042159 -1.14763e-20)
(0.0170951 0.137167 1.74396e-18)
(0.0144984 -0.0106846 2.32893e-22)
(4.61996e-06 1.46919e-05 2.60016e-21)
(0.00687445 0.0116703 0)
(0.0172274 -0.0361321 -7.49239e-20)
(3.92708e-05 7.12001e-05 4.6311e-21)
(0.00255104 -0.00749767 0)
(0.00635457 0.00999697 -4.20776e-21)
(0.00126071 -0.00482655 0)
(0.00524876 0.000121032 7.91542e-22)
(-0.000519502 -0.00396453 0)
(0.0472072 0.00736194 0)
(-0.802153 0.918692 1.84941e-21)
(-0.00732805 -0.00552575 -3.02349e-21)
(0.00232265 0.00602276 3.88099e-20)
(-0.0150319 -0.0146125 0)
(0.000313454 -5.18514e-06 -2.06026e-21)
(0.000676914 0.17726 0)
(0.0535998 0.000455554 -4.92512e-21)
(-7.88479e-05 -9.73223e-05 -4.43521e-22)
(-0.000138493 -0.000200935 1.30716e-22)
(0.00291584 0.00367402 -9.60862e-22)
(-0.0654095 0.00739028 -1.17049e-21)
(0.00812126 -0.0100376 -8.56204e-22)
(0.000129825 0.000507324 -3.00618e-21)
(0.00992374 0.0353917 -4.05415e-19)
(-0.0244139 -0.0265247 1.16548e-21)
(-0.0298492 -0.0221804 -3.84847e-21)
(-0.0162993 -0.0142001 0)
(0.00258584 -0.00239301 -5.69011e-23)
(0.000174904 -4.86815e-05 0)
(0.0516479 0.0180459 0)
(-0.0724449 0.00831397 1.07209e-21)
(0.0287284 0.0181662 0)
(0.0045917 0.0177666 -8.58981e-21)
(-0.000932651 0.00205764 -1.02359e-20)
(-0.0117261 0.00106173 0)
(0.0213884 -0.0165782 1.61352e-21)
(0.000642362 -0.000624871 -4.14568e-22)
(0.00118246 -0.00273177 -6.81356e-22)
(-0.0225029 0.0487613 -1.66765e-20)
(0.0132362 -0.0960084 0)
(0.000880817 0.00111482 0)
(-0.0016096 0.000240678 1.24686e-22)
(0.00276395 0.000552643 0)
(0.00268824 -0.00265765 0)
(-9.66217e-05 -0.00013626 0)
(0.00063874 -0.00133434 0)
(0.000750156 0.00143307 -7.17812e-21)
(-0.0103014 0.00822518 0)
(0.0343185 0.0161893 0)
(0.0206023 -0.00123471 8.16047e-21)
(-0.00184578 0.000457551 -5.99787e-21)
(-0.0202046 0.0270646 0)
(-0.0210432 -0.00443882 -1.10099e-20)
(-0.00331839 -0.0171556 0)
(0.00278015 0.0028145 -8.04932e-22)
(0.000247761 0.000376706 -2.80307e-22)
(-0.00034744 -0.000918125 0)
(-0.0550291 0.0599186 -4.80026e-21)
(0.00104361 0.00078698 0)
(0.000256373 1.34808e-05 1.53642e-21)
(0.0426477 -0.0209493 0)
(0.0317806 0.00580777 5.23345e-22)
(-0.0582917 0.0589646 1.86176e-21)
(4.28942e-05 0.00055844 2.70481e-21)
(0.000983484 -0.00176414 1.54671e-21)
(-0.00288733 0.00927048 1.86675e-21)
(0.000232464 0.000222013 0)
(-0.0137437 0.00309464 -2.30968e-20)
(0.000810782 0.000860302 1.19967e-22)
(-0.00891865 -0.00296951 6.70963e-21)
(0.000522003 0.000550288 -1.7194e-21)
(-0.0175495 0.00693161 -1.36889e-20)
(-0.0897652 0.011616 0)
(-0.0405342 -0.0379495 6.39515e-20)
(0.000148524 -0.00264645 -2.04401e-22)
(2.14261e-05 -1.45366e-05 -1.02412e-21)
(0.000189168 -0.00209575 -6.91861e-22)
(0.00460901 0.00642898 1.31188e-21)
(-0.0142827 0.00825383 1.68331e-20)
(0.000777949 0.00555623 6.38167e-22)
(3.84396e-05 0.00050608 2.25241e-21)
(0.000162357 0.000473124 3.04444e-21)
(0.038628 0.115623 2.91918e-20)
(0.0183147 0.0497088 -7.47578e-21)
(0.0201394 -0.000811711 -7.89413e-21)
(0.0023277 0.00397381 3.81506e-21)
(-0.0226016 0.00649671 -1.57035e-20)
(-0.000617564 -0.000801831 0)
(0.000282411 2.66411e-05 1.51439e-21)
(0.000523644 0.00246888 5.84983e-21)
(-0.0892191 0.00828425 1.48465e-21)
(0.028572 -0.0293807 -1.20575e-21)
(0.00161816 0.0085469 0)
(0.0162819 -0.00938121 3.30507e-22)
(0.00689223 0.00699348 7.12151e-21)
(0.000511832 -0.00093189 0)
(0.826765 -0.477204 1.33691e-19)
(0.000224742 0.00252958 8.66034e-22)
(-0.0018998 -0.0180391 -1.58264e-21)
(0.00085131 0.000337232 -1.13089e-22)
(-0.0147064 0.003111 -1.31396e-20)
(0.00216092 0.0159649 0)
(0.00486435 -0.00519671 6.28604e-21)
(0.000574213 0.000554275 -2.07414e-22)
(0.000106074 -8.85773e-06 2.5957e-21)
(0.00175079 -0.00769874 3.72363e-21)
(0.00313893 -0.00244508 3.60259e-21)
(-0.0112577 0.010068 0)
(0.00163848 0.00202302 -2.09377e-21)
(0.000163456 7.77996e-05 0)
(0.000255084 9.39642e-05 9.22906e-22)
(-1.04269e-05 -0.000150354 -2.34301e-21)
(-0.0187012 -0.0627974 0)
(0.0244504 0.0989561 -1.38077e-20)
(-0.00801641 0.0134268 -2.33685e-21)
(0.00122763 0.000882815 2.1468e-21)
(-0.118993 0.077843 -2.01065e-21)
(0.00248503 0.00805076 -2.89087e-20)
(0.00380496 0.00991385 0)
(0.00100739 -0.00166846 -6.57734e-22)
(-0.000856198 0.00145821 -3.20313e-21)
(0.000476938 4.21394e-05 4.57491e-22)
(0.000221794 0.000151507 -3.74034e-21)
(0.161781 -0.160891 5.67977e-20)
(0.000119161 9.67151e-06 -1.29064e-21)
(0.000199971 4.04116e-05 1.9475e-21)
(0.00150053 0.0126865 2.23024e-21)
(0.000462204 0.00023093 -5.69877e-21)
(0.00772447 0.0726659 0)
(0.000592993 0.000712112 -7.19413e-22)
(-0.00173704 0.00896751 7.02424e-21)
(0.000111719 1.80729e-05 2.60112e-21)
(0.00379191 0.00570062 -6.79137e-20)
(-0.0154694 -0.00638334 6.86694e-22)
(0.00265643 -0.000819853 -1.17765e-20)
(0.000120192 -0.000211812 -1.2284e-21)
(-2.75114e-05 0.000233124 4.20049e-21)
(0.00996136 -0.00423636 4.64838e-21)
(-0.010288 0.0198819 1.08371e-21)
(-0.000113193 0.000230984 0)
(-8.95882e-07 -3.31769e-06 4.74218e-22)
(0.00806219 0.0141414 -1.9782e-21)
(-0.0125469 0.0167665 -6.01103e-21)
(0.0176655 -0.00615071 -1.14573e-20)
(0.112579 -0.0910505 0)
(0.000217256 0.000143729 1.78484e-21)
(0.0014462 -0.0134996 1.11444e-20)
(-0.000401396 0.00146343 1.99545e-21)
(-1.47104e-06 -1.73732e-06 -7.3815e-24)
(0.170694 -0.209689 -7.98298e-21)
(0.0434839 0.0162208 0)
(0.0607474 -0.00969455 -4.08551e-21)
(0.00829995 -0.0114665 -4.51774e-21)
(-0.000113789 -9.34478e-05 8.28201e-22)
(-0.0168326 -0.00725693 1.24439e-22)
(-0.000944077 -0.00155705 8.48013e-22)
(0.0017245 0.00177247 0)
(0.0272188 -0.0280229 -2.81424e-19)
(0.000509632 0.000574015 -1.29113e-21)
(-0.0198563 -0.0181505 -1.3453e-20)
(0.0387101 0.0431233 -5.70264e-20)
(0.000149825 0.000581389 -2.5909e-21)
(3.13342e-06 -0.000203608 6.89114e-22)
(-0.0161649 0.0171891 4.12448e-21)
(-0.136978 0.0338064 -9.38982e-22)
(-0.0175297 -0.00523445 1.30274e-20)
(0.000319807 0.000275366 1.40763e-21)
(-0.00182575 0.0167509 0)
(0.0371876 0.00455102 -3.28254e-23)
(-0.000203101 -0.000440253 7.98854e-22)
(0.0123638 0.0477262 -6.61075e-21)
(-0.00049224 -0.0049259 1.73239e-21)
(0.00539809 -0.0123783 1.39782e-20)
(0.00983489 0.0458452 0)
(-9.19532e-05 -9.01275e-05 -6.87227e-22)
(-0.440808 0.43332 -1.80592e-21)
(0.000346414 0.000247611 0)
(0.0135323 -0.0155719 2.30107e-20)
(6.1812e-05 -1.92644e-05 0)
(0.0170738 -0.00866505 1.18549e-20)
(-0.0258998 -0.00167067 7.07656e-22)
(-1.48689e-05 -2.82613e-05 0)
(-0.0155591 -0.0231736 -6.69179e-21)
(0.000353883 -0.000892126 1.16309e-21)
(5.60226e-05 0.000615149 -4.30237e-21)
(-0.00166214 0.00338084 -2.44671e-21)
(0.00331487 0.00562227 0)
(-0.0107599 0.0421436 -4.916e-21)
(-0.0323341 0.0335063 -6.69912e-23)
(-0.0199358 0.0575439 7.24688e-21)
(0.000735172 0.00149326 -9.73516e-22)
(0.000263577 -0.000189138 5.92081e-22)
(0.0437934 -0.00923513 4.88426e-21)
(0.0499606 0.0337637 -1.92798e-21)
(0.000151158 0.000582795 -3.1816e-21)
(-0.000744057 -0.000155208 -1.16561e-22)
(0.0555202 -0.0248655 8.30946e-21)
(0.0431324 0.00157235 0)
(1.08328 -0.794526 -1.52845e-19)
(0.0415126 -0.00938348 0)
(8.29033e-05 0.000724529 4.64612e-21)
(0.000934135 -0.00141867 4.63582e-22)
(0.00909125 0.00211204 3.83906e-21)
(0.000657844 0.000479782 9.42788e-21)
(0.0028741 -0.000310833 -6.83587e-22)
(-0.0220785 0.032146 0)
(0.00563255 0.00103115 3.22098e-21)
(0.000661357 -0.00150723 -7.50377e-22)
(-0.143884 0.0418723 7.77109e-21)
(3.02679e-05 -4.65557e-05 -1.11935e-23)
(0.0111192 0.0334651 0)
(-0.0217451 -0.0367107 3.72305e-19)
(0.00692007 -0.00138523 7.67285e-21)
(0.000136195 -0.000182204 0)
(0.000346103 0.00168045 0)
(0.000225205 0.000239246 -1.5668e-21)
(0.000585998 -0.000417275 -8.97048e-22)
(0.00776296 0.0298408 -2.45615e-19)
(0.000533584 -0.00044252 0)
(-0.000350698 -0.00542665 2.63692e-21)
(0.000236448 0.000202382 -3.45702e-21)
(0.00129942 -0.00325152 1.72036e-21)
(7.13075e-05 0.000750331 -1.65347e-21)
(8.35576e-05 0.00187542 0)
(0.000319954 -0.000472483 0)
(-5.14699e-05 0.00158237 2.34373e-21)
(0.000286366 -0.000533319 -2.49409e-22)
(0.000246229 -0.000659602 0)
(0.000497093 0.000292116 0)
(0.00445716 0.00829577 -9.94886e-21)
(-0.00456142 0.111836 1.0522e-21)
(0.00199107 0.00155261 1.32622e-21)
(-0.0230336 0.046924 -9.14756e-21)
(5.1778e-05 0.000286935 -1.05536e-21)
(-0.00210317 0.117221 -1.36766e-21)
(0.00418888 0.000693415 -8.34514e-22)
(0.00214897 0.014645 1.96271e-21)
(0.00106859 0.00210606 2.04085e-21)
(-0.00915089 0.0378984 -4.0995e-21)
(0.00104265 0.00293534 0)
(0.000130151 5.02084e-06 -3.06522e-21)
(2.39153e-05 0.000712882 -3.1823e-21)
(7.67184e-05 -0.000285105 1.58219e-21)
(-0.0236503 0.0305082 -1.5174e-21)
(0.00162594 -0.00235122 5.1743e-21)
(-9.84194e-05 -1.39396e-05 4.29594e-22)
(-0.00220426 -0.00335612 1.24964e-20)
(-0.00147899 -0.00596561 0)
(0.000651326 0.000429053 -7.29545e-22)
(-0.000195781 -0.00038025 -5.59584e-23)
(-0.0100557 0.00967961 5.56682e-21)
(0.000828535 0.00102903 -2.81636e-21)
(0.000548676 -0.000259404 9.63078e-22)
(-0.0547517 -0.0432979 0)
(0.000338699 0.000392944 9.4766e-21)
(0.00142328 0.005802 -1.61118e-20)
(-0.00817785 0.00147306 -6.00154e-21)
(-0.00989829 -0.0158205 2.14271e-21)
(0.00316397 -0.000865966 0)
(-0.00103632 -0.00191851 -1.88227e-21)
(-0.0152484 -0.00809918 2.77575e-22)
(-1.11146e-05 -2.64985e-05 0)
(0.00034831 0.00016163 -2.06816e-21)
(-0.33663 0.44914 1.05231e-18)
(-8.29698e-06 -1.98262e-05 8.70278e-22)
(-7.23883e-05 -4.00486e-05 -6.59697e-22)
(-0.0122013 0.00110722 -2.42941e-21)
(0.000287127 0.000130285 -1.93215e-21)
(-0.0260472 -0.00131747 1.48252e-21)
(0.00439379 -0.00421712 -2.04601e-22)
(0.0100132 -0.0179229 1.91952e-21)
(-0.00761552 0.00232848 4.18911e-21)
(0.000105369 0.00100818 8.26426e-21)
(0.000372195 0.000121145 1.05697e-21)
(-0.0480569 0.0510418 -4.4106e-21)
(0.00451596 0.00888137 8.5531e-21)
(-0.00178851 0.176676 -3.67288e-21)
(-0.0100164 0.0466674 7.99863e-21)
(0.000199751 0.000178117 -2.44339e-21)
(0.000176322 -8.80728e-05 0)
(0.00139293 0.00164251 -2.93311e-22)
(-0.0244158 0.0235845 -6.21462e-21)
(-0.015687 -0.028436 -5.03171e-21)
(-0.000434948 -0.00281701 0)
(1.90184e-05 -3.08589e-05 1.03206e-21)
(0.000788644 0.000152892 -1.18781e-22)
(-0.000175963 0.0200981 4.96253e-21)
(-0.0109378 0.0029363 6.40246e-22)
(0.00311812 0.0221001 -2.76591e-21)
(0.00120843 0.00136621 3.73908e-22)
(3.65997e-05 -4.54916e-05 0)
(0.00274939 0.00062604 -6.98042e-22)
(-0.00987909 0.0343883 8.19778e-21)
(-0.0115331 0.021267 -7.53659e-22)
(-0.0151846 0.00360109 4.45642e-21)
(0.0110252 0.0120549 1.70429e-20)
(0.00141934 0.0078364 -9.917e-21)
(0.0328247 -0.0350759 1.22516e-20)
(0.0356105 0.00731294 -4.49626e-21)
(-0.000161605 -0.000844218 0)
(0.000194055 0.00011914 3.88351e-21)
(-9.04146e-06 0.000232457 0)
(0.00117629 0.00073908 0)
(-0.0123054 -0.0256731 4.04463e-20)
(0.000214292 0.000269733 1.56941e-21)
(-9.92e-05 -1.64851e-05 4.85602e-22)
(-0.00209346 -0.000125921 -1.65535e-22)
(-0.00861349 -0.0344356 -1.83221e-20)
(-0.00342524 0.00281301 3.75865e-20)
(0.00477497 0.0300695 0)
(0.00225439 0.00660055 0)
(-0.0721632 0.00573402 0)
(0.00059481 0.000241017 -1.27646e-21)
(0.000237659 -0.000756468 7.09487e-22)
(0.000324376 0.000508486 -1.58654e-21)
(0.000201492 -5.61658e-05 1.456e-21)
(8.08642e-06 -4.72599e-05 1.19195e-22)
(1.92381e-05 -7.92687e-05 -5.10398e-22)
(0.000191295 0.000173348 1.00331e-21)
(0.0358497 0.094003 1.05372e-20)
(0.000951325 -0.000324242 -1.24473e-21)
(-7.16154e-05 -0.000128407 3.25521e-22)
(0.0194609 -0.0442901 0)
(0.0116726 -0.0200197 -1.80091e-21)
(0.000222507 5.43878e-05 -2.04919e-21)
(0.000113983 -0.000979401 -2.58961e-22)
(-0.00185603 0.0248484 5.37006e-20)
(-0.00113394 -0.0256166 -5.21039e-20)
(0.0020325 -0.00433795 2.57452e-21)
(0.000371246 -0.000826158 -4.77194e-22)
(-0.013005 0.0440544 -7.64476e-21)
(-9.24933e-05 0.000128325 -1.09591e-20)
(-0.0752465 0.0799922 -1.0348e-20)
(0.000678619 -0.0106839 -1.57331e-21)
(0.000540839 -0.000270844 8.96189e-22)
(-0.00596167 -0.00813058 -1.92121e-20)
(0.0236973 0.0100446 -4.67193e-21)
(0.000261341 -0.000127446 0)
(-0.000932642 -0.0193432 -3.23895e-21)
(0.0203698 0.0563472 -9.76836e-21)
(-0.00531738 0.000680639 9.04506e-21)
(0.000584077 -0.000413221 0)
(0.000333007 -0.000730201 1.51281e-21)
(0.00462903 -0.0011584 -2.96414e-21)
(0.00690574 0.017882 0)
(-0.000711227 -0.00267179 0)
(-0.131565 0.097798 1.39977e-21)
(-0.0109529 0.022629 1.58625e-21)
(-0.0170689 0.0501464 2.07493e-20)
(0.0252346 -0.0236184 -3.18081e-21)
(5.8481e-05 -0.000280221 0)
(0.00653138 -0.000357973 0)
(-0.0588769 0.0142732 -1.73393e-22)
(0.0505746 0.000542465 4.84746e-21)
(-0.069215 0.0337042 -2.40811e-21)
(0.000293595 0.0040401 0)
(0.00345511 -0.0165423 0)
(0.00915451 0.0150162 2.32533e-21)
(0.0558915 0.00534819 2.85434e-22)
(-0.00196291 0.000567488 8.41695e-23)
(-5.81477e-05 0.0885488 -1.9992e-18)
(0.000805925 0.00100718 9.30798e-22)
(0.000274748 0.00013142 -7.17778e-22)
(3.45373e-05 0.000811838 9.05078e-22)
(-0.0142273 -0.0447871 0)
(0.000198718 0.00024792 -9.53799e-22)
(-0.0487877 0.0508467 -6.16421e-23)
(0.00487782 -0.000916199 -1.10477e-20)
(-0.0437762 0.028094 1.31583e-22)
(-0.000144008 0.000385277 0)
(0.000481433 0.00286089 0)
(0.000106265 3.99466e-06 -2.69766e-21)
(0.000233857 0.0146153 6.5052e-21)
(0.00100348 -0.0198037 -4.5292e-23)
(-0.00538557 0.0328803 -2.74528e-21)
(0.00035537 6.02478e-05 0)
(0.00647152 0.0217667 0)
(-0.267998 0.282404 0)
(0.00219439 -0.0072024 1.69844e-20)
(0.000615307 0.000238446 -1.31164e-21)
(0.000214092 0.00719787 0)
(0.00185365 -0.00613936 -2.68218e-21)
(-6.96723e-05 0.000260303 0)
(0.00178784 0.000196949 0)
(0.00411162 0.00734727 -4.04594e-21)
(0.00395243 -0.00125132 0)
(0.0219862 -0.0160293 9.18028e-19)
(0.000677309 0.00112924 2.98844e-23)
(0.000250744 -8.46738e-05 0)
(-8.12375e-06 0.000219412 0)
(1.324e-06 -5.70132e-06 0)
(0.00186638 -0.00611569 -1.10524e-22)
(0.0010947 -0.00260855 7.62174e-22)
(0.00352729 -0.00271766 0)
(0.00157485 0.00187708 1.24e-21)
(-0.000740057 -0.00145246 0)
(-0.0355794 0.163737 4.54955e-21)
(-8.25039e-05 -7.70985e-05 0)
(-0.00493785 -0.0175826 6.62994e-21)
(-0.00227362 -0.00140152 -7.02279e-21)
(0.0201456 0.138313 1.22592e-20)
(0.00137625 0.00475871 -7.34927e-21)
(-0.0198605 0.0296231 1.2063e-21)
(0.000979924 -0.00170973 8.75858e-22)
(0.0427847 0.0016585 -1.18819e-20)
(0.000114371 0.00455859 -2.0246e-20)
(0.00206824 0.00421777 3.52314e-22)
(-0.00122339 0.0212207 0)
(-0.0354667 0.16673 1.62943e-20)
(0.0412064 -0.010468 1.22656e-19)
(0.000231944 -0.00472318 1.21676e-21)
(0.00139769 -0.00185329 -6.23612e-23)
(0.000507629 -0.000280792 4.46725e-22)
(0.000225018 0.000169029 0)
(0.0273343 0.0230249 6.26761e-21)
(0.00290481 -0.0120906 -3.76211e-20)
(0.00896914 -0.00640363 -3.17951e-20)
(-0.0116631 -0.168687 0)
(0.0320847 0.0819876 0)
(0.0318082 -0.0160838 1.75665e-19)
(0.000117443 -6.08949e-06 2.89175e-21)
(-0.0119259 -0.00867201 0)
(0.024176 0.00352843 1.26771e-20)
(-0.00026387 -0.000649346 3.12401e-21)
(0.000284563 0.000225999 0)
(-0.000754003 -0.00559197 -2.56691e-21)
(0.0152028 0.0253152 -5.76611e-21)
(0.00187308 0.00350372 -1.54189e-21)
(7.74809e-05 6.17769e-05 3.35526e-21)
(-0.00421716 0.00834081 3.52399e-21)
(0.00589412 0.0359683 0)
(-0.013205 -0.0356036 0)
(0.00745102 -0.00338786 5.46899e-21)
(0.511164 -0.684515 2.52628e-19)
(0.00159374 -0.00181552 0)
(-0.00426655 -0.0116103 0)
(-0.0194306 0.00505373 9.48066e-22)
(0.00835813 0.0478818 0)
(0.0308929 -0.0446518 -4.4296e-19)
(-0.0129532 0.011265 -2.61884e-21)
(0.0662184 0.0383301 0)
(-0.000755807 -0.00462189 2.16899e-21)
(9.01819e-05 1.6987e-05 0)
(-0.000573909 -0.00166383 4.10514e-21)
(0.000415062 0.000275294 5.50609e-21)
(-0.00196094 -0.0188978 3.7872e-20)
(-0.105213 -0.072178 0)
(-0.0635287 0.0101516 0)
(0.0101783 0.0131593 4.77588e-21)
(-0.00827043 -0.00965027 0)
(-0.00588903 0.0776721 -2.33975e-21)
(0.0017908 -0.00552649 -2.28566e-21)
(0.000457303 0.00260429 6.72209e-22)
(-0.048105 0.0073768 -2.11755e-22)
(0.0310733 0.0116187 0)
(-0.000130169 -0.000188234 0)
(0.0113757 -0.0129459 0)
(0.00626252 0.0110777 -2.17462e-20)
(0.0504588 0.000153845 0)
(0.0110427 -0.00146707 -2.74006e-21)
(2.98253e-05 -0.000231118 7.27722e-22)
(0.00155229 -0.00280406 4.43379e-23)
(0.0014637 -0.00229918 -1.1496e-22)
(0.000921641 -0.00456551 2.23189e-21)
(-0.00139228 -0.0111836 3.95284e-20)
(0.000521146 0.000610401 -8.83051e-23)
(0.0241239 0.00229008 -2.08674e-22)
(0.000890682 -0.0106054 -2.13321e-20)
(0.00183424 -0.00239207 -5.04283e-22)
(0.0531451 0.00605692 6.62097e-22)
(-3.14541e-05 -0.00157345 0)
(-3.68383e-05 -0.00488152 -1.43838e-20)
(-0.0719238 0.0342469 -2.69469e-21)
(0.000334264 0.00013147 -5.05403e-21)
(0.00155801 -0.000194795 0)
(0.0306894 -0.0133886 -2.20026e-22)
(0.000167678 8.82177e-06 -6.9067e-22)
(0.00622007 0.00211031 0)
(-8.36069e-05 -9.70858e-05 0)
(0.00423271 0.0822692 0)
(0.000832204 -0.00530513 0)
(0.0022283 -0.000947141 0)
(0.000446009 0.0285585 -5.24405e-20)
(0.00275211 -0.00915638 0)
(0.00572405 0.00412591 -4.07319e-21)
(-0.00128366 0.00600544 -5.19405e-21)
(-0.148559 0.0735982 0)
(0.0210991 0.00178867 2.72289e-21)
(-0.000355064 -0.000823122 0)
(0.0640397 -0.00017392 1.4678e-20)
(0.00448143 -0.00415604 0)
(0.582873 -0.58385 0)
(-0.0163606 0.00108351 -2.11557e-19)
(0.0209901 -0.050094 -3.53021e-20)
(0.00957109 0.0280251 0)
(0.000502704 0.000411072 -8.37536e-21)
(9.36272e-05 -0.000320172 3.96065e-22)
(0.0167024 0.0565608 2.15608e-20)
(0.000650706 0.00276128 -2.05469e-22)
(0.00186889 -0.000732269 0)
(2.10874e-05 -2.04129e-05 0)
(0.00149267 -0.00334593 0)
(0.00863442 0.011066 -1.58639e-20)
(-0.00126053 0.0236688 -4.50824e-21)
(-0.00117614 -0.0080085 -2.99654e-21)
(0.0459205 0.00148149 1.09309e-20)
(0.00396627 0.0409467 0)
(0.00436973 0.00326211 1.10067e-21)
(4.27322e-05 -0.000232618 -2.31426e-21)
(4.80132e-05 0.000288125 -3.27783e-21)
(-0.00336686 -0.00230705 -1.5808e-20)
(0.0323497 0.16955 0)
(0.000110098 -0.000644907 8.96563e-22)
(0.0365109 0.000654526 1.37552e-21)
(0.003731 -0.00130281 1.12152e-20)
(-0.00292117 -0.00922662 1.32384e-21)
(-7.70402e-05 -1.50988e-05 -5.39466e-23)
(-0.00350223 -0.0178681 1.22788e-20)
(-0.0129581 0.0085621 -3.66087e-21)
(0.00061651 0.000424849 -2.71228e-21)
(-0.000157474 -0.00011211 -5.10894e-23)
(0.0202634 -0.00725028 0)
(-6.26671e-05 -3.85066e-05 0)
(0.000241174 -0.000148353 0)
(-0.0146871 0.083666 -2.71856e-23)
(-0.00487994 -0.0006124 -5.3819e-21)
(0.000400587 0.00253347 1.81651e-21)
(0.00024764 0.000163095 0)
(0.0413003 0.000871651 1.14925e-20)
(0.00466633 -0.014929 0)
(-0.000289802 -0.00395987 -1.77442e-22)
(-0.0137378 0.060808 1.43993e-20)
(0.000330139 0.00187592 0)
(-0.0561216 0.0162599 -5.12475e-23)
(0.00322418 0.00579757 1.46793e-20)
(0.000530205 0.0021477 -2.9366e-22)
(-0.0127316 0.101991 -8.54813e-22)
(0.0539313 -0.000466733 5.23588e-21)
(0.000229876 -4.64439e-05 0)
(-0.00365349 0.0245593 -4.80412e-21)
(0.000112345 -0.000229853 1.66284e-21)
(0.000270132 8.80941e-05 3.97334e-21)
(0.000935909 -0.000259931 -9.52996e-23)
(0.000888486 0.0336291 0)
(-0.00770169 0.00852979 -1.686e-20)
(-0.000196192 -0.000545736 0)
(-0.0214926 0.0067072 0)
(-0.00559437 -0.0161492 0)
(-0.081448 0.0417286 -8.19478e-21)
(0.0243743 -0.0361662 4.0465e-21)
(0.000229051 -0.00346271 -8.41997e-22)
(-0.00695699 -0.00838315 -1.6554e-22)
(0.000360391 -0.000793928 4.42595e-21)
(0.0299943 0.00626126 -1.97061e-20)
(-0.000281872 -0.00105023 0)
(-0.116581 0.0404852 0)
(-0.0357061 0.0107142 7.70841e-22)
(0.000612194 0.000281955 -3.42981e-21)
(0.45374 0.18408 -1.26192e-19)
(-0.00311493 -0.00990408 2.24074e-21)
(-0.00729201 0.00482465 3.36424e-19)
(0.0361697 0.00630208 6.88078e-21)
(-0.0292951 0.0635124 -8.90668e-21)
(-0.0162712 -0.00912989 0)
(0.000238296 6.27325e-05 0)
(-0.0194024 0.0303451 0)
(4.06268e-05 -0.000721986 1.79941e-25)
(-0.121177 0.0786898 -4.16586e-21)
(-0.000244574 -0.00153924 8.76894e-22)
(0.00214269 0.0112932 0)
(0.00189735 -0.00597799 -5.387e-22)
(0.000327402 0.000131179 9.96167e-22)
(-2.91821e-06 -5.73236e-05 0)
(0.0114817 0.00316016 -4.7832e-20)
(-0.0112623 0.0535009 1.85157e-22)
(0.0390805 -0.00148343 5.29159e-21)
(0.000177189 -0.000113762 9.84251e-22)
(0.00231202 0.0194875 -2.28994e-20)
(0.00320387 -0.00215407 -6.36952e-22)
(0.000325317 0.000129797 3.44056e-23)
(3.16453e-05 0.000799314 3.87593e-21)
(0.00568056 0.00772289 -1.85443e-20)
(-0.00394158 0.0295913 3.23228e-21)
(0.0348334 0.00924731 -3.3863e-21)
(0.00145095 -0.00142421 0)
(0.000123919 -3.73336e-06 -7.81726e-22)
(-0.00513538 -0.00732005 -1.61647e-20)
(-0.0375798 0.0239571 9.61535e-22)
(0.00447271 -0.00332737 1.50206e-20)
(0.000481015 0.000684996 5.55676e-21)
(0.00031979 5.70248e-05 1.27118e-21)
(-0.00109105 -0.0276621 1.45791e-20)
(0.00320502 0.00307613 7.76676e-21)
(0.027112 0.0025625 1.02869e-20)
(0.000736394 -0.000312074 -4.31832e-22)
(-0.00381232 -0.0332963 -2.14578e-19)
(-0.0164152 0.0716613 -1.25084e-20)
(0.0193405 0.00506022 -1.16467e-20)
(-0.00705661 9.03269e-06 -1.10985e-20)
(-0.00300962 0.00917239 -1.18755e-20)
(-5.72189e-06 -0.000178202 -6.71981e-22)
(0.0119408 -0.0131906 -5.59266e-21)
(0.000497676 0.00118283 0)
(0.00154552 0.00036105 0)
(0.00159881 -0.00288881 6.75589e-22)
(0.00818512 0.0188495 -7.41353e-21)
(0.000171076 8.81158e-05 4.08766e-22)
(0.000572506 -0.000247513 -4.61419e-22)
(5.93154e-05 -3.09136e-05 -5.56131e-22)
(0.0331087 0.00368974 1.53458e-20)
(0.00081141 0.00193061 -9.80612e-23)
(-0.000421756 -0.000891575 0)
(0.0115372 -0.00928383 3.67913e-21)
(0.006915 0.008454 0)
(0.021642 0.0214903 6.46336e-21)
(-0.0132157 -0.00418597 1.13936e-21)
(0.000331466 -3.48691e-05 -1.55359e-21)
(0.000145736 0.000440099 0)
(0.0275425 0.0194797 0)
(0.000413115 0.000678883 0)
(0.00244031 -0.0166633 -5.06846e-22)
(-0.0311238 0.0136758 0)
(-0.0164147 0.00646347 1.00985e-20)
(0.0173163 -0.0407154 2.5574e-21)
(-0.103425 0.164994 0)
(-0.0287297 0.0491779 1.15598e-18)
(0.00241709 -0.0059501 1.43978e-21)
(2.96016e-05 0.000521572 1.72346e-21)
(0.000309189 2.92839e-05 -9.16549e-22)
(0.000691075 0.000345279 0)
(0.000448471 0.00161557 -1.63672e-21)
(9.13698e-05 0.000707364 -7.08305e-21)
(-1.63476e-05 0.00068019 -1.8331e-21)
(0.0722857 -0.028773 3.70329e-21)
(0.00506119 0.0612663 -5.02181e-21)
(0.0010774 -0.00112932 1.23834e-21)
(-0.00435058 0.010798 0)
(0.000154181 1.74883e-05 -2.16364e-21)
(0.00365177 0.00109378 -1.14131e-21)
(0.000240232 0.0101613 0)
(0.00012947 0.00050369 0)
(0.000823589 0.00330567 1.01904e-21)
(0.00110874 0.00041562 0)
(-0.00176098 0.0289099 0)
(0.00175756 0.00974969 8.91337e-21)
(0.00386623 0.0181698 6.22933e-21)
(-0.0153361 -0.0107606 0)
(-0.0287693 0.0233402 9.73505e-24)
(-0.00261212 0.0146228 1.8623e-20)
(0.0482954 0.199451 -7.18563e-20)
(-0.0558339 0.0680537 2.71205e-21)
(0.015068 -0.01525 9.51053e-22)
(0.00125649 0.000677122 -6.11075e-21)
(-0.1367 0.113926 0)
(0.0310377 -0.0410487 -1.87274e-19)
(-0.0160757 0.000965563 -1.0412e-19)
(-5.60452e-05 -0.000531818 -4.47142e-22)
(0.000189953 0.00015113 -1.31662e-21)
(0.000197097 -1.98069e-05 0)
(0.00142377 -0.0021823 9.38979e-22)
(-0.00606145 0.0436517 -6.52795e-23)
(0.000301681 -2.55947e-06 0)
(-3.11196e-06 -4.00143e-05 -1.20039e-21)
(-0.00109959 0.00482526 0)
(0.000113659 2.86421e-05 -9.12276e-22)
(0.00239302 0.0697417 1.6178e-20)
(0.00937637 -0.00699526 0)
(5.48743e-07 3.03231e-05 1.83617e-21)
(-0.0231491 0.0428125 6.45225e-22)
(-0.000176166 -0.000492965 8.91933e-23)
(0.000109843 5.11299e-05 0)
(0.038471 0.0122014 -4.37825e-21)
(0.000200515 -0.000277491 -1.69052e-21)
(0.00367295 0.0270519 3.74833e-19)
(0.0306592 0.284302 -8.50757e-20)
(0.000169834 -0.000926336 -4.31438e-23)
(-0.000174261 -0.00119907 -9.29905e-22)
(0.000332543 0.000166886 0)
(0.00116595 0.0640329 0)
(0.000165214 7.8706e-05 0)
(0.00411289 -0.00097212 1.08904e-21)
(0.0130814 -0.0364912 -3.13178e-21)
(1.91481e-05 0.000214916 1.28832e-23)
(0.0413989 -0.0104001 4.95718e-21)
(0.00041708 -0.00171669 0)
(0.0419239 -0.00818211 5.19898e-21)
(0.000511282 -0.00371536 -6.18669e-22)
(0.01929 -0.0246899 2.18605e-21)
(0.000291004 0.000118959 0)
(0.0178879 -0.0148682 0)
(0.00797767 0.0084948 0)
(1.62254e-05 0.000529102 -2.89803e-21)
(0.000242815 0.00183002 -8.65154e-22)