/*--------------------------------*- C++ -*----------------------------------*\
| =========                 |                                                 |
| \\      /  F ield         | OpenFOAM: The Open Source CFD Toolbox           |
|  \\    /   O peration     | Version:  v2012                                 |
|   \\  /    A nd           | Website:  www.openfoam.com                      |
|    \\/     M anipulation  |                                                 |
\*---------------------------------------------------------------------------*/
FoamFile
{
    version     2.0;
    format      ascii;
    class       surfaceScalarField;
    location    "400";
    object      phi;
}
// * * * * * * * * * * * * * * * * * * * * * * * * * * * * * * * * * * * * * //

dimensions      [0 3 -1 0 0 0 0];
oriented        oriented;


internalField   nonuniform List<scalar> 
27274
(
0.131667
0.031483
-0.16315
0.00718251
-0.0047878
-0.0023947
0.228698
-0.309979
0.0812812
-0.319857
0.517216
-0.197359
0.289431
-0.243511
-0.0459191
0.135425
-0.126194
-0.0092312
0.360683
-0.417537
0.056854
-0.166411
0.0803073
0.0861034
-0.143457
0.153545
-0.00149998
0.000820988
0.000678991
0.433787
-0.212377
-0.22141
-0.00840113
0.00943652
-0.00103539
-0.0367193
0.0941664
-0.0574471
0.217432
0.0939384
-0.31137
-0.0581502
0.283682
-0.225531
0.0347745
0.147654
-0.182429
-0.00818664
-0.00270282
0.0108895
0.041017
0.247729
-0.288746
-0.295984
0.249321
0.0466623
0.0590961
-0.0428103
-0.0162859
-0.118616
0.165058
-0.0464424
-0.0373125
-0.144254
0.181567
-0.00177864
-0.0043391
0.00611774
0.256397
0.0330339
-0.22364
-0.0255206
0.372668
0.0387961
-0.411464
-0.422295
0.171469
-0.156603
0.165324
-0.00872131
-0.00818907
0.000561096
0.00762798
-0.214908
-0.0587819
0.27369
0.139961
-0.268772
0.128811
-0.272546
0.110278
0.162268
-0.291857
0.332874
0.209167
-0.529378
0.32021
-0.0514191
-0.0797358
0.131155
0.166323
-0.034656
-0.215769
0.0826476
0.0659637
-0.110234
0.0442705
-0.199847
0.0432442
0.420056
-0.309866
-0.11019
-0.0243394
0.241771
-0.0981965
0.0717972
0.0263993
0.308888
-0.0801899
0.00284601
-0.00114804
-0.00169797
-0.524896
0.363152
0.161745
0.0823033
-0.0163396
-0.127074
0.151753
-0.0246785
0.0627727
0.106471
-0.169244
0.129045
-0.153999
0.0249543
-0.479143
0.210662
0.268481
-0.416444
0.0847407
0.331704
0.18865
0.128538
-0.317188
0.286859
0.170888
-0.457747
0.00829261
-0.0169684
0.00867579
-0.0806436
0.384386
-0.303743
-0.461194
0.486992
-0.0257988
0.073905
-0.124522
0.0506171
-0.197027
0.138877
-0.0238868
0.014655
0.00923181
-0.0470249
0.118267
-0.0712423
-0.240967
-0.238176
0.146023
-0.155731
0.00970817
0.062045
-0.354998
0.292953
-0.00519129
-0.11831
0.123501
-0.000392844
-0.00800829
-0.141864
0.173347
-0.00782722
0.00663425
0.00119297
-0.119029
0.12364
-0.00461108
-0.237589
0.162063
-0.199375
-0.137436
0.104694
0.0327415
0.560135
-0.320371
-0.239763
-0.105206
0.0581814
0.40041
-0.283548
-0.116862
-0.0863809
-0.0800297
0.0626029
0.298081
0.0425639
-0.0233097
-0.0192542
0.285006
-0.24558
-0.0394262
0.0266647
0.158313
-0.184978
0.182692
0.156677
-0.339369
-0.338736
-0.0788017
0.0706257
0.0154956
-0.0861213
-0.171617
0.0530017
-0.126686
0.0114954
0.115191
0.0553993
0.317268
-0.0920026
0.0552833
-0.00150552
0.0157455
-0.01424
0.0338811
0.025215
-0.00952376
0.00133469
0.00885179
0.00533096
-0.0141827
-0.0609956
0.113212
-0.0522167
-0.441055
-0.0838413
0.480442
-0.165644
-0.314799
-0.297888
-0.119656
0.417544
-0.0103373
0.0103373
-0.00406564
0.002287
-0.360503
0.245439
0.115064
0.213562
-0.216468
0.00290677
0.0142419
-0.00594928
-0.0074818
0.00869863
-0.00121683
-0.00930937
0.0107307
-0.00142133
0.0107527
-0.00824727
-0.0025054
-0.175324
0.121523
0.0538009
-0.0896223
0.0520704
0.0375519
0.303401
-0.22277
-0.0806303
-0.0655626
0.116435
-0.050872
-0.0108347
0.0110479
-0.000213244
-0.0269724
-0.0630914
0.0900638
-0.00387971
-0.117706
0.121585
-0.0368224
0.0171084
-0.31742
0.113134
0.204285
0.159569
-0.207594
0.0480251
-0.435795
0.0652477
0.370547
-0.0141208
0.17369
0.00981258
0.00675425
-0.0165668
-0.411465
0.549428
-0.137963
-0.0108105
0.0118348
-0.00102432
0.0209382
0.0216257
-0.0156421
0.0144121
0.00122999
-0.146496
-0.028828
-0.000968337
-0.000531642
0.0408301
0.0461392
-0.0869693
0.210496
0.0745094
-0.102519
-0.0349166
-0.141979
-0.218524
-0.0898769
0.0629045
-0.153793
0.342443
0.280832
0.19456
-0.475393
0.0391913
-0.0807933
0.041602
-0.413887
0.116
-0.307003
-0.109441
0.0797624
-0.0687185
-0.0110439
-0.0228899
0.130276
-0.107386
0.192189
0.0213728
0.0795173
-0.109947
0.0304294
-0.171418
0.45225
-0.193524
0.00880947
0.184714
0.274837
0.15895
-0.216999
-0.0495093
0.266509
0.0599584
-0.122775
0.0628164
-0.000783687
-0.00852568
0.0059792
0.00252958
-0.00850878
-0.215746
-0.0396857
0.255431
-0.26708
-0.0503399
-0.0258173
0.0210343
0.00478292
0.258407
-0.108284
-0.150123
-0.157471
0.0428508
0.11462
0.0132896
0.00184678
-0.0151364
-0.130293
0.209248
-0.0789548
0.0161558
-0.00286623
-0.141344
-0.12103
0.262374
0.114153
0.0413584
-0.0927775
-0.0156321
-0.00825473
0.107354
-0.13243
0.0250756
0.0352176
0.42486
-0.460078
0.0649149
0.0148475
-0.00504454
-0.0105976
0.350262
-0.315044
-0.148726
0.0399138
0.108812
0.00575692
-0.122907
0.11715
-0.0305376
0.191129
-0.160591
-0.138813
0.0182381
0.120575
0.220067
-0.0278779
-0.047212
0.0996789
-0.0524669
0.0304613
0.0101556
-0.0406169
-0.00632013
0.0133054
-0.00698531
-0.175651
0.145409
0.030242
0.113868
-0.0516509
-0.0622169
-0.345146
0.320932
0.0242141
-0.00338565
-0.000265845
0.00365149
0.000334694
-0.00184752
0.00151283
8.31439e-05
-0.380884
0.380801
-0.369104
-0.0192662
0.38837
-0.158277
0.193051
-0.00131615
0.00691393
-0.00559778
0.139067
-0.147861
0.00879397
-0.36196
0.0235326
0.338427
0.0909893
-0.051798
-0.0114556
-0.0145231
0.0259787
0.0433753
0.0123172
-0.0556925
0.061567
0.0523008
0.199425
-0.200795
0.00137058
-0.442785
0.369916
0.0728698
0.101083
-0.0483819
-0.0527008
-0.00464864
0.00977843
-0.00512979
-0.00301929
0.0124526
-0.00943332
-0.0364308
0.10578
-0.0693496
-0.0313604
-0.135226
0.166587
-0.0111306
0.00294398
-0.0334646
-0.184838
-0.14043
0.325268
0.189979
0.0300881
-0.0364743
-0.0330817
0.069556
0.110368
-0.0742934
-0.0360747
-0.284116
0.128062
0.156054
-0.100244
0.0357283
0.0645158
0.17763
0.0217941
0.170169
-0.153831
-0.016338
-0.369021
-0.273542
0.108142
0.165399
-0.181658
0.0334255
0.148232
-0.0035445
0.0076105
-0.004066
-0.00782909
0.0048098
-0.0110163
0.0020709
0.00894536
0.170287
-0.200001
0.0297141
-0.000353499
-0.010457
-0.00181855
0.0032163
-0.00139775
-0.00139133
-0.000245559
0.00163689
0.150193
0.0199756
-0.385479
0.191956
0.0824864
-0.22383
-0.0538599
0.0331318
0.0207282
-0.243894
0.0281485
0.0853055
-0.430452
0.0960985
-0.0254729
0.025775
-0.0782672
0.0524922
-0.0199788
-0.365874
-0.0699208
0.0848288
-0.215122
-0.0413925
-0.0501459
0.0915384
-0.0285059
-0.273921
0.302427
0.0111106
-0.137797
0.234198
-0.225389
0.000233096
-0.00655323
0.121125
-0.260244
0.139118
0.0018705
-0.00439566
0.00252516
-0.00585212
-0.0062283
0.0120804
-0.0435015
0.036018
0.00748353
-0.160972
-0.224508
-0.18921
0.47607
-0.168117
0.194781
-0.152188
-0.013934
0.166122
0.00336763
-0.00149713
-0.144663
-0.0639367
0.2086
0.339591
0.073638
-0.413229
0.0282777
-0.390238
-0.0520028
-0.0333979
0.0854006
-0.114549
0.0663219
0.0482274
-0.0110163
0.154637
-0.158517
0.0709652
-0.117201
0.0462356
-0.0353883
-0.240734
-0.416126
0.156389
0.259737
0.117714
-0.240378
0.122664
-0.00893568
0.00308356
-0.0448398
0.0816941
-0.0368543
-0.00280884
-0.0032971
0.00610594
0.130862
-0.0235077
-0.140335
0.146092
-0.149205
-0.124337
-0.0251738
-0.00588249
0.0310562
0.204584
-0.0269533
-0.00118823
-0.000203101
-0.285638
0.0619222
0.223716
-0.0109551
0.00493431
0.00602078
-0.0811489
0.0509308
0.0302181
-0.0798846
-0.0688413
0.129222
0.124345
-0.253567
-0.488878
0.443967
0.0449113
-0.162492
0.020628
-0.0255881
0.106604
-0.0810156
-0.0174949
0.0139504
0.102934
-0.125824
0.129653
-0.416153
0.2865
0.280232
-0.381564
0.101332
0.0773066
-0.352758
0.275451
-0.113506
0.0618549
0.0662991
0.0189072
-0.0852063
-0.0470536
0.0443018
0.00275171
-0.235088
0.213115
0.0219728
0.0128161
-0.00681799
-0.00599809
-0.094888
0.0584572
-0.104224
0.0386615
-0.241676
0.0140866
0.227589
-0.0573524
-0.0428917
-0.160374
0.343065
-0.43648
0.157185
0.279295
-0.0569654
-0.0131365
0.0701018
-0.57501
0.313301
0.261709
0.30785
-0.245247
-0.134919
0.0776767
0.0572422
-0.264579
-0.0484634
0.313042
-0.00330239
0.00866849
-0.00536609
0.172969
0.031615
-0.177228
0.130722
0.0465065
-0.296258
-0.278753
-0.136288
-0.0393631
-0.00409188
-0.00634277
0.0104347
-0.0620495
0.0935428
-0.4134
-0.128078
0.283476
-0.155398
0.0608818
-0.110166
0.0492842
0.00638256
-0.00796409
0.00158153
-0.345456
0.422762
0.400849
-0.462231
0.0613815
0.0637072
-0.0379322
-0.159213
0.0882698
0.0709434
-0.099592
0.129221
-0.029629
-0.0604787
0.0388656
0.0216131
-0.253383
-0.183097
0.0791062
-0.0413303
-0.16144
0.20277
-0.00090637
0.401756
-0.02215
-0.0383287
-0.0970593
0.0498473
0.0438166
-0.092116
0.0482993
0.112471
-0.0515888
-0.299284
-0.114603
-0.0145724
0.0579477
-0.126681
-0.179402
-0.0893206
-0.206663
-0.0865676
0.0417278
0.339342
-0.113075
-0.226267
-0.0425406
-0.0672404
-0.0309561
0.241514
0.238928
-0.398727
0.122901
0.275826
-0.0808908
-0.03631
0.0106374
-0.00295839
-0.007679
-0.00060484
-0.00121371
0.255575
-0.0136636
-0.241912
-0.000622099
-0.138191
0.00261637
0.000229641
0.347296
-0.139643
-0.207653
-0.0630007
-0.0515486
0.173069
-0.18957
0.016501
0.135231
-0.0413214
-0.0939092
-0.101611
0.0386103
-0.419055
0.119771
0.0433285
-0.0128672
0.17999
0.0994699
-0.27946
-0.0368541
0.116371
0.533344
-0.357593
-0.17575
0.0312699
0.00759854
0.000859362
-0.0084579
-0.390393
-0.0140805
0.404473
0.00113206
-0.0125876
-0.158229
0.181747
-0.023518
-0.388579
0.236149
0.15243
0.0138342
-0.140908
0.0242691
0.121754
0.085873
-0.0496879
-0.0361851
-0.0045589
0.0196744
-0.0151155
-0.0782118
0.0417375
-0.0583731
-0.227265
0.257761
-0.195716
0.00163162
0.00201104
-0.00364266
-0.0783025
0.0478249
0.0304776
0.404771
-0.251695
-0.153076
0.170495
0.0300291
-0.200524
-0.0414017
0.0852183
0.0673524
0.0337304
-0.0338568
0.00868305
0.00579819
-0.00416656
-0.253558
-0.036044
0.289602
0.238657
-0.207919
-0.0307386
0.00326093
-0.00544634
0.00218541
0.304157
-0.191023
-0.2052
0.0605371
0.094265
-0.027556
-0.066709
-0.154807
0.138023
0.0167843
0.254281
-0.0331094
-0.221172
0.00544982
0.00518757
0.267084
0.210888
-0.477972
0.0834518
-0.09459
0.0111383
0.0452772
-0.0866697
-0.0100894
0.0100894
-0.305224
0.398767
0.270489
-0.163587
-0.106903
-0.350867
0.290642
0.0602249
0.370816
-0.199043
-0.171774
-0.0902624
0.0678368
0.0224256
0.220195
0.150622
-0.0993926
0.149326
-0.0499332
-0.233688
-0.117178
0.0519331
0.135469
-0.187402
0.136295
-0.389853
0.0366298
-0.180087
-0.120552
0.267512
-0.14696
0.0172847
-0.218093
0.200808
0.308531
-0.265823
-0.0427082
0.28454
0.0239916
-0.0241549
-0.165162
0.189317
-0.0480698
0.0112737
0.0367962
0.000561016
-0.00547903
0.00491801
0.080979
0.153219
-0.0499216
0.0593597
-0.00943807
-0.134632
0.0463407
0.0882912
0.00661564
-0.00605462
-0.148132
-0.0282909
0.176423
0.134642
-0.0787522
-0.0558903
-0.0977798
0.215494
-0.0454285
0.0780759
-0.0326475
-0.123495
-0.437297
0.0258323
-0.0171253
0.356716
0.382786
-0.155261
-0.227525
-0.013001
0.00844211
0.000822631
-0.183889
0.183066
0.458428
-0.0952761
-0.0163116
-0.115884
0.132196
-0.14764
0.0482475
0.130528
0.173629
0.180489
0.166807
-0.00150311
-0.000317576
0.00182069
-0.122053
-0.314167
-0.0261705
0.281782
-0.383593
0.101811
-0.00430732
0.00149848
0.006628
-0.00955246
0.00292446
0.0535599
0.0407051
-0.0211715
-0.1363
0.17672
0.00370846
-0.00780035
0.27115
0.288985
-0.235175
-0.107081
0.342255
-0.0142903
-0.0195665
-0.366609
-0.0870879
0.453697
-0.329567
-0.0513172
-0.00377134
-0.00735928
0.298517
0.101893
-0.00127238
0.00887092
0.139311
-0.128496
-0.0108152
-0.140161
0.143089
-0.00292741
-0.00327315
0.00990114
0.0154548
0.179902
-0.195357
-0.335719
0.100545
0.0131891
-0.0374423
0.0242532
0.122836
0.0125888
0.00162998
-0.0469143
-0.042708
0.346966
-0.209532
-0.137434
-0.343773
-0.0990125
-0.265738
0.157454
-0.0310549
-0.0352619
0.0663168
0.0518396
0.0622304
-0.11407
0.0123224
0.236999
-0.443867
0.388587
0.0552796
-0.223163
-0.0207308
0.0177108
0.0657409
-0.00362176
0.00688269
0.204905
-0.149137
-0.0557683
-0.141667
-0.124071
-0.285975
0.398213
-0.112238
-0.176028
0.0278959
0.107866
-0.0725293
-0.0353372
-0.00202008
0.00840265
-0.00819704
-0.00275805
-0.0575978
0.059741
-0.00214322
0.059276
-0.0767714
0.0174954
0.066376
0.0187263
-0.0851023
9.47911e-05
-0.00124283
-0.192609
-0.0660785
0.258687
-0.405331
0.275719
0.129612
-0.270834
-0.192731
0.27371
-0.0853461
0.05722
0.0281261
0.369276
-0.219886
-0.14939
0.181256
-0.00944306
0.00196126
-0.0361036
0.0538144
0.142879
0.019179
-0.0103272
0.0707581
-0.011482
-0.00733805
0.00268941
-0.210519
-0.0737477
0.284267
0.163988
0.128043
0.18294
-0.310982
0.110008
-0.448744
0.0117599
-0.455627
-0.475185
-0.406563
0.153181
0.00164869
0.00752044
-0.00916913
0.0561248
0.19945
0.396366
-0.281451
-0.114916
-0.0486651
0.0894952
0.123014
-0.0846411
-0.038373
-0.319048
-0.0862825
0.154336
-0.236308
0.0819716
-0.0990681
0.0230194
0.0760488
0.00867141
-0.0656368
0.023469
-0.181746
0.0572516
0.214503
-0.271754
0.0389587
-0.196998
0.0153404
-0.0113977
0.0129387
-0.00154106
-0.0358871
-0.400847
0.201804
0.000104864
0.00654872
-0.00665358
0.068627
0.0543871
0.106701
0.266375
-0.373076
0.00241428
-0.00282086
0.000406581
-0.00697819
-0.00152013
0.00849832
-0.000543738
0.00200976
-0.00146602
-0.195477
-0.20537
0.267224
-0.209972
0.00428242
-0.15647
-0.101893
0.111066
-0.00917326
-0.136453
-0.0807388
0.217192
0.00201309
0.010803
-0.0714353
0.0403805
0.0198894
-0.069811
-0.0278216
0.0874612
-0.0596396
0.137262
0.245524
0.0155131
0.123798
-0.00892356
-0.000893949
0.00981751
-0.00373095
0.0126595
-0.0296182
0.0169587
0.212013
-0.277645
0.065632
0.125887
0.0371031
-0.16299
0.0333488
-0.156256
-0.000478196
-1.09232e-05
0.00048912
0.00599917
0.00475351
-0.089187
0.0281914
-0.124735
0.24586
0.0246494
-0.241649
0.377046
-0.0870159
-0.29003
-0.0493269
0.101167
-0.228413
-0.17815
-0.037242
0.0504312
-0.106571
0.13992
-0.0110808
0.0208933
-0.295238
0.227891
0.0673464
-0.275158
0.0519943
-0.425946
-0.0629326
-0.119073
4.43803e-05
-0.023526
-0.119241
0.142767
0.0666841
0.0411823
-0.268904
0.381525
-0.11262
0.123619
-0.0678366
-0.0557823
0.0131698
0.0359348
-0.0491046
-0.156543
0.176234
-0.0196915
0.303376
-0.174155
0.211554
-0.126484
-0.08507
0.183649
-0.167222
-0.0164267
0.487319
-0.250036
-0.237283
0.13097
-0.164423
0.0334527
-0.00461388
-0.173019
0.0164768
-0.0435803
-0.046762
0.0903423
-0.0347051
-0.294032
0.400733
-0.197017
-0.500434
0.110041
-0.147768
0.0114798
0.187506
0.0667757
-0.115818
0.0894354
-0.299954
0.134472
0.121925
0.00200774
0.266553
0.142561
-0.409113
0.0198681
0.0789909
-0.0988591
0.186497
-0.196759
0.0102623
-0.0567292
-0.0430743
0.0998035
-0.17185
-0.00537837
-0.0167607
0.00375972
-0.262877
0.0880635
0.174813
0.0052973
-0.0052973
0.13218
0.0287341
-0.160915
-0.0906373
0.15341
-0.0636157
-0.0175332
0.00300106
-0.0392733
-0.0267693
0.0660426
0.138694
0.0375402
0.193509
-0.192687
-0.395052
0.199575
0.210578
0.112152
-0.32273
-0.13379
0.0766126
0.0571776
0.152275
-0.127829
-0.0244457
-0.0446098
0.133137
-0.0885268
-0.10786
0.0718842
0.0359762
0.00762789
-0.0467576
0.102078
-0.0553208
-0.355995
0.505916
-0.149922
0.000706287
-0.00301389
0.0023076
-0.00695165
0.0494339
-0.0424822
0.14241
-0.228398
0.0859874
0.238387
-0.027809
-0.0583421
0.0782102
0.0103775
-0.0050465
-0.134665
-0.0278274
-0.276229
-0.137879
0.414108
-0.0825846
0.0261164
0.0564682
-0.0967683
0.053188
-0.143853
0.0641171
0.10217
0.0122067
-0.114376
-0.0382977
-0.0106034
0.0489011
-0.163386
-0.0530829
0.0632642
0.0349718
-0.098236
0.00205254
-0.00237268
0.000320144
-0.0626871
-0.0389239
-0.0404284
0.0995653
-0.0573056
-0.0422597
0.032119
-0.0841218
0.146704
-0.185131
0.038427
-0.402089
-0.0591047
-0.103169
-0.319166
0.104258
-0.00376079
-0.0220565
0.02109
0.0133957
-0.0344857
0.00574062
-0.00705677
-0.00974971
-0.0383201
-0.00541466
0.00747789
-0.00206323
0.00439725
-0.00489986
0.000502615
-0.0700296
-0.012555
-0.035199
0.182853
-0.00248202
-0.00348832
0.00597033
0.00893977
0.03071
-0.0396497
0.20768
0.0257773
-0.0491119
0.0233346
9.53164e-05
0.00756629
-0.00766161
0.0555779
0.0145767
-0.0701546
0.0827546
0.12215
-0.10882
0.402609
-0.293789
-0.193958
0.0305722
-0.213369
0.18392
0.0294484
0.155666
0.0279822
-0.0631381
-0.0597722
0.12291
0.078599
0.260743
0.00373946
-0.00373946
-0.190494
0.16634
0.143109
0.017537
-0.160646
-0.000636869
0.000158672
-0.217815
-0.0974924
0.315307
-0.148467
0.124941
0.034467
-0.0218075
-0.238254
-0.0974651
0.0264185
0.183329
-0.209748
0.000238773
0.00116345
-0.00140223
-0.114745
0.416715
-0.301971
0.0435691
0.0800498
-0.152502
-0.00758483
0.00338679
0.00419804
0.18616
-0.0474661
0.129278
-0.142011
0.0127335
0.0906208
-0.194423
0.0481133
0.146309
0.0117301
-0.113623
-0.111229
0.00666402
0.104565
0.0165192
-0.000363372
0.112336
-0.122608
0.0102728
0.148093
-0.271986
0.123893
0.00546941
-0.00559853
0.000129114
0.14743
-0.0181524
0.00503088
0.0134055
-0.00520427
-0.00820122
0.0406852
-0.0893503
0.040683
-0.08044
-0.18664
0.138803
0.230376
-0.369179
-0.0081607
0.00118251
0.104823
0.106732
-0.0276042
0.158574
0.442786
-0.305187
-0.137599
-0.0540907
-0.00115128
-0.0564465
-0.0168939
-0.0140863
0.0309801
0.00155815
0.000442483
0.00485482
-0.0329153
-0.0524307
0.135548
-0.186237
0.0506887
-0.382231
0.273411
0.166557
-0.128533
0.112221
0.110162
-0.0438628
0.328868
-0.200825
-0.128043
0.0346293
-0.0739026
0.136541
0.0337462
-0.03769
-0.454541
0.442263
0.0122781
0.00122606
0.00186451
0.180747
-0.239529
-0.329133
-0.124453
0.0133112
0.111142
0.169522
-0.474709
-0.106351
0.372726
-0.00458561
0.00010882
0.00447679
0.037051
-0.226451
0.176877
0.0495744
-0.252199
0.364351
-0.0502055
0.11118
-0.0609745
-0.0341523
-0.119847
-0.0240561
0.182369
-0.0199178
-0.0583847
-0.213769
0.231054
0.00438842
-0.013312
-0.127663
0.0188432
0.108819
0.103396
0.153824
-0.257221
0.0308519
-0.0158642
-0.0149877
-0.00224382
0.000396299
0.255407
-0.402482
0.147075
-0.0354473
0.0185535
0.236319
0.280897
-0.331638
0.0933836
-0.244488
0.108034
-0.083872
-0.0174662
0.101338
-0.000423442
-0.00231115
0.00273459
-0.0344139
-0.123815
0.000165666
0.00188687
0.0327895
0.108658
-0.141448
0.00706287
-0.0241952
0.0171323
-0.0734194
0.0455979
-0.161515
-0.0236166
-0.0058075
0.11048
0.16001
0.0150312
-0.0318416
0.0168104
-0.0740613
0.00994881
-0.0114543
0.00464298
0.00253953
0.0761495
0.170889
-0.247038
-0.0149306
0.0264406
-0.01151
0.166321
-0.1938
0.0274782
0.00179188
0.130388
-0.0248157
0.0585719
-0.0337561
0.0212318
-0.0621855
0.0409537
-0.00343401
0.00714247
-0.392761
0.287315
0.105445
-0.0087131
-0.00804763
-0.143726
0.319743
-0.176018
-0.00763114
0.0241503
0.041726
0.165406
-0.207132
-0.212372
0.105801
-0.172989
0.00576661
-0.344486
0.188905
0.155581
0.198457
-0.49896
0.300502
-0.0256064
-0.108715
0.134322
0.0719598
-0.022735
0.0783129
-0.442623
0.0988497
0.00854843
-0.00898888
0.00044045
-0.184784
0.0232696
-0.239821
-0.104664
0.110343
0.266703
0.0644079
0.0741544
-0.138562
0.0569667
0.0522928
-0.10926
0.0246458
-0.0494615
0.111894
-0.146307
-0.157677
0.366845
0.13644
-0.171181
0.0347403
-0.00618062
0.0129349
-0.129618
-0.329272
0.216197
0.3374
-0.148495
-0.0365893
0.17303
-0.017352
-0.14669
0.164042
0.0001005
0.00363896
-0.317809
0.0999936
-0.0507256
0.07351
-0.0227844
0.0491056
0.0612624
0.0494035
-0.0563552
-0.000204031
-0.000339707
-0.00316552
-0.0046617
-0.113181
-0.284247
0.397428
0.0266961
-0.151898
0.125202
0.12405
0.236087
-0.198363
-0.0377233
-0.195191
0.17093
0.0242606
0.00825288
-0.00815756
-0.315235
-0.0672862
0.382521
-0.164974
-0.230078
-0.498623
0.214829
0.283793
0.039677
0.11185
0.0524644
-0.164315
0.249823
-0.10173
0.102553
0.0402607
-0.142814
0.0280819
-0.162747
-0.00636163
0.0151443
-0.00878264
-0.00254981
-0.00828485
0.366164
-0.227596
-0.138569
0.169812
0.13125
-0.301062
0.00609098
-0.156848
0.00159281
-0.00189148
0.000298669
0.00185755
-0.00664536
0.00144152
0.00096403
-0.00240555
-0.0617419
0.0395919
-0.0433504
-0.0175351
0.0608854
0.0847047
-0.0454877
-0.039217
0.0131714
-0.419389
0.0535155
-0.117609
0.275817
-0.0958268
0.167073
0.0515974
-0.21867
0.14589
0.258881
-0.0593786
0.0256317
0.0315243
-0.057156
-0.00267698
-0.00766033
-0.242288
0.000612495
-0.0194701
-0.0348582
0.0543284
0.100291
0.317285
-0.417575
-0.0685613
0.204109
-0.121173
-0.0264668
0.298535
-0.379178
-0.0285085
-0.141138
0.167556
0.00586576
0.0151686
-0.00772482
0.00442772
0.0924636
-0.14284
0.0503765
0.00228219
-0.0057162
0.0856563
-0.0192804
0.00197039
0.00466386
-0.0612909
0.0801981
0.0508609
-0.0177291
0.000634796
-0.00305943
0.00242463
-0.120975
-0.00668718
0.0565762
-0.0434064
-0.0984959
0.0517383
0.00666573
0.00673976
0.219696
-0.301643
0.081947
0.113277
0.332566
-0.449199
0.116633
-0.0233903
0.0608568
-0.0331607
-0.0276961
0.365537
-0.476449
0.0925749
0.383874
0.0975626
-0.0045941
-0.0929685
-0.233461
0.398197
-0.164737
-0.0876135
0.0824222
0.0165671
-0.134877
-0.534061
0.310298
0.223763
-0.0778432
0.0584882
0.0193549
0.189949
-0.281488
0.0915389
0.263751
-0.107715
0.0575097
-0.268142
-0.101195
0.369337
-0.0480728
0.0878212
-0.0397483
-0.012117
0.033207
0.283832
-0.10986
-0.173973
-0.243442
0.16979
0.073652
-0.35061
0.110789
-0.101966
0.0686376
0.0333285
-0.270785
0.400438
0.0618633
0.149921
-0.211785
0.0348112
0.0538427
-0.0886539
-0.137415
-0.156673
0.294088
-0.00292326
-0.000353052
0.00327631
-0.201854
-0.06437
0.266223
0.00275472
0.00304347
0.237605
-0.0208161
-0.216789
0.081946
-0.125739
0.0437928
-0.23635
0.329119
-0.0927684
0.00105497
-0.112129
0.111075
-0.150479
0.0293054
-0.349575
-0.0698142
0.169908
0.113925
-0.00539602
0.00247276
0.234531
-0.263036
-0.00658188
-0.0051767
0.0117586
-0.0082333
0.0114043
-0.00317098
-0.168809
-0.0662795
0.296293
0.237051
0.302098
0.082288
0.388441
-0.0625371
-0.325904
-0.000490493
-0.00409512
0.104429
-0.356628
0.00797577
-0.00522105
0.00796473
0.00237258
-0.0142734
0.102543
0.00201723
-0.0016854
-0.00033183
-0.398
-0.131378
0.226543
0.0846798
-0.311223
0.000101447
0.000724033
-8.92372e-05
0.0649611
-0.17619
0.132872
0.223721
-0.356593
-0.145626
0.273669
-0.274063
0.0731809
-0.241862
0.168681
0.0756192
-0.101531
0.0259121
-0.00475506
-0.0184348
0.0231898
0.16758
-0.166086
-0.00149476
-0.00938457
0.0114297
-0.0028813
0.0384612
-0.0828802
0.0444189
0.122766
-0.0428769
-0.0798889
-0.277959
0.248311
0.0296476
-0.00614327
-5.38569e-05
0.00619713
0.00330465
-0.0389897
0.141543
-0.325681
0.0893302
-0.276695
0.110207
0.166488
0.00285581
0.00262648
-0.0054823
0.140863
-0.00331177
-0.00427307
-0.0330424
-0.525293
0.341226
0.184067
-0.0596218
0.12403
0.188113
0.176416
-0.364529
-0.0520423
0.163936
-0.218313
0.122815
0.0954974
-0.40083
0.167369
-0.105877
-0.280853
0.38673
0.255733
-0.182552
0.0041436
-0.00340912
-0.000734476
-0.0920816
-0.306556
0.398638
0.00985328
3.90162e-05
0.000781971
-0.0971657
-0.17953
0.0602751
-0.324854
-0.0722645
-0.0223255
-0.00928861
0.00430946
0.00497915
0.145879
-0.171662
0.0257833
0.00047642
-0.000185084
-0.000291335
-0.236251
0.112756
0.0814386
0.124078
-0.155439
-0.00409099
0.00160897
0.0207806
0.0100713
0.0111173
-0.00465657
-0.00646078
-0.445005
0.0470053
-0.0169031
-0.188481
0.287951
-0.000836756
0.00131318
-0.353252
0.130189
0.223063
-0.0501119
-0.0277313
0.0943456
0.00446746
-0.00495795
-0.103302
-0.291472
0.394774
0.138175
0.310848
-0.449023
-0.0599965
0.0166461
-0.327867
0.0617727
0.266094
0.00420146
-5.7855e-05
0.0698031
-0.262412
0.0109432
-0.0258737
-0.175031
-0.111525
-0.270039
-0.0289295
0.135401
-0.0856835
0.0349579
-0.00954886
0.0034016
0.00614725
0.151245
-0.165179
0.164594
0.0792897
-0.243884
-0.170871
0.186326
-0.0820368
0.216419
0.112449
-0.058765
-0.417684
-0.111143
0.0732069
0.0379361
0.280427
-0.130867
-0.14956
0.0117429
0.0159632
-0.0277061
0.00895801
-0.163138
0.15418
-0.000364644
0.00195746
0.214401
0.0785748
-0.292976
-0.290252
0.39462
-0.104368
-0.039437
0.0878401
-0.0484031
-0.00183551
0.000822573
0.00101294
0.0189856
-0.0393387
0.0203531
-0.194402
-0.0193647
0.213767
0.0167742
-0.00102867
-0.0633334
0.277735
0.0129979
-0.00518435
-0.0078136
0.138571
0.0682194
0.021967
-0.0901864
-0.170772
0.327449
-0.00257301
0.00236898
0.0910303
0.230349
-0.32138
-0.115068
-0.103245
-0.215526
-0.173053
0.333122
-0.235328
-0.0977943
0.277754
0.209565
0.010785
-0.0218657
0.0472333
0.0386294
-0.0858626
-0.00745206
-0.00843051
0.0158826
0.0665357
0.0562301
-0.194313
0.168969
0.0253445
0.147845
-0.178383
-0.469809
0.150436
0.319373
-0.409936
0.104711
-0.4246
0.309855
-0.167025
0.0382878
-0.0863607
0.251281
-0.209555
0.00832544
-0.00530917
-0.00301627
-0.0564887
-0.0586239
0.115113
0.348735
-0.215863
0.156307
0.0301901
0.00728668
0.00571127
-0.0758443
-0.0579459
-0.0565565
0.168407
0.147264
0.0438654
0.110791
-0.12537
0.014579
-0.00200698
-0.0075777
0.00958467
0.0925661
-0.118173
0.0264461
-0.0175063
-0.0208194
-0.127042
0.114525
-0.118768
0.00424297
-0.0384639
-0.023278
0.146062
0.221264
0.101863
-0.323126
-0.10979
0.0466519
-0.0852612
-0.0246855
0.298271
-0.0727434
0.0273149
0.0427951
0.0871414
-0.129936
0.00646427
-0.00750553
0.00104125
0.147511
0.132916
-0.0234267
-0.103525
0.0196529
-0.120068
0.0167049
0.103363
0.168546
-0.0426582
0.388493
-0.199379
-0.189114
0.0480242
-0.250718
0.209365
0.0413528
0.00285806
0.00546738
0.220406
-0.223746
0.00334056
0.172967
-0.00146143
0.00121587
-0.0301493
0.168344
-0.194282
0.0259384
0.0318025
0.214587
-0.308621
0.0940338
-0.000871266
-0.0461823
-0.000966955
0.000612699
0.000354256
0.09043
0.0598453
-0.0825563
0.0227111
-0.000832196
-0.000134759
0.169332
0.0278776
-0.19721
-0.096545
-0.210237
-0.0404806
0.0316452
0.151765
-0.18341
-0.155622
0.211805
-0.0561831
-0.0200943
-0.0728835
0.0417578
0.0311258
-0.0785474
-0.163315
-0.0225174
-0.139968
0.162485
0.018621
-0.322281
-0.137242
0.459523
0.000817884
-0.00906516
0.186505
0.0510995
-0.145265
0.207129
0.0394822
0.0483789
-0.0878612
0.00563191
-0.00552705
-0.109907
0.427505
-0.317598
0.342057
-0.217205
0.0615829
0.0852289
0.254901
-0.34013
0.477313
-0.170679
-0.306634
0.0153531
-0.039776
0.0244228
-0.23937
0.506454
-0.187142
0.0190254
-0.284459
-0.114268
-0.0664252
0.0712315
-0.00480633
-0.392453
0.098421
-0.00170039
-0.0418011
-0.0307597
0.0260047
-0.153546
-0.0898968
-0.001485
0.00366267
-0.00217766
-0.32639
-0.116232
-0.178598
-0.0246109
0.203209
-0.0641591
-0.209778
0.273937
0.000704382
-0.000434904
-0.000269478
-0.0778506
-0.400439
0.400435
3.63693e-06
0.12339
0.226322
-0.349712
-0.240254
0.191556
0.0486983
-0.0853874
-0.227256
0.312643
-0.0842287
-0.0506903
-0.000383539
-3.99038e-05
0.00278231
0.00826559
-0.00269957
0.00471681
0.0718232
0.278642
-0.350465
0.0421943
-0.213065
-0.108336
0.109391
0.209402
0.00261027
-0.266364
-0.0868879
-0.0395236
0.0496792
-0.000642998
-0.00155327
0.00219627
-0.133254
0.142212
-0.0736357
-0.136601
-0.00121449
-0.00492878
-0.325664
-0.208397
-0.304089
0.375912
-0.0173865
0.00993442
-0.00161708
-0.039806
0.0300978
0.00929849
-0.287257
0.00557183
-0.00684421
-0.0705108
-0.141037
0.211548
-0.127127
0.0416191
0.0855081
-0.379041
0.286959
0.155838
-0.175111
0.0192729
-0.287404
0.146073
0.141331
0.088313
0.0463295
0.118316
-0.0500966
0.110198
0.0372317
0.347947
0.077102
-0.425049
-0.00641148
0.00814879
-0.00173731
-0.0836943
-0.1239
-0.411579
0.0111407
-0.426871
0.426871
0.0190139
0.201392
-0.217166
-0.110701
0.0763531
-0.278207
-0.0479777
0.0105354
0.0214416
-0.215843
0.0283881
-0.261193
0.0679012
0.193291
-0.0222219
-0.00194536
0.000109849
0.174465
-0.387069
0.212603
0.00258838
0.0549496
-0.057538
-0.0237168
-0.134931
0.158648
0.38391
-0.209444
0.0978539
-0.188491
-0.115942
-0.00382193
0.119764
-0.40167
0.134935
0.266735
0.385126
-0.219674
-0.165452
-0.0930801
0.388944
-0.295864
-0.137282
-0.157956
-0.0963929
0.120117
-0.0237238
0.427904
-0.14668
-0.281223
0.096846
-0.240573
0.143727
-0.122932
0.12231
-0.0710427
0.41899
-0.115678
0.00340834
-0.00999023
-0.0119553
0.0190181
0.0345928
-0.0285273
0.0438805
-0.0265474
-0.0910823
-0.0289857
0.0170646
-0.0427009
0.0256363
-0.0235015
0.0564859
-0.0329845
-0.0080528
0.409262
-0.401209
-0.188683
0.240281
0.164942
-0.399598
0.234656
0.0143242
0.0280958
-0.0424201
-0.0253798
0.0571417
-0.031762
-0.137653
0.107045
0.0306081
0.170604
-0.362599
0.072347
-0.271118
0.206959
-0.101242
-0.304416
0.405658
0.156068
0.0825893
-0.0475625
0.0330394
-0.00891716
-0.00857773
-0.00794681
-0.00160565
0.0133388
0.0821393
-0.0954781
0.374785
-0.351253
-0.387383
0.51618
-0.128796
-0.0929527
-0.287969
0.380921
-0.00889258
-0.0534471
0.0882584
-0.310791
0.201445
0.109345
-0.00620615
0.00378664
0.0024195
0.279954
-0.140276
-0.0241468
0.254486
-0.144209
0.106824
-0.131293
0.0244687
0.0215487
-0.161825
0.0892243
-0.049742
-0.151073
0.127356
0.0426015
-0.412858
0.0905766
-0.403079
0.28157
0.12151
0.0967437
-0.0367853
0.0998425
-0.368747
0.325191
0.161801
-0.121596
0.0252028
0.0451441
-0.10436
0.059216
0.288266
-0.381346
0.0195366
-0.0809121
0.0613756
0.270456
-0.374224
0.103768
0.203811
-0.22815
-0.381248
0.0907903
0.290458
-0.248051
0.198542
0.0528215
-0.0293967
-0.0234249
0.118837
0.0321251
-0.150962
-0.195797
0.0306347
-0.177883
0.107372
-0.00245334
-0.0409006
0.0111877
0.0297129
-0.398171
0.191129
0.207042
-0.104685
-0.0224423
0.137285
0.00769688
-0.00123261
0.0225292
0.0488438
-0.071373
-0.000110638
0.000362557
-0.000251919
-0.0589238
-0.127557
-0.103036
0.114766
0.107377
-0.0504105
0.0390027
0.0711592
0.00696324
-0.00926913
0.00230589
-0.285737
0.408638
-0.120061
-0.263532
-0.120995
-0.208278
0.0337399
0.00227807
-0.0865537
8.27208e-05
-0.0094641
0.00938138
-0.170793
-0.0950302
-0.162157
0.238306
-0.00115841
-0.00030302
0.0202837
0.0817139
-0.101998
0.204559
-0.0276816
0.0576403
-0.0453231
0.371924
-0.116517
0.13737
-0.15149
0.0388798
0.0481447
-0.0870245
-0.0344545
0.0735152
-0.0390607
-0.223911
-0.107727
-0.0412764
-0.0489404
0.0902168
-0.109836
0.0812165
0.0286198
-0.010796
0.00390305