/*--------------------------------*- C++ -*----------------------------------*\
| =========                 |                                                 |
| \\      /  F ield         | OpenFOAM: The Open Source CFD Toolbox           |
|  \\    /   O peration     | Version:  v2012                                 |
|   \\  /    A nd           | Website:  www.openfoam.com                      |
|    \\/     M anipulation  |                                                 |
\*---------------------------------------------------------------------------*/
FoamFile
{
    version     2.0;
    format      ascii;
    class       volScalarField;
    location    "100";
    object      epsilon;
}
// * * * * * * * * * * * * * * * * * * * * * * * * * * * * * * * * * * * * * //

dimensions      [0 2 -3 0 0 0 0];


internalField   nonuniform List<scalar> 
18540
(
0.0315771
4.17921e-06
2.22358e-06
0.0141601
1.78329e-06
1.8114e-06
1.78146e-06
2.63029e-06
9.94342e-06
2.3259e-06
2.22491e-06
2.73233e-06
0.0107613
2.79759e-06
0.0250027
0.0045344
4.59425e-06
2.2883e-06
0.150065
0.0421588
3.34304e-06
3.99245e-06
3.34538e-06
0.00952079
2.56296e-06
2.40831e-06
0.0242937
2.73123e-06
1.83045e-06
0.0334121
4.15943e-06
2.98994e-06
8.01927e-06
0.00929557
2.19694e-06
0.0134617
4.18634e-06
2.75131e-06
1.84331e-06
1.94485e-05
4.04234e-06
3.21905e-06
0.0122247
0.0286873
2.65807e-06
2.39579e-06
0.0149261
2.24919e-06
3.19851e-06
1.92362e-06
2.81096e-06
0.0265963
0.0407709
4.02765e-06
2.22578e-06
1.84004e-06
0.0106556
0.0218562
0.0127521
1.63173e-06
0.0125748
1.9127e-06
2.17862e-06
2.37384e-05
0.0334743
2.15266e-06
7.41964e-06
3.414e-06
0.014157
1.80815e-06
1.82362e-06
2.63528e-06
1.01827e-05
0.0247405
2.18036e-06
1.24657e-05
4.33885e-06
3.23938e-06
2.28071e-06
1.14947e-05
2.15461e-06
0.0593459
2.76394e-06
1.0171e-05
0.0122728
0.0212161
2.48044e-06
3.46513e-06
2.08862e-06
0.020855
3.59051e-05
7.99589e-06
2.77752e-06
1.89276e-06
1.82994e-06
2.30706e-06
2.1007e-06
2.11142e-06
0.38594
0.0662905
1.8484e-06
2.99057e-06
8.94474e-06
0.00785769
0.0127228
7.25056e-06
1.8466e-06
0.0385231
2.17977e-06
2.25071e-06
0.0999369
0.0100055
3.28413e-06
2.16048e-06
0.0426808
2.36038e-06
2.47059e-06
2.11312e-06
2.18968e-06
1.82099e-06
0.176738
0.0719599
0.0128073
0.0584699
3.05314e-06
1.81978e-06
1.93499e-06
2.50348e-06
0.0123663
1.3633e-05
0.00219441
2.35473e-06
2.16329e-06
0.028054
2.26613e-06
2.16863e-06
2.22581e-06
2.11109e-06
2.39836e-06
2.13589e-06
0.0338654
5.51038e-06
2.00164e-06
0.0705573
2.0096e-06
2.13987e-06
1.92379e-06
0.0282574
2.12143e-06
0.0720214
2.29564e-06
2.32646e-06
2.12275e-06
0.0372836
0.000292313
8.60555e-06
0.0675348
2.0035e-06
2.54509e-06
0.0494728
3.08739e-06
2.08925e-06
4.03465e-06
2.28129e-06
0.0933542
2.74839e-06
0.0293733
2.47418e-06
0.0261113
1.9996e-06
3.47348e-06
1.83585e-06
2.06432e-06
2.08351e-06
2.27398e-06
0.0564445
1.91357e-06
0.0171989
0.000280469
0.00128542
2.08585e-06
2.69178e-06
2.10516e-06
7.79239e-06
2.24751e-06
0.0143926
2.30683e-06
1.83515e-06
0.000500438
2.41331e-06
1.83117e-06
2.15781e-06
0.0136839
3.07002e-06
6.32657e-06
2.55544e-06
1.93238e-06
0.000715152
1.03606e-05
2.14989e-06
2.37217e-06
7.97436e-06
2.4531e-06
1.90317e-06
0.0234044
0.0103623
2.69065e-06
0.0132558
0.0193865
2.00943e-06
3.00878e-06
0.0119447
0.0162543
3.64944e-06
2.69331e-06
2.08739e-06
0.0570969
2.5398e-05
0.00980371
0.0200894
0.012163
4.29546e-06
0.0282824
6.77587e-06
0.0110072
0.0887575
2.05198e-06
2.0074e-06
0.0132219
2.35913e-06
2.09337e-06
0.000119461
1.13472e-05
2.10612e-06
4.07553e-06
1.81661e-06
3.05011e-06
2.32143e-06
2.98502e-06
2.45761e-06
0.00050306
0.000348624
2.49069e-05
2.04887e-06
0.024061
0.018289
4.01087e-06
2.16523e-06
2.07834e-06
2.43194e-06
5.85173e-06
0.0178164
0.0115009
2.32305e-06
2.24865e-06
2.49103e-05
5.94675e-05
0.000101609
2.76916e-06
0.00321425
1.67228e-05
0.0236002
2.43839e-06
0.158038
0.0141652
2.07918e-06
0.0532227
0.0453615
2.7394e-06
3.60775e-06
0.0126687
0.0126826
0.319003
1.9729e-06
9.30893e-06
0.0228803
2.12063e-06
2.30807e-06
3.9976e-05
2.6159e-06
3.58433e-06
0.0260371
1.93601e-06
3.07093e-06
0.016136
1.79969e-06
0.00263259
2.31385e-06
0.0141505
1.30747e-05
0.0380213
0.0167725
3.02322e-06
2.74189e-06
0.077072
2.29114e-06
0.00046318
2.39523e-06
0.0439946
6.89899e-06
2.48091e-06
0.0130558
0.00038453
4.07229e-06
8.82829e-06
2.98892e-06
0.000877688
2.31265e-06
0.000100582
3.01899e-06
0.00437654
1.79127e-06
0.0219412
1.94367e-06
0.008706
0.0145932
0.0235438
2.89189e-06
0.0257104
0.0149759
0.0119926
0.000552655
2.4601e-06
0.0147126
1.94812e-06
1.66461e-06
2.06942e-06
2.16134e-06
2.88838e-06
2.77066e-06
2.14889e-06
4.9357e-06
4.6216e-05
2.2994e-06
0.00212924
1.03852e-05
1.98741e-06
3.62344e-06
0.0124967
4.07362e-06
2.08267e-06
2.00751e-06
1.83168e-06
8.32861e-06
4.03571e-05
6.12014e-05
2.64131e-06
4.5172e-06
1.80518e-06
0.128244
0.000369019
3.64349e-06
0.0741302
2.30171e-06
3.58319e-06
0.0509034
3.56685e-06
2.11266e-06
2.35121e-06
0.00303036
2.31663e-06
2.30246e-06
3.01304e-06
2.08586e-06
0.0427106
3.03117e-06
1.62807e-06
3.18385e-06
2.00597e-06
2.98817e-06
0.0122969
2.1889e-06
2.13308e-05
2.19325e-06
3.60955e-06
0.000455084
3.05119e-06
0.00377446
1.93592e-06
0.0185029
0.10094
2.33339e-06
5.8702e-06
0.000184123
2.29921e-06
2.12752e-06
2.29797e-05
0.0336968
3.74036e-06
0.028256
0.0537653
2.3487e-06
2.07265e-06
0.0126884
0.012029
3.19766e-06
0.0228317
0.0136276
3.77059e-06
0.00229492
0.147878
0.0291134
1.80642e-06
3.58961e-06
2.06122e-06
2.08261e-06
0.0257824
0.0149973
2.39237e-06
2.68182e-06
0.0121556
0.0121614
1.78885e-05
2.3134e-06
2.06469e-06
0.0187683
3.59009e-06
1.85059e-06
3.6637e-05
5.01832e-05
0.000303696
0.0318685
3.00748e-06
0.0247384
2.15977e-06
2.17037e-06
2.13845e-06
0.00213798
2.24329e-06
2.40148e-06
2.80077e-06
0.0239748
2.1144e-06
0.0427746
2.11611e-06
0.598257
3.37869e-06
1.98179e-06
0.0764989
2.74519e-06
3.36396e-05
2.25225e-06
7.85889e-06
0.0109048
2.7759e-06
1.86897e-06
2.49346e-06
0.0112329
2.78484e-06
1.77269e-06
0.0688272
0.02267
2.19231e-06
1.96289e-06
1.6797e-06
2.50084e-06
1.94681e-06
2.78132e-06
0.0128479
0.0417203
1.73549e-06
2.28815e-06
2.07388e-06
2.07767e-06
3.59937e-06
2.66501e-06
0.0535497
1.75157e-06
0.000257064
8.61744e-06
0.08015
7.95732e-06
0.0135552
0.0396501
9.10784e-05
1.66495e-06
0.0245502
3.0352e-06
0.0151137
1.91141e-06
2.33965e-06
1.76028e-06
0.0540568
2.41086e-06
1.75912e-06
2.18797e-06
2.16016e-06
0.0150826
2.7165e-06
1.96084e-06
0.00501683
2.86061e-06
1.6366e-05
0.0145943
0.00967803
0.0287537
2.15495e-06
0.0253263
1.79215e-05
2.2277e-06
0.00012556
8.64294e-06
1.63225e-06
1.79072e-05
4.16592e-06
1.94687e-06
0.000229814
1.71261e-06
1.0529e-05
0.0182199
2.4921e-06
2.50821e-06
3.22116e-06
2.62975e-06
0.0154275
2.19132e-06
1.89247e-06
2.63908e-06
0.0101196
3.38598e-06
0.299721
3.16408e-06
9.61282e-06
0.0503664
2.13527e-06
1.67435e-06
3.32797e-06
0.0133256
2.65492e-06
2.49238e-06
0.0510789
0.000255342
3.0892e-06
3.41815e-06
4.06693e-06
1.80142e-06
0.0366063
0.000865005
2.30657e-06
2.51783e-06
3.69218e-06
2.48954e-06
2.39458e-05
3.03134e-06
1.74481e-06
1.69309e-06
0.0149996
0.0378322
2.24177e-06
1.94748e-06
2.24529e-06
2.33688e-06
1.23158e-05
0.0482047
1.75743e-06
1.94043e-06
0.000371717
0.0959356
0.0111471
2.68665e-06
2.08807e-06
2.15635e-06
2.07484e-06
2.24347e-06
1.9378e-06
0.0127109
2.34688e-06
8.82759e-06
2.24262e-06
2.77104e-06
1.81203e-06
4.12097e-06
4.10085e-05
1.71574e-06
0.000278729
0.0333119
1.73322e-06
2.1514e-06
1.68873e-06
2.19985e-06
6.32458e-06
3.63582e-06
0.0559204
0.00225157
0.0118478
2.39515e-06
2.63259e-06
2.73031e-06
1.729e-06
0.000153679
1.93386e-06
1.67188e-06
3.16723e-06
2.41698e-06
0.0117599
2.87701e-06
1.80431e-06
0.0149113
1.94856e-06
1.83195e-06
0.0732872
3.03826e-06
1.69552e-06
3.40648e-06
0.0521266
2.302e-06
2.57482e-06
3.56042e-06
3.13541e-06
3.19473e-06
1.7473e-06
0.00992457
0.0679675
0.0134803
2.36591e-06
0.0115491
2.34338e-06
4.13033e-06
0.024822
1.65841e-06
0.0290712
0.0106917
2.39722e-06
0.0122312
3.24857e-05
0.00993185
3.28927e-06
1.75054e-06
0.000372524
0.0111914
1.86183e-06
0.00554175
0.0118907
0.0194794
4.07118e-06
1.79612e-06
2.27353e-06
0.000549485
1.69727e-06
1.83573e-06
0.0306739
0.0122663
2.38756e-06
1.95201e-06
0.17205
6.99e-05
2.16403e-06
2.22856e-06
3.18401e-06
2.22911e-06
0.0170955
2.85979e-06
3.20159e-06
1.73785e-06
2.54914e-06
0.0285515
1.69031e-06
0.247836
1.67413e-06
0.0113012
2.88486e-06
0.0110607
8.70761e-05
1.83589e-06
0.0250838
2.95568e-06
2.48415e-06
0.0246597
0.025287
3.06812e-06
2.15644e-06
0.0145911
0.00709527
1.04728e-05
0.0140681
2.31647e-06
0.0112592
0.0101854
2.01053e-06
2.54162e-06
2.32058e-06
2.21167e-06
0.0026665
1.84806e-06
2.06488e-06
1.86985e-06
0.0186551
2.21506e-06
1.8138e-06
2.27532e-06
2.37542e-06
0.0157055
0.00138994
0.0286298
1.99378e-06
0.0120469
1.93749e-06
2.84187e-06
1.8148e-06
0.0120674
2.70778e-06
1.85108e-06
1.96119e-06
1.95831e-06
1.9703e-06
2.04368e-06
0.000290424
2.18134e-06
5.95716e-06
0.0132628
1.80194e-06
1.80101e-06
0.0105627
0.0116096
0.0243988
3.40522e-06
3.59067e-06
2.37878e-06
2.35763e-06
7.54084e-06
2.25384e-05
2.23399e-06
4.18269e-06
3.51436e-06
2.20661e-06
2.395e-06
3.57144e-06
3.11709e-06
4.13328e-06
2.20281e-06
4.63463e-05
2.24665e-06
1.85471e-06
3.27212e-06
0.0114348
3.61962e-06
2.18367e-06
0.00869145
7.04135e-06
2.34136e-06
2.72413e-06
3.73928e-06
0.0297878
3.22113e-06
2.00869e-06
2.01619e-06
0.0168658
1.99924e-06
0.16166
1.63776e-05
0.0108834
2.71064e-06
2.86235e-06
2.03624e-06
2.52763e-06
3.92772e-06
1.83123e-06
2.6442e-06
2.16932e-06
1.88026e-06
0.0112756
3.57413e-06
2.20529e-06
2.3836e-06
0.0181617
0.00105024
2.10383e-06
2.36244e-06
5.70858e-06
1.95802e-06
2.59656e-06
5.54574e-06
7.57158e-06
8.24478e-06
2.1591e-06
5.85831e-06
2.83941e-06
0.00111258
2.77408e-06
2.3739e-06
4.15724e-06
0.0254368
2.5358e-06
0.0261038
3.86319e-06
7.02384e-06
2.30873e-06
0.0646631
5.1085e-06
3.48779e-06
2.24955e-06
1.96078e-06
0.0951412
2.93608e-06
1.85813e-06
0.0185615
1.82204e-06
2.27861e-06
0.000185126
2.09168e-06
1.81509e-06
1.89431e-06
0.022639
2.24312e-06
2.0072e-06
0.0742105
2.11791e-06
2.22229e-06
0.000332133
2.54628e-06
2.16781e-06
2.73306e-06
2.53955e-06
0.0114639
1.64544e-06
1.83604e-06
0.0237447
2.37361e-06
0.0149363
2.57631e-06
0.00416956
2.37462e-06
1.98969e-06
1.6912e-06
0.0172106
2.20566e-06
3.12843e-06
2.24192e-06
2.37918e-06
2.0956e-06
2.0574e-06
0.0224575
0.000459888
2.37631e-06
0.0402232
6.90955e-06
2.38896e-06
0.0108524
2.76463e-06
1.64941e-06
2.6396e-06
0.168795
5.49239e-06
2.66989e-06
1.84517e-06
2.22869e-06
0.0113935
2.15762e-06
2.001e-06
7.71583e-06
2.67707e-06
1.98697e-06
4.75501e-05
0.0189183
1.74298e-06
2.23993e-06
0.0136916
3.97346e-06
1.82239e-06
0.0318156
6.29388e-06
0.091355
1.73663e-06
0.0647973
2.20883e-06
1.74256e-06
2.36659e-06
2.50233e-06
0.0114959
6.26126e-06
1.73847e-06
0.0115806
2.25009e-06
3.13051e-06
0.0555076
3.32454e-06
6.57282e-06
0.000272952
1.76214e-06
0.0434043
3.60666e-06
0.231295
2.47274e-06
0.0459122
2.52434e-06
3.97187e-06
0.0137301
1.69403e-06
2.15959e-06
0.0039424
3.45314e-06
1.96753e-06
0.0132487
2.19217e-06
0.0788187
3.52638e-06
2.19922e-06
3.93731e-06
0.0247795
2.11258e-06
0.0679312
3.31431e-06
3.5607e-06
2.24544e-06
2.79291e-06
0.0212197
0.0253206
2.37574e-06
0.0280776
0.00852936
2.82633e-06
2.39565e-06
2.58343e-06
8.59592e-06
2.67856e-06
2.29079e-06
0.0154356
4.24773e-06
0.0128701
2.70029e-06
0.0110082
0.0165366
2.33392e-06
0.0527653
0.10056
0.0290049
0.00623812
2.96267e-06
2.2577e-06
0.0888679
2.44022e-06
0.0211492
0.0994416
2.08837e-06
2.10922e-06
3.02565e-06
1.82848e-06
6.27797e-06
3.00367e-06
0.029645
1.90335e-06
2.60285e-06
3.7071e-05
0.39941
2.13139e-06
2.71667e-06
2.80912e-06
0.0124818
2.05968e-06
4.18695e-06
0.012274
0.0118501
1.91263e-06
0.0118031
2.80418e-06
1.87791e-05
3.50217e-06
1.94796e-06
0.0474695
0.0024146
0.0128262
0.00279598
2.10572e-06
2.46339e-06
2.69273e-06
0.0318468
1.85964e-06
0.0118272
1.72067e-06
2.72357e-06
1.88371e-06
1.86625e-06
0.188073
0.0086538
2.91636e-06
2.19331e-06
2.69387e-06
4.16161e-06
0.00729803
3.14498e-05
2.59667e-06
0.010867
0.0123666
1.67434e-06
2.51654e-06
0.00222796
1.06995e-05
0.0118043
0.0172099
2.84403e-06
2.10311e-06
2.25458e-06
0.00757295
0.011969
2.51528e-05
0.0109923
1.89521e-06
0.0172906
1.6974e-06
0.00906634
2.16578e-06
8.6974e-06
2.9728e-06
1.87852e-06
0.0109809
2.07797e-06
0.0579802
2.07857e-06
0.0728765
1.75505e-06
2.01482e-06
0.0117999
0.0104079
2.06543e-06
0.0089464
0.000246471
1.86625e-06
0.000130364
0.0345858
0.0167723
0.00228778
3.0816e-06
1.84466e-06
2.3252e-06
2.67801e-06
2.70566e-06
1.94325e-06
0.024969
0.0262563
3.63011e-06
0.0160092
3.37486e-06
0.00637326
2.46826e-06
2.29193e-06
2.59667e-06
0.0183149
3.56094e-06
0.00720319
3.44397e-06
1.70736e-06
6.93458e-06
1.94847e-06
0.00959703
5.00438e-06
2.65485e-06
3.34163e-06
0.125727
2.22986e-06
0.00267405
1.98333e-06
2.31933e-06
2.23252e-06
2.88567e-05
2.07046e-06
1.84707e-06
2.14863e-06
2.09947e-06
0.000223716
1.9913e-06
2.12523e-06
1.98683e-06
2.08459e-06
0.00831535
0.0163551
2.27745e-06
2.84478e-06
2.95352e-06
2.21812e-06
0.0266111
2.71573e-06
2.52915e-06
2.88773e-06
0.0105172
2.16468e-06
2.09833e-06
1.81003e-06
3.0673e-06
3.37495e-05
0.00996283
0.000245637
2.08198e-06
2.51534e-06
1.8889e-06
2.32358e-06
1.69804e-06
6.66448e-06
2.47018e-06
0.0107196
0.0192973
0.0999769
1.90352e-06
0.0130842
0.0106362
2.33521e-06
2.41191e-06
2.18629e-06
1.9694e-06
0.0367146
1.98949e-06
5.22984e-06
2.00437e-06
2.23868e-06
1.71545e-06
0.0228814
3.41862e-05
2.39056e-06
2.24833e-06
0.026404
0.0478864
0.00524793
2.27913e-06
0.0125958
6.87935e-06
2.43411e-06
0.0111285
3.46548e-06
2.4946e-06
0.0193982
0.0590628
2.52618e-05
2.93301e-06
0.0148246
0.0186498
0.0112077
3.40752e-06
0.0146724
3.40718e-06
0.0158933
3.35454e-06
3.55191e-06
2.20831e-06
0.0951821
0.0144121
3.45252e-06
0.00612931
1.69563e-06
2.24802e-06
0.0272068
1.82054e-06
3.40449e-06
2.00128e-06
0.00264168
1.89111e-06
1.66365e-06
2.99193e-06
3.03286e-06
0.00325389
5.56851e-06
0.00707786
1.99078e-06
2.44218e-06
2.02234e-06
4.08659e-06
1.98056e-06
1.27457e-05
0.0699349
1.80841e-06
3.03851e-05
2.73289e-06
0.247703
1.63631e-06
0.000307159
2.71948e-05
2.99911e-06
4.10414e-06
0.000749469
3.61359e-06
2.29405e-06
4.18951e-06
2.06165e-06
0.0114683
0.0195899
4.18889e-06
4.15116e-06
0.0478578
1.83844e-06
2.05235e-06
2.60456e-06
2.1147e-06
2.27091e-06
2.51485e-06
0.00954409
1.99368e-06
2.12949e-06
0.022659
0.0291577
2.02107e-06
3.17263e-06
4.0141e-06
0.068842
3.52969e-06
3.07312e-06
0.0383084
4.1023e-06
1.85783e-06
8.80556e-06
2.72892e-06
1.82201e-06
1.91746e-06
0.0121636
3.00997e-06
0.0351771
3.18533e-06
0.00587474
1.61011e-05
0.102518
0.0162597
0.0198202
0.00331782
2.66775e-06
0.0131611
0.00236935
3.45582e-05
0.0125313
0.0129812
1.82182e-06
2.39797e-06
2.12747e-06
0.0211928
2.24302e-06
3.32137e-06
1.85132e-06
2.11201e-06
2.09245e-06
1.95466e-06
0.0218626
0.0130433
2.32602e-06
0.0159344
1.30344e-05
1.18946e-05
0.00524268
2.0909e-06
2.35317e-06
0.0288559
0.000266413
4.11849e-06
0.0127368
3.67269e-06
2.04926e-06
2.31266e-06
0.0285458
6.84883e-05
0.0472237
0.0159172
2.32505e-06
0.000190884
1.9496e-06
0.032412
1.68081e-06
0.0132443
0.0277831
6.745e-05
1.98668e-06
2.11518e-06
3.81439e-06
0.00598074
2.0604e-06
0.0291915
0.0384126
2.61355e-06
0.0135645
0.0142253
1.94786e-06
2.16324e-06
2.80449e-06
6.54087e-06
2.01394e-06
0.00190099
2.46651e-06
2.26767e-06
0.0113789
0.000174097
0.0024332
1.7992e-06
0.0421018
2.45736e-06
2.54465e-06
2.60422e-06
3.65198e-06
0.00476127
0.0425841
2.37679e-06
6.55616e-06
2.9173e-06
2.36649e-06
1.81565e-06
2.06935e-06
3.13997e-06
2.11017e-06
0.0225119
0.225002
1.85812e-06
0.00648863
0.0858604
0.0137921
0.0168686
2.8492e-06
2.02058e-06
2.29048e-06
1.67618e-06
2.24178e-06
0.0749269
2.67389e-06
9.10816e-06
0.00323404
2.10788e-06
4.07747e-06
0.00873684
0.0332865
0.0303185
2.21353e-06
2.09305e-06
4.05694e-05
1.65548e-06
0.0189167
2.05009e-06
1.64126e-06
1.87338e-06
0.0949205
2.51259e-06
3.15996e-06
1.15362e-05
3.58604e-06
1.87982e-06
0.0108351
2.14582e-06
2.1054e-06
2.18211e-06
2.00555e-06
0.0125948
0.0205796
0.00378608
2.48313e-06
1.83824e-06
0.0128113
0.00250915
0.0720376
1.62303e-06
1.63725e-05
0.0507132
5.45635e-06
0.0172533
2.11276e-06
0.0268819
1.83123e-06
2.4522e-06
0.0578968
2.42454e-06
2.61041e-06
0.0141582
0.0293799
2.40136e-06
2.39245e-06
1.4696e-05
0.0779777
2.19738e-06
2.27831e-06
0.00211271
1.76522e-06
3.65191e-06
1.89873e-06
0.0171886
1.97576e-06
0.0187107
5.14965e-06
0.0126427
2.2535e-06
0.0474178
1.7963e-06
2.00714e-06
0.0235596
3.19744e-06
0.00315171
2.3044e-06
1.92696e-06
4.01363e-06
2.66124e-06
0.0128365
0.0174457
1.44293e-05
0.0125325
2.45187e-06
2.39041e-06
0.0303471
1.78727e-06
2.37536e-06
6.07562e-06
1.87087e-06
1.91426e-06
2.14666e-06
1.7567e-06
1.70285e-06
2.09318e-06
0.0166875
2.59406e-06
0.0153284
2.84847e-06
2.34064e-06
1.90073e-06
2.68481e-06
0.00778558
3.87311e-06
7.76875e-06
0.0694554
1.67881e-05
2.40152e-06
2.42657e-06
2.31114e-06
2.15084e-06
0.00271415
0.0401718
0.00837049
2.00094e-06
3.56791e-06
0.095486
0.000150378
1.06829e-05
2.25918e-06
2.7216e-06
2.10486e-06
0.013694
0.138065
7.34855e-05
3.92616e-05
2.11232e-06
2.70537e-06
0.0136932
0.0116016
3.35944e-06
3.65341e-05
1.90012e-06
1.9882e-06
2.16474e-06
4.16907e-06
0.0712664
0.0189418
0.0040285
5.85834e-06
2.00771e-06
2.66332e-06
0.00058737
0.000224016
0.00383609
0.0288998
2.58897e-06
2.44164e-06
0.0123134
0.0200068
2.9427e-06
2.16823e-06
0.0263988
2.28121e-06
4.04066e-06
0.0115581
2.36637e-06
1.7015e-06
7.6794e-06
0.011232
0.0209966
2.8874e-06
1.62281e-06
2.91441e-06
2.26837e-06
1.87581e-06
2.47635e-06
3.4993e-06
2.04801e-06
0.0141921
8.93037e-06
1.70082e-06
2.77267e-06
0.0113501
0.024593
3.28729e-06
2.20241e-06
3.12283e-06
2.04721e-06
3.63162e-06
1.98321e-06
1.91018e-06
0.0628368
1.89433e-06
1.7706e-06
5.39901e-06
2.41044e-05
0.0293247
0.0236099
2.73248e-06
3.87271e-05
0.0118068
0.0125352
0.00013241
2.26448e-06
2.59229e-06
0.0282674
0.0126155
0.0516212
0.0106611
2.30841e-06
0.00428245
0.013433
0.0125678
2.34324e-06
6.4147e-06
0.0277131
0.00251
2.6041e-06
0.0332092
0.00681785
2.16617e-06
2.62919e-06
1.72375e-06
1.06842e-05
4.34271e-06
2.60273e-06
0.00855662
0.0641898
0.000284409
0.0102934
3.34626e-06
2.0135e-06
0.0379706
0.00573013
3.6464e-05
2.04262e-06
0.0442974
2.11113e-06
3.77237e-06
2.41917e-06
0.0283575
2.10032e-06
2.3165e-06
2.14661e-06
0.0114355
2.53285e-06
8.92207e-06
2.25008e-06
0.0171133
0.0273884
2.40921e-06
0.00428161
1.74762e-06
2.6921e-06
0.0277333
0.0326311
3.1329e-06
1.70259e-06
2.07205e-05
3.74388e-06
2.36492e-06
3.50235e-06
4.19874e-06
3.76026e-06
3.08071e-06
2.37203e-06
3.41485e-06
0.0526761
0.00395954
0.0233427
2.72057e-06
0.022927
2.17352e-06
2.04169e-06
1.86664e-06
0.0194743
2.53885e-06
2.51082e-06
0.00311439
3.97885e-06
1.81794e-06
0.000122564
1.7468e-06
2.20155e-06
0.000207369
1.73358e-05
2.08357e-06
1.95397e-06
0.0181964
2.83149e-06
2.15167e-06
0.0487409
2.9803e-06
6.89453e-06
1.88399e-06
2.84582e-06
1.88792e-06
0.010224
2.76896e-06
2.73114e-06
0.00284266
2.10316e-06
2.65561e-06
0.0320484
2.96837e-06
0.0353522
7.83871e-06
1.82097e-06
2.16184e-05
2.73486e-06
2.8973e-06
0.0228289
0.010054
3.56636e-06
1.95994e-06
0.0179056
8.27288e-06
0.057104
2.08067e-06
0.0319335
1.83798e-06
2.06746e-06
1.19207e-05
3.63582e-06
2.38178e-05
0.017492
2.52158e-06
1.82521e-06
1.927e-06
2.38427e-06
3.20428e-06
3.84161e-06
1.81749e-06
0.0041521
2.04863e-06
2.22812e-06
0.0323393
0.00675986
2.5354e-06
1.69938e-06
0.000718515
0.036716
0.0254763
2.12251e-06
3.52476e-06
2.10479e-06
9.04329e-06
0.0210773
5.13846e-06
0.0117603
0.0134548
0.000127805
1.90747e-06
4.07111e-06
2.25107e-06
3.30899e-06
0.022479
1.63455e-06
1.79023e-06
4.16361e-06
0.01238
7.3319e-06
0.0116919
5.32418e-06
2.75332e-06
2.00355e-06
1.69028e-06
1.68268e-06
2.88279e-06
1.81554e-06
2.42078e-06
3.3116e-06
0.0122734
2.62879e-06
3.00157e-06
0.00306959
0.0122427
2.66745e-06
1.89388e-06
2.01287e-06
0.0114961
2.23467e-06
1.75731e-06
2.09329e-06
2.25309e-06
3.04584e-06
4.48911e-06
1.65544e-06
1.72257e-06
0.0129173
0.000108505
0.000784292
2.28856e-06
0.0143879
2.26167e-06
2.0173e-06
1.93821e-06
0.0133392
3.68645e-05
1.78555e-06
2.74106e-06
0.0957151
3.1853e-06
1.75161e-06
2.24655e-06
1.93347e-06
2.20555e-06
3.54738e-06
0.00244052
2.00195e-06
0.0126645
2.47133e-06
0.00215363
1.88489e-06
0.000410998
2.41878e-06
2.07419e-06
2.78277e-06
2.50723e-06
2.08048e-06
0.0568765
2.18713e-06
6.45467e-06
2.69295e-06
4.97215e-05
2.8499e-06
5.54467e-06
6.55939e-06
0.0193235
0.0299974
2.38983e-06
0.0285599
2.52486e-06
1.78643e-06
0.0299504
1.96992e-06
2.61655e-06
0.0102701
2.31521e-06
3.07818e-06
2.24778e-06
2.248e-06
3.8704e-05
1.63926e-05
3.62712e-06
2.19651e-06
0.00395253
0.0119062
4.50962e-06
0.0126736
3.14055e-06
2.4101e-06
0.0107075
0.0272091
0.000471222
0.0141421
0.00475786
1.04548e-05
2.99137e-06
2.47888e-06
2.23098e-06
1.87532e-06
2.01484e-06
1.68928e-06
0.0286206
1.24741e-05
2.42723e-06
0.000655648
1.85157e-06
0.00307998
7.76692e-05
0.0133341
0.0122801
4.40383e-06
0.0127
2.95878e-06
2.25911e-06
0.0115368
8.13505e-05
1.76915e-06
3.65854e-06
0.0248072
0.023213
2.32484e-06
0.0438526
2.71161e-06
1.81014e-06
5.85631e-06
0.0158219
0.00464602
0.0500975
2.33945e-06
2.49046e-06
1.97175e-06
1.8173e-06
2.31123e-06
7.93663e-06
0.014176
0.0230493
1.76474e-06
2.3313e-06
0.0123913
2.75584e-06
2.0913e-06
2.28416e-06
1.82228e-06
0.00341334
0.00239173
2.14109e-06
0.0135118
2.30563e-06
0.00262204
0.0121186
1.65997e-06
1.89773e-06
2.345e-06
0.0464239
2.80813e-06
2.4788e-06
2.02023e-06
2.2874e-06
0.0153381
2.35423e-06
3.31992e-06
3.53482e-06
2.71763e-06
2.38798e-06
0.010604
0.0144457
0.0141028
3.85357e-06
0.0240456
0.003087
1.65625e-06
2.61397e-06
2.00332e-06
0.0118423
7.0577e-06
1.90271e-06
0.00996613
0.0177389
1.69503e-06
1.87741e-06
3.54709e-05
2.95608e-06
2.25588e-06
0.0132767
1.21407e-05
4.17982e-06
1.85108e-06
0.0570419
0.0100368
3.77566e-06
3.49015e-06
4.28155e-06
0.0437135
3.47067e-06
0.115893
2.40487e-06
0.0107793
0.00338626
0.0206595
0.0122248
2.21301e-06
2.48966e-06
2.98327e-06
0.0115383
0.0230153
2.96003e-06
0.000273866
0.0108654
0.0304817
0.0116236
2.475e-06
0.0176919
0.0596215
2.53485e-06
2.30622e-06
0.022988
1.99647e-06
0.15497
4.19595e-06
0.0255303
4.11332e-06
0.00109123
0.0023007
3.21606e-05
2.03765e-06
2.11329e-06
0.0200603
2.08122e-06
2.17331e-06
3.70717e-06
4.18448e-06
0.0122881
0.072883
0.00742986
0.037769
4.147e-06
4.06844e-06
2.11332e-06
4.29772e-05
2.41315e-06
2.37238e-06
2.67129e-06
1.90865e-05
0.00647374
2.34287e-06
0.0147718
4.20827e-06
0.106597
0.011152
0.0150005
1.74286e-06
0.0501216
0.0115913
0.0135767
0.0105735
3.3778e-06
0.011753
0.0962091
2.93111e-06
0.0148204
3.39936e-06
4.06305e-06
2.40281e-05
2.64042e-06
0.0119243
3.13894e-05
2.35742e-06
1.74967e-06
0.0107948
0.0119419
2.33948e-06
4.46591e-06
0.0309262
0.0157332
0.00203754
0.125046
2.03314e-06
2.28753e-06
2.26047e-06
0.0136665
3.43443e-06
3.17219e-06
2.41751e-06
1.69497e-06
2.50017e-06
0.00328023
3.78135e-06
0.00940198
0.0246021
1.84986e-06
5.79645e-06
0.0230523
2.20907e-06
6.00123e-06
8.71715e-06
1.7397e-06
5.95828e-05
9.80345e-05
1.63973e-06
0.0590207
3.09305e-06
2.68767e-06
1.8904e-06
2.29883e-06
2.24168e-06
2.17849e-06
2.02636e-06
2.24053e-06
3.79855e-06
4.00953e-06
2.65459e-06
1.87947e-06
4.23188e-06
1.71338e-06
0.0600814
0.0284733
3.09489e-06
2.33647e-06
5.98973e-06
0.0280213
0.0142582
2.99143e-05
0.00669438
2.21138e-06
1.70676e-06
0.0132051
4.10701e-06
2.84221e-06
0.028233
4.13477e-06
0.100532
2.02249e-06
3.2376e-06
4.58056e-06
2.35889e-06
1.75769e-06
4.56876e-06
0.0959198
3.63635e-06
0.0141167
0.0115439
2.01283e-06
9.66709e-06
2.27795e-06
1.7484e-06
2.1978e-06
1.67617e-06
3.11256e-05
3.65911e-06
2.77848e-06
0.000203942
0.00638727
1.85595e-06
2.8226e-06
8.57036e-05
3.34512e-06
1.96918e-06
3.1159e-06
2.07981e-06
1.97003e-06
0.0196931
2.6038e-06
0.0476129
1.19832e-05
2.29921e-06
2.48945e-05
3.77842e-06
2.17517e-06
1.98741e-06
0.0134168
0.0379638
1.76087e-06
1.80638e-06
1.68611e-06
2.24695e-06
0.0222009
3.4194e-06
2.05125e-06
2.942e-06
3.22139e-06
0.00656757
0.00533689
1.7916e-06
3.2982e-06
2.106e-06
0.0237543
0.0126133
2.24644e-06
4.09911e-06
1.89518e-06
0.0295083
0.0126856
0.0256963
3.73194e-06
2.50547e-06
3.14054e-06
2.39978e-06
2.03096e-06
7.78643e-06
2.33215e-05
4.7604e-05
2.13141e-06
1.80162e-06
3.77122e-06
2.08049e-05
3.12623e-06
0.038588
2.18362e-06
3.5936e-06
6.33521e-06
2.20433e-06
2.42992e-06
1.80805e-06
1.72903e-06
0.0128951
2.27318e-06
1.96323e-06
2.89541e-06
0.0149993
2.70182e-06
3.50589e-05
2.18169e-06
1.72734e-06
3.59445e-06
2.05565e-06
2.74713e-06
2.22081e-06
0.0117725
2.2066e-06
0.0290469
0.0494278
2.7618e-06
0.0572093
3.80282e-06
4.29311e-06
0.00030658
0.00270921
0.0153956
2.91032e-06
2.05975e-06
3.23313e-06
0.0124006
0.00294751
0.0164526
0.0023661
0.0125916
2.24895e-06
0.0215979
0.00472147
0.00582058
0.213743
0.0477616
0.0125793
2.28142e-06
2.21497e-06
5.0697e-06
7.74888e-06
0.0117528
2.33073e-06
1.96788e-06
0.0103845
2.45919e-06
0.0118529
0.00520487
3.30569e-06
3.39956e-06
2.21089e-06
0.0135121
2.81554e-06
2.28565e-06
0.0108624
2.1179e-06
0.0112789
0.0225495
0.190252
2.82585e-06
1.9232e-06
9.46862e-06
0.0213437
0.258753
2.39373e-06
0.00353371
4.26721e-06
1.96812e-06
0.0164399
3.19757e-06
0.0684657
2.26181e-06
2.25923e-06
4.62499e-06
2.56147e-06
2.34131e-06
5.20447e-06
6.17038e-06
0.00381767
0.0119126
4.08341e-06
2.17174e-06
0.0405699
3.80801e-06
0.000409526
0.0164155
0.0284127
2.36952e-06
0.00707548
0.0118634
0.0325194
2.48838e-06
0.0280178
0.0335844
0.0179585
0.010877
4.14806e-06
0.0499708
0.0120216
0.00839802
0.0148549
2.25166e-06
0.0352395
0.0506046
2.18652e-06
1.64579e-06
2.16649e-06
2.70079e-06
0.0319891
0.018857
6.44843e-06
2.31594e-06
4.20411e-06
2.20131e-06
2.13976e-06
0.00207924
0.00272765
1.68509e-05
2.03638e-06
0.0276464
0.0149547
2.0303e-06
2.27255e-06
2.72379e-06
9.87328e-05
2.75501e-06
2.62681e-06
4.19042e-06
1.83827e-06
0.0129482
0.0196068
2.28209e-06
5.11372e-06
2.2481e-06
2.19999e-06
2.21439e-06
2.11766e-06
2.33018e-06
0.015556
2.85214e-06
1.28012e-05
1.6482e-06
1.78785e-06
1.80135e-06
1.85799e-06
1.85443e-06
0.0127792
5.64171e-06
3.31464e-06
4.93504e-06
2.43832e-05
2.35388e-06
2.03849e-06
1.64248e-05
2.35367e-06
0.0059168
0.0248886
1.97392e-06
0.000411118
3.84722e-06
0.0167112
0.0119224
2.44635e-06
0.0604034
2.09564e-06
0.0411741
3.57368e-06
2.30004e-06
0.00481088
0.0137459
2.17664e-06
0.0110982
0.0116216
1.58398e-05
1.87801e-06
0.00363466
0.0105725
0.0128823
0.0214022
0.0144281
0.016121
2.18433e-06
3.23985e-06
0.0104546
2.97279e-06
0.0173053
0.0206352
2.98126e-06
2.0007e-06
2.241e-06
0.0247483
0.012118
2.76466e-06
3.60271e-06
1.99799e-06
2.00587e-06
0.0417753
0.0132774
1.71697e-05
2.09536e-06
0.241936
2.70791e-06
1.69449e-06
2.24706e-06
2.05793e-06
0.0186837
0.00270983
0.00179466
2.18639e-06
0.0410343
1.82265e-06
0.0150731
1.81643e-06
2.97108e-06
2.03149e-06
0.00020793
1.87706e-06
0.173522
0.000147573
6.22292e-06
3.08882e-06
2.87884e-06
0.0133335
0.0185408
4.16389e-06
2.14695e-06
0.000124175
1.73191e-06
0.0162151
0.0147682
0.0793125
0.0249835
2.56142e-06
1.73016e-06
2.81564e-06
3.01662e-06
2.12383e-05
0.0508727
0.015321
3.33337e-06
1.75394e-06
2.26523e-06
2.23074e-06
2.19006e-06
0.00309826
0.00315234
1.92554e-06
0.00311745
0.0228221
0.0111172
4.31105e-06
0.0231856
0.00229487
0.0237066
3.90172e-06
2.49804e-05
0.0117103
2.18842e-06
2.14332e-06
8.78318e-06
0.0118723
5.24678e-06
0.0122063
0.00010255
1.86972e-06
2.22413e-06
4.87492e-06
0.0118946
0.000187858
1.88716e-06
0.0416555
6.95771e-06
0.0126647
0.125506
0.0311866
2.67512e-06
1.89327e-05
1.3319e-05
2.29131e-06
0.0313935
1.9913e-06
0.0434327
3.73784e-06
0.0122597
2.80133e-06
3.8439e-06
2.73597e-06
0.133855
3.26563e-06
5.54203e-06
2.21378e-06
4.59507e-06
0.0121817
2.1311e-06
0.0142533
1.70439e-06
1.99269e-05
3.21162e-06
2.28657e-06
2.99103e-05
2.49988e-06
7.34949e-06
2.38162e-06
5.49632e-06
1.81658e-06
1.47291e-05
0.0154267
0.0144654
1.92982e-06
0.041155
0.14574
0.0371177
3.50823e-06
2.73597e-05
0.0103524
0.011724
2.03552e-06
0.000230388
1.86237e-06
3.25461e-06
0.000156077
2.19097e-06
2.15995e-05
0.0298331
3.51064e-05
1.69865e-06
0.0561485
3.25572e-06
0.0105872
0.0121159
2.32357e-06
0.0175321
0.0369077
2.68611e-06
0.0128199
2.17135e-06
1.74773e-06
2.38002e-06
2.12243e-06
2.92933e-06
0.0109252
2.48914e-06
0.0105171
0.107879
0.0122271
9.5967e-06
2.19271e-06
2.56082e-06
0.0117427
3.51966e-06
2.88906e-06
4.24577e-06
0.00529284
3.54359e-06
0.00236963
3.77421e-06
1.80146e-05
0.0275249
0.089773
0.0104309
8.92368e-05
2.88366e-06
2.89186e-06
3.69227e-06
2.60078e-06
0.0262191
2.1741e-06
0.0164898
0.0521906
0.0566241
0.00400573
2.78743e-06
5.03982e-06
1.6644e-06
0.0322123
4.1538e-06
2.22507e-06
0.0367018
1.87534e-06
0.00195531
3.58657e-06
2.2996e-06
0.0119657
0.0129273
0.0929553
0.0185162
2.23437e-06
0.0119002
7.86308e-05
3.00126e-06
3.36048e-06
0.0237247
2.07233e-06
1.88939e-06
3.20633e-06
3.64568e-06
0.00298004
0.015233
0.209147
0.0338196
0.0193289
1.98892e-06
0.00923752
0.0325966
1.89615e-05
2.03397e-06
2.81329e-06
0.0242262
2.0836e-06
0.0165459
0.00661949
3.3858e-06
0.0174246
0.0606092
0.095986
2.83838e-06
2.07013e-06
2.02266e-06
0.213615
0.0251493
2.87919e-06
0.0415877
0.0113997
2.34346e-06
0.0160322
2.28564e-06
3.0231e-06
1.76412e-06
2.2467e-06
2.17277e-06
0.200138
0.0113228
5.85157e-06
3.7912e-05
2.54844e-06
4.66832e-06
0.125409
1.817e-06
0.0287108
0.0511282
9.47732e-05
3.52255e-06
2.5311e-06
1.17541e-05
2.83706e-05
2.9475e-06
2.67141e-06
0.0114093
0.0214409
0.0632604
3.12027e-06
5.36435e-06
2.80106e-06
2.43066e-06
4.71983e-06
2.14716e-06
2.23732e-06
4.05857e-06
0.0138755
3.19792e-06
3.68728e-06
1.7693e-06
0.0272271
2.03504e-06
2.63925e-05
6.5963e-06
0.012929
3.56651e-06
0.0134806
2.90642e-06
2.33222e-06
2.17749e-06
0.000109654
1.88359e-06
2.09101e-06
2.33751e-06
0.0103513
1.73986e-06
1.75188e-06
0.00228993
0.0113767
0.0334412
0.001678
0.0116794
0.171818
0.0151409
0.163606
7.30215e-06
2.18243e-06
1.85098e-06
2.50139e-06
2.67584e-06
2.31604e-06
0.0100702
1.20947e-05
0.00278136
0.000304582
1.66336e-06
0.00502662
1.7373e-06
0.0143184
2.84047e-06
2.90789e-06
0.0218979
1.80532e-05
0.000717624
1.74441e-06
0.0108812
2.1742e-06
0.0164868
2.17255e-06
1.06991e-05
3.78099e-06
0.0530699
0.0136163
3.33983e-06
2.04417e-06