/*--------------------------------*- C++ -*----------------------------------*\
| =========                 |                                                 |
| \\      /  F ield         | OpenFOAM: The Open Source CFD Toolbox           |
|  \\    /   O peration     | Version:  v2012                                 |
|   \\  /    A nd           | Website:  www.openfoam.com                      |
|    \\/     M anipulation  |                                                 |
\*---------------------------------------------------------------------------*/
FoamFile
{
    version     2.0;
    format      ascii;
    class       volScalarField;
    location    "100";
    object      p;
}
// * * * * * * * * * * * * * * * * * * * * * * * * * * * * * * * * * * * * * //

dimensions      [0 2 -2 0 0 0 0];


internalField   nonuniform List<scalar> 
18540
(
-0.25977
0.00919182
-0.0108865
-0.280996
-0.0697221
-0.087438
-0.0702304
-0.160616
0.322832
0.0256607
0.0663963
0.0365888
-0.253588
0.0280995
-0.247345
-0.258287
-0.0918218
0.12121
-0.491955
-0.325988
0.236419
-0.200483
0.00613756
-0.191058
-0.157225
-0.0287546
-0.19884
-0.158877
-0.0891497
-0.274754
0.00895605
0.0298059
-0.19618
-0.175585
0.0140914
-0.284321
-0.205113
0.000225021
-0.0256621
0.210647
0.00784442
0.0234191
-0.473486
-0.211393
-0.156573
-0.0307169
-0.275496
-0.0106196
0.230533
-0.103955
0.0287354
0.489292
-0.332003
0.0046674
-0.0295802
-0.0908414
-0.254834
-0.428061
-0.372526
-0.0301017
-0.282359
-0.0746982
-0.0272347
-0.212547
-0.26892
-0.0144989
0.116647
0.00254862
-0.380507
-0.0259851
-0.0885589
0.161421
-0.208957
-0.430174
-0.118002
-0.167049
-0.0853682
0.00147914
0.117166
-0.230538
0.00941684
-0.384792
-5.3529e-05
-0.16895
-0.2853
-0.196696
0.0221946
0.00656824
-0.0407509
-0.1956
-0.284626
-0.236478
-0.0421759
-0.0186329
-0.0744459
0.0267268
-0.0184905
-0.122319
-0.481824
-0.217322
-0.0374508
-0.000258967
-0.22012
-0.263216
-0.25058
-0.194408
-0.0380744
-0.455341
-0.0228305
0.095714
-0.1735
-0.195485
0.0016753
-0.0150932
-0.398561
-0.0143599
-0.00273207
-0.120444
0.0137168
-0.088878
-0.495197
-0.396624
-0.304742
-0.37702
0.00358935
-0.0869663
-0.10288
0.0993879
-0.474554
-0.159284
-0.315782
-0.0190055
-0.116486
-0.20045
-0.00978112
-0.0126093
0.0637356
-0.0570312
0.0558447
-0.0152881
-0.267094
-0.212589
-0.113712
-0.223333
-0.0206307
-0.0141413
-0.101405
-0.198027
-0.0560783
-0.399998
-0.00984289
0.062387
-0.0152488
-0.401774
0.243003
0.31352
-0.393959
-0.0207928
0.00738329
-0.457484
-0.153288
-0.118843
0.0234232
-0.00953628
-0.500311
0.0365543
-0.213613
0.100398
-0.247163
-0.0274096
0.00691569
-0.0915286
-0.0316406
-0.0410754
0.00946357
-0.38303
-0.0727173
-0.312308
0.219923
-0.166342
-0.0350914
0.0687022
-0.119507
-0.232561
0.102123
-0.210085
0.0497398
-0.0669487
-0.304466
-0.000917339
-0.0901732
0.00893554
-0.194579
0.00395398
0.252999
0.00776009
-0.101888
-0.277968
-0.171643
-0.0210911
-0.0389861
-0.239815
0.0773031
-0.101308
-0.199054
-0.196029
0.0387048
-0.283357
-0.376131
-0.114333
0.0295435
-0.410284
-0.317043
0.00859277
-0.0399915
-0.116517
-0.378516
-0.0698907
-0.192909
-0.207241
-0.408626
-0.160687
-0.236166
0.30838
-0.26211
-0.50382
-0.103021
-0.112844
-0.381427
-0.138372
-0.0221966
-0.284833
-0.210819
-0.0171109
0.0233877
-0.0763835
0.0281315
0.149348
-0.151776
0.0828818
0.458289
-0.242506
-0.265306
-0.102977
-0.199429
-0.390097
0.00806655
-0.0134774
-0.0981244
0.0382549
-0.0967555
-0.373077
-0.45353
0.0640183
0.105685
-0.20593
-0.285854
0.36723
0.0358901
-0.162929
-0.189771
-0.307391
0.0561515
-0.378806
-0.266151
-0.0988761
-0.350824
-0.353978
-7.71904e-05
0.00873819
-0.440981
-0.211248
-0.462992
-0.0397636
-0.222055
-0.251118
-0.0154781
-0.140528
-0.287606
0.00997151
0.0188272
-0.24535
-0.0593946
0.0276956
0.333897
-0.0264952
0.380419
-0.136616
-0.290636
-0.217694
-0.396779
-0.203749
0.000102633
-0.000332341
-0.404559
-0.118166
-0.274082
-0.0378118
-0.36062
0.260777
0.0393045
-0.362079
-0.164809
0.195666
0.0859394
0.0184579
0.462533
-0.00934685
0.355973
0.028898
-0.161337
-0.0457078
-0.254084
-0.103271
-0.369059
0.40738
-0.243735
0.0348356
-0.235046
-0.45551
-0.302671
0.281414
0.0369282
-0.370082
-0.0574542
-0.0392584
-0.118483
-0.0114301
0.0188894
0.00579771
-0.014014
-0.208816
0.300496
0.144301
-0.305309
-0.143522
-0.0285559
0.0115885
-0.236548
0.187536
-0.113878
-0.115458
-0.0623542
0.110215
-0.287769
0.279667
0.00960506
-0.164416
-0.0698265
-0.159175
0.00518561
0.0109292
-0.40466
0.020695
0.0179742
-0.380307
0.00987329
-0.0158151
0.00443364
-0.163308
-0.120054
-0.00874272
0.0186697
-0.0322683
-0.402141
0.0157115
-0.0289284
0.0234709
-0.0273911
0.00356054
-0.253513
-0.0127295
-0.273397
0.0323739
0.0111241
-0.167666
0.0287136
-0.170778
-0.0584857
-0.184859
-0.428927
-0.00896654
-0.106701
-0.290502
0.0732409
-0.0146879
0.347424
-0.275009
0.00346658
-0.383983
-0.376526
-0.00852314
-0.0448688
-0.36553
-0.253901
0.015781
-0.402167
-0.284707
0.00356519
0.360381
-0.471839
-0.21039
-0.0682244
0.0276496
-0.11924
-0.0172737
-0.179573
-0.302855
0.0397368
-0.130746
-0.180819
-0.452497
-0.182886
-0.00855126
-0.120803
0.451512
0.0118027
-0.0920863
-0.27529
0.315592
0.13158
-0.267856
0.00345582
0.479535
-0.0131007
-0.123718
-0.0134625
0.288791
0.0612898
-0.00536617
0.00632984
-0.300703
-0.123392
-0.362665
-0.0114448
-0.882567
0.00639629
-0.0178657
-0.403398
0.0313903
0.357214
0.092401
0.316445
-0.280342
0.0300168
-0.0371579
0.047164
-0.279087
0.0359705
-0.0273055
-0.407465
-0.402112
-0.0121586
-0.01872
-0.0388571
0.0522452
-0.100768
0.0292544
-0.275938
-0.198083
-0.0695091
0.00939231
-0.118949
-0.044638
0.00723113
-0.0315894
-0.386629
-0.0750758
-0.267187
-0.217713
-0.0166904
0.0949258
-0.439662
-0.440739
0.272973
-0.0262013
-0.302356
6.91219e-05
-0.238741
-0.0183161
-0.143193
-0.0243736
-0.355639
0.0391743
-0.0757927
0.017554
-0.118332
-0.455963
0.0338468
-0.0410358
0.384555
-0.151957
0.201815
-0.291845
-0.191534
0.31197
-0.0101455
-0.309627
-0.250612
0.0635376
0.287196
0.0527083
-0.0293136
-0.0574964
0.0229189
-0.0592234
0.0163243
-0.0467915
0.195391
-0.310337
0.0391266
0.051793
0.0238611
-0.129463
-0.175434
0.0290621
-0.0790884
-0.00262967
-0.205554
0.00235661
-0.472272
0.026458
-0.135022
-0.3568
-0.117007
-0.0258738
0.0146931
-0.289085
-0.00228938
0.0210925
-0.402318
-0.236513
-0.00671651
0.00630464
0.00571012
-0.0445523
-0.346212
-0.166267
0.00751006
0.0229709
0.00972937
0.174834
-0.279483
-0.138225
-0.0758926
-0.0254759
-0.43871
-0.344683
0.084586
-0.103973
0.119552
-0.00780637
-0.21537
-0.354414
-0.0241675
-0.101444
-0.271428
-0.423387
-0.281644
-0.00351188
-0.0238691
-0.00676089
-0.0152783
0.116512
-0.0472356
-0.259065
-0.00758656
0.0372078
0.115665
0.0713106
-0.0241406
0.0230506
-0.107959
-0.0472027
0.155118
-0.446126
-0.0332353
-0.0168523
-0.0390888
-0.0123667
-0.230617
0.00824128
-0.408967
-0.167075
-0.377946
0.164629
0.0234651
0.0339944
-0.0678603
-0.292232
-0.105634
-0.022286
0.0260465
0.0380879
-0.448028
0.0353853
-0.0325486
-0.395214
-0.0441683
-0.0259357
-0.398503
-0.158744
-0.0371882
0.107409
-0.458969
0.0685342
-0.0297434
0.0279341
0.0298936
-0.162138
-0.0753586
-0.204893
-0.45922
-0.393988
0.00412242
-0.338859
0.0037094
0.0113847
-0.172456
-0.0414573
-0.29902
-0.25983
-0.0104485
-0.379713
-0.238798
-0.191521
-0.119726
-0.0696242
0.448267
-0.29851
-0.0855703
-0.170389
-0.428619
-0.391582
0.00475049
-0.0436312
0.0853718
-0.294123
-0.0255349
-0.090701
-0.296522
-0.241348
0.0550578
-0.103061
-0.455536
0.29976
0.0117334
-0.0341956
0.0295818
0.061095
-0.338608
0.00716925
0.0285954
-0.033784
0.155099
-0.213482
-0.0367505
-0.461592
-0.0395386
-0.310081
0.00762586
-0.19782
0.0536907
-0.0761156
-0.431827
-0.13643
0.0474135
-0.16835
-0.184472
0.220149
0.00555831
0.379523
-0.172055
0.180851
-0.199762
0.0479698
-0.235672
-0.210337
-0.0253478
0.0266932
0.0236922
-0.0116253
-0.166123
-0.0816736
-0.0298672
-0.0870755
-0.356029
-0.0368726
-0.0679884
0.0831609
-0.00958183
-0.195653
0.27806
-0.432557
-0.0822792
-0.25805
-0.0191518
-0.109873
-0.0662971
-0.441185
0.0464984
-0.0250466
-0.0430379
-0.0330455
-0.0182761
-0.0161355
0.408363
0.0171432
0.280756
-0.338418
-0.0274119
-0.0425666
-0.197504
-0.337801
-0.186254
0.0220056
0.00803676
0.155571
-0.00859567
-0.08705
-0.255822
0.0606431
0.00425949
0.0071497
-0.0471728
0.0964273
0.231579
0.0302714
0.0173939
-0.0435383
-0.107158
0.0902778
-0.083362
-0.120611
-0.308786
0.00912274
-0.0160951
-0.171407
-0.235651
-0.118705
-0.00317017
-0.195628
-0.500173
-0.164962
-0.0819904
-0.0834174
-0.417728
-0.0242921
-0.438505
-0.222361
-0.258622
0.00262224
0.00197871
-0.0160604
-0.00491327
-0.200395
-0.0638909
0.179269
-0.0126567
-0.0376124
-0.251069
0.00770534
-0.0121703
-0.0066414
0.369689
-0.298131
-0.0153067
0.0919047
-0.220182
-0.106057
0.00718796
0.282904
-0.174326
-0.179179
0.00148168
-0.225541
0.00156194
-0.261634
0.206554
-0.008317
-0.144952
-0.21561
0.0275
-0.503401
-0.0687879
-0.168288
0.0227015
-0.171666
-0.214234
0.243469
0.0971631
-0.102502
-0.34347
0.0187645
-0.0546403
-0.357549
-0.0746956
0.00769826
0.27928
-0.120443
-0.0855977
-0.0775203
-0.183026
0.0809081
-0.0304248
-0.237581
-0.0115649
-0.0117511
0.415662
-0.00469514
-0.0208484
0.00263679
-0.154341
-0.453159
-0.0401942
-0.0652388
-0.454529
-0.00686746
-0.331312
0.020265
-0.169299
-0.00849788
-0.031884
-0.057822
-0.311574
-0.0270943
0.227003
0.0636758
0.159777
-0.0166726
-0.0464357
-0.247655
-0.303438
0.032743
0.4189
-0.202804
0.160946
-0.233713
0.0315744
-0.0411435
0.0425151
-0.452331
-0.218764
0.00201033
-0.0207449
-0.0110096
-0.194746
0.00706366
-0.0315923
0.127931
0.0394392
-0.0330602
-0.287857
0.423907
-0.0702238
-0.0103785
-0.275543
0.00473738
-0.0766046
-0.242151
-0.225181
-0.298147
-0.0320372
-0.177239
0.00494142
-0.0691513
-0.00879815
0.0518695
-0.196877
0.299801
-0.0325696
-0.451875
0.00118099
0.104484
-0.379705
0.00584315
0.299665
0.446396
-0.0792166
-0.387089
0.00969793
-0.45517
0.0458687
-0.365507
-0.133318
0.00383221
-0.301465
-0.0586845
-0.0229732
-0.168889
0.00265494
-0.0319208
-0.293103
-0.0294719
-0.193774
0.0192915
-0.00633245
-0.142824
-0.303803
-0.0120383
-0.384548
0.0142883
0.0176455
0.0866234
0.004116
0.465763
-0.174713
0.0392907
-0.201087
-0.173761
0.00361119
0.00503789
0.0161476
-0.174975
0.060151
-0.103168
-0.419848
0.0249706
-0.382065
-0.103677
-0.174097
0.385639
0.020332
-0.397016
-0.424883
-0.208202
-0.170657
0.0189361
-0.00988946
-0.305024
0.108307
-0.192028
-0.335464
-0.0181145
-0.0611372
0.00278249
-0.06722
-0.198525
0.00269746
-0.216954
-0.082058
-0.158122
0.259119
-0.476009
-0.0149843
0.037285
0.202648
-0.226241
-0.0551739
-0.0748309
-0.380906
-0.25584
-0.0491879
-0.36259
0.0355155
-0.224621
0.0236954
-0.0250743
-0.442316
-0.166344
-0.267559
-0.165123
-0.0144208
-0.132306
0.00206496
-0.242868
-0.0206851
-0.445855
-0.067318
0.011445
-0.0206891
-0.0205626
-0.450441
-0.182466
0.0192228
-0.0122732
0.0237425
0.0041845
-0.303365
-0.209064
0.0205372
-0.279294
-0.231372
-0.0221963
0.0160852
-0.166761
-0.222082
-0.243841
-0.354926
-0.115394
-0.0174466
0.00191094
-0.173232
-0.454938
-0.20746
-0.282705
-0.0997775
-0.423144
-0.0236171
-0.183287
0.0112007
-0.0115999
-0.000480737
-0.0393636
-0.237488
-0.02597
-0.405917
-0.0144334
-0.39712
-0.0762762
-0.104057
0.342525
-0.23476
-0.120415
0.368983
0.420145
-0.0531112
0.0466552
-0.265089
-0.275888
-0.167083
0.00759516
-0.0796074
0.0210386
0.165823
0.0380959
-0.0257717
-0.172702
-0.300431
0.0277764
-0.173303
0.0177989
-0.361846
0.0467365
0.00758348
0.0156863
-0.470469
0.0184253
-0.282017
0.02777
-0.023346
-0.231499
-0.0462863
-0.191327
-0.209924
0.0233072
0.0139103
-0.423656
-0.0914334
-0.166084
-0.0285656
-0.137825
0.0583161
0.177398
-0.0304636
-0.020843
-0.122747
-0.0155833
-0.298337
-0.026234
-0.0139723
-0.021373
-0.0231441
-0.179495
-0.317014
-0.135963
0.0100424
0.00322716
-0.0409847
-0.207475
0.0245944
0.0155599
-0.153805
-0.210979
0.00155884
-0.0177547
-0.0748466
0.0454121
0.226797
-0.175606
-0.141331
-0.0270203
0.0507913
-0.0203032
0.0726056
-0.0449404
0.309372
0.0193583
0.438031
-0.192265
-0.281894
-0.0896809
-0.277045
-0.175355
0.153451
-0.0118149
-0.0866218
-0.0189249
-0.366757
-0.0212303
0.275493
-0.10132
-0.011264
-0.0656857
-0.414802
-0.279635
0.0576879
0.100367
-0.21603
-0.402744
-0.290299
-0.0102156
-0.307887
-0.231741
0.163596
-0.213299
0.0278933
0.0481035
-0.38028
-0.448294
0.182254
0.00283684
-0.471965
-0.206746
-0.299862
0.235651
-0.249027
0.0174935
-0.314165
0.230945
0.00702693
-0.0907227
-0.414888
-0.37969
0.0215732
-0.173927
-0.0220829
0.119456
-0.210108
-0.039258
0.116855
-0.083729
-0.166355
-0.098711
-0.0236872
0.049176
0.0175421
-0.165057
-0.205275
-0.279561
-0.0186252
0.0878693
-0.016974
0.0095015
-0.0306876
-0.222499
-0.231309
-0.0389083
-0.224308
0.201709
-0.478256
-0.0347679
-0.163817
-0.227702
-0.153776
0.00767678
-0.283167
0.00757607
-0.00993912
0.0111196
-0.0157221
-0.299235
0.511982
0.0171122
0.0137106
-0.394688
-0.0286855
-0.118308
0.00951252
-0.014793
-0.00917477
0.0471114
-0.174577
-0.0263748
-0.0067487
-0.204495
0.0280834
-0.0694342
0.016135
0.00978177
-0.189652
0.023251
0.0171285
0.388769
0.0117109
-0.0396426
-0.0268501
0.0535975
-0.0291847
-0.0476908
-0.461535
-0.157287
-0.269937
0.0290519
-0.160653
0.310446
-0.423623
-0.452817
-0.460754
-0.244572
-0.162225
-0.456979
-0.167271
-0.278424
-0.437899
-0.201871
-0.0256886
0.0384724
-0.00863154
-0.22639
-0.0109863
0.0135401
-0.0282293
-0.0137592
-0.0148836
-0.0246585
-0.19038
-0.242345
0.0116999
-0.335944
0.29896
-0.0512649
-0.161451
-0.0172111
0.0588965
-0.424828
0.292881
0.0222814
-0.25906
0.00933434
-0.105588
0.0105149
-0.243982
-0.286963
-0.40433
-0.47883
0.0663728
0.441898
-0.0191094
-0.469061
-0.0586033
-0.471877
0.207413
-0.289647
-0.0295989
-0.123084
0.00725885
-0.172129
-0.0490931
-0.23369
-0.364915
0.000280664
0.481276
-0.478574
-0.0250001
-0.0134697
0.00358477
-0.228495
-0.018003
-0.310679
0.169945
-0.0726161
-0.301742
-0.183113
-0.169674
-0.0217261
-0.35719
-0.0067407
-0.156224
-0.000142197
0.00991611
0.489358
-0.364234
-0.00521321
0.29871
0.0232099
0.00302499
-0.0602861
-0.0195437
0.0950889
-0.122071
-0.202269
-0.460529
-0.0276031
-0.171716
-0.280794
-0.479134
-0.439258
0.0354263
-0.0176182
0.1401
-0.0595864
-0.134818
-0.415741
-0.00329249
-0.215006
0.484763
-0.0178541
0.0177179
-0.18167
-0.434762
-0.278202
-0.109482
-0.0192286
-0.126509
-0.0239094
0.354471
-0.0470153
-0.0239688
-0.027163
-0.42708
0.138288
0.0299152
-0.235529
0.0102918
-0.0265192
-0.176087
-0.00260043
-0.0153948
-0.0120786
-0.0174221
-0.238513
-0.417908
-0.161828
0.164742
-0.0378653
-0.425404
-0.165798
-0.459656
-0.0243285
0.351141
-0.377633
-0.214832
-0.219704
-0.0104953
-0.191833
-0.0389724
-0.00693869
-0.365419
0.0576464
-0.00339763
-0.27213
-0.238959
-0.0559509
0.0773786
0.341012
-0.250358
0.0034646
0.0201593
0.473663
-0.0739993
0.0124107
-0.0808452
-0.354582
-0.0182957
-0.419265
0.281533
-0.238692
0.121112
-0.391791
-0.0216278
-0.0253861
-0.203708
0.232469
-0.166866
-0.0223283
-0.0195643
0.00568399
-0.00347658
-0.418381
-0.313828
-0.224798
-0.405556
0.132956
-0.00504864
-0.227421
-0.0267256
0.129561
0.291796
-0.0786527
-0.059993
-0.0144354
-0.0746113
-0.0578389
-0.12174
-0.188057
0.0462274
-0.223543
0.035876
0.0934443
-0.100452
0.037761
-0.173771
0.0184569
-0.187757
-0.405201
-0.24406
0.103015
-0.0548292
0.0200238
-0.0142585
-0.166798
-0.405343
-0.181938
-0.0174041
0.0231408
-0.459176
0.439152
0.0532667
-0.0107283
0.0126475
-0.0142781
-0.332428
-0.482654
-0.293815
-0.259217
-0.117314
0.00545718
-0.196296
-0.234285
0.0285915
-0.126524
-0.0878981
-0.025031
-0.0138005
0.221086
-0.392698
-0.23664
-0.161572
-0.215052
-0.0169948
0.0100714
-0.284503
-0.144791
-0.265074
-0.434118
0.0140098
0.0550661
-0.451285
-0.191646
0.131164
-0.0131915
-0.288009
0.00775595
0.00389556
-0.310929
-0.130428
-0.0588844
-0.0988467
-0.293083
-0.374633
0.0171056
-0.0242003
0.0347182
-0.0686941
-0.0390412
0.0227168
0.00279426
-0.0738122
0.422209
0.0218963
-0.0474959
0.000673741
-0.454299
-0.229565
0.028146
0.0107566
0.0272041
-0.0446935
0.0105191
-0.0248783
-0.0591763
-0.404983
-0.0374706
-0.0731254
-0.219901
0.202226
-0.216547
-0.188684
-0.0635139
0.271944
-0.449496
-0.223591
-0.294991
-0.00758991
0.0266016
-0.224777
-0.375343
-0.379929
-0.212855
-0.0219074
-0.26629
-0.290635
-0.284882
0.0744224
0.281526
-0.203396
-0.329474
-0.129378
-0.247242
-0.25012
-0.0118322
-0.00319997
-0.0565013
-0.211031
-0.204231
0.188932
0.423435
-0.407642
0.442612
-0.233803
0.129196
-0.0220618
-0.293844
-0.16216
-0.24942
-0.0327685
-0.388152
-0.0168064
-0.191493
0.031704
-0.202003
-0.0179821
0.0735241
-0.0126409
-0.281834
-0.00549836
-0.00150031
0.0973144
-0.314938
-0.255394
-0.0221008
-0.199944
-0.0664798
0.0113812
-0.226293
-0.425746
0.027041
-0.0441838
-0.249132
0.130369
0.00205454
0.0276659
0.0250457
-0.194459
0.221109
0.0339486
0.0229391
-0.445296
-0.163154
-0.452418
-0.0647804
-0.429941
0.0135151
-0.0268811
-0.0401321
-0.19669
-0.00532946
0.0230927
-0.311989
0.135641
-0.0385158
-0.180202
-0.0669963
-0.00537476
0.441522
0.362643
-0.0208096
-0.103725
-0.33693
0.0276167
-0.000468461
-0.340553
0.0316992
-0.15976
-0.0942731
-0.00163818
-0.0974401
-0.207717
0.00363274
0.189551
-0.166598
-0.017442
0.0161341
-0.362615
0.0316546
-0.272544
-0.186933
-0.0236926
-0.270946
-0.14647
0.0177606
0.511232
-0.211797
0.0275571
-0.103273
-0.209435
0.248805
-0.43961
-0.0189118
-0.469106
-0.0780365
-0.0548044
-0.0352289
0.00312996
0.373129
0.513258
0.0501911
-0.023081
-0.0208259
0.00509565
0.0291512
-0.192565
-0.0845742
-0.248609
-0.0711193
0.060842
-0.363108
-0.171501
0.0219298
-0.0433017
0.436436
-0.282521
-0.416023
-0.11867
0.0277711
-0.0187882
0.314408
-0.221821
0.270842
-0.429734
0.436782
0.434443
-0.0873704
-0.197017
-0.00850612
-0.171825
0.201708
-0.0341
-0.0276094
0.0222098
-0.429993
-0.235424
-0.280738
0.0882997
-0.161712
-0.0264073
-0.0362099
-0.0222183
0.0181667
-0.0322931
-0.00577719
0.120675
-0.435348
0.042785
0.213522
-0.316385
-0.224701
0.0157249
-0.0369846
-0.0169737
-0.211669
-0.00112554
-0.0644278
-0.117416
0.122241
0.137298
0.266077
-0.0472944
-0.057457
-0.265137
-0.294028
-0.169132
0.0478893
-0.172118
-0.0166287
-0.0667216
-0.033816
-0.264633
0.239876
-0.0411041
0.0123218
-0.315966
0.0152735
-0.0629843
0.0928998
-0.0343368
-0.0092158
0.00293061
-0.167434
-0.0407078
-0.22279
0.0204906
-0.16727
-0.0958771
-0.271498
0.0947809
-0.0950167
0.204903
0.0481856
-0.028973
-0.361971
-0.10513
-0.226959
0.0334392
-0.188146
0.194583
-0.149517
-0.195134
0.477858
-0.219265
-0.00764672
-0.262641
-0.153309
-0.0318035
-0.217683
-0.105845
0.194052
-0.224447
0.127239
-0.15119
0.120739
0.100361
-0.206358
-0.0617421
0.0179849
-0.0096473
-0.334852
-0.407249
-0.199941
-0.448564
-0.163187
-0.00596638
-0.262135
-0.191841
0.257906
-0.471738
-0.316639
-0.215068
0.124544
0.0318467
-0.000139861
-0.0614088
-0.0383371
-0.0282431
0.288127
0.00114668
-0.00694776
-0.283338
-0.0452795
-0.167022
0.033705
-0.36038
-0.450166
0.259754
-0.256959
0.124343
-0.0955733
-0.340764
-0.21869
-0.0276111
0.0127989
-0.230792
-0.186469
-0.00687778
-0.318162
0.0262004
-0.0268045
-0.150022
-0.420266
-0.27735
-0.391837
-0.00619262
0.0318142
-0.0255535
-0.0200344
-0.00744541
0.236631
-0.219722
-0.375321
-0.0755762
0.0655829
-0.320241
0.0031039
-0.0185521
-0.136988
-0.0860769
-0.167093
-0.166418
-0.118667
-0.27373
0.00891789
-0.16636
-0.240222
-0.0398831
-0.099281
0.120314
-0.330733
0.0358228
-0.00672474
-0.0164952
-0.106147
-0.231613
-0.137774
0.00507458
0.0201723
0.0262019
0.00404248
-0.245231
-0.426682
-0.259794
-0.140489
-0.471238
0.479744
-0.0262975
-0.131652
-0.0375921
-0.361047
0.308651
-0.0856871
-0.210966
-0.188143
-0.0358016
-0.0744136
0.294651
0.00120749
-0.0108552
-0.379667
-0.00875847
0.0187147
-0.0203512
-0.39382
-0.212038
0.00738509
0.233825
-0.147402
-0.359851
0.0238324
-0.380299
0.165394
-0.264663
-0.162663
-0.416209
0.489344
-0.00628197
0.00858535
0.0339143
-0.34319
0.336441
0.0343534
-0.280047
-0.276891
-0.257586
0.470022
0.00795868
-0.338305
-0.387659
0.0491248
0.123227
-0.190502
-0.103987
-0.439111
0.0139873
-0.425436
0.0206296
0.165316
-0.319261
-0.141878
-0.0280183
-0.0151402
-0.359094
-0.015174
-0.0131342
-0.195607
0.0133314
-0.221255
-0.244001
0.373581
-0.0342921
0.237349
-0.199279
-0.0150699
-0.185428
-0.00712778
0.13153
0.0109531
-0.209086
-0.267786
0.000150313
-0.240811
0.0189097
-0.359179
-0.254199
0.503393
-0.0313987
-0.353725
-0.344397
-0.219542
-0.253288
0.0292022
-0.377745
-0.41991
0.00111203
-0.416123
0.205926
-0.148215
-0.211237
0.190209
-0.321565
0.376944
0.152286
-0.0763428
-0.265632
-0.370441
0.0493156
-0.201554
-0.292046
0.484505
0.162148
-0.501558
-0.0701879
-0.00599716
0.0107539
-0.384831
0.0235369
0.0123331
-0.133094
-0.0483291
0.00577873
-0.165146
0.0235516
-0.204369
-0.171271
-0.0774804
-0.216713
-0.23466
-0.0151553
-0.225495
0.0136067
-0.0309005
0.332615
-0.296279
-0.023432
-0.184101
0.174147
-0.00352539
-0.0486524
-0.0185089
-0.00914613
-0.0130175
-0.105669
0.110152
-0.148604
-0.145082
-0.103837
-0.0804253
-0.200146
-0.0571797
-0.382142
-0.209871
0.0163611
-0.0208246
0.261821
-0.24887
-0.446688
0.368056
-0.22837
-0.133563
-0.0650062
-0.388435
0.0040112
-0.147724
-0.225995
0.0157983
-0.428743
-0.028978
0.0282935
0.230916
-0.00776472
-0.0781202
0.0879699
-0.415498
-0.147755
-0.369671
-0.45762
-0.0402725
0.13227
0.136473
-0.0348968
-0.0126827
-0.0221774
-0.163953
0.00326166
0.00704457
0.445366
-0.174208
-0.0203867
0.0358675
-0.00502096
0.0294842
-0.0217536
0.000608625
-0.0193779
-0.101476
-0.362454
0.190972
-0.344239
-0.22467
0.0497697
0.269965
0.0063669
0.0130825
-0.0791927
-0.250919
-0.291995
-0.0784203
-0.073484
-0.0278732
0.0989007
-0.236248
0.0236962
-0.101369
0.0232303
0.0255885
-0.163464
-0.171325
-0.0323278
0.00508739
-0.0140259
-0.169494
-0.263757
0.0801945
0.00589922
-0.0978245
-0.188291
-0.183682
-0.311461
0.0271375
0.0064713
0.0159872
-0.141895
-0.0217182
-0.237613
0.318175
-0.208698
-0.0748524
-0.0399174
0.0270092
0.36304
0.00918923
-0.432034
-0.0129426
0.0219801
0.249411
-0.0067157
0.158595
-0.0724306
-0.0253902
-0.383797
-0.0102972
-0.0952713
0.017007
-0.325567
-0.00321706
0.320291
-0.0130733
-0.0344821
0.0227174
-0.0523338
0.024722
-0.00802225
-0.44369
-0.00134684
-0.281545
-0.378952
-0.14834
-0.357384
-0.19579
-0.20605
-0.208871
-0.164926
-0.336128
0.016641
-0.0156093
0.0254656
-0.221004
-0.165675
0.47386
-0.166295
-0.368863
0.0829335
-0.192284
-0.24876
-0.361887
-0.450568
0.217074
-0.473762
0.0166065
0.00131612
-0.202941
-0.204703
-0.294193
0.0495272
-0.0400247
-0.211482
-0.00493646
-0.391736
-0.231927
0.0277242
0.0226608
0.00291533
-0.46627
0.0041232
0.0483252
-0.272945
-0.0678484
-0.199513
0.492302
-0.170752
0.0270316
-0.0586091
0.14511
0.505593
-0.507474
-0.142741
-0.223441
-0.150229
-0.0218917
0.424277
0.0121197
0.172713
-0.0105554
-0.0107218
-0.203454
0.175153
0.00954674
-0.147351
0.237541
-0.333497
-0.412825
0.0208636
0.0133734
-0.288056
0.023769
0.418286
-0.191374
-0.414316
-0.0445966
-0.161857
-0.467414
-0.247066
-0.00856395
-0.22192
-0.273848
-0.372293
0.36482
0.00398192
-0.3686
-0.311427
-0.180886
-0.28858
0.0814932
-0.272166
-0.347432
0.01464
-0.026189
-0.0857924
0.012214
-0.262553
-0.441384
-0.189707
0.0891915
0.0126254
0.00136546
-0.00448852
-0.16747
-0.164418
-0.253401
-0.0663907
-0.229565
0.497713
-0.0637893
-0.109577
0.196702
0.428392
0.0305908
0.17826
0.00413986
-0.0198117
-0.205009
-0.377111
-0.12354
-0.132535
-0.135893
0.0112019
-0.0121714
-0.0162098
0.146517
0.450781
0.14386
0.207565
-0.0232261
-0.0419248
-0.0320228
-0.037825
-0.0461473
-0.460343
-0.196746
0.165644
0.275932
-0.280945
-0.130452
-0.116727
0.265712
-0.00601364
0.426179
-0.260096
-0.0980224
0.0869436
0.0187226
-0.440467
-0.347399
-0.00514367
-0.18604
-0.061011
-0.326614
0.201577
-0.00571815
-0.344594
-0.433434
0.0133058
-0.268452
-0.453868
0.309752
-0.0509179
-0.252465
-0.230438
-0.447795
-0.377898
-0.462279
-0.465097
0.0122175
0.0300716
-0.309682
0.00181755
-0.45532
-0.407021
0.00209092
-0.0390229
-0.0118363
-0.17205
-0.338976
0.0127547
0.012188
-0.0222583
-0.114471
-0.363625
-0.196539
-0.217461
-0.0191301
-0.394136
0.197787
-0.0274684
-0.123071
-0.0925382
-0.42224
-0.166545
-0.3079
0.00740449
-0.304583
-0.0887243
-0.2734
-0.0235057
0.0304487
-0.0165469
0.443131
-0.076389
-0.434181
-0.25972
-0.0791454
0.0302969
0.00165353
-0.239584
-0.187396
0.0130243
-0.0538371
0.414562
-0.0216424
-0.325227
-0.296333
-0.419209
-0.399325
0.0156381
-0.02239
0.0356903
0.00246578
0.360913
-0.342521
-0.285067
-0.170286
-0.0223943
0.131794
-0.00755935
0.00950739
-0.160404
-0.167138
-0.0595395
-0.163521
-0.407953
-0.29403
-0.20153
-0.306239
-0.250704
-0.175727
0.0129854
0.105359
-0.362639
0.0344911
0.00267288
0.0740975
-0.423082
-0.197107
-0.404834
0.424275
-0.0766329
-0.0116155
-0.192974
-0.199895
-0.206235
-0.0478942
-0.303443
0.0181532
-0.462146
-0.326924
-0.30017
0.0384398
-0.255885
-0.251082
0.140538
-0.25482
-0.0993311
-0.310366
0.00646358
-0.184771
0.0362671
0.0266371
-0.160299
-0.456481
0.175059
-0.216223
-0.0120112
-0.206322
-0.374742
-0.0585815
-0.47547
-0.0425201
-0.273703
0.00129505
-0.00995255
-0.282591
-0.00416337
-0.183416
-0.147896
-0.211779
-0.0588448
-0.255145
-0.395743
-0.254598
-0.0186088
-0.31417
-0.48171
-0.373426
-0.0443849
-0.274956
-0.234743
-0.44505
-0.0348917
0.436093
-0.0200056
0.0300925
-0.292746
-0.00937191
-0.127127
-0.263612
-0.281516
-0.0650631
-0.391708
0.0284286
-0.236965
-0.248665
-0.0215642
-0.303286
-0.423346
-0.0033008
0.498676
0.0164512
-0.0650832
-0.133094
-0.0643946
0.015601
0.485114
0.0491223
-0.239266
-0.425691
-0.285778
-0.218454
0.00451921
0.16875
-0.36968
0.0198547
-0.138803
0.261756
0.357639
-0.188949
-0.166877
-0.195402
-0.0380879
-0.312229
-0.250695
-0.244372
-0.199995
0.00672195
0.00609488
0.00564831
0.0199257
-0.25706
0.019381
-0.395026
-0.351053
-0.403301
-0.352111
0.000436197
0.2809
-0.0289945
-0.276658
0.00951339
0.0347096
-0.350831
-0.0522906
0.309478
-0.0404735
0.0107619
-0.392532
0.445805
-0.323683
-0.313845
-0.108357
-0.405528
0.406985
0.213276
-0.178163
-0.212237
-0.0271014
-0.0463912
0.0244067
-0.13792
-0.166222
-0.468771
-0.457222
-0.260677
-0.332699
-0.017425
0.469327
-0.42597
-0.273405
-0.117994
0.034862
-0.258969
-0.0213686
-0.304866
-0.170965
0.028375
-0.194515
-0.190228
-0.449645
0.026451
-0.0152784
-0.0162452
-0.427535
-0.200155
-0.00138265
-0.358393
-0.318679
0.00102523
-0.193878
0.0648243
-0.0168659
-0.0755112
-0.00260612
0.00347033
-0.406391
-0.367757
0.296328
-0.278429
0.0160977
-0.207785
-0.358497
-0.0243838
-0.216068
0.304939
0.00742571
-0.19083
-0.131526
-0.220716
-0.0670307
0.0918076
-0.00351171
-0.1958
-0.130578
-0.388252
0.0225332
-0.220663
0.202286
0.0304375
-0.198766
-0.0457852
0.04939
0.0134521
-0.295295
0.16641
-0.142311
-0.0689168
-0.391615
-0.106069
-0.279245
-0.18097
-0.260456
0.0223947
-0.409841
0.035206
0.151603
0.0217287
-0.278953
-0.0981112
-0.0156356
0.0113382
-0.240111
-0.0349515
-0.0720396
-0.167466
-0.298769
-0.30257
-0.245342
-0.450804
-0.364712
-0.323874
-0.496196
-0.196805
0.020513
-0.0793951
0.0269924
-0.00255798
-0.134764
-0.209229
0.016143
-0.166084
0.370369
-0.0408048
-0.273355
-0.0662913
-0.259825
0.0100178
0.0159304
-0.174943
-0.264115
-0.255146
-0.021431
-0.274152
0.0165912
-0.285825
-0.00639012
0.225104
-0.194346
-0.454061
-0.253909
0.027475
-0.0186997
-0.010715
0.02729
0.0748913
-0.19485
-0.0876061
-0.0961898
-0.0882139
-0.00845062
-0.0166972
-0.164399
-0.110671
0.00224031
-0.255745
-0.376414
0.0267532
0.0256457
0.0349616
-0.253714
0.107187
-0.37285
0.00300729
-0.279961
-0.132854
-0.165875
-0.25893
-0.0781024
-0.384824
-0.0182672
-0.229785
0.429039
-0.0750744
0.000377783
0.103687
0.0218949
-0.0332562
0.0229365
-0.333912
-0.25421
0.295319
-0.0585026
-0.474111
0.00557679
0.0256713
0.162383
-0.165459
-0.0189399
-0.00577169
0.000312909
-0.0618826
0.269761
-0.468156
-0.198278
-0.0486061
-0.146598
-0.302686
-0.159035
-0.0391773
-0.0221085
-0.215757
-0.126886
-0.263234
-0.288009
-0.219499
-0.0212054
-0.340757
-0.287149
-0.144491
-0.324773
-0.242058
-0.0182346
-0.015743
-0.288225
-0.0854346
-0.373584
-0.297016
-0.448604
0.0195489
-0.422619
-0.00890691
0.0574755
5.71189e-05
-0.36076
-0.0599331
-0.352216
-0.0242784
0.336295
-0.223493
-0.352115
-0.165511
0.132037
-0.295912
0.034299
0.0377845
0.0106119
-0.019987
-0.194526
-0.259927
-0.0049524
-0.433119
-0.311139
-0.259593
-0.153608
-0.161154
-0.184922
0.208998
-0.319841
-0.31058
-0.0918875
-0.188508
0.166344
-0.250346
-0.00985088
-0.0611308
-0.319603
0.125294
0.0270655
0.00950728
-0.316536
-0.0355294
-0.159129
-0.00999529
-0.227085
-0.0947865
0.196711
0.0867513
-0.265952
-0.142956
-0.214632
-0.065853
-0.0105936
-0.0187109
-0.285956
-0.346351
-0.347554
-0.259797
0.111217
-0.166924
-0.0713717
0.424528
-0.139623
-0.301837
-0.330138
0.00417207
-0.291086
-0.386617
-0.439502
-0.115903
-0.310346
-0.168121
-0.0611379
-0.194844
-0.159261
-0.20725
-0.396989
-0.0648291
0.137374
0.227086
-0.0723043
-0.0043867
0.274364
0.36808
-0.170646
-0.0460161
-0.217461
-0.0726504
0.0522672
-0.0848509
-0.0360802
0.0254717
0.488202
-0.27464
-0.474473
-0.0417075
-0.0302937
-0.0301954
0.0473843
0.126464
-0.0478731
-0.415386
-0.315298
-0.376356
-0.212108
0.00526621
-0.15867
-0.447507
-0.0581633
-0.206836
-0.184334
-0.301264
0.00899521
-0.0401234
-0.448457
-0.331316
0.249361
-0.13306
0.00562358
-0.267553
-0.0535885
-0.0779505
-0.126388
-0.23826
-0.0147456
0.00293058
-0.367057
-0.164284
-0.166098
-0.460763
0.408336
0.403903
-0.0121889
0.42698
-0.43671
0.172362
-0.427669
-0.220497
0.146663
-0.456034
-0.21232
-0.0460517
-0.0892115
-0.083169
0.00962752
-0.190824
-0.143677
-0.41444
-0.219222
-0.215432
0.0782818
0.222522
0.291804
-0.0204628
-0.144501
-0.0714623
-0.00911468
-0.10292
-0.00779389
-0.100313
-0.159221
-0.167027
-0.458604
-0.230006
-0.273535
-0.193602
-0.0419457
0.00505077
-0.331507
-0.0200545
-0.267263
-0.156612
-0.166347
-0.0715739
-0.164873
-0.125788
-0.405534
0.0212604
-0.342467
-0.163627
-0.0147506
-0.322015
-0.446625
-0.280455
0.460437
-0.362795
-0.089101
-0.305362
-0.44793
-0.34638
0.0329932
-0.289084
-0.0182252
-0.203056
-0.252114
0.11783
0.286067
-0.149468
-0.406711
-0.15205
0.0065058
0.000352328
-0.0157174
-0.204547
-0.323402
0.033189
-0.151595
0.00598306
-0.394074
0.152256