/*--------------------------------*- C++ -*----------------------------------*\
| =========                 |                                                 |
| \\      /  F ield         | OpenFOAM: The Open Source CFD Toolbox           |
|  \\    /   O peration     | Version:  v2012                                 |
|   \\  /    A nd           | Website:  www.openfoam.com                      |
|    \\/     M anipulation  |                                                 |
\*---------------------------------------------------------------------------*/
FoamFile
{
    version     2.0;
    format      ascii;
    class       volVectorField;
    location    "100";
    object      U;
}
// * * * * * * * * * * * * * * * * * * * * * * * * * * * * * * * * * * * * * //

dimensions      [0 1 -1 0 0 0 0];


internalField   nonuniform List<vector> 
18540
(
(0.327276 0.052666 0)
(1.00002 -0.000713999 1.6482e-21)
(1.0194 -0.0166509 2.31179e-21)
(-0.0897691 0.0095055 0)
(1.08455 -0.0133509 -7.90624e-21)
(1.10351 0.00921748 1.08434e-20)
(1.08504 -0.0119494 1.99139e-20)
(1.17056 -0.0314608 0)
(0.63258 -0.100251 5.80347e-20)
(0.994609 -0.0506952 -2.28447e-22)
(0.953435 -0.0852022 -8.89755e-21)
(0.988181 -0.0150541 9.34459e-21)
(-0.134313 0.000368922 -6.08909e-20)
(0.994186 -0.0179988 -5.69817e-21)
(0.202577 0.0500347 -4.22603e-22)
(1.20466 0.0318889 0)
(1.07863 -0.269992 0)
(0.896067 -0.0763991 0)
(0.00558225 0.0464646 0)
(0.392158 0.0348481 2.96679e-20)
(0.7613 -0.000635223 -3.06719e-20)
(1.20174 -0.0905958 0)
(1.00185 -0.00564682 3.17009e-22)
(-0.0672659 -0.00267843 0)
(1.16722 -0.0309106 0)
(1.03735 -0.175312 0)
(-0.10105 -0.00518407 6.45074e-20)
(1.16904 -0.00611709 1.97795e-20)
(1.1046 -0.00379794 -2.07937e-20)
(0.820901 0.0484076 2.50416e-20)
(1.00007 -0.000893075 -2.93455e-21)
(0.994292 -0.0114057 0)
(1.20145 0.0276324 -2.07392e-20)
(0.0150414 -0.0027841 -1.76587e-20)
(1.00131 -0.130002 0)
(-0.105201 0.00646378 0)
(1.2059 -0.0926957 3.59349e-20)
(1.00723 -0.0102124 1.05296e-22)
(1.03298 -0.00944542 -3.6678e-21)
(0.718201 -0.338244 0)
(1.00011 -0.00131763 6.55306e-22)
(0.998121 -0.0100319 1.15192e-20)
(-0.23708 -0.0251353 0)
(0.516239 0.076253 1.69019e-20)
(1.16705 -0.00804775 -1.69293e-20)
(1.04017 -0.170416 0)
(1.09281 -0.622727 -4.0316e-20)
(1.01891 -0.0160839 -1.39507e-21)
(0.769283 -0.0077094 -5.94116e-20)
(1.11912 -0.00425842 -1.41263e-20)
(0.993753 -0.0177693 -5.05521e-21)
(0.0508974 0.247038 0)
(0.352266 0.0308129 0)
(1.00015 -0.000672114 0)
(1.04216 -0.142791 1.26823e-21)
(1.10691 0.0147686 0)
(-0.142906 -0.00160956 5.86924e-20)
(-0.112687 -0.0199441 -6.97114e-20)
(-0.276037 -0.0247064 0)
(1.03763 -0.00113558 0)
(-0.215028 -0.016908 4.09117e-20)
(1.08987 -0.0446945 0)
(1.04112 -0.131112 5.48471e-21)
(1.17147 -0.322729 0)
(0.381207 0.0546921 7.93362e-20)
(1.02487 -0.022782 3.12834e-21)
(0.847619 -0.314845 -1.94439e-20)
(1.00163 -0.00110891 4.20451e-22)
(-0.284562 -0.0246758 -2.69765e-20)
(1.03295 -0.00790458 4.85508e-21)
(1.10461 0.0144303 0)
(0.846006 -0.117115 1.89381e-20)
(1.21223 0.0200471 0)
(-0.0856301 -0.0214077 1.13662e-19)
(1.13319 0.024992 2.54578e-20)
(1.13285 -0.322787 6.53161e-20)
(1.07366 -0.262758 0)
(1.00257 -0.000881286 5.72129e-23)
(0.901206 -0.0765741 5.41585e-21)
(1.21059 -0.221543 1.53299e-20)
(1.009 -0.0926209 -4.8944e-22)
(0.874323 -0.0770945 0)
(1.00703 -0.0093141 0)
(1.17811 0.0569205 -1.47251e-20)
(-0.215155 -0.015378 0)
(0.20726 0.0552813 -3.45152e-20)
(0.997553 -0.0338973 0)
(1.00132 -0.00472961 0)
(1.05618 -0.102343 0)
(0.201028 0.0545136 5.28285e-20)
(1.26241 -0.192769 9.62278e-21)
(1.23427 -0.0592423 9.07695e-20)
(1.04537 -0.206937 -3.83352e-21)
(1.02311 -0.00120321 -1.07186e-22)
(1.08949 -0.0217953 -3.97138e-22)
(0.99369 -0.0520796 8.51449e-21)
(1.03562 -0.0898935 8.05089e-21)
(1.13474 -0.051249 5.19592e-20)
(0.136266 0.152741 -8.01555e-20)
(0.056918 -0.0153341 -1.5532e-20)
(1.04913 -0.0192274 4.16806e-21)
(1.00433 -0.000630733 1.73626e-23)
(1.20197 -0.219527 -4.85858e-20)
(1.16254 0.0334066 0)
(-0.183823 -0.0124415 -1.63227e-20)
(1.20008 0.0254032 0)
(1.05008 -0.0200394 1.00959e-20)
(-0.0350748 -0.034249 1.66903e-19)
(1.03689 -0.13105 -4.40216e-21)
(0.926344 -0.0466443 0)
(0.0315995 -0.0068291 -6.65263e-21)
(-0.0574689 0.0106849 3.11511e-20)
(1.00238 -0.000977717 0)
(1.03027 -0.122155 -2.3796e-21)
(0.157177 -0.00697713 -5.19229e-20)
(1.02359 -0.168623 1.45274e-21)
(1.01023 -0.184406 5.1567e-22)
(1.13318 -0.0529356 -6.39293e-22)
(1.00205 -0.126231 0)
(1.1048 0.0078071 1.30185e-20)
(0.049392 0.0505359 -1.24487e-19)
(0.793003 -0.0876776 2.193e-20)
(-0.234484 -0.0188404 4.29644e-20)
(0.534707 -0.0061648 -1.80117e-20)
(1.0039 -0.0076238 1.64741e-21)
(1.10246 -0.00313957 2.1243e-20)
(1.11874 0.00905915 1.53624e-20)
(0.909488 -0.158008 7.43304e-21)
(-0.245206 -0.0250492 0)
(1.12356 -0.328527 -6.24952e-20)
(1.25547 -0.375263 4.95125e-20)
(1.0286 -0.168616 1.2322e-21)
(1.13185 0.0236065 0)
(0.639936 0.0808953 -8.32942e-21)
(1.01815 -0.0161643 0)
(1.01671 -0.00188839 -4.68386e-21)
(0.956498 -0.0840229 1.76163e-20)
(1.07129 -0.108868 0)
(0.96842 -0.0294338 4.636e-21)
(1.02557 -0.0225675 -1.53432e-21)
(0.384481 0.0545518 2.53699e-20)
(1.21508 -0.0286191 -4.11123e-20)
(1.12826 -0.0136026 -1.94759e-20)
(0.0809363 -0.0174698 -1.51225e-20)
(1.02914 -0.01598 4.48693e-21)
(1.02057 -0.0113067 6.87095e-21)
(1.11743 0.0105401 1.32782e-20)
(0.606262 0.0810179 0)
(1.07019 -0.112247 0)
(0.75556 -0.0802192 -2.41222e-20)
(1.01576 -0.00971751 0)
(0.961358 -0.0385399 3.91019e-22)
(1.02355 -0.0163943 1.22351e-21)
(0.104306 -0.00743239 -9.69747e-20)
(0.586977 -0.46774 0)
(0.64734 -0.0943404 0)
(0.775797 -0.0659711 0)
(1.0295 -0.0166042 1.65629e-21)
(1.00747 -0.0255795 -2.63933e-21)
(0.0171283 -0.043322 -1.61772e-19)
(1.16467 0.0231079 0)
(1.13332 0.00725166 -3.35881e-21)
(0.999866 -0.0016554 4.56137e-21)
(1.01771 -0.0156107 0)
(-0.209234 -0.00682936 0)
(0.98833 -0.0142508 -7.68995e-21)
(0.58101 0.0778582 3.3465e-20)
(0.909305 -0.150873 -7.62884e-21)
(0.233763 0.0540253 -2.69325e-20)
(1.04007 -0.0306293 0)
(1.00127 -0.00484517 0)
(1.10702 0.000863951 0)
(1.0481 -0.0824625 0)
(1.05673 -0.0994947 -6.50655e-21)
(1.00886 -0.0508001 -1.06358e-21)
(0.398873 -0.00768745 4.23833e-20)
(1.08772 -0.0443649 0)
(-0.071607 0.00944721 0)
(0.60793 -0.486843 0)
(1.04855 -0.560849 5.00434e-20)
(1.0509 -0.0976954 0)
(0.935116 -0.196579 1.63842e-20)
(1.13414 0.00895725 -5.83838e-21)
(1.23123 -0.0572928 -1.16916e-19)
(0.919376 -0.0451159 -1.47669e-20)
(-0.125088 -0.00437802 0)
(0.972494 -0.0512276 0)
(1.08177 -0.0260292 -7.13275e-21)
(1.30151 -0.0843157 5.20654e-20)
(1.00949 -0.178384 -1.63442e-22)
(1.1056 -0.000346146 -1.06105e-20)
(1.00941 -0.0897679 1.5104e-21)
(-0.0835888 -0.0080741 0)
(1.00363 -0.00754036 -1.28548e-21)
(0.726227 0.139464 0)
(1.00706 -0.0250611 0)
(1.11773 0.0144721 -1.4269e-20)
(1.28101 -0.0141937 4.88429e-20)
(1.18037 0.0559519 -3.55915e-20)
(1.03657 -0.11926 1.66483e-21)
(1.0484 -0.166229 -5.29333e-21)
(1.23556 -0.0771699 8.79825e-20)
(0.932464 -0.162247 -2.13197e-20)
(1.1166 -0.00350597 7.2101e-21)
(0.261627 0.0620623 -4.12606e-20)
(-0.0477739 0.0134081 3.75004e-20)
(0.986251 -0.0155289 -4.23336e-21)
(-0.111033 0.00543362 0)
(-0.10389 -0.00483463 -2.80318e-20)
(1.12822 -0.0268477 5.46096e-21)
(0.994593 -0.0109613 0)
(-0.266346 -0.0226506 -6.75712e-20)
(-0.0892946 0.00629878 1.03973e-23)
(1.00068 -0.00408705 0)
(1.04404 -0.201339 0)
(1.12923 -0.0562547 0)
(0.464231 -0.00545672 1.84478e-20)
(1.01191 -0.414216 0)
(-0.0740822 -0.0031504 -2.30677e-20)
(0.900051 0.0794253 -5.78649e-20)
(-0.275959 -0.0227401 1.34125e-19)
(1.1536 -0.204595 1.53304e-20)
(0.802402 0.0717048 0)
(0.660406 -0.0197006 9.45805e-20)
(1.1051 -0.599883 7.45793e-20)
(-0.186382 -0.013836 4.4442e-20)
(1.11677 -0.0667494 0)
(1.12715 -0.0250869 -1.8027e-20)
(-0.280197 -0.023369 -3.08756e-20)
(1.15119 0.00255829 0)
(1.03904 -0.0902543 -2.60281e-21)
(1.28159 -0.0653415 -4.56259e-20)
(1.21346 0.0230964 3.80575e-22)
(1.03393 -0.0924486 -3.59775e-21)
(0.999926 -0.00133485 0)
(1.09153 -0.0170859 -1.21762e-20)
(0.995601 -0.0105436 0)
(0.86856 -0.00900383 0)
(1.1634 0.0207513 0)
(0.925959 -0.162511 2.02276e-22)
(0.340319 -0.0943106 0)
(1.1725 -0.433433 9.14931e-20)
(1.2375 -0.23434 -4.09971e-20)
(1.11667 -0.0646598 -2.17433e-20)
(0.275739 0.0639205 4.71107e-20)
(-0.133552 -0.00972541 6.64291e-20)
(1.00012 -0.00130987 1.63803e-21)
(1.02018 -0.012127 0)
(1.11146 -0.0798354 0)
(0.984149 -0.0353698 1.08284e-20)
(1.07742 -0.288925 8.29959e-21)
(-0.125849 -0.00586732 6.3085e-20)
(-0.259031 -0.0261424 5.50307e-20)
(0.959647 -0.0393666 -1.43084e-20)
(0.915634 -0.0452852 0)
(1.1646 -0.329762 5.54302e-20)
(1.27842 -0.085132 0)
(0.49324 -0.256358 6.09312e-20)
(0.989004 -0.0138965 -7.5804e-23)
(-0.0184033 0.0266544 0)
(1.15211 -0.323545 -2.6646e-20)
(0.0472798 0.0234322 -2.15158e-20)
(0.96922 -0.0182952 -2.90311e-20)
(0.999982 0.588853 -3.59991e-20)
(-0.204421 -0.0144816 0)
(1.11238 -0.0779946 1.89283e-20)
(0.6609 -0.000261829 -9.82603e-20)
(0.323874 0.0157042 0)
(1.0073 -0.00986509 8.85511e-24)
(1.00076 -0.00444575 -9.26238e-22)
(-0.285929 -0.0260105 6.61063e-20)
(-0.124261 -0.00287571 0)
(0.65156 0.368732 1.13151e-19)
(1.05472 -0.0460477 -1.25711e-20)
(1.22361 -0.00376864 -8.16578e-20)
(0.144451 0.0434189 0)
(1.02355 -0.0157479 4.43589e-21)
(1.15129 -0.0571137 3.04262e-20)
(1.26357 -0.199341 4.80681e-20)
(1.00528 -0.023422 4.95898e-21)
(0.999783 -0.00617878 3.83678e-21)
(0.235705 0.0523735 3.28697e-20)
(1.07495 -0.0509152 -1.89526e-21)
(0.995866 -0.0106133 -7.90496e-21)
(0.246118 -0.557028 -6.13058e-20)
(1.03365 -0.00793954 -1.10888e-20)
(0.383272 0.361921 -1.30332e-19)
(1.14955 0.000715547 1.75669e-20)
(-0.100999 0.00709108 0)
(1.2199 0.0160512 0)
(0.10695 -0.00487755 0)
(0.952026 0.0805461 5.29012e-20)
(0.998313 -0.230298 -7.35006e-22)
(1.00719 -0.00908108 0)
(0.706704 -0.0802176 9.57375e-20)
(1.1336 0.0318898 -1.23658e-20)
(1.2792 -0.0146173 -4.53745e-20)
(1.04663 -0.170991 1.13432e-20)
(0.956912 -0.0511104 -6.65992e-20)
(0.712472 0.137868 0)
(0.983577 -0.0314349 0)
(-0.271916 -0.0231008 0)
(1.17834 0.0780119 -4.44851e-20)
(0.790315 -0.188245 4.72566e-20)
(0.873226 -0.341746 -1.70225e-20)
(0.999713 -0.015182 0)
(0.319971 -0.104723 0)
(1.0153 -0.00980451 -1.1586e-21)
(0.511954 -0.269833 5.64469e-20)
(0.994964 -0.0110702 0)
(-0.0114087 0.014339 -2.56757e-20)
(1.0583 -0.0167222 0)
(0.122607 0.0407184 0)
(1.11902 0.012981 0)
(1.28522 -0.2814 7.33661e-20)
(0.237584 0.3984 -4.41713e-20)
(0.169478 0.0474679 -1.31627e-20)
(0.991178 -0.00833049 -7.69653e-21)
(0.864776 0.0680399 0)
(-0.197776 -0.0270287 -1.21026e-19)
(-0.22322 -0.0152751 -1.85433e-20)
(0.519255 -0.461304 -4.38157e-20)
(0.985455 -0.0352346 0)
(-0.282742 -0.0248914 0)
(1.07282 -0.0538772 3.10447e-21)
(1.04986 -0.00250115 4.56317e-21)
(1.13308 0.00304566 0)
(1.02673 -0.121505 0)
(0.99954 -0.0175103 6.06694e-21)
(1.00578 -0.015495 -7.42248e-22)
(1.0207 -0.0119809 -3.5749e-21)
(1.21178 -0.0311277 3.44909e-20)
(0.593521 -0.31198 -6.08443e-20)
(0.874148 -0.0119521 -5.99147e-20)
(1.2456 -0.384259 -4.87302e-20)
(1.1124 -0.323865 1.29293e-20)
(1.04111 -0.0299975 -7.02892e-21)
(1.00055 -0.00506092 -1.20857e-21)
(-0.167338 -0.0107381 3.18503e-20)
(0.798279 -0.196677 0)
(1.12665 -0.0571762 0)
(1.12948 -0.0158382 -2.30535e-20)
(1.07693 -0.0257225 1.32956e-20)
(0.850741 -0.329238 0)
(1.27308 -0.1301 3.64183e-20)
(0.604852 -0.355958 3.00343e-20)
(1.00537 -0.0226461 -2.05153e-21)
(1.15585 -0.211283 -3.57781e-20)
(1.08469 -0.0186428 -1.65951e-20)
(0.39951 -1.12858 0)
(0.852281 -0.577145 -2.18789e-21)
(1.00054 -0.00474244 -1.14108e-21)
(0.819718 -0.0998613 -1.61209e-19)
(0.999048 -0.0524757 -1.5432e-21)
(0.9999 -0.00608001 -2.42727e-22)
(0.326398 0.000379074 3.58856e-20)
(1.00079 -0.0051675 2.01627e-21)
(1.0243 -0.0169625 0)
(1.01161 -0.0358878 0)
(-0.0210713 0.0225858 -1.18463e-20)
(1.13536 0.030644 3.75102e-20)
(1.017 -0.0156548 -2.3424e-21)
(0.999604 -0.0146049 6.09733e-21)
(1.04824 -0.0958992 0)
(0.150872 -0.00803441 0)
(0.983002 -0.229891 -1.20822e-21)
(1.03593 -0.00113982 -6.28978e-23)
(0.998002 -0.0105627 -3.11615e-21)
(1.04022 -0.0318199 -3.57746e-21)
(1.00425 -0.00831127 -1.21933e-21)
(-0.0913633 0.0101763 -1.67892e-22)
(1.01892 -0.0106958 -4.72169e-21)
(1.25677 -0.153677 0)
(0.986486 -0.0921838 1.36337e-20)
(1.0006 -0.00512047 -1.20373e-21)
(1.18093 0.0767884 0)
(0.995233 -0.0105996 0)
(1.11577 0.0818534 0)
(1.07372 -0.049617 1.46594e-21)
(-0.0811872 -0.0638419 1.87329e-20)
(0.648647 -0.128162 -5.56559e-20)
(1.01479 -0.00933613 -2.22138e-21)
(1.08689 -0.288786 3.16005e-21)
(1.28919 -0.0664087 2.56295e-20)
(0.941156 -0.133175 9.59054e-22)
(1.02108 -0.0112049 -4.08878e-21)
(0.582316 0.13433 -1.50055e-21)
(0.805655 0.0497643 4.4219e-20)
(1.00059 -0.000417642 -1.34219e-21)
(1.17177 -0.18615 -7.68604e-20)
(0.389058 -0.000940542 -9.87942e-20)
(1.01438 -0.00944286 1.23968e-21)
(1.06061 -0.0958579 6.31287e-21)
(-0.272519 -0.0213455 -9.55616e-20)
(-0.0946461 0.00916381 -8.22139e-20)
(1.00052 -0.0111169 3.06485e-21)
(-0.0830203 -0.00905662 0)
(-0.106549 0.00659966 0)
(1.00051 -0.000440014 1.39614e-21)
(0.419353 0.3828 6.66748e-20)
(0.285174 -0.13889 0)
(0.577555 0.0784134 -1.28297e-22)
(1.08302 -0.018845 1.55697e-20)
(0.998616 -0.00297361 -9.21111e-21)
(1.13351 -0.00865596 6.71686e-21)
(1.02584 -0.0171008 1.2862e-21)
(0.6189 0.082821 -4.0091e-22)
(-0.240359 -0.0200486 0)
(0.982578 -0.0410428 0)
(1.14497 0.03812 1.66006e-20)
(-0.0751446 -0.0461029 4.71035e-20)
(-0.239978 -0.0252464 -1.11344e-19)
(1.14406 -0.330144 -2.50718e-20)
(1.01659 -0.0150834 2.3431e-21)
(1.1348 -0.0102274 2.19159e-20)
(0.104834 -0.363773 0)
(1.00059 -0.00546296 2.37026e-21)
(1.10815 0.0133079 0)
(1.24657 -0.235396 -4.7972e-20)
(0.576881 -0.291936 0)
(0.702409 -0.539847 2.00372e-20)
(0.327522 0.052865 -2.66279e-20)
(1.00415 -0.00807005 7.91272e-22)
(0.071524 0.279864 0)
(1.01783 -0.00606577 -1.61051e-21)
(1.13802 0.0107621 4.65236e-20)
(1.0182 -0.00590089 -4.50194e-23)
(0.500562 0.461702 3.77817e-20)
(0.954954 -0.120305 -2.47043e-20)
(1.01432 -0.174691 4.33101e-22)
(1.0054 -0.0152134 0)
(0.0653676 0.0247631 -4.31688e-20)
(1.13743 -0.00152277 -2.22975e-20)
(0.272631 0.0140747 0)
(1.02856 -0.0935765 5.62165e-22)
(0.499656 0.525194 0)
(1.00164 -0.00538296 -2.97026e-22)
(1.02284 -0.00627031 1.97659e-21)
(0.687265 -0.073275 0)
(0.991629 -0.0188944 3.07845e-21)
(0.563263 0.14311 -5.55212e-22)
(0.929778 -0.0472505 0)
(0.647039 -0.0093212 -1.26521e-19)
(-0.186759 -0.00940488 -3.09641e-20)
(0.992728 -0.0183948 8.98639e-23)
(1.0493 -0.022823 -1.43079e-20)
(0.97732 -0.0237772 0)
(-0.196801 -0.0117043 3.91974e-20)
(0.989084 -0.0131366 7.28443e-21)
(1.0346 -0.00735234 5.66312e-21)
(0.45535 -0.0375667 0)
(-0.0838368 -0.00888898 -7.34406e-20)
(1.01646 -0.0016897 8.35878e-23)
(1.0241 -0.00727581 -2.17907e-21)
(1.04933 -0.00379566 0)
(0.974036 -0.00867354 9.21552e-21)
(1.11691 0.0217739 8.38888e-21)
(0.99329 -0.018568 5.55248e-21)
(-0.208426 -0.0136712 0)
(-0.0811425 -0.00644043 -7.29599e-20)
(1.08462 -0.000305023 -2.30227e-22)
(1.00878 -0.0491305 0)
(1.1336 0.00128084 -2.04288e-20)
(1.06018 -0.0988198 1.47552e-20)
(1.00086 -0.00392803 5.7738e-24)
(1.03623 -0.200333 9.67507e-21)
(0.33508 -0.00605576 0)
(1.09055 0.00263594 1.64951e-20)
(1.27321 -0.010687 4.91832e-20)
(1.22002 -0.00300531 9.41048e-20)
(0.474355 -0.925129 0)
(0.867272 -0.329735 -1.41282e-20)
(-0.220348 -0.0243674 -4.85592e-20)
(0.0187494 -0.0308257 0)
(0.599095 -0.383336 0)
(1.03202 -0.00241443 7.55926e-21)
(0.0705017 0.0265407 7.31075e-20)
(1.00399 -0.000762837 1.64898e-23)
(1.03971 0.0593997 0)
(1.02257 -0.0013795 1.76098e-21)
(1.15397 -0.0584556 -4.13728e-20)
(1.03005 -0.00463985 -3.18819e-21)
(0.588324 0.00311515 9.18185e-20)
(0.983123 -0.0377855 0)
(1.0913 0.00144736 -1.69038e-20)
(0.998613 -0.122966 -3.2824e-21)
(1.13337 0.0210458 0)
(-0.197959 -0.027858 -8.64584e-20)
(0.989814 -0.0184738 0)
(1.05622 -0.0467054 0)
(0.347087 0.381173 0)
(1.16353 0.0159712 7.62772e-20)
(0.734216 -0.331801 0)
(-0.228293 -0.017037 0)
(-0.0540634 0.00194243 3.65603e-20)
(0.156295 -0.624479 -3.81169e-20)
(1.026 -0.116748 2.7137e-21)
(0.0772792 0.025427 4.257e-20)
(1.24717 -0.031806 0)
(0.956665 -0.0793812 -1.63937e-20)
(0.567456 -0.391506 0)
(0.908053 -0.350288 1.19254e-20)
(1.0365 -0.00132106 7.58692e-21)
(1.0036 -0.399072 0)
(1.00001 -0.000877674 -2.61975e-21)
(1.07455 -0.0531995 -4.23279e-21)
(0.855459 -0.546793 7.97649e-22)
(1.05924 -0.00650565 -7.08765e-21)
(0.755164 -0.301059 0)
(-0.0507018 0.012369 0)
(0.983889 -0.0302518 6.38364e-21)
(0.974387 -0.00971148 -3.00641e-20)
(0.997994 -0.00979571 -6.34214e-21)
(1.14367 0.0369859 -1.55928e-20)
(0.131696 0.030117 0)
(0.989751 -0.0921792 -7.69618e-21)
(1.09388 -0.0375392 -1.0377e-20)
(1.00869 -0.00838424 4.62965e-23)
(-0.0705326 0.0155725 3.53387e-20)
(1.00181 -0.00112577 4.46322e-22)
(0.520602 0.277134 6.25474e-20)
(0.996794 -0.00962507 0)
(1.10545 -0.316579 0)
(0.862204 -0.0355302 0)
(1.13216 0.0193537 -1.59915e-20)
(1.03153 -0.00243106 -8.34393e-23)
(1.00062 -0.00899661 0)
(-0.117612 0.00459077 0)
(1.00841 -0.00845616 0)
(0.99842 -0.033923 4.16197e-21)
(0.23079 -0.0144209 5.85011e-20)
(1.17182 -0.414946 -2.35481e-20)
(1.00433 -0.234292 0)
(1.00151 -0.00502195 0)
(1.00011 -0.00085058 -2.67093e-23)
(1.05699 -0.0169242 -2.87742e-21)
(0.217482 0.0228611 -1.54447e-20)
(1.05952 -0.53945 3.50842e-20)
(1.00417 -0.159298 1.25044e-21)
(0.996976 -0.031614 -4.24435e-21)
(1.00054 -0.00406317 0)
(0.836944 -0.0460405 -2.30216e-20)
(1.26238 -0.157042 -4.2576e-20)
(1.13951 -0.166536 -2.74754e-20)
(1.09181 0.0103744 0)
(1.0312 -0.00287885 0)
(-0.199896 -0.0235007 0)
(0.240398 0.0250687 0)
(0.936117 -0.068492 2.17582e-20)
(1.11846 -0.0264418 0)
(0.902296 -0.00267446 3.43466e-20)
(1.01593 -0.0151041 0)
(1.21784 0.0183295 0)
(0.37917 0.0132572 0)
(1.0297 -0.00424749 0)
(1.11747 0.0181325 -2.21817e-20)
(1.27826 -0.0107763 4.4574e-20)
(0.773791 -0.153742 1.07395e-19)
(-0.164258 -0.00448599 0)
(1.00774 -0.000721236 -1.10388e-21)
(1.0406 -0.0884847 2.86228e-21)
(1.02263 -0.116196 -2.639e-21)
(1.02011 -0.00622128 -1.72976e-21)
(0.905814 -0.00208414 -2.17175e-20)
(1.06216 -0.0450289 2.54035e-22)
(-0.088125 0.0104116 -4.42597e-20)
(1.0155 -0.014563 0)
(0.924047 -0.34785 -1.8041e-20)
(0.906654 0.00323327 0)
(0.931092 -0.202769 -3.33622e-20)
(1.03032 -0.00660458 6.75138e-21)
(0.999947 -0.00118154 0)
(1.04184 -0.429573 3.15571e-20)
(1.05971 -0.00709688 -3.82449e-21)
(0.682616 -0.5157 -1.73519e-21)
(-0.0302052 -0.0292142 -8.74533e-20)
(1.04232 -0.00717247 -3.10789e-21)
(1.03265 -0.118539 -4.33528e-21)
(1.04958 -0.00449703 -3.84497e-21)
(1.0225 -0.0219451 5.30004e-21)
(1.2274 -0.0864708 -2.37081e-20)
(1.00073 -0.00406582 -1.63498e-21)
(0.289969 -0.016867 -5.37022e-20)
(-0.0364596 0.0374062 1.52097e-20)
(-0.244123 -0.0185906 -2.02715e-23)
(0.850772 -0.0162059 2.48071e-20)
(0.996658 -0.0258347 -2.15107e-21)
(0.989826 -0.0176582 4.22698e-21)
(1.08285 -0.000139182 -6.76654e-21)
(1.28728 -0.0831189 0)
(1.1208 -0.00273843 2.49668e-20)
(1.02613 -0.000582177 -4.88034e-22)
(0.997015 -0.00971553 0)
(0.984104 -0.0384517 0)
(-0.277423 -0.0245864 0)
(0.990615 -0.00847084 1.93497e-21)
(1.04216 -0.0120108 0)
(-0.291615 -0.0233532 8.91421e-21)
(1.05921 -0.0458889 0)
(1.03323 -0.0089754 0)
(0.822871 -0.104975 -1.53674e-19)
(1.16953 0.01116 4.10342e-20)
(1.0474 -0.00503851 0)
(0.886623 -0.224128 0)
(0.0236102 -0.0463996 0)
(0.945933 -0.135179 2.23349e-20)
(1.0354 -0.195083 -4.35989e-21)
(0.998486 -0.00293353 -6.50782e-21)
(0.995407 -0.00754057 -7.04417e-21)
(1.17258 0.0111761 1.12059e-20)
(1.09094 0.00563259 1.43885e-20)
(-0.0784369 0.0129593 -1.95115e-20)
(0.095076 -0.0585739 0)
(-0.286492 -0.023117 7.09684e-20)
(1.01167 -0.0351208 0)
(-0.226166 -0.0139807 0)
(1.01227 -0.0367476 0)
(1.00002 -0.0011559 -1.12063e-21)
(0.620203 0.0819146 -5.86349e-23)
(1.05263 -0.00151948 0)
(0.175831 0.0353634 3.89353e-20)
(-0.161909 -0.00502456 -2.66703e-20)
(1.01261 -0.000380009 0)
(-0.231002 -0.0171389 -3.98167e-20)
(1.19807 -0.312661 0)
(-0.0511088 0.00618636 -1.68946e-20)
(1.11802 -0.20131 0)
(1.08462 -0.00449398 -1.56091e-20)
(0.363959 -0.114729 1.28957e-22)
(-0.202185 -0.0111856 0)
(1.10079 -0.0221586 0)
(-0.0352783 -0.0455036 3.14384e-20)
(-0.254525 -0.0251473 -6.34876e-20)
(-0.11877 -0.00960082 -9.79068e-20)
(1.0001 -0.000564348 -8.09001e-22)
(1.0559 -0.0161358 5.51898e-21)
(0.938277 -0.0317346 0)
(1.29565 -0.0502042 -1.31427e-20)
(1.0313 -0.00310914 -8.74212e-22)
(1.10627 -0.002795 0)
(0.210601 0.0396635 0)
(-0.0714649 0.0147852 -9.66788e-21)
(0.969068 -0.0308489 -9.8609e-21)
(1.11893 0.0166124 -2.40496e-20)
(0.448906 -0.186845 -3.8632e-20)
(0.581728 -0.33772 1.06253e-19)
(1.00683 -0.087648 2.6292e-21)
(1.04656 -0.143656 -6.27035e-21)
(0.995901 -0.00672962 -1.38706e-20)
(0.959647 -0.0788522 1.7124e-20)
(-0.10284 0.00283444 5.38106e-20)
(1.00464 -0.0142023 2.33194e-21)
(0.996284 -0.00748499 0)
(1.04308 -0.00759334 -8.72356e-21)
(0.85408 -0.115957 0)
(0.548822 0.0786547 -4.23666e-20)
(1.04689 -0.00467225 0)
(0.382777 0.121029 -1.14107e-19)
(1.0502 -0.00323427 -4.7182e-21)
(-0.196563 -0.00994105 -4.94856e-20)
(1.00431 -0.014027 -3.36925e-21)
(-0.0347443 0.0191065 0)
(0.837128 -0.49515 0)
(1.09116 -0.0226319 1.80439e-20)
(-0.0845959 -0.0213103 1.98839e-20)
(1.13868 -0.161629 2.6232e-20)
(0.977012 -0.0248049 6.82019e-21)
(0.475539 0.0744706 2.477e-20)
(0.667099 0.083549 0)
(0.781401 -0.0437281 0)
(1.01194 -0.103519 1.81884e-21)
(0.268495 0.438196 -1.95172e-21)
(-0.0423878 -0.0504987 -3.63816e-20)
(0.769114 -0.3122 0)
(-0.096444 -0.00124684 0)
(0.974323 -0.0505472 -4.17225e-21)
(-0.157525 -0.00703502 -6.08957e-20)
(-0.0765089 0.0152797 2.82269e-20)
(1.03743 -0.0282756 0)
(0.994108 -0.0308554 1.98353e-22)
(0.996334 -0.050903 -3.10241e-21)
(1.02182 -0.0221117 -3.78376e-21)
(-0.0521056 0.00631218 5.41263e-20)
(1.0969 -0.0220642 0)
(1.04641 -0.0801867 -3.36748e-21)
(1.10244 -0.0230493 0)
(-0.0958445 -9.78827e-05 1.00211e-19)
(1.04937 -0.139108 7.11186e-21)
(1.08278 -0.0209278 -2.79789e-20)
(0.940663 -0.0313311 1.10474e-20)
(1.01366 -0.000131906 4.29049e-21)
(-0.0854449 -0.0146848 0)
(0.542467 0.45189 0)
(-0.052185 -0.0222811 0)
(1.09698 -0.0663206 2.53555e-20)
(-0.103426 0.00745021 0)
(1.02434 -0.00647289 -4.25109e-21)
(1.11266 -0.176779 0)
(1.08099 -0.0213625 1.2612e-20)
(-0.280489 -0.02548 0)
(0.957711 -0.201222 0)
(1.03221 -0.00938766 -5.15911e-22)
(1.05806 -0.0470046 0)
(1.04617 -0.0319774 0)
(1.02338 -0.00647823 -4.34975e-21)
(1.02101 -0.0062705 1.91071e-21)
(0.410774 -0.247878 1.15368e-19)
(0.999382 -0.119129 1.44443e-21)
(0.696079 0.0832947 0)
(-0.258045 -0.0190433 0)
(1.03497 -0.00851253 2.08602e-21)
(1.05464 -0.0164345 -3.79252e-23)
(-0.0460318 0.0162026 -3.3247e-20)
(-0.236503 -0.0155152 -4.99599e-20)
(0.7249 0.0848816 -3.2831e-20)
(0.99901 -0.0074287 0)
(1.00087 -0.00439251 5.19206e-21)
(0.86019 -0.0381995 3.79545e-20)
(1.01326 -0.00548731 2.05812e-21)
(1.0607 -0.317933 0)
(1.25215 -0.0320074 -7.01941e-20)
(0.960119 -0.0746202 0)
(1.00003 -0.000190094 1.64049e-21)
(1.00111 -0.00458457 -1.43712e-21)
(1.05938 -0.135779 0)
(0.915461 -0.14021 2.96347e-20)
(0.764981 0.0537633 2.71352e-20)
(0.995073 -0.00769138 3.14582e-21)
(0.999962 -0.00130167 3.7462e-21)
(1.056 -0.135153 0)
(1.03505 -0.443701 -2.56005e-20)
(0.930638 -0.0648071 1.56204e-20)
(1.09845 -0.02345 0)
(1.1196 -0.196246 0)
(-0.189089 -0.00833889 5.73456e-20)
(1.0007 -0.00444532 8.95154e-22)
(1.01957 -0.000380436 2.31798e-21)
(-0.0456215 -0.0560608 1.97376e-20)
(1.23184 -0.0789054 -9.66443e-20)
(1.13426 0.0342357 1.25514e-20)
(1.0074 -0.000935777 1.02855e-21)
(1.1981 -0.0834081 -6.50242e-20)
(-0.211352 -0.0120043 8.48278e-20)
(1.17474 0.00888358 3.89282e-20)
(1.09669 -0.0710789 3.04659e-20)
(1.09834 -0.073087 -8.41652e-21)
(-0.171605 -0.0169211 0)
(1.03503 -0.0230311 0)
(0.775204 -0.309726 -3.8559e-20)
(1.22424 0.0168708 -3.8872e-20)
(-0.171303 -0.00710254 0)
(1.00729 -0.0142703 -1.00316e-21)
(1.00568 -0.00942877 -1.40588e-22)
(1.0209 -0.000734957 -2.32193e-21)
(1.01041 -0.00756449 -6.55758e-22)
(1.20224 -0.0857104 6.96724e-20)
(1.07856 -0.025205 -2.09122e-20)
(0.829376 -0.0739544 0)
(1.01733 -0.00571505 0)
(1.05 -0.0235343 -6.22273e-21)
(-0.173428 -0.0100097 -1.77989e-20)
(1.00091 -0.00435328 -3.31585e-21)
(1.01843 -0.0108906 3.05129e-21)
(1.01443 -0.014016 -1.95465e-21)
(0.178222 -0.503038 9.14692e-20)
(1.2938 -0.0464985 0)
(1.02149 -0.0104321 -2.14137e-21)
(0.920833 -0.13669 -8.3942e-22)
(1.22067 -0.0535847 -3.75547e-20)
(1.12066 -0.0249539 0)
(0.998129 -0.199011 -7.14059e-22)
(0.693538 -0.0698112 0)
(1.18288 0.0477347 -4.13989e-21)
(1.1579 -0.264351 4.25682e-20)
(1.01668 -0.0727918 -3.65094e-22)
(1.22335 -0.0836206 2.39985e-20)
(1.00601 -0.00953387 0)
(1.18919 -0.443084 -2.78925e-20)
(0.79939 -0.0102127 7.49044e-20)
(1.0129 -0.00509824 -2.07444e-21)
(1.15808 0.0510542 -2.14637e-20)
(0.284758 0.0631804 2.09236e-20)
(0.993456 -0.0303898 -3.69422e-21)
(-0.283251 -0.0110012 -9.00373e-20)
(1.0599 -0.255309 1.59152e-20)
(1.14958 -0.259067 -3.89115e-20)
(0.997278 -0.0525863 1.36307e-21)
(0.0669938 -0.00302046 3.01471e-20)
(1.21562 -0.0482945 -4.1092e-20)
(0.751661 -0.0338662 -7.02005e-22)
(0.924419 -0.0490891 3.21909e-20)
(1.11849 0.0202696 3.47069e-20)
(-0.0980142 -0.0266647 -1.71341e-20)
(0.999591 -0.01631 0)
(1.06909 -0.0307332 0)
(-0.0986083 -3.14825e-05 -4.87656e-20)
(1.08961 -0.0196672 -7.24543e-21)
(1.00469 -0.15425 5.27075e-22)
(0.562651 -0.416957 -9.50376e-20)
(1.13375 -0.0422398 0)
(1.10103 -0.00482502 -2.70183e-21)
(1.09242 -0.0385805 1.12947e-20)
(0.774967 0.085965 5.13388e-20)
(0.940099 -0.0681951 -3.41395e-20)
(1.04468 -0.0407637 0)
(0.0646736 -0.0179959 6.42285e-20)
(1.02906 -0.0707402 0)
(1.01785 -0.010425 -3.11171e-21)
(0.410414 0.208015 9.33354e-20)
(1.01008 -0.00716718 1.65419e-21)
(1.03536 -0.126943 7.93134e-21)
(1.00705 -0.01363 1.02472e-21)
(1.16497 -0.021159 0)
(-0.255957 -0.0250823 0)
(1.05112 -0.000539829 -8.72498e-21)
(1.08001 -0.0264662 1.02859e-20)
(-0.119125 -0.0290953 0)
(1.01486 -0.014551 1.81366e-21)
(-0.258645 -0.0207875 5.13108e-20)
(0.998942 -0.0289196 -3.26232e-23)
(-0.0346891 -0.0335632 8.34024e-21)
(1.01252 -0.00179721 7.09785e-22)
(1.04591 -0.0387002 0)
(1.07217 0.00103295 -1.86737e-20)
(-0.0698905 0.00983043 0)
(1.04039 -0.13867 -5.94344e-21)
(0.772882 -0.0366408 0)
(0.953018 -0.116387 1.14382e-20)
(0.856064 -0.0199355 -1.30504e-20)
(1.02506 -0.0167009 2.29109e-21)
(1.06209 -0.0899415 -3.11509e-21)
(0.140883 0.0441081 -1.55757e-20)
(1.30172 -0.0791342 -1.10458e-19)
(0.988674 -0.0440098 -9.20398e-21)
(0.0606551 0.464616 -1.7081e-20)
(1.20733 0.0116815 -5.30392e-21)
(0.854146 -0.0372749 0)
(-0.147929 -0.00384267 2.96419e-20)
(0.991628 -0.0181198 0)
(1.05229 -0.000717381 8.8758e-21)
(0.983178 -0.0128429 -1.23846e-20)
(0.577379 -0.224402 0)
(1.21966 -0.049115 0)
(1.00796 -0.0149533 -7.88693e-23)
(1.02539 -0.00406893 0)
(1.02105 -0.0213346 1.83335e-21)
(-0.080484 -0.00614687 -6.74594e-20)
(1.01044 -0.101864 -1.18323e-21)
(1.04587 -0.0404577 5.16341e-21)
(0.834639 -0.313567 -1.30757e-20)
(0.985578 -0.0154758 9.6566e-23)
(1.04709 -0.0385618 0)
(1.27328 -0.135531 -7.19852e-20)
(0.191128 0.390557 4.80107e-20)
(1.08527 -0.00175135 1.42144e-20)
(1.02046 -0.0214851 -1.67977e-21)
(-0.0910929 0.0095587 -1.15809e-20)
(1.00017 -0.000832631 0)
(1.09161 -0.0188116 -1.96995e-20)
(0.675104 0.071089 0)
(1.2252 -0.0547371 1.44564e-19)
(-0.00531739 -0.0235206 -4.81583e-20)
(1.04072 -0.00704021 5.94069e-21)
(0.052667 -0.00596322 -3.29859e-20)
(1.01323 -0.0596033 3.53639e-22)
(1.08411 -0.00309226 0)
(1.01295 -0.0016284 4.82495e-22)
(0.974098 -0.0118836 8.43515e-21)
(-0.0840452 -0.00155978 -2.82312e-20)
(0.6714 -0.0478762 0)
(1.04146 -0.00747335 3.10567e-21)
(-0.27262 -0.0262141 0)
(1.01578 -0.0468697 -2.16454e-22)
(0.892376 -0.214692 0)
(0.392113 -0.00482087 0)
(1.00197 -0.00569907 0)
(0.668695 -0.0584276 3.91209e-20)
(0.379196 0.0828593 4.77861e-20)
(1.09507 0.0089611 -9.04573e-21)
(1.08014 -0.160989 5.15072e-20)
(1.00072 -0.00479383 -1.02719e-21)
(0.257046 0.0741359 0)
(0.978223 -0.027252 7.11476e-21)
(0.294247 0.0101539 8.76168e-20)
(1.14723 0.026178 0)
(1.00018 -0.000124226 -6.83877e-22)
(-0.233244 -0.0173395 6.84982e-20)
(1.07303 0.000367358 2.19615e-20)
(1.03795 -0.123372 -3.98159e-21)
(-0.0357645 -0.0309097 0)
(1.00148 -0.000916682 1.10605e-22)
(1.0449 -0.0314668 9.36448e-22)
(-0.224079 -0.0158156 -1.06139e-20)
(1.04295 -0.134806 -5.99248e-21)
(0.646668 -0.924748 1.77454e-20)
(0.999674 -0.00639793 -4.46891e-21)
(1.02225 -0.0449988 -1.6692e-22)
(1.15599 0.0500466 3.81681e-20)
(0.0823968 0.0270768 0)
(1.02932 -0.0956859 0)
(0.755528 -0.064514 2.94453e-20)
(1.00071 -0.00913991 0)
(0.999964 -0.00636198 1.27088e-21)
(0.93417 -0.065476 -3.41322e-21)
(1.006 -0.0133451 -9.72591e-22)
(0.0762079 -0.342356 0)
(0.576193 0.0795599 -5.5372e-20)
(0.982729 -0.0428025 0)
(0.489335 0.0773277 0)
(0.0031862 -0.00780523 4.41781e-20)
(1.00578 -0.0120498 8.74171e-22)
(1.01066 -0.0332171 1.01241e-21)
(1.00177 -0.0276591 1.58071e-21)
(1.18343 0.0498391 5.66605e-20)
(0.943968 -0.196456 8.48043e-21)
(1.11321 -0.120795 0)
(-0.191392 -0.0189687 -3.90163e-20)
(0.999997 -0.000286961 5.33275e-21)
(-0.217107 -0.0153164 0)
(1.10785 -0.172282 -1.91917e-20)
(0.0540796 0.00982225 0)
(0.185319 -0.472323 -8.15609e-20)
(0.999323 -0.0477507 2.93906e-21)
(0.280446 -0.0106135 -3.66872e-20)
(0.803862 -0.172902 0)
(0.523864 0.0780281 -1.6391e-20)
(-0.0361281 -0.0496269 3.73502e-20)
(0.999511 -0.0157733 0)
(1.01977 -0.0207027 1.58817e-21)
(-0.0517938 -0.0241021 0)
(0.902445 -0.140067 -2.11861e-20)
(0.218326 0.0551573 0)
(-0.0465146 -0.0292799 0)
(1.02862 -0.0232079 -8.06976e-21)
(1.0751 -0.107675 0)
(1.00402 -0.00687566 0)
(1.08205 -0.0244878 1.57414e-20)
(1.20374 0.0116668 -3.95182e-20)
(1.00425 -0.00729376 -2.80769e-22)
(0.532095 0.0756036 -5.71182e-20)
(1.09709 -0.0390019 -1.49993e-20)
(1.16828 -0.0219604 -4.25124e-20)
(0.670919 0.2915 0)
(0.420577 0.316749 0)
(1.02288 -0.0152525 -4.48312e-21)
(0.987491 -0.0154812 -1.12889e-20)
(0.804309 0.0180285 1.69189e-21)
(-0.0423974 0.0231309 0)
(1.07032 -0.0929439 -4.38635e-21)
(1.06367 -0.263359 -1.65952e-20)
(-0.230638 -0.0168789 4.33753e-20)