/*--------------------------------*- C++ -*----------------------------------*\
| =========                 |                                                 |
| \\      /  F ield         | OpenFOAM: The Open Source CFD Toolbox           |
|  \\    /   O peration     | Version:  v2012                                 |
|   \\  /    A nd           | Website:  www.openfoam.com                      |
|    \\/     M anipulation  |                                                 |
\*---------------------------------------------------------------------------*/
FoamFile
{
    version     2.0;
    format      ascii;
    class       volScalarField;
    location    "350";
    object      ddt0(omega);
}
// * * * * * * * * * * * * * * * * * * * * * * * * * * * * * * * * * * * * * //

dimensions      [0 0 -2 0 0 0 0];


internalField   nonuniform List<scalar> 
18758
(
-0.256565
0.943309
-4.29884e-07
-0.212131
0.144434
-0.555038
-0.17727
-4.04046e-07
-0.316251
0.00393457
-0.00010721
0.463772
-3.76721e-07
0.0187319
-8.93197e-05
-1.34844
0.00152306
1.81604e-06
-3.70138e-05
0.00404785
-0.0667266
8.54833e-09
0.0191999
4.63745
-2.29081
-6.85265e-07
0.787375
-0.0174291
-0.295487
6.1222
-0.00645803
0.00426694
-4.83209e-09
4.27559e-05
0.0335905
-3.28044e-07
1.37666e-09
-3.14495e-05
-4.59853e-05
0.00392517
-2.8157e-05
0.000340982
1.75076e-06
0.000513603
-0.518922
7.58981e-07
-0.0148235
0.000195579
0.00125868
2.57024e-06
0.104215
0.648037
7.43879e-07
0.000331781
0.0151163
-0.757383
-9.87311e-10
0.239479
-6.36187e-06
0.0458183
0.0756046
-0.143417
0.0307847
0.000151458
7.37895e-07
1.64095e-06
-0.00373363
-8.75938e-09
1.17945e-05
0.672714
0.639598
-1.53591e-06
2.61836e-06
-8.77148
2.19577e-06
-2.73871e-06
-0.35482
0.298319
0.0888113
0.0419138
-0.163756
0.641686
0.00182562
-0.443278
-0.543493
-0.000437136
0.146971
0.0384245
-0.0820691
-1.16243e-05
-0.385373
-1.31838e-05
0.544343
-0.000255409
-0.225972
0.660743
-0.475656
7.59097e-07
-9.63193e-06
0.0660828
0.00157868
-0.258731
0.0377139
0.0076133
-0.0455632
5.88035
-0.399589
0.264263
5.61569e-05
-6.67561e-05
0.683191
-3.1744
-7.00768e-07
3.38623e-05
-0.124492
0.0863136
0.244693
-0.000101048
0.329581
-0.220411
0.00359988
-2.15013e-06
-0.0169357
11.9435
-1.67051
0.199545
1.03202
-0.166292
0.573454
-4.96414e-06
-0.00245289
2.75508
-0.862485
0.00544386
-3.78637
-6.50872e-05
-0.140942
0.00398622
-1.07615e-05
0.0140393
-0.0293732
1.80859
2.05686e-05
-1.28318
-5.40124e-05
4.15811e-05
0.705786
-0.270385
-0.00559249
-0.140826
8.18487
-0.323911
0.00324276
1.03279e-07
-0.125693
0.00103878
0.246619
-0.000218887
1.30051e-05
6.96822e-08
-1.81801e-06
-0.0520192
0.39248
-3.44431e-05
0.0723384
-0.318785
-3.71502e-06
-0.0763901
-2.06673
-0.50478
-0.0100484
2.50966e-06
0.533245
0.0230823
-0.0310846
-2.70888
-0.311219
0.000357349
0.0278153
4.23237e-06
-5.93814e-07
-1.13374
-1.15838
-4.53935e-07
-0.000303404
-0.554272
-8.34051e-06
0.163503
4.31208e-07
-8.26002e-06
-0.00100639
-0.705096
-4.61708e-05
-0.00823096
-0.000107025
0.0909869
0.0045023
-0.933618
-1.53149e-07
9.78751e-07
0.0156899
-0.000149493
-0.00265981
0.0250921
-3.24929e-07
0.00620635
0.00276424
7.93455e-08
-0.0811923
-0.00431676
1.20814e-06
0.00212816
0.000110726
-0.00138853
0.00784316
-0.054054
-0.0435054
0.198587
3.22566e-07
-0.568252
1.52256e-06
9.17576e-05
0.029191
0.354767
1.88955
0.0273495
0.00712049
0.0138197
2.19455e-06
0.014704
1.90917e-06
0.0697051
-0.0368686
-0.474007
-1.18234e-07
-4.92143e-06
1.16482e-06
8.30447e-07
-0.0145999
0.00104549
-5.00815e-06
-0.307304
-0.00591947
5.23477e-05
-0.125664
9.99142
-0.21725
-3.32496e-07
-0.193264
9.78778e-05
-6.48606e-07
-0.0765971
-0.00282492
0.000354056
-3.98985e-05
0.00525562
-0.101425
1.17829
-0.00425133
0.0830783
-1.02099e-05
-0.0237351
1.51294e-06
0.0304548
-0.00996145
-0.086771
-0.29038
6.96601e-07
9.58347e-05
-2.8305
-4.62932e-05
-0.000107217
0.0192303
-0.337001
0.332043
-3.55948e-05
-0.126942
0.796256
-2.84689
-0.000277735
1.41172e-05
-0.00154023
-0.00157694
-8.77319e-07
2.95368
0.620215
-0.194886
1.29083
-0.0124974
1.3241e-06
-6.8003e-07
-0.0306823
-0.0539831
1.98234e-05
0.0358616
0.0369773
-0.000982904
-0.172366
-3.95502e-06
-2.41142
-0.481413
6.89869e-07
0.617024
-0.00485998
-3.88795e-05
0.00519994
-0.0396438
-9.39884e-05
-5.46622e-07
-0.180979
-0.337846
1.14628e-06
-0.268924
-0.196368
1.64488
1.06512e-06
-4.49027e-06
-1.15655
-2.39517e-05
-2.05036e-07
-5.82273e-06
-9.37186e-05
-1.49169
-0.029575
-0.00244634
0.0019469
0.0022414
-0.00664812
-2.21621e-06
5.3524e-08
-0.670476
-0.0315535
-0.223349
-0.27081
0.000981089
7.73042e-06
-7.38692e-06
-2.47188
0.642609
1.17042e-06
5.05228e-07
1.27124e-06
6.57905e-05
0.0113223
-2.17766
-6.8445e-07
-2.07618e-05
2.00783e-06
-1.59716
-0.009599
-0.133014
0.405759
-9.78015e-05
0.0144627
-0.255635
0.00723371
6.86066e-05
0.421799
0.150996
-0.33421
-1.76664e-07
0.00200084
0.114061
-0.367381
0.00122812
2.90857e-06
-0.014518
-3.15633e-06
0.000757874
0.365015
-0.554311
0.0163373
-0.00465685
-0.146425
-1.37735e-05
0.000317586
-1.14661e-05
-6.93371e-05
0.0047027
8.34405e-06
-0.216611
-0.698111
-4.64406e-06
9.35449e-08
0.197703
0.00958031
-0.258125
-1.41404e-05
0.00589648
-8.31351e-06
0.000401896
-1.94147e-06
1.82831e-06
0.427468
-0.00669647
-8.31861
0.694622
-5.93715e-07
0.249266
0.27052
0.00708427
-8.5344e-07
-0.272785
7.12292e-06
-7.03713e-05
-4.46306e-07
0.0125217
2.13129e-06
0.000785231
0.0482303
0.00816512
-3.53914e-06
0.20369
-0.00131905
1.5524e-06
-0.000264651
9.90967e-06
5.46701e-07
0.00159444
0.00123279
-0.0106447
0.916982
0.00172398
1.78074e-06
-0.531738
-0.0968021
0.359358
0.0113646
-0.00191148
0.000286224
1.1015e-06
-2.31571e-06
6.28684e-05
0.0255254
-0.00307092
0.000585474
-0.00215371
0.00318452
0.542865
0.0361399
-1.28757e-05
0.00807189
-0.113997
-1.95832e-05
-0.516388
-6.16618e-06
-1.26455e-07
-0.195251
0.0031656
0.000142291
-0.55786
0.0495096
-0.017462
0.43073
-6.29456e-06
7.8061e-05
-1.52642
0.399096
-0.00251744
-0.0248529
-0.0364245
0.465066
0.144097
0.0448067
-1.92134e-05
-0.0161494
1.119e-07
0.0274433
4.76689e-06
0.419549
0.00379683
0.691262
-0.000275766
0.00582822
9.79233e-07
-0.482284
1.67282e-06
0.291644
-7.56245e-06
-0.745745
9.05851e-07
-2.48997
0.00144665
-4.88759e-07
-6.14391e-06
-3.15666e-07
-0.33264
0.81685
-0.120557
-0.00164705
-7.1123e-05
-0.0316281
7.94404e-09
3.46041e-08
0.636842
-3.59164e-06
3.30612e-07
0.0598211
-8.56338e-08
-0.0234159
-0.011762
2.98654e-07
-2.45051e-06
-0.000416515
1.2541e-06
0.00212532
-0.103392
0.00111275
-0.00067134
0.0011219
6.34361e-07
-12.4093
0.000253128
0.000174192
0.84199
0.10226
0.00300403
-1.18686
0.00198795
0.000149027
0.242579
1.38178e-06
0.31861
0.936771
4.24831e-07
-0.114809
-0.00287982
-0.00941976
-1.50037e-07
-0.0181835
0.680476
1.43494e-05
6.89893e-06
-6.05306e-05
-4.12199e-05
5.44283e-05
1.06032e-06
1.52484e-08
0.0465955
2.64564e-05
-0.319976
4.54439e-07
-0.280084
0.600508
1.30624e-06
1.06152e-06
0.000559831
-7.47426e-07
-0.000632289
7.50653e-05
5.22795e-05
-0.0227396
-5.31938
1.6064e-06
0.683843
0.114671
-0.00226951
0.105477
-6.48971
0.000221412
0.000428338
-0.000127548
0.64377
0.000272668
0.000224233
-2.81673e-05
0.0483441
-0.00616098
0.794336
-0.0686229
-0.170636
0.00054159
1.33311e-05
0.0140927
-0.154475
4.15846e-05
-2.56608
5.64655e-06
-0.0205179
-3.23888e-05
1.19699e-05
-2.02131e-07
-2.01954e-07
0.180734
-0.0520518
-1.47381e-05
0.255409
0.000615857
0.36433
0.304529
-0.712085
0.797418
2.72798e-05
-0.0791619
-0.00716103
-1.64789e-05
-0.00294127
0.670489
-0.352773
-2.53115e-05
8.84269e-05
1.50548e-05
-1.18257e-07
-0.115556
-0.00826461
0.0412233
0.203455
-1.54706e-05
-4.15824e-07
-0.00666667
8.74672e-08
-3.21055e-06
0.000128243
-0.000127246
-0.000347611
-0.00503522
0.555161
0.307676
-0.0270858
9.09512e-07
0.00200272
0.202239
0.5314
0.000605639
0.670659
-0.00428002
-1.35793e-05
0.183728
-0.225688
-2.98589e-05
1.26666e-06
-0.210489
-0.332835
0.0870269
-2.00112e-07
0.475507
1.15696
0.978218
2.36772e-06
-0.12032
-0.222572
-1.30609
0.000269838
1.46695e-07
-0.18693
1.79401e-08
-0.085937
0.234997
-0.223895
-0.141036
-0.00575326
0.203489
0.00980521
-7.19541e-05
8.88632e-05
0.0718883
0.0877352
-0.249108
-0.589725
-3.20476e-05
-0.109559
1.79023e-08
-0.000189365
0.0302764
0.299417
1.12953e-07
-0.000468179
0.356536
0.699362
0.0568887
-0.328617
0.00679691
-0.00150582
0.514696
1.4945e-06
-1.00259e-05
1.71513e-06
-0.000153348
-0.00143014
3.45746e-06
0.0266222
4.25445e-06
-3.9709e-06
8.28794e-07
0.095547
2.88334e-05
1.02264e-08
0.000681566
-0.0118511
1.70436e-06
0.684587
3.60974e-05
-4.24164e-06
-0.00874052
0.00532727
-0.000148038
0.000138122
4.00175
0.000297839
0.00350594
-0.25376
-0.00369749
-0.152385
-0.000690895
-0.0275858
-0.67048
0.0395005
1.19996e-06
0.664653
0.613944
2.74961e-09
0.256261
6.98031e-07
7.36593e-07
0.00534979
5.42717e-07
-0.0881356
0.582004
6.34945e-07
0.430743
1.95864e-05
0.00106622
0.0792724
8.93619e-07
-0.248049
0.000220553
-5.46082e-05
-2.29224e-06
1.55514e-06
0.476023
0.00491249
0.259266
-0.0188174
-0.514708
0.00368363
2.56863e-06
0.728461
-0.25246
0.539353
0.0156477
0.287226
0.00154351
-0.000185838
0.639002
-1.01457e-05
6.75018
-2.00464e-07
-0.104442
6.06344e-05
0.0134051
-0.000179726
-1.0806e-06
-0.206748
0.000304471
-4.4962e-06
0.138729
-1.99288e-05
4.8615e-07
-0.000568261
-0.00599007
0.398636
-1.04245
-2.05095
0.0878392
-4.47697e-07
1.11689e-07
0.21131
4.12957e-06
2.26476
-0.0161759
-0.000145851
1.91454e-07
0.00512772
-1.73275e-08
-4.7008e-05
0.000468342
1.47153
1.12162
0.13733
0.00670482
-2.61423e-07
-0.00116263
-0.294464
-1.48467e-06
0.0278747
-0.000165069
0.626141
-0.000475794
-0.123121
-1.93059e-07
-0.751165
8.3061e-09
-0.0370858
6.20498e-06
-0.000135722
-0.000555346
1.06666e-06
-2.83225e-06
1.49764e-06
-0.216481
0.508429
0.00104069
-0.304268
-1.64862e-05
-0.000733335
0.000459886
1.11505
0.120285
0.00127554
7.57989e-07
0.566358
1.73844e-06
-9.51385e-06
-0.000206783
0.258207
-0.103816
1.8057
-0.724375
0.031914
-0.00020621
3.34888e-06
1.14452
6.79293e-07
1.40355
0.000225771
-6.67595e-09
0.00543237
-0.538196
-2.73186e-07
0.287215
0.00553105
-0.00427024
-0.0207642
-1.50715
-0.550468
-2.23389
-1.12436e-07
-5.01111e-07
0.349408
-1.97084e-05
3.8613e-05
0.000187597
-1.58239e-05
-0.249058
-0.00850806
-0.00467875
-0.358582
0.00244224
0.0167677
-3.65765e-05
3.78062e-07
6.27738e-07
-5.64521e-07
0.290577
-0.127287
-0.114451
3.05553e-07
2.09948e-07
0.0003875
-1.32141e-05
0.00527622
0.000235922
-3.73926
0.483245
0.0109325
0.467034
-0.128939
2.6828e-05
0.365393
3.93861e-06
0.0851678
0.801806
0.192291
-0.20484
-5.51244e-05
-0.000287861
-0.28006
-0.355466
0.298606
0.00278944
0.23881
0.142899
-2.32668e-07
0.894821
6.46799
0.0308772
-1.89654e-07
-1.49705e-05
-0.00806262
0.208866
-3.09478
0.0121767
-1.28274e-06
5.49577e-05
0.000144969
4.10197
1.57435e-05
-2.62322
-1.57996e-06
-1.04352e-05
-0.041782
-2.90497e-06
8.14526e-07
-7.28451e-05
-0.00524672
3.89666e-07
-5.44484e-05
2.36342e-06
-1.68468
-0.121605
-0.138027
1.12376e-07
-0.00695348
1.1954e-06
0.332626
-0.628758
-0.00115008
-2.73429e-06
-0.000105161
-2.82744
-0.0161412
0.000861401
0.375995
0.0221816
-1.28995e-05
-1.95064e-05
-0.0223801
-0.0509713
-0.021018
4.60561e-07
-0.887184
-3.71177e-07
0.00254065
1.74921e-06
-0.417382
-0.123471
-1.33295e-06
1.28893e-05
1.29171
1.40485e-05
-0.0739663
-0.00710047
-0.0112621
5.39809e-05
-2.07956e-07
-2.76691e-08
-1.90666e-07
-0.647896
0.136183
-0.0965385
0.000233099
0.264382
-2.24542e-06
-5.17179e-06
-0.34328
-5.45184e-06
0.0588342
4.55729e-07
0.00149279
-1.10185e-05
1.27323e-06
4.68934e-05
-2.05401e-07
0.018861
0.000109318
4.71375e-08
0.0180921
0.00180491
-1.19391e-06
-0.00986028
-0.00446056
-8.9435e-07
1.09806
5.11911e-07
-0.000781095
-0.106946
0.00517218
-9.27206e-07
0.176473
0.0140657
0.0422211
0.00320628
0.0203675
-0.111422
-0.00014554
0.00934471
8.35024e-07
2.75483e-07
6.20633e-07
-0.00281685
-0.000736327
0.00343301
3.51283e-05
-8.65398e-05
-0.00186555
-0.146684
0.73886
-4.00788e-06
-3.62283e-06
0.000361474
-0.196171
-4.57979e-06
-0.00250545
2.46082e-06
-1.72738e-05
-4.62614e-06
0.0537425
-0.321384
4.2075e-08
9.88149e-05
1.76194e-07
-0.000591421
-3.25424e-07
-5.83747e-07
0.474223
6.21666e-09
-2.19793e-06
-1.03232e-06
0.0808642
-3.28907e-07
-2.4303e-05
0.397938
-0.121762
-0.616351
0.00280792
-0.273873
-0.00157275
1.35709e-06
-3.80494e-06
1.6839
3.81252e-06
-0.00845354
-0.0215364
0.00859678
0.00140446
1.98888e-05
-0.00532337
7.33278e-05
7.23808e-08
-0.071135
0.492205
-0.0102922
-2.52306e-07
0.016787
-0.00341266
-0.172829
5.18702
-0.000638681
-1.32824e-06
-1.21743e-06
-3.95405e-07
-0.00749339
-4.66002e-08
2.62785e-05
-0.543281
0.27879
-0.00297371
-2.01128e-06
0.0263078
-0.13471
-7.28306e-07
-0.00255373
0.00217293
-0.213846
-0.0155307
-2.32761e-05
0.000198182
0.000205729
-4.54575e-07
0.0267395
1.25112e-05
-4.04792
0.0129949
-0.0752463
3.35226e-06
0.00404969
-0.363042
-0.0854326
1.92239
0.00051378
-0.0886755
-4.16409e-07
2.03654e-06
-0.000106599
-0.0127551
-2.13926e-07
-0.000234038
-0.000499586
-0.0171457
5.11152e-07
3.16454e-06
-3.74593e-05
6.42324e-09
0.190994
-0.613078
0.954438
4.17697e-06
-0.0538668
0.000215023
5.17597e-08
-0.0019185
-2.53018e-08
0.0282845
-7.47754e-05
-5.05461e-07
-0.142923
-0.644661
-0.286606
-8.50675e-06
-0.385421
1.05467e-06
0.159171
-0.171907
-4.69758e-07
0.0174279
-0.112017
3.7244e-07
5.87321e-07
1.02326
-2.86729e-05
8.61739e-07
-0.0296222
0.526645
-1.90775e-07
-0.000432887
-4.99949e-08
-0.000382018
0.00109051
-6.46773e-08
-0.230067
0.0012588
1.2442e-06
2.43021
0.0173998
-0.034875
3.05479e-08
-0.00147813
-6.25827e-06
0.342139
-1.12489e-06
8.59047e-07
0.0181958
-6.17498e-07
-0.308149
9.543e-07
0.00683922
-0.233774
0.570429
-1.00474e-06
4.85725e-07
1.35924e-06
0.000154919
0.00083752
7.08125e-05
-1.6578e-07
-0.263205
-1.91659e-06
-2.80904e-05
-0.204807
1.57201
-0.00977294
-1.70542e-07
-0.444664
-0.0256871
2.90438e-05
0.000364534
-6.56784e-06
1.41886e-06
-0.318661
5.86012e-07
-8.10075e-07
-1.06158e-05
-0.384107
-1.77909e-05
1.40249e-05
0.15943
-0.00024691
0.17723
-0.00111681
4.55405e-08
1.90639e-07
0.892304
-0.000149229
9.49711e-07
-0.210617
0.157153
-4.08048e-07
0.190513
-0.0536718
9.79078e-06
-9.24565e-06
4.01966
-1.80134e-07
-2.85591
-0.00249625
-1.7121e-07
-0.0908395
0.3227
0.569678
-1.48563e-05
-0.184241
-0.00349467
-0.098849
0.339876
1.04321e-05
0.0522697
6.51575e-07
0.000482774
0.000105403
0.696857
-1.96434e-07
4.06353e-06
-2.73093
7.76223e-08
-0.00626676
-5.20117e-07
2.924e-05
0.142608
0.00925876
0.000448265
0.00127923
1.9514
-9.82807e-05
-4.67173e-05
-0.0147496
-0.0318767
-9.41766e-05
2.59167e-06
5.33442e-06
-1.5196e-06
7.66919e-05
-1.02395e-06
0.000692482
-0.00140948
3.02014
3.04786e-07
-1.45638
2.57774e-05
-0.000765414
-1.00098e-06
0.000774651
5.84013e-05
-8.54118e-07
0.164606
-0.169957
0.000247486
-1.54566e-06
-0.845681
0.000118742
0.0111692
0.00199487
0.00736769
0.219705
-0.190047
0.106726
-5.45429e-05
-3.47118e-05
-3.00297e-07
-0.0431028
-1.03386e-05
1.16859e-06
0.493049
-2.71206e-05
-2.73527e-07
6.2299e-07
-0.261407
1.79341
-3.17662e-07
0.0307273
0.607933
0.000173767
2.38815e-07
1.44505e-06
0.485164
-7.65194e-06
0.00549701
1.09744e-08
3.38739e-07
-2.15806e-05
1.81836e-06
-0.0335949
9.21092e-06
2.62439e-05
3.55961e-06
5.72969e-07
-0.0625266
6.41556e-07
1.43941e-05
7.12832e-05
2.95256e-06
-0.47447
-0.637294
0.00569677
0.000416706
-1.11569e-05
-1.88962e-07
-2.17829e-07
0.277648
-5.28517e-06
0.00439792
0.00442027
0.282529
1.54376e-07
1.42035e-06
-0.140362
-9.04009e-07
-0.243903
0.025497
2.74794e-05
-0.208073
0.463368
0.000164523
-0.22266
6.94735e-05
-0.0014624
-2.16888e-06
4.8765
-3.18207e-07
0.657882
5.94285e-08
1.8885e-05
1.60051
-2.0186
-0.772665
-0.455774
-1.33329e-06
-0.134683
1.66628e-07
-0.0937062
-0.00383218
3.029e-07
-2.26395e-06
-1.78705e-05
-0.00771194
-0.06901
0.0771092
-0.00473283
-7.42163e-06
1.46015e-06
-9.32736e-06
0.0389782
1.11994
0.000902082
-9.5238e-07
-3.73925e-07
-0.00321953
-1.32672
-9.99703e-06
0.00271163
0.0132298
-1.19304e-05
2.36917e-05
-0.000103445
0.013008
0.0305177
9.92805e-05
0.0263716
-4.42455e-07
2.62694e-06
0.246078
0.00198021
-0.0138341
1.27495
2.26833e-06
0.190815
0.505285
-0.00427273
0.121335
-6.88519e-07
-0.276522
-0.117333
-0.0078141
-1.36862e-07
-0.0918326
0.0541627
7.19264e-07
0.0052333
0.0873157
-0.000321689
-9.36002e-07
0.00144451
6.15309e-09
0.703666
-0.00148446
-7.02181e-05
-5.61363e-09
-1.65991e-06
0.00177762
-0.000163925
0.143754
0.0110295
-0.0019327
0.0284707
7.93348e-09
1.26206e-06
0.834945
-0.404192
5.41543e-06
-3.62095e-06
-0.299641
7.42017e-05
-0.661361
-0.0776102
-0.032985
-1.66009e-06
5.76386e-06
-0.135741
-6.45127e-07
0.581619
-1.76394
-2.29155e-06
-0.142792
-0.0104189
-0.104958
8.09211e-07
1.10054
-1.84284e-07
-17.305
6.85964e-07
-0.00630172
-6.15681e-05
1.72868e-06
-0.377005
-6.35128e-05
-3.54715e-07
0.000102302
0.203226
2.87932e-07
1.22653e-06
-0.0791738
3.29186e-06
-4.8369e-06
-7.01377e-08
2.16835e-05
5.84512e-07
-3.17434e-08
-0.00370058
-5.91063e-08
0.000192056
-6.44075e-07
0.940426
-0.161766
0.254932
0.148106
-0.000274184
0.000559296
-9.36997e-06
-4.71249e-07
-1.02772e-05
-0.0373043
0.195884
2.39872e-05
1.08149e-08
2.18959e-06
4.62236
1.17277e-06
0.766048
0.0705672
0.451881
-0.30987
0.393428
0.2293
-4.91778e-06
0.314203
0.204889
-0.199754
0.0078522
-7.83333e-07
0.000295181
2.27434e-07
-0.0578096
-0.0302651
0.0135797
0.00113377
0.327438
4.51513e-07
-4.36497e-07
0.0272363
0.0621677
1.65519e-05
7.30884e-07
-0.000878553
-4.07828e-07
1.32811
1.23874
0.0492737
0.0262646
-0.024617
0.533586
-1.62218e-05
-0.14511
-4.96912e-07
-2.0415e-06
-4.91078e-06
-0.0286209
-7.62511e-05
2.46061e-09
-2.15168
0.014361
-0.414501
-0.0435891
0.00016684
0.00601703
0.565676
-0.190812
-0.267639
0.0430963
0.10985
-0.313549
2.44564
-0.199464
-0.0099546
-0.0011464
-9.2315e-06
0.00270906
-0.000515687
3.49271e-08
-0.50216
2.50015e-06
2.37079e-05
2.4932e-06
-0.000692878
-0.000453358
-3.47253e-07
-2.22122e-05
-1.12626e-06
0.503413
-0.0591018
0.910402
-9.69784e-06
0.114913
4.91822e-07
-2.48482e-06
-0.0259946
0.0357862
3.6816e-07
0.432634
-0.00179845
0.074879
-5.81205e-07
0.362168
-0.0222483
-3.79983e-06
4.54202e-07
-2.36331e-06
0.0708205
-0.0092962
-0.311948
-4.72829e-08
-8.19484e-05
1.73521e-06
0.140071
-0.00137957
7.50773e-07
-0.335552
-6.36184e-06
0.000108045
0.201424
-1.85348e-06
-1.41881e-06
8.38699e-07
-6.36213e-06
-1.449e-06
2.0599e-05
3.94801e-07
-2.20176e-05
-0.0199524
-0.00309216
-3.23496e-07
-0.0745209
0.000110994
0.379372
-0.218114
0.00705662
-0.14842
0.106658
4.69761e-06
-0.00369708
-1.16096e-07
1.47647e-05
1.36761
0.00361676
-0.109332
-0.00101728
-0.02043
-8.22601e-05
0.000270846
1.18348e-06
0.451271
-0.00144046
0.060275
2.10348e-06
-0.0200008
9.79879e-05
-6.78018e-07
0.00397593
-0.00389734
1.30205e-06
-0.331631
-4.12181e-07
-0.0012648
2.01161e-06
0.000770326
4.47775e-05
-0.115547
0.00678941
-0.0203181
-0.887682
0.000735672
0.000376391
-9.17199e-07
-0.023202
-0.0104435
1.05502e-08
-0.0294844
-1.3714
-0.650288
2.46627e-06
0.000227341
-2.1955e-07
4.92716e-07
-1.76794e-05
0.321224
0.000785757
2.86956e-08
0.495883
-7.30895e-07
1.50025e-06
-0.00524148
0.551638
-2.08399e-05
0.554276
0.148022
-0.10494
0.382346
0.000105372
0.175022
0.213765
8.87834e-07
-0.000302878
-1.59062e-05
-2.77887e-05
-0.00658919
-0.193861
0.0171263
0.419685
-1.29105
-5.2882e-06
-0.119469
1.57937e-07
0.341941
3.06565e-08
2.36755
-0.0109028
-4.25429e-07
-2.90237e-06
6.99381e-08
0.00065659
0.00705529
7.29668e-07
-0.687642
-9.8991e-05
-0.0028729
0.029918
-1.60028e-05
-8.7407e-08
-0.520478
-2.29785e-07
0.182951
0.00362937
0.437932
-9.62629e-08
-8.46604e-06
0.255652
-5.84971e-07
-9.7303e-07
5.01579e-05
-0.00555241
-0.00244686
-0.404595
-0.000120485
1.41832e-06
-0.000122684
-3.32139e-05
0.000136058
-0.314434
-9.21508e-07
0.00512008
-0.333355
-0.105557
-4.07426e-07
-0.0188372
9.95918e-07
6.90197e-08
-0.144982
-0.408786
0.012506
2.74718e-08
-2.17618e-07
0.00071332
-0.0234317
-4.40018e-05
-0.00133114
-8.1923e-06
7.7907e-05
-3.42117e-07
3.18593e-05
0.437302
7.42989e-07
-0.0899504
0.0578801
-0.00232733
-3.42104e-07
-0.191986
-0.0315862
1.20666e-06
1.82266e-06
-0.00930959
4.94151e-05
0.00884956
-2.07311
1.55924
2.0469e-06
1.80117e-05
-0.00812757
9.58037e-07
-0.235032
-0.256214
1.33597e-05
-0.00238778
-0.00251919
-9.73138e-07
0.0361362
-8.90093e-07
0.0022277
4.17557e-05
0.000619825
6.53876e-07
-4.96106e-06
0.392955
2.49761e-05
-0.455177
0.0104564
-5.08734e-06
-7.92882e-06
1.32663e-06
5.17894e-07
-0.273378
-2.52959e-08
-0.269762
-1.16133e-06
4.60891e-07
-0.00180198
0.476889
-1.1517e-06
1.96237e-06
-4.6094e-07
-4.8896e-05
9.99104e-05
0.00150315
-0.259153
-0.000904738
-2.35994e-07
0.148464
-0.227771
7.08575e-05
0.00187026
0.149702
0.0027284
-0.000110584
-4.08567
-1.86112e-06
0.389758
-0.00365312
1.47918e-07
0.00574544
-1.62691e-05
-2.76159e-06
-3.6943e-05
0.119221
-2.54455e-06
0.374986
-0.197716
-0.398178
-0.00123373
5.59796e-07
-0.0783345
2.41049e-08
0.00382155
6.37165e-06
0.0626195
-0.000491954
0.00080241
3.89186e-05
-0.654654
0.00158257
4.83166e-09
0.157757
0.183748
1.94517e-06
-0.128338
8.55345e-07
-0.00206745
-7.06534e-06
-1.09089
0.767411
1.70894e-05
-2.35466e-05
0.588176
0.0874554
-7.91015e-07
-0.000143608
2.00366e-06
-7.51263e-07
1.04097e-06
-0.000330098
-0.086181
0.483032
-0.000127979
-2.25166
2.30743e-05
0.00761673
6.87241e-07
-0.999772
0.0711045
-0.076158
0.000149861
-0.411266
0.121321
7.00712e-05
-0.00153785
-4.67291e-06
0.000622021
0.279645
1.62608e-05
1.00137e-06
-3.48809e-06
-0.000158097
8.48587e-07
1.96591e-06
0.957217
0.000703294
1.40222
-2.17596e-05
1.24028e-06
-3.20594e-06
-2.6802e-07
-0.100862
0.00477252
-1.86515e-07
-0.00370548
8.17693e-07
0.112483
-4.62453e-07
-0.000175169
0.247741
-0.0223064
0.00241094
-0.615084
-1.1635
1.52585e-07
0.0154228
1.28962e-05
-0.00138381
1.73695e-09
-9.14052e-08
-0.0678088
0.0110931
0.322667
-0.00496011
0.0026022
-2.85321
-3.03191e-05
0.0028004
-0.000104676
-0.306219
0.408607
-0.64388
1.5257e-07
4.27571e-07
0.30357
0.0496041
-1.04429e-06
-0.205578
-6.51792e-07
-0.00062084
4.81488e-08
-3.17188e-05
5.01132e-07
-2.0461e-06
0.487374
-0.00149417
-0.000210858
-4.90713e-07
1.33679e-06
6.65201e-07
-4.60301e-07
-7.52269e-07
2.36078e-08
1.47075e-06
0.447038
0.264764
-0.00212446
-0.000500553
-0.147014
0.0105658
-0.399423
-0.140365
-0.00368966
-4.93345e-07
2.42514e-05
-1.6247
-9.97959e-05
-0.00956592
0.584601
9.05869e-06
-5.30947e-07
0.000185213
0.135441
1.61853e-07
-0.39141
2.86672e-05
5.03085e-08
-0.482824
-1.66572e-06
0.000760231
6.44196e-08
0.0362247
3.73274e-07
5.682e-07
-0.151646
2.75108e-06
1.0642e-06
1.03597e-05
-2.84865e-07
0.019294
6.0947e-06
-0.678113
1.49007e-06
2.52412e-08
-1.26832e-06
0.0725917
0.00751261
9.42285e-05
-0.33448
-6.76804e-07
5.03162e-07
-0.0717632
-0.395513
-9.09896e-06
-0.622326
0.211515
-9.50448e-05
0.270201
-6.44907e-07
-2.29506e-05
0.000547797
2.59471e-06
-0.054708
0.16084
-8.0046e-07
-0.00062899
-8.79617e-06
-0.19343
0.520712
0.00300821
-5.00732e-07
-1.14799
0.00214034
0.00300388
-0.000681711
-6.09436e-07
0.000112305
4.99396e-06
-4.31543e-06
-0.246507
-9.77945e-07
-3.61664e-06
-0.0029471
-0.343829
-0.0052926
-0.558001
-2.82055e-07
-0.0136091
2.31947e-05
-4.19453e-05
-5.96278e-06
-3.3843e-06
-4.47096e-07
-6.97345e-07
-9.89064e-07
-1.31544e-07
0.000150422
2.39392e-05
3.46992e-05
1.28595e-06
-0.18416
-0.581025
8.19129e-06
-5.04292e-05
0.618943
-5.51392e-09
0.0137209
-0.0413298
-1.42675
-0.410702
-1.1661
-0.342528
-2.65841
-0.147219
1.93862e-05
0.000499697
-1.29781e-05
0.00155847
0.000983101
-1.79888e-08
6.27565e-06
-0.0123957
3.51006e-06
-0.000683682
-0.102355
-8.05269e-07
2.79421e-06
0.0269237
-3.89833e-07
7.27454e-06
-4.70494e-07
7.35551e-05
0.0749427
-0.146155
2.34594e-06
-6.78434e-06
4.57458e-07
0.00025384
-0.00426894
7.82965e-05
0.0263425
-0.113923
-9.63419e-08
-0.190236
-0.000766065
1.24605e-07
0.247895
6.7081e-07
0.00176979
-1.32635e-06
-0.000157268
-3.6481e-05
-0.0255278
-2.08525e-06
4.65373e-07
-0.000323647
1.39537e-06
-0.00308981
-1.06213e-05
-0.605924
0.00843013
-0.00649686
-0.735427
-0.139303
-0.00711384
-1.33966e-05
-0.0727349
2.85678e-06
1.04444e-06
-0.000220561
0.184758
0.00073859
-0.00689378
0.0724581
9.89295e-07
2.7071
0.482887
0.82684
5.64649e-07
0.00219623
-1.0874e-06
-0.122279
0.0025444
0.434766
-0.129052
1.9883e-06
-0.00125979
-0.00145384
-1.68329e-05
0.644077
-2.00934e-06
0.00068765
0.723735
0.0219402
-5.61771e-06
-1.40181e-09
-3.32735e-08
0.0120747
1.17928e-07
2.5868e-05
-1.83095e-06
-5.00106e-07
2.58978e-06
-0.00991142
7.995e-07
1.54523
0.35904
0.000201753
-2.42934e-06
-8.41263e-08
0.00189216
0.00238558
-1.50209e-06
0.256355
0.0178175
-1.82894e-06
-9.04767e-08
-0.278168
0.34383
2.76734e-07
0.098704
0.00134131
1.89395e-06
-0.0999682
-3.57567e-06
-0.027181
-1.70235e-08
-1.58229
-0.0659129
5.57863e-09
0.00290426
0.204831
0.0012334
-0.0478226
2.2904e-08
0.00230735
0.379135
-0.141197
-9.63579e-05
-0.00065249
1.82865e-05
0.000687432
-3.38702e-05
0.0565293
0.336683
0.394446
-7.14247e-06
1.50195e-05
0.0151662
-8.9413e-06
-0.267483
0.000412272
0.651965
-1.67648e-06
3.267e-08
1.38882e-05
-3.89141e-05
-9.19359e-07
-0.00570328
-0.190195
-0.000104327
2.31165e-06
-6.13702e-07
-0.323008
-0.000408912
2.11983e-05
-4.34868e-08
-0.00181802
0.168422
-3.44968e-07
1.17263e-05
-0.00829677
-0.0126309
-4.93457e-07
0.00152308
8.40734e-05
-0.000623666
-0.0120869
-0.0017652
-0.152021
0.311115
0.0104452
0.0511723
-1.14315e-06
1.6894e-05
-3.07342e-05
-0.596202
-0.000813304
0.253797
1.23845e-07
0.189712
-0.00346488
-1.57772e-06
-0.00104451
-3.81668e-05
0.636853
-0.00496439
0.00311181
-1.91021
-0.000193048
-3.07446e-07
-1.95247e-07
1.83364e-08
-0.000234064
0.27201
-0.00325103
-4.50669e-07
-0.147974
1.30486e-05
-0.581882
-2.39093e-06
-0.440164
-0.000201842
-0.613099
0.101707
0.0202804
-2.20446e-06
7.59752e-07
-1.33324e-06
-0.100025
-2.81877e-05
0.00143921
1.031
6.24524e-07
-0.0436955
-0.0012245
1.73597e-06
-0.00257464
-1.46123e-06
2.32478e-06
0.058702
-0.140553
0.221617
5.65918e-08
-1.92232e-06
-0.000543327
6.0795e-05
0.000253438
-2.47467e-05
-0.309616
-0.00630092
-2.59786
-1.79824e-05
-0.0019879
4.00296
-0.617059
-0.00227618
-1.98862e-06
-0.0878258
0.00015655
0.281881
-1.19222e-05
8.44365e-07
-8.66327e-09
7.39578e-06
5.74101e-07
-3.70757e-06
-1.81349e-07
0.00397319
-0.0970259
0.000182038
0.323648
0.00344337
-9.37911e-08
-2.55214e-07
-3.416
1.15562e-06
-0.000110053
1.01446e-06
-0.0792803
-0.0551581
-2.04507e-07
-8.27538e-05
-6.4117e-07
1.75355e-06
5.2809e-09
2.24595e-07
2.43776e-06
-1.22949
9.37401e-05
1.29936e-05
-0.100692
-1.10459e-05
-0.737749
0.0215647
0.000601895
-0.432365
0.000185803
-1.22745e-08
0.603677
6.51908e-05
-0.00124348
-0.00115214
-3.10198e-06
-0.00329355
-3.53903e-07
-0.555502
2.29151e-06
3.6413e-06
0.171156
-0.0102948
-0.0813522
-6.95592e-07
-0.0275526
0.00232793
0.0010199
0.305197
7.93515e-07
-2.9289e-06
2.65498e-06
-0.170889
0.000306321
-0.526967
2.27643e-06
-0.00319881
0.147273
0.0719518
1.75037e-06
-0.161531
0.000698977
-0.00523541
0.000281914
2.09334e-06
-0.000302759
-0.971309
-2.17797e-06
7.98412e-05
-0.239788
1.19243e-06
0.000462532
2.55507e-05
0.00705924
0.651991
-0.131418
-1.61318e-05
-0.10191
1.99358e-06
0.088803
1.13708e-06
-0.000230419
0.00858186
-0.900527
0.00583761
2.89912e-06
-0.00234144
-0.102049
0.0138351
0.0394095
-0.338976
1.97011e-06
0.617914
7.61693e-07
-0.0601142
4.44228e-06
-0.000142972
-0.346656
-0.000170416
6.73572e-07
-2.67697
-0.0163661
-0.100159
-4.60485e-07
0.378932
0.329931
-1.83257e-06
0.401479
0.556946
2.48775e-08
-4.21569e-05
-2.35704
-5.27133e-07
4.91433e-05
-6.5903e-07
-3.80217e-06
-0.00081675
0.0196926
-0.000901462
0.219881
3.87805e-08
-2.381e-05
0.000117811
0.000137544
-0.000311145
-0.0013077
2.69932e-05
-4.02154e-08
-0.325339
-0.0460065
0.313041
6.44341e-06
0.00122807
-1.06398e-06
0.430637
-3.26885e-07
0.00290457
-0.236878
-0.151401
-0.0148152
1.20615e-05
-1.25806
0.0219563
0.827132
2.03471e-06
-9.17119e-07
-6.20887e-06
-0.39085
-0.00221961
0.222919
-0.481031
5.52892e-05
1.82094e-09
0.0985555
-0.000158763
0.012402
1.62247e-07
-1.09048e-05
1.61574e-07
0.211982
-9.55562e-06
-0.00171697
5.53287e-07
-9.75517e-07
-2.40604e-07
-0.0382191
0.0424575
0.00192041
2.61296
8.04288e-05
-0.949149
-1.31104e-07
-2.27077e-06
-0.00446256
-1.51163e-05
8.37013e-07
0.000211402
0.0928056
0.000805897
0.0161138
1.04197e-05
-0.015287
-0.244683
-9.40871e-06
3.50853e-07
-8.73443e-06
-0.197491
-0.0040917
0.00240304
-0.0257235
3.47091e-06
-2.63398e-05
-0.650387
-0.000459664
-6.10116
-0.301764
-0.00544276
0.078968
-0.642516
0.130235
-0.00045139
2.03743e-05
-1.57384e-07
0.127063
-0.262975
-1.95508e-06
0.00848925
-0.0804096
-5.07581e-07
0.155663
-0.638551
0.0502154
-1.63547e-06
0.00588672
-5.79928e-06
-3.76624e-07
-4.56176e-07
-3.78875
-5.10296e-05
0.00235225
0.000850677
3.38675e-07
-2.49653e-07
-0.0944857
3.17526e-06
1.77117e-06
0.000294845
-0.300831
-0.00486681
1.89279e-06
-0.00833131
0.608397
0.416377
0.00102203
0.252151
0.0104597
0.0620119
-0.0108578
3.47595e-05
0.0752665
-0.00198898
1.52962e-06
-7.69986e-06
2.64434e-05
-0.000169144
0.0324716
0.0630574
-8.0033e-08
-0.143165
0.0258006
1.32071
0.393165
-0.349919
0.428241
-0.0110995
0.281165
-0.0114044
0.0547656
-0.00354767
-1.27379e-06
-5.35797e-05
-0.626791
0.32016
-0.0330761
-0.829801
-1.02117e-05
0.077068
0.278858
2.13497e-08
6.8168e-07
-9.03784e-05
0.00825899
0.219702
0.301016
-0.36068
3.42941e-07
1.11697e-05
-4.62105e-08
-0.361932
-0.000219567
0.217172
-8.97375e-05
0.155682
0.0183825
0.242633
0.000956251
0.591343
-2.26848e-07
7.23531e-07
-0.00618124
3.23307e-07
-0.132663
0.123975
0.414791
-5.01888e-06
0.241802
-0.332715
9.55527e-07
-0.00408938
0.0897247
-0.0128248
3.13207e-07
7.38004e-05
7.69505e-07
0.0596464
-8.92577e-07
0.00019184
-0.270686
-0.000379431
0.00342977
0.000619546
-7.76709e-08
3.5426e-05
0.00492156
-1.67657e-06
5.66478e-08
-6.74987e-07
-0.000182404
0.0392244
5.0908
1.98108e-06
-0.380256
0.154267
-7.75265e-07
0.386034
0.170417
8.1645e-07
0.391208
4.94157e-07
-0.0412783
0.018365
2.05545e-06
-5.47161e-07
-2.79897e-05
-0.00205364
0.000809026
4.58124e-07
0.39843
-4.828e-06
-0.432268
5.23673e-08
-0.005932
-0.0997217
0.000640762
-2.41288e-06
-0.339168
0.0258514
0.301958
-0.196658
0.00728934
-8.60881e-05
0.0540085
1.60468e-06
0.0142606
-0.02128
0.000583608
0.00743696
-1.29562e-05
0.174824
-0.913588
0.271405
-0.309596
-5.21676e-06
-0.109289
0.480871