/*--------------------------------*- C++ -*----------------------------------*\
| =========                 |                                                 |
| \\      /  F ield         | OpenFOAM: The Open Source CFD Toolbox           |
|  \\    /   O peration     | Version:  v2012                                 |
|   \\  /    A nd           | Website:  www.openfoam.com                      |
|    \\/     M anipulation  |                                                 |
\*---------------------------------------------------------------------------*/
FoamFile
{
    version     2.0;
    format      ascii;
    class       volScalarField;
    location    "350";
    object      ddt0(gammaInt);
}
// * * * * * * * * * * * * * * * * * * * * * * * * * * * * * * * * * * * * * //

dimensions      [0 0 -1 0 0 0 0];


internalField   nonuniform List<scalar> 
18758
(
-2.44474e-08
-0.00022955
-9.08496e-15
-1.94258e-14
4.19937e-14
-2.36721e-14
-4.88061e-14
-1.89334e-15
-1.02171e-06
-6.58911e-15
-2.26262e-15
3.57864e-14
-2.98862e-14
-7.97093e-07
-3.93964e-14
-3.53051e-14
2.39559e-15
1.67054e-14
1.13563e-14
1.7369e-15
1.93024e-14
1.46336e-14
-3.82869e-14
-0.135806
0.00663651
2.89081e-14
-2.23575e-08
2.16746e-14
9.56725e-10
0.0245066
-2.32135e-12
-1.53205e-14
-1.44669e-15
-2.27666e-15
-1.77541e-10
7.79185e-15
-3.91235e-15
2.1923e-15
-3.6337e-14
-2.48107e-14
-3.45233e-14
1.28605e-14
2.26965e-15
-5.11532e-14
-0.0226776
4.75378e-16
-7.49624e-15
1.42555e-15
-6.61137e-15
1.77828e-14
7.88161e-06
-5.87839e-14
-6.44468e-15
1.18737e-14
-3.70024e-14
0.000380544
2.84488e-14
7.01459e-15
-2.28401e-14
1.28001e-08
-3.77512e-09
-2.7447e-14
-4.99886e-10
-2.77881e-14
2.81726e-15
7.85419e-15
-3.75594e-14
-3.62546e-15
-9.9495e-15
2.82105e-14
-2.93069e-14
2.89251e-14
-3.93269e-14
-2.80698e-05
4.57736e-14
-5.24272e-15
-9.67815e-08
1.94379e-14
-3.45184e-13
-3.75381e-14
-1.20369e-14
-0.0128719
9.0417e-07
-4.80571e-14
2.83446e-07
-3.03961e-14
3.99203e-08
-4.24007e-09
-1.12809e-07
-2.4425e-14
-1.50424e-14
-4.0053e-15
-3.91595e-12
-3.56067e-14
-2.65921e-14
3.65128e-11
1.22702e-07
-8.89335e-15
1.45332e-14
1.05787e-14
4.53379e-15
1.04489e-14
8.70562e-11
-3.92714e-14
8.37394e-15
0.0125593
-0.00163532
3.74679e-14
1.60063e-14
3.55076e-14
-4.32266e-11
-4.91793e-07
2.97979e-15
-2.62915e-14
7.56805e-13
-9.52682e-15
3.01551e-14
2.95677e-15
-3.87533e-14
1.0346e-14
-2.34648e-15
-3.00408e-14
-2.82072e-11
3.99748e-09
-0.00148239
-0.00373869
0.00146021
-0.000103737
3.19824e-12
-4.95707e-15
4.78382e-14
9.48142e-08
-5.55409e-14
8.67656e-15
-4.79318e-11
-2.53874e-14
-4.65277e-08
-3.08271e-14
-7.36381e-15
4.21029e-14
4.25118e-13
-9.58649e-07
2.87788e-14
3.61368e-06
-1.78229e-14
-2.70356e-14
-1.5596e-14
4.44638e-15
8.98699e-12
-9.76936e-12
-0.00448693
-0.0449024
3.68726e-15
4.20007e-15
1.76417e-14
6.08755e-15
-2.26581e-14
4.57575e-16
-4.2672e-15
6.05195e-15
1.79337e-14
-1.07309e-07
-3.12839e-09
2.4353e-15
4.38077e-09
-9.13166e-11
-3.78265e-14
9.35619e-12
-8.1423e-05
5.68678e-15
1.14772e-14
4.45041e-15
2.22695e-09
-4.71711e-14
-1.64284e-07
-0.0796421
-1.83969e-12
-4.13292e-14
-4.08557e-15
-2.80433e-14
-1.99421e-15
1.78206e-14
-0.0165285
2.48513e-15
3.36388e-14
0.00234308
1.28714e-15
1.25344e-14
-1.51806e-14
-1.56644e-15
-6.60829e-15
-0.00010819
4.5771e-15
4.82655e-12
2.89275e-14
-1.13396e-08
-3.2669e-14
5.82722e-05
-2.29405e-15
-3.49017e-14
9.0587e-15
-4.45815e-14
-2.11879e-15
2.13006e-09
-3.63522e-14
9.93041e-14
-3.45757e-11
3.85081e-14
8.44797e-15
3.17298e-14
-2.30426e-16
-3.80023e-14
4.04397e-14
3.61392e-14
-3.34168e-14
1.0089e-14
6.67315e-15
-5.22298e-14
-4.76406e-15
-2.86902e-14
1.35267e-14
4.16066e-15
3.36135e-09
4.63093e-14
-0.000235196
1.35696e-10
1.34748e-12
1.03915e-15
-4.54157e-14
-4.51436e-10
-1.04766e-14
-6.8203e-09
-3.07276e-14
-4.04995e-07
4.19764e-14
-5.13669e-15
-4.32731e-15
-2.58511e-15
7.37345e-11
-1.73069e-15
3.44719e-14
0.00360073
-0.000560073
-3.36297e-14
-3.13116e-10
-0.00306785
-1.87328e-07
-1.20501e-14
4.21314e-14
-9.00989e-15
-1.92056e-14
1.09151e-13
-1.40179e-15
4.73501e-15
2.61637e-14
-4.51623e-15
-0.00378163
1.67146e-14
-9.6026e-16
-2.51743e-12
-1.12483e-14
-1.30698e-10
-3.58772e-14
-3.07718e-10
-3.73925e-14
-4.3292e-09
6.18779e-15
-9.44363e-15
-6.59728e-15
3.09345e-05
2.49072e-15
3.36994e-15
2.68787e-09
1.05253e-11
5.71785e-14
2.06368e-15
-4.70546e-07
-7.14174e-11
-0.00586029
-6.61118e-15
6.80087e-15
-9.79052e-15
8.96381e-15
-4.53659e-14
3.24051e-11
0.00275027
5.09236e-10
3.57213e-14
-4.30551e-15
3.81033e-14
2.51201e-15
-2.43832e-15
2.93885e-14
5.12464e-14
-4.05133e-13
1.49027e-07
3.69761e-15
4.90085e-16
2.94066e-14
-0.000173182
-8.20486e-15
-2.39574e-17
1.73929e-14
3.81745e-14
-4.59382e-14
1.10632e-14
-1.0549e-08
-3.28791e-14
3.43667e-15
7.03471e-10
1.59468e-08
4.11353e-14
8.05824e-12
-1.28521e-14
0.000128404
-3.50499e-14
3.1232e-15
0.00018468
6.55576e-15
-6.41563e-15
4.16531e-14
1.41696e-14
-7.13449e-05
-9.70783e-09
5.85106e-15
-5.37291e-15
1.45455e-16
4.47731e-15
4.60299e-15
-3.30475e-14
2.13793e-05
-1.4935e-12
-1.84177e-06
-2.99914e-14
-3.18916e-15
2.71534e-15
-3.63413e-14
-7.56215e-05
3.93537e-16
3.69939e-14
2.96307e-14
-6.93987e-15
3.78274e-14
2.5377e-15
0.011684
-1.33928e-14
2.54529e-14
4.88718e-15
3.52302e-13
-2.38557e-08
1.7256e-05
-7.84767e-07
-4.6667e-14
-0.000211893
-3.30357e-08
8.09373e-15
7.74844e-14
2.65107e-14
-7.44357e-15
0.0159962
1.24186e-14
1.9459e-15
-0.000147946
-2.22438e-12
4.77336e-14
7.42953e-15
-4.74845e-12
2.68493e-15
-2.54079e-14
7.92581e-06
3.6785e-14
7.67238e-11
1.05823e-14
1.25698e-15
1.21719e-14
3.61142e-14
4.21251e-15
-2.87796e-14
-3.12167e-11
-3.14066e-14
1.43545e-12
8.74789e-10
1.54401e-16
-3.84813e-14
-5.77169e-15
-1.79956e-11
-4.82109e-07
3.7993e-14
6.5323e-13
-3.95785e-15
2.56567e-14
3.60217e-15
-6.64518e-15
3.52967e-14
-3.33095e-14
5.6251e-05
-2.43407e-08
4.7486e-15
9.90495e-08
2.61679e-14
2.87292e-14
-1.92395e-15
1.41424e-14
5.3209e-15
-3.58125e-14
-3.04294e-16
-8.46624e-11
-6.74351e-16
-2.45419e-14
-1.3037e-06
4.7109e-12
-1.04047e-14
-6.1262e-15
3.40647e-14
-9.44619e-15
4.60957e-15
3.07004e-15
-2.16315e-14
3.20701e-14
-2.29681e-11
3.2859e-14
-0.274044
2.10219e-15
1.60553e-15
3.8356e-05
-1.28078e-10
6.1186e-14
1.34382e-14
1.05622e-11
-1.14075e-15
-1.52771e-14
4.35705e-14
4.41238e-15
-6.09589e-11
-7.66041e-14
-4.31485e-14
1.87972e-15
3.56318e-16
-9.10629e-05
1.95371e-10
-2.72385e-14
4.21665e-15
3.5584e-07
-6.09344e-17
-5.12572e-15
-4.89971e-15
2.1836e-14
-5.73616e-15
2.39697e-16
-1.63886e-15
-0.000187969
-2.25122e-10
-3.52236e-14
7.74537e-14
2.89263e-14
5.06125e-15
-1.45548e-14
3.24895e-14
-2.05494e-14
3.12497e-10
2.47837e-07
0.000422269
3.3831e-14
-3.30112e-07
-5.67042e-15
-2.74e-06
-3.1926e-14
-4.47031e-10
-4.52262e-15
-2.86626e-12
2.94198e-12
-0.00785288
1.35406e-15
-1.30918e-11
-4.10665e-14
-0.0328542
6.57417e-15
-2.22725e-14
3.00489e-14
0.000381197
2.79073e-14
2.56453e-06
8.46155e-15
1.42955e-14
-5.68077e-15
6.8835e-15
-2.46409e-09
-2.37724e-14
-2.57388e-11
5.93517e-14
-3.24392e-14
-6.06266e-09
2.47597e-14
2.13464e-14
9.41812e-15
-1.7904e-14
1.92404e-14
3.11178e-07
-1.88002e-14
-1.72936e-10
7.18965e-09
3.61165e-14
-3.41527e-15
-2.46488e-14
3.67154e-14
1.44861e-15
-1.38049e-09
1.53435e-14
-5.12507e-15
6.72659e-16
-8.94496e-16
1.61539e-07
-1.80778e-15
1.04568e-14
3.83409e-05
-2.18242e-14
-1.8628e-11
-0.0169822
-2.78251e-15
1.90753e-14
-3.62232e-15
5.77206e-15
1.36081e-14
1.29555e-05
-4.18705e-14
1.52123e-10
-0.00025388
-3.96992e-12
-2.04533e-16
-7.53553e-14
-5.15998e-15
-3.75051e-14
-4.49824e-15
-1.33534e-14
-1.48318e-15
1.11656e-16
-2.46487e-15
-1.83793e-15
1.56985e-10
4.05993e-15
8.90229e-11
1.05368e-14
-2.97182e-07
-1.24612e-05
6.01199e-15
-1.7694e-14
-4.2539e-16
-1.02859e-14
-4.00875e-15
3.13597e-14
-5.8596e-15
9.6878e-10
-9.93076e-12
-1.30034e-14
-1.69025e-14
-5.56742e-14
3.05578e-14
-1.94295e-06
-0.000278796
7.30111e-15
1.64921e-14
1.37637e-15
-7.16307e-15
-6.63229e-14
-2.93791e-14
-7.50231e-14
-2.63838e-14
-6.84659e-16
2.09345e-07
-3.37654e-10
9.89888e-16
-3.9521e-14
4.642e-16
-2.24344e-12
-0.0136029
2.66965e-15
-0.000400374
-1.0424e-14
-1.416e-05
6.36782e-15
1.34306e-14
3.79918e-15
-2.7473e-15
7.65226e-15
2.43675e-06
-2.82953e-14
-7.79e-06
8.45231e-15
-7.18241e-14
-1.66093e-14
0.00145889
0.0195619
3.60325e-14
-3.74252e-15
-3.46324e-15
5.95784e-15
-8.81355e-15
-2.77717e-14
-3.11995e-15
1.11624e-14
7.37443e-15
-6.68048e-15
-8.62744e-16
5.46891e-14
-7.13814e-10
-4.31961e-14
-2.04962e-14
-7.41191e-15
-1.80914e-14
2.67954e-12
1.16238e-14
-8.85613e-15
3.43455e-14
-1.11962e-15
1.02066e-09
-2.87715e-15
0.000133107
3.45852e-14
4.90039e-10
-2.78456e-14
-5.0341e-15
-1.15417e-06
-7.21385e-15
4.3668e-14
-0.00281165
-4.13127e-15
2.60619e-14
9.84649e-06
6.3108e-13
-1.7692e-14
-1.17041e-15
-3.325e-14
-2.24738e-14
0.000182323
1.62651e-16
2.34286e-15
-5.73163e-14
-0.0139497
-1.3507e-15
6.0513e-14
-2.83453e-10
9.03821e-07
-2.29442e-14
6.35734e-15
2.92461e-11
-8.07137e-15
-2.28634e-09
-6.27681e-14
3.64446e-05
4.44091e-14
-1.1628e-10
-2.01108e-14
-7.58508e-11
2.95287e-14
-1.19264e-14
-2.35888e-14
-7.40811e-15
8.04034e-10
-7.32389e-15
3.96685e-15
3.36008e-10
-1.54776e-14
3.6426e-12
5.70393e-11
2.00803e-06
3.04412e-14
3.65549e-14
1.34476e-08
4.99544e-14
-4.45871e-14
-4.54653e-13
1.27266e-14
-1.71193e-15
7.69501e-07
-1.14319e-14
1.21759e-14
1.95698e-15
-3.85e-14
-1.44623e-11
-1.12335e-14
-2.01815e-11
-6.68027e-15
-1.53602e-14
-1.30472e-14
-1.37305e-14
8.67815e-15
-5.64778e-15
-8.15089e-13
-6.96312e-14
3.3913e-14
-3.03241e-15
1.32581e-15
-1.28263e-14
1.29272e-13
7.9267e-15
-8.57636e-15
-1.30652e-14
-0.000362795
-1.6803e-14
2.97508e-14
1.87617e-10
7.77064e-16
8.42374e-15
-3.75468e-14
3.00839e-10
-6.6699e-06
1.57941e-14
-3.58021e-14
5.04859e-14
0.000354847
-3.70101e-14
-5.01565e-14
-1.23711e-15
2.8088e-14
-2.95714e-14
-3.82239e-14
3.10442e-07
2.0405e-15
-3.67696e-15
1.15856e-10
-1.97131e-15
3.6219e-14
2.09286e-14
4.52613e-15
-1.97135e-15
-4.36201e-14
3.54227e-14
-1.32805e-14
-3.31988e-14
-5.2504e-05
-4.60298e-14
2.49453e-14
4.08367e-10
-9.58911e-14
-7.10513e-13
-9.22989e-15
1.19452e-07
-1.92227e-11
0.00876248
-1.75302e-14
1.32264e-05
-2.26191e-12
2.25856e-14
-3.36975e-05
3.81654e-14
0.000867542
-9.76704e-15
5.818e-14
3.14915e-14
3.45813e-14
3.70396e-14
3.90001e-14
4.50044e-08
-8.72836e-15
2.32112e-14
-0.0178869
8.67953e-15
-1.39203e-14
8.55136e-15
1.7136e-09
-5.3989e-05
-0.00824858
7.20941e-07
3.64942e-14
-5.27009e-15
-5.10789e-15
8.97799e-15
2.12496e-15
-0.00716633
-1.36129e-10
4.89076e-14
2.13293e-14
9.18211e-15
-1.63896e-15
6.21777e-16
-1.42379e-15
-0.00650607
8.66653e-05
-2.11722e-14
3.54233e-11
1.63152e-14
-1.98786e-12
1.85059e-11
1.36443e-14
9.89092e-12
-2.88343e-15
-3.51297e-14
2.55515e-14
8.88138e-15
5.35679e-14
-2.85598e-06
-1.07686e-14
1.00694e-10
-3.67716e-14
-3.17155e-14
3.805e-15
-1.11803e-14
-2.0343e-14
3.81172e-15
1.5799e-08
7.46313e-14
-3.94029e-14
-2.52676e-14
6.09705e-15
2.9988e-14
1.0569e-14
5.69801e-08
-3.33806e-15
2.44119e-14
-3.33876e-14
-4.74487e-07
-8.23099e-14
1.79963e-14
1.17129e-14
1.84443e-14
-3.23549e-11
-0.00301952
-0.000970188
3.85738e-14
-3.37107e-14
-4.73178e-15
0.0063086
-4.06003e-14
0.000630654
4.28399e-15
7.01081e-15
-4.5316e-14
3.26647e-14
2.38926e-15
1.29797e-14
5.97338e-15
-8.06469e-09
-3.16053e-13
-0.00157792
1.85563e-14
0.00506971
-2.73821e-14
3.92987e-14
9.10924e-15
3.58836e-14
2.18607e-14
9.89202e-17
1.92443e-14
-4.25246e-09
-6.01612e-07
2.16621e-12
-1.5853e-14
-4.26501e-14
-1.36593e-10
4.98952e-14
-3.22171e-14
-3.11649e-15
-4.96225e-14
1.03123e-14
-1.45961e-14
-0.000106739
-1.75912e-14
6.51111e-15
-3.26192e-14
1.94276e-14
-3.48548e-14
-8.49633e-15
0.0193972
-4.26496e-14
-8.83137e-13
-1.78048e-06
-6.52131e-05
3.41819e-14
8.34324e-06
-1.37246e-14
-2.51051e-15
0.000146068
-1.22293e-14
-4.52207e-08
-2.62953e-15
-4.65626e-14
-0.015547
-4.19317e-14
-5.04764e-14
-2.93381e-15
-7.47984e-07
-3.58465e-14
9.75572e-16
-1.40057e-07
-3.61912e-10
2.48363e-10
-6.19477e-16
1.85296e-15
7.7194e-15
-1.99453e-14
2.02604e-11
6.69042e-09
-2.93059e-14
8.21658e-14
-3.936e-16
-8.29679e-07
2.0611e-15
0.00510101
-6.89291e-16
1.22061e-15
-3.05496e-05
2.30981e-14
-1.87257e-14
-4.19018e-14
1.26494e-15
3.76246e-14
-4.21115e-15
-4.43503e-14
0.000367464
0.0015894
7.15049e-15
9.69256e-15
1.15609e-15
-3.29626e-16
2.20112e-07
-1.21826e-06
2.85152e-14
-7.02113e-16
-7.58598e-15
-0.002013
8.14899e-10
6.92552e-15
-8.07581e-15
5.68059e-10
2.97929e-15
1.74959e-14
-4.23543e-14
1.42418e-08
-4.92664e-11
-5.93965e-15
-0.000573162
-8.78092e-15
1.41787e-14
3.63478e-15
-0.008269
9.66378e-15
-1.74996e-15
1.4769e-14
-0.00121144
3.2551e-14
1.85035e-08
4.52167e-14
-9.79454e-12
-1.72952e-14
-4.0498e-14
-4.36427e-15
4.45153e-14
4.01393e-14
0.000558125
1.5144e-06
1.05597e-14
1.89172e-14
1.04586e-14
4.46629e-14
-1.24686e-13
-1.26402e-14
4.26945e-14
3.55186e-14
2.66642e-14
5.7017e-14
-8.66862e-16
2.12427e-15
-8.19992e-16
1.11886e-14
3.34585e-16
3.1603e-14
1.00322e-14
-6.24983e-15
-3.69397e-14
9.20005e-13
4.87186e-15
2.25664e-14
1.10879e-07
-1.40112e-16
-1.7218e-15
-7.65364e-14
-2.18247e-10
-5.07108e-15
-1.40518e-05
-6.02843e-12
-7.0902e-09
4.14344e-14
-2.93143e-11
2.64395e-07
-1.25908e-14
-5.48734e-12
4.38274e-15
2.70863e-14
-6.28091e-16
-1.78784e-13
-2.79323e-15
-1.50893e-13
-2.9268e-15
1.77724e-15
1.87084e-13
7.40369e-14
-2.76056e-07
-3.36901e-16
2.57964e-15
-5.03759e-15
-2.43134e-07
-2.7105e-15
1.86017e-14
-1.41317e-15
-5.93127e-15
3.72566e-14
6.21586e-14
8.43892e-15
4.15509e-15
2.83054e-14
1.80543e-14
-1.97605e-11
6.58528e-16
4.47792e-14
0.00334745
1.7399e-14
-2.98591e-15
2.48217e-15
7.74741e-07
1.03519e-14
-1.96385e-14
-9.36706e-15
-0.000164578
-8.00431e-13
-3.3865e-15
1.24767e-14
1.84445e-14
5.31324e-15
-2.15137e-14
7.15827e-14
-4.84744e-15
1.59975e-11
-3.77355e-11
-3.3275e-14
3.75284e-14
-1.26741e-14
-3.02297e-14
6.58034e-15
1.42677e-14
-0.000137405
-7.84957e-15
-2.88431e-14
-2.48856e-14
1.02077e-07
9.32584e-16
3.46994e-14
4.22071e-12
3.79516e-10
-9.25298e-15
-3.20553e-14
2.73681e-14
-9.74638e-12
-4.28261e-14
2.85647e-14
5.76986e-14
8.1224e-14
1.11846e-13
-1.18959e-14
-2.63274e-11
4.05798e-05
4.0295e-14
3.70987e-14
3.26936e-14
-4.06799e-14
-7.15586e-11
1.17273e-15
-1.50229e-16
-3.35099e-14
3.3131e-14
-6.3595e-14
-3.95848e-14
-0.00614716
-2.79723e-12
-2.56315e-07
1.51917e-14
-2.85443e-14
-2.14563e-14
-2.79292e-14
0.00828776
-4.36959e-11
5.3904e-14
-1.60847e-14
-5.55308e-15
2.5813e-14
1.09428e-08
-4.03319e-14
2.57741e-14
-7.28715e-15
-1.21387e-11
-5.30327e-15
1.62058e-15
8.20471e-14
1.26753e-14
0.00153584
1.74153e-14
-0.0012504
-3.81956e-14
4.73128e-14
-3.02418e-14
-9.09597e-15
-9.27953e-15
-6.55423e-15
-5.76067e-09
-3.24108e-14
1.27889e-15
9.18467e-14
-7.82519e-15
-5.39044e-14
-3.40889e-14
-2.56532e-14
1.36951e-14
-4.15039e-14
6.27536e-14
-1.18746e-14
7.8838e-12
-3.59455e-06
-1.38734e-14
-2.32559e-15
-3.84895e-14
1.0931e-14
4.5291e-14
1.82552e-05
-0.01537
-3.25322e-15
-3.06359e-14
3.3541e-14
5.48027e-15
5.73782e-10
1.03491e-14
-1.72599e-15
-1.63818e-15
1.2155e-14
-0.0541288
-1.34089e-12
2.07647e-10
-7.73917e-15
-3.35441e-05
5.01802e-15
1.42403e-14
3.84716e-15
-3.48803e-14
-1.64898e-07
4.1467e-16
3.55198e-15
-3.26908e-15
-1.46041e-14
-1.43088e-09
2.65629e-14
-2.99953e-14
-3.69229e-14
-3.85178e-14
3.16537e-15
8.71521e-15
-1.05686e-14
1.96895e-15
-7.9743e-11
-1.61558e-15
5.39081e-16
2.60181e-06
2.18204e-06
-3.32567e-15
4.06542e-14
2.47018e-14
-3.86709e-09
2.4791e-15
3.16141e-15
-3.4955e-14
-7.20491e-16
3.88207e-10
2.02843e-14
-3.15865e-14
-6.74577e-15
-4.12202e-15
2.90906e-15
-4.1756e-15
5.32656e-14
2.66502e-14
-5.78569e-15
3.31287e-14
2.53399e-15
-2.97003e-14
0.000373777
9.83252e-15
1.02494e-14
-7.7157e-11
5.82815e-14
-7.82383e-15
4.38818e-14
-1.62114e-07
2.96478e-14
-3.11442e-14
-2.09415e-05
2.04081e-15
4.00485e-06
3.53384e-14
3.5713e-15
-0.0456694
-2.96818e-13
-1.59777e-07
1.89556e-15
-1.57335e-15
-3.76281e-14
4.04919e-14
0.0112864
-2.75112e-15
-3.07706e-15
1.76019e-14
6.7598e-14
-3.49469e-14
4.92941e-15
1.79582e-15
2.99807e-14
5.46825e-05
-1.41095e-14
-1.27859e-14
4.41203e-15
3.86284e-15
2.59903e-14
-1.01637e-09
7.57382e-16
4.05287e-14
-0.00997561
-4.52469e-14
-8.0333e-15
3.46862e-13
1.33093e-10
4.68193e-14
-4.78242e-14
3.38198e-14
1.01924e-14
4.86278e-15
1.70437e-14
-9.09182e-15
-1.04201e-14
-0.0011209
-3.19034e-14
-0.00213457
-4.25023e-14
-2.16246e-15
3.06512e-14
3.12407e-14
-3.88797e-17
-4.06688e-14
-1.41277e-15
-2.54778e-15
2.47583e-14
3.33655e-14
-8.1333e-06
5.08533e-15
1.63443e-07
-3.31177e-14
-7.27659e-15
8.9684e-15
5.73601e-14
3.30323e-14
2.65857e-14
2.74556e-14
-2.66171e-14
8.02941e-14
2.38186e-14
3.32534e-14
-4.40816e-10
8.27666e-15
4.40504e-14
-3.42594e-14
4.5468e-14
-0.0037157
-7.6534e-15
1.87064e-06
1.86945e-14
7.20826e-14
-3.28623e-15
2.46459e-15
-9.17962e-15
-1.4708e-15
1.66179e-09
2.11802e-14
-1.61818e-14
-8.47976e-16
2.7051e-14
2.50032e-11
-1.9671e-14
-4.71369e-15
1.37779e-15
-6.23563e-16
2.81297e-05
-1.68253e-14
2.81023e-14
4.83207e-16
-7.07813e-14
5.6956e-07
-0.000672447
3.51913e-12
-2.60206e-15
-2.55139e-15
4.4172e-15
-3.67324e-15
5.14695e-14
7.82218e-14
3.4627e-15
1.55553e-11
-1.37089e-14
-4.72056e-15
3.87475e-15
-4.92194e-15
-3.67936e-15
-4.70525e-07
-1.04201e-09
2.23347e-15
-3.73636e-14
1.93813e-14
-9.13782e-15
3.92753e-15
1.1864e-16
-1.22943e-09
-4.42927e-14
7.97689e-11
-3.89263e-15
-0.0299439
4.23798e-14
-2.0226e-14
0.000690958
-1.02311e-05
0.000142332
-2.49451e-14
-1.01e-14
1.97268e-12
2.47635e-14
6.51812e-15
-4.84732e-13
-5.7045e-15
1.52878e-14
9.18312e-15
-7.33642e-14
-1.85645e-12
-3.88644e-14
-2.96204e-15
-1.18902e-14
-3.03872e-15
-9.16267e-15
4.78254e-14
-1.00251e-07
-2.00893e-15
3.73763e-14
-3.39585e-15
1.28121e-14
1.58795e-10
-1.2815e-14
-1.01438e-14
-2.07584e-15
-8.2751e-15
3.4809e-14
1.94744e-16
-4.86581e-12
5.88749e-09
-4.45221e-14
2.80881e-14
4.62302e-14
-9.60546e-15
1.19325e-14
3.70602e-14
4.45111e-10
9.58308e-06
3.86269e-15
-3.86588e-14
-0.00111605
6.51998e-16
-4.00633e-14
8.12528e-15
-1.11603e-08
1.05959e-10
-7.33583e-12
3.79326e-14
2.61557e-12
-6.75289e-10
5.97559e-14
4.56648e-16
-2.82888e-14
-5.29885e-15
-1.01656e-14
-8.10069e-15
-3.53832e-14
-5.61434e-14
4.26398e-14
-3.2522e-14
-6.91369e-15
-4.62133e-15
-8.42797e-15
2.57125e-14
-5.22226e-14
-2.75856e-11
-3.62948e-14
2.55712e-10
-3.26519e-14
-2.77347e-15
0.00156836
-0.000615009
6.83847e-14
-7.18369e-15
3.37717e-06
-1.27792e-16
-1.46449e-06
3.48673e-12
8.79737e-15
-3.70625e-14
-2.43529e-15
-3.65632e-14
-6.33146e-14
1.76543e-14
0.00114189
1.18364e-15
5.08835e-10
-2.05846e-12
-1.85466e-13
3.699e-15
0.0015547
-5.67829e-15
-3.35651e-11
-1.27982e-14
6.93739e-14
-3.3421e-15
-7.47059e-15
4.97424e-12
2.74026e-14
-1.41113e-14
5.74963e-14
-1.95586e-14
1.4503e-14
2.72006e-14
9.09001e-15
-3.95441e-14
-1.54105e-14
6.13861e-15
9.81861e-16
-1.99295e-15
-4.43782e-15
1.03487e-14
-7.43937e-15
-1.27731e-15
3.80077e-15
-4.15687e-05
4.06725e-14
-2.09934e-10
-4.19906e-14
-1.45293e-15
5.75253e-15
-4.48576e-15
1.42659e-14
-8.73836e-16
-8.91164e-15
6.51917e-14
2.55901e-14
6.92472e-15
-8.50299e-16
0.00289011
-5.66611e-15
-4.39541e-07
0.00011398
-2.7797e-14
2.19852e-14
2.68563e-14
-1.45778e-14
-7.85884e-16
-1.57435e-14
-9.74513e-15
-4.21912e-14
-8.61148e-15
4.00789e-14
-6.08303e-15
1.35718e-14
-1.91414e-10
2.07751e-10
1.48607e-12
-4.83742e-15
5.9757e-14
-6.73945e-15
2.39689e-15
4.86313e-13
-1.29333e-10
-3.6031e-15
3.14049e-15
2.24017e-14
3.80297e-14
-1.7399e-06
1.22653e-14
-1.2305e-14
5.73037e-16
2.78344e-11
-0.00383777
1.15796e-15
2.67175e-07
-3.38785e-14
3.58158e-14
-1.36945e-14
-1.86395e-14
-4.7155e-16
-6.00984e-15
0.022616
-4.09796e-14
0.000365695
9.3891e-10
1.56413e-15
9.0456e-15
2.90912e-14
-7.44366e-15
-2.23468e-09
-1.21212e-14
-1.96347e-10
-2.03555e-14
1.94806e-06
5.1596e-05
-9.32737e-14
-1.04953e-14
1.58859e-14
-1.13401e-14
2.12187e-14
3.82357e-14
3.78922e-08
-3.80645e-14
1.27461e-14
3.59012e-14
-1.15864e-14
7.81793e-15
2.50313e-14
1.61615e-14
-4.22291e-14
-2.26842e-08
8.85912e-10
0.00802452
1.5963e-14
-3.43901e-14
-2.74776e-14
-1.27661e-14
1.4454e-09
7.27648e-12
-3.79066e-14
-1.20046e-14
3.25161e-15
-1.29541e-14
-1.07598e-14
8.67961e-13
-1.21497e-11
1.89594e-14
1.4998e-14
7.04963e-14
-3.92875e-14
-2.9642e-14
-1.39044e-14
-1.97291e-14
-4.07122e-14
6.37418e-14
6.65538e-15
3.70381e-15
-3.81728e-14
-0.000857731
1.47234e-14
2.74958e-14
-2.9114e-14
3.00189e-14
3.60114e-14
-2.74539e-14
3.52251e-14
-2.74478e-14
-3.9156e-14
-6.40986e-15
-3.41883e-14
5.44295e-11
-3.8025e-14
6.43072e-15
1.16655e-14
9.48388e-15
-1.75376e-14
-1.9875e-14
-2.2e-13
-3.38331e-15
1.40625e-14
2.58331e-14
6.10428e-15
-1.64669e-14
1.92468e-14
4.30842e-05
-7.30636e-15
-3.41982e-09
2.88384e-14
2.14767e-09
-3.6866e-15
8.81066e-15
-2.39924e-14
-9.8451e-15
4.23896e-14
-2.02229e-14
5.49649e-15
-1.9294e-08
-9.10808e-15
3.59183e-14
-2.75656e-14
3.21836e-14
-2.90336e-14
1.24951e-11
5.31484e-15
8.35144e-15
-2.99574e-15
-1.57496e-14
2.0196e-15
-1.78156e-08
-1.86132e-15
-2.15955e-11
0.081301
-7.88535e-15
-3.54509e-14
-3.33246e-14
1.317e-13
-1.8623e-12
-3.96293e-15
2.50225e-11
0.047467
-1.8058e-14
3.01726e-15
1.53924e-14
8.96564e-17
-3.20546e-15
3.45486e-14
6.32657e-14
-2.28953e-14
-4.01032e-15
4.06332e-14
3.60768e-14
-2.03561e-14
3.66737e-14
1.80147e-14
4.08369e-14
1.04811e-15
2.70949e-14
4.61557e-11
-8.62655e-15
-3.30926e-14
8.83918e-16
0.00168223
7.64793e-15
-2.87449e-14
4.19776e-14
-1.63953e-15
1.59889e-15
4.61747e-09
-3.95799e-12
0.0163147
0.000172814
3.08429e-15
1.62216e-10
-6.01279e-14
-1.1371e-14
-9.90724e-15
-1.41821e-05
-1.08011e-14
-3.11635e-14
-1.4431e-14
-1.89002e-14
1.46606e-14
5.47046e-10
-1.2295e-14
-3.78685e-14
2.22543e-14
-4.25876e-14
-1.70051e-10
2.89406e-15
-4.67403e-14
4.045e-14
-7.74549e-16
3.12379e-08
-2.92382e-14
-2.8792e-14
-6.72938e-14
-2.10195e-14
2.61345e-15
-9.31508e-15
-2.59054e-14
4.16011e-15
-4.25823e-12
1.18718e-13
2.53875e-07
7.67496e-16
-2.48954e-14
2.28317e-14
7.40493e-14
-5.34655e-15
-1.96265e-15
-1.87935e-14
1.4727e-14
1.18354e-15
-2.02024e-09
5.43157e-15
-1.31936e-09
-1.17691e-14
1.19468e-14
6.80891e-15
0.000192147
-7.38842e-09
1.39822e-15
3.56088e-15
-3.07698e-14
4.75938e-11
-3.12958e-14
4.88601e-15
-2.70329e-14
-2.64244e-15
3.74851e-15
-6.6116e-15
1.78425e-14
-2.88609e-15
1.08477e-10
-1.44374e-07
7.63213e-18
-3.58067e-14
8.46999e-10
1.25634e-14
-1.41369e-15
-2.06124e-14
7.76774e-10
2.89043e-14
-2.52198e-14
2.19268e-05
-0.0041366
-2.57145e-14
5.05705e-15
-2.22341e-15
2.93175e-14
1.23477e-14
2.05083e-05
4.04909e-14
-3.32586e-14
6.70865e-15
2.74999e-14
-1.95522e-06
3.02076e-15
-3.05861e-15
-4.02513e-14
8.1087e-15
-1.26217e-14
1.3506e-14
3.12104e-07
3.06812e-14
9.39006e-15
4.73979e-13
8.84112e-15
-3.4576e-14
-2.53182e-14
-3.16916e-14
2.13405e-14
-6.76184e-14
1.21794e-05
-2.67581e-14
-3.68831e-14
2.0398e-14
-5.31725e-14
2.35503e-14
7.27972e-14
-1.20053e-14
1.9054e-14
1.71592e-14
2.75298e-14
-2.7584e-14
2.52227e-14
-8.76749e-16
-6.25087e-08
-4.53556e-15
-9.04308e-15
6.86598e-16
-1.02721e-14
2.43318e-14
1.10188e-15
0.00485633
-6.37084e-15
-1.66886e-14
5.61623e-14
-1.81778e-14
-2.15797e-12
3.19445e-16
-4.31405e-14
4.10351e-14
-3.30416e-15
1.90103e-14
0.000196717
2.39919e-14
-0.00407154
1.43399e-15
-2.22891e-15
-5.05779e-12
2.71832e-14
-2.69393e-14
1.92969e-14
0.000271991
-3.13927e-14
-2.28703e-11
-7.62032e-16
-5.79428e-15
-3.73756e-15
3.27048e-14
2.03485e-14
4.3956e-14
-2.67737e-14
0.000998897
-4.38172e-15
-5.34028e-14
2.9346e-14
7.87484e-14
-0.00160111
6.84845e-15
4.69175e-15
1.68094e-14
-5.33386e-06
1.85758e-14
-4.75067e-14
-4.48351e-14
-1.23554e-14
2.09996e-14
-2.18245e-15
-1.51773e-14
-3.25138e-06
1.91956e-15
-5.34183e-09
-7.98658e-15
-2.20828e-12
1.06955e-14
5.11867e-14
-2.02307e-14
-3.7455e-14
3.96458e-14
3.20787e-14
-3.73351e-14
-3.19171e-14
-7.50054e-15
1.14173e-14
1.5085e-13
-4.56243e-14
-3.73716e-15
-4.00121e-14
3.01505e-14
-4.599e-15
7.50639e-16
1.44042e-15
-0.00964661
3.94271e-15
7.06869e-07
3.59955e-14
1.16759e-14
1.36904e-14
-1.69706e-15
-1.37483e-08
4.97769e-10
1.5127e-14
1.09371e-14
-7.06057e-15
2.52619e-15
-5.80759e-15
-2.948e-14
6.62879e-14
-0.00286789
1.38438e-14
-3.0866e-14
-7.789e-14
-3.70939e-15
1.61197e-11
-2.98969e-14
-8.28323e-15
4.51424e-14
3.23861e-14
-2.72299e-09
-1.42489e-10
1.89682e-16
3.29951e-11
2.90626e-14
-0.00179701
-7.89995e-15
-2.90415e-14
-1.17434e-14
3.8615e-14
1.85331e-14
3.58578e-14
2.14606e-14
2.84828e-16
2.50185e-14
1.08414e-14
3.19268e-14
1.26592e-09
5.78888e-14
3.9562e-16
-3.15726e-14
-2.89803e-14
2.34695e-14
-8.59415e-15
-7.49321e-08
-2.39828e-15
2.52747e-16
2.30483e-14
-3.94457e-14
-3.14331e-15
-1.472e-14
-3.74122e-14
-2.36685e-14
1.06449e-14
3.19359e-14
-3.14785e-14
-4.50798e-14
5.3349e-15
-3.61332e-09
-4.71028e-13
2.57875e-14
-3.66659e-10
2.07176e-12
1.19237e-14
-3.09263e-15
1.35691e-05
1.17658e-14
1.92851e-11
-4.54567e-14
1.15021e-14
3.37195e-15
-1.43877e-14
-1.42465e-14
-3.88393e-14
5.67594e-15
-2.28461e-15
-1.93368e-14
3.90308e-14
2.89041e-14
-2.60501e-14
-4.20769e-14
-1.42988e-14
-3.01213e-14
2.73667e-16
5.03676e-05
8.20872e-15
-5.53345e-16
-1.85351e-14
4.21289e-15
1.40485e-14
-3.42989e-14
2.179e-14
-2.37328e-14
-2.91332e-15
-6.54463e-15
3.03195e-14
4.11862e-15
3.99118e-14
5.64988e-14
3.49099e-15
-3.46603e-14
-1.74038e-05
-5.15393e-07
2.96754e-15
-1.02828e-14
6.19304e-14
2.65463e-15
1.85715e-14
1.03079e-15
9.64623e-15
-4.26105e-11
5.86327e-15
1.63049e-14
-1.01993e-14
-7.01827e-14
-8.56381e-16
1.20763e-14
1.37344e-15
0.000149267
3.51632e-14
2.30036e-14
-0.00122777
4.96229e-14
2.55689e-13
-3.36369e-14
-8.80403e-15
3.73614e-14
4.42072e-15
-6.26062e-15
5.80589e-08
-3.19419e-14
-5.08705e-16
-1.74724e-15
5.83499e-05
-5.74924e-11
-1.40015e-14
-5.65023e-15
5.93962e-15
-4.5282e-14
4.21006e-14
-4.8905e-14
6.13479e-15
-1.21886e-14
1.15681e-14
-1.49069e-15
1.27343e-14
7.64697e-16
6.11968e-15
4.20335e-14
3.75702e-16
-1.29286e-14
-3.04126e-14
-3.95851e-15
3.50159e-14
8.57345e-15
-3.18565e-14
2.74586e-10
-3.24005e-14
-0.00035397
1.3628e-14
0.00910726
-2.213e-14
0.0025953
3.23273e-14
3.06933e-14
4.55477e-15
-3.50508e-14
-1.95357e-15
-4.52444e-14
-4.5579e-16
3.88698e-14
-3.13393e-14
6.22662e-15
7.96467e-15
-2.40359e-10
-1.06713e-14
-1.30089e-14
6.22275e-10
-3.14065e-14
1.99482e-15
-3.94959e-15
1.26673e-15
4.61857e-14
-1.79444e-14
1.98624e-15
2.15051e-14
-3.65755e-14
5.29924e-16
8.49666e-16
2.34113e-14
-0.00100408
-7.32711e-05
2.04131e-15
1.03401e-14
-1.1812e-15
1.75745e-15
-5.30807e-14
-3.3162e-15
5.24755e-13
1.68119e-14
-4.83527e-15
3.90991e-16
9.87108e-15
-4.61979e-15
4.58282e-14
-9.86007e-15
2.66679e-14
-7.64466e-15
1.40122e-15
-2.61368e-14
5.48613e-15
2.51216e-15
-0.000187921
1.06888e-14
1.34483e-12
2.77032e-14
-7.67045e-12
-1.1495e-14
-2.05706e-14
2.68012e-16
2.94739e-14
7.46904e-13
-3.08436e-14
-2.15921e-14
3.85413e-14
-0.00805589
5.00526e-05
0.00404134
3.04712e-14
-3.72449e-14
-1.11267e-14
5.6932e-07
-2.17869e-14
-0.000127462
-1.18972e-14
-5.1255e-15
4.21238e-14
-3.61426e-15
-8.6204e-16
-0.000247156
-5.00151e-14
-6.31103e-15
6.37752e-07
6.74304e-09
-3.34669e-15
5.70513e-14
2.45076e-14
2.99713e-13
2.89319e-14
5.64521e-15
-2.93777e-14
-1.95605e-14
2.82089e-14
4.14092e-15
-1.22775e-14
0.00553993
-7.7625e-15
-3.48148e-14
1.26279e-15
-9.1643e-15
3.29706e-14
-2.87988e-14
-2.27422e-14
-1.34345e-14
-3.07738e-15
1.46702e-14
-5.05614e-15
4.05381e-15
-8.32651e-15
9.73726e-17
5.47381e-09
-4.62018e-15
5.15376e-15
-3.53275e-14
1.92801e-15
6.41227e-11
5.77179e-16
3.26287e-05
-4.7865e-14
-2.79786e-15
-4.85205e-14
5.45556e-14
4.91656e-16
-1.42008e-07
-2.07018e-14
-4.12966e-14
3.43747e-14
4.91237e-11
-4.32278e-14
-4.44205e-16
-2.32533e-15
4.64346e-14
7.71769e-15
1.03437e-14
3.69752e-14
-1.66973e-14
2.5449e-14
-1.27076e-15
9.85057e-12
3.22229e-14
-0.000153746
-2.97587e-14
2.38427e-14
3.46474e-15
8.64306e-15
7.28662e-15
-8.23175e-15
-2.15143e-14
6.23769e-11
-5.93069e-12
-3.54832e-16
-1.58366e-14
2.61547e-14
8.19472e-15
2.03488e-14
-3.7838e-14
-2.50505e-14
6.94135e-15
-2.88156e-14
-3.50396e-14
1.62188e-14
4.54887e-15
1.68732e-09
-2.92006e-16
5.65046e-15
4.62209e-14
2.85792e-14
-6.11299e-09
3.37044e-14
1.542e-13
-0.0134067
-3.88972e-14
-1.63966e-09
-7.03946e-15
2.85097e-14
-3.89739e-14
-2.29053e-15
1.6296e-15
0.000206241
3.10154e-14
4.43376e-14
-2.76061e-14
3.81126e-14
6.00165e-16
1.64103e-14
-1.64428e-14
-4.94525e-13
3.35189e-14
0.000580978
5.54619e-11
-4.64785e-15
-1.17001e-16
4.93576e-15
-6.63175e-15
-1.36737e-14
7.27062e-13
-1.92008e-14
2.03405e-08
4.5381e-14
5.96563e-14
1.06937e-14
-4.26056e-14
1.96634e-15
-4.24336e-14
0.000220519
2.35131e-12
-1.10686e-14
-5.39393e-15
6.67118e-16
-2.65264e-14
3.00478e-14
2.53514e-14
6.75643e-07
4.89416e-15
4.96512e-14
2.3241e-14
4.86596e-15
-2.90937e-12
-1.19901e-14
-7.77118e-16
-2.97284e-15
1.46244e-14
1.03672e-14
3.54486e-14
5.17979e-15
-1.3739e-14
2.89774e-15
-4.08837e-14
-2.89632e-14
-1.81254e-05
4.3337e-12
-6.49458e-05
1.15201e-15
1.97268e-15
-0.0167293
3.21803e-06
2.24133e-15
2.54193e-14
2.71785e-14
4.99112e-15
2.33984e-14
-1.23466e-14
-1.83111e-14
1.54561e-15
-9.36482e-15
-1.44535e-15
5.60295e-16
-4.85434e-14
3.39077e-14
-1.09002e-10
4.96372e-14
3.97153e-15
1.83317e-14
-3.95169e-14
-7.61523e-15
2.58288e-05
-2.44919e-15
9.07994e-15
-2.53193e-14
3.01184e-14
2.56517e-14
-4.61985e-15
2.90844e-14
1.67693e-15
9.42711e-15
3.06694e-14
4.67211e-14
6.88466e-15
0.00627867
5.20136e-16
7.9446e-15
-2.00722e-08
-2.7581e-14
-5.7126e-05
-4.38841e-11
1.1399e-11
2.41586e-08
7.4893e-15
2.58227e-15
-3.85885e-14
1.49702e-15
3.56839e-12
5.61243e-15
2.39282e-14
-2.06878e-15
1.89191e-14
3.63355e-14
-6.09482e-15
-1.4445e-14
-2.65317e-14
6.6558e-13
4.14051e-14
1.36719e-15
-1.6576e-10
1.54025e-06
3.96665e-14
2.00194e-14
-4.40918e-14
1.48521e-14
2.04823e-15
4.17441e-09
3.57867e-14
0.000295707
1.94337e-14
-1.78751e-14
2.18195e-14
5.39742e-09
1.56217e-15
0.000938174
2.16322e-15
8.88313e-15
-2.44073e-14
2.44644e-14
-9.65316e-15
-1.75301e-07
2.44233e-14
2.61403e-15
1.35783e-14
3.13801e-14
-2.55408e-15
-6.94194e-15
-3.73448e-14
5.26451e-14
3.01885e-09
-5.61348e-16
1.10707e-10
-3.23716e-14
0.000155741
-2.57182e-14
7.60649e-15
1.03854e-10
1.87309e-14
5.65194e-15
3.69183e-14
-4.12972e-14
-2.59816e-14
9.9897e-13
-3.97528e-11
-1.44246e-14
-3.60388e-14
-0.000812277
2.78692e-14
1.73412e-06
-6.50339e-15
2.70797e-14
8.36226e-15
5.06707e-15
-1.09035e-14
0.00109598
-1.00983e-14
5.22689e-13
-2.52686e-14
4.12404e-14
3.66735e-06
2.66331e-15
7.0687e-08