/*--------------------------------*- C++ -*----------------------------------*\
| =========                 |                                                 |
| \\      /  F ield         | OpenFOAM: The Open Source CFD Toolbox           |
|  \\    /   O peration     | Version:  v2012                                 |
|   \\  /    A nd           | Website:  www.openfoam.com                      |
|    \\/     M anipulation  |                                                 |
\*---------------------------------------------------------------------------*/
FoamFile
{
    version     2.0;
    format      ascii;
    class       volVectorField;
    location    "100";
    object      ddt0(U);
}
// * * * * * * * * * * * * * * * * * * * * * * * * * * * * * * * * * * * * * //

dimensions      [0 1 -2 0 0 0 0];


internalField   nonuniform List<vector> 
18649
(
(0.000503637 0.000415923 1.02372e-23)
(-0.000326719 0.000384288 2.83365e-21)
(0.000109549 -0.000494116 0)
(0.00572525 0.00324566 5.38363e-21)
(0.000821973 0.00251777 7.52933e-21)
(-0.000453077 -0.000213318 6.09302e-21)
(-0.000147676 -0.0120104 -1.08033e-21)
(-0.00469852 0.000428803 1.24322e-21)
(0.0008106 0.00097747 -1.75299e-21)
(-6.69637e-05 0.000170987 -2.90291e-22)
(-0.00280896 0.00214561 -5.97049e-21)
(0.00219186 -0.00342135 8.49995e-22)
(0.00474666 0.0188943 -4.08123e-21)
(0.000106997 -0.000475117 0)
(-2.68866e-05 0.000239341 0)
(-0.000108405 -0.000526245 -3.80294e-21)
(-2.11459e-05 -9.73704e-06 -1.023e-21)
(-9.32461e-05 -0.000498131 -1.58432e-21)
(-0.000556486 0.0025058 -4.97988e-21)
(0.00774632 -0.00296432 9.30602e-21)
(0.00528552 0.00287407 4.41102e-22)
(-0.000263096 0.000118542 0)
(0.00725241 0.000702694 0)
(0.000894691 0.0216616 0)
(-5.50159e-05 -5.45979e-05 0)
(0.0087574 -0.00271438 1.92525e-21)
(-0.000196966 8.074e-05 7.46498e-22)
(0.00230203 -0.00383112 2.61753e-21)
(-0.00764284 -0.00330719 0)
(1.14587e-05 -1.79802e-05 8.26633e-21)
(-0.000214253 1.76508e-05 -2.18368e-21)
(-0.000516964 0.00143794 -2.62634e-21)
(-3.62257e-05 8.26101e-05 -6.51384e-24)
(-0.000155819 0.000408265 -8.81787e-21)
(-0.000121926 0.000156618 2.45636e-21)
(0.0106474 0.00150279 1.70037e-21)
(-2.2135e-06 0.000522969 1.06482e-20)
(-0.000143968 -3.39459e-06 1.61771e-21)
(-3.92694e-05 -1.52521e-05 -4.63341e-21)
(-0.00446641 0.00052205 3.75115e-21)
(0.00107493 0.00104638 5.17853e-21)
(0.00139648 0.020588 9.30783e-23)
(0.000322656 0.00289067 2.58805e-22)
(0.0113731 0.00047956 -5.51086e-24)
(-0.000338486 0.000375341 1.48154e-21)
(1.45534e-05 -1.98837e-05 7.15396e-21)
(0.00589126 0.00557984 5.9477e-21)
(0.00541954 0.00342362 -3.87837e-21)
(0.00853589 0.00211693 -4.5451e-23)
(-5.73376e-05 -1.81495e-06 -9.90333e-21)
(-0.00698872 0.0367674 -9.83946e-22)
(-0.00066322 -6.89472e-05 9.79904e-22)
(0.0066533 0.00476967 -1.39794e-21)
(-0.0118065 -0.0140023 0)
(-3.3245e-05 7.98691e-05 -4.52017e-21)
(0.00889218 0.00190517 -4.61532e-21)
(0.00387589 -0.00822818 0)
(0.00251302 -6.16368e-05 0)
(0.000607135 0.000743262 4.77649e-21)
(-6.42494e-05 0.000165795 3.41075e-22)
(0.000385976 0.000376188 3.48086e-21)
(-6.78855e-05 0.000155575 4.06138e-21)
(-1.68418e-05 0.00285185 0)
(0.00432506 0.00369529 2.23729e-21)
(-0.000143023 -2.75707e-06 0)
(0.00415429 0.00398741 -7.97409e-21)
(-0.000155008 2.0806e-05 0)
(0.0026496 -0.00928393 0)
(0.00236856 0.00278148 3.86096e-21)
(0.00497044 -0.00912712 -3.19192e-21)
(0.008672 -0.000228309 -5.41967e-22)
(-7.94079e-05 0.000111069 5.84083e-22)
(-0.000394236 0.00146139 -8.73879e-22)
(-0.00035532 -0.000364175 -7.07258e-24)
(-0.000156683 0.000363918 7.568e-21)
(0.00490914 0.00314454 -4.69002e-22)
(-2.10246e-05 0.00067423 2.09233e-21)
(-0.000544995 0.000529364 -4.3709e-21)
(-0.000353332 -0.000360477 2.1325e-21)
(0.000792558 0.00199995 0)
(-2.02709e-05 -8.61571e-06 0)
(0.00623982 0.005336 0)
(0.00830476 0.00357881 -9.96563e-21)
(0.00649816 0.00461279 1.36379e-21)
(0.000131212 0.000823027 0)
(-3.86038e-05 -1.47232e-05 6.51606e-21)
(-5.78227e-05 0.000595313 1.00959e-20)
(-0.000637312 -7.21571e-05 -7.42226e-21)
(-0.00112087 -0.000146492 -2.72674e-21)
(-0.000381477 -0.000345875 0)
(-0.000490291 -0.000393558 6.29828e-21)
(-1.53576e-05 4.64991e-05 0)
(-0.000113677 -2.9959e-05 -3.16805e-21)
(-0.00624129 -0.00851419 -5.05381e-22)
(-0.000254358 0.000111597 0)
(-0.00273479 0.0019317 -8.87431e-21)
(-7.37939e-05 0.000149794 0)
(0.00024609 0.00177466 -1.10697e-21)
(0.00181992 0.00248174 1.90023e-21)
(-0.000189108 7.33864e-05 -7.55026e-22)
(0.00758081 0.000745941 5.17257e-21)
(-0.000110895 0.000843473 0)
(-1.74486e-05 -1.99204e-05 3.68579e-24)
(-0.0074287 0.0379491 0)
(0.00200323 0.00238104 -2.11001e-21)
(-0.000660361 -9.04531e-05 1.4928e-22)
(2.33146e-06 -3.65267e-06 -3.37335e-21)
(-0.000236625 1.12308e-05 4.2947e-22)
(-0.000100017 0.000869542 -5.32246e-21)
(-0.000135265 0.000328957 6.47354e-21)
(0.0102644 0.00136552 3.04235e-21)
(0.000196993 0.000479025 -1.19876e-20)
(-0.000112014 -3.43282e-05 -2.97982e-21)
(-0.000122839 0.000327572 -1.87175e-21)
(0.00592563 -0.00454046 -2.38693e-21)
(2.92367e-05 -0.000605638 3.28472e-21)
(-2.8911e-05 8.18235e-05 -7.75989e-23)
(0.000957605 -0.0134412 0)
(0.0111893 0.00046212 0)
(-6.42986e-05 -3.57642e-05 0)
(0.000550191 0.000927936 -4.7677e-21)
(-0.000195125 0.000107248 0)
(-0.000457526 0.00142842 8.18577e-22)
(-7.81095e-05 0.000122845 6.10912e-23)
(0.0112456 0.00173629 -2.28314e-21)
(-5.65599e-05 -5.58576e-05 0)
(4.32173e-07 -8.15458e-06 -8.62865e-21)
(0.00770591 -0.00558033 -1.62158e-21)
(-0.000193548 9.58695e-05 -3.72151e-21)
(0.000993503 -0.0138912 -1.22185e-21)
(-9.4107e-05 1.07223e-05 3.93671e-22)
(0.00837333 0.00372457 6.43831e-21)
(-9.73681e-05 -6.86371e-05 6.55931e-21)
(0.00102441 0.000598766 -3.84328e-21)
(2.54553e-06 0.000531717 -3.77851e-21)
(6.12631e-06 -4.83143e-05 -8.55259e-21)
(0.0110511 0.000938615 2.92039e-24)
(0.00360457 -0.00874443 0)
(-0.000508339 -0.000408083 -5.52436e-21)
(-0.000526524 0.000517313 0)
(0.000316341 -0.000331096 -1.98556e-21)
(-0.000135702 -3.27254e-06 0)
(-3.84516e-05 -4.17734e-06 0)
(-6.45127e-05 4.08422e-05 3.51474e-21)
(7.51628e-06 4.27983e-05 -1.1863e-20)
(-0.00323621 -0.00672277 0)
(-3.79802e-05 -5.20723e-06 0)
(-3.93307e-05 0.000206198 -9.73873e-21)
(0.00574631 0.000327665 0)
(0.00223272 0.00255817 -4.3235e-21)
(0.0095663 -0.00888841 1.35933e-21)
(2.04337e-06 -6.35902e-05 0)
(0.010746 0.00286273 0)
(-9.76879e-05 -0.000185107 5.01999e-21)
(-0.000165526 4.45283e-05 0)
(-6.38475e-05 4.84812e-05 0)
(0.000112114 0.000486306 0)
(0.000868873 0.00132809 2.26107e-21)
(-2.6685e-05 4.19423e-05 -2.55121e-21)
(-7.75969e-05 9.12342e-06 2.13756e-21)
(-2.25585e-05 0.000206105 6.55818e-21)
(-0.00447344 0.00330782 -7.416e-21)
(0.000731698 0.00104121 3.94331e-21)
(-0.000104972 -0.000173006 4.88778e-21)
(0.0111585 0.00157067 0)
(0.00542953 -0.00472288 2.64444e-21)
(7.93152e-06 1.14644e-05 0)
(-8.31899e-05 7.56781e-05 -2.1094e-21)
(-0.000169929 5.70528e-05 3.19448e-21)
(3.4751e-05 -0.000579596 5.57584e-21)
(-9.26006e-05 1.53534e-05 0)
(8.35844e-05 -0.000117177 6.91864e-21)
(0.00222574 -7.09761e-05 0)
(0.000406761 0.000980107 0)
(-0.000140632 -8.88588e-06 6.09464e-21)
(0.00622557 0.00608352 -4.90125e-21)
(0.00585825 0.000523207 8.09579e-24)
(-0.000362999 0.000377315 -4.78041e-21)
(-2.38659e-05 4.21424e-05 -2.26832e-21)
(0.00506167 -0.00985101 0)
(0.00557956 -0.0110127 0)
(-7.27199e-06 -8.34378e-06 0)
(3.50093e-07 -9.25435e-06 4.37209e-21)
(-0.0186102 -0.00371626 2.70981e-21)
(-0.000526643 -1.01741e-05 0)
(-0.000102592 -7.47379e-05 0)
(1.54655e-05 3.40037e-05 8.93352e-21)
(-0.000136128 -7.86642e-06 0)
(-0.00139219 -0.000298757 0)
(-0.00032878 0.000747213 0)
(0.00211704 0.000546694 2.61249e-21)
(-0.000153184 2.0722e-05 0)
(-0.000358955 6.73956e-06 2.80626e-21)
(-8.89204e-05 -0.000137373 0)
(-1.83256e-05 -2.04301e-05 -4.17844e-21)
(8.40462e-06 -1.89419e-05 0)
(-5.68757e-05 0.000579595 -3.50715e-21)
(-0.000240825 0.00115872 -2.06001e-23)
(-0.000159055 0.000382914 4.08979e-21)
(7.13339e-07 -8.27437e-06 0)
(-3.2996e-05 0.000207369 0)
(0.00449071 -0.00321228 0)
(0.00205899 -0.00932399 2.91642e-22)
(-2.12866e-05 0.00051791 -3.22173e-21)
(-0.00117937 -0.000157149 -1.38672e-21)
(0.000151877 0.000574438 1.78389e-21)
(-0.00969008 -0.00355234 -2.20557e-21)
(0.0054306 0.00575056 -3.7999e-21)
(-0.000232867 1.24797e-05 0)
(0.006107 0.00164336 6.94282e-21)
(-8.43822e-05 5.59774e-06 -2.23242e-21)
(-0.000298705 0.000305078 1.43935e-21)
(-0.000182477 8.34403e-05 0)
(-0.000565255 -3.09175e-05 -6.14223e-21)
(0.00888303 0.00362878 -8.67061e-21)
(-0.000107491 1.38604e-05 4.1078e-21)
(5.85732e-05 0.00071598 0)
(-8.9052e-05 -5.31564e-05 -4.66708e-21)
(0.0110574 0.00207151 5.7804e-24)
(-0.00011653 -6.77078e-06 8.2865e-21)
(0.000617855 0.00610419 -1.07961e-21)
(-0.000120418 -3.95661e-05 -2.91283e-21)
(0.000577826 -0.000362849 6.70122e-21)
(9.3161e-05 -0.000150264 -1.02305e-23)
(0.00657079 -0.00171158 -6.61988e-21)
(-0.00469659 -0.0128827 -5.97455e-23)
(-0.000113394 1.74092e-05 -4.81669e-21)
(-0.000114437 -1.32258e-05 -3.62702e-21)
(0.00531247 0.00508137 0)
(0.00568884 0.00671722 6.58072e-21)
(-0.00170009 -0.000458847 -9.27718e-22)
(-8.96595e-05 -6.91081e-05 2.87654e-21)
(0.00495774 0.000278128 0)
(-0.000159412 -0.000601372 3.62282e-21)
(0.00694156 -0.00262181 -7.24915e-21)
(-0.00511636 0.00278427 -9.97436e-22)
(2.72541e-05 0.000384224 5.61491e-21)
(0.00232501 0.00371448 3.61047e-21)
(-9.33761e-05 -7.0835e-05 -7.56537e-21)
(0.000110055 0.0035959 5.16404e-21)
(-9.4619e-06 -8.02951e-06 0)
(0.00639349 -0.00444621 1.66546e-21)
(-0.00158393 -0.00044948 -2.06887e-22)
(-6.77499e-06 -5.43385e-06 -2.5387e-22)
(-0.000131814 0.000342641 3.989e-21)
(-0.00033618 0.000743064 6.43448e-21)
(0.00305556 0.00582444 -6.80689e-21)
(-8.32552e-05 4.69036e-06 0)
(0.00997289 -0.00165994 -9.90734e-22)
(-0.000244666 0.00110792 -6.69792e-21)
(0.000318096 -0.000865348 -2.61632e-21)
(-0.000490759 -0.0126184 1.41965e-21)
(-0.000174675 -6.10938e-05 0)
(-0.000125808 0.000175024 2.87211e-21)
(-0.000531882 -3.25813e-05 -7.70066e-21)
(0.010548 -0.00039645 0)
(-0.000117155 -4.51288e-05 3.61636e-21)
(-8.3897e-05 5.13048e-06 0)
(-0.000118461 0.000336119 1.9595e-21)
(-0.000140032 0.000338665 -6.79252e-21)
(-7.32579e-05 1.31723e-06 1.88992e-21)
(0.000176102 0.000583444 7.16265e-21)
(0.00633473 0.00182512 -6.61425e-21)
(-7.23924e-05 7.34669e-06 7.23912e-21)
(-2.07013e-05 -2.23497e-05 4.54595e-21)
(0.00671372 0.00513316 -2.07362e-21)
(0.00346814 -0.00398772 -2.03225e-21)
(6.9311e-06 -2.07636e-05 0)
(-0.0171563 -0.00312831 1.3038e-21)
(-2.40441e-05 -2.14485e-05 0)
(-0.00326582 -0.00616887 -6.17135e-22)
(-0.000537367 0.00168805 2.65766e-21)
(0.00557164 0.00516813 -1.56426e-21)
(0.0101337 -0.0021085 0)
(-0.000697289 0.0026218 0)
(-8.20423e-05 -0.000147335 -9.02973e-22)
(-2.06698e-05 -2.06656e-05 0)
(0.00475475 0.0207318 -2.22032e-21)
(-0.00425307 -0.0132618 0)
(0.0106822 0.00220816 1.27927e-22)
(7.93714e-06 4.62768e-05 1.36116e-21)
(-8.90272e-05 -5.88574e-05 -1.34122e-20)
(0.0106941 0.00299617 -1.31884e-21)
(-0.000561768 0.00031594 7.23167e-21)
(-0.00217817 0.00165486 -5.47549e-21)
(0.00442148 -2.2031e-05 0)
(-9.69121e-05 -0.000214555 0)
(-1.86186e-05 0.000686071 0)
(3.33887e-06 -6.17892e-05 0)
(-6.55491e-06 -2.26725e-05 0)
(0.000326811 0.00551665 1.05753e-21)
(-0.000418992 -0.00132545 -1.0568e-21)
(0.00112837 -0.0138065 -9.62321e-22)
(7.30395e-05 -0.000173705 -9.37395e-21)
(-0.00878651 -0.00681547 -4.34963e-23)
(-0.000190134 0.000188662 -7.24777e-21)
(0.0097219 -0.00969073 0)
(-0.00826856 -0.00337259 0)
(-1.85547e-05 -2.10413e-05 0)
(0.00329954 -0.00338627 0)
(-2.88873e-05 7.17943e-06 -6.56804e-21)
(-0.000170411 0.000425185 1.2076e-20)
(-6.9589e-05 0.000132838 0)
(-6.2928e-05 5.7006e-05 -7.05496e-22)
(-6.21684e-05 -3.17358e-05 -4.07364e-21)
(0.00051221 0.00536188 2.72642e-21)
(5.51742e-06 -5.20772e-05 9.74e-21)
(0.000366285 -1.08953e-05 -3.54359e-21)
(0.00102315 0.00569999 -2.70166e-21)
(-0.00015256 0.000393232 -7.81649e-21)
(0.00930932 -0.00295874 0)
(-6.71983e-05 0.000160163 1.23647e-20)
(0.00143444 -0.00123417 4.63339e-21)
(-2.62156e-05 0.000251363 6.19542e-21)
(-0.000102661 -0.000202066 -4.7276e-21)
(-9.21237e-05 -6.9805e-05 0)
(-0.000131682 -0.000297542 -1.0316e-20)
(4.4324e-07 -4.32569e-06 -9.70657e-21)
(0.00874754 0.00354725 5.05689e-21)
(0.0111266 -0.000564399 3.86794e-21)
(3.97795e-06 -3.19769e-05 0)
(-2.32566e-05 0.000207288 -3.45431e-21)
(0.0011147 0.00127176 -3.87245e-21)
(2.66349e-06 -3.94598e-06 6.3548e-21)
(-6.06865e-05 6.53543e-05 -4.79043e-21)
(-0.000148801 3.65611e-05 0)
(9.56416e-06 3.0959e-05 0)
(-0.000143292 0.000665535 -7.98178e-21)
(0.00478682 -0.0118524 0)
(0.000125881 0.00061197 5.84321e-21)
(0.00471685 0.00154961 -1.67066e-21)
(-8.35828e-05 8.93945e-05 0)
(-1.1305e-05 0.000185875 3.13284e-21)
(-0.000562638 0.00311172 -1.10706e-21)
(-3.05843e-05 3.76103e-05 2.65925e-21)
(6.07191e-05 -2.55545e-05 0)
(-0.0184836 -0.00743674 1.65419e-21)
(-0.000342941 0.000577341 0)
(-0.015813 -0.00563196 -3.78108e-21)
(-1.8464e-05 0.000532917 0)
(-0.0041606 0.00354484 3.65626e-21)
(-2.87907e-05 3.78241e-05 0)
(-0.000188351 -0.000606476 0)
(-0.000187751 9.40161e-05 4.31189e-21)
(-0.00035827 3.45308e-05 -4.3446e-21)
(-4.7604e-05 0.000235819 2.5e-21)
(7.10721e-06 -3.0112e-05 -4.64334e-21)
(-9.44563e-06 -8.21053e-06 5.27276e-21)
(-0.000550411 -0.00043295 3.20673e-21)
(-0.000201498 -0.000601189 0)
(-4.47044e-05 0.000242177 4.90626e-21)
(0.00748313 0.0231777 -2.29976e-21)
(-4.69978e-05 0.000231395 0)
(-0.000147842 3.3346e-05 0)
(0.00378289 0.00136344 5.94703e-21)
(-0.0223978 -0.0100651 0)
(-0.000142187 -0.000301913 0)
(0.00955235 -0.000249836 0)
(-0.00491345 0.00270052 0)
(0.0106746 0.0024843 1.00145e-21)
(0.00106129 -0.0131093 0)
(-0.000347071 3.49702e-05 3.87786e-21)
(0.000712325 -0.013149 0)
(-5.08134e-05 0.00022009 0)
(0.00352077 0.00471098 -6.72027e-21)
(0.00166514 -0.000530732 -3.9104e-21)
(-6.62969e-05 0.000154811 -8.74143e-21)
(1.0364e-05 0.000436624 -8.30554e-21)
(-0.000336802 0.000556059 4.74825e-21)
(-0.000204966 1.89333e-05 0)
(-0.000157777 3.1557e-05 -3.6079e-21)
(-3.61498e-05 -4.91671e-06 0)
(-4.10924e-05 0.000244909 3.80539e-21)
(0.00743782 -0.00505201 1.74264e-21)
(-0.000130245 0.00067139 0)
(0.00743579 -0.00205092 6.94046e-21)
(0.00518098 0.0016319 -7.36035e-22)
(-0.00695566 -0.00451129 0)
(0.00277263 0.00584205 4.39218e-21)
(-0.000256558 -0.000296254 3.19406e-21)
(-8.56446e-07 -1.22695e-05 5.75254e-21)
(-0.00178314 -0.000705958 0)
(-9.07075e-05 -6.35321e-05 0)
(0.00205577 0.00035361 0)
(8.59715e-07 -1.73725e-06 1.28852e-20)
(2.23078e-06 -6.55474e-05 -5.36418e-21)
(-2.1112e-05 0.000172702 0)
(0.00123966 -0.0129445 0)
(-0.000255585 -1.09167e-05 2.04899e-21)
(-6.44835e-05 -4.60197e-07 0)
(-0.0058954 0.00289395 -4.52218e-21)
(-0.00111108 0.000707854 1.90469e-21)
(-0.000111886 -1.27868e-05 7.98145e-21)
(-0.0102695 0.0130467 1.43579e-21)
(0.000105373 -0.000440412 -5.14571e-21)
(4.12855e-06 0.000421421 1.03824e-20)
(0.0113375 0.00183673 -9.18261e-21)
(-0.00038449 -6.36273e-05 2.33873e-21)
(2.68584e-06 -6.29451e-05 -2.90413e-21)
(-0.0169148 -0.00840156 0)
(0.00774103 -0.00474041 0)
(-0.000256904 2.31108e-05 1.91981e-21)
(-9.68675e-05 2.29501e-05 0)
(-8.88909e-06 0.00016792 0)
(0.00596969 -0.00575784 0)
(-0.0175387 -0.00757857 -2.10056e-21)
(-9.29761e-05 -5.10688e-05 0)
(-0.00590561 0.00182445 -4.19054e-21)
(-2.62588e-05 -1.62213e-05 0)
(-0.00012357 -7.59031e-06 -1.49043e-22)
(0.000654987 -0.0153909 0)
(-3.46364e-05 -3.54591e-05 -2.09701e-22)
(0.00442815 -0.0125147 0)
(-0.00038957 -5.08774e-05 0)
(0.00782172 0.0133943 0)
(0.0030199 0.00588326 -6.88689e-21)
(0.00610909 0.0197116 3.14699e-21)
(0.00557453 0.00412973 7.26598e-21)
(-8.5402e-05 -6.29924e-05 0)
(0.00345643 -0.000835414 -2.36177e-21)
(-5.19187e-05 0.000208954 0)
(0.00370912 0.0189888 3.14069e-21)
(-0.00169206 0.000931476 0)
(0.00471276 0.00347683 -4.08084e-21)
(-0.00771011 -0.0102734 -5.0333e-21)
(-3.53652e-05 -5.93987e-06 2.8656e-21)
(7.2565e-05 -1.63099e-05 1.10672e-22)
(0.00039139 0.00355276 0)
(0.00997821 0.00315197 2.03363e-21)
(-0.000201618 -0.000605077 -2.17562e-21)
(0.0108448 -0.00193596 2.62339e-21)
(-0.000257312 -2.16242e-06 -1.97613e-21)
(-0.000337181 0.000191055 -1.16176e-20)
(-2.30638e-05 -1.98984e-05 6.08376e-21)
(0.00146687 -0.0140086 -1.01454e-23)
(0.00887366 0.0238621 2.64645e-21)
(0.00174491 -0.000186386 1.37555e-21)
(-0.000216725 7.05217e-06 -3.6406e-21)
(-1.68278e-05 4.58096e-05 -2.67962e-21)
(1.11464e-05 0.000154471 0)
(0.0113722 0.00262006 4.48435e-21)
(1.99562e-05 0.000425439 -1.20494e-20)
(-0.000187628 0.000203084 -8.04159e-21)
(-6.65037e-05 8.00167e-08 0)
(-2.56815e-05 -1.36446e-05 6.32808e-21)
(0.0103444 0.0026784 0)
(0.00836846 -0.00510511 -3.13726e-21)
(-2.53499e-05 7.10874e-05 -2.97007e-22)
(5.65831e-06 -0.000216611 4.4995e-21)
(0.0100761 0.00133265 0)
(-5.59317e-05 -1.15233e-05 -4.55812e-22)
(0.0120187 0.0021994 -1.01665e-20)
(-5.96919e-05 -1.32992e-06 7.26781e-21)
(0.00183565 0.000489294 0)
(-0.00105788 0.000702197 6.52328e-21)
(0.00393817 0.00414175 -3.62122e-21)
(-0.000180124 0.000578608 -4.52965e-21)
(-0.0131881 -0.0143509 1.3199e-21)
(0.00531631 0.00145624 -4.37015e-22)
(-0.000391924 0.000401816 -5.1837e-21)
(0.000816804 0.000705408 1.91824e-21)
(-0.000330393 0.000181738 5.01688e-21)
(0.000458948 0.000391898 -1.86217e-21)
(-0.000244965 -0.000306621 0)
(-6.82293e-05 1.56076e-05 0)
(-0.000558004 0.000327211 1.34311e-23)
(3.42461e-05 -0.000199841 -4.4386e-21)
(-7.50352e-06 -2.34141e-05 0)
(-0.000258228 -0.000143586 0)
(0.0113099 0.00261587 -1.20463e-21)
(-2.8988e-05 -2.30237e-05 -1.21286e-20)
(6.57955e-06 -3.11621e-05 0)
(0.00593993 0.0204813 0)
(-6.03911e-05 -4.70965e-05 -8.9505e-21)
(0.0111266 -0.000124396 2.01643e-21)
(-9.39035e-05 -0.000246727 0)
(-0.000113128 -0.000319949 0)
(3.07283e-05 -0.000216143 0)
(-0.000404353 -0.000343346 5.43168e-21)
(0.000125448 -0.00042999 -4.63166e-21)
(1.41744e-06 -1.36558e-05 9.99761e-24)
(0.00113796 -0.000414293 0)
(-0.000128253 -9.45068e-07 3.50542e-22)
(7.22988e-06 0.000634641 0)
(-1.43011e-05 0.000195695 -3.29545e-21)
(-0.00061952 9.13087e-05 -1.01248e-20)
(0.011438 0.000658077 4.75046e-21)
(1.34789e-06 -2.32973e-05 -1.0068e-23)
(-0.0163475 -0.0127434 -5.55712e-23)
(-0.000492565 0.00010713 0)
(-0.000425134 -0.00965377 0)
(-0.0143089 -0.00984932 -1.59083e-21)
(-0.0133291 -0.00980767 0)
(0.0114083 0.00240748 0)
(-0.000403825 -0.000348292 -6.10044e-21)
(-0.00212242 0.00068034 -3.52942e-24)
(-0.00182722 -0.000579112 -1.08708e-21)
(0.0119673 0.00220438 5.12043e-21)
(-4.72068e-05 1.54208e-05 0)
(-0.0015118 0.0018639 5.93764e-21)
(-0.000156588 0.000336819 6.85564e-21)
(0.00708776 0.00227589 4.39477e-21)
(0.00488308 -0.00358854 2.3595e-21)
(-0.00088436 0.00111572 0)
(3.1066e-06 -3.55081e-06 -5.18878e-21)
(-1.32317e-05 0.000597631 -4.55936e-21)
(0.00845475 -0.0014906 -2.13256e-21)
(0.000863831 -0.0156833 3.158e-23)
(-0.000139385 1.26783e-05 0)
(0.011133 0.00172189 1.20113e-20)
(-1.00935e-05 0.000323235 -1.46836e-22)
(0.001519 0.00549583 1.02315e-21)
(-7.83573e-06 0.000271906 3.9974e-21)
(-0.00172728 0.00102856 4.54866e-21)
(0.0118928 0.00165384 -3.63656e-21)
(3.94544e-06 -4.66993e-05 -5.41349e-21)
(1.27257e-05 -0.000211154 0)
(-0.0142203 -0.00965262 0)
(-6.7538e-05 -1.42295e-05 0)
(0.000358993 0.0018064 1.06882e-21)
(-6.58859e-05 -5.2866e-06 0)
(-0.000455967 -0.000223407 -5.65371e-21)
(-0.000195827 8.18924e-05 -3.3195e-21)
(-0.000643108 -0.000445169 -2.27923e-21)
(-5.84023e-05 -4.43284e-05 2.9428e-21)
(0.00165483 0.00142717 -3.43244e-21)
(1.85328e-06 -1.47447e-05 2.37159e-21)
(-0.00296556 -0.000284005 -6.42038e-22)
(-0.000140185 4.90754e-06 0)
(0.0113447 0.00238456 6.46041e-21)
(-0.0192197 -0.00816681 0)
(-0.00666611 -0.00749563 3.98238e-22)
(0.0117366 0.00226229 4.73127e-21)
(-0.000250514 -0.00013256 0)
(-0.0230294 -0.0101146 -2.31295e-23)
(0.000437099 0.000236595 -3.66071e-21)
(0.00374704 -0.0141658 -2.50312e-21)
(0.0049071 0.00141355 9.33312e-22)
(-5.8568e-05 -4.89467e-05 -4.47909e-22)
(5.29195e-08 0.000656241 3.41942e-21)
(0.00671374 0.0126976 1.47766e-21)
(-0.000174347 -0.000284481 -4.97965e-21)
(0.0159576 0.0152221 -8.82546e-24)
(-0.000169771 6.07437e-05 0)
(4.4529e-06 -2.25405e-05 3.07325e-21)
(-0.000175153 -0.000264943 1.86593e-21)
(-1.39533e-05 4.95825e-06 4.27402e-21)
(1.26679e-06 -1.23323e-05 5.49366e-21)
(-0.00017375 7.09681e-05 3.95899e-21)
(0.0105462 -0.001016 -5.05681e-21)
(-2.50803e-05 -2.07495e-05 0)
(-9.38963e-05 -2.0963e-05 0)
(-0.000383042 -0.000355582 2.18766e-21)
(-0.000367175 0.000212619 -8.81469e-23)
(0.000648939 -0.00029785 3.94108e-21)
(-0.00637449 -0.0093248 1.99827e-22)
(-4.36157e-05 1.60796e-05 -3.16295e-22)
(-0.000228488 0.00322042 -1.16295e-21)
(-0.00574453 -0.00376137 0)
(-0.000828141 0.0011569 0)
(-1.25499e-05 0.000195575 6.69114e-21)
(0.00407146 0.00590547 0)
(0.00645475 0.00937738 -2.29416e-21)
(0.00662448 0.00352242 0)
(0.0160629 0.0137311 1.58487e-23)
(-0.00151692 -0.000297132 0)
(-0.00033869 0.000167737 -1.3353e-21)
(-0.000420738 -0.000325589 -1.52212e-21)
(-0.000537355 -0.000402909 0)
(-9.58202e-05 -0.000265306 2.53428e-21)
(-0.007705 -0.00736226 -1.87449e-21)
(-0.00010798 -4.60845e-05 0)
(-8.87055e-05 -0.000279809 2.92457e-21)
(-2.24263e-05 -1.43957e-05 -3.1896e-21)
(-0.00947256 -0.00597973 0)
(0.00432061 0.0045391 1.13686e-20)
(-0.00590421 -0.0080727 8.8464e-22)
(-0.00048465 0.000522175 4.22606e-21)
(-9.71736e-05 2.15094e-05 -4.36798e-21)
(0.00626668 -0.00533847 0)
(0.00378449 0.00410328 4.18759e-21)
(0.00226047 0.000645685 -1.02064e-21)
(-0.00063991 9.39008e-05 4.74416e-21)
(5.68283e-06 0.000601296 -1.11279e-24)
(-0.00812955 -0.0120973 1.20473e-22)
(-2.51223e-05 5.94903e-06 4.55883e-21)
(-0.0132762 -0.00948432 0)
(-0.000355364 0.000216698 7.49152e-23)
(-7.31212e-05 0.000245484 0)
(-2.51156e-05 0.000126601 0)
(0.00100527 -0.000449025 -3.56846e-21)
(0.00138075 0.00228623 -9.88561e-22)
(-0.000100664 -0.000233077 0)
(0.00128758 0.00190326 0)
(-0.000183495 0.00060039 -2.59694e-21)
(-0.000187124 0.000187199 8.57901e-21)
(-0.000743485 -0.000113469 3.66047e-21)
(0.00181338 0.00120071 3.79256e-21)
(-7.75603e-05 9.65618e-05 3.20488e-21)
(0.00392217 -0.014016 2.35936e-21)
(-0.000458022 -0.000400154 -1.6098e-21)
(-0.00870369 0.0372929 -2.45119e-22)
(-0.000168596 3.93666e-05 4.74545e-21)
(0.00952013 0.00315047 3.97633e-21)
(-0.000626641 -0.000446528 -4.2108e-21)
(-0.000570603 -0.00113299 2.60349e-21)
(-4.78593e-05 3.9838e-07 3.80756e-21)
(0.0039048 0.00486075 4.50103e-21)
(-0.00105575 -0.00083279 -2.74805e-21)
(0.000959767 0.000368486 0)
(-0.00155356 0.00410818 -1.18142e-21)
(0.0119208 0.00182616 0)
(-0.000217428 -0.000573798 7.17935e-25)
(-0.00565415 -0.00852573 -1.63758e-21)
(-0.00015926 -8.92267e-05 0)
(-0.000503262 0.00053617 0)
(0.00124467 -0.016893 1.14256e-21)
(-0.00045883 -0.000189316 -3.36562e-21)
(-3.8401e-05 8.11906e-05 0)
(2.36055e-05 0.000515711 1.02382e-23)
(-0.000196174 -0.000204079 5.6861e-21)
(-0.00132298 0.00291342 -6.43508e-21)
(-8.98308e-05 -2.59089e-05 -7.8015e-23)
(-7.93871e-05 3.29518e-05 3.8725e-21)
(0.000341575 -0.000363523 -3.06022e-21)
(0.00048558 0.00376918 0)
(0.00988787 0.00375219 4.65903e-21)
(1.10155e-06 -5.32235e-06 0)
(0.0112035 8.75744e-05 -2.08989e-21)
(-5.6838e-05 -2.49554e-06 0)
(0.000771184 0.00277351 1.31934e-21)
(-0.00018747 2.17713e-05 -1.11651e-21)
(-2.42071e-05 -1.32741e-05 3.30436e-21)
(-0.000144473 3.01425e-05 5.47413e-21)
(-7.37984e-05 0.000160467 -3.11873e-21)
(-0.0204265 -0.0116715 0)
(-8.25059e-05 0.00011885 -5.79843e-21)
(-0.00211823 0.000793017 -9.6117e-24)
(0.00208948 0.00546911 -7.08335e-22)
(-0.00022928 0.000919065 8.20408e-21)
(-0.000121493 -1.46616e-05 0)
(-8.68047e-05 -5.99627e-05 8.01021e-21)
(-0.0001101 0.000331928 0)
(-0.0022961 -0.0151274 -1.3261e-21)
(-6.54611e-05 0.000158435 4.10962e-21)
(-0.000108901 0.000613814 -3.3455e-21)
(-1.62887e-05 -1.72843e-05 5.60211e-21)
(-0.00385226 0.040056 -7.54071e-22)
(1.36699e-06 -2.53152e-05 0)
(-7.44366e-05 0.000271425 7.41797e-21)
(7.06264e-05 -0.000404552 1.30977e-21)
(-2.73207e-05 -2.39654e-05 6.2939e-21)
(0.0103444 0.00146434 -5.42659e-21)
(0.00778431 -0.00115737 1.11118e-21)
(0.000156923 -0.000144905 0)
(-0.000354305 0.000380999 7.37243e-21)
(0.00834368 0.00379589 8.61146e-23)
(-0.000466479 -0.000405374 0)
(-3.5464e-05 -1.48812e-05 -1.66823e-21)
(-0.00081354 -0.00125225 -5.96203e-21)
(0.00154738 0.00224478 0)
(-0.000387701 -8.54448e-05 -3.96497e-21)
(-0.000152338 2.62674e-05 -2.89029e-21)
(-0.00386343 -0.015166 -1.32696e-21)
(-0.000841033 -0.00745901 0)
(-4.14404e-05 0.000218628 9.57065e-21)
(0.0104916 0.00314193 0)
(0.00754541 0.000210069 0)
(-0.000167835 -8.4937e-05 -2.78761e-21)
(-7.40289e-05 -0.000295821 0)
(-0.00171245 -0.000225043 -3.04509e-21)
(-3.40508e-05 9.44528e-05 -4.86624e-21)
(-8.12438e-05 9.74352e-05 0)
(0.00228343 0.000256615 0)
(0.00847722 -0.000414355 6.37635e-22)
(-0.000556482 -0.000120872 0)
(-0.00543872 -0.0146334 3.24099e-21)
(-7.32355e-05 0.000148601 -1.30365e-20)
(0.0116288 -0.000646088 0)
(-8.85176e-05 6.35077e-05 0)
(-8.01644e-05 5.2875e-05 -2.21917e-21)
(-3.54153e-05 -8.19401e-06 3.21142e-21)
(0.00464771 0.00353171 0)
(-6.21304e-06 -3.97384e-06 7.69537e-21)
(-0.000145192 6.27153e-07 -6.15187e-21)
(-0.00759828 -0.0122499 -1.48355e-23)
(0.0115508 0.00244747 7.09621e-21)
(-0.000282251 -7.21722e-05 -8.05975e-21)
(-0.01115 -0.00642405 -6.84334e-21)
(-0.000647917 0.000107966 2.81193e-21)
(-2.63688e-05 7.84133e-05 0)
(0.00143669 -0.00332431 0)
(-0.000359168 -0.000384946 -6.23598e-24)
(0.000220025 0.00399257 0)
(-0.000195536 0.000164651 0)
(0.00153869 0.00151766 7.95996e-23)
(4.60192e-05 -3.29288e-05 3.84682e-21)
(-0.000237959 -0.000574645 2.34768e-21)
(-1.38981e-07 -3.11503e-05 6.71913e-21)
(-0.00164127 0.00274191 -5.26104e-21)
(-0.000126156 -9.64916e-06 0)
(0.00718692 0.00386285 -9.87332e-22)
(0.00434743 0.00545555 0)
(-0.0015546 -0.00511831 4.90146e-21)
(0.000675151 0.00134042 -1.95749e-23)
(0.0103807 0.00290716 0)
(-3.48125e-05 0.0005051 8.25515e-21)
(0.0111233 0.00107853 5.32441e-21)
(-0.00219414 0.00196762 0)
(0.00122302 0.00614696 -1.09893e-21)
(-3.98112e-05 0.000137426 1.5442e-21)
(-0.000144439 3.17691e-05 -5.33009e-21)
(0.00534444 0.00568214 1.94702e-21)
(0.00253477 -0.00460776 0)
(-0.00999631 -0.00294911 2.56682e-21)
(-0.00250777 0.00190468 8.60005e-21)
(-0.000951979 0.00115164 6.53095e-21)
(-4.54345e-05 0.00024094 4.10275e-21)
(-0.000380953 0.000401546 8.86023e-22)
(0.00110553 -0.0167903 -1.64825e-21)
(0.00401661 0.00127204 -8.99255e-21)
(-9.44199e-05 3.54414e-05 9.9347e-24)
(-0.000386576 0.000137018 0)
(0.00360843 -0.00992816 1.24391e-21)
(-0.0056713 0.0110089 -2.92256e-21)
(0.00569953 0.0032141 6.19261e-21)
(0.00320748 -0.00379452 -3.0324e-21)
(-4.10519e-05 2.14227e-06 4.10031e-21)
(-8.77131e-05 0.0002495 9.40194e-21)
(0.0110824 0.000294071 -4.27728e-21)
(0.0051823 0.00599363 0)
(-3.05543e-05 -1.18855e-05 -4.40658e-21)
(-0.000428793 -0.000483154 6.61357e-21)
(-2.29211e-05 -2.17006e-05 -5.11013e-21)
(0.00212936 -1.13725e-05 5.92005e-23)
(-5.81472e-06 0.000256929 0)
(-0.0210281 -0.00725087 3.56566e-21)
(-0.0010128 0.00111485 -7.57056e-21)
(-4.2256e-05 0.000207916 8.56198e-21)
(0.000136891 -0.000307429 0)
(0.0119153 0.00153248 -1.32807e-21)
(-5.57535e-05 0.000199213 0)
(-0.000480877 0.00011762 -3.11733e-21)
(-7.7029e-05 3.92387e-05 -3.90452e-21)
(-4.44428e-05 7.10706e-07 7.10841e-24)
(-0.000101909 -1.55137e-05 2.89002e-24)
(0.00190056 0.00259101 1.4121e-21)
(0.000331575 0.000905175 -7.87016e-21)
(-0.00718454 -0.00362318 1.75812e-21)
(0.0010982 -0.0138955 -9.8319e-22)
(0.0117827 0.00214535 -3.59853e-21)
(-0.0110896 -0.00381699 0)
(5.91565e-07 -1.9045e-05 -1.16805e-20)
(-0.0198193 -0.00921356 0)
(-1.97794e-06 0.000431635 1.07998e-20)
(-0.000457926 -3.3333e-05 8.46963e-21)
(-0.00661425 0.001468 4.62045e-21)
(-5.19117e-05 0.000230391 0)
(-6.77152e-05 1.84629e-05 -9.41337e-22)
(-5.6319e-05 -4.27383e-05 0)
(0.000733126 -0.000468027 -5.61374e-21)
(-0.00417118 -0.0136327 1.6724e-22)
(0.000590198 -0.00024318 1.89119e-21)
(-8.48917e-05 9.67645e-05 -1.11588e-20)
(-0.000309618 0.000557009 -4.88522e-21)
(-3.18128e-05 -2.1604e-05 2.4855e-23)
(-3.52118e-05 -8.57871e-06 9.20776e-24)
(5.88272e-05 -1.98956e-05 8.06746e-21)
(-0.000232183 0.000314587 -5.29029e-21)
(-0.000261582 0.000879047 -8.90621e-21)
(-0.00336744 0.0422593 -1.86095e-22)
(-0.000124181 0.000610207 3.17569e-21)
(-8.00856e-05 5.93142e-05 0)
(0.000866922 0.00113252 1.24901e-21)
(0.00228323 -0.000377552 2.58652e-21)
(2.77717e-05 0.000757658 1.70163e-22)
(-7.87537e-05 7.22299e-05 4.54639e-21)
(-0.00289651 -0.0146539 3.91464e-22)
(0.010222 0.00360911 0)
(-9.43633e-05 3.86497e-05 9.02745e-21)
(0.00283616 0.00295658 4.18542e-21)
(-0.00611896 0.00264438 4.25892e-21)
(-0.000358425 0.000284551 0)
(-0.000306316 0.000539949 0)
(5.26343e-06 8.18248e-05 0)
(-0.000289572 0.000291976 -2.71544e-21)
(-0.00149455 0.00172566 0)
(0.000915256 0.00184944 4.39903e-21)
(0.0110845 0.0287895 -6.34419e-22)
(-0.000152896 1.64152e-05 6.12145e-22)
(-0.00812401 0.0363032 3.51968e-22)
(-0.00577225 -0.00950633 -1.7435e-21)
(0.0119882 0.00218141 3.93329e-21)
(-7.52597e-05 -0.00030082 -7.75235e-22)
(0.0109067 0.00274434 0)
(-0.00494413 -0.000649069 1.8778e-22)
(0.00528308 -0.00247564 0)
(9.73494e-05 0.000817942 0)
(0.00791931 0.00300865 3.17653e-21)
(-6.84e-05 -3.51595e-05 0)
(0.0114942 0.002471 -7.67582e-21)
(-0.00753449 -0.0147903 0)
(-0.0232613 -0.0115642 0)
(-0.000148841 1.00633e-05 0)
(2.45697e-05 -0.00022097 0)
(-0.000464272 0.000390702 -2.23903e-21)
(0.00597993 -0.010246 0)
(-0.000187411 7.01877e-05 -3.32185e-21)
(-0.0016812 -0.00485359 -6.77373e-21)
(-0.000198519 0.000165865 0)
(0.000119029 0.00383304 -2.03324e-21)
(-0.000427052 -0.000309552 0)
(0.00559324 -0.00235916 0)
(-0.0098763 -0.00635701 -8.5743e-22)
(-6.2101e-05 -1.10595e-06 8.42603e-22)
(-0.00693896 0.00143568 0)
(-0.000743475 0.00110559 -3.9481e-21)
(0.00300259 -0.00341411 5.80294e-21)
(-0.00223202 -0.00153971 0)
(-0.00362235 -0.0140388 -1.54629e-22)
(-7.53492e-05 0.00014673 -5.53012e-21)
(-0.00243849 0.00171039 0)
(0.000306008 0.000578214 2.61201e-21)
(-0.00525938 0.00211691 7.13368e-21)
(0.00501468 0.00369867 0)
(-0.000102337 -1.47318e-05 0)
(0.0030954 0.00595564 5.49637e-21)
(-0.00840473 0.0357545 -5.96453e-22)