/*--------------------------------*- C++ -*----------------------------------*\
| =========                 |                                                 |
| \\      /  F ield         | OpenFOAM: The Open Source CFD Toolbox           |
|  \\    /   O peration     | Version:  v2012                                 |
|   \\  /    A nd           | Website:  www.openfoam.com                      |
|    \\/     M anipulation  |                                                 |
\*---------------------------------------------------------------------------*/
FoamFile
{
    version     2.0;
    format      ascii;
    class       volVectorField;
    location    "100";
    object      U_0;
}
// * * * * * * * * * * * * * * * * * * * * * * * * * * * * * * * * * * * * * //

dimensions      [0 1 -1 0 0 0 0];


internalField   nonuniform List<vector> 
18649
(
(-0.192259 -0.0376972 1.07719e-22)
(1.01008 -0.111712 2.0578e-21)
(1.07071 -0.0024648 0)
(-0.189056 -0.044817 -1.07077e-19)
(0.473681 -0.164914 1.18596e-19)
(1.1053 -0.0735573 -2.61138e-20)
(0.0898255 0.0542613 -6.48e-20)
(1.26489 -0.24223 -1.59458e-20)
(1.20487 -0.0140854 2.19625e-20)
(0.957562 -0.0486748 -8.69516e-22)
(1.21073 -0.298951 6.81562e-20)
(-0.275284 -0.0454589 -2.22636e-20)
(1.01313 0.115746 -9.28765e-20)
(1.06936 -0.0027266 0)
(0.991686 -0.0174866 0)
(1.17176 -0.0601938 3.21141e-20)
(1.01509 -0.00236817 3.29011e-22)
(1.17185 -0.0573237 1.39615e-20)
(1.11433 -0.38749 3.62076e-20)
(0.0309554 -0.0421501 -1.34069e-19)
(0.101111 -0.0593069 -9.65735e-21)
(1.04292 -0.064509 0)
(-0.31476 -0.0582625 0)
(1.23036 0.0805048 0)
(1.01572 -0.0155803 0)
(-0.00164741 -0.0439481 -2.88447e-20)
(1.03327 -0.0549665 -4.14282e-22)
(-0.268594 -0.0443324 -6.51374e-20)
(1.33645 -0.200958 0)
(1.03006 -0.00207001 -9.30776e-21)
(1.05175 -0.0461056 3.25332e-21)
(1.04311 -0.316662 7.14364e-21)
(1.00468 -0.00935309 -8.09934e-23)
(0.959397 -0.0979433 -2.60821e-20)
(0.978642 -0.0649199 5.32636e-21)
(-0.301099 -0.0548572 -3.22293e-20)
(0.879239 -0.063982 6.07739e-20)
(1.01279 -0.0502216 8.64242e-22)
(1.0335 -0.0143529 5.02756e-21)
(1.25818 -0.244037 -4.76608e-20)
(1.2094 -0.013416 -6.63731e-20)
(1.23149 0.0785999 -2.93568e-21)
(1.20757 0.0105088 -3.28501e-21)
(-0.233984 -0.0551358 -1.11677e-23)
(1.01316 -0.111754 7.73238e-22)
(1.03042 -0.00198489 -8.30111e-21)
(-0.0729069 -0.0460814 -1.08987e-19)
(-0.182085 -0.0453139 7.67984e-20)
(1.04741 -0.288331 5.60734e-22)
(1.03097 -0.0198604 8.41578e-21)
(-0.117618 0.0587197 3.07051e-20)
(1.10566 -0.113157 -4.08083e-21)
(0.407865 -0.0860897 2.49106e-20)
(0.490856 0.00456408 0)
(1.00453 -0.00887451 -1.48735e-21)
(1.02026 -0.282837 8.52258e-20)
(-0.176572 -0.0314451 0)
(1.23362 -0.0263857 0)
(-0.113676 -0.0364093 -1.1588e-19)
(0.959479 -0.0485505 9.9057e-22)
(-0.191937 -0.0367371 -7.97833e-20)
(1.00289 -0.0202382 3.44704e-21)
(1.20443 0.0119229 0)
(-0.161221 -0.044342 -4.53609e-20)
(1.01409 -0.0500863 0)
(-0.147829 -0.0442617 1.62611e-19)
(1.04366 -0.0377752 0)
(-0.173627 -0.0272471 0)
(-0.158331 -0.042253 -8.4759e-20)
(1.3324 -0.0544659 8.16158e-20)
(-0.274999 -0.055333 1.12761e-20)
(1.00375 -0.0227084 4.65451e-22)
(1.02856 -0.325463 1.94338e-21)
(1.10441 -0.0418193 -8.41889e-23)
(0.964159 -0.0911424 2.0919e-20)
(0.0900573 -0.0611415 1.05022e-20)
(0.859993 -0.160631 1.24003e-20)
(1.03453 -0.159769 3.52613e-21)
(1.10207 -0.0411472 -8.78628e-21)
(0.960491 -0.497579 0)
(1.01549 -0.002001 0)
(-0.0957904 -0.046577 0)
(-0.19445 -0.0482973 1.86898e-19)
(0.440291 -0.0904067 -2.37862e-20)
(0.834715 -0.260975 0)
(1.03325 -0.0135189 -7.03349e-21)
(0.885694 -0.114007 5.52673e-20)
(1.10381 -0.109917 3.09284e-20)
(1.13869 -0.15525 1.6842e-20)
(1.10888 -0.046905 0)
(1.13856 -0.0274771 -3.89924e-20)
(0.965605 -0.028718 0)
(1.00354 -0.0435441 -3.17601e-21)
(-0.0952217 0.0321688 -7.72616e-20)
(1.04225 -0.0627493 0)
(1.20555 -0.292302 9.74594e-20)
(0.964752 -0.053407 0)
(0.936733 -0.456297 6.02322e-22)
(-0.151362 -0.0420589 -4.2872e-20)
(1.03254 -0.0533718 3.42094e-22)
(-0.314647 -0.0567804 -1.09628e-19)
(0.91578 -0.22913 0)
(1.01943 -0.007145 2.6179e-23)
(-0.109535 0.061253 0)
(-0.160641 -0.0414565 4.69671e-20)
(1.10897 -0.113265 -6.60117e-22)
(0.999077 -0.00413397 -4.83806e-21)
(1.05598 -0.0495365 -7.52663e-22)
(0.916659 -0.23552 -2.09386e-20)
(0.962457 -0.0832017 1.7874e-20)
(-0.300011 -0.0552261 -5.88652e-20)
(0.680074 -0.211442 -1.34565e-19)
(1.00332 -0.0424508 -2.8685e-21)
(0.958316 -0.0805458 -5.61703e-21)
(1.29445 -0.0344634 6.20448e-20)
(1.07954 -0.00377163 -1.01975e-20)
(1.00413 -0.00846046 -2.59758e-23)
(-0.107724 -0.00787405 0)
(-0.241141 -0.0553531 0)
(1.03972 -0.0190147 0)
(-0.119566 -0.0367531 1.15529e-19)
(1.0203 -0.0633928 0)
(1.03289 -0.318851 -1.82094e-21)
(1.0033 -0.0224956 5.10472e-23)
(-0.118137 -0.0518387 3.64011e-20)
(1.01601 -0.0161614 0)
(1.00002 -0.000333709 -6.73984e-21)
(0.0202631 -0.03952 2.54332e-20)
(1.01933 -0.0623486 -1.07176e-21)
(-0.0930831 -0.00483148 5.05818e-20)
(0.998064 -0.0347581 4.93288e-22)
(-0.190514 -0.0484028 -1.20602e-19)
(1.01636 -0.0298839 5.89982e-22)
(-0.0913462 -0.0395038 9.27799e-20)
(0.874195 -0.0636529 -2.1882e-20)
(0.999672 -0.00389012 -1.11767e-20)
(-0.261062 -0.0557933 -1.43356e-23)
(-0.170877 -0.0300696 0)
(1.13674 -0.0256698 3.42019e-20)
(1.03189 -0.156128 0)
(0.470727 -0.541163 -2.36936e-20)
(1.02364 -0.0427707 0)
(1.02853 -0.015678 0)
(1.00799 -0.0145099 9.34804e-22)
(1.00004 -0.00747069 -1.19933e-20)
(-0.262483 -0.0340163 0)
(1.02907 -0.0154624 0)
(1.00128 -0.0157598 -9.01059e-21)
(-0.314436 -0.0546931 0)
(-0.162994 -0.0421191 9.44827e-20)
(1.33965 -0.0236502 -4.68428e-20)
(0.99958 -0.00250775 0)
(-0.22527 -0.0508892 0)
(1.05664 -0.0216258 -1.02537e-20)
(1.02232 -0.0543879 0)
(1.00759 -0.0141201 0)
(0.587622 -0.239005 0)
(0.958769 -0.480539 -4.72883e-21)
(1.00464 -0.00484278 -5.12973e-22)
(0.987228 -0.0386698 3.91353e-21)
(1.00033 -0.0134719 6.69459e-21)
(1.28236 -0.317951 1.08997e-19)
(-0.110432 -0.0373098 -9.52976e-20)
(1.0561 -0.0224605 -9.72012e-21)
(-0.110437 -0.0517625 0)
(1.29421 -0.0387637 -6.14183e-20)
(0.999062 -0.0043876 0)
(1.00495 -0.0238973 -1.49758e-21)
(1.02322 -0.055444 8.52042e-23)
(1.07769 -0.00417456 -1.64957e-20)
(0.997453 -0.0343628 0)
(0.138477 -0.436773 1.18738e-19)
(1.22951 -0.0284612 0)
(0.480176 -0.185917 0)
(1.01546 -0.048346 2.17586e-21)
(0.535645 0.108147 -1.00261e-19)
(-0.31772 -0.0548783 -2.89313e-23)
(1.01742 -0.114763 -2.21528e-21)
(1.00434 -0.00465272 -5.11828e-22)
(1.3409 -0.0545029 0)
(1.35301 -0.0471091 0)
(1.02776 -0.00514736 0)
(1.00003 -0.000664959 1.86489e-21)
(-0.207713 -0.0151913 -5.67811e-20)
(1.08952 -0.0969131 0)
(1.17383 -0.0323336 0)
(1.00009 -0.00710098 9.05485e-21)
(1.0242 -0.0423502 0)
(1.15259 0.00718293 0)
(0.969755 -0.193226 0)
(0.877024 -0.788271 -1.98926e-20)
(1.0149 -0.0528823 0)
(-0.167414 -0.0261909 -6.6893e-20)
(1.05119 -0.0207618 0)
(1.01811 -0.00613139 1.94751e-21)
(1.00029 -0.00491226 0)
(0.889754 -0.111808 -1.98617e-20)
(0.975701 -0.289619 -1.16749e-21)
(0.963427 -0.0939775 1.10224e-20)
(1.00005 -0.000583236 0)
(1.00118 -0.0150284 0)
(1.27745 -0.0388551 0)
(-0.180181 -0.0266562 -6.61447e-21)
(0.889669 -0.0765563 -1.71066e-20)
(1.14223 -0.158932 8.40026e-21)
(0.707954 -0.180393 1.93632e-20)
(1.31948 -0.190868 3.24063e-20)
(-0.055376 -0.0459112 7.05423e-20)
(1.05457 -0.0487232 0)
(-0.226472 -0.0428065 -1.40176e-19)
(0.986529 -0.0416913 -4.04561e-21)
(1.01539 -0.0972622 7.40246e-22)
(1.01679 -0.0613789 0)
(-0.18055 -0.0278058 1.46211e-19)
(-0.194578 -0.0492116 1.58535e-19)
(1.03565 -0.0310173 -3.81009e-21)
(0.828433 -0.222415 0)
(1.02173 -0.0299852 1.05414e-21)
(-0.113235 -0.0515336 -1.0202e-22)
(0.997601 -0.0470925 1.05337e-20)
(1.21939 0.031376 1.56093e-20)
(1.01855 -0.039933 -3.51567e-22)
(0.314354 -0.801042 3.89676e-20)
(0.163926 -0.451627 -1.06586e-21)
(0.0626991 -0.0435259 1.00225e-19)
(-0.0999963 0.024349 4.01084e-20)
(1.03662 -0.031847 4.4676e-21)
(0.997541 -0.0457624 -4.62438e-21)
(0.378752 -0.0799871 0)
(0.608344 0.10924 1.28582e-19)
(1.15198 0.0135376 6.19194e-21)
(1.01628 -0.0275292 4.72957e-23)
(-0.316741 -0.0559889 0)
(1.17068 -0.0670799 -2.98635e-20)
(0.0536646 -0.0420888 1.05068e-19)
(1.29054 -0.302116 1.47108e-20)
(0.595533 -0.219497 7.17013e-20)
(0.477354 -0.107014 6.27163e-20)
(1.01601 -0.0290858 -7.20596e-22)
(1.2245 -0.44881 -7.91668e-20)
(1.02115 -0.00483068 0)
(-0.216728 -0.0446255 -3.43001e-20)
(1.15117 0.0117374 1.37608e-21)
(1.02726 -0.00491318 2.34275e-22)
(0.959032 -0.0831583 1.18351e-20)
(0.975421 -0.191676 1.19751e-20)
(0.249273 -0.0585088 1.12298e-19)
(0.987914 -0.0381635 0)
(0.781708 -0.349861 1.95764e-20)
(0.978893 -0.283858 -5.61622e-21)
(-0.312496 -0.0524419 7.13131e-20)
(0.0725179 0.0503171 8.27997e-20)
(1.17138 -0.0303632 0)
(0.978007 -0.0669093 6.09658e-21)
(1.09274 -0.0969656 2.72251e-20)
(-0.236088 -0.0545914 0)
(1.01856 -0.0388464 3.79325e-22)
(0.986618 -0.0407277 0)
(0.955692 -0.0808779 5.88032e-21)
(0.963956 -0.0856706 -1.87546e-20)
(1.03257 -0.0237807 -1.59802e-21)
(0.684552 -0.1981 8.02086e-20)
(-0.225875 -0.0430993 1.32743e-19)
(0.985766 -0.0375358 1.34705e-20)
(1.01739 -0.00613114 -1.84927e-21)
(-0.109613 -0.0470785 3.78777e-20)
(0.366959 0.0884154 -5.46496e-20)
(1.00023 -0.00486777 0)
(-0.204356 -0.0117208 -2.83265e-20)
(1.02191 -0.011243 0)
(-0.268376 -0.0360601 1.95814e-20)
(1.06093 -0.339685 -1.10148e-20)
(0.353478 -0.0771168 2.74737e-20)
(0.684513 -0.315726 0)
(1.12382 -0.385071 0)
(1.05096 -0.0197222 1.62807e-21)
(1.01705 -0.00556634 0)
(1.09105 0.113183 -5.892e-20)
(-0.0906943 0.0248732 0)
(-0.0995743 -0.0516818 -2.01285e-21)
(1.00016 -0.00744514 1.34652e-21)
(1.0207 -0.0297161 1.97204e-21)
(-0.216824 -0.0511195 2.37894e-20)
(1.05678 -0.127864 -1.2434e-20)
(0.876052 -0.137036 8.23218e-20)
(-0.314917 -0.0550518 0)
(1.05879 -0.0211434 0)
(0.862335 -0.168282 0)
(0.999742 -0.0031664 0)
(1.03051 -0.00635272 0)
(1.2165 0.0285405 -1.52936e-20)
(-0.309383 -0.0516252 2.95483e-20)
(0.230836 0.0575871 -6.84144e-20)
(0.296202 -0.0539911 -1.73262e-19)
(1.34273 -0.160637 -1.82312e-22)
(0.999476 -0.0772819 -9.06578e-21)
(1.34723 -0.0211834 0)
(1.33763 -0.200566 0)
(1.01846 -0.00658019 0)
(0.420518 0.091096 0)
(1.0051 -0.000883862 -8.20819e-22)
(0.956976 -0.0993064 3.57187e-20)
(0.965817 -0.0513039 0)
(1.00727 -0.0142862 -2.18413e-22)
(1.03863 -0.0186916 5.04392e-21)
(0.46639 -0.120572 4.10291e-20)
(0.999714 -0.003712 1.27851e-20)
(1.19119 -0.0340738 3.63247e-20)
(0.462671 -0.0893339 -5.45607e-20)
(0.960128 -0.0948448 -2.2814e-20)
(-0.0208246 -0.0441004 0)
(0.960169 -0.0511909 3.55165e-20)
(0.490237 -1.13461 -2.41987e-20)
(0.992126 -0.0170034 1.03009e-20)
(1.05829 -0.0219661 9.65652e-21)
(1.01652 -0.0285334 0)
(1.06856 -0.0230027 2.56825e-20)
(1.00003 -0.000297035 -3.65142e-21)
(-0.198133 -0.0490016 -9.30214e-20)
(-0.211799 -0.0541992 -6.98454e-20)
(0.999301 -0.00344631 0)
(1.00015 -0.0133418 -3.70102e-21)
(1.21043 -0.010277 5.02049e-20)
(1.00023 -0.000434438 2.22092e-21)
(1.00685 -0.0138389 -1.50158e-21)
(1.03817 -0.0392591 0)
(1.00023 -0.00704087 0)
(0.920192 -0.157557 -3.2757e-20)
(-0.0649402 -0.0175817 0)
(0.698151 -0.166654 6.62202e-20)
(-0.217914 -0.0424344 3.5908e-20)
(1.00449 -0.0234577 0)
(0.99978 -0.0115249 3.45668e-21)
(1.20159 0.016928 1.25388e-20)
(1.00517 -0.00481588 4.64273e-22)
(1.03263 -0.000593281 0)
(-0.220888 -0.018096 -6.01778e-20)
(0.988809 -0.149009 0)
(1.23139 -0.135103 5.8994e-20)
(0.88567 -0.0786757 0)
(1.27902 -0.324777 -5.35712e-20)
(1.00486 -0.00463207 0)
(1.09222 -0.0138126 0)
(1.01773 -0.0626214 1.24178e-21)
(1.06728 -0.070545 9.27024e-21)
(0.998619 -0.0191498 3.00267e-21)
(1.0002 -0.00426993 -3.97268e-21)
(1.02068 -0.004354 -3.22849e-21)
(1.1367 -0.0215341 -1.96154e-20)
(1.16925 -0.0693589 0)
(0.995602 -0.0196773 7.00682e-21)
(1.01464 0.117261 -5.35948e-20)
(0.995334 -0.020334 0)
(1.03811 -0.0386155 0)
(-0.214066 -0.0413714 -1.27098e-19)
(1.01025 0.0444687 0)
(1.06974 -0.0238758 0)
(-0.0280876 -0.0471615 0)
(1.28204 -0.302023 0)
(-0.104636 -0.0513104 -1.59403e-20)
(0.171211 0.0578397 0)
(1.06585 -0.0686338 -8.27432e-21)
(0.135344 0.0546724 0)
(0.995547 -0.0210556 0)
(0.124876 -0.0496894 1.04726e-19)
(0.518885 -0.937337 1.80917e-20)
(0.961974 -0.0511646 -2.52553e-20)
(0.904304 -0.0407298 -3.95375e-20)
(0.98891 -0.145418 7.62441e-21)
(1.05052 -0.0447875 0)
(1.01587 -0.0540217 -1.4275e-21)
(1.02765 -0.0152909 0)
(0.998892 -0.0178983 4.53879e-21)
(-0.185735 -0.0432559 -3.41953e-20)
(0.914521 -0.159156 0)
(0.0394584 -0.0437417 -1.04655e-19)
(-0.220046 -0.0425409 1.56182e-20)
(1.33895 -0.182811 0)
(0.213953 -0.0554297 -7.12076e-20)
(1.08311 -0.0356504 -1.02495e-20)
(0.999962 -0.000518963 4.675e-21)
(1.14833 0.0169476 0)
(1.01423 -0.0269307 0)
(0.834982 -0.818889 0)
(1.00006 -0.000121344 4.55327e-21)
(0.99966 -0.00246896 -7.59752e-21)
(0.0734924 -0.198673 0)
(0.257711 0.0622568 0)
(1.06064 -0.0511086 -4.00686e-21)
(1.03181 -0.0214141 0)
(1.30993 -0.291784 6.80837e-20)
(1.09814 -0.219465 -8.43042e-21)
(0.994669 -0.0452535 1.13251e-20)
(-0.154362 0.0243409 -3.82819e-20)
(1.0666 -0.00265216 1.31351e-20)
(0.906907 -0.0392088 4.97747e-20)
(-0.29419 -0.0548057 1.72469e-19)
(1.07994 -0.0691734 -6.79267e-21)
(0.999755 -0.00296291 -3.84549e-21)
(-0.223955 -0.0167036 0)
(-0.187181 -0.0441781 0)
(1.17083 -0.025253 -1.66229e-20)
(1.00312 -0.0304657 0)
(0.999861 -0.0111226 0)
(-0.195036 -0.0405504 0)
(-0.220398 -0.0164432 7.42584e-20)
(1.02212 -0.0310188 0)
(1.30184 -0.266423 6.21406e-20)
(1.0236 -0.0123942 0)
(1.02611 -0.0390148 4.17071e-23)
(0.100224 0.0417023 0)
(1.03561 -0.0134736 2.45458e-22)
(-0.0537422 -0.0153558 0)
(1.08005 -0.0710761 0)
(1.25191 0.0601843 0)
(0.174449 -0.0504721 1.10603e-19)
(0.976414 0.118518 6.95508e-20)
(0.493957 0.104198 1.46773e-19)
(1.01428 -0.024897 0)
(0.032789 -0.0763326 5.49066e-20)
(0.995325 -0.0217415 0)
(1.12025 0.109977 8.30126e-20)
(1.1441 -0.248457 0)
(0.0897298 -0.0470154 6.13581e-20)
(0.384417 -0.0173827 9.80376e-20)
(1.02713 -0.0148094 -2.13258e-21)
(1.03287 -0.000154361 -1.48749e-22)
(1.21943 -0.458994 0)
(-0.0892842 -0.0505247 -3.22373e-20)
(1.09348 -0.0146718 8.09567e-21)
(0.693405 -0.302506 -5.63074e-20)
(1.05901 -0.0509923 3.61515e-21)
(1.04202 -0.0837942 9.57266e-21)
(1.01612 -0.00502143 -2.24201e-21)
(-0.0779331 -0.00425718 1.742e-22)
(0.975889 0.120499 5.81499e-20)
(-0.0531253 -0.0497876 -3.26669e-20)
(1.05341 -0.0456305 5.89064e-21)
(0.965649 -0.02753 -7.16125e-21)
(0.0921331 -0.212448 0)
(-0.223213 -0.0529185 -8.0275e-20)
(0.905491 -0.0345915 -5.71909e-20)
(0.994461 -0.0762309 -1.15895e-20)
(1.03168 -0.0222204 0)
(1.02428 -0.0124164 -4.29995e-21)
(-0.0936032 -0.0508991 0)
(0.00688023 -0.0394238 4.78297e-20)
(1.00403 -0.00735634 -9.48706e-23)
(1.05085 -0.0104999 -8.3745e-21)
(-0.302145 -0.0555261 0)
(1.03495 -0.0180686 4.82642e-22)
(-0.271402 -0.0500173 1.85582e-19)
(1.03086 -0.0205534 -6.18847e-21)
(-0.15256 -0.0270317 0)
(1.09236 -0.217202 -2.59828e-20)
(0.106242 -0.0478621 5.56525e-20)
(0.943337 -0.133942 -1.58165e-20)
(0.524822 0.00795859 -4.20385e-20)
(-0.222923 -0.0421558 9.10497e-21)
(1.02085 -0.123429 -1.31863e-21)
(1.20415 -0.0184687 -2.43401e-20)
(1.04308 -0.082255 -4.34906e-21)
(1.19541 -0.0237351 2.06097e-20)
(1.08205 -0.0339641 0)
(0.98782 -0.0348017 0)
(1.05656 -0.130879 8.03189e-22)
(0.199617 -0.576701 -6.41163e-20)
(1.03068 -0.00685445 0)
(1.07164 -0.0438181 0)
(-0.225949 -0.0526281 2.18022e-20)
(1.02271 -0.0130761 6.90167e-21)
(1.00017 -0.00425799 0)
(1.18848 0.107209 0)
(1.01403 -0.0153926 7.64996e-22)
(-0.226206 -0.0549173 -3.65025e-20)
(1.06113 -0.0204882 0)
(1.06834 -0.0206144 0)
(1.04963 -0.00834019 0)
(1.11599 -0.0535798 -2.68329e-20)
(1.06531 -0.00201667 1.13457e-20)
(1.00004 -0.000494896 1.14956e-22)
(0.54139 -0.545813 0)
(1.02662 -0.040135 -1.20851e-22)
(0.827789 -0.14201 0)
(1.00016 -0.0124942 -3.46099e-21)
(1.08626 -0.118589 3.2503e-20)
(-0.236768 -0.0552912 -8.49326e-20)
(1.00004 -0.000989023 -1.18482e-22)
(0.751265 0.049236 1.68638e-20)
(1.0734 -0.0998937 0)
(0.0933897 0.0600013 0)
(-0.242889 -0.0222472 6.20634e-20)
(-0.245779 -0.0228658 0)
(-0.260133 -0.0508804 0)
(1.11868 -0.0542629 3.01372e-20)
(1.17217 -0.238495 6.18109e-22)
(1.15083 0.016007 7.18565e-21)
(-0.270864 -0.0506647 -9.29457e-20)
(0.977568 -0.0336037 0)
(1.14414 -0.313503 -4.74388e-20)
(0.968571 -0.0874983 1.769e-20)
(0.533591 -0.0287354 9.778e-20)
(1.28295 -0.0371613 -5.37578e-20)
(1.07173 -0.263473 0)
(1.00027 -0.000416958 -1.81143e-21)
(0.385286 -0.340819 -7.38265e-20)
(1.28688 -0.00379026 7.0142e-20)
(0.120483 0.0412627 9.99219e-21)
(1.0432 -0.0342666 0)
(-0.29008 -0.0550383 -2.26799e-19)
(0.927327 -0.0421299 -5.96967e-22)
(1.22335 0.0263597 -1.61283e-20)
(0.996727 -0.0107199 5.95505e-21)
(1.14674 -0.255455 -3.33108e-20)
(-0.223742 -0.0545948 6.48667e-20)
(0.999423 -0.00316323 -7.77125e-21)
(1.05 -0.00983626 0)
(-0.245939 -0.0237912 0)
(1.03695 -0.0202737 0)
(0.950586 -0.447662 -5.81463e-22)
(1.03519 -0.0207434 0)
(1.10789 -0.0741046 2.41883e-20)
(1.03243 -0.055977 1.39386e-21)
(1.14314 -0.103757 1.44386e-20)
(1.01374 -0.0148079 -2.89602e-22)
(0.724277 -0.477583 -2.29889e-20)
(1.00008 -0.000883419 1.3125e-21)
(0.064562 0.0696459 -1.77038e-20)
(1.0444 -0.0343827 0)
(-0.259558 -0.0494339 -1.20863e-19)
(1.2339 -0.103122 0)
(-0.0996916 0.0321384 4.62141e-20)
(-0.218277 -0.0537425 -8.35028e-20)
(1.06978 -0.0429572 0)
(1.0496 0.0379251 7.11951e-21)
(1.19417 -0.027161 3.97764e-20)
(0.0195286 -0.007338 9.69978e-20)
(-0.221035 -0.0423721 -1.98812e-20)
(1.04022 -0.017687 6.04476e-22)
(0.820342 -0.140055 2.61318e-20)
(1.24869 0.058223 -5.18916e-20)
(1.07162 -0.0273662 1.32632e-20)
(1.27668 0.0753713 8.62363e-21)
(1.01478 -0.0588506 0)
(0.999229 -0.00386755 4.40766e-21)
(1.07053 -0.0283083 -4.87839e-21)
(1.00353 -0.000632672 8.80464e-22)
(1.00006 -0.000720589 3.19301e-21)
(1.01429 -0.0603559 2.10521e-21)
(0.421125 -0.162506 1.11919e-19)
(1.02243 -0.0118341 0)
(1.02676 -0.0311515 0)
(1.11166 -0.0473921 -1.02399e-20)
(1.04414 -0.0914574 7.84464e-23)
(0.507013 -0.52907 4.48339e-20)
(-0.104385 0.0293422 3.62648e-20)
(0.976474 -0.0333785 -7.25291e-22)
(1.20448 0.0158449 1.42289e-20)
(1.31623 -0.182729 0)
(1.06597 -0.267578 0)
(0.999985 -0.0123995 7.25927e-21)
(0.0326613 -0.0480727 0)
(0.653086 0.112191 -4.54158e-20)
(0.180178 -0.0695239 0)
(1.27929 0.0718904 -1.03201e-20)
(1.15326 0.00920972 0)
(1.04648 -0.0812453 1.50218e-21)
(1.11951 -0.0636768 7.5523e-21)
(1.13827 -0.0232269 0)
(1.0628 -0.0203544 -5.86467e-21)
(1.34901 -0.155284 2.92889e-20)
(1.00881 -0.0342757 0)
(1.06313 -0.0195151 -6.70112e-21)
(1.03067 -0.0103397 3.20217e-21)
(-0.162906 0.0159273 0)
(0.0916723 -0.0486645 -1.75077e-19)
(-0.257929 -0.0293027 -3.32636e-20)
(1.02426 -0.153047 -6.90629e-23)
(1.00433 -0.029495 -3.56829e-21)
(-0.199432 -0.0420216 0)
(-0.136287 -0.0439095 -8.70203e-20)
(0.904035 -0.787113 1.58794e-20)
(1.08837 -0.12072 -1.52518e-20)
(0.762744 -0.0505979 -1.62639e-21)
(-0.206858 -0.00560368 -7.03567e-21)
(1.00481 -0.000677215 6.84402e-22)
(-0.248871 -0.0248487 0)
(1.042 -0.0906839 -6.66706e-23)
(0.954441 -0.0617359 0)
(0.957461 -0.0355 0)
(0.588353 -0.600491 -2.9774e-20)
(-0.145798 -0.0416974 2.27843e-20)
(1.06064 -0.0213518 0)
(0.719098 -0.457647 0)
(0.941617 -0.138583 -9.31181e-21)
(0.998164 -0.0761406 1.08462e-20)
(-0.187288 -0.0268186 -8.69837e-20)
(1.04934 -0.557063 -3.02002e-20)
(0.99583 -0.0281765 4.51344e-21)
(0.0350164 -0.00843106 -9.14346e-20)
(1.13853 -0.0303364 1.02328e-20)
(-0.0922978 0.063703 -5.75148e-20)
(1.02124 -0.0547739 5.3357e-22)
(0.635121 -0.138722 -7.13382e-20)
(1.14242 -0.101538 2.63768e-20)
(1.11783 0.00830429 -1.22542e-20)
(1.01081 -0.000448682 -5.25901e-22)
(0.107531 -0.0491521 -6.97529e-20)
(1.17521 -0.135564 2.34339e-20)
(1.20639 -0.0251431 0)
(1.20089 0.0275837 1.29679e-20)
(-0.19523 -0.0540423 0)
(1.09328 -0.0168024 7.50833e-23)
(-0.252049 -0.0273189 6.11731e-20)
(1.05582 -0.0320038 0)
(1.02651 -0.157091 0)
(0.127132 0.0230792 -8.35598e-20)
(1.10289 -0.0751635 1.35796e-20)
(1.00501 -0.00967384 0)
(0.753666 -0.0546207 -1.49072e-21)
(1.06938 -0.0332607 -1.39534e-20)
(1.1955 0.0197969 6.68426e-20)
(1.02614 -0.0303102 3.21733e-23)
(0.992773 -0.0330171 6.04942e-21)
(0.464212 -0.574926 -3.45182e-20)
(1.18192 -0.492892 0)
(-0.115159 -0.0510088 -7.62268e-20)
(1.00007 -0.000407423 0)
(-0.228163 -0.0548952 3.80028e-20)
(1.0318 -0.0196831 0)
(0.906913 -0.538656 1.65304e-21)
(1.17283 -0.0271901 9.94258e-21)
(1.0307 -0.0109534 -3.37744e-21)
(1.0403 -0.0379791 -5.59828e-21)
(0.962872 -0.0535239 -8.78571e-21)
(1.25727 -0.054924 0)
(0.970496 -0.0535272 -1.43629e-20)
(1.17105 -0.244594 4.40723e-22)
(1.22676 0.0254092 1.22185e-20)
(0.964229 -0.222761 1.69654e-20)
(1.02176 -0.0418427 0)
(1.02034 -0.0287775 -1.23362e-21)
(0.954631 -0.078442 0)
(0.276161 0.00402891 4.03669e-20)
(1.00297 -0.0196112 3.28513e-21)
(0.911605 -0.135718 -1.54877e-20)
(1.02006 -0.00716863 -3.03564e-21)
(-0.134765 0.0619893 1.63673e-20)
(1.00003 -0.00137358 0)
(0.949991 -0.0624516 2.45322e-20)
(1.06484 -0.00567757 -3.22155e-21)
(1.02221 -0.0124718 -3.59309e-21)
(-0.303344 -0.0552028 1.04559e-19)
(1.28278 -0.0060286 -3.21447e-20)
(0.18397 -0.382756 0)
(1.01438 -0.115006 3.0913e-21)
(0.536137 -0.115271 -1.52919e-21)
(1.1362 -0.0313413 0)
(1.03289 -0.0146237 1.77294e-21)
(1.12386 0.0126452 3.03211e-20)
(-0.155215 -0.0415698 0)
(1.08242 -0.0657718 1.17903e-20)
(1.04229 -0.0378704 3.2622e-21)
(0.318212 0.00671069 3.94067e-20)
(0.530387 0.0822058 0)
(1.0008 -0.0162203 9.38082e-21)
(-0.21018 -0.0509677 0)
(0.19998 -0.0870009 0)
(1.05615 -0.0332478 5.31749e-21)
(1.06312 -0.0170349 0)
(1.1704 -0.182603 2.4204e-20)
(0.9592 -0.034602 -1.39873e-20)
(0.996351 -0.0279678 0)
(0.829232 -0.853507 0)
(-0.273989 -0.0552955 -1.34879e-20)
(-0.180922 -0.0237094 0)
(0.35005 0.00349564 -8.3257e-20)
(0.996637 -0.0251581 -1.75858e-20)
(0.787762 -0.282382 0)
(1.00495 -0.0247625 0)
(1.00737 -0.0196486 -9.1251e-22)
(1.03202 -0.0141083 -3.20834e-21)
(-0.169556 -0.0441352 0)
(1.02039 -0.00112343 -4.52778e-21)
(1.01645 -0.0493333 -1.76403e-21)
(-0.202844 -0.00492079 6.08409e-23)
(-0.227226 -0.053166 -1.27505e-19)
(1.06849 -0.0505887 1.90574e-20)
(1.31919 -0.15775 1.06045e-19)
(1.08713 -0.123813 -9.24976e-21)
(1.00399 -0.00799856 0)
(0.199004 0.0809199 0)
(1.10607 -0.0407863 -2.29076e-22)
(1.16951 -0.486303 0)
(1.0048 -0.0734811 0)
(1.0079 -0.542544 -4.22495e-22)
(1.03251 -0.00127577 -4.94136e-21)
(1.09505 -0.0174551 -8.66812e-21)
(0.999961 -0.000841598 8.47654e-21)
(1.18792 -0.36131 5.91129e-20)
(1.02256 -0.0425209 0)
(-0.18055 -0.0470485 2.06748e-20)
(0.327983 -0.0716256 0)
(1.29105 -0.120923 -7.47624e-20)
(-0.118335 -0.0386833 -2.94414e-23)
(-0.101503 -0.0509591 0)
(0.910393 -0.0998662 3.89896e-20)
(-0.26305 -0.0554537 -1.00803e-19)
(1.22533 -0.255797 0)
(1.22271 0.0303852 1.73176e-20)
(0.957062 -0.037327 4.70727e-21)
(1.03911 -0.0376873 5.45097e-21)
(-0.0643996 -0.0459623 -3.62271e-20)
(0.446735 0.0895816 0)
(1.2992 -0.192199 -3.69336e-20)
(1.19696 -0.294068 -9.17809e-20)
(1.07978 -0.267477 -2.62983e-20)
(0.998591 -0.0185751 5.05518e-21)
(1.01855 -0.121203 1.81326e-22)
(0.149512 0.022008 9.55723e-20)
(-0.218286 -0.0414659 1.93637e-19)
(1.004 -0.0285725 1.67617e-22)
(1.05741 -0.0855052 0)
(-0.146345 -0.0255723 -2.65896e-20)
(0.0493767 0.0766712 -8.66035e-20)
(0.0621671 -0.0468147 -9.20805e-20)
(1.27605 -0.0543699 5.93324e-20)
(1.00788 -0.000330392 -2.52371e-23)
(0.956262 -0.0627972 2.85176e-20)
(-0.239117 -0.0553415 7.92956e-20)
(-0.00133115 -0.0464811 0)
(1.0134 -0.00318288 1.14503e-21)
(1.12023 -0.0286622 -3.40135e-20)
(1.01643 -0.00554877 1.90349e-21)
(0.732245 -0.895445 -5.56131e-22)
(0.996987 -0.0102377 0)
(1.17399 -0.10232 -6.0308e-20)
(1.08539 -0.262748 3.0625e-20)
(1.00113 -0.0161934 8.00241e-21)
(1.05701 -0.00187288 0)
(-0.224102 -0.0549738 2.39413e-20)
(0.996173 -0.0223493 0)
(1.07049 -0.098914 6.88555e-21)
(0.992291 -0.0323763 -6.09944e-21)
(1.01098 -0.000760968 8.45291e-23)
(1.00144 -0.0368437 7.40161e-23)
(1.07825 -0.637859 -1.88573e-20)
(0.865563 -0.368532 -3.21928e-20)
(1.33538 -0.194351 -2.55733e-20)
(0.189036 0.0544799 -7.46584e-20)
(-0.225483 -0.0539446 6.42742e-20)
(-0.179207 0.0087678 0)
(1.00001 -0.000866387 -9.47898e-21)
(1.23986 -0.0945484 0)
(0.906828 -0.0473918 5.1956e-20)
(1.08482 -0.0839897 -2.63011e-20)
(1.31372 -0.262449 -6.86823e-20)
(0.998377 -0.0197723 0)
(0.987254 -0.0340001 -1.70174e-21)
(1.03915 -0.0172256 0)
(0.331524 -0.864753 -3.25988e-20)
(-0.0986095 0.0215935 -9.2307e-20)
(0.343648 -0.758055 1.70128e-20)
(0.997291 -0.0280538 -1.45084e-20)
(0.984838 -0.143089 -7.84479e-21)
(1.03395 -0.0132568 -2.72996e-23)
(1.03147 -0.0144197 1.12507e-22)
(1.03249 -0.000415673 -1.06004e-20)
(0.994493 -0.0921865 -7.46496e-21)
(0.964262 -0.218186 -1.8335e-20)
(-0.132227 0.0647596 -1.31888e-23)
(0.917481 -0.13615 1.35733e-20)
(1.00706 -0.0192477 0)
(0.939233 -0.472897 -6.69543e-22)
(0.670665 -0.920055 -1.72301e-20)
(0.83632 -0.216209 1.12181e-21)
(1.00641 -0.0192852 2.3581e-21)
(-0.0841358 0.0188846 -1.17646e-19)
(-0.131534 -0.0514298 0)
(1.00426 -0.0279622 7.43252e-21)
(-0.16261 -0.0427426 -9.01861e-20)
(1.30941 -0.288267 -6.27062e-20)
(1.17458 -0.0160288 0)
(0.98448 -0.139009 0)
(0.999661 -0.00831069 0)
(1.01415 -0.0946488 -1.36432e-21)
(1.13982 -0.30523 0)
(-0.133279 -0.0405084 -1.03626e-19)
(1.01636 0.124862 -1.62461e-20)
(1.04385 -0.0367269 -7.75977e-22)
(-0.102872 0.0607502 -3.11114e-20)
(-0.241416 -0.0231823 6.70048e-20)
(-0.273234 -0.0513374 -7.17611e-20)
(1.06306 -0.0163136 1.78344e-21)
(-0.231049 -0.0509484 0)
(1.27297 -0.22184 -2.48079e-21)
(-0.266219 -0.0492454 0)
(0.832222 -0.250501 0)
(0.245592 -0.0822041 -6.70816e-20)
(1.04021 -0.0197334 0)
(-0.230296 -0.0529422 1.38767e-19)
(0.398153 0.00719682 0)
(1.22199 -0.0482532 0)
(1.0151 -0.0513788 0)
(1.05042 -0.00897419 0)
(1.03245 -0.130744 9.58873e-22)
(1.34475 -0.0470048 0)
(1.03343 -0.0523525 1.77619e-21)
(1.28704 -0.123353 1.02643e-19)
(1.00653 -0.0737212 0)
(1.13933 -0.487331 2.15404e-20)
(1.11717 -0.0650415 0)
(-0.265512 -0.049219 0)
(-0.171304 0.0125614 6.16e-20)
(1.03268 -0.0204405 -8.05543e-22)
(1.31848 -0.263473 0)
(1.05267 -0.26096 9.0043e-21)
(1.27082 -0.0544489 -1.06164e-19)
(1.2252 -0.163238 0)
(-0.0876614 0.0222886 4.05099e-20)
(0.999731 -0.0244326 -6.18085e-21)
(1.19163 -0.287338 0)
(0.68695 -0.243256 2.81417e-20)
(1.28144 -0.286681 -9.95502e-20)
(0.0775037 -0.0476551 0)
(0.995591 -0.0420211 0)
(0.199671 -0.0540606 -9.0415e-20)
(0.123034 0.0992547 -2.27135e-20)
(0.992257 -0.0279913 -1.05887e-20)
(0.138922 -0.0356142 -8.72102e-20)
(1.22721 -0.287252 -3.7395e-20)
(1.01283 -0.00313495 8.34024e-24)
(0.0478752 0.0692167 0)
(-0.224356 -0.0182404 -1.62991e-20)
(1.02466 -0.0659624 -4.06057e-23)
(1.11645 -0.156823 0)
(-0.114747 -0.0410274 2.41339e-22)
(0.991929 -0.0274775 -6.5719e-21)
(0.0707956 -0.04701 -9.37781e-20)
(0.995626 -0.0458526 -1.15097e-20)
(0.998356 -0.0310094 -8.01033e-21)
(0.987778 -0.0328647 1.72194e-21)
(1.13868 -0.0502818 -4.27994e-20)
(1.00661 -0.0190708 0)
(1.03253 -0.0022243 7.0864e-21)
(-0.182216 0.00726212 4.79964e-20)
(0.999952 -0.000441482 -1.11498e-20)
(1.08263 -0.0679519 -2.02355e-20)
(1.05678 -0.0300283 1.04136e-20)
(0.507282 0.0927444 6.04323e-20)
(0.870775 -0.184963 0)
(0.999355 -0.0240621 8.28852e-22)
(1.03779 -0.0190606 -9.54581e-22)
(0.0759791 -0.0448297 -6.39093e-20)
(1.01375 -0.0575476 0)
(0.626654 -0.663524 3.96061e-20)
(0.1535 -0.489816 0)
(1.01929 -0.153557 7.32789e-23)
(0.805511 0.0528314 -3.10226e-20)
(0.995324 -0.0908259 1.22994e-20)
(1.12297 -0.0203969 4.16479e-20)
(0.449166 -0.0939997 -2.64194e-20)
(1.23147 0.105893 0)
(0.90691 -0.101243 -3.70668e-20)
(1.00487 -0.03324 0)
(1.01713 -0.149546 3.4546e-22)
(1.08234 -0.118151 0)
(1.33938 -0.188992 0)
(1.06912 -0.004357 0)
(1.00451 -0.0182593 0)
(1.18816 -0.030875 -3.87544e-20)
(0.99949 -0.00281551 8.17479e-21)
(-0.247727 -0.0374288 1.75718e-23)
(1.10357 -0.214633 -3.07239e-20)
(1.01151 -0.056284 0)
(1.00128 -0.0146457 -4.96704e-23)
(1.09746 -0.0879434 3.32173e-20)
(1.05319 -0.12543 -5.29462e-21)
(0.179409 -0.512337 0)
(0.982362 -0.0276033 -1.88484e-20)
(1.01984 -0.0111833 -6.73468e-22)
(0.161811 -0.3838 0)
(0.999767 -0.0339355 -4.53349e-22)
(1.34983 -0.115426 -5.29078e-20)
(1.0852 -0.360922 -1.57389e-19)
(1.02044 -0.126147 1.11913e-21)
(-0.0644608 0.0220033 7.16862e-20)
(0.999776 -0.00809473 0)
(-0.21476 -0.0542495 0)
(0.999856 -0.0105667 -6.61887e-21)
(1.22419 -0.170426 -1.23444e-20)
(0.659185 -0.65675 -1.01418e-20)
(1.23189 0.109705 5.6216e-20)
(1.15352 -0.0839596 0)
(1.00695 -0.00573343 -4.67242e-22)
(1.21915 -0.172001 4.13479e-20)
(1.06929 -0.0217405 8.07903e-21)
(-0.184884 -0.0478155 -1.26386e-19)
(-0.250488 -0.0251893 -1.08078e-19)
(1.13364 -0.495075 -5.06613e-20)
(1.21429 -0.375689 6.28776e-20)
(1.18144 -0.111217 0)
(1.00189 -0.0751784 4.30185e-21)
(1.0198 -0.0958485 6.72659e-22)
(-0.230803 -0.0534657 -9.37019e-20)
(-0.270124 -0.0524301 4.67351e-20)
(1.0041 -0.0317399 0)
(0.293557 0.112741 2.25157e-20)
(0.969507 0.122237 -2.20954e-20)
(1.0203 -0.0118331 6.99144e-22)
(0.702421 -0.194033 0)
(1.35408 -0.0359174 -1.33282e-20)
(1.18366 -0.134 4.97295e-20)
(1.03789 -0.0199347 -3.97458e-21)
(-0.269708 -0.0552857 0)
(0.176022 0.100575 -1.50464e-20)
(-0.227353 -0.0532238 1.02361e-19)
(0.00649793 -0.0470034 0)
(0.198644 0.0193881 -4.54279e-20)
(-0.283203 -0.0434523 1.0907e-19)
(1.18203 -0.114927 1.17739e-20)
(1.00407 -0.00547041 1.21029e-21)
(0.907364 -0.0545831 2.52746e-20)
(1.11379 -0.152872 1.04603e-20)
(1.00057 -0.0252093 5.73454e-21)
(1.02337 -0.0668614 0)
(-0.136524 -0.0517317 -1.28268e-19)
(1.06539 -0.000747469 -1.25426e-20)
(1.17417 -0.186814 -3.31876e-20)
(-0.265581 -0.0416715 0)
(0.669025 -0.618082 0)
(-0.138706 0.0313619 -3.90311e-20)
(0.851561 -0.158504 1.40163e-20)
(0.964459 -0.160102 -7.78138e-20)
(1.23724 -0.251325 -8.87158e-20)
(1.18231 -0.231069 0)
(1.00002 -0.000213904 3.59337e-21)
(-0.166979 -0.0425948 0)
(1.00782 -0.000677037 4.0261e-24)
(0.451578 -0.0174826 -2.05991e-20)
(0.934216 -0.347089 -6.17263e-20)
(1.00037 -0.00521353 0)
(1.21298 0.0299327 1.46918e-20)
(0.986327 -0.038324 -2.28913e-20)
(0.708981 -0.0966382 1.26828e-19)
(-0.249274 -0.0239963 9.29674e-20)
(1.02825 -0.561385 0)
(1.21518 -0.388485 2.03594e-21)
(1.03218 -0.00607148 0)