/*--------------------------------*- C++ -*----------------------------------*\
| =========                 |                                                 |
| \\      /  F ield         | OpenFOAM: The Open Source CFD Toolbox           |
|  \\    /   O peration     | Version:  v2012                                 |
|   \\  /    A nd           | Website:  www.openfoam.com                      |
|    \\/     M anipulation  |                                                 |
\*---------------------------------------------------------------------------*/
FoamFile
{
    version     2.0;
    format      ascii;
    class       volVectorField;
    location    "150";
    object      ddtCorrDdt0(U);
}
// * * * * * * * * * * * * * * * * * * * * * * * * * * * * * * * * * * * * * //

dimensions      [0 1 -2 0 0 0 0];


internalField   nonuniform List<vector> 
33474
(
(-5.71005e-08 -7.35185e-06 0)
(1.89292e-06 -2.15247e-06 0)
(0.00626629 -0.000593273 0)
(1.54595e-05 3.81972e-05 -1.04667e-21)
(-3.86847e-06 1.74934e-06 -3.2452e-22)
(0.000503849 -0.000145524 0)
(4.43537e-05 -7.52117e-06 1.30869e-21)
(8.14611e-07 2.34048e-06 7.28268e-22)
(8.27935e-07 2.58783e-06 0)
(4.41634e-07 1.18265e-06 0)
(3.49017e-05 3.1716e-05 0)
(2.12062e-06 1.69336e-07 -1.0494e-21)
(1.07424e-06 1.05637e-06 -7.24963e-22)
(1.82627e-06 -2.33776e-06 -2.42728e-22)
(0.000328016 0.000131731 3.1855e-22)
(-0.000163688 0.000266507 -1.32692e-22)
(-1.65949e-07 -2.40327e-06 8.26904e-22)
(-4.69341e-05 9.89893e-06 0)
(0.0153257 -0.0024776 0)
(-6.33884e-07 -2.17038e-06 0)
(1.35224e-06 -9.94818e-07 -1.46127e-22)
(-4.50394e-06 -6.10343e-06 2.1698e-21)
(-8.31877e-06 -7.344e-06 -7.33506e-22)
(-0.00319571 -0.00128085 2.20408e-22)
(6.70887e-05 -0.000379598 1.34743e-21)
(-4.49088e-06 -6.44602e-06 0)
(-2.55462e-05 3.91905e-05 -1.47898e-21)
(-0.00273305 -0.00147772 0)
(-0.00565477 -0.00230401 0)
(-8.86532e-06 -5.09941e-06 -1.09405e-21)
(6.55415e-06 6.95931e-06 0)
(5.35897e-06 -3.18517e-06 2.47312e-23)
(-0.000136821 -0.00023637 0)
(7.46621e-06 0.00017933 -1.19036e-21)
(-0.000229666 -0.000222575 0)
(0.000132489 -0.000237889 2.77542e-22)
(-3.1773e-06 -1.13935e-05 0)
(-5.80797e-07 3.48729e-06 0)
(-6.44146e-06 9.84725e-07 -8.46737e-22)
(-0.00569438 0.00371266 7.86791e-22)
(-1.40318e-07 2.06202e-08 0)
(0.000578954 -2.68535e-06 9.37633e-22)
(-6.60944e-05 0.00153781 -1.7051e-21)
(4.35801e-08 8.29138e-07 -8.90868e-22)
(0.00182262 -0.00373821 8.49307e-22)
(0.0415882 0.000802117 5.56084e-22)
(-1.10555e-07 6.05127e-07 1.86374e-21)
(2.74918e-05 -0.000259923 0)
(2.9261e-05 -3.32462e-06 2.57093e-21)
(4.68211e-05 -0.000469576 -2.23944e-21)
(1.54959e-05 3.62369e-05 0)
(-2.02593e-06 -7.03516e-06 -2.15033e-21)
(0.000113461 -0.000436794 -1.16126e-21)
(0.00141426 0.00128216 -4.54959e-22)
(-3.66362e-06 2.27229e-06 5.6564e-22)
(0.000186392 -0.000525321 -7.55423e-22)
(-2.14422e-06 -6.14292e-06 0)
(1.33832e-05 7.55729e-06 0)
(-0.00381092 -0.000134644 6.89261e-22)
(-0.00804282 -0.000984966 -8.02925e-22)
(6.60257e-06 8.52625e-06 -1.94146e-21)
(-0.000178159 0.000158542 -6.76007e-22)
(-0.00536902 -0.000909432 0)
(-6.2478e-06 2.95703e-05 0)
(-1.8933e-08 -7.58427e-06 -1.26663e-21)
(-1.79317e-06 -6.0784e-06 0)
(-0.00518191 -0.0227368 -1.19255e-22)
(-0.000262918 -0.00412002 0)
(6.91769e-06 9.07837e-06 3.66826e-21)
(-0.00549415 0.0043497 1.04141e-21)
(4.33922e-05 6.62554e-05 0)
(0.000197047 -0.000158802 2.58319e-22)
(-6.75726e-08 6.30591e-07 0)
(1.83602e-05 5.34418e-05 1.17607e-21)
(2.20365e-06 -1.03306e-06 0)
(-2.16665e-05 -2.70721e-05 0)
(-8.41072e-06 -3.31188e-06 -1.64157e-21)
(1.16499e-06 6.33818e-07 1.21248e-21)
(-4.07929e-06 2.16823e-06 2.66655e-21)
(-0.000483516 0.000104473 -1.80739e-21)
(-0.00706285 -0.00125999 -2.56902e-24)
(-3.88312e-06 -7.57672e-06 0)
(0.000437123 2.36314e-05 -2.01464e-22)
(-4.39629e-06 -4.92656e-06 -5.12775e-22)
(-1.49898e-05 -2.23956e-05 0)
(-0.00562727 -0.00219338 -4.39358e-22)
(-0.00137428 0.00163859 -3.74096e-21)
(-0.00243015 -0.000341784 0)
(0.012179 0.00020336 3.90381e-21)
(7.59286e-05 0.000106393 -1.76998e-21)
(0.000169386 -0.000253118 0)
(1.38526e-06 -2.074e-06 -1.42401e-22)
(8.69389e-05 -5.48927e-05 9.2962e-23)
(1.29062e-06 5.08598e-07 0)
(-1.44131e-05 -1.1096e-05 0)
(-1.95176e-06 -7.64986e-06 1.23848e-21)
(1.39401e-06 -9.46144e-07 -1.06356e-21)
(-3.50584e-06 1.45759e-06 -2.10823e-21)
(2.83783e-06 -4.77019e-07 0)
(0.00312869 0.00252393 -1.23874e-21)
(5.11138e-07 1.42886e-06 0)
(0.000160621 -0.000319732 0)
(0.00485346 0.00488155 -2.67869e-21)
(-4.84833e-06 -6.42343e-06 -1.37507e-21)
(0.00499097 -0.00367783 0)
(0.00643457 0.00745998 0)
(-0.0106266 -0.00869343 0)
(9.73384e-07 -1.85445e-07 -1.8492e-21)
(3.16749e-05 1.4721e-05 1.60512e-23)
(0.000766478 -0.000302388 -6.44772e-21)
(-4.34489e-06 0.000329566 0)
(-6.37755e-06 -2.04457e-05 0)
(0.00160163 0.00135536 0)
(1.64946e-05 -0.000182 3.99075e-21)
(7.35475e-05 -5.51685e-05 2.06309e-23)
(0.00484084 -0.00809818 -9.58605e-23)
(-3.67396e-07 2.25879e-06 1.54474e-21)
(-3.52326e-06 -7.20481e-06 0)
(-6.79577e-06 2.79606e-05 0)
(-1.94772e-07 4.08825e-07 2.89398e-22)
(-1.20336e-05 1.24331e-05 -1.37953e-21)
(8.52182e-05 -0.000182175 -3.84743e-21)
(-1.00319e-05 2.96695e-05 -2.46581e-21)
(3.01169e-05 1.56214e-05 3.73785e-21)
(0.00170615 -0.000874306 -3.64679e-21)
(-0.00571275 -0.000618342 0)
(0.0001088 6.77783e-05 0)
(1.99144e-05 0.000122235 0)
(0.000393475 3.56592e-05 2.06346e-22)
(0.00403643 0.00652934 0)
(-0.00113775 0.00517289 0)
(0.00370588 0.00010998 -5.9894e-22)
(0.0621892 0.0287313 0)
(3.78537e-05 2.74831e-05 -2.86288e-22)
(-8.3641e-06 -3.75829e-06 0)
(-7.53047e-06 -3.01399e-06 2.66197e-21)
(9.99824e-07 -2.25611e-07 2.39666e-21)
(-6.16094e-06 -3.97178e-06 0)
(-1.58118e-05 -9.4294e-06 -1.78766e-21)
(1.01506e-06 -1.58518e-06 5.0511e-22)
(-0.00500846 -0.00218993 -1.63944e-21)
(-0.00750295 0.00955776 0)
(1.2548e-05 -3.1465e-05 1.64944e-22)
(1.74332e-06 1.06869e-06 1.62189e-21)
(0.000455017 0.000676821 2.8751e-22)
(5.07193e-05 0.000211425 -5.79751e-22)
(0.00183353 -0.00640384 0)
(6.96976e-08 7.4889e-07 -6.18422e-22)
(7.64215e-05 0.00043342 0)
(-0.000595727 -0.000601235 0)
(-2.53008e-07 -7.21838e-06 -2.6325e-21)
(-7.86534e-06 -8.14994e-06 3.02604e-21)
(-2.69728e-05 4.06291e-05 2.01189e-21)
(1.29913e-06 -1.33315e-06 2.34417e-21)
(8.67101e-05 -0.000162324 2.38269e-21)
(8.30278e-07 1.14213e-06 -1.88497e-23)
(-0.00552857 -0.00275701 -2.17847e-21)
(-2.49252e-05 1.96369e-05 -5.69088e-22)
(7.30399e-05 -2.53514e-05 6.37285e-22)
(0.000586921 3.15016e-06 1.97479e-22)
(-7.34074e-07 -6.18483e-06 1.91711e-22)
(1.30699e-05 -3.38605e-05 -1.63293e-22)
(0.00727104 -0.00165945 0)
(-1.31521e-05 1.21805e-05 -1.14502e-21)
(0.00468644 0.00503686 2.42209e-21)
(0.000129609 -0.000188494 1.6461e-21)
(2.58225e-06 -5.2811e-07 -2.39029e-21)
(-0.000114937 -2.16009e-05 2.49479e-21)
(1.70243e-07 -7.44799e-06 2.48638e-21)
(1.40814e-06 2.1349e-06 -1.27152e-22)
(0.000102712 7.58944e-05 0)
(1.00133e-06 -3.38314e-06 -8.86882e-22)
(1.41918e-06 2.12466e-06 1.32721e-21)
(0.00602982 -0.00439036 -1.43112e-21)
(4.00752e-06 -6.41905e-06 1.91423e-21)
(5.03175e-07 2.17552e-05 -1.40659e-21)
(-0.00474781 -0.00296636 0)
(-7.94735e-06 -5.5837e-06 0)
(-0.00814167 0.0103754 -2.82621e-21)
(-7.5961e-05 0.000227801 -3.89724e-24)
(2.96606e-07 1.43612e-06 0)
(3.02067e-05 0.000128221 0)
(-7.21282e-06 -8.18581e-06 -4.05393e-21)
(0.00402642 0.00743019 2.9731e-21)
(1.95383e-06 -2.30155e-06 8.09149e-22)
(0.000577901 0.000385125 0)
(1.14899e-05 3.24215e-05 -1.09894e-21)
(-0.00492432 -0.00247823 0)
(0.00211345 -0.00138626 -4.0763e-22)
(1.39119e-06 1.77843e-06 -1.8432e-22)
(7.14459e-08 9.35688e-06 0)
(-0.00395813 0.0143646 2.91431e-21)
(2.12381e-06 -8.36457e-07 0)
(0.000535412 0.000407121 0)
(0.00865629 -0.00130545 0)
(-0.000492021 5.44773e-05 0)
(7.98243e-07 -6.75243e-06 3.05145e-24)
(1.89826e-05 1.47964e-05 1.10589e-21)
(0.000579984 2.72964e-06 3.1844e-22)
(-1.14628e-05 -1.03597e-05 9.04395e-22)
(-7.26708e-06 -2.51779e-06 -2.65492e-21)
(0.00372068 -0.00139274 3.69847e-23)
(9.83254e-05 -0.000189433 -1.57633e-21)
(3.81806e-06 -6.54733e-06 0)
(1.13556e-06 -1.64066e-06 -5.4724e-22)
(1.37806e-06 1.8366e-06 3.01896e-21)
(0.0278469 -0.0120664 0)
(0.000396028 -7.35858e-05 -8.80911e-22)
(0.000336886 0.000818374 -2.06494e-22)
(-0.010527 0.00032909 -1.82889e-21)
(7.72443e-05 9.75053e-05 -9.34714e-22)
(0.000368737 -0.000171425 0)
(1.3439e-05 -0.000129821 -1.88324e-21)
(-6.6961e-05 -9.57066e-06 4.21317e-21)
(9.4326e-07 -7.01389e-07 0)
(-0.013892 -0.0137219 1.37898e-21)
(1.50989e-06 7.85312e-07 0)
(0.00172326 0.00520716 -1.56713e-21)
(0.000179775 -0.000141222 9.11584e-22)
(2.05838e-06 1.09768e-05 -4.93844e-22)
(-0.00947831 -2.80144e-05 2.03241e-23)
(1.24678e-06 -2.53924e-06 -1.3781e-21)
(3.084e-06 -2.12641e-06 5.73086e-22)
(1.25238e-05 0.000369069 0)
(0.000516732 0.00176599 0)
(2.32088e-05 -0.000104079 0)
(0.000296287 0.000116938 0)
(-7.7958e-07 -7.2672e-06 -2.08564e-21)
(0.00194658 0.00247841 6.01871e-22)
(0.00567 0.00723074 0)
(1.79393e-05 3.39532e-05 1.0242e-21)
(-0.000167498 0.00260309 -4.96283e-22)
(-1.7708e-06 3.36386e-06 1.62569e-21)
(-0.00519361 -0.00314426 1.8852e-21)
(-0.00438454 -0.00452835 4.77018e-22)
(2.63191e-07 -4.71027e-06 0)
(1.35297e-06 -6.66619e-07 1.29473e-21)
(0.00557801 -0.00430622 0)
(5.76713e-06 -2.88326e-06 3.5927e-22)
(-0.0075585 -0.00247838 -1.88562e-21)
(0.00147478 0.00523252 3.83145e-21)
(-0.00110702 -0.000988474 -4.84538e-21)
(9.03412e-07 5.85808e-06 0)
(9.85063e-07 -7.83155e-07 -1.04379e-21)
(-7.26693e-06 -8.46084e-06 8.62045e-22)
(0.00772411 -0.00564656 -2.11529e-21)
(6.22429e-05 -2.47669e-05 -7.82635e-22)
(1.03054e-06 -1.84226e-05 0)
(0.000574776 -6.61883e-05 2.62578e-21)
(1.69014e-05 3.92332e-05 1.10341e-21)
(0.0025537 0.00732227 5.91687e-21)
(-7.89228e-07 -4.02493e-06 0)
(0.000562931 -1.34656e-06 -9.34713e-22)
(0.00309598 0.00977221 8.93705e-21)
(0.00614013 0.00486596 6.69526e-21)
(8.93836e-07 -1.35924e-07 0)
(3.23952e-07 8.13971e-06 -1.84049e-21)
(-0.000161304 0.000167818 6.71864e-22)
(0.00325512 0.00600257 -1.92588e-24)
(3.83001e-05 2.11148e-05 4.93359e-22)
(1.08472e-05 1.30539e-05 2.50873e-21)
(-1.1425e-05 -8.48693e-06 -1.80994e-21)
(-2.71892e-07 1.35358e-06 0)
(-3.18943e-06 -3.28418e-06 -5.80167e-22)
(1.05951e-06 -1.89024e-08 -1.48466e-21)
(-2.08298e-05 -1.54572e-05 0)
(-0.0072369 -0.00253523 -1.35398e-21)
(-3.13857e-07 -1.90892e-06 0)
(1.79807e-05 5.07713e-05 0)
(0.000790525 -0.000263303 5.66862e-21)
(6.98647e-06 -7.43716e-06 -3.63311e-21)
(-7.14333e-05 0.00017003 -9.76048e-22)
(-6.47432e-06 -6.96026e-06 -1.9928e-21)
(-4.46737e-07 2.80867e-06 0)
(0.00723841 0.00154245 0)
(-6.54366e-06 -3.54625e-06 0)
(-0.00061157 0.000771844 0)
(-0.00779238 -0.00197702 -2.9245e-21)
(-8.75453e-06 4.7167e-07 -8.76354e-22)
(4.6645e-05 -8.74551e-06 -1.37312e-21)
(0.000434946 0.000637007 -2.61348e-22)
(-8.14367e-06 -2.17762e-07 -3.89889e-21)
(2.8489e-05 -5.1022e-06 -1.73422e-21)
(2.19407e-06 2.83727e-07 -2.20147e-24)
(5.19575e-06 -3.94146e-06 -3.75551e-21)
(4.35695e-07 8.12178e-06 3.48375e-22)
(9.25666e-07 -3.34082e-08 1.34219e-21)
(-0.000609268 -0.000960313 -6.7186e-22)
(-2.62745e-05 2.14414e-05 -1.04538e-21)
(6.50165e-06 -2.16678e-06 1.85894e-21)
(0.00871056 -0.00101176 -3.60636e-22)
(-4.89042e-07 -4.2703e-06 4.7913e-22)
(-5.81067e-08 -1.46133e-07 0)
(0.00701932 0.00109072 -1.09097e-21)
(0.00028802 2.5448e-05 9.48568e-22)
(0.0172349 -0.0123684 0)
(-6.70197e-08 7.24809e-06 0)
(0.000433799 -0.000114944 6.86263e-23)
(-0.00127379 0.00648604 -2.26032e-22)
(-0.0011154 -0.00125434 5.58414e-21)
(0.0293165 -0.0121961 0)
(-0.00868447 0.0100348 0)
(-0.0061675 -0.000818488 -6.30672e-22)
(-2.3551e-05 -3.88832e-05 4.10149e-22)
(0.00337805 8.15564e-05 0)
(-3.06972e-06 -1.01139e-05 0)
(-8.33969e-06 1.47246e-06 0)
(0.00132547 3.45099e-05 0)
(0.00236955 0.00548405 0)
(-5.77785e-06 -4.83387e-06 0)
(-8.62238e-05 0.000244758 4.04346e-21)
(-7.56757e-06 -2.59094e-07 -7.24378e-22)
(1.16845e-06 1.57475e-07 -2.1963e-21)
(-9.17846e-06 -7.55393e-07 3.38447e-21)
(-1.1453e-05 -9.50954e-07 -2.47432e-21)
(-0.0145896 -0.0239141 0)
(-6.88926e-07 2.4279e-06 -2.00609e-21)
(-0.00551323 0.0116021 2.67359e-21)
(1.58135e-06 -1.2923e-05 -8.95275e-22)
(-0.00598369 0.00398383 0)
(-3.03494e-06 -2.90094e-06 -1.12468e-21)
(2.50156e-05 -1.89324e-05 1.25644e-21)
(-5.91238e-06 -3.11965e-06 0)
(0.000283989 0.000309501 0)
(-6.89318e-06 -4.36947e-06 -2.7642e-21)
(0.000454144 0.00079694 -8.63065e-22)
(1.35443e-06 -2.1885e-06 0)
(3.84315e-06 -1.19639e-05 0)
(7.77534e-07 1.19959e-06 7.17506e-22)
(-2.29111e-06 4.33499e-06 -1.14873e-22)
(-0.026071 -0.00871203 -2.68229e-21)
(2.40419e-05 -1.06069e-06 3.27728e-21)
(1.5665e-06 4.57296e-07 2.7328e-21)
(2.64782e-05 -2.15666e-05 -2.79948e-21)
(6.31111e-07 -4.87011e-06 1.31101e-21)
(-0.00503355 0.00954675 6.65334e-24)
(0.00192845 0.00248742 -8.25172e-22)
(1.38859e-06 -1.58691e-08 0)
(0.0247887 -0.00440764 -6.75231e-21)
(0.00137182 5.2676e-06 0)
(-2.0875e-07 2.80178e-06 -5.07519e-22)
(0.000494485 0.00170083 -1.05547e-21)
(-1.05464e-06 2.26668e-06 0)
(-1.50629e-06 7.36783e-06 0)
(-9.72453e-06 3.19188e-05 1.31911e-22)
(0.00455783 0.00908777 -7.97317e-21)
(2.31992e-05 -1.83184e-05 -2.15987e-21)
(-4.57075e-08 1.38668e-06 -4.56284e-22)
(0.000145113 -0.000184741 -1.7972e-21)
(-3.04186e-06 -9.87205e-06 4.654e-22)
(-1.19859e-06 2.5742e-06 1.89814e-22)
(-0.00130371 0.000696693 1.08367e-21)
(1.00563e-06 6.13537e-07 0)
(-0.00617397 0.00256038 6.31509e-22)
(0.00152696 -0.00131386 0)
(0.0104711 -0.000227148 -8.32519e-21)
(-0.00329755 0.00609121 -2.04214e-21)
(0.0183156 -0.00471629 -7.51776e-21)
(-2.37574e-05 9.22029e-05 1.50163e-21)
(1.24822e-06 3.55475e-07 -1.78271e-21)
(-0.00122241 -0.0012173 -1.24725e-21)
(8.79599e-08 -7.24313e-06 -1.48193e-21)
(-0.0052012 -0.00223273 -9.21051e-22)
(-6.78831e-07 2.60861e-06 0)
(-4.14423e-06 -7.83776e-06 0)
(0.00461067 0.00982866 3.58163e-21)
(8.85498e-07 -8.07904e-08 9.4267e-22)
(-7.21574e-05 -6.03828e-06 -1.05502e-21)
(6.5606e-10 -1.20595e-07 0)
(-7.33142e-05 0.00154728 -8.94316e-25)
(1.50355e-06 -9.41176e-07 0)
(7.29206e-05 -0.000158298 6.05633e-21)
(-0.00491917 -0.00205412 8.66796e-22)
(-6.22215e-06 -7.22017e-06 0)
(-4.82409e-06 -6.53352e-06 0)
(0.00364332 0.000210758 0)
(-0.00303733 0.00136 9.8597e-22)
(7.12616e-06 -6.0056e-06 0)
(-0.000761 -0.00155024 6.89948e-22)
(-5.58224e-07 -6.12633e-06 2.61747e-21)
(-0.00212455 6.18221e-05 0)
(0.000986858 -0.0131085 0)
(-3.48347e-06 -1.12372e-05 7.84958e-22)
(-1.32987e-07 5.80574e-08 8.85478e-22)
(-0.000545671 0.000666237 1.01082e-21)
(-0.000766299 -0.00108695 3.6236e-21)
(-8.10776e-06 -8.08826e-07 0)
(1.64261e-06 1.39055e-06 2.69362e-21)
(1.90571e-06 -1.32445e-05 0)
(-0.007684 -0.001309 2.33307e-21)
(0.00603298 0.00561177 -5.34564e-22)
(1.32476e-06 -7.70317e-07 1.83357e-21)
(2.74423e-05 -1.55022e-05 2.33368e-21)
(-0.000123229 0.00151773 1.85978e-21)
(5.72624e-06 -3.42508e-06 2.34106e-21)
(1.3264e-06 1.86145e-06 0)
(1.13939e-06 6.81222e-07 3.33126e-22)
(5.6325e-05 0.00023036 7.18251e-22)
(6.18702e-07 -2.77915e-06 0)
(2.38867e-05 -6.93594e-07 0)
(0.00919954 -0.00127419 0)
(-0.00300272 -0.0109493 0)
(-1.07433e-07 4.73434e-07 -1.27511e-21)
(0.000233404 -0.000882375 3.58485e-21)
(1.29479e-06 -7.90004e-07 -2.12159e-21)
(1.0948e-06 7.12498e-07 -1.41016e-21)
(0.000274225 3.30208e-05 -1.30483e-21)
(0.00476305 0.00330566 -9.82174e-22)
(-1.93084e-06 2.98338e-06 0)
(-6.2692e-08 1.50342e-06 -5.4404e-22)
(1.92987e-07 -4.35264e-06 0)
(-0.00382185 -0.000113797 -5.20465e-22)
(-2.09847e-07 2.76999e-06 0)
(0.00250263 0.000447197 2.23189e-21)
(5.34172e-05 0.000457699 0)
(-3.30513e-06 5.66102e-06 1.16484e-21)
(8.14173e-08 9.1568e-07 -1.92638e-21)
(-0.00730816 -0.000920516 1.59974e-21)
(-9.53299e-06 3.03844e-05 1.40903e-22)
(0.000964587 5.62408e-05 0)
(1.03651e-05 1.27735e-05 -2.38279e-21)
(0.00389081 0.00604011 0)
(0.000609141 -6.35198e-06 0)
(9.07459e-06 9.96666e-06 -1.21651e-21)
(0.00879636 -0.00265337 0)
(-5.00717e-06 -2.30476e-05 2.1342e-22)
(0.000645999 6.69654e-05 2.4559e-21)
(-0.00634606 -0.000935958 1.42782e-21)
(0.00362524 0.00274999 0)
(0.00661246 0.00214359 -1.14245e-21)
(-5.94987e-05 2.99538e-05 0)
(-0.00588639 0.00931677 -5.61009e-23)
(0.00163345 0.00132295 -1.98086e-21)
(4.52067e-07 1.66686e-07 9.17438e-22)
(1.35201e-06 -1.12434e-06 0)
(-3.40812e-07 2.45268e-06 -1.26646e-21)
(-3.37234e-06 -7.48113e-06 0)
(-8.14769e-08 -2.36019e-06 0)
(-7.55272e-07 -3.83088e-06 4.87547e-22)
(2.22691e-06 6.22517e-05 -5.78367e-22)
(3.2681e-05 -0.000274018 -3.36559e-21)
(-1.8279e-07 1.29992e-06 0)
(1.52942e-06 3.18746e-06 0)
(1.03284e-06 -4.74079e-07 0)
(-0.00414922 0.00175056 7.41485e-21)
(0.00635857 -0.00586402 -2.06292e-21)
(2.87984e-06 7.754e-06 0)
(-2.5529e-05 4.66886e-05 4.56559e-21)
(-8.10485e-07 4.67139e-06 -1.06391e-21)
(-8.36293e-06 -7.5088e-06 1.19272e-21)
(3.64673e-06 -6.80977e-06 -4.38588e-22)
(0.00906558 -0.00329984 0)
(-7.79306e-05 0.000159149 5.64447e-22)
(-5.30649e-06 -5.3962e-06 0)
(-0.00613361 0.000207652 9.35743e-22)
(1.21066e-06 -2.92037e-06 -6.23896e-22)
(9.68724e-07 -7.36556e-07 0)
(3.42689e-06 -6.79788e-06 -1.26042e-21)
(0.00153962 0.00804947 -6.11276e-21)
(0.0017464 -0.000232081 -3.12093e-21)
(-0.0108116 0.00545017 1.01694e-22)
(-0.00179926 -0.00835557 1.82028e-21)
(0.0082273 -0.0019736 0)
(0.000513628 1.25343e-05 3.2229e-22)
(-0.00109411 -0.000344474 0)
(-0.00151052 0.0123992 2.0946e-22)
(-8.21762e-07 -4.50512e-06 -4.39667e-21)
(0.00583553 0.00620385 4.45295e-21)
(1.46022e-06 4.25768e-08 0)
(-5.84607e-07 5.45365e-07 -1.18889e-21)
(-0.00620114 0.00277424 1.27702e-21)
(1.40412e-06 1.66379e-06 1.85618e-22)
(0.000990536 7.38039e-05 0)
(-0.0033332 0.000443303 0)
(0.00270185 0.00652212 0)
(-1.20685e-06 -0.000373171 2.42373e-21)
(2.27416e-05 7.22367e-06 1.61886e-21)
(-4.09273e-06 -1.14196e-05 2.10651e-24)
(0.000347868 0.000196004 4.53308e-21)
(-0.000250772 -2.29569e-05 0)
(0.00443921 -0.00214978 1.91232e-21)
(4.7044e-07 -2.72833e-07 9.49088e-22)
(0.00562725 0.00243065 -2.13257e-21)
(-0.0170809 0.0150159 -5.60117e-21)
(-1.57783e-05 8.98807e-05 0)
(-0.00818304 -0.00219474 1.46633e-21)
(-0.00464075 0.00182332 -3.47071e-21)
(3.24131e-07 -4.27932e-06 0)
(-0.000588299 -0.00297818 7.63773e-23)
(2.62942e-05 4.83446e-06 -1.42475e-21)
(1.57532e-06 2.76377e-06 -4.42598e-22)
(-1.11645e-05 -6.05513e-07 2.99514e-21)
(-0.0131864 -0.0272319 2.07661e-21)
(-3.88801e-07 -4.15796e-06 -4.88029e-22)
(1.24116e-07 1.6117e-06 6.3016e-22)
(-2.03872e-05 1.43005e-05 2.85022e-21)
(-1.03418e-05 1.33103e-06 0)
(-4.03272e-06 -5.51288e-06 6.98774e-22)
(0.00303639 0.000275461 0)
(-5.57336e-05 3.14961e-05 -8.48596e-22)
(0.00841862 -0.0037266 0)
(9.66821e-07 5.89775e-06 -1.17251e-21)
(-5.89202e-07 -1.78517e-06 0)
(0.00495597 -0.00377599 -4.50918e-22)
(0.00170845 -0.000357645 2.11218e-21)
(-0.000563641 -0.00198502 0)
(-0.0024843 -0.00545017 -7.16229e-21)
(0.00058329 0.000202194 -1.82079e-21)
(0.000212249 2.8322e-05 4.48465e-22)
(-0.0063564 0.00235063 -2.24423e-22)
(-0.00738984 0.0382196 -1.60342e-21)
(-8.4665e-06 -3.73053e-05 3.75171e-22)
(1.06877e-06 -3.1288e-06 -3.28973e-22)
(-6.2738e-07 3.06172e-06 2.26798e-21)
(-7.39082e-06 -0.000172506 -1.91128e-21)
(-0.0094469 -0.000944522 -1.65082e-21)
(-4.23374e-06 -2.37645e-06 1.27417e-21)
(0.00899817 -0.00316444 0)
(0.00854552 -0.00375912 -2.33545e-22)
(1.15466e-06 8.82389e-07 0)
(6.11564e-06 -8.79248e-06 0)
(1.28977e-06 -2.14912e-06 6.6859e-26)
(0.0028935 0.0102362 -2.19025e-21)
(0.000265275 3.80948e-05 0)
(0.000100272 -7.75528e-05 0)
(-0.000880684 -0.000998677 -2.25604e-21)
(0.00101973 -0.000124094 -1.53105e-24)
(0.00271902 -0.00106104 -1.11989e-21)
(0.00413552 0.00356049 1.96976e-21)
(1.43379e-06 -1.07837e-06 0)
(-5.52505e-06 -5.83331e-06 0)
(0.000978525 -0.00356863 7.85504e-22)
(-0.000235945 -1.8192e-05 4.80999e-23)
(-0.0447756 0.0407225 -3.45363e-20)
(-3.07234e-06 -9.4813e-06 -1.39232e-21)
(0.0156673 -0.00306501 0)
(-2.43933e-06 -4.28267e-06 0)
(0.00962228 -0.0025378 0)
(-0.00538314 0.000745407 1.54447e-21)
(-8.32873e-07 8.36205e-07 1.20088e-21)
(0.0185428 -0.00537798 7.30728e-21)
(-8.27471e-05 0.00141669 -1.51066e-21)
(-0.000549998 0.000455836 -1.66161e-21)
(1.00194e-06 -3.95942e-07 1.44334e-21)
(0.000759525 -0.000422172 -2.67408e-21)
(0.000426595 -9.18985e-07 0)
(-0.00261893 0.00058641 1.31905e-22)
(1.40395e-06 -2.69697e-07 7.82736e-22)
(0.000238836 0.000154586 1.58669e-21)
(0.00668049 0.00533852 -2.78674e-21)
(-3.39512e-06 5.2201e-06 -1.52707e-21)
(0.000213196 0.000670266 0)
(1.02571e-06 1.24176e-06 -1.01191e-21)
(-0.00327634 -0.00848451 0)
(1.28952e-06 1.55269e-06 2.45224e-21)
(2.02829e-05 3.53863e-05 -1.22906e-21)
(8.70923e-05 -0.000446571 0)
(1.67043e-06 -4.6103e-06 1.36819e-21)
(-2.98962e-06 -9.2501e-06 9.03478e-22)
(0.0138251 -0.0116312 -4.94344e-22)
(2.67738e-07 -3.54834e-07 9.62881e-22)
(-3.09536e-06 6.36312e-07 -6.80713e-22)
(-3.08759e-07 -1.97857e-07 0)
(9.32267e-08 -3.16996e-06 1.29843e-24)
(-5.06422e-06 -5.35624e-06 1.0469e-21)
(1.39525e-06 3.60365e-06 -1.93687e-21)
(0.00113818 0.00176446 0)
(2.91562e-06 2.54835e-06 -2.659e-21)
(0.000966636 -0.00179883 0)
(0.000160561 4.25349e-05 0)
(4.04806e-05 0.000189209 0)
(-4.32075e-06 -5.22794e-06 -7.57426e-22)
(9.44893e-06 -0.00043819 9.27638e-22)
(1.8152e-06 -2.38801e-06 0)
(0.0214626 -0.0106186 1.90971e-22)
(1.25736e-06 -5.30185e-08 0)
(-3.73686e-06 -3.37236e-06 -5.51041e-22)
(0.0142053 -0.0124085 0)
(5.35494e-06 -5.298e-06 0)
(-2.75695e-06 -4.15632e-06 0)
(3.21035e-08 1.23604e-07 -1.07709e-21)
(4.4406e-05 3.5503e-05 8.99081e-22)
(-0.00192014 -0.00226146 2.18855e-21)
(-0.00308087 0.00158828 0)
(5.24441e-06 -9.57638e-06 7.41124e-22)
(-3.91141e-08 8.12378e-07 -4.806e-25)
(-0.00297543 -0.00544964 1.45191e-22)
(-0.00170446 0.00586228 1.19153e-21)
(-3.27178e-06 -4.40251e-06 -2.44149e-21)
(-1.84201e-06 3.18295e-06 0)
(-3.27027e-06 1.04049e-06 0)
(0.000350115 -7.74468e-05 0)
(0.0132267 -0.000376174 3.72422e-21)
(-9.65918e-07 7.92531e-07 -6.92713e-22)
(-3.17914e-07 4.63963e-07 -2.44091e-21)
(1.04783e-06 8.50675e-06 9.90169e-22)
(-5.84949e-07 -4.00076e-06 -8.73038e-22)
(1.37227e-06 -8.02836e-07 8.48637e-22)
(-0.00193527 -0.0092207 -1.0335e-21)
(1.36276e-05 3.53577e-05 0)
(-0.00310501 0.0127457 4.15422e-21)
(-6.51945e-06 -3.93622e-06 2.77574e-21)
(1.41507e-06 8.37422e-07 0)
(1.28302e-06 -9.32197e-07 -1.25809e-21)
(-0.00163265 -0.00858005 -1.41419e-21)
(-2.60211e-06 -1.09027e-05 7.70373e-22)
(-0.000822522 -0.00206909 0)
(-6.22849e-06 -4.37397e-06 0)
(0.00122379 -0.00314816 6.52579e-22)
(7.26739e-06 -6.30562e-06 7.36744e-22)
(2.94771e-05 -0.000111193 2.06047e-21)
(-1.13331e-05 3.07065e-05 2.40159e-21)
(0.00135805 -0.000818681 1.83728e-21)
(2.32287e-08 1.32438e-07 2.04807e-21)
(1.31805e-05 7.7411e-06 8.38635e-22)
(0.000146391 4.12895e-05 -1.95943e-22)
(0.00102227 -9.56481e-05 0)
(-0.000269406 0.00105792 5.94934e-21)
(1.32572e-06 2.38704e-06 0)
(-4.28151e-06 -4.31414e-06 6.55513e-22)
(-0.000135452 -0.000126681 0)
(0.00286055 0.000901671 1.69407e-21)
(-7.73202e-05 -0.000159162 0)
(0.00352573 0.00215141 -1.96099e-22)
(0.00175265 0.00987485 -2.14783e-21)
(-3.02606e-05 8.62915e-06 0)
(3.28631e-05 7.99e-05 0)
(-1.54132e-07 -1.5569e-06 -1.07351e-21)
(5.05571e-05 -7.63216e-05 1.10335e-21)
(-1.62724e-06 -4.05026e-06 0)
(1.35471e-06 -2.48615e-06 1.29715e-21)
(0.000189311 -3.53687e-05 9.60991e-22)
(-1.94724e-06 6.13832e-06 0)
(0.00129642 -0.000619535 -1.50875e-21)
(-0.0026507 0.0137637 -2.31577e-21)
(0.00173578 -0.0022951 3.19892e-22)
(1.74046e-06 -5.22191e-07 0)
(-0.00654331 0.0194365 -9.82208e-22)
(-0.00844132 0.00980815 -4.82743e-22)
(-0.00140313 0.00473189 1.76087e-21)
(0.00323972 0.00679761 0)
(2.23978e-05 3.10559e-05 1.99628e-21)
(0.000332803 9.79827e-05 1.61813e-21)
(0.000132321 -4.58214e-05 0)
(-0.00560142 0.0130167 -2.33927e-21)
(0.000450841 -0.000164029 1.13211e-21)
(0.000159045 0.000562967 -1.77535e-21)
(4.24759e-07 -2.81982e-06 3.3312e-21)
(-0.00011856 8.43457e-05 0)
(-1.25169e-07 1.43036e-06 -2.09212e-25)
(0.000415172 -0.000125975 -3.47455e-22)
(6.78252e-07 -2.771e-06 -1.19129e-21)
(-0.00431634 0.0035464 0)
(-0.00122355 0.00157234 3.93329e-24)
(-9.23704e-07 1.03747e-06 7.50205e-23)
(-4.47187e-09 2.68842e-07 -2.04568e-21)
(1.60015e-06 2.30841e-06 -1.35018e-21)
(-3.18217e-05 8.38599e-06 -4.44586e-22)
(-0.000120271 -9.54588e-05 -2.21751e-23)
(5.55982e-05 -4.48707e-05 0)
(-7.60851e-06 -5.5382e-06 -1.61759e-21)
(-3.24925e-05 5.62204e-06 -2.59408e-21)
(0.00473396 0.00632636 2.12948e-21)
(4.47019e-06 -3.39519e-06 -1.52758e-21)
(-0.00648308 -0.00372174 7.47505e-22)
(1.47028e-06 -1.15094e-06 8.14628e-23)
(0.00151325 -0.00455336 -8.11795e-22)
(1.81228e-06 -3.51285e-06 3.10812e-22)
(0.00066602 0.00494152 -3.93015e-23)
(5.87924e-05 -4.61984e-05 1.2158e-23)
(0.00504603 0.0105605 0)
(-0.000378025 -0.00410745 -2.30053e-22)
(6.49373e-08 1.37042e-06 -3.27527e-25)
(0.00197942 5.26088e-05 2.62377e-21)
(-3.73401e-06 -7.76783e-06 1.28498e-21)
(1.21172e-06 1.62307e-06 -3.09275e-21)
(-0.00195418 -0.00751227 6.42943e-22)
(-7.769e-07 8.58055e-07 8.231e-22)
(1.40622e-06 -1.17059e-06 -7.26609e-22)
(1.39281e-06 2.20869e-06 7.80699e-22)
(1.15844e-06 7.37257e-07 0)
(0.000306241 -0.000596023 -3.83032e-21)
(-4.75276e-06 1.35625e-06 0)
(2.83282e-06 2.27387e-06 1.20333e-21)
(0.000267094 -0.000271033 0)
(-0.000131149 0.000161926 0)
(0.000158816 0.000105552 -4.71331e-21)
(-0.0204607 -0.0215428 9.03376e-22)
(0.000650356 0.00190049 1.92233e-21)
(-0.0050105 -0.00459911 2.25324e-22)
(0.00111058 -0.000953817 -1.11049e-24)
(0.00626002 0.00190564 6.48804e-21)
(0.0067466 -0.00221256 -3.10027e-21)
(-5.88287e-06 2.73591e-05 7.68838e-22)
(0.000200297 -8.38098e-05 1.00412e-21)
(1.78272e-06 -4.52442e-06 -1.32527e-21)
(-2.73226e-06 4.10354e-06 1.18079e-21)
(1.21144e-07 1.38463e-07 -1.27438e-21)
(-0.00801251 -0.000269845 -1.78731e-21)
(1.07209e-06 2.43441e-07 -2.74533e-21)
(0.00360607 0.00597015 2.04806e-21)
(-9.87364e-08 1.54495e-06 -3.28246e-23)
(0.000610199 -8.50758e-05 0)
(-0.0013185 0.00746213 -3.29883e-21)
(0.000219946 -0.000974076 -3.30566e-21)
(7.37938e-05 9.76087e-06 0)
(1.53981e-06 -1.60154e-07 0)
(-0.000227409 1.06903e-05 1.45809e-21)
(-0.00698688 -0.00152758 2.01492e-23)
(1.47252e-06 4.12749e-06 1.15459e-21)
(1.02044e-06 1.59587e-05 1.22435e-21)
(-9.60946e-06 1.30195e-06 0)
(-0.00117916 -0.00533772 -2.13615e-21)
(0.00624989 -0.00229959 1.85561e-21)
(-5.06191e-07 6.19697e-05 4.44794e-21)
(-0.00557678 -0.00443041 0)
(-1.19962e-05 -8.03628e-06 -3.35676e-21)
(-0.0139392 0.0048503 0)
(3.468e-05 0.000198681 1.17414e-21)
(-1.75484e-05 -7.19967e-07 -1.39536e-21)
(1.62141e-06 1.89454e-06 0)
(-5.93882e-06 -3.80282e-06 -3.82586e-22)
(-1.71266e-05 -1.35179e-05 0)
(-1.25954e-05 -5.52572e-07 0)
(1.26194e-06 -8.4707e-07 2.19917e-21)
(-4.50589e-06 1.52336e-06 0)
(1.53528e-06 4.46744e-07 2.21902e-23)
(-1.7507e-05 -1.49428e-05 0)
(-0.00326597 0.00323588 -4.78057e-21)
(1.38098e-06 -3.71996e-07 1.65139e-22)
(0.000488055 -3.16808e-05 8.96e-22)
(0.00271333 0.00105356 -1.54649e-21)
(3.08946e-06 -2.43975e-06 5.80664e-22)
(0.00362414 -0.00184236 2.3203e-21)
(-0.000334652 -8.64204e-05 0)
(-1.01311e-07 -9.26679e-08 0)
(-2.16335e-06 -3.15062e-06 -2.13451e-21)
(-6.55517e-07 -6.90384e-06 -1.94193e-21)
(-7.54457e-06 2.71408e-06 1.17167e-21)
(-0.00268793 0.00261321 0)
(0.000330199 -6.21534e-05 0)
(0.000604515 0.000236875 0)
(9.81816e-05 -5.41472e-05 0)
(0.00278156 0.0105297 3.92677e-21)
(-0.0226389 -0.017015 -3.51991e-22)
(0.000447107 0.00365534 0)
(0.00956684 -0.000887957 3.8279e-21)
(-0.00582304 -0.00139202 4.78334e-22)
(1.17999e-06 -2.90055e-07 -1.19789e-21)
(-3.41544e-06 -8.04275e-06 -1.15157e-21)
(0.00131405 0.00661161 -3.39021e-21)
(-0.000713429 0.00066503 -1.19227e-21)
(0.00172017 -0.000621432 0)
(4.50782e-05 -7.27688e-05 0)
(-0.000109541 -0.000275553 -3.49718e-21)
(1.23354e-06 1.45381e-06 1.37881e-21)
(3.52064e-06 -7.97743e-06 0)
(0.00194229 -0.00503927 -1.47543e-21)
(1.85704e-06 -2.4064e-06 7.5468e-22)
(-0.00195881 0.00469109 -1.66073e-21)
(1.53473e-06 -2.64707e-07 0)
(1.00824e-05 -3.03434e-05 0)
(0.000239083 0.00020147 -7.85973e-22)
(-0.000785304 0.000716848 6.8172e-23)
(1.2796e-06 -2.6504e-06 1.8119e-21)
(-0.0046423 -0.00353254 8.48365e-22)
(1.73928e-06 -7.49647e-07 0)
(2.25478e-06 -9.07485e-07 0)
(1.36135e-06 -6.48158e-07 -8.42578e-22)
(0.0133516 -0.00689006 1.94766e-21)
(-0.0119608 0.00562352 4.97834e-21)
(-3.45256e-06 -1.13191e-05 1.65411e-21)
(0.000128213 5.34847e-05 -6.34666e-23)
(0.00598656 -0.000190838 -2.99231e-23)
(2.91854e-06 1.57857e-05 -1.15928e-21)
(0.00312282 0.00563808 -3.55403e-22)
(1.30634e-05 6.85085e-06 -3.82978e-21)
(-0.000187891 -0.000498817 -3.6297e-21)
(5.42248e-05 6.3742e-05 0)
(-4.44268e-06 -2.338e-06 8.46095e-22)
(0.000903487 0.0111427 0)
(0.00215721 0.00554656 -4.10777e-21)
(0.00809545 -0.00232735 -1.54427e-21)
(-0.0306688 -0.013974 0)
(-5.99105e-05 7.95442e-06 0)
(2.23703e-05 3.63492e-05 3.05983e-21)
(1.01631e-06 6.95183e-07 -2.21159e-21)
(0.000357354 0.000218604 -4.17179e-21)
(0.000829534 3.20421e-05 0)
(-5.61092e-05 0.000146674 2.10104e-21)
(8.44645e-05 -0.000112563 -5.48038e-22)
(-4.70619e-07 3.1516e-06 0)
(-4.53237e-07 1.11312e-06 -3.5864e-22)
(-0.00800219 -0.000206215 1.80979e-21)
(-0.000203364 0.0010686 -6.0757e-21)
(0.000565937 5.14517e-06 0)
(0.00052237 -0.000125271 1.11891e-21)
(-0.000971854 -0.00879907 3.09331e-22)
(-0.00759939 0.00382849 1.70603e-21)
(0.0220194 -0.00975379 -8.43792e-22)
(-7.4011e-06 1.24915e-05 1.92163e-21)
(-1.68572e-05 -4.81118e-07 1.41399e-21)
(2.70291e-05 -3.10351e-07 2.60178e-22)
(-0.0010992 -0.00670828 0)
(0.000287291 0.000666963 1.09839e-21)
(0.00305608 -0.00343456 2.88313e-22)
(-1.35512e-07 2.01022e-06 -2.09116e-21)
(1.12487e-05 2.19868e-05 -3.10784e-21)
(-0.00727578 -0.00961599 -1.90713e-21)
(-0.00536816 0.0168622 2.54554e-21)
(-0.0113501 -0.00999292 2.8521e-22)
(1.2811e-06 1.41509e-06 -1.34393e-21)
(-0.000433043 -0.00497125 3.84076e-21)
(0.000316453 0.000262642 1.56837e-21)
(-1.56791e-05 -2.30877e-05 1.51162e-21)
(0.000153952 9.70201e-05 4.77275e-21)
(-0.000206852 1.11963e-05 1.23734e-21)
(-0.000242733 -0.000337269 -2.38234e-22)
(-7.03341e-06 3.04582e-05 0)
(-0.00087899 -0.0015451 0)
(0.000110089 -0.000171952 -1.01567e-21)
(1.77339e-06 5.37137e-07 0)
(0.000146785 -0.000504151 6.27908e-22)
(-4.84523e-07 -7.69997e-06 -7.49024e-22)
(-2.06451e-06 4.4853e-06 5.00413e-22)
(0.002154 -0.00410942 0)