/*--------------------------------*- C++ -*----------------------------------*\
| =========                 |                                                 |
| \\      /  F ield         | OpenFOAM: The Open Source CFD Toolbox           |
|  \\    /   O peration     | Version:  v2012                                 |
|   \\  /    A nd           | Website:  www.openfoam.com                      |
|    \\/     M anipulation  |                                                 |
\*---------------------------------------------------------------------------*/
FoamFile
{
    version     2.0;
    format      ascii;
    class       volScalarField;
    location    "150";
    object      epsilon;
}
// * * * * * * * * * * * * * * * * * * * * * * * * * * * * * * * * * * * * * //

dimensions      [0 2 -3 0 0 0 0];


internalField   nonuniform List<scalar> 
33474
(
3.44637e-06
2.33215e-06
0.114459
1.91698e-06
2.5452e-06
0.00319394
2.04388e-06
2.68609e-06
2.70182e-06
1.94491e-06
2.99344e-06
2.18289e-06
2.60288e-06
2.37461e-06
1.41198e-05
6.53514e-06
2.51786e-06
6.37115e-06
0.0575852
2.52631e-06
2.25356e-06
2.40632e-06
2.28037e-06
0.000107278
0.000170142
2.38459e-06
1.85595e-06
0.000107571
0.0221998
2.25527e-06
2.08455e-06
2.21973e-06
0.000145052
1.84222e-06
1.74464e-05
2.08481e-05
2.26609e-06
2.78763e-06
2.30478e-06
1.64147e-05
3.8794e-06
0.0203529
0.00255824
4.16792e-06
0.0351521
0.208032
4.07947e-06
1.74629e-05
2.051e-06
3.00458e-06
1.91793e-06
2.427e-06
0.000204563
0.0118625
2.55218e-06
0.000355481
2.45263e-06
2.05662e-06
0.0379171
0.0341088
2.06085e-06
2.13238e-06
0.019731
1.84784e-06
3.4623e-06
2.44554e-06
0.0587672
0.0360126
2.05883e-06
0.018192
1.85099e-06
2.15923e-06
4.09749e-06
1.92168e-06
2.22226e-06
2.98321e-06
2.254e-06
2.06688e-06
2.54525e-06
4.12291e-06
0.0190587
2.40109e-06
0.0202408
1.7521e-06
2.97574e-06
0.0224837
9.18113e-06
0.0341403
0.0416493
2.01986e-06
0.000126028
3.083e-06
6.67262e-06
2.08462e-06
2.18987e-06
2.42177e-06
2.23933e-06
2.55248e-06
1.64852e-06
0.0633133
1.95742e-06
0.000153812
0.0345517
2.39972e-06
8.27391e-06
0.0545502
5.64316e-05
3.21825e-06
1.99976e-06
4.43326e-06
5.45493e-06
2.9787e-06
0.0123618
2.10073e-06
6.28052e-06
0.0114484
2.83799e-06
2.40662e-06
1.84454e-06
1.86943e-06
1.7916e-06
2.33656e-06
1.83772e-06
1.99657e-06
2.11823e-05
0.0216756
5.13854e-06
1.83361e-06
0.0173463
0.0417226
1.75265e-05
0.0115035
0.270774
3.12093e-06
2.25146e-06
1.76143e-06
3.22249e-06
2.31954e-06
2.18882e-06
3.22148e-06
0.0166612
0.00748577
3.39394e-06
2.1471e-06
2.74581e-06
4.79614e-06
0.00795491
1.9035e-06
2.41454e-06
2.98191e-06
3.45857e-06
2.27635e-06
1.85935e-06
2.293e-06
2.29447e-06
2.0092e-06
0.0223991
1.82556e-06
4.89202e-06
0.0215561
3.32282e-06
3.61374e-06
0.0467986
1.79371e-06
0.0366211
2.35876e-06
1.67964e-06
2.46283e-06
3.47773e-06
2.72447e-06
4.69638e-06
3.24977e-06
2.71452e-06
0.0312164
2.27631e-06
1.88103e-06
0.0157818
2.24583e-06
4.83903e-05
2.13113e-06
2.86555e-06
1.84248e-06
2.2712e-06
0.0427818
2.33535e-06
2.89774e-06
2.65702e-06
0.0234646
0.0417847
2.76028e-06
2.37066e-06
0.0773748
2.21652e-06
2.87661e-06
0.0494665
4.13299e-06
1.67104e-06
2.73439e-06
0.0192083
2.55198e-06
1.76704e-06
0.000161984
2.34439e-06
2.28523e-06
3.20722e-06
2.74625e-06
0.00104308
2.59127e-06
1.88993e-05
1.61775e-05
2.02129e-06
0.0127667
6.10891e-06
2.30774e-06
2.43937e-06
0.0841701
2.84771e-06
0.037727
2.12814e-06
2.38648e-06
1.35886e-05
3.15233e-06
2.23831e-06
5.9222e-06
0.0024548
2.19955e-06
1.22249e-05
3.40207e-06
0.0135469
0.0534021
1.83667e-06
0.00053115
2.67145e-06
0.0228945
0.0236368
3.12598e-06
2.22635e-06
9.15718e-06
2.22879e-06
0.0400722
1.13032e-05
0.0436645
2.03673e-06
2.43454e-06
2.28996e-06
0.00266082
4.85822e-06
2.14253e-06
0.00268903
1.91833e-06
0.000256304
3.11154e-06
0.0185346
0.00040432
0.000256933
2.3361e-06
1.98832e-06
2.13293e-06
0.0346706
0.0452617
2.01089e-06
2.50192e-06
3.95475e-06
1.77392e-06
2.50519e-06
2.78367e-06
0.0401407
3.02248e-06
1.92239e-06
4.52159e-06
2.17577e-06
2.06035e-06
2.28581e-06
2.8094e-06
0.0268466
2.32489e-06
8.95292e-06
0.0364935
2.30388e-06
2.04403e-06
2.63411e-06
2.24636e-06
2.0492e-06
2.1699e-06
2.20911e-06
1.99195e-06
2.5077e-06
0.00295724
1.82515e-06
2.17854e-06
0.0262685
3.11473e-06
3.70235e-06
0.0292856
0.0181417
0.00777489
2.3671e-06
5.34796e-05
1.66626e-05
5.18676e-06
0.00109755
0.00461705
0.037597
5.65551e-06
0.000121954
1.67238e-06
2.25256e-06
0.0277266
0.0394463
2.35308e-06
2.15856e-06
2.24783e-06
2.76508e-06
2.24765e-06
2.22517e-06
0.0305928
1.92168e-06
4.24273e-05
2.18892e-06
0.0125816
1.77831e-06
2.07854e-06
2.32773e-06
2.42873e-06
1.75338e-06
2.33566e-05
3.10295e-06
2.1728e-06
1.99456e-06
2.68147e-06
0.10806
2.05257e-06
2.86993e-06
3.46106e-06
3.34064e-06
0.00127378
6.80138e-06
2.15533e-06
0.0623749
0.0258502
4.08376e-06
0.00245276
2.65776e-06
2.34786e-06
2.44744e-06
0.000405398
2.08211e-06
4.17976e-06
2.36213e-06
1.68246e-06
2.66366e-06
0.0146981
2.55001e-06
0.0147583
0.0214813
0.0772061
0.111049
0.0740466
1.77735e-06
2.88671e-06
5.65287e-06
1.68308e-06
0.0231499
1.91974e-06
2.3972e-06
0.0029303
2.3615e-06
2.31777e-06
4.27957e-06
0.0026902
2.99299e-06
2.28787e-06
0.0232785
2.2845e-06
2.39232e-06
0.0118613
0.0126313
2.17621e-06
0.00251541
3.33372e-06
0.10285
0.00137503
2.27233e-06
3.91246e-06
8.23646e-06
0.0405453
2.24931e-06
2.13856e-06
2.19615e-06
0.034334
0.0481527
2.24145e-06
3.34143e-06
0.00246789
2.20533e-06
2.72831e-06
2.67224e-06
4.59115e-06
3.40967e-06
2.05173e-06
0.0236975
0.00129259
4.06168e-06
4.16464e-06
2.25264e-06
2.67926e-06
0.0158831
7.94289e-06
2.65709e-06
4.11738e-06
3.13714e-06
0.0434194
4.0416e-06
0.0134371
2.41842e-06
1.87229e-06
1.91699e-06
0.018578
1.83758e-06
0.0251895
2.01864e-06
0.0389337
0.0404685
2.04367e-06
0.026662
2.99552e-06
0.00226233
0.0362345
7.0632e-06
0.032024
1.69839e-06
0.00156222
0.0294411
2.94584e-06
2.26571e-06
2.82821e-06
2.40168e-06
2.51794e-06
3.12906e-06
1.90958e-06
2.20587e-06
4.00636e-06
2.1037e-06
2.48147e-06
0.028234
0.00283989
2.05986e-06
1.86877e-06
1.94653e-06
2.2761e-06
2.29174e-06
0.0246707
2.05713e-06
2.38432e-06
0.0513895
3.15473e-06
2.44096e-06
2.30046e-06
0.000342349
4.17444e-06
0.00237825
0.0307909
0.05102
0.0174243
0.0330281
0.00354722
3.22972e-06
0.0497416
2.91803e-06
2.94661e-06
0.0153889
2.77835e-06
0.0227468
0.0397697
0.0307663
6.31599e-06
2.03018e-06
2.25331e-06
2.44023e-06
2.92477e-06
0.0436294
2.96264e-06
0.0338534
0.18789
1.78521e-06
0.0385456
0.028304
3.12198e-06
0.114607
2.03411e-06
2.11081e-06
2.34499e-06
0.0389945
3.13207e-06
2.84943e-06
1.76814e-06
2.24646e-06
2.42493e-06
0.0158414
1.7049e-06
0.0252625
2.04132e-06
2.52342e-06
0.0336265
4.12675e-06
8.62006e-06
0.00014109
2.88845e-06
0.0155081
0.0145454
0.04437
5.04737e-06
3.2283e-06
2.78781e-06
2.10087e-06
0.032963
2.47095e-06
0.0253534
0.0245375
2.57523e-06
2.18136e-06
3.13941e-06
0.0600136
2.09558e-06
5.06706e-05
1.29133e-05
0.029128
0.0477568
0.00011376
2.47214e-06
2.38132e-06
6.08845e-06
2.87343e-06
0.257958
1.691e-06
0.0629823
2.48571e-06
0.0252981
0.00157783
2.94289e-06
0.0825735
0.00242947
2.74363e-06
2.48405e-06
4.37521e-06
0.0585467
0.0166425
2.17278e-06
0.0271564
0.000556161
1.86899e-06
1.32244e-05
2.5826e-06
0.0145099
2.72348e-06
1.93292e-06
2.92844e-06
2.43801e-06
1.69622e-06
0.00936662
3.5195e-06
2.54674e-06
3.82854e-06
2.506e-06
2.3772e-06
2.09482e-06
0.0277413
2.14386e-06
0.000232718
0.000286861
1.87374e-06
2.43815e-06
0.000125423
2.37721e-06
0.00215397
2.93463e-06
1.77281e-06
0.00861484
2.22079e-06
2.48753e-06
2.94733e-06
0.0145123
0.0449266
0.0124132
2.18555e-06
4.17654e-06
0.000113982
0.0169875
1.75902e-06
2.66647e-06
2.5536e-06
2.48726e-06
0.0475846
2.93378e-06
3.85502e-06
2.38404e-06
3.12298e-06
2.47641e-06
0.0288147
1.91584e-06
0.00450303
1.75874e-06
2.85599e-06
2.51664e-06
0.0307131
2.28834e-06
8.9964e-06
1.75473e-06
5.79379e-06
2.17251e-06
2.20482e-06
2.43683e-06
6.91887e-06
4.21193e-06
2.05381e-06
0.019595
0.0324654
3.36312e-06
2.71643e-06
1.75753e-06
2.52634e-06
0.0109363
1.39856e-05
0.000149484
0.0467564
2.24535e-06
1.95772e-06
3.01557e-06
2.14005e-06
2.48965e-06
3.08772e-06
0.00519993
2.33628e-06
6.0578e-06
0.00297853
0.000259414
2.19574e-06
0.0533074
0.00532523
0.00420051
0.0353525
1.93983e-06
2.37907e-06
1.86157e-05
0.00264701
7.57291e-05
0.0321454
3.47746e-06
1.81017e-05
4.07862e-06
0.0186967
3.38938e-06
1.39069e-05
8.73397e-06
2.94405e-06
4.19819e-06
2.12025e-06
2.24944e-06
1.54844e-05
6.6783e-06
2.24791e-06
2.2389e-06
0.04515
2.23566e-06
0.0778277
2.26612e-06
0.034658
2.43945e-06
0.038908
6.67818e-06
0.0387138
0.00136887
4.18573e-06
0.0395625
2.39173e-06
2.71337e-06
0.0307893
2.93605e-06
2.25596e-06
2.72399e-06
2.7154e-06
2.66582e-06
1.81539e-06
2.14384e-06
0.0217997
2.09897e-06
2.11857e-06
0.0411345
0.0023555
0.0691298
0.0249215
0.0436428
0.0347835
1.84573e-06
0.0152885
2.42307e-06
2.67181e-06
2.93682e-06
0.0163111
2.56105e-06
1.9146e-05
4.19263e-06
0.00274842
2.68179e-05
4.47212e-06
1.91494e-06
2.9468e-06
2.88919e-06
0.0168641
2.08634e-06
1.90861e-06
2.24635e-06
8.45699e-06
0.0349077
1.90625e-06
0.0652596
2.21233e-06
0.27953
4.19235e-06
2.21132e-06
2.12785e-06
1.75845e-06
2.6785e-06
2.22455e-06
2.27037e-06
1.81914e-06
2.87606e-06
2.70396e-06
0.0285664
2.19121e-06
0.00333431
0.0110929
2.25298e-06
6.81134e-06
1.77123e-05
3.75031e-06
2.50475e-06
3.34986e-06
2.26164e-06
0.0488318
2.44776e-06
2.8876e-06
2.11818e-06
0.0601794
0.0330947
0.000513304
0.0815569
0.0221776
2.53784e-06
2.39494e-06
0.0665263
8.83511e-06
4.15709e-06
2.13352e-06
2.69768e-06
2.72051e-06
2.26895e-06
0.0340357
2.37664e-06
0.00255172
2.9597e-06
3.38167e-06
9.25407e-06
9.37019e-06
3.13883e-06
0.0202155
2.20833e-06
2.21608e-06
2.21566e-06
0.00385973
0.00942042
2.2614e-06
2.07318e-06
0.0443079
1.9308e-06
0.0399473
2.06482e-06
0.0607679
1.86809e-06
2.46992e-06
0.0409792
1.16485e-05
0.0316213
0.0912654
2.3149e-06
1.93608e-06
2.58531e-06
2.454e-06
0.0246239
2.02912e-06
5.67528e-05
2.80213e-06
2.93151e-06
0.0166487
3.35083e-06
0.0205344
0.00231023
0.03102
0.00476162
0.000673815
2.2908e-06
2.21361e-06
2.04846e-06
4.24e-05
1.49474e-05
7.00502e-06
4.04935e-06
1.94261e-06
0.112525
0.00193865
6.53366e-05
2.72965e-06
8.01859e-06
2.43601e-06
2.15907e-06
2.11463e-06
2.82742e-06
0.00013813
1.84626e-06
1.31819e-05
2.11695e-06
2.16023e-06
0.000285504
3.43746e-06
2.33315e-06
0.0345036
0.00200182
2.43417e-06
0.0448973
2.07811e-06
1.993e-06
1.90658e-06
1.85416e-06
3.92385e-06
2.28329e-06
2.19187e-06
0.0132167
0.0296999
2.56394e-06
2.24497e-06
0.0382086
5.49903e-05
2.49767e-06
2.0862e-06
2.0936e-06
1.85805e-06
1.92233e-06
2.12916e-06
3.5969e-06
2.43679e-06
0.0446326
2.37935e-06
0.0315238
2.15506e-06
3.12916e-06
2.21811e-06
0.0108851
2.15614e-06
2.08864e-06
0.120724
2.55142e-06
2.66762e-06
0.00669514
0.0334162
0.022133
0.0358224
9.95159e-06
0.0488424
2.7932e-06
0.033377
0.0229891
2.34414e-06
0.0417242
0.0532105
2.38536e-06
3.05279e-05
2.20713e-06
2.54199e-06
0.0385524
0.0843024
0.000112039
0.000296917
0.0120188
2.32225e-06
2.18245e-06
2.34097e-06
4.18886e-06
2.08614e-06
2.47435e-06
0.0145055
0.0182687
1.76934e-06
2.28396e-06
0.000209539
2.54285e-06
3.14485e-06
0.0320006
3.11157e-06
0.00149649
2.08944e-06
0.0480247
0.0270566
0.00084294
2.16909e-06
3.15583e-06
2.20843e-06
2.23996e-06
0.000133015
3.44146e-06
1.40053e-05
2.91422e-06
9.33228e-06
2.30159e-06
3.01969e-06
0.187559
0.0327143
7.7295e-06
0.0439046
2.25729e-06
2.89009e-06
1.99298e-06
2.58649e-06
2.30712e-06
0.0351202
2.41213e-05
0.0334665
2.2435e-06
0.0383348
1.93601e-06
0.0181439
1.44798e-05
0.037057
2.31766e-06
0.000101058
0.0844464
0.0678497
1.64645e-06
0.00136917
0.0342399
4.2277e-06
2.24136e-06
0.154678
1.92696e-06
0.0193733
2.66319e-06
2.95565e-06
2.34458e-06
0.0402797
4.59097e-05
1.96923e-06
4.20043e-06
2.30803e-06
0.00242672
0.00266488
2.33509e-06
3.25072e-06
0.00946924
2.92084e-06
1.88096e-06
4.08631e-06
0.0239284
0.0459371
0.00113674
1.94438e-06
2.20965e-06
0.0575043
3.69107e-06
2.76886e-06
2.24349e-06
3.39514e-06
2.11677e-06
2.25867e-06
0.0736161
2.31592e-06
0.00411821
0.00961347
2.20557e-06
0.0171591
0.0437733
1.72572e-06
2.8356e-06
0.017795
2.27606e-06
4.17863e-06
2.09853e-06
3.33479e-06
1.7103e-06
1.76942e-06
2.35224e-06
2.34774e-06
0.0284383
1.92103e-06
0.000983193
0.000157956
2.39379e-06
0.00240378
2.89024e-06
0.00374467
2.64698e-06
3.00701e-06
1.12397e-05
2.23988e-06
2.90704e-06
0.000843115
3.97597e-06
3.29365e-06
0.0483211
4.15842e-06
1.86022e-06
0.00777222
1.9656e-06
0.0202607
2.51781e-06
2.33778e-06
2.17197e-06
2.21768e-06
2.52194e-06
0.0289599
2.35943e-06
0.0697847
2.74807e-05
2.18131e-06
2.36765e-06
1.82055e-05
2.44596e-06
0.00824069
2.93678e-06
0.0752667
0.000347961
9.55209e-06
0.0145599
2.85939e-06
2.28031e-06
2.63753e-06
0.000655702
2.33982e-06
0.0311634
3.01288e-06
2.45559e-06
2.27587e-06
2.26138e-06
4.2103e-06
2.13242e-06
2.45382e-06
2.23703e-06
2.97317e-06
2.15852e-06
3.74332e-06
3.21783e-06
0.0107694
0.0425531
0.0280974
0.00123873
2.2364e-06
0.00712924
4.78784e-05
1.03717e-05
2.31125e-06
0.00836059
2.65419e-06
2.77411e-06
1.90943e-06
3.39027e-06
2.48021e-06
0.0520377
2.08058e-06
0.0484638
2.06274e-06
4.18747e-06
1.90218e-06
3.72698e-06
0.0198244
3.90878e-06
1.94735e-06
8.75504e-06
1.42794e-05
1.33674e-05
2.4505e-06
0.0114424
0.000377044
2.96856e-06
0.0409842
2.23128e-06
0.032553
0.0231126
2.77292e-06
2.2427e-06
2.16658e-06
2.99436e-06
0.0503118
2.89997e-06
2.29052e-06
0.0711815
1.66247e-06
1.22895e-05
0.0322585
1.89409e-06
0.0376447
3.31491e-06
2.23705e-06
2.09758e-06
1.84799e-06
2.04465e-06
2.22491e-06
0.0176258
2.50663e-06
2.88712e-06
2.45542e-06
2.70023e-06
0.0145114
1.7584e-06
2.14151e-06
2.71503e-06
6.9814e-06
2.37998e-06
2.18721e-06
3.16762e-06
3.41403e-06
2.44352e-06
0.00768997
2.54699e-06
3.2521e-06
0.0132958
2.06428e-06
2.6898e-06
2.11877e-06
0.0164065
2.98155e-06
1.06799e-05
1.88851e-06
2.98536e-06
2.25866e-06
2.2647e-06
2.13541e-06
0.0122574
0.0388415
0.0409278
2.96701e-06
4.98406e-06
2.27788e-06
2.22418e-06
0.000104632
2.23069e-06
2.20971e-06
4.43516e-06
0.057891
2.70201e-06
3.44177e-06
2.03434e-06
2.22841e-06
0.00151006
1.18458e-05
0.0461755
6.65011e-06
1.17284e-05
0.0651756
0.023326
1.92939e-06
2.98801e-06
1.84634e-06
2.27956e-06
0.00200352
0.303054
2.29447e-06
2.27214e-06
6.68016e-05
2.48159e-06
0.0310243
2.11699e-06
2.23866e-06
1.76593e-06
2.68114e-06
3.11947e-06
0.121401
2.19673e-06
0.000404897
0.0147565
4.45734e-06
0.00107542
0.0627396
1.65263e-06
2.83146e-06
2.19029e-06
2.1882e-06
0.041345
2.17787e-06
2.85715e-06
0.00684766
8.40485e-06
0.0279452
0.000107607
0.00197657
2.56224e-06
1.82723e-06
0.000616047
1.65954e-06
3.40336e-06
2.22903e-06
0.0375012
1.68832e-06
0.0228723
0.0214063
3.55127e-06
1.72203e-06
1.7878e-06
0.01722
2.24684e-06
0.00191408
0.0146757
3.18467e-06
3.67507e-06
5.62881e-06
3.14145e-06
2.72561e-06
1.89214e-06
2.30358e-06
0.0157174
2.10926e-06
2.44121e-06
4.20899e-06
0.0372663
2.23042e-06
0.0284494
2.10186e-06
1.84666e-06
2.17811e-06
2.48165e-06
1.93727e-06
4.02401e-06
2.75365e-06
0.0212202
3.11931e-06
1.8477e-06
0.0364059
2.24437e-06
2.06992e-06
3.14411e-06
2.02967e-06
2.66136e-06
0.0146493
1.96219e-06
0.0212365
0.0591797
0.0419736
0.0158329
2.21187e-06
1.68025e-06
3.12717e-06
2.238e-06
2.3333e-06
2.35311e-06
7.52235e-05
2.25231e-06
0.0282191
0.119312
3.36775e-06
1.85303e-06
2.2814e-06
0.0424841
3.51816e-06
0.000163307
2.45302e-06
5.72935e-06
2.66699e-06
6.79372e-06
1.0321e-05
2.7487e-06
4.22339e-06
3.53628e-06
0.0376071
0.010272
0.0319459
5.1626e-06
2.01547e-06
0.0167608
3.13676e-06
4.2274e-06
2.21725e-06
3.40683e-06
0.0276077
2.26755e-06
0.131884
0.0600655
2.12763e-06
2.51668e-06
1.69173e-06
1.92803e-06
2.22615e-06
0.0271683
1.64406e-06
2.55256e-06
1.76127e-05
1.65157e-05
0.0413004
0.0522831
0.00206732
2.0657e-06
2.57205e-05
2.91978e-06
0.000190531
3.93954e-06
0.0218333
0.0146569
3.07018e-06
2.22579e-06
0.0166024
2.23908e-06
2.05448e-05
0.0390808
0.0191201
0.0597002
2.1294e-06
0.0243036
0.0260817
1.54103e-05
2.30795e-06
0.000319174
3.45493e-06
4.47854e-06
0.010971
2.41929e-05
0.00289563
0.0330705
0.0241313
4.20334e-06
4.68761e-06
2.25116e-06
0.0361361
2.21977e-06
3.11542e-06
2.28083e-06
0.0226867
2.77054e-06
2.43664e-05
1.91947e-06
2.55242e-06
0.0482926
0.0427144
1.99418e-06
2.39113e-06
2.26412e-06
0.0222388
2.05619e-06
3.53542e-06
0.00190595
3.05934e-06
0.00153287
2.19098e-06
2.10835e-06
1.71904e-06
1.97642e-06
0.0301194
1.94809e-06
0.0356177
8.37971e-06
2.10743e-06
1.80022e-06
0.0701368
2.49175e-06
2.91569e-06
3.30787e-06
2.43949e-06
6.7172e-06
2.96508e-06
4.96062e-06
1.98687e-06
0.000216223
2.11784e-06
3.39956e-06
4.00163e-05
0.000132363
4.91254e-06
1.99653e-06
0.0358837
0.0208521
0.00239599
2.66447e-06
2.38344e-06
3.29091e-06
0.0439522
2.1739e-06
3.14887e-06
1.7691e-06
2.33185e-06
3.24902e-06
2.66105e-06
2.82557e-06
1.06667e-05
2.15721e-06
0.0274214
0.0144026
2.66968e-06
0.0354666
0.00327728
0.0571847
2.20357e-06
2.34484e-06
2.22185e-06
3.15312e-06
2.64976e-06
2.63783e-06
2.43064e-06
2.34104e-06
2.32282e-06
2.83557e-06
0.0486581
2.91189e-06
0.0194063
6.028e-06
0.0135475
2.44724e-06
2.14157e-06
2.11941e-06
2.68224e-06
0.0137435
2.34022e-06
2.37218e-06
0.0402451
0.0372219
2.61692e-06
2.97002e-06
0.00286014
0.0417122
1.90488e-06
0.0108796
0.0772079
2.98938e-06
2.49295e-06
0.034366
2.11224e-06
1.80683e-06
2.20714e-06
4.57664e-06
1.74374e-06
0.0250262
0.0241541
0.056964
2.484e-06
4.15593e-06
2.05129e-06
0.0521076
2.13986e-06
2.78726e-06
2.56734e-06
0.0458043
0.0157794
2.60489e-06
7.80946e-05
2.65921e-06
2.32362e-06
2.87539e-06
0.0276356
2.1377e-06
2.80702e-06
3.01198e-06
0.00711055
2.47519e-06
2.3373e-06
1.99527e-06
5.09836e-06
2.10004e-06
1.81638e-06
3.0179e-06
2.26431e-06
0.0141957
2.02654e-06
2.25586e-06
3.99313e-06
3.71737e-05
2.4155e-06
2.54015e-06
0.0141149
0.0377267
2.16399e-06
1.75053e-06
0.000264228
7.29856e-06
2.83694e-06
2.54677e-06
2.14183e-06
2.6108e-06
1.64801e-06
0.0839105
0.0132821
2.72024e-06
6.2307e-06
0.018709
0.0397545
3.14582e-06
2.26126e-06
6.74277e-06
2.60866e-06
2.94473e-06
0.0108807
1.71187e-06
3.1174e-06
2.03078e-06
0.00592734
0.00334683
0.0282781
0.0108577
2.37066e-06
0.0132298
0.0191407
0.0412002
2.13567e-06
3.3465e-06
2.67048e-06
3.45176e-06
0.0469818
3.12733e-06
3.1344e-06
2.55437e-06
9.3632e-05
3.00085e-06
2.38927e-06
0.00785021
2.47624e-06
0.022857
3.34346e-06
2.00513e-06
1.55336e-05
0.026363
2.17933e-06
2.40247e-06
2.27033e-06
0.00310073
2.41702e-06
2.82439e-06
0.0149107
0.0165784
4.20029e-05
2.2985e-06
3.4641e-06
0.00292731
1.81672e-06
3.18212e-06
3.55649e-06
0.00297159
1.69859e-06
9.88464e-05
2.77143e-06
0.0407507
0.0196364
2.55383e-06
0.0186317
2.5722e-06
0.0469492
2.09043e-06
0.00724586
3.08821e-06
4.46678e-06
0.0222555
0.000463281
2.31804e-06
2.09337e-06
0.0346194
2.26919e-06
1.0252e-05
1.91564e-06
4.25424e-06
0.0437173
4.25948e-06
0.0332926
1.90328e-06
1.83142e-06
2.23338e-06
2.79375e-06
2.46005e-06
9.2833e-06
1.84158e-06
0.0727391
2.2576e-06
0.0517978
0.0111913
2.28561e-06
2.34674e-06
0.000128591
3.02739e-06
3.00995e-06
0.0193747
1.84201e-06
0.0266625
2.54658e-06
2.09577e-06
4.16452e-06
2.96856e-06
2.19452e-06
0.000459701
0.0158908
0.0258256
0.000760695
3.41187e-06
3.35754e-06
0.000157767
0.0425328
0.0296759
2.43109e-06
0.0726886
0.0441686
3.38206e-06
5.74953e-06
2.21265e-06
0.0162698
2.13649e-06
2.20241e-06
1.8689e-06
2.31243e-06
2.24994e-06
0.00260684
2.15192e-06
1.76406e-06
0.123705
2.30225e-06
0.00239807
2.08585e-06
0.0898603
2.15464e-06
2.81086e-06
3.00704e-06
4.11418e-06
2.62993e-06
1.87795e-06
0.00554115
3.98488e-06
0.0190016
0.0132941
1.75669e-06
2.36806e-06
2.48707e-06
0.0164037
2.07252e-06
0.0374197
0.0450303
2.47959e-06
0.0324161
0.0317403
1.78807e-06
0.01408
1.75994e-06
2.5463e-06
3.39427e-06
3.85834e-06
3.35687e-06
2.14514e-06
1.77681e-06
0.0154048
2.77258e-05
0.0175799
2.55316e-06
2.26727e-06
2.15167e-06
3.32231e-06
2.66453e-06
2.10573e-06
2.19085e-06
2.49734e-06
0.0355237
0.0315925
0.0204216
2.66772e-06
2.37036e-06
2.59662e-06
2.95224e-06
1.93077e-05
0.0830388
2.27893e-06
1.80923e-05
0.0159799
2.55272e-06
0.00291187
2.21865e-06
1.64339e-06
1.87993e-05
2.20492e-06
2.48414e-06
1.79932e-06
1.85416e-06
3.17966e-06
1.69968e-06
2.28856e-06
1.8056e-06
3.75335e-06
2.44678e-06
0.0261166
1.84774e-06
0.000115059
0.0270612
1.03149e-05
1.7165e-06
2.38066e-06
2.12167e-06
2.23779e-06
2.11307e-06
0.0121224
2.54888e-06
2.26531e-06
0.00225879
0.0317942
2.66508e-06
0.0412304
2.08882e-06
0.0422997
0.00235733
2.28201e-06
2.27767e-06
2.94991e-06
0.000192948
0.0331438
0.0496624
2.28947e-06
2.66003e-06
0.0459388
2.60353e-06
0.000658989
0.0450451
0.0170068
4.1778e-06
0.002012
0.0245597
0.0345596
2.92923e-06
2.29088e-06
2.21471e-06
4.28661e-06
2.68187e-06
3.21781e-06
0.0138268
2.02781e-06
2.54771e-06
1.74302e-06
2.20721e-06
3.14048e-05
2.88545e-06
4.12108e-06
0.0161697
2.20577e-06
2.63449e-06
2.19639e-06
3.15035e-06
2.7941e-06
1.9674e-06
0.0185953
1.6986e-06
2.94835e-06
3.19372e-06
0.0595876
3.18913e-06
0.0267978
0.00901403
0.00124403
0.00944891
2.14013e-06
2.21768e-06
1.29893e-05
0.0274089
0.0303605
3.55096e-06
2.56929e-06
4.15793e-06
0.0462626
2.42385e-06
2.09133e-06
0.000240883
0.016175
1.86773e-06
0.0232664
2.40279e-06
0.010175
2.31892e-06
2.28275e-06
2.96078e-06
3.15935e-06
2.43872e-06
2.37699e-06
2.78535e-06
2.15578e-06
4.22258e-06
8.23113e-05
1.84482e-06
2.25135e-06
0.000113436
0.0262031
2.34741e-06
4.2009e-06
2.23089e-06
3.32063e-06
2.11257e-06
6.14256e-06
0.000152534
2.64906e-06
3.02053e-06
2.2263e-06
0.0173528
0.000117832
0.0496879
4.14899e-06
7.83025e-06
2.2842e-06
0.000120476
0.0305903
2.14932e-06
2.28896e-06
0.0164948
2.33322e-06
2.18989e-06
0.000128526
1.1695e-05
2.22754e-06
1.77566e-06
0.00115747
2.62219e-06
3.25429e-06
0.00383658
2.44938e-06
3.17816e-06
2.25018e-06
2.14245e-06
2.40174e-06
0.00376994
2.27834e-06
2.63402e-06
2.11672e-06
2.1672e-06
1.79321e-06
2.24796e-06
0.0332682
1.72782e-06
0.0398952
0.0226504
0.000149624
2.30324e-06
0.000371194
3.13534e-06
0.0139555
0.0445856
2.9812e-06
2.20041e-06
2.13593e-06
2.68087e-06
3.28745e-06
2.08053e-06
2.95584e-06
0.0714108
0.0302806
0.0638915
0.000153529
2.13315e-06
0.0387165
1.84651e-06
0.00710009
0.0702732
0.0192952
2.24708e-05
2.60692e-05
0.0175909
0.0748634
0.0227679
2.19283e-06
0.0494404
2.05397e-05
1.95685e-06
1.73428e-06
1.90863e-06
0.0339174
5.24919e-06
2.26748e-06
2.5468e-06
1.05371e-05
0.0686319
2.38038e-06
2.29479e-06
3.13339e-06
2.22659e-06
1.80047e-06
2.09608e-06
2.41621e-06
1.92442e-06
0.0355699
2.99705e-06
3.89028e-06
2.18333e-06
2.78573e-06
2.26957e-06
0.0299963
2.67387e-06
3.4267e-06
2.28156e-06
0.0605996
2.37162e-06
4.51783e-06
1.74125e-06
2.52127e-06
2.69765e-06
2.08484e-06
3.40636e-06
6.65078e-05
1.80805e-06
3.33912e-06
2.25164e-06
2.28376e-06
1.95307e-06
3.38593e-06
2.38599e-06
6.85998e-06
2.86636e-06
2.2478e-06
0.00189416
0.0401394
1.92608e-06
2.43454e-06
2.13486e-06
2.39258e-06
0.023424
0.00014383
3.30101e-06
0.0158169
1.99353e-06
3.37495e-06
3.22622e-06
3.39927e-06
0.0160406
2.96197e-06
0.0112387
0.0474928
0.000138809
0.0140204
2.27861e-06
0.0194884
0.034794
2.15347e-06
3.1052e-06
2.16699e-06
2.15386e-06
2.44842e-06
0.0367042
1.81764e-06
2.54735e-06
0.0361476
3.11634e-06
2.02504e-06
2.16344e-06
2.20009e-06
2.28087e-06
0.0145532
1.92849e-05
0.0244771
0.0167708
8.6423e-06
2.67725e-06
2.21108e-06
2.98978e-06
0.0207137
2.20945e-06
0.000729792
0.0153614
0.0276007
3.32388e-06
2.06856e-06
0.0307691
0.0457686
0.0023858
0.052318
4.2203e-06
0.043732
1.77576e-06
2.10894e-06
2.22239e-06
4.27044e-06
0.0425375
2.44e-06
2.30003e-06
3.90687e-06
0.0210065
0.0177337
2.11507e-06
2.65386e-06
1.79891e-06
0.0308602
0.000199162
2.10576e-06
0.022435
0.0677998
3.47358e-06
0.0486594
3.62859e-05
4.72294e-06
0.038496
2.14296e-06
0.0198927
0.193919
2.18831e-06
0.0158493
3.87563e-06
0.0337746
2.55354e-06
0.020809
2.66218e-06
1.32184e-05
0.0424043
1.86856e-06
3.26845e-06
0.0429872
1.82034e-06
0.0134116
3.05041e-06
2.44323e-06
2.0895e-06
0.0668935
3.80694e-06
1.81777e-06
2.93153e-06
2.29549e-06
2.09159e-06
4.19253e-06
2.09524e-06
2.18157e-06
0.00950853
2.28942e-06
0.0174524
0.0269606
0.0433849
2.1619e-06
0.000466074
0.0108086
2.94775e-06
3.9789e-06
0.00241763
2.72451e-06
0.000130607
0.0631869
2.18501e-06
0.00335316
0.00207764
2.04973e-06
0.0366251
2.25596e-06
0.00033367
2.23534e-06
0.00750437
1.93152e-06
0.0121128
2.31048e-06
0.0396139
0.000775135
5.82001e-06
2.49356e-06
3.09709e-05
5.49365e-05
3.28622e-06
0.000116728
0.0112882
2.48005e-06
0.072467
3.42876e-06
1.10313e-05
1.92627e-06
3.51135e-06
2.65677e-06
0.0348101
2.237e-06
0.0141123
0.0468809
2.2405e-06
2.30702e-06
1.82201e-06
2.14687e-06
2.23014e-06
2.57905e-06
0.00260871
0.0292537
0.00742232
1.99017e-06
0.0583625
0.0142936
0.0285624
2.13166e-06
0.0469764
2.44303e-06
2.70481e-06
0.00223235
0.0293769
2.15024e-06
0.0598645
2.94964e-06
3.10974e-06
0.0423452
2.27481e-06
0.0633058
0.01369
3.40228e-06
0.00167058
0.0180819
0.0373977
2.08738e-06
0.0138472
2.24183e-05
2.17525e-06
2.74235e-06
2.21675e-06
0.0116281
0.0147267
1.93608e-06
2.26247e-06
1.94255e-06
2.94258e-06
0.000132426
2.58231e-06
2.0391e-06
2.85365e-06
2.37855e-06
3.16557e-06
2.85818e-05
2.35523e-06
2.22533e-06
2.2149e-06
1.07917e-05
1.67471e-06
2.36125e-06
0.0251699
0.0184927
2.33881e-06
0.0169856
2.79296e-06
0.0132462
0.0239528
0.011043
2.99903e-06
2.69543e-06
2.37813e-06
3.02989e-06
2.24584e-06
2.30633e-06
4.14205e-06
2.4776e-06
2.65526e-06
1.74239e-06
0.0390754
2.93298e-06
0.000122439
0.0459042
4.5853e-06
4.27104e-06
1.99549e-06
2.23988e-06
2.02813e-06
0.0257322
0.00776583
2.10296e-06
3.9315e-06
2.22549e-06
4.09962e-06
2.27889e-06
2.05305e-06
0.0249588
0.0524599
2.82538e-06
2.09602e-06
6.629e-06
2.34791e-06
0.0311871
2.93047e-06
0.0771346
2.09018e-06
1.86174e-06
2.29851e-06
2.23551e-06
3.71214e-06
0.0407751
1.85068e-06
0.0395724
0.0468457
3.11834e-06
0.020561
0.0165201
3.03063e-06
2.0401e-06
2.45954e-06
2.43365e-06
0.0564277
2.66408e-06
1.65791e-06
2.80239e-06
0.0195324
2.22235e-06
3.79817e-06
5.43561e-05
3.86865e-06
0.0478751
2.02891e-06
3.10856e-06
1.90268e-05
2.99709e-06
2.65503e-06
2.44848e-06
0.0217089
2.33159e-06
0.0388578
7.97463e-06
0.0111394
3.30867e-06
0.00221351
1.15957e-05
1.77799e-06
2.29413e-06
2.14226e-06
0.0425659
2.28385e-06
2.19556e-06
0.0386885
2.13314e-06
2.10066e-06
5.96935e-06
0.0148
2.03852e-06
2.40188e-06
2.22157e-06
2.02792e-06
2.13875e-06
0.0679476
0.0378315
2.49078e-06
2.2826e-06
0.0248496
2.9909e-06
0.0394922
0.0207811
0.0163933
1.76126e-06
2.65322e-06
0.0377838
0.0138616
0.0167485
2.09305e-06
2.65649e-06
2.32422e-06
0.0368132
2.6448e-06
2.16413e-06
2.9435e-06
1.96759e-06
8.66e-06
2.66509e-06
2.35475e-06
2.28487e-06
2.45313e-06
1.75713e-06
2.26279e-06
0.034864
2.28208e-06
0.0468579
0.116194
0.0246964
2.31964e-06
0.0404933
0.0264125
2.54785e-06
1.76714e-06
0.0512275
2.51964e-06
0.0296093
2.14246e-06
3.4217e-06
7.01486e-06
4.80305e-05
2.41444e-06
3.37958e-06
2.11632e-06
2.47233e-06
3.09838e-06
0.0429631
2.38427e-06
0.0665686
0.00125286
2.2609e-06
1.81471e-06
0.049283
0.010483
2.33049e-06
2.47358e-06
3.20628e-06
2.22647e-06
1.85075e-06
2.35278e-06
2.21703e-06
3.03152e-06
0.029171
2.05328e-06
0.0130762
0.000115841
2.3737e-06
0.0406346
0.0156275
2.5688e-06
2.0233e-06
2.28814e-06
2.79162e-06
0.0681227
0.0121452
2.43773e-06
0.291966
0.00886254
1.89968e-06
2.20508e-06
0.0449886
2.33609e-06
0.128826
0.0553324
0.0125362
3.32342e-05
2.27658e-06
0.0435446
6.76372e-06
0.0451566
0.0444794
1.663e-06
2.48152e-06
1.93865e-05
2.84814e-06
2.29004e-06
4.03932e-06
1.97195e-06
2.43772e-06
2.94387e-06
3.185e-06
3.13916e-06
3.79087e-06
2.29533e-06
0.000313027
8.41678e-06
2.34677e-06
1.74639e-06
0.0468501
2.61898e-06
3.04495e-06
6.35405e-06
3.56207e-06
2.1118e-06
1.78261e-06
0.0277325
2.35527e-06
2.18901e-06
0.0230945
2.13271e-06
4.09852e-06
0.0222519
6.79515e-06
2.18173e-06
2.09888e-06
2.95992e-06
3.76385e-06
3.72783e-06
2.39391e-06
2.49015e-06
0.0316973
0.026109
2.22337e-06
1.72647e-06
2.28042e-06
4.31708e-05
2.25507e-06
2.35953e-06
2.64624e-06
3.34472e-06
2.55324e-06
2.11133e-06
3.57959e-06
2.03579e-06
0.019351
4.19542e-06
3.23979e-05
0.0371146
2.37741e-06
2.82995e-06
3.40274e-06
2.43728e-06
2.03465e-06
1.77623e-06
1.83265e-06
0.00114649
6.73025e-06
0.00229798
1.80782e-06
2.50968e-05
2.92738e-06
5.28497e-05
0.20485
2.48315e-06
3.00021e-06
3.086e-06
2.5485e-06
4.95117e-06
2.65241e-06
3.0907e-06
3.57979e-05
3.68923e-06
2.95777e-06
3.66172e-06
2.43162e-06
0.00119341
0.0627213
2.12579e-06
2.23534e-06
2.35454e-06
0.0340225
2.76987e-06
1.15756e-05
3.22744e-06
2.15408e-06
1.85809e-06
2.66523e-06
0.0195279
0.0299134
4.64594e-05
3.85195e-06
2.35883e-06
3.32362e-06
2.79228e-06
0.0499242
1.90374e-06
1.76352e-06
4.3869e-06
0.0352913
0.0322997
0.0153401
0.0316373
2.7858e-06
1.90064e-06
0.0274265
0.0427827
0.000117855
0.00201673
2.13398e-06
2.40084e-06
0.040024
2.45279e-06
1.99971e-06
2.23917e-06
1.77998e-06
2.46759e-06
3.63199e-06
0.0290568
0.00464719
2.89227e-06
2.9347e-06
2.42118e-06
1.82882e-06
2.56504e-06
0.00324207
3.39467e-06
3.33337e-06
2.4842e-06
2.19705e-06
2.12191e-06
2.48584e-06
2.39238e-06
2.47753e-06
2.79015e-06
0.0288341
0.0163252
7.7499e-06
2.34186e-06
2.2076e-06
2.83558e-06
1.87268e-06
1.22508e-05
6.63917e-05
0.0188898
0.0463448
2.99422e-06
2.70455e-06
2.15708e-06
0.0292463
2.21968e-06
4.21291e-06
6.912e-05
0.0136267
0.0111829
0.0760699
0.0460828
3.53667e-06
0.0198178
2.23831e-06
1.76915e-06
0.0462801
2.88477e-06
3.60434e-06
8.2614e-06
2.28182e-06
0.319675
2.50695e-06
0.0347984
2.30808e-06
2.81318e-06
2.73409e-06
1.65677e-06
3.07471e-06
2.21334e-06
3.36339e-06
2.02782e-06
1.9057e-06
4.06603e-05
3.24136e-06
0.0144668
2.1782e-06
0.0613918
2.60581e-06
0.000276464
0.00439099
0.0162138
0.00239785
5.9322e-06
0.00621688
2.24167e-06
3.37567e-06
2.13891e-06
2.49653e-06
3.04857e-05
1.72544e-06
2.25462e-06
2.23551e-06
2.25014e-06
3.0016e-06
0.0272807
1.97982e-06
2.14338e-06
2.21327e-06
2.27763e-06
1.79908e-06
4.94288e-06
1.84211e-06
1.82786e-06
2.94153e-06
1.7765e-06
0.0119489
2.75098e-06
0.00723133
2.4246e-06
2.88836e-06
2.5541e-06
3.12084e-06
3.33602e-06
0.0132695
4.22587e-06
0.00241824
0.0615626
3.43704e-06
2.87722e-06
2.24173e-06
0.0504324
2.48498e-06
2.53326e-06
0.049161
1.74386e-06
4.20329e-06
2.45448e-06
0.0190345
2.44583e-06
0.019168
2.48137e-06
0.0216864
6.44171e-06
1.70827e-06
3.78649e-06
3.1809e-06
2.2862e-06
0.0175911
0.059523