/*--------------------------------*- C++ -*----------------------------------*\
| =========                 |                                                 |
| \\      /  F ield         | OpenFOAM: The Open Source CFD Toolbox           |
|  \\    /   O peration     | Version:  v2012                                 |
|   \\  /    A nd           | Website:  www.openfoam.com                      |
|    \\/     M anipulation  |                                                 |
\*---------------------------------------------------------------------------*/
FoamFile
{
    version     2.0;
    format      ascii;
    class       volScalarField;
    location    "150";
    object      k_0;
}
// * * * * * * * * * * * * * * * * * * * * * * * * * * * * * * * * * * * * * //

dimensions      [0 2 -2 0 0 0 0];


internalField   nonuniform List<scalar> 
33474
(
0.000133486
0.000108911
0.0209233
9.87112e-05
0.000114008
0.0167437
0.000102241
0.000117242
0.000117577
9.908e-05
0.000133097
0.000105228
0.000115284
0.000109942
0.000393179
0.000229424
0.000113378
0.0002248
0.0671113
0.000113551
0.000106979
0.000110766
0.000107826
0.00181276
0.00226099
0.000110249
9.74361e-05
0.00196509
0.0632955
0.000107321
0.000102758
0.000106169
0.0024892
9.83496e-05
0.000457383
0.000524855
0.000107418
0.000119512
0.000110121
0.000438048
0.000141958
0.0261433
0.0125486
0.000147349
0.0798511
0.108014
0.000145716
0.000459323
0.000102201
0.000134482
9.87297e-05
0.000111234
0.00261985
0.0395268
0.000114181
0.00390523
0.000111822
0.000102128
0.0469604
0.0443325
0.000102152
0.000107292
0.0310093
9.67716e-05
0.0001338
0.000111657
0.0641569
0.0791305
0.000102105
0.0551281
9.83635e-05
0.000109426
0.000146044
9.90321e-05
0.000106208
0.000132631
0.000107337
0.000102268
0.000114005
0.000167491
0.0561147
0.00011061
0.0223899
9.38639e-05
0.000132363
0.0638121
0.000291891
0.0459093
0.0253007
0.000102489
0.00181704
0.000125914
0.000233871
0.000102721
0.000105881
0.000111101
0.000106636
0.000114169
9.09458e-05
0.0415149
9.94182e-05
0.00211772
0.0730073
0.000110607
0.000291315
0.0895179
0.000978831
0.000128825
0.000100868
0.000177544
0.000202942
0.000132408
0.0409206
0.000107075
0.0002232
0.0288206
0.000120614
0.000110753
9.66626e-05
9.70627e-05
9.50774e-05
0.000112553
9.65282e-05
0.000100742
0.000517472
0.0275813
0.000194569
9.79288e-05
0.025495
0.0701875
0.000518454
0.0397507
0.121886
0.000136969
0.000107239
9.41425e-05
0.000128863
0.000108759
0.000105901
0.000128866
0.0493076
0.0272863
0.000145358
0.000104322
0.000130073
0.000185275
0.030026
9.79816e-05
0.000116401
0.000136798
0.00013372
0.000107722
9.7561e-05
0.000107945
0.000111209
0.000100778
0.0636605
9.67727e-05
0.000187624
0.0266379
0.000130964
0.000151988
0.0490438
9.51332e-05
0.0759788
0.000113423
9.19139e-05
0.000116237
0.000134089
0.000118089
0.000182702
0.000129455
0.000117858
0.0627901
0.000107583
9.75232e-05
0.0473607
0.000107082
0.00112418
0.000106973
0.000121241
9.8234e-05
0.000107606
0.0706661
0.000108991
0.000131963
0.000122213
0.0652315
0.0506041
0.000118887
0.000112493
0.0682906
0.000106063
0.000131188
0.041904
0.000167601
9.15635e-05
0.00012468
0.0303387
0.000118648
9.42976e-05
0.00270958
0.00011286
0.000107805
0.000128533
0.000118584
0.00581195
0.00012161
0.00048674
0.000440899
0.000102525
0.02201
0.000218537
0.000110796
0.000111485
0.0792884
0.000120819
0.0736657
0.000108293
0.000113052
0.000389752
0.000127409
0.000106611
0.000215127
0.012222
0.000107652
0.000356814
0.000132574
0.0448203
0.0875788
9.76778e-05
0.00511456
0.000116897
0.0646051
0.0659503
0.000126865
0.000106309
0.000313185
0.000106383
0.0696218
0.000339539
0.040899
0.000101501
0.000111373
0.00010805
0.00941728
0.000186375
0.000104559
0.015106
9.87899e-05
0.00374007
0.000126572
0.0292728
0.00325423
0.00355215
0.000109016
0.000100246
0.000107264
0.0606956
0.011537
0.000100941
0.000116979
0.000143384
9.44619e-05
0.000113036
0.000126268
0.069507
0.000124631
9.90201e-05
0.000179932
0.000105127
0.000104501
0.000107952
0.000120001
0.03949
0.000108882
0.000287512
0.0618878
0.000110095
0.000102271
0.00012636
0.000107261
0.000102196
0.000104899
0.000105899
0.000100342
0.000113112
0.0164466
9.67087e-05
0.000105198
0.0319153
0.00012661
0.000138537
0.0350066
0.0221788
0.0266171
0.000112368
0.00101216
0.000505987
0.000202772
0.00651954
0.0196393
0.0391671
0.00020802
0.00223625
9.16154e-05
0.000108031
0.0345829
0.0762788
0.00010952
0.000107918
0.000107286
0.000118999
0.00010728
0.000106814
0.047366
9.84651e-05
0.00100796
0.000105536
0.0402573
9.45813e-05
0.000103032
0.000108936
0.000116607
9.39146e-05
0.00056129
0.000126376
0.000105125
0.000100393
0.000117143
0.0934568
0.00010218
0.000121318
0.000147248
0.000131315
0.00927135
0.000239802
0.000104525
0.0639792
0.040271
0.000145804
0.0125639
0.000116592
0.000111647
0.00011525
0.00329785
0.000103082
0.000147584
0.000113532
9.19062e-05
0.000116729
0.0231967
0.000114057
0.0450703
0.0333819
0.0152073
0.0846558
0.0809965
9.58268e-05
0.000121718
0.00021435
9.19037e-05
0.0648904
9.84208e-05
0.000110524
0.0127143
0.000109628
0.000111177
0.000149399
0.011743
0.000124002
0.000110887
0.0647009
0.00010793
0.000110434
0.0409874
0.0300773
0.000105134
0.0152702
0.00013118
0.0190199
0.00988836
0.000107569
0.000142586
0.000271608
0.0459578
0.000107304
0.000104097
0.000105708
0.0459651
0.0812133
0.000106682
0.000143703
0.0130958
0.000105812
0.000118168
0.000116906
0.000179859
0.000132723
0.000102147
0.0355331
0.00908317
0.0001454
0.000169379
0.00010696
0.000117064
0.0250863
0.000279772
0.000116569
0.000146435
0.000127097
0.0395444
0.000145014
0.0226008
0.000116589
9.71642e-05
9.83466e-05
0.0549048
9.6566e-05
0.0327888
0.000101121
0.066717
0.0167578
0.000101733
0.0662933
0.000132976
0.0135758
0.0420196
0.000258372
0.0725073
9.28975e-05
0.0104053
0.0346577
0.000123017
0.000107287
0.000120407
0.00011065
0.000113362
0.000126924
9.88628e-05
0.000110895
0.000144357
0.000103232
0.00011248
0.0390306
0.00979553
0.000102114
9.78349e-05
9.91471e-05
0.000107724
0.000107964
0.0624833
0.00010445
0.00011025
0.0118801
0.000127461
0.000111523
0.000108172
0.0042667
0.000176904
0.0125689
0.0731983
0.0661725
0.0278451
0.0444836
0.0168694
0.000129038
0.0830551
0.000122375
0.000123025
0.0473395
0.000119287
0.0379931
0.0517915
0.0541027
0.000224497
0.00010155
0.000107117
0.000116915
0.00013144
0.0596198
0.000123375
0.0752226
0.127614
9.60862e-05
0.0672602
0.0392059
0.000126769
0.0185052
0.000101692
0.000103392
0.000111583
0.0531626
0.000126992
0.000120879
9.45479e-05
0.000107786
0.000111203
0.0196742
9.30866e-05
0.0642621
0.000101614
0.000113499
0.0668926
0.000175076
0.000282519
0.00204901
0.000131533
0.0240271
0.0440363
0.0640929
0.00019263
0.000129012
0.000119523
0.000107037
0.0449491
0.000112283
0.063893
0.0626634
0.000114669
0.000105285
0.000127134
0.0924117
0.000107323
0.000955113
0.000381868
0.0411011
0.0427829
0.00218347
0.000112267
0.000110185
0.000231603
0.000129823
0.119155
9.21408e-05
0.0728882
0.000112605
0.0631418
0.00753938
0.00012293
0.0872751
0.0137028
0.00012778
0.000112544
0.000175729
0.0132851
0.0218486
0.00010497
0.0383581
0.00491879
9.7077e-05
0.000377188
0.000114874
0.0331202
0.000118079
9.91352e-05
0.000132106
0.000111468
9.22798e-05
0.030575
0.000134932
0.000114057
0.000140983
0.000113077
0.000110084
0.000103013
0.0380391
0.000104251
0.0030775
0.00328682
9.94925e-05
0.00011151
0.00182755
0.000110001
0.0119241
0.000122743
9.44338e-05
0.0292929
0.000106197
0.000112667
0.000122985
0.0243614
0.0393527
0.0328673
0.000105393
0.000147549
0.00172739
0.0524388
9.4056e-05
0.000116774
0.000114199
0.000118083
0.0454963
0.000122744
0.000141491
0.000112915
0.000126796
0.00011237
0.0708594
9.86514e-05
0.0158684
9.40594e-05
0.000121019
0.000113324
0.0735696
0.000107926
0.00029227
9.39438e-05
0.000223301
0.000105047
0.000107876
0.000114912
0.000243615
0.000148168
0.000102051
0.0346172
0.0361667
0.000146442
0.000117906
9.40113e-05
0.000118538
0.0337937
0.000390765
0.00265505
0.0702865
0.000108268
0.000100374
0.000124521
0.000105638
0.000112701
0.000126044
0.0225219
0.000111271
0.000222431
0.015276
0.003241
0.000105539
0.0437562
0.0216632
0.0134128
0.0604222
9.9311e-05
0.000114788
0.000472383
0.0144934
0.00128031
0.0372808
0.000134083
0.000472656
0.000145708
0.0181269
0.000132315
0.000390483
0.000280134
0.000122957
0.000147918
0.000103642
0.000108443
0.000422578
0.000231997
0.000107115
0.000108072
0.0756472
0.000106561
0.0983149
0.000107296
0.0795241
0.000111508
0.0747484
0.000234211
0.0623072
0.00611569
0.00014767
0.0102508
0.000110411
0.000117872
0.0711262
0.000122765
0.000107043
0.000118065
0.000117885
0.000127183
9.56211e-05
0.000104249
0.0283052
0.000106032
0.000105856
0.0560659
0.0117416
0.105789
0.0292457
0.0802237
0.0669976
9.66884e-05
0.0198937
0.000111103
0.000116917
0.000122801
0.0475239
0.000114346
0.000480984
0.000147815
0.0153117
0.000848749
0.000178061
0.000100577
0.000123017
0.000130256
0.0478933
0.000102781
9.82104e-05
0.000107743
0.000291381
0.0678633
9.87792e-05
0.10218
0.000106323
0.132679
0.000168687
0.00010668
0.000103828
9.40462e-05
0.000122841
0.000106827
0.000107399
9.57221e-05
0.00012148
0.000123687
0.0530963
0.000105432
0.0172384
0.0349693
0.000106974
0.000251194
0.000460689
0.000139471
0.000113071
0.000131509
0.000108434
0.0616844
0.000116808
0.000131527
0.000105149
0.0917863
0.0501687
0.00514787
0.0251519
0.0632406
0.000113821
0.000110493
0.0945967
0.000285338
0.000175958
0.000105369
0.000124408
0.000117991
0.000107404
0.0790917
0.000109982
0.0100995
0.000123308
0.000144789
0.000294043
0.000297232
0.000127134
0.0567606
0.000105857
0.000106059
0.000106043
0.0127295
0.0259614
0.000107307
0.000104056
0.0386454
9.87998e-05
0.0773279
0.000102329
0.0535419
9.89639e-05
0.000112258
0.0635551
0.00034944
0.0611526
0.0860592
0.000110951
9.92481e-05
0.000114911
0.00011737
0.0320632
0.000103416
0.00105698
0.000119832
0.000122687
0.0489918
0.000146067
0.0241985
0.0137747
0.0753164
0.0193835
0.00381313
0.000109644
0.000106755
0.000102102
0.000868965
0.0004157
0.000256948
0.000145164
9.92069e-05
0.117075
0.0120624
0.00103639
0.000118213
0.000280465
0.000116789
0.00010533
0.000105673
0.000128287
0.00194597
9.67457e-05
0.000389503
0.000107782
0.00010466
0.00329897
0.000133291
0.000111142
0.0793805
0.00883255
0.000115272
0.049362
0.000102592
0.000102086
9.83871e-05
9.69018e-05
0.000142802
0.000107716
0.00010647
0.0261155
0.0726253
0.000114409
0.000107216
0.0263229
0.00102122
0.000112903
0.000102786
0.000102971
9.76593e-05
9.86532e-05
0.000103871
0.000154539
0.000116672
0.0813891
0.000113004
0.0396935
0.000106764
0.000126918
0.000106932
0.0356559
0.000106733
0.000103234
0.120688
0.000122707
0.000116804
0.0219757
0.0574099
0.0489811
0.0798043
0.000321361
0.0117016
0.000119609
0.0572386
0.0247985
0.000109304
0.0787463
0.0426758
0.000110205
0.000695775
0.000106201
0.000113913
0.0753291
0.111354
0.00169631
0.00345546
0.0344496
0.00010867
0.000110584
0.000109119
0.000169154
0.000103202
0.000112321
0.0226736
0.0272276
9.45887e-05
0.000109391
0.00315581
0.000122255
0.000127261
0.0726807
0.000126563
0.00637771
0.000107199
0.0858694
0.0280668
0.00541707
0.000104961
0.000127505
0.000106187
0.000106674
0.00186669
0.000153594
0.000396914
0.000133572
0.000295447
0.000108169
0.000124585
0.128407
0.0429054
0.000260601
0.0514834
0.000108252
0.000121767
0.000101715
0.00011495
0.00010833
0.0444203
0.000689961
0.0351864
0.000107197
0.0749405
9.90077e-05
0.0530618
0.00041429
0.0723746
0.000112692
0.00155263
0.102361
0.0470957
9.09157e-05
0.00992885
0.034535
0.000148456
0.00010753
0.0914134
9.86963e-05
0.0574447
0.000116726
0.000123214
0.000109228
0.0700413
0.000936253
0.000100611
0.000147954
0.000108313
0.0135814
0.0116133
0.0001091
0.00014566
0.0294414
0.000122447
9.75248e-05
0.000145849
0.0371771
0.042212
0.00847495
9.94018e-05
0.00010625
0.0871106
0.000154113
0.000119103
0.000107199
0.00014517
0.000103756
0.000107414
0.0781752
0.000108544
0.0197202
0.0325608
0.000105884
0.0526136
0.0796972
9.31025e-05
0.000120579
0.0542415
0.000110353
0.000147567
0.00010605
0.000131198
9.26701e-05
9.43475e-05
0.000109397
0.000109394
0.0358191
9.86119e-05
0.00534196
0.00213121
0.000110399
0.0140985
0.000121756
0.0183081
0.000116332
0.00013745
0.000337817
0.00010812
0.000122149
0.00542258
0.000143768
0.000147136
0.0821733
0.000167573
9.68132e-05
0.0199364
0.000100506
0.0288937
0.000113348
0.000111317
0.000105025
0.000106925
0.000113454
0.0550875
0.000109557
0.104775
0.000641435
0.000105181
0.000114299
0.000478904
0.000111636
0.0303514
0.000122788
0.105002
0.00382646
0.000299092
0.0247455
0.000131339
0.000107829
0.000116127
0.00437636
0.000109207
0.0751311
0.000124476
0.000117511
0.000107788
0.000107468
0.000148141
0.000105661
0.000115954
0.000107154
0.000136649
0.000106887
0.000139334
0.000141867
0.0235546
0.0668986
0.0729734
0.00758786
0.000107149
0.0183839
0.00119968
0.000342169
0.000108405
0.0299792
0.000116484
0.000119216
9.84745e-05
0.000145139
0.000112456
0.0844783
0.000102649
0.0743315
0.000102162
0.000177282
0.000100226
0.000139018
0.024581
0.000142518
9.9313e-05
0.000287853
0.000401662
0.000382278
0.000111808
0.0372291
0.0042123
0.000123489
0.0415272
0.00010837
0.0427529
0.0313643
0.000119181
0.000107201
0.000107104
0.000124027
0.0619202
0.000121998
0.000107898
0.0779952
9.13179e-05
0.000356429
0.038247
9.78211e-05
0.073377
0.000130789
0.000108468
0.000107464
9.85192e-05
0.000102004
0.000106324
0.0515392
0.000113077
0.000121701
0.00011191
0.000117542
0.0205872
9.41177e-05
0.000104545
0.000117871
0.000256628
0.00011015
0.000110732
0.000127734
0.000145797
0.000111593
0.0280611
0.000120949
0.000146789
0.0448186
0.000103577
0.000117311
0.000103662
0.0483743
0.000123764
0.000351401
9.76692e-05
0.000123862
0.000107432
0.000107427
0.000104023
0.0369205
0.0395961
0.0430483
0.000132768
0.000193688
0.000107718
0.000106735
0.00159539
0.000106962
0.000105982
0.000177507
0.0668363
0.000117594
0.000133389
0.000102464
0.000106759
0.00957151
0.000359457
0.0753513
0.00023208
0.000348015
0.0971539
0.0654154
9.88286e-05
0.000123878
9.81684e-05
0.000107863
0.0125776
0.138096
0.000108074
0.000107585
0.0017915
0.000112495
0.0596835
0.000103777
0.000107219
9.43288e-05
0.000117114
0.000126715
0.0804488
0.000105601
0.00326358
0.0196558
0.000177989
0.0060871
0.0982326
9.12538e-05
0.000120476
0.000105433
0.000106217
0.0769124
0.000105246
0.000121065
0.0255866
0.000278033
0.0340008
0.00167231
0.00926169
0.000114431
9.59119e-05
0.00535462
9.14343e-05
0.00014559
0.00010694
0.0629404
9.21872e-05
0.0645668
0.0610923
0.000135573
9.3063e-05
9.4835e-05
0.0503606
0.000107087
0.0104937
0.0182512
0.00012809
0.000155624
0.000220268
0.000127183
0.000118139
9.98572e-05
0.000108279
0.0472444
0.000104059
0.000116879
0.000169978
0.0798255
0.000107807
0.0497004
0.000104616
9.80131e-05
0.000106188
0.000112537
9.88802e-05
0.000144699
0.000118755
0.0257595
0.000126716
9.68338e-05
0.0789894
0.000107037
0.000102378
0.000127238
0.000102279
0.000116668
0.0240759
0.00010048
0.0605001
0.0676919
0.0436821
0.0196595
0.000105947
9.18216e-05
0.000142828
0.000107226
0.000111161
0.000109437
0.00129176
0.000107288
0.0448043
0.118315
0.000144304
9.68847e-05
0.000109315
0.0789757
0.000134912
0.00221802
0.000111813
0.000209693
0.000123422
0.000236291
0.000344201
0.000125092
0.000148376
0.000152664
0.0656322
0.0338218
0.0733037
0.000205491
0.000102909
0.0338094
0.000127086
0.000148443
0.000106112
0.000132667
0.0311351
0.000107499
0.122629
0.0611009
0.000103888
0.000118223
9.22742e-05
9.90932e-05
0.000106848
0.0716606
9.07833e-05
0.000114188
0.000462774
0.000455725
0.0778157
0.0772957
0.00796061
0.000102268
0.000779847
0.000122439
0.00246687
0.000143097
0.0617646
0.044595
0.000125677
0.000106861
0.0491989
0.000106634
0.000504331
0.0753563
0.0233942
0.0948663
0.000103887
0.0671105
0.0380987
0.000411006
0.000108384
0.00266407
0.000133658
0.000178689
0.0349115
0.000566497
0.00793849
0.0747607
0.0313028
0.000148011
0.000182784
0.000107016
0.0118106
0.000106153
0.000126635
0.000107659
0.0641144
0.000119112
0.000682421
9.91528e-05
0.000114189
0.0370768
0.0536924
0.00010172
0.000110356
0.000107436
0.0446329
0.0001024
0.000135256
0.0122992
0.000125459
0.0106754
0.000106372
0.000104027
9.29765e-05
0.000101394
0.0326518
9.91913e-05
0.0623757
0.000292344
0.000103531
9.51771e-05
0.100303
0.000112771
0.000122342
0.00013065
0.000111483
0.000247741
0.000132779
0.000189107
0.000100493
0.00269154
0.000103596
0.000132522
0.000824986
0.00187405
0.000198664
0.000100446
0.0801771
0.0364682
0.0110991
0.000116744
0.000110213
0.000130299
0.0690341
0.00010602
0.000127339
9.43272e-05
0.00010893
0.000142894
0.000116678
0.000120348
0.000348999
0.000104586
0.0372752
0.0471549
0.000116838
0.0743255
0.00749864
0.0861342
0.000105759
0.000111572
0.000107535
0.000127425
0.000116401
0.000116116
0.000111333
0.000109221
0.000108706
0.000120572
0.0474343
0.000122253
0.0301751
0.000231154
0.0454454
0.000117095
0.000104183
0.000107916
0.000117186
0.0211284
0.000111408
0.000114788
0.0780789
0.038237
0.000120923
0.000135097
0.0107922
0.0487782
9.81129e-05
0.0349
0.0551479
0.000135832
0.000112744
0.0442065
0.000106415
9.5354e-05
0.000105968
0.00018187
9.41144e-05
0.0342497
0.0444766
0.072926
0.000112581
0.000147135
0.000101929
0.0369927
0.000107124
0.000119491
0.000121726
0.0587671
0.040482
0.000122114
0.00130983
0.000116584
0.000108841
0.000121447
0.0723067
0.000104593
0.000119952
0.000134072
0.0280879
0.00011237
0.000109142
0.000102156
0.000193321
0.000107498
9.56182e-05
0.000137638
0.000107335
0.0219595
0.000101465
0.000107056
0.000144112
0.000895624
0.000115701
0.000123152
0.0218878
0.0646554
0.000104736
9.42779e-05
0.00351924
0.000261182
0.000120626
0.000114041
0.000104198
0.00011549
9.0931e-05
0.0628884
0.0276029
0.000126869
0.000236783
0.0550306
0.0688268
0.00012726
0.000107354
0.000237509
0.000115463
0.000122978
0.0364265
9.28042e-05
0.000126672
0.000101618
0.0227215
0.0164205
0.0437534
0.0336395
0.000112655
0.0419875
0.028964
0.0733644
0.000104224
0.000131455
0.00012745
0.00013357
0.0409147
0.000126877
0.000127033
0.000114216
0.00148424
0.000124211
0.000110342
0.0289735
0.000112363
0.0612443
0.000150224
0.000100666
0.000438126
0.045945
0.000105218
0.000110623
0.000107604
0.0157065
0.000111016
0.00012037
0.020304
0.0214987
0.00117954
0.000110944
0.000133817
0.00661543
9.70533e-05
0.000128054
0.000135687
0.0142144
9.23928e-05
0.00153421
0.000125881
0.0428821
0.0346022
0.000114193
0.0560388
0.000114672
0.0407888
0.000102881
0.0288469
0.000126056
0.000176188
0.0594222
0.00378693
0.000110602
0.000103366
0.0354992
0.000107457
0.000323143
9.90616e-05
0.000148941
0.0763297
0.000149046
0.0430761
0.000100147
9.75025e-05
0.000107434
0.000119665
0.000111971
0.000293833
9.74875e-05
0.0276621
0.000107219
0.0544736
0.0349884
0.000107922
0.000111615
0.00208393
0.00012474
0.000134243
0.0387614
9.8277e-05
0.0383096
0.000114028
0.000103395
0.000147296
0.000123477
0.000106052
0.00500232
0.0194032
0.0373599
0.0050201
0.000132771
0.000150051
0.00245851
0.0338641
0.0339182
0.000111349
0.07237
0.0238827
0.000132188
0.000210487
0.000106328
0.0477867
0.000104574
0.000105793
9.92959e-05
0.000108508
0.00010728
0.00697163
0.000105116
9.41899e-05
0.123214
0.000110505
0.0141424
0.000102841
0.11538
0.000106817
0.000120007
0.000124319
0.000146379
0.000125992
9.72917e-05
0.0242508
0.000143958
0.0565171
0.043991
9.44356e-05
0.000109796
0.000120243
0.0217666
0.000104003
0.0460857
0.0794155
0.000112482
0.0567595
0.0625604
9.55223e-05
0.0463517
9.44922e-05
0.000114044
0.000132417
0.000158965
0.000131652
0.000104607
9.45162e-05
0.0231932
0.000634853
0.0287978
0.000114186
0.000110105
0.00010443
0.000130946
0.000116738
0.000103272
0.000105416
0.000112903
0.0446285
0.074741
0.0573811
0.0001168
0.000109846
0.000115151
0.000123148
0.000507019
0.0807274
0.000107614
0.000466001
0.0432048
0.000114189
0.014291
0.000106242
9.08308e-05
0.000487353
0.000106902
0.000112555
9.51581e-05
9.75271e-05
0.000127978
9.24221e-05
0.000110668
9.58961e-05
0.00013954
0.000111661
0.0369509
9.64678e-05
0.00172155
0.0375868
0.000333276
9.29382e-05
0.000110084
0.000103702
0.000112347
0.000103457
0.0380714
0.000114059
0.000107258
0.00681641
0.0632435
0.000116784
0.0101389
0.000102842
0.070832
0.0141734
0.000109375
0.00010764
0.00013161
0.00249919
0.0541836
0.0835815
0.000113069
0.000116655
0.0840283
0.000115312
0.00610873
0.0359469
0.0502205
0.00014753
0.00736077
0.037995
0.0736957
0.000122617
0.000108082
0.000106137
0.000149529
0.000123014
0.000141922
0.0404161
0.00010127
0.00011405
9.35914e-05
0.000110906
0.000698132
0.000121673
0.000146497
0.0478285
0.000106144
0.000121436
0.000105648
0.000137954
0.000119661
0.000101073
0.0218282
9.2928e-05
0.000123056
0.000128411
0.0983188
0.000145065
0.0331388
0.0310411
0.00932735
0.0259756
0.000104706
0.000106122
0.000371513
0.0336899
0.0415764
0.000150499
0.000114547
0.000147171
0.0398342
0.000111111
0.000103167
0.00333433
0.0482972
9.78215e-05
0.0643431
0.000110615
0.0336228
0.000108666
0.000109311
0.00012333
0.00012755
0.000111485
0.000109998
0.000119462
0.000106853
0.000148363
0.00179824
9.63987e-05
0.000112498
0.00178361
0.0511119
0.00010939
0.00014797
0.000107283
0.00013091
0.000104985
0.000220618
0.00216623
0.000116391
0.000124632
0.000106749
0.0257237
0.00176954
0.0810114
0.000147011
0.000278103
0.000109385
0.0017799
0.014404
0.000105052
0.000109596
0.0491725
0.000109063
0.00010562
0.00260528
0.000355307
0.000106882
9.45962e-05
0.00822635
0.000115767
0.000129543
0.00918585
0.000111719
0.000128072
0.000107267
0.000104735
0.000110578
0.018123
0.000107781
0.000116036
0.000103577
0.000109363
9.56811e-05
0.000107231
0.0421484
9.33555e-05
0.0705662
0.0297692
0.00204745
0.000108245
0.00425986
0.00012705
0.0459629
0.0478114
0.000123751
0.000107659
0.000105683
0.000117113
0.000148575
0.000102626
0.000123223
0.0239435
0.032763
0.102427
0.00150979
0.00010562
0.0758691
9.68028e-05
0.0276597
0.107074
0.0229974
0.000556419
0.000620118
0.0208789
0.0767678
0.0614687
0.000105468
0.0510301
0.000509416
9.96142e-05
9.35487e-05
9.84103e-05
0.0153465
0.000197157
0.000107317
0.000114057
0.000322266
0.0139898
0.000114582
0.000109769
0.000127017
0.000106317
9.57878e-05
0.000103294
0.000111007
9.8536e-05
0.0165252
0.000124121
0.000142169
0.000105271
0.000119469
0.00010736
0.0727891
0.00012736
0.000133067
0.000107672
0.0705826
0.0001127
0.000177631
9.36737e-05
0.000119422
0.000117509
0.000102808
0.000132665
0.000855321
9.59816e-05
0.000145808
0.00010695
0.000109429
9.93156e-05
0.000132256
0.000110211
0.000238879
0.000121259
0.000107249
0.0085659
0.0758334
9.89706e-05
0.000111391
0.000105604
0.000110379
0.0383808
0.00222113
0.000130504
0.0233238
0.000103482
0.000132021
0.000142135
0.000132511
0.0196484
0.000123322
0.0356441
0.0594931
0.00203041
0.0213693
0.000107715
0.0348047
0.0501665
0.000104782
0.000126436
0.000104897
0.000106478
0.000111701
0.069375
9.61852e-05
0.000114036
0.0369046
0.000136787
0.000101175
0.000104808
0.000105805
0.000107646
0.0219443
0.000496468
0.0299584
0.0242458
0.000284365
0.00012284
0.000107169
0.000123951
0.0392138
0.000107845
0.00579937
0.024982
0.0723017
0.00014538
0.000102341
0.0600695
0.0394116
0.00599968
0.0558244
0.000148323
0.0403495
9.44972e-05
0.000103584
0.000108334
0.000149238
0.0641901
0.000111522
0.00010996
0.000142477
0.0406364
0.0243814
0.000103532
0.000116521
9.57932e-05
0.071976
0.00255203
0.000103273
0.0518771
0.02298
0.000151708
0.0510442
0.000917135
0.00018311
0.072234
0.000107196
0.0556426
0.126552
0.000106294
0.0305025
0.000161246
0.0668116
0.000114221
0.0595763
0.000116654
0.000379859
0.0479153
9.77823e-05
0.000129835
0.0802935
9.61981e-05
0.0446275
0.000125251
0.00011161
0.000103663
0.0255046
0.000157386
9.6176e-05
0.000122684
0.000108061
0.000103757
0.000147814
0.000103783
0.000105174
0.0309476
0.000108003
0.0253043
0.0416078
0.0752247
0.000104792
0.00378597
0.0339189
0.000132666
0.000143847
0.0142405
0.000118104
0.00170806
0.0858765
0.00010528
0.0135689
0.00730968
0.000105064
0.0765364
0.000107136
0.00366664
0.000106918
0.0227362
9.88086e-05
0.0418704
0.000112269
0.046853
0.00685051
0.000217497
0.000112775
0.000726908
0.00102556
0.000130204
0.00136749
0.0350398
0.000116243
0.103413
0.000133113
0.000331952
9.86908e-05
0.000134774
0.000116588
0.0426339
0.000107128
0.0419224
0.0216968
0.000107599
0.000112213
9.58193e-05
0.000107264
0.000106406
0.000114784
0.0149244
0.0426985
0.0266973
0.000100599
0.0655026
0.0465687
0.0380317
0.000104135
0.0548056
0.000117135
0.000117641
0.0106748
0.0319044
0.000104546
0.0915988
0.000134843
0.000126502
0.0608034
0.000107501
0.0940703
0.0223667
0.000132582
0.0112829
0.0520798
0.066532
0.000102789
0.0220133
0.000553982
0.000105088
0.000118498
0.000106067
0.0294454
0.0478602
9.88821e-05
0.000108819
9.90447e-05
0.000122926
0.00125267
0.000124473
0.000102637
0.000120986
0.000110057
0.000127637
0.000558764
0.000111971
0.000106262
0.000106761
0.00033012
9.16675e-05
0.00010961
0.0685734
0.0557513
0.000109105
0.0341562
0.000119641
0.0224578
0.064324
0.0338769
0.000124139
0.000117417
0.000110093
0.000136101
0.000106768
0.000112583
0.000146884
0.000112449
0.000116518
9.37015e-05
0.048574
0.000122725
0.00178186
0.0834553
0.000182149
0.000149249
0.000103572
0.000107574
0.000103661
0.0692596
0.0291507
0.000103562
0.000163802
0.000106717
0.000146107
0.000107736
0.000102337
0.0357688
0.0755397
0.000120351
0.000103846
0.000231448
0.000109329
0.0108458
0.000133946
0.0238724
0.000102942
9.77518e-05
0.000113473
0.000106536
0.000158772
0.0567955
9.78099e-05
0.0449731
0.0332157
0.000126648
0.0436069
0.0194994
0.000124831
0.000101606
0.000111977
0.000111376
0.0215168
0.000127167
9.12249e-05
0.000130111
0.0351911
0.000106315
0.0001404
0.0010171
0.00016199
0.0795466
0.000101313
0.000126487
0.000494774
0.000124083
0.000116454
0.000117085
0.0611814
0.000108898
0.0465291
0.000282545
0.0339384
0.000130661
0.0107626
0.000342756
9.46588e-05
0.000108054
0.000107198
0.0729841
0.000109356
0.000106062
0.0683529
0.000105431
0.000103538
0.000215607
0.034197
0.000101883
0.0001106
0.000106299
0.00010153
0.000105709
0.0812988
0.0366209
0.000112707
0.000107857
0.0678321
0.000123964
0.047536
0.0237608
0.0491462
9.41229e-05
0.000116494
0.0767535
0.0453331
0.021749
0.00010293
0.00011654
0.000110832
0.0799486
0.000116276
0.000104823
0.000122943
9.97111e-05
0.000284171
0.000122399
0.000112364
0.000107877
0.000111825
9.40018e-05
0.0001072
0.0768419
0.000109325
0.0642752
0.120226
0.0281065
0.000108619
0.0120512
0.0492222
0.000114072
9.4659e-05
0.0602263
0.000113385
0.0549245
0.000107275
0.000146006
0.000256376
0.000926719
0.000110901
0.000149107
0.000103577
0.000112295
0.000126273
0.0583674
0.000110188
0.103742
0.0091266
0.00010732
9.68722e-05
0.0876305
0.0239589
0.000111065
0.000120484
0.000128545
0.000106877
9.65561e-05
0.0001094
0.00010639
0.000124853
0.0385035
0.000101941
0.0276318
0.00229495
0.000109913
0.068216
0.0482462
0.0001229
0.000102052
0.000107888
0.000119603
0.0255707
0.0420601
0.000111457
0.0673657
0.0288972
9.79085e-05
0.000105789
0.0392599
0.000109102
0.100299
0.025767
0.0403768
0.000720702
0.000113823
0.0547144
0.000235175
0.0681254
0.0342995
9.13695e-05
0.000112497
0.000489597
0.000120852
0.000107955
0.000144972
0.000100376
0.000111442
0.000122939
0.000138839
0.000127137
0.000140258
0.000108138
0.00350154
0.000295547
0.000111647
9.37372e-05
0.0486843
0.000125774
0.000134671
0.000225104
0.000135793
0.00010345
9.49182e-05
0.0124036
0.00010947
0.00010545
0.0649605
0.000103965
0.000146059
0.0296628
0.000250465
0.000105744
0.000105366
0.000135894
0.000139739
0.000159522
0.000110402
0.000112694
0.0743518
0.0368231
0.000108015
9.31189e-05
0.0001077
0.00106072
0.000109329
0.000112298
0.000116331
0.000131402
0.000114191
0.000107013
0.000136135
0.000101767
0.0572702
0.000147871
0.000709505
0.0387166
0.000112947
0.000120448
0.000145464
0.000111438
0.000104508
9.45179e-05
9.60859e-05
0.00911533
0.000248791
0.0121979
9.53821e-05
0.000579762
0.000122593
0.0010127
0.127051
0.000112535
0.000124181
0.000126009
0.000114079
0.000196384
0.000116487
0.000126139
0.000757154
0.000138291
0.000123253
0.000137746
0.000111313
0.00948945
0.0890175
0.000103838
0.000107124
0.000114132
0.0700324
0.000128944
0.000381561
0.000128985
0.000104786
9.675e-05
0.000125718
0.0224371
0.0720853
0.000906694
0.000141433
0.000109568
0.000130973
0.000119629
0.0881122
9.98938e-05
9.41778e-05
0.0001774
0.0564162
0.0332368
0.0200606
0.0328174
0.000119487
9.98224e-05
0.067047
0.0789633
0.00176331
0.0100951
0.000105213
0.000110587
0.0363902
0.000111837
0.000102684
0.000107489
9.4619e-05
0.000112212
0.000137169
0.0467582
0.0213675
0.000121825
0.000122744
0.00011106
9.5988e-05
0.000119094
0.0173836
0.000132428
0.000131169
0.000112557
0.000106696
0.000103711
0.00011713
0.000117585
0.000116857
0.00011958
0.0732719
0.0450565
0.000260435
0.000109264
0.000105852
0.00012056
9.94832e-05
0.000356393
0.00115584
0.0330748
0.0587248
0.00013614
0.00011764
0.000104927
0.0384539
0.000106439
0.000148187
0.0018718
0.0224512
0.0363838
0.0658515
0.074654
0.000135283
0.055829
0.000106617
9.47235e-05
0.078905
0.000121646
0.000136618
0.000285067
0.000107775
0.134746
0.000113111
0.0772397
0.000108321
0.000120088
0.000118304
9.11942e-05
0.000125769
0.000106305
0.000131783
0.000101843
9.83291e-05
0.000903937
0.000129276
0.0473182
0.000105692
0.0889857
0.000123378
0.00297255
0.0182721
0.0273885
0.0101402
0.000227507
0.00672548
0.000106711
0.000132038
0.000105686
0.00011287
0.000593813
9.31944e-05
0.000108598
0.000106588
0.000106876
0.000124196
0.0538119
0.000101902
0.000104235
0.000106102
0.000107656
9.52753e-05
0.000190453
9.63201e-05
9.59796e-05
0.000122906
9.47421e-05
0.00988864
0.000118682
0.0282466
0.000111133
0.000121743
0.000114194
0.000142977
0.000131229
0.0441185
0.000148429
0.0147292
0.0871261
0.000133287
0.000121507
0.000107165
0.0446205
0.000112568
0.000113709
0.0608969
9.37849e-05
0.000148012
0.00011573
0.0566886
0.000111649
0.0566058
0.00011251
0.0321911
0.000228558
9.27202e-05
0.000140175
0.000128001
0.000107977
0.0361748
0.0434104
0.000132329
0.0275184
0.000103585
0.000103844
0.0245483
0.0427906
0.000132437
0.00010296
0.0543491
0.000128493
0.0381919
0.000120755
0.000547645
0.0322779
0.0400346
0.000680529