/*--------------------------------*- C++ -*----------------------------------*\
| =========                 |                                                 |
| \\      /  F ield         | OpenFOAM: The Open Source CFD Toolbox           |
|  \\    /   O peration     | Version:  v2012                                 |
|   \\  /    A nd           | Website:  www.openfoam.com                      |
|    \\/     M anipulation  |                                                 |
\*---------------------------------------------------------------------------*/
FoamFile
{
    version     2.0;
    format      ascii;
    class       volScalarField;
    location    "100";
    object      ddt0(omega);
}
// * * * * * * * * * * * * * * * * * * * * * * * * * * * * * * * * * * * * * //

dimensions      [0 0 -2 0 0 0 0];


internalField   nonuniform List<scalar> 
18355
(
-2.58737
1.10157e-06
-0.0502458
2.32263e-07
-0.0849383
0.646422
-2.47381e-05
-0.0668898
-5.20448e-06
-0.0868446
-0.000404492
0.0174838
0.0165216
0.444089
-9.52394e-07
1.15425e-06
8.08582e-09
-0.000133734
-0.000555348
0.00010965
-0.233479
-1.84714e-05
4.89566e-07
0.80019
4.23782e-07
-8.43784e-05
-6.00889e-05
1.18231e-06
-7.75596e-06
-0.000298885
0.303686
0.00182293
2.95555e-07
-5.08723e-07
9.96962e-06
-1.00628e-05
0.000651592
-1.88064e-05
-0.000358631
-9.64625e-06
-5.97433e-07
-0.0003982
-1.43086e-07
9.232e-07
1.10221e-06
-0.175037
-8.7282e-07
-9.10494e-07
0.557369
4.95242e-06
-5.47712e-06
-1.22092
7.49045e-06
-0.00229327
-4.624e-07
5.23663e-05
-2.30448e-06
1.97832
-9.0149e-05
1.84906
-3.71445e-07
0.00583858
-0.0037805
0.000464402
0.00223934
-4.55301e-06
-3.27575e-05
0.000632823
-1.45258e-06
-0.136126
-6.91198e-06
-6.11026e-07
-0.000109685
-0.000192972
-0.0336197
-1.28952e-06
2.22753
-1.19326e-06
-6.8486e-06
-0.0212076
-4.50275e-05
0.114699
-1.44017e-06
-9.98647e-05
0.00359535
-8.72605e-06
-5.32946e-06
0.00123367
3.88906e-07
0.00147231
0.273692
0.0908173
0.194316
1.71296e-06
0.0084329
0.00020406
-1.01746e-06
-0.00110074
0.000358231
-9.44487e-06
0.00251972
-4.94701e-06
-9.81876e-07
2.08399e-07
-4.29545e-05
1.01147e-06
0.00184451
0.0866926
0.00182746
1.05075e-06
-2.36812e-06
-6.79583e-06
-0.000814883
-0.000116799
0.151875
-0.000410429
-4.99536e-06
-0.020298
-5.1125e-05
-4.69036e-05
0.041044
-0.0267992
-0.0618034
0.00443599
-0.000509144
0.0440457
-4.31007e-05
-5.76066e-08
-2.66619
-2.40701e-06
-1.05787e-06
-1.46083
-2.14786e-06
-0.00303934
0.00664838
1.46648e-06
-0.00394437
-0.504489
4.54882e-08
-0.0998078
-1.04974e-05
0.117731
-1.86964e-06
1.34103
0.00790712
3.87585e-07
2.29619
8.51451e-07
-0.00100535
-0.0170196
9.03629e-07
-3.05359e-05
-0.000222304
0.00119591
1.54689e-08
2.37926e-08
-1.33638e-07
-9.07627e-06
-1.87162e-06
-3.82773e-07
-0.000252626
-2.73211e-06
1.1451e-06
-0.0146389
7.04522e-05
0.100039
1.65131
-0.226696
-0.707644
0.000127418
-1.39505e-06
-0.0057431
-5.83678e-06
0.838311
7.85713e-07
3.40011e-07
-6.47094e-06
4.91331e-07
2.08397e-05
0.00025777
-6.97965e-06
0.0866753
-1.93608e-06
1.54213e-06
0.0306134
-3.15213e-06
-8.10947e-07
0.00167486
9.11585e-07
-7.35852e-05
-0.191707
0.00249723
1.50828e-06
-8.60732e-07
9.4052e-07
-0.173467
-3.63134e-06
-0.169371
1.25592e-06
0.364841
-4.28132e-06
0.000135885
-0.00067078
-3.52681e-06
-0.426419
1.48197e-06
-0.654527
1.4185e-06
-2.31304e-06
-8.26252e-05
-8.75664e-06
-0.00158347
0.000392528
-0.00013115
3.24402e-06
0.902919
0.000252948
0.000229261
-3.57648e-06
-1.54773e-06
0.00112705
1.10487e-06
0.0024599
-0.000564061
-0.0142589
-0.000138175
1.45725e-06
-0.486183
-0.179716
0.000113663
1.95567e-05
-2.4824e-05
0.170164
1.27504e-06
-0.0159211
0.0126795
2.95148e-05
-0.394261
0.000175227
2.04082e-05
1.42352e-06
6.49515e-06
-3.97806e-05
1.42734e-06
-6.20433e-07
2.04434e-07
-3.89492e-07
-0.00937499
0.350274
-1.16429e-05
0.000297815
0.195184
0.0103501
-0.000213359
5.8088e-07
0.0495755
0.000138273
1.16746e-07
-0.00104499
4.22483e-07
-0.0170924
-0.111289
0.00531339
0.000370771
-0.00117131
0.000117008
0.0166398
0.00245876
7.63631e-07
3.16916e-08
-4.51839e-05
8.60899e-07
0.000160085
0.000207325
1.30772e-07
-1.17826e-05
-5.16585e-05
1.56704e-06
-0.00112306
-0.615405
1.7486e-05
-7.8553e-06
-0.00053137
7.2658e-07
0.00204675
-5.64718e-08
-6.83136e-05
4.86152e-07
-0.000107884
0.0135569
4.47672e-07
0.00219809
-5.94387e-05
0.00147873
0.0600282
-1.52466e-06
-8.64188e-07
0.00089421
-1.10221e-05
0.107784
0.000486293
0.059646
0.0020311
0.00483243
9.80222e-05
-0.00126908
6.30716e-06
0.000261915
0.000327598
0.00500893
0.0974426
-0.0620135
-5.19661e-07
1.00833e-05
-0.00631487
-0.00063489
-3.21559e-07
-1.09469e-06
2.00187e-07
-0.000775168
-0.0558744
0.0541635
0.090753
0.000397609
-4.91088e-06
0.186618
-4.65727e-08
1.46022e-06
-4.91461e-05
-5.61432e-07
0.000288818
1.03505e-05
0.404602
8.6824e-07
-0.0431433
-1.13066e-07
-2.02857e-05
0.000101901
-0.0654991
0.0430341
-0.000101904
0.071553
-1.48802e-05
2.1583e-07
-1.01549e-06
5.88632e-05
0.045393
-2.70839e-07
8.95211e-08
0.0337527
-8.42817e-06
2.1723e-07
-0.0397377
-0.0007695
-6.44005e-08
7.14175e-06
-0.000183612
-2.06303e-06
-0.000357821
7.78343e-06
-2.72557e-07
-1.13197e-05
2.7963
0.119027
1.45987e-06
-1.7887e-06
-0.00527861
4.19071e-07
-2.43907e-06
0.176515
0.0964482
-0.00153745
-1.15397e-06
3.1753e-05
0.0111859
-0.000954361
0.034139
0.000128668
4.58494e-07
-0.00594373
0.001399
-5.72996e-06
-2.09249e-07
-0.000168371
6.01544e-07
-8.62208e-05
9.51034e-07
0.00690311
-9.90984e-05
2.18411e-05
-6.32883e-06
1.52302e-07
0.000130595
-7.32911e-05
-0.0129773
4.73182
0.11684
5.65757e-05
0.00484293
-0.00405496
2.54337e-08
1.099e-05
0.00114796
1.15202e-06
-2.07554e-05
-2.36035e-05
-0.000205506
0.257228
-0.0470045
0.0227984
0.00346479
1.87834e-07
0.0794328
-5.64602e-06
-1.82905e-07
-0.287203
-1.55315e-08
-0.00123722
0.00063298
0.0037238
-1.92616e-07
-0.0045337
-0.0157111
0.00292972
2.80086e-06
1.08073e-06
0.00349826
-4.67975e-05
-1.6592e-06
0.0550938
-0.147716
-3.84475e-07
-0.00196357
-0.0159849
1.16655e-06
-6.84161e-05
-0.000251728
0.0279829
0.0017656
-4.33019e-06
8.61541e-06
-0.00114871
1.27414e-06
-6.94412e-07
3.45255e-06
-0.0228131
3.10649
5.701e-07
-1.11357e-05
5.63112e-07
-0.0975314
0.00855385
-1.88221e-06
-0.00197116
0.00239017
-3.03727e-06
-0.0412652
-0.00325815
-5.17231e-06
1.01843e-06
0.00181797
-0.046544
0.808587
9.25876e-07
-0.00620696
-4.0366e-08
1.05166e-06
0.000279645
-6.3788e-05
0.00184657
0.00066119
2.30669e-05
-0.000207771
-1.60948e-05
-0.048415
-6.40349e-05
0.000235199
-2.33183e-05
9.37392e-07
3.4193e-06
1.08307e-06
-0.0126981
3.8736
0.00213834
-1.18902e-05
5.69512e-07
-1.54608e-05
-0.000113386
3.88077e-05
-0.000309756
7.46392e-06
1.93798e-06
0.00158219
1.48677e-06
-0.00103486
0.268622
-0.214357
-0.00746818
-3.91107e-06
-9.94859e-06
-0.000314486
-1.25712e-05
-0.00859285
0.0675111
-5.74732e-05
-0.000150235
0.000172475
-3.81397e-06
1.06873e-05
0.225816
0.0005609
-1.54845e-05
0.0891711
-2.28928e-06
-0.0326039
-0.136325
0.0001646
-5.10399e-05
0.16637
2.87607e-07
0.00379811
0.00162534
-0.0776681
-9.11008e-05
1.13184e-05
-1.27162e-06
-0.0119456
0.926193
-0.0857161
-0.0328132
0.000125434
4.54987e-07
-6.01341e-05
4.25801e-07
8.21639e-05
-0.18784
0.745659
3.53726
0.0137806
-0.000345874
0.000792486
-0.000889212
-6.13365e-07
2.99772e-07
-0.000354876
0.000349429
-2.93836e-07
1.77014e-07
-0.0433964
-5.15701e-07
0.00415357
0.000292474
0.0104465
0.0225533
-1.5389e-07
-0.000132249
-2.11034
1.99186e-06
3.21445
4.62283e-08
1.2102
0.000605164
4.06019e-07
-0.000732938
0.00156198
0.00253021
-5.33371e-06
-1.61953e-06
-0.000306913
0.000106512
-0.000970071
1.00454e-06
0.0121268
-2.11467e-07
0.0524518
1.14947e-05
-1.40817e-06
-0.0224247
-0.000184798
0.00825061
1.25997e-08
-0.000142358
0.00310063
0.33065
0.0178334
0.000146689
0.00490707
-6.06033e-07
-0.000437683
-2.32978e-05
0.000151467
0.100791
9.50638e-07
0.138633
-6.35733e-06
-9.03441e-07
8.2683e-05
-0.00273441
-0.00235993
0.00619982
0.00023118
-0.000708998
-0.0310916
-2.25022e-07
-1.88495e-07
-1.34423
0.000948028
0.175782
0.00100955
-1.79924e-05
-4.79859e-07
-8.9339e-06
-8.00523e-05
-3.16233e-05
0.000269084
-0.0129003
-1.44221
-1.07213e-06
-0.0833551
0.0395235
-0.000316976
-0.108333
-8.15101e-07
-1.27683
0.0197589
-6.8317e-06
-0.0302851
-0.000197217
0.0668499
0.250842
6.33204e-06
-1.01058e-05
-5.17202e-06
0.0411192
0.000483525
4.15939e-06
-2.15956e-05
-0.00761137
-2.17372e-06
0.00118699
-1.14007e-05
-0.000160138
0.0256282
0.00558318
-0.0515564
-0.012095
0.00222925
1.68674
-0.000143521
-1.77594e-06
-0.000252175
0.127045
0.0013139
-0.000967453
3.22349e-06
0.199392
6.23731e-07
-1.51906e-05
0.354674
-3.33628e-06
-0.000258004
-0.00301541
0.00360891
1.73344e-07
-2.19867e-07
8.51232e-05
-0.000138953
-2.44952e-06
-2.64063e-05
-0.00150863
-0.00525362
3.28292e-05
-3.23789e-06
0.00251609
-0.00667873
3.50463e-06
-0.0186541
0.134743
-2.89423e-06
0.0929905
4.99207e-06
-0.0299783
1.17354e-06
0.000617685
0.0347691
-0.000130433
0.0091147
-2.63612e-06
-8.95415e-08
0.0406396
6.92072e-07
7.70076e-07
1.34339e-07
-1.85345e-06
-0.000239806
0.00163388
0.0601687
-7.25078e-06
2.86095
-8.07666e-05
-0.0122527
-0.597804
-6.30253e-05
-9.858e-07
-0.000142862
2.78915e-05
0.0164778
-1.24385e-06
1.25284e-07
-2.24476e-06
3.9014e-06
1.68291e-06
0.0327353
-2.04067e-05
0.00341582
0.000180645
8.00564e-05
-0.000128842
0.000693199
-0.0785471
1.56578e-06
-0.00858972
0.00331032
1.57634e-06
0.68441
0.0364243
-1.24155e-06
-0.0254143
-1.4663e-06
0.158085
-0.000898218
-5.54971e-06
0.000167439
-0.000243083
-0.0448939
-1.83503e-06
0.000169973
0.0219888
0.00648977
-0.00537302
1.53773e-06
-0.136051
-0.0268895
-1.30912
7.42218e-07
2.06416e-05
9.80257e-06
-6.83287e-06
3.40413e-07
9.55228e-06
8.96416e-07
-0.0267065
0.000247429
-1.3285e-06
-6.86182e-07
-1.73341e-06
-9.69958e-06
0.00737856
-0.0239528
-3.38239e-06
-0.000163412
-5.1264e-06
-4.8686e-06
2.51688e-06
-1.77078e-06
0.000129665
-9.10952e-07
-1.43643e-06
-2.24905e-06
-4.22907e-06
0.000191046
0.0012373
0.136273
0.593026
6.62889e-05
-1.19139e-06
0.0322324
-4.6446e-08
-7.62333e-07
0.00121181
-0.000853022
-0.000223504
0.000859573
-5.31538e-10
1.40831e-06
-4.43087e-05
-1.49859e-06
5.19601e-05
-1.03528e-06
-3.05832e-06
1.26273e-06
3.77812e-05
-0.0367667
-1.79234e-06
-6.04699e-06
6.59849e-07
-0.00447579
-0.0921989
0.000369213
-3.00392e-05
-0.0033931
0.000314059
-0.00129262
0.340473
-6.00548e-06
-0.0521012
-6.34464e-06
0.000647868
1.29473e-05
3.62613e-06
1.68475e-05
-0.0997921
1.41897e-05
0.000360624
0.0156358
-0.0678682
-0.000517592
-4.55902e-06
-1.73246e-06
8.093e-06
3.15243e-06
0.00025233
-0.0280325
0.429395
0.00151426
-1.20496e-06
-1.44651e-06
-8.68481e-06
1.71947e-06
-2.90627e-06
-7.88389e-06
0.000887714
-8.05577e-06
0.25755
-5.10847e-07
1.0318e-06
-0.00119737
-1.09787e-07
-0.0989315
0.00133169
0.0021189
0.00280721
1.97495
-0.000807392
-1.31527e-06
-1.49536e-06
9.14578e-06
-9.02776e-07
0.0419284
0.000459955
0.00865196
2.19896e-06
-4.18675e-06
-6.6092e-05
-3.30661e-06
0.368375
-0.051771
-1.00846e-06
1.5792e-05
-7.48151e-07
9.89326e-07
-5.17779e-07
7.17043e-06
-0.0309288
1.08884e-05
-1.18099e-05
1.73575e-06
-1.1119e-06
1.55597e-07
-6.90917e-06
8.73621e-05
-1.09725e-06
-6.0563e-05
-2.283e-06
0.0368654
-0.122518
0.000146851
-0.0570933
-0.00113148
9.14221e-06
-0.00850473
-0.190303
5.54287e-07
2.70608e-07
3.59716e-07
-0.0117862
-2.52214e-06
-0.000687993
0.00183406
-7.37848e-06
-5.25716e-05
1.86029e-06
-0.000523313
0.0521046
-5.78342e-06
-2.47268e-07
0.000367774
0.00283457
1.95567e-06
0.00252353
-1.47213e-07
5.64076e-07
4.66303e-05
-0.0416685
-0.0412689
0.170558
-0.00675812
-2.41236e-06
0.050371
0.00313506
0.000401353
3.14007e-06
0.00764168
-0.000122918
-0.0128225
-0.0351476
-9.85325e-07
-1.53055e-06
4.97873e-07
2.6412e-05
-2.39719e-06
-0.032564
0.171126
5.34027e-07
-2.16249e-06
-3.09618e-05
0.00256283
4.46655e-06
8.26863e-06
-0.00069622
-2.88481e-05
0.000370423
0.125034
-0.00136365
0.0108029
-7.91215e-07
7.20767e-07
6.31934e-07
-0.00144962
0.000475061
-6.39046e-05
1.0504e-06
-1.77429e-07
0.000352952
-0.15195
9.15218e-07
9.20428e-07
0.00442738
-1.39915e-07
1.19512e-06
1.48699e-06
-0.38412
1.03333e-06
-7.45048e-08
1.04336e-06
-0.00293477
6.22405e-07
0.000416546
-0.039722
9.50415e-07
0.000252129
0.000943577
0.0196248
0.00302362
2.91825e-07
0.000198616
2.58596e-06
1.25968e-06
6.37186e-07
-0.356073
0.059906
-0.0157966
0.000658906
0.130098
-0.00959446
-3.62987e-05
-0.00377904
-0.00790023
0.000186306
-8.40271e-06
-0.178137
5.80322e-05
-3.43133e-06
-3.16944e-06
0.0730151
-0.807855
0.1344
7.12024e-07
-0.00869475
-0.00708236
-0.000324189
-0.000578543
-0.000268829
-8.7592e-05
0.000177807
0.150314
4.38506e-07
4.88046e-05
-0.000320281
0.464004
-0.0936774
4.65749e-06
-9.95752e-07
-4.25843e-06
-0.0634647
0.000113946
-2.13861e-05
0.070976
0.00043168
-0.000828739
-0.000265489
-0.0187387
1.57604e-07
-0.00246504
-1.99752e-05
-2.6644e-05
-1.74252e-06
1.75592e-05
-2.652e-05
3.92577e-07
-1.40937e-05
0.0238721
-4.2772e-07
-0.00682434
0.000200717
-1.01867e-05
-2.55889e-07
0.0200306
2.84513e-06
5.3243e-06
0.000300152
0.105923
0.00384218
-0.000112158
8.54209e-07
0.129026
9.55185e-08
0.00106286
1.05905e-06
0.159331
-0.000735376
0.0255784
7.29454e-05
2.57095e-06
0.0702598
0.0532772
-0.072492
-8.74178e-07
9.38305e-07
-0.00164892
0.120819
3.18449e-07
0.00213464
0.000252725
-0.000314469
7.65803e-07
1.42058e-06
-8.24846e-05
-3.08751e-05
1.01734e-05
-0.00127019
0.000405094
-0.000225021
0.0196393
-0.124418
7.334e-06
-0.0603096
6.58949e-07
0.0157045
0.248898
0.0310313
-1.79587e-06
-0.000258109
-1.00728e-06
0.609787
1.13323e-06
-8.06484e-07
-0.0107444
-8.09925e-06
7.49654e-07
-2.2181e-07
-2.49699e-05
-1.98299e-06
-0.160842
-0.00876974
-0.00467503
1.30274e-06
-4.10191e-07
-0.161606
2.9168e-05
-0.0195516
8.02125e-06
1.91571e-06
-1.75214e-05
9.26206e-05
-0.190719
0.000700048
4.36978e-06
-0.290386
-2.05428e-06
-1.75888e-05
-0.000677293
0.218849
0.137362
3.51395e-06
-1.24985e-05
0.194779
-0.0175383
-1.75677
-0.00227585
0.000653793
0.0232814
5.70188e-06
-0.000383485
-3.95151e-05
-0.354829
-0.000136788
8.05814e-07
-2.1046e-05
4.98649e-05
-0.0694856
2.09012e-06
-2.92704e-05
-0.11424
-0.0160158
0.0325064
-1.38211e-05
-5.49784e-05
1.66267e-05
-1.3386e-06
-1.65225e-07
5.52104e-05
-2.43032e-06
-2.29391e-05
1.84242e-05
-2.1277e-05
0.00184316
-0.000108927
-0.00228911
-7.31123e-05
-0.00011989
1.79353e-06
-0.014734
1.26404e-05
-3.09958e-05
-6.13021e-06
2.46562e-05
-3.15872e-06
-0.000394846
-3.67221e-06
1.1507e-06
-4.04022e-06
4.08813e-07
0.196857
-0.0625801
-5.2924e-06
-0.0309609
0.00020339
-6.82955e-06
1.59824e-05
-3.33456e-05
0.116246
3.38884e-05
1.3747e-05
3.14429e-07
9.17381e-07
-0.663408
5.30351e-06
3.81584e-06
-0.00839014
-1.58296e-06
1.77853e-05
0.0004542
-0.000355433
0.0161499
-0.00467414
0.102166
3.73367e-06
-0.193798
0.00038327
-1.65398e-06
1.04103e-06
0.00014371
-8.16469e-07
0.000599846
-0.000182026
1.9935e-05
-4.5303e-06
0.130023
0.00666198
0.0187796
0.0397978
-0.119176
0.0387877
9.62834e-05
-0.0112088
-0.482763
2.25353e-07
-0.231557
6.40446e-07
-2.41417e-05
-0.0329623
9.54423e-07
-0.0957895
-0.00019109
-6.71207e-05
-6.15019e-05
0.00264948
9.24695e-07
0.00104258
-2.04754e-06
6.33724e-07
0.155061
2.82059e-06
0.000190804
-3.93473e-06
0.00239875
-1.00388e-06
3.25679e-07
-5.32153e-05
-0.177893
-5.11787e-06
5.4557e-06
-2.62471e-06
-1.39331e-05
-1.16886e-06
-3.14573e-05
0.0322159
-2.21606e-06
7.14325e-05
-3.31561e-06
8.80241e-05
-0.00255555
-6.63756e-07
-1.27695e-06
-0.00216898
-9.41539e-06
1.98649e-05
-0.000275768
-0.0108467
-6.61281e-05
-3.59631e-08
-6.79587e-09
2.30303e-05
0.0311538
-6.32224e-05
4.05704e-07
-2.24328e-06
-9.57266e-07
-6.31682e-07
2.27509e-05
-0.000412143
-0.00937807
0.0035031
-5.12103e-06
0.504737
2.28451e-06
-0.000670237
0.19432
0.000703755
-2.56551e-06
0.00297722
-0.000208937
4.13326e-07
-0.272393
-2.03215e-05
-0.000292505
7.41945e-06
0.0196919
1.3731e-05
7.09926e-06
1.9981e-07
0.0165542
0.00557608
1.08843e-06
-1.11259
7.44549e-07
9.41357e-06
1.25062e-06
0.0361142
-1.47849e-06
-2.61551e-07
0.00113117
-5.23622e-05
-5.62013e-07
-5.29841e-06
-5.75139e-07
3.24508e-05
1.01643e-07
1.90828e-06
-6.3351e-05
-6.04456e-06
0.113659
-0.000399214
2.35702e-06
0.418074
0.000237539
-1.84853e-06
2.92211e-06
-5.613e-06
1.58295e-06
-0.000108048
0.000295391
0.0258415
0.0448474
-1.73747e-05
0.00800864
0.00326899
-8.91808e-07
-5.70413e-05
0.00245199
0.000238185
-0.0167336
8.03301e-07
0.000481502
0.00109615
0.00131097
0.000817163
0.000197914
-5.8459e-07
-0.00414847
4.03071e-06
0.000106654
4.02688e-06
0.0087581
-6.22274e-07
0.000249302
-0.000115346
-1.28059e-05
-0.303889
0.00098356
-0.000110784
0.000161026
0.00052182
7.63471e-05
-0.00395698
-4.69924e-06
0.00148664
-0.138215
-2.01223
-0.000137517
-0.00534758
-0.000128711
7.44923e-06
0.000598485
-1.85606e-07
-0.097964
-0.00184272
-6.0047e-06
-1.74929e-06
0.307752
0.000664467
-2.66943e-06
7.4842e-07
-0.312578
-1.65657e-06
-3.95171e-07
-0.132641
-0.00197376
7.08683e-08
-0.93438
-1.51874e-06
0.00329201
-0.000188924
-1.46722e-06
6.31052e-07
-0.00169187
0.0216303
1.69197e-06
0.000191815
1.34482e-06
-7.86238e-07
-4.86501e-08
0.332499
9.55881e-07
-3.03257e-06
5.68764e-06
-0.00334021
0.000324156
1.9462e-06
7.59848e-06
-0.0110349
-3.27115e-07
5.26635e-07
0.797688
1.59795
-1.61343e-05
-0.118658
-0.00108336
0.000875388
0.000257911
0.00231213
-0.215703
0.000817941
-0.0025402
-1.60386e-06
0.000111608
-8.27614e-07
-0.137211
0.0472131
-3.99692e-07
-6.40281e-05
-1.59663e-06
9.499e-06
-0.686136
-1.2309e-06
-6.18351e-05
1.50358e-05
0.00186393
-8.21213e-07
-3.01257e-06
0.000324051
-0.100687
1.82183e-06
-1.08045e-05
-6.98345e-07
3.12893e-07
1.08798e-05
-0.00200677
9.88478e-06
1.92666e-06
-1.12857e-05
3.80291e-06
-4.19089e-07
0.329469
-1.64537e-05
-9.41783e-06
1.57957e-06
-0.00585048
-3.81363e-07
4.95259e-07
0.00222418
1.05358e-05
-0.00487383
5.87595e-06
3.62393e-06
0.01165
-0.00493034
-0.540091
0.0308922
-0.000372655
-4.67802e-05
-0.104
3.09809e-06
0.000112085
1.50115e-05
-0.148318
2.34917e-07
0.000106678
-1.28332e-06
-0.409562
0.000956437
-0.00131239
0.0111388
-6.40029e-05
-0.0014387
7.99991e-07
-2.78325e-05
-0.465242
0.000657007
-8.94338e-07
-1.52703e-06
5.7104e-05
6.25317e-05
5.33115e-07
-1.19319e-05
3.13629e-06
0.0001168
-0.0161667
-0.018655
-4.10637e-06
0.000593182
0.839899
0.0663814
0.000173932
0.00071199
-4.58765e-05
0.000276866
-9.43946e-07
-0.00064129
0.0278298
-1.13017e-06
-1.58177e-06
-1.0648e-06
0.0196245
-0.0201223
0.000288845
-1.90218e-06
-2.96199e-05
0.000126947
1.44075e-06
-0.000231462
0.00160185
-0.14942
-1.16146e-05
-0.0430392
6.91431e-07
-2.73316e-06
1.13279e-06
2.52115e-05
-2.57043e-06
-7.4013e-07
0.069939
8.05583e-07
0.0651928
-0.000235393
-7.07368e-08
1.57239e-07
-0.00848526
-4.08398e-05
0.00103529
0.0031043
1.4282e-06
-0.0633077
0.00108889
-1.17798e-06
-3.31614e-05
-0.141061
-0.00426152
-3.76918e-05
1.6859e-06
3.62347e-05
0.000360661
0.0113942
-0.0894915
0.000123593
2.38931e-05
-0.0128325
-0.0300571
-1.20261e-05
6.03021e-08
-0.0518805
0.000147696
0.123476
-0.000148312
1.64376e-06
-0.00233771
0.0109791
-0.0435479
0.0141731
-0.00878277
-5.73598e-07
7.91403e-06
-8.75206e-06
7.47287e-07
0.000125678
-1.90023e-06
-3.1539e-06
9.57547e-07
3.21588e-05
0.000577661
-3.95598e-05
0.00013048
-3.31019e-05
-5.00334e-06
9.05316e-07
-0.000286644
-0.00178344
0.00212891
-1.12552e-06
-3.72882e-07
-0.0143477
0.000798282
0.000573614
-5.55193e-05
-0.129994
4.80336e-07
0.00232977
7.9857e-05
-1.05653e-06
7.241e-06
0.0277192
-0.25192
0.000113304
-0.000875994
-0.000119135
0.00153302
-1.11263e-06
5.17917e-05
-0.00182969
7.19625e-07
0.00422475
-2.30153e-06
1.19247e-06
0.000635412
2.42145e-05
5.59155e-05
-0.0300008
0.264946
-0.0063769
-1.3745e-06
7.0972e-07
-2.16093e-06
-0.00189705
-2.33139e-05
-0.100468
2.5899e-07
1.85306e-06
1.44282e-06
0.00591513
7.57848e-06
8.1474e-06
5.70166e-06
0.017077
4.46852e-07
0.250936
-1.57184e-07
-0.00388268
-4.13266e-05
0.000390477
5.73949e-07
-9.28041e-07
-0.0214656
0.027717
-1.0791e-06
-0.00339743
1.66235e-07
-5.57011e-06
-5.54899
-0.0101478
-1.53524e-06
-1.41401e-06
0.000226243
5.20381e-08
7.10838e-06
2.14076e-05
-1.21505e-05
0.00306388
0.00269059
1.83098e-05
0.000243357
0.0759123
-3.72654e-05
2.83887e-07
-9.17488e-07
-0.00266525
0.00083307
8.64829e-07
0.109972
-7.47374e-05
-0.120624
0.000113373
2.7197e-05
-5.12334e-07
-1.94672e-07
-0.0401924
-0.000158594
-8.83819e-05
-2.88078e-06
0.000534461
0.0474636
6.43907e-05
-0.00403632
-1.33228e-05
2.10467e-06
4.56788e-05
-8.54708e-08
6.05801e-05
7.2639e-07
-0.00155329
-1.03162e-05
-2.20324e-05
0.1638
0.000211871
0.0158673
5.44308e-07
-0.00244232
-6.63739e-05
-0.0769352
0.00231967
-0.175558
-1.72068e-05
8.94902e-06
-0.00150525
-2.23715e-06
0.0047115
1.46301e-05
-0.0130629
-3.34873e-05
0.0506419
0.294704
-0.000142597
-0.00330158
1.53969e-06
-4.75756e-07
1.89605e-05
9.6084e-05
-2.63831e-06
-2.76854e-05
1.25683e-06
-0.000197123
-0.032623
-0.0793987
-1.61666e-07
-0.00338888
2.49883e-07
-1.41547e-06
-3.18689e-06
-0.00130151
-1.0935e-05
0.347488
-3.18347e-06
5.52908e-05
-0.0538706
-1.3829e-06
5.11845e-05
-3.77933e-06
-0.000131994
-0.203148
0.000430128
0.352393
-0.000699697
0.00353344
-5.11386e-05
3.94003e-08
7.90848e-05
0.00163724
-1.56993e-05
-1.18646e-06
2.99779e-06
1.118e-06
0.173841
2.24819e-07
3.70918
0.0191244
-0.00019864
-0.000166903
0.0603556
0.000580333
9.32082e-05
0.419459
-1.35822e-06
-0.00713788
-2.38821e-05
7.54829e-06
0.0279541
0.0181218
-2.46546e-05
0.00397921
1.29254e-06
0.0102911
2.9749e-07
-0.476358
1.01879e-06
0.000572273
-0.0125877
0.00156585
9.5215e-07
-1.84503e-05
6.47476e-06
0.00295401
-0.0934847
0.00155591
-0.120784
4.11333e-06
0.166696
7.20539e-07
4.37239e-05
1.27993e-05
-1.73234e-06
-0.00846364
2.23589e-05
-8.96195e-07
0.000770793
4.40194e-06
0.083589
0.00501718
-1.2502e-06
-1.92441e-05
0.00189736
2.42811e-06
2.40406e-06
-0.000148105
-1.30491e-06
0.00146401
0.000600856
-2.89584e-05
0.000130031
1.27362e-06
8.98036e-06
-0.0013752
-2.76023e-05
2.11587e-06
-2.51548e-05
-8.39158e-05
-3.91299e-06
0.101886
-0.000334611
3.76136
0.00055134
-0.00315107
0.000179966
1.75747e-06
0.000555522
0.00014803
1.53324e-07
0.00513176
1.38278e-05
-0.00223399
0.00158869
0.000193527
-0.118178
-0.558575
7.59341e-05
0.000934049
-0.0231264
0.0655769
-1.4355e-06
-1.12299e-05
-4.01345e-05
0.00347055
-0.135558
0.000237336
0.0001293
-1.08723e-06
-8.09345e-07
-5.03869e-06
0.042596
-9.01396e-05
0.000382742
0.017378
-1.19165e-06
-0.000114619
-0.000264194
6.09195e-07
-1.75654e-06
5.89628e-05
0.000924405
0.00193042
-1.17099e-05
0.000100207
-0.352552
6.52964e-06
9.75366e-08
-0.00014419
1.02226e-05
0.0513243
-0.0904268
0.233555
0.00561334
-0.243862
-9.27617e-05
-5.96756e-07
0.0625567
-0.000577193
-0.000439478
8.24336e-06
1.08353e-06
0.0864831
-0.124238
1.08235e-06
1.34306e-06
0.000114519
-0.0365943
0.000150596
3.33612e-06
-0.0956891
-3.81538e-06
0.00167511
9.5002e-07
0.000213395
-3.01354e-08
9.87285e-05
-0.000415382
-7.91103e-07
-2.0057
3.04904e-06
0.00203189
-0.00507453
-0.0487682
-0.00305509
-1.1131e-06
-0.00645264
-6.9656e-05
4.19002e-06
0.000605394
0.000330059
-1.41125e-06
-6.82967e-05
0.0349646
5.1773e-05
-0.00723064
1.60579e-06
-0.0402565
-1.48847e-06
-1.2787e-06
-0.0675298
0.000150792
-0.0291265
-0.00240499
-7.82609e-06
0.23939
-0.0193005
-1.05018e-06
-0.0299196
0.000109895
1.01117e-06
1.98103e-05
0.121976
-0.011897
-1.50573e-05
-6.61152e-07
-0.000741258
-1.13281e-06
-0.0342568
0.526382
4.11403e-07
1.32242e-05
-9.66034e-07
-0.0179769
-0.000729912
-0.00595742
8.58528e-07
-0.0150675
1.01063e-05
0.00148392
1.27483
-5.14786e-06
-2.66495e-06
-0.000299646
0.0108888
-1.71189e-06
1.27155e-06
-3.37431e-06
0.000231416
0.000108581
-0.530023
-0.000225107
-2.2334e-05
-1.27035e-06
0.000311043
-0.0216434
-0.000898715
1.10007e-07
8.47114e-06
0.0134221
0.00386977
1.72668e-05
-0.372271
-0.000226669
-8.79419e-05
-0.223226
5.31962e-05
-0.000205364
1.5025e-06
0.132174
-4.75723e-06
-8.09414e-06
-0.535051
0.000714535
7.2527e-07
6.89214e-07
4.71633e-07
-0.00106059
0.0104806
-1.34482e-06
-6.30753e-07
-2.18246e-05
0.0162293
-0.00228904
3.45652e-09
-1.87417e-06
-1.26092e-07
-0.00376142
-0.000649093
1.79522e-05
4.64971e-05
-3.98378
1.65274e-06
-0.0058381
0.000760654
0.00092114
9.98125e-05
-0.000872449
4.79854e-06
-0.00869038
0.000511068
-0.00125431
-1.66587
0.000543725
-1.1863e-06
-0.00385881
-6.75382e-07
-0.00930912
-0.0185693
-2.33046e-05
-1.83887e-07
7.87624e-05
-0.0037761
-1.11793e-06
6.24219e-05
-0.0975588
-8.68336e-07
-0.000670731
0.000619622
1.77261e-05
5.21206e-07
0.0046606
0.00219633
1.89247e-06
1.27235e-06
0.296733
-9.30434e-07
0.000225287
6.2126e-07
1.6056e-06
-0.258875
-0.0076632
-0.000125129
-2.90431e-06
-2.0653e-05
0.000649474
-0.00416691
0.00978955
0.000426751
0.121662
0.000748108
-0.000149718
-1.3695
-1.19242e-06
3.18735e-08
8.21244e-06
2.35026e-06
-4.77462e-06
9.72867e-06
6.79935e-05
0.000923541
-3.2657e-06
1.57145e-06
-4.1618e-06
-1.00498e-06
-0.0983443
-4.85048e-06
-0.169975
-0.0251575
0.00968141
0.000379757
-0.137966
-0.000390668
3.41831e-06
-0.000188468
-5.78199e-07
-8.82564e-05
0.0025738
-1.84225e-05
-0.011981
-1.4311e-06
-1.41287e-06
0.00173856
-0.0231824
-1.75143e-06
-5.44554e-07
0.0261828
-0.000102875
0.0158846
6.45602e-07
-8.14881e-07
7.70326e-06
0.167434
-1.65241e-05
-0.0140689
0.00169703
0.00941807
-3.3556e-07
-4.01045e-05
0.00160239
-0.0430628
-1.75975e-06
-0.00173018
1.47862e-06
-0.173448
-0.0850633
4.72733e-05
0.00524533
-3.06423e-06
-0.000115641
0.00024599
0.0374079
-0.0055637
5.62503e-05
-1.88988e-05
-0.219539
-1.35265e-05
-0.00117014
1.24403e-06
-0.0176321
-0.023212
-0.0100365
3.65651e-05
-0.000754482
-0.0091393
0.162657
-0.000147838
1.18268e-05
0.045803
0.0594032
2.15873e-06
0.00146711
3.40068e-06
-0.000177247
-8.77713e-07
-2.43938e-06
-9.09085e-07
-0.0336586
-8.71819e-06
1.19039e-05
-0.000250739
-0.203753
-0.0020424
-0.0106453
0.00941932
1.83542e-06
0.0460479
0.00501787
-3.52411e-06
2.11851e-07
0.138825
-0.000300223
2.69897e-06
-9.256e-07
0.00203124
5.63438e-07
-1.24175e-06
2.31157
-4.90814e-07
-4.64397e-06
8.09842e-07
1.54504e-06
7.73844e-05
9.85939e-05
-0.769399
0.0108061
1.48315e-05
-1.2343e-05
-0.000703386
0.00360395
2.38526e-05
-9.26741e-06
-0.122574
-0.0469182
1.35856e-06
7.26479e-05
5.87815e-07
-6.52846e-07
0.0213162
-0.0128864
-6.81785e-07
-1.75447e-05
-0.0971806
-0.0423819
0.239558
-0.0183425
0.000641261
0.221084
4.08951e-06
3.32253e-05
0.000231838
8.12671e-05
-3.94521
0.132495
0.00212444
-0.019815
-0.367551
-1.26491e-05
-1.04556e-06
-5.04079e-05
0.00199793
-0.303595
-1.65489e-06
0.00116643
-0.111753
0.863384
-6.44956e-06
5.894e-05
-0.0176476
2.3336e-05
-9.89973e-05
-0.0119961
-1.10532e-06
-1.10175e-06
-0.000172087
0.354954
-0.00036336
-1.54241e-05
-2.94269e-05
-0.00896994
-0.000666276
-0.0625677
2.55457e-06
1.97902e-06
7.34917e-05
1.65924e-05
-0.00028806
5.60057e-05
-0.0159394
0.0320396
5.0788e-07
-1.29522e-06
0.318946
-0.213948
-0.495925
4.90367e-07
6.15336e-07
-4.91192e-06
6.33907e-07
-1.49776e-06
-3.53183e-07
-0.00174544
7.79349e-08
-1.48013e-06
1.48542e-06
0.00243081
0.000133281
0.000409777
-0.603148
0.00760677
-0.0024538
-0.00028703
-0.00139903
-0.0107308
0.000156046
0.00236568
-0.000401486
1.92617e-06
0.777484
0.000109348
-1.36288e-06
2.09186e-05
0.0200907
1.08513e-05
-0.0189079
-8.39425e-06
5.19641e-07
0.000836754
2.26242e-06
1.31931e-06
2.51991e-06
0.00135406
-0.0317131
2.24932e-05
7.18862e-05
9.25342e-05
-0.20111
0.00273939
0.0677834
8.96711e-06
0.00343373
9.6051e-06
2.27761e-06
1.76061e-06
1.0192e-06
6.45139e-07
0.00271808
0.00980295
-0.000266488
-0.00115557
0.00202468
0.0787938
0.039236
2.62311e-06
0.0193011
-0.00104
-0.192639
2.43628e-07
0.000507128
0.00940751
-0.0538288
-4.47485e-07
-1.82959e-06
8.40063e-07
-1.66067e-06
-0.00406837
-8.03176e-07
0.000474655
6.82083e-05
-6.60545e-07
0.00496502
4.39027e-07
-0.091209
-5.16149e-06
-0.00740624
7.43782e-06
0.000506169
-3.00287e-06
-0.000309988
0.073448
-1.01246e-06
-0.000255248
0.559401
1.11534e-07
-8.5299e-06
2.22243e-05
-1.37517e-06
0.032694
-0.00974918
-1.04553e-05
0.00109859
-2.26429e-06
-0.00150191
-1.67517e-06
-6.51819e-07
1.21602e-06
-1.28578e-05
1.28017e-05
8.56858e-07
4.82811e-07
-5.36263e-05
-0.00655419
-0.000309014
0.00632007
1.61727e-06
-1.55338e-06
0.000630148
0.0014704
-1.12803e-05
-2.94797e-06
-1.50481e-06
-1.35428e-06
0.00179657
-0.42702
-0.000657445
1.21711e-05
1.6205e-05
1.58087e-06
0.000984093
-1.79926e-06
-7.75932e-07
3.99035
-0.159966
-0.00169539
1.13961e-06
-4.55492e-05
3.54217e-06
-7.48845e-07
-0.00118336
3.52836e-07
-0.0180724
3.50089e-06
-0.00272694
0.000512561
3.61787
1.82326e-05
0.00144952
-0.108235
0.0979755
-0.0396812
5.96084e-05
-0.0333366
-0.0952864
-9.70785e-06
-0.000478947
0.703004
-0.000995768
8.2291e-07
-1.4118e-06
-9.58869e-05
0.0379941
-6.84072e-06
-6.87463e-05
-0.478424
4.26025e-07
2.85153e-07
0.056906
0.701623
0.0347365
-0.0226242
0.0279335
1.78664e-05
0.00465963
0.000162028
0.000105295
0.0315822
1.51608e-06
0.0724892
0.000453442
0.000148001
-1.66103e-05
-4.24872e-05
0.00823214
-0.000161353
0.253544
-5.14067e-07
-1.73923e-06
-4.22298e-07
-0.133892
-0.732013
-0.00884199
-8.28381e-06
-3.77199e-05
1.44293e-05
-0.154677
-5.82522e-06
-4.50626e-05
-3.79884e-06
-0.0952008
2.97121e-07
0.00389959
0.0719157
0.0377349
4.80976e-05
0.0446797
0.00032779
0.396143
9.1185e-08
0.0287358
0.00374368
0.0186099
-0.000161116
0.271603
0.00661799
-8.68033e-05
8.6946e-05
-0.0087946
-0.000126847
1.61022e-06
7.05904e-07
-0.000332068
-4.81463e-05
-0.143574
5.57471e-07
-4.2658e-06
1.85673e-06
1.1586e-06
-0.0641484
1.34313e-06
5.35756e-07
-2.1533e-05
0.134124
0.000452854
0.000842648
-7.86481e-05
5.17315e-05
0.000731118
-0.000540575
-5.86386e-07
0.00622439
-0.000657162
4.78469e-07
0.00142216
2.89359e-05
-0.116389
-1.19727e-06
-0.120384
0.00153385
1.4285e-07
-4.02075e-07
4.07023e-07
-5.91524e-07
1.01188e-06
-0.170622
0.00127451
-4.32429e-06
8.70541e-07
2.15188e-06
1.72581e-06
0.000366334
-0.00546877
0.00103534
-0.0170588
-1.97326e-05
-0.112241
-3.24426e-06
0.0016762
-4.498e-07
-7.3479e-07
-0.000710307
-1.53107e-06
-6.05409e-06
-1.39435e-06
8.02206e-05
1.44719
1.2653e-06
1.15924e-06
0.0253935
0.0123361
0.00475453
0.000391639
-8.96614e-05
7.96141e-05
1.18765
5.48388e-05
-4.35687e-06
1.84658e-05
-0.0022819
1.11414e-05
-1.18577e-05
-0.0500002
-0.000238138
0.000386606
-3.7934e-06
1.87474e-06
6.64848e-06
0.00253842
-0.000414378
1.63224e-06
-1.48149e-06
-0.000122895