/*--------------------------------*- C++ -*----------------------------------*\
| =========                 |                                                 |
| \\      /  F ield         | OpenFOAM: The Open Source CFD Toolbox           |
|  \\    /   O peration     | Version:  v2012                                 |
|   \\  /    A nd           | Website:  www.openfoam.com                      |
|    \\/     M anipulation  |                                                 |
\*---------------------------------------------------------------------------*/
FoamFile
{
    version     2.0;
    format      ascii;
    class       surfaceScalarField;
    location    "100";
    object      ddtCorrDdt0(phi);
}
// * * * * * * * * * * * * * * * * * * * * * * * * * * * * * * * * * * * * * //

dimensions      [0 3 -2 0 0 0 0];
oriented        oriented;


internalField   nonuniform List<scalar> 
27284
(
0.00953056
-0.019649
0.0101184
-2.91616e-07
9.13263e-06
-8.8229e-06
-0.00837887
0.0119558
-0.00357693
2.92379e-05
4.31016e-06
-3.35503e-05
0.0130607
-0.010522
-0.0025386
0.0506119
-0.00174147
-0.0488705
-0.000996727
0.000443481
0.000553273
0.0121224
0.000938245
-7.10876e-06
2.94314e-06
4.18627e-06
-0.00828059
-0.0095323
0.0178129
-0.00220055
0.000174705
0.00202589
-0.00271985
-0.00204515
0.00476499
0.001784
-0.00450386
-0.0218966
0.0404637
-0.0185671
-7.66032e-06
7.64486e-06
4.64845e-08
-3.85845e-06
3.88974e-05
-3.50466e-05
-8.59693e-06
3.78217e-05
-0.00154301
0.000525138
0.00101788
-0.00240675
0.0106033
-0.00819658
-0.000764918
0.00136955
-0.000604631
-0.0424609
0.0120949
0.030366
0.000111677
-6.17446e-05
-4.99373e-05
2.06941e-05
-1.71823e-05
-3.50606e-06
0.0197822
0.0308298
6.85267e-06
1.38303e-05
-0.000817613
0.000399604
0.000417987
0.000487214
-0.000915773
0.000428575
1.10585e-05
-3.51788e-05
2.41099e-05
-1.16455e-06
-5.94564e-06
-0.00202698
8.05277e-05
0.00194646
-0.00795215
-0.0324491
0.0404012
-0.00566541
0.00506702
0.000598373
-5.76286e-07
0.000111406
-0.000110832
2.12866e-05
-6.2268e-06
-1.50571e-05
3.46174e-05
-3.59209e-05
1.30739e-06
-0.000622149
0.000103777
0.000518384
0.000944494
-0.000179841
-0.000764659
-0.000588324
-3.3804e-05
0.000401662
-0.00242864
4.76171e-06
-0.000226808
0.000222031
-4.05191e-05
4.01482e-05
3.73107e-07
-0.00212002
-3.22267e-06
1.57829e-05
-1.25624e-05
9.59257e-06
-4.09474e-06
-5.49531e-06
9.30124e-06
-0.000593557
0.00421389
-0.00362031
-2.63598e-05
-2.87548e-05
5.51342e-05
3.04564e-05
-5.68178e-05
0.0203379
0.000218012
-0.00030903
9.09954e-05
9.4959e-08
1.11301e-05
-1.12293e-05
0.0163258
-0.0130027
-0.00332306
-0.00013966
0.000357657
-0.0049905
0.00971228
-0.00472178
5.06247e-05
-4.78176e-05
-2.8048e-06
-0.00171254
0.000947629
-2.44107e-06
-7.09483e-06
9.52981e-06
-0.00828307
-0.000716358
-0.00010128
0.010827
-0.00940858
-0.00141844
1.80682e-05
0.00459064
-0.00433772
-0.000252901
-0.012844
0.00785347
0.000615365
-0.000678673
6.33132e-05
-0.0113776
0.00281997
0.00855769
7.34327e-06
8.71369e-06
-1.6046e-05
-0.0007444
0.000226054
0.000518345
0.000339102
0.000605395
2.04579e-05
-1.10672e-05
-9.42052e-06
-0.0143859
-0.00776202
0.0221479
2.05877e-05
-7.68504e-05
5.62361e-05
5.18683e-05
-1.24749e-06
0.00403252
-0.00418652
0.000154003
0.0020032
-0.00241584
0.000412623
-0.0170743
-0.0100071
0.0270814
2.45778e-05
-6.65477e-06
-1.79223e-05
0.00266272
-0.0109458
5.02844e-06
1.95428e-05
2.66888e-05
-6.07617e-06
-0.0378716
0.0207973
-0.000225753
-0.000518654
0.0241851
-0.0304309
0.00624582
1.38017e-05
-0.000595653
0.000928343
-0.000332673
-0.00399699
0.00506462
-0.00106764
-1.41698e-05
1.55252e-05
-1.32434e-06
2.7343e-06
-9.34816e-06
6.6052e-06
-0.000694067
-0.00240026
0.00309434
-2.05582e-05
9.18322e-06
1.13536e-05
-0.00326508
0.00257102
-0.0129093
0.0061336
-0.0346838
-0.0120134
0.0466972
0.000693396
0.0234917
-0.000158418
-0.000150593
0.053968
-0.0249065
-0.0290615
-0.00105873
8.9214e-05
0.0009695
-7.41078e-07
-6.38018e-06
7.10851e-06
-5.78173e-05
-0.00100093
-0.00522726
0.00585751
-0.000630249
-7.36982e-05
8.13753e-05
-7.66696e-06
-0.0051806
0.00118361
-7.77832e-06
3.44493e-05
-0.000250981
9.25066e-05
4.36218e-05
-3.17582e-06
-4.0457e-05
0.000705137
-0.000211451
-0.000493695
-4.96518e-05
4.57849e-05
-0.0102848
-0.00109285
0.0212204
0.0327476
-0.00231761
0.00108531
0.00123231
1.63066e-05
-2.03128e-05
4.02469e-06
-7.13252e-06
4.68461e-06
-5.59966e-06
3.44319e-07
5.24333e-06
-7.94278e-06
-0.00259727
0.00260519
-0.000888827
0.000293163
0.000580544
0.00812549
-0.00870603
-0.00169595
0.00148482
0.000211113
-1.28057e-05
5.0195e-06
0.000424082
-0.0382957
0.000422336
-0.000260049
-0.000162314
-0.000288428
0.00051448
0.00216019
-0.0165461
-0.0103959
0.00201704
-0.0174882
-0.00369544
5.91198e-05
0.00363632
-0.0218479
0.022272
0.0034176
-0.00731173
0.00389412
-0.000509514
3.44752e-05
-4.30756e-05
0.0189322
-0.00940165
-3.52902e-05
6.1014e-05
-2.57261e-05
4.35706e-06
-5.07915e-06
0.0142067
0.00211906
2.45347e-05
2.08188e-05
-4.53514e-05
-0.00184633
-0.00296139
0.00480771
-0.00741288
-0.00267067
0.0100835
2.10004e-05
-7.11485e-06
-1.38643e-05
0.00637916
-0.00878591
0.00163046
-0.0188869
0.0172565
2.09803e-05
-2.681e-05
5.83404e-06
0.0295042
-0.064188
0.00012404
-0.00050695
0.000382905
0.000761014
0.00636948
-0.0071305
1.22306e-05
-3.83466e-05
2.61075e-05
0.0133435
-0.00399157
-0.0103191
0.00290618
-9.44199e-06
-2.53256e-05
3.47656e-05
0.00198078
-0.0129951
0.0110143
-3.75852e-05
-4.31664e-05
8.07415e-05
-0.00262155
0.0026136
0.0213836
-0.0174566
-0.00392697
-2.59109e-05
3.69656e-05
0.000176554
-0.000464973
-0.000707352
-0.000345398
0.00105274
0.00195947
-0.00408889
0.00212941
1.26669e-05
3.12458e-06
7.02697e-06
-9.82324e-06
2.78091e-06
4.35308e-05
-9.03855e-06
-1.30243e-05
-1.12918e-06
-1.47559e-05
2.69785e-05
9.86175e-06
-2.82201e-06
-0.000256526
0.00150439
-0.00124786
4.32806e-05
-1.87485e-05
-7.54747e-06
2.38686e-05
0.000754535
-0.00450057
0.00374603
-0.000514326
0.00189305
-0.00137871
0.000768308
0.0134028
-0.0141712
0.0117271
-0.00974629
-0.0204075
0.0256886
-0.00528106
0.0264068
0.050001
-0.0764078
0.000564924
-0.000440892
4.59828e-06
-4.82195e-06
1.95651e-07
-0.00423961
0.00239328
-1.12213e-05
1.03094e-05
9.05656e-07
0.0125587
0.00777913
-1.86599e-05
1.7856e-05
8.12943e-07
-3.59992e-05
2.65546e-05
-2.59559e-06
-2.9993e-06
-1.8225e-05
4.76932e-05
-2.94583e-05
-8.70781e-05
-0.000140252
0.000227336
-0.0024652
0.00128061
0.00118457
1.4439e-05
-1.35157e-05
-8.82858e-07
-0.0111439
0.0119122
6.45634e-05
-5.91842e-05
-5.39291e-06
2.77963e-05
-6.44053e-06
-2.13343e-05
0.00766008
0.00335185
-0.011012
-4.79976e-05
-0.000203009
3.71751e-06
-2.99438e-06
-7.39138e-07
0.00129172
0.00216813
-0.00345983
-1.20535e-05
-2.93792e-05
4.14456e-05
-0.000460897
-0.000454855
-0.00541169
0.0088293
-0.00508554
-0.000141712
-1.56551e-05
-1.44912e-06
1.70978e-05
-2.55591e-05
2.51731e-05
4.00761e-07
2.14197e-05
1.01601e-05
-3.15795e-05
-0.0130896
0.00362526
0.0094643
1.43485e-05
-1.42641e-05
-0.00551119
-0.019002
0.0245132
1.18583e-05
-2.74058e-06
0.0142779
-0.0361746
-0.000173725
0.000125738
0.00102049
-6.87742e-05
-0.00095176
-0.00196034
0.002362
-9.42105e-06
1.02844e-05
-8.29199e-07
-0.0164306
-0.00397693
-1.0376e-06
-1.24141e-05
1.34377e-05
-0.0693496
0.0957563
2.37842e-05
4.01851e-06
-2.6265e-05
9.59326e-05
-6.96661e-05
-0.000424087
-7.42045e-05
0.000498288
-7.53668e-05
-1.63684e-05
9.17586e-05
0.021264
-0.00757564
-0.0136883
-0.00118869
0.0017269
-0.000538204
-0.00131767
0.000128991
-9.54757e-05
5.78983e-05
0.00846547
0.00409328
-0.00167065
-0.000794549
-3.9745e-05
-0.000417759
0.000457498
-2.5722e-05
1.42688e-06
2.42768e-05
-5.64947e-05
2.78028e-05
2.87047e-05
-0.0010219
-0.00129574
-3.59444e-06
-4.36034e-05
4.71814e-05
0.00286956
-0.000488467
-0.00238108
0.00186119
-0.00415588
0.00229468
-0.0100685
0.00434083
0.00572767
0.00191296
-0.000952464
-0.00096052
-4.44905e-05
7.11493e-06
3.73625e-05
0.0199801
-0.0183497
-0.00325654
0.0205933
-0.0173368
0.00378164
-0.00394884
0.000167221
8.77522e-05
-0.000501096
0.000413333
0.000479386
-0.0204423
0.00318714
0.0172551
-4.81051e-05
0.00445374
-0.0036992
-0.00364763
-0.00642084
0.000118675
-0.000118188
-5.06656e-07
-0.00600524
0.00070353
-0.000231732
-0.000471798
-1.98131e-05
-0.00129785
-9.71314e-06
1.88409e-05
-9.1439e-06
6.98778e-05
-0.000156951
-0.000956162
0.000936346
-0.00331492
0.00392649
-0.000611571
-2.67561e-05
4.67915e-05
-4.82016e-05
1.41695e-06
-3.81031e-05
5.77339e-05
-1.9627e-05
0.00776907
0.0134949
0.0267649
-0.0160079
-0.0107569
0.00012698
-0.000158163
3.11785e-05
0.000957176
-0.000341806
0.0191892
0.00801253
-0.00191087
-0.00610164
-0.000448801
0.00230998
3.28502e-05
-5.10634e-05
0.000693812
-0.00413019
0.00343643
0.000202263
0.000501264
-1.11231e-05
-1.98263e-05
3.09564e-05
-0.000377272
0.00229024
2.6825e-06
-1.85949e-05
1.59133e-05
0.0105631
0.0108205
-0.00622973
-0.00731132
0.013541
0.00390818
-0.00460963
0.000701457
0.000227499
0.000608979
-0.000836479
-0.00312715
0.00116682
0.00832866
-0.00948201
0.00115331
0.00311087
-0.00882673
0.00571585
-0.00597482
0.000569039
0.00540578
1.7929e-05
-1.52626e-05
-1.02312e-06
-0.000269936
-0.000462491
0.000732426
2.44273e-07
1.4742e-05
-1.49602e-05
0.000351012
0.000669492
0.000464321
-0.000504072
3.14265e-05
-5.03475e-06
-2.64077e-05
3.03181e-05
3.34994e-05
-6.38523e-05
0.00376336
-0.00295229
-0.000811088
3.91934e-06
1.70823e-05
-0.00983357
0.00885877
0.000974796
-0.0107458
0.0273353
0.00266055
-0.00361465
0.000954094
-5.13643e-06
-7.02303e-05
-0.00227985
0.00173395
0.000545878
7.81089e-06
-7.59983e-06
-0.00304513
0.0034294
-0.000384257
-4.72527e-08
1.59653e-05
-1.58954e-05
0.000343526
-0.00227564
0.00193211
-1.33505e-05
-2.71675e-05
-0.00132712
0.0227109
0.00759624
-8.65369e-05
8.59766e-05
0.0033304
-0.00197796
-0.00135244
0.000204467
0.000179693
-0.000384173
-0.00133572
8.29652e-05
0.00125274
-0.00497128
0.00808215
-4.99232e-06
-2.65723e-06
-3.28017e-05
7.24399e-06
-0.00175174
-0.00808183
6.45923e-05
-3.4276e-05
-0.00806572
0.000870113
-0.000556275
-0.000313847
-0.0983783
-6.69714e-05
0.00278796
-0.00272099
-0.00117736
-0.00126314
0.00096382
0.000299264
0.00413438
-0.000371021
0.000241672
1.12152e-05
-0.000252929
-0.000262761
0.000368235
-0.000105481
-0.000626167
0.000853661
0.0025638
0.000766605
0.0103181
-0.00216563
-0.00815247
-0.0120182
0.00561547
0.00640276
-5.21382e-05
1.88697e-05
3.32424e-05
-0.000452426
0.00180035
-0.00134792
0.00782248
-0.0135729
0.00575039
-0.00217728
-0.000102576
-3.25963e-05
-1.95542e-05
6.06377e-05
-3.01703e-05
-2.77793e-05
4.01518e-05
-1.23787e-05
0.00237384
-0.00181297
-0.00056088
-0.00335156
-0.00866667
-0.00856857
0.0161608
-0.00759221
0.00303148
0.00728659
-0.000291743
7.01033e-05
-0.000502666
0.000432551
-0.0164235
0.00670982
0.00971365
-3.78732e-05
7.75891e-05
-3.97186e-05
-2.20962e-06
-1.01863e-05
-0.000436848
-7.03315e-06
-3.4674e-05
4.17144e-05
0.000466726
2.70169e-05
7.60433e-06
0.00477032
-0.0300763
0.025306
3.7752e-05
1.37521e-05
-5.15291e-05
-0.0429848
0.0211369
-3.28705e-05
-1.26635e-05
4.55351e-05
-0.000205364
0.000210118
-0.00129193
0.00035062
0.000941266
-0.0025481
-0.00399945
0.00654753
-0.0134991
-0.0206392
0.0341383
0.00273135
0.00119514
0.00850172
-0.00547024
-0.000163975
9.93857e-05
6.46028e-05
-1.07001e-05
-9.86214e-06
3.56286e-05
-4.26596e-05
-0.00326575
0.00235359
0.000912184
-0.0230297
0.0147491
-2.21128e-05
7.49791e-06
1.45801e-05
2.61686e-05
6.00151e-07
-2.67686e-05
0.00885062
0.00469883
-0.0135495
-3.39945e-05
-3.46197e-05
6.86107e-05
-2.25384e-05
2.00423e-05
2.45202e-06
0.00623419
-0.00142494
-0.00480926
-0.0020864
-0.00117936
-3.49305e-05
5.02778e-05
-1.53524e-05
-0.000631524
0.000393441
0.000238069
-0.00338506
0.00110942
-1.37286e-06
2.30815e-05
-2.17026e-05
-0.00227007
-0.001115
3.32333e-05
0.000102898
-0.000136128
2.73619e-05
-1.19132e-06
7.01392e-06
-8.07073e-05
0.00568953
0.0051375
-0.011958
-1.67264e-05
0.0119747
-8.4938e-05
0.000118198
2.74499e-05
1.54454e-05
-4.28953e-05
-0.00695707
0.00274067
0.00421641
-3.82076e-05
1.0432e-05
-5.38897e-06
-5.36208e-07
5.913e-06
-0.0192355
0.00929598
0.00993953
-0.015691
0.00373306
0.00654135
-0.00240698
6.27767e-06
-4.41441e-05
3.78577e-05
0.000163212
-4.4551e-05
-0.00399575
0.00577975
-0.00113953
0.00170708
-0.000567563
0.00505955
-0.00436575
0.000103894
-0.000366659
6.67553e-06
-7.35857e-05
6.69605e-05
-0.0037417
-0.00321538
-0.00405006
-0.00103893
0.005089
5.22267e-05
-4.44596e-05
-7.78418e-06
4.38839e-05
-1.40805e-05
-2.98029e-05
-0.00139747
-0.000145531
1.24953e-05
7.33289e-07
-1.32288e-05
0.00162769
-0.00148221
-0.000145517
3.03646e-05
-8.94238e-06
-0.0105546
0.00716469
0.00338988
-0.00166351
0.000279689
0.000156538
-0.000436238
1.38721e-05
-6.52973e-06
5.22684e-06
-0.000476278
0.000827252
-0.000471015
0.00130018
-0.000829134
0.00464372
-0.00187488
-0.00276885
-0.00253908
0.0103506
-0.00781147
0.0148054
-0.0148221
0.00136068
-0.000325173
-0.00103553
0.000861677
0.00715085
0.00427467
-0.00718218
0.00290749
-3.9377e-05
6.50562e-06
-2.3359e-05
-1.49328e-05
0.000628676
-0.00182832
0.00119966
3.24612e-05
-4.45114e-05
0.00530069
0.00124064
-0.000135937
0.00057942
-0.00179485
0.00331173
-0.00151687
-0.00688847
-0.00953505
-0.0133974
0.00766232
0.00573511
0.0120428
-0.025542
0.00427899
-0.000158403
-0.00412059
-2.63353e-06
4.62409e-05
0.0199459
-0.00823268
-0.0117132
2.94761e-05
5.18977e-05
-4.73446e-06
3.61749e-05
-0.0169302
-0.0255307
3.15121e-05
-4.41751e-05
-0.000412024
-0.00332969
0.000163695
0.000114644
-0.000278338
-0.0116164
0.00133156
-6.29913e-06
3.78113e-05
-0.00198481
-0.00225481
-0.035968
0.0216172
0.0143508
0.00399561
-0.00406389
6.8286e-05
9.837e-06
3.56713e-05
-4.55132e-05
-2.93391e-07
1.35475e-05
-1.3255e-05
-0.000614028
0.000265047
0.000157287
-2.39525e-05
0.000306796
-0.000282858
-0.0173943
0.00786202
-0.0108846
0.00465483
3.30521e-05
-3.78104e-05
-0.00134928
0.0022447
0.00239902
1.59692e-05
-1.62709e-05
0.000341085
-0.000215448
-0.000125641
0.00326108
-0.000529735
0.00437256
-0.0250932
0.0207207
-0.00194175
0.000435181
0.00150657
2.80044e-05
-6.19951e-05
6.0931e-05
0.000180712
-0.00133532
-0.000565658
0.00190098
1.54009e-05
-8.84368e-06
-6.56792e-06
-2.65478e-05
2.04618e-05
6.0936e-06
-0.000171206
-0.00046034
-0.00905655
0.00382222
-0.00636131
-5.33477e-05
6.00046e-05
8.35021e-07
1.26329e-06
-2.07797e-06
-3.38217e-05
2.93409e-05
4.48552e-06
-0.00685246
0.00430436
-0.00498271
0.000932657
4.28748e-05
-1.72469e-05
-2.56597e-05
-0.00394226
0.00353023
-0.000175571
4.2062e-05
-1.78222e-05
-2.42677e-05
-0.00686758
-0.00622197
0.0045353
5.53394e-05
-1.51154e-05
7.96779e-05
1.03095e-05
2.1804e-06
-0.00160857
-0.000333174
-0.000730176
0.00596209
-0.00523192
0.00883934
0.0508787
-0.059718
-1.62894e-05
-3.18812e-05
4.81668e-05
-0.0296881
0.00911242
0.0205757
1.59085e-06
1.93948e-05
-6.96374e-05
-0.000322276
-0.00287781
0.00320009
0.000173149
-0.000501012
0.000327866
-0.00126428
-0.00929031
-2.66147e-05
0.00405914
0.000456239
-0.000484581
0.00248778
5.0121e-05
6.15571e-05
0.0013537
0.00488049
-0.000489767
0.00022972
0.000116049
-0.000675718
0.000559684
-9.91614e-05
6.48073e-05
3.43612e-05
-1.68888e-05
-1.69059e-05
3.37949e-05
-1.48395e-05
2.25869e-05
-7.76429e-06
-4.87638e-05
-0.00354892
-7.54709e-05
0.00362439
0.0052428
0.00510775
-0.0121424
0.000526005
-0.00120476
0.0017299
-2.41946e-05
0.000161583
-0.000137388
-0.000133785
0.000197205
-0.000621278
-0.000426165
-0.000836989
0.000424932
0.000367434
-0.000792366
7.82697e-05
-0.000172835
9.4569e-05
3.15076e-05
-4.93617e-05
1.78535e-05
0.00377536
-0.000345968
6.25314e-06
-0.000412925
0.000837858
-0.031193
-0.00544116
0.0366342
0.0189156
-0.0244268
-0.00502148
-4.95331e-05
1.42379e-05
-9.3755e-06
1.02323e-05
0.000991017
-7.68588e-05
0.0202756
-0.00971252
0.00481453
-0.010135
0.00532052
-0.0015075
0.00105506
0.0010155
-0.000579693
-0.000435811
0.000118201
0.00144044
-0.00155866
-0.000166915
8.96496e-05
7.72682e-05
0.000404514
-2.46767e-07
-0.000404301
-0.0169981
0.0081413
0.00885678
-0.00269663
9.45909e-05
0.00260203
0.000309161
0.000269937
-0.000579117
-0.022058
0.00869568
0.0133623
-1.04793e-06
3.7863e-06
0.00504932
0.00759189
0.012354
-0.000268454
-0.000163568
0.000432022
6.65328e-05
0.000274553
-0.00614773
-0.0108503
3.01611e-05
-3.5199e-05
-0.00390923
0.00192441
-0.00135023
-0.0043152
-0.0161874
0.00124834
0.014939
-0.000311985
-0.000177775
-3.20739e-05
1.72347e-05
3.71711e-05
-3.74574e-05
2.72425e-07
-0.047676
0.0314851
0.0161908
-0.0409523
-0.00596127
-0.0102261
-0.0615368
0.0254733
0.0360634
0.000937931
-0.00100672
3.60527e-05
1.11114e-06
0.000730944
0.000197401
-3.96277e-05
-8.56287e-06
0.000670764
-0.00168122
0.00101046
0.0415991
0.0260051
-0.0175397
0.0110509
-0.00580807
0.0210629
-0.0224012
0.0013383
-0.00281419
0.00295927
-0.000145082
-0.000274507
0.00534153
0.000702776
-0.00332434
2.69936e-05
-5.57373e-05
-3.38657e-05
-4.44417e-06
3.82843e-05
-0.00333647
0.000522273
0.00144449
-0.00102099
-0.00042355
1.3952e-05
-1.39838e-05
-4.80879e-05
8.45377e-06
-0.0264741
-0.0165107
3.21045e-06
-1.21145e-05
8.90187e-06
-0.00137918
0.022442
0.000742996
-0.00236209
0.00161912
0.00354043
-0.00217624
-0.00136417
-0.00530375
0.001308
-2.03282e-06
-3.18383e-05
-0.000396632
-0.000492196
0.0229789
-0.00404669
4.8258e-05
-1.67588e-05
-0.00415561
0.00678137
-0.00262576
1.93975e-05
2.44901e-05
-0.0355992
0.0349813
0.000617977
-0.000604049
-0.00209258
3.87687e-05
1.37716e-06
-0.00209617
0.00279895
-0.000117309
-0.00285998
0.00713897
-4.76336e-08
-9.34401e-06
1.50409e-05
-4.04344e-06
-1.09851e-05
-0.000832014
0.00177161
-0.00093959
-0.000569857
0.000301401
0.00485659
-0.00131617
-9.5698e-06
3.79807e-05
-2.84136e-05
-0.00239468
-0.00194303
1.64297e-05
-1.32229e-05
0.0103799
-0.00556537
-3.10674e-05
7.71253e-06
-2.44439e-05
-2.06162e-05
4.50534e-05
-0.0101816
0.00267797
0.00750361
-0.00280635
0.00179391
0.0010124
-0.00771336
0.00406573
-8.5495e-06
-1.01107e-05
-0.000845654
0.00118875
-0.000343113
0.00171702
0.000291803
-0.00200881
0.0283329
-0.0235626
0.00175288
-0.0103214
-0.000532272
0.000392057
0.000140204
-0.00244595
-0.00170992
4.27015e-06
1.60334e-06
-5.87634e-06
3.79923e-05
4.70325e-05
-3.39918e-05
-1.30542e-05
-0.000289682
-0.000242592
-0.00410091
0.01759
-0.0134891
-2.31334e-06
8.6184e-06
-6.31614e-06
0.00564448
0.00916092
6.24557e-05
-6.93767e-05
6.92444e-06
3.48429e-07
4.24944e-06
4.24192e-05
-0.000476941
0.000434482
0.0115083
0.0087673
-0.00138189
0.000242377
-0.00370664
0.0107229
-0.00701627
-1.19761e-05
0.000751028
-0.000739069
0.00143926
-0.000159189
-0.00128008
-0.0551769
0.0148345
0.0403423
-8.10432e-05
1.21773e-05
0.0149576
0.0105567
-0.0255143
-0.00197336
-0.0350959
0.00390293
0.00546103
-0.00559322
0.000132222
0.000186732
-0.00016783
-1.89328e-05
3.05427e-05
-4.72704e-05
1.67203e-05
-5.36236e-05
-2.32404e-05
-0.00153739
-0.000878448
-0.000103709
0.000140947
-3.72642e-05
0.000344936
-0.000181245
0.0103748
0.00663939
-0.0170142
-0.0177752
-0.00285076
0.020626
-4.00087e-05
1.55569e-05
-0.0246173
0.0122416
0.0123757
-0.0202448
-0.0012704
0.00016182
0.0011086
-0.0099917
0.00299011
0.00700159
-2.79257e-06
-2.37271e-05
-0.0202338
0.000584825
0.0158458
0.0195834
-0.0354292
0.000151494
-6.21798e-05
-8.9316e-05
-0.042499
-0.0126779
0.000756418
0.00121516
-0.00197157
0.0105819
-0.00218662
-0.00839524
0.00163358
0.0266993
-0.000137453
-0.000235443
0.000372884
7.3364e-05
-5.43475e-06
-5.78191e-06
0.0119834
-0.00432336
0.00171432
0.000659522
-2.68846e-05
-1.13908e-05
3.82499e-05
2.32743e-05
8.48319e-05
-0.000108101
0.015317
-0.00494214
-2.97157e-05
-0.00107191
-1.52613e-05
0.000144735
-0.000129477
-0.00146934
0.000134025
0.0205023
-0.0145478
-0.00595451
-0.0214756
-0.0262004
-0.000789241
-0.00732922
0.00811842
-0.0322958
0.0108202
0.00383867
-0.00167055
-0.0143782
0.0170409
0.00061887
1.46279e-05
1.21664e-05
-2.68028e-05
3.59143e-05
0.00133251
-0.00136841
0.0221432
-0.0205096
-0.0028346
0.00479409
0.00144953
-0.00194554
0.000495998
4.67609e-05
-3.69316e-05
-0.0179576
0.0147011
-3.64732e-05
2.65233e-06
-7.37259e-05
0.000196433
-0.000122721
-0.0123919
-0.00224336
0.0146353
1.7018e-08
-5.39861e-06
-0.00172799
0.0017639
-0.00497269
-0.0091324
0.00542576
-7.54273e-05
5.38781e-05
2.15617e-05
-3.40655e-05
2.53226e-05
8.73697e-06
0.000439945
5.42048e-05
-0.000494184
-0.00128178
0.00043612
5.12106e-05
-6.64986e-05
1.52756e-05
-0.000931392
-0.00029862
0.00122999
-0.00132076
-0.00292921
0.00424995
-0.000459939
0.0101722
-0.000238998
0.000395523
4.97005e-06
-1.19462e-05
6.97162e-06
-0.00389615
0.000200726
-0.0211335
2.8995e-05
2.27629e-06
-3.13004e-05
-0.0183854
-0.0139104
-0.00628704
4.60921e-06
0.0496845
-0.0357755
-0.013909
7.66826e-05
-9.74758e-05
2.08075e-05
0.00365528
0.00830055
5.74244e-05
-1.27184e-05
-4.47303e-05
-0.000477041
0.000591689
-0.00765812
-0.00252346
0.000521772
-0.00040999
-0.000111798
-0.0248016
-0.000291616
0.000160919
-0.000399918
-5.76031e-06
-2.83071e-05
0.0391744
0.0105102
3.17546e-05
2.56562e-05
-3.08353e-06
1.08997e-05
1.89896e-05
-2.03605e-05
-1.9756e-05
3.43806e-05
-0.00198576
0.000257772
-0.00288873
0.0305387
-0.0184959
-5.65903e-06
-1.83527e-07
5.84748e-06
0.0016656
-0.00582121
-0.000910858
0.00139828
-0.000487465
-0.0371868
0.0188015
0.0161184
-0.0268641
0.000113687
-0.000329137
4.19053e-05
0.000609066
0.000238669
-5.69989e-05
-0.000181668
0.00372456
-0.00464806
0.000923501
2.48741e-05
8.27856e-07
-2.57167e-05
-1.43268e-05
1.09822e-05
3.35987e-06
2.48527e-05
2.92317e-05
-5.40914e-05
1.98693e-05
3.04566e-05
1.77869e-05
0.000613224
-0.00922708
0.00861386
-0.00171908
0.00295913
-0.000395332
-0.000138856
0.0015084
0.00128023
0.000520139
0.000785482
-0.001042
-0.00293044
0.000618685
0.00231177
-0.00360484
-0.00370649
3.18454e-06
0.000986385
0.00370802
-0.00364891
-3.40896e-05
4.11861e-05
0.0193799
0.00662525
0.0153908
0.00511155
5.29876e-07
-3.51833e-06
2.97751e-06
0.0287985
0.00777703
-0.0365755
5.82486e-06
-1.84278e-06
-3.99482e-06
-0.0116177
-0.00882458
0.000408149
0.00103112
3.97924e-05
0.0001117
-0.00139768
4.20913e-06
0.00132829
-0.0284293
-0.00875749
-1.29441e-06
1.82197e-06
0.00033484
9.49333e-06
-0.000344338
0.00494642
-0.0304156
0.0254692
-0.00160818
-0.00724629
0.00885445
0.0163401
-0.00857104
4.53725e-05
-1.49139e-05
0.00900734
-0.017734
0.00872668
0.00429761
-0.0016944
-0.00260321
0.000359524
-3.88318e-05
2.92688e-05
-0.000227387
0.000244384
-1.70003e-05
-0.000222099
8.46502e-05
-1.03805e-05
4.8886e-05
-3.84793e-05
-3.34443e-05
5.81691e-05
-2.47434e-05
-1.37266e-05
-2.21967e-05
6.17028e-06
-1.02667e-05
0.000369141
-0.00463733
0.00069507
-1.23937e-05
-2.89238e-06
1.5288e-05
1.56649e-05
-2.18796e-05
1.16474e-05
-1.21259e-06
-1.0448e-05
-0.000110193
3.70356e-05
7.31553e-05
0.00827846
-0.00988664
0.00232176
0.00197585
-0.000112792
-0.000236122
-0.00104566
2.28536e-05
-0.000103162
8.03193e-05
-0.000139417
0.000115234
0.000630647
-0.000542878
-1.09013e-05
0.00534914
0.00297953
6.52108e-06
1.70156e-05
-2.35181e-05
8.07005e-06
7.39586e-06
-1.5478e-05
2.26552e-06
1.43969e-06
-2.98121e-05
-1.97268e-05
0.000884199
-0.000238749
-0.000645435
0.000432952
-0.000939218
0.000506226
0.00963918
-0.00151369
-0.0476127
0.000681798
-0.000289755
5.4606e-07
-6.92461e-06
0.00350872
-0.00423889
-1.65153e-06
2.21826e-05
0.00134601
-0.000913071
0.00380469
0.0125354
0.000106925
0.000874404
0.000471565
5.23763e-05
2.42934e-06
-5.48226e-05
1.04083e-05
0.000355675
4.40157e-06
-1.54665e-05
-0.00112648
0.00316793
-0.00204147
-7.4063e-07
2.56226e-05
5.9233e-05
4.96233e-05
-3.29689e-05
-1.66731e-05
-0.000160659
-6.67232e-05
0.0246196
-0.031716
0.00709635
-8.4722e-06
2.06375e-05
3.09221e-05
-7.56368e-05
4.47145e-05
3.69605e-06
1.17258e-05
-0.00465775
0.0110369
-0.0150169
0.0162653
-7.91214e-05
-0.000497338
0.000576462
5.84266e-05
-0.000162145
0.0024951
0.00177956
-0.0021289
0.0028719
-0.006734
0.00345424
0.00327975
0.0161508
-0.00800948
6.54904e-06
7.90924e-06
0.0276861
-0.0336474
8.10467e-05
0.0244592
-0.00639071
-0.0180685
0.000475747
-0.000627441
0.000151702
7.60533e-05
1.98827e-05
-0.000113864
0.000127404
-1.35546e-05
0.00675344
-0.0316599
-5.1039e-05
0.000129299
0.000520802
-0.00059992
0.0026136
-0.00602127
0.00459633
-0.00446103
-1.84339e-06
8.64995e-06
-6.80508e-06
-5.66094e-06
1.06302e-05
2.5658e-05
-3.58886e-05
1.02219e-05
4.00634e-05
-1.10677e-05
-0.000510115
-0.00306651
0.00744455
-0.00437804
-0.0103287
-0.0197477
-0.000600174
-0.00273027
0.00333045
5.02725e-05
-7.1824e-06
-4.31006e-05
1.36783e-05
1.32785e-06
-1.4999e-05
2.18698e-06
-1.15337e-05
3.48146e-05
-3.02468e-05
-4.57335e-06
2.02021e-05
9.90127e-06
-3.00975e-05
1.29245e-06
-4.5564e-05
4.42666e-05
0.00265158
0.000307545
-0.00228373
-0.0125257
4.93603e-05
8.92606e-07
-7.32573e-05
4.47015e-05
2.85744e-05
-0.00341693
-1.75459e-05
-0.000890366
0.00184672
-0.0024469
0.00251353
0.00132514
-0.00707164
0.00661975
0.000451891
-0.000291582
-0.009117
0.00310931
-0.000470376
-0.00263894
-3.1043e-05
-2.54274e-05
1.80777e-05
8.00996e-06
-4.35846e-05
3.5596e-05
2.36112e-05
-3.67514e-05
1.31433e-05
0.0130653
-0.0208273
-0.00149143
-0.000324729
0.00181615
0.00478692
-0.00106236
6.57137e-05
-5.49551e-05
-1.07644e-05
-2.83985e-05
0.00154871
7.8973e-05
-5.65394e-06
2.58551e-05
0.00782032
0.00833047
0.0062477
-0.00703697
2.2034e-05
-0.000147013
-2.58222e-05
1.85761e-06
-4.60566e-06
2.71767e-06
1.61902e-05
-1.20315e-05
-1.01009e-05
-0.000107669
-0.00660029
0.00562428
0.00097601
-9.13209e-05
0.000109566
-1.82622e-05
0.000412937
1.85331e-05
4.71749e-05
-2.81549e-05
-8.27238e-06
3.6429e-05
2.55728e-05
-3.17331e-05
2.13363e-05
-0.00169043
0.00180863
-2.67763e-05
-1.37453e-06
-2.91036e-05
-0.00277724
7.72187e-05
-0.00457558
0.0134262
-0.00731373
-0.000328122
0.00408839
0.008824
-0.0129124
-0.000284178
-0.00105155
-5.12206e-05
-5.3178e-05
0.00010441
-0.000927585
0.00317229
-0.00724868
-0.0131608
0.0204095
1.82191e-05
6.22308e-06
-3.75726e-06
-2.45132e-06
1.59408e-05
-9.10179e-06
-0.00107219
-0.0023945
0.00346671
-1.81883e-06
-1.17442e-06
0.0021245
0.00098479
-0.00497376
0.00832557
-8.82038e-05
-1.34632e-05
0.000101687
-0.00065938
0.000408027
0.000251325
-2.8546e-05
5.97485e-05
0.0131808
0.0112784
0.00588565
0.00261606
-4.21645e-06
3.73171e-06
5.00652e-07
-2.43093e-06
-2.20981e-06
4.61435e-06
0.00123194
0.000212531
-0.00157892
0.00151195
-3.16351e-05
4.04505e-05
-8.82181e-06
0.00416408
-0.00432249
-1.87498e-06
9.53295e-06
-5.75299e-05
1.39306e-05
0.000179127
-0.00180208
0.0213417
-0.0195396
-0.0378677
-0.0236691
-0.0125678
0.0157549
-0.00325632
-0.00334397
1.74886e-05
7.89756e-06
-2.53898e-05
-0.00750576
0.00382386
0.00368189
0.0125846
-0.0162818
0.00369722
0.00173206
0.000379133
-0.00211125
1.27822e-05
2.72913e-05
0.000442198
-0.00133181
-0.000175699
-0.00976287
0.0109643
-0.00120142
0.0208871
-0.0226891
1.21248e-05
-4.74965e-07
3.16186e-05
-1.41419e-05
-3.77838e-05
-3.76322e-05
-0.000147769
-0.000249357
0.000397143
3.30647e-05
0.0117507
-0.00399151
-4.45552e-06
3.71111e-06
7.02601e-07
6.59274e-05
-0.000154107
-2.49788e-05
-0.000139002
0.000909548
0.000659891
-0.00156944
6.95669e-06
1.91433e-05
-2.61218e-05
0.000104514
4.2567e-05
-0.000147083
-0.00510373
-0.00100174
0.00610553
0.000263786
-0.000533724
0.000260451
0.000387998
-0.000648479
-0.0147334
-0.000742036
-0.00571425
0.00645629
-0.000706276
-0.00309646
0.00380274
4.11767e-05
-1.75632e-05
4.7907e-05
-1.0183e-05
3.62482e-06
-6.70556e-06
0.000765467
-9.83882e-05
-0.000667113
-0.00121019
-0.00172026
-0.0035263
-0.000562602
1.1577e-05
-1.86982e-05
1.04958e-05
-7.55339e-06
-2.96078e-06
0.000408211
0.0212524
-0.012245
-2.26654e-05
5.73903e-06
1.69308e-05
-2.84153e-05
-2.22063e-05
5.0632e-05
-0.00745781
0.00459782
-1.50498e-05
3.98651e-06
1.05201e-05
-1.453e-05
2.08564e-05
-3.74998e-05
1.66513e-05
0.00597916
-0.00616336
0.000184202
-3.59061e-05
-2.58335e-05
-4.74342e-05
-5.88159e-06
-1.67718e-05
1.28538e-05
0.00124701
-0.00125988
-4.1115e-05
3.91654e-06
3.71446e-05
-4.91542e-05
0.000808158
-0.000759001
-0.00492457
0.00627827
2.3684e-05
-5.20974e-05
0.00828242
0.00232091
-0.000724783
-0.000659923
0.00138471
0.00753674
-0.00594432
-0.00159241
0.00305137
-0.00375008
0.000698719
-3.95884e-05
3.00737e-06
3.65758e-05
-0.000441192
0.00217322
-1.0591e-06
9.35198e-06
-8.29008e-06
-9.34237e-06
5.13965e-06
4.20113e-06
-1.76165e-05
4.11334e-05
-2.3506e-05
0.00980999
-0.024825
0.015015
0.00271771
-0.00597549
0.00147491
0.000690267
-0.0179416
0.0334939
-0.0155524
0.001678
-0.00260557
-0.000933516
-0.00380855
-0.0112977
0.00791446
0.00338319
-0.00127302
0.000552016
0.000721007
-9.87487e-06
0.000112779
0.0245873
-0.0123457
-0.000113919
-6.72181e-05
0.000181111
-2.23665e-05
2.39779e-06
1.99438e-05
-8.67127e-06
1.7395e-05
0.00952996
-0.00891674
-0.0176947
-8.0587e-05
0.00988191
0.0206568
2.27236e-05
-1.60615e-05
-6.66381e-06
0.00433133
4.47229e-06
-0.00433581
0.0435319
0.00302852
-0.00123462
-0.00289122
0.00382392
-0.000932698
-6.07567e-05
0.000613839
-0.000553094
0.000637846
-0.000882669
0.00129082
-0.018786
0.00716834
-0.000959119
0.00046461
0.000494516
8.33462e-05
-0.00134533
7.49389e-05
-0.00884029
-0.00623697
1.76472e-05
-1.07037e-05
5.02105e-06
-7.51286e-07
0.000313779
-0.000337753
-0.0119811
0.000975639
0.0110054
0.00128854
-0.000241226
1.44169e-05
0.0122333
-0.0301748
-0.000690443
0.000641283
-0.00147426
-0.00261699
0.00409125
-0.000700641
0.000639884
-0.0161548
-0.00130181
2.81762e-05
2.42669e-06
-3.06036e-05
0.0194079
-0.00622708
9.72187e-05
-0.000119854
2.26173e-05
9.53149e-05
-0.000198439
0.000103122
-1.59125e-05
4.37116e-05
-9.97334e-05
-1.25447e-05
0.000112273
0.000137526
-4.21946e-05
9.33654e-06
-1.76813e-05
-2.67695e-05
-0.00647977
1.59483e-05
-1.30886e-05
-2.88529e-06
0.0092197
0.0101882
0.000104605
-0.000660881
8.08622e-06
3.41795e-05
-4.22747e-05
-1.52791e-06
3.37566e-06
-0.00174773
-0.00396653
2.53308e-05
-1.25465e-05
3.30295e-05
-9.52486e-05
6.22359e-05
0.00148109
-0.00180626
0.039204
-0.0716531
-0.00479506
-0.00650261
0.000209791
-1.70579e-05
-6.57522e-06
2.36567e-05
0.00551104
-0.0150063
0.00949522
3.09738e-05
-2.78006e-06
0.00246569
3.25533e-06
-2.03077e-05
-0.0252988
0.0351807
-0.00413248
0.00124125
-0.0168792
0.0107019
0.00137027
-0.000999648
-0.000370604
0.000406649
-9.9861e-05
0.000393989
-0.00789714
0.028305
-0.0204079
0.001824
0.00442368
1.92707e-05
-8.85694e-06
-1.04093e-05
3.84642e-05