/*--------------------------------*- C++ -*----------------------------------*\
| =========                 |                                                 |
| \\      /  F ield         | OpenFOAM: The Open Source CFD Toolbox           |
|  \\    /   O peration     | Version:  v2012                                 |
|   \\  /    A nd           | Website:  www.openfoam.com                      |
|    \\/     M anipulation  |                                                 |
\*---------------------------------------------------------------------------*/
FoamFile
{
    version     2.0;
    format      ascii;
    class       volScalarField;
    location    "100";
    object      omega_0;
}
// * * * * * * * * * * * * * * * * * * * * * * * * * * * * * * * * * * * * * //

dimensions      [0 0 -1 0 0 0 0];


internalField   nonuniform List<scalar> 
18355
(
1.17222
0.0204309
0.196956
0.0209808
0.0410591
0.676239
0.0216325
0.0467091
0.0220533
0.0670787
0.0256014
0.116551
0.122168
0.712099
0.0210381
0.0202006
0.0209736
0.0244571
0.149806
0.0225663
1.86184
0.0218974
0.0204651
0.573177
0.0204713
0.0221049
0.021631
0.0210172
0.0223521
0.026344
0.849505
0.0400366
0.0203476
0.0200702
0.0213988
0.0220441
0.0267402
0.0221057
0.0267804
0.0219177
0.0222737
0.0261372
0.0200875
0.020418
0.020429
0.256846
0.0209905
0.0209796
0.774465
0.021232
0.0209456
0.910316
0.0212897
0.125807
0.0212842
0.0227574
0.0214325
0.643147
0.0221893
3.72139
0.0200796
0.0845103
0.122648
0.0215439
0.0519456
0.0206995
0.0233798
0.0268198
0.0200262
0.0186439
0.0209358
0.0212854
0.033779
0.0254863
0.562651
0.0200438
0.757797
0.0200543
0.0209067
0.57781
0.023359
0.525056
0.0200362
0.024138
0.0447516
0.0218809
0.0223141
0.0361211
0.0208805
0.0362727
0.161452
1.9423
0.477452
0.0212286
0.585501
0.0225412
0.0208655
0.0216755
0.0752333
0.0218313
0.0422432
0.0208764
0.0211807
0.019516
0.0235311
0.0202136
0.0517143
0.590838
0.0307694
0.0201551
0.0210106
0.0217099
0.0296446
0.0239335
0.294689
0.0262029
0.020853
0.571915
0.0227266
0.0232452
0.0658878
0.200266
0.150242
0.0417747
0.576071
0.29953
0.0216756
0.0209749
1.18092
0.0216594
0.0208692
0.945876
0.0212725
0.079984
0.0922035
0.0208737
0.153895
0.292074
0.0211219
1.93185
0.0246887
0.082937
0.0209543
0.809035
0.0940899
0.0216463
3.41579
0.019622
0.0295953
0.246017
0.0210096
0.0231634
0.0213903
0.0271257
0.020098
0.0205207
0.0209811
0.021895
0.0209625
0.0206195
0.0246908
0.0212801
0.0201625
0.0217974
0.0258104
0.076713
3.81654
2.06913
1.56194
0.0246947
0.021614
0.075398
0.0218168
0.64301
0.0215199
0.0220194
0.0215537
0.0195333
0.0225539
0.0268443
0.0219618
0.0526977
0.021782
0.0210408
0.0505653
0.0211712
0.0218583
0.0351057
0.0213491
0.0217504
0.28214
0.0748562
0.0204624
0.0200644
0.0213809
0.292726
0.020615
2.1079
0.0204417
0.563814
0.0211299
0.0234046
0.0270941
0.0217789
2.06455
0.0215763
1.63546
0.0210354
0.0202994
0.0212563
0.0215665
0.0474302
0.0226213
0.0220809
0.0196339
0.508178
0.02678
0.0248904
0.0215944
0.0209921
0.0299227
0.0199829
0.0342788
0.0097287
0.0340325
0.0232859
0.0200042
0.326049
0.26892
0.030927
0.0214568
0.0235396
0.194422
0.0199975
0.0247003
0.0340196
0.0219665
0.272286
0.0245513
0.0220111
0.0204588
0.0224881
0.0216311
0.0298634
0.0215731
0.02129
0.0209826
0.0479113
0.138662
0.0210157
0.0214952
0.0924867
0.154919
0.0248262
0.0195368
0.114523
0.0245324
0.0216725
0.0233906
0.020814
0.246317
0.287569
0.0681143
0.0292112
0.027713
0.0337162
0.014876
0.0818345
0.0208068
0.0212919
0.021883
0.0201525
0.02342
0.0250921
0.0209771
0.0215663
0.0310164
0.0208593
0.0759754
0.376139
0.0293185
0.0215949
0.0268034
0.0201405
0.0369767
0.0215267
0.0275028
0.0218338
0.0270682
0.237444
0.0203252
0.0451948
0.0226035
0.0243164
0.0426355
0.0213264
0.0200473
0.0698136
0.0215655
0.109521
0.0268748
1.1829
0.0384415
0.0705658
0.0238795
0.0321564
0.0211721
0.0237426
0.0288605
0.0451546
0.100971
0.258252
0.0210725
0.0237897
0.109198
0.0272137
0.0210677
0.0209718
0.0209946
0.048633
0.252751
0.357662
0.0793671
0.0305491
0.0244222
0.112396
0.0196171
0.0215565
0.0244014
0.021366
0.0309388
0.0212476
0.24805
0.0202362
0.592274
0.0213076
0.0218637
0.0242523
0.135485
1.99696
0.0298933
0.0586462
0.0219101
0.0208925
0.0213557
0.024684
0.0893795
0.0209157
0.0215142
0.215352
0.021846
0.0209184
0.152786
0.0239966
0.0209887
0.0213272
0.0281006
0.022238
0.0280351
0.0200873
0.0213678
0.021793
3.18453
0.222314
0.0200553
0.020941
0.0323526
0.0210025
0.0216568
0.0914859
0.246794
0.0333063
0.0213398
0.0219996
0.123704
0.0215212
0.127337
0.0238591
0.0202721
0.0289156
0.0250158
0.0217158
0.0212991
0.0244349
0.0215565
0.0234208
0.0213809
0.0554616
0.0216093
0.0230028
0.0210309
0.0209959
0.0232049
0.022172
0.0659655
2.24441
0.252095
0.0229601
0.151232
0.0264257
0.0213159
0.0212065
0.0418825
0.0213487
0.0341398
0.0214991
0.0274411
0.157621
0.0519214
1.99556
0.0718585
0.0195243
0.461225
0.0218299
0.0209679
1.83553
0.02129
0.0270446
0.021516
0.058186
0.0212842
0.0720107
0.41752
0.0629493
0.0212882
0.0204609
0.0661186
0.0227219
0.0210466
0.0570277
0.200256
0.0209613
0.0431327
0.0668813
0.0204564
0.0221729
0.0288667
0.177297
0.0380116
0.0218497
0.0212176
0.0368362
0.0212783
0.0201966
0.0212128
0.0377064
2.05685
0.0202537
0.022338
0.0214301
0.145916
0.0286753
0.0200465
0.0270209
0.0353852
0.0214821
0.297894
0.0857248
0.02182
0.0214018
0.0367257
0.144336
0.894415
0.0202305
2.10784
0.0211647
0.0202478
0.040896
0.0228307
0.0601455
0.0337362
0.0231138
0.0261223
0.0219005
0.148992
0.0228561
0.0281081
0.0218887
0.0202068
0.0217209
0.0202234
0.0851994
1.30167
0.0580138
0.0248674
0.0216344
0.0218924
0.0213489
0.0238878
0.0212873
0.0200661
0.0213895
0.0377978
0.0204647
0.0215352
2.08852
2.10764
0.112717
0.0216383
0.0221559
0.0289172
0.0218609
0.2463
0.220167
0.0234523
0.0242294
0.0260654
0.0222101
0.0233994
4.70671
0.0300188
0.0218659
0.325258
0.0216242
2.05454
0.414595
0.024979
0.0221163
4.7229
0.0209842
0.0697883
0.0405053
0.320152
0.0228763
0.0217026
0.0214694
0.420092
0.742629
0.31634
0.409854
0.0236255
0.021457
0.0241262
0.0212982
0.023238
1.93079
0.322773
1.61276
0.106513
0.0270196
0.037657
0.0308264
0.0209986
0.021155
0.0265486
0.0241352
0.0215435
0.0212961
0.57327
0.0208502
0.106734
0.0245119
0.0802709
0.129813
0.0211611
0.0239556
1.83998
0.0213828
2.09661
0.0211783
1.0314
0.0299069
0.0218901
0.030692
0.0808449
0.0738106
0.0220389
0.0200141
0.0350917
0.0252165
0.0818592
0.0213768
0.0869183
0.020843
0.207243
0.0215013
0.0211673
0.189008
0.0252865
0.034181
0.0213426
0.0245278
0.0226607
0.156405
0.3748
0.024015
0.062978
0.0214214
0.0265993
0.0217527
0.0238596
4.20468
0.0204225
0.225271
0.0215621
0.0214927
0.0239107
0.24399
0.0240923
0.0763842
0.0219452
0.035872
0.42308
0.0196282
0.02099
2.04717
0.0350649
2.16004
0.0350579
0.0217517
0.021302
0.0209789
0.0254093
0.0220222
0.020764
0.138578
1.03001
0.0211521
0.167403
0.160928
0.0247405
0.212161
0.0202145
0.438464
0.347956
0.0196912
0.423572
0.0396281
0.357847
0.099772
0.0211367
0.020977
0.0217301
0.0643638
0.0475369
0.0213112
0.0219497
0.131269
0.0217847
0.0407834
0.0210687
0.0374006
0.394711
0.423267
0.152128
0.419154
0.0366294
0.465944
0.0242062
0.0209211
0.0255906
0.0524165
0.0271025
0.0451711
0.0213009
0.146684
0.0214059
0.0217942
0.309786
0.0219138
0.0259688
0.0346432
0.0684003
0.021476
0.0212909
0.0238041
0.0248245
0.0199804
0.0238205
0.0321791
0.133426
0.0229706
0.0213223
0.0397567
0.420573
0.0212431
0.410241
0.29016
0.0214732
1.86675
0.0200131
0.202743
0.0213503
0.0214746
0.186608
0.0230573
0.178961
0.0228649
0.0212955
1.84396
0.0213462
0.0201357
0.0215176
0.0209314
0.0263331
0.0345054
1.92484
0.0222173
2.16303
0.0229704
0.414838
0.26602
0.0221803
0.0213498
0.0244977
0.0202178
0.10976
0.0211971
0.020113
0.0201429
0.021298
0.0213734
0.230963
0.0252907
0.0468601
0.0227487
0.0237082
0.0243116
0.02426
0.332139
0.0204675
0.0831574
0.0419778
0.0200193
0.235011
0.399162
0.0209269
0.425909
0.0214685
0.229131
0.0357403
0.0196746
0.0356767
0.0252346
0.414641
0.0210825
0.0242155
0.400969
0.0829978
0.0450339
0.0213683
0.102768
0.0749731
0.352572
0.0213754
0.022732
0.021065
0.0214914
0.021065
0.0212612
0.020416
0.426625
0.0261256
0.0208725
0.0200624
0.020772
0.0218088
0.0762754
0.0745259
0.0203207
0.0248607
0.0215613
0.0215974
0.0215734
0.0209511
0.0341078
0.0200579
0.0208902
0.0218848
0.0216117
0.0231411
0.0231667
0.267737
1.61742
0.0240938
0.0208729
0.139342
0.0201019
0.0200652
0.023132
0.0440098
0.0247517
0.0223086
0.020167
0.0204506
0.0258594
0.0200186
0.0271694
0.0211885
0.0217481
0.0210644
0.0226555
0.288008
0.0209144
0.0218455
0.0211452
0.160856
0.294398
0.0269049
0.0220287
0.0249651
0.0249821
0.0331469
4.56717
0.0218389
0.336207
0.0218657
0.0928875
0.02202
0.0202831
0.0201168
0.590526
0.0200623
0.0271729
0.051374
0.165114
0.0359549
0.0224033
0.0210165
0.0211632
0.0212275
0.0285255
0.104242
0.332538
0.0450676
0.0215377
0.0200154
0.0226456
0.0210666
0.0208163
0.0217795
0.0467055
0.0255574
0.136094
0.0215313
0.0214423
0.0322041
0.0213039
0.147707
0.0461517
0.0382607
0.137316
3.66847
0.028984
0.0209871
0.0200227
0.0216826
0.0212265
0.0419036
0.0471182
0.104961
0.0203135
0.0215907
0.0231509
0.0208339
4.54439
0.195475
0.0200612
0.0201161
0.0210778
0.0210716
0.0209241
0.021328
0.224497
0.0199874
0.0219212
0.02032
0.0205915
0.0210731
0.0214712
0.0266593
0.0205855
0.0250882
0.0201621
0.200451
0.201811
0.0242152
0.0521923
0.0234504
0.0218922
0.0713294
0.108483
0.0213227
0.0207011
0.0204803
0.0294556
0.022113
0.0291649
0.0404756
0.0215136
0.0219535
0.0214879
0.0934364
0.0449804
0.0222114
0.0206374
0.0245303
0.0382878
0.0211478
0.0746779
0.0207731
0.0199754
0.0242168
0.8714
0.418084
0.143406
0.231211
0.0200576
0.0595524
0.0648054
0.0251308
0.0212209
0.0656317
0.0235217
0.171755
0.893995
0.0209769
0.0200645
0.0214846
0.0219331
0.0200702
0.062825
0.0752194
0.0201111
0.0215393
0.0219412
0.0376195
0.0212614
0.0208965
0.0289365
0.0218828
0.0211802
0.135106
0.0939283
0.0847771
0.0212248
0.0202431
0.020125
0.0217294
0.0242265
0.0280852
0.020881
0.0205722
0.0229118
0.149836
0.0204651
0.0214213
0.0711985
0.0209245
0.0207646
0.0213495
1.30385
0.0202218
0.021452
0.020468
0.0205422
0.020234
0.0253235
0.14149
0.0214221
0.154882
0.0284008
0.205888
0.0578376
0.0209918
0.0257254
0.0208532
0.0207482
0.0210041
0.189947
0.330756
0.017873
0.0270227
0.466229
0.0731438
0.022122
0.0991174
0.0454132
0.0234471
0.0200899
0.164608
0.0222257
0.0207385
0.0204354
0.252979
1.16542
1.84862
0.0207145
0.0927234
0.350615
0.0246839
0.031142
0.0239736
0.0232106
0.0344502
0.215814
0.0231199
0.0222734
0.0249297
0.942752
0.229133
0.021252
0.0216793
0.0211066
0.332273
0.0239612
0.021986
0.435947
0.0253142
0.0341271
0.0239589
0.244654
0.0206782
0.0880885
0.0220522
0.0200834
0.0209881
0.0199573
0.0200905
0.0209032
0.0217137
0.220858
0.0204566
0.0895727
0.0264827
0.0216797
0.0208152
0.091876
0.0212032
0.0215344
0.0232559
0.880944
0.0450256
0.0230313
0.0215335
0.338115
0.0206733
0.0403318
0.0215152
1.76707
0.0319872
0.230615
0.0253209
0.021051
0.0426165
0.162514
0.159719
0.0205616
0.0213425
0.0374046
4.15123
0.0195832
0.0497025
0.0212919
0.0267039
0.0208723
0.0200521
0.0219951
0.0220989
0.0200496
0.0340403
0.032169
0.0239557
0.128685
0.198501
0.0221648
0.0588459
0.0201808
0.108698
0.330776
0.162019
0.0200297
0.0219665
0.0214937
1.02286
0.021342
0.0207603
0.0900838
0.021515
0.0215231
0.0222016
0.0220079
0.0212497
0.438528
0.274443
0.0653723
0.020759
0.0214621
0.210326
0.0201701
0.279556
0.0216341
0.0214808
0.0219925
0.023515
0.241441
0.0216897
0.0214786
2.14937
0.0215919
0.0217824
0.0376446
0.350109
0.247186
0.0214323
0.0210618
3.82514
0.0524168
1.66014
0.0213041
0.0340506
0.193489
0.020353
0.0325367
0.0231389
0.201325
0.0234619
0.0215036
0.0222474
0.0200692
0.364598
0.0214675
0.0205889
0.253707
0.0193333
0.0442736
0.0200232
0.0225372
0.0200435
0.0196568
0.020206
0.0222482
0.0216212
0.0218539
0.0200811
0.0217516
0.0480361
0.0275633
0.0224247
0.0205717
0.0240583
0.0210721
0.243147
0.0216755
0.0220345
0.0216754
0.0201175
0.0218093
0.0213757
0.0211869
0.0212431
0.0208317
0.0202127
0.475405
0.382203
0.0212626
0.347669
0.0355981
0.0218288
0.0217012
0.0221479
0.53279
0.0218884
0.0201814
0.0201031
0.0200417
2.06937
0.0212974
0.0202889
0.166237
0.0200212
0.0197967
0.0209814
0.0214709
0.0773839
0.141461
1.91469
0.0201432
0.822432
0.0250227
0.0212371
0.0204248
0.0239809
0.0212836
0.0280567
0.0609201
0.0234071
0.0220798
0.346171
0.0634054
2.09105
0.0706005
0.28065
0.0942947
0.0203933
0.210981
1.34745
0.0201309
0.798215
0.02071
0.0223012
0.130796
0.0207447
0.206043
0.0246503
0.0227125
0.0219447
0.0389318
0.0213791
0.0863009
0.0212409
0.020187
0.487458
0.0198205
0.0216475
0.0218556
0.0544079
0.0212017
0.0214202
0.022838
0.098629
0.0212198
0.0212888
0.0202346
0.023548
0.0211868
0.0222912
0.0561257
0.0209788
0.025999
0.021711
0.0232948
0.0230736
0.0209429
0.021924
0.0990209
0.0215958
0.0217055
0.0240544
0.238147
0.0221168
0.0211317
0.0214287
0.0259366
0.0746618
0.0225317
0.0210241
0.0209699
0.0205671
0.019644
0.0200611
0.0254153
0.0271156
0.0565792
0.0215407
0.692317
0.020659
0.0240526
4.27726
0.0460424
0.0199868
0.0795424
0.0246648
0.0210192
0.0986591
0.0218661
0.0400531
0.0197552
0.146978
0.0206792
0.0200218
0.0202606
0.0506248
0.10825
0.0215618
0.832449
0.0202394
0.0209405
0.020743
0.136602
0.021433
0.020656
0.0246623
0.022599
0.0212722
0.0214536
0.0207981
0.0218149
0.0215364
0.0208518
0.0239111
0.0200244
0.836118
0.0684405
0.0202153
0.374429
0.0258414
0.0209378
0.0206733
0.0220257
0.0207672
0.0290095
0.0247984
0.0496314
0.0424963
0.0217109
0.0749447
0.149033
0.0212278
0.0217141
0.0882036
0.0233927
0.239398
0.0202206
0.0219195
0.0220177
0.024028
0.0214606
0.0258257
0.0209515
0.0146283
0.0212578
0.023202
0.0203854
0.115407
0.0213241
0.0241235
0.0293017
0.0210185
0.289694
0.393902
0.023373
0.0264686
0.0270987
0.019881
0.0451459
0.0214363
0.0335723
0.396324
0.799387
0.0354739
0.0122278
0.0265294
0.0210223
0.0285765
0.0205259
0.333383
0.0286204
0.0217465
0.0208061
0.205604
0.0333661
0.0212282
0.0212291
0.316614
0.021692
0.0206473
0.887278
0.0543443
0.0201188
0.420189
0.0203116
0.0413005
0.0568915
0.0212667
0.0214388
0.0234615
1.86095
0.0207959
0.0254127
0.0214433
0.0212748
0.0208324
0.344479
0.0217497
0.0214336
0.021121
0.139396
0.0257299
0.0208118
0.0197975
0.107382
0.0211583
0.0204456
0.92129
3.714
0.0219192
0.26368
0.0229962
0.048204
0.0221993
0.0598894
0.370615
0.0227258
0.0219182
0.020323
0.023945
0.0212089
0.372214
0.116402
0.0205351
0.0220842
0.0203375
0.0200682
0.387048
0.0212184
0.0226179
0.0226211
0.0496011
0.021458
0.0216898
0.0247724
0.406875
0.0215367
0.0214422
0.0203697
0.0204942
0.0237225
0.0458121
0.0215974
0.02113
0.0212883
0.0211335
0.0203296
0.489834
0.0217519
0.0210478
0.0211014
0.0611547
0.0202896
0.0204476
0.0350127
0.0209433
0.0343126
0.0212615
0.0214368
0.0464904
4.71716
1.63574
0.0757254
0.0233841
0.0217921
0.406389
0.0206518
0.0248562
0.0200169
0.906479
0.0195084
0.0238318
0.0214674
0.145103
0.0351714
0.0298738
0.36444
0.0222717
0.0463085
0.021719
0.0219983
0.502194
0.034933
0.0211799
0.0203042
0.0233856
0.0270152
0.0214291
0.0212874
0.0206441
0.019967
0.167262
0.362128
0.0217168
0.023183
0.359306
0.871168
0.0231549
0.0220556
0.0229726
0.024345
0.0212081
0.0235191
0.0257702
0.0209126
0.0203262
0.0215109
0.0332674
0.191043
0.0250341
0.0215453
0.0215777
0.02556
0.0213436
0.0249484
0.0392712
0.0668208
0.0233275
0.406772
0.0201217
0.0212323
0.0218406
0.0199278
0.0216088
0.0208616
0.0867554
0.0210124
0.569525
0.0213228
0.0206433
0.0204006
0.0276965
0.0223873
0.0452574
0.0563225
0.0201603
0.284384
0.0173286
0.0204397
0.0198219
0.212144
0.199818
0.0198448
0.0208163
0.0206471
0.0238041
0.166156
0.0310163
0.0240096
0.0219466
0.135916
0.386314
0.0219601
0.0211491
0.237083
0.0236719
0.141504
0.0235396
0.0211548
0.0635416
0.0173257
4.77324
0.015449
0.5547
0.0203171
0.0209405
0.0218938
0.0215008
0.0235036
0.0216846
0.0215555
0.0207962
0.0218156
0.0242002
0.0212412
0.021615
0.022734
0.0219124
0.0213404
0.0209691
0.0355454
0.0102219
0.020921
0.0215211
0.160852
0.0222191
0.0227544
0.0219061
0.355756
0.0204335
0.0387782
0.0226116
0.0201899
0.0210805
0.310441
0.254038
0.0216895
0.021795
0.0233278
0.0370292
0.0208745
0.0262068
0.036459
0.0210603
0.107112
0.0208209
0.0213336
0.0215867
0.0217636
0.0287652
0.0602827
3.8634
0.0325419
0.0202012
0.0214502
0.0211263
0.0469907
0.0219322
0.28684
0.0208249
0.0213742
0.021359
0.0776977
0.0209913
0.021577
0.0212668
0.139136
0.020431
1.97868
0.0203418
0.0229672
0.0212341
0.0295743
0.0209958
0.0234858
0.55976
0.102858
0.0202079
0.0361936
0.0215182
0.0216259
1.32173
0.559332
0.0203221
0.0212476
0.023439
0.0202544
0.0211204
0.0218683
0.0217041
0.0237392
0.0524811
0.0221208
0.0261832
0.0828688
0.0216523
0.0209881
0.0211811
0.0200172
0.0280944
0.0213934
4.2709
0.0206102
0.382347
0.0378749
0.0202163
0.020732
0.0207093
0.0502549
0.0212978
0.0237773
0.0215081
0.0215808
0.55077
0.0227799
0.0263858
0.0216608
0.0214645
0.022687
0.0212416
0.0227593
0.0213694
0.0222341
0.0219612
0.0218776
0.543711
0.024835
0.407023
0.0210003
0.0213213
0.022319
0.267532
0.0661826
0.851336
0.022622
0.0199759
0.0418579
0.020985
0.410511
0.0221364
0.0493372
0.0223775
0.332983
2.0957
0.023214
0.0264546
0.0207511
0.0205401
0.0218997
0.0199364
0.0217301
0.0228463
0.020789
0.0246818
0.0380627
0.263555
0.0208999
0.177495
0.0201058
0.021194
0.0211541
0.0949335
0.0216233
0.147858
0.0217585
0.0211358
0.268294
0.0208835
0.0235634
0.0210489
0.0233557
0.86801
0.0256805
0.588356
0.0221142
0.0638999
0.0228747
0.0211237
0.0212278
0.0281264
0.0243266
0.0212764
0.0227069
0.0213266
0.530454
0.0206519
2.36082
0.203319
0.0719359
0.024617
0.121162
0.0214987
0.0199036
0.200756
0.0211919
0.0851066
0.0218386
0.0225456
0.232377
0.246439
0.0257638
0.11752
0.0213873
0.299765
0.019566
1.70768
0.0201599
0.0225089
0.0451353
0.0217809
0.0207211
0.0219565
0.0212716
0.0358242
0.098846
0.0320783
0.265506
0.020871
0.169767
0.0214457
0.0217453
0.0210642
0.0213904
0.423841
0.0216355
0.0205701
0.0372693
0.0218104
0.286135
0.0715572
0.021267
0.0270895
0.034583
0.0208609
0.0214389
0.0237084
0.0203247
0.0566688
0.027484
0.0227567
0.0229692
0.0204461
0.0214929
0.0590106
0.0219972
0.0214517
0.0222648
0.0197613
0.0201368
2.07909
0.0260941
1.25826
0.0267314
0.0532004
0.0269956
0.0211195
0.0256721
0.0206706
0.0209835
0.0297601
0.0241771
0.0215787
0.0488595
0.0247744
0.270526
1.68358
0.0211303
0.0235894
0.0190028
0.383899
0.020316
0.0202889
0.0216719
0.0268939
0.180832
0.0245889
0.0236467
0.0218337
0.0211758
0.0199878
0.208427
0.0238645
0.0225255
0.417092
0.0216352
0.0227915
0.0241965
0.021488
0.0212387
0.0210502
0.0536688
0.105809
0.0218806
0.0232202
0.312521
0.0209377
0.0219769
0.0232481
0.021595
0.277086
0.368294
0.125359
0.0822479
0.187148
0.0225606
0.0208476
0.162664
0.0231873
0.0259076
0.0210475
0.0201915
0.302106
0.101176
0.0210837
0.0207529
0.0264762
0.255594
0.0232988
0.0200688
0.429802
0.0228231
0.0368363
0.0201436
0.0271293
0.0195955
0.0227991
0.0251972
0.0211742
3.54168
0.0219588
0.0362114
0.100153
0.283077
0.0871337
0.0211991
0.0625909
0.0243157
0.0240896
0.0218131
0.0220761
0.0214443
0.0225071
0.0307406
0.0227993
0.0316254
0.0207868
0.203496
0.0202943
0.0218954
0.228819
0.0244864
0.20018
0.0223643
0.0220982
4.20423
0.417754
0.0208692
0.268156
0.0321947
0.020726
0.0198914
1.77079
0.25653
0.0204687
0.0202834
0.0218357
0.0202378
0.385346
0.325293
0.0195239
0.0198019
0.0208652
0.230769
0.0476506
0.244237
0.0201998
0.311858
0.0216075
0.0596494
0.443815
0.0240523
0.0206062
0.0209623
0.240473
0.0203422
0.0210468
0.0202103
0.0248695
0.0229378
4.31446
0.0246227
0.0217954
0.0211973
0.0264739
0.19291
0.0388147
0.021124
0.0208907
0.154258
0.0506105
0.0219649
0.109895
0.0279825
0.0228654
0.28207
0.0227216
0.025197
0.021828
0.162729
0.0214218
0.021811
2.1019
0.0276299
0.0210528
0.0213526
0.0196035
0.0364095
0.110922
0.020975
0.0202759
0.022134
0.067381
0.0230753
0.0202037
0.0212437
0.0206565
0.020941
0.0426732
0.0214494
0.0209688
0.568022
0.021112
0.162371
0.0296682
0.0305414
0.0235967
0.021663
0.0214854
0.230092
0.0842086
0.0716928
3.92839
0.02904
0.0208771
0.280607
0.0202208
0.076923
0.350201
0.0204587
0.0211319
0.0235174
0.0769008
0.0212027
0.0210393
0.258969
0.0212635
0.0231947
0.0215128
0.0217435
0.0203415
0.0651734
0.119776
0.02015
0.0210258
0.152695
0.0211933
0.0204101
0.0209997
0.0208285
1.88189
0.0251434
0.0229429
0.0224383
0.0219632
0.0201978
0.0370124
0.104545
0.0263025
0.251573
0.0230261
0.023414
4.07512
0.0208889
0.0203675
0.0210803
0.0208352
0.0218129
0.0197713
0.0221554
0.331787
0.0212165
0.0210984
0.0227279
0.0208111
0.302662
0.0216718
0.505362
0.177715
0.0129832
0.0295891
0.0564623
0.0237905
0.0211805
0.0235077
0.0209528
0.0225087
0.021189
0.0218044
0.269673
0.0202915
0.0213227
0.0428009
0.184767
0.021697
0.0208466
0.186231
0.0223315
0.0208288
0.0213118
0.0208569
0.021248
1.95467
0.0214374
0.185148
0.0533775
0.0190017
0.0208379
0.0210974
0.0244402
0.0714885
0.0201565
0.0361409
0.0211034
0.437371
0.221951
0.0221503
0.173879
0.0215529
0.0229742
0.0237099
0.285847
0.0271218
0.0262262
0.0269773
0.242622
0.0217091
0.0358455
0.0214561
0.0192684
0.143613
0.159138
0.0209578
0.0274858
0.300931
0.498248
0.023011
0.0235977
0.33854
0.320237
0.0208188
0.0552421
0.021197
0.0239114
0.0214818
0.0223159
0.0222383
0.240867
0.0216692
0.0218106
0.0580358
0.237411
0.0705653
0.128507
0.03945
0.0207867
0.337824
0.0648914
0.0210442
0.0211245
0.345129
0.023563
0.0214962
0.0212139
0.0381711
0.0206996
0.0212558
3.35528
0.0214603
0.0217454
0.0210432
0.0214064
0.0225096
0.0205833
0.398485
0.0274782
0.0232104
0.0205466
0.0278976
0.119814
0.0208984
0.0216792
0.150712
0.1706
0.0213545
0.024081
0.0207082
0.0209355
0.0289674
0.165983
0.0209359
0.0210849
0.239747
0.573946
0.188063
0.0332779
0.0221893
0.112916
0.0207531
0.0246757
0.0238276
0.0205836
0.638282
0.182035
0.0385575
0.0331201
1.78792
0.0198952
0.0197951
0.0228564
0.0329061
0.0573451
0.0203356
0.0330873
0.871644
0.490838
0.0216397
0.0224559
0.273151
0.0210127
0.0235683
0.337202
0.0209613
0.0211968
0.0203819
0.291345
0.0208512
0.0241254
0.0219188
0.0716579
0.0268803
0.367846
0.0211912
0.0211373
0.0288999
0.021756
0.0217126
0.0221476
0.104578
0.122333
0.0209932
0.0213452
3.75504
0.355549
0.246429
0.0207616
0.0213601
0.0229043
0.0215267
0.0212711
0.0214366
0.0181101
0.0218317
0.0206833
0.0207657
0.0578739
0.0235081
0.0267479
0.360447
0.0674688
0.0499793
0.0244097
0.0438563
0.130662
0.0300112
0.0234415
0.02547
0.0210715
0.552806
0.0203362
0.0202822
0.0206031
0.425176
0.0208906
0.429596
0.0217878
0.0201329
0.0400334
0.0211759
0.0211512
0.0211696
0.0224412
0.199229
0.0216402
0.0205643
0.0225856
0.987868
0.0491492
0.290372
0.0210502
0.033869
0.0214972
0.0215464
0.0201915
0.0207267
0.0213589
0.0205718
0.341067
0.0217739
0.0249341
0.124576
0.0991215
0.127846
0.0208403
0.10171
0.0327259
0.572298
0.0204901
0.0213184
0.00698765
0.566522
0.0198003
0.0213615
0.0207176
0.0203425
0.123631
0.0222043
0.0620835
0.0217026
0.0197851
0.0295599
0.0214361
0.517836
0.0211547
0.00596608
0.0217866
0.0263514
0.0220517
0.063554
0.310559
0.021216
0.0386356
4.15783
0.0211248
0.0215378
0.0425275
0.0197371
0.301579
0.0328712
0.0209762
0.0598227
0.0200209
0.0220325
0.0218079
0.0209843
0.0202225
0.0221336
0.0207229
0.020717
0.021524
0.0218536
0.0491658
0.0200614
0.133112
0.0205294
0.0209007
0.0275571
0.0474477
0.0220241
0.0197354
0.0211991
0.0224865
0.0458657
1.74138
0.0332445
0.0219164
0.0219603
0.0207554
0.0293377
0.0209344
0.0224613
1.76199
0.25465
0.0469442
0.021051
0.0217592
0.0221254
0.0197438
0.0412657
0.0201204
0.145584
0.021957
0.163451
0.0260543
1.88512
0.0215911
0.0676003
2.22686
0.299249
0.361848
0.0244805
0.354797
0.33726
0.0218611
0.0347698
0.381253
0.0199946
0.0207529
0.0213337
0.0237304
0.109186
0.021469
0.0238071
0.159811
0.0195232
0.02147
0.304753
0.449192
0.100003
0.370593
0.419053
0.0221243
0.0597883
0.0235187
0.0238736
0.0665634
0.0225299
3.96185
0.0374801
0.0236256
0.0213954
0.0227399
0.00806116
0.0206487
2.00073
0.0197957
0.0212456
0.0212684
0.425423
4.3143
0.110549
0.021299
0.0224705
0.0204906
0.391342
0.0211393
0.0219313
0.0232706
0.0655777
0.0206767
0.0791292
0.638837
0.0819667
0.0218732
0.033421
0.020484
0.841387
0.0198313
0.191809
0.0200576
0.0653962
0.0264171
0.154747
0.122778
0.022732
0.0226137
0.0175536
0.0236343
0.021106
0.020708
0.0248717
0.0218793
0.136675
0.0196132
0.0210821
0.0214347
0.0214044
0.0461866
0.0207398
0.0201242
0.021501
0.168628
0.0266027
0.056623
0.0226437
0.0224978
0.0854961
0.0208066
0.0213097
0.0727356
0.0449356
0.0201214
0.0330519
0.0228176
0.24043
0.0212472
0.0451677
0.0192751
0.0212229
0.0202257
0.0201793
0.0211658
0.0210762
1.77961
0.0650867
0.0215648
0.0213189
0.0211325
0.0222264
0.0266362
0.314131
0.022048
0.0131327
0.0242696
0.211289
0.021669
0.0443762
0.0212937
0.0212544
0.0272991
0.0212203
0.0214497
0.020695
0.0202608
0.361644
0.0213856
0.0207316
0.0830338
0.409203
0.030881
0.0211339
0.0198142
0.0236268
0.44899
0.0231116
0.0216956
0.0215453
1.7673
0.0218686
0.021115
0.24072
0.0208528
0.0247225
0.0229755
0.021538
0.0201674
0.0555392
0.0252714
0.020631
0.0212787
0.0212625
0.0208979
0.108469
0.0228975
0.0213989
0.019777
0.0219746
0.0201885
0.0212482
0.0767497
0.0206508
0.0241481
0.0233786
0.309901
0.0197459
0.0224063
0.0557044
0.0263829
0.164179
0.0210067
0.0214961
0.0312216
0.0214045
0.0201419
0.234581
0.0214119
2.23605
0.0653841
0.0653249
0.786161
0.021419
0.0260771
2.00267
0.0212489
0.0200217
0.903794
0.395259
0.020896
0.0201382
0.0226244
0.0206431
0.203145
0.0618025
0.329658
0.021488
0.0216466
0.0212265
0.0211394
1.68754
0.578158
4.07685
0.0245042
0.0224242
0.515677
0.0213352
0.0208955
0.0226293
0.020928
0.021853
0.182744
0.0197374
0.407001
0.021841
0.0219746
0.021396
0.0264581
0.0209169
0.354607
0.0206931
0.0212062
0.0225607
0.0201613
3.72598
0.0240098
0.0257281
0.78756
0.203607
0.0301161
0.344012
0.0213627
2.39715
0.0268824
0.0206931
0.0223011
0.0218361
0.386682
0.333775
0.0214569
0.0235967
0.212246
0.0210683
0.0205747
0.0238588
2.22554
0.51789
0.0215369
0.0220538
0.0959655
0.0228413
0.0699905
0.0696357
0.0698221
0.0201429
2.41942
0.0215399
0.157866
0.0601623
0.0352869
4.59438
0.277793
4.21604
0.0203573
0.184722
0.0198292
0.0197867
0.251985
0.0197794
0.0221431
0.0211497
0.0654807
0.0206182
0.138617
0.020171
0.0251298
0.413424
0.0261177
0.0247291
0.336517
0.0218204
0.0202327
0.0218579
0.0957786
0.0240349
0.13506
0.0214206
0.0257336
0.0217603
1.99369
0.0214211
0.021587
0.0213707
0.471298
0.0317547
0.0215302
4.11719
0.0211009
0.0212731
0.0246458
1.78899
0.0213971
4.4839
0.0214506
0.356113
0.021425
0.0438131
0.0209848
0.0535969
0.0214285
0.0630775
0.0246381
0.0324654
0.020896
0.0217464
0.275623
0.0203555
0.023738
0.0266683
0.0201166
0.0646579
0.322257
0.131098
0.0219959
0.0197502
0.0211887
0.126324
0.0235594
5.03889
0.0239274
0.191223
0.022933
0.720364
0.0205407
0.0294944
0.114628
0.0228891
1.99241
0.0234038
3.84219
0.161483
0.0207727
1.44967
0.0224296
0.0211448
0.0227348
0.0857955
0.0232514
0.15807
0.0249016
0.117365
0.0440852
0.0632818
0.0486293
0.29447
0.0214589
0.0215346
3.93004
3.99916
0.0437721
0.0234778
1.89511
0.230727
0.0221716
0.0214326
0.0212152
0.106813
0.0207088
0.020949
0.033797
0.168626
0.019831
0.0206143
0.0221672
4.32239
0.0205089
0.0243416
0.0198325
0.125635
0.0188432
0.508861
0.0218282
0.0206493
0.0213339
0.0202381
0.281606
0.0333761
1.75991
0.0213248
0.0288882
0.020213
0.213094
0.166292
0.0512123
0.0207942
0.0692717
0.0208878
0.0215848
0.289947
0.0210745
0.0237251
0.190309
0.0201531
0.113548
0.0206993
0.0198421
0.021559
1.8535
0.0208043
4.69627
0.130205
0.365378
0.299553
0.0207085
0.341936
0.0663687
4.22604
0.0319438
3.86228
0.171441
0.0215663
0.0317971
0.0217253
0.0278692
0.0204223
0.0229143
0.0212063
0.0256212
0.371459
4.57776
0.0242999
0.0233926
0.863734
0.383019
0.0212121
0.0214363
0.0316747
0.0368181
0.0203986
0.257967
0.0382331
0.0222565
0.0203346
0.0223799
0.435957
0.0216256
0.0616785
0.0196056
0.875241
3.1461
0.0955492
0.0223728
0.0213852
0.0211852
0.0212775
0.0214749
0.0242668
0.0224891
0.0215654
4.38551
0.0208385
0.0212361
0.0210608
0.302492
0.35813
0.0212492
0.021652
0.611846
0.0204835
4.6559
0.0215287
0.0213783
0.0197371
0.0216393
0.0206008
0.0227368
0.019979
0.192021
0.0217681
0.0678434
0.0213541
1.86623
0.0214228
0.0244508
1.68423
0.181856
0.0214922
0.0214502
0.0319236
0.0197353
0.497501
0.339768
0.0225402
0.0207618
0.0212357
0.0203363
0.164436
0.32322
0.038364
0.144276
0.0349234
0.0213732
0.021187
0.0205314
0.547435
0.253137
0.0216935
0.0211344
0.020816
0.0274654
0.0213801
0.395835
3.22407
0.0294048
0.0202772
3.72283
0.129655
0.0214484
0.0662236
0.019981
0.149056
0.0342157
0.03435
0.0266203
1.24471
0.0331355
2.7175
0.0208392
0.0205199
0.0207001
0.0202658
0.0215017
0.0285533
0.0208222
0.0253433
0.0200152
0.257979
0.0212289
0.0275291
0.238815
0.0220755
0.0198118
0.0276471
4.78806
0.0212633
0.0206074
0.177776
4.08333
0.239413
0.0241889
0.0197436
0.367967
0.128415
0.0235854
0.0552097
0.0214028
0.0313251
0.0215302
0.122483
0.0206772
0.020376
0.297817
0.0204186
0.0229861
0.287808
0.0592397
0.0206386
0.0191608
0.0207475
2.89056
0.0238081
0.0262541
0.0214292
0.0207825
0.124964
0.0316332
0.0211548
0.0212929
0.0197416
0.0230315
0.020602
0.0228013
0.187118
0.406922
0.0235379
0.0401645
0.0207962
0.0396808
0.021209
0.0215643
0.0207647
0.245472
0.0370632
0.0200731
0.0229328
0.255438
0.0373701
4.15274
0.0525374
0.0212936
0.0207733
0.0270366
0.0224856
4.52839
0.0205364
4.19751
4.63298
0.0209035
0.0389775
0.276985
0.0250355
1.75823
0.10671
0.024147
4.40742
0.0257535
0.0197731
4.04129
0.374781
0.103184
0.0217194
0.304619
0.241096
0.0213398
0.176295
0.298622
0.0213821
0.0206964
0.0218283
0.020029
0.0215486
0.898995
4.0732
0.0214276
0.0209879
0.458021
4.07425
0.032455
0.25101
0.0210544
0.0221546
3.99995
0.0466197
3.9434
4.30963
0.0212548
0.0214567
0.021045
0.0207363
4.23271
0.256366
0.0213883
0.0359463
0.369938
0.314529
0.048298
0.0211396
0.0214909
0.0219419
0.251842
0.0223828
0.036501
0.0285027
0.0220165
0.366492
0.0232264
0.342184
0.142562
0.344779
0.0212192
0.0212094
0.0226429
0.0313154
0.205504
0.231203
0.0218754
0.351841
4.22932
0.030104
0.0324296
0.754937
0.302973
0.299842
0.328844
0.0213246
0.344729
0.118447
0.0302937
0.0264197