/*--------------------------------*- C++ -*----------------------------------*\
| =========                 |                                                 |
| \\      /  F ield         | OpenFOAM: The Open Source CFD Toolbox           |
|  \\    /   O peration     | Version:  v2012                                 |
|   \\  /    A nd           | Website:  www.openfoam.com                      |
|    \\/     M anipulation  |                                                 |
\*---------------------------------------------------------------------------*/
FoamFile
{
    version     2.0;
    format      ascii;
    class       surfaceScalarField;
    location    "100";
    object      phi;
}
// * * * * * * * * * * * * * * * * * * * * * * * * * * * * * * * * * * * * * //

dimensions      [0 3 -1 0 0 0 0];
oriented        oriented;


internalField   nonuniform List<scalar> 
27284
(
-0.117836
-0.0244631
0.142299
-0.130392
-0.338117
0.468509
-0.107428
0.140123
-0.0326945
0.450325
-0.0638512
-0.386473
-0.509679
0.300713
0.208967
0.415542
-0.379305
-0.0362368
-0.399768
0.0644567
0.335311
-0.258697
-0.250982
0.356884
0.111004
-0.467888
-0.271296
-0.151639
0.422934
0.0781094
-0.274778
0.196668
0.0329834
-0.117181
0.0841974
0.108431
-0.0754471
0.277907
-0.247062
-0.0308445
-0.194751
-0.270311
0.465062
-0.445312
-0.0333811
0.478693
0.031849
0.418476
-0.3256
0.143338
0.182262
-0.115543
0.13817
-0.0226268
0.407256
-0.405796
-0.00146035
0.147554
0.0196399
-0.167194
-0.336846
0.20044
0.136407
-0.530465
0.0591506
0.471314
0.381962
0.0335794
-0.461947
-0.0685176
-0.307891
-0.0997374
0.407628
0.45477
-0.330764
-0.124006
0.262801
-0.45108
0.188279
-0.0622185
0.419103
0.0810302
-0.246392
0.165362
0.405474
-0.287808
-0.117666
0.233142
-0.0684887
-0.164654
0.318376
-0.472851
0.154476
-0.372392
0.552956
-0.180564
0.479748
-0.493615
0.0138665
0.290204
0.0115737
-0.301777
0.184496
-0.154607
-0.0298883
0.355722
-0.065518
0.234122
-0.153092
-0.171732
-0.131652
0.303383
-0.468861
0.480249
-0.0113871
-0.168283
0.506882
-0.34807
-0.158811
-0.323461
-0.126817
0.450279
-0.453854
0.0949479
-0.00726935
-0.0876785
0.245639
-0.444518
0.198879
0.441089
-0.19545
0.256165
-0.292901
0.430678
-0.137776
0.0126222
-0.395749
0.383126
0.120522
0.055671
-0.176193
0.134847
-0.427748
0.146522
-0.047641
-0.0988806
0.097725
-0.38539
0.287665
0.406086
0.00117016
0.0144097
-0.402559
0.38815
-0.153884
0.0169925
-0.324883
-0.0413034
0.0915365
-0.0502331
0.13449
0.155539
-0.128322
-0.0272166
0.00263527
0.143886
0.148935
-0.442965
0.294029
0.290645
-0.140139
-0.150506
-0.155625
-0.314114
0.46974
0.292873
-0.198731
-0.0941421
0.169266
0.0152294
-0.346155
0.526255
-0.1801
-0.0542021
-0.29124
0.345443
0.311413
0.103013
-0.414426
0.316086
-0.218361
-0.267437
0.115349
0.152088
0.13102
-0.31435
0.18333
0.553748
-0.284537
-0.269211
-0.383296
0.507807
-0.124511
0.0934451
-0.247329
-0.555011
0.171714
-0.116976
0.428389
0.305919
0.247829
0.148168
0.144706
0.457665
-0.0203816
-0.437284
0.161652
0.128935
-0.240869
0.111934
-0.0108288
-0.129119
0.139948
0.435809
-0.485991
0.0501824
0.0472261
-0.442338
0.395112
0.192768
-0.055196
-0.137572
-0.345364
0.478871
-0.133507
0.121784
0.0709844
0.355351
-0.148865
0.00727227
0.197361
-0.204633
0.430524
0.027141
0.289889
0.140788
0.144288
-0.367351
0.223063
-0.141982
0.449474
-0.307492
0.164304
-0.464467
0.300163
-0.458471
0.316489
-0.19495
0.0804753
0.114475
0.183376
-0.298862
0.115487
0.134085
-0.144913
0.32367
-0.440646
0.4318
-0.141911
0.403308
0.0697114
-0.473019
-0.258103
0.126454
0.131649
0.0989828
-0.544295
0.132726
0.157919
0.341015
-0.196727
-0.0177819
0.151879
-0.134097
-0.623504
0.225707
0.397797
-0.366496
0.380905
0.459636
0.00686177
-0.466498
0.340051
-0.144774
-0.195277
0.251558
-0.122624
0.0905332
0.0034465
-0.0939797
0.0853981
-0.237454
0.152056
-0.0960187
0.419688
0.575794
-0.269876
-0.279148
0.127108
0.152041
-0.0435809
-0.15515
0.289121
-0.343323
-0.116381
0.00895339
0.279494
-0.0546944
0.190656
-0.135962
0.285314
0.290481
-0.0750747
-0.0315085
0.106583
0.0550016
0.478279
-0.44643
0.0129129
-0.130748
-0.12471
-0.141771
0.266481
0.451463
-0.287159
-0.0502396
0.170762
0.121449
0.221361
-0.34281
-0.00963269
-0.100424
0.110056
0.180918
-0.0691303
-0.111788
0.302434
-0.477468
0.175034
-0.0119167
-0.103627
0.290109
-0.362133
0.0720232
0.378649
-0.524553
0.145904
-0.184054
0.191326
0.229229
-0.12183
-0.107399
-0.508162
0.338959
0.169203
-0.324387
-0.110879
0.435267
-0.123957
0.135953
0.128123
0.0527948
-0.0438292
-0.280642
0.324471
-0.0856548
0.0830799
0.00257491
0.130865
-0.487518
0.356652
0.183625
0.156426
0.384434
0.0405283
-0.424962
-0.196661
0.459462
-0.189347
0.145766
0.153206
-0.453496
0.30029
0.477796
-0.339458
-0.138338
0.126963
-0.475033
-0.00711076
0.344938
-0.337827
0.479726
-0.00144743
0.404822
0.0309867
-0.343209
0.018822
-0.409597
0.402486
-0.135873
0.311229
-0.175355
0.320264
-0.198815
-0.29701
-0.326494
0.446506
-0.327054
-0.119452
-0.139889
0.312782
-0.172893
0.297205
0.108176
-0.40538
-0.0871047
0.00144986
-0.140332
0.0236228
0.116709
0.223507
-0.149617
-0.0738903
0.0892274
0.140002
0.523304
-0.498268
-0.025036
-0.129606
0.119973
0.530085
-0.516942
-0.0131426
0.452515
-0.19635
-0.4692
0.471287
-0.00208615
-0.401997
0.358168
0.397048
0.0625882
-0.33263
0.454866
-0.122236
-0.0142533
-0.177227
0.191481
0.280289
-0.181282
-0.0990075
-0.478326
0.463702
0.0146241
-0.142623
0.439827
-0.19346
0.311632
-0.118172
0.482694
-0.225769
-0.256925
0.154131
0.293436
-0.447566
0.263649
0.168151
-0.521283
0.347211
0.174072
-0.203944
0.0803761
0.123568
0.165237
-0.41485
0.249613
0.138499
-0.469263
-0.104615
0.0295403
-0.108087
-0.0868629
0.131604
0.320916
-0.452519
0.346343
-0.53506
0.188717
0.455375
-0.0106799
-0.444695
-0.0928321
-0.0314965
0.124329
-0.384191
0.396813
-0.112289
0.00280397
0.109485
-0.461361
0.123244
0.0223585
0.255548
0.445224
-0.181575
0.31396
-0.216696
-0.097264
0.0568271
0.177295
0.37053
-0.517463
0.146933
-0.0111126
-0.129219
0.283486
-0.107796
-0.17569
0.218296
0.00521157
0.31441
0.168284
-0.32672
-0.123836
0.450556
0.147397
-0.448571
0.301174
-0.190569
-0.124566
0.315135
0.351456
0.0234111
-0.374867
-0.149069
0.451405
-0.302336
-0.449167
0.300098
-0.38
0.510865
0.225713
0.226802
0.179007
0.101282
-0.11675
-0.0598661
0.176616
-0.114342
0.275008
-0.160666
-0.15391
0.433798
-0.279888
-0.165619
0.147837
-0.347648
0.517556
-0.169908
-0.151452
0.197142
-0.0456909
-0.523579
0.2606
0.262979
-0.231315
-0.116945
0.348261
0.528258
-0.213761
-0.314498
0.504333
-0.367727
-0.136606
0.321086
-0.0309769
-0.142561
0.00610754
0.136454
-0.250681
0.113588
0.137093
-0.269764
-0.170478
0.440242
-0.109935
-0.508299
0.322334
0.185965
0.156685
0.335877
0.110628
0.151
-0.382316
0.0797133
-0.253272
0.173559
-0.00966714
0.2077
-0.072348
-0.135352
-0.160286
-0.288881
0.088558
-0.429035
0.340477
0.158694
-0.172947
-0.450368
0.290082
0.131397
-0.280777
0.149381
0.169144
0.15997
-0.397176
0.237206
-0.461584
0.198443
0.263141
-0.00586013
0.357316
0.351446
-0.0552793
-0.296167
-0.180112
-0.239779
0.41989
0.45642
-0.307484
0.374857
0.10553
0.00612867
-0.111658
-0.306482
-0.217097
0.201967
-0.534597
-0.611555
0.303125
0.30843
0.109179
0.0985211
-0.294166
-0.136115
0.430281
0.320846
0.207412
0.443145
-0.301639
-0.141506
-0.122599
0.507033
-0.123778
0.407695
-0.283917
-0.00851672
-0.109199
0.117716
0.00659841
0.107132
-0.113731
-0.166153
0.22298
0.417196
-0.277077
-0.140119
-0.498543
0.191146
0.307396
-0.178754
0.133827
0.0449272
0.311755
0.13139
-0.22542
-0.463705
0.199389
0.264316
0.331774
-0.501931
0.170156
0.209285
0.104675
0.0478862
-0.164636
0.453218
-0.310938
-0.14228
0.329658
-0.148767
-0.180891
0.0808594
-0.271071
0.190212
0.458216
-0.155782
-0.00608956
-0.126865
0.132954
-0.173656
0.339304
0.0709981
-0.289916
0.218918
-0.317181
0.126612
0.0542678
-0.22602
0.171752
-0.150068
0.481843
-0.0161951
-0.175606
0.191801
-0.192738
0.307581
-0.114843
-0.00666867
0.176368
-0.169699
-0.12947
-0.339391
0.172339
0.196714
-0.498399
0.462076
-0.1437
0.190756
-0.10394
-0.0868153
-0.183199
-0.0934013
0.276601
-0.166289
0.457643
-0.291353
-0.284809
-0.213734
-0.471098
0.276347
0.499128
-0.152785
-0.138722
0.132632
0.124399
0.205259
-0.317016
0.181614
-0.0482225
-0.133392
-0.07753
-0.189076
0.0592432
0.129832
-0.116604
-0.331801
0.140046
0.191755
0.260971
-0.180111
-0.309914
-0.116613
0.426527
-0.143604
0.189418
-0.0458136
-0.132835
0.139433
0.0771036
0.113652
0.506484
-0.3493
-0.157184
-0.121255
0.0606721
0.0605831
-0.0428548
-0.234432
0.277287
0.241908
-0.363472
0.121563
-0.128981
-0.00800087
0.136982
0.193444
-0.139176
-0.341743
0.298888
0.18275
0.258339
-0.482043
0.22956
0.252483
0.111368
-0.137358
0.0259906
-0.0582663
-0.062989
-0.0848234
0.124259
-0.0394359
0.326571
0.179913
-0.200073
0.245918
-0.158086
-0.0878322
-0.479931
0.23359
0.246341
0.159742
0.313922
-0.473664
0.189045
-0.296841
0.124088
0.209912
-0.354209
0.144297
-0.119285
0.371265
0.108483
0.220584
-0.430959
0.210375
-0.494758
0.345069
0.149689
-0.103793
0.389107
-0.330785
-0.121154
0.45194
-0.324678
0.152947
-0.333411
0.225141
0.10827
0.0485302
-0.128034
0.0795041
0.112635
-0.126127
0.0134918
-0.137964
-0.142813
0.508561
-0.18199
0.171264
0.139471
-0.310735
0.118347
-0.463711
0.354773
-0.144861
-0.257082
-0.158827
0.41591
-0.479698
0.208402
-0.468721
0.214809
0.253911
0.422802
0.0193788
-0.442181
-0.166448
0.524413
-0.357965
0.310369
-0.198089
-0.11228
-0.468498
0.320753
0.147745
0.0803228
0.029305
-0.109628
0.0961078
-0.35319
-0.464258
0.220006
0.244252
-0.187466
0.45438
-0.266914
0.285727
-0.109358
-0.0268778
0.391258
-0.364381
0.145159
0.140567
0.317891
-0.492056
0.174165
0.383572
0.0392308
-0.119785
0.30316
-0.0803276
0.0390242
-0.568308
0.269676
0.298632
0.520946
-0.203055
-0.320754
0.472804
-0.152049
-0.266863
-0.166479
0.433342
-0.320635
-0.161407
0.355934
0.138316
-0.49425
-0.446078
0.221164
0.224914
-0.295806
-0.272502
0.0369993
0.223971
-0.213366
-0.142602
0.355968
0.225939
-0.146226
0.0265993
0.0818313
0.153547
-0.467431
0.313884
-0.249113
-0.362441
0.0341859
-0.17779
0.354985
0.118993
-0.473978
0.087387
-0.35425
0.403484
-0.089936
-0.313548
-0.203689
0.315734
-0.112045
0.498338
-0.307086
-0.191252
-0.18337
-0.14223
0.424735
0.021445
-0.44618
0.259446
-0.398399
0.138953
0.405568
0.0498066
-0.152205
-0.0962385
0.248443
-0.297162
0.0567421
-0.204073
0.147331
-0.467129
0.311504
-0.234698
-0.100782
0.310067
-0.458085
0.315016
0.143069
0.174369
-0.0981533
-0.0762157
-0.111195
0.087211
0.0239838
0.59054
-0.320865
0.494238
-0.347266
-0.146972
-0.0238872
0.129417
-0.444669
0.159856
0.284813
-0.405342
0.0745566
-0.323422
-0.156087
-0.0172907
-0.108982
0.126272
0.416609
-0.251371
0.224976
-0.187976
-0.269851
0.334308
-0.148078
0.330974
-0.182896
-0.329127
-0.150805
-0.293314
-0.0703375
0.363652
0.119369
-0.00673339
0.15504
-0.130736
-0.0243035
-0.099871
0.503179
0.12765
-0.0815056
-0.0461442
-0.105544
-0.193319
0.297634
0.155584
-0.0155252
0.163079
0.337046
-0.458201
0.450121
-0.362734
-0.133302
0.436127
-0.302825
0.274575
-0.141849
-0.0256114
0.362658
-0.027477
-0.102129
0.123088
0.290873
-0.413961
0.00676002
-0.125238
0.118478
0.11507
0.213726
-0.328797
-0.0625994
-0.303417
0.366016
-0.102439
-0.148576
-0.130572
-0.309597
0.451207
-0.14161
-0.443168
0.291529
0.293544
-0.417322
0.453481
-0.155847
-0.121231
0.0896233
0.0847457
-0.408896
0.346297
0.126416
-0.2799
0.153484
-0.285039
0.147075
0.135982
-0.281166
0.145184
-0.0163073
-0.124658
0.140965
0.208089
0.10228
0.0558997
-0.365813
-0.120604
-0.0190807
0.139685
0.504714
-0.288855
-0.215859
-0.344221
0.483459
-0.139238
0.315163
-0.502629
-0.41026
-0.0279215
-0.0832734
0.487324
-0.132339
-0.0132458
0.388054
-0.374808
-0.379132
0.388303
-0.00917084
-0.0619276
0.110458
0.354761
0.048723
-0.492961
0.34308
0.149881
0.0843117
0.36581
-0.167647
0.262427
0.00857634
-0.271004
-0.103353
0.0105208
0.103165
0.0523735
0.0800411
-0.273501
0.374222
0.0505135
-0.14564
0.129333
-0.0996994
0.12016
-0.0204605
0.221055
-0.235445
0.0143895
-0.356702
0.51102
-0.154318
-0.0994669
0.112118
-0.0126509
-0.0565804
0.435229
0.130623
-0.181004
0.150258
0.0307467
-0.135462
0.274392
-0.13893
-0.24039
0.0881857
-0.151986
-0.115451
-0.132605
-0.154418
0.285438
-0.217231
-0.119615
-0.0329689
0.113292
0.277224
-0.150116
0.019996
-0.145701
0.125705
0.320889
-0.144698
-0.176191
-0.32993
0.493533
-0.163602
-0.0668354
0.224017
-0.157182
0.18109
-0.131979
0.0383934
0.0935855
0.107748
-0.0205374
0.129284
0.145292
-0.165556
0.308894
-0.0975909
0.288253
-0.190662
0.1228
0.456736
-0.309339
-0.119604
-0.212197
0.446252
-0.286615
-0.159638
0.490534
-0.338346
-0.152188
0.428931
-0.217787
-0.211144
0.00495118
-0.180557
-0.320338
0.303189
0.143063
-0.0656493
-0.0348902
0.100539
-0.00672716
-0.105562
-0.126345
0.138843
-0.263553
0.318859
-0.332104
-0.13988
0.280481
0.364224
-0.486823
0.0837608
-0.134517
0.0507558
0.389578
-0.147669
-0.247278
0.110612
0.136666
-0.195698
0.294501
-0.0988032
0.165717
-0.256835
0.0911174
0.0952013
-0.228112
0.13291
0.0590244
-0.00348888
-0.0555355
0.227724
-0.145815
-0.0819088
-0.308832
-0.0949386
0.40377
-0.284088
0.447408
-0.16332
-0.327345
0.374571
-0.102504
0.0658963
0.0617534
-0.0507846
-0.0969391
0.147724
-0.133178
0.259594
-0.00645918
0.0654836
0.161277
-0.472215
-0.132484
0.105007
0.213257
0.0198848
0.30053
-0.455982
0.155452
0.104448
0.172776
-0.259499
0.192663
0.219397
-0.344692
0.125295
0.306081
0.0765541
-0.382635
0.214434
0.470858
-0.170328
0.0883445
0.320853
-0.409197
0.0991868
-0.315883
0.338177
-0.11878
-0.129952
-0.110917
-0.15888
-0.238296
-0.238714
0.356216
-0.117502
-0.164414
0.381951
-0.156238
0.114718
-0.00696924
0.266523
-0.24343
-0.0230934
0.0750446
-0.301194
0.226149
0.175138
-0.243627
0.324607
-0.140981
-0.267431
-0.177087
-0.446521
0.17676
0.269761
0.309474
-0.234429
-0.214703
-0.0881816
0.302885
0.122161
-0.3149
-0.399094
0.240213
0.274576
-0.37837
0.445473
-0.287424
-0.158049
0.0060198
0.260503
-0.245147
0.325284
-0.0801371
0.137868
-0.0447347
-0.0931337
-0.0729438
0.0995431
-0.216745
-0.229776
0.105097
0.146462
0.126415
-0.113502
0.268733
0.160199
-0.123135
0.0566803
0.0664546
0.163131
0.335207
0.0494394
-0.225414
0.175974
0.137069
0.0906549
0.388826
0.0914221
0.175711
0.148896
-0.0982785
0.123531
0.0315094
-0.0630898
0.43362
-0.529909
0.218691
0.311218
-0.131408
0.156813
-0.0254046
-0.162063
0.111279
0.104851
0.0330173
0.163932
0.254324
-0.418256
-0.108988
-0.0193343
0.30796
0.137512
0.127128
-0.0433671
-0.449776
0.126354
-0.180749
0.395818
-0.215069
-0.145624
0.0597069
0.0859172
-0.465684
0.326019
0.139665
-0.211898
0.362899
-0.160589
-0.308611
0.106488
-0.250366
0.143878
0.161586
-0.473955
0.312369
0.437789
-0.217205
-0.00209841
-0.082725
-0.0488702
0.166149
-0.117278
0.538698
-0.278098
0.341984
0.155039
-0.497023
-0.140622
-0.312
0.128246
0.183754
-0.183222
0.134351
0.0613137
-0.0605428
-0.000770878
0.151109
-0.449533
0.298424
0.245437
0.345104
-0.185529
-0.12388
0.309409
0.115042
0.408262
0.220464
-0.0904124
-0.130051
0.49607
-0.131846
0.445293
-0.291746
-0.0554147
-0.1254
0.180814
0.435797
-0.290544
-0.145253
0.150424
-0.00666853
-0.143755
0.111494
-0.402489
0.290995
-0.327775
-0.241578
0.0105287
0.1022
-0.112729
-0.0821605
-0.0920048
0.0263555
-0.103463
0.25012
-0.146656
0.176276
-0.308434
0.132158
0.150699
-0.394371
0.243672
0.436285
-0.333272
-0.190178
-0.124172
0.295546
-0.0776502
-0.217896
0.355482
-0.488784
-0.187776
0.0413911
0.146385
0.0514144
-0.1721
0.120686
0.189813
-0.370563
-0.282455
0.130413
0.152042
-0.146473
-0.190417
0.253224
-0.0628077
-0.131619
0.0545344
0.0770844
-0.526644
0.182423
0.13885
-0.163313
-0.473068
0.16885
0.304219
0.402557
-0.430581
0.0280232
-0.291748
0.403242
0.00574234
0.126284
-0.132027
0.110368
-0.097689
-0.0126792
0.2614
0.17639
0.299538
-0.451339
0.151801
0.256173
0.136598
0.393487
0.453012
-0.298881
0.14133
-0.0299625
-0.085638
-0.213883
0.299521
0.0970656
0.157669
-0.254735
-0.142583
-0.0451933
0.206089
-0.103239
0.434063
-0.297167
-0.136897
-0.137448
0.0168435
0.127989
-0.0951031
-0.0328863
-0.084715
0.390796
-0.322304
0.449335
-0.12703
0.326152
-0.410867
-0.102126
0.182502
-0.147964
0.241409
-0.142181
-0.313268
0.436387
-0.123118
-0.127619
-0.109153
0.236772
0.437268
-0.175868
0.167764
0.310032
0.139452
-0.120935
-0.018517
0.308926
-0.193856
-0.00655732
-0.136004
-0.431083
0.051951
0.103718
0.194225
-0.297943
-0.140674
0.0792653
0.0614089
-0.0715795
0.427514
0.111024
-0.238643
-0.378378
0.127138
-0.182553
-0.203221
0.362701
-0.159481
-0.364123
0.277077
0.0870458
-0.157355
0.207637
-0.0502822
0.248075
-0.141587
-0.505067
0.204319
0.300749
0.499173
-0.35857
-0.140603
-0.31923
0.165988
0.153243
-0.102147
0.0545057
-0.0760886
-0.127984
-0.0735158
0.408222
-0.334707
0.127068
-0.181762
-0.279402
0.318818
0.0379985
-0.356816
0.436536
-0.110384
-0.0128198
-0.0822646
-0.0355808
-0.0525292
0.08811
-0.494871
0.195535
0.299336
0.0577531
0.0823694
0.428778
-0.146557
-0.282221
-0.0656755
0.501802
-0.0755964
-0.0700278
-0.255771
0.103083
0.152687
-0.134151
-0.147015
-0.21626
0.140171
-0.0833108
-0.280812
0.0439396
-0.0795204
0.279626
0.149152
0.373791
-0.523859
0.328287
-0.355165
-0.467662
0.154394
0.246552
-0.135528
0.141946
-0.00107923
0.120448
0.45799
-0.00622415
-0.451766
-0.0574328
-0.0657022
-0.259508
0.386306
-0.126798
0.35352
0.0830157
0.150762
-0.324419
-0.222416
-0.0574835
0.141407
-0.139754
0.368528
-0.525146
0.156618
0.083075
-0.121853
0.0387775
0.254099
0.0777587
-0.331858
0.376099
0.113954
-0.490054
-0.32847
0.494741
-0.166271
0.223288
0.424136
-0.155403
0.0475588
-0.120834
0.0732757
-0.305445
0.164648
-0.0875442
-0.215705
-0.190091
-0.100874
-0.262598
0.147169
-0.283042
-0.462853
0.331421
0.131432
0.0993528
0.308342
-0.297431
-0.0288139
0.0192645
0.171391
0.139305
-0.507032
0.139434
0.242518
0.089445
0.0385445
-0.380139
0.00076139
0.379378
-0.332511
-0.102354
0.434864
0.510829
-0.211791
-0.299038
-0.229956
-0.278343
0.0349892
0.115434
-0.101304
0.503861
-0.150489
0.126402
-0.235555
0.44247
-0.08895
-0.434611
0.0544723
0.174008
-0.0093922
-0.164616
0.0544809
0.321228
-0.375709
0.0165644
0.127133
-0.143697
0.337758
-0.343618
0.287981
0.136155
0.470575
-0.211966
-0.25861
0.0945159
0.0279751
-0.122491
0.144957
-0.247836
0.411767
0.0318847
0.139875
-0.17176
-0.157588
0.457127
0.201235
0.107756
-0.308992
-0.351637
0.0783745
0.273263
-0.162128
-0.331487
-0.428639
0.301822
0.10996
-0.26483
0.349141
0.430138
0.0321331
-0.462271
0.263365
0.289591
0.293117
0.17074
-0.463857
0.140272
-0.319053
0.178781
-0.153215
0.169779
0.120827
-0.0263116
0.135356
0.144712
0.103363
0.109855
-0.30137
0.191515
-0.292988
0.195397
0.14563
-0.415394
-0.431634
0.279742
0.137454
-0.585098
0.25699
0.328108
0.442688
-0.303313
-0.139376
-0.29764
-0.223642
-0.126061
0.264903
-0.213357
0.327993
-0.114636
0.478278
-0.336873
-0.141405
0.0893058
-0.0858593
0.2468
0.0179556
0.148193
-0.309785
-0.154682
0.002645
-0.102344
0.503062
-0.321732
0.343233
0.135044
-0.0823121
0.42007
0.127858
0.49839
-0.155157
0.474478
-0.338663
-0.135814
-0.140445
0.122604
0.235026
0.291229
-0.230928
0.330703
-0.0997757
-0.142361
0.39646
-0.323473
0.10192
-0.363821
0.261901
-0.143557
0.175441
-0.291115
0.249403
0.0417121
0.301785
0.134602
0.0483493
0.178787
-0.227137
0.124108
0.380606
-0.0917098
0.0797932
-0.170324
-0.285658
-0.0638332
-0.0967017
0.160535
0.198519
0.0970269
-0.125732
-0.318937
0.0861608
-0.331308
-0.395182
0.263921
0.131261
-0.06902
0.0655311
-0.139797
-0.338529
0.153307
0.317551
-0.168882
0.318798
-0.113728
-0.205069
-0.28098
0.373405
-0.0924257
-0.453791
0.329956
-0.518289
0.359807
0.158482
-0.283062
-0.0842886
0.155177
0.335357
0.0886381
-0.152471
0.289584
-0.0796567
0.108962
0.290487
0.022402
0.373542
-0.395944
0.27465
-0.348166
0.362047
-0.511734
0.149686
0.436173
-0.117355
-0.112838
-0.052199
0.125017
-0.0728178
-0.204452
-0.226507
-0.142466
-0.0243409
0.166806
0.0120958
0.217762
-0.229857
-0.559856
0.221028
0.338828
0.00809564
-0.450433
0.128791
-0.383755
0.254964
0.120119
-0.409242
0.289123
0.226834
-0.016467
-0.210367
0.0966628
0.067985
-0.423657
-0.212487
0.233363
-0.221268
-0.210554
-0.150585
0.36114
-0.14352
-0.248395
0.0582323
-0.0106405
-0.131825
0.0959259
-0.198052
-0.0986221
0.130497
-0.0318746
0.0535611
0.0379754
0.275348
-0.120715
-0.154633
0.318374
-0.472283
-0.32483
0.0986122
-0.271058
0.172445
0.067263
-0.36352
0.296257
0.10133
-0.392571
-0.112552
-0.0249177
0.13747
0.125104
-0.0420292
-0.474169
0.173843
0.300326
0.148948
0.391785
-0.13234
0.393552
-0.273433
-0.0605114
-0.00850868
-0.431172
0.108868
-0.298021
0.149872
-0.488218
-0.0921104
0.419902
-0.327791
-0.249717
-0.303419
-0.165302
0.283902
-0.079284
0.104543
-0.0252588
-0.355609
0.514562
-0.158953
-0.297258
-0.292482
-0.181687
0.484557
-0.326298
-0.158259
-0.263368
-0.117236
0.318472
-0.273327
0.0776293
0.17923
0.305327
-0.143014
-0.32267
0.146008
-0.496206
0.329758
-0.0719118
-0.193365
0.356429
0.0430588
-0.399488
-0.448919
0.28263
-0.104906
-0.158546
0.263451
-0.0314334
0.121057
0.286283
-0.449455
0.163172
0.0941372
-0.319889
0.478117
-0.158228
-0.246462
-0.215485
0.440472
-0.153755
-0.286717
-0.116617
0.463828
0.153916
0.121432
-0.146468
0.439904
0.116639
-0.313808
0.197169
0.122912
-0.362532
0.23962
0.154221
0.228711
0.166707
0.152091
0.176467
0.332095
0.432037
-0.426994
-0.00504297
0.445278
0.0336592
-0.478938
0.0932505
-0.307954
-0.109222
-0.0798538
-0.404577
0.261721
0.142856
0.00763085
-0.138367
-0.447125
0.176814
0.193584
0.323972
-0.14013
-0.127291
-0.168184
0.295475
0.397462
-0.309118
-0.14202
0.464354
0.022841
-0.102125
-0.554408
0.232438
0.321971
-0.366702
0.471472
-0.104771
-0.284025
0.118855
0.16517
0.0847267
-0.298006
0.21328
0.257659
0.178515
-0.154741
0.139191
0.250387
-0.13419
0.0430007
0.0911898
-0.286439
0.159148
0.4004
-0.107283
-0.310192
-0.244216
-0.364415
0.161195
0.295413
-0.0129369
-0.282476
-0.302623
0.286091
-0.334993
0.483918
-0.332594
-0.151324
0.314736
-0.198097
0.222995
-0.0517315
0.0222694
0.119519
-0.141788
0.380582
-0.0384545
-0.342128
-0.328235
0.475838
-0.147603
-0.27541
-0.146285
0.421695
-0.310289
-0.153416
-0.132859
-0.288958
0.421817
-0.49132
-0.0418969
-0.100148
0.142044
-0.0961808
-0.0301265
0.126307
0.373227
-0.305964
-0.28359
-0.211168
-0.134768
0.508558
0.498728
-0.341799
-0.156929
-0.317738
-0.145115
0.0893118
-0.42877
-0.186224
-0.291244
-0.306873
0.48157
-0.174696
0.280477
0.17613
0.294445
0.124683
0.317232
-0.441915
0.15795
-0.391854
0.233904
-0.0252994
0.14883
-0.253689
0.470972
-0.167026
-0.303946
0.317412
-0.337873
0.0204608
0.0374643
0.13151
-0.168975
0.444052
-0.35598
0.145425
-0.314669
0.439351
-0.503397
0.354955
0.148443
-0.0254639
0.403557
-0.378093
-0.207811
0.0741979
0.133613
-0.114797
0.0818282
0.385689
-0.227738
0.0379344
0.100236
0.146873
-0.165921
0.0190476
0.0163496
-0.092363
0.0760134
0.0197818
-0.128382
0.1086
-0.451127
0.289985
0.161143
0.287428
-0.202702
-0.443949
0.281268
0.162681
-0.332849
0.402099
-0.0692494
-0.308801
0.456208
-0.147407
0.244243
-0.41771
0.173467
-0.378394
0.110022
-0.437076
0.0270065
0.34135
-0.263676
-0.0776742
0.0808197
-0.112253
-0.258696
-0.094096
-0.16085
0.300921
-0.140071
0.223974
-0.334453
0.110479
-0.317478
-0.174577
0.280251
-0.149838
-0.123679
-0.0851723
0.208851
0.44583
0.0352415
-0.481071
0.158793
-0.472908
0.12378
-0.0762208
-0.123409
0.174823
0.103834
-0.104913
0.40968
-0.0408247
-0.368855
0.0856662
0.0498751
-0.135541
-0.319762
0.463145
-0.137126
-0.183261
0.278057
-0.0947968
0.273375
-0.183767
-0.0896077
0.132277
-0.117773
0.152762
-0.523459
0.293503
-0.306528
0.20856
0.0979681
0.0918277
0.0398316
-0.230248
-0.0288025
-0.0663001
0.174235
0.206347
0.432545
-0.0905609
0.123239
-0.432836
-0.0842872
-0.0311215
0.115409
0.324328
-0.259392
0.12774
0.12225
0.2191
-0.0961012
-0.11171
-0.314193
0.140912
0.173281
0.173998
0.0993769
-0.321943
0.362471
0.405556
-0.374843
-0.0307132
0.291603
-0.124896
0.106139
0.151214
-0.257353
-0.560536
0.23191
0.328625
0.373591
0.060207
0.327959
0.137457
-0.465416
-0.229514
-0.331022
0.4391
0.146492
0.169242
-0.0767636
-0.307604
0.482195
-0.174591
0.155969
0.135634
0.12646
-0.174682
0.102399
0.175945
-0.278343
0.282094
-0.374204
0.0120081
-0.112156
0.3862
-0.128541
0.115511
-0.303473
0.187962
0.0996449
-0.446911
-0.21448
-0.0733283
0.135671
-0.296521
-0.151323
0.184841
-0.308313
0.123472
0.0577571
-0.123421
0.0656641
0.0311158
0.37444
-0.121761
0.313954
-0.129113
0.112775
-0.00894138
-0.256618
0.0733573
-0.180799
-0.251349
-0.140776
0.20217
-0.0613943
0.136176
0.315031
0.44898
-0.129784
0.272741
-0.142957
-0.324845
-0.106328
-0.472487
0.375433
0.0970535
0.412362
-0.0949496
-0.151944
0.145275
0.0602764
0.00103728
-0.302561
-0.178206
0.480767
0.114135
0.0430172
-0.157152
-0.422731
0.0216272
0.401103
-0.302496
0.292647
-0.146458
-0.346503
0.453515
-0.117486
0.223625
0.193526
0.32742
-0.148205
-0.138322
0.25191
0.387886
-0.248696
0.0333254
-0.114445
0.0811197
0.144234
0.136017
0.239308
-0.073591
-0.513042
0.301076
0.548481
-0.316571
-0.0444006
-0.077452
0.0716898
0.0386783
0.0892569
-0.0831282
0.482385
0.285755
0.150042
-0.123551
-0.188882
0.312432
-0.0881255
0.0711836
0.400103
0.374147
0.055991
0.12406
-0.206051
0.119268
0.188314
-0.448638
0.312523
-0.0956901
0.246904
0.249265
-0.32848
0.079215
-0.0517107
0.117607
-0.454015
0.205744
0.0280566
-0.13203
0.103974
0.138123
0.0764851
0.0319358
-0.186532
0.154596
0.5184
-0.474398
0.336744
0.137654
0.098047
0.190206
0.192652
-0.316202
-0.152066
0.249132
-0.340831
0.102117
-0.0728405
0.0655712
-0.488406
0.183486
0.0950803
-0.278567
-0.0889383
0.121174
-0.306703
0.0165189
0.210315
-0.0959974
-0.0559462
0.00650034
-0.0907875
-0.278022
0.140657
0.211233
-0.35189
0.194285
-0.0711032
0.0687114
0.00239179
0.1877
0.249568
0.131186
-0.328462
-0.135993
0.464455
-0.15191
0.0341366
0.0994581
-0.0831085
-0.164049
-0.308802
-0.11544
-0.226316
-0.0802119
0.41555
-0.171306
0.160973
-0.241628
0.0806551
-0.351876
-0.0170692
0.368945
0.0400812
-0.292883
0.252802
-0.510305
0.303734
0.206571
-0.123157
0.0640605
0.059096
-0.105732
0.289219
-0.306643
0.487392
-0.180749
-0.473712
0.303388
-0.257765
0.417621
-0.45876
0.172554
0.286206
0.200096
-0.536868
0.336772
0.0137893
-0.196989
-0.527455
0.297941
0.350731
-0.452035
-0.499555
0.206157
0.293398
0.194189
0.118916
-0.313105
-0.172978
-0.121347
0.294325
0.279743
-0.310209
-0.165508
0.153409
-0.0392743
0.100046
-0.272449
0.434034
-0.318161
-0.134033
0.452194
0.127104
-0.269334
-0.23503
0.437267
-0.227746
-0.209521
-0.186562
0.284609
0.305155
-0.265074
-0.404031
-0.112912
-0.363112
-0.110965
-0.505677
0.172979
0.332698
-0.27125
-0.126723
0.397973
0.245574
-0.39431
0.148736
0.297534
-0.177408
-0.322148
-0.340406
0.100996
0.239409
0.422363
-0.32301
-0.116204
-0.287477
0.403682
-0.0653995
0.127083
0.0297299
0.0952441
0.368458
-0.160886
0.124842
-0.242328
0.35389
-0.258473
-0.0954168
-0.138624
0.368582
-0.229958
0.227584
0.320898
0.144837
0.339081
0.35267
0.338973
-0.241397
-0.0975756
-0.334798
-0.096256
-0.308882
0.014261
0.339474
-0.353735
-0.338908
0.497428
-0.15852
-0.510268
0.17136
0.268881
-0.150026
-0.122509
-0.089522
0.0582356
0.512868
-0.160361
-0.352507
-0.281244
0.307544
-0.0262999
-0.219651
0.12355
0.332561
-0.368713
0.0361515
-0.27753
-0.30289
0.44714
-0.14425
0.360249
-0.0441631
0.0518444
0.130791
-0.182636
-0.105457
-0.205264
-0.0271945
0.232459
0.379328
0.0527084
-0.0623402
-0.078334
-0.294573
0.158413
0.13616
0.105391
0.294254
-0.120944
-0.17331
0.298957
-0.429823
0.130865
-0.169134
0.251114
-0.0819804
-0.318263
0.488706
-0.170443
0.0460868
0.0810412
0.159492
-0.122028
0.350168
-0.496675
0.146507
-0.285396
0.00415213
0.373932
0.0357481
0.230049
-0.179561
-0.0504877
-0.0258463
-0.102188
0.131553
0.259197
-0.390751
-0.436581
0.111736
0.114804
-0.255927
0.141123
-0.228863
-0.346993
0.247256
-0.0811093
-0.302038
0.383147
0.383795
-0.157662
-0.226133
-0.282702
0.121368
0.161334
-0.136471
0.385735
0.122603
-0.461266
0.276008
0.0778826
0.341327
-0.327066
0.485431
-0.333327
-0.152103
0.161392
-0.266297
0.0247305
-0.123347
0.0986164
-0.471756
0.290826
0.18093
0.00178059
0.399585
0.125815
0.439144
-0.152861
-0.387455
0.300518
-0.508124
0.354851
0.153273
-0.117237
0.212439
-0.3887
0.246338
0.0333708
0.196678
0.310389
0.0488404
0.246214
-0.295055
0.0242495
0.100456
-0.124706
0.145592
-0.249627
0.104035
0.255342
-0.492356
0.337624
0.154732
-0.451702
0.162193
0.289509
-0.259094
0.100548
-0.0797179
0.129593
-0.183133
-0.218084
-0.0992051
0.317289
0.150368
0.237518
0.51525
-0.203724
-0.311526
-0.360524
0.120199
0.240326
0.266156
0.145804
-0.41196
0.171042
-0.401471
0.230429
0.0742359
0.213192
0.0885305
0.180351
-0.0493746
0.224029
-0.174655
0.405775
-0.130403
-0.275372
0.290649
-0.241809
-0.146913
-0.325573
-0.0562096
0.406941
-0.333929
-0.234946
0.425189
-0.103652
-0.331326
0.182559
-0.0831391
-0.163923
0.128777
0.267689
-0.396466
-0.347792
-0.121729
0.469521
0.0774669
-0.0530492
-0.0244177
0.0254526
0.114
-0.311484
0.141457
0.132271
-0.480063
0.32812
0.077655
-0.23001
-0.22096
0.155209
-0.326208
-0.140941
0.467149
0.125911
-0.0438057
-0.0821051
-0.46593
0.159287
-0.207936
-0.286935
-0.156107
-0.280532
0.436639
-0.148371
-0.247569
0.0784355
-0.185859
-0.175788
0.0146119
0.161176
-0.309054
-0.452452
0.124217
0.35767
0.044429
-0.107082
0.0341384
-0.405295
-0.0929727
0.26726
0.109808
-0.377068
-0.507445
0.210173
0.297272
0.146028
0.153127
0.242231
-0.395358
0.200557
-0.317793
0.133695
0.275966
-0.409661
-0.324283
0.206704
0.117579
0.190856
0.153327
0.304889
0.229787
-0.102683
-0.203188
-0.333681
0.243454
-0.277302
0.0338483
-0.104428
0.204422
0.318073
-0.522496
0.248102
0.131167
-0.379268
0.0568424
0.114044
-0.170887
-0.170687
-0.296975
0.3698
-0.241023
0.0309967
-0.25457
0.386123
-0.166432
0.133466
0.0329655
0.200377
-0.0911985
0.363011
-0.151571
-0.21144
0.237338
0.125674
0.287697
-0.111421
-0.0281136
-0.0940858
0.122199
0.0841299
0.0417809
-0.0634137
0.395975
-0.204947
-0.129309
0.0331282
-0.31962
0.106263
0.193307
-0.140738
-0.479396
0.16948
0.309916
0.457348
-0.149042
-0.308306
0.129731
-0.466604
0.198439
-0.495407
0.296968
0.159571
-0.135321
-0.164435
-0.287266
-0.402233
-0.116493
0.518726
-0.304129
-0.112775
0.336749
-0.47649
0.158226
-0.0168242
-0.100357