/*--------------------------------*- C++ -*----------------------------------*\
| =========                 |                                                 |
| \\      /  F ield         | OpenFOAM: The Open Source CFD Toolbox           |
|  \\    /   O peration     | Version:  v2012                                 |
|   \\  /    A nd           | Website:  www.openfoam.com                      |
|    \\/     M anipulation  |                                                 |
\*---------------------------------------------------------------------------*/
FoamFile
{
    version     2.0;
    format      ascii;
    class       surfaceScalarField;
    location    "100";
    object      phi_0;
}
// * * * * * * * * * * * * * * * * * * * * * * * * * * * * * * * * * * * * * //

dimensions      [0 3 -1 0 0 0 0];
oriented        oriented;


internalField   nonuniform List<scalar> 
27284
(
-0.117951
-0.0242272
0.142179
-0.130392
-0.338117
0.468509
-0.107331
0.139978
-0.0326463
0.450324
-0.0638512
-0.386473
-0.509834
0.300836
0.208998
0.414941
-0.379288
-0.035653
-0.399756
0.0644513
0.335305
-0.258842
-0.250992
0.356884
0.111004
-0.467889
-0.271197
-0.151525
0.422722
0.0781358
-0.27478
0.196644
0.0330134
-0.117156
0.0841425
0.10841
-0.0753962
0.278167
-0.247548
-0.0306192
-0.194751
-0.270311
0.465062
-0.445312
-0.0333816
0.478693
0.0318491
0.418475
-0.325582
0.143332
0.182249
-0.115514
0.138043
-0.022529
0.407265
-0.405812
-0.00145317
0.148054
0.0195004
-0.167555
-0.336848
0.20044
0.136407
-0.530465
0.0591508
0.471314
0.381731
0.0332101
-0.461947
-0.0685178
-0.307881
-0.0997421
0.407623
0.454764
-0.330753
-0.124011
0.262801
-0.45108
0.188279
-0.0622185
0.419103
0.0810545
-0.246393
0.165339
0.405574
-0.287419
-0.118155
0.23321
-0.0685492
-0.164661
0.318376
-0.472853
0.154477
-0.372392
0.552956
-0.180564
0.479748
-0.493614
0.0138665
0.290211
0.0115725
-0.301784
0.184484
-0.154605
-0.0298792
0.355729
-0.0655176
0.234118
-0.153063
-0.171732
-0.131649
0.303381
-0.468861
0.480248
-0.0113871
-0.168258
0.506882
-0.34807
-0.158811
-0.323461
-0.126817
0.450279
-0.453854
0.0949556
-0.00732098
-0.0876346
0.245639
-0.444518
0.198878
0.441088
-0.195449
0.25592
-0.292904
0.430681
-0.137777
0.0126222
-0.395749
0.383127
0.120334
0.0558243
-0.176158
0.134849
-0.427752
0.14658
-0.0477557
-0.0988242
0.0977244
-0.38539
0.287665
0.406107
0.00115869
0.0144097
-0.402559
0.388149
-0.153793
0.017001
-0.324882
-0.0414341
0.0916503
-0.0502162
0.134489
0.155484
-0.12827
-0.0272138
0.00278743
0.143792
0.148928
-0.442957
0.294029
0.290781
-0.140175
-0.150606
-0.155625
-0.314115
0.46974
0.292882
-0.198734
-0.0941483
0.169262
0.0152222
-0.346155
0.526255
-0.1801
-0.0540315
-0.291147
0.345179
0.311413
0.103014
-0.414426
0.316086
-0.218361
-0.267485
0.115399
0.152086
0.130997
-0.314321
0.183325
0.553955
-0.284422
-0.269533
-0.383297
0.507807
-0.12451
0.0934085
-0.247202
-0.555011
0.171714
-0.116976
0.428389
0.306371
0.247584
0.14817
0.144712
0.457377
-0.0200188
-0.437358
0.161652
0.128942
-0.24088
0.111938
-0.0107804
-0.12918
0.13996
0.435809
-0.485991
0.0501824
0.047226
-0.442338
0.395112
0.192776
-0.0551673
-0.137609
-0.345364
0.478871
-0.133507
0.121823
0.0709533
0.355508
-0.148939
0.00767915
0.197509
-0.205188
0.430518
0.0268586
0.289891
0.14079
0.143646
-0.367054
0.223408
-0.141969
0.449473
-0.307504
0.164304
-0.464467
0.300163
-0.45847
0.316501
-0.194887
0.0804052
0.114482
0.183376
-0.298863
0.115487
0.134147
-0.144927
0.32367
-0.440646
0.431803
-0.141912
0.403307
0.0697115
-0.473018
-0.258111
0.126456
0.131655
0.0989834
-0.544295
0.132848
0.157933
0.340761
-0.197116
-0.0177541
0.151866
-0.134112
-0.623504
0.225707
0.397797
-0.366495
0.380905
0.459636
0.00686177
-0.466498
0.340052
-0.144743
-0.195308
0.251569
-0.122627
0.0905256
0.00335445
-0.0938801
0.0854182
-0.237472
0.152053
-0.0960185
0.419688
0.57579
-0.269419
-0.279154
0.127111
0.152043
-0.0435774
-0.155156
0.289094
-0.343126
-0.116258
0.00892657
0.279705
-0.0546503
0.190655
-0.136005
0.285575
0.290215
-0.0751158
-0.0314198
0.106536
0.0550077
0.478278
-0.446429
0.0126846
-0.130636
-0.12471
-0.141772
0.266482
0.451463
-0.287159
-0.050403
0.170737
0.121448
0.221361
-0.342809
-0.00961089
-0.100389
0.109999
0.181006
-0.0690988
-0.111907
0.302434
-0.477468
0.175034
-0.0119908
-0.103523
0.290089
-0.361907
0.0718172
0.378648
-0.524553
0.145904
-0.184406
0.192085
0.229228
-0.121824
-0.107403
-0.508172
0.338883
0.169289
-0.324387
-0.110879
0.435266
-0.124115
0.136003
0.128246
0.0527596
-0.0438291
-0.280641
0.32447
-0.0856782
0.083237
0.00244121
0.130866
-0.487517
0.356651
0.183657
0.156395
0.384178
0.0407377
-0.424916
-0.19666
0.459462
-0.189349
0.145771
0.153214
-0.453492
0.300278
0.477773
-0.33941
-0.138363
0.126963
-0.475033
-0.00711084
0.344938
-0.337827
0.479725
-0.00144732
0.404822
0.0309867
-0.343209
0.0188217
-0.409597
0.402486
-0.13587
0.311211
-0.175341
0.320263
-0.198815
-0.29701
-0.326494
0.446497
-0.327
-0.119497
-0.139883
0.31276
-0.172877
0.297195
0.108015
-0.405211
-0.087245
0.00156673
-0.140087
0.0233175
0.11677
0.223195
-0.150211
-0.0729837
0.0892206
0.140007
0.523304
-0.498268
-0.025036
-0.129556
0.119945
0.530085
-0.516942
-0.0131426
0.452369
-0.196449
-0.4692
0.471286
-0.00208616
-0.401997
0.358168
0.397048
0.0625883
-0.33263
0.454865
-0.122235
-0.0142523
-0.177226
0.191478
0.280319
-0.181297
-0.0990218
-0.478326
0.463702
0.0146241
-0.142489
0.439684
-0.193461
0.311633
-0.118172
0.482694
-0.225769
-0.256925
0.15404
0.293395
-0.447435
0.26365
0.168154
-0.521283
0.347211
0.174072
-0.20396
0.0803505
0.123609
0.165237
-0.41485
0.249612
0.138505
-0.469257
-0.104552
0.0294363
-0.108026
-0.0868609
0.131604
0.320916
-0.45252
0.346343
-0.535061
0.188717
0.455374
-0.01068
-0.444694
-0.0926746
-0.0315418
0.124216
-0.384191
0.396813
-0.112221
0.00302951
0.109191
-0.461361
0.123244
0.0221875
0.25598
0.445226
-0.181576
0.313948
-0.216695
-0.0972526
0.0568505
0.177267
0.37053
-0.517463
0.146933
-0.0109174
-0.12917
0.283486
-0.107796
-0.17569
0.219111
0.00408401
0.31441
0.168284
-0.32672
-0.123837
0.450557
0.147402
-0.44857
0.301168
-0.190568
-0.124565
0.315133
0.3512
0.0235039
-0.374703
-0.149055
0.451384
-0.302329
-0.449151
0.300096
-0.379999
0.510864
0.225611
0.226759
0.179027
0.101291
-0.11675
-0.0598611
0.176611
-0.114342
0.275008
-0.160666
-0.153909
0.433798
-0.279889
-0.165607
0.147853
-0.347648
0.517556
-0.169909
-0.151486
0.197148
-0.045662
-0.523601
0.260649
0.262952
-0.231197
-0.116995
0.348192
0.528236
-0.213749
-0.314486
0.504334
-0.367727
-0.136607
0.320849
-0.0307592
-0.142519
0.00586139
0.136658
-0.250727
0.113635
0.137092
-0.269765
-0.170472
0.440237
-0.109941
-0.508055
0.322295
0.18576
0.156686
0.335825
0.110672
0.151042
-0.382239
0.0797119
-0.253271
0.173559
-0.00959655
0.207692
-0.0723452
-0.135347
-0.160286
-0.288865
0.0885581
-0.429035
0.340477
0.158693
-0.172946
-0.450357
0.29007
0.131436
-0.280824
0.149388
0.169144
0.15997
-0.397176
0.237206
-0.461584
0.198442
0.263141
-0.00595593
0.357155
0.351125
-0.0550856
-0.29604
-0.180113
-0.239777
0.41989
0.456408
-0.30748
0.374629
0.105435
0.0061506
-0.111585
-0.306477
-0.217124
0.201967
-0.534597
-0.611564
0.303174
0.308389
0.109176
0.0985153
-0.294166
-0.136115
0.43028
0.32085
0.207386
0.443145
-0.301639
-0.141506
-0.122727
0.506905
-0.123702
0.407781
-0.284079
-0.00856336
-0.109144
0.117708
0.00659564
0.107125
-0.113721
-0.166116
0.222966
0.417096
-0.276963
-0.140133
-0.49858
0.191252
0.307329
-0.178682
0.13382
0.044862
0.311755
0.13139
-0.22542
-0.463702
0.199394
0.264307
0.331774
-0.501931
0.170156
0.209281
0.104667
0.0478805
-0.16463
0.453218
-0.310938
-0.14228
0.329657
-0.148767
-0.18089
0.0808155
-0.271035
0.190219
0.458216
-0.155782
-0.00597267
-0.12697
0.132942
-0.173526
0.338978
0.0709651
-0.289873
0.218908
-0.31718
0.126612
0.0542948
-0.226041
0.171746
-0.150068
0.481843
-0.0161586
-0.175647
0.191805
-0.192738
0.307581
-0.114843
-0.00667265
0.176395
-0.169722
-0.12947
-0.339391
0.172354
0.196448
-0.498493
0.462077
-0.143701
0.190716
-0.103917
-0.0867986
-0.183202
-0.0934034
0.276605
-0.166273
0.457642
-0.291368
-0.284751
-0.213829
-0.471098
0.276347
0.499128
-0.152785
-0.138701
0.132728
0.124398
0.205259
-0.31692
0.181604
-0.0482159
-0.133388
-0.0763653
-0.189074
0.0592098
0.129864
-0.11659
-0.331786
0.140034
0.191751
0.260922
-0.180106
-0.309916
-0.116614
0.42653
-0.143601
0.189413
-0.0458123
-0.132827
0.139423
0.0770733
0.113642
0.506361
-0.349274
-0.157087
-0.121109
0.060606
0.0605027
-0.0428542
-0.234432
0.277286
0.241914
-0.363493
0.121579
-0.129073
-0.00783911
0.136912
0.19347
-0.139175
-0.341742
0.298888
0.182749
0.258339
-0.482043
0.229559
0.252483
0.111339
-0.137337
0.0259977
-0.0582235
-0.0628851
-0.0847196
0.124066
-0.0393461
0.326535
0.179826
-0.20007
0.245917
-0.15808
-0.0878373
-0.479735
0.23351
0.246225
0.159743
0.313921
-0.473663
0.189045
-0.296841
0.124093
0.209912
-0.354209
0.144297
-0.119291
0.371265
0.108483
0.220525
-0.4306
0.210075
-0.494758
0.345069
0.149689
-0.103281
0.388856
-0.330785
-0.121154
0.451939
-0.324676
0.152944
-0.333395
0.225137
0.108258
0.0485602
-0.127988
0.0794276
0.112794
-0.12588
0.0130859
-0.137996
-0.142828
0.50846
-0.181925
0.171266
0.13947
-0.310736
0.118347
-0.463711
0.354773
-0.144861
-0.257043
-0.158855
0.415898
-0.479424
0.208227
-0.46872
0.214809
0.253911
0.422802
0.0193788
-0.442181
-0.166554
0.524358
-0.357804
0.310369
-0.198088
-0.112281
-0.468498
0.320753
0.147745
0.080249
0.0293212
-0.10957
0.0961328
-0.353176
-0.464257
0.220005
0.244252
-0.187459
0.454375
-0.266917
0.285767
-0.109372
-0.0268778
0.391258
-0.36438
0.145186
0.140581
0.317891
-0.492057
0.174166
0.383571
0.0392308
-0.119785
0.303161
-0.0803968
0.0389627
-0.568166
0.269677
0.298488
0.520947
-0.203057
-0.320755
0.472803
-0.152049
-0.266781
-0.16651
0.433292
-0.320635
-0.161408
0.355934
0.138316
-0.49425
-0.44585
0.221054
0.224795
-0.29562
-0.272546
0.036922
0.223999
-0.213366
-0.142602
0.355968
0.225937
-0.146225
0.0266493
0.0817604
0.153561
-0.467452
0.313891
-0.249174
-0.36239
0.0341847
-0.177786
0.354985
0.118994
-0.473979
0.0874306
-0.354212
0.403532
-0.089924
-0.313608
-0.203689
0.315734
-0.112045
0.498338
-0.307086
-0.191251
-0.183354
-0.142228
0.424735
0.0214449
-0.44618
0.259426
-0.398381
0.138955
0.405568
0.0498067
-0.152078
-0.0963255
0.248403
-0.297142
0.0567387
-0.204075
0.147336
-0.46713
0.311504
-0.234698
-0.100777
0.310058
-0.45808
0.315001
0.143079
0.174315
-0.0981315
-0.0761836
-0.111166
0.0870882
0.0240775
0.590364
-0.320687
0.494221
-0.347262
-0.146959
-0.0238977
0.129333
-0.44472
0.159941
0.284779
-0.405342
0.0745565
-0.323422
-0.156087
-0.0172985
-0.10896
0.126258
0.416608
-0.251371
0.224912
-0.18799
-0.269849
0.334301
-0.148057
0.330934
-0.182877
-0.329046
-0.150689
-0.293156
-0.0704269
0.363583
0.119223
-0.00642897
0.154989
-0.130734
-0.0242548
-0.0998709
0.503178
0.127413
-0.0814065
-0.0460063
-0.105544
-0.193319
0.297634
0.155584
-0.0153295
0.163384
0.337046
-0.4582
0.450126
-0.362695
-0.133304
0.436125
-0.302821
0.274714
-0.141866
-0.0256113
0.362657
-0.0274541
-0.102102
0.123522
0.290614
-0.414136
0.0067123
-0.12519
0.118477
0.11507
0.213726
-0.328796
-0.0625994
-0.303417
0.366016
-0.102432
-0.148579
-0.130574
-0.309597
0.451203
-0.141606
-0.442961
0.291436
0.293675
-0.417377
0.453481
-0.155847
-0.121215
0.0895978
0.0847173
-0.408897
0.346297
0.126412
-0.279897
0.153485
-0.285078
0.147082
0.135933
-0.280867
0.144934
-0.016284
-0.124663
0.140947
0.208088
0.102281
0.055899
-0.365815
-0.120589
-0.0190735
0.139662
0.504714
-0.288854
-0.215859
-0.34422
0.483459
-0.139238
0.315165
-0.502624
-0.410151
-0.0279677
-0.083198
0.487325
-0.13234
-0.0132458
0.388054
-0.374808
-0.379132
0.388303
-0.00917089
-0.0618459
0.110406
0.35482
0.0487122
-0.492961
0.34308
0.149881
0.0843587
0.365767
-0.167645
0.262427
0.00857656
-0.271003
-0.103269
0.0105945
0.103111
0.052373
0.0800413
-0.273502
0.374222
0.0505135
-0.145621
0.129337
-0.0996907
0.12009
-0.0203992
0.220943
-0.236055
0.0151116
-0.356702
0.511021
-0.154319
-0.0991121
0.112005
-0.0128933
-0.0565804
0.435229
0.130623
-0.181001
0.150292
0.0307087
-0.135464
0.274398
-0.138934
-0.240377
0.0882991
-0.151986
-0.1155
-0.13261
-0.154412
0.285409
-0.217231
-0.119616
-0.0329859
0.113235
0.27723
-0.150119
0.0199947
-0.145693
0.125698
0.32089
-0.144699
-0.176191
-0.32993
0.493533
-0.163603
-0.0668352
0.224017
-0.157182
0.181091
-0.131937
0.0383935
0.0935431
0.107689
-0.0206004
0.129429
0.145285
-0.165541
0.308874
-0.0975906
0.288251
-0.19066
0.122802
0.456734
-0.309332
-0.119599
-0.212187
0.446247
-0.286619
-0.159628
0.490533
-0.338344
-0.152189
0.428931
-0.217787
-0.211145
0.00490603
-0.180553
-0.320339
0.303194
0.143053
-0.065281
-0.0348216
0.100103
-0.00695035
-0.105271
-0.126286
0.138843
-0.263553
0.318859
-0.332105
-0.139892
0.280482
0.363981
-0.486707
0.083704
-0.134392
0.0506881
0.389596
-0.147682
-0.24729
0.110619
0.136671
-0.195699
0.294483
-0.0987845
0.165719
-0.256836
0.0911165
0.0951965
-0.228112
0.132915
0.0592271
-0.00358594
-0.0556411
0.227756
-0.145816
-0.0819397
-0.308835
-0.0949418
0.403777
-0.283825
0.447306
-0.163481
-0.327345
0.374571
-0.102563
0.0658085
0.0616044
-0.0507813
-0.0969372
0.147718
-0.133179
0.259591
-0.00638603
0.0656131
0.161276
-0.472214
-0.132438
0.104984
0.213274
0.0199356
0.300719
-0.455996
0.155277
0.104452
0.172778
-0.259498
0.192663
0.219397
-0.344691
0.125295
0.306648
0.0761753
-0.382824
0.214927
0.470926
-0.170207
0.0890741
0.320551
-0.409625
0.0991756
-0.315871
0.338177
-0.11878
-0.129961
-0.110919
-0.15888
-0.238296
-0.238722
0.356236
-0.117514
-0.164905
0.381644
-0.156034
0.114587
-0.00689888
0.266272
-0.243163
-0.0231095
0.0750782
-0.301229
0.226151
0.175142
-0.243691
0.324598
-0.140941
-0.267431
-0.177087
-0.446521
0.17676
0.26976
0.309514
-0.234436
-0.21472
-0.0881695
0.30289
0.122161
-0.314899
-0.399093
0.240213
0.274889
-0.378171
0.445472
-0.287424
-0.158049
0.0060372
0.260235
-0.245156
0.325312
-0.0801564
0.137827
-0.0447105
-0.0931164
-0.0728786
0.0995279
-0.216745
-0.229776
0.105102
0.146467
0.126141
-0.113456
0.268732
0.160199
-0.123087
0.0565986
0.0664888
0.163131
0.335206
0.049854
-0.225832
0.175978
0.137076
0.0906799
0.388826
0.0914221
0.175736
0.148862
-0.0982764
0.123564
0.0314249
-0.0630898
0.43362
-0.52991
0.218691
0.311218
-0.131399
0.156792
-0.0253929
-0.162056
0.111275
0.104794
0.0330328
0.163932
0.254323
-0.418255
-0.10896
-0.0193104
0.30796
0.137512
0.127005
-0.0433014
-0.449776
0.126354
-0.180749
0.395818
-0.215069
-0.145502
0.0596764
0.0858257
-0.465651
0.325998
0.139653
-0.211808
0.36285
-0.160589
-0.308611
0.106498
-0.25038
0.143882
0.161565
-0.473958
0.312393
0.437451
-0.216926
-0.00211707
-0.0826025
-0.0488638
0.166144
-0.11728
0.538727
-0.278078
0.341984
0.155039
-0.497023
-0.140622
-0.312001
0.128247
0.183754
-0.183218
0.134354
0.061363
-0.0607531
-0.000609888
0.151109
-0.449533
0.298424
0.24537
0.344994
-0.185529
-0.123879
0.309409
0.115042
0.408262
0.220463
-0.0904067
-0.130057
0.495933
-0.131952
0.445309
-0.291749
-0.0553703
-0.125527
0.180897
0.435797
-0.290553
-0.145244
0.150406
-0.00666666
-0.14374
0.112149
-0.402669
0.290521
-0.327774
-0.241579
0.0103515
0.102074
-0.112425
-0.0821368
-0.0915855
0.0263045
-0.103528
0.250187
-0.146658
0.176274
-0.308432
0.132159
0.150698
-0.39437
0.243672
0.436285
-0.333272
-0.190159
-0.124162
0.295547
-0.0776519
-0.217895
0.355478
-0.488782
-0.187899
0.0413111
0.146588
0.0516265
-0.172067
0.12044
0.189814
-0.370563
-0.282162
0.130268
0.151895
-0.146229
-0.190402
0.253222
-0.062821
-0.131501
0.0544988
0.0770022
-0.526644
0.182424
0.139092
-0.163319
-0.473256
0.168614
0.304642
0.402556
-0.43058
0.0280242
-0.291245
0.403394
0.00573408
0.126269
-0.132003
0.110241
-0.097663
-0.0125779
0.26138
0.176071
0.29954
-0.451336
0.151796
0.256172
0.136598
0.393487
0.452868
-0.298828
0.14131
-0.0299706
-0.0856377
-0.213883
0.299521
0.0970653
0.157668
-0.254734
-0.142765
-0.0451337
0.206089
-0.103226
0.434064
-0.297169
-0.136895
-0.13743
0.0168413
0.127746
-0.0949295
-0.0328165
-0.0844592
0.391107
-0.322294
0.44942
-0.127126
0.326535
-0.410994
-0.102172
0.182523
-0.147798
0.241206
-0.142188
-0.313268
0.436386
-0.123118
-0.127619
-0.109169
0.236788
0.437004
-0.175623
0.167798
0.309975
0.139435
-0.120912
-0.0185228
0.308925
-0.193855
-0.00634102
-0.136178
-0.431083
0.0519509
0.103719
0.194223
-0.297941
-0.140526
0.0792937
0.0612323
-0.0715795
0.427514
0.111045
-0.238664
-0.378318
0.127247
-0.182617
-0.20322
0.3627
-0.159481
-0.364122
0.277077
0.0870457
-0.15736
0.207637
-0.0502763
0.24809
-0.141592
-0.505068
0.20432
0.300748
0.499185
-0.358567
-0.140618
-0.319215
0.166023
0.153192
-0.102141
0.0543849
-0.0760858
-0.127989
-0.0735159
0.408223
-0.334707
0.127114
-0.181765
-0.279147
0.318817
0.0379985
-0.356816
0.436754
-0.110219
-0.0127435
-0.0822646
-0.0361745
-0.0521009
0.0882754
-0.494872
0.195536
0.299335
0.0577106
0.082267
0.428777
-0.146557
-0.28222
-0.0656699
0.501795
-0.0755041
-0.069998
-0.255777
0.103088
0.152689
-0.133856
-0.147011
-0.216262
0.140176
-0.0833108
-0.280811
0.0434765
-0.0796511
0.279626
0.149151
0.373791
-0.523859
0.328287
-0.355165
-0.467662
0.154393
0.246576
-0.135532
0.141981
-0.00144291
0.120666
0.457991
-0.00622414
-0.451766
-0.0574537
-0.0656337
-0.259497
0.38629
-0.126792
0.353963
0.0827903
0.150568
-0.324095
-0.222417
-0.0574796
0.141407
-0.139761
0.368525
-0.525145
0.15662
0.0830289
-0.121797
0.0387677
0.254099
0.0777587
-0.331858
0.3761
0.113954
-0.490054
-0.32847
0.49474
-0.16627
0.223288
0.424136
-0.155404
0.0475512
-0.120724
0.0731728
-0.305424
0.164613
-0.0875397
-0.215703
-0.190109
-0.100889
-0.262604
0.147159
-0.283029
-0.462818
0.331414
0.131405
0.099394
0.308387
-0.297431
-0.0288259
0.0192208
0.171434
0.139306
-0.507033
0.139198
0.242446
0.0892617
0.0384842
-0.380139
0.000761433
0.379378
-0.332855
-0.102445
0.4353
0.510829
-0.211791
-0.299038
-0.22982
-0.278236
0.0349844
0.115422
-0.101304
0.50386
-0.150472
0.126402
-0.235571
0.442807
-0.0888438
-0.434611
0.0544723
0.174004
-0.00939213
-0.164612
0.0544201
0.321593
-0.376013
0.016584
0.12722
-0.143804
0.33756
-0.343516
0.287981
0.136155
0.470467
-0.211756
-0.258711
0.094465
0.027995
-0.12246
0.144953
-0.247835
0.411767
0.0318874
0.139872
-0.171759
-0.157585
0.457126
0.201236
0.107756
-0.308991
-0.351637
0.0783739
0.273263
-0.162128
-0.331486
-0.428639
0.301822
0.109952
-0.264775
0.349133
0.430138
0.0321331
-0.462271
0.263365
0.289591
0.293117
0.17074
-0.463857
0.140273
-0.319054
0.178781
-0.153313
0.169897
0.1208
-0.0263349
0.135357
0.144715
0.103375
0.109854
-0.301369
0.191514
-0.292986
0.195395
0.145623
-0.415388
-0.431633
0.279678
0.137419
-0.585098
0.256989
0.328108
0.442688
-0.303313
-0.139375
-0.29764
-0.223642
-0.12606
0.264904
-0.213367
0.327996
-0.114628
0.478273
-0.336862
-0.141411
0.0891972
-0.0858427
0.247363
0.0179475
0.148196
-0.309785
-0.154682
0.00260301
-0.102294
0.503062
-0.321733
0.343217
0.135055
-0.08236
0.41992
0.127857
0.49838
-0.155163
0.474477
-0.338663
-0.135814
-0.140445
0.1226
0.235026
0.29123
-0.230914
0.330666
-0.0997514
-0.142361
0.39646
-0.323474
0.10192
-0.363821
0.261901
-0.143555
0.175442
-0.29141
0.249781
0.0416286
0.301785
0.134602
0.048349
0.178788
-0.227137
0.124108
0.380605
-0.0916532
0.0796624
-0.170143
-0.285853
-0.0638322
-0.0966957
0.160528
0.198518
0.0970289
-0.125762
-0.318958
0.086186
-0.331342
-0.395102
0.26388
0.131222
-0.0692129
0.065627
-0.139797
-0.338529
0.152976
0.31795
-0.168883
0.318506
-0.113653
-0.204853
-0.280985
0.373413
-0.0924275
-0.453792
0.329956
-0.518288
0.359806
0.158482
-0.28314
-0.0839133
0.155178
0.335355
0.088632
-0.152464
0.289553
-0.0795852
0.108906
0.290541
0.022402
0.373542
-0.395944
0.27465
-0.348166
0.362047
-0.511733
0.149686
0.436173
-0.117355
-0.112832
-0.0521617
0.124928
-0.0727665
-0.204332
-0.226268
-0.142458
-0.0243086
0.166767
0.0120952
0.217762
-0.229857
-0.559856
0.221028
0.338828
0.00809561
-0.450433
0.128791
-0.383755
0.254964
0.120119
-0.409242
0.289123
0.226834
-0.0164664
-0.210367
0.0966315
0.0679814
-0.423629
-0.21234
0.233363
-0.221268
-0.210554
-0.150586
0.361139
-0.143479
-0.248395
0.058244
-0.0106623
-0.131796
0.0958956
-0.198068
-0.0985381
0.130418
-0.03188
0.0535659
0.0380844
0.27531
-0.12071
-0.154601
0.318374
-0.472283
-0.32483
0.0986121
-0.271057
0.172445
0.0672627
-0.363519
0.296257
0.101174
-0.392322
-0.112535
-0.0249138
0.137448
0.125048
-0.0420187
-0.47417
0.173844
0.300326
0.148948
0.391767
-0.132341
0.393552
-0.273433
-0.0606048
-0.00860816
-0.431246
0.108953
-0.298021
0.149874
-0.488218
-0.0921104
0.419902
-0.327791
-0.249717
-0.303419
-0.165302
0.283904
-0.0792028
0.104475
-0.0252717
-0.355608
0.514561
-0.158953
-0.297263
-0.292482
-0.181687
0.484557
-0.326298
-0.158259
-0.263369
-0.117236
0.318471
-0.273307
0.0776079
0.17923
0.305327
-0.143015
-0.322636
0.146007
-0.496152
0.329598
-0.0718246
-0.193361
0.356378
0.042955
-0.399333
-0.448916
0.282643
-0.104905
-0.158545
0.26345
-0.0314213
0.121019
0.286369
-0.449298
0.16293
0.094137
-0.319889
0.478117
-0.158228
-0.246462
-0.215485
0.440484
-0.153727
-0.286758
-0.116617
0.463828
0.15389
0.12142
-0.146409
0.439804
0.11664
-0.313808
0.197168
0.12292
-0.362537
0.239617
0.154221
0.22871
0.166549
0.151957
0.176397
0.332063
0.432037
-0.426994
-0.00504298
0.445278
0.0336592
-0.478938
0.0932357
-0.307956
-0.109202
-0.0798718
-0.404576
0.261721
0.142856
0.00758163
-0.138316
-0.447125
0.176814
0.193585
0.323972
-0.140132
-0.127272
-0.168435
0.295707
0.397913
-0.308839
-0.14187
0.464165
0.0228783
-0.102081
-0.554409
0.232438
0.321971
-0.366612
0.471427
-0.104815
-0.284176
0.119048
0.165128
0.0847061
-0.298011
0.213305
0.257659
0.178514
-0.154746
0.139206
0.250389
-0.134074
0.04287
0.0912041
-0.286689
0.159417
0.4004
-0.107283
-0.310193
-0.244216
-0.364415
0.161195
0.295415
-0.0129339
-0.282481
-0.302623
0.285951
-0.334946
0.483918
-0.332594
-0.151324
0.314735
-0.198095
0.222996
-0.0517298
0.0222589
0.11951
-0.141769
0.380582
-0.0384547
-0.342128
-0.328237
0.475838
-0.147601
-0.275349
-0.146273
0.421622
-0.310292
-0.15341
-0.132862
-0.288962
0.421825
-0.491144
-0.0418895
-0.100079
0.141968
-0.0961698
-0.0300916
0.126261
0.373227
-0.305964
-0.28359
-0.211168
-0.134768
0.508558
0.498719
-0.341798
-0.156921
-0.317724
-0.145094
0.0893536
-0.428763
-0.186224
-0.291244
-0.306873
0.48157
-0.174696
0.280472
0.175876
0.294591
0.124683
0.317232
-0.441915
0.157951
-0.391854
0.233903
-0.0252106
0.148775
-0.253689
0.470972
-0.167026
-0.303946
0.317412
-0.337872
0.0204606
0.0374002
0.131578
-0.168978
0.444052
-0.35598
0.145426
-0.314669
0.439352
-0.503398
0.35494
0.148458
-0.0254634
0.403557
-0.378094
-0.20781
0.0741882
0.133622
-0.114739
0.0817528
0.385688
-0.227738
0.0378359
0.100207
0.146882
-0.165913
0.0190311
0.0162656
-0.0922883
0.0760227
0.0197452
-0.128337
0.108592
-0.451127
0.289985
0.161142
0.287434
-0.202728
-0.443949
0.281268
0.162681
-0.332849
0.402099
-0.0692495
-0.308801
0.456207
-0.147407
0.244126
-0.417414
0.173288
-0.378428
0.110094
-0.437094
0.0269984
0.341562
-0.264073
-0.0774885
0.0808008
-0.112222
-0.258685
-0.0940512
-0.160717
0.300827
-0.14011
0.223989
-0.334459
0.11047
-0.317478
-0.174579
0.279957
-0.14969
-0.123677
-0.0851715
0.208849
0.44583
0.0352415
-0.481071
0.158793
-0.472908
0.123666
-0.0761149
-0.123198
0.174824
0.103712
-0.105155
0.409679
-0.0408245
-0.368855
0.0856157
0.0498738
-0.13549
-0.32028
0.463109
-0.137111
-0.183226
0.278012
-0.094786
0.273375
-0.183774
-0.0896011
0.13227
-0.117763
0.152747
-0.523236
0.293416
-0.306517
0.208555
0.0979622
0.0918267
0.0398477
-0.230249
-0.028697
-0.0662252
0.174235
0.206347
0.432545
-0.0905609
0.123235
-0.432832
-0.0841413
-0.0311359
0.115277
0.324313
-0.259389
0.12774
0.122101
0.219461
-0.096093
-0.111717
-0.314175
0.140943
0.173233
0.174006
0.0993693
-0.32175
0.362487
0.405556
-0.374843
-0.0307128
0.291371
-0.124822
0.106138
0.151216
-0.257354
-0.560537
0.231913
0.328624
0.373591
0.0602065
0.32796
0.137457
-0.465418
-0.229516
-0.331021
0.4391
0.146492
0.169242
-0.0766815
-0.307604
0.482195
-0.174591
0.155859
0.135512
0.126459
-0.174675
0.102399
0.175944
-0.278343
0.282094
-0.374204
0.0120294
-0.112108
0.3862
-0.128541
0.11551
-0.303472
0.187962
0.0996271
-0.446889
-0.214949
-0.0724703
0.135727
-0.296444
-0.151325
0.184841
-0.308312
0.123471
0.0576945
-0.123245
0.0655505
0.0311154
0.37444
-0.121791
0.313954
-0.129113
0.113076
-0.0093639
-0.256569
0.0733429
-0.180587
-0.251502
-0.140792
0.202182
-0.0613899
0.136171
0.315032
0.448976
-0.129689
0.272402
-0.142713
-0.324867
-0.106379
-0.472487
0.375433
0.0970537
0.412361
-0.0949494
-0.151925
0.145258
0.0604987
0.00086425
-0.302561
-0.178206
0.480767
0.114138
0.0429798
-0.157118
-0.42273
0.0216366
0.401094
-0.302469
0.292646
-0.146458
-0.346503
0.453505
-0.117488
0.223626
0.193527
0.32742
-0.148153
-0.138317
0.251952
0.387907
-0.248701
0.0333314
-0.114398
0.0810664
0.144013
0.135944
0.239309
-0.0735901
-0.512893
0.301137
0.548482
-0.316569
-0.044402
-0.0773947
0.0716438
0.0385971
0.0892095
-0.0830589
0.482386
0.285766
0.150032
-0.12355
-0.188882
0.312432
-0.0873409
0.0711836
0.400103
0.374147
0.055991
0.124009
-0.206052
0.119267
0.188314
-0.448638
0.312523
-0.095689
0.246905
0.249265
-0.328479
0.0792145
-0.051526
0.117334
-0.453943
0.205738
0.0280448
-0.131987
0.103942
0.138123
0.076485
0.0318282
-0.186682
0.154854
0.518399
-0.474538
0.336814
0.137725
0.0980463
0.190204
0.192652
-0.316202
-0.152065
0.24913
-0.340852
0.10213
-0.0728404
0.0655194
-0.4884
0.183486
0.0950804
-0.278566
-0.0887606
0.121174
-0.306703
0.0165185
0.210315
-0.0959898
-0.0559351
0.00657894
-0.0907202
-0.277866
0.140657
0.211233
-0.35189
0.194287
-0.0713116
0.0687684
0.00254322
0.187508
0.249496
0.131261
-0.328468
-0.135997
0.464465
-0.151896
0.0341329
0.0993569
-0.0830913
-0.16405
-0.308802
-0.115424
-0.226311
-0.080206
0.415281
-0.171155
0.160972
-0.241635
0.0806631
-0.351876
-0.0170693
0.368945
0.0400745
-0.292889
0.252814
-0.510302
0.303734
0.206568
-0.122985
0.063981
0.0590044
-0.105732
0.289218
-0.306645
0.487391
-0.180746
-0.47367
0.303527
-0.257716
0.417657
-0.458674
0.172492
0.286182
0.200094
-0.536866
0.336772
0.0137899
-0.196992
-0.527456
0.29794
0.35073
-0.452034
-0.499555
0.206157
0.293398
0.194195
0.118908
-0.313103
-0.172978
-0.121347
0.294325
0.279743
-0.310208
-0.165509
0.153376
-0.039238
0.10002
-0.272482
0.434047
-0.318162
-0.134036
0.452198
0.127094
-0.269322
-0.23503
0.437323
-0.227492
-0.209831
-0.18656
0.284607
0.305158
-0.265084
-0.404031
-0.112912
-0.36311
-0.110965
-0.50566
0.172958
0.332701
-0.27125
-0.126722
0.397972
0.245573
-0.39431
0.148736
0.297534
-0.177408
-0.322147
-0.340345
0.100545
0.2398
0.422599
-0.323205
-0.116203
-0.287476
0.403679
-0.0652909
0.127068
0.0297233
0.0952441
0.368458
-0.160886
0.124842
-0.242329
0.353935
-0.258725
-0.0952109
-0.138618
0.368582
-0.229963
0.227587
0.320896
0.144837
0.339081
0.35267
0.338973
-0.241397
-0.0975759
-0.334798
-0.0962382
-0.308882
0.0142621
0.339472
-0.353734
-0.338897
0.497406
-0.158509
-0.510243
0.171346
0.269063
-0.150016
-0.122436
-0.0891361
0.0584566
0.512868
-0.160361
-0.352507
-0.282194
0.307342
-0.0251479
-0.21965
0.123557
0.332561
-0.368713
0.0361515
-0.27753
-0.30285
0.447115
-0.144265
0.360249
-0.0441633
0.05183
0.130813
-0.182643
-0.105445
-0.205255
-0.0271958
0.232451
0.379328
0.0527084
-0.0623873
-0.0781388
-0.294479
0.158497
0.135983
0.105055
0.294123
-0.12082
-0.173303
0.299098
-0.429799
0.1307
-0.169025
0.2512
-0.0821749
-0.31827
0.488708
-0.170438
0.0460317
0.0809736
0.159535
-0.122134
0.350168
-0.496675
0.146507
-0.28557
0.00337547
0.373932
0.0357478
0.23005
-0.17956
-0.0504896
-0.0258569
-0.102131
0.131553
0.259198
-0.39075
-0.43667
0.111803
0.114817
-0.255941
0.141124
-0.228867
-0.346991
0.247249
-0.0811493
-0.301895
0.383044
0.383795
-0.157663
-0.226132
-0.282486
0.121249
0.161237
-0.13647
0.385735
0.122602
-0.461266
0.276394
0.0775418
0.341326
-0.327064
0.485416
-0.333331
-0.152085
0.161391
-0.266296
0.0246964
-0.123306
0.0986091
-0.471756
0.290826
0.180929
0.00178049
0.399585
0.125818
0.439063
-0.152694
-0.387453
0.300518
-0.508122
0.354851
0.153272
-0.117242
0.212439
-0.388699
0.246338
0.0333725
0.196677
0.310379
0.0488407
0.246214
-0.295055
0.0242495
0.100451
-0.1247
0.145593
-0.249627
0.104035
0.255347
-0.49233
0.337628
0.154702
-0.451702
0.162192
0.289509
-0.259092
0.100547
-0.0796647
0.129539
-0.183132
-0.218087
-0.0992035
0.317291
0.150401
0.237506
0.515242
-0.203993
-0.311249
-0.36053
0.12021
0.24032
0.266156
0.145804
-0.411959
0.171043
-0.40147
0.230428
0.0742038
0.21323
0.0887236
0.180339
-0.0493685
0.224024
-0.174656
0.405775
-0.130403
-0.275372
0.290649
-0.241808
-0.146914
-0.325573
-0.05621
0.40694
-0.333929
-0.234932
0.425178
-0.103641
-0.331326
0.182558
-0.0835483
-0.164
0.128777
0.267689
-0.396467
-0.347804
-0.121732
0.469537
0.0775934
-0.0532717
-0.0243217
0.0254553
0.11398
-0.311484
0.141401
0.132278
-0.480082
0.32812
0.0776549
-0.229906
-0.220957
0.155198
-0.326207
-0.140942
0.467149
0.12582
-0.0437908
-0.0820297
-0.465928
0.159283
-0.207937
-0.286935
-0.156108
-0.280532
0.43664
-0.148295
-0.247697
0.0786726
-0.185858
-0.175949
0.014499
0.16145
-0.309054
-0.452451
0.124215
0.35767
0.0444291
-0.10706
0.0341817
-0.405295
-0.0929727
0.26726
0.109807
-0.377068
-0.507451
0.210194
0.297257
0.146031
0.153126
0.242231
-0.395357
0.200557
-0.317793
0.133695
0.275966
-0.409661
-0.324282
0.206706
0.117575
0.190856
0.153328
0.304888
0.229775
-0.102681
-0.203187
-0.33368
0.243842
-0.277503
0.0336612
-0.104393
0.204422
0.318073
-0.522495
0.247929
0.131486
-0.379415
0.0568344
0.114045
-0.170879
-0.170687
-0.296975
0.369801
-0.241024
0.0309968
-0.25457
0.386123
-0.166419
0.13346
0.0329591
0.200372
-0.0911956
0.363129
-0.151559
-0.21157
0.237439
0.12569
0.287695
-0.111421
-0.0281262
-0.0940423
0.122169
0.0840736
0.0417468
-0.0634138
0.395975
-0.20495
-0.129248
0.0330785
-0.31962
0.106252
0.193493
-0.140738
-0.479394
0.169471
0.309923
0.457366
-0.149045
-0.308321
0.129741
-0.466603
0.19843
-0.495394
0.296964
0.159565
-0.135316
-0.164435
-0.287267
-0.402211
-0.116505
0.518716
-0.304129
-0.112768
0.336757
-0.476489
0.158219
-0.0168497
-0.100306
0.333985