/*--------------------------------*- C++ -*----------------------------------*\
| =========                 |                                                 |
| \\      /  F ield         | OpenFOAM: The Open Source CFD Toolbox           |
|  \\    /   O peration     | Version:  v2012                                 |
|   \\  /    A nd           | Website:  www.openfoam.com                      |
|    \\/     M anipulation  |                                                 |
\*---------------------------------------------------------------------------*/
FoamFile
{
    version     2.0;
    format      ascii;
    class       volScalarField;
    location    "250";
    object      ddt0(omega);
}
// * * * * * * * * * * * * * * * * * * * * * * * * * * * * * * * * * * * * * //

dimensions      [0 0 -2 0 0 0 0];


internalField   nonuniform List<scalar> 
18540
(
-0.00135581
0.000515034
6.05149e-07
0.00707594
-1.71502e-05
1.64081e-05
4.08412e-05
0.0163169
1.07284e-07
-0.000683629
-5.44444e-05
-0.00976603
0.042404
0.0230913
-2.25579e-05
5.22387e-08
0.00120429
1.03825e-06
-8.72007e-07
4.55477e-05
0.000544409
-1.14476e-05
-2.51382e-06
-0.000333219
2.1112e-05
-3.17617e-05
-3.33005e-05
-0.585528
-0.0136797
0.0162479
-0.757766
1.08393e-05
4.55165e-05
0.00845918
-8.33569e-05
0.000464763
0.0950869
3.98187e-05
0.00107464
-0.00145179
0.00288266
0.00387933
4.4711e-06
-3.25725e-06
-6.14439e-05
6.83883e-06
0.151016
-0.00249919
-0.000102176
0.00754335
0.103805
-6.21541e-05
-2.0994e-06
0.00101845
-0.00103427
-0.78956
-0.00102427
0.000169826
-0.0015096
0.00045668
-0.000157157
-1.03794e-06
1.3475e-06
-6.99997e-07
-1.13757e-06
-3.03696e-07
-2.40047e-05
-0.000542659
-0.138976
-1.03867e-06
-5.24314e-08
-0.0211592
0.0100837
-5.95399e-07
-0.000289512
0.0214424
0.0438549
-1.68609e-05
2.30707e-07
0.0177159
-2.05738e-05
2.05292e-05
-1.17405e-05
1.47222e-06
9.7322e-05
6.8505e-07
0.0238703
1.20224e-05
-1.66894e-05
0.0166656
0.0135435
5.06405
0.00530201
-1.30691e-07
8.06529e-07
-1.99575e-05
0.0172961
3.93028e-06
0.0268912
2.67258e-05
1.19476e-06
0.00814047
3.44094e-05
2.23245e-06
-6.94901e-07
1.02445e-06
5.97531e-05
-0.0161675
-0.000310044
-8.77645e-07
-0.000471598
-9.08015e-07
-1.64882e-05
4.66499e-06
1.31743e-06
1.62618e-06
-1.3352e-05
-7.07408e-07
-3.46897e-05
3.7079e-07
3.99238e-06
4.96691
0.232289
-1.75532e-06
6.22789e-05
-0.00268953
5.10566e-05
-0.0168997
-1.31386e-06
-9.822e-05
-0.213493
-2.57455e-05
1.62376e-06
-0.0200617
-1.31546e-06
-3.12181e-05
3.93421e-06
-0.000594007
1.49437e-06
1.91551e-06
6.66002e-05
5.95914e-06
-7.8662e-07
-0.000102665
-0.00414359
0.00319874
0.00452998
0.0329752
1.04122e-05
1.3113e-06
-0.451826
-0.00192716
1.03302e-06
1.54808e-05
1.31704e-06
-8.10672e-06
0.0126131
9.80624e-06
-8.48718e-07
0.0939857
0.0148537
-3.87055
0.0021388
-0.25498
-0.00803783
9.254e-06
-0.000242756
-1.79868e-06
-1.63034e-07
5.47751e-06
0.011674
4.78605e-07
0.000131458
-0.192152
-0.0967414
0.00315307
-6.44534e-06
-0.243942
5.71629e-09
-8.43334e-07
-1.84528
-0.00026715
-2.49158e-06
-2.26741e-06
3.59784e-05
0.000115464
-0.480941
-0.161793
-0.00803319
0.00140119
-0.000321863
-0.165373
9.56451e-06
0.0102187
0.000273563
-1.17924e-06
0.0062468
-1.38456
-3.26273e-06
-0.00542759
1.03903e-05
-0.382539
-1.89282e-05
-8.48303e-05
1.77367e-06
-1.57185e-05
-0.080807
0.00218298
-0.0736613
-0.0862275
1.63374e-06
3.55629e-05
1.62141e-05
3.31879e-05
0.00417603
-0.798234
-0.000104384
0.000165751
0.865933
0.0547604
-0.00370134
0.000505517
0.0357089
0.00890389
-0.000350545
-1.90826e-07
-0.112588
0.0155338
0.00199395
-0.000315733
0.0194955
-1.04613e-05
-0.323887
0.00830519
-0.00648284
0.00302326
0.00603526
0.000130539
0.000772845
2.99903e-06
0.00205216
-0.00223862
-0.000451421
-4.05955e-05
1.21323e-07
1.47326e-06
-0.0604674
-7.74785e-05
-0.00039772
-0.002683
5.91712e-06
-0.0938941
1.36234e-06
1.62917e-06
-0.0717634
-0.00519899
0.0172799
-0.0825641
0.0315445
0.00718485
-0.0128586
0.0708739
-0.075906
0.000997261
-5.73552e-07
0.00393387
1.24224e-06
4.49235e-05
-0.715526
-3.22413e-07
-3.34162e-07
0.00425853
5.40198e-06
-1.13326e-06
-1.10628e-06
1.27218e-06
3.84091e-05
0.00518718
-0.0120905
-0.000710825
-3.9427e-06
1.06252e-05
-0.0417194
1.92785e-06
0.00300551
0.327507
1.07478e-06
3.19243e-05
-0.00665661
0.493649
2.40938e-07
0.000252055
0.022798
-0.000174126
-1.38359e-06
4.15454e-06
-0.000810328
-4.45996e-06
9.38241e-05
-0.00803907
-1.23708e-06
-0.00325718
1.97711e-06
0.430238
0.00286573
1.64703e-06
-0.0257006
-2.73289e-07
-0.0915645
-1.53548e-06
1.90168e-05
-0.000514372
1.2364e-05
-7.47345e-05
0.000889124
-8.94374e-07
0.0134387
0.000109338
-6.69328e-07
0.0077866
-1.29239e-06
-2.54179e-05
-1.91642e-05
2.44302e-09
-0.206743
3.09559e-06
-1.95712e-05
0.00228898
5.25789e-06
0.00110836
-2.10984e-05
-2.55296e-07
-6.49922e-07
1.84181e-06
9.33215e-06
8.15464e-05
-0.00593208
-4.51945e-07
0.00245807
1.86099e-05
-4.31378e-05
-1.6286e-06
-2.65893e-05
-1.87919e-06
4.83578e-05
0.456743
0.00036234
0.0360778
8.68403e-06
9.38818e-06
-8.8744e-06
-2.45918e-06
-0.00043603
-0.0858813
-0.00301812
0.00799909
1.21924e-05
-5.92351e-07
0.169361
4.75689e-06
-2.46265e-06
-0.000425005
0.00262201
0.00620246
-0.000975149
-2.07497e-06
9.30735e-06
1.35073e-06
-8.72181e-07
0.00121664
-1.42555e-06
-0.154148
-0.000104741
1.38121
4.45707
-0.197987
-3.4261e-05
0.00259513
-0.000177182
-1.8535e-07
-0.169833
7.71192e-06
-0.000241537
-5.36099e-07
0.00216712
0.000168445
3.96189e-06
1.76001e-05
0.000963849
0.0294737
-1.52817e-05
0.00809042
-1.85713e-08
-0.278982
-0.0309451
0.00768624
4.50834e-07
1.1906e-05
-0.200253
1.21181e-07
-1.5345e-06
1.71096
0.000409965
-0.00040381
1.10795e-05
1.52519e-05
-1.44693e-07
0.00508357
-2.28598e-05
-0.00134064
0.00691717
-1.80517e-06
-1.39617e-08
-1.5775e-06
0.00154855
-0.0941597
-5.2347e-07
0.00195402
-4.45121e-07
-0.348424
1.12268
1.22514e-06
-1.62914e-06
-0.00206511
0.00106829
1.73143e-05
1.15704e-05
5.95695e-05
-0.207541
-1.35632e-06
-3.25295e-05
-9.92035e-05
-1.68335e-06
8.11814e-06
2.43729e-05
-1.60379e-06
-1.62295e-06
0.00545568
-9.12176e-06
-0.000850569
0.653028
-0.0256845
-0.271021
-0.000168955
-7.44345e-07
1.28755e-05
1.1668e-06
-0.0252365
-5.92814e-07
-2.07723e-06
-0.00325404
-1.88363e-07
-1.03736e-06
-0.000303683
-1.219e-05
-0.000515612
0.0816695
8.30843e-07
0.00126247
-1.311e-06
-1.09286e-06
1.35961e-05
-0.0203303
-3.52173e-08
-0.708235
0.00667323
4.49978e-06
-0.0118013
-1.59826e-06
-0.0240021
0.000381349
-0.0144121
-1.6812e-06
-1.86595e-06
5.63737e-06
2.11589e-05
0.0290169
0.0011289
0.00211974
5.74059e-05
0.00126522
6.99275e-06
0.00212355
-0.0135547
-1.57822e-06
-1.0257e-05
0.00166987
-7.93788e-05
-0.00749857
-2.66594e-05
0.0135766
-5.75785e-07
0.0280266
-0.00219967
0.186796
0.0208215
-0.00442475
-1.03141e-06
7.21337e-06
8.66119e-07
0.49742
-1.61646e-06
-0.277294
-4.75408e-06
-0.0402412
1.10509e-05
-8.0096e-07
1.78686e-06
5.76252e-06
-1.41963e-06
0.000592538
-0.507555
-0.00203204
-0.248926
0.000756392
0.00416796
0.000561252
-1.84785e-06
0.00481894
-1.61179e-06
-1.98032e-06
1.33824e-05
-7.75536e-07
-0.179699
-0.00869481
-0.13913
-3.1351e-06
-1.63522e-06
-1.65009e-05
0.00841829
3.90935e-06
0.0219601
6.86815e-05
2.13863e-06
6.10694e-07
-1.48074e-06
1.37143e-06
-1.74612e-06
1.3155e-05
-0.00637836
-0.239006
0.00151142
0.00230015
-1.5677e-06
-1.49569e-06
-0.370694
-0.00105604
-5.42982e-06
1.02451
0.00142298
-1.26858e-05
-5.22016e-07
-0.141703
0.00302494
-1.11141e-06
-0.000890319
0.0272169
-1.37593e-06
-0.246339
-1.26136e-05
-8.00911e-06
0.0403219
1.04743
2.73381e-06
0.385647
6.84675e-08
8.69062e-05
-2.0934e-05
1.74688e-05
0.00801601
-3.03468e-05
-0.54351
0.0013998
0.00026104
-0.020115
-0.010374
0.172489
0.00905686
-1.44294e-07
0.0656147
-0.17501
1.86092e-06
-9.62445e-07
-0.0419032
1.19946e-05
-1.6266e-05
-1.71296e-06
2.00644e-06
4.11979e-06
4.79634e-06
-1.15726e-05
-0.00107499
5.31352e-06
6.7678e-06
-2.14634e-06
-0.251714
-1.60698e-05
-1.76695e-06
-0.21175
-8.71067e-07
1.50629e-06
-0.162577
-1.3026e-06
1.57536e-06
1.7081e-06
-0.00510115
2.83663e-06
0.000259593
-0.000182478
1.81739e-07
1.46431e-06
-0.00199623
0.0162164
-0.00254208
-8.9813e-07
-4.78156e-06
4.20997e-07
-0.000694675
4.44764e-06
-2.44025e-07
-3.46601e-05
-2.3071e-09
-4.78843e-05
-1.46716e-06
-0.000506086
-0.000601281
-3.60386e-07
-0.26659
2.4347e-06
2.6073e-06
1.6091e-05
-5.85316e-07
-4.24413e-07
9.92867e-05
-0.000419665
0.0046751
1.25896e-06
-0.00552528
-0.180535
4.43527e-07
-0.0738572
2.9792e-05
-1.3128e-06
0.00346328
0.155011
0.000200487
8.16777e-06
-0.215657
5.95112e-06
-1.0106e-05
-0.000624643
0.224262
6.67829e-06
-0.000419902
-0.0038147
-0.000114151
3.55553e-06
0.00138008
-0.000493148
2.19004e-06
1.84053e-05
0.0492736
6.20511e-07
-8.29802e-06
-0.000191288
2.30474e-07
1.88369e-06
-0.0192731
0.915018
3.20473e-06
-7.73088e-05
-1.25614e-06
3.73746e-06
-0.00310442
-4.82981e-06
-6.23996e-07
-2.90693e-07
0.0316838
-0.00691746
-3.92847e-07
-0.000198377
0.000266765
-5.56364e-06
0.20597
-1.98173e-06
0.00292829
-0.0166835
-8.99136e-07
2.40312e-07
5.51703e-06
0.167347
3.04632e-06
5.62257e-07
1.4973e-06
-0.303583
0.247369
0.380349
0.00517276
-5.34911e-07
9.29089e-06
0.00804392
5.69823e-06
-0.00043473
-0.000250104
-0.0179729
-0.0193007
-8.74191e-08
0.00192819
0.0810782
-1.04164e-05
1.79381e-06
-2.56079e-05
-1.28002e-06
-0.00129131
-0.000227843
1.60978e-06
0.00129887
0.000313114
-6.05101e-07
-0.00100193
-0.00363865
2.68043e-07
-0.277263
-1.42345e-06
0.000656308
1.58873e-06
-0.0298653
-0.0289038
1.53174e-06
0.000153163
-0.00112077
1.32519e-07
0.363084
-0.000888822
7.85543e-06
0.0124048
-9.46425e-07
1.36926e-05
-4.15224e-07
-1.35896e-06
-0.0029824
0.840513
0.00505249
-6.27143e-06
0.000117863
-1.27736e-06
7.91501e-07
-0.000271306
1.144e-05
-4.64221e-06
-0.000708747
-1.51452e-06
-0.00545194
-1.80266e-06
4.78085e-07
-0.0389434
0.160144
-0.00383199
0.163695
-5.75013e-07
-0.0812
-1.56791e-06
0.0468183
7.4136e-07
-1.94799e-06
-0.00518671
-0.00156993
0.00275524
0.000785238
-4.43352e-06
1.8304e-06
0.00915381
-3.8879e-06
0.015187
-0.00128275
-0.0601353
-0.435732
-0.00207957
-1.34435e-06
-0.195196
-4.6898e-05
0.240226
-4.05574e-07
-0.000908586
-0.00457402
-5.62345e-07
6.22302e-05
-0.00393161
-2.42068e-05
-0.110599
8.94959e-07
-1.75586e-06
-1.37782e-07
-0.000163888
-0.000103334
-4.11469e-06
0.0649974
3.94845e-06
2.55261e-05
-0.00162553
-0.0927833
2.18692e-05
-1.15688e-06
-0.00567291
-0.514381
1.58033e-05
1.40447e-06
-0.489961
-0.000520064
0.0230474
0.000212722
1.08776
0.000307281
1.6702e-07
-8.1185e-06
0.000870798
-3.09284e-05
-0.0152601
0.000121808
-1.33151e-06
-0.201546
0.0215385
1.28036e-06
-0.000660121
8.30196e-07
-0.087889
-1.45936e-06
-0.00156254
-0.0748422
-0.0118158
1.27969e-06
0.023893
-1.78945e-05
-0.420294
4.84377e-05
-1.08827e-06
-5.59811e-06
-0.0177898
2.49932e-06
-0.134259
-0.000583304
0.000661044
-1.56696e-06
0.000143713
-0.000841265
2.27593e-07
-0.338764
0.00792104
1.45352e-05
-2.38546e-05
0.024583
2.02286e-07
-0.00443089
-0.000903695
-6.01767e-07
-4.29318e-06
1.52041e-06
-1.70356e-06
0.000988244
1.29369e-05
-3.57044e-05
0.000396274
-0.000251887
-1.77306e-06
2.63569e-06
-1.87392e-06
1.55978e-06
-0.593281
0.0769853
2.88848e-07
-0.00027709
-1.50295e-05
-0.000385355
-0.000291409
-4.18723e-06
0.00144442
1.31676e-07
-0.000235809
8.69928e-07
0.00429175
0.0233425
-1.15833e-05
2.21763e-07
-0.000193783
0.393023
-0.345204
2.96057e-06
0.181272
1.67276e-06
0.077104
-1.57199e-05
2.30796e-06
2.42398e-06
0.000172819
0.000175737
-0.313437
-0.000118268
-3.33403e-05
-4.56181e-07
-0.0603454
-1.24458
1.89408e-06
-3.22333e-06
-0.000433015
1.71929e-05
-7.09845e-07
-0.0978993
2.11389e-05
-1.38862e-06
-7.70581e-07
0.000167846
-3.84764e-06
1.18028e-06
1.11145e-06
-6.52522e-07
-6.62271e-05
1.69322e-06
-0.014258
7.64366e-06
-9.4727e-07
0.000891062
0.00269766
-0.0053149
8.2717e-06
-6.13398e-07
0.281459
-1.64849e-06
1.84868e-05
-4.44739e-07
3.57644e-06
2.06682e-06
-0.000126253
-0.356262
0.0064949
-0.0781
-0.38693
6.68173e-07
0.036714
-1.41049e-06
-2.02937e-06
-1.46254e-06
-0.111284
1.06636e-06
0.0014914
-0.00381749
0.10549
-1.15302e-05
4.04378e-05
0.00154274
2.69175e-07
-8.86834e-06
-0.0800708
-0.716119
-0.26556
1.26857e-05
-0.0541545
1.30715e-06
0.00248773
-3.3559e-06
0.0312512
8.19313e-05
2.6969e-08
-0.0046192
-4.71979e-05
-0.545865
1.34715e-06
-0.0139638
-3.21021e-07
0.0014065
0.00120984
-0.00144695
0.0127053
-1.74046e-06
3.62722e-07
0.00542406
1.118e-06
0.00528894
-0.0674171
0.694746
-0.289731
-0.000293044
-0.129069
-0.0518294
-0.00924104
-0.00112306
-0.000211177
0.00347697
1.00274e-06
6.13405e-07
-5.82311e-06
2.07097e-05
-1.22901e-06
2.06881e-06
-1.98869e-06
-0.000930602
3.65375e-06
-2.26316e-07
-0.000134518
2.02816e-06
0.182495
0.0285386
-0.0089884
-2.01904e-06
0.0127382
-0.000993744
-0.000329818
-6.85145e-07
-0.675515
9.19645e-06
-9.99467e-05
-5.94789e-07
-0.0761678
-1.62944e-06
-0.984224
-0.00175436
2.02428e-06
-0.853294
-0.000154054
-6.89654e-05
-0.00143027
2.19215e-06
6.0945e-07
-0.000108139
-0.000851077
0.00611282
-5.06913e-05
0.00301217
6.62428e-05
-8.33125e-06
0.00635887
7.41537e-06
4.60065
-6.42438e-07
-2.21626e-07
-1.05184e-06
-6.11725e-07
-0.00546226
1.54765e-06
0.0287264
-3.98457e-07
7.48105e-06
-5.74761e-06
5.83429e-05
-7.13229e-05
-5.90768e-07
2.08364e-07
0.447322
-0.000503995
-0.00120107
-0.00609806
1.26572e-06
-1.79251
1.29875e-07
1.25052e-06
0.00161942
-0.121809
0.019454
2.24705e-06
3.28623e-05
-1.7237e-06
-1.95479e-06
0.103276
2.26788e-05
-3.92116e-05
-0.010122
-0.00280235
-1.25817e-05
-0.00340159
2.94192e-06
-1.2659
-0.000158535
-4.47506e-07
0.00086111
-0.00301848
-4.04927e-06
-0.0213129
1.62561e-05
1.0805e-07
-3.70995e-07
-9.09771e-06
1.2281e-06
3.92924e-06
6.92981e-06
0.00147745
3.71877e-06
-1.63921e-06
1.31006e-06
1.25024e-06
-0.00499745
-0.00283999
1.75374e-06
2.21438
-9.84147e-07
-0.0002734
1.64951
-8.0747e-07
6.41669e-07
0.197473
2.18251e-06
-1.55763e-05
-6.38521e-07
-0.00197134
0.000553014
-3.94682e-06
-6.73241e-07
-0.00513652
-0.600971
-0.000370407
1.83163e-06
0.00343117
0.0030305
-0.000212242
0.125184
-1.42547e-06
0.567064
-9.30027e-06
-4.2144e-05
0.00179271
-0.000674414
-0.000511489
0.096429
0.000269933
0.019337
0.00198237
2.88291e-06
-1.27578e-06
-1.76447e-07
-8.73501e-07
-2.10769e-06
0.000371365
-0.139716
6.45468e-06
1.14944e-07
-2.75831e-07
-3.85768e-05
-0.083248
-3.72392e-07
3.92595e-06
0.001009
-0.0124467
7.1039e-06
3.54526e-06
1.26169e-06
-7.53488e-07
-0.0770522
5.66437e-06
0.00119109
-9.79105e-06
0.203426
-1.51255e-06
5.96062e-06
-0.890866
2.85998e-06
-2.6306e-05
3.0854e-05
0.00124011
-2.6841e-05
-0.0207293
0.00185997
-0.00341688
2.01446e-05
1.4446e-05
-5.4758e-07
-1.41015e-06
3.08932e-07
0.0010669
0.001426
0.00326997
-0.074093
-1.49675e-06
-4.07533e-06
1.87071e-05
3.11757e-07
7.81212e-06
-3.06643e-06
-0.000263433
0.0796242
-0.6713
-5.67956e-06
-0.0194656
-0.000139883
-2.96259e-06
4.25751e-06
1.06023e-05
1.03599e-06
-1.47118e-05
-0.0067823
0.000768862
-0.00103826
-2.56897e-06
-7.13532e-07
-1.70153e-06
-8.83907e-06
6.36203e-06
-0.000252407
-1.36908e-06
1.74859e-07
0.00415976
-9.14594e-07
-0.0823097
0.379751
-0.0196241
0.00314067
-3.32374e-06
1.18643e-05
1.73017e-05
-3.57634e-08
7.43267e-05
-0.530878
-1.62373e-06
6.73326e-06
0.00321805
-4.3622e-06
-2.61752
-3.02177e-07
-0.0634892
4.42385e-06
-2.42776e-07
-4.96749e-06
-1.89799e-06
-2.38303e-06
1.02185e-07
0.0509667
-1.52204e-06
-0.00337558
-0.00198946
0.00362513
-9.33823e-07
-5.22061e-07
-1.8867e-06
-0.00496427
-0.00141072
-6.40689e-06
-4.39618e-05
-8.46699e-07
-1.73486e-06
-2.6965e-06
-0.00210368
-2.98638e-05
7.64864e-05
4.48554e-06
-0.00265551
-0.000930054
5.55198e-06
0.289571
0.0570358
-0.000996124
-0.00149968
1.2494e-05
-0.100437
5.87983e-07
0.00648205
8.24913e-07
-3.09151e-06
8.00448e-07
-0.00527176
2.02817e-05
-2.92301e-06
1.76734e-06
-4.36065e-07
-1.47062e-06
0.0054458
-0.00225162
0.00615911
2.41853
0.0202665
-8.20564e-07
-0.00321187
0.0058617
0.0173505
7.96286e-05
-1.65533e-06
0.0214487
-0.335272
2.66236e-06
-0.000394847
1.3423e-08
-0.0276927
6.26644e-06
-3.15059e-05
-3.34642e-06
0.0577619
0.000260745
-0.00330493
-1.58703e-05
5.39656e-06
0.011827
-0.000847149
-1.92843e-06
0.00734182
-0.000609298
-0.279727
0.843389
0.00191241
-0.00298531
-1.39588e-06
-1.41102e-06
-0.0947569
0.00687434
3.43314e-06
0.000412672
0.00560488
1.06203e-06
-1.16346e-06
-0.00132581
2.24174e-06
-0.0116306
-0.0753387
1.33773e-06
-0.29177
-0.460074
-7.51413e-05
2.15143e-06
-0.305176
-6.17697e-06
2.15571e-06
-6.17955e-07
0.0205113
-0.0934553
-0.736572
-2.89841e-06
-1.5784e-05
0.291577
1.69181e-07
-1.02923e-05
1.84324e-05
9.16735e-07
0.0176176
-1.05439e-06
1.83929e-06
-0.00733458
-0.000100544
-7.53479e-07
-3.00872e-06
0.305222
6.94662e-05
1.96581e-06
0.00563205
-0.000127401
8.09888e-07
-1.35162e-06
-0.000270696
-1.16437e-06
-0.000230195
9.51598e-06
0.000324916
-1.59883e-05
1.1936e-06
-3.2562e-05
-0.0177994
0.0615111
-1.76194e-06
-5.04636e-05
-2.6617e-07
2.19292e-06
-0.00230663
-2.9518e-06
-0.00196969
-1.94767e-06
0.114344
-0.0726442
-6.47664e-05
4.32603e-06
-0.000132546
-0.0348836
0.00202414
-0.000926567
9.1408e-06
0.405974
-0.00145563
-1.86517e-06
-1.08341e-05
-7.71627e-07
-0.190739
-0.00136634
9.56173e-06
3.99788e-05
-1.05246e-06
1.56492e-05
-0.000230081
-3.15473e-06
-0.00155956
0.33787
-1.01714e-05
-0.00036533
1.6456e-05
-1.58088e-06
2.07932e-06
-2.43965e-06
-0.469158
-7.63877e-08
-4.65906e-06
-0.00216071
0.0145926
0.000120344
0.977906
0.0539502
-1.34554e-08
-0.00128417
-4.5297e-05
0.725989
-2.8016e-06
1.3257e-07
6.6788e-05
0.0751804
0.28664
-7.23739e-06
-0.0999626
0.0147923
-0.00167809
-2.26898e-05
-1.63756e-06
-0.132643
-1.55696e-06
-6.57548e-06
-0.000439432
-0.0168198
1.60867e-06
2.60756e-07
-1.5339e-06
-0.00674349
-0.000242148
0.500456
1.23667e-05
-0.000108457
-0.000140447
0.181927
-3.77001e-06
-0.091126
0.0204359
-0.183807
-0.000597659
0.00114069
-3.3982e-05
-7.12394e-07
-0.00335578
1.80729e-06
-0.0558945
-1.12018e-06
3.84601e-05
-0.000267013
1.57699e-05
-1.98219e-05
-6.50511e-07
-1.88285e-07
-0.000185422
0.0908856
-0.0434656
0.0113602
2.82229e-06
2.73767e-06
-3.22044e-06
0.217613
-3.2703e-06
-0.000561023
0.03655
6.26896e-07
2.07569e-06
-2.31166e-05
1.59935e-06
-2.09235e-06
-2.64741e-06
0.000561208
0.00137482
-0.000254056
-0.777334
1.30296e-05
4.39447
0.0902359
-1.44417e-06
8.80833e-06
-0.609006
-2.2873e-05
-0.00127019
6.29847e-06
1.80165e-05
1.08979e-06
0.000831749
0.000576752
-1.89319e-06
-1.75209e-06
1.8502e-05
-1.35263e-06
0.00320178
1.44449e-05
7.15669e-06
1.21481e-06
-1.56875
8.49811e-07
-5.12879e-06
0.0020299
-0.000150489
-0.0120764
-0.00103614
-2.30375e-06
-2.01131e-06
3.9238
-0.0867942
0.333811
0.00109543
-0.000525821
4.35261e-06
0.000264263
0.00173284
-7.83569e-06
1.53096e-06
-1.81183e-05
0.094702
1.47909e-06
-4.69722e-07
-0.53423
-3.8244e-06
1.42807e-06
7.66757e-08
-7.65188e-07
5.0334e-06
-1.60665e-06
-0.133516
0.331563
0.00140671
-0.000513612
-1.86994e-05
1.34393
3.76146e-06
5.03313e-06
-1.15487e-05
0.0504717
-0.00670372
-0.00352467
-0.0157367
0.00180853
0.00795395
8.18203e-07
-0.309552
0.206529
0.131161
-0.000801932
-1.23171e-06
-0.187656
5.34096e-07
0.0288418
-1.36828e-06
1.96538e-06
0.000280376
8.94767e-06
-0.00874769
1.70536e-06
0.00997922
0.0880427
-1.17581e-06
0.0260216
-2.33836e-06
1.13881e-07
-0.000730572
-2.63443
3.64863e-07
1.7297e-06
-1.80616e-06
-3.88914e-06
0.0377172
-0.279461
-0.000378982
0.017479
-2.14631e-06
1.51172e-06
-0.0989374
1.45863e-06
0.000893426
0.0457987
0.075577
-0.360504
4.13188e-06
-1.27732e-06
-8.1429e-07
-0.000202099
-1.72391e-07
-0.0550394
-9.45034e-05
0.0133151
1.08045e-05
9.6642e-06
2.83679e-05
0.247774
-0.000210442
-4.60926e-06
0.001328
-6.92457e-07
-1.43323e-06
-0.646663
-0.0278149
-0.00201447
1.65777e-06
-9.8248e-07
1.57378e-05
0.000321286
-1.14056e-06
1.18373e-05
0.0153511
0.0192388
-0.00215646
-0.0589943
-1.35537e-06
-0.148402
5.6697e-06
-0.0626027
1.01376e-05
-1.54812e-05
2.37473e-06
1.01506e-06
1.53931e-06
-0.00177404
0.00139931
-0.0026474
8.93316e-05
-2.20301e-05
2.8203e-06
-5.60093e-07
-3.91174e-07
0.422564
-1.84176e-05
-3.51757e-07
-8.89119e-07
8.6457e-07
0.00322465
3.63285e-08
-0.000335489
-0.000546169
-0.00963058
-0.00068498
0.000723258
-0.0144305
-2.18194e-07
0.022425
0.145352
-1.45573e-06
0.00638678
-1.35985e-06
-1.42827e-06
-0.031064
0.146968
8.72585e-07
2.87234e-07
-1.40277
-0.541783
1.49057e-06
-0.00750866
0.000945581
1.24513e-06
-7.4352e-06
-6.15468e-07
0.0249495
-0.00913334
5.12993e-05
-2.61738e-06
-7.16809e-06
2.23221e-05
-0.106519
-0.000261707
-1.74364e-06
-0.0118244
-0.00310224
0.000136722
-0.184514
-1.20884e-06
-0.00145765
1.55728e-06
2.66256e-05
5.07323e-07
-0.40397
0.00666868
-1.23015e-06
0.55024
-1.26674e-05
0.0173553
-1.13256e-05
-4.05337e-07
-0.861463
-0.00646266
1.3734
-1.15155
-1.8607
0.00206929
1.803e-06
1.40171e-06
-0.00163895
1.20135e-05
-0.000356094
0.0454117
-0.320065
-2.38009
-0.108023
0.0260466
-0.640623
-7.54672e-07
-3.75195e-07
5.89859e-07
2.05919e-06
-0.133337
1.6256e-06
-0.0952948
-1.23563e-06
-0.00063006
-0.00172236
-2.33998e-06
1.68788e-06
2.93546e-05
0.000462599
1.64218e-06
0.000174195
-0.247867
9.63617e-06
-0.379801
-1.73603e-06
0.00487682
-1.67481e-06
-1.59396e-06
0.0861564
5.87219e-05
-0.189886
0.245658
5.23585e-05
0.0022293
-1.02111e-06
0.00784729
3.94542e-07
4.10085e-06
-0.00108046
8.45591e-06
6.52507e-05
-5.54516e-06
-0.00242188
-0.000769744
4.16336e-07
4.95849e-07
-0.0155909
-0.000208345
-0.0321739
-1.41866e-06
-1.26651e-06
9.86469e-07
-5.9165
-2.14951e-07
0.00142307
2.57969e-05
0.0080762
-0.000273809
0.00232299
-0.00556952
-0.00195122
-0.00223257
-1.82444e-06
0.0577109
1.56478e-06
2.20354e-06
0.0831806
0.154445
-0.000183645
1.15041
3.96493e-08
0.0442386
0.289263
0.0024607
1.98474e-06
1.37969e-06
0.192042
2.29084e-06
1.27571e-06
1.35345e-06
-0.0010163
1.03781e-05
-1.22826e-06
-2.10628e-06
1.15852e-06
-0.00137416
1.04488e-05
1.43741e-06
-0.0458007
0.0260566
-4.50038e-05
6.88953e-06
-0.000161263
0.0100986
0.0167659
0.586087
3.00407e-05
0.00435335
-0.296085
2.0232e-06
0.015108
-1.15147e-06
-0.554345
-1.75386e-06
2.21875e-05
-0.0838149
-2.83263e-06
5.2134e-05
-0.0983825
-5.36507
-0.00052926
0.0358639
-0.217535
0.026108
-0.00286858
-1.89169e-06
9.01732e-07
1.23362e-06
-0.00029785
-1.99837e-06
-5.59598e-07
0.000404525
-2.44088e-05
0.0159663
3.75644
4.34823e-06
-0.0146693
5.71916e-06
-2.07987e-06
-2.69238e-06
1.82337e-06
-0.000304135
-0.00184287
1.61156e-05
-1.21567e-05
-0.160296
0.697787
0.000110252
0.000157552
-4.17995e-06
-1.66599e-06
0.0026115
-1.26798e-06
6.60121e-05
0.00377719
0.342194
-0.285183
0.00354779
1.51816e-06
-8.05297e-05
0.0284071
0.00026453
-3.72102e-07
0.00728348
-0.0732087
0.00315729
-2.52032e-06
0.0122805
-0.00172537
4.61671e-07
0.137984
-1.06556e-06
1.51139e-05
-6.2381e-07
2.39837e-05
5.56675e-06
4.29981e-05
0.00643226
-1.20409e-06
-1.1244e-06
0.0273518
-2.75003
0.000337066
-6.09411e-05
7.38441e-06
-0.000857799
-1.34983e-06
-0.431782
-0.364158
-0.000305255
-0.40566
0.0282351
-0.000195108
-2.19429e-05
-0.224004
-6.55643e-06
-0.00281504
-0.186509
1.13506e-06
-0.00292097
-4.67722e-05
7.57055e-05
-5.05685e-08
0.00901713
6.70255e-06
-2.87081e-06
-5.70247e-06
-1.51404e-06
-4.02481e-07
-0.0515301
0.000553438
-3.10785e-07
-4.47399e-06
0.0254383
-4.5941e-07
1.09757e-05
-1.7014e-06
1.74764e-07
-1.70366e-06
0.277359
0.00391743
4.9477e-06
0.000118414
0.104633
-9.66225e-09
-0.0646955
0.0561848
1.10825e-05
-8.75778e-07
3.26689e-05
0.0121524
1.71975e-06
-0.190367
8.26845e-07
-3.6536e-06
-1.32369e-06
0.59183
0.0144183
-0.184388
0.115228
1.60914e-06
-0.000425924
7.10774e-05
-1.48348e-06
-0.641862
-1.27634e-05
-5.44081e-06
-7.95891e-05
0.0426904
-2.21953e-06
-1.9116e-06
1.02373e-05
-0.00164907
-1.7355e-06
4.27671e-07
3.47654e-05
-0.00118044
-1.15561e-07
-0.000692717
6.26225e-06
5.63868e-06
4.89428e-06
-0.570032
-0.322725
0.0366497
-3.14188e-07
-0.000245482
6.46986e-06
-0.0117338
9.36117e-07
4.11323e-06
1.81279e-06
-2.77942e-07
-1.51615e-06
-7.13449e-07
1.53292e-06
0.122712
-0.012079
-4.30886e-07
0.0285723
3.76261e-07
0.00259764
-8.05263e-07
-0.0242164
1.33311e-06
2.07729e-07
-0.00493033
-9.76995e-06
2.3285e-06
-0.00324696
0.00207683
-0.00182031
0.0749844
-3.79189e-06
-0.0355409
0.102187
0.00306165
0.00036329
-2.91328e-05
0.101258
-0.0956137
-0.161446
4.42037e-05
0.0281744
1.74235e-05
-0.00133251
-7.44845e-06
2.01313e-06
0.00945487
-0.00167148
-1.56573e-06
-0.000556619
-8.366e-05
0.0100059
0.0333453
-0.000806992
-0.00151382
3.09046
9.01914e-06
-2.19611e-06
1.50126e-06
0.141593
-0.00151009
0.00940816
-0.00341197
1.86311e-06
0.0168706
-0.381917
1.15878e-05
1.05898e-05
1.99358e-05
0.000119375
-0.00232421
1.23202e-06
-0.0172865
-0.0254668
-0.188776
8.10182e-07
0.0529558
0.1098
0.582137
0.0275988
-0.00259922
3.62486e-06
1.85088e-06
-0.000392986
-0.557576
-2.98175e-06
-0.0070588
1.41298e-06
-0.000277957
0.0805402
-0.277649
0.0137517
8.43192e-05
-8.08535e-05
1.24546e-05
-0.000105395
1.89347e-06
-0.0669439
-5.07658e-05
0.00180144
-2.36993e-05
-2.1509e-05
-0.000762029
-0.359238
0.466673
-1.6407e-06
3.8156e-06
-2.27746e-06
-2.71235e-05
-2.29558e-06
0.000602633
-0.000580746
1.70115e-06
3.78449e-05
-0.174471
6.67761e-07
-4.84162e-05
-0.00169539
8.1761e-07
-8.00927e-07
-1.99908e-05
5.86628e-06
1.0732
2.96046e-05
-1.62972e-06
4.75576e-06
3.89754e-08
0.00410297
-1.62019e-06
0.08416
-7.11657e-06
3.52735e-06
-0.000692827
-0.588991
-8.20724e-07
0.000102727
0.00937176
4.99329e-06
1.07368e-05
-0.00119725
1.4802e-06
-3.12237e-05
0.501842
1.36534e-06
-0.00421421
-1.29778e-07
-1.90567e-07
0.00577198
0.020181
-0.0137522
0.168492
0.0132339
0.000377909
0.0116939
-1.29832e-06
3.03842e-05
-0.00647514
-0.856299
0.0210946
0.0411028
-0.00209868
0.0214798
-1.99297e-05
-0.0906669
0.119496
0.0465675
1.11154e-05
8.59897e-06
-0.000516681
2.635e-07
0.00379696
6.27285e-07
-1.35827e-05
6.27387e-08
-2.42899e-06
-0.000132065
9.55241e-07
-0.00869937
-4.01984
-1.47992e-06
9.60022e-07
0.000340772
-0.650552
1.68542e-06
-4.02045e-05
2.42205e-05
3.3108e-05
-2.76489e-05
0.48279
0.00107422
-1.2981
-0.113418
5.8655e-05
0.0621893
3.73567e-05
-0.00759715
0.000392873
-0.000100336
-1.25047e-06
1.66603e-06
-0.00204622
2.32031e-05
1.79867e-06
7.84884e-06
1.68457e-06
-4.92941e-05
0.0748343
-6.72565e-05
5.89073e-07
3.37229e-06
7.92481e-05
-1.46526e-06
0.0455199
4.88441e-06
0.569216
-1.90144e-06
-1.42374e-05
-4.50948e-07
0.834827
-1.64449e-06
-0.000282374
-3.44994
0.000379835
-4.27287e-05
-0.00332632
2.37641e-06
-0.0969251
7.40879e-07
3.65328e-06
0.00430643
0.219133
1.70778e-06
0.000555367
0.000253645
-1.09674e-05
-1.61267e-06
1.96012e-05
-0.000619259
9.29674e-08
-0.216927
-0.000128554
-0.193256
-0.0121577
-3.38916
-0.00722204
-0.000760747
0.00363693
-0.000129935
3.36714e-06
0.0025552
0.00688277
-0.00405642
0.00106465
-1.5141
-0.000121705
0.0155037
0.000266901
-3.14449e-06
0.00272025
-1.63141e-06
-1.1632e-06
0.0278947
3.93613e-05
-1.39147e-06
-3.30092e-06
0.819325
0.00154672
-0.00237249
-0.000424867
-1.44196e-05
4.46085e-06
0.0126219
-0.000124378
0.000976039
7.86425e-07
-1.80755e-06
4.08751e-06
-1.88812e-06
-5.39378e-05
-0.000105104
0.00206556
-7.45169e-05
1.10383e-06
5.83575e-06
-0.00552573
-1.14573e-06
0.00536653
-2.79115e-07
-0.0413065
-2.24369e-07
-1.41594e-06
0.000556676
-0.00352484
-0.00871861
-7.99356e-05
-0.00688884
-1.73384e-06
-0.213651
-0.0155541
-0.000197194
0.0080513
-2.30777e-06
-6.08463e-07
-1.85366e-06
1.70267e-06
-0.0116124
9.7518e-06
-0.0026081
1.0914e-06
-4.55133e-05
0.0402561
1.17894e-06
2.17496e-05
-9.10503e-07
0.0454939
-4.17601e-05
-3.14301e-07
-0.862596
-0.00142848
2.5956e-06
-0.000939549
0.00741993
3.19809
0.000557512
-1.08671e-05
1.67007e-05
1.0602e-06
0.0533503
-0.662622
-0.0572902
-0.000100074
0.00221074
-0.000475993
5.53733e-05
-0.000416476
-1.44161
7.97913e-05
0.0115633
0.000196472
0.0102983
-0.125306
9.99429e-06
1.22919e-05
-1.31819e-06
-0.000748331
-0.000179452
-4.40563e-05
0.0288512
-0.0460696
-0.000629923
1.70214e-06
2.68465e-06
2.01583e-06
0.0332286
0.05634
-7.99557e-07
0.000262954
-0.0141685
-8.38331e-06
0.00326292
7.62839e-06
-1.14175e-06
-1.64901e-06
-9.43438e-07
-0.0279903
-0.000382003
3.84088e-08
0.135012
0.000676139
1.38055e-05
0.0141403
-0.000999186
6.40266e-07
-0.0511609
0.000382804
-0.00276942
5.15836e-07
0.000203316
-9.81511e-07
0.0374886
1.6909e-06
-5.42039e-05
2.06229e-06
-0.00617753
-0.00256565
0.233221
-1.73269e-06
3.53441e-06
0.00410008
-3.79159e-06
-1.13098
-9.67141e-07
-0.000306922
-4.69595e-06
-0.473035
0.00264155
7.46056e-06
2.18679e-06
-8.73899e-07
0.0177451
1.1088e-05
2.76712e-05
-6.9409e-07
-0.0127634
0.000738309
0.00327393
0.238097
1.2419e-06
-0.00205123
-0.0524482
-9.13464e-05
-0.00252695
-0.0459684
-2.10388e-05
-1.57712e-06
-0.000155451
1.84588e-06
8.12935e-08
-0.00505156
1.48908e-06
-0.0022524
4.55105e-07
-2.43159e-05
0.183631
0.100953
-0.00141917
-1.89991e-07
-0.00101621
3.01751e-05
0.901835
2.88833e-06
0.0115982
-1.19477e-06
1.32897e-05
0.000804219
0.0823862
-1.71909e-06
-5.4878e-06
1.62546e-06
8.09077e-07
-7.17267e-05
5.5012e-05
-3.69232e-07
4.79891e-05
-0.11116
-0.00169822
-0.000114312
0.000310946
1.66627e-06
-1.6477e-06
-0.0014389
-1.3008e-06
-1.91404e-06
0.461567
0.000476884
-1.15773e-05
-0.114176
6.58695e-05
1.69637e-06
-0.394716
-5.82199e-05
-5.74689e-05
-5.56991e-05
6.5055e-05
0.0747913
0.0176389
9.09941e-06
0.0461531
1.77946e-06
-1.46189e-06
1.75569e-06
-1.95879e-05
5.7965e-05
1.54869e-06
-1.48376e-06
0.383034
3.3098e-06
0.000172778
0.00210958
-9.07897e-08
-0.00049127
0.000179429
-0.119596
-0.00627755
-0.00146219
-0.0177037
-1.78644e-05
-0.235662
0.000959685
-0.20701
4.61403e-05
-6.80338e-05
-0.0956536
-0.00200284
2.04085e-06
0.223702
-0.000719319
3.20945
0.751681
-0.0533615
2.54181
-1.09856e-06
0.00227521
5.47968e-05
1.58844e-05
0.0122366
-8.81233e-06
0.00118014
5.52586e-06
-0.00453602
-0.189694
-1.15817e-06
-1.29023e-06
-0.00030339
2.66248e-05
1.55912e-06
1.5233e-06
-0.000344479
0.000393894
-0.0243468
-7.65935e-05
-0.00139832
0.0158867
-0.00131656
-5.24764e-05
-2.71585e-06
-0.00645728
1.43146e-06
0.000120792
0.0185339
-1.78544e-06
-0.000200623
0.000545847
-3.71783e-07
-0.00042755
0.00714597
-2.72793e-06
5.64456e-06
-2.82431e-06
6.45425e-05
5.61528e-06
-0.574668
-0.000383383
1.94537e-06
1.50255e-06
0.00392879
0.0129741
-0.0963352
-0.223833
2.78385e-07
-0.00113262
-5.91541e-07
-4.13256e-06
0.00053526
-3.86693e-06
0.00026876
7.37206e-06
-5.47077e-06
-0.00152641
9.51394e-05