/*--------------------------------*- C++ -*----------------------------------*\
| =========                 |                                                 |
| \\      /  F ield         | OpenFOAM: The Open Source CFD Toolbox           |
|  \\    /   O peration     | Version:  v2012                                 |
|   \\  /    A nd           | Website:  www.openfoam.com                      |
|    \\/     M anipulation  |                                                 |
\*---------------------------------------------------------------------------*/
FoamFile
{
    version     2.0;
    format      ascii;
    class       surfaceScalarField;
    location    "250";
    object      ddtCorrDdt0(phi);
}
// * * * * * * * * * * * * * * * * * * * * * * * * * * * * * * * * * * * * * //

dimensions      [0 3 -2 0 0 0 0];
oriented        oriented;


internalField   nonuniform List<scalar> 
27551
(
0.00288845
0.000403752
-0.00329221
-0.00113769
0.0017104
-0.000572667
9.22456e-05
-5.93576e-05
-3.28772e-05
-0.00939586
-0.00612932
0.0155252
0.000159154
-0.000837847
0.000678696
-0.000134033
0.000172019
-3.79754e-05
0.000446895
-0.000416302
-3.0598e-05
0.0126642
-0.025655
0.0129907
-4.18116e-05
5.26502e-05
-1.08374e-05
0.00203097
-0.000147167
-0.00188381
-0.00121021
0.00131071
-0.000100496
0.0224445
-0.0554327
0.0329882
-0.0297421
0.0233026
0.00643956
-0.0494544
0.199523
-0.150069
-0.000833594
2.89448e-05
0.000804655
-4.66603e-05
4.86804e-06
0.00111967
-0.00378001
0.00266039
0.000137643
-2.72624e-06
-0.000134921
3.51276e-05
-1.46571e-05
-2.05121e-05
0.000556534
-0.000109664
-0.00831769
0.00444816
0.00386952
1.79487e-05
9.10686e-06
-2.70331e-05
1.18085e-05
3.14626e-05
-4.32648e-05
-0.00143772
0.00109083
0.000346885
3.84484e-05
-3.86714e-05
2.27975e-07
0.000147677
-0.000981251
-0.00040287
-2.93675e-06
0.00040578
-0.0213488
-0.0112008
0.0213678
-0.010167
-0.16876
0.119305
0.0138218
-0.058141
0.0443191
2.47754e-05
3.68961e-06
-2.84502e-05
-0.000322178
-0.000479463
0.000801643
-0.00200573
-6.80358e-05
0.0020738
0.000712278
-0.000553112
-0.00199796
0.00144443
0.000553511
0.0128508
0.00788877
-0.0207395
0.000246143
-0.000556747
0.000310589
-0.000788069
0.000797584
-9.53086e-06
0.00445895
-0.00447009
1.11284e-05
0.00135792
0.00400263
-0.00536055
0.000493025
-0.0016307
-5.95722e-05
-2.93404e-05
8.88927e-05
7.89247e-05
0.000559752
-0.000638668
-0.0003337
0.000522856
-0.000189147
-6.8574e-07
-1.63926e-06
2.2982e-06
0.00214326
-0.0372593
0.0351161
0.00243013
-0.00218354
-0.000246569
0.00149032
-0.000732514
-0.000757773
-0.0322337
0.0148555
0.0173783
-0.0108793
0.02373
-3.62086e-05
3.21727e-05
4.03106e-06
1.40648e-05
-7.28526e-06
-6.79014e-06
-0.00117349
-0.00254953
0.00372305
-0.0104645
0.0143323
-0.0038678
0.0674267
-0.053605
0.00172572
0.00273323
4.09964e-05
-0.000878829
0.00083784
0.000225459
0.00266299
-0.00361835
-0.00469935
-0.000545474
-0.00018836
0.000733834
0.000106619
-0.000113227
6.61598e-06
7.06627e-05
-2.45502e-05
-4.61094e-05
3.11044e-05
-2.20304e-05
-9.07621e-06
7.42149e-07
3.43395e-05
1.43978e-05
-5.08693e-05
3.65009e-05
0.0028239
-0.00138282
-0.00144102
-0.0166235
0.00615902
0.0493415
-0.026897
1.77424e-05
1.3408e-05
-4.74974e-05
7.50929e-05
-2.75979e-05
-0.0230695
0.0118687
0.0016698
-0.00207858
0.000408754
-1.40701e-05
3.45601e-05
-2.05172e-05
0.000295576
0.00119473
0.000402375
0.0671355
-0.0267611
-0.00298107
-0.000696126
0.000725063
-8.06162e-05
3.31192e-05
0.00517714
0.0240732
-0.0292503
-0.000418802
8.50889e-05
0.000135443
7.57846e-05
-0.000211225
1.84621e-05
-5.07747e-07
-3.7035e-05
-3.33214e-05
7.03601e-05
-0.00133989
0.000129703
4.85151e-05
-7.67602e-05
2.82473e-05
0.0144031
-0.0134853
-0.000917914
2.52277e-05
-4.52652e-07
0.000434978
-8.72963e-05
-0.000347678
-0.0195056
-0.0127281
-0.0771196
0.0280904
0.0490292
0.00247482
0.0184979
-0.0209728
0.0195682
0.00149105
-0.0210593
0.000158051
-0.000180402
2.23423e-05
-2.84616e-05
-2.52116e-05
5.36888e-05
-0.000938777
0.00125652
-0.000317691
0.000364105
0.014039
5.20773e-05
-2.24628e-05
-2.96134e-05
0.0208257
-0.0150783
-0.0057474
-0.000404496
-1.18114e-05
-3.99882e-05
-3.36138e-05
7.3629e-05
0.0113749
-0.00887412
-0.00250075
-0.000324296
-8.01983e-05
-3.18221e-05
-2.61374e-05
5.79819e-05
-2.341e-05
8.90275e-05
-6.55826e-05
-6.84398e-05
0.000433721
0.000122812
-0.015132
0.0178749
-0.00274289
0.00152298
0.00220751
-0.00373051
-0.000111096
6.84732e-05
4.26086e-05
-0.00274536
0.00173274
0.00101262
2.15556e-05
-3.56361e-05
0.00015562
0.000279361
5.85679e-05
-0.000118155
4.68726e-05
-8.04875e-05
-3.2151e-05
7.90449e-05
0.000285003
-9.83004e-05
-0.000186674
0.000133219
-6.68154e-05
-6.64091e-05
0.000599842
0.000357307
-0.000957156
4.27982e-05
4.94598e-05
3.46846e-05
1.73926e-05
0.0177742
-0.0152994
0.0145915
-0.0219109
0.00731942
-9.74716e-05
-1.44365e-05
0.000111909
0.00319742
-0.000865424
-0.00233201
0.00981866
0.00155621
0.000637895
-0.0002042
-0.0365081
-0.0406115
2.91214e-05
-2.84324e-05
-0.000827171
-4.24676e-05
0.0241777
-0.0380609
0.0138832
0.000678769
-4.70353e-05
7.27997e-05
-2.57559e-05
-0.00459108
0.0191826
4.56493e-05
-9.71036e-06
-3.58989e-05
-0.000690159
5.07237e-05
-3.65796e-05
-1.41425e-05
-0.00208373
-0.000661624
-7.39333e-05
2.6911e-05
-6.39649e-05
-0.000139847
5.81336e-06
3.02274e-05
2.05007e-05
-5.06734e-05
-6.0428e-05
0.000190974
-0.000736441
-0.0100548
0.0249103
0.00877946
-0.00282282
-0.00595665
-0.0194507
-0.0393017
0.0444789
8.45847e-06
-1.43052e-05
5.82648e-06
2.83272e-05
-1.26486e-05
-1.56772e-05
-0.0095709
-0.00023703
0.00980793
0.00542922
-0.00709776
0.00166855
6.81245e-06
3.91064e-05
-4.59235e-05
0.000470612
-0.000224459
2.79942e-05
-6.50449e-05
1.4187e-05
-1.40145e-05
-1.68135e-07
0.00440352
-0.0221148
0.0177113
0.000396103
-7.73824e-05
-0.000318719
9.16794e-05
-8.81179e-05
-3.55602e-06
-0.012486
-0.0314134
0.0438995
0.0153037
-0.0361595
0.0208558
0.00349296
0.0157737
-0.0192667
0.00534059
0.00343886
-0.00290602
0.0085178
-0.00561173
-0.00370671
0.0113483
-0.00764162
0.000151395
0.000244719
0.000767012
0.00226956
-0.00303659
4.973e-06
-0.000102445
-2.87156e-05
8.33921e-05
-5.46716e-05
0.00167772
0.00151968
-0.0084047
0.00527678
0.00312792
-3.2103e-05
0.00341402
-0.0024465
-0.000967517
-0.020409
0.0262451
-0.00583612
-0.0356125
-0.0113882
0.0470007
0.0212128
-0.0168093
1.31936e-05
8.54149e-07
-0.0150158
0.0330761
-0.0180603
-7.89e-05
7.40531e-05
4.84448e-06
9.44504e-05
-2.76916e-06
-0.0111301
0.0146231
0.00480547
-0.00328249
6.54233e-05
-0.000275422
0.000209997
9.8407e-06
4.36666e-06
0.000349717
-8.01805e-05
-0.000269535
-0.00259375
0.00336077
0.0358593
-0.0156449
-0.0202144
0.00154717
0.00178157
-0.00332875
0.0272483
0.0220932
0.00425573
0.00176702
-0.00602274
-0.00762049
0.00351695
0.00410353
0.00214075
-0.00504674
-2.41296e-05
-0.000234735
0.000258873
0.0019042
0.01076
0.000410354
0.000805515
-0.00121586
1.08016e-05
9.58191e-05
0.00317969
-0.0288508
0.0256711
-0.0150726
0.0139347
0.00113791
-3.83866e-05
7.91697e-05
-4.07808e-05
-0.0106895
0.00698283
-8.82057e-05
0.00012965
-4.14391e-05
0.012457
0.0234023
-0.00041012
0.000254682
0.000155452
-0.000751946
0.000563581
3.47618e-05
-1.23766e-05
-2.23691e-05
6.98888e-05
-3.17332e-05
-3.81503e-05
-0.0588332
0.0613055
-0.00247237
0.00192109
0.00168922
-0.0036103
-0.063776
0.00494285
0.212981
-0.156825
-0.0561557
-7.33495e-05
6.22381e-05
1.11092e-05
2.54234e-05
-0.000136375
-7.5195e-05
0.000211559
6.11615e-05
0.000403151
-0.00046431
0.00570874
-0.00767149
0.00196273
0.0693436
0.0476533
-0.116997
-0.00124248
0.000454381
-0.0010893
0.00351947
-0.036542
-0.0188906
0.00905924
-0.0215453
-0.0114163
0.00859461
0.00282166
-0.000381563
0.000241018
0.00014056
0.00535906
0.00478457
-0.0101304
0.00534588
3.83874e-05
-0.00145518
0.0014168
9.8826e-05
3.4397e-05
0.0256931
0.00421629
0.00897163
-0.0131879
0.0265176
-0.0104683
-0.0160493
0.00134166
-0.00332568
0.00198402
-0.001482
-0.000523737
0.000594988
-0.000220755
-0.000374225
-0.0155874
0.0742412
-0.0586538
-0.00240303
0.00811175
0.0157648
0.00380338
0.00452694
-0.00316901
0.00216622
0.00328676
-0.00545298
0.00139875
-0.0007938
-0.000604955
-9.83571e-05
-0.000283188
-1.24479e-06
0.000159297
-0.00208058
0.00320029
0.00606384
0.00186805
-0.00793189
-0.00120779
0.00020328
0.00100448
-1.44102e-05
-2.18136e-05
4.89497e-05
-3.45306e-05
6.5138e-06
6.41646e-05
0.0116248
-0.0149258
0.00330096
0.000220023
0.00116629
-0.00138629
-0.000188544
-0.00101924
0.00352534
0.000333061
-0.00385841
-6.52278e-05
0.000624978
0.0729488
0.140032
3.65634e-05
-3.2013e-05
-4.52593e-06
1.6768e-05
3.44059e-05
-5.11743e-05
-0.151687
0.0746617
0.0770251
-0.0028809
-0.00853536
-0.0189351
-0.0259382
-0.0226261
0.0485643
0.0196698
-0.0391754
-0.00701416
0.0160734
0.0404434
-0.0258933
-0.0145501
0.0231866
0.0279159
-0.0511025
-0.127497
-0.0241898
0.00194031
-0.00180429
-0.000136043
0.000290002
0.000253408
-0.000543405
0.0271503
-0.0250071
-9.18122e-05
-6.44496e-06
9.82618e-05
0.000417029
0.000220852
-0.0108562
-0.00421637
5.45334e-05
-7.59104e-05
2.13663e-05
-3.16368e-05
2.72121e-05
4.45026e-06
0.00544648
-1.08561e-05
2.09584e-05
-1.01225e-05
3.14206e-05
-5.48062e-05
2.09352e-05
-3.15609e-06
-7.19908e-06
-8.46149e-05
0.000735195
-0.00031817
-0.00438913
-0.00114539
0.00553452
0.0174746
0.0229689
0.00140741
0.000130108
-0.00153742
1.62285e-05
-3.17488e-05
1.55084e-05
-9.87427e-05
1.05366e-05
0.0112272
-0.0130374
0.00181018
-7.52719e-05
1.55454e-05
5.97256e-05
0.0106471
0.000977764
-0.0352381
0.010036
0.0252021
5.3276e-05
8.43635e-05
8.16344e-05
0.000384493
-0.000466114
0.00141396
-0.00869383
-0.016075
0.0247688
-7.9942e-06
0.000298008
0.00170226
-0.00249798
0.00079573
-0.0115357
0.015752
0.002973
-0.000703449
6.57651e-05
-0.000101144
3.53859e-05
-1.42095e-05
7.27765e-05
0.00018779
-5.96216e-05
2.12335e-05
0.000825313
0.000573443
-0.00614305
0.014469
-0.00832596
-5.45679e-05
5.05811e-05
3.96665e-06
0.00317353
-0.00284048
-2.62595e-05
-4.90092e-05
0.0236938
-0.0323877
0.00642195
6.57969e-05
-4.90291e-05
-0.0166053
0.00147329
1.71695e-05
5.79224e-05
-0.0543769
0.0178688
-5.43508e-05
-2.02313e-07
0.000220605
-8.51657e-05
0.00155007
-0.00151166
-7.2174e-05
1.46123e-05
5.75636e-05
3.9597e-05
3.03025e-05
0.00348656
-0.00466005
-4.16495e-05
1.57803e-05
0.00025989
-0.00057312
0.000313218
0.00254122
0.000383439
-0.00292466
2.95314e-05
-5.74503e-05
2.79323e-05
0.0193773
0.00714031
-0.000113371
6.14483e-05
5.19206e-05
-0.00047191
6.90476e-05
-4.37329e-05
1.84439e-05
2.5313e-05
-8.61238e-06
3.20238e-05
-2.34337e-05
-0.00639686
0.0300907
-1.11955e-05
2.68139e-05
-1.56302e-05
-8.88198e-06
-0.000401256
-0.000347105
0.00781892
-0.00747183
-7.16819e-05
2.90559e-05
4.26353e-05
-0.000952886
-0.00104508
0.000569002
-7.33171e-05
-0.000495676
-3.89686e-05
3.03426e-05
-0.000126385
-4.91757e-05
0.000175572
-5.78016e-05
-4.53801e-05
-2.14614e-06
4.75309e-05
-0.000563892
0.00224158
-0.0113976
-0.0134995
0.0248971
-3.60866e-05
8.25986e-08
3.60133e-05
-0.00208467
-0.00687904
0.0089637
-4.2949e-05
0.000263552
0.00253293
8.29153e-06
-0.000115752
7.77169e-05
3.803e-05
0.000473896
9.51125e-05
-9.469e-05
0.000115353
-2.06695e-05
0.000413017
-0.0226835
0.0478395
-0.025156
-0.00210959
-0.00048416
-0.05836
0.0587624
-7.21733e-05
-0.000672552
0.000754203
2.00427e-05
8.31045e-06
-3.37066e-05
4.55081e-05
0.00174134
0.000289633
-0.0217413
-0.0326356
0.00958104
-0.00415181
-0.00796931
0.0309946
0.000220223
-0.000244354
-1.70044e-05
-1.91067e-05
-0.0102174
0.0181061
-8.19102e-05
6.7707e-05
5.91287e-06
-8.75993e-05
8.16886e-05
0.00223869
-0.0028026
0.000182966
0.00979404
-0.00997703
-0.00247228
0.00575905
0.00340149
-0.00548618
-4.72809e-05
-0.000125801
0.000173078
-7.46929e-05
0.00029749
-0.00022282
9.91738e-05
-0.000102477
3.30112e-06
-3.29268e-05
1.80888e-05
1.48417e-05
0.0164349
2.08473e-05
-0.0164558
3.3467e-05
-0.000159844
0.000936458
0.000610709
-0.00110388
0.000165147
0.0539652
-0.0397612
-0.014204
-0.0360656
0.0561248
-0.0200592
-0.00148356
0.0179101
-0.0164265
-0.00032047
0.000317523
0.00619898
-0.00410758
-0.00209142
-0.000784505
-4.2702e-05
8.98039e-05
9.23063e-06
-9.90293e-05
-0.126148
0.110561
-3.71822e-05
-8.19581e-06
0.0010521
-0.0017271
0.000675008
-0.00012212
5.53173e-05
0.000948051
0.00762818
-0.00857623
-0.00129105
-4.88434e-05
0.00109469
-0.00153087
0.000436187
-0.000350783
0.000276095
-0.0135471
0.0111535
-0.0133378
0.00218426
0.00140514
-0.000310446
-0.00309537
0.000483896
0.00261149
5.00745e-06
5.50229e-05
-6.00559e-05
0.0175796
-0.0239765
-0.0165016
-0.0501559
0.0666575
-0.0156209
0.00213558
-5.97213e-05
3.45378e-05
-0.000453585
0.000502502
-4.89231e-05
-0.0455829
0.0228993
-0.000108382
0.000173803
-5.23738e-05
1.13393e-05
4.10513e-05
0.0494587
0.00450649
-0.000887908
-0.00563542
0.00652331
-0.00422659
-0.00208247
0.00630905
2.43688e-05
1.40722e-05
-0.00121531
0.00125631
-2.72871e-05
-5.10722e-05
7.83642e-05
0.0247936
-2.89919e-05
7.55284e-07
2.82612e-05
-0.00159409
0.0022055
-0.000611378
0.0088268
0.0257676
-0.0345944
6.0584e-05
-4.06883e-05
-1.99276e-05
-9.91126e-05
7.18304e-05
-4.21662e-05
0.000107933
-0.00733737
0.00594452
0.00139285
0.00158231
-0.000645845
1.52228e-05
1.70062e-05
-3.2253e-05
-0.00587315
0.0068212
-7.49087e-05
4.61931e-05
-0.0117144
-0.0161106
0.0278251
-0.0601767
0.0204155
-4.99125e-05
4.85315e-05
1.36964e-06
-9.53404e-06
-4.28328e-05
-0.00294473
0.00230506
0.000639718
0.00682705
-0.00664409
-0.000193469
-7.77935e-05
0.000271269
1.14174e-05
-2.26192e-05
0.000524016
0.0236535
-0.0509646
0.0273111
0.000119118
-0.000108315
-0.0017158
0.000260629
0.000638542
-0.000447588
3.47954e-05
-2.10391e-05
-1.37604e-05
-0.000111723
0.000540011
-0.00042828
-5.82363e-06
-3.28277e-05
2.52633e-05
4.548e-05
-1.63731e-05
-0.0266826
-0.0054645
0.0321471
0.00028472
-0.000351759
6.70862e-05
-0.00261929
0.00174519
0.000874099
-0.0408171
-0.0193596
-0.0388623
0.0121797
-0.0144626
-0.0207755
-0.000722357
-0.000871712
-2.80654e-05
-3.3784e-05
6.18439e-05
-3.07681e-05
0.000299024
-0.00026824
-4.27903e-05
-7.12159e-06
-0.0162083
0.0448794
-0.0286711
-1.90218e-05
-1.0533e-05
2.95985e-05
2.35607e-05
2.28617e-05
-4.6474e-05
1.89379e-06
-0.00309725
-5.68794e-05
6.19288e-05
5.63637e-06
4.00198e-05
0.000600251
-0.00206374
0.00146352
-1.37645e-05
2.28809e-05
-0.00234447
0.082486
0.0293807
-0.111867
6.18283e-05
-0.0035395
-0.00379788
8.35158e-05
-0.000113127
2.96122e-05
-4.98889e-05
-7.22389e-05
-0.000257044
0.000120674
0.0239036
-0.0219601
-0.00194352
1.93401e-05
5.08716e-07
-1.98768e-05
-0.0405512
0.109895
0.00788188
0.00126963
-0.00915152
0.000222643
0.0326408
-0.0744296
0.0417887
3.20166e-05
2.85479e-05
0.016188
-0.00891402
-0.00727398
0.00229751
0.000526412
0.0232064
0.000697142
9.68522e-05
3.99108e-06
-0.000100836
-6.18831e-05
-7.10167e-05
0.000132892
6.20871e-05
-2.9947e-05
-3.21369e-05
0.000360181
0.00831067
0.012515
0.000297637
-0.000143073
-0.000154556
-0.00148249
-3.33343e-05
-2.55871e-05
5.89147e-05
0.0126626
-0.0140474
0.00138483
3.79298e-05
2.41588e-05
-0.00381092
0.0101258
-0.00631491
0.0010952
0.000487104
0.000104684
-1.17593e-06
8.34053e-06
-7.18843e-06
0.0148262
-0.00367276
-0.000612415
0.0631661
-0.0389503
-0.0242157
-2.12273e-05
-7.74988e-06
-0.0141754
-0.00144544
-5.51684e-05
5.96987e-06
4.91963e-05
-0.0291327
0.00116082
0.0279719
-0.00263099
0.00578363
-0.00315265
0.00413088
-0.0296146
0.0254837
0.00091703
0.00445821
-0.00537524
-0.00656046
0.00629773
0.000262709
-4.67428e-06
-5.04894e-05
2.49983e-05
-4.43715e-05
1.93763e-05
0.000112049
-6.46819e-05
-4.73468e-05
-0.0375927
0.0281342
0.00945848
-5.86718e-05
-9.53758e-06
6.82122e-05
0.0234409
-0.0782548
0.054814
8.98127e-06
1.03289e-05
-1.92893e-05
0.00587
0.010318
-6.70446e-06
2.9728e-05
-2.30029e-05
-2.69072e-05
3.93176e-05
-1.24219e-05
-0.000154379
4.35261e-05
0.000110864
4.82688e-05
-2.32599e-05
-4.98727e-05
0.000120984
-7.11292e-05
-0.00247211
-0.0253066
0.0487475
-0.00515222
0.00252123
-0.0129896
0.0129077
8.19287e-05
-0.0011848
0.000109549
0.00107531
-0.00461237
-0.00305912
0.000425055
-0.00114742
-0.000204253
0.000156978
0.00879892
-2.09361e-05
-1.19828e-05
-8.97146e-05
-0.000323393
0.000211671
1.57516e-05
-4.26494e-05
-0.00779355
0.0319713
-0.0173058
0.0190484
-0.00174266
0.000838926
0.0343968
-0.0352357
-7.15108e-05
-8.77877e-05
0.0001593
-5.14803e-05
-5.91102e-06
5.7405e-05
-0.000541425
-0.000892143
0.00143357
0.0436255
-0.0109847
-2.6733e-06
1.99196e-06
-0.023167
-0.00248793
-0.00131883
2.7794e-05
-3.08324e-05
7.03017e-05
-3.94548e-05
-1.68319e-05
3.61745e-05
5.13631e-05
3.01926e-06
-5.43901e-05
0.000142065
-0.000226788
8.47272e-05
-5.4542e-05
3.04929e-06
3.04283e-05
9.92246e-05
-0.00904523
0.00499847
0.00404676
-0.0196384
0.0108774
0.00876102
0.000335136
-0.00151993
-0.00510996
-5.57683e-05
-2.89719e-06
-7.9969e-05
2.08285e-05
5.91363e-05
-0.0405604
-0.0144811
0.0550415
0.00176915
-0.00328598
-5.75258e-05
8.72757e-05
-2.97502e-05
-0.0538696
0.0148009
0.0390687
-0.000609765
0.00409636
0.000274512
2.25098e-05
-2.58867e-05
3.36039e-06
-0.03603
0.0100918
0.000684117
0.00377409
3.1383e-05
-6.74224e-05
3.60179e-05
-0.00554161
-0.00207888
0.0338093
0.00981615
3.31275e-07
5.10316e-05
-0.0192401
0.0463904
0.000308457
-2.34474e-05
-0.000517278
0.000428404
8.89032e-05
-0.033167
-0.00442572
1.45515e-06
3.33199e-05
-0.0279885
-0.0181323
2.30126e-05
2.59824e-05
0.00336803
-0.00202638
4.98595e-06
-0.000484526
0.000479539
-0.000204337
-0.000445694
0.000650022
-0.000645195
0.00509334
0.000397137
-0.000392144
0.0325553
-0.0578619
0.0426979
0.00200876
0.00135928
0.00633428
0.00943053
0.00312788
0.00185606
-0.0286171
0.00589624
-0.00111166
1.87429e-05
-1.95609e-06
-1.68263e-05
-0.0234948
0.0322478
-0.0087531
-0.0323346
0.0105933
-5.17233e-05
5.78473e-05
-6.12107e-06
-0.000111019
6.11314e-05
0.0115081
-0.000280902
-2.54414e-06
8.95534e-07
-1.00581e-05
8.86813e-06
-6.95344e-05
0.000282358
-0.000212815
-3.58693e-05
6.58887e-05
-3.00124e-05
0.000269587
-0.000113986
-0.00015559
5.19811e-05
0.000168348
-0.000220339
-4.3371e-05
0.00697329
-0.00443683
-0.00253645
-1.66661e-05
0.000556124
-0.00053945
0.000217294
-0.000452785
0.000235504
-2.62948e-05
4.98662e-05
0.0486872
-0.0250336
0.00016412
-0.000262425
-5.45076e-05
-6.12456e-05
-0.00422618
-0.0154122
-1.92088e-06
-5.49731e-05
2.93786e-05
-7.08712e-05
4.14935e-05
-0.0214572
-5.65625e-05
-5.68074e-05
-2.70391e-05
-4.06312e-05
6.76415e-05
3.60254e-05
-6.30476e-05
0.0266038
-0.0229123
-0.00369153
2.836e-05
-3.06198e-05
2.26314e-06
0.00379746
-5.13762e-05
1.80359e-05
2.42956e-05
4.07206e-06
3.83652e-05
7.36812e-05
0.00445037
-0.00376625
0.00451396
-0.00509723
0.000583261
-0.0245946
0.013197
7.11556e-05
-1.90537e-05
-5.21089e-05
0.000217154
-0.00010006
-0.00011709
9.92939e-05
-3.47331e-05
-6.45485e-05
-0.0020541
0.000322639
0.00173148
-2.34053e-05
7.8038e-05
-6.56316e-05
-1.23894e-05
0.000227722
0.000236642
-0.000464372
-3.50173e-05
-9.14783e-07
3.59388e-05
0.000584886
0.000707666
-0.00129256
-2.91769e-06
-4.99102e-05
5.28237e-05
-0.00671981
0.00249321
0.000392888
0.000256162
-0.000649055
-6.30646e-06
6.08328e-05
0.0468252
-0.00357602
-0.0432492
7.72901e-05
-4.97655e-05
-2.75214e-05
-7.56739e-05
1.83209e-05
5.73513e-05
0.000124747
-0.000167693
-1.74177e-05
1.84643e-05
-1.01768e-06
5.48089e-05
-4.88945e-05
0.003062
-0.00153666
-0.00152534
-0.000995182
-0.00336877
-0.00471695
0.00808573
6.45503e-05
0.0247122
-0.00533489
-0.0182036
0.0190425
5.24673e-05
4.6825e-05
-0.000384573
-0.00918632
-0.000644923
0.000165465
-6.20769e-07
7.3006e-05
-7.23867e-05
0.00229773
-0.010299
0.00800125
0.0415643
-0.0317308
-0.00983343
0.00571096
-0.0100503
0.00433934
1.52105e-06
6.93474e-06
-0.0282025
0.000553345
-0.000336049
0.00080145
-0.000216561
0.00139038
0.00558291
0.0403551
0.00120915
0.000281267
-0.000167321
-0.00011395
0.000680702
0.000630008
0.00396129
0.000489087
0.000113602
0.000524949
-5.80121e-05
5.73056e-05
7.07959e-07
-0.00679862
0.00294395
0.00385467
4.68958e-05
0.00104392
0.000117637
0.000151949
2.36921e-05
-3.04156e-05
-0.0263573
0.0351841
-1.23145e-05
-4.78479e-06
-0.00151149
0.000192674
-0.000173755
-5.3028e-05
2.34177e-05
-5.42516e-05
0.00347259
-0.00684135
-0.00603006
0.000124037
-8.05128e-05
0.000561152
-0.000447558
5.3159e-05
-5.16916e-05
-1.46706e-06
4.5497e-05
7.85466e-05
0.00893742
-0.00287359
0.000241112
-0.000207625
-3.38656e-05
-5.10397e-06
-4.37345e-05
-2.2128e-06
4.59449e-05
0.0625468
-0.0393602
-0.00423549
-0.00480973
-5.71202e-05
-2.17802e-05
0.000892785
-0.00103636
0.000143588
-0.000539462
-0.00033936
-2.08005e-05
0.000261919
-0.00557598
0.0182006
-0.0126246
8.81125e-05
-0.000107779
1.96752e-05
0.00543189
-0.00142925
0.015254
-0.0372141
6.41717e-05
-6.61015e-05
1.92149e-05
0.000222476
5.879e-05
-0.0762536
0.00393436
0.0723192
-2.93019e-05
-1.56108e-06
3.08731e-05
-2.33883e-05
-5.8943e-06
6.04801e-05
1.3267e-05
-7.37349e-05
-0.00364704
-0.00934251
-0.0138507
0.0242079
-0.0103572
-0.0484096
-0.00583687
0.0148085
-2.26172e-05
5.19911e-06
0.00017682
-8.69255e-05
-8.99135e-05
-0.0134848
0.00967385
-2.78616e-05
-2.16766e-05
-0.00217935
0.00242146
-0.000242113
-0.00128118
-0.000230311
-0.0194092
0.00786795
0.0115412
0.0134575
0.00974888
2.16455e-06
6.66195e-05
-6.87842e-05
0.00391719
0.0187109
-0.000836055
0.000281824
2.92251e-06
-7.38736e-05
7.24273e-06
6.66261e-05
-0.000248282
-0.000198622
0.000446906
6.91231e-05
-6.97411e-05
0.00506845
-0.0057371
0.000668643
-0.0015327
0.00085443
0.000678263
-1.04128e-05
7.09042e-05
-0.0024434
-0.00435522
-0.000540324
0.00224259
-2.59816e-05
-0.0154327
0.00928962
0.00381051
-0.00742886
-5.20526e-05
-2.98803e-05
8.19404e-05
-0.00756092
0.0543861
2.03668e-05
7.64839e-05
-0.0238274
0.0172426
0.00658472
6.07428e-05
-6.31889e-06
-5.44202e-05
0.0060902
-0.000481928
-0.00560827
-0.0103698
1.88446e-05
-3.40828e-05
1.51923e-05
-0.000415301
-0.00130334
0.00171863
0.00320633
-0.00268582
-0.00052051
-3.67323e-05
1.73004e-06
0.0256175
-0.00944872
-0.0161687
0.00200385
-0.00199384
-1.00064e-05
7.14885e-05
0.00010533
0.000906143
-2.05984e-05
-2.10565e-05
3.99361e-05
-0.00015016
0.000110221
-2.57801e-05
1.34121e-05
1.55861e-06
6.91573e-05
-7.07143e-05
-0.00278294
-0.0119385
0.0147215
0.0299903
0.00136382
0.00155303
-0.0029168
3.05058e-05
-2.75087e-05
-2.97419e-06
-0.00160068
0.00118537
7.29698e-05
-8.94286e-05
1.64331e-05
-7.333e-05
6.73207e-05
6.01603e-06
5.26911e-05
-0.00223204
-0.00298682
-6.34447e-05
1.84479e-05
4.50039e-05
0.00161021
0.000393635
8.99419e-05
3.6323e-05
-0.000126258
-0.0106687
0.00643325
3.07968e-05
1.15086e-05
-4.22222e-05
1.2671e-05
1.93237e-05
-0.140903
0.0755194
0.0653833
-0.0275999
0.0163827
-0.0191656
-0.000449476
0.0270532
-7.62386e-07
-4.40434e-05
4.47998e-05
0.00765912
-0.0118729
0.00421377
-5.46516e-05
-2.53012e-05
0.0296306
-0.0508511
0.0212205
-1.78245e-05
-5.60527e-05
-2.30103e-05
-2.64027e-05
4.93943e-05
-0.00239368
-0.00569064
0.00808432
0.0146707
0.0100415
-0.00653743
-0.0128717
0.000987424
0.00012979
-0.000117408
-1.23931e-05
0.000101913
7.01113e-05
0.00664655
-0.00904958
7.89334e-05
0.000138233
-0.00873071
0.000936963
0.00779375
0.00479228
-0.00255362
-0.0198143
0.0220935
-0.00227922
0.00818708
0.000423296
0.00178223
-5.7061e-06
5.54833e-05
-4.9778e-05
-0.0267145
0.0231385
0.000216093
0.000306769
-0.0437094
-0.0325442
8.91078e-06
8.08951e-05
0.00345004
-0.00204259
-0.00505479
0.0118818
-8.19059e-05
5.40193e-05
2.78985e-05
-0.000658359
0.000344364
0.000313993
0.00200535
-0.00593406
0.00392871
-0.00031031
0.000702073
-0.000391761
-0.014232
0.011567
0.00266494
2.52005e-05
-5.49012e-05
2.97015e-05
-8.15604e-06
3.89916e-05
-6.50284e-05
4.26003e-05
2.24296e-05
-0.00188284
0.000779002
-0.000989332
0.0013997
4.2167e-05
8.76455e-05
-0.00447818
-0.0218791
4.57593e-05
-8.26845e-05
3.69128e-05
0.000109622
-0.000922805
0.000813185
0.00032828
-0.00213257
0.0315109
-0.0196234
-0.0118876
0.00127558
0.00351668
5.1729e-05
-7.08499e-06
-4.46425e-05
0.00245075
-0.0078024
0.00535164
-0.0319795
0.0308973
0.0010822
2.15947e-05
-1.18163e-06
-2.04207e-05
6.92322e-05
-2.8937e-05
-4.0295e-05
-0.0304597
0.0154439
0.0102534
0.0178389
-0.00952828
0.000266331
4.35274e-05
-0.000309853
-0.0468321
0.0136651
0.000266059
-1.32167e-05
-5.18119e-05
-6.12861e-06
-9.28315e-07
7.0635e-06
-0.00109026
-0.000973487
0.000398562
-0.000708869
-0.00854945
0.00831242
-0.000102885
0.000369196
6.27442e-05
-6.84504e-05
-0.0258433
-0.000871188
0.0120678
-0.00104729
-0.0110205
-4.12032e-05
7.05875e-05
-0.00136514
-0.00125414
-3.29464e-05
6.16425e-05
-2.86976e-05
0.0365131
0.0146787
-0.0511918
-7.78448e-05
2.31941e-05
-0.0124769
0.00563326
0.00684367
0.0200058
-0.00793799
0.00459958
-0.0396076
0.035008
2.00706e-06
-5.11735e-05
4.91649e-05
0.0460452
0.000387261
-0.000171165
-0.0807376
0.00248275
3.17046e-05
-3.75662e-05
-1.59692e-06
7.27465e-05
-1.00134e-05
1.31402e-05
-3.07415e-06
-0.0111737
0.00269597
0.00847773
3.57646e-06
-1.44369e-05
0.0451514
-0.0286616
-0.0164897
0.00174175
0.00371779
-0.00545954
0.0029869
0.00321207
-5.18339e-05
-2.60176e-05
-0.00195046
-0.000312759
0.000757202
-0.000647587
-0.026801
-0.00151283
-4.90802e-06
-9.40126e-06
0.000112016
-4.58587e-05
-6.61421e-05
-0.00188441
-1.44772e-05
-2.9258e-05
0.00640925
-0.0140071
0.00759786
-0.00168785
-0.00143796
0.00312582
-4.66772e-05
2.94096e-06
3.75811e-05
0.000208195
-0.000245789
4.62385e-05
6.57763e-05
5.9096e-05
-0.00064978
-0.00198412
0.00263396
0.00128395
-0.0022897
0.00100575
-0.00100177
0.000408971
0.000592792
-0.00676106
0.00147422
-0.00261018
0.00113595
8.84006e-06
8.2781e-06
-1.55524e-05
9.21019e-05
-6.68572e-05
3.20495e-05
3.48107e-05
-0.0493289
0.00374604
-0.000856843
-0.0336127
0.0344695
8.06376e-05
-3.63743e-05
-4.42531e-05
-0.00112593
0.000779392
0.000346501
-3.50175e-05
6.45601e-05
0.00162289
-0.0015162
-0.00010668
-0.00119733
-0.000659373
0.00185669
-0.000267498
0.000305081
-0.00268736
-0.00116402
0.00385139
5.02766e-05
3.31216e-05
0.0012901
0.000259981
2.22668e-05
-5.51961e-05
-1.14895e-05
0.000271374
-0.000264785
-0.000308329
-0.000103122
0.000241673
-0.000170929
-7.07446e-05
0.0179051
0.00771238
0.0203458
0.0111651
7.06115e-05
-1.66468e-05
-5.39687e-05
-0.124988
0.0243885
-5.00965e-05
-1.62435e-06
0.0155347
-0.0200128
-0.000995284
-4.24448e-05
1.6298e-05
3.46524e-05
3.59641e-05
-8.40883e-05
-0.00067487
0.00075896
-0.000557751
-0.00194022
0.0082914
-0.000685923
-0.000315849
-0.000413047
-0.00040096
0.000814015
3.09713e-05
0.0169776
-0.0106433
-0.00839559
0.00540567
0.0029899
1.99489e-05
-3.96655e-05
1.96934e-05
1.79251e-05
-7.54485e-05
0.000341713
-0.000191339
-6.57108e-05
-6.47305e-05
3.66579e-05
0.102228
-0.0747197
-0.0275082
0.000277129
-0.000103722
4.71583e-05
-2.02583e-05
-6.78562e-05
-0.000208908
0.00221766
-4.04654e-05
-0.000132386
0.000172852
-7.3308e-06
4.65609e-05
-3.92251e-05
-4.51678e-05
3.78389e-05
3.17619e-06
-1.78491e-05
0.00128033
-0.000114025
9.64464e-05
-0.00207607
-0.00909763
0.000109135
-7.16812e-05
-3.74518e-05
5.05443e-06
-0.0104658
0.0045308
0.00593505
-0.00167987
-0.00705087
0.00678365
-0.00491559
-6.95101e-06
-6.87055e-06
3.40782e-05
-0.0428717
-0.0821163
7.59594e-05
1.76037e-06
0.00154303
-0.00115062
-0.000392376
-1.76176e-05
-5.82983e-05
-1.58033e-05
6.15651e-05
4.34882e-05
-2.3553e-05
-0.00304851
0.00202046
0.00102807
-0.0601994
0.0654339
-0.00523454
0.125184
0.059584
-0.0491785
-0.0104054
0.0174311
-3.60972e-05
-0.00625213
-4.8237e-05
2.58059e-05
2.51808e-05
-5.09932e-05
0.000124176
-3.42371e-05
0.0107184
-0.00305926
6.1983e-05
-4.09334e-05
-2.10461e-05
-0.00355986
0.00101034
0.00719393
0.00293189
-0.0484589
0.0170455
6.19281e-05
0.000335218
-2.38409e-05
-1.70246e-05
4.08555e-05
0.00107254
0.0486039
-0.0496765
8.77749e-05
-3.17363e-05
-5.60478e-05
-0.000888043
0.000474992
0.0384519
-0.0376096
-0.0117193
-0.0117818
-0.0262792
-0.000330149
0.000252363
0.00107117
0.00501901
-8.8266e-06
-4.14332e-05
5.02544e-05
0.00418056
0.00589356
-0.0100741
-0.000141505
6.99968e-05
0.0208306
-0.000367091
0.000472288
-0.00010519
7.65476e-05
-5.844e-05
-1.81177e-05
-0.00718356
0.00212878
0.000868725
2.40652e-05
-0.0173874
-0.042812
3.8456e-05
-3.64488e-05
-0.0679539
4.43212e-05
-8.03122e-05
3.5985e-05
-0.00372922
0.00104187
-0.00722615
-0.0035821
-0.00088799
-9.05841e-05
-0.00155824
0.00164883
-4.05595e-05
0.000110552
-6.99899e-05
-5.73027e-05
2.05859e-05
0.00104277
4.43862e-05
4.70821e-06
-4.90898e-05
-0.00553002
0.00438462
0.0184057
0.0411783
-0.0333427
0.0173065
0.0160361
0.00613221
-0.00761575
-0.000966564
-0.0017281
0.00269463
-0.0181199
-0.00807228
-0.00615969
-0.0327286
0.0192291
-0.000961779
0.000398076
0.000563713
0.00763118
-0.00690153
-0.000729662
-0.003763
1.91891e-05
-5.83807e-05
-1.49518e-05
-0.000219399
0.000262349
-4.29479e-05
4.49629e-05
-2.82379e-05
-1.67749e-05
0.000119842
0.00027868
-0.000226694
5.05509e-05
-2.7698e-05
0.000844081
-0.000451207
1.05245e-05
-1.28419e-05
2.32224e-06
-5.54599e-07
-0.000306233
-0.000655541
2.39714e-06
-2.19674e-05
1.95786e-05
0.0198926
-0.0186292
-0.00126344
0.0058343
-0.00132035
-0.0075093
-0.00470229
0.0122116
-7.45015e-05
6.85746e-05
0.00411243
0.00367895
-0.00779136
-0.00147624
0.00132908
0.00120289
8.72148e-05
8.6919e-05
-5.20594e-05
-3.48568e-05
-0.00674187
-0.0252377
9.31443e-06
-0.000108052
-0.00056353
0.000656361
-9.28358e-05
-8.85508e-05
9.42463e-05
-5.69447e-06
-0.0197712
-0.0122908
0.032062
-0.000100025
5.94678e-05
-0.0071071
-0.00128848
-0.00402757
0.000445466
3.43353e-05
4.29537e-05
-0.0440203
0.0143277
0.0296926
0.00137332
-0.00036009
-0.00101322
2.129e-05
0.000539876
-0.000388356
0.000206819
0.000181554
2.0396e-05
2.30804e-05
-3.50292e-05
-0.000552043
0.00160415
-0.00216389
0.00828784
0.0259139
-0.0342017
-0.00119357
0.000652145
0.00268527
-0.00246551
-0.000219743
-0.000863645
0.000612514
0.000251131
-6.27253e-06
8.17284e-06
-1.90645e-06
0.0309124
-0.0188225
-0.0120899
0.000515806
-0.000532466
-0.0696288
0.0335632
-6.00255e-05
-1.98458e-05
7.98737e-05
6.30114e-05
5.86791e-05
7.52982e-05
-0.00013398
5.70492e-06
-6.08392e-06
3.67873e-07
-0.00167972
0.00667819
2.51838e-05
1.56391e-05
-4.0803e-05
-0.0150214
-5.69408e-05
-9.07448e-05
3.07148e-05
5.63058e-05
5.28261e-05
1.9941e-05
-0.000239343
3.40924e-05
-2.41047e-06
0.000530107
-0.000508843
6.66615e-05
1.68117e-05
5.97313e-05
0.00982075
-0.0153967
5.7748e-05
-0.000248466
0.000190738
-0.000330596
0.00963352
-2.44424e-05