/*--------------------------------*- C++ -*----------------------------------*\
| =========                 |                                                 |
| \\      /  F ield         | OpenFOAM: The Open Source CFD Toolbox           |
|  \\    /   O peration     | Version:  v2012                                 |
|   \\  /    A nd           | Website:  www.openfoam.com                      |
|    \\/     M anipulation  |                                                 |
\*---------------------------------------------------------------------------*/
FoamFile
{
    version     2.0;
    format      ascii;
    class       volScalarField;
    location    "150";
    object      omega;
}
// * * * * * * * * * * * * * * * * * * * * * * * * * * * * * * * * * * * * * //

dimensions      [0 0 -1 0 0 0 0];


internalField   nonuniform List<scalar> 
18540
(
0.0284491
0.0259014
0.021288
0.0836048
0.0225851
0.0196309
0.0217725
0.411229
0.0202309
0.0248733
0.0236883
0.139153
0.130553
1.12322
0.0226592
0.0202206
0.0237287
0.0213321
0.0204452
0.0217565
0.0526525
0.0239116
0.0198882
0.023571
0.0209697
0.0227549
0.0219931
2.35996
0.0802467
1.10226
2.61259
0.0241089
0.0219877
0.0266762
0.0225824
0.022146
0.0935451
0.0218191
0.0210108
0.0333788
0.0520062
0.0214003
0.0214169
0.0216248
0.0209487
0.0215716
0.349506
0.022694
0.0212436
0.100564
0.0679427
0.0231486
0.0235353
0.0511146
0.0637581
2.71819
0.0340036
0.0227176
0.0287443
0.0511132
0.0226122
0.02109
0.0208895
0.0205116
0.0204525
0.0201335
0.0228266
0.0688547
0.127049
0.0205226
0.0213044
0.0814827
0.00681077
0.020546
0.0212772
0.381343
0.0953657
0.0226706
0.021297
0.426274
0.0209103
0.0215518
0.0243115
0.0206827
0.0238476
0.0212797
0.103798
0.0237848
0.0215179
0.109693
0.7292
8.09058
0.124364
0.0215843
0.0201107
0.0210908
0.115083
0.021288
0.315312
0.0217062
0.0200944
0.0372358
0.0217219
0.0200623
0.0201275
0.0201016
0.021829
0.0878447
0.0253184
0.0213648
0.0261488
0.020539
0.021458
0.0214136
0.0200854
0.0200783
0.02081
0.0212915
0.0216975
0.0212952
0.0212855
7.91447
0.269429
0.021104
0.0254629
0.0356034
0.021812
0.727023
0.0204534
0.0228827
3.09372
0.0216895
0.0208977
0.328303
0.0199614
0.0227202
0.0218213
0.0261521
0.0208894
0.0200692
0.0196058
0.0220885
0.0213593
0.0225512
0.0913319
0.0393235
0.09104
0.417301
0.0204409
0.0227137
0.371939
0.03071
0.0206707
0.0217759
0.0206914
0.0236604
0.12696
0.0210077
0.0210673
0.46722
0.147202
0.502286
0.0397388
0.728599
0.0533725
0.0209755
0.0239005
0.0211
0.0210883
0.0254698
0.0443502
0.021288
0.024144
3.36285
0.77983
0.121256
0.0239347
4.43958
0.0225649
0.0210751
0.653352
0.0254962
0.0213836
0.0231909
0.0216779
0.0240192
4.34341
0.147146
0.136985
0.0584716
0.0303807
0.767879
0.021662
0.416702
0.0228727
0.021096
0.138926
1.00472
0.0216134
0.0510417
0.0214378
4.41546
0.0208706
0.0227033
0.0219945
0.0221941
0.81379
0.0294536
0.814481
1.15435
0.0212426
0.021663
0.0216352
0.0211873
0.110451
2.67724
0.0204374
0.0226218
0.275266
0.440559
0.0460587
0.0194895
0.423131
0.0390189
0.0237676
0.0213045
0.788799
0.0779962
0.0928582
0.0238221
0.0249855
0.022066
1.57355
0.120646
0.102133
0.0519229
0.0625273
0.0237573
0.0192888
0.0215809
0.0240706
0.0410191
0.0236868
0.0226961
0.020125
0.0208928
0.028939
0.0233096
0.0236912
0.0258622
0.0216256
1.19583
0.0207112
0.0212116
0.800909
0.0475435
0.132479
0.474674
0.121712
0.423718
0.393095
0.521033
0.777176
0.021253
0.0210838
0.271905
0.0209503
0.0218956
0.375512
0.0213918
0.0199842
0.0281406
0.0214209
0.0201361
0.0205252
0.0209499
0.0218892
0.0614281
0.396182
0.0233448
0.0205054
0.0214444
0.292539
0.0212281
0.0469581
4.3436
0.0213429
0.0217674
0.0427041
0.205107
0.0210492
0.0230958
0.0837547
0.0240986
0.0213977
0.0214008
0.0133759
0.022332
0.0237284
0.0634212
0.0202447
0.0262514
0.0212234
0.15035
0.0622862
0.021208
0.0825762
0.021312
0.716056
0.0202363
0.0215265
0.0237404
0.0237617
0.0224059
0.0509948
0.0214002
0.0190614
0.0236417
0.0206927
0.0911072
0.0213677
0.0219631
0.0214467
0.0199946
0.116172
0.0228763
0.0208246
0.044792
0.0213768
0.0217434
0.0221977
0.0199869
0.021125
0.0212365
0.0227016
0.0258324
0.401027
0.0205635
0.0409099
0.0215209
0.0235848
0.0211285
0.0221317
0.0211121
0.0219844
0.621325
0.0237036
0.393266
0.0240759
0.0217742
0.0228863
0.0198807
0.024671
0.71573
0.030781
0.295651
0.0216646
0.0205557
0.124295
0.0213975
0.0211832
0.0262051
0.0573531
0.0669279
0.0388547
0.021211
0.0218954
0.021323
0.0215801
0.0767625
0.0211193
0.0679197
0.0211632
1.05976
1.23425
0.333893
0.0220247
0.0346104
0.0228037
0.021149
1.59831
0.0223545
0.0242895
0.0212822
0.0401032
0.0239136
0.0215775
0.0218912
0.140133
0.148397
0.0214335
0.118701
0.0206522
0.18539
0.535721
0.105626
0.0201181
0.0215816
0.536929
0.0213882
0.01994
0.87111
0.0360472
0.0335839
0.0211424
0.0229031
0.0211141
0.165829
0.0235711
0.0215785
0.489113
0.0205082
0.0211279
0.021398
0.0298509
0.0354342
0.0205418
0.0398412
0.0210784
0.201407
1.09633
0.0212158
0.0199325
0.0265989
0.0547056
0.0216872
0.0218461
0.0210853
1.19178
0.0210961
0.0239938
0.0224664
0.0199169
0.0218172
0.0214106
0.0199244
0.0204615
0.606834
0.0207314
0.025392
1.21743
0.611243
4.37955
0.021371
0.020719
0.0211294
0.0212087
0.385713
0.0199177
0.0204712
0.112105
0.0206423
0.019968
0.0259546
0.0226436
0.0281348
1.16252
0.0206599
0.0296598
0.0214254
0.0212706
0.0216546
0.398779
0.020027
2.77409
0.149825
0.0210872
0.472905
0.0205158
0.31778
0.0231124
0.399422
0.0211097
0.0214456
0.0216061
0.0211361
0.329021
0.019713
0.0229781
0.0224565
0.0916495
0.0217959
0.0558074
0.000394588
0.0211025
0.0247985
0.143934
0.023578
0.45914
0.0232473
0.0972469
0.0202263
0.129726
0.0334052
0.57885
0.0269386
0.0417886
0.0202239
0.0213737
0.0195453
1.35547
0.0213736
3.12637
0.0225954
0.309031
0.0206942
0.0205331
0.0211615
0.0213627
0.0214336
0.02286
3.12266
0.0327616
0.307184
0.0218021
0.101563
0.021338
0.0212078
0.0537959
0.0217542
0.0211081
0.0218114
0.0205336
3.16573
0.085229
0.450888
0.0212114
0.0206032
0.0219514
0.477265
0.0207804
0.41356
0.0240574
0.0195347
0.0200351
0.0202372
0.0212032
0.020597
0.0214584
0.0372234
0.393815
0.0239378
0.419959
0.0213864
0.0208264
3.21009
0.0358273
0.0218005
0.759341
0.0541542
0.0220611
0.0200143
0.412464
0.0107787
0.0198646
0.0294424
0.500323
0.0202384
0.31421
0.0208419
0.0220634
0.409853
1.63504
0.0217022
2.88751
0.0201248
0.0239876
0.0220219
0.0216893
0.055555
0.0220156
3.07075
1.13297
0.0235985
0.107725
0.123876
0.265362
0.0361937
0.0200105
0.412301
0.611317
0.0212742
0.0214295
0.32865
0.0220392
0.0245246
0.0212824
0.0213394
0.021698
0.0217015
0.0221158
0.0322463
0.0216172
0.0215191
0.0204792
1.16794
0.0208123
0.0211202
0.344658
0.0206346
0.0212345
0.597663
0.0213621
0.0198577
0.0198659
0.140526
0.022523
0.0240813
0.0230247
0.0221001
0.0195372
0.0229721
0.169139
0.401324
0.020825
0.0209915
0.0211227
0.0241341
0.02136
0.0213123
0.0219905
0.0207612
0.0215314
0.0207438
0.0321073
0.02065
0.0213909
0.400999
0.0216952
0.0213391
0.0214921
0.019902
0.0210051
0.0236729
0.0235495
0.0323332
0.0207002
0.0973016
0.401347
0.0211288
0.302558
0.021915
0.0210394
0.0575654
0.582431
0.0513471
0.0205319
3.30789
0.0215243
0.0214345
0.0310379
0.549181
0.0209329
0.0236151
0.0316158
0.0224412
0.022189
0.0280991
0.0234821
0.0216974
0.0213075
0.495016
0.021181
0.0222907
0.0241477
0.0212241
0.019534
0.0303783
0.712517
0.0211567
0.022359
0.0208068
0.0211368
0.0404066
0.0211271
0.0199783
0.0208369
0.534812
0.0393571
0.022135
0.0230769
0.0227138
0.0211616
0.0579594
0.0211022
0.0546111
0.396327
0.0206244
0.0200183
0.0209061
1.35667
0.0202343
0.020228
0.0206511
0.205335
3.83968
2.83785
0.0693629
0.019895
0.0215037
0.0615633
0.0241673
0.0272916
0.0243289
0.0736197
0.401446
0.0210544
0.0544236
0.0907988
0.0207553
0.0213902
0.021887
0.0210409
0.0352404
0.0238485
0.0206476
0.028179
0.0233683
0.0199764
0.0677249
0.0478097
0.021095
0.403182
0.0211171
0.414491
0.0208966
0.178208
0.410102
0.0200264
0.0255918
0.0274096
0.0207643
3.93336
0.0251195
0.0214906
0.421198
0.0214006
0.0195908
0.0226775
0.0210514
0.0861118
0.273714
0.0228947
0.0222461
0.0253727
0.021378
0.0208913
0.0271048
0.0237911
0.0222472
0.0250718
0.0214175
0.0405383
0.0204917
0.0200042
1.23654
0.576278
0.0887018
0.13403
0.0208279
0.327076
0.0208176
1.22173
0.0213835
0.0204774
0.0488947
0.0976614
0.0836131
0.0217479
0.0206711
0.0196176
0.12019
0.0209978
0.136148
0.0268224
0.0935238
3.16036
0.023095
0.0213564
0.475997
0.0210155
1.35213
0.0211541
0.0239041
0.0553773
0.0210379
0.0220603
0.0466975
0.0215402
0.0553154
0.0211761
0.0204987
0.0207025
0.0211037
0.0227121
0.0206781
0.476477
0.0213755
0.0215123
0.022351
0.0586319
0.027018
0.020814
0.0439821
4.16609
0.0206985
0.0212195
4.13902
0.0824232
0.329532
0.0204389
2.59352
0.0228521
0.0206944
0.0207043
0.0267718
0.0215314
0.372785
0.0204153
0.0213597
0.471398
0.0367002
0.0212448
0.025689
0.0207545
1.23946
0.0208099
0.0483792
0.036908
0.434963
0.0211904
0.537066
0.0210349
3.12926
0.0225698
0.0208352
0.0217013
0.0151353
0.0216331
1.31044
0.0451059
0.0349556
0.0208012
0.0235432
0.0243189
0.021525
0.300902
0.0998748
0.0207167
0.0201118
0.14197
0.0212789
0.0546262
0.0276975
0.0208298
0.0210445
0.0200991
0.0214412
0.0224707
0.0227389
0.023047
0.0359033
0.0297235
0.0198952
0.022109
0.0211082
0.0211949
0.581725
0.5424
0.0213723
0.0212127
0.0208991
0.0246283
0.0242021
0.0210668
0.0272995
0.0210957
0.0235364
0.0207598
0.0256043
0.0150054
0.0208714
0.0211083
0.0198128
3.7487
0.0725799
0.0213574
0.971169
0.0212822
0.456491
0.0230558
0.0200539
0.0213594
0.022458
0.0231142
0.109973
0.0230456
0.0213932
0.0205424
0.110501
1.29779
0.0200349
0.022617
0.0244691
0.0216755
0.0207187
0.820309
0.0217305
0.0213636
0.02106
0.0236499
0.0212207
0.0209727
0.0209802
0.0204408
0.0233649
0.0213333
0.0225007
0.0214834
0.0208207
0.0498177
0.124431
0.0397231
0.0226516
0.0199847
0.966094
0.0211302
0.0249905
0.0213871
0.0213667
0.0200428
0.026283
0.816281
1.15278
0.836596
4.48641
0.0213186
0.421268
0.0213584
0.0204901
0.0214174
0.350827
0.0212029
0.0495227
0.0546084
0.502765
0.0219513
0.0200471
0.480261
0.0213193
0.0214009
0.824811
0.642047
3.14045
0.0216875
0.196394
0.0212045
0.0888367
0.0212184
0.118998
0.0221776
0.0208863
0.0539681
0.0229538
0.731854
0.0211943
1.2011
0.0213196
0.0272415
0.0429148
0.0334713
0.0223501
0.0210908
0.0207566
0.0578669
0.0195051
0.0617595
0.848262
4.11546
0.236024
0.0247518
0.413958
0.0391621
0.398611
0.0238075
0.0364901
0.0582002
0.0212082
0.0208839
0.0213033
0.0224076
0.0214246
0.021728
0.0204703
0.0205121
0.0213029
0.01991
0.0247821
0.0240892
0.24949
0.179213
0.0526406
0.0206131
0.0803196
0.024795
0.0233841
0.0210542
4.13107
0.0214259
0.0212668
0.0210842
3.16974
0.0210937
1.28657
0.0327294
0.0218982
0.202374
0.0238625
0.0223368
0.020895
0.020044
0.0207592
0.024091
0.0245339
0.115648
0.0218452
0.0245527
0.0221577
0.0222328
0.141727
0.0216161
1.79809
0.0213229
0.0213763
0.0214374
0.0209522
0.0364529
0.0207086
0.313177
0.0213179
0.021477
0.0212953
0.0230885
0.0222755
0.0213844
0.0208936
0.153373
0.0208258
0.0213257
0.0444931
0.0213159
1.21832
0.0210459
0.0212179
0.0237689
1.22179
0.103044
0.0200521
0.0218269
0.0219945
0.0199491
0.497931
0.0215776
0.0200848
0.082835
0.0576113
0.0207545
0.0328529
0.0210451
2.51879
0.0197395
0.0210304
0.0225839
0.0483181
0.0213889
0.38241
0.0215053
0.0215837
0.0210618
0.020308
0.0203195
0.021299
0.0215715
0.0222844
0.0208098
0.0212653
0.0211746
0.0212521
0.0503423
0.0423819
0.0209482
0.73103
0.021082
0.0251125
0.435082
0.0198725
0.0213086
0.375306
0.0209737
0.0203053
0.0214724
0.0450994
0.0713657
0.0225562
0.0210763
0.0338104
2.32445
0.026114
0.0209624
0.13393
0.0372001
0.0238583
0.588209
0.0220481
4.29668
0.0200484
0.0220303
0.0549482
0.0236336
0.0258687
0.58871
0.0729466
0.338009
0.0323857
0.0213419
0.020866
0.0213112
0.0214212
0.0211854
0.0198891
0.148051
0.0223699
0.0205063
0.020134
0.0211216
0.0109821
0.0210233
0.0235013
0.0221036
0.441056
0.0222375
0.02079
0.0212194
0.0215617
1.18217
0.0213447
0.0400025
0.0207613
0.348652
0.0214193
0.0238173
0.731588
0.0213491
0.021929
0.0198135
0.0399716
0.021967
0.39029
0.03054
0.0383415
0.0198079
0.022955
0.0213202
0.0198882
0.0201537
0.0197034
0.0233414
0.113762
0.800336
0.0208751
0.0206067
0.0230961
0.0201169
0.0226962
0.0209477
0.0300134
0.461618
0.394674
0.021
0.465886
0.0232278
0.0203111
0.0248519
0.0229855
0.0212622
0.0207805
0.0428864
0.0190143
0.0273125
0.0212848
0.0210161
0.0199474
0.0207588
0.0213956
0.022843
0.0217098
0.0215731
0.064715
0.0210218
0.801259
3.07664
1.08714
0.0234787
0.0209431
0.0219524
0.0216313
0.0214685
0.0220803
0.523058
0.021156
0.0217773
0.0532273
0.0204317
1.28753
0.0202362
0.803298
0.0213365
0.0202182
0.0218331
0.0206879
0.0206128
0.0201338
0.516034
0.0199473
0.0197255
0.0290909
0.0796494
0.0205022
0.021067
0.0211906
0.0208769
0.0262913
0.0210203
0.0239169
0.0205098
0.0199091
0.0207791
0.0370936
0.0235788
0.0221542
0.0207024
0.041127
0.0286892
0.0210131
0.256387
0.606295
0.0279831
0.0301688
0.0242691
0.38807
0.0200223
0.0766047
0.0212708
0.0209803
0.0212824
0.0561505
0.0228696
0.0206947
0.0200882
0.0200048
0.0207432
0.0807503
0.0376067
0.0788601
0.579159
0.145377
0.0198671
0.0229896
0.201427
0.100679
0.0228752
0.0199167
0.608445
3.30455
0.0195383
0.0242627
0.0211552
0.494593
0.0207094
0.0201255
0.0209625
0.0805733
0.0285007
0.0237714
0.0234161
0.0212422
0.143181
0.032624
0.020498
0.0311229
0.0248247
0.0889484
1.2802
0.0277499
0.0552042
0.0211523
0.0210495
0.502532
0.12795
0.0218548
0.030531
0.061528
0.0211808
0.0205674
0.033182
0.0198491
0.0471052
0.217756
0.021244
3.84154
2.73761
0.0228052
0.0213307
3.26845
0.0219128
0.0210777
0.021045
0.446352
1.31654
0.413911
0.0198421
0.020061
3.65794
0.0198743
0.0235938
0.0216366
0.0198394
0.48729
0.0208131
0.0194929
0.480634
0.0250395
0.0213322
0.0206282
0.0809074
0.022164
0.0195291
0.0072893
0.0249986
0.021165
0.0202303
0.0266232
0.0198498
0.0240596
0.0198306
0.0237519
0.0198122
0.0198404
0.0201372
0.458312
0.434807
0.0211194
0.0245496
0.0212562
0.0213352
0.0298308
0.0198471
0.0430364
0.0215795
0.450769
1.26862
0.0198208
0.0210807
0.0251527
0.0880632
0.0250823
0.0296061
0.0198407
2.82083
0.0323544
0.0198651
0.0198328
0.0214177
1.21991
0.0337362
0.0211568
0.0198376
0.0202319
0.0216888
0.0258844
0.0206345
0.0286217
0.454521
0.0211804
0.0242485
0.0201424
0.0199539
0.0195257
0.0211599
3.05253
0.0216232
0.0200697
0.0516244
0.557435
0.0233823
1.13265
0.111264
0.0211391
0.0264521
0.0219275
3.82684
0.0211854
0.021326
0.0222564
1.11359
0.806568
0.0217235
1.26108
0.0878663
0.0473065
0.0219355
0.0210867
0.083841
0.0204995
0.0207256
0.0267671
0.487551
0.0200344
0.0205091
0.0198785
0.0440682
0.0246623
0.417675
0.0201528
0.0229424
0.0226172
0.82284
0.021735
0.501468
0.54402
0.131585
0.0270471
0.0303621
0.0219715
0.0208253
0.0382177
0.0201933
0.129326
0.0202446
0.0229385
0.0241843
0.0216961
0.0218577
0.0201743
0.0211331
0.054597
0.107353
1.20752
0.123512
0.0195312
0.0219557
0.0209888
0.208963
0.0209296
0.0241301
0.939275
0.0201859
0.0210921
0.0208299
0.0212621
0.0204882
0.0211754
0.0211629
0.0229799
0.0211312
0.501754
0.0240158
7.81676
0.60309
0.0203997
0.020694
0.961278
0.019587
0.0295085
0.0229189
0.0221862
0.0211542
0.0213002
0.0304403
0.0204825
0.0204691
0.0215113
0.0207852
0.0219369
0.0216966
0.0227815
0.0211984
0.523532
0.0211519
0.0227474
0.0359965
0.022609
0.0722267
0.0262051
0.0212375
0.0204774
7.28045
0.782515
0.347491
0.0256729
0.0302308
0.0200778
0.0198351
0.0231799
0.0215172
0.0210893
0.019828
0.908766
0.020308
0.0210705
3.06219
0.0212334
0.0212282
0.0204132
0.0208219
0.0206887
0.0199568
1.24425
0.30597
0.0225789
0.0247955
0.0238704
0.454534
0.0226587
0.0216573
0.0219342
0.101881
1.23796
0.0336761
0.34115
0.0491006
0.0230549
0.0210221
0.208272
3.51788
1.20339
0.0248205
0.021368
0.253741
0.0200119
0.224705
0.0205066
0.020958
0.022545
0.0208312
0.0139799
0.0209054
0.0843114
3.95602
0.0213405
0.450521
0.0212536
0.020513
0.0414282
2.124
0.021459
0.021324
0.020771
0.0201252
0.075647
0.257686
0.0237095
0.138471
0.02048
0.0210695
0.951495
0.0212265
0.0444968
0.553047
0.51715
3.30138
0.0219025
0.019872
0.0208262
0.0239232
0.0210155
0.801806
0.023233
0.109353
0.0215424
0.019791
0.0209032
0.0774228
0.0211746
0.0219827
0.0335501
0.0213653
0.0208292
2.31317
0.803052
0.057976
0.0205931
0.0198666
0.0209522
0.0214617
0.0205746
0.0208408
0.098357
0.131731
0.0214392
0.0209697
0.0207936
3.8347
0.0222675
0.0745758
0.0218304
0.0216909
0.0228013
0.0213187
0.0205883
0.0357434
0.038028
0.0214443
0.0211137
0.0237704
0.0213059
0.0214434
0.0201438
2.71592
0.0217794
0.0225118
0.0208256
0.0210136
0.0710189
0.0210095
0.0266451
0.0423127
0.0500974
0.0265572
0.0329415
0.477092
0.0208238
0.0495193
0.239127
0.020073
0.0848288
0.0210907
0.0214206
0.797679
1.17942
0.0212707
0.0212933
0.194159
3.04981
0.0206777
0.0164818
0.0345027
0.0211047
0.0210614
0.0208804
0.110348
0.0135245
0.0223348
0.0213267
0.0200772
0.0219823
3.29213
0.0229441
0.0207739
0.468765
0.0589341
0.0222767
0.113715
0.0199647
0.0287574
0.0209334
0.022108
0.0203107
2.77198
0.0549537
0.0203998
4.26325
0.0219379
0.0335258
0.0218623
0.0210764
0.816086
0.0138548
2.86085
2.31554
0.955362
0.0885297
0.0203659
0.0212049
0.0374316
0.0203499
0.0244704
0.0546906
1.36293
0.662233
0.0232252
0.0382196
0.854773
0.0210611
0.0208872
0.0210298
0.0203596
1.21242
0.020926
0.131438
0.0212251
0.0328248
0.0289707
0.0212312
0.0207157
0.020082
0.0313539
0.0212216
0.0215571
3.46488
0.0231277
4.53021
0.0204058
0.0236878
0.0207686
0.0199541
0.610808
0.0200383
0.103382
0.20978
0.022807
0.0250024
0.0208161
3.0536
0.0201252
0.0210633
0.0262013
0.0214865
0.020068
0.0212143
0.0234668
0.0304033
0.0214554
0.0211619
0.0544041
0.0262419
0.433047
0.0221326
0.0201557
0.0211731
1.92403
0.0201335
0.0250215
0.0223856
0.0196645
0.0208085
0.0432998
0.0513043
0.0296069
0.0317371
0.0207767
0.419154
0.0206972
0.0203432
0.0458926
0.483851
0.0240455
0.750362
0.0201267
0.575404
0.512857
0.027826
0.0206313
0.0206734
3.16014
0.0195291
0.0211825
0.0203278
0.0254854
0.0213998
0.0214056
0.0211558
0.0212535
0.0353531
0.0215457
0.0211995
0.0383847
0.134072
0.0226797
0.0214543
0.0249113
0.644959
0.0378037
0.404142
0.0221214
0.460237
0.240425
0.0203503
0.177538
0.0213452
2.98529
0.0204621
0.0256156
0.923394
0.0207711
0.0208763
1.26929
1.17505
0.0258414
0.0181786
0.0677843
0.209821
0.0233802
0.0207914
0.0211332
0.0213145
0.0273876
0.0204947
0.0199713
0.02134
0.0211228
0.262319
6.43539
0.0211304
0.397114
0.0206589
0.0204866
0.0211698
0.0213863
0.0243377
0.0334488
0.0214847
0.0240491
3.20053
3.70992
0.0234596
0.0222974
0.0216088
0.0210724
0.0575138
0.0198818
0.0222597
0.510335
4.30797
1.36917
0.0411479
0.0214065
0.0230687
0.0868589
0.023313
0.0210603
0.0825106
1.22663
0.156197
0.0212487
0.480391
0.0360037
0.0210383
0.439811
0.0198739
0.0221043
0.0210461
0.0215493
0.0207274
0.0218793
0.0492681
0.0213758
0.0208217
0.312754
2.98708
0.0231624
0.0198106
0.0219323
0.0347875
0.0213656
3.40138
0.625155
0.0229602
1.02143
0.421056
0.0235219
0.021886
0.326892
0.021376
0.0187198
0.525385
0.0206076
0.291587
0.033794
0.0226557
0.0210096
0.00512717
0.0212478
0.0209086
0.0220415
0.0210399
0.0211309
1.21168
0.0339507
0.019857
0.0235816
0.0747087
0.0213704
0.0215039
0.0215182
0.0211475
0.0207673
0.868183
0.0213433
0.020639
0.0314537
0.583188
0.0213254
0.121179
0.0732367
0.021679
0.0198686
0.0196057
0.0206099
0.0206426
0.493096
0.0224689
0.0233189
0.0202452
0.522074
0.11893
0.49768
0.0361934
0.021057
0.0261518
0.026331
0.0202361
4.20075
0.0198161
0.0213491
0.0205477
0.0479122
0.021228
0.0204897
0.0215492
0.0396056
0.0207758
0.0211541
0.0219637
0.0254362
0.0214501
0.0255015
0.0198284
0.0215115
0.0211558
4.62458
0.177537
0.0607947
0.021018
0.0216659
0.0200694
0.05702
0.0205828
0.0202759
0.0212544
0.019857
0.0210959
0.0210524
0.0210908
0.101965
0.147906
0.0208351
0.496159
0.01985
0.0253585
0.0210176
0.537487
0.0213208
0.0210358
0.0488823
0.0218011
0.0203339
0.0708829
0.00371678
0.0222721
0.121599
0.0213217
0.0367397
1.22055
0.0645086
0.032498
0.0204818
0.0840517
0.270995
0.109693
0.0219673
0.408009
0.0200658
0.0310369
0.0217097
0.0195345
0.0190143
0.0334939
0.0207518
0.0231325
0.0222692
0.513153
0.391719
0.0252021
0.0325432
5.70554
0.0214679
0.0199157
0.0203435
3.24408
0.021083
0.100159
0.0663432
0.0203258
0.162174
2.70154
0.021605
0.0237006
0.0200779
0.0207035
0.0313346
0.0203779
0.0396536
0.0444426
0.0453469
0.0210888
0.00364132
0.0799273
4.21171
0.0204233
0.020519
0.0215845
0.0212544
0.0106966
2.3595
0.0209205
0.0504848
0.0203083
0.0570589
0.0827769
0.330931
0.0438946
0.0308883
0.0211887
0.0206081
0.0233377
0.0212136
0.345846
0.0431574
0.0451824
0.0204626
0.0201733
0.0582691
0.586863
2.73046
0.0208549
0.0206231
0.019923
0.0201237
0.0217452
0.0302069
0.0260319
0.0209173
0.0201094
0.048956
0.0203864
0.0229327
0.0331695
0.0209722
0.0198638
0.0217697
0.0200888
0.677758
0.0201194
0.0210812
0.0210944
0.0211494
0.0621301
0.0207841
0.0590422
0.0200799
0.0213252
0.0262847
0.239347
0.0199768
0.0220958
0.0649211
0.0200692
0.0208009
0.0517633
0.020949
0.0201304
0.823377
0.0203169
0.573817
0.0210113
0.0201566
0.132885
0.396988
0.572718
0.0632797
0.0947919
0.0554341
0.109783
0.0198769
0.0226128
0.0179283
1.01375
0.631006
0.606316
0.0371289
0.304145
0.0207978
1.28053
0.108222
0.414595
0.0205389
0.0239641
0.0261814
0.0209947
0.0623943
0.0204757
0.0218524
0.0210181
0.0212364
0.0228625
0.0212008
0.0822996
3.04716
0.0214118
0.0205997
0.0242609
4.50849
0.0209006
0.0226984
0.0201107
0.0207698
0.0258573
0.890472
0.0400444
0.873991
3.08746
0.023284
0.0601058
0.0204611
0.0121525
0.0228216
0.0239642
0.0213808
0.0221488
0.484374
0.0206337
0.0201313
0.0214853
0.0209376
0.0222171
3.27739
0.0222279
0.0204667
0.022353
0.0231959
0.0207991
0.253976
0.0220573
0.616754
0.0204657
0.0207149
0.021323
0.784928
0.0210648
0.021105
3.45296
0.0212268
0.0204479
0.0742076
0.0227096
0.0407866
0.0204885
0.021292
0.0591568
0.481186
0.0209121
0.0234115
0.469707
0.0200404
0.0208454
0.0206004
0.0244984
0.0213263
0.064492
0.0268396
0.0906818
0.203298
1.10665
0.0853117
0.0263857
0.047779
0.0229252
0.0208048
0.0414427
0.147608
0.595791
0.0467694
0.324297
0.0205913
0.0120868
0.0228925
0.0209112
0.403739
0.0207593
0.0202446
0.403523
0.0210899
0.0208588
0.0209673
0.793529
0.0476421
0.0399456
0.0196164
0.0217879
0.0214276
0.092031
0.0257268
0.0480415
0.0211626
0.0207918
0.0231948
0.0211467
0.0224211
0.0225265
0.0461831
0.022628
0.0203149
0.0215158
0.215339
0.0213822
0.0517701
0.0211916
0.157001
0.0213142
0.0210885
0.0198428
0.0387803
0.00958848
0.0217421
0.0272789
0.0214444
0.0775056
0.0488143
0.0229819
0.0588298
0.0212308
0.0212223
0.0204715
0.0209354
0.0527756
0.0217249
0.037484
0.020875
0.0234328
0.217177
0.0209974
0.025843
0.0210596
0.486748
0.0225014
0.0205541
0.949349
0.0588978
0.020296
0.0357368
0.0217694
5.73893
0.0242914
0.020063
0.0209814
0.0210059
0.486941
1.0714
0.123572
0.0228486
0.0430328
0.022909
0.0233817
0.0261794
3.16689
0.0209937
0.084321
0.0242495
0.466291
0.0658887
0.0215256
0.0263323
0.0199516
0.0278762
0.0464532
0.0222139
0.151756
0.0377538
0.0384052
0.0207203
0.0215722
0.0209419
0.202077
1.23181
0.021124
0.0231534
0.423021
0.0205935
0.0163481
0.0226229
0.0214071
0.021079
0.0198661
0.21717
0.0243016
0.0210446
0.392841
0.0248045
0.021564
0.193354
0.0264098
0.0205749
0.456575
0.0337978
0.0363695
0.0212844
0.0220712
0.0210662
0.473306
0.0198182
0.0217859
0.0210504
0.0149247
0.0496196
4.51075
0.0211043
0.0200691
0.0481512
0.0215208
0.796172
0.0213746
0.0336549
0.021687
0.974508
0.0400758
0.0216985
0.0209317
0.0214152
0.389933
0.0213883
0.0201271
0.0213345
0.448522
0.0315483
0.049869
0.600649
0.0219034
0.0376766
0.631832
0.0205845
0.0357522
0.193105
0.0201395
0.0210875
0.0229538
0.0212069
0.0211486
0.021439
0.019826
0.0250976
0.0209873
0.0220156
3.35225
0.0461521
0.0285335
0.0211424
0.0260259
0.0201329
0.864584
0.0209091
0.382113
0.021428
0.0208325
0.0362657
3.41778
0.0208072
0.0216934
0.0212268
0.021555
0.022179
0.0208846
0.0205184
0.0218148
1.38168
0.0315265
0.023296
0.0247754
0.0212302
0.0233038
0.0287549
0.0208819
0.0207838
0.484437
0.0264084
0.0205655
0.176864
0.0220685
0.0212112
3.35921
0.0221723
0.0225644
0.0204673
0.0218867
1.01484
0.49101
0.0236903
0.400337
0.0206416
0.0211442
0.0206123
0.021799
0.0219017
0.0212024
0.0210433
0.70417
0.0210734
0.0229002
0.0239933
0.0210087
0.0298826
0.0219143
3.05583
0.103958
0.0283612
0.111986
0.0208984
0.456231
0.0208033
1.38976
0.0217716
0.0223527
0.811214
0.0312419
0.0210382
0.169733
0.0201065
5.68472
2.59903
0.150872
2.34815
0.0213539
0.0570686
0.0218881
0.0215385
0.0902644
0.0221191
0.0264811
0.0216055
0.0178316
0.381063
0.0210737
0.0201319
0.0230886
0.0208006
0.02124
0.0206741
0.023935
0.0260229
0.241981
0.0200184
0.0281441
0.575276
0.0337916
0.0227187
0.0212399
0.0541174
0.0206736
0.0223929
0.0756038
0.0210961
0.0264047
0.0218031
0.0198583
0.0257633
0.0150638
0.0209106
0.0216733
0.0209026
0.0237918
0.0216524
1.27522
0.0204932
0.0206327
0.0212433
0.0380231
0.377773
0.821888
2.88675
0.0211549
0.0284896
0.0210774
0.0213061
0.0239839
0.0212124
0.0204956
0.0213555
0.0200175
0.0330275
0.024787
0.0213105
0.0206351
0.0213202
0.0220253
0.405221
3.70115
0.0202459
0.0207607
0.0218323
0.0214117
0.0216522
0.033564
0.251204
0.0203433
2.5045
0.0211485
0.038355
0.021288
0.019734
0.142332
0.0294447
0.0206773
0.021416
0.0215283
0.0235489
0.0279391
0.0217155
0.0211324
0.023244
0.0297852
0.0701202
0.0414827
0.0209244
0.0214462
0.0257627
0.0217075
0.0207535
0.0285835
1.0208
0.165545
2.95353
0.0210288
0.0199248
0.084746
0.0283099
0.0254933
0.30119
0.042877
0.516567
0.256638
0.0322024
2.77233
0.0200832
0.0213442
0.022588
0.0297826
0.0200763
0.0215645
0.0859337
0.0525514
0.0213759
0.021388
0.105342
0.18735
0.668237
0.0664153
0.0196995
0.0210732
0.0555227
0.0199422
0.0212076
0.108606
0.0205605
0.0206389
0.0213012
0.0286282
0.0197269
1.19215
2.4912
0.0576924
0.0265034
0.0254936
0.0212795
0.0198822
0.0425575
0.0218059
0.0197166
0.0210775
3.88369
0.0248969
0.0207339
0.0276742
0.0208394
0.0204747
0.801715
0.020073
0.143499
1.16517
0.0387246
0.0297101
0.0215323
0.162008
0.0232611
0.159749
0.0199322
0.0343822
0.519258
0.0548243
0.45985
0.0243876
4.61921
0.0206303
0.0207884
0.02771
0.0202122
0.119847
0.021405
0.0215851
0.020212
0.0212898
0.039806
0.0224189
0.1377
0.0208819
0.0347262
0.0226375
0.0212734
0.0205711
0.027555
0.0261039
0.422073
0.0207337
0.0197877
0.020808
0.0210492
0.0224211
0.0209054
0.0224045
0.021025
0.0209709
0.313658
0.315739
0.0383861
0.0214482
0.0501218
0.0232913
0.0227
0.368113
0.0242785
0.0259024
0.0202877
0.0216915
0.0232761
0.0224369
0.0198961
0.183741
0.388493
0.0211991
0.0209509
0.023758
0.0161335
0.0283167
0.0209747
0.0238977
3.05648
2.90802
0.176764
0.0253168
0.0208455
0.275992
0.0224156
0.0210174
0.0212518
0.0211056
0.330042
0.0210691
0.541006
0.0267535
0.585795
0.0197845
0.0214948
0.0466466
0.0197091
0.0267781
4.13484
3.40616
0.0244579
0.381895
0.0214271
0.0207283
0.0208672
0.00575184
0.020631
3.79177
0.022302
0.0213575
0.0708797
0.554737
0.407212
0.0257858
0.0206687
0.0271161
0.0209811
4.07084
0.0210582
0.0392417
0.0250758
0.0212775
3.12118
0.0213646
0.0217015
2.92432
0.0328236
0.0201059
0.0255487
3.69271
0.0828641
0.0892813
0.0259185
0.0264827
0.0198354
0.0211409
0.0211989
3.18988
0.020599
0.0212697
0.0307885
2.17139
0.107672
4.41063
1.1147
0.020576
0.021437
0.0204573
0.0334086
0.0310687
0.0241445
0.0429172
0.212295
0.0227645
0.027534
0.295424
0.0212817
0.0202878
0.0210605
0.0212607
0.331694
0.0212994
0.0206
0.449712
0.0256677
0.0200163
0.0397219
0.0217022
0.0211989
4.2156
0.0215563
0.0236424
0.0471532
0.0645289
0.0198325
0.0199064
0.24203
0.0248912
0.0216975
0.195018
0.0898696
0.0213359
0.0224874
0.0223386
1.14848
0.0197763
0.028321
0.0220917
1.22192
0.0210759
0.105621
0.0200918
0.0198449
0.445106
0.0209245
0.0207268
0.0212126
0.0206988
0.0746952
0.0222192
0.0213776
0.080148
3.43251
0.0207129
0.0213014
0.124813
0.0216619
3.54504
3.33675
0.0212561
0.0205044
0.0225194
0.0216814
0.0331103
0.022087
0.0203964
0.254448
0.0197628
3.71086
0.044451
0.0314455
0.0218428
0.033081
3.03693
0.0199562
0.0732177
0.0213745
0.0243102
0.0206168
0.0197843
0.0212565
0.909957
0.020617
0.111815
0.0244262
7.84813
0.0247114
0.0230965
0.0220039
0.0229114
0.023538
0.0215248
0.0213358
0.037201
0.0211097
0.139769
0.103424
0.219824
0.02116
0.0220847
1.1847
0.0268405
0.171243
0.0790838
0.0226821
0.378501
0.39384
0.0810641
3.02986
4.68573
0.0214348
0.0218687
0.0249854
0.0211908
0.0951523
0.0199139
0.0216517
0.0249725
0.021413
3.73976
0.189732
0.0435272
0.0206918
0.0160349
0.404718
0.343006
0.0214969
0.231392
0.0567857
4.2647
0.0219506
0.0220027
0.0213395
0.610925
0.279157
0.167325
0.134603
0.0216031
0.0232781
0.543057
0.0749692
0.10357
0.0212107
0.0224164
0.0213811
0.0208727
0.0212756
0.0549251
0.027949
0.0206635
0.176465
0.0218107
0.0480424
0.0213838
0.0214868
0.772166
4.01235
0.0209406
0.0200692
0.120399
0.0209408
0.037795
0.0441664
0.0216682
0.125993
1.36527
0.0680685
0.0216431
0.0211925
0.0281418
0.0206083
0.0324601
0.278687
0.0445053
0.0221514
0.0220993
0.0214221
0.0223714
0.0211315
3.49832
2.23057
0.0216513
0.0212541
0.307009
0.0205556
0.30544
3.08312
0.0588733
0.0363748
0.280296
0.411473
0.0217857
0.0747344
0.0933421
0.0555088
0.0216272
0.0213522
0.8737
2.41299
0.0197608
0.0213392
0.330614
0.0213693
0.022081
0.0372782
2.92987
0.019745
0.0236838
0.0237636
0.0231902
0.0224703
0.0240444
0.0232714
0.134476
0.0240757
0.0239889
0.0366389
0.0219123
0.0241646
0.113719
0.0223372
0.0255589
0.0442975
0.778319
0.0243391
0.0153304
2.62135
0.0210632
0.0243714
0.0198087
0.0210935
0.0196919
0.021578
0.0204918
0.0214189
0.0214013
0.184877
0.0429363
0.0728028
1.46045
2.90488
0.084146
0.201018
0.0210213
0.0220489
0.021499
5.23064
3.16525
0.512125
0.456719
0.0210459
0.0223545
0.0382409
0.0213377
0.106601
0.0219648
4.42031
0.0234823
0.052517
0.0210573
0.0294026
3.01592
2.98035
0.166722
2.08394
0.0240612
0.0221395
1.50911
0.0197678
0.0214908
0.0210865
0.0543202
0.0227297
0.0213016
0.40493
0.0209688
0.0212605
0.0230212
0.02032
0.0243543
0.0937673
0.0241417
0.0209379
0.102131
4.31095
0.0375192
0.0211107
0.0670507
0.0492902
0.0200569
3.45302
0.0214103
0.0204029
0.0203216
0.535996
0.0203275
3.62925
3.09583
0.406015
0.0598822
0.022039
0.0222335
0.0350221