/*--------------------------------*- C++ -*----------------------------------*\
| =========                 |                                                 |
| \\      /  F ield         | OpenFOAM: The Open Source CFD Toolbox           |
|  \\    /   O peration     | Version:  v2012                                 |
|   \\  /    A nd           | Website:  www.openfoam.com                      |
|    \\/     M anipulation  |                                                 |
\*---------------------------------------------------------------------------*/
FoamFile
{
    version     2.0;
    format      ascii;
    class       volScalarField;
    location    "150";
    object      p;
}
// * * * * * * * * * * * * * * * * * * * * * * * * * * * * * * * * * * * * * //

dimensions      [0 2 -2 0 0 0 0];


internalField   nonuniform List<scalar> 
18540
(
-0.00614808
0.00613414
0.0140485
-0.000124695
0.00767893
0.000596333
0.0145796
-0.0209445
0.00620384
0.00861534
0.00162427
-0.0500453
0.0463939
-0.239031
0.00848474
0.00614885
0.0109899
0.0141186
0.00853213
0.01473
-0.0045648
0.00107984
0.0036243
-0.00414643
0.00930264
0.00818693
0.0017236
-0.0894942
0.00937051
-0.255822
-0.0955861
0.00247971
0.0161138
0.00458549
0.00718926
0.00988992
0.00996727
0.0108622
0.00686381
-0.00908675
-0.035499
0.00606896
0.0111999
0.0161921
0.0103121
0.00472376
0.00703957
0.0100625
0.00815399
-0.0078321
0.0107054
0.00818253
0.00348557
-0.0508912
0.00645807
-0.0941035
-0.0105792
0.0129423
-0.00703122
-0.00235956
-0.00268484
0.0138868
0.0127991
0.00958518
0.00863787
0.00558884
0.0105169
0.00498003
-0.0397966
0.00965934
0.0144681
0.00733941
0.00415543
0.00957504
0.00811833
-0.0422445
0.0430316
0.00886907
0.0144806
-0.024381
0.0103528
0.0131634
0.000983201
0.0106662
0.00161969
0.0144206
0.0396903
0.00238362
0.0154348
-0.0112866
0.0139083
-0.432108
0.0400968
0.00747661
0.00551714
0.00824672
0.043142
0.013093
-0.00205321
0.0142807
0.00539958
0.0159461
0.0141143
0.00516561
0.00543235
0.00543732
0.0149577
0.0228605
0.0157363
0.0134667
-0.00421881
0.00949226
0.0153421
0.0113362
0.00532581
0.00528684
0.0104021
0.0140371
0.0164424
0.0140986
0.0130735
-0.456703
0.0769378
0.0138068
0.0132793
0.0164707
0.0151411
0.0113439
0.00868335
-0.00733249
0.0689295
0.0164131
0.0128465
0.072894
0.00432172
0.00778793
0.0122772
-0.00299556
0.0127701
0.0052075
0.000573002
0.0123443
0.0135173
-0.00190736
-0.00399179
0.0166806
-0.00345915
-0.0308156
0.00696071
0.00562557
-0.0885379
0.0165341
0.0104386
0.0107449
0.0107131
0.00392939
-0.00785252
0.0118898
0.0138065
0.000751328
-0.0264036
0.037772
0.0176328
-0.0658554
0.0202056
0.0118466
0.018883
0.0137825
0.0141398
0.0138059
0.0170379
0.0144238
0.0193276
0.0869975
0.00517346
-0.00313574
0.00354516
-0.205324
0.0129537
0.0138457
0.0248279
0.0157925
0.0146252
0.0039896
0.0136872
0.0190938
-0.141567
0.00281551
-0.0297472
-0.0246689
0.0220383
-0.0730446
0.009716
-0.0148007
0.0120067
0.013889
-0.0165668
-0.133656
0.0144278
0.0208642
0.0136562
-0.123228
0.010116
-0.00300238
0.000549378
0.0109172
-0.00858052
0.0119923
-0.0195562
-0.1997
0.0135161
0.0139147
0.00917571
0.0127063
-0.0481762
-0.189143
0.00688418
0.0103363
-0.0609299
-0.00315336
0.0101059
0.000362813
-0.0300135
0.0131822
0.00926084
0.0140401
-0.00136971
0.0351275
0.00665006
0.015721
0.00435307
0.00183538
-0.0790691
-0.0435878
0.0414817
-0.0392693
-0.0185185
-0.00259396
0.000512924
0.00751405
0.010826
0.0150832
-0.0111384
0.00808045
0.00553899
0.0128065
0.0117486
0.0132252
-0.0105117
0.011483
0.016148
-0.199318
0.0108506
0.0138014
-0.100524
0.0103679
-0.0112661
0.00621715
-0.0165625
-0.00591208
-0.0111745
0.00503113
-0.104757
0.00943898
0.0122945
0.00936718
0.0131382
0.0154365
-0.126322
0.0112849
0.00448643
0.0119231
0.00290081
0.00548805
0.00966662
0.0131545
0.0156292
-0.0383355
-0.00647012
0.0109643
0.00641763
0.0134652
-0.0553043
0.0135492
0.0123635
0.0402273
0.0142102
0.0156847
0.0163589
-0.015601
0.012214
0.0183429
0.0390615
0.0191247
0.0131654
0.0114882
0.00416699
0.0143757
-0.00319807
0.0184352
0.00665521
0.0115323
0.0135372
-0.0100345
-0.0234259
0.0138224
0.0213597
0.0145242
0.0181884
0.00660545
0.0132527
0.00882089
0.0135906
0.0109977
-0.046554
0.0159286
0.00103325
0.0189575
0.010924
0.00854154
0.0138339
0.00229236
0.00886993
0.00448022
-0.00741194
0.00792926
0.0100705
0.0144731
0.0136212
0.0097106
0.00556673
0.00441216
0.0140937
0.0135122
0.0124591
0.0139243
-0.00140684
0.00965045
0.0156469
0.0135085
0.0191597
0.0138202
0.00562187
0.0137507
0.01591
0.00311594
0.0191251
-0.0396636
0.0135616
0.0158959
0.00563927
0.00358241
0.00897763
0.0157193
0.016716
-0.00355218
0.00945819
0.00959958
0.00655625
0.0115924
0.0133304
0.0138505
0.0226472
-0.0172728
0.015378
0.0148063
0.00771595
0.0138636
0.00174305
0.0203902
0.0139845
0.00293314
0.00822787
-0.0532122
-0.0849141
0.00630349
0.00131793
0.0178013
-0.00646504
0.014531
-0.082558
0.0124088
-0.00306013
0.013949
0.025634
0.00218085
0.0114675
0.00806246
-0.0199783
0.0502638
0.0115814
-0.0974857
0.010291
-0.00120349
0.00845283
0.0432481
0.00555885
0.0159223
-0.00634788
0.0145164
0.00408555
-0.0435477
0.0245158
0.0212268
0.00941097
0.0132193
0.0143654
0.0442435
0.00581497
0.00800901
0.00267651
0.00921905
0.0144402
0.0130206
0.020173
0.00259271
0.00964076
0.0255672
0.0140697
0.0135191
-0.0467334
0.0134476
0.00404192
0.00921924
0.0226135
0.0108856
0.00791916
0.00819793
-0.00615019
0.0138445
0.00945863
-0.00170253
0.00393329
0.0101417
0.00924264
0.00397567
0.00877445
-0.00565942
0.00987537
0.00559366
-0.0617844
-0.00953847
0.0373509
0.00803607
0.0113627
0.0124694
0.013487
-0.0204734
0.0038701
0.00893242
-0.0921081
0.0102359
0.00436412
0.00902869
0.00109988
0.00907729
-0.182321
0.0103863
0.0198105
0.0136754
0.0139568
0.00883125
-0.00552305
0.0047241
-0.183719
0.01002
0.0124116
-0.018203
0.00925513
0.0019611
0.0105982
-0.00224906
0.0136728
0.0119189
0.0139022
0.0126192
-0.000867111
0.000841164
0.0106373
0.0112055
0.0420197
0.0139303
0.0255809
0.00244992
0.0138392
0.0036905
0.0463723
-0.00328531
-0.039313
0.00573165
0.041589
0.00627093
-0.0229973
0.00722364
-0.00058792
0.0107261
0.00901192
0.00630269
0.0132602
0.000266137
0.0396773
0.0146711
-0.0200104
0.00119944
0.00249689
0.00620895
0.00950681
0.0145947
0.0133675
0.0120409
0.0103541
-0.00926759
0.00675016
0.0098944
0.00837705
-0.0444545
0.00802267
0.0147826
0.0105921
0.00179422
0.0137559
0.00979879
0.00952252
0.0752669
0.0181233
0.00917178
0.0147794
0.00983719
0.0170364
-0.0152082
0.00472182
-0.0256746
0.00230564
0.000282108
0.00478927
0.00653397
0.0147464
0.009745
0.013803
0.0128866
0.0153572
0.00830271
-0.0124518
0.0145936
0.0122885
0.0166196
-0.0395043
0.0131395
-0.00346616
-0.046388
0.00138627
0.0045325
0.00762815
0.0112771
0.00348224
0.0220759
-0.00968304
0.00650479
0.0119675
0.0104914
0.00531692
-0.0336427
0.0324893
0.00047705
0.0453117
0.00557382
0.0158092
0.00879404
0.0162459
-0.0027421
0.00847152
-0.0120219
-0.202913
0.0156575
0.0421908
-0.104041
0.0414518
0.0139786
0.00461812
0.00724345
0.0161703
0.0138298
0.0119667
-0.0452313
0.00481319
0.00367662
0.0149837
0.0122747
0.00634238
0.0067568
0.00521215
0.0150581
0.0155512
0.0153387
0.00902059
-0.00771593
0.0103036
0.0138037
0.0155478
0.0101372
0.014164
0.0153978
0.0138693
0.00337965
0.00343229
-0.00136765
0.00195852
0.0194693
0.0111294
0.00187689
0.000182834
0.0113533
-0.120479
-0.00185429
0.0121962
0.0133245
0.014342
0.00870713
0.0135169
0.0142025
0.00309203
0.0115424
0.0114208
0.011591
0.0211508
0.00647193
0.011342
0.0112519
0.0142286
0.012221
0.0135629
0.00376122
0.0133464
0.0184217
-0.0108729
0.0171293
0.0107879
0.00859003
0.0106882
0.0143545
-0.0838454
0.016029
0.0134031
0.0238551
-0.0023532
0.019463
0.0070672
0.0783831
0.0152205
0.0113736
0.015197
0.00233929
0.0115914
0.00107035
0.0118789
-0.00208792
0.0140538
0.0179731
-0.00436748
0.00615443
0.00620767
0.000380779
0.0146793
0.00108286
0.00299455
0.014827
0.000271968
0.0170847
0.0033346
0.0145718
-0.00180077
0.0121085
0.0144873
0.0152032
0.0139708
0.00436796
0.0123817
0.00693261
0.0133234
0.0128911
0.00885464
0.0125249
0.0140192
0.00833071
0.0137
-0.03508
-0.00847734
0.0100805
0.00468649
0.0115321
0.0145901
0.00606529
0.00609074
0.0107465
0.0101662
0.105738
0.046155
0.0327929
0.00370059
0.0106119
0.0296589
7.37133e-05
-0.00890108
0.00317203
0.0172991
0.00116999
0.0139957
-0.042922
0.0220904
0.00994168
0.0116244
0.00321849
0.0134039
0.011624
-0.0047762
0.0107122
0.017837
0.0187543
0.00443844
0.0205491
-0.00478321
0.0142775
0.011312
0.0136796
0.00483598
0.0127264
-0.109964
0.00154415
0.00480598
-0.0166714
0.00177861
0.0115323
0.10263
0.000681592
0.0106577
-0.0223976
0.0158449
0.000247127
0.000615598
0.0134321
0.00252018
0.0427725
0.00794968
0.000763805
-0.0165044
0.011668
0.0128775
-0.00805998
0.0190846
0.0116666
-8.44371e-05
0.0133984
0.0131582
0.0092533
0.00452137
-0.121064
-0.0063582
-0.000773698
0.00182141
0.0122825
-0.011932
0.012214
-0.133945
0.0117729
0.00892011
0.0181907
0.0104739
0.0168347
0.0095534
0.00993807
0.000472237
-0.0346129
0.0134535
-0.0238451
0.0145676
0.0192784
0.0112845
0.00791422
0.0140892
0.0109519
0.0104144
0.0171753
0.0145432
0.0110996
0.023787
0.0136949
0.0136225
0.0259069
0.015322
0.0180867
0.0138059
0.00933558
0.0112098
0.0083058
0.0117537
0.0100424
-0.00254392
0.0117895
0.0118797
0.00938105
0.01412
0.0149871
0.0121933
0.0171448
-0.0752936
0.00770019
0.014019
-0.187068
0.00129774
-0.000390242
0.00542242
0.0293393
0.0124831
0.0111344
0.00724437
0.00870934
0.0153589
-0.107319
0.00535322
0.0141806
0.0108446
0.0130113
0.0141715
0.00613646
0.011255
-0.0146109
0.0121295
0.0112148
0.0125611
0.00818207
0.0138242
0.00793981
0.0105471
-0.0355215
0.0092855
0.0122761
0.00520858
0.0157605
0.00293765
0.0236913
-0.0102565
0.0185233
0.0120543
0.0109571
0.00865054
0.0117501
0.0104007
0.044826
0.00688689
0.00490554
-0.0296825
0.00877229
0.00907188
0.0084227
0.0123197
0.0131423
0.00494965
0.0118722
0.00817474
0.0176348
-0.000900692
0.0243728
-0.0269771
0.003685
0.00347452
0.0136972
0.0140359
-0.00723103
-0.00266535
0.0116761
0.00805626
0.010947
0.00406636
0.0119713
0.0132006
0.0216615
0.0141635
0.00854524
0.0113668
0.00106284
0.00122339
0.0102514
0.0143511
0.00036445
0.0976473
0.0150088
0.0119485
-0.0556691
0.0137942
-0.00636239
0.0129655
0.00509661
0.011927
0.0125146
0.0183082
0.0129499
-0.000605244
0.0141602
0.00961903
0.0433375
-0.226139
0.0049007
0.013087
0.00387186
0.00870548
0.0113552
-0.0371541
0.0109603
0.0139898
0.0138014
0.0155726
0.0147191
0.0135206
0.0135475
0.0084797
0.0137607
0.0139718
0.0142917
0.0102208
0.0122528
0.0166288
-0.0191398
0.0145252
0.012394
0.00445931
-0.046956
0.0138536
-0.0161748
0.0114046
0.0119194
0.0049684
0.0110579
-0.00571865
-0.180105
-0.0712151
-0.181985
0.0141656
0.00410558
0.0140167
0.00917673
0.0132228
-0.00180959
0.0135272
-0.0514959
0.0241274
0.00309012
0.00842115
0.000160869
0.00549851
0.013396
0.014079
-0.0270026
-0.00162047
0.0670437
0.0105902
-0.114297
0.0135697
0.0129615
0.0148681
-0.0170116
0.0124455
0.0128486
0.0243514
0.00868084
-0.00152748
0.0138165
-0.166817
0.0145326
0.0218583
0.0147176
-0.00648588
0.00425782
0.0136476
0.0114399
-0.0390422
0.000283259
-0.0331861
-0.0590075
0.0141956
0.00699755
0.0127203
0.00519544
0.0171492
-0.0018383
0.00445569
0.016306
-0.0293072
0.0134964
0.0128093
0.0151853
0.00854765
0.0134937
0.00640408
0.00889647
0.00648191
0.0133258
0.00380869
0.00432969
0.00151486
0.0769843
-0.126616
0.0145136
0.00985465
0.00402217
0.00817064
0.00874445
0.0138282
-0.100619
0.0133392
0.0105981
0.0139369
0.08298
0.0136314
-0.238132
-0.00583861
0.014286
-0.0420043
-0.0100751
-0.00213854
0.00440276
0.0049987
0.0114487
-0.00313021
0.0122542
0.0323632
0.0168335
0.00809562
0.0141265
0.00310403
0.0257587
0.0157014
-0.102518
0.0143627
0.0116027
0.0124851
0.00447111
0.0127004
0.0107202
-0.00438943
0.0143905
0.0102707
0.0151178
0.00939155
-0.00178597
0.0115086
0.0129059
0.00894073
0.00433057
0.00433257
0.0257562
0.0125351
-0.116889
0.0139313
0.0134206
0.00815978
-0.0101718
0.0470656
0.00506585
0.0157411
0.00507866
0.00435007
0.00290872
0.013254
0.000238776
0.0231223
0.00437805
0.0100596
0.0107456
0.0120748
-0.237433
0.000282439
0.013679
0.00823472
0.0162938
0.0132822
-0.0233438
0.0141017
0.00694839
0.0140096
0.00579061
0.00728551
0.0132535
0.0159732
0.0100995
0.0110074
0.0140482
0.0139887
0.0141229
0.0105848
0.0115016
0.0133612
-0.0495318
0.0138467
0.0101027
-0.0406269
0.00354759
0.0139019
0.00621591
0.0135476
0.00574213
0.010136
0.0151016
0.0106923
0.000707908
0.0138917
0.010889
-0.0314198
-0.0146321
0.0134668
-0.0313587
0.0162949
-0.0107592
-0.0017182
0.00495064
0.0194517
0.00442738
0.00263264
0.00538159
0.00046008
0.0169176
0.00340608
0.0118433
0.000750189
0.0204427
0.0121896
0.0126583
0.014316
0.0121016
0.0141359
0.000420773
0.00450635
0.0136851
0.00949171
0.00568566
0.0106181
0.0103944
0.0136292
0.00551575
0.00852008
0.0110422
0.00279312
0.0109333
0.0134336
0.00806861
0.00300444
0.0133175
-0.0057292
0.00973224
0.0058431
0.0137501
0.00407354
0.0301793
0.0121553
0.00301598
0.002899
-0.00316543
0.00254576
-0.0140225
0.0203764
0.0113793
0.00283274
0.00498781
0.0142626
0.00372908
0.00561065
0.000694686
0.00864245
0.0281444
0.00276152
0.0127346
0.00718246
0.00923196
0.00552716
0.0121881
0.0131704
-0.00191126
-0.00637753
0.01565
0.013293
-0.0278603
0.00856121
0.00641034
0.00012561
0.00498441
0.0142363
0.0100918
0.0134474
0.000816992
0.00101953
0.0150183
0.0132951
0.00417248
0.00962485
0.0135757
-0.00605027
0.00753449
0.00726431
0.0302932
0.0133253
-0.0484385
0.00852987
-0.258148
0.000464218
0.0131045
0.00812312
0.00945021
0.0101298
0.013297
0.0151679
0.0138441
0.0104449
0.016211
0.00455125
-0.0800716
0.00616791
-0.021588
0.0133987
0.00618446
0.0043961
0.0103341
0.00976972
0.00555702
-0.00558169
0.00415072
0.00562441
0.00414429
-0.00141528
0.00895847
0.0139659
0.0140952
0.00567773
0.0167506
0.0133378
0.0111319
0.00899526
0.00386689
0.00892585
-0.0381234
0.0185436
0.012145
0.0108415
0.0112005
0.0166657
0.0120198
0.0822474
-0.000117848
0.00837723
0.00997082
0.00232484
-0.134763
0.00459849
0.0213409
0.014354
0.0134612
0.0139826
0.00816242
0.0139805
0.0103044
0.00490782
0.00449404
0.0115849
0.0189896
0.011083
-0.0440572
-0.0636118
-0.0290599
0.00356333
0.00945833
-0.0346673
0.0234564
0.00364082
0.0038887
-0.00313717
0.0675878
0.000220021
-0.00867001
0.0145838
0.00537927
0.00634233
0.00494402
0.0132421
0.0257801
0.0163291
0.00462292
0.00384485
0.0146577
-0.0253494
0.0111768
0.009266
0.0115777
-0.000502487
0.0245721
0.00495133
0.0159431
0.0155524
0.0138222
0.0134309
0.0111347
-0.0103444
0.00760539
-0.00109547
0.0312772
0.0138018
0.00961927
0.0112339
0.00331291
0.0139939
0.00939106
0.0141224
0.105154
-0.302352
0.00896275
0.012338
0.0722606
0.00302633
0.0142026
0.0137411
-0.00132538
0.0219251
0.00348242
0.00324217
0.00445588
0.10199
0.00349932
0.00361976
0.0160531
0.00343067
0.00518895
0.0121621
0.000198468
0.00212981
0.00964198
0.0144379
0.00977187
0.0231754
0.0138278
0.000194294
0.00583074
0.0128475
0.013903
0.00641877
0.0106665
0.00330315
-0.00944102
0.00309683
0.0114426
0.0029056
0.00317139
0.00505531
-0.0301317
-0.0105026
0.0137692
0.0197066
0.0148883
0.0122898
0.00933539
0.00322879
0.00892513
0.00773629
0.00260983
-0.172028
0.00271706
0.0142059
-0.0172879
0.0195836
0.00874214
0.0175901
0.00316308
0.0624844
-0.0101885
0.00347055
0.00308766
0.0120187
-0.0144337
0.0198484
0.00795053
0.00295844
0.00638579
0.016315
-0.0145901
0.00986714
0.00418866
0.00453739
0.0139712
-0.00942396
0.00516954
0.00425768
0.000203936
0.0142079
-0.0730926
0.00598746
0.0048056
0.0199177
0.00313818
0.0181264
0.00403397
0.0353184
0.0145052
0.00475669
0.0089183
-0.0140927
0.0142533
0.0134111
0.0146489
-0.251797
-0.0181326
0.0158308
-0.186797
0.00782074
-0.00877948
0.00328595
0.013611
0.0149528
0.00937204
0.00978015
-0.00839159
0.00426573
0.00487203
0.00880717
0.00367419
0.0139182
0.0157675
0.00463766
0.00523406
0.0180523
0.00267024
-0.0212823
0.00717004
0.00833864
0.00080674
0.0159529
0.0082503
0.0110114
0.00151397
0.0122712
0.0144631
0.00583004
0.022618
0.00674747
0.0180038
0.00913417
0.00881426
0.00368768
0.00493574
0.0144526
0.0207355
0.00382862
-0.00891019
0.0501341
0.000159757
0.0159949
0.013506
-0.0468308
0.0130184
0.0155279
-0.0187249
0.00576671
0.0142827
0.00999373
0.0132886
0.00914292
0.0142131
0.00789762
0.00418796
0.00810759
-0.142551
0.00227438
-0.421777
-0.00287196
0.00870966
0.00866432
0.0289134
0.000307804
-0.00364476
0.0160186
0.00970456
0.0138536
0.00697931
0.0113895
0.00914242
0.0088303
0.0139255
0.0119032
0.00800439
0.00914276
0.0175751
0.0135948
0.0228502
0.0138651
0.0115883
0.017514
0.00229002
0.0190327
-0.0115561
0.0141128
0.00895108
-0.370432
0.00618053
0.00546662
0.00635156
-0.0272597
0.00490833
0.000316269
0.00853422
0.0154923
0.0140535
0.00302589
-0.00377668
0.00751143
0.0140629
0.00495636
0.0148052
0.0141109
0.00879257
0.0122284
0.00857361
0.00439491
-0.115286
0.00584461
0.00820616
-0.00125119
-0.00395412
-0.0550346
0.0174813
0.0155568
0.00183407
0.0203568
-0.114631
0.0113641
0.00675176
-0.0396713
0.00430356
0.0138121
0.00769119
0.0989186
-0.158927
0.00442255
0.0152699
0.0141943
0.00458885
-0.0191299
0.00944981
0.0134409
0.0139118
0.00929581
0.00399836
0.0127757
-0.0481602
0.104803
0.0141027
-0.00274466
0.0140362
0.00889231
0.0135002
-0.0867665
0.0103776
0.0124183
0.0118253
0.00525829
0.0126026
0.00909003
-0.00486209
0.0338088
0.00905331
0.0141554
-0.0126357
0.0140685
-0.0207075
0.000847763
-0.00614354
0.0695714
0.0139907
0.0036212
0.012311
0.00432695
0.0136092
0.00490584
0.0185011
0.0286402
0.011486
0.00276412
0.00911243
0.0094929
0.00828051
0.00474273
0.0150967
0.0133566
0.0122814
-0.0450459
-0.0322375
0.0253361
0.0102297
0.00360858
0.00775324
0.00805234
0.00969211
0.00941093
0.0174472
0.048573
0.00440363
0.0127678
0.0119725
-0.299028
0.014211
0.0245384
0.00776574
0.00463709
0.00150133
0.0125385
0.0101428
0.0115639
0.0174523
0.00309194
0.00891783
0.00568739
0.0128061
0.0125528
0.00556684
0.0489347
0.0166483
0.0018114
0.0123072
0.0137456
0.00775912
0.0134611
-0.00754454
0.0250121
0.0172867
0.00696906
0.0147871
0.00587866
0.00896958
0.00672743
-0.0578395
0.00464068
-0.0591348
0.0135567
0.0139266
-0.0471602
-0.00967002
0.0142984
0.0142062
0.0228676
-0.0517446
0.0105352
0.0042643
-0.0249161
0.0141244
0.0108558
0.0127931
0.0497702
0.00425888
0.0123651
0.0144064
0.00470168
0.0117193
0.0885785
0.015742
0.0118408
0.00920297
0.0288386
0.0138155
0.0207544
0.00449133
0.0050799
0.0130613
0.0092326
0.00766987
-0.277494
0.0092106
0.00846351
0.0479382
0.00489501
0.00692066
0.00391998
0.0140181
0.029459
0.00417739
0.0193362
-0.245784
-0.0926858
0.0402076
0.00797217
0.0140118
0.0157722
0.00588227
-0.00783026
0.00655159
0.0117547
0.0863029
0.00730257
0.0173623
0.0285732
0.0138401
0.0128532
0.0138421
0.00792636
0.00303401
0.0130197
0.0278964
0.014855
-0.00396011
0.00310367
0.0140304
0.0108171
0.00397927
0.0185447
0.013818
0.00719452
0.0923991
0.00441728
-0.0682348
0.00854709
0.00780997
0.0117889
0.00423596
0.00470023
0.00388567
-0.00591933
0.00751119
0.00402992
0.0111217
0.0122038
-0.0695267
0.00547916
0.0140586
-0.0103491
0.0112993
0.00393589
0.0140412
0.00803406
0.0173698
0.0103898
0.0136215
0.0130493
0.00711274
0.0131488
0.0129925
0.00560406
0.0139176
0.0991458
0.00565448
0.00887611
0.0096092
0.00305245
0.0042654
0.0256297
0.0214226
-0.00511554
-0.00916664
0.0118827
-0.142985
0.0106636
0.00779
0.0071715
0.00527653
-0.0102304
-0.0079978
0.00563913
0.00249701
0.00345021
0.0152101
0.0105737
0.0108288
0.0368276
0.000152865
0.0139584
0.00737318
0.00187197
0.0125923
0.0137299
0.0141441
0.0142314
0.0116488
0.0112528
0.0140487
0.00740095
-0.0220244
0.0082652
0.011431
0.0157016
0.0072166
0.00933633
0.00241747
0.00990281
-0.0418513
0.0132609
0.00783936
-0.037313
0.0141277
0.000753163
0.00881001
-0.0155999
-0.0077909
0.00882192
0.008649
-0.150276
0.095263
0.00307503
0.0118557
-0.001526
0.0438786
0.000542599
0.0120037
0.0138116
0.012567
0.016349
0.0091711
0.00456044
0.00593054
0.0108518
-0.0508082
-0.359313
0.0144556
-0.00632191
0.00853996
0.00907766
0.0142466
0.014841
-0.00235397
0.0113035
0.0137793
0.000887593
0.0304026
-0.00277682
0.00953285
0.0135503
0.0064538
0.0135813
0.000785813
0.0036811
0.0144007
0.000730149
0.0621029
0.0154198
0.0163143
0.0108742
0.0141254
0.0248569
0.0187714
0.0139599
-0.0544281
-0.0122565
-0.117855
0.0141291
0.000654021
-0.0358421
0.0139077
0.00253147
0.00361328
0.00888945
0.013777
0.0137083
0.00868696
0.0107518
0.0161287
0.0154166
0.0121973
-0.00230699
-0.00639254
0.0175505
0.00277723
0.0118412
-0.00971717
0.0142629
0.0733027
0.0165875
-0.0063875
0.0274081
-0.0112663
0.01114
0.00474923
0.0108033
0.0153092
0.00450679
0.0121264
0.0102139
-0.00573696
0.0245552
0.00946105
0.0134826
0.00353545
0.0146991
0.0129134
0.01318
0.0135078
0.0136416
-0.00191284
-0.000606506
0.00349458
0.0148439
0.0265979
0.0119513
0.0113335
0.00512626
0.0136306
0.0117895
0.00373884
0.00776509
0.000367427
0.0111717
0.00246887
0.0137273
-0.00110487
0.00674384
0.00973985
0.00358447
0.000311454
0.00359235
0.0107049
0.00885369
0.00164415
0.014763
0.00661974
0.00191209
-0.00772841
0.0118718
0.0123
0.0140788
0.00787426
0.0197458
0.00663435
-0.0341255
0.00296537
0.0152313
0.00740297
0.00364042
0.0148931
0.00922837
0.0157266
0.0156157
0.0118557
0.013627
0.01704
0.00111341
0.0123877
0.00857314
0.00289724
0.0109328
0.0144841
-0.146476
0.013671
0.00364265
0.0134651
0.00741817
0.00403037
0.0188457
0.010024
0.00747568
0.0132779
0.0035548
0.0131407
0.0137539
0.0130019
0.00799749
0.0169076
0.0123785
-0.00242578
0.00347985
0.0112248
0.0133157
0.00351213
0.0124933
0.0138239
0.0151956
0.00459222
0.00770266
0.0133713
0.00563986
0.010025
0.00368605
0.0145147
0.00851962
-0.0172764
-0.063306
0.0200758
0.0074448
0.0220997
0.00336259
0.0235699
0.0136779
0.00889933
0.00454655
0.00625873
0.00431067
0.000221385
0.00600763
0.0136717
0.0116621
0.0157143
-0.00205959
-0.00154619
-0.0411922
0.00566751
0.00768045
-0.337312
0.0114658
0.00400077
0.00581978
0.0886596
0.00769287
-0.0318792
0.0317314
0.00765502
0.0136637
-0.327087
0.00920751
0.00222285
0.00460891
0.0074955
0.0138378
0.00809741
0.00287667
0.00962125
0.0106754
0.0142573
0.00969989
0.00879011
0.0698463
0.0128138
0.00312836
0.00901204
0.0132503
0.00404993
-0.0707601
0.0130029
0.00957449
0.00754796
0.00853514
0.0173693
0.0133755
0.0126138
0.0113825
0.00874506
0.00856159
0.0141209
0.0136139
0.00835279
0.0120207
0.0116056
0.00739141
0.00501119
0.0283028
0.0170203
0.0594603
0.0125129
0.00843042
0.00406782
0.00502067
0.00447354
0.0223372
-0.00610129
0.0129615
0.00421134
0.0135034
0.00818204
0.0137653
0.00808567
0.0132554
0.00354841
0.00461863
0.00494575
-0.00198697
0.00426311
0.0135793
0.0142536
0.0137255
-0.0660361
0.011913
0.00885411
0.00483592
0.013863
0.00428867
0.0874498
0.00438849
0.0133812
-0.00501083
0.00483768
0.00945578
0.00948878
0.0130003
0.00407856
-0.00315015
0.00756027
-0.0346595
0.0134239
0.00490255
-0.0479275
-0.0214226
-0.034109
0.00688541
-0.0280103
0.0256953
-0.0296123
0.00365377
0.00860215
0.004308
-0.0747392
0.0021504
-0.000453913
-0.040212
-0.00323512
0.009891
-0.123477
0.00835679
-0.0154905
0.00627472
0.0135246
-0.00645726
0.0134082
-0.0597714
0.00847364
0.00517116
0.0133762
0.0139598
2.7506e-05
0.0139686
0.0140976
0.0534568
0.0136539
0.0101316
0.0170633
-0.0895826
0.0128673
-0.00602166
0.00400374
0.00982833
0.0195647
-0.0441105
0.0132421
0.0197947
0.0763576
0.0158769
0.00397601
0.00583427
0.00425935
0.0042158
-0.00246801
0.0143191
0.0065546
-0.000256516
0.00823363
0.00534563
0.0105628
0.0129558
-0.00164404
0.0887239
-0.00114464
0.00844544
0.0136001
0.0160166
0.0120432
0.00320345
0.013632
-0.0456446
0.00897197
0.00650844
0.0145036
-0.00350622
0.0135688
0.00800538
0.0669799
0.00588947
0.00727339
0.0110403
0.0128449
0.0176121
0.00855412
0.0129758
-0.0627282
0.00426922
0.0129232
0.00787205
-0.0359322
0.00437093
0.0124381
0.00818785
0.01566
0.0136429
0.0129008
-0.0241381
0.0266737
-0.025091
0.00886765
0.0316786
-0.00222195
0.012494
-0.000615561
0.00955401
-0.0293017
-0.0360887
0.00873317
-0.0446701
0.0810747
0.00762011
0.00399901
0.0172685
0.0128426
-0.00461532
0.0117173
0.00671811
-0.0201889
0.00902713
0.0125873
0.0133383
-0.0474109
-0.0487065
0.00656661
0.00310715
0.0163054
0.0109879
0.0342171
0.00757519
0.0212243
0.0139317
0.0119932
0.0158943
0.0141107
0.0033998
0.00225203
0.0201403
-0.00525968
0.00763386
0.0107164
0.0510607
0.0144526
0.0116865
0.0136754
0.0539088
0.0144834
0.0135503
0.00311144
0.00672131
0.00395363
0.0122349
0.0102455
0.0121237
0.0127035
0.0110571
-0.00596031
0.012354
0.0138912
0.0137758
0.00902383
0.0129551
0.0130308
0.0103561
0.00470307
0.0125851
0.0146435
-0.0691444
0.0136468
-0.0157275
0.0137313
-0.0127401
-0.000893985
0.00963172
-0.0567266
0.0159647
0.00761442
0.0124066
0.00308999
-0.416502
0.0175332
0.00473886
0.00977615
0.0137135
-0.0124952
-0.0668006
0.0285693
0.0178195
-0.0185421
0.015673
0.0113978
0.00358772
-0.121742
0.00888263
0.0327997
0.00574013
-0.0342421
0.0287702
0.0111836
0.00827976
0.0045687
-0.00693235
-0.0195633
0.00280037
-0.0313879
0.00276897
0.0245252
0.0109637
0.0082992
0.0132934
0.00292645
-0.130344
0.0136329
0.0177282
0.0115647
0.00811614
0.00971656
0.00419938
0.0138929
0.0136046
0.00358736
0.0375861
-0.0070733
0.0138853
-0.102148
0.0159726
0.0117846
0.0030911
0.00639045
0.00994221
0.0116461
-0.00253668
0.00463568
0.0141392
0.00813112
0.0137693
0.00554128
0.00317897
0.0121074
0.0140468
0.00420048
0.0110829
-0.068896
0.0136524
0.00428801
0.0118562
0.0116866
-0.0553466
0.0133406
0.0187301
0.0162794
-0.000395266
-0.0270185
0.00820806
0.0120456
0.0156962
-0.0248809
0.0148815
0.00414561
0.014638
0.00609122
0.0189742
-0.0321723
0.000768027
0.0141009
0.0134294
0.00897007
0.00747082
0.0115432
0.0293462
0.0051281
0.0136001
0.00532615
0.0136385
0.013632
0.00477175
0.0032484
0.00452969
0.0133801
0.00234779
0.089409
0.0169195
-0.0044416
0.0136343
0.00598857
0.00419139
-0.00658869
0.0119683
-0.0288391
0.0140415
0.00906694
0.0158898
0.0947845
0.0121511
0.0162491
0.013861
0.00858429
-0.000787208
0.00875919
0.00987444
0.0111644
0.0142891
0.00638263
0.00658921
0.0157687
0.0138972
0.0145976
0.00857056
0.0128039
0.0119335
0.00397255
0.0162324
0.00808196
0.00417929
0.0141477
0.0139098
0.0622787
-0.00102296
-0.00142632
0.00730052
0.0125326
-0.0547518
-0.00338203
0.0022793
0.0115392
0.0106795
0.0138235
0.0105116
0.00439173
0.0134437
0.0138355
0.0134987
-0.00719838
0.0140578
0.0171714
0.00810722
0.0135593
0.000211715
0.0130219
-0.0874803
0.00958447
0.0050306
0.00297605
0.0104724
0.0130288
0.0049195
0.0172772
0.0112986
0.00744043
-0.0866394
0.00727392
0.0139698
0.00730184
0.00361039
-0.403747
0.0436202
0.0243325
-0.0198119
0.0143286
0.0257208
0.0122368
0.0119244
-0.0703644
-0.000651682
0.0209911
0.00896559
0.00443707
0.00932085
0.0137714
0.00531772
0.015595
0.00862954
0.0139352
0.0108085
0.012818
0.0154997
0.0390549
0.00377879
-0.00397892
0.0066687
0.010937
0.00309836
0.0142651
0.016892
0.010573
0.0100991
0.0283651
0.0136584
0.00766504
0.00822834
0.003514
0.0107245
0.00998298
0.0126691
0.0068741
0.012836
0.00274068
0.0072144
0.0138496
0.00657955
0.0105929
0.0139841
0.02465
-0.0374851
-0.0878147
0.0530602
0.0137317
-0.0187357
0.0136163
0.0144878
0.0176576
0.0146134
0.00549135
0.0101209
0.0038275
0.0104997
0.0141429
0.0133005
0.00859437
0.0133769
0.0145968
-0.000933573
0.091898
0.00699188
0.011711
0.0126478
0.0126562
0.0102315
0.0140505
0.00329752
0.00363948
-0.111565
0.0145072
-0.0379532
0.0135598
0.00231173
-0.00674343
0.000591695
0.00956553
0.0141661
0.0144488
0.0160737
0.0168374
0.0161566
0.00879939
0.00434584
0.0196714
0.0279118
0.0168145
0.00924075
0.0105978
0.0205982
0.0148313
0.0116464
0.0184172
0.00374691
-0.0326945
0.0619365
0.0138024
0.00409143
0.0193863
0.0101105
-0.0132882
0.00972736
0.0159983
0.0256786
0.0592015
0.00404406
-0.294726
0.00407536
0.0144354
0.0172931
0.0164191
0.00434239
0.00928072
0.0300472
0.025495
0.0144853
0.0119758
0.0285126
-0.0211406
0.00193648
0.00909399
0.00201435
0.0135685
0.0104606
0.00427997
0.0138793
-0.0116161
0.00553144
0.0106548
0.012895
-0.0218893
0.00223558
-0.159165
-0.410563
0.0103763
0.0156787
0.0108756
0.0143332
0.0037355
0.025322
0.00317213
0.00216469
0.0141091
-0.379886
0.0113936
0.00879291
0.00896614
0.0122709
0.00698952
-0.0895841
0.0040012
0.00086445
-0.00815451
0.0143667
0.0187889
0.0142705
0.0052455
0.0149189
0.00821711
0.00416125
0.0145353
-0.0390632
0.0123502
0.00242003
0.0124606
-0.335956
0.00746339
0.0119649
0.0172526
0.00634878
0.00600428
0.0122768
0.0136531
0.00638409
0.0136269
-0.0327188
0.015579
-0.0254251
0.0126309
0.0116817
0.0156107
0.0140344
0.0100063
-0.0194503
0.0115796
0.00774081
0.011492
0.00291234
0.0121434
0.00864292
0.0160582
0.0127587
0.00525853
0.0133421
0.0132363
0.00803418
0.00572261
-0.0355093
0.015164
0.0266397
0.0185637
-0.00266113
-0.0485778
-0.0016305
0.0202981
0.00752623
0.0148288
0.0156471
-0.000714376
0.00379669
0.037905
0.00114161
0.0136564
0.0133652
0.01199
0.00328068
0.0171916
0.0134797
0.0136743
0.0808434
0.0694262
0.0303252
-0.0122663
0.0112563
0.0677118
-0.00107631
0.0134845
0.0143047
0.0143066
0.00839308
0.0141314
-0.00135235
-0.0219346
-0.0162709
0.00286092
0.00993853
0.0208566
0.00208666
0.0120787
0.0514409
0.0311205
-0.00867732
-0.0393134
0.0115649
0.00957824
0.0113022
0.00294688
0.0106457
0.016303
0.0160502
0.0121288
0.0284276
0.0113
-0.0205568
0.00235838
0.0109186
0.00853023
0.0135438
0.0723632
0.0135411
0.00929581
0.011301
0.0130542
0.0829177
0.0119931
0.00841775
0.0716535
0.0104151
0.00372313
-0.00416947
0.105172
-0.00817624
0.0166287
0.0139107
0.0212814
0.00307278
0.013847
0.0136393
0.0784709
0.010192
0.013311
0.0196869
-0.127018
-0.0117637
-0.0479364
0.0184934
0.0100526
0.0122757
0.0058869
0.002857
-0.0210466
0.0113994
-0.0252733
-0.0654115
8.19857e-05
0.0163301
-0.234729
0.0140755
0.00569267
0.0137012
0.0141786
0.0084039
0.0141813
0.00847444
-0.0538857
0.020658
0.00383323
0.0171762
0.00698877
0.0145523
-0.0535407
0.00779435
0.0146931
0.0201361
-0.00902284
0.00335895
0.00390883
0.0634294
-0.0141771
0.014636
0.0513015
0.0289095
0.0147309
0.00798833
-0.000800145
-0.000895451
0.00274661
0.013323
0.0132116
0.0244939
0.0141822
-0.0124318
0.00377341
0.00295428
-0.0618271
0.0129361
0.0114359