/*--------------------------------*- C++ -*----------------------------------*\
| =========                 |                                                 |
| \\      /  F ield         | OpenFOAM: The Open Source CFD Toolbox           |
|  \\    /   O peration     | Version:  v2012                                 |
|   \\  /    A nd           | Website:  www.openfoam.com                      |
|    \\/     M anipulation  |                                                 |
\*---------------------------------------------------------------------------*/
FoamFile
{
    version     2.0;
    format      ascii;
    class       volScalarField;
    location    "150";
    object      ddt0(k);
}
// * * * * * * * * * * * * * * * * * * * * * * * * * * * * * * * * * * * * * //

dimensions      [0 2 -3 0 0 0 0];


internalField   nonuniform List<scalar> 
18618
(
0.000868437
0.00158719
1.63017e-09
0.00228859
5.42216e-09
1.99595e-05
-2.01229e-09
0.00182903
-2.11199e-09
-2.04784e-08
1.15015e-09
4.47903e-10
0.00141517
1.70644e-08
5.69392e-09
-1.45611e-09
2.90205e-10
0.00023788
-9.32208e-10
-3.0114e-08
2.39188e-05
1.99482e-10
-4.13954e-10
2.15705e-07
-1.68996e-10
-5.08632e-07
0.000593035
4.19814e-09
2.4953e-10
4.13544e-10
4.36841e-09
-1.51937e-08
-1.71577e-08
4.3067e-07
0.00110268
1.57937e-08
3.51136e-09
0.000102269
-3.31358e-08
1.10448e-09
0.00244603
0.000303857
1.88146e-09
0.000299638
-2.75476e-08
-1.74945e-09
0.00180945
6.28422e-09
0.000215592
-0.00647278
7.7296e-10
-3.96344e-09
0.000436642
0.00150634
9.47588e-12
0.000308928
2.15807e-08
-3.03596e-08
3.95377e-07
-3.31424e-08
8.74754e-10
5.52698e-09
-3.01783e-08
6.70665e-09
-1.91658e-06
-0.00751179
2.51836e-09
6.37806e-09
5.87155e-11
0.00516031
-7.35218e-10
0.000243839
1.01483e-07
-1.68344e-05
1.10939e-08
2.09246e-08
-3.48163e-07
-0.00606164
-6.0399e-10
-0.000325722
0.000165111
0.000124948
-3.43088e-05
-6.25492e-08
-1.63256e-08
4.13339e-10
2.92781e-07
1.13864e-07
-6.1844e-08
0.000209003
8.27264e-08
-2.52507e-07
0.000712012
3.83355e-08
0.00126867
1.69527e-08
-5.60699e-09
-0.00825131
1.08116e-08
3.82002e-10
0.0015568
9.66729e-09
-1.59619e-06
-8.05038e-09
-5.24092e-08
0.000889134
4.26233e-10
-3.00615e-09
-4.50418e-07
-8.69441e-11
-0.00330965
-9.42119e-09
4.49516e-09
2.92739e-10
-2.80421e-09
-1.44731e-09
3.73247e-09
0.0014064
-6.0083e-09
8.1622e-08
-0.0121633
9.24541e-09
0.000572341
0.000158643
0.00118275
-3.13404e-06
0.00152309
0.000113933
6.34011e-09
-5.59884e-08
-5.47822e-08
-1.13607e-08
4.90955e-05
-8.5877e-07
-3.84307e-09
1.23108e-09
-1.33323e-09
-1.89518e-08
-2.85586e-05
7.7024e-09
9.24794e-09
5.53309e-09
5.48997e-09
9.91102e-11
-1.37893e-09
-4.33864e-07
7.56516e-09
-6.20287e-10
0.00100596
1.71551e-08
2.38596e-08
0.00136925
-0.000461109
-3.093e-09
6.73663e-09
0.00149156
0.00141929
-0.00273297
3.20142e-07
1.95449e-09
2.05268e-09
-0.00198268
-1.67489e-08
-2.43281e-06
-3.99246e-10
-0.00585453
7.89722e-09
5.73149e-09
0.00017713
1.0629e-08
2.80265e-09
-4.20483e-10
-6.10368e-08
-1.30645e-08
-0.00297948
1.81857e-08
1.93424e-05
0.000100596
-7.11576e-10
2.62535e-09
-5.29824e-09
-1.21974e-08
1.83393e-08
-6.95122e-09
0.00247615
5.00586e-09
-2.67755e-08
1.00854e-08
2.57621e-05
5.45876e-05
2.51548e-09
1.16687e-08
-0.00515553
5.84729e-09
2.80244e-06
3.2671e-07
-1.28215e-08
-0.00745467
-3.74087e-08
0.000874486
-2.0897e-05
0.00219182
-7.32044e-08
4.48952e-09
0.000158961
3.73834e-05
-0.000232211
0.00131237
8.41739e-09
0.000704707
7.56964e-06
3.68356e-09
0.00141406
0.00141786
-7.29738e-09
8.39408e-09
-1.21462e-07
0.000146
3.54572e-09
0.00131398
7.77489e-09
-4.78884e-09
5.43396e-09
-6.65271e-07
-1.09981e-07
-9.19274e-08
2.61936e-09
4.45208e-09
0.00042918
2.62473e-07
0.000314561
-1.8568e-06
1.29584e-08
1.32215e-08
3.91023e-09
-4.04506e-08
-5.49293e-08
6.25969e-08
3.70595e-09
0.000754984
-4.36844e-09
-3.4465e-08
1.41651e-08
-4.30144e-08
0.00178996
-3.09811e-09
2.45048e-07
-8.06735e-06
5.31125e-09
1.48932e-08
0.00134481
3.95363e-06
-1.71797e-08
0.00194515
1.92232e-09
-1.38903e-09
5.96297e-09
3.73067e-07
-2.09139e-10
1.2978e-07
7.20747e-07
5.47973e-09
-1.5197e-06
-0.00422821
5.67496e-06
1.86838e-09
-5.04804e-09
9.48311e-05
2.26417e-10
1.19198e-08
1.95378e-08
-2.59511e-09
1.11211e-09
5.66584e-09
4.29791e-09
-0.00624751
5.77846e-10
7.9212e-09
0.000143616
1.64096e-09
-8.35476e-09
-3.02167e-10
0.00207334
-5.86856e-06
-5.6501e-08
-0.00172781
-1.51842e-08
-3.90746e-07
-1.52342e-09
6.61093e-07
6.97751e-10
-4.34567e-08
3.16068e-10
-1.48808e-08
0.00142854
1.57517e-09
2.52244e-10
1.2455e-09
-0.00836507
0.00135
0.00295849
0.0035759
-0.00440067
7.17432e-11
3.03919e-07
0.000826781
-0.000168958
5.40066e-09
7.39787e-09
5.33538e-10
1.16614e-08
1.08686e-08
-8.85571e-09
-6.30025e-10
1.34001e-08
-0.000159349
0.000776929
9.88444e-06
4.20526e-09
4.07765e-09
-1.60942e-08
2.56055e-06
2.73844e-08
0.000515884
3.77546e-09
2.16567e-07
-0.00708949
2.15271e-09
1.66422e-08
-2.62739e-09
7.53298e-09
9.25375e-10
2.1803e-08
3.87787e-11
-7.6627e-08
5.93938e-09
-4.15874e-06
3.84024e-08
0.000141092
-1.3293e-05
2.0904e-09
0.000129029
-1.23467e-08
4.91641e-10
4.93829e-09
3.70552e-08
-9.19524e-08
3.68832e-08
-0.00413747
1.22597e-08
0.000849635
3.7177e-07
-9.20176e-09
-2.76611e-08
-0.00238002
-2.25022e-07
6.11431e-10
1.46824e-05
1.93225e-09
1.24655e-07
0.0023949
-0.0010541
7.89716e-06
5.28082e-08
-0.00147261
-0.00633584
-6.19916e-09
1.66329e-08
2.0832e-06
-7.71823e-10
1.96657e-09
-8.67784e-09
-0.00506144
0.000935482
4.59249e-10
3.85799e-09
-0.00619519
2.56788e-09
1.82888e-06
-2.51601e-05
-2.32286e-08
-2.85839e-08
0.000397837
0.00317769
8.49158e-10
1.27716e-10
6.19413e-09
9.44903e-06
1.90407e-09
-1.14677e-08
3.8753e-09
-2.28079e-07
-2.39693e-08
3.0248e-09
0.000129727
-0.00117998
-2.31864e-08
-0.000275212
6.8685e-10
1.40475e-08
-7.63251e-09
0.00985378
1.90556e-07
0.00119451
6.79644e-09
0.000346786
-5.55225e-09
1.79966e-08
7.71607e-10
-1.98061e-07
1.47858e-09
0.000429678
0.0026941
1.31744e-05
-9.84089e-09
3.10385e-05
3.8465e-09
-2.31641e-08
-1.37062e-08
0.00416141
-5.52699e-10
-4.72395e-09
2.18389e-09
0.000486476
0.00691882
-2.08917e-09
1.34427e-08
3.92866e-06
1.75952e-09
2.7878e-08
2.51358e-10
1.52208e-09
8.23372e-09
-2.08876e-06
-1.97271e-07
-1.5977e-08
-5.33677e-08
6.62609e-09
0.0011053
3.87565e-09
3.35452e-05
0.00231404
4.82249e-08
6.42174e-08
0.000113291
5.00327e-09
0.00398344
0.00140611
-1.07025e-08
-1.39321e-08
4.04497e-09
0.000167384
0.00344866
6.94258e-10
-5.06478e-07
6.03528e-05
5.29631e-10
0.000624639
2.77265e-10
8.09038e-05
0.00408977
2.72329e-11
-0.00237616
1.97162e-09
7.80379e-05
4.54257e-08
0.00105113
-1.54965e-08
-0.00809781
6.7878e-09
-3.79384e-09
2.15147e-09
3.69009e-05
1.14673e-07
1.94624e-09
-6.63622e-10
2.06637e-09
-0.0017839
0.00133622
-2.66176e-08
0.000273367
3.4194e-05
1.07242e-08
-1.00207e-08
3.714e-09
0.00198189
1.04303e-08
-2.09658e-09
0.000289669
0.00156752
-1.05223e-05
-3.39048e-09
2.91405e-07
9.25842e-09
0.0114279
1.65122e-08
3.89356e-05
-4.43809e-09
1.33645e-08
-9.71476e-08
0.0007024
8.98049e-11
-0.00900961
3.36445e-08
5.19535e-09
-9.01228e-08
1.36008e-09
2.2707e-09
-4.63711e-09
-0.000962088
-0.00346556
4.00829e-07
-2.74198e-07
-5.40943e-10
-2.64515e-09
2.28933e-08
0.00604987
-3.68336e-08
-0.00736357
4.76537e-09
-0.00754752
1.01781e-08
1.28592e-08
4.02322e-07
-0.000163405
-3.30685e-07
2.70027e-09
-1.03536e-07
-0.00222294
-0.0014903
-3.10034e-10
-1.79287e-08
-3.00537e-08
8.15312e-09
-1.70797e-08
-0.00021613
1.13682e-07
2.19364e-09
0.000388703
0.00042976
0.00635618
0.00150862
5.11637e-08
0.000751895
9.78588e-09
-3.96707e-09
-0.000156869
0.00208899
-2.89991e-06
-4.49205e-08
1.78149e-08
4.86429e-09
1.12301e-09
-2.36619e-07
-1.18565e-07
1.11109e-09
1.40076e-08
1.13442e-06
2.41543e-08
-4.46041e-10
3.28034e-09
0.00144393
3.9848e-09
0.00157613
-1.23043e-08
-6.55078e-08
1.82821e-06
3.32279e-08
1.98064e-09
0.0059225
4.97334e-09
0.000398913
0.000245662
-0.00462944
1.80733e-08
1.47814e-08
4.49707e-05
9.61672e-10
-4.39818e-09
2.72555e-07
1.16623e-07
2.05447e-09
0.00133306
-0.000220683
-2.36757e-08
-1.10224e-07
-1.28796e-09
8.33082e-08
1.35116e-09
1.3278e-07
5.2635e-08
2.72146e-05
1.65536e-08
0.00106319
2.09894e-10
0.000357272
9.56565e-09
-4.72707e-09
-0.00729297
2.8836e-09
-0.00156119
3.1976e-09
1.12627e-06
-1.04509e-07
-1.04616e-08
-1.29262e-08
0.000312502
-1.17641e-08
-1.27145e-08
7.26061e-09
1.0393e-08
0.0005255
3.36724e-06
2.99636e-09
0.00128426
0.00147641
3.80507e-09
0.00144102
-1.84601e-08
-4.48399e-10
1.01227e-07
-1.03199e-08
-2.94376e-09
0.000250745
2.96912e-09
1.66834e-06
-8.32446e-10
0.00078909
-9.75955e-05
2.16148e-09
-4.71482e-09
4.91335e-09
0.001087
4.31765e-09
-4.43203e-05
1.26221e-08
-1.38466e-09
-1.04404e-08
-4.55604e-10
2.17707e-09
-1.65889e-09
1.78663e-08
-1.65749e-06
-0.000885173
5.65944e-09
1.4831e-08
-0.00732063
4.31483e-09
8.72919e-09
0.00102138
1.33938e-07
-6.66131e-08
-3.90508e-09
-9.55508e-10
-0.0023353
-5.27865e-10
-0.000514398
5.55509e-08
-4.53637e-09
1.58614e-08
0.000162549
4.85534e-09
0.000551758
0.00458888
0.000367645
-3.87828e-07
2.56474e-08
7.87284e-08
0.00138998
3.62949e-09
1.14707e-07
1.10803e-09
-1.02467e-07
1.14221e-06
0.00127378
-1.58035e-09
-3.20902e-06
2.90713e-09
-0.00821154
-4.98257e-09
-1.9985e-08
1.10082e-07
-5.5594e-06
4.52088e-05
0.00514759
9.66755e-10
-0.00220742
-5.17083e-09
0.000115742
8.58747e-09
2.81329e-07
-1.13723e-08
1.58526e-08
-7.27188e-09
1.60878e-08
1.69681e-08
8.46154e-08
6.42825e-09
5.35615e-09
2.57283e-09
4.07654e-09
-8.98066e-08
2.02922e-09
3.82345e-09
-0.00187649
5.23445e-09
0.00205151
2.69025e-10
2.00638e-08
-1.38189e-09
-5.61968e-07
-1.00809e-09
-0.0015039
9.80775e-09
0.0037694
-4.07481e-06
4.2971e-09
1.11737e-08
-1.47997e-09
5.0889e-09
-1.22221e-09
1.62178e-08
8.20884e-09
0.000820869
2.69096e-09
9.94909e-05
0.00632908
-5.04882e-06
-1.42282e-09
-1.14236e-09
0.00132972
0.00918206
0.00564223
0.00126842
0.00202393
-0.000194772
0.00770749
-2.28229e-08
0.000106956
1.8679e-08
3.09879e-08
6.16373e-09
-7.86113e-07
1.42169e-08
1.41969e-08
1.13068e-07
-1.86384e-08
0.00176337
-1.03096e-08
1.7511e-05
-3.291e-08
0.00360303
2.39098e-05
1.96606e-07
-0.00117198
-9.87183e-08
1.88247e-08
-9.32801e-09
4.5527e-08
0.000419943
0.00122661
1.81943e-08
2.86635e-10
-0.00577118
1.18772e-07
0.000846501
-1.91131e-08
-1.69041e-06
-2.83558e-08
0.00270155
3.33712e-09
1.90087e-09
-1.1634e-09
7.88541e-09
4.15002e-09
4.5688e-09
1.67263e-08
9.58955e-05
0.000356516
1.57488e-09
4.80993e-05
2.01619e-08
4.22714e-05
1.79448e-05
-0.00760851
-3.21352e-09
5.59772e-09
-0.00183297
-1.00294e-09
0.00397962
4.86272e-08
8.84407e-09
-1.05677e-07
1.81497e-08
-0.0011583
-1.04025e-08
4.74315e-10
-7.8367e-07
1.02574e-07
3.81459e-08
3.48132e-09
-0.00416576
-2.71471e-09
3.60574e-09
3.02608e-09
-7.05171e-09
1.02688e-08
-2.20631e-09
1.8201e-09
-6.30385e-09
-0.0180759
4.99305e-09
1.13486e-09
-9.63619e-09
5.83225e-10
-5.70192e-09
5.66228e-07
7.45086e-08
0.000302158
-1.41263e-10
-5.05695e-08
0.00107026
-1.35418e-08
-2.10191e-07
1.20053e-07
7.09515e-09
-1.29612e-08
0.00128656
1.40637e-08
4.27037e-09
-1.49884e-09
-7.41679e-10
-3.90951e-09
1.36641e-08
-0.00126596
1.86396e-09
-5.54972e-09
6.80331e-09
0.0089899
-4.09894e-07
3.84352e-07
7.63146e-09
-0.000293823
1.53292e-08
0.00122568
-9.35144e-09
3.40573e-09
-0.0143252
-1.21606e-08
0.0109148
6.45158e-08
0.000696552
-1.10029e-09
3.20503e-09
5.27298e-09
2.55644e-09
6.70896e-09
3.03618e-09
-0.00313867
-0.00382913
2.12231e-09
0.000148965
0.000535896
-0.00330134
0.000167809
-3.11792e-08
-6.70544e-06
3.62327e-09
-0.0010204
1.51988e-08
6.64725e-08
6.88513e-08
0.00321775
-1.00976e-09
-2.46234e-09
-3.87891e-09
7.26094e-09
-0.000241489
4.86829e-08
-5.33909e-05
-1.36089e-08
9.55477e-08
0.00118159
1.53562e-08
5.66366e-09
-1.64737e-08
-0.0138763
-0.0168597
0.00897143
-3.42595e-08
4.32597e-09
0.00185307
-1.14395e-08
4.59821e-06
-1.79553e-06
-1.86572e-06
-1.17178e-07
-1.07409e-06
0.00118598
0.00128969
8.68142e-09
1.09483e-07
0.000367963
0.00241653
1.79422e-06
0.00200009
0.000245345
-9.29257e-07
2.50486e-06
0.00211155
1.55849e-08
-2.16925e-08
2.51207e-09
-0.0025063
-0.00797449
-0.00021052
-1.00699e-08
7.35301e-06
-2.7161e-10
2.44622e-09
1.04847e-08
-2.63811e-09
9.35721e-10
2.99898e-07
4.19279e-09
0.000340686
-2.67271e-09
-8.17406e-10
-4.09484e-10
0.00053113
0.000707776
-7.77464e-09
0.00704505
6.38965e-09
0.003651
2.92179e-09
-4.44774e-06
1.4662e-08
1.30749e-09
-2.10246e-09
1.29009e-09
0.00224415
-7.44275e-11
1.81925e-08
0.000695101
-7.2678e-05
-1.6999e-06
1.42877e-09
-8.39706e-09
-0.00304
2.7017e-10
-3.13896e-09
-0.00601115
-2.4428e-09
2.87005e-05
2.48375e-09
-6.25098e-10
1.80865e-07
-0.00435765
-6.59984e-09
-5.91264e-09
2.30956e-06
0.00218208
6.78044e-08
-2.22656e-09
-3.74189e-10
-4.04828e-09
0.00157629
-5.23586e-10
-0.000162991
4.96661e-09
-1.13718e-06
-1.72536e-06
1.56028e-08
-1.86425e-08
5.07853e-09
-2.82671e-09
-1.1074e-07
0.000910347
-0.000132421
5.18647e-07
-1.41374e-07
7.32704e-09
-2.57555e-08
1.26956e-09
1.65978e-09
-1.53102e-07
2.67093e-11
0.000139783
9.56501e-09
5.78869e-10
5.25503e-06
1.71763e-09
1.35188e-08
-9.25976e-06
-1.78854e-08
1.79889e-08
-1.19844e-08
-4.88554e-10
1.97875e-06
-1.78752e-08
9.75754e-09
-5.16734e-07
-3.58678e-09
2.86567e-06
-0.00049523
-0.00233878
4.6064e-09
-0.00168193
5.04741e-09
2.12487e-09
-2.35895e-06
-0.0012891
1.60381e-07
1.06833e-07
-3.00439e-09
8.99725e-09
4.30508e-09
7.92514e-10
-5.37961e-10
-6.09721e-09
3.80817e-09
6.01274e-07
-0.0191548
-1.19813e-08
4.97034e-09
2.38549e-08
4.76213e-07
-1.77895e-10
0.00175605
3.7058e-08
3.84492e-07
1.4979e-08
6.11617e-09
-5.82771e-07
-2.81808e-05
-1.84993e-08
5.13295e-09
6.02184e-09
-2.37232e-08
0.000544144
-1.24209e-09
8.34865e-09
-3.28326e-09
1.5548e-08
-3.94492e-07
2.71342e-09
-1.71558e-09
-1.90199e-08
3.45629e-09
0.000685911
2.14687e-07
-8.40637e-09
0.000978546
2.28252e-09
-4.90468e-08
-4.72314e-10
-9.19881e-09
9.82739e-09
-0.00522048
-1.40877e-08
-1.31938e-08
-9.55644e-08
5.86572e-09
0.000398156
5.29671e-09
7.6248e-07
-5.20993e-09
1.0673e-08
-2.28832e-09
0.000394121
-0.00441688
6.79176e-09
0.00890139
-2.58591e-08
-5.88268e-08
0.0101027
0.000272985
3.82527e-05
-0.000255585
0.000103317
-1.89908e-09
-0.00210047
0.00621702
-0.000328316
1.2381e-08
-0.00471709
0.00131716
5.24592e-09
3.85893e-08
-0.0026762
4.74749e-09
0.00017626
2.75212e-08
0.00272656
-0.000857222
0.00692594
7.35813e-09
-1.62701e-06
-8.69037e-07
3.9619e-09
-0.012123
1.23269e-08
-1.61402e-08
-7.67625e-09
1.44701e-08
-1.01184e-05
-0.00211347
-3.62265e-08
6.177e-09
2.31798e-09
0.00115814
0.000890999
8.23138e-07
1.37609e-08
0.00070909
4.85099e-10
1.87325e-09
8.61418e-09
1.57761e-08
-6.64158e-09
-1.44012e-08
0.00114091
0.0112496
2.07433e-09
8.9407e-08
9.90176e-05
0.00362806
3.74352e-09
4.24e-09
2.20397e-08
-0.0041406
2.18171e-08
-0.00338265
-5.89979e-09
0.00148738
-1.82889e-09
1.13469e-08
-1.82291e-09
1.25471e-08
7.55069e-08
6.05361e-09
4.30017e-09
6.26747e-09
0.000565452
-3.00725e-05
1.60999e-09
-1.05756e-08
2.75639e-09
3.48163e-10
0.00139995
-7.33962e-09
-1.27289e-08
-0.00893772
-9.30461e-09
-0.000183006
0.00577422
3.96109e-08
-0.00433321
0.000674795
0.00334056
-1.37908e-06
-0.00309745
4.09296e-10
1.94503e-09
-9.00416e-09
2.08469e-09
0.000406659
-3.35432e-08
-3.27617e-08
-1.44602e-08
-1.87749e-08
-1.79577e-07
-5.04526e-09
5.49854e-05
-1.19693e-08
3.12372e-08
-7.25024e-09
4.57773e-10
-2.94781e-09
9.2581e-08
1.70869e-09
-9.38971e-09
-1.10812e-08
3.49211e-09
0.000297344
-6.48376e-08
-3.81475e-09
-2.22084e-08
4.22799e-08
4.6559e-09
-0.00104879
0.00024522
4.66452e-07
-1.62701e-08
-6.99405e-11
-1.76919e-07
-2.14194e-05
0.00238923
-1.04185e-07
2.23078e-08
0.00254022
-2.44618e-07
2.01186e-09
-3.02937e-09
-0.00285199
2.41686e-09
0.00265821
2.32086e-08
3.25144e-08
-9.79492e-08
7.14787e-09
1.20175e-09
-9.20376e-10
-0.000906881
0.000133478
0.000278871
-1.35227e-09
-0.000342595
5.12302e-08
-1.34399e-09
2.5147e-09
0.000160814
1.15415e-08
0.00191267
-1.22324e-08
0.00032536
-6.46016e-08
2.40888e-07
7.4828e-08
-5.79843e-09
0.00654731
-1.02587e-08
0.0013638
0.000148828
1.1339e-09
7.70294e-06
-1.35233e-06
-0.00022727
0.000402591
-5.58375e-09
0.00150755
3.6488e-10
-2.96855e-05
3.87377e-08
0.00259137
0.00101759
-9.08135e-10
-3.88935e-09
-0.00235772
4.41849e-07
5.13613e-05
0.000743627
-1.01341e-09
2.60958e-09
-4.14788e-08
9.39353e-09
-1.52629e-09
-0.0152643
-5.60339e-09
4.8172e-05
4.5475e-09
2.48948e-07
5.49781e-10
4.88801e-09
2.04419e-09
0.000806408
2.71795e-09
-9.53833e-08
-9.06051e-10
-2.13584e-08
-9.53958e-10
2.64492e-09
5.78607e-09
-2.40341e-08
0.00548947
-3.63816e-09
2.01961e-09
-0.00108532
1.84969e-08
2.08225e-07
6.16245e-05
-0.000672499
2.60927e-08
1.41923e-09
-3.79409e-07
-0.000970295
9.45249e-09
7.60243e-08
3.53539e-07
-0.0135917
8.07264e-10
0.00163704
7.08478e-09
0.00655984
2.09932e-08
-8.50662e-10
-4.07994e-08
1.22282e-08
-0.0130343
0.00105077
-0.000695863
1.62925e-08
0.000455826
-0.00133289
-6.13213e-05
2.88695e-10
3.98771e-09
5.12054e-08
3.38957e-09
-9.62026e-10
-4.27384e-09
-4.84351e-09
-2.60482e-08
5.4787e-09
3.72331e-09
4.58795e-09
-4.03703e-09
6.79489e-09
3.97694e-08
3.5609e-09
6.64591e-05
2.93008e-09
3.28339e-09
-0.00687599
-1.89477e-08
-0.00581346
-0.00156052
-1.27266e-08
-4.80546e-05
-5.84648e-10
0.00081261
1.28392e-09
-0.000677051
-8.80718e-09
0.0010394
-1.90595e-07
0.000281103
7.21001e-09
-4.74559e-10
0.00119356
-1.3784e-07
-7.36888e-08
5.17605e-09
-9.36852e-09
-0.00384928
-2.61544e-08
5.24382e-08
-5.64756e-10
1.77791e-08
0.000158001
-1.93337e-08
1.68458e-08
2.30429e-06
-0.00332054
-0.000260842
-1.14704e-08
3.47755e-09
-1.98972e-09
2.16778e-09
9.28649e-09
0.0028916
-0.00285568
-3.10191e-10
-4.93394e-09
-0.00326147
2.84775e-09
-9.45552e-09
6.85239e-09
-5.32977e-08
4.23749e-09
3.33287e-09
2.97805e-09
-1.12213e-08
-2.19931e-08
-1.1183e-08
0.00374779
-0.00140895
-5.7489e-08
2.32884e-08
-2.37334e-11
0.0012489
4.95387e-07
6.26832e-08
-1.59896e-08
4.81865e-07
2.62182e-06
-1.39688e-09
-3.91286e-09
3.52259e-10
3.60058e-07
3.46178e-08
0.00435026
0.00333139
-0.00526001
6.12803e-09
3.49526e-07
0.00569114
0.000283887
0.00159632
4.1642e-05
-6.01994e-09
0.000257663
3.50275e-08
-1.58963e-07
5.05862e-09
-0.00863597
1.72932e-08
-1.79444e-07
-1.4984e-08
0.00217282
-2.4701e-09
0.00124965
0.000372526
5.30192e-09
-2.96431e-09
3.30358e-09
6.63562e-08
-2.56728e-08
-3.39068e-08
0.000240747
2.32749e-09
-4.51398e-08
-1.64234e-08
-0.00231277
-2.62245e-08
-1.27404e-08
-9.94915e-09
-7.32187e-09
-3.00318e-09
0.000387276
9.43603e-09
1.40862e-10
2.80876e-06
0.00799652
1.4529e-08
-0.000100912
1.43465e-09
-1.23296e-10
0.00261888
-3.62087e-09
-8.23764e-09
-4.6813e-09
-1.4553e-08
8.85825e-10
-1.26329e-08
-1.32272e-07
0.000620204
1.27336e-08
8.54833e-09
-8.14318e-08
-0.000729934
-2.95362e-10
-4.91802e-08
1.17748e-09
-0.00852403
-7.23373e-09
-3.01001e-08
-0.000672615
-4.30333e-09
7.47122e-09
1.86053e-09
-0.00254961
-0.000374716
4.52356e-09
-0.00952621
1.17039e-09
4.35996e-09
0.000166071
-2.4208e-09
2.36751e-08
3.76498e-08
8.64892e-08
1.9121e-07
-2.42313e-07
-5.98403e-10
-1.17755e-09
1.22085e-09
-2.29463e-06
0.000140809
-1.72826e-08
-1.21296e-07
6.72612e-09
-0.013291
-1.50694e-07
-0.000588426
-5.88407e-05
-3.1539e-08
8.5897e-09
3.77169e-07
-1.50312e-07
8.25903e-06
4.01675e-09
-2.98415e-09
-3.41291e-08
2.23089e-09
1.26246e-09
7.35846e-11
0.00092135
-1.61061e-09
-0.00638038
1.3818e-08
0.00433999
4.15047e-09
1.51528e-10
6.32547e-06
0.00213219
0.00202823
3.87083e-09
2.22744e-09
-3.60952e-07
-1.03483e-08
1.04667e-09
0.000533412
0.00157788
-1.47874e-08
1.32604e-08
-0.0025437
-0.00339659
-0.00304545
-5.15126e-09
6.98818e-10
-1.92991e-09
-1.18332e-09
-0.000290362
-6.82239e-08
4.37394e-10
0.000306816
-0.00736554
0.00642374
-2.75362e-09
-6.07177e-10
-5.58367e-07
-0.000370174
0.000386146
0.00028296
-1.74747e-09
-2.91479e-08
2.49015e-08
-0.0121792
-9.38368e-05
0.000119683
2.2015e-08
0.000916515
1.36678e-09
4.3365e-09
2.89376e-08
-0.00390743
1.93706e-08
-8.48445e-09
-0.000957231
-6.90047e-08
8.42208e-09
-1.33254e-09
-6.99293e-09
2.96052e-08
0.00686584
6.68054e-06
4.434e-10
-9.7365e-09
-1.10728e-08
1.17266e-07
-1.38628e-07
-9.18749e-08
0.00212973
-2.14108e-08
-0.00115167
0.0077165
-0.0100387
-3.27282e-09
1.96215e-08
-3.1914e-05
-0.0151716
3.0675e-09
-3.12341e-05
0.000495416
-2.35157e-08
0.00153478
1.81023e-09
3.99083e-08
1.21152e-08
-4.31211e-10
-1.78446e-05
8.7019e-06
1.27655e-10
-2.40223e-08
0.000209448
0.000370764
-1.1646e-08
-5.62609e-08
-0.000807266
0.000253412
-7.9129e-10
-0.00139397
-0.00048727
9.68255e-10
1.71545e-09
2.32435e-09
4.87473e-07
8.48558e-09
7.61019e-08
0.000172377
-2.16085e-09
-2.63624e-07
0.006347
-7.49038e-07
-0.00193736
-3.4432e-09
-6.9266e-08
-0.00408086
0.00242042
-2.43847e-08
1.06302e-08
0.000150805
-0.00316981
-1.14431e-08
-9.62701e-10
0.000801612
-3.6407e-07
-1.07873e-07
1.20084e-08
-0.000183391
1.93365e-09
9.26445e-11
-1.29428e-06
4.26715e-05
-3.18846e-07
-0.000843059
-6.39256e-07
8.16954e-09
1.38305e-09
-8.94385e-07
-8.65304e-09
3.9436e-06
-0.000127862
-0.00222017
-9.74293e-09
-9.06314e-11
0.000195494
-1.36388e-08
-1.02733e-09
-8.1408e-06
9.82477e-09
-1.09918e-10
0.000138188
-1.64192e-08
-8.72149e-09
-1.45076e-07
-3.92201e-09
7.13562e-09
0.00103982
-0.00114404
2.98913e-05
3.57946e-07
0.000941817
9.56676e-08
0.00141534
-1.84909e-08
-3.00114e-08
3.72644e-07
1.68224e-05
-0.00432067
1.91383e-08
-7.87328e-09
5.1118e-06
2.15669e-09
6.56237e-05
1.94134e-07
-9.84091e-09
-1.82861e-08
-5.07041e-09
-6.27772e-07
4.52502e-09
-2.69341e-08
4.6023e-09
4.18318e-09
-7.86646e-06
2.55422e-08
-3.07744e-07
2.43868e-09
2.37978e-06
0.00010513
5.43155e-09
3.77719e-07
-8.174e-09
1.03511e-06
0.000564386
1.1494e-07
9.4461e-09
-5.83457e-10
-0.00168923
-1.09672e-09
8.75134e-09
0.00177635
1.02213e-08
-1.42539e-08
0.000355081
-1.69188e-09
1.4551e-09
-0.0119873
4.41336e-06
-9.16273e-09
0.00121949
-0.00621405
2.34939e-09
-9.06923e-09
0.000504357
2.54641e-09
-2.8281e-08
6.24086e-09
-2.74869e-09
0.00666664
-9.26173e-08
1.05279e-07
-2.20725e-10
2.86964e-08
-1.48643e-08
3.81691e-09
0.003846
-2.22406e-08
-0.000738033
-4.95774e-07
4.45152e-09
-2.0736e-09
9.72728e-05
1.34274e-05
7.09137e-09
6.21117e-08
0.000984343
-4.67846e-08
-0.000299542
0.000984893
3.0224e-08
-0.000277664
0.000399899
-1.25423e-06
1.09741e-08
2.35902e-08
3.52303e-05
8.40047e-09
-0.000430594
1.40151e-08
2.83963e-09
-0.000920337
9.62738e-07
6.53768e-08
-2.8976e-08
-0.00106459
-0.00570388
5.56113e-10
2.19366e-09
2.68543e-08
-1.70557e-08
4.78261e-09
1.27993e-09
0.00427941
-0.00436106
-2.01439e-05
9.79752e-05
3.00089e-07
1.19678e-08
-5.32637e-07
9.54722e-09
-4.14129e-10
-0.000941281
-2.36945e-09
-2.60462e-09
2.45967e-08
4.32535e-09
2.57384e-05
1.02189e-08
1.44751e-05
2.26775e-05
7.27131e-09
5.73382e-07
-4.26476e-06
-3.99208e-09
-1.25861e-09
-0.000887344
-9.31177e-10
1.17702e-07
-0.00374825
-6.8096e-07
0.000323941
1.77168e-08
0.00577578
-0.0149573
0.00405856
0.00455905
5.07802e-10
0.00295835
0.00231726
8.09337e-07
-0.0109532
9.32629e-09
-0.00105795
-0.00104347
-0.000450278
0.00122994
8.52275e-09
-0.00336614
-0.004144
-0.000295822
0.000470301
-0.000191678
-1.55365e-05
3.47823e-05
1.8946e-08
1.25099e-08
-0.000335317
4.17755e-09
3.53638e-08
5.08933e-10
0.000773217
1.06219e-07
1.27158e-08
-0.000235707
-1.89767e-08
-0.0047235
-0.00308307
-1.16464e-09
5.81206e-10
-1.5588e-09
0.00335397
0.000465295
-4.89237e-09
-1.15794e-08
7.24945e-07
2.26241e-07
4.11246e-10
4.17076e-09
7.35346e-09
-7.25171e-09
-1.13396e-09
0.000534405
1.99892e-08
-0.000276886
0.00401493
1.31075e-08
0.000427039
2.60496e-09
1.62452e-08
6.58489e-09
1.76245e-09
2.55436e-07
-9.70484e-10
1.66754e-08
0.00643262
-5.25004e-09
4.68243e-09
2.92788e-08
-1.10098e-08
3.9807e-07
-6.92936e-09
3.27076e-10
9.76294e-09
3.32419e-09
3.58577e-08
-1.47476e-08
4.35553e-09
1.05302e-07
0.000907845
-2.28219e-07
-4.62579e-09
1.33451e-09
6.08749e-09
0.00376072
-1.87619e-09
-0.000945228
2.55671e-08
-1.47416e-06
-2.65744e-09
-8.41746e-09
-1.42827e-09
3.80339e-08
0.000472743
0.000239569
-0.00494856
-1.11241e-08
-0.0148093
2.33358e-07
-0.000146908
-2.52372e-09
-0.00135794
0.00051229
6.47303e-10
0.00301776
5.46897e-06
-0.000150068
-2.73209e-07
-2.37651e-08
4.94848e-08
3.86134e-06
-6.29593e-09
0.00091669
0.00076588
8.22122e-09
-0.00375243
-1.84291e-08
1.36266e-08
0.00121574
-1.28536e-08
-5.6758e-09
0.000478445
0.00334935
6.56428e-07
-3.07447e-08
3.41814e-09
-0.0102738
1.40097e-09
-0.00202556
-1.0721e-07
1.46219e-09
-1.95011e-08
-2.72356e-08
-0.017497
0.00252947
2.33789e-08
-4.55395e-05
-8.55577e-09
-0.000351803
0.000583684
1.70308e-07
0.00365817
2.57462e-08
0.000977378
3.16677e-08
-2.28793e-08
-1.46205e-08
1.88999e-07
-0.000830467
-1.65632e-08
5.64979e-09
-5.85145e-09
0.00409045
4.56679e-05
0.00379366
0.000210557
-1.4088e-08
-1.05254e-09
0.000853508
0.0012555
-3.4459e-10
1.16933e-05
6.12022e-05
-5.30298e-07
0.0009051
0.000778411
-3.51484e-08
-2.46796e-08
1.42253e-07
0.000479388
-6.06486e-05
1.62341e-06
-1.09121e-08
7.64688e-09
0.000195221
-5.17183e-09
1.41301e-08
0.000304091
0.00322668
-1.67024e-08
7.4849e-09
-2.23263e-06
0.00201489
5.88883e-10
-1.28269e-08
1.65736e-09
-0.000214208
-3.57118e-08
-4.75193e-08
2.42463e-08
-0.000447034
-0.000323582
-7.2316e-08
0.0036495
-1.50345e-08
9.32091e-09
1.92134e-08
0.00465487
-4.46511e-07
-1.49035e-07
-0.000583121
-0.000461226
5.17956e-09
3.21802e-08
-9.13228e-09
8.33775e-06
3.64551e-07
-0.0029696
4.15901e-09
1.6281e-09
-9.3308e-08
3.74749e-05
-7.39031e-07
-0.000205013
1.68948e-05
1.30955e-06
-0.000562349
4.30844e-09
0.000447961
-1.87892e-08
-2.11769e-08
0.000363732
6.10287e-08
1.55948e-05
3.74722e-09
1.59857e-08
-6.2075e-10
0.000906673
0.000534286
-4.30359e-07
0.000155809
8.82645e-09
-0.00319693
1.08622e-08
-0.000541121
-2.17465e-08
3.65409e-09
-8.26883e-09
-3.35474e-08
-0.00133789
-6.08403e-10
6.54348e-10
9.68474e-05
-1.13553e-05
-0.00124297
-5.12531e-09
4.92096e-09
5.83559e-09
1.77078e-07
8.3417e-07
-2.10196e-08
2.2719e-09
-0.0005736
-0.000223849
0.000443812
0.00178436
4.41321e-08
-0.000349719
0.000618435
1.80927e-08
-9.41935e-09
-0.000512506
-2.71258e-07
0.00427224
2.30239e-09
0.000859648
-1.25668e-08
-3.71043e-09
-2.0184e-06
-0.00509853
-7.20815e-09
0.000984163
-2.76721e-08
-1.2524e-08
0.000741108
1.41962e-08
-6.21882e-08
1.11695e-08
-1.75676e-08
2.04288e-07
-2.39805e-05
0.000775058
-1.00606e-08
9.78051e-09
-0.000148447
-6.90737e-06
-3.29484e-05
-2.99761e-08
-0.00695522
-2.58149e-09
1.60085e-08
-0.00188846
-3.39252e-05
3.21292e-09
0.000269192
-0.0010354
-3.20994e-09
0.00011822
1.039e-07
4.45656e-09
-7.93403e-07
1.31492e-07
0.00130315
-3.01104e-08
1.47583e-09
5.18105e-05
-9.54971e-09
8.10778e-09
9.24756e-09
-9.12499e-08
-0.00287409
4.56914e-09
-1.34996e-07
1.92419e-08
0.000533854
8.83409e-11
-5.6033e-07
-0.00521434
8.36444e-09
0.00230443
0.000275562
0.00256774
0.00020615
-2.704e-08
-1.10607e-08
-8.58132e-07
-1.71092e-06
6.09971e-09
-1.35534e-08
3.31343e-06
9.74902e-06
-7.37849e-05
4.07949e-09
-7.85632e-09
0.00266685
1.93885e-08
-0.00136695
-9.90722e-10
-2.74829e-09
-3.07208e-09
-3.42302e-09
-0.00147248
-9.14967e-09
1.84986e-09
-9.31386e-09
2.78576e-07
-1.69975e-09
-4.99235e-07
5.21405e-09
1.75443e-08
0.00846073
1.40631e-05
-1.08772e-08
-8.58536e-09
3.3926e-08
4.40887e-08
5.45317e-08
0.00029212
4.75016e-09
-0.000326798
-2.84234e-09
-0.00657939
-3.72382e-09
3.97281e-09
1.27189e-10
2.23732e-08
-8.46988e-07
3.19984e-09
2.11078e-07
-8.01509e-09
4.55391e-07
2.17607e-08
1.31551e-08
1.79656e-08
2.18e-08
-0.00232639
-0.000879526
0.00101509
0.000926761
7.2985e-09
-9.0535e-08
-6.47864e-09
-0.00241268
-0.000411043
1.65698e-08
-0.00151792
4.68907e-06
-7.22249e-05
0.00125385
1.52657e-10
3.19635e-05
1.5757e-08
-7.85704e-08
-0.000618647
-1.07862e-08
-7.70881e-09
0.00170439
0.00103726
-4.13652e-09
9.69787e-10
2.4014e-08
-1.91921e-08
-0.000527901
-6.87646e-07
8.03332e-09
-0.000338561
-0.000279998
-0.00285439
5.75173e-07
0.00106702
-4.83027e-08
-0.000770558
0.00410507
0.00351354
-2.56447e-09
0.000187364
1.42205e-08
-2.35636e-08
0.000268419
-6.80934e-07
0.00141167
8.26016e-10
0.00571036
-0.00177005
2.23081e-09
4.28777e-09
-2.68468e-09
2.4482e-07
2.53515e-08
-9.12202e-07
0.00221201
-0.00041143
5.33039e-05
0.00100832
-5.96587e-09
-2.63565e-08
-3.1197e-05
-0.00317442
1.38491e-08
2.94914e-08
9.44831e-08
5.27094e-06
4.82114e-09
-2.21693e-09
-0.00177095
0.000347293
-0.00149572
-1.34655e-09
-0.000634218
1.96388e-09
3.90316e-09
8.9438e-09
-0.000369165
5.9731e-06
1.49113e-07
4.68709e-09
0.000569965
2.40429e-09
1.61569e-08
-0.000372694
-0.000336159
-1.00925e-08
-1.249e-08
1.08416e-08
2.44298e-08
5.61106e-08
-9.47755e-09
-4.17037e-09
-0.00120899
3.78292e-08
-6.30382e-09
4.99772e-09
1.32338e-07
-1.69874e-09
9.23617e-05
-0.00734156
5.59195e-08
0.0028327
1.92054e-06
-0.000773291
-0.000117188
-1.54563e-08
4.09465e-05
4.34138e-09
3.0283e-08
0.00063289
-5.7509e-05
-6.37604e-09
3.61967e-05
-0.00228774
0.000874071
9.7457e-07
0.000221091
0.000319931
-8.18584e-09
0.00104433
-1.84565e-08
0.00520563
6.24243e-09
1.69876e-08
2.25348e-07
0.000457364
1.62257e-09
-3.17747e-09
2.39279e-08
-3.40113e-09
0.000417912
-4.87171e-09
-2.08978e-06
1.39822e-08
3.60769e-10
-0.000976722
-4.07647e-09
-1.16508e-05
-2.49721e-09
7.95699e-07
0.000674748
-7.16333e-09
0.000787881
-7.64009e-09
-0.00110609
0.000439424
0.000886291
-1.76185e-09
7.36001e-05
-1.58848e-08
4.86694e-08
4.77141e-09
7.75549e-09
-0.00277457
-1.64899e-05
0.000724013
-7.64413e-07
-4.88697e-08
-2.56146e-09
-0.000219945
0.00954001
0.000400264
-0.00361707
1.0915e-08
0.00285599
0.001486
4.47294e-09
0.0106166
1.56388e-08
-0.000473376
1.84844e-08
-8.79159e-09
0.00422798
6.53287e-10
6.57994e-08
2.2386e-08
-0.000135147
-9.23339e-10
-1.9073e-08
-6.04455e-10
-4.30183e-09
1.69278e-09
0.00782104
0.000524597
-2.93891e-07
3.84914e-06
3.29706e-07
0.000698267
-1.22114e-09
4.70817e-07
4.65953e-05
0.00585533
9.25569e-09
1.35183e-08
0.0019694
3.23116e-09
0.00371219
1.15566e-09
2.11627e-08
6.85826e-09
0.000176746
0.000497157
1.15863e-08
0.00322737
0.000202953
-1.49885e-08
3.12628e-09
5.27548e-09
2.1734e-08
-0.00568832
0.000348981
8.27592e-06
-1.29689e-06
2.2715e-07
1.94933e-07
2.50258e-10
-0.000243858
0.000173116
5.10388e-09
1.48746e-09
-0.000900138
3.25572e-08
-3.34997e-09
5.85254e-08
0.00204939
0.000708568
3.21802e-06
-1.31781e-08
9.71508e-08
0.000639631
2.50165e-10
5.40975e-09
0.000181223
7.13157e-09
9.19967e-05
-6.55266e-09
-1.02968e-08
4.02262e-09
-0.000458218
-2.73356e-07
-1.46549e-08
5.54751e-07