/*--------------------------------*- C++ -*----------------------------------*\
| =========                 |                                                 |
| \\      /  F ield         | OpenFOAM: The Open Source CFD Toolbox           |
|  \\    /   O peration     | Version:  v2012                                 |
|   \\  /    A nd           | Website:  www.openfoam.com                      |
|    \\/     M anipulation  |                                                 |
\*---------------------------------------------------------------------------*/
FoamFile
{
    version     2.0;
    format      ascii;
    class       volScalarField;
    location    "150";
    object      nut;
}
// * * * * * * * * * * * * * * * * * * * * * * * * * * * * * * * * * * * * * //

dimensions      [0 2 -1 0 0 0 0];


internalField   nonuniform List<scalar> 
18618
(
0.00334842
0.0305763
0.000427511
0.0291894
0.000440108
0.000424673
0.000462768
0.0292071
0.000439079
0.000450257
0.000456286
0.000427607
0.0295448
0.000431993
0.000440243
0.000430081
0.000438677
0.0344212
0.000438393
0.000445906
0.000429018
0.000427237
0.000430021
0.000498288
0.00044559
0.000494878
0.00227216
0.000438657
0.000430884
0.000436329
0.000445395
0.000457022
0.00044896
0.000528589
0.0145906
0.00044421
0.00044627
0.000643552
0.000451071
0.000436037
0.002017
0.00123176
0.00043067
0.0287139
0.000440054
0.000452529
0.0264634
0.000429172
0.000657909
0.0285367
0.000438796
0.000443346
0.0198073
0.00133849
0.000440236
0.0362127
0.000432168
0.000445939
0.000524135
0.000450213
0.000435749
0.00043865
0.000445916
0.000447148
0.000578443
0.0186096
0.000431179
0.000461626
0.00043179
0.0056931
0.000456186
0.00142125
0.000485752
0.030761
0.000448546
0.000460623
0.000545517
0.0289887
0.000431658
0.0376452
0.0319887
0.0337724
0.030308
0.000452142
0.000448906
0.000430498
0.000514169
0.000450392
0.000466936
0.0343198
0.000485757
0.000508926
0.0289676
0.000555959
0.0134269
0.000460684
0.000446661
0.00316576
0.000432108
0.000427674
0.0120351
0.000447396
0.000541692
0.000457595
0.000518015
0.0318102
0.000438314
0.000429899
0.000573991
0.000429297
0.00183237
0.000439395
0.000451142
0.000437029
0.000442819
0.000427728
0.000432184
0.0177392
0.000444249
0.00058941
0.00636042
0.000450773
0.0366304
0.0340468
0.00519414
0.000531239
0.00139209
0.0321862
0.000457873
0.000519834
0.000533287
0.000439591
0.0323308
0.000515341
0.000442857
0.000435656
0.000448012
0.000450561
0.0368923
0.000434781
0.000451807
0.000436957
0.000439328
0.000446679
0.000430333
0.00049097
0.000446421
0.000438541
0.0307956
0.00046304
0.000432045
0.018163
0.0377083
0.000429987
0.000436645
0.0111065
0.0231806
0.00361316
0.000509015
0.000428508
0.000428083
0.0090633
0.000450677
0.000560274
0.000432547
0.00314908
0.000436751
0.000433398
0.0320474
0.000451184
0.000448727
0.00042804
0.000539544
0.000492516
0.00397951
0.000461113
0.000417093
0.0320294
0.000428099
0.000431715
0.00047804
0.000494967
0.000444018
0.000443319
0.00210541
0.000447162
0.000443961
0.000475464
0.000414527
0.000435808
0.000447623
0.000489623
0.00707558
0.000435763
0.000577876
0.00044587
0.000479449
0.0117416
0.000453016
0.0318619
0.000518518
0.0191777
0.000450916
0.000453943
0.0321843
0.027992
0.0367437
0.0161225
0.000451821
0.0339946
0.000489576
0.000450427
0.0221473
0.0153407
0.000443314
0.000443715
0.000455016
0.03214
0.000450966
0.0245813
0.000447961
0.000451695
0.000446176
0.000823755
0.000466244
0.000465737
0.00044807
0.000432336
0.011943
0.000504544
0.0331321
0.000557027
0.000455688
0.000461369
0.000445493
0.000514504
0.00045016
0.000440506
0.000443644
0.00670754
0.000474836
0.000455294
0.000451226
0.000465622
0.0118091
0.000443467
0.000502953
0.0225139
0.000451148
0.000457296
0.0188359
0.00045173
0.000454026
0.0355269
0.000451725
0.000431142
0.000451772
0.000515142
0.00043818
0.000497148
0.000825081
0.000451742
0.000543065
0.0360747
0.000445804
0.000449394
0.000469867
0.000483223
0.000451623
0.000455411
0.000460974
0.000428357
0.000436247
0.000438923
0.000428994
0.00314735
0.000442384
0.000429115
0.0322078
0.000435922
0.000451562
0.0004284
0.0374916
0.0236108
0.000465049
0.0121173
0.000436953
0.000487113
0.000427038
0.000555152
0.000435482
0.000451452
0.000445885
0.000436875
0.0235865
0.00043049
0.000438285
0.000450708
0.00645686
0.0155619
0.00355237
0.0332614
0.0369332
0.000502946
0.000510597
0.0319566
0.010842
0.000443212
0.000451018
0.000492544
0.000442182
0.000490386
0.000451476
0.000436187
0.000462489
0.0108058
0.0349894
0.000435869
0.000449496
0.000453331
0.000506359
0.000584969
0.00047427
0.010804
0.000449507
0.000445217
0.0147459
0.000428965
0.000501101
0.000435824
0.000434843
0.000436912
0.000486993
0.000442001
0.000440564
0.000449788
0.000555415
0.00043915
0.0312434
0.033424
0.000435048
0.0321744
0.000439542
0.000426445
0.000431775
0.000485318
0.000452922
0.000497534
0.00938563
0.000451882
0.00605655
0.00051401
0.000451666
0.0004498
0.00317358
0.000637823
0.000432265
0.00102666
0.00042853
0.000489664
0.0086805
0.0384516
0.000857538
0.000452737
0.0388628
0.0175468
0.000435414
0.00045547
0.000447932
0.00043028
0.000442058
0.000450395
0.00672395
0.00599325
0.000427203
0.000443481
0.0133245
0.000439182
0.000497707
0.000583163
0.000463882
0.000456113
0.0311868
0.0154655
0.000438235
0.000450668
0.000432618
0.00102172
0.000428787
0.000449632
0.000429005
0.000500477
0.000452445
0.00042905
0.0321456
0.0269418
0.000580266
0.0374284
0.000432371
0.000451866
0.000450644
0.00976254
0.000513141
0.0120598
0.000432644
0.0305662
0.000447646
0.000463371
0.000439149
0.000484787
0.000442458
0.0315317
0.0404146
0.000634491
0.000442843
0.00090676
0.000437115
0.000460171
0.000451084
0.00341998
0.000450562
0.000451447
0.000443123
0.0118906
0.00835849
0.00042884
0.000451848
0.000526574
0.00043818
0.000455792
0.000435659
0.000439085
0.000447846
0.000503938
0.000482512
0.000451005
0.000533542
0.000442437
0.0291621
0.000448472
0.000659185
0.0390991
0.000435792
0.000435439
0.0321339
0.00045986
0.0333591
0.0240028
0.000449254
0.000469793
0.000449855
0.0358951
0.0360635
0.000451139
0.000632685
0.0333447
0.000445506
0.0124603
0.00042923
0.0330042
0.035034
0.000453976
0.03984
0.000434161
0.00172537
0.000504612
0.0174329
0.000452189
0.0101973
0.000443269
0.000429548
0.000438421
0.000547049
0.000495537
0.000445159
0.000432205
0.000432165
0.0396853
0.0260741
0.000444206
0.03479
0.00132762
0.000454033
0.000444364
0.000434091
0.0121441
0.000446292
0.000462799
0.00174072
0.0363087
0.000835733
0.000429489
0.000443827
0.000471461
0.0150473
0.000439833
0.0285408
0.000444173
0.000431257
0.000458052
0.0315579
0.00045585
0.00525831
0.000447687
0.000450362
0.000465052
0.000437409
0.000462014
0.000438041
0.0100818
0.0014312
0.000820166
0.000455416
0.000449665
0.000432016
0.000444613
0.0329712
0.000481139
0.00388246
0.000438772
0.0143168
0.000449959
0.000445805
0.000519192
0.036461
0.000483089
0.000430653
0.000457407
0.000462564
0.0102454
0.000437148
0.000518256
0.00044779
0.000429177
0.000444122
0.0375671
0.000597293
0.000442507
0.0341469
0.0311676
0.0330232
0.00691995
0.000454994
0.0219095
0.000491108
0.000451458
0.00456183
0.03662
0.000564357
0.000527221
0.000490088
0.000443489
0.000451519
0.000604312
0.000593326
0.000444253
0.000432624
0.000569585
0.000464259
0.000470865
0.000459564
0.00663726
0.000449551
0.0108982
0.000453501
0.000450853
0.000669198
0.000447706
0.000452174
0.0263499
0.000450197
0.0315393
0.000498509
0.0151019
0.000506361
0.000472333
0.0254923
0.00044754
0.000441309
0.000508368
0.000442326
0.000429959
0.0260394
0.000383234
0.000452307
0.000457171
0.000451743
0.000441457
0.000429186
0.000499123
0.000454481
0.0321116
0.000450078
0.0137282
0.000452783
0.0342201
0.000440335
0.000431621
0.0215806
0.000450663
0.00915016
0.000432035
0.00067641
0.000480033
0.000451456
0.000453672
0.0102597
0.000434784
0.000441074
0.000431576
0.000429203
0.0161815
0.000444164
0.000434444
0.0143314
0.0157467
0.000454174
0.0219426
0.000453715
0.000446363
0.000494373
0.000452465
0.000457449
0.0359586
0.000451161
0.000531168
0.000455361
0.0311088
0.0251059
0.000430058
0.00043207
0.000445309
0.0270376
0.000455539
0.0323958
0.000447263
0.00043108
0.000434679
0.00043779
0.000432531
0.000437047
0.000479223
0.000539538
0.0245994
0.000434673
0.000453864
0.0197748
0.00044495
0.000440467
0.029171
0.0004886
0.000460913
0.000444499
0.000444099
0.00265318
0.000450724
0.0125343
0.000455432
0.00045066
0.000474527
0.000462376
0.000451509
0.0162035
0.0103515
0.0312451
0.000631796
0.000445279
0.000491262
0.0241498
0.000436743
0.000502632
0.00042824
0.000464327
0.000514004
0.024811
0.000431853
0.0272538
0.00044904
0.00769718
0.000449324
0.00051351
0.000498915
0.000568568
0.029693
0.00600559
0.000427941
0.0391904
0.000431749
0.0320972
0.000450295
0.00051226
0.000452419
0.000452232
0.000454204
0.000443657
0.000447424
0.000510274
0.000445684
0.000428276
0.000434204
0.000447119
0.000466305
0.000427981
0.000428253
0.00317029
0.000435855
0.0130722
0.000449992
0.000455675
0.000437007
0.000499613
0.000427699
0.00177821
0.00044498
0.0381266
0.000494616
0.000450604
0.000428363
0.00043834
0.000428144
0.000449736
0.000445232
0.000448916
0.0324101
0.000438596
0.0356299
0.0233434
0.000660116
0.000427685
0.000438341
0.0252413
0.0225638
0.022506
0.00115231
0.00802594
0.0270811
0.00719492
0.000470284
0.0360325
0.00044488
0.000503209
0.000430721
0.000582928
0.000445186
0.000452172
0.000496622
0.000443373
0.0294416
0.000441083
0.000513235
0.000565684
0.0389421
0.000990917
0.000583582
0.0100087
0.000465617
0.000444509
0.00043432
0.000445815
0.032692
0.0275724
0.000442849
0.00043674
0.0218109
0.000481983
0.0109911
0.000449539
0.000503235
0.000454256
0.0174129
0.000451641
0.000436149
0.000429031
0.000438051
0.000443558
0.000445304
0.000451613
0.0319779
0.0326093
0.00043662
0.0301629
0.000432662
0.0259241
0.000994826
0.014848
0.000429105
0.00046206
0.0390584
0.00042887
0.0350304
0.000449816
0.000430849
0.000458379
0.00044777
0.0383649
0.000448011
0.000435183
0.000566219
0.000450104
0.000470899
0.000445267
0.0386886
0.000430805
0.000447593
0.000443643
0.00045096
0.000463728
0.000456643
0.000454045
0.000451851
0.0134664
0.000458893
0.000426732
0.000447081
0.000436714
0.000447469
0.000530623
0.000484753
0.0311215
0.00044665
0.000452963
0.00180069
0.000444033
0.0277316
0.00052942
0.00042676
0.000446811
0.0112338
0.000445302
0.000457008
0.000441899
0.000445471
0.000449523
0.000450411
0.0382465
0.000460612
0.000463068
0.000446874
0.022721
0.000694238
0.000449004
0.000445986
0.0110114
0.000443722
0.0384743
0.000435089
0.000446976
0.00957597
0.000450424
0.016544
0.000478579
0.0336715
0.000449292
0.000433506
0.000438301
0.000457867
0.000451353
0.000450448
0.0235324
0.0391179
0.000448744
0.000927903
0.0332574
0.0270524
0.0303124
0.000519409
0.000273767
0.000427581
0.03088
0.00043101
0.000619449
0.000478418
0.034422
0.000428761
0.000447369
0.000434454
0.000437894
0.011125
0.000454657
0.000228654
0.000438315
0.000479895
0.0397112
0.000451471
0.000438916
0.000444493
0.0157456
0.0143373
0.0227325
0.000576834
0.000446001
0.0408005
0.000447078
0.000439093
0.000478774
0.000512012
0.000560144
0.000529945
0.0116807
0.0080153
0.00043519
0.000536543
0.0322741
0.0317652
0.0204896
0.0299638
0.0300813
0.000521451
0.000574441
0.0395527
0.000451174
0.000455519
0.000448417
0.0246052
0.0210156
0.0375365
0.000453304
0.000311282
0.000439478
0.000447181
0.000438427
0.000458453
0.000446939
0.000689441
0.000448808
0.0415634
0.000450739
0.000443396
0.000447529
0.0343755
0.00580932
0.000455264
0.0258857
0.000448182
0.00862627
0.000446373
0.000480208
0.000450408
0.000439261
0.000436253
0.000454079
0.0341402
0.000427485
0.000429578
0.0341368
0.0300348
0.000489291
0.000450864
0.000447146
0.0399099
0.000433524
0.00045254
0.00709907
0.0004471
0.0177584
0.000433822
0.000453338
0.000450298
0.027448
0.000450564
0.000449109
0.000448635
0.0279538
0.000452871
0.000433715
0.000455007
0.000449176
0.033326
0.000436172
0.0265571
0.000439153
0.000474779
0.000652294
0.00044782
0.00043368
0.000437795
0.000438288
0.000467016
0.0414021
0.0283929
0.000535673
0.000482609
0.000444654
0.000460261
0.000446818
0.000448335
0.00058026
0.000433016
0.0327448
0.00044572
0.000432893
0.000568775
0.000434325
0.000445758
0.000625106
0.000445917
0.000431337
0.000442793
0.000436097
0.000449976
0.00043371
0.000450052
0.00064996
0.000441944
0.000851119
0.0106631
0.000755284
0.000448383
0.026474
0.000441163
0.000449364
0.000542126
0.0105503
0.000443145
0.000492095
0.000435928
0.000430637
0.000443195
0.000426415
0.000448002
0.000451484
0.00045204
0.000620567
0.0172968
0.00043825
0.000432554
0.000450442
0.000880988
0.000449689
0.0405832
0.000460694
0.00047971
0.000445307
0.000447116
0.000721984
0.000929319
0.000438137
0.000430878
0.000436052
0.00044805
0.0332762
0.000438441
0.000456281
0.000459768
0.00042984
0.000692255
0.00044402
0.000438536
0.000455415
0.000432671
0.034049
0.000604087
0.000431529
0.0120557
0.000443304
0.000593808
0.00044444
0.000452376
0.000451167
0.0152832
0.000438297
0.00043845
0.000463363
0.000453423
0.0012429
0.000435139
0.000704171
0.000447494
0.000449716
0.000449218
0.0323053
0.00272908
0.000432568
0.00816267
0.00045407
0.00053611
0.0212891
0.000940585
0.0345161
0.0247226
0.0320195
0.000437527
0.00961294
0.0059674
0.0373087
0.00045637
0.0205236
0.0126658
0.000438397
0.000452499
0.0190602
0.000439052
0.0364435
0.000452251
0.0407912
0.0263229
0.0237695
0.000453899
0.000452861
0.000466496
0.000448339
0.0165599
0.000456443
0.000443554
0.00047144
0.000455618
0.00022452
0.0110603
0.000451675
0.000432913
0.000432083
0.0190541
0.0170293
0.000540913
0.000428821
0.00443496
0.000458089
0.000427911
0.000431856
0.00042991
0.000447108
0.000438157
0.011786
0.0143857
0.000427275
0.000485802
0.00257947
0.013259
0.000442586
0.000440341
0.000449829
0.0171048
0.000447925
0.0396508
0.000472939
0.014062
0.00045125
0.000431646
0.000445787
0.000430427
0.000508019
0.000430177
0.000431583
0.000438773
0.0113453
0.000972506
0.000429653
0.000444678
0.000451202
0.000451533
0.00176152
0.000440806
0.000447095
0.0040326
0.000447763
0.0360689
0.0102826
0.000471139
0.0151382
0.0165678
0.0230993
0.00055192
0.0109318
0.0004501
0.000446244
0.000450502
0.000438096
0.00111012
0.000455855
0.000447767
0.000446785
0.000446989
0.000607064
0.000448753
0.0308381
0.000452596
0.00047237
0.000440912
0.000435829
0.000453455
0.000511775
0.000446286
0.000441359
0.000442831
0.000431667
0.000853865
0.000458073
0.000431209
0.000454103
0.000457625
0.000427474
4.80579e-05
0.0291498
0.000687272
0.000445804
0.0004383
0.000598324
0.0307701
0.00222509
0.000481807
0.000444279
0.0414183
0.000486397
0.000449728
0.000452333
0.0111423
0.000437281
0.0306653
0.000449136
0.000452151
0.000479153
0.000429884
0.00043736
0.000427524
0.0162162
0.000457881
0.0310511
0.000451899
0.0304958
0.000509688
0.000437803
0.000434589
0.001382
0.000447755
0.0395902
0.000515648
0.00086366
0.000489749
0.000521897
0.000488271
0.000441193
0.0255201
0.000440888
0.00240678
0.0324573
0.000437629
0.000549938
0.000544965
0.0322579
0.00388512
0.00045005
0.0287732
0.000435919
0.0308125
0.000482047
0.0273103
0.00931594
0.000437582
0.000447261
0.0020801
0.000532717
0.0351711
0.00411747
0.000427575
0.000432602
0.000452945
0.000458262
0.000450909
0.0198709
0.000449243
0.0314852
0.000438271
0.000506147
0.000452098
0.000617655
0.000427056
0.00401838
0.0004293
0.000485818
0.000426636
0.000440586
0.000438398
0.000476325
0.000449446
0.000450049
0.0253247
0.000439007
0.000432097
0.0143718
0.000445255
0.000516811
0.0310976
0.0185727
0.00044882
0.000432594
0.000466659
0.0230885
0.00045676
0.000447644
0.000473729
0.00521955
0.000427838
0.00825656
0.000456713
0.00556403
0.000490395
0.000447691
0.000453689
0.000460078
0.022491
0.0201282
0.0186149
0.000448912
0.0190814
0.0301032
0.0348014
0.000438219
0.000443067
0.000482417
0.000440066
0.000437768
0.000431902
0.000442944
0.000444838
0.000432279
0.000431534
0.000440042
0.000431302
0.000430253
0.00045279
0.000440262
0.0317221
0.000454301
0.000427727
0.0123049
0.000456791
0.012878
0.0225438
0.000584049
0.0208206
0.000438819
0.00444689
0.000442814
0.0239676
0.000437901
0.00570014
0.000584262
0.0364712
0.000438246
0.000446644
0.0015244
0.000561619
0.000536169
0.000429186
0.000446762
0.0235031
0.000461247
0.000457563
0.000443943
0.000435708
0.0329989
0.000449627
0.000446069
0.000551188
0.00562806
0.0248148
0.000452061
0.000433269
0.000445882
0.000429723
0.000432064
0.0396789
0.0178684
0.000426378
0.00043739
0.00453934
0.000456889
0.000440324
0.000442144
0.000465239
0.000438814
0.000426571
0.000441284
0.00044472
0.000434105
0.000457777
0.0166492
0.025015
0.000459994
0.000444457
0.00043264
0.0326026
0.000646526
0.000471036
0.000433674
0.000589308
0.000447099
0.000438983
0.000431338
0.000436526
0.000603009
0.000445165
0.0286765
0.0153197
0.021109
0.000434324
0.000512429
0.00897018
0.0211268
0.0186354
0.0247875
0.000449612
0.025387
0.000453125
0.000573757
0.000441653
0.015972
0.000436878
0.000459466
0.000451797
0.00459968
0.000442934
0.0254745
0.00405506
0.000451902
0.000431121
0.00046269
0.000450717
0.000449299
0.000453227
0.03096
0.000440439
0.000454955
0.000432662
0.038986
0.000454765
0.000443731
0.000449257
0.000435251
0.000452407
0.0306159
0.000454768
0.000449249
0.000434203
0.023742
0.00043863
0.0195608
0.000436518
0.000432771
0.00526204
0.000439192
0.000449175
0.000435112
0.000432463
0.000462562
0.000443601
0.000455312
0.0185848
0.00045434
0.0004413
0.00048847
0.0178961
0.000436167
0.000626468
0.000429667
0.0114639
0.000435094
0.000444846
0.0111664
0.000437618
0.00044868
0.000443112
0.038789
0.0352999
0.000435566
0.017358
0.000427039
0.000431809
0.0361865
0.000445738
0.000453626
0.000472641
0.000483666
0.000495488
0.000517036
0.000440568
0.000457259
0.000431742
0.000788355
0.0116291
0.000453022
0.000455177
0.000430503
0.0162884
0.000450894
0.0190552
0.0372766
0.000451805
0.000429527
0.000476346
0.000614055
0.000930041
0.000429826
0.000426374
0.000523877
0.000447295
0.000433341
0.000458522
0.0215045
0.000456609
0.0315508
0.000430212
0.0212901
0.000426897
0.000462341
0.000928418
0.00212718
0.017339
0.000438743
0.000438767
0.000526245
0.0004347
0.000440665
0.00372319
0.0139399
0.00051694
0.000432617
0.0375964
0.0223539
0.0301788
0.000453281
0.000441732
0.000447641
0.000456749
0.00357519
0.000458989
0.000430688
0.0347394
0.0113791
0.0119326
0.000471488
0.000439217
0.000667145
0.0383825
0.0338484
0.0121508
0.000440603
0.000521446
0.000444978
0.0187468
0.002992
0.0324197
0.00048757
0.0358012
0.00043071
0.000435138
0.00044996
0.0324169
0.000443406
0.000441056
0.0153308
0.000457576
0.000463365
0.00043422
0.000449415
0.000452255
0.00885827
0.000823532
0.000438564
0.000446815
0.000457793
0.000525041
0.000450565
0.000453098
0.00258351
0.000446023
0.0134323
0.0245463
0.00691098
0.000439876
0.000448848
0.0333161
0.00738843
0.000437326
0.0302574
0.0338349
0.000444517
0.0320847
0.000451717
0.000452581
0.000476374
0.000450548
0.0287078
0.00042377
0.00043854
0.000448047
0.00092752
0.0305198
0.000451158
0.000457665
0.0379758
0.0363534
0.000442472
0.0114811
0.0148099
0.000431639
0.000435235
0.000453317
0.000588678
0.000448685
0.000513446
0.0323288
0.000434022
0.000503551
0.0140574
0.000513368
0.00296799
0.00043754
0.000534794
0.0343023
0.0279852
0.00045608
0.000456454
0.0325212
0.0291491
0.000442539
0.000438443
0.00109365
0.000485232
0.000474605
0.000453338
0.00821419
0.000430886
0.000441343
0.000716836
0.000416676
0.000481574
0.0119555
0.000568606
0.000448463
0.000443425
0.00052852
0.00043817
0.000593548
0.0256091
0.0207323
0.00044036
0.000445436
0.000478091
0.000449557
0.000429452
0.000692029
0.00044353
0.000451254
0.032711
0.000453073
0.00044431
0.00056357
0.000487101
0.000457427
0.00906811
0.0228965
0.000147379
0.000476086
0.0359549
0.000513998
0.00304082
0.000444552
0.000455161
0.000481576
0.00020547
0.0394668
0.000456278
0.000437454
0.000604846
0.000465884
0.000228822
0.000510546
0.000439987
0.000452849
0.00045583
0.000506246
0.000431692
0.000448398
0.000448366
0.000502008
0.0289479
0.000455246
0.000501411
0.000447914
0.000553011
0.000466462
0.000457758
0.000485757
0.00044224
0.000590761
0.0340397
0.000496481
0.000444643
0.000443787
0.0404984
0.000440905
0.000453894
0.0292249
0.000450152
0.000454976
0.0288585
0.000449166
0.000436008
0.0256524
0.000503115
0.000453163
0.00741657
0.00916848
0.000434726
0.000459222
0.0332925
0.000453983
0.000455695
0.000443994
0.000453455
0.00594757
0.000476041
0.000488907
0.000426346
0.000455023
0.000458099
0.000429335
0.0311142
0.000448574
0.0116083
0.000718182
0.000432552
0.000450114
0.0203941
0.000657669
0.000448803
0.00045293
0.0268409
0.000454383
0.0149204
0.0296576
0.000452417
0.0130871
0.0278157
0.000564387
0.000449081
0.000447099
0.000930064
0.000452489
0.0375071
0.000472479
0.000435866
8.22071e-05
0.000546587
0.000480038
0.000455202
0.0217651
0.0267509
0.000443721
0.000443869
0.000445174
0.000505062
0.000452461
0.000435455
0.0160746
0.0278287
0.000280415
0.0220301
0.000535884
0.00044949
0.000468509
0.000436769
0.000426163
0.0238694
0.000444372
0.000457601
0.00047027
0.00045008
0.0189316
0.000450378
0.0200527
0.0168498
0.000475046
0.000521995
0.000705133
0.000441376
0.000451702
0.0381122
0.00042886
0.000518944
0.0376468
0.000525342
0.000541581
0.000431492
0.00688313
0.0234421
0.011028
0.00836423
0.000427794
0.0163511
0.00245765
0.000611336
0.0120583
0.000450029
0.0390797
0.0108639
0.0194336
0.0167063
0.000443697
0.0303384
0.00637891
0.0168315
0.0153993
0.0195963
0.0301348
0.0277449
0.000454252
0.000450208
0.0149717
0.000435772
0.000450314
0.000428125
0.0166459
0.000488668
0.000452272
0.0363608
0.0004442
0.0149274
0.00307809
0.000469346
0.0004355
0.000428727
0.017974
0.0334674
0.00043797
0.000449107
0.000504606
0.00049286
0.000462263
0.000437545
0.000453034
0.00044127
0.000435381
0.024838
0.000474226
0.0137028
0.00883607
0.000441616
0.0347764
0.000443165
0.000450323
0.000441148
0.000437902
0.000504928
0.000439592
0.000442656
0.0102983
0.00044346
0.000461733
0.000448699
0.000444492
0.000605643
0.00044906
0.000427804
0.000438521
0.000454197
0.000445957
0.000439609
0.000433742
0.00051587
0.0347799
0.000475714
0.00045252
0.000450264
0.000447699
0.0302029
0.000446663
0.0120718
0.000449292
0.000543065
0.00043042
0.000444844
0.000437764
0.00045272
0.0191415
0.0314738
0.0382094
0.000439759
0.010639
0.000538075
0.0196732
0.00043472
0.00583511
0.0341705
0.000433678
0.00210081
0.0303616
0.0294241
0.000477403
0.00045021
0.000446792
0.000586053
0.00044649
0.0344128
0.00673782
0.000455774
0.00464477
0.000444618
0.00043099
0.00815859
0.000450301
0.000446725
0.0327972
0.0398879
0.000539194
0.000448732
0.000445019
0.0140007
0.000441983
0.00667868
0.000457746
0.000431817
0.000455671
0.000451208
0.0132496
0.0047375
0.000451831
0.000952897
0.000442253
0.0269126
0.0230928
0.000555819
0.0198462
0.00045314
0.0215974
0.000454786
0.000454239
0.000456482
0.000444573
0.01157
0.000449752
0.000439392
0.000436359
0.00310511
0.000899849
0.038211
0.00209893
0.000445575
0.00044866
0.0231523
0.0249901
0.000446594
0.000431997
0.0308415
0.000763027
0.0092723
0.011111
0.000525945
0.000456193
0.00044408
0.0355789
0.0189459
0.000547375
0.000442639
0.000451782
0.0344907
0.000447971
0.000430225
0.0296431
0.0303153
0.000479703
0.00045614
0.000532599
0.00343144
0.000433645
0.000445541
0.000436202
0.000613515
0.00045636
0.00052839
0.000449019
0.0183819
0.0233139
0.000664782
0.0386296
0.000459191
0.000451371
0.000514666
0.0143787
0.000525787
0.000441758
0.0159099
0.0116078
0.000436346
0.000461225
0.000449885
0.000437496
0.000517933
0.0390813
0.000449766
0.000465219
0.000485189
0.000652611
0.000847981
0.000748084
0.000767878
0.000442412
0.0168983
0.000449285
0.0354623
0.000468064
0.000467021
0.0298123
0.000453482
0.000738147
0.000427522
0.000448815
0.000448839
0.00157568
0.0334708
0.000498165
0.032752
0.000428651
0.0170111
0.000430652
0.0178793
0.000448007
0.000437305
0.000435083
0.000449545
0.0125967
0.000471126
0.000460125
0.0319717
0.0198412
0.0362994
0.000435648
0.000449488
0.000458967
0.000507718
0.000565286
0.000448962
0.000449007
0.0171526
0.0268769
0.034981
0.00242989
0.000452932
0.0212883
0.00112385
0.00044893
0.000444361
0.0137422
0.000484101
0.00731738
0.00043557
0.0267302
0.000447076
0.000435505
0.000827422
0.0168948
0.000451417
0.0234175
0.000522517
0.000448603
0.0355719
0.000454589
0.000461495
0.000445046
0.0004478
0.000497311
0.000536564
0.0335126
0.000459393
0.00044949
0.0263132
0.000698508
0.000704429
0.00044985
0.00535111
0.000439547
0.000484743
0.0169902
0.0289504
0.000460317
0.00633442
0.0107754
0.000449763
0.0321344
0.00048689
0.000435564
0.000517178
0.000639589
0.0246562
0.000508813
0.000440845
0.000435245
0.000435128
0.000436817
0.000438053
0.000462602
0.0376528
0.000486978
0.00056285
0.000452133
0.0267041
0.000455899
0.00050438
0.0137855
0.000445862
0.0177716
0.0351183
0.00628155
0.0321218
0.00045285
0.000450054
0.000522843
0.000514935
0.000431325
0.000439664
0.00076701
0.00110488
0.0318567
0.000439828
0.000458435
0.00215155
0.000450639
0.0366793
0.000444016
0.000439204
0.00045673
0.000440418
0.00623274
0.00045034
0.000449564
0.000437121
0.000505295
0.000430434
0.000725871
0.000450422
0.000450334
0.0198393
0.000938662
0.000494428
0.000447798
0.00045571
0.000500409
0.000473431
0.000608304
0.000434926
0.0193583
0.000453073
0.00945752
0.000458319
0.000439145
0.000447945
0.000464123
0.000517829
0.000439177
0.000501889
0.000446715
0.000490325
0.000450858
0.000443504
0.000446233
0.000470953
0.0392812
0.0345252
0.0297076
0.0318233
0.000453139
0.000481184
0.000447499
0.0382282
0.0371461
0.000503966
0.00336801
0.000517394
0.000995009
0.00454002
0.000433926
0.000412413
0.000465586
0.0004589
0.0172107
0.00043717
0.000445662
0.0350128
0.0269017
0.000454832
0.000492272
0.000445695
0.000445844
0.0179675
0.000503963
0.000430163
0.0234489
0.0407563
0.0175304
0.000735479
0.024603
0.000460886
0.0233355
0.0238675
0.00955405
0.000450328
0.0324226
0.000450857
0.000453208
0.0171948
0.00051645
0.0144774
0.000446694
0.0135507
0.0111362
0.000448676
0.000429508
0.000450622
0.000501861
0.000500959
0.00081626
0.00202487
0.0234058
0.0113062
0.0235296
0.000441296
0.000451781
0.000592781
0.0109576
0.000450913
0.000453107
0.000507068
0.000622625
0.000456165
0.000435409
0.0166968
0.0336792
0.00205907
0.000435724
0.0264351
0.00044491
0.000429066
0.00046104
0.0236898
0.000774057
0.000550503
0.000426476
0.0116252
0.000429081
0.000444947
0.0154851
0.0196046
0.000439831
0.000455139
0.000449547
0.00045198
0.000454265
0.000445721
0.000436374
0.00974566
0.000452338
0.000445303
0.000449561
0.000438214
0.000439227
0.0311156
0.00799339
0.000456937
0.0409842
0.00108859
0.0333159
0.0281331
0.000445172
0.000417541
0.000434202
0.000459634
0.0348624
0.0320262
0.000452841
0.0286829
0.0343687
0.00088226
0.0127847
0.0321855
0.0287592
0.000440202
0.0114882
0.000445056
0.0137362
0.000431641
0.000450911
0.000503056
0.000867379
0.000437375
0.000453254
0.000474072
0.000450496
0.0289259
0.000456815
0.0301346
0.000457146
0.000434083
0.0413166
0.000449429
0.0181959
0.000439556
0.000532633
0.0197936
0.000439247
0.0336168
0.000437722
0.00115335
0.027928
0.0252386
0.000437671
0.00131343
0.000447752
0.000453871
0.000435332
0.00045177
0.00844363
0.00086355
0.0116008
0.000511141
0.000459684
0.000441476
0.0152542
0.0164212
0.0194742
0.0208548
0.000442936
0.0408782
0.0168672
0.000458849
0.0202726
0.000493276
0.0155167
0.000450957
0.00043659
0.0300922
0.00044477
0.000479269
0.000451748
0.0231505
0.000426252
0.000450287
0.000426278
0.000453672
0.000441345
0.0136473
0.0343858
0.000481512
0.00081703
0.000461442
0.00118431
0.000452892
0.000465166
0.0306516
0.0108199
0.000432976
0.000439409
0.00228573
0.000428953
0.0156989
0.00043816
0.000431703
0.000448595
0.0324914
0.020501
0.000441738
0.00756748
0.0323425
0.000453178
0.000453968
0.000438314
0.000502513
0.036552
0.0332693
0.0168496
0.0311753
0.000465564
0.00049781
0.000451371
0.0131275
0.0327754
0.000452457
0.000438674
0.000411311
0.000452313
0.000457305
0.000474315
0.0156049
0.0343236
0.000508154
0.000450258
0.000492334
0.0199809
0.000450581
0.000431499
0.0330625
0.00045991
0.0008189
0.000443952
0.000442349
0.000449057
0.0121024
0.000456537
0.000447663
0.00052399
0.0323591
0.0168361
0.00044552
0.0169126
0.000450151
0.000437429
0.000601369
0.000446346
0.000447168
0.000756605
0.000445589
0.000458961
0.000485353
0.000509189
0.000462012
0.000441018
0.000444801
0.0182807
0.000461872
0.000446719
0.000450588
0.0197819
0.000477334
0.000450708
0.000473324
0.00045341
0.0193311
0.000474607
0.0378395
0.000842323
0.000811163
0.033217
0.000457072
0.000511031
0.000442109
0.0184666
0.000454223
0.0238362
0.0308065
0.0171919
0.00045265
0.000433999
0.000435758
0.0322327
0.0188872
0.0296597
0.000438369
0.000493183
0.000439534
0.0282587
0.0389155
0.0218934
0.000434064
0.0190209
0.0378786
0.000437644
0.0322687
0.0349838
0.03014
0.00045023
0.000483622
0.000545296
0.000430645
0.000523173
0.00920981
0.0109745
0.000477826
0.0167686
0.0307643
0.000725808
0.000454665
0.0303538
0.000477808
0.000442216
0.0252262
0.000456571
0.000456185
0.0353299
0.0113702
0.015169
0.0328751
0.034459
0.000452801
0.000704598
0.000439744
0.00043578
0.0210309
0.000469811
0.000433146
0.000447212
0.00044248
0.000451477
0.000469991
0.0121518
0.000455699
0.000517393
0.0249204
0.000445129
0.000438121
0.000455948
0.000433645
0.0244892
0.0231719
0.000452812
0.00050412
0.000437975
0.000456835
0.00414145
0.000792865
0.000457121
0.00044567
0.03516
0.000430381
0.0146969
0.00044125
0.000542395
0.00055159
0.000648951
0.000443314
0.000804021
0.000724602
0.000450999
0.013109
0.000428693
0.000450933
0.000446217
0.000949078
0.000452266
0.000475671
0.000462993
0.0156123
0.000437111
0.000486069
0.000819509
0.0298955
0.0253204
0.000474473
0.000444122
0.000433575
0.000466064
0.000640076
0.000440596
0.000481912
0.0176463
0.0004444
0.000437626
0.000456587
0.020674
0.000462077
0.00069931
0.000471455
0.00067179
0.0321602
0.0283753
0.0244225
0.0308192
0.0166688
0.0319588
0.029866
0.0243855
0.00630769
0.000450901
0.000449251
0.0158066
0.000438094
0.0330817
0.000608249
0.000438054
0.000630197
0.000447141
0.0361314
0.000451081
0.0216591