/*--------------------------------*- C++ -*----------------------------------*\
| =========                 |                                                 |
| \\      /  F ield         | OpenFOAM: The Open Source CFD Toolbox           |
|  \\    /   O peration     | Version:  v2012                                 |
|   \\  /    A nd           | Website:  www.openfoam.com                      |
|    \\/     M anipulation  |                                                 |
\*---------------------------------------------------------------------------*/
FoamFile
{
    version     2.0;
    format      ascii;
    class       volVectorField;
    location    "200";
    object      ddt0(U);
}
// * * * * * * * * * * * * * * * * * * * * * * * * * * * * * * * * * * * * * //

dimensions      [0 1 -2 0 0 0 0];


internalField   nonuniform List<vector> 
18598
(
(-0.000423593 7.74954e-05 -6.99738e-23)
(0.000305156 0.00592909 0)
(-8.36751e-08 -6.2696e-07 2.37831e-23)
(0.000354708 -0.000112164 4.06325e-22)
(-4.38161e-06 -1.25127e-06 0)
(-4.07526e-05 0.000127661 3.01999e-24)
(0.000284516 -0.000203873 0)
(6.81568e-07 3.17e-06 0)
(-0.00638329 -0.00617669 4.74754e-22)
(-0.00722623 0.000228584 2.21683e-22)
(4.50863e-06 3.86827e-06 4.69671e-24)
(-0.0105301 -0.00054514 4.57729e-21)
(-2.65595e-06 5.90854e-07 1.22649e-22)
(-0.00688176 0.000643553 -3.51135e-21)
(1.07621e-06 4.10435e-06 -1.28637e-23)
(-0.000182136 -0.00263958 0)
(0.00771031 -0.000597565 -4.35712e-23)
(-4.41326e-05 0.000114176 0)
(3.62627e-05 -2.06064e-05 0)
(0.0119435 0.00443061 2.52734e-23)
(9.33139e-06 -2.75326e-06 -9.09869e-25)
(-1.03576e-06 -7.75653e-06 3.73829e-23)
(-0.0129604 1.23119e-05 -1.01164e-22)
(-4.43295e-06 -6.88471e-06 -7.52387e-24)
(-1.93699e-06 -1.3828e-06 3.9601e-23)
(0.00914279 0.00058784 -5.80368e-23)
(0.00457923 -0.00423707 0)
(2.27631e-06 5.37485e-07 -5.01468e-24)
(0.00553467 -0.00520179 -1.03999e-21)
(-0.000335256 0.000140434 7.18216e-23)
(-4.2308e-05 0.00491713 0)
(1.28576e-06 2.90839e-06 0)
(-6.18673e-06 -3.01519e-05 1.85594e-23)
(0.000484395 0.000607728 6.02019e-23)
(0.000283902 -0.000174337 0)
(0.0161713 -0.0111809 1.36447e-21)
(-1.66828e-06 -2.54476e-06 1.25704e-23)
(4.41178e-06 4.55241e-06 0)
(-4.72771e-06 -1.04852e-06 -4.14774e-23)
(0.00910434 -3.99688e-05 -4.11257e-22)
(0.00217683 0.00123498 0)
(0.0166253 0.0270025 2.7312e-21)
(-0.000650112 0.0031763 -5.92515e-22)
(-0.00868365 8.95911e-05 0)
(1.75765e-06 1.17589e-05 -9.59858e-23)
(1.36992e-05 -2.02299e-05 -8.27133e-23)
(-1.60459e-06 -1.40601e-06 0)
(0.0372988 0.0114816 -9.88699e-22)
(-7.72768e-06 2.89535e-06 4.63541e-23)
(-1.76687e-06 -1.33194e-06 0)
(-3.40184e-08 -3.22439e-07 5.07683e-23)
(0.023299 0.000495278 0)
(0.00216918 0.00173321 5.08095e-22)
(0.000211073 0.00204507 1.66083e-22)
(-1.551e-06 -8.53698e-06 -4.3261e-23)
(5.03753e-07 -1.04257e-06 -7.89737e-23)
(2.32833e-06 -2.04988e-06 -3.85193e-23)
(6.74718e-07 1.33105e-07 2.10068e-23)
(-6.46241e-06 2.94383e-06 7.04936e-23)
(0.00016556 -3.31955e-05 0)
(0.0097548 -0.000413628 -1.29257e-23)
(0.000551264 0.0058188 1.8368e-23)
(1.72642e-06 2.52664e-07 7.85132e-24)
(-4.21942e-06 -7.13417e-06 2.72397e-23)
(-0.00277694 0.00242364 -9.54693e-22)
(0.0217514 0.00411683 1.34213e-21)
(-6.65408e-06 2.76884e-06 -1.64429e-22)
(-1.39938e-05 -4.18813e-06 -1.27928e-22)
(-0.0228894 -0.0109203 0)
(-1.32357e-06 -1.75122e-07 9.37298e-23)
(5.96333e-06 -2.90891e-07 -6.79899e-23)
(0.000210205 -0.000158652 -1.58056e-22)
(0.0331683 0.00967275 0)
(0.00188349 0.00165826 0)
(1.52361e-06 5.54364e-06 -6.05666e-24)
(0.00226713 0.000902227 0)
(1.53306e-06 2.43219e-06 -2.17747e-23)
(5.67339e-07 -1.02961e-06 -4.07955e-23)
(0.00035282 -7.89016e-06 1.32498e-22)
(5.19441e-06 1.15364e-06 7.17249e-23)
(0.0171581 0.00588593 -1.3512e-22)
(1.66811e-05 -2.15904e-05 4.46532e-23)
(2.79398e-06 2.92689e-06 0)
(0.00988059 0.00101182 0)
(-3.17321e-06 -2.9145e-05 0)
(-0.00453163 0.00318271 -3.94092e-23)
(-1.26639e-06 -2.33448e-07 -1.35396e-22)
(0.00817275 0.00356858 0)
(3.0555e-06 -3.4616e-07 3.5809e-23)
(0.000102569 1.88541e-05 0)
(2.48559e-05 2.497e-05 -8.91039e-23)
(0.000286978 0.00192766 0)
(-8.77143e-06 4.56644e-06 9.75698e-23)
(-0.000836277 -0.000364677 0)
(0.0190374 0.0116604 0)
(-7.79639e-06 -4.58344e-06 -5.70487e-23)
(0.00290412 -0.00222822 -5.85715e-23)
(4.84311e-06 2.74645e-06 2.67466e-24)
(0.00498233 0.00224197 0)
(0.000499741 0.000666371 6.39976e-23)
(2.90519e-06 -6.71103e-07 -3.97394e-23)
(6.86039e-07 1.45159e-07 0)
(1.46916e-05 -0.000119241 -6.25486e-23)
(5.53418e-05 -2.6463e-05 1.12046e-22)
(0.000314868 4.30309e-05 -2.60811e-22)
(-1.94157e-05 -9.1205e-06 -3.46286e-22)
(-0.00114164 -0.00174861 -1.02938e-22)
(0.0086052 0.0010384 -1.01133e-21)
(2.29996e-06 1.78333e-06 -6.03988e-24)
(-0.00241806 0.00406495 3.78499e-21)
(3.27565e-05 9.74801e-05 0)
(0.00873104 -0.000785387 -3.73148e-23)
(1.20453e-06 2.48339e-06 0)
(2.33984e-05 -0.000115541 3.79208e-22)
(0.00048066 0.00185735 -1.77945e-22)
(6.55839e-06 1.14677e-05 0)
(0.0091076 0.00481381 3.06138e-22)
(0.000154399 -3.20682e-05 5.55613e-23)
(2.3212e-05 1.25994e-05 0)
(-1.66228e-06 -2.68521e-06 -1.26978e-23)
(-0.00881372 -0.0013415 1.03474e-21)
(-5.22532e-06 -2.30582e-06 -5.52274e-23)
(-8.57012e-06 -5.47804e-06 1.38424e-22)
(3.85853e-05 9.28816e-05 0)
(0.00515559 -0.0032632 0)
(-2.25234e-05 -3.78033e-07 0)
(-9.46245e-06 2.82354e-07 0)
(0.000393136 -9.78687e-05 0)
(0.0145151 -0.0115135 0)
(-3.43791e-06 -1.06545e-06 0)
(-1.10124e-06 9.71266e-08 6.27793e-24)
(0.000492671 8.81363e-05 -2.44844e-23)
(-0.00263904 0.00157676 7.23663e-22)
(1.37513e-05 2.11961e-05 -8.87581e-23)
(-0.0126374 0.00104522 0)
(-5.64135e-08 -2.94142e-07 -4.87251e-23)
(0.000328015 -0.00110372 0)
(2.39852e-06 1.61693e-06 6.23815e-24)
(-1.65773e-06 -1.47256e-06 7.82008e-23)
(0.000162821 -0.000349166 5.82143e-22)
(0.00203635 -0.00217687 0)
(5.04984e-06 -4.36859e-06 -5.90057e-23)
(2.74121e-06 -1.92507e-06 5.59736e-23)
(-0.00633849 -0.000399075 0)
(3.93351e-06 9.65157e-07 1.41069e-23)
(3.02076e-05 -1.77233e-05 -8.82875e-23)
(0.00832227 0.00814471 0)
(0.000499816 0.00173622 1.79161e-22)
(4.48602e-06 2.1893e-06 1.68631e-23)
(1.30899e-05 6.87319e-05 5.59535e-23)
(-1.91736e-05 -9.41385e-06 3.18528e-22)
(2.09812e-05 -3.24943e-05 -5.48888e-23)
(5.12674e-06 -5.40342e-07 4.18948e-23)
(0.0034411 0.00188954 -1.10209e-22)
(-7.3998e-06 -4.66365e-06 -2.38602e-23)
(3.96436e-06 1.07527e-06 -1.27172e-23)
(0.00665907 0.00197143 3.01922e-22)
(-2.42386e-05 1.70205e-07 -3.86007e-23)
(-2.51107e-06 3.68639e-07 -4.41607e-23)
(-1.82487e-05 -9.2578e-05 -4.56877e-22)
(-0.000614953 0.000503714 1.46891e-23)
(-0.00106376 -0.000151047 5.02309e-22)
(-8.03863e-06 2.92984e-06 9.2552e-23)
(-3.743e-06 -3.20346e-07 6.19384e-23)
(-3.60555e-06 -9.82805e-07 1.04982e-22)
(0.00735949 -0.000852015 5.00518e-22)
(-0.00635499 0.00462716 7.03708e-22)
(4.61583e-07 4.5765e-06 0)
(0.000392872 3.67966e-05 0)
(-0.000789513 -0.000403871 -2.97443e-22)
(2.01109e-06 5.67576e-06 0)
(0.000230391 0.00010097 3.54762e-23)
(-0.00545648 -0.000366599 9.51533e-22)
(0.00341688 0.000990899 -6.14122e-22)
(-4.85321e-05 -2.5601e-05 1.77656e-22)
(-6.08906e-07 -7.25843e-06 -2.09194e-24)
(-0.00654503 0.000296213 -2.83418e-21)
(7.63998e-06 1.20899e-05 -1.25762e-22)
(-5.54235e-05 8.11483e-06 -4.56168e-24)
(0.00402964 0.00319449 -5.34565e-22)
(-0.000439396 -0.000377844 0)
(-0.0109951 -0.00669876 6.98132e-22)
(0.000455075 6.73199e-05 0)
(-1.55657e-06 -3.09987e-05 0)
(0.00286247 -0.000619494 5.07594e-23)
(2.8186e-06 5.82501e-05 8.90004e-23)
(-0.00488424 0.0027337 0)
(-0.000997153 0.00160824 0)
(2.49701e-06 -2.23506e-07 0)
(0.00317629 0.00136688 2.4902e-22)
(-1.9305e-05 -3.16253e-06 9.12814e-23)
(-5.675e-06 -3.80606e-06 2.03096e-22)
(0.000417604 6.09227e-06 -6.00514e-23)
(0.000634657 -0.00138756 2.21186e-23)
(-3.10636e-05 -0.000117126 0)
(-3.67036e-06 -4.81222e-06 5.00266e-24)
(-0.0109756 -0.00034889 2.55802e-22)
(0.00931206 0.000888857 1.05647e-21)
(-0.000592813 0.00044514 7.25995e-22)
(-0.000138445 0.0034435 1.32783e-22)
(-0.00180966 0.00289335 0)
(4.42974e-07 -1.22664e-06 4.15277e-23)
(0.00021588 0.000120161 -1.05696e-23)
(-1.71564e-07 -4.79329e-07 -1.4456e-23)
(2.1143e-05 2.32137e-05 8.86598e-23)
(0.0099553 -0.00240301 6.05478e-22)
(0.00903054 0.00998316 6.73412e-22)
(5.16005e-06 -4.65099e-07 -4.19152e-23)
(-1.97679e-05 5.75108e-07 0)
(3.64943e-05 -3.07742e-05 5.91335e-23)
(-0.000540719 0.000109689 -1.45732e-22)
(0.00574209 -0.00110639 0)
(-4.45812e-07 -1.74917e-06 -1.687e-22)
(0.000381631 -0.00124869 0)
(-0.00377643 -0.00247651 3.75732e-22)
(-2.96387e-05 -0.000139482 -3.02256e-22)
(-0.00325602 -0.00310637 3.39432e-22)
(7.36147e-06 -1.0679e-05 -5.00958e-23)
(1.42612e-06 3.62553e-06 0)
(0.000387493 -7.47494e-05 -3.76531e-22)
(-1.76643e-06 1.1052e-06 0)
(4.27285e-06 1.56674e-06 1.41724e-23)
(3.16234e-05 -1.60837e-05 1.20213e-22)
(2.41415e-06 9.69587e-08 0)
(0.000205348 -0.000156405 -4.34125e-22)
(6.16394e-06 -1.04937e-05 9.44597e-23)
(-8.30066e-06 -5.0522e-06 -2.86495e-25)
(3.01599e-06 -1.50866e-06 -6.44999e-24)
(-0.00905077 -0.00109395 -9.5098e-22)
(-4.21551e-06 -8.30645e-07 6.34085e-23)
(-0.00572691 0.000623546 0)
(-0.00407682 -0.000534511 3.46209e-22)
(4.97049e-06 2.18908e-06 2.12982e-25)
(9.33651e-06 -2.45498e-06 0)
(-0.0303542 -0.0173161 -3.47083e-21)
(0.0164017 -0.00102874 -1.2636e-22)
(-5.98847e-08 -2.99606e-05 3.74028e-23)
(3.46298e-06 5.6949e-05 5.28151e-24)
(-4.16322e-06 -6.37414e-06 1.20335e-22)
(1.83851e-05 2.44881e-05 0)
(-1.56096e-05 2.19008e-06 0)
(0.000231379 -0.000374325 -3.77361e-23)
(0.0104262 -0.000145374 -2.67817e-23)
(-6.50843e-06 2.45522e-06 0)
(0.000306386 -0.000369845 3.23429e-22)
(1.90744e-05 -2.09914e-05 -1.62315e-22)
(0.000209712 0.000132886 1.19078e-23)
(5.02185e-06 -4.46113e-06 6.59554e-23)
(-4.00185e-05 -0.000149265 3.51759e-22)
(-3.7037e-06 -4.7481e-06 8.42442e-23)
(-0.00166132 0.00139658 -8.74652e-22)
(-0.0340643 -0.0143478 1.53037e-20)
(0.00884126 0.00441629 0)
(-0.00329145 0.00236061 1.05048e-21)
(8.26456e-05 -0.000440444 -1.88203e-22)
(-0.0131177 -0.000255975 -7.66683e-22)
(-5.48023e-05 4.71244e-06 -2.37801e-22)
(-0.0443312 -0.0052587 4.41213e-23)
(2.07526e-06 4.53876e-07 0)
(0.00944492 0.00163894 -1.3061e-22)
(-5.16569e-05 7.80281e-06 -5.00503e-24)
(-0.000559223 0.00021706 2.44579e-23)
(0.0289972 0.00691825 1.77531e-21)
(0.019044 0.0100441 -9.62789e-21)
(-0.0506518 -0.0402083 -2.1892e-21)
(1.70067e-05 6.57531e-06 0)
(-1.82767e-06 1.16729e-06 0)
(-0.0127189 7.64988e-05 0)
(-0.000639374 0.0013761 4.97094e-22)
(-4.28681e-05 -1.61975e-05 1.39872e-22)
(-7.1884e-07 -2.21204e-06 9.06923e-24)
(-1.17985e-06 1.25798e-07 4.80179e-23)
(4.47328e-05 0.000457312 0)
(2.86611e-06 -2.11719e-06 -4.90334e-23)
(0.00591847 -0.0011302 -4.43639e-22)
(0.0108087 -0.00248808 -2.86811e-22)
(0.00687141 -0.000841163 -4.25839e-22)
(0.00856511 -0.000567904 6.42697e-23)
(0.00302052 -0.000227113 -5.74258e-23)
(-0.000614784 0.000203755 -4.20813e-22)
(0.000182129 -0.000345939 7.46881e-24)
(-0.000376366 0.00368252 1.18772e-21)
(3.45033e-05 -1.88396e-05 -2.84345e-23)
(0.00497636 -0.00194588 0)
(0.0040426 -0.00319843 -1.6075e-22)
(-3.64261e-06 4.87409e-05 1.03179e-22)
(-0.000632173 0.00130918 4.60474e-22)
(0.000598593 -0.0019547 -2.44635e-22)
(-2.91158e-06 -5.5931e-06 7.87399e-23)
(-0.00337637 0.00326841 1.88313e-23)
(0.00193467 -0.00128289 0)
(-0.0167882 -0.00872047 0)
(0.00254653 -0.000864418 0)
(0.0303753 0.00999572 5.01815e-21)
(-0.0370322 -0.0298712 -1.43165e-21)
(-6.09847e-05 0.000111065 1.45761e-22)
(-6.02638e-06 2.3996e-06 -1.99795e-23)
(0.0176146 0.00633614 0)
(-6.4699e-05 8.69702e-06 -3.01743e-22)
(0.000442877 -0.00013014 -1.46252e-22)
(0.016087 -0.00217055 1.05628e-23)
(-0.00912685 0.000302192 0)
(0.000183642 0.000145593 2.8111e-23)
(0.00438043 -0.00287181 -1.24469e-22)
(-4.35679e-05 -2.7341e-05 0)
(-0.00141062 -0.00198507 6.08737e-23)
(0.00357698 0.00344855 5.90938e-22)
(5.05733e-06 6.55739e-05 1.71516e-22)
(0.00845961 -0.000902981 0)
(-0.0056816 0.00272943 1.20012e-22)
(0.0297504 0.0152811 2.52328e-21)
(-2.77989e-05 -6.76966e-06 -2.53324e-22)
(0.0347774 -0.00032516 -2.24504e-21)
(0.00635801 -0.0011404 -2.0159e-23)
(-0.000660388 0.00037857 0)
(-9.77989e-05 0.000370142 0)
(-0.000905729 0.000429398 8.66959e-22)
(-2.83563e-05 -5.81224e-06 3.21589e-22)
(1.36258e-06 -2.98338e-07 0)
(-0.0407089 -0.00623785 -5.09476e-22)
(-1.39495e-05 -4.08791e-06 -1.29622e-22)
(-0.00474583 0.001536 -1.17573e-21)
(-1.09446e-05 -5.95331e-06 1.49744e-24)
(-3.43418e-06 1.19304e-05 -8.85797e-23)
(2.91426e-05 -1.45623e-05 0)
(0.00466312 -0.00437385 0)
(1.61899e-06 2.36773e-06 1.14511e-24)
(0.000167516 0.00107475 0)
(-3.70976e-05 -0.000127372 4.08727e-23)
(1.95043e-05 -1.99942e-05 1.04185e-22)
(-1.65088e-05 4.35983e-06 0)
(-2.09532e-05 -4.41982e-06 -1.59578e-23)
(0.00367851 0.000955498 -1.53801e-21)
(0.00458034 0.00276433 4.93506e-22)
(-9.93802e-07 -2.5467e-06 -6.40167e-23)
(-0.000622174 -0.000894232 0)
(7.17003e-06 1.7507e-05 0)
(0.00930293 -0.000139612 -8.95178e-24)
(0.00278642 5.11068e-05 0)
(-5.15647e-07 -4.83503e-08 -4.74027e-23)
(2.83989e-05 0.000428455 -2.33917e-22)
(0.00147664 0.00583709 -1.93066e-22)
(0.00056855 0.00160375 9.77345e-22)
(0.00126548 -0.00133945 5.15102e-23)
(7.67104e-06 8.69e-06 0)
(-0.0103603 0.00952826 0)
(-0.00295558 -0.000556603 -4.65892e-22)
(-0.000808051 0.00352276 0)
(0.061505 0.0192389 1.12918e-23)
(0.00709952 0.000282266 -1.32528e-21)
(8.14523e-06 2.18882e-05 3.84521e-23)
(2.05601e-05 -2.84985e-05 1.53761e-22)
(2.98172e-05 -5.12217e-05 0)
(-0.000973554 -0.000607558 0)
(0.000533335 -0.00537926 2.05578e-22)
(4.96986e-06 -1.11621e-05 5.50709e-23)
(-0.000322567 7.25557e-05 0)
(0.00303499 0.00198887 1.09132e-22)
(0.00182313 -0.000877805 3.93268e-22)
(-3.41372e-06 -5.14733e-06 -8.36774e-23)
(2.22895e-06 3.42632e-06 2.00299e-24)
(-1.97301e-05 -0.000142551 1.54708e-22)
(2.10185e-06 3.11566e-06 -9.37061e-25)
(-8.11902e-07 -2.50974e-06 -2.07711e-23)
(-1.10332e-06 9.31727e-08 0)
(-2.1032e-07 -7.65151e-06 2.40029e-24)
(0.00433642 0.00038703 -9.93591e-22)
(0.00143107 0.00780496 2.32216e-22)
(-0.000640224 0.000334446 -3.6148e-22)
(-0.00417261 0.000469619 -9.68724e-22)
(-0.000250707 8.57626e-05 -7.68176e-23)
(0.0196007 0.0449646 -9.33698e-21)
(2.54013e-05 2.42011e-05 1.53507e-24)
(0.00753695 -0.00076539 -1.83947e-22)
(1.05689e-06 3.51793e-06 1.92049e-25)
(-0.0191581 -0.00914906 -2.86575e-23)
(-0.000390251 -0.00302854 4.58841e-23)
(2.96968e-05 -1.25844e-05 -1.13788e-23)
(2.53645e-06 -1.87566e-06 0)
(0.00924777 -0.000222016 0)
(0.00751377 0.00368096 -1.47297e-21)
(1.83459e-06 4.29887e-06 6.65143e-24)
(-6.16025e-05 9.73731e-05 1.35397e-22)
(-0.00057866 -0.000416665 0)
(-2.6922e-07 8.22071e-06 0)
(-0.00457319 -0.00820968 -2.65223e-22)
(4.06795e-06 4.49227e-08 0)
(-6.36783e-08 4.61423e-07 -3.75012e-23)
(-1.78866e-06 8.95256e-07 3.73629e-23)
(-6.54414e-06 5.13906e-05 2.34441e-22)
(0.0039028 0.00908377 0)
(4.85298e-06 2.82614e-05 1.43111e-22)
(7.12493e-07 -1.39029e-06 3.93134e-23)
(4.2497e-06 7.78962e-06 -3.29391e-23)
(0.0281356 0.0167566 5.87619e-21)
(9.57337e-06 -1.36871e-05 6.27432e-23)
(2.92744e-05 -3.44844e-05 1.58607e-22)
(2.08604e-06 3.54468e-06 -2.59622e-24)
(0.00138988 -0.00641207 0)
(2.60204e-05 5.61628e-06 -2.8769e-24)
(5.72839e-07 6.02182e-06 0)
(2.50873e-06 -1.94712e-06 0)
(-4.36825e-06 -3.78272e-06 -7.95797e-23)
(7.40333e-09 1.14348e-06 0)
(0.00713152 0.00164479 2.54809e-22)
(0.00884597 0.00115065 1.18413e-22)
(-0.00871313 -0.00216578 3.00971e-22)
(0.000194006 0.00194499 0)
(0.00446172 -0.00122482 -1.29287e-22)
(0.000381303 -9.52067e-06 -2.09088e-22)
(1.73318e-06 4.00685e-06 1.31533e-24)
(-0.0120079 0.00989422 7.09524e-22)
(1.69741e-06 2.86334e-06 -1.15997e-23)
(7.07687e-06 2.35344e-05 1.05403e-22)
(0.000238983 -0.00246935 -9.66542e-22)
(0.000161569 4.20198e-05 7.05956e-23)
(-3.6821e-06 -0.000438634 0)
(6.68711e-05 3.05638e-05 -3.07944e-24)
(-0.0272554 -0.0163028 -8.14619e-22)
(9.85037e-05 -4.93823e-06 5.56952e-23)
(1.6398e-05 5.70497e-06 8.10588e-24)
(3.13516e-06 -3.36225e-07 0)
(1.58523e-07 6.8613e-06 -1.09291e-23)
(0.0275531 0.00234071 0)
(-8.83704e-06 -6.23969e-07 1.25535e-22)
(-4.39567e-05 -1.36248e-05 2.5504e-24)
(-8.95506e-06 -3.56702e-07 -1.24806e-22)
(7.70481e-06 1.38002e-05 5.7654e-23)
(0.000106573 -0.00049011 2.74815e-22)
(-0.0129801 -0.00341068 0)
(-3.97622e-06 -6.2805e-06 -8.93434e-23)
(0.00813855 0.0041019 0)
(-8.65576e-06 -1.04232e-05 1.16519e-22)
(0.00381821 -0.0080756 -8.81445e-22)
(0.000409344 0.0010543 0)
(0.00513808 0.00523708 1.51499e-22)
(-5.53403e-06 2.23441e-06 0)
(2.3327e-06 5.05166e-06 -6.18041e-24)
(0.00187372 0.00190722 -5.38732e-23)
(6.66525e-07 -8.46623e-07 -3.97814e-23)
(0.032271 0.017802 0)
(0.00174497 0.00189673 0)
(9.60231e-07 2.72467e-06 5.11156e-23)
(-9.95164e-06 -5.72743e-06 0)
(7.11561e-06 8.71702e-06 0)
(0.0139978 0.00706353 2.86454e-22)
(-0.00249956 -0.00348638 1.58878e-22)
(0.00518689 -0.00115541 4.61681e-22)
(6.73382e-05 -4.37896e-05 -7.851e-23)
(-0.0230396 -0.00160489 0)
(-5.18601e-06 2.1389e-06 -8.85553e-24)
(0.00211244 -0.00229857 0)
(0.00445366 0.000807024 0)
(-6.74479e-10 1.81253e-07 6.84491e-23)
(-0.0223179 -0.034667 -3.15227e-21)
(7.51615e-05 -1.43788e-05 -9.53133e-23)
(2.48055e-05 3.7161e-06 -7.95325e-24)
(8.43257e-07 5.37407e-06 1.19529e-23)
(-1.7767e-05 -5.33068e-05 9.98997e-24)
(1.00476e-06 4.81259e-06 -9.37777e-24)
(0.00707547 -0.00292945 0)
(1.2766e-06 2.89318e-06 -5.88723e-23)
(-5.16003e-07 3.8435e-06 1.53186e-23)
(0.00204549 0.00187025 5.79345e-22)
(-0.00175748 0.00104226 6.87312e-22)
(3.71721e-06 3.63113e-07 0)
(0.0266578 0.00917838 -3.00217e-21)
(2.36211e-06 -1.99372e-06 0)
(-0.00710334 -0.000300368 1.8779e-23)
(-1.16517e-05 -1.24086e-05 0)
(-7.89701e-06 -4.18924e-06 -8.58183e-24)
(6.13673e-06 -9.98776e-06 5.00479e-23)
(-2.57231e-06 -5.7267e-06 0)
(0.0194305 0.00332627 6.56802e-22)
(3.18593e-06 -6.18585e-07 0)
(-4.26959e-06 -4.36753e-06 1.73866e-22)
(-0.000659384 -0.000338931 6.7924e-23)
(-3.73113e-05 -4.40665e-05 1.81246e-22)
(0.00960324 -3.73301e-05 -8.11087e-23)
(-0.00100077 0.000455421 -2.66486e-22)
(-5.01929e-06 2.36103e-06 -1.46982e-22)
(-0.000896264 -0.00222824 0)
(0.000652478 0.00101346 0)
(2.65136e-05 -3.1463e-05 -4.54137e-23)
(1.16412e-06 2.38373e-06 0)
(-1.91102e-05 -1.1484e-05 -1.73834e-22)
(1.30089e-06 3.53009e-06 2.85e-23)
(1.56518e-06 3.35853e-06 -8.91382e-24)
(-3.2431e-06 -0.00012516 3.15669e-22)
(4.63664e-06 1.58772e-06 0)
(3.17481e-05 -2.51087e-05 -3.78401e-24)
(-4.26465e-05 -0.00474185 -2.57389e-22)
(0.000161037 3.47506e-05 0)
(0.00058978 0.00125646 3.47463e-24)
(0.00270852 0.00619495 4.73453e-22)
(1.46925e-05 3.0288e-05 1.32153e-22)
(0.000809167 -0.00205647 5.34899e-22)
(-0.00168896 -0.00207572 1.76198e-21)
(0.0105865 0.00466825 3.33857e-22)
(-7.82797e-07 -2.40737e-07 -1.21052e-23)
(-0.00257349 0.00229338 -1.09238e-22)
(0.00269043 0.00256783 0)
(7.30849e-06 8.89196e-06 1.20198e-23)
(0.00269723 0.00766267 0)
(-1.36455e-05 -4.53367e-06 -7.56437e-23)
(6.80089e-06 -8.74261e-06 -8.52101e-23)
(-0.00465774 -0.00194609 -1.54131e-21)
(8.45244e-06 8.14304e-06 -2.72453e-23)
(8.31379e-06 4.4475e-06 1.31956e-26)
(0.00899538 0.000653769 0)
(3.17364e-05 -2.31184e-05 -9.05437e-25)
(-2.12396e-05 9.66565e-07 0)
(-1.80162e-05 -7.02319e-06 -1.75077e-22)
(-4.56919e-06 -3.14573e-06 -8.68479e-25)
(-1.6488e-05 1.21016e-05 0)
(4.42518e-06 -4.47431e-06 0)
(-1.28037e-05 -8.51855e-06 1.44929e-22)
(-0.00517372 -0.000378543 6.62558e-24)
(-0.00518451 -0.000593608 -1.46917e-22)
(1.70367e-05 5.10292e-06 8.32699e-24)
(1.55793e-05 7.24454e-06 -3.31391e-24)
(0.00622646 -0.000920052 0)
(-2.1568e-05 -5.57053e-05 -5.10681e-23)
(-9.93678e-06 -1.3653e-05 1.27354e-22)
(-1.41141e-05 1.46648e-06 0)
(-0.0390669 -0.0304256 -3.27088e-21)
(-5.75422e-06 -2.63825e-05 -1.21946e-22)
(2.88555e-06 4.51731e-09 3.64963e-23)
(-0.0124067 -0.0243602 6.2407e-21)
(0.00498523 0.00271823 -1.29087e-22)
(-5.69367e-06 -1.27279e-06 1.18496e-22)
(-0.00168252 0.00124756 -7.46649e-22)
(6.90519e-06 3.77969e-06 -1.3971e-24)
(-1.72198e-05 -6.14366e-06 1.86699e-22)
(-0.0181844 -0.0159913 -2.7886e-21)
(-0.00388954 0.00186902 1.03314e-22)
(0.0493093 0.0139387 -7.51979e-23)
(-7.75338e-07 1.46768e-07 -5.53563e-23)
(5.38125e-06 -1.14093e-05 6.38984e-23)
(0.00818956 0.0109426 0)
(-5.42259e-06 -2.8364e-05 2.16343e-22)
(0.0150431 0.00748547 7.71039e-22)
(-1.95316e-05 -1.06485e-05 1.97594e-22)
(2.74758e-06 -1.66229e-06 0)
(7.60345e-06 8.2763e-06 0)
(-0.00178191 -0.00299655 0)
(3.80177e-06 7.08646e-06 -3.03882e-23)
(0.00102197 0.000983986 0)
(-1.27005e-06 4.63312e-08 -8.47843e-23)
(0.00918114 0.0282041 0)
(-0.00339873 0.00141767 1.90748e-22)
(0.0352963 0.0104047 -1.94598e-21)
(-0.0046905 0.00360537 1.06066e-21)
(4.9005e-06 2.03611e-06 8.03241e-24)
(-0.0340437 -0.0229312 3.82143e-21)
(-1.36888e-05 -4.78713e-06 3.19159e-24)
(0.00247143 -0.00206359 3.63492e-22)
(0.0100169 0.000711352 0)
(-7.43571e-06 2.05133e-06 -1.80441e-26)
(-1.67959e-08 5.36035e-07 0)
(0.00778187 6.40931e-05 -7.57147e-23)
(0.000663536 0.000534442 9.36421e-23)
(9.56126e-05 2.30965e-05 0)
(-1.19543e-05 -9.15753e-05 -1.19036e-22)
(5.71615e-07 -1.63385e-06 -5.73316e-23)
(-0.00936007 -0.00276424 7.9602e-22)
(5.43687e-06 2.84706e-06 -5.63484e-24)
(-0.00582104 -0.000392969 1.71465e-22)
(3.53341e-06 9.43497e-06 7.21041e-23)
(-1.83047e-05 5.17646e-06 0)
(-7.26338e-06 -4.31068e-06 -3.30523e-23)
(0.00335555 -0.000508601 3.50359e-23)
(3.2006e-06 2.94851e-07 1.90444e-24)
(-0.000185108 -2.15644e-05 7.62983e-23)
(-0.00272539 0.000855182 8.10208e-22)
(-0.00950087 -0.00317726 -1.58561e-21)
(3.92094e-06 1.24603e-06 0)
(-0.000638538 -0.000281452 6.71037e-23)
(3.81684e-06 8.31784e-07 2.50214e-23)
(-1.19381e-05 -1.39234e-05 3.63531e-25)
(0.00429649 -0.000418725 -7.95105e-23)
(0.000993687 0.0010461 0)
(-0.00544441 -0.000989438 3.55076e-22)
(-4.7397e-06 2.23771e-06 1.33222e-22)
(0.0228344 0.0156426 -5.42147e-21)
(-0.00477007 -0.00179398 4.23052e-22)
(2.9072e-06 -4.43234e-06 0)
(0.00237334 -0.00254738 0)
(2.66904e-06 -1.9906e-06 -2.75208e-23)
(-0.0138701 -0.0325092 0)
(-0.00653071 0.00369635 0)
(-1.93321e-05 -1.27819e-05 1.36075e-22)
(-0.0112863 -0.00353524 1.63465e-21)
(8.29706e-07 5.43529e-06 -5.24589e-24)
(-0.000401209 -0.000908448 0)
(-1.55223e-05 -0.0013 -6.88401e-23)
(-0.000758558 -0.000330384 7.72586e-23)
(2.23988e-07 -1.61437e-06 9.38242e-24)
(1.78039e-06 5.48385e-06 4.83368e-24)
(7.68358e-06 8.87961e-06 2.2237e-23)
(4.42473e-06 2.20091e-05 2.95966e-23)
(-6.24071e-07 1.20581e-07 -5.63699e-23)
(-2.84125e-05 1.39633e-05 -8.40384e-23)
(5.33618e-06 -1.91178e-05 0)
(-9.99008e-06 1.07281e-06 -6.55692e-23)
(-0.0043325 -0.000874829 3.4273e-22)
(8.5522e-07 -7.48345e-06 0)
(-0.000257566 -1.90688e-06 -7.8152e-23)
(-1.10091e-08 2.09968e-07 2.22768e-24)
(1.56981e-06 -2.84163e-06 0)
(-0.00600482 -0.00062278 -5.94745e-22)
(0.00463506 -6.1915e-05 4.29195e-22)
(-0.0116185 -0.0097753 0)
(1.41581e-06 -6.64181e-06 7.38223e-23)
(-0.0117181 -0.00319691 0)
(2.80824e-06 -1.9147e-06 4.90649e-23)
(-2.86028e-05 -1.0052e-05 -2.40855e-22)
(4.58044e-07 -1.62166e-06 -7.12688e-23)
(-1.81566e-05 -3.67114e-06 -9.0246e-23)
(0.00272793 -1.34824e-05 6.3195e-21)
(-0.00251045 -0.00453171 -8.0693e-23)
(5.73668e-06 -1.77333e-06 -2.34945e-23)
(-6.72963e-07 -1.97158e-06 -7.20085e-23)
(0.000639832 0.000475127 1.12664e-22)
(-4.05223e-06 2.10069e-08 -1.81339e-22)
(-1.9201e-05 -4.73943e-06 -1.03279e-22)
(0.00435328 -0.000604164 -1.4723e-21)
(2.3085e-06 3.69891e-06 0)
(7.72276e-08 4.60418e-06 0)
(-4.04468e-06 -4.83738e-08 9.99511e-23)
(2.09761e-06 3.801e-06 2.79025e-24)
(-1.05461e-05 -1.07563e-05 0)
(2.99277e-06 -1.37101e-06 -2.34379e-23)
(0.0119567 0.00776159 5.21181e-22)
(-1.97966e-05 -1.2406e-05 -1.9236e-22)
(4.31487e-06 1.34267e-06 0)
(-0.000275722 3.25191e-05 7.75793e-24)
(1.67302e-05 1.24171e-05 0)
(-0.00134845 -0.000485972 8.49674e-23)
(0.0129056 0.00864922 -3.9637e-21)
(2.76053e-05 -1.00847e-05 3.65596e-23)
(2.13205e-06 2.68298e-06 7.81217e-24)
(-2.81821e-05 -1.14102e-05 3.50162e-22)
(0.000365336 -5.38709e-05 0)
(1.97238e-06 -1.46112e-07 3.63334e-23)
(4.96725e-05 -0.000341073 -2.99678e-22)
(-1.82002e-06 9.81942e-07 0)
(1.08558e-07 1.01662e-06 -8.2457e-24)
(0.00125585 -0.00146891 2.98229e-23)
(-0.0101946 0.000293218 6.87485e-23)
(8.48924e-06 -3.19964e-06 2.45888e-23)
(1.33332e-06 2.19794e-06 0)
(-1.01659e-05 -2.36353e-05 -1.18164e-22)
(-4.83671e-07 -2.06093e-06 1.02507e-22)
(-1.04282e-05 -1.20179e-05 0)
(-0.00583799 -0.000734482 6.95202e-22)
(-0.00187249 0.000255935 -8.91806e-23)
(-0.00423833 0.00104198 -1.66914e-21)
(1.4289e-05 4.17396e-05 1.30042e-22)
(0.00287379 -0.00538203 -1.36398e-22)
(-1.11155e-05 -1.04583e-05 -1.30244e-22)
(0.000209614 0.000437458 1.22877e-22)
(3.09983e-05 -0.000101078 0)
(-0.000692143 0.00106358 5.21546e-23)
(-3.63348e-05 -1.69894e-05 0)
(0.00386843 -0.00130947 4.52963e-22)
(2.93234e-06 -4.76233e-08 -7.87214e-23)
(2.49906e-06 2.92855e-07 2.80507e-23)
(-0.00131709 -0.000731941 0)
(2.95373e-06 -1.20004e-06 -3.27235e-23)
(-4.18446e-06 -6.92377e-07 0)
(-0.00396397 -0.00353934 -6.47378e-22)
(-9.66599e-06 1.18212e-06 -1.20935e-22)
(-0.00260744 -0.00117318 4.21063e-23)
(3.2039e-05 -2.21989e-05 -6.62508e-23)
(1.71312e-07 1.67702e-06 9.30675e-24)
(-3.84369e-06 -7.97134e-07 0)
(8.43156e-07 4.96434e-06 -4.11949e-24)
(0.00505853 -0.000761992 0)
(0.0101232 -0.00187146 9.23831e-22)
(-0.000113493 0.000456694 1.48178e-22)
(1.63654e-06 -5.91603e-06 9.01315e-23)
(1.56242e-05 1.25796e-05 5.54439e-23)
(2.32902e-06 -2.0288e-06 -2.1351e-23)
(-0.000256706 -0.000355959 2.66684e-22)
(0.00669175 0.00144625 0)
(8.49103e-06 1.41163e-05 1.69536e-22)
(0.00656254 0.00824901 0)
(5.5354e-07 4.17357e-06 1.94324e-24)
(5.44846e-06 3.6417e-08 -1.40903e-23)
(-1.98832e-05 -3.5164e-06 0)
(9.42467e-06 -1.26723e-05 -6.6039e-23)
(-5.196e-07 -1.71054e-06 0)
(0.000255501 9.19502e-05 1.11047e-22)
(4.56216e-06 8.19071e-06 0)
(0.00626704 0.00737252 4.37224e-21)
(-0.0382895 0.00166984 -4.76163e-22)
(-0.000428536 0.000778135 0)
(2.04331e-06 1.34942e-05 1.6087e-22)
(-4.34416e-06 2.27136e-06 6.09145e-23)
(1.8942e-08 1.57098e-07 -1.06249e-23)
(-0.00111086 -7.97301e-05 0)
(1.58639e-06 -1.13047e-06 -5.16594e-24)
(-0.00654278 -0.000196112 -3.97526e-22)
(-1.0646e-05 1.14718e-05 -1.30923e-22)
(-1.39767e-05 -5.06571e-06 2.17822e-23)
(0.000375404 -3.31796e-05 0)
(-0.000467166 0.000737235 0)
(0.00760384 -0.0005509 0)
(-1.43602e-06 -2.73738e-06 0)
(-0.00183938 -0.00272375 0)
(1.31011e-06 2.98e-06 1.21931e-23)
(0.00762116 0.00181311 -4.70999e-22)
(1.24897e-05 2.09377e-05 0)
(0.0071825 0.00674437 -2.609e-22)
(0.000244135 8.0435e-05 -3.4584e-23)
(-0.0121645 -0.000433017 4.67312e-22)
(-1.39483e-05 -0.000127023 2.72012e-22)
(2.63587e-08 1.58559e-06 -1.59301e-23)
(-7.42494e-05 9.21098e-05 0)
(1.50427e-05 -0.000129912 -1.49485e-22)
(1.95886e-06 3.76603e-06 8.16487e-24)
(-3.02053e-05 -0.000753656 2.38641e-22)
(-0.00992658 1.83197e-05 0)
(2.2331e-05 9.82844e-06 0)
(-1.41682e-05 -3.73249e-05 0)
(-5.17598e-07 -1.45863e-06 0)
(-0.00432484 0.00478874 -3.41499e-21)
(8.22853e-06 9.30906e-06 -2.87272e-23)
(-1.01763e-06 -2.88684e-06 9.08558e-23)
(0.00203562 0.0188241 -2.0113e-21)
(1.24977e-05 1.46022e-05 -6.25353e-23)
(-0.00409938 0.00246217 2.82138e-21)
(-0.0121439 0.000400662 -1.25202e-22)
(-1.36512e-06 -2.88461e-06 0)
(0.00106517 0.00615251 1.97202e-22)
(1.15661e-06 4.36278e-06 0)
(2.28563e-06 1.4719e-06 -2.74894e-23)
(-0.00498047 0.00416884 4.09869e-21)
(-0.0011293 -0.000176975 0)
(3.19975e-10 4.53317e-07 -3.89173e-23)
(-0.00262269 0.00393382 1.58172e-22)
(1.4325e-06 2.8006e-06 1.31109e-23)
(0.000207207 0.000407259 0)
(0.00387672 0.00793242 7.91604e-21)
(-0.0047928 -0.00216059 6.31872e-22)
(0.00929091 0.000337656 0)
(-0.00526485 -0.000762525 0)
(0.00417802 -0.00315024 2.54236e-22)
(6.64843e-05 -2.56946e-05 -5.69136e-23)
(-0.00299698 0.00281731 0)
(1.97263e-07 5.88926e-06 -5.83012e-24)
(-7.24891e-05 7.95347e-05 3.82717e-23)
(-0.0339422 -0.0254972 -1.38437e-21)
(-0.00678654 7.60574e-05 0)
(7.95554e-05 -1.58101e-05 3.35408e-23)
(-8.4065e-05 0.000439195 7.4512e-23)
(0.00106775 -0.00145482 -9.52105e-23)
(0.00998852 -0.00152461 -3.50537e-24)
(0.00315999 -0.00479432 -2.67063e-22)
(-0.0390592 -0.0305903 1.43615e-20)
(0.00555885 0.00519723 2.68047e-22)
(9.25726e-06 -2.86799e-06 -4.80039e-23)
(4.10803e-06 5.7424e-07 0)
(0.000531618 0.000920707 -1.89836e-22)
(3.01391e-06 -7.70655e-07 3.00115e-23)
(0.00408528 0.00168993 3.95833e-22)
(5.06934e-05 -0.000378013 -3.41577e-22)
(-1.36829e-05 -1.05172e-05 -1.83195e-23)
(-0.00405248 0.00825464 -1.87507e-21)
(5.39374e-05 -3.32154e-05 -1.11662e-22)
(-2.04651e-05 -3.6025e-06 1.90229e-23)
(2.76276e-05 -1.02267e-05 -8.46638e-23)
(-1.30304e-06 -2.96083e-06 5.11161e-23)
(-6.08172e-08 1.20656e-06 2.97643e-23)
(2.84064e-06 -2.57517e-06 5.33249e-23)
(0.00154737 -0.00180157 0)
(6.37614e-05 -4.54149e-05 1.26371e-22)
(2.46744e-07 -1.87799e-07 3.41722e-23)
(-0.00542806 -0.000331341 -4.29074e-22)
(2.2918e-06 -2.5193e-06 3.75678e-24)
(0.00038323 0.00023948 -3.17838e-24)
(-0.000668882 0.000268208 4.40258e-22)
(0.0150058 0.00768515 -2.19987e-22)
(-1.29549e-05 -8.46972e-06 3.57936e-23)
(0.0045157 0.00571133 1.54331e-22)
(-1.33682e-05 -5.47711e-06 1.94883e-24)
(-1.10087e-06 1.90578e-07 -3.55468e-23)
(-1.14553e-05 -3.57851e-05 0)
(-0.0132372 -0.00039917 -7.73004e-23)
(-0.000263275 -0.000326822 4.31256e-22)
(2.92776e-07 -1.37944e-07 3.17496e-23)
(2.22936e-06 1.68455e-06 8.25687e-25)
(2.05394e-08 9.4912e-07 4.03838e-23)
(-0.000526459 0.000177712 -2.38168e-23)
(1.77713e-06 -4.55184e-07 1.08514e-23)
(0.00594785 0.00159709 -7.25793e-22)
(0.00310888 -0.000970192 -2.17394e-22)
(-0.00451686 0.00176044 0)
(-0.00613145 -0.00074132 0)
(-1.82445e-05 -2.77917e-06 1.39351e-22)
(0.00267521 -0.00531826 0)
(-0.0124965 -0.00233948 5.31097e-21)
(2.25564e-06 -9.78836e-07 2.64593e-23)
(-1.71734e-05 -4.99124e-06 -1.75001e-22)
(3.65192e-06 2.08089e-08 0)
(9.81783e-06 5.67251e-06 0)
(0.00129958 0.000785033 2.71969e-21)
(1.2113e-06 2.74566e-06 0)
(-2.0992e-06 -2.03399e-06 0)
(-1.00043e-05 -5.5474e-05 1.49298e-22)
(0.000674584 0.000928503 -1.82802e-22)
(-8.14706e-06 -1.76467e-05 -1.35981e-22)
(-0.00208119 -0.00129474 0)
(0.00841895 0.00183279 -4.63589e-22)
(0.000136246 4.94497e-05 6.15823e-24)
(1.32909e-05 3.84869e-05 0)
(1.17981e-06 -3.07558e-06 -1.15296e-23)
(1.72372e-06 -1.79915e-06 -5.70806e-23)