/*--------------------------------*- C++ -*----------------------------------*\
| =========                 |                                                 |
| \\      /  F ield         | OpenFOAM: The Open Source CFD Toolbox           |
|  \\    /   O peration     | Version:  v2012                                 |
|   \\  /    A nd           | Website:  www.openfoam.com                      |
|    \\/     M anipulation  |                                                 |
\*---------------------------------------------------------------------------*/
FoamFile
{
    version     2.0;
    format      ascii;
    class       volScalarField;
    location    "200";
    object      nut;
}
// * * * * * * * * * * * * * * * * * * * * * * * * * * * * * * * * * * * * * //

dimensions      [0 2 -1 0 0 0 0];


internalField   nonuniform List<scalar> 
18598
(
0.000498023
0.000870998
0.000469369
0.000581235
0.000453342
0.000467807
0.000492754
0.000466137
4.7254e-05
0.00986208
0.000459558
0.00574658
0.000452056
0.00611923
0.000465547
0.000578766
0.0100291
0.000466585
0.000457923
0.0108014
0.000457318
0.000454377
0.0115689
0.000454032
0.000454123
0.0102885
0.00381693
0.000461781
0.00334772
0.00049485
0.00791757
0.000466235
0.000455654
0.000523874
0.000492618
0.00144205
0.000454685
0.000459515
0.000453219
0.0053705
0.00061143
0.00484216
0.000929642
0.00580961
0.000462582
0.000456358
0.000454371
0.00332282
0.000451339
0.000454242
0.000457783
0.00765513
0.000745038
0.00069226
0.000454577
0.000458393
0.000461963
0.000465562
0.00045113
0.000475209
0.00240726
0.000897268
0.000461898
0.000453903
0.00264473
0.00197653
0.000451271
0.000453657
0.00709444
0.000453761
0.000457263
0.000483492
0.00419522
0.000740165
0.000463785
0.000603173
0.000464444
0.000458265
0.000528798
0.000457299
0.0104025
0.000456357
0.000460303
0.0102881
0.000455687
0.00842153
0.000453725
0.00871107
0.000461605
0.000467727
0.000461501
0.000666846
0.000462349
0.000809988
0.00495385
0.000453427
0.00920737
0.000459365
0.0107851
0.000530203
0.000461647
0.000465143
0.000463063
0.000468941
0.000518124
0.000454825
0.000549827
0.00364732
0.000461315
0.0018597
0.000476711
0.00367127
0.000464702
0.000463009
0.000668717
0.000458414
0.0106006
0.000473212
0.000460215
0.000454799
0.00632413
0.000453677
0.000453326
0.000478133
0.0102465
0.000455752
0.000455133
0.000493281
0.00201308
0.000453665
0.000452238
0.000559957
0.011942
0.000460651
0.00768478
0.000458077
0.000529588
0.000461529
0.000454385
0.000791318
1.44125e-05
0.0004574
0.000461873
0.00523657
0.000459282
0.000457331
0.0105378
0.000647658
0.000459551
0.000475919
0.000454988
0.000459478
0.000458172
0.00484438
0.000453385
0.000459412
0.00533239
0.00045595
0.000452079
0.000461056
0.00051207
0.000812588
0.000451335
0.000452784
0.000453443
0.00679612
0.0062334
0.000466471
0.000536764
0.000506803
0.000463609
0.000498537
0.00709881
0.000729702
0.000458248
0.000455128
0.00742479
0.000458421
0.000459041
0.00852415
0.000504496
0.00735638
0.000552953
0.000455708
0.0028635
0.000475216
0.0100415
0.009552
0.000462781
0.00076641
0.000452374
0.000453666
0.000549784
0.00888403
0.000462932
0.00045399
0.0123482
0.00249181
0.000507832
0.000928154
0.0090027
0.000458328
0.000497419
0.000469266
0.000460594
0.0100815
0.000799156
0.000458224
0.000455654
0.000458469
0.000502609
0.00941712
0.000455895
0.000539032
0.000627135
0.00046468
0.000626115
0.000456349
0.000465193
0.000564502
0.00045168
0.000459637
0.000457458
0.000462756
0.00048177
0.000456321
0.000453379
0.00046058
0.00510232
0.000452761
0.011904
0.0070828
0.000459385
0.000457524
0.00585845
0.0099844
0.000455698
0.000475687
0.000453931
0.000461053
0.00045565
0.000497282
0.00244043
0.000451486
0.000848387
0.00045672
0.00049944
0.000457478
0.00046553
0.000453989
0.00458062
0.00772312
0.00879247
0.0121406
0.000488539
0.0120532
0.000504395
0.00303306
0.000462338
0.0102907
0.000458953
0.000495228
0.00341133
0.00498177
0.00132107
0.000457719
0.000451436
0.00973952
0.000615355
0.000457594
0.000455814
0.000453147
0.000493115
0.000457919
0.000291305
0.00952025
0.00581911
0.0101524
0.000652268
0.000498485
0.000495226
0.00604677
0.000457654
0.000282866
0.0103785
0.000473424
0.000596948
0.000567785
0.00045482
0.00994912
0.000604203
0.00750004
0.00371672
0.00119412
0.00530047
0.000466755
0.000451473
0.00157238
0.000509606
0.000497389
0.00928678
0.00993723
0.000498593
0.0099545
0.00045808
0.000565687
0.00985198
0.000476195
0.00326787
0.00149567
0.0049688
0.000455995
0.00223725
0.00504284
0.000506714
0.000485717
0.000521094
0.000456033
0.000462473
0.0027094
0.00045355
0.0122068
0.000453534
0.000461431
0.000457243
0.010497
0.000464613
0.000667768
0.000463858
0.000456572
0.000455902
0.000452753
0.000629305
0.00720124
0.000455302
0.000891063
0.000459438
0.0034183
0.000611209
0.00045952
0.000490189
0.000902419
0.000731799
0.00882477
0.000458691
0.00301897
0.00820633
0.00864349
0.002707
0.00837293
0.000459935
0.000459239
0.000460888
0.000886043
0.0006266
0.000456248
0.000579911
0.0049645
0.00060462
0.000454369
0.000461095
0.01014
0.000463838
0.000455638
0.000452155
0.000455281
0.000391535
0.00607756
0.000502762
0.0081833
0.000491241
0.00641145
0.000461207
0.00611101
0.000465468
0.00774767
0.0105148
0.000457369
0.000461757
0.00567642
0.0109909
0.000463537
0.000465773
0.000509563
0.000457218
0.00771087
0.000460659
0.000468598
0.000451903
0.000475126
0.0010367
0.000463178
0.000458992
0.000458924
0.00509059
0.000456161
0.000458826
0.000461345
0.0056424
0.000457877
0.000457204
0.000461709
0.000453715
0.000468566
0.00397195
0.0103159
0.00842209
0.0102812
0.00885326
0.000532907
0.000463508
0.00332915
0.000460819
0.000462887
0.000579729
0.000478005
0.000486041
0.000465083
0.00445982
0.000465424
0.000457783
0.000459623
0.000464109
0.00754088
0.000455252
0.000457754
0.000455304
0.000459023
0.000491681
0.00881103
0.000454247
0.00636153
0.000454811
0.00436598
0.000660104
0.00797053
0.000451222
0.000463593
0.000879759
0.000459114
0.00525949
0.00196373
0.000466193
0.000453467
0.000458706
0.00735202
0.0103102
0.0084424
0.000461408
0.0069132
0.000451344
0.00919778
0.00168194
0.000468924
0.00777542
0.000462298
0.000457751
0.000464015
0.00045807
0.000463578
0.000653409
0.000466282
0.000468577
0.00893081
0.000590706
0.00046067
0.00116965
0.000461956
0.00303739
0.000454509
0.00045346
0.000456505
0.000454844
0.00618924
0.000459524
0.000453809
0.000498834
0.00045817
0.00852466
0.000525934
0.000451204
0.00160564
0.000573978
0.000472298
0.000466238
0.000455034
0.000465255
0.000465303
0.000463496
0.000459414
0.000457608
0.000619555
0.000477324
0.00069402
0.00781755
0.000461118
0.00057588
0.000579239
0.0107203
0.000455985
0.0120558
0.000952886
0.000458736
0.00699742
0.000453486
0.000456515
0.00794791
0.000458392
0.000458682
0.00365041
0.000471731
0.000455836
0.000454925
0.000453621
0.000480714
0.000457292
0.000453917
0.0059566
0.00263747
0.000457704
0.000457782
0.0096531
0.000458286
0.000454859
0.000455417
0.00727057
0.000455611
0.000459588
0.0108137
0.00731472
0.00045311
0.000604508
0.000458778
0.000454705
0.00556636
0.0120545
0.00377485
0.000452172
0.000456099
0.0102563
0.000455711
0.00550662
0.000454943
0.000458763
0.000458755
0.00902247
0.000459079
0.000640958
0.000452803
0.00510616
0.00977673
0.00575214
0.00527686
0.000459544
0.00779768
0.000453621
0.00883762
0.00266214
0.000451795
0.0004688
0.00814817
0.000529781
0.000467637
0.000461099
0.000456647
0.0101097
0.000459241
0.00883139
0.000458885
0.000456077
0.000453353
0.000977021
0.000461808
0.00048818
0.00347051
0.00998989
0.000459558
0.00049728
0.000459794
0.00045449
0.00112
0.000639832
0.00726581
0.000451238
0.0054361
0.00777099
0.000457621
0.00044753
0.000462069
0.00643125
0.00640169
0.000455083
0.0105253
0.000463271
0.000939049
0.00893599
0.000504396
0.000457142
0.000465734
0.00045866
0.000462089
0.000451842
0.000457783
0.000455564
0.000452057
0.00371774
0.000456082
0.000490993
0.000468843
0.000457543
0.00267171
0.0097913
0.00728127
0.000456308
0.0106786
0.000457939
0.000456189
0.00045642
0.000452477
0.00509358
0.0100431
0.000458058
0.000455792
0.000524369
0.000452534
0.000452679
0.000674247
0.000461253
0.000466125
0.000452306
0.000461271
0.000454561
0.000460555
0.00121308
0.000455023
0.000459689
0.000568429
0.000458134
0.00228012
0.00257941
0.000457398
0.000463694
0.000456116
0.000557174
0.000459795
0.000481043
0.000451928
0.000469348
0.00840631
0.0122898
0.000456892
0.000464816
0.000455535
0.000455933
0.000454606
0.00334634
0.0103662
0.00598879
0.000465573
0.000788577
0.000454486
0.000497615
0.000462218
0.000563944
0.000505797
0.00845105
0.000459397
0.000462861
0.00287686
0.000459018
0.000452913
0.010039
0.000452024
0.00517434
0.000457695
0.000468352
0.000452944
0.000463086
0.00116791
0.00924798
0.000491244
0.000456245
0.000458001
0.000462345
0.0004834
0.00886551
0.000459962
0.0114459
0.000465935
0.000458935
0.000452465
0.000456156
0.000456011
0.000497878
0.000459152
0.001214
0.00366897
0.000523035
0.000458579
0.000451157
0.000468977
0.00051898
0.000461911
0.00416444
0.00047868
0.000453493
0.000544829
0.00052269
0.00437707
0.000455111
0.00842049
0.000465194
0.0050483
0.000459738
0.00920859
0.000496676
0.00978075
0.000463558
0.000468506
0.000465775
0.000463965
0.000461295
0.0097727
0.0124276
0.000459909
0.000456546
0.000455883
0.00210447
0.000458333
0.000455314
0.00454697
0.000458352
0.00490201
0.00995766
0.000455252
0.000908021
0.000466151
0.00046306
0.00310231
0.00052031
0.000468878
0.00115994
0.000464771
0.000494426
0.0120802
0.00898594
0.00357072
0.00356663
0.0102566
0.000468852
0.00106138
0.000464503
0.0004648
0.007583
0.000591765
0.000462934
0.000491443
0.00837327
0.0102898
0.00713367
0.00200874
0.0087333
0.000456932
0.000460003
0.000658793
0.000459368
0.00328783
0.000483302
0.000454351
0.00247967
0.000467735
0.000452694
0.000457202
0.000455234
0.000468744
0.000457846
0.000313896
0.00046118
0.00045884
0.00575147
0.000462334
0.000542549
0.000502545
0.00770238
0.000453853
0.00950753
0.00045351
0.000452324
0.000456473
0.0120559
0.000481769
0.000459033
0.000463008
0.000468818
0.000491874
0.000462391
0.00903122
0.000974531
0.00976101
0.00478098
0.000452409
0.000703777
0.00818141
0.000461176
0.000454615
0.000459672
0.000458067
0.00872474
0.000464915
0.000454284
0.000458093
0.000670966
0.000454876
0.00604329
0.00794992
0.000475772
0.000465199
0.000457315
0.000462091
0.00123024
0.000468829
0.000458402
0.000452676
0.000462201
0.000452537
0.000462677
0.00800741
0.0112247
0.000459098
0.000456908
0.00142461
0.00336997
0.000451164
0.000455233
0.000453014
0.000463021
0.0100382
0.007101
0.000594348
0.00726203
0.000456543
0.000545038
0.000460166
0.000460872
0.000461778
0.00143251
0.00854801
0.000456616
0.00604816
0.000452826
0.000459281
0.000473104
0.000458915
0.000458208
0.000546661
0.000491141
0.000457207
0.000510943
0.0105181
0.0077371
0.000480225
0.000559982
0.00046367
0.000457674
0.000453639
0.00046312
0.0123612
0.00267079
0.000565735
0.000460596
0.000460303
0.00021913
0.000464954
0.00794221
0.000462649
0.000457265
0.00583236
0.00045466
0.000460425
0.000987837
0.000453648
0.000468377
0.000458086
0.000455848
0.000619054
0.00881739
0.00725006
0.000453592
0.000458306
0.000463123
0.00834515
0.00101964
0.000451555
0.000454357
0.000458665
0.000462423
0.000539974
0.000451799
0.00548878
0.000564672
0.000468798
0.00340287
0.000611019
0.000459619
0.0105278
0.000465083
0.000452504
0.00929816
0.00775182
0.000455424
0.000415431
0.000454755
0.000294173
0.000466028
0.000456973
0.000452663
0.000452733
0.000461834
0.000458448
0.000464145
0.000451715
0.00946895
0.00708805
0.000574088
0.000461506
0.00837709
0.00057708
0.000585902
0.000465232
0.000457724
0.00333993
0.000457648
0.000455159
0.000488338
0.000600993
0.000452423
0.000463089
0.00046154
0.000476874
0.008665
0.000463196
0.000454751
0.000454019
0.000577276
0.000460045
0.000467773
0.00046799
0.000621173
0.000458651
0.000455528
0.000458694
0.000473477
0.000452521
0.000460485
0.000313199
0.000458923
0.00542557
0.00045668
0.000461641
0.00342815
0.0071488
0.000507427
0.0111337
0.000451355
0.00834263
0.000454426
0.00988181
0.000546184
0.000463586
0.000456532
0.00794318
0.00366678
0.000726533
0.000458279
0.010041
0.000457651
0.000466557
0.00224521
0.000515266
0.000450859
0.000453729
0.00045459
0.000467972
0.000457667
0.000455735
0.000370799
0.000504562
0.000591019
0.00687623
0.000472431
0.0101288
0.0106102
0.000465879
0.00857798
0.000512079
0.000457182
0.00380809
0.00314429
0.00835647
0.00251888
0.000495629
0.000460132
0.000454082
0.000462328
0.000468057
0.00101342
0.000454282
0.000457667
0.000462998
0.000527366
0.00045563
0.000619759
0.000462919
0.000454466
0.000456595
0.000459901
0.00118996
0.0123833
0.00528228
0.000452926
0.00045394
0.000487993
0.000451816
0.000451519
0.000454748
0.000454366
0.00844841
0.000464733
0.000464399
0.000984997
0.00045513
0.00250731
0.00453283
0.000459209
0.000671414
0.000469743
0.000454613
0.000451508
0.000533419
0.00046667
0.00849676
0.00405783
0.000455679
0.0124551
0.000475123
0.000466008
0.00805297
0.000460692
0.000457238
0.000454683
0.000511279
0.000485086
0.0004548
0.00779811
0.00045868
0.000454517
0.00110983
0.00045654
0.00799757
0.000457537
0.000457737
0.00674774
0.000532823
0.000460871
0.0111939
0.000473395
0.000457873
0.010208
0.000450932
0.0102677
0.000458961
0.00888579
0.000457334
0.00341087
0.000458278
0.0104407
0.000457239
0.00981364
0.000454685
0.00253849
0.000454623
0.000460104
0.000478373
0.000460056
0.000596307
0.000543817
0.000460727
0.012152
0.000480772
0.00948532
0.000452059
0.000461855
0.000457316
0.000483677
0.00355831
0.000460336
0.00328621
0.0110197
0.0117521
0.000454805
0.0103068
0.00045578
0.000460206
0.000460361
0.0105276
0.000484891
0.000453808
0.00613636
0.00352162
0.000463454
0.0098935
0.00473655
0.000499365
0.000453474
0.000488604
0.00256397
0.000899958
0.000493923
0.000495468
0.000458319
0.000456204
0.000453545
0.000733232
0.000468534
0.000462752
0.000460092
0.000458299
0.00046141
0.000457454
0.0110738
0.00784558
0.000454369
0.00712713
0.000485557
0.00195242
0.000454915
0.000458577
0.000487622
0.000483646
0.000475395
0.00730079
0.000469265
0.000459397
0.000457184
0.000466604
0.000459235
0.000458293
0.01204
0.00311079
0.00062136
0.000456155
0.000455192
0.000455987
0.000466268
0.000453615
0.00508754
0.00034564
0.00230179
0.000463319
0.000456407
0.000456213
0.00840867
0.000456376
0.0103545
0.000460673
0.00250795
0.00999261
0.000454552
0.000460561
0.000452076
0.000466797
0.000495379
0.000498028
0.000457813
0.000495958
0.00111008
0.0016092
0.000689306
0.000461257
0.000461344
0.00766763
0.000460844
0.0109233
0.00926492
0.000457015
0.000492256
0.000460978
0.000453809
0.000457796
0.000487427
0.000452233
0.000466053
0.000454525
0.0111096
0.000459635
0.000461595
0.000460696
0.0105032
0.000545014
0.00100099
0.00045144
0.000451384
0.00045835
0.0115301
0.000454537
0.000459617
0.000463724
0.000477909
0.000511205
0.000591556
0.000615033
0.0103433
0.000451269
0.000466027
0.000456006
0.000490807
0.000457222
0.000620764
0.000468335
0.000451126
0.000596118
0.000474811
0.00045728
0.00048592
0.000545605
0.00766474
0.000453947
0.00203018
0.00045365
0.00627764
0.000455294
0.00463787
0.000573206
0.00054488
0.000458163
0.000462573
0.004948
0.000467926
0.000458183
0.000652803
0.00333128
0.0100788
0.000453874
0.0102127
0.00039253
0.00766083
0.000552241
0.00620496
0.00972096
0.000452371
0.00046371
0.000458761
0.000459218
0.000454867
0.000461648
0.000453375
0.000454798
0.000461189
0.00816516
0.00100701
0.000453008
0.00136133
0.000456464
0.000336278
0.000462093
0.0084457
0.000461938
0.000458607
0.000542656
0.00045468
0.00646644
0.000461927
0.000454697
0.000459839
0.00128367
0.000468798
0.000468356
0.000303999
0.0069119
0.00496161
0.00045143
0.000458705
0.000521811
0.00045752
0.000458953
0.000456827
0.000452025
0.000463468
0.00810199
0.00792284
0.000519428
0.000459028
0.000453056
0.000452634
0.00046913
0.0110574
0.000490951
0.0004572
0.00045607
0.00317613
0.00076753
0.000463085
0.000688143
0.000458978
0.00180027
0.000455451
0.00049545
0.000488774
0.000574234
0.0102938
0.000459913
0.000520561
0.000490911
0.000460384
0.000458206
0.000461468
0.000457795
0.000456553
0.00823934
0.000457986
0.000479058
0.00830511
0.00476718
0.00575426
0.000455085
0.000455904
0.000466652
0.000464812
0.000457835
0.000458273
0.000465263
0.000468986
0.000467445
0.000468892
0.00928832
0.0100844
0.000482597
0.000581549
0.000454168
0.000454665
0.0119683
0.000456776
0.000468545
0.0112096
0.00137411
0.0103847
0.000459875
0.000457156
0.000454391
0.00714259
0.000455779
0.000462015
0.000500044
0.00320064
0.000452438
0.00646943
0.000792352
0.000457088
0.00543199
0.000461207
0.0123737
0.00759134
0.000502625
0.000453963
0.00045883
0.000633401
0.000460687
0.000458092
0.000454833
0.000456748
0.000578816
0.000604433
0.00732329
0.000455288
0.000542991
0.000465682
0.000498245
0.00683889
0.000456397
0.0106849
0.000557921
0.000459881
0.000454654
0.00058722
0.0004583
0.000462885
0.000656837
0.000457394
0.00045463
0.00806654
0.00047489
0.000460591
0.000458953
0.0004549
0.000610179
0.00056782
0.00049666
0.000729294
0.000452332
0.000521534
0.0104635
0.00781479
0.000458012
0.00550525
0.000462445
0.00741493
0.00737364
0.00331071
0.000453004
0.000458254
0.000461942
0.000461203
0.00052674
0.000516325
0.000620348
0.000457739
0.000564057
0.000452048
0.000458699
0.00974259
0.00225515
0.0125676
0.000458651
0.0103097
0.000454082
0.000553923
0.000458023
0.000921028
0.000455741
0.000459641
0.0109708
0.00070541
0.000458519
0.00183725
0.00055287
0.00883593
0.000458214
0.010079
0.000667328
0.000456798
0.000459537
0.000103571
0.000456381
0.000460564
6.57874e-05
0.000460684
0.000499636
0.00307786
0.000458144
0.000961199
0.00157296
0.000461383
0.000454492
0.000502337
0.000458288
0.000459
0.00908361
0.000651861
0.000460049
0.0104842
0.00046003
0.000461791
0.00150005
0.000461797
0.000485248
0.000500319
0.00045853
0.000457398
0.000457232
0.000712869
0.00290813
0.00045726
0.00046484
0.000468857
0.000473857
0.000455794
0.0102368
0.000455533
0.000459367
0.000769882
0.000521694
0.000591239
0.000499621
0.00045511
0.000484971
0.000457873
0.000477026
0.000452968
0.000493814
0.00265332
0.000458976
0.000465769
0.00046212
0.000461251
0.0103943
0.0083658
0.000455189
0.000453435
0.000459424
0.000456146
0.00045833
0.00783837
0.00544775
0.000460655
0.000586383
0.000452621
0.000476764
0.000467285
0.000462635
0.000567776
0.00115942
0.000578414
0.000462509
0.000468431
0.00047091
0.000456944
0.0105891
0.000452933
0.000573519
0.000606879
0.000462351
0.000273923
0.000460803
0.000821889
0.000459332
0.000548155
0.000462817
0.000457502
0.000473264
0.000468358
0.000523247
0.000477218
0.00817945
0.00939782
0.0100245
0.000453351
0.000459506
0.000455236
0.000464947
0.000466751
0.000453716
0.000459275
0.000457357
0.00326591
0.000460675
0.000486016
0.000500923
0.00802528
0.0108983
0.000455532
0.000506631
0.0104826
0.00612695
0.000458495
0.00312247
0.0113129
0.000454354
0.0113561
0.00045668
0.000453919
0.00373387
0.000466122
0.000454877
0.00650355
0.000463282
0.000605718
0.000453865
0.00928133
0.000495772
0.000922021
0.00235329
0.000737412
0.00227895
0.000458286
0.000455373
0.000475806
0.000457359
0.000741489
0.000460064
0.000458264
0.00500242
0.000454272
0.00360081
0.0020994
0.000461341
0.0004563
0.000475069
0.00680235
0.000468234
0.000459205
0.000452918
0.00046737
0.000464199
0.00345552
0.000457757
0.000452941
0.00513056
0.00103829
0.00417234
0.00054669
0.000461429
0.00692876
0.0104782
0.000453808
0.00805767
0.00662532
0.00751593
0.000457529
0.000462402
0.00046589
0.000457313
0.000459541
0.00258409
0.000461101
0.000655452
0.000459967
0.000454315
0.000461305
0.000463532
0.0105402
0.000492509
0.000457698
0.000462296
0.000455842
0.000461392
0.000529428
0.000455344
0.000463939
0.000459225
0.000453312
0.000462105
0.00508899
0.000457402
0.0109865
0.000456456
0.00950355
0.000457171
0.00322037
0.000451792
0.000458679
0.000457102
0.000454123
0.00646915
0.000454348
0.000476858
0.000468932
0.000491797
0.000579231
0.000722462
0.000459264
0.000467025
0.000507923
0.000464904
0.00045555
0.000456761
0.000458394
0.000457969
0.000572885
0.000522928
0.000453862
0.000454742
0.000626059
0.000975484
0.000458567
0.000458075
0.00818724
0.00886297
0.000649399
0.000455839
0.000590307
0.000469005
0.00045731
0.000514972
0.000460048
0.0102587
0.000473593
0.000456453
0.000458763
0.000529095
0.00453785
0.000881213
0.00046402
0.000463828
0.000454411
0.0030568
0.000629371
0.000454473
0.000533549
0.0104031
0.00135345
0.000456873
0.000524069
0.00379714
0.0106671
0.00358097
0.00126218
0.000466102
0.000465584
0.0109853
0.000772569
0.000453777
0.000586826
0.00924316
0.0107231
0.000458394
0.0114524
0.000462523
0.0087596
0.000460574
0.00375758
0.000466009
0.000456827
0.00698584
0.00045855
0.000459168
0.00511012
0.000460975
0.000398526
0.000460398
0.000523232
0.000463885
0.0104503
0.00045186
0.000466946
0.000454307
0.0103095
0.0111025
0.000468893
0.000466703
0.00623359
0.000456509
0.00045777
0.0087763
0.000453723
0.00045703
0.000462796
0.000458712
0.00578454
0.000458431
0.000458569
0.000459725
0.000492418
0.00046349
0.0100795
0.000461699
0.00045515
0.000472646
0.000468958
0.000459285
0.00046173
0.000457695
0.000463626
0.000464317
0.0115464
0.0103218
0.00964457
0.00045877
0.0114351
0.000473403
0.00561969
0.00924514
0.00452019
0.000454522
0.000458061
0.000459172
0.000453476
0.0059735
0.000454695
0.000253532
0.00045485
0.000904515
0.000456294
0.000454793
0.00760844
0.000455295
0.000496179
0.00349703
0.00593359
0.000456696
0.000457878
0.000463589
0.00213668
0.000458157
0.000827387
0.00848682
0.00045328
0.000891337
0.000456615
0.000472897
0.0004593
0.00953734
0.000458795
0.000535861
0.0103224
0.000457157
0.000459573
0.000461002
0.000468738
0.000457755
0.0105036
0.000457074
0.000455263
0.000468958
0.000452719
0.000716729
0.00505374
0.000465712
0.0110705
0.00533738
0.000472107
0.00192557
0.000469477
0.000458274
0.000457994
0.000456735
0.00045628
0.00055287
0.000451633
0.00653313
0.00074386
0.000354011
0.0103918
0.00296952
0.000475019
0.00650532
0.00046801
0.00060945
0.00934963
0.000471765
0.00416321
0.000965118
0.0112809
0.00626082
0.00880005
0.00125611
0.000471901
0.000463861
0.00207143
0.000502975
0.00045502
0.000492169
0.000462655
0.000546396
0.0112077
0.000465766
0.00045775
0.000454856
0.000648545
0.00482285
0.000453669
0.000467134
0.000472171
0.00537116
0.000458306
0.00477808
0.000458672
0.000460716
0.000486477
0.00045619
0.000461186
0.000465392
0.0102298
0.00045751
0.00996141
0.000487227
0.00046621
0.000513494
0.000467184
0.000454162
0.00129453
0.0092326
0.000454943
0.00046517
0.000767549
0.000832317
0.000455693
0.00046249
0.000462269
0.000533291
0.00291556
0.00049884
0.000459675
0.000451233
0.0104902
0.00366858
0.000459892
0.00439077
0.00795929
0.000457815
0.0102389
0.00987453
0.0034007
0.00046413
0.000662673
0.000455198
0.000453932
0.000613556
0.00833662
0.000562275
0.000463426
0.00517323
0.000453855
0.000459147
0.00146121
0.000459573
0.00315185
0.00046026
0.000468475
0.00939686
0.000471718
0.000451469
0.000455586
0.000459186
0.000725917
0.00274912
0.000504369
0.0012415
0.000459699
0.00045545
0.000457048
0.000460406
0.000742458
0.0124453
0.00566835
0.000610925
0.00603341
0.000453553
0.000459521
0.00046478
0.000454875
0.000465438
0.000463725
0.00046007
0.000458793
0.000459667
0.000454564
0.000456173
0.0072015
0.000460178
0.000456929
0.000789874
0.000461763
0.000497022
0.000458974
0.000567978
0.000459485
0.000458254
0.00046849
0.000453841
0.00857531
0.00892073
0.000461586
0.00575526
0.00142003
0.000460836
0.000459872
0.000458889
0.000455956
0.000462129
0.000457935
0.000459992
0.000576057
0.00554655
0.0107702
0.000856679
0.000458406
0.000456593
0.00046333
0.000463309
0.000700539
0.000457506
0.00987624
0.00844244
0.000454508
0.000457725
0.00658531
0.00045692
0.00448833
0.00711812
0.00918736
0.000457591
0.00409753
0.00700539
0.00325794
0.000453237
0.000463669
0.000456694
0.000458703
0.00287692
0.00966268
0.0009373
0.00048634
0.000453755
0.000454891
0.000462458
0.00722779
0.000456479
0.000458836
0.0092601
0.0102363
0.000455869
0.000461829
0.000464723
0.000722285
0.000456072
0.000461863
0.000455293
0.000458679
0.000461264
0.00471589
0.000462961
0.00045339
0.000466588
0.0107454
0.000464395
0.000893995
0.000473145
0.000459052
0.0057075
0.000467612
0.00661983
0.000466431
0.00165684
0.000458688
0.000453439
0.00045749
0.000458322
0.000482458
0.000461263
0.000453534
0.000465582
0.0124329
0.000456489
0.00637584
0.000463642
0.000459408
0.00579849
0.000462582
0.000454746
0.000464284
0.000565872
0.000466756
0.00795673
0.000459115
0.000469052
0.000575784
0.00975016
0.000471862
0.000457206
0.000467271
0.000455946
0.00045825
0.000495662
0.000460919
0.000484839
0.000454726
0.00950421
0.0104686
0.00047693
0.000461886
0.000452512
0.00900496
0.000457208
0.000462471
0.000468958
0.00384313
0.0109672
0.000473655
0.0111846
0.000462051
0.000459071
0.0100215
0.000950664
0.000459695
0.00068986
0.000460624
0.000455192
0.000469004
0.000865946
0.000460238
0.000478233
0.000729378
0.0117669
0.000455688
0.000462633
0.00663444
0.000456158
0.000463061
0.000457847
0.000468302
0.00663081
0.000736421
0.000452655
0.000644267
0.000457641
0.00208284
0.00120298
0.000457785
0.0004639
0.000499893
0.000458566
0.00695442
0.00136164
0.000457792
0.000456162
0.000456502
0.000489515
0.000455803
0.0102762
0.000590127
0.00856058
0.000451444
0.000457508
0.00092319
0.000454963
0.00765315
0.000453958
0.000463611
0.00049222
0.000456611
0.000467901
0.00141041
0.00898734
0.00753363
0.000467607
0.000465621
0.000452167
0.000460169
0.000487948
0.000249482
0.000520815
0.00718126
0.0106326
0.000467164
0.000467401
0.0118488
0.000463659
0.000455379
0.000458683
0.00704524
0.000467921
0.00088471
0.000458907
0.00814469
0.000453235
0.00187664
0.000472552
0.000507889
0.000483822
0.00704875
0.000751349
0.000989415
0.000641126
0.000466583
0.000465247
0.00418708
0.0119271
0.000457849
0.000471552
0.000462679
0.000453859
0.000452642
0.00241813
0.000488591
0.000452819
0.000488374
0.00316395
0.00045353
0.000452133
0.00837467
0.000463069
0.00049352
0.000718117
0.000458023
0.000455845
0.000459229
0.000461449
0.00140126
0.000451298
0.000453106
0.00141853
0.000463317
0.000464084
0.0151504
0.0010623
0.00482288
0.0098926
0.000460767
0.00120889
0.000454887
0.000480356
0.000461772
0.00046142
0.000458256
0.000463456
0.000462324
0.00826135
0.000458891
0.00046237
0.00755239
0.00045932
0.000503586
0.000213453
0.000451506
0.000475689
0.000459046
0.000454374
0.000495796
0.000453057
0.000455428
0.00781042
0.000451199
0.000510982
0.000854895
0.000458434
0.000594789
0.00506704
0.00611736
0.000452045
0.000464239
0.00741331
0.00045608
0.0073105
0.000286174
0.00859247
0.000454287
0.000526866
0.000451089
0.000467911
0.000463269
0.000459052
0.000457415
0.00935321
0.000452567
0.00654817
0.000463473
0.00537691
0.000461261
0.000715023
0.00530099
0.000479106
0.000462907
0.000455021
0.000485805
0.000456087
0.000826505
0.000560499
0.00436863
0.000457677
0.000455308
0.000453939
0.000454237
0.000514998
0.000459163
0.00045803
0.000469016
0.00761421
0.00130952
0.000477081
0.0013401
0.000456318
0.000461958
0.000464181
0.000457752
0.000459911
0.000541853
0.000466551
0.000462872
0.007495
0.000453235
0.00868737
0.000459782
0.00720283
0.000460702
0.00312388
0.000468917
0.00964485
0.000463135
0.000452461
0.000471949
0.000484701
0.000455542
0.008178
0.000461693
0.000455511
0.000452166
0.000918086
0.00983187
0.0105268
0.00525921
0.000617706
0.00046219
0.00106059
0.000511238
0.000458907
0.000898873
0.000531726
0.000567816
0.00830715
0.00046392
0.00968987
0.000458066
0.000622483
0.000457297
0.000464515
0.000649676
0.000460715
0.00802869
0.000459273
0.000468891
0.000454626
0.000454826
0.000462591
0.000453667
0.000460752
0.000458299
0.0011016
0.0101007
0.00046395
0.00540945
0.00850756
0.000461366
0.000455746
0.000432801
0.000457515
0.000465289
0.000459933
0.00048808
0.00551612
0.000485451
0.00187909
0.000464958
0.0120055
0.000459309
0.000457796
0.000452932
0.000510458
0.00046402
0.000464277
0.00046137
0.000619386
0.000461347
0.000463132
0.000497021
0.00048443
0.000472829
0.00521745
0.00957654
0.000657747
0.000459809
0.000459393
0.000461495
0.000456174
0.000648768
0.00645441
0.00186673
0.00832565
0.000458554
0.00175764
0.00045917
0.000453561
0.000455996
0.000453616
0.000454504
0.00641402
0.0103008
0.00143374
0.00045809
0.00783179
0.000463731
0.000457652
0.000460896
0.000229068
0.000461988
0.00045318
0.000493469
0.000456626
0.00102372
0.0102869
0.00826466
0.000790592
0.000457561
0.000468185
0.000821149
0.00876258
0.00760428
0.00976988
0.000452625
0.0102987
0.000611052
0.000465261
0.000459353
0.00796989
0.000455379
0.00613636
0.00274596
0.000648881
0.000549852
0.0100624
0.008927
0.000463292
0.000477844
0.000781501
0.0113501
0.000466019
0.000463667
0.000454028
0.00844794
0.00691055
0.000482404
0.00897864
0.000454764
0.000470844
0.00103857
0.000458397
0.000464951
0.000466971
0.0102971
0.00132579
0.00974903
0.000465388
0.000468929
0.000934942
0.000600547
0.00046167
0.00634181
0.000460922
0.000451283
0.000463422
0.000536654
0.000456064
0.0112707
0.0115222
0.00230476
0.00046307
0.000454838
0.00693791
0.000459044
0.00814677
0.000476889
0.000460503
0.0061169
0.000475601
0.000496804
0.000459453
0.000452299
0.000854334
0.000639918
0.0101678
0.0105458
0.0148751
0.000453672
0.000729833
0.000865347
0.000557787
0.000919594
0.000458344
0.0102494
0.000460513
0.012293
0.00046034
0.000452355
0.0004603
0.000466172
0.0104914
0.00708071
0.00606055
0.0121195
0.000827071
0.000457656
0.000466974
0.0110498
0.000458255
0.000452213
0.00893134
0.000471926
0.0004609
0.00254406
0.00113233
0.000463718
0.000452838
0.000457953
0.00419409
0.00642617
0.000468274
0.0112707
0.000461811
0.000454535
0.000464646
0.000463586
0.000570723
0.000459901
0.000457634
0.000466282
0.000493181
0.00406398
0.000677281
0.00308578
0.00951276
0.0111402
0.000459629
0.000536772
0.00819973
0.00573155
0.000472015
0.0114832
0.000462785
0.000458684
0.00107017
0.0115269
0.00625534
0.00935034
0.0105296
0.000451995
0.000458526
0.00998584
0.0112045
0.00045917
0.00150161
0.00606022
0.00206574
0.0111407
0.00603775
0.000469329
0.00501153