/*--------------------------------*- C++ -*----------------------------------*\
| =========                 |                                                 |
| \\      /  F ield         | OpenFOAM: The Open Source CFD Toolbox           |
|  \\    /   O peration     | Version:  v2012                                 |
|   \\  /    A nd           | Website:  www.openfoam.com                      |
|    \\/     M anipulation  |                                                 |
\*---------------------------------------------------------------------------*/
FoamFile
{
    version     2.0;
    format      ascii;
    class       surfaceScalarField;
    location    "200";
    object      phi;
}
// * * * * * * * * * * * * * * * * * * * * * * * * * * * * * * * * * * * * * //

dimensions      [0 3 -1 0 0 0 0];
oriented        oriented;


internalField   nonuniform List<scalar> 
27668
(
0.0654847
0.0551905
-0.120675
0.0404041
-0.0657889
0.0253848
0.326356
0.149835
-0.0648601
-0.0300619
0.0949219
0.343715
-0.198175
-0.14554
-0.0723775
0.144579
-0.0722015
-0.1274
0.0892148
0.0381857
-0.406179
0.403324
0.00285573
-0.041892
-0.0396727
0.0815647
-0.0677756
0.0235775
0.0441982
0.297958
-0.194672
-0.103286
-0.00042479
0.448655
-0.262149
-0.186506
-0.00613601
0.000774297
0.201907
0.199308
-0.401215
-0.119562
0.0830535
0.0365081
-0.0304721
0.000873442
0.0295987
-0.145065
0.0726871
-0.172979
0.177247
-0.00426761
-0.00865315
0.0269776
-0.0183245
0.110747
-0.248658
0.137911
0.341885
-0.159992
-0.181893
0.00330033
-0.0376901
0.0343897
-0.152447
-0.0916006
0.244048
-0.138575
-0.23074
0.369315
0.0243113
-0.0335743
0.00926298
-0.0879715
0.0450015
0.04297
-0.0996432
0.26426
-0.164617
-0.0483181
-0.0396535
-0.0594091
0.124894
0.059554
-0.0550213
-0.00453264
0.0423731
-0.448552
-0.205038
0.214551
-0.00951324
-0.0532116
0.103272
-0.0500603
-0.054417
-0.0729835
-0.0913633
0.0418096
0.0495537
-0.193485
0.39247
-0.198986
0.130258
0.167701
0.231385
0.11233
-0.00786759
0.0110685
-0.00320095
0.0515717
-0.0888761
0.0373044
0.0336891
-0.0582617
0.0245726
0.102617
-0.0615895
-0.0410279
-0.00324338
-0.209513
0.0646487
0.144865
0.0391226
0.164314
-0.203437
0.180223
0.221292
-0.401515
0.0579798
0.00228851
-0.0602683
0.120813
-0.283411
0.162598
-0.396915
0.25834
0.260099
-0.493527
0.233427
-0.0732448
0.0650656
0.00817925
-0.0922255
0.0795531
0.0126724
0.0388497
-0.0824772
0.0436275
0.226089
0.115797
0.146195
-0.420699
0.274504
0.417105
-0.277458
-0.139647
0.445223
-0.0116522
-0.433571
-0.31951
0.0308965
-0.0827263
-0.0357438
0.11847
-0.0199471
0.0237363
-0.0037892
0.0762407
-0.0358366
0.14931
-0.248953
0.139644
-0.292091
-0.093933
0.0333625
0.0605705
0.0354096
-0.0737212
0.0383116
-0.265432
-0.0540776
-0.0289031
0.184757
-0.155854
-0.0661994
0.00139949
0.0647999
-0.370789
-0.106968
0.477757
-0.191115
0.110127
0.080988
-0.0207817
0.0965962
-0.0758145
0.0609672
-0.00298749
-0.0211133
-0.0711122
0.405305
-0.198577
-0.206727
0.106051
-0.0544793
-0.15963
0.39932
-0.23969
0.370827
-0.224632
-0.0514699
-0.0492718
0.100742
-0.12097
-0.0701452
-0.0308504
0.0221972
-0.144961
0.184084
0.275653
-0.122654
-0.152999
0.0326426
-0.0083313
-0.1901
-0.0149374
0.0624804
-0.00292644
0.0330489
-0.403838
0.00540935
-0.0052035
-0.000205852
-0.287836
0.371384
-0.0835486
-0.139559
0.0780191
0.0615401
-0.0649752
-0.0521577
0.117133
0.0831194
-0.0442697
-0.133544
-0.0759689
0.0453302
0.0239587
-0.0692889
0.0586179
-0.055616
-0.00300187
0.258175
0.0182966
-0.276471
0.0224239
-0.0237358
0.00131183
0.195731
-0.315703
0.119971
-0.0301649
0.0281345
0.0020304
-0.100071
0.0468598
-0.308606
0.0207702
0.0180268
0.427197
-0.173893
0.0887242
0.0851693
0.166661
-0.0938067
-0.0728548
0.048539
-0.100009
-0.202641
0.20881
-0.00616833
0.0340272
0.0656353
-0.0996625
0.0231449
-0.0233088
0.000163858
-0.123036
-0.148253
0.27129
-0.0607271
-0.0332059
0.0946645
-0.109615
0.0149503
0.00292741
-0.0228745
-0.194118
-0.181967
0.376085
-0.107982
-0.0659112
0.0394686
0.0436508
0.21802
-0.059996
-0.158024
-0.0282971
-0.00186783
-0.116622
0.0338957
0.0814104
0.0688069
-0.150217
-0.380699
0.187214
-0.00204676
-0.000973715
-0.0892309
-0.1509
0.240131
-0.308512
0.140812
0.1677
0.0034824
0.0911821
0.00441781
-0.0293311
0.0249132
-0.134172
0.170809
-0.0366371
0.17771
-0.144552
-0.0331579
0.046617
-0.115342
0.0687249
-0.0559242
-0.035439
0.137644
-0.357595
0.219951
0.447289
-0.47054
0.0232504
0.0418407
0.0393525
-0.0811932
-0.00768948
-0.0245975
0.032287
0.156155
-0.133705
-0.0224498
-0.0166065
-0.049593
0.378346
-0.118247
0.0447197
-0.108145
0.0634256
0.141224
-0.216692
0.0674341
-0.025656
-0.0417781
-0.0703824
0.0284904
-0.225847
-0.0364582
0.262305
0.192374
0.224731
-0.00108116
0.00033156
-0.395819
0.14861
0.247209
-0.157097
-0.0181921
0.175289
0.018975
0.0522406
-0.0712156
0.0863172
-0.0468486
0.348286
-0.195272
-0.153014
-0.0381458
-0.0688017
0.106947
-0.181486
-0.021155
-0.157683
0.0405148
0.117169
-0.154443
0.301967
-0.147524
-0.00710213
0.0158154
-0.00871326
0.011465
0.24671
-0.220091
-0.175728
-0.0109594
0.0127398
-0.00178038
-0.168377
0.0342055
0.329968
0.118687
-0.171815
0.107967
0.0638481
-0.0363985
0.0944032
-0.0580047
0.0682034
-0.0228732
0.291669
-0.170856
0.130737
-0.305251
0.174513
0.325786
-0.188142
-0.000936463
-0.00693112
-0.0631566
0.0824134
-0.0192568
0.301477
-0.49309
0.191613
0.0522332
0.0481609
-0.100394
0.0633302
0.0354424
-0.0987726
0.250208
0.155096
-0.133999
0.0978371
0.0361622
-0.00209473
0.00101357
-0.0297442
0.0804552
-0.0507111
-0.163903
0.157666
0.00623699
-0.34036
0.180367
-0.00174126
0.00131647
0.0925016
0.125519
0.080332
0.0714121
-0.151744
-0.00660921
-0.0109289
0.0175381
0.0721467
-0.134993
0.0628468
0.0222409
-0.0699986
0.0477577
0.0859404
-0.0440997
-0.21054
0.0204401
-0.0236045
0.000217909
0.0233866
-0.0483322
0.113253
-0.0649209
-0.0562805
0.0330809
0.0231997
-0.00871521
-0.0141633
0.0228785
-0.413706
0.287013
0.126693
0.0537219
-0.0834661
0.117796
-0.250886
0.13309
0.164704
-0.253935
-0.0458004
0.0980335
0.0222525
-0.0246321
0.00237963
0.0797006
-0.150071
0.07037
0.155119
-0.343871
0.188751
0.0262684
-0.00416203
-0.0221064
0.0253584
-0.00221354
-0.107779
0.0713804
0.0531255
0.049492
0.0396979
-0.00327543
-0.0364224
-0.0323307
0.403157
-0.0811249
-0.0528744
-0.0970401
0.423396
0.0295557
0.101812
-0.131368
-0.0128841
-0.0119905
0.0248745
0.072235
-0.0131863
-0.0590487
-0.320167
0.165724
-0.143625
0.174316
-0.0306905
0.00242671
0.131483
-0.133909
0.120973
-0.065782
-0.00116231
0.0273859
-0.0262236
0.176405
0.189617
-0.366022
0.0967748
-0.0520551
-0.101792
0.0754327
0.0263596
0.094769
0.0654378
-0.160207
-0.0451048
-0.0566875
0.0869567
-0.226922
0.139965
-0.146328
0.373842
-0.227514
0.0411712
-0.106031
0.111439
-0.406191
0.294752
-0.129487
0.289771
-0.160284
-0.173029
0.015932
-0.192
-0.221706
0.0742219
-0.0950035
0.226596
-0.139639
-0.204585
-0.103927
0.373621
-0.211808
-0.161812
-0.00258365
0.286879
-0.156142
0.0283928
-0.0360822
-0.00696923
-0.0100126
0.0169819
-0.0696222
0.265354
0.240447
-0.129699
-0.0359741
0.082792
-0.0468179
-0.0150072
-0.0159874
0.0309946
-0.184694
-0.0258465
-0.103155
0.0548226
-0.116616
0.25626
0.0895805
-0.154556
0.0255472
0.148942
-0.174489
0.0740932
-0.100807
0.026714
0.0212175
-0.021684
0.000466508
-0.224716
-0.0460641
0.270781
0.0550759
0.0123582
-0.195079
0.0126612
0.182418
-0.131004
0.0498795
0.0836048
-0.309452
-0.0333661
0.128135
0.337126
-0.182006
0.0146816
-0.000592796
-0.0140888
-0.0688308
0.0328567
0.00188847
0.00352087
-0.0331962
0.0307904
0.00240588
-0.0341949
0.11196
-0.0777646
-0.0283029
0.0316032
0.103616
-0.05627
-0.0473463
0.0303897
-0.0551024
0.0247127
-0.371055
0.228026
0.143029
-0.0275128
-0.00611981
0.0336326
-0.0471007
0.127433
-0.0552183
-0.0562251
0.111443
0.0620775
-0.0266679
0.056774
0.00184388
0.0835071
-0.0524373
-0.0310698
0.187911
-0.171647
-0.0162643
0.360905
-0.249465
0.063803
-0.0483021
-0.0155009
-0.0325358
0.0859121
-0.0533762
0.194194
-0.173566
-0.0206281
-0.198254
-0.187262
0.385516
-0.482979
0.52779
-0.0448116
-0.0236355
0.0862901
-0.0626546
-0.181377
0.333865
-0.152488
0.0211673
-0.00444554
-0.0167218
-0.0364684
0.0235843
-0.00698281
0.00871569
-0.00173287
0.000864665
-0.0313368
-0.0812814
-0.00530013
0.0865816
0.0560231
-0.111241
0.114724
-0.0406306
0.00656493
-0.0280991
0.0215341
-0.149862
-0.0231165
0.00688646
0.0142809
0.0299614
-0.00634289
-0.0236185
-0.0228442
-0.0803106
0.0570442
-0.08958
-0.0549214
0.100367
-0.0454453
-0.342162
0.190605
0.151557
-0.0304431
-0.0258375
-0.110734
0.079343
0.0313906
-0.0267648
0.0490057
-0.0211751
-0.00242937
0.0684064
-0.0661178
0.049284
0.00238951
-0.0516735
-0.0700875
-0.0749771
-0.266651
0.0419341
-0.047145
0.0796022
-0.0324572
0.0719442
0.0316721
0.112803
-0.0661858
0.0280554
-0.0430626
-0.0156784
-0.0520973
-0.0706985
-0.0603059
0.0251434
-0.0207255
-0.0100906
-0.153813
-0.0577849
0.0918121
0.0146709
-0.0212801
0.0751072
-0.0035075
-0.017912
0.0214195
-0.0831697
0.0757686
0.00740109
-0.0607448
0.0634126
-0.00266781
0.154869
-0.160729
0.00585977
0.028402
-0.075547
-0.0210224
0.0175149
-0.0546347
-0.0531442
-0.131533
0.0753773
0.0561557
-0.0499414
0.108236
-0.0582951
0.164307
-0.00943842
-0.201358
-0.169697
0.057711
-0.0273213
0.143055
-0.171958
-0.00256022
-0.030636
-0.206388
0.21163
-0.00524184
0.190398
-0.0725506
-0.117847
-0.128421
-0.0446081
0.00627716
0.0276881
-0.0339653
-0.403329
0.243699
0.0210792
-0.0690019
0.0479227
0.145138
-0.191176
-0.00390336
-0.145773
0.17132
-0.0130632
0.172261
-0.159198
-0.0102976
0.00332871
0.00696889
-0.0180311
-0.122777
0.267415
-0.144638
0.0512846
0.0008841
-0.0521687
0.0354094
-0.154863
0.119453
0.00020478
0.0210127
-0.0115382
-0.0697432
-0.442421
0.0243743
0.418047
-0.0995724
0.0759369
-0.047228
0.0771088
-0.0298807
-0.0356332
0.089069
-0.0534358
0.0267782
-0.00396135
-0.0228168
-0.188358
0.241597
-0.0532389
0.0151048
-0.00980596
-0.00529885
0.0178213
-0.0247905
0.0024435
0.0372544
0.0690977
-0.00185339
-0.0672443
-0.0045543
-0.00802342
0.0125777
0.0880715
-0.167504
0.079433
-0.136152
-0.0215311
0.0699914
0.0780037
-0.147995
0.0752433
0.0554332
-0.0822006
0.0267674
-0.123123
-0.114607
0.237731
-0.0928477
0.0386419
0.0542058
0.00738183
0.00843356
-0.0366864
-0.0740473
-0.161983
-0.181888
-0.247807
0.283219
-0.0354115
0.00239949
0.0273078
-0.0297073
0.269938
0.133535
-0.403473
0.233743
-0.35652
0.366745
0.080544
-0.14482
-0.19554
-0.0102976
-0.0191775
-0.019776
0.0389536
-0.110204
0.0555695
-0.00167876
-6.25025e-05
-0.124708
0.065299
-0.0178714
0.0515604
0.119136
0.0102931
-0.00812515
-0.00216797
0.382951
-0.181044
0.0326235
-0.0593883
0.0264427
-0.0386166
0.0121739
-0.175129
0.0467076
-0.406369
0.266345
0.140023
0.00475645
0.00631209
0.0140768
-0.0246237
0.0105469
-0.431361
0.307028
0.124333
-0.145668
0.0755804
0.112464
-0.0403174
0.143446
-0.124642
-0.0188039
-0.00397511
0.0454454
-0.0414703
-0.271049
0.126674
0.144374
0.489758
-0.229122
-0.260637
0.17163
-0.41085
0.23922
-0.0978321
0.0749879
-0.0468647
0.0792589
-0.0323942
-0.162988
0.111827
0.0511608
-0.408126
0.0975467
0.310579
0.284963
-0.152266
-0.132697
-0.00397078
-0.23236
0.221635
0.0107255
0.108454
-0.106027
0.0528958
-0.300703
0.0515551
0.0215716
-0.0731268
-0.111844
-0.056997
0.168841
0.162437
-0.0189904
-0.347867
0.0219151
0.325952
-0.200553
0.356153
-0.1556
0.325859
0.163899
-0.0121787
0.00121937
0.00512982
0.0098538
-0.0661548
0.056301
0.0175036
-0.0262188
0.0203344
-0.0214967
-0.0998505
0.0505787
0.339254
-0.152755
-0.186499
0.0116219
0.214485
0.0611686
-0.0877236
-0.0752639
-0.0603429
-0.0592188
-0.00373815
-0.0766757
0.0804138
-0.0527241
-0.0634344
0.116158
-0.156186
0.0960209
0.0601655
-0.000756139
0.0500402
-0.0787013
-0.039846
0.118547
0.172603
0.0153076
-0.0709252
0.286822
-0.215897
-0.416533
0.229513
-0.020882
-0.0523629
0.0928127
0.0848969
0.0520431
0.142151
-0.0501542
0.142967
0.0492158
0.119858
-0.169074
-0.0939363
0.0597414
-0.0484435
0.0582973
-0.257815
0.141198
-0.0348216
0.068762
-0.0339404
0.0668218
0.14556
-0.212382
0.0796414
-0.0280863
0.0728717
-0.0517925
-0.0454278
0.0565754
-0.0111476
-0.23348
-0.0186162
0.252097
-0.181152
0.0260845
-0.0717998
0.0457153
-0.335752
-0.0723741
0.00498881
0.0584238
-0.0309407
0.00541837
0.0255224
-0.349576
0.391949
-0.236071
0.029683
0.239682
-0.0474368
-0.192246
0.0455301
-0.0023748
-0.0431553
0.0395521
-0.0131094
-0.0116175
0.010681
0.0673949
-0.146934
0.0795392
-0.0284282
-0.0311892
0.0596174
0.0831669
-0.316647
0.0261789
-0.00574148
-0.0204374
-0.0240543
0.179525
0.30273
-0.482255
-0.0568859
0.0468091
0.0100769
0.129399
-0.00943136
-0.119968
0.0664171
-0.178261
0.236389
0.109521
-0.34591
0.144054
-0.148088
0.00403468
-0.0790926
0.315482
-0.0756267
0.0655476
0.010079
0.0993795
-0.448956
-0.541472
0.354778
0.186694
0.00254336
-0.00422212
0.0542666
-0.0990347
0.0447681
-0.111954
-0.159094
0.0617587
0.00664763
0.040187
-0.388054
-0.0158692
0.0160451
-0.000175909
0.152899
-0.159252
0.00635234
-0.218303
0.229768
-0.297167
0.0702452
-0.163486
-0.178676
-0.00757161
-0.0405039
0.0480756
-0.271308
0.200383
0.136573
0.0737868
0.0341662
-0.107953
8.77802e-05
0.140733
-0.140821
0.0362306
-0.0442742
0.00804361
-0.103886
0.0539449
-0.204519
0.287686
0.00158448
-0.000800652
-0.000783832
-0.0428528
0.0956178
-0.0527649
0.150456
-0.110654
-0.0398021
0.272217
-0.417645
0.145428
0.20027
-0.183375
-0.0168951
0.384159
-0.184851
0.202723
-0.34905
0.156747
-0.0843734
-0.0723741
0.23585
0.112436
-0.190103
0.0590219
0.131081
-0.0293744
0.0848076
0.0825835
-0.0863217
-0.09673
0.0610968
0.0633222
-0.0133625
-0.0499597
0.116344
0.0398114
0.0375878
-0.0925092
0.0602623
0.0427068
-0.102969
-0.0142203
0.351966
-0.557822
0.205856
0.0246755
0.00611483
0.0721862
-0.0461017
0.0513244
0.0157089
-0.0348864
0.137848
-0.182091
0.0442429
-0.170888
-0.126279
-0.00636208
0.00374452
0.00261757
-0.215829
0.0100085
0.20582
-0.194
0.232355
-0.0383548
0.0236681
-0.0229425
-0.000725638
0.0832629
0.0671936
0.0271836
0.161667
0.0471428
0.210027
0.146126
-0.138238
0.0569478
0.0812903
0.168057
0.111307
-0.279364
0.0836496
0.128487
-0.212136
-0.0210008
0.0109881
0.0121461
-0.0168873
0.00474127
0.026431
-0.19717
0.170739
0.184506
-0.0253978
-0.159108
0.0282593
0.160282
-0.0162281
0.215591
-0.148769
-0.0114385
0.160381
-0.00217619
-0.0546017
0.0567779
-0.171681
0.191064
-0.0193835
-0.13141
-0.164112
0.295522
0.0413382
0.0154716
-0.0063819
-0.0116492
0.265243
-0.0338579
-0.0319559
0.0862224
-0.260444
0.0664439
0.182588
-0.0209214
-0.0468975
0.0823926
-0.0354952
0.0313323
-0.00665678
0.000863982
0.0682337
0.547789
-0.284216
-0.263573
0.103473
0.0655767
-0.0752534
0.00967672
0.0428699
-0.0603567
0.0255351
0.0187834
-0.168071
0.318222
-0.150151
-0.234457
0.18702
-0.00349656
-0.00600607
0.00950263
-0.260661
0.138557
0.122104
-0.0845704
0.0265162
0.0580542
0.511093
-0.212644
-0.29845
0.0454232
-0.0580108
0.0125876
0.0554221
-0.0318446
0.0496092
-0.0571808
0.0764396
-0.0563043
-0.0201353
-0.283565
0.0882931
0.0532114
-0.0553876
-0.109143
-0.0911664
0.20031
0.022919
-0.000495067
0.000359377
0.110966
0.177048
-0.288015
-0.299427
0.478952
0.0464185
-0.0101879
0.0556093
0.0446865
-0.100296
-0.0914621
-0.0480971
-0.0694552
-0.10236
0.0947705
-0.277356
0.182585
0.0347147
-0.0197246
-0.0149901
-0.29425
0.173179
0.121071
-0.0565492
0.052214
0.00433516
0.216017
0.0689452
-0.165082
0.0193085
0.0410964
-0.2594
-0.0222262
0.0945665
-0.0723403
-0.378876
0.137743
0.241133
0.0610796
-0.125926
0.0648465
0.000229183
0.0144524
-0.0269804
0.0370551
-0.0100747
-0.373593
0.153502
-0.0290412
0.102828
-0.199337
-0.174256
0.169711
-0.0168114
0.0600967
-0.0823229
-0.067135
-0.0174354
0.00128991
0.00283953
-0.00412944
0.118589
-0.323108
-0.0420002
0.0485651
-0.00661583
0.000253742
0.0278759
-0.242483
0.214607
0.074156
-0.00192831
-0.0722277
-0.316806
-0.0895628
0.013283
0.205602
-0.180626
-0.0249766
0.00773425
0.250592
-0.329685
0.0430192
-0.0421351
-0.0200725
-0.00637595
0.0264484
0.0974964
-0.17729
-0.195185
0.372474
-0.411421
0.317748
0.0936726
0.19888
0.042717
0.157979
-0.0832919
-0.0746874
0.286571
0.261218
-0.102497
0.181501
-0.0790039
0.198835
-0.222375
0.0235405
0.0290159
0.168279
-0.197295
0.0180332
-0.00588718
-0.32118
0.251925
0.0692553
-0.0636286
0.181363
-0.48079
-0.213065
0.240941
-0.017016
0.0156112
0.00140474
0.0121399
-0.0166941
-0.0531345
0.0491594
-0.201495
-0.119686
-0.0324851
0.0127605
-0.328506
0.147129
-0.176815
0.0160861
-0.207884
0.302655
0.178781
0.0502872
-0.229068
0.00329749
-0.0589135
-0.0325195
-0.00765055
0.0401701
-0.315863
0.190734
0.125129
-0.405648
0.207394
0.101878
-0.0462683
-0.169228
0.32023
-0.151002
-0.216626
0.208548
0.00807814
0.0187332
-0.0649625
0.0462293
0.214441
0.0930477
-0.307488
-0.428216
0.281055
0.147161
-0.30803
0.138802
0.267336
0.175161
-0.156413
-0.0187478
0.211792
0.161828
0.0327374
0.0222276
-0.275413
0.145926
-0.0449655
-0.0478823
-0.186026
0.0487994
0.137227
-0.0166582
0.0154925
0.00116571
-0.0358059
0.0620651
-0.0262592
0.156167
0.00722548
-0.163393
-0.0666082
0.336546
-0.16048
-0.0163347
-0.0524523
0.0936235
-0.357473
0.262485
0.0949881
0.0695019
-0.124239
0.0547374
-0.234561
-0.310944
-0.230528
0.0265361
-0.00428363
-0.00276455
0.0304116
-0.027647
-0.21404
0.221636
-0.00759571
-0.196349
-0.20698
-0.170261
0.193807
-0.0235459
-0.177998
0.354403
0.0159089
-0.00215717
-0.0148588
-0.0287334
-0.00260587
0.0313392
-0.0900985
0.0707125
0.019386
-0.141955
0.0743714
0.0675833
0.0106641
-0.0653718
0.0547076
-0.0928157
-0.117377
0.210192
0.042743
-0.0953376
0.0525946
0.176044
-0.100178
-0.0758658
0.0614507
-0.112863
0.0514127
0.107159
-0.0558484
-0.051311
-0.00379389
0.0241283
0.155413
-0.391975
0.199975
-0.0012685
-0.0153897
0.175956
0.141647
-0.317603
0.374976
-0.109241
-0.265735
0.00878901
-0.0122856
0.208446
-0.17943
-0.0186132
0.0207287
-0.00211548
-0.0280939
-0.162009
-0.0949294
-0.342551
0.43748
0.0697256
0.345798
-0.0952063
0.0808263
-0.0207296
-0.0100445
-0.0264239
0.117253
-0.0169309
-0.100322
0.316842
-0.138198
-0.178643
-0.0360647
-0.149961
0.277502
-0.404668
0.127166
0.0442811
-0.0931785
0.0488974
-0.00643203
0.00122853
-0.0928163
0.128226
0.0552236
-0.0728796
0.017656
-0.0898262
0.391303
-0.146791
-0.0959699
0.242761
-0.062586
0.180382
-0.0715543
-0.160806
-0.203068
-0.20258
0.0364018
0.0614352
-0.14059
-0.120071
-0.0729774
0.0371715
0.0303818
0.0231339
-0.0535158
-0.108444
0.0858711
0.0225726
0.0326244
-0.207432
0.175503
-0.323952
0.148449
0.3204
0.00360381
-0.324004
-0.109699
0.0511531
0.0585457
-0.187196
-0.19168
-0.015603
-0.000266134
-0.0608556
-0.0773824
0.156097
-0.0182488
-0.0986824
0.0462301
-0.0325289
-0.0759149
-0.0077353
0.000752485
-0.405975
0.187651
0.218324
-0.00489944
0.00904211
-0.00414267
-0.199216
-0.179995
0.379211
-0.00869973
-0.00347901
-0.0596212
0.147693
0.0517407
-0.041877
-0.00986365
0.0980303
-0.0616285
0.0481246
0.0731756
0.0835718
-0.107047
-0.261867
0.368914
-0.0665868
-0.0790811
0.159
-0.0702761
0.167928
-0.278854
0.110926
-0.0239427
0.0263422
0.00487689
0.0213915
0.150261
-0.068851
-0.133289
0.162443
-0.029154
-0.412906
0.209838
-0.0865964
0.0258693
0.191488
-0.221672
0.030184
0.443896
-0.194979
-0.248917
-0.0128385
-0.193922
0.116696
0.0772254
-0.0567359
-0.0592995
0.0109974
-0.234417
-0.171558
0.0290127
-0.287678
-0.123743
-0.137019
-0.184982
0.322
0.0547474
-0.0673068
0.0125594
-0.0835524
-0.0261464
-0.285862
0.467225
-0.0365304
0.0791401
-0.0426097
0.190041
0.101316
-0.0585726
0.0760446
-0.0208211
-0.00436316
0.00810768
0.0238585
-0.0224142
-0.00144425
0.0151242
0.000486983
0.0250964
0.00486501
0.108946
0.0577158
0.0511152
-0.0876457
-0.225313
-0.142867
0.0762805
0.0546109
-0.000117256
-0.00847163
0.00858889
0.148123
-0.0187234
0.0213178
0.0959352
0.00646366
0.0292537
-0.0296915
0.000437768
0.00696771
0.042386
-0.0493537
0.0411573
0.0423499
-0.00648205
0.0449511
-0.038469
-0.17383
-0.0402102
-0.125746
-0.149667
0.0899106
-0.0170389
-0.131269
-0.177698
0.308966
0.011537
-0.00820829
0.118667
-0.0491655
0.193925
-0.209659
0.0157332
0.0191538
0.0332626
-0.0524164
-0.137777
0.0439707
-0.145962
0.132899
-0.0189614
0.209479
-0.358061
0.251014
0.174298
0.159567
0.0557312
0.0286049
-0.0843361
0.140187
-0.0727917
-0.437382
0.171103
0.266279
-0.00298372
-0.0180171
0.299417
-0.0669892
0.101272
-0.0342828
-0.054181
0.00522096
0.0403091
-0.117869
0.201519
0.00459612
0.0471446
0.127156
-0.236299
-0.420902
-0.062077
-0.160532
0.0272433
0.0345025
-0.0372671
-0.0587963
0.103077
-0.175913
-0.261469
-0.312206
0.175187
-0.170947
0.491348
-0.113914
0.0576891
-0.0248115
0.216005
-0.191193
0.0169907
0.0104965
-0.0274872
0.0702836
0.0242829
-0.029789
0.0326761
-0.00288709
0.00143771
-0.00172123
-0.0721058
0.0674857
-0.0568216
-0.0798037
0.0377695
0.0420342
-0.218198
0.369974
-0.151776
-0.158597
0.189337
-0.0307398
0.348771
-0.17738
-0.171391
0.0619299
-0.200502
0.138572
0.0317859
-0.0147952
0.191874
-0.19208
0.37851
-0.18643
0.155671
-0.152567
-0.00310395
0.0777262
0.0121844
0.19516
-0.210654
0.0154944
0.00228052
-0.0208938
-0.0383955
0.0482978
-0.00990238
0.0619355
0.0500506
-0.111986
-0.0981663
-0.0437885
0.385109
-0.225091
-0.160018
0.452176
-0.234107
-0.218069
0.0750174
-0.0657497
-0.00926767
-0.471982
0.186119
-0.19332
0.176044
0.0172762
-0.15419
-0.0262721
-0.216735
0.191924
-0.134993
-0.173037
0.29521
-0.288606
-0.00660378
-0.0294624
0.0459061
-0.0164437
0.0387831
-0.030546
-0.00823714
0.112072
-0.264338
-0.198809
0.00763344
-0.0219152
-0.0612544
-0.0247206
0.294093
0.326156
-0.151832
-0.174324
0.37614
0.15165
-0.0768949
-0.0321445
0.00235552
0.0454072
0.0370062
-0.0416199
-0.0508106
0.0924305
-0.00707878
0.00217934
0.279331
-0.114057
-0.165274
0.107649
-0.0602523
-0.0473963
0.14569
-0.271774
0.126083
0.166749
-0.0979416
0.0568535
0.064959
0.0100584
-0.0547515
0.00932376
0.272833
-0.161364
-0.111469
-0.0232135
0.0239182
-0.000704653
-0.138246
-0.130146
0.268392
-0.109574
0.158789
-0.142575
0.0447429
0.103179
-0.24997
0.019032
0.33726
-0.356292
0.0406593
-0.047344
0.109951
-0.0626073
-0.0603609
0.279311
-0.21895
-0.0667641
0.107553
-0.0407893
-0.0239743
0.0302515
0.0358946
0.0514345
0.0227215
-0.00161575
0.0986262
-0.0970104
-0.0850135
-0.227193
0.241113
-0.0185697
-0.222543
-0.317462
0.119287
-0.21702
-0.223056
0.440076
-0.02443
-0.00749411
0.0319241
0.000915953
0.0400239
0.0221963
0.11276
-0.134956
0.158094
-0.280748
-0.0951382
0.0554655
0.206548
-0.422355
0.215807
0.000221996
-0.000100332
-0.000121664
0.0295723
0.265637
0.204166
0.180943
-0.0672966
0.0109923
-0.186988
0.36404
-0.177052
0.0706248
-0.137987
0.0673622
-0.0856307
0.0240412
0.259522
-0.088992
-0.17053
0.270619
-0.488676
0.218056
0.158983
0.142984
-0.164845
0.148864
0.0159813
0.0729315
-0.0541983
-0.011347
0.0394025
0.0363773
-0.0142088
-0.0221685
-0.361403
0.246562
0.114841
0.00758241
-0.186509
-0.205465
-0.0456384
-0.0109108
-0.0826625
0.00366415
0.0789984
0.281595
-0.170628
0.17487
-0.163595
-0.0112747
-0.181132
-0.0533245
0.0702557
-0.061887
-0.036868
0.098755
0.276837
-0.068391
0.00336199
-0.0826089
0.0397561
-0.236955
0.539685
-0.0202866
-0.00139741
0.0675526
0.0169926
-0.0845452
0.144189
0.124781
-0.268971
-0.0303172
0.420606
-0.214058
0.151886
0.00578752
-0.00324416
0.0127786
0.0522869
0.0316762
-0.176228
0.0408385
0.0187908
-0.0596293
0.181411
0.144745
0.061856
-0.00971274
-0.0521432
0.371597
-0.270457
-0.178851
0.449307
-0.166339
0.337355
0.173738
-0.141921
0.132489
-0.402563
0.109781
0.292782
0.0746269
0.189339
0.0874979
0.063562
-0.044587
-0.0573953
-0.0126034
0.0985741
-0.0371234
-0.0122192
-0.222614
0.234833
0.00830085
0.0589139
-0.100534
-0.0695931
0.105001
-0.0354077
0.183734
-0.17001
0.196441
0.0631748
-0.0611349
-0.00203985
0.251661
0.15759
0.157872
-0.315462
0.0592355
-0.0192784
0.0806992
-0.0614208
-0.183814
-0.140324
0.324138
0.101497
-0.154888
0.053391
-0.232167
0.219948
-0.0567187
-0.0671892
0.123908
0.0151718
0.00288047
-0.0180522
-0.344319
0.204829
0.13949
-0.207944
0.366928
-0.158984
-0.162516
0.340748
-0.178233
0.0814377
0.184705
0.185663
-0.370368
0.176225
-0.378892
0.202667
-0.23727
0.413495
0.0956608
-0.0233491
-0.0723117
-0.142941
-0.167857
0.310797
-0.0616496
0.235686
-0.174036
-0.319743
-0.0828194
-0.140471
0.0671071
0.0733638
-0.0713046
-0.157763
0.169409
0.0450761
-0.00826323
0.0701192
-0.259068
0.03733
0.221738
0.00240496
-0.00111505
0.102757
0.0528017
-0.155559
0.0774418
0.233921
-0.311363
-0.0105353
0.00183553
-0.00832825
-0.0448063
0.0404245
-0.107189
-0.0231954
0.0287172
-0.00552173
-0.189913
-0.0755186
0.00389748
-0.00367548
-0.0230272
0.207027
-0.183999
-0.0486545
-0.010645
0.0805394
0.0207327
0.22947
0.139347
-0.368817
0.158345
-0.0555876
0.01758
-0.0417137
0.0241338
0.0636188
-0.000444014
-0.00625665
0.0867119
0.118901
0.105867
-0.224767
-0.0289668
-0.00799188
0.0369586
-0.203242
0.0803592
0.122883
-0.0512538
0.124258
-0.0730045
-0.0286085
0.0477623
0.100263
-0.0517244
-0.101391
-0.182968
0.422413
-0.261779
-0.160634
-0.157833
-0.0143387
0.172172
0.23321
-0.461966
0.228756
0.182974
0.0581381
0.200584
-0.180056
-0.020528
-0.0214211
0.0622597
-0.0856513
-0.0493421
-0.0600211
0.0976089
0.0481128
-0.056441
-0.0670668
-0.0755083
0.0335458
-0.00166514
-0.0318806
-0.017901
0.0297332
-0.0118322
0.352179
-0.357179
0.00500007
0.03082
-0.0408646
-0.048558
0.101541
-0.0529833
-0.0979898
-0.116548
0.214538
0.0578353
0.00282374
0.00845945
-0.0379218
-0.0215107
0.000335584
-0.0446561
0.100764
-0.0561075
0.125284
-0.0546591
-0.199641
0.369163
-0.169522
0.0680616
0.23093
0.0747184
-0.0723363
-0.00238211
0.0270079
0.0455549
-0.0725629
-0.136825
-0.442421
0.0490116
-0.105698
0.0566865
0.0208034
0.0779984
0.0176624
0.265376
0.073878
0.223181
-0.246208
0.101944
0.149434
-0.0331845
-0.0534119
-0.0207081
0.0293848
-0.0086767
-0.0230087
-0.195203
0.205766
-0.0105634
-0.0887101
0.217197
-0.059827
-0.0660991
0.115717
0.173761
-0.289478
-0.472497
0.37585
0.0966472
-0.0889202
0.231332
-0.142412
-0.375382
0.183302
-0.0392888
-0.00498546
-0.0611234
-0.095063
0.29996
0.09936
-0.0215627
-0.0610998
0.198604
-0.174554
-0.0240495
0.0106698
-0.010787
0.000590542
-0.300033
0.168764
-0.0554727
-0.020154
-0.0729842
-0.0460854
0.11907
0.182527
-0.18408
0.0015531
-0.205519
-0.266979
0.0436312
-0.0886427
0.0450115
-0.280737
-0.212353
0.00214602
0.02867
-0.0232516
-0.236616
0.174966
0.0066916
-0.0273997
-0.124836
0.0681171
0.0709018
-0.122156
0.00303603
0.502546
-0.20063
-0.301916
-0.365357
0.188068
0.17685
-0.384794
0.0445833
0.0625761
-0.128184
0.0683568
0.0239908
-0.0408969
-0.00574252
0.0466394
-0.0220166
0.145535
-0.123519
-0.223309
0.130493
0.0655602
-0.000601205
-0.0215513
0.149535
-0.127984
-0.0694483
0.0410201
0.285436
-0.125954
-0.159482
0.0244666
0.16004
0.032808
0.00356935
-0.0516896
-0.0327143
0.140681
-0.0287506
-0.00893942
0.0570121
0.0677136
-0.124726
0.149153
0.00268354
0.0114008
-0.0140844
0.195348
-0.29674
0.0070326
-0.314085
0.146014
0.00244316
0.190209
0.164098
-0.354307
0.0234825
-0.0212833
-0.00219928
-0.12606
0.174859
-0.0233085
-0.00779393
0.0311024
-0.211683
-0.00571259
0.217396
0.0086229
0.0270224
-0.0356453
0.295977
-0.080072
-0.215905
-0.00176308
0.239241
-0.0936807
-0.37138
0.100072
0.0646917
-0.121356
0.0566645
-0.162634
0.322122
-0.159489
-0.0693999
0.039338
0.0670782
0.00515685
0.193051
0.155608
-0.348659
-0.0324649
-0.0595476
-0.0279041
-0.263031
0.187594
0.0754369
0.0380579
-0.150382
0.112324
-0.298997
0.182551
0.116446
-0.0143343
-0.0788442
-0.0191489
-0.00236183
-0.281812
0.0676049
0.214207
0.0663657
-0.0654472
-0.000918447
0.00668313
-0.0285632
0.0218801
-0.00780744
0.0362002
0.283619
0.156592
-0.440211
-0.00609126
-0.0290111
0.0351023
0.0158898
-0.159588
-0.206674
-0.0668154
0.273489
-0.00893618
-0.0252905
0.0342266
0.0564168
-0.119157
0.0627404
-0.168714
-0.199447
0.368161
-0.08317
0.0320285
0.0511415
0.00430791
0.0620578
0.378788
-0.149317
0.0379001
-5.95689e-05
-0.0378406
-0.00567877
0.0104477
-0.00476891
0.116657
-0.0653963
-0.0512603
-0.0828224
0.209978
-0.0597664
0.113951
-0.0541849
0.00106834
0.0345154
-0.086419
0.0519035
0.0539716
-0.0227181
-0.0657515
0.0884696
-0.0366636
-0.156657
-0.0103582
-0.172753
0.183111
0.154651
0.0117202
-0.166371
-0.0521968
-0.0320471
0.0842439
0.264243
0.237491
-0.501735
0.184427
-0.330217
0.145789
0.129931
-0.255677
0.321798
-0.368471
0.0466724
0.209653
0.123515
-0.333168
-0.13366
-0.114998
0.0323334
-0.0280531
-0.00428026
-0.0304862
0.0374539
0.17994
-0.0115659
0.00354252
-0.0720017
-0.0595313
-0.0724404
0.020003
0.227579
0.0683983
0.105749
-0.105661
0.116867
-0.0604501
0.055233
0.0358007
-0.106042
0.0702413
0.0635135
-0.0164617
-0.0470517
-0.0516543
-0.306406
-0.134217
-0.160033
0.0792957
-0.177286
0.405555
-0.263083
-0.142473
-0.255419
0.226894
0.0285253
-0.0386444
-0.155277
0.020639
0.0503671
-0.0710061
-0.0777537
0.058602
0.0191517
-0.0345978
-0.0476027
0.115347
-0.216711
0.198714
0.017997
0.362432
-0.172816
0.153049
0.252507
0.186288
0.0732345
0.00083682
-0.0500328
0.0620901
-0.0120574
0.00344965
0.222014
0.135766
-0.301816
0.16605
0.173282
-0.0188255
-0.154457
0.000941087
-0.00203457
0.00109348
-0.155438
0.133886
-0.00423463
0.278618
-0.130627
-0.14799
-0.012055
0.0668024
0.00742552
-0.0117887
-0.169516
0.184733
-0.0152168
0.351038
-0.157988
-0.104521
-0.15851
-0.436061
-0.000794177
0.436855
0.104348
-0.0151329
-0.0424028
-0.0505327
0.0929354
-0.0237665
-0.149799
-0.0750565
0.0523384
-0.0753882
0.0622019
0.0693901
-0.00382984
0.102514
-0.0579744
-0.0445392
-0.109261
0.131457
0.0641859
-0.0477119
-0.0320918
0.144315
0.134303
0.0450537
-0.0515358
0.176023
-0.00593872
-0.170085
0.0815341
-0.110575
0.135195
0.00445749
-0.139653
0.245013
-0.0906743
-0.154339
-0.0342058
0.19897
-0.164764
0.096695
-0.115227
-0.161364
0.276591
0.0745443
0.0518556
-0.1264
0.121864
0.0296375
-0.00780599
-0.0218315
0.0664474
-0.26112
0.1656
-0.0956083
0.16947
-0.121716
-0.0477533
0.00206391
0.0283824
-0.0304464
0.106365
-0.0407292
-0.00171103
0.00329551
0.256674
-0.067335
-0.245697
-0.179195
0.424892
-0.0629627
0.181863
0.0100325
0.405715
-0.184423
0.275621
-0.131431
-0.153707
0.0877954
0.114803
-0.0528675
0.119175
-0.0573593
-0.0618153
-0.0476679
-0.0513668
-0.0755935
0.0409957
0.0290439
0.00555931
-0.0346032
0.291433
-0.173655
-0.117778
0.0413314
0.310848
-0.280544
0.176187
0.104357
-0.0533564