/*--------------------------------*- C++ -*----------------------------------*\
| =========                 |                                                 |
| \\      /  F ield         | OpenFOAM: The Open Source CFD Toolbox           |
|  \\    /   O peration     | Version:  v2012                                 |
|   \\  /    A nd           | Website:  www.openfoam.com                      |
|    \\/     M anipulation  |                                                 |
\*---------------------------------------------------------------------------*/
FoamFile
{
    version     2.0;
    format      ascii;
    class       volVectorField;
    location    "200";
    object      U;
}
// * * * * * * * * * * * * * * * * * * * * * * * * * * * * * * * * * * * * * //

dimensions      [0 1 -1 0 0 0 0];


internalField   nonuniform List<vector> 
18598
(
(1.07118 -0.00532574 -8.28555e-21)
(1.1034 0.0146536 0)
(1.00001 0.000103121 -2.8436e-21)
(1.06934 0.159973 1.59755e-20)
(1.01939 0.0112807 0)
(1.06649 0.0262876 5.66638e-23)
(1.0611 0.0993756 0)
(0.999595 0.00174214 0)
(1.09868 -0.0177066 1.35266e-20)
(0.883531 -0.0332858 9.55804e-21)
(0.989677 0.01038 1.2486e-20)
(-0.11234 -0.0234782 1.12891e-19)
(1.01731 0.00497959 -8.09115e-23)
(-0.131307 -0.0215322 -1.09304e-19)
(0.99886 0.00119671 5.48102e-21)
(1.10655 0.0698001 0)
(0.662305 -0.000285435 2.0377e-20)
(1.06541 0.0266117 0)
(1.00605 0.0557393 0)
(0.546028 -0.0301399 9.30306e-22)
(0.999616 0.0245793 1.06621e-22)
(1.01433 0.017215 -5.3711e-22)
(0.739264 -0.0169106 -2.03346e-21)
(1.02005 0.0171535 -8.88131e-24)
(1.01328 0.00589758 -4.9553e-22)
(0.70684 -0.000312962 1.22097e-20)
(1.09653 0.00614157 0)
(0.992953 0.00164117 -6.07184e-21)
(1.09662 0.00620833 -1.86413e-20)
(1.07012 -0.0055574 8.51437e-21)
(0.991779 -0.0231195 0)
(0.999661 0.0016794 0)
(1.02738 0.0365878 2.1426e-22)
(1.08384 0.0160523 4.51887e-21)
(1.05904 0.101646 0)
(1.09732 -0.0103089 -1.56171e-20)
(1.01295 0.00768627 -1.85168e-22)
(0.989346 0.0108034 0)
(1.01973 0.011066 -1.38403e-22)
(0.233777 -0.00263955 -1.86844e-20)
(1.08821 0.0054026 0)
(0.96723 0.484027 -2.06863e-20)
(1.14568 0.135815 -2.93381e-20)
(-0.134515 -0.0180153 0)
(0.921979 0.0155223 -1.35968e-20)
(1.01031 0.0389139 2.15175e-21)
(1.01246 0.00542835 0)
(1.08651 0.00800659 -6.74186e-21)
(1.02568 0.00643608 8.54523e-22)
(1.01305 0.00564225 0)
(1.00636 0.00102405 -1.86532e-21)
(1.18027 0.0561586 0)
(1.13211 0.110392 2.53034e-20)
(1.09618 0.0179495 1.3039e-20)
(1.01484 0.0172479 6.21567e-22)
(1.00572 0.00536052 3.42469e-21)
(0.99927 0.00615739 6.40415e-21)
(1.00057 0.000304205 -1.4649e-21)
(1.02484 0.00553584 1.23129e-21)
(1.02429 0.102344 0)
(0.556081 0.0149381 1.53331e-21)
(1.10288 0.0147863 2.20928e-21)
(0.992907 0.00141438 6.68276e-21)
(1.01962 0.0168639 -2.83082e-23)
(1.09429 9.28681e-05 -5.96585e-21)
(1.1042 0.0112156 1.34074e-20)
(1.0246 0.00574545 -2.83467e-21)
(1.03958 0.0150189 -4.41976e-21)
(1.109 0.533151 0)
(1.01237 0.00128866 -1.34873e-21)
(1.05206 0.0132025 -3.19971e-21)
(1.05215 0.0971678 -4.3815e-21)
(1.07321 0.00454882 0)
(1.12984 0.113107 0)
(0.997722 0.00189373 3.74367e-21)
(1.08748 0.00538819 0)
(0.998994 0.00259422 5.80232e-21)
(1.00577 0.00556579 1.75857e-21)
(1.04995 0.143812 4.38408e-21)
(1.05213 0.0138895 3.44488e-21)
(0.618825 -0.0253447 -1.43391e-20)
(1.01024 0.0401332 -1.16269e-21)
(0.985253 -0.00197235 0)
(0.727034 -0.00170455 0)
(1.02648 0.0363907 0)
(0.979733 -0.0245423 -1.61864e-21)
(1.01212 0.00144673 1.94829e-21)
(0.109113 -0.0178959 0)
(0.998202 0.00705214 -7.70505e-21)
(0.998991 0.0952463 0)
(0.953908 0.0565641 -1.6147e-20)
(1.09536 0.018172 0)
(0.924221 0.0131263 1.38202e-20)
(0.842031 0.266771 0)
(1.1438 0.35028 0)
(1.02555 0.015614 -6.93612e-22)
(0.576966 0.000178398 -7.72378e-21)
(0.993092 0.0114195 -1.64072e-21)
(0.565197 -0.0303732 0)
(1.08467 0.0161117 4.7082e-21)
(0.998066 0.00686443 8.55183e-21)
(1.00064 0.000283716 0)
(1.04262 0.0639574 -1.32317e-21)
(1.06129 -0.000977292 9.4018e-21)
(1.04565 0.140795 -8.95818e-21)
(1.03959 0.0246938 -9.62535e-21)
(1.08016 -0.00453958 -1.2982e-20)
(0.608561 0.012817 2.59694e-20)
(0.992552 0.00226876 -6.30648e-21)
(1.09384 0.000924533 2.0794e-20)
(0.954458 0.110727 0)
(0.568862 0.0154864 2.99165e-21)
(0.998671 0.00166979 0)
(1.0411 0.0650724 7.81292e-21)
(1.09488 0.017303 -1.42726e-20)
(0.966669 0.0147905 0)
(0.593809 -0.0280132 1.32383e-20)
(1.02214 0.100099 3.34283e-22)
(1.0573 0.013971 0)
(1.01293 0.00799335 2.04272e-22)
(-0.0464371 -0.0217526 3.78006e-20)
(1.02269 0.0150535 -3.18194e-22)
(1.02705 0.0156263 2.16079e-21)
(0.958485 0.112293 0)
(0.644444 -0.00357586 0)
(1.04523 0.0243585 0)
(1.04627 0.0171718 0)
(1.07577 0.00845523 0)
(1.09787 -0.00961811 0)
(1.01743 0.00963087 0)
(1.01499 0.000754937 -3.91197e-23)
(1.03744 0.173222 -1.16345e-21)
(0.691896 -0.0122567 2.1265e-20)
(0.951827 0.0503026 -1.59333e-20)
(1.07725 0.540625 0)
(1.00652 0.000868754 1.80214e-21)
(1.0931 0.0791994 0)
(0.992496 0.00191842 6.5158e-21)
(1.01268 0.00567081 -1.1859e-21)
(0.742004 0.195623 7.56168e-20)
(1.10323 -0.0175416 0)
(1.00426 0.0186361 4.03233e-21)
(0.999226 0.0064556 -9.10284e-21)
(0.00556593 -0.0162725 0)
(0.998373 0.012116 -2.37141e-21)
(1.00437 0.0513851 4.84841e-21)
(1.17925 0.0580557 0)
(1.09411 0.0174771 1.36487e-20)
(0.99529 0.0119982 -5.08133e-21)
(0.93901 0.0994188 6.48492e-21)
(1.03895 0.0248716 8.88381e-21)
(1.05454 0.00532082 -3.42059e-21)
(1.00022 0.0162178 -5.06944e-21)
(0.343672 0.00269858 -3.20762e-21)
(1.02563 0.0152775 -3.32606e-22)
(0.998323 0.0117234 2.13769e-21)
(0.322288 0.00233396 1.01304e-20)
(1.0456 0.0250668 -1.26289e-21)
(1.01754 0.00488938 -3.50919e-23)
(1.04329 0.0555088 -1.04494e-20)
(1.08737 0.0358833 3.33105e-22)
(0.85828 0.26932 2.20573e-20)
(1.02607 0.00645106 1.81871e-21)
(1.01923 0.00884605 1.66934e-22)
(1.01779 0.0098716 -2.09748e-22)
(0.249344 -0.00509313 1.80096e-20)
(1.09669 0.00348601 7.57185e-21)
(0.999125 9.86837e-06 0)
(1.04155 0.156613 0)
(1.08725 0.0540543 -8.46057e-21)
(0.997548 0.00198106 0)
(1.00944 0.139956 -4.11877e-22)
(0.0385948 -0.0200321 3.25292e-20)
(1.12975 0.0973034 -2.67482e-20)
(1.04693 0.0379292 5.14554e-21)
(1.01399 0.0166699 3.6043e-23)
(-0.0505527 -0.0257653 -7.22288e-20)
(0.965352 0.0157735 -2.53166e-20)
(1.05288 0.0319579 -2.36031e-22)
(0.394089 -0.00412718 -1.86812e-20)
(1.074 -0.00296006 0)
(1.06739 0.00286862 -1.00866e-20)
(1.03843 0.168301 0)
(1.0257 0.037379 0)
(0.513285 0.0109137 5.35209e-21)
(0.932444 0.0941673 1.13405e-20)
(0.868499 -0.00828344 0)
(0.506998 -0.00541926 0)
(0.998882 0.00517976 0)
(1.13378 0.0984803 1.23225e-20)
(1.03679 0.00704517 3.38314e-21)
(1.02226 0.0147613 1.36758e-21)
(1.0462 0.160571 -2.4591e-21)
(0.62874 0.00696591 2.23682e-21)
(1.04815 0.0577433 0)
(1.01821 0.013547 -1.64645e-23)
(0.609737 -0.0189483 5.38767e-21)
(0.597099 0.0129417 -2.93965e-20)
(1.08616 0.0363483 2.93584e-20)
(1.14737 0.130371 6.56018e-21)
(0.714529 -0.00457387 0)
(1.00599 0.0057438 -1.85656e-21)
(1.00542 0.138681 1.67555e-21)
(1.00001 0.000194709 1.63889e-21)
(0.960535 0.0564844 1.89405e-20)
(0.53806 -0.0248036 4.84822e-20)
(1.18458 0.128238 2.41361e-20)
(0.999729 0.0162524 5.07194e-21)
(1.04556 0.0229608 0)
(1.01821 0.0569232 -2.92186e-22)
(1.07181 -0.00600914 -1.83564e-20)
(0.619761 0.00226544 0)
(1.00979 0.00647333 4.32545e-21)
(1.09599 0.0787428 0)
(1.11083 0.0555512 7.70793e-21)
(1.05036 0.0602398 -7.66976e-21)
(1.11105 0.057622 7.06946e-21)
(1.00816 0.0265375 2.13906e-21)
(0.998919 0.00158601 0)
(1.06374 0.158078 -1.48138e-20)
(1.01676 0.00334557 0)
(0.993912 0.0101541 -7.02934e-21)
(1.00284 0.051732 -6.7233e-21)
(0.998913 0.00491785 0)
(1.05038 0.0957483 -1.13364e-20)
(1.00863 0.0260709 -3.72862e-21)
(1.02676 0.0159426 -7.92912e-23)
(0.99957 0.0090576 8.99564e-22)
(-0.0647809 -0.0183262 -3.78656e-20)
(1.01906 0.00863474 1.49589e-22)
(0.732492 -0.0125914 0)
(0.477777 0.0013056 1.15085e-20)
(0.993447 0.011842 -1.13461e-22)
(0.999267 0.0252227 0)
(1.15051 0.0662516 -1.25545e-20)
(0.654834 -0.0223749 3.62789e-20)
(1.0248 0.0371203 2.62006e-22)
(0.927921 0.0938588 9.08844e-23)
(1.01974 0.0163545 -3.35177e-23)
(0.956278 0.0554238 0)
(1.04641 0.020859 0)
(1.07504 0.0037439 -3.62708e-21)
(0.563932 0.0159959 1.80946e-21)
(1.02408 0.00597756 0)
(0.73625 0.21139 4.61452e-20)
(1.01046 0.0445924 4.28979e-21)
(1.00134 0.143202 -1.88802e-21)
(1.0042 0.0181071 -4.53717e-21)
(1.05216 0.0603642 8.92514e-21)
(1.01866 0.013906 -1.48535e-22)
(0.36763 0.00328057 -2.24055e-20)
(1.1562 0.0674303 4.72318e-20)
(0.101364 -0.0197067 0)
(0.649609 -0.0134424 3.39273e-20)
(1.07163 0.0779195 -5.17356e-21)
(0.686088 -0.0179773 -1.51175e-20)
(0.865113 0.103098 -2.66085e-20)
(1.11085 0.00988702 -3.11835e-20)
(0.992987 0.00032641 0)
(0.736288 -0.00150792 1.62395e-20)
(1.05229 0.0313384 -2.06289e-22)
(1.08263 0.0401959 9.01945e-22)
(1.07691 0.00611254 1.57635e-20)
(1.18368 0.344001 -1.0267e-19)
(1.20591 0.109994 -5.89141e-21)
(0.98552 0.0357045 0)
(1.017 0.00347958 0)
(0.931815 -0.0301715 0)
(1.09744 0.0266842 2.82525e-20)
(1.04595 0.0347017 4.13427e-21)
(1.01035 0.00600843 -2.04435e-22)
(1.01572 0.000344228 -2.10176e-22)
(1.07968 0.0233391 0)
(1.00415 0.0134101 3.30319e-21)
(0.372934 0.020653 -2.05835e-20)
(0.634941 -0.014824 -2.04948e-20)
(0.216223 -0.00459635 -1.76993e-20)
(0.674716 -0.000664225 -1.53326e-20)
(1.0871 0.00307146 -6.95474e-21)
(1.0839 0.0410471 -1.48685e-20)
(1.07435 0.00363216 7.20446e-22)
(0.689188 0.167918 2.47911e-20)
(1.00502 0.0543521 1.27521e-21)
(0.433404 0.00758221 0)
(0.64564 -0.00505247 -1.5278e-20)
(0.926786 0.087512 1.21944e-20)
(1.09667 0.0275296 2.49121e-20)
(1.10358 0.0765708 -6.97922e-21)
(1.01695 0.0139935 -4.86536e-22)
(0.86899 -0.00855636 1.39914e-20)
(1.11181 0.088506 0)
(1.05307 0.00152963 0)
(0.524508 0.0108348 0)
(1.10611 0.0116165 3.19803e-20)
(1.05584 0.655794 7.0546e-20)
(1.06526 0.0280584 6.17171e-21)
(1.02378 0.00607811 -2.93803e-22)
(1.12518 0.0345144 0)
(0.862892 0.110018 -3.21365e-20)
(1.07649 0.00795746 -1.21199e-20)
(0.743254 -0.0132402 -3.24654e-20)
(0.891302 -0.0315251 0)
(0.996915 0.141727 3.33966e-21)
(0.616967 -0.00261272 -1.6584e-20)
(1.04578 0.0382738 0)
(1.08094 -0.00503189 7.71771e-21)
(0.422997 -0.00621205 1.98309e-20)
(0.934388 0.0993961 1.93173e-20)
(0.557163 0.0150954 0)
(1.16978 0.17671 1.04113e-20)
(1.16547 0.29754 2.84297e-20)
(1.04388 0.0280672 -7.80887e-21)
(1.12898 0.0336111 1.18492e-20)
(0.575276 0.0135977 5.92972e-21)
(1.08627 0.0380588 0)
(1.07747 0.0271253 0)
(1.09032 0.0398353 3.11217e-20)
(1.04465 0.0277466 9.91308e-21)
(0.993333 0.000259655 0)
(1.12064 0.0105169 2.09599e-20)
(1.03887 0.01491 -4.31393e-21)
(0.663252 -0.0125978 -3.47026e-20)
(1.02947 0.0160337 2.92232e-23)
(0.930607 0.0128561 -1.26494e-20)
(1.00178 0.0503523 0)
(0.731031 -0.00617755 0)
(0.99895 0.00244962 4.25319e-23)
(0.989819 0.238057 0)
(1.04987 0.0582966 1.04502e-21)
(1.00968 0.0436891 -2.90358e-21)
(1.04732 0.0209492 0)
(1.03848 0.00635222 -6.4646e-22)
(0.27793 0.00465887 -2.54531e-20)
(0.368552 -0.00112675 1.71779e-20)
(1.01096 0.00671304 1.41537e-21)
(0.811265 0.27505 0)
(0.95048 0.0184831 0)
(0.580157 0.0149234 4.18264e-22)
(1.08697 0.0035015 0)
(1.00921 0.000243238 1.16631e-21)
(1.07882 0.0236659 -1.2465e-20)
(1.10176 0.0142805 -1.8918e-20)
(1.12647 0.127984 4.40813e-20)
(0.623271 0.00640078 4.33649e-21)
(0.979664 0.016241 0)
(0.217922 -0.0226218 0)
(0.499205 -0.000249672 -1.69704e-20)
(0.707232 -0.0047825 0)
(1.0807 -0.0253496 6.84481e-23)
(0.314014 -0.00677157 -4.99258e-20)
(0.950215 0.0389577 6.39264e-21)
(1.05448 0.00612109 9.28739e-21)
(1.05551 0.00160868 0)
(0.83126 0.280341 0)
(1.0854 -0.00289175 2.21355e-20)
(1.00987 0.0259335 -1.85232e-21)
(0.880677 0.187357 0)
(0.345501 0.00266218 3.88047e-21)
(1.11044 0.0917142 1.31519e-20)
(1.01778 0.0136906 3.61662e-22)
(0.991414 0.00224446 1.71758e-21)
(0.680912 0.00213629 1.36625e-20)
(0.999304 0.00368104 1.73136e-22)
(1.01079 0.00655314 4.72798e-22)
(1.01505 0.000810374 0)
(1.01343 0.0166405 -4.13558e-23)
(0.195479 0.00436749 -1.5217e-20)
(0.690005 -0.0228898 -1.63381e-20)
(1.08504 0.0386818 -1.3944e-20)
(-0.00088731 -0.0283743 -2.28311e-20)
(1.06959 -0.00465133 -8.75905e-21)
(0.989811 0.503903 2.51608e-20)
(0.95838 0.057528 1.16333e-22)
(0.22954 -0.00548048 -8.03983e-21)
(0.998724 0.00114123 -9.35305e-23)
(1.03751 0.0010921 6.66836e-23)
(0.804552 -0.00729651 4.08914e-21)
(1.00034 0.0507424 9.52747e-22)
(0.998859 0.00647489 0)
(0.240208 -0.00285364 0)
(0.53244 -0.027496 -6.16435e-20)
(0.997359 0.00235091 -3.97909e-21)
(1.06412 0.0283103 5.67438e-21)
(1.07458 -0.0037141 0)
(1.052 0.0163768 0)
(0.959443 0.00210749 1.11557e-20)
(0.993364 0.00764736 0)
(1.00001 0.000263759 3.17928e-21)
(1.01631 0.00328975 -8.52377e-23)
(0.922103 0.0874416 2.83864e-20)
(1.12098 0.03317 0)
(0.931886 0.0476209 2.10452e-20)
(1.00488 0.00636504 -1.99401e-21)
(0.975421 0.0028079 -7.08265e-21)
(1.12117 0.300181 6.99618e-20)
(1.00839 0.0317244 -2.26165e-21)
(1.01841 0.0579741 -2.79031e-22)
(0.991526 0.00190172 -1.77042e-21)
(1.09561 -0.00311671 0)
(0.984443 0.0472668 2.86214e-21)
(1.05155 0.0158211 0)
(0.999994 0.00600832 0)
(1.01908 0.013274 3.50785e-23)
(1.00002 0.0003311 0)
(0.301782 0.00417106 7.95187e-21)
(0.71779 -0.00123789 -2.23446e-20)
(1.0154 -0.0361801 1.43922e-20)
(0.534773 -0.00667681 0)
(0.596302 0.00371323 -9.23571e-21)
(1.049 0.149169 -8.00441e-21)
(0.996353 0.000664542 -4.63307e-21)
(0.203339 -0.0213222 1.64595e-20)
(0.984594 -0.0017567 -3.15981e-21)
(0.933431 0.0453631 1.58954e-20)
(1.10649 0.0723535 -2.38145e-20)
(1.00726 0.113873 -1.39799e-21)
(1.07147 0.0734959 0)
(0.984376 0.0873559 1.62705e-20)
(1.03712 0.594707 1.12791e-19)
(1.00583 0.0882702 -1.79776e-21)
(0.985269 0.0371128 -9.31797e-21)
(1.00047 0.0101081 0)
(0.996801 -0.00254182 -6.29324e-21)
(1.18781 0.0614856 0)
(1.04656 0.0164912 5.14894e-21)
(1.04694 0.0340505 1.64077e-22)
(1.04721 0.0162559 -5.10833e-21)
(0.952697 0.0149758 9.55846e-21)
(1.07326 0.0792855 7.73545e-21)
(0.994064 -0.0366126 0)
(1.01936 0.0159946 -9.45831e-24)
(1.08314 0.00422064 0)
(1.02953 0.0267748 1.88087e-21)
(1.09408 -0.00333029 8.09193e-21)
(0.993321 0.233575 0)
(0.972715 -0.0163068 1.22383e-20)
(1.0229 0.00598858 0)
(0.997523 0.00227607 3.69717e-21)
(1.04083 0.269735 1.48681e-21)
(1.00467 0.0063277 2.11771e-21)
(1.11442 0.263454 0)
(0.60854 -0.00202558 0)
(0.999678 0.00181121 -9.72709e-21)
(1.02893 0.0161564 0)
(0.980221 0.014448 0)
(0.959734 -0.00128631 -1.47168e-20)
(0.83163 -0.00798534 6.94543e-21)
(0.27739 -0.00882456 1.38892e-20)
(1.01643 0.0720508 3.30414e-22)
(1.09353 8.41914e-05 0)
(1.02263 0.00607675 -1.07725e-22)
(0.570555 -0.00103262 0)
(0.580073 -0.0010087 0)
(1.00001 0.00019264 -5.64483e-21)
(0.901758 0.819685 4.56237e-20)
(1.00568 0.0778085 3.08243e-21)
(0.985255 0.0463712 5.20651e-21)
(0.996027 -0.00157499 9.22634e-21)
(1.03774 0.0468399 2.02679e-22)
(0.995849 -0.00180616 -7.49436e-21)
(1.09825 0.00770884 0)
(0.999732 0.00173761 1.11093e-20)
(0.999932 9.88815e-06 -1.10556e-20)
(0.0751377 -0.0284847 2.10699e-20)
(1.10143 0.0398089 2.55096e-20)
(0.993586 0.0072535 0)
(1.10889 0.0123803 -1.93598e-20)
(1.00006 0.00584964 0)
(0.411749 0.00793626 -3.55296e-22)
(1.04493 0.00934323 0)
(1.02523 0.0146967 -1.09027e-22)
(1.0074 0.0264038 -2.13697e-21)
(1.0165 0.0141392 0)
(1.01144 0.163115 1.54828e-20)
(1.00022 0.0101588 0)
(1.0191 0.013772 -3.93111e-23)
(1.0843 0.0538928 1.96202e-21)
(1.04284 0.0428023 4.41193e-21)
(0.908342 0.00110132 3.53667e-21)
(1.09166 0.0402873 -9.48331e-21)
(1.02238 0.00577648 -1.72921e-21)
(0.000109922 0.0454874 0)
(1.08904 0.0157675 0)
(1.06409 0.000386523 -3.94587e-21)
(0.999796 0.00177493 0)
(1.03815 0.0262131 -4.62791e-21)
(0.998844 0.00133675 -1.17627e-20)
(0.999012 0.00164425 2.97157e-21)
(1.04569 0.0620084 7.20838e-21)
(0.995279 0.012471 0)
(1.00967 0.0536236 -1.8578e-22)
(1.08497 -0.00308492 -2.9526e-20)
(1.00823 0.112233 0)
(1.12065 0.128077 -6.05057e-22)
(0.987506 -0.0206593 2.1238e-20)
(0.95067 0.0524168 2.31744e-20)
(1.10584 0.0778956 1.45625e-20)
(1.10486 0.0599009 4.02073e-20)
(0.579562 -0.0309746 1.58343e-20)
(1.0099 0.000706216 2.95234e-22)
(0.654343 -0.011909 -4.0416e-21)
(1.04766 0.27942 0)
(0.979394 0.0150966 3.92183e-21)
(0.707 -0.0217841 0)
(1.03985 0.0137707 -2.65641e-21)
(1.00684 0.0260178 4.06737e-21)
(0.156868 -0.0162594 -4.42065e-20)
(0.978212 0.0187694 -9.85987e-21)
(0.98888 0.0157617 -1.48469e-21)
(0.602662 0.0141737 0)
(1.06361 -0.000238051 1.13523e-22)
(1.04592 0.0236646 0)
(1.03982 0.023807 -4.96685e-21)
(1.01951 0.0131408 -3.7281e-23)
(0.8785 0.0606119 0)
(1.00464 0.0173511 0)
(1.03309 0.0214197 3.20458e-21)
(0.456923 0.00385409 7.23021e-23)
(0.44459 0.0143446 -6.32075e-21)
(0.985974 0.0331264 -8.14013e-21)
(0.982249 0.0328443 -4.93518e-21)
(0.63375 0.00104341 0)
(1.03899 0.0468802 -1.10327e-21)
(1.03029 0.027257 2.22642e-21)
(1.04606 0.0200859 0)
(1.10281 0.609192 -1.07592e-19)
(1.02873 0.0355151 -1.52808e-21)
(1.0009 0.0104559 -4.05485e-21)
(0.764298 0.803164 -2.00107e-20)
(0.365518 -0.00146076 -6.29557e-21)
(1.02011 0.0111336 3.48286e-22)
(1.10237 0.0384953 -2.7756e-20)
(0.989492 0.0155111 2.39454e-21)
(1.03956 0.0232156 5.29658e-21)
(1.14486 0.0625557 -2.68372e-20)
(0.678331 -0.013687 3.98269e-21)
(1.07067 -0.0291509 -5.41895e-22)
(1.01642 0.000300176 1.41192e-22)
(1.00944 0.0264174 -2.16896e-21)
(1.16631 0.0434977 0)
(1.02838 0.0362423 2.75335e-21)
(1.09298 0.00593833 1.175e-20)
(1.03891 0.0259949 5.26048e-21)
(1.00299 0.0117576 0)
(0.981227 0.0149147 0)
(0.236243 -0.0158342 0)
(0.977394 0.0052083 -7.55808e-21)
(1.09105 0.0126183 0)
(1.01411 0.000842517 7.60536e-22)
(0.913979 0.497326 0)
(0.855485 -0.0337048 1.16057e-20)
(1.12829 0.202961 -3.09943e-20)
(1.09631 0.00449741 8.65845e-21)
(0.994837 0.0117255 -3.03683e-21)
(1.0986 0.588223 9.74851e-20)
(1.03677 0.0167526 1.61833e-22)
(0.566543 0.000793344 2.08005e-20)
(0.592302 0.0148757 0)
(1.0252 0.00735722 3.39694e-23)
(1.00002 0.000236164 0)
(0.928229 0.000934085 2.99983e-21)
(1.08389 0.0135288 7.96694e-21)
(0.996123 0.0942761 0)
(1.042 0.0562903 -2.6105e-21)
(1.00893 0.0104117 1.86808e-21)
(0.739143 -0.0221316 1.08248e-20)
(0.990573 0.0125974 1.35208e-20)
(0.99197 -0.00371841 7.28145e-21)
(0.974375 0.00293538 1.52707e-20)
(1.04768 0.0217092 0)
(1.02481 0.0146995 -3.87283e-22)
(1.08831 0.252979 2.91238e-21)
(0.994146 0.00416024 -5.77467e-21)
(1.0695 -0.0030183 8.27392e-21)
(0.355897 0.00445863 1.89948e-20)
(0.759722 -0.0204696 -2.14824e-20)
(0.997902 0.0115328 0)
(1.08314 0.052765 2.00728e-21)
(0.997875 0.0111264 -4.5514e-21)
(1.04524 0.00892599 2.33506e-23)
(1.09254 0.266788 -9.1055e-21)
(1.09111 0.0132447 0)
(0.0967703 -0.0163227 1.4708e-20)
(1.02209 0.00580925 1.56734e-21)
(0.905844 0.239213 -9.84106e-20)
(0.146764 -0.0163089 1.35292e-20)
(1.00554 0.0139201 0)
(1.09543 0.00803815 0)
(0.998797 0.00619494 4.89471e-21)
(0.822545 0.851622 0)
(1.09622 0.00399247 0)
(1.03734 0.0275296 3.47997e-21)
(0.72153 -0.0223665 2.27519e-20)
(0.995973 -0.00208269 -3.63304e-21)
(0.798008 0.280916 0)
(0.63636 0.00642126 -9.14629e-21)
(1.08606 0.0529458 2.26663e-21)
(1.0077 0.00662622 -3.25206e-22)
(0.998911 0.000400594 -3.40909e-21)
(0.978865 0.0169091 8.0548e-21)
(0.933028 0.0394228 4.377e-21)
(1.01674 0.00033306 5.85437e-23)
(1.0515 0.0254211 -3.09959e-21)
(1.01604 0.0330524 0)
(1.02806 0.00899016 -1.38643e-21)
(0.465257 0.0109281 1.27837e-20)
(1.0114 0.016955 0)
(1.07007 -0.00375641 -8.46546e-21)
(1.00001 0.000182091 -1.78993e-22)
(1.00574 0.0137829 0)
(0.43428 0.0104027 -2.49889e-20)
(0.343699 -0.00954907 1.21696e-20)
(0.990721 0.00323475 0)
(1.01098 0.0167817 -2.08708e-21)
(0.694273 -0.022067 0)
(1.0042 0.0130121 -3.30534e-21)
(1.04388 0.0292754 -7.0772e-21)
(1.00904 0.0101729 2.37945e-21)
(1.0372 0.00784356 -3.39045e-21)
(1.18825 0.392603 7.20585e-20)
(0.842756 -0.00658568 -3.70679e-21)
(1.00055 0.0176974 2.48633e-21)
(1.01014 0.00571838 1.7088e-21)
(1.08309 0.0134179 8.98894e-21)
(1.01941 0.00759334 -5.98663e-22)
(1.03803 0.00732399 -4.03919e-21)
(1.09083 -0.000801771 -1.71476e-20)
(0.991191 0.00109231 0)
(0.999013 -0.00131107 0)
(1.01956 0.00787805 3.59789e-22)
(0.991094 0.0014836 1.88891e-21)
(1.0451 0.010466 0)
(0.99966 0.00938179 3.10429e-21)
(1.12355 0.0327967 -1.27448e-20)
(1.03813 0.0273177 -4.88452e-21)
(0.993559 0.00989885 0)
(0.876972 0.18005 1.01862e-21)
(0.972349 0.0360929 0)
(0.470595 0.0119793 1.36181e-20)
(1.10337 0.00840125 -2.21942e-20)
(0.998701 0.0487215 -2.97291e-21)
(0.9992 0.00381918 -1.52948e-21)
(1.04302 0.0296282 1.02632e-20)
(1.06376 0.152058 0)
(1.00242 0.00893335 -2.92025e-21)
(1.06548 0.0756011 -8.18265e-21)
(1.01653 0.00343372 0)
(0.999961 2.81107e-07 5.63309e-21)
(0.61985 0.00769323 2.7033e-21)
(0.701489 -0.0148072 2.05179e-21)
(1.0019 0.026497 -1.99315e-21)
(0.999055 0.00223592 0)
(1.03023 0.0345954 -1.73813e-21)
(1.01 0.00672847 -2.61791e-21)
(1.04535 0.0100443 0)
(0.443191 0.00884426 2.80396e-20)
(0.703978 0.00130929 -7.88212e-21)
(1.09648 -0.000362378 -2.85094e-20)
(0.945873 0.0739404 1.8913e-20)
(1.12574 0.0727156 1.20526e-22)
(1.03015 0.0246438 -2.16019e-21)
(1.07971 0.0193674 7.4691e-21)
(1.0376 0.0650131 0)
(1.09441 0.0306782 2.44902e-21)
(0.847982 0.0837295 0)
(0.58659 0.0041014 2.15961e-20)
(1.00065 0.0104808 8.86782e-21)
(0.998779 0.00478328 -5.90796e-21)
(0.480993 0.0108029 0)
(1.0021 0.0115034 2.94384e-21)
(1.01877 0.00929712 0)
(0.272023 -0.0196742 -1.74903e-20)
(1.02769 0.00887419 -2.45122e-21)
(0.490897 0.00765534 1.50796e-21)
(1.00823 0.0536561 1.91434e-21)
(1.00004 0.000435998 -7.90461e-22)
(1.01912 0.00924579 0)
(0.995787 -0.00233728 -2.39121e-21)
(1.10263 0.270842 0)
(0.670564 -0.00978727 8.2566e-20)
(1.07973 0.027312 7.02792e-21)
(1.01021 0.0169558 -2.83364e-21)
(0.972983 0.0343871 1.87475e-20)
(0.999748 0.00597312 3.08351e-21)
(1.07429 0.0606598 7.52873e-21)
(0.188708 -0.00665312 0)
(0.948746 0.0177537 2.7143e-20)
(1.17451 0.0542007 0)
(0.999068 0.000112717 -1.54647e-21)
(0.995184 0.0144936 4.22853e-21)
(1.03724 0.00680282 0)
(1.00779 0.0311141 2.90377e-21)
(1.0098 0.0057142 0)
(1.01376 0.138009 1.09738e-21)
(0.978264 0.00468877 0)
(1.10423 0.00917067 2.8509e-20)
(1.09855 0.00956332 2.19668e-20)
(1.08843 0.0302141 0)
(0.96732 -0.00416697 2.59249e-20)
(1.02158 0.00549892 6.57815e-22)
(1.00001 0.000294065 1.14712e-21)
(1.0911 0.048117 0)
(0.994394 0.003928 1.03077e-20)
(0.422484 0.00634671 -1.25443e-20)
(0.881619 0.0558371 -1.71362e-20)
(1.04033 0.0134611 7.91989e-22)
(1.05901 0.149645 0)
(1.08836 0.0309965 0)
(0.192864 -0.0021619 0)
(1.01229 0.00775169 0)
(0.211144 -0.0152148 0)
(0.998414 0.00119205 -6.35933e-21)
(0.308631 0.00228253 -1.66621e-20)
(0.95181 0.0410232 0)
(0.888207 -0.00578316 2.51934e-20)
(1.0156 0.134503 -2.00985e-22)
(0.923029 -0.0319589 1.98952e-20)
(1.04716 0.0608094 6.60062e-21)
(0.999983 0.000245765 4.4668e-21)
(1.06393 0.0295034 0)
(1.04449 0.0649991 -3.35465e-21)
(0.990891 0.000330782 3.98588e-21)
(0.659219 0.00381664 1.91784e-20)
(0.593912 -0.0175538 0)
(1.05651 0.0137299 0)
(1.03344 0.0411047 0)
(1.00961 0.00543677 0)
(1.0949 0.00150549 -1.50323e-20)
(0.976779 0.0171181 -8.91169e-21)
(1.01149 0.00749469 -1.87423e-21)
(0.928537 0.484707 1.4591e-21)
(0.968515 0.0320345 -1.69284e-20)
(1.09594 0.000198209 2.65616e-20)
(0.912685 -0.0284886 -5.7299e-21)
(1.012 0.0077748 0)
(1.10236 0.0140928 1.76123e-20)
(0.999034 0.000396746 0)
(0.997227 0.00329742 1.30528e-20)
(1.13547 0.0144901 -2.50322e-20)
(1.09161 0.0493952 0)
(1.00002 0.000210518 3.073e-21)
(1.15894 0.152735 8.70323e-21)
(0.998692 0.00147519 -5.92953e-21)
(1.07885 0.0192682 0)
(1.17224 0.0543844 -1.74131e-20)
(0.188879 -0.0202729 2.21696e-20)
(0.596308 0.0148329 0)
(0.451534 0.00994153 0)
(0.635453 -0.00425803 1.93067e-20)
(1.06082 -0.00173956 -4.80893e-21)
(1.15173 0.15402 0)
(0.99708 -0.00242805 -3.64726e-21)
(1.0628 0.0297135 1.51962e-21)
(1.12167 0.556646 -3.45613e-20)
(0.329573 0.00894397 0)
(1.00709 0.0796604 -1.4855e-21)
(1.07918 0.0267226 3.80321e-21)
(0.621866 0.00832834 -8.58202e-21)
(0.703315 -0.00171969 4.75921e-22)
(0.96412 0.106889 -3.16717e-20)
(1.20673 0.105744 3.14679e-20)
(0.772517 -0.0335428 1.59785e-20)
(1.00167 0.0260004 4.22574e-21)
(0.993745 0.00936053 0)
(1.00532 0.228106 1.2294e-21)
(1.00149 0.011524 -3.07773e-21)
(0.318711 0.00371975 1.00549e-20)
(1.06788 0.0758064 -9.44498e-21)
(1.0338 0.0240251 -4.10848e-22)
(0.951074 0.436528 2.07568e-21)
(1.06079 -0.000334625 -9.40333e-21)
(1.03799 0.00642961 7.70622e-22)
(0.999105 0.0497554 7.88971e-21)
(1.01176 0.007466 -9.77561e-22)
(0.999974 0.000225363 -9.1073e-21)
(1.00447 0.0137056 -3.37558e-21)
(1.09145 -0.0153129 0)
(1.01741 0.0703723 -4.2285e-22)
(1.00511 0.00134915 -1.47853e-21)
(0.450925 0.00348422 -1.35862e-20)
(0.999874 0.00609841 -5.11508e-22)
(1.01554 0.172047 -8.2434e-22)
(1.08516 0.0403608 1.55527e-20)
(0.946707 -0.00174169 1.16095e-20)
(1.03383 0.0216052 8.40077e-22)
(0.877158 -0.00612647 -2.93779e-20)
(1.03608 0.016873 1.19986e-22)
(1.01583 0.000481278 1.48613e-22)
(1.03235 0.0410264 0)
(0.747037 -0.014538 -1.86145e-21)
(1.07323 0.0594635 1.23651e-20)
(1.00491 0.00129889 -1.41378e-21)
(0.997175 0.00305571 3.72618e-23)
(1.00002 0.000368095 -4.25954e-21)
(1.08138 0.0409476 -8.40087e-22)
(0.99344 -0.000749626 7.65593e-21)
(0.622066 0.0171148 3.45855e-20)
(1.09301 0.246907 -1.18446e-20)
(0.72918 -0.00383117 0)
(0.0300926 -0.0136298 0)
(1.03671 0.00752477 5.13603e-21)
(1.12287 0.072865 0)
(1.10091 -0.00440765 -1.41631e-20)
(1.00076 0.00700543 -2.94431e-21)
(1.04018 0.0219202 -5.24376e-21)
(0.997493 0.0105078 0)
(0.983595 0.020988 0)
(0.710154 0.0229879 -7.34668e-20)
(0.998788 0.00173707 0)
(1.01394 0.00754049 0)
(1.03574 0.0481341 2.73456e-21)
(1.01424 0.231002 3.83448e-21)
(1.02772 0.0296183 -1.61153e-21)
(0.500223 0.00632295 0)
(0.936146 0.00105173 1.93523e-20)
(0.999362 0.111288 -8.00406e-22)
(0.94509 0.0706988 0)
(1.0072 0.0105436 4.77033e-22)
(1.00139 0.00500209 4.89931e-21)
(1.22506 0.156467 0)
(1.00001 0.000153216 -3.17247e-21)
(0.966515 0.0290463 -3.62877e-21)
(1.03826 0.00545713 3.48303e-21)
(0.993394 -0.000896154 0)
(1.01925 0.00811358 9.46178e-23)
(0.995548 0.00162507 1.22534e-20)
(0.899503 0.0436448 0)
(0.743653 -0.0178742 4.20004e-20)
(0.976367 0.00353122 6.65091e-21)
(1.00827 0.0440362 2.96509e-21)
(1.16457 0.182897 0)
(1.11261 0.0101484 -1.06171e-20)
(1.02188 0.00549578 -7.52413e-22)
(1.01445 0.013961 0)
(1.01608 0.000404288 1.92254e-22)
(1.0468 0.0589544 0)
(0.737774 -0.00388297 -4.70287e-21)
(1.09698 0.00289621 -3.19703e-20)
(1.1029 0.116051 2.12359e-20)
(0.183878 -0.0110819 -1.1536e-22)
(1.00426 0.0256957 0)
(1.00493 0.17687 0)
(0.985362 -0.00393433 0)
(1.05815 0.0135925 0)
(0.928006 0.0153822 1.4377e-20)
(1.23179 0.151776 0)
(0.955091 -0.0157664 0)
(1.00553 0.0258947 0)
(0.610677 0.0119236 3.65497e-20)
(1.0254 0.0130733 0)
(0.951289 0.0137854 -9.53718e-21)
(0.919261 0.0815511 -2.85003e-20)
(0.99555 0.0141408 0)
(1.0061 0.0062548 2.02064e-21)
(1.01115 0.178114 0)
(1.07772 0.0180211 0)
(1.0067 0.0131139 0)
(1.08504 0.0275504 7.37666e-21)
(0.698633 -0.00578314 0)
(1.15079 0.0636791 -7.52434e-24)
(1.09481 0.00794573 1.10262e-20)
(1.10242 0.0691003 -1.39389e-20)
(0.997371 0.00282976 0)
(0.995826 0.0219693 -5.12833e-21)
(1.0194 0.0116582 -1.20566e-22)
(1.00163 0.00142518 3.4282e-21)
(0.679479 -0.0157919 -8.89155e-21)
(0.585567 0.0159379 0)
(1.10386 0.0736137 2.00988e-20)
(0.96672 0.061789 6.06653e-21)
(0.985499 -0.00256737 -8.52325e-21)
(1.09283 -0.0175384 -1.85729e-22)
(1.00075 0.000945815 0)
(0.0214478 -0.0112493 -6.73413e-20)
(0.99541 0.00176371 -1.43114e-20)
(1.00754 0.010676 1.54128e-21)
(1.09566 0.00483811 0)
(1.01423 0.009111 6.98322e-22)
(1.05666 0.00761005 0)
(1.15038 0.140506 0)
(1.02566 0.01677 9.46808e-22)
(0.999984 0.000464077 -4.11749e-21)
(1.00049 0.0167143 0)
(1.04809 0.018766 -8.77013e-21)
(1.0898 -0.000712847 -7.03842e-21)
(0.808222 -0.00690976 0)
(0.692255 -0.00723264 -2.36834e-20)
(1.01988 0.0125049 0)
(1.03704 0.0482179 0)
(0.99884 0.00447498 0)
(1.00534 -0.00276529 -6.52819e-21)
(1.11595 0.231648 8.77923e-22)
(1.0256 0.00739056 -2.62636e-21)
(1.04431 0.0126597 7.55167e-21)
(0.981961 0.0142749 -3.64526e-21)
(0.93143 0.0420467 -4.66242e-21)
(1.07823 -0.00591717 -7.53234e-21)
(1.02762 0.00847154 -4.05439e-21)
(0.224242 -0.00334089 0)
(1.08847 0.0162725 0)
(1.00002 0.000258399 5.05522e-21)
(0.576774 0.015489 3.03809e-21)
(1.08839 0.00810776 6.22577e-21)
(0.991275 0.0108607 8.9804e-21)
(0.67694 -0.00569903 -7.86944e-21)
(1.00079 0.000888823 3.68142e-21)
(1.01942 0.00839678 -4.10962e-22)
(0.135666 -0.0276889 2.01538e-20)
(1.18122 0.0558406 1.44282e-20)
(1.04674 0.0178379 2.02068e-21)
(1.118 0.01492 0)
(1.01488 0.0139324 -1.0006e-21)
(1.11152 0.0135539 -3.72617e-21)
(0.999753 0.00185234 -2.0418e-21)
(1.00778 0.00116839 3.35553e-21)
(1.03785 0.00777891 1.92702e-21)
(1.01431 0.000846722 2.20685e-22)
(1.00662 0.0756321 -2.52577e-21)
(1.00564 0.00676098 -2.00113e-21)
(1.046 0.0639316 -7.48816e-21)
(1.02786 0.00823518 1.30717e-21)
(1.17768 0.0536685 2.34237e-20)
(1.07171 0.00280111 1.45345e-20)
(1.09526 0.0295843 0)
(0.997287 0.00629058 6.54114e-22)
(0.976731 -0.0223004 -2.25155e-20)
(1.09831 0.115974 -6.97136e-22)
(1.08558 0.00364533 1.88409e-20)
(0.998556 0.00126905 6.21837e-21)
(0.984646 0.0334672 8.63119e-21)
(1.17846 0.359694 0)
(1.00467 0.0178714 -5.27685e-22)
(1.01357 0.0140119 -1.44097e-21)
(1.0727 0.0756235 0)
(1.08642 -0.0060465 1.22846e-20)
(1.01956 0.00711057 0)
(0.921182 0.0228121 0)
(0.997485 0.00636022 -6.63968e-22)
(1.07071 0.0117295 -2.31863e-21)
(0.428377 -0.00328135 1.03185e-20)
(0.996183 -0.000566791 -4.64316e-21)
(1.01387 0.00949759 1.51232e-21)
(1.01669 0.010293 0)
(1.10478 0.0686638 0)
(1.00369 0.00574765 -5.65762e-22)
(0.999921 0.000577782 5.32029e-21)
(0.999912 0.000645955 -5.03588e-21)
(1.10522 0.0413623 -7.38988e-21)
(1.00221 0.0126114 3.29528e-21)
(1.01313 0.0177967 1.90183e-21)
(1.00541 0.00671554 2.12022e-21)
(1.06378 -0.00170836 -1.44808e-20)
(1.03706 0.00842677 -1.86419e-21)
(0.983982 -0.00205984 -3.31559e-21)
(1.10989 0.0134675 9.57545e-21)
(0.988087 0.0145996 2.89348e-21)
(0.0655884 -0.0115592 1.65508e-20)
(1.02695 0.0444043 1.80993e-21)
(0.994639 0.00476472 6.08792e-21)
(0.285747 0.00466202 1.48726e-20)
(1.00397 0.00308007 0)