/*--------------------------------*- C++ -*----------------------------------*\
| =========                 |                                                 |
| \\      /  F ield         | OpenFOAM: The Open Source CFD Toolbox           |
|  \\    /   O peration     | Version:  v2012                                 |
|   \\  /    A nd           | Website:  www.openfoam.com                      |
|    \\/     M anipulation  |                                                 |
\*---------------------------------------------------------------------------*/
FoamFile
{
    version     2.0;
    format      ascii;
    class       volVectorField;
    location    "200";
    object      ddtCorrDdt0(U);
}
// * * * * * * * * * * * * * * * * * * * * * * * * * * * * * * * * * * * * * //

dimensions      [0 1 -2 0 0 0 0];


internalField   nonuniform List<vector> 
18649
(
(-0.03128 -0.18479 -1.73069e-19)
(-0.000182151 0.000314132 -3.89734e-20)
(-0.0412131 -0.243933 2.48475e-19)
(0.0894178 0.0190654 7.53002e-21)
(-0.000134013 -4.77642e-06 -1.56428e-20)
(0.0110682 -0.335424 0)
(-0.000209494 -0.000226238 0)
(0.000392923 -1.99853e-05 -3.49693e-22)
(-0.0169935 -0.118018 7.06357e-21)
(0.369861 0.0676929 -1.83153e-19)
(-0.000159194 0.00130171 -8.31829e-20)
(0.000359435 0.000106636 1.71179e-20)
(-0.000123775 5.9271e-05 1.38221e-20)
(0.000300978 -0.00440141 5.21697e-20)
(0.0844052 -0.0770718 6.81735e-21)
(-1.51044e-05 1.90033e-05 0)
(0.00449003 0.0088464 -3.34454e-20)
(-0.000237237 -0.000242077 0)
(0.176828 0.0678891 -1.31295e-20)
(-9.89803e-05 0.000312423 0)
(0.000332852 -6.09113e-05 -3.13105e-20)
(0.113493 -0.143579 -2.06978e-19)
(-0.0185616 -0.0743955 1.09193e-20)
(0.0734661 0.0294529 0)
(0.338334 0.119099 2.92341e-19)
(-0.00987577 -0.043574 -1.09469e-20)
(-0.0104949 -0.125956 4.69582e-21)
(-0.00313232 -0.168502 2.62568e-20)
(-0.000246802 0.0066563 -5.19222e-20)
(-0.416691 -0.093835 -3.77749e-20)
(0.0137674 -0.0116798 0)
(0.0126072 -0.0147149 0)
(0.00706504 0.0164371 -8.87385e-22)
(0.0311595 -0.00392766 -2.04293e-20)
(0.000125943 -2.41761e-05 3.49082e-20)
(-0.0321684 -0.0265789 0)
(0.0456858 -0.195308 9.53111e-20)
(0.0593704 0.00525957 -7.10585e-20)
(-6.31266e-05 0.00114266 8.18796e-20)
(0.000320781 -0.00377778 -1.09676e-20)
(0.109522 -0.0720793 1.83252e-20)
(0.00549692 -0.00293927 2.75987e-20)
(0.118111 0.125498 -2.13613e-20)
(0.014396 -0.0988625 -4.70362e-20)
(-0.00545031 0.0102275 7.42552e-22)
(0.0488641 -0.360055 2.31771e-19)
(-0.0465205 -0.0707181 -4.91533e-21)
(0.0210128 0.0144275 0)
(-0.000173913 -0.000334228 -2.14283e-20)
(0.0892123 -0.0132576 -1.17389e-20)
(0.100967 0.0501243 0)
(0.00129543 -0.0636995 -3.93615e-20)
(-0.000727483 0.00536776 -3.14897e-20)
(0.117775 -0.05478 1.03307e-20)
(0.00124698 0.00301859 2.02282e-21)
(0.216168 0.00884719 0)
(0.0538369 -0.46576 0)
(-0.00010515 -0.00030814 2.08707e-20)
(0.00198201 -0.000818662 6.24126e-24)
(-0.0600276 -0.160589 1.92452e-20)
(0.000110657 -0.000587959 0)
(-0.0162655 0.0940678 2.58442e-21)
(2.28585e-05 -0.000322609 0)
(0.101754 -0.345379 2.14583e-21)
(-0.40391 -0.110276 1.01652e-21)
(0.0798955 0.00951871 -9.60347e-21)
(-0.0725632 -0.16095 -1.77178e-20)
(0.0123868 -0.00292067 0)
(-0.00879846 0.00837502 -6.80289e-22)
(0.18547 -0.131819 -1.15305e-19)
(-0.00978109 -0.127137 0)
(0.0317996 0.0027006 4.40188e-20)
(-0.000264857 -9.80749e-05 0)
(-1.90812e-05 -0.000311514 0)
(0.00132409 -0.0268157 0)
(0.0266433 -0.119507 1.97016e-20)
(-0.0234641 -0.159671 2.24715e-20)
(0.000119111 -1.1084e-05 -4.05425e-20)
(-0.320657 -0.292855 7.632e-19)
(0.00192272 -0.00156703 -2.37691e-26)
(0.000739825 -0.0218437 0)
(0.0613764 0.0127706 8.82096e-20)
(0.0574536 -0.133057 0)
(0.181246 0.0974284 1.50482e-20)
(0.000369859 3.93772e-06 2.12507e-22)
(0.143877 -0.0138554 6.42385e-20)
(-0.0275985 -0.0164965 -5.81395e-20)
(-0.0346436 0.0216895 6.25075e-20)
(0.00117426 -0.000234904 -4.14281e-24)
(-0.192248 -0.0919537 0)
(0.00721356 -0.309254 -8.96593e-21)
(0.0577703 0.129264 0)
(0.0746572 0.0219484 -8.01745e-21)
(-0.107506 -0.0859952 -1.7583e-19)
(-0.000818657 -0.00570958 5.02739e-21)
(-0.000662789 0.00432555 2.58279e-21)
(-0.017722 -0.0447475 1.49835e-21)
(0.0813362 -0.00139341 0)
(0.0693406 -0.030478 1.44481e-20)
(0.000129811 8.56736e-05 -1.44272e-21)
(-0.0162572 -0.0479176 8.54702e-20)
(-2.08577e-05 2.3945e-05 5.98444e-21)
(0.0779468 -0.0244957 0)
(0.000386782 -1.23001e-05 4.06352e-22)
(-0.0238015 -0.109439 4.14273e-22)
(-0.0188776 -0.136489 1.6734e-21)
(0.0368355 -0.235024 1.9459e-21)
(0.252612 -0.0273207 1.06307e-19)
(0.136123 0.0439606 -1.20806e-20)
(-0.000221111 -7.9439e-05 0)
(0.000130596 1.33491e-05 -1.2888e-22)
(0.0217935 0.00598827 1.99365e-21)
(-0.0415068 0.0191167 -5.66447e-20)
(2.10392e-05 0.000280489 -4.4915e-20)
(-0.000557292 -0.0047598 0)
(0.0900681 0.0172108 7.90839e-20)
(0.0123983 0.000536926 -2.20368e-20)
(0.0251052 -0.00206211 1.58734e-20)
(-4.72543e-05 -5.59023e-05 -1.96023e-20)
(-0.0264833 -0.00252761 -1.58511e-20)
(-0.000348244 -0.000824921 -2.55002e-23)
(0.0517213 0.0209963 4.49397e-21)
(0.050928 0.061478 3.8604e-20)
(2.76127e-05 0.000278942 2.80629e-20)
(0.000359602 -1.33433e-05 3.44441e-22)
(0.0060002 -0.0028319 0)
(-0.0704134 -0.390678 0)
(0.000361628 -0.00413274 0)
(-0.0012218 0.00754493 -1.12635e-22)
(-0.000645144 0.000567143 -2.20982e-22)
(-8.015e-05 -0.000996865 -7.08975e-20)
(0.0865442 -0.334779 -4.71215e-20)
(-0.0235307 0.101338 0)
(-0.0259356 0.117281 -8.64581e-20)
(9.20702e-05 -3.42591e-05 6.50748e-20)
(0.0267457 -0.245304 2.61554e-22)
(-0.0102607 -0.199718 6.57457e-20)
(0.210825 -0.0143029 -7.68957e-20)
(-0.0146305 -0.238203 -1.78909e-19)
(-0.00712941 0.0146129 -3.56877e-22)
(0.0190637 0.00994213 5.25886e-20)
(0.000115007 -2.25275e-05 -1.17666e-20)
(0.000866951 4.43083e-05 -1.48786e-22)
(0.0045193 -0.0024417 -2.54638e-20)
(-0.00340032 -0.144515 -8.71921e-21)
(-0.000693103 -0.000688808 -2.35672e-22)
(0.00233818 -0.000361876 1.2388e-20)
(-0.0510607 0.101142 -2.16668e-19)
(-0.0121639 -0.147649 -2.80072e-21)
(0.000708683 -0.00170441 8.09646e-23)
(-0.0233014 -0.220057 5.139e-22)
(0.102715 -0.105854 5.95832e-21)
(0.000120638 -1.11894e-05 -3.76599e-22)
(-0.000265077 -0.00011564 -5.07925e-20)
(0.0489063 0.0118686 0)
(0.0931504 0.115915 -4.74272e-20)
(0.000633548 -0.0017589 -2.15883e-20)
(0.00185913 0.00506814 -1.74327e-20)
(0.000244145 5.68554e-05 1.316e-20)
(-0.0619979 -0.142192 6.69388e-20)
(0.00751759 -0.244264 0)
(-0.0126015 -0.213543 -3.69677e-20)
(0.00066571 -0.0015198 7.08007e-20)
(-0.0305846 -0.122675 8.48336e-21)
(0.154444 -0.0533368 -2.37782e-20)
(8.81175e-05 -5.0726e-05 -1.17696e-20)
(-0.0358616 -0.0222011 5.21691e-21)
(-0.016754 -0.140379 4.336e-21)
(-5.43793e-05 1.6253e-05 -2.07221e-22)
(-0.000202153 -0.00069102 0)
(-0.0286348 -0.00161071 -3.10673e-21)
(2.8077e-05 8.74946e-05 2.73051e-20)
(0.000742097 -0.000371541 -7.67722e-21)
(0.00605939 0.00225581 1.70872e-20)
(0.0820915 -0.027925 1.26056e-20)
(0.0138172 0.014032 9.80276e-22)
(0.0102939 -0.0899889 -2.81596e-21)
(0.000452408 -0.00170151 0)
(-0.0184196 -0.13125 0)
(-0.00468044 -0.272097 5.04128e-20)
(0.00021831 -0.000419782 0)
(-0.0130704 0.00543371 3.77231e-22)
(-0.00121696 0.00468307 0)
(0.000798072 0.0033832 1.84334e-20)
(0.00515858 0.000174117 -2.95849e-20)
(-0.00138027 0.00356781 0)
(0.00106219 0.00198544 4.29936e-22)
(0.0511641 0.0247516 -1.94616e-21)
(-0.000338174 -0.000718034 -1.24579e-23)
(2.44978e-05 0.000793264 0)
(0.00919736 -0.00779703 0)
(-0.000733485 -0.311308 -2.17965e-20)
(0.112246 -0.0958764 5.09196e-20)
(-0.0323717 -0.00477462 4.83084e-20)
(-0.04515 0.0796943 0)
(0.000722873 -0.000379506 6.39354e-21)
(0.00249557 0.00964458 -6.40243e-22)
(0.000936714 0.00997824 3.8895e-21)
(0.172745 -0.0431135 2.08627e-20)
(0.0198516 0.00247341 1.30121e-21)
(-4.89663e-05 0.000902217 0)
(-0.00011913 -3.55929e-05 -3.95359e-21)
(-0.0730781 -0.154059 0)
(-0.000239407 -0.000104541 -1.05239e-20)
(0.00486509 -0.00251474 4.75379e-20)
(1.57856e-05 4.53223e-05 -3.93872e-20)
(-0.0213914 0.12998 -1.08572e-20)
(-0.0252443 -0.205542 0)
(0.00703196 -0.000490203 1.50628e-20)
(-0.000165573 0.00345966 0)
(-0.000318148 -0.000709542 5.01185e-23)
(-0.00984389 -0.011335 0)
(-0.000187771 0.000557272 -4.0133e-22)
(0.0143659 -0.0409425 1.21442e-21)
(-0.234947 0.261378 1.7194e-20)
(0.0149719 -0.0440377 8.19645e-20)
(-0.000125962 1.99298e-05 5.85568e-20)
(0.010105 -0.00748433 1.39029e-20)
(0.00281997 0.00432992 -2.71351e-20)
(-0.0420768 -0.0622274 0)
(-0.0129135 -0.108431 0)
(0.0047211 -0.000463031 -1.55916e-21)
(0.0115359 -0.282187 0)
(-0.121845 -0.0728276 0)
(-0.0205457 -0.233307 4.84017e-20)
(-0.0196531 -0.014831 -4.97417e-21)
(0.110505 -0.0904802 -6.55062e-20)
(-0.178308 0.903969 -3.83341e-19)
(7.4559e-05 -1.33865e-05 0)
(-0.0193031 -0.0992126 1.24885e-20)
(0.000175558 0.000790618 -1.2999e-21)
(0.00647918 -0.0159369 9.24187e-21)
(0.0166755 0.0237586 0)
(0.000241454 0.00019067 -1.06758e-21)
(-0.0199232 -0.0259632 0)
(0.000190924 -0.00040568 3.00555e-20)
(0.00480326 -0.00667958 3.62913e-20)
(0.00515972 -0.000530043 -5.66128e-20)
(-0.000225407 0.000672689 3.70457e-22)
(0.000420492 3.80109e-05 -1.97261e-23)
(-0.0491246 0.0368139 1.66105e-20)
(-0.0756012 -0.301975 0)
(-0.170352 0.0835406 0)
(-0.21642 -0.278836 0)
(-0.0174994 -0.218951 0)
(0.00133763 -0.0152228 3.43515e-20)
(-0.0346915 -0.00188789 -1.42535e-20)
(8.83233e-05 -7.2498e-06 -4.33252e-20)
(-0.125595 0.511621 3.55589e-20)
(0.0541225 0.018072 -1.49749e-20)
(0.00463254 -0.017267 -3.65088e-20)
(-0.190488 0.885911 1.9025e-19)
(0.00193186 -0.00264574 -1.51715e-20)
(0.00528403 -0.0193798 6.05301e-21)
(0.0228715 -0.0014995 1.03537e-20)
(0.000102905 -3.4115e-05 -3.34574e-21)
(9.57308e-05 0.00367702 0)
(-7.67176e-05 -0.000801536 5.13771e-22)
(-0.0488919 -0.102022 -2.76422e-20)
(-4.61201e-05 -3.42679e-05 0)
(0.0421813 -0.242212 -1.72429e-19)
(7.02036e-06 -7.22894e-05 1.62e-22)
(-2.92348e-05 -0.000857711 0)
(-0.0309213 0.0206496 -6.41862e-20)
(1.74345e-05 0.000611268 5.11305e-22)
(0.100199 -0.0918216 2.13839e-20)
(0.000362212 2.16284e-06 0)
(-0.035631 -0.0369752 7.92646e-22)
(-0.000173543 -5.80896e-05 0)
(-0.00289659 0.00542887 -1.43254e-21)
(-0.0189736 -0.345646 -8.53601e-21)
(0.154767 0.245558 -1.08139e-19)
(0.0141282 -0.0409539 1.12079e-21)
(-0.00144296 0.00416775 0)
(0.0508873 -0.361383 3.20105e-20)
(0.04071 0.036433 -2.77098e-20)
(-0.0022442 -0.00413326 2.34979e-20)
(0.0113258 0.00767411 -3.62928e-20)
(-0.0419139 0.0395169 0)
(-0.0189312 0.0811874 8.19841e-20)
(0.158716 0.0175662 3.94779e-20)
(0.00621041 -0.00434005 5.85067e-20)
(-0.0188727 -0.206108 0)
(-0.000114506 2.34568e-05 -2.17009e-21)
(-0.000626923 0.000905218 -1.41494e-21)
(0.150198 0.0886645 -4.09107e-20)
(-0.065103 -0.0513885 0)
(9.25718e-05 -1.54528e-05 0)
(-0.0128941 -0.20457 0)
(0.000362532 -2.4842e-05 -6.93191e-22)
(0.000312643 -0.000265284 -1.35116e-20)
(0.0153653 -0.251214 -8.8109e-20)
(-0.000458562 -0.000934292 -3.3616e-20)
(0.00275287 -0.00479616 0)
(-0.100161 -0.387577 -5.06196e-20)
(-0.188702 0.725848 0)
(0.074017 -0.406435 3.20153e-21)
(-0.316798 0.543884 -2.05683e-19)
(0.014088 0.0195357 0)
(0.0037053 0.00251554 1.57471e-20)
(-0.00230793 -0.0024773 0)
(-0.0123766 -0.159716 -4.60664e-20)
(-0.10691 -0.0714205 0)
(-0.0543147 -0.280114 -2.7941e-19)
(0.164561 0.106347 3.37333e-20)
(-0.0120935 -0.00977052 0)
(-0.0442056 -0.0412692 0)
(0.0495712 0.0672066 -4.28778e-20)
(0.0192527 0.017989 2.31222e-20)
(0.103379 -0.016217 5.92606e-20)
(0.000283265 -0.000182684 -1.4118e-20)
(0.066441 -0.0326402 5.87314e-21)
(0.00219546 -0.000317458 1.67772e-23)
(0.00218369 0.00176599 5.34015e-21)
(-0.0014148 -0.00598366 6.75134e-20)
(-0.00107627 -0.0245038 0)
(0.0109511 -0.0117473 -4.63284e-21)
(-0.247439 0.0712931 -2.68357e-19)
(-0.02337 -0.270965 -7.57211e-20)
(0.00161793 0.0019915 -7.14477e-21)
(-0.248689 -0.44336 -6.97274e-20)
(5.83074e-05 0.00256508 -3.00871e-21)
(-0.00033302 -0.000695683 1.33591e-23)
(9.55306e-05 6.39933e-05 -3.5234e-20)
(-0.330146 0.519243 -2.25184e-19)
(0.0161403 0.00219398 -9.75798e-22)
(-0.0837157 -0.381534 7.77286e-20)
(-0.0853946 -0.146411 1.04181e-20)
(0.00455449 0.0071794 -2.41703e-20)
(-7.8014e-05 -0.000346175 -3.72217e-20)
(0.00130762 -0.00456932 -2.93173e-20)
(0.0409986 -0.052461 3.85124e-20)
(-0.0633595 0.15227 0)
(-0.000169614 -7.39353e-06 1.9619e-21)
(0.0741724 0.0899863 1.25341e-21)
(0.000270778 -0.000406597 0)
(0.059033 -0.0273634 -4.89375e-21)
(-0.00536531 -0.00675144 2.0843e-24)
(0.0596884 -0.00134232 2.03269e-20)
(-0.0304043 0.127256 0)
(0.0331257 -0.00218597 -1.75299e-20)
(-0.0832129 -0.0931348 0)
(-0.250981 0.0760824 2.43186e-19)
(0.0430317 0.0113964 1.09164e-21)
(0.300488 0.284751 9.49956e-20)
(0.0932121 0.0491427 6.82561e-21)
(0.0250775 0.0447938 3.08035e-21)
(0.000187307 0.0010487 2.41747e-20)
(-0.353758 0.590301 -1.5935e-19)
(0.183451 0.0371209 0)
(0.00483794 -0.00828347 -5.60466e-20)
(-0.196104 0.3037 8.36597e-20)
(4.98653e-05 -5.57603e-05 0)
(-0.000866274 -0.0196117 -5.02105e-20)
(0.0221297 0.00105284 1.12364e-20)
(0.0780088 0.0266708 -5.2715e-20)
(0.0143573 0.00137538 0)
(0.0228698 0.261369 0)
(-0.00526262 -0.019364 -3.93521e-21)
(0.000915212 0.000832049 9.92556e-22)
(-0.0369776 0.0190608 -6.8221e-20)
(-0.118074 -0.197553 2.43921e-20)
(-0.0728233 -0.0749956 -3.34011e-21)
(0.000342584 0.00384539 1.58176e-20)
(0.0355897 -0.0824372 -5.97706e-21)
(-0.0577975 -0.242543 1.72788e-20)
(-0.0018479 -0.0039071 2.75348e-20)
(0.000365478 1.13245e-05 -2.09021e-22)
(-0.0352354 -0.0798472 1.29256e-21)
(-0.00019637 0.000634147 0)
(0.0403721 0.0278645 3.10842e-20)
(-0.04145 -0.165946 -1.28793e-19)
(-0.000432864 -0.00130636 1.44404e-21)
(8.30069e-05 4.72251e-05 -2.90658e-23)
(0.111036 -0.274661 3.92269e-20)
(-0.00019302 -0.00129298 0)
(-0.239787 0.291078 0)
(-0.0395922 -0.0303037 2.08118e-20)
(0.0141557 0.303776 0)
(-0.057017 0.118992 4.35328e-21)
(-0.0619434 0.115017 1.99859e-19)
(0.00199713 0.00432203 2.79585e-21)
(-0.00269009 -0.0159869 3.94493e-20)
(0.133689 0.21069 2.09943e-19)
(0.00665968 0.332322 -3.76041e-21)
(-0.00732191 -0.0102722 -5.23438e-20)
(0.0366251 -0.0174357 0)
(0.000612929 0.000369352 1.71096e-20)
(0.00129493 -0.00447641 0)
(7.84118e-05 7.00445e-05 9.09469e-20)
(-0.0918651 0.0681529 0)
(0.00858636 -0.0169063 0)
(-0.00423333 -0.00543208 -2.06169e-24)
(-0.00702063 -0.0134243 1.60244e-21)
(-0.0544897 -0.245433 9.0335e-20)
(0.0714798 -0.00966647 8.30227e-21)
(-0.0168567 -0.0132596 -2.82137e-21)
(-0.000158223 0.000916662 1.48979e-21)
(-2.74046e-05 -3.60642e-05 1.0833e-21)
(-0.000488993 0.0036632 1.18345e-22)
(0.159839 0.166569 0)
(0.186099 -0.00437083 0)
(0.00599781 0.0013238 0)
(0.0935695 -0.0870066 0)
(0.00261316 0.00744501 -1.35829e-22)
(0.000362652 4.7195e-07 0)
(0.000586869 0.000282416 0)
(0.0436247 -0.0448693 0)
(0.00155411 0.00578678 0)
(0.0285934 0.0514247 1.52889e-20)
(-3.02945e-05 -2.72954e-05 -1.06508e-20)
(0.104255 -0.0804225 0)
(0.0898922 0.117292 8.98129e-22)
(9.51508e-06 -0.00105481 0)
(0.17533 0.0743699 -9.944e-20)
(0.0176598 0.00384719 2.77108e-20)
(0.021886 -0.0683226 2.21817e-20)
(-0.026963 0.0144192 -1.77996e-19)
(-0.000213216 -0.00562678 -1.16847e-19)
(0.00545565 -0.00285261 -4.76208e-20)
(0.0338045 0.00420989 6.58279e-20)
(-0.00255534 -0.00448942 -1.141e-21)
(0.0928279 -0.0137989 0)
(0.0473117 0.238623 1.02543e-20)
(-0.047337 -0.17768 -1.52895e-19)
(0.000393339 2.94578e-05 0)
(-0.0852345 -0.0801715 4.77383e-21)
(-0.0616846 -0.0953176 -9.25248e-21)
(0.0114485 0.00634821 -3.22371e-20)
(-0.380179 0.755359 0)
(0.235527 0.394682 -3.26299e-19)
(-0.000868144 -0.000661759 1.14127e-22)
(-0.014806 0.00813942 -5.86902e-20)
(-0.016895 0.00821269 0)
(-0.146615 0.549069 0)
(-0.000449585 0.00116337 -5.0373e-20)
(0.000361821 -0.00147545 -3.67927e-20)
(-0.0811831 0.00918389 -2.58972e-20)
(0.000113973 0.00112603 0)
(-0.0134859 -0.0150489 -3.52479e-21)
(-0.000860984 -0.000229587 -1.02673e-22)
(0.000545465 3.49238e-05 -1.48406e-22)
(-0.000481419 -0.00113039 -3.91435e-20)
(0.0543844 0.0053304 -2.53572e-20)
(9.41129e-05 -0.00120513 1.46833e-20)
(0.0013125 -0.00580685 0)
(-0.000867636 -0.00500008 0)
(0.0897612 0.137019 -6.06815e-21)
(0.0137891 -0.357819 0)
(-0.00237419 -0.0206307 -6.09532e-20)
(0.00104932 -0.00126409 -5.43771e-21)
(-0.0605374 -0.328309 0)
(0.000983166 -0.00115802 -2.08004e-20)
(0.0104227 0.00915148 -1.22884e-21)
(0.0346397 -4.39574e-05 -6.80165e-20)
(-3.15982e-05 -3.59092e-05 1.30971e-20)
(0.000243357 0.000116192 -1.92524e-20)
(2.43593e-05 0.0016503 1.62217e-22)
(0.160022 -0.0521938 3.86288e-20)
(0.156875 0.0835488 -6.07279e-20)
(0.00362499 -0.000879336 -5.1032e-22)
(0.216745 0.163819 -2.71067e-20)
(-0.00034824 0.0011978 7.17829e-20)
(0.0105559 -0.0908878 0)
(0.105313 0.11447 -2.63148e-19)
(0.0026983 0.0102521 1.06039e-20)
(0.000573612 3.40539e-05 2.1634e-22)
(0.00284194 -0.000507991 5.75146e-24)
(3.80722e-06 -0.00292577 0)
(-0.00848836 -0.00933174 0)
(0.00219128 -0.0453639 -7.40463e-22)
(0.000196405 -0.000151458 -9.59201e-22)
(0.0121112 -0.0324566 0)
(0.0911882 0.0413966 -3.99939e-20)
(0.0537746 -0.107617 -4.90485e-20)
(0.0371471 0.0506887 -2.12743e-20)
(-0.000336133 -0.000161892 0)
(0.0012594 -0.00402476 0)
(0.0411155 -0.0222588 -1.10738e-20)
(0.177923 -0.0387552 2.21401e-20)
(0.0440176 -0.00817766 5.07681e-21)
(-0.292712 -0.348828 9.39799e-20)
(-0.023587 0.000393632 0)
(-0.000120155 -0.000581216 0)
(-0.00156167 -0.0046956 0)
(-0.00226543 -0.421928 -2.08327e-20)
(0.00052957 -0.000728383 1.7971e-20)
(-0.00449765 -0.0794633 0)
(-0.141278 -0.312062 0)
(1.3207e-06 1.1251e-05 -4.69773e-20)
(0.00479947 -0.0295344 2.29852e-20)
(-0.0955811 0.0291911 2.52424e-20)
(0.00408918 -0.00255484 2.11264e-22)
(-0.188699 -0.0483678 0)
(0.000185027 4.88011e-05 -1.37975e-20)
(-0.19879 -0.0598912 2.95254e-20)
(-0.105275 0.255489 9.69481e-20)
(0.000134913 5.68355e-06 -1.48986e-20)
(7.4828e-05 -0.000165936 -1.07925e-21)
(-0.00438908 0.00180631 0)
(0.0409956 -0.12277 -6.60472e-20)
(0.00566418 -0.00433412 -4.37544e-20)
(-0.00263913 -0.00494819 2.25355e-20)
(0.0142569 0.00288193 -1.52546e-20)
(0.00505897 -0.0462867 0)
(0.0683311 -0.0208986 -4.07664e-21)
(-0.0937742 -0.134915 -2.63385e-20)
(0.000190486 0.000897341 6.67843e-22)
(0.000694999 3.67543e-05 0)
(0.165402 0.140132 -1.72111e-20)
(-0.011733 0.011442 4.00455e-24)
(-0.000680868 -0.000529795 -3.06496e-20)
(9.56268e-05 3.51205e-05 -6.62482e-22)
(0.0936706 0.0944274 1.33674e-20)
(-0.00428353 0.105209 -1.58548e-21)
(-0.0418962 0.0195892 2.58961e-20)
(0.0167537 -0.140295 5.85175e-21)
(0.000361969 -0.000246976 0)
(0.0882072 -0.0682092 3.32018e-20)
(0.00081902 -2.32944e-05 8.48847e-21)
(0.000171923 0.000233693 -1.70487e-20)
(-0.0209356 0.0158591 0)
(-0.000109232 -6.32116e-05 5.54714e-20)
(0.0473274 -0.303532 1.13097e-19)
(0.000197474 9.59124e-05 1.85395e-22)
(0.0146893 -0.0185736 7.07214e-21)
(-0.0783716 0.276198 3.73198e-19)
(0.228011 -0.0149512 0)
(0.00728715 -0.0369164 -2.6377e-21)
(-0.0163252 0.074756 0)
(-1.06982e-05 -3.85684e-05 0)
(-0.0496027 0.228242 4.64056e-20)
(-0.000785544 0.000116781 1.55608e-22)
(-8.80491e-06 -3.98204e-05 1.94618e-21)
(0.15639 0.0731153 9.39871e-20)
(-0.00254289 -0.00460623 7.48131e-20)
(0.000959988 -7.404e-06 2.32183e-22)
(0.0374325 -0.0540821 0)
(-0.131677 -0.137921 0)
(-7.25118e-05 -0.000168815 -3.45944e-20)
(-0.140194 0.351027 -5.36559e-20)
(0.0116694 -0.0197792 0)
(-0.384409 0.596953 1.51879e-19)
(0.000537375 -0.00059151 0)
(0.0716961 0.0516996 2.35084e-20)
(-0.112756 -0.497594 -5.77906e-21)
(0.0574845 0.109955 6.95782e-21)
(0.0135496 -0.00110996 -1.51372e-20)
(-0.099074 0.00945874 -5.25687e-20)
(7.87823e-05 -1.61435e-05 0)
(0.0141552 -0.00132245 0)
(-0.0101874 -0.224029 1.36514e-20)
(-0.00640001 -0.0372522 5.02284e-22)
(0.0792536 -0.0605561 -3.04123e-20)
(-0.000718492 -0.000483322 -3.66822e-20)
(-0.0898286 -0.365596 -9.47284e-20)
(0.0021444 0.00505342 0)
(-0.0315288 -0.125004 2.91709e-20)
(0.000616676 -0.000520942 0)
(0.000254738 -0.00253313 -3.56739e-20)
(0.231226 0.011987 1.72641e-19)
(-0.0634298 -0.107726 2.08791e-20)
(0.116349 0.108959 0)
(0.0408379 -0.0203188 6.87899e-20)
(-0.000186879 0.00245091 -3.37815e-21)
(0.000780542 0.0047417 5.26427e-21)
(-0.159875 0.499838 0)
(0.0988909 -0.00341054 -5.93467e-20)
(0.0125949 -0.0537446 5.22299e-21)
(0.0126946 0.0341672 -1.11989e-20)
(0.0104626 -0.0252926 0)
(0.0806875 0.0614241 0)
(0.0046406 -0.000447909 -1.52441e-22)
(0.000441297 -0.000702888 -1.73556e-20)
(0.165793 0.506963 -2.17494e-19)
(0.000526073 0.000143573 -3.96219e-22)
(0.0103491 -0.150804 -6.85293e-21)
(-0.0077255 -0.00835581 -2.50099e-20)
(0.251873 0.418643 1.62522e-19)
(6.41295e-05 -0.000418581 0)
(-0.00392222 0.00221428 0)
(0.000149683 -0.000368932 1.47547e-20)
(0.209196 0.262674 4.71186e-21)
(-0.00263695 -0.00445555 -4.1461e-21)
(8.05375e-05 2.94775e-05 0)
(0.00609458 -0.00360887 0)
(-0.00013939 -0.000267532 4.61529e-20)
(0.164171 0.108664 0)
(0.0571658 -0.521372 7.32114e-20)
(0.000353543 -9.41959e-05 -1.8329e-20)
(-0.000156541 -7.71528e-05 -3.4234e-20)
(-0.00316934 -0.00205118 -5.28608e-21)
(-0.0389434 0.209256 -1.8589e-20)
(-0.00133285 0.00427395 0)
(0.00586 -0.0781581 -1.03963e-20)
(-4.11048e-05 -5.09787e-06 1.79972e-20)
(-4.84166e-05 -0.000152622 0)
(0.146069 0.181252 -6.38032e-21)
(-1.31039e-05 1.92685e-05 0)
(-0.0278663 -0.0460299 -5.2146e-21)
(0.000669936 -0.00234163 -1.77349e-21)
(-0.313461 0.725744 0)
(0.000801658 -0.000525754 -7.43349e-22)
(-0.000402912 0.000834697 4.95695e-22)
(0.000295241 -4.64838e-05 -1.53433e-20)
(-0.134241 -0.135032 1.05512e-19)
(0.000359789 -8.13488e-06 -9.42664e-25)
(0.0634462 -0.0252603 -2.35586e-20)
(-9.0238e-05 -0.000205426 -1.82835e-20)
(-0.0123545 -0.149394 5.7024e-21)
(-4.9495e-05 -0.00103193 1.56692e-20)
(-0.122913 -0.435782 -1.57812e-18)
(-0.00143799 -0.0033459 4.11535e-21)
(0.000242313 -0.000416453 -1.54144e-20)
(0.127269 0.0875632 -1.42548e-19)
(-0.0034425 0.000520728 7.61737e-20)
(0.000197059 -0.00102672 0)
(-1.22513e-05 5.90918e-06 0)
(0.175401 0.357702 -2.21031e-20)
(0.0425221 -0.0954689 4.80229e-20)
(0.000112708 0.000307953 9.38831e-21)
(-0.0185484 -0.0229584 -7.15107e-22)
(0.125453 -0.0524478 0)
(0.000280147 -0.00355454 0)
(-0.0737807 0.0131003 0)
(0.0291245 0.00584537 -4.27948e-20)
(-0.00843671 -0.349526 1.24099e-20)
(0.0287425 -0.336581 -1.09025e-19)
(-0.0660332 -0.0959982 -1.47318e-20)
(-0.197507 -0.186399 -2.3891e-20)
(-8.44251e-05 -0.000331062 3.10888e-20)
(-0.0181068 -0.212391 1.15804e-20)
(0.00701102 -0.495409 -8.94089e-21)
(8.10159e-05 3.70118e-05 0)
(-0.0945633 -0.12051 1.29514e-20)
(-0.0625523 -0.0980065 0)
(-0.0386787 0.0238822 -3.09936e-20)
(-0.0460812 -0.325175 0)
(8.17062e-05 3.92093e-05 0)
(0.0239147 -0.0426083 0)
(-2.69298e-05 -0.000423089 0)
(0.224049 -0.0129883 0)
(-0.0182052 -0.0610414 0)
(0.000500578 -0.00149852 3.84286e-20)
(0.189153 0.31525 1.10119e-19)
(-3.11492e-05 5.60991e-06 1.0646e-21)
(-0.0290783 0.0165822 0)
(-0.000726982 0.000375679 -1.56288e-22)
(-0.00989766 -0.00736964 0)
(0.0351546 -0.176386 2.11831e-20)
(0.000733818 -0.00211883 -3.79089e-21)
(0.176332 0.287102 -5.74818e-20)
(0.0449045 0.0432894 0)
(-0.0295383 -0.216047 0)
(-0.000398313 -0.00032932 0)
(-0.436392 0.0440659 0)
(0.0571789 0.0145219 9.86853e-21)
(0.00322847 -0.00527975 0)
(-0.00698825 -0.354073 -1.81388e-20)
(0.00217229 -0.00346766 2.14838e-20)
(0.000128034 1.88338e-05 0)
(0.0285392 -0.0740039 -6.6199e-20)
(0.000362259 6.53902e-06 -3.49698e-22)
(-0.0167148 0.0671726 5.96047e-20)
(-0.0222917 -0.176332 6.91281e-20)
(0.000193712 7.16609e-05 1.55108e-20)
(-0.0155659 -0.0163086 2.60854e-21)
(-0.0400664 0.0627985 0)
(0.0060864 -0.000678467 0)
(0.000320199 0.000981239 5.46628e-23)
(-0.172726 0.106982 1.2855e-20)
(0.0255686 0.00463294 4.01078e-20)
(-8.82654e-05 -7.58065e-05 0)
(0.000737762 -0.000754029 0)
(0.00526154 0.184463 1.37546e-20)
(-0.0682812 -0.00936658 2.81742e-20)
(0.0373807 -0.102272 6.0749e-20)
(0.143664 0.0268452 2.19378e-21)
(0.038799 -0.136456 0)
(-0.0313567 -0.0356831 0)
(-0.000621571 0.000819069 0)
(-0.234032 0.755496 -1.43305e-20)
(-0.102568 -0.558201 -2.95491e-20)
(-0.000234807 -0.000160841 0)
(0.0448164 0.06293 4.66042e-20)
(0.000679394 -0.000723878 1.15911e-20)
(0.0485363 0.00155712 5.05846e-20)
(-0.000393239 -0.000223075 0)
(-4.6942e-05 -3.90385e-05 -2.19534e-20)
(0.000529999 -0.000634399 1.97093e-20)
(0.000212285 -0.00103891 0)
(-4.87933e-05 -0.000287999 1.07919e-20)
(-0.0305752 -0.247902 5.39996e-20)
(-0.0325757 0.245754 3.4597e-20)
(-0.078893 -0.0426422 4.80711e-21)
(0.00524671 -0.0270216 -6.34463e-20)
(-0.00169373 0.00398688 -1.59336e-21)
(0.164616 -0.0625902 -1.18848e-21)
(6.6662e-05 -3.83657e-05 -1.11924e-21)
(-0.0361185 0.298357 2.35598e-20)
(0.0552148 -0.00663713 8.21427e-22)
(-0.010936 -0.0867487 0)
(0.00949817 -0.0054742 5.01605e-20)
(0.180606 -0.0378667 -1.93315e-20)
(-0.000707958 0.00220897 -1.00195e-21)
(0.0571489 -0.0781821 -1.67611e-20)
(-0.0165659 -0.0266478 1.83483e-21)
(-0.016977 0.294341 2.5791e-20)
(0.00407536 -0.00463374 0)
(0.181209 0.0868769 2.17898e-19)
(0.0154778 -0.00793368 -1.10914e-20)
(0.00682273 -0.0491026 4.9267e-20)
(0.109801 0.337282 0)
(-2.75526e-05 -6.02166e-05 4.23649e-21)
(-0.30091 0.604999 0)
(0.000360649 1.52602e-05 0)
(0.0338597 -0.0808748 0)
(0.118777 -0.0595326 -5.93751e-23)
(-0.000181468 -0.00075634 -5.65e-22)
(-0.000312583 0.000788992 8.71606e-22)
(9.4861e-05 0.000153634 0)
(0.000287405 5.62734e-05 -1.56551e-21)
(0.11284 -0.0385486 0)
(0.203389 -0.0625021 1.03649e-19)
(0.000183224 0.000311848 2.04298e-20)
(0.00207312 -0.0984275 0)
(0.158516 -0.0499339 -2.44073e-20)
(0.156102 0.180323 1.51003e-21)
(8.52996e-05 -0.000891803 0)
(0.0764274 -0.160306 2.97581e-21)
(-0.000311585 -0.000615412 -5.93114e-23)
(0.000173145 0.000328924 -1.58797e-20)
(-0.0224785 -0.26729 0)
(0.0114974 -0.0642415 8.25325e-22)
(0.0536659 0.00852368 0)
(0.0684524 -0.0669148 8.40738e-20)
(0.0114475 -0.0111652 1.65592e-20)
(-0.0244831 -0.198373 -1.28893e-21)
(-0.000106018 -3.28922e-05 -2.05349e-21)
(0.00530845 -0.00485332 0)
(0.0524867 -0.0470783 0)
(0.0586724 0.086981 1.69913e-20)
(-0.000524062 0.000984767 -8.91477e-22)
(-0.067756 -0.0368152 6.38381e-20)
(0.0804518 0.081136 8.6951e-21)
(-0.000124129 -0.000304395 5.91294e-20)
(0.00387181 0.00116302 -9.48246e-21)
(0.000469883 9.80679e-05 -7.55046e-22)
(-0.217715 -0.045478 0)
(0.0413346 0.0205566 0)
(3.32687e-05 0.00050054 4.63408e-22)
(0.00124037 0.00487093 0)
(-0.104624 0.74457 -1.74876e-19)
(0.0235684 0.119515 0)
(0.0828413 -0.0646849 3.06891e-20)
(0.193296 0.202982 3.1125e-20)
(0.0105157 -0.00508597 -6.65601e-20)
(0.076565 0.33413 -4.64424e-20)
(-0.00108144 -0.00449194 0)
(-0.000167336 0.000719837 0)
(-0.00033596 0.000693403 0)
(-0.0256306 0.0367838 3.69822e-20)
(0.179128 0.0303528 -1.36051e-19)
(-8.6353e-05 -0.000138476 0)
(-0.000656816 0.00038654 2.20832e-22)
(0.000718668 -0.000450117 0)
(-0.177976 -0.1166 3.07885e-20)
(0.00463577 -0.00827901 -8.80383e-21)
(0.127733 0.236041 -1.48805e-21)
(0.0962872 0.685562 0)
(-0.000519548 0.000776524 -3.64955e-21)
(0.0267629 -0.0761796 -1.13941e-19)
(-0.00839538 0.00901217 -5.56846e-22)
(-0.000170158 -0.00152254 -3.60055e-20)
(3.87235e-05 -0.00015905 -1.68944e-21)
(8.24745e-05 4.02308e-05 0)
(0.000664516 7.23248e-05 1.85848e-22)
(-0.142031 -0.102419 0)
(-5.33228e-05 0.00012986 1.38564e-21)
(-0.339331 0.590299 0)
(0.042331 -0.0194419 3.80474e-20)
(0.0547197 -0.00981683 0)
(0.000358468 -2.94323e-07 0)
(-0.000196729 -0.000361657 3.09143e-20)
(0.0101943 -0.00262683 -3.83383e-20)
(0.000270467 4.40826e-05 1.2386e-21)
(-0.0138051 -0.0212543 -3.80019e-21)
(-0.255566 -0.00984375 3.01001e-20)
(-0.0377052 -0.0601016 0)
(0.0483507 -0.0232913 5.65146e-21)
(-0.454725 -0.102647 0)
(-0.0979442 -0.384535 3.80681e-20)
(-6.5055e-05 -9.08638e-05 2.04777e-20)
(-0.00020138 -0.000272916 2.61074e-20)
(0.00814696 0.041197 0)
(0.0438651 -0.0131283 3.60622e-20)
(-0.206814 0.0563115 -1.36468e-20)
(-0.0203174 -0.027262 -9.78633e-21)
(0.0983277 0.0604134 7.38795e-20)
(-0.00398802 -0.126679 1.70161e-20)
(0.0203061 -0.244541 1.46205e-20)
(-0.0195006 -0.104109 -6.25238e-21)
(0.00251805 -0.101702 0)
(7.21655e-05 0.000534565 -1.43518e-21)
(-0.000144399 8.33697e-05 -6.30929e-23)
(0.0104639 -0.0165511 0)
(-9.67167e-05 4.96284e-05 -2.78844e-20)
(0.416878 0.081632 -1.86983e-19)
(-0.0513257 -0.234921 -2.30012e-20)
(-0.000808777 -0.00105276 0)
(6.88675e-05 -0.00099936 1.70101e-20)
(0.0361852 0.00126713 -4.39665e-20)
(-0.0848362 0.0390295 -2.17841e-20)
(-0.0242545 -0.530203 2.60642e-20)
(-0.0674623 -0.0829233 -1.11251e-21)
(-0.115997 0.159101 9.58133e-20)
(0.000110056 1.23757e-05 -8.00657e-21)
(0.271319 0.0193329 0)
(-3.74032e-06 0.000409346 3.2608e-20)
(0.00177259 -0.00130263 0)
(0.0158288 -0.00490258 -4.39022e-20)
(-0.000195427 0.000748512 -8.41572e-22)
(0.00259796 0.00715944 1.79187e-20)
(-0.0598256 -0.301551 3.94109e-20)
(-0.000143192 4.14889e-05 0)
(0.0185728 0.0506799 3.5546e-20)
(-0.0331669 -0.0561971 0)
(0.000124401 2.31788e-05 1.35706e-20)
(-0.00365278 0.00115296 -3.98837e-20)
(-6.50131e-06 -0.00230978 1.28138e-22)
(0.0217274 -0.0841191 1.06529e-19)
(-0.227684 -0.0536752 -5.58988e-22)
(-0.0104408 -0.0517394 -2.97672e-20)
(-0.0905536 -0.0916304 1.41557e-20)
(0.00474259 -0.00451316 0)
(0.0313796 0.055609 -1.80965e-22)
(0.0544294 -0.135871 -8.3213e-20)
(0.107499 0.0739598 0)
(0.000173162 0.00395216 0)
(0.00545271 -0.00198067 0)
(0.00039174 1.65255e-05 0)
(-0.020553 0.204325 6.32882e-20)
(0.00572464 -0.0082013 6.72244e-23)
(-0.00013758 -6.61368e-05 -2.00912e-21)
(0.000207411 -0.00165839 3.78302e-22)
(-0.000758734 -0.00103336 -8.08687e-22)
(0.00068794 -4.39924e-05 -1.63516e-22)
(-0.0472994 -0.559077 4.36792e-20)
(-0.0285694 0.0852391 0)
(-0.016779 -0.0579746 1.84442e-20)
(-0.0676429 -0.0709734 5.19588e-20)
(0.00022842 0.0001011 0)
(0.0394522 -0.0103377 -3.55473e-20)
(-0.0393024 -0.00874602 0)
(-0.117922 -0.328528 1.26307e-19)
(0.000439589 0.000573531 0)
(0.000316463 -0.00142496 0)
(0.000634031 -0.000206355 1.92838e-20)
(0.000929219 0.000610909 -4.98809e-23)
(-0.000124684 -1.73807e-05 1.04537e-20)
(0.26019 0.129433 0)
(-0.0154402 -0.0316542 1.92187e-20)
(-0.0762529 -0.271664 -2.50504e-21)
(0.000924471 0.00302419 4.39353e-22)
(-0.0309337 -0.00309865 -6.87969e-20)
(0.000231741 0.000197818 1.70453e-20)
(0.000113991 -6.10312e-05 0)
(-0.035226 -0.00908731 -2.39485e-21)
(0.000469905 6.91767e-05 2.94098e-22)