/*--------------------------------*- C++ -*----------------------------------*\
| =========                 |                                                 |
| \\      /  F ield         | OpenFOAM: The Open Source CFD Toolbox           |
|  \\    /   O peration     | Version:  v2012                                 |
|   \\  /    A nd           | Website:  www.openfoam.com                      |
|    \\/     M anipulation  |                                                 |
\*---------------------------------------------------------------------------*/
FoamFile
{
    version     2.0;
    format      ascii;
    class       volVectorField;
    location    "200";
    object      U;
}
// * * * * * * * * * * * * * * * * * * * * * * * * * * * * * * * * * * * * * //

dimensions      [0 1 -1 0 0 0 0];


internalField   nonuniform List<vector> 
18649
(
(0.844405 -0.0034049 5.1036e-21)
(1.02096 0.00392051 1.1913e-20)
(0.853573 0.0519135 -4.5639e-21)
(1.10335 -0.208647 5.18408e-21)
(1.03801 0.000514306 9.55244e-21)
(0.843014 -0.283698 0)
(1.01862 0.00583965 0)
(1.05971 -0.000721418 -3.30875e-22)
(0.763918 -0.0516795 -8.15577e-21)
(0.501184 0.56426 4.90914e-20)
(1.0236 0.00629685 2.34226e-20)
(1.02428 0.004137 -5.17152e-21)
(1.03729 0.000712273 -8.44029e-21)
(1.01551 0.00724329 -1.30723e-20)
(0.54984 -1.00316 2.69191e-20)
(1.03944 0.000467286 0)
(1.0364 0.000194355 7.95122e-21)
(1.01864 0.00570792 0)
(0.664788 0.433758 -1.44384e-20)
(1.02098 0.00373977 0)
(1.02443 0.00408843 9.5664e-21)
(-0.417806 1.04166 -9.1101e-20)
(0.98575 0.00438437 -4.61546e-21)
(1.10306 -0.169124 0)
(0.472057 0.585645 -8.84412e-20)
(0.995301 0.0063639 4.89673e-21)
(0.740215 0.133754 1.57756e-21)
(0.738433 0.19541 -3.90028e-21)
(1.03082 0.00852126 1.85237e-20)
(0.703633 0.519145 3.64967e-20)
(1.02009 -0.0100364 0)
(1.01965 -0.0083334 0)
(1.03602 -0.000827768 2.24156e-22)
(1.03772 -0.0585087 6.63925e-22)
(1.02296 0.000451254 -1.10597e-20)
(0.953649 0.0458162 0)
(0.611777 -0.791649 5.95777e-20)
(1.05009 -0.0838535 1.19659e-20)
(1.02359 0.00596247 -2.31595e-20)
(1.01572 0.00744429 2.57714e-21)
(0.919902 -0.369232 8.86211e-21)
(1.02011 -0.000425792 -6.35738e-21)
(1.30904 -0.208132 5.27926e-20)
(0.751228 0.229791 -8.04107e-21)
(0.792436 -0.0571666 4.21149e-21)
(-0.286607 0.835646 -1.39084e-19)
(1.02155 0.0574153 -3.41824e-21)
(1.07119 -0.0367478 0)
(1.01748 0.0048973 6.81336e-21)
(0.989272 -0.194416 -1.61391e-21)
(1.10192 -0.193536 0)
(0.966532 -0.021747 4.64792e-21)
(1.03679 0.0119934 9.24466e-21)
(0.916733 -0.342143 3.78495e-21)
(1.05674 0.00429273 1.66881e-21)
(1.14836 -0.358115 0)
(0.547409 -0.230998 0)
(1.01724 0.00492686 -6.70997e-21)
(1.06036 -0.0029509 2.75289e-24)
(0.953949 0.457637 -8.09309e-21)
(1.04685 0.0056854 0)
(1.24196 0.0329656 -1.47918e-20)
(1.01656 0.00563236 0)
(0.569509 -0.344428 1.87583e-20)
(0.637224 0.5385 -1.40146e-21)
(0.958621 -0.135251 -2.70795e-21)
(0.991609 0.452476 7.71338e-21)
(1.0267 -0.0157176 0)
(0.758378 -0.0539205 -2.6059e-21)
(-0.451395 1.02828 -1.66024e-19)
(0.727277 0.121573 0)
(1.04097 -0.0579141 -1.13787e-21)
(1.0189 0.00561213 0)
(1.0167 0.00567353 0)
(1.00295 0.00923061 0)
(0.740454 0.253329 3.70121e-21)
(0.787649 0.000632227 -3.9653e-21)
(1.02249 0.000422486 1.2846e-20)
(0.33765 0.8865 -1.21481e-19)
(1.07054 -0.0108931 -5.02714e-26)
(1.00724 0.0133577 0)
(1.04381 -0.102227 -1.40629e-20)
(0.818668 -0.427899 0)
(0.658392 0.381112 1.61145e-20)
(1.05612 -0.000721688 2.27567e-22)
(1.16823 -0.347096 5.3149e-20)
(1.00408 0.0472315 1.21879e-20)
(1.03696 0.0589447 -1.38173e-20)
(1.07234 -0.0115603 2.62223e-23)
(0.723514 -0.603446 0)
(0.619257 -0.980647 -2.25402e-20)
(1.2654 -0.138093 0)
(1.10044 -0.168479 -6.36136e-21)
(0.833967 0.186439 4.30597e-20)
(1.03234 0.0123514 -3.29579e-21)
(1.03712 0.0112515 -8.95009e-22)
(0.950012 0.0438163 -2.80386e-22)
(1.1054 -0.138709 0)
(0.961814 -0.108373 -1.91485e-22)
(1.04712 0.00555593 -2.75196e-21)
(0.877451 -0.462639 3.03128e-20)
(1.03998 0.000377875 -4.75298e-21)
(1.03095 -0.131822 0)
(1.05944 -0.000721489 3.88966e-22)
(0.740677 -0.0377995 -2.93643e-21)
(0.742477 -0.012404 2.87596e-21)
(0.813479 -0.390037 -1.58783e-20)
(1.06475 -0.555526 7.77889e-20)
(1.1251 -0.357849 -8.62057e-21)
(1.01894 0.00550313 0)
(1.02274 0.000725167 3.50549e-23)
(1.07054 -0.0511914 2.1507e-22)
(1.03579 0.0728564 1.40077e-20)
(1.03145 0.00410465 1.64686e-20)
(1.03279 0.0126198 0)
(1.12041 -0.126328 -3.69121e-21)
(1.02534 -0.015785 3.96893e-21)
(1.07204 -0.0536867 1.40733e-21)
(1.03544 0.000682304 9.85468e-21)
(1.0085 0.0471069 3.49239e-21)
(1.04801 0.00702078 2.78888e-21)
(1.10565 -0.121625 4.19547e-21)
(1.02162 -0.496655 5.41905e-20)
(1.03129 0.00387121 -1.02797e-20)
(1.05598 -0.00071396 3.3367e-22)
(1.02307 -0.00196942 0)
(0.696618 -0.392413 0)
(1.01933 0.00981455 0)
(1.03126 0.0101083 3.11562e-23)
(1.06128 0.00484999 -1.63707e-22)
(1.01859 0.00784495 2.03075e-20)
(0.575251 -0.355801 -2.1402e-20)
(1.29079 0.0223743 0)
(1.31585 0.0250313 -5.94866e-20)
(1.02358 0.000487824 -2.07596e-20)
(-0.468522 0.685277 -6.90751e-20)
(0.741648 0.119099 6.15317e-21)
(1.05495 -0.557055 -5.71072e-20)
(0.742557 0.0556436 -7.30845e-21)
(0.715994 -0.0473491 -7.91141e-22)
(1.06974 -0.0271777 -1.84916e-22)
(1.03265 0.000462523 5.15534e-21)
(1.06083 -0.00104162 -7.52467e-23)
(1.02118 0.00303615 7.36884e-21)
(0.716984 0.108196 -7.56657e-22)
(1.04954 0.00648825 -2.59757e-21)
(1.02167 0.00686236 -5.84791e-21)
(1.30434 0.0484703 -3.93878e-20)
(0.728904 0.0083004 4.41202e-21)
(1.01865 0.00749525 4.99025e-23)
(0.837467 0.0770371 4.14321e-21)
(0.770661 -0.204654 -2.74353e-22)
(1.03181 0.000504219 1.61857e-22)
(1.01876 0.00511007 1.58017e-20)
(1.09712 -0.100898 0)
(1.15106 -0.125535 -1.71092e-22)
(1.01855 0.00752137 5.93154e-21)
(1.0392 0.00657977 6.69248e-21)
(1.03384 0.00369248 -5.40519e-21)
(0.979521 0.07972 -5.89715e-21)
(0.85837 -0.427785 0)
(0.79957 -0.0758464 -3.24036e-20)
(1.01862 0.00750151 -2.02297e-20)
(0.740627 -0.0175706 7.18281e-22)
(0.884238 -0.433879 -1.11514e-20)
(1.03421 0.000938136 5.30191e-21)
(1.0627 0.032052 2.98136e-21)
(0.710289 -0.0161361 -5.26578e-21)
(1.0475 6.02057e-05 -1.89167e-21)
(1.04801 0.00539723 0)
(0.999391 0.0480197 4.97233e-22)
(1.02938 0.00106267 -9.6903e-21)
(1.0353 0.00547578 3.49563e-21)
(1.04209 0.00118092 -7.10076e-21)
(0.986181 -0.184669 1.73264e-21)
(0.992266 -0.0549203 1.82674e-21)
(0.74862 0.142875 1.01022e-21)
(1.01848 0.00761921 0)
(0.717254 -0.0352086 0)
(0.861839 -0.357421 -2.08259e-20)
(1.02543 0.00439522 0)
(0.701534 -0.0445784 2.07559e-21)
(1.06191 0.00741219 0)
(1.03858 0.0076644 -7.01599e-21)
(1.02539 0.00175838 7.76468e-21)
(1.06101 0.00856905 0)
(1.05637 0.00407394 1.10698e-23)
(1.10058 -0.111912 -1.37709e-23)
(1.04805 0.00637257 1.28794e-21)
(1.06294 0.000385232 0)
(1.01495 -0.0130652 0)
(0.835116 0.128852 1.1965e-20)
(0.758639 -0.189137 -4.5943e-21)
(1.00416 0.0618668 -1.11702e-20)
(1.11245 0.0725697 0)
(1.03523 0.00539221 -2.91077e-21)
(1.06215 0.00376107 -2.27506e-23)
(1.06179 0.00641665 3.39557e-21)
(0.880076 -0.426607 8.26396e-21)
(1.07461 -0.0326741 8.66507e-23)
(1.06291 0.000521694 0)
(1.03797 0.000908202 2.23656e-21)
(0.981523 0.126503 0)
(1.01873 0.00526293 3.26847e-21)
(1.02021 0.00253115 -1.36706e-20)
(1.0292 0.00092087 1.40135e-20)
(1.32729 0.000927361 4.54963e-20)
(0.897284 0.443243 0)
(1.03055 -0.000455728 -3.44659e-21)
(1.03698 0.0101334 0)
(1.04792 0.00591859 -6.69193e-22)
(1.00256 0.0219472 0)
(1.05351 0.00356571 -1.02502e-21)
(0.958755 -0.0197433 2.93944e-23)
(1.18827 0.226095 -1.721e-19)
(0.94677 -0.0261139 -2.11008e-20)
(1.01827 0.000689337 -1.87558e-20)
(1.0135 -0.0127613 -2.89744e-21)
(1.03892 0.00551716 1.24503e-20)
(1.0297 0.0541925 0)
(0.890934 0.0594892 0)
(1.08761 0.00564823 -4.1903e-22)
(-0.436872 0.692916 0)
(0.885806 0.195209 0)
(0.801276 -0.126529 1.80053e-20)
(1.05173 0.0213455 -2.79203e-21)
(0.795687 -0.202087 5.43502e-21)
(1.26748 0.0595458 2.65334e-19)
(1.01899 0.000143253 0)
(0.876329 0.0773794 -3.2667e-21)
(1.06273 0.000201226 -9.83354e-22)
(1.0074 0.00108179 5.61117e-21)
(1.07207 -0.0410697 0)
(1.0238 0.00371826 3.21567e-22)
(0.739119 0.834293 0)
(1.02565 0.00447674 -9.44532e-21)
(1.01459 -0.0028022 -8.28648e-21)
(1.02468 0.00237209 1.52741e-20)
(1.05351 0.0044482 1.03183e-21)
(1.06029 -0.000658082 -1.67359e-23)
(1.08904 0.0807345 -3.18594e-21)
(0.921339 0.270951 0)
(1.24859 0.34584 0)
(0.331935 0.915146 0)
(0.813919 -0.202023 0)
(0.987056 0.00934596 -1.11621e-20)
(1.0064 0.0624134 3.38687e-21)
(1.0233 0.00056869 1.38334e-20)
(-0.644233 0.87423 -1.88166e-19)
(1.10085 -0.114538 -8.50698e-21)
(0.980969 0.0100465 1.19312e-20)
(1.23173 0.198037 -7.6103e-20)
(1.01976 0.0074463 4.40733e-21)
(1.00206 0.00716373 -5.88122e-21)
(1.03885 -0.0378947 -1.00737e-21)
(1.03414 0.000824649 1.47813e-21)
(1.03718 0.00955178 0)
(1.04757 0.00541613 -2.69899e-21)
(0.885366 0.100479 7.90395e-21)
(1.04802 -4.27505e-07 0)
(0.587822 -0.831741 -1.05841e-19)
(1.0553 0.00228261 -8.35991e-22)
(1.05702 0.00436521 0)
(1.07784 0.071793 1.16973e-20)
(1.05415 0.00320848 9.90261e-22)
(0.789098 -0.17463 -1.11416e-21)
(1.04967 -0.000663404 0)
(1.04241 0.0345599 2.7653e-21)
(1.04258 0.000394691 0)
(1.04713 0.0133587 1.26902e-21)
(0.609109 0.117907 -7.40585e-22)
(1.47917 -0.25353 1.33767e-19)
(0.963372 -0.020964 -2.65302e-23)
(1.04753 0.0125149 0)
(0.583168 -0.927048 2.50598e-20)
(1.11098 -0.126693 -1.67226e-20)
(1.01432 0.0107141 -5.8923e-21)
(1.0476 -0.0101835 5.10919e-21)
(1.09335 0.0817084 0)
(1.24859 0.019592 1.35441e-20)
(1.17855 -0.38797 3.52146e-20)
(1.01955 -0.00416576 -1.32903e-20)
(0.864648 0.425971 0)
(1.01841 0.000552056 6.92946e-22)
(1.06144 0.00485863 -1.02349e-21)
(1.16921 -0.324808 -3.89704e-20)
(0.930169 0.111335 0)
(1.02411 0.000727739 0)
(0.742861 0.132942 0)
(1.0573 -0.000780396 -6.32339e-22)
(1.02514 0.00423628 4.15768e-21)
(0.842787 -0.349117 2.23104e-20)
(1.01886 0.0083269 8.53442e-21)
(1.02072 0.0061329 0)
(0.739512 -0.324271 2.55507e-20)
(-0.635516 0.812074 0)
(0.55664 -0.284013 1.37524e-20)
(-0.0499587 0.861417 -3.75879e-19)
(1.06948 -0.0258509 0)
(1.03904 0.00452532 -7.29582e-21)
(1.03384 0.0127903 0)
(0.744386 -0.0433651 8.01579e-21)
(0.912756 0.176114 0)
(0.601169 0.146139 2.22546e-20)
(1.3212 -0.293343 -5.36535e-20)
(1.05436 0.0186061 0)
(1.04362 0.0409302 0)
(1.20315 -0.0842621 -3.79099e-20)
(1.07393 -0.0319487 8.13242e-22)
(1.00239 -0.215461 1.46999e-20)
(1.02491 0.00418933 4.33441e-21)
(1.00174 -0.13532 -1.60571e-21)
(1.06059 -0.003106 6.22865e-24)
(1.05772 0.00221103 3.00547e-21)
(1.01276 0.00906649 -1.62725e-20)
(1.009 0.018005 0)
(1.01178 -0.0158393 9.0327e-22)
(0.583624 -0.376749 6.14403e-20)
(0.786931 -0.0415215 2.30164e-20)
(1.05769 0.00280432 -3.89515e-21)
(0.109064 0.931999 5.9244e-20)
(1.0464 0.00805577 3.77086e-21)
(1.04787 0.00652415 -1.38163e-21)
(1.02216 0.000649281 1.10805e-20)
(-0.0153273 0.841986 4.59377e-19)
(1.0287 -0.0136497 -2.0545e-23)
(0.747119 -0.312719 -3.36651e-20)
(1.00703 0.159928 2.26334e-21)
(1.0418 0.00310499 1.00975e-20)
(1.01745 0.00451189 1.06779e-20)
(1.01621 0.00519271 7.0187e-21)
(0.774384 0.256617 8.144e-21)
(1.30951 0.115012 0)
(1.04353 0.000341188 -3.53092e-21)
(1.07002 -0.467591 -5.57478e-20)
(1.02545 0.00488552 0)
(0.990696 -0.131119 2.3206e-21)
(1.05078 0.0139388 1.42424e-24)
(1.03141 -0.130105 2.03168e-21)
(1.31589 0.0225772 0)
(0.988694 -0.0456786 5.59655e-21)
(1.01622 0.476868 0)
(0.557368 -0.396708 -5.69118e-20)
(0.720303 0.273278 1.96448e-21)
(0.380853 0.596131 -1.10593e-20)
(1.11943 -0.211412 1.25765e-20)
(1.14056 -0.0615887 2.38658e-21)
(1.02404 0.00566773 -6.85277e-21)
(0.0971422 0.739805 -2.40474e-19)
(0.705609 0.443126 0)
(1.01418 -0.00225384 1.28396e-20)
(1.3498 0.320937 -2.1146e-20)
(1.05515 0.00209333 0)
(0.995125 0.0146 1.65325e-20)
(1.036 -0.0357627 -1.26147e-21)
(1.08133 -0.0932502 7.45496e-21)
(1.02773 -0.0119871 0)
(0.833731 0.354355 0)
(1.01124 0.0284855 5.3372e-21)
(1.05594 0.00372493 1.93399e-21)
(1.0333 0.0612561 1.50838e-20)
(0.795806 -0.57785 3.51686e-20)
(1.05754 0.0909792 -9.40888e-22)
(1.0412 0.00925256 -6.51071e-21)
(0.918511 -0.100135 5.34344e-21)
(0.938471 0.405679 -3.64582e-21)
(1.03448 0.0128101 -1.04715e-20)
(1.05574 -0.000687924 -2.23828e-22)
(1.00117 0.500564 1.17817e-21)
(1.05358 0.00384761 0)
(1.09131 -0.0911798 6.94902e-21)
(0.76487 0.799521 -4.4874e-20)
(1.08102 0.00730095 3.87347e-22)
(1.0309 0.000839292 8.0618e-27)
(0.617257 -0.874612 2.32207e-20)
(1.01858 0.00806022 0)
(1.31974 0.372783 0)
(1.01559 0.508678 -2.78781e-20)
(0.830397 0.276532 0)
(1.3028 0.0861881 -1.17423e-20)
(1.29028 0.104542 3.6364e-20)
(1.05818 0.00372039 1.95849e-21)
(0.999395 0.0171733 -1.29446e-20)
(1.47815 -0.250038 -1.68186e-19)
(0.892874 0.243882 2.64745e-20)
(1.00289 0.0178812 1.25848e-20)
(0.977457 -0.0544354 0)
(1.03466 0.00547688 -7.09351e-21)
(1.01635 0.0055836 0)
(1.02201 0.000763991 -2.85983e-20)
(1.32483 0.0872677 0)
(1.00744 0.000795816 0)
(1.05315 0.0124852 -1.40244e-24)
(1.00145 0.0156673 -2.12448e-22)
(0.747067 0.0267927 -1.5514e-21)
(1.01853 -0.125252 -2.54125e-21)
(1.01985 0.0428093 7.49989e-21)
(1.06305 0.00134512 9.20578e-22)
(1.04476 0.000613114 -1.51033e-21)
(1.04622 0.0098808 -1.31552e-22)
(1.32165 -0.277064 0)
(0.757421 0.472836 0)
(1.03043 0.000598277 0)
(0.825575 -0.158202 0)
(1.13865 -0.0119102 -2.43917e-22)
(1.04882 -0.000655245 0)
(1.03453 0.00543692 0)
(0.948387 -0.0627167 0)
(1.05802 0.00458482 0)
(1.13879 -0.0559079 9.46558e-21)
(1.02936 -6.03998e-06 5.29947e-21)
(0.831084 -0.173118 0)
(1.26583 -0.155382 3.27908e-20)
(1.01836 0.00764619 0)
(1.19034 -0.401039 -8.16958e-20)
(1.04316 -0.0264397 -2.8259e-21)
(0.74452 0.269825 5.64328e-21)
(1.05189 0.0548439 3.52374e-20)
(1.01355 0.00763722 1.83761e-20)
(1.02107 -0.000967759 1.132e-20)
(1.03696 -0.0675331 -1.12458e-21)
(1.05172 0.0105259 -7.96525e-22)
(0.999189 -0.204777 0)
(0.693669 0.329022 -3.98366e-20)
(0.959239 0.0475058 1.12848e-20)
(1.06025 -0.000672415 0)
(1.07781 0.129934 1.58943e-21)
(1.01437 0.0669544 -3.38991e-21)
(1.04533 -0.00873251 5.1158e-21)
(0.617008 0.201996 0)
(0.333539 0.550008 8.47271e-20)
(1.04975 0.00710881 6.7469e-22)
(1.04271 0.0359816 1.26733e-20)
(1.04173 0.0383693 0)
(0.366672 -0.747612 0)
(1.02312 0.00661934 1.41443e-20)
(1.0249 0.00791161 1.134e-20)
(0.718958 -0.462784 -1.3465e-20)
(1.02396 0.00578182 0)
(1.02757 0.0321305 7.54272e-21)
(1.05019 0.00691128 -6.07236e-22)
(1.06064 -0.000637217 -1.14738e-22)
(1.01885 0.00839236 9.7479e-21)
(1.05102 -0.119647 -4.70132e-21)
(1.01844 0.00776959 -4.24389e-21)
(1.01984 0.00788428 0)
(1.0135 0.00786364 0)
(1.25391 -0.175256 -6.11846e-20)
(0.851916 -0.236627 0)
(1.00336 0.0202271 2.08366e-20)
(1.01895 0.00742671 1.56238e-21)
(0.715356 -0.368258 0)
(1.01893 0.00757784 6.0507e-21)
(0.96625 -0.0584665 -2.41871e-21)
(1.03942 -0.0656248 6.48736e-22)
(1.03283 0.000277451 -6.51337e-21)
(1.02395 0.00403717 5.76463e-21)
(1.04545 0.00699743 -1.8303e-23)
(0.850219 -0.456787 1.76073e-20)
(1.18796 -0.359132 -6.09462e-20)
(1.03488 0.00400331 2.07511e-23)
(1.27369 -0.824982 -1.12435e-19)
(1.02323 0.00651659 -2.01559e-20)
(0.773591 0.124276 0)
(0.78194 0.738005 -3.08144e-20)
(1.04496 0.00746575 -4.05654e-21)
(1.06066 -0.000692212 1.6205e-22)
(1.06002 -0.00413446 -2.13841e-23)
(1.02014 0.0102539 0)
(1.0061 0.0197003 0)
(0.965044 0.0117187 6.33989e-24)
(1.0569 0.00400717 -9.43733e-22)
(0.954508 -0.013621 0)
(1.13812 -0.150598 1.26895e-21)
(0.805144 -0.0772769 1.32782e-20)
(1.20486 -0.0672501 -3.17922e-20)
(1.01924 0.00622769 0)
(1.01906 0.00919489 0)
(0.993349 -0.0886674 6.85381e-22)
(0.843618 -0.462448 1.09004e-20)
(1.03514 -0.0905578 3.02587e-22)
(0.350834 0.836095 9.54526e-20)
(1.0121 0.0476925 0)
(1.04728 0.00548163 0)
(1.05449 0.00775226 0)
(0.964024 -0.148136 1.12781e-20)
(1.02528 0.00594489 -5.49728e-21)
(0.949546 -0.00609074 0)
(-0.191548 0.983115 0)
(1.0249 0.000543599 6.69129e-21)
(0.968178 0.00680601 -7.94899e-21)
(0.70955 -0.442686 1.29755e-20)
(1.05922 -0.00765738 1.18867e-23)
(1.05442 0.285856 0)
(1.03386 0.00335595 5.66704e-21)
(1.07626 0.322636 -5.06718e-21)
(1.34729 0.233056 -7.56302e-21)
(1.03247 0.000807909 6.0766e-21)
(1.0553 0.00182446 -2.04478e-21)
(1.03512 0.0181436 0)
(0.794917 -0.0531611 1.22937e-20)
(1.01962 -0.00193349 1.0264e-20)
(1.012 0.0103781 -5.56924e-21)
(1.02567 -0.0115333 3.78409e-21)
(0.979681 -0.0112145 0)
(0.948115 -0.109738 2.87337e-21)
(0.806728 -0.52479 -3.61474e-20)
(1.06273 8.41655e-05 4.83046e-22)
(1.03485 0.00551458 0)
(0.615322 0.357123 -1.54651e-20)
(1.03651 0.0347244 4.87478e-21)
(1.01943 0.00826412 8.70208e-21)
(1.04856 -0.000469051 -8.65899e-22)
(1.28871 -0.22296 -3.94389e-20)
(1.30093 0.00742312 -1.95438e-20)
(1.02873 0.0805606 -7.83628e-21)
(0.745547 0.204864 -2.89068e-21)
(1.02454 0.00435207 0)
(0.910024 -0.240939 3.10189e-21)
(1.03501 0.00559763 -3.64507e-21)
(1.03285 0.00355312 6.67664e-21)
(1.03805 0.0445115 0)
(1.01636 0.00107774 -1.84051e-20)
(-0.418227 0.792637 -1.58084e-19)
(1.03305 0.0033641 -3.34735e-23)
(0.771519 0.216242 -2.0197e-22)
(1.5111 0.0446548 1.17665e-19)
(1.06024 -0.512934 0)
(0.731721 0.196796 3.45364e-23)
(1.09133 0.0399371 0)
(1.04466 0.0010214 0)
(1.4159 0.0287695 -9.42998e-20)
(1.05046 0.00735012 6.30051e-22)
(1.04472 0.000975884 -2.18555e-21)
(1.12197 -0.327026 7.29538e-20)
(1.0137 0.0103089 -1.82812e-20)
(1.06076 -0.00121174 1.20508e-22)
(0.970207 -0.0366373 0)
(0.33742 -0.693254 0)
(1.01634 0.00298866 1.14281e-20)
(1.42849 0.25419 1.40068e-20)
(1.01391 -0.00463062 0)
(-0.00248688 0.714072 2.37949e-19)
(1.0252 0.00557564 0)
(1.11944 -0.148281 1.75473e-20)
(0.563584 0.20928 3.56487e-22)
(0.751784 0.466312 -1.28435e-20)
(1.02422 -0.011207 3.7853e-21)
(1.05862 0.154286 9.94244e-21)
(1.02075 0.000153226 0)
(1.02374 -0.0114587 0)
(0.843768 -0.0415676 -4.4797e-21)
(1.00676 0.02906 -5.6294e-21)
(0.904416 -0.227243 -1.41108e-21)
(1.01954 0.00844085 1.04055e-20)
(0.79134 0.0988977 9.61355e-22)
(1.13015 -0.012024 0)
(0.929588 0.0154905 1.15482e-21)
(1.02506 0.00525071 0)
(1.02159 0.00973364 1.09074e-20)
(0.765347 0.718564 5.89406e-20)
(0.879724 0.114674 -6.1809e-21)
(1.27073 -0.269991 0)
(0.992155 -0.0794693 -6.03372e-21)
(1.04626 0.00840473 3.86299e-21)
(1.04348 0.00920855 -1.92754e-21)
(0.325335 -0.732425 0)
(1.0138 -0.225143 -1.68323e-20)
(0.944827 -0.0245807 -1.54226e-22)
(1.14811 -0.0190861 -7.31139e-21)
(0.979136 -0.0147132 0)
(1.1165 -0.153479 0)
(1.06025 -0.00769289 2.74223e-23)
(1.03597 0.00656717 5.56383e-21)
(0.296551 0.391073 6.19217e-20)
(1.06095 -0.000576533 -3.38785e-22)
(0.742026 0.217095 2.72281e-21)
(1.00771 0.0197013 6.08223e-21)
(0.323245 0.459421 -4.23368e-20)
(1.01679 0.00553862 0)
(1.03376 0.0174375 0)
(1.02572 0.00438255 -4.67802e-21)
(1.26833 -0.835879 8.59588e-20)
(1.05319 0.00935441 -2.85936e-21)
(1.05434 0.00110872 0)
(1.0219 -0.00108177 0)
(1.01764 0.00463796 -1.46856e-20)
(1.31597 -0.338349 0)
(-0.212668 0.881456 -3.43628e-20)
(1.02471 0.00439608 5.57123e-21)
(1.02838 0.00585922 1.14352e-20)
(1.03784 0.0158889 4.97473e-21)
(1.41393 0.0291981 3.82967e-20)
(1.06019 0.0101174 0)
(0.957702 -0.0265087 5.48397e-21)
(1.02681 0.000537553 -6.18582e-21)
(1.01605 0.0030443 0)
(1.3492 -0.348907 6.4086e-20)
(1.0398 0.000356286 0)
(0.736913 -0.175732 3.70025e-21)
(1.05556 0.00429882 -1.53795e-21)
(0.706853 0.0978382 0)
(1.04621 0.00492821 1.82198e-21)
(1.06109 0.003726 4.01134e-22)
(1.03443 0.00387989 6.50588e-21)
(0.828455 0.217166 -3.03573e-20)
(1.04781 -0.000641097 1.9692e-23)
(0.971403 -0.132215 -4.58964e-21)
(1.01645 0.00305141 6.02063e-21)
(0.717196 0.0586895 -2.56105e-21)
(1.01849 0.0077863 -4.63174e-21)
(-0.133098 0.953761 -9.30593e-20)
(1.05236 0.00787472 2.84434e-21)
(1.02538 0.00453605 4.79895e-21)
(1.25833 -0.231607 -3.3265e-20)
(1.02069 0.01302 -1.94599e-20)
(1.03604 0.00643973 0)
(1.04256 0.000760308 0)
(1.41498 -0.251999 -1.8707e-20)
(0.827863 -0.0619034 -7.33112e-21)
(1.03263 0.0032569 -3.5326e-21)
(1.03521 0.0184282 -2.34529e-21)
(0.853658 -0.293293 0)
(1.02089 0.00933585 0)
(1.03236 0.131757 0)
(1.04077 -0.0515544 2.21342e-21)
(0.872579 -0.261345 -1.10383e-20)
(-0.402195 0.815015 3.6523e-19)
(0.810596 -0.514776 -2.90109e-20)
(0.316219 -0.751562 -1.96112e-21)
(1.01716 0.00512128 -9.91763e-21)
(0.817194 -0.151437 9.62788e-22)
(0.653251 -0.203697 3.0797e-20)
(1.02107 0.000438959 0)
(0.852573 0.173866 -1.91767e-21)
(0.941316 -0.4009 0)
(1.0401 0.0696555 6.99087e-21)
(0.565397 0.152589 0)
(1.02059 0.00043852 0)
(0.81729 0.708909 0)
(1.01676 0.00543164 0)
(1.03044 -0.502698 0)
(0.885646 0.216126 0)
(1.02459 0.00790544 -1.18059e-20)
(1.39834 -0.181627 4.25071e-20)
(1.04173 0.000564945 -9.33723e-22)
(1.04217 0.0525815 0)
(1.05088 0.00700077 -6.33123e-22)
(1.00526 0.0217898 0)
(0.836974 0.636904 2.06141e-20)
(1.05571 0.00434244 -3.31245e-21)
(1.39331 -0.129551 -2.2393e-20)
(0.759835 0.234822 0)
(0.745413 0.0505912 0)
(1.01922 0.00702859 0)
(0.690986 0.780956 0)
(1.05991 -0.0877838 -9.53724e-22)
(1.01687 0.00643271 0)
(0.88052 -0.215484 -1.22459e-20)
(1.0206 0.00662967 -5.33184e-21)
(1.03054 0.000546927 0)
(0.766377 0.245761 -1.41817e-20)
(1.05332 -0.000656017 -3.38776e-22)
(1.09095 0.0450461 -1.15464e-20)
(0.766234 0.056022 -1.67741e-20)
(1.03372 0.00295394 -6.34084e-21)
(1.0153 0.0339047 -5.07944e-21)
(1.10899 0.074628 0)
(1.02912 0.00113278 0)
(1.04553 0.00609109 -1.65768e-23)
(1.24049 0.313797 -2.37272e-21)
(1.03593 -0.0501934 -2.0705e-21)
(1.02828 0.00482108 0)
(1.03544 0.00560715 0)
(1.31367 0.0843163 3.13167e-21)
(0.742813 -0.435288 1.13503e-20)
(0.830315 -0.0545066 -1.25094e-20)
(1.10316 -0.330166 -1.27525e-21)
(0.821629 0.664893 0)
(0.736695 -0.180492 0)
(1.02259 0.00721944 0)
(1.26831 0.39216 -2.02013e-20)
(0.77512 -0.169398 8.42094e-21)
(1.01841 0.00601837 0)
(1.20433 -0.0978113 4.11101e-20)
(1.03557 0.00570998 -6.98756e-21)
(1.03418 -0.104409 3.2799e-21)
(1.01928 0.00712037 0)
(1.03431 0.000466601 1.10179e-20)
(1.02518 0.0056138 -5.97905e-21)
(1.03638 0.00660205 0)
(1.01674 0.00453344 -3.43475e-21)
(0.881779 -0.436284 -3.46253e-20)
(0.314907 -0.986224 9.48926e-20)
(0.764347 -0.416647 1.3848e-21)
(0.956495 -0.00783019 1.45061e-20)
(1.06089 0.00918178 -1.01753e-21)
(0.773375 -0.498459 -2.51244e-21)
(1.05482 0.0010753 -2.35817e-21)
(0.6247 -0.197978 -2.01856e-20)
(1.02678 -0.0901239 -4.02651e-22)
(0.812098 0.1885 0)
(1.0236 -0.0133566 -9.97741e-21)
(0.797285 -0.494943 -1.10417e-20)
(1.04534 0.00916718 1.04082e-21)
(0.791224 0.690736 -2.22241e-20)
(1.01495 0.0400366 -2.45376e-21)
(0.671377 -0.216046 -2.07415e-20)
(1.02059 0.00480358 0)
(1.50936 -0.320976 2.86818e-20)
(0.813329 0.711181 3.04704e-20)
(0.949501 -0.0161609 -1.18579e-20)
(1.35529 -0.63044 0)
(1.04446 0.000693015 -5.31855e-21)
(1.1417 0.323702 0)
(1.0467 -0.000529183 0)
(0.87435 -0.056861 0)
(0.809653 -0.305253 1.8126e-21)
(1.04774 0.00542349 2.96812e-21)
(1.06341 0.0010442 5.73828e-22)
(1.0324 0.00342576 0)
(1.05414 -0.000543743 -1.79287e-21)
(0.859317 -0.27631 0)
(0.897754 -0.699523 6.65506e-20)
(1.02346 0.00405643 -6.04437e-21)
(0.88805 0.0423082 0)
(0.736627 0.806212 2.00717e-20)
(0.581582 0.372813 5.87858e-21)
(1.03649 0.00647618 0)
(0.722076 -0.069124 -3.58541e-22)
(1.04814 0.00583563 7.12463e-22)
(1.02336 0.00388761 4.76944e-21)
(0.80329 0.0368599 0)
(0.738976 0.16079 5.74374e-21)
(1.041 -0.0863815 0)
(0.875611 -0.12575 -7.99641e-21)
(1.00993 -0.0137313 -3.44182e-21)
(0.817925 0.0244725 4.51969e-21)
(1.04318 0.000365297 3.13862e-21)
(1.0306 0.0029193 0)
(0.927846 -0.106762 0)
(1.33501 -0.216975 -1.25258e-20)
(1.06154 0.00411989 -6.87589e-22)
(0.922745 0.12845 -1.21674e-20)
(1.23495 -0.155631 1.25354e-20)
(1.01677 0.00434595 -1.92548e-20)
(1.03466 0.00347901 4.79171e-21)
(1.06138 -0.000455102 -5.65618e-22)
(0.661981 -0.588169 0)
(1.09751 -0.0960201 0)
(1.05408 0.00299848 1.03459e-21)
(1.03184 0.00667083 0)
(-0.691165 0.445474 -5.3878e-19)
(1.27072 0.06354 0)
(0.874706 -0.144563 -3.32447e-21)
(1.37413 -0.318619 1.97144e-20)
(1.02382 -0.0140444 1.36576e-20)
(0.510514 0.261681 4.57962e-20)
(1.01266 0.00869612 0)
(1.05394 0.00420433 0)
(1.06073 0.00316859 0)
(1.07648 0.0553715 -6.62501e-21)
(1.12127 -0.241118 -6.15216e-20)
(1.01589 0.00291736 0)
(1.05112 0.00733894 6.34824e-22)
(1.04615 0.00489637 0)
(0.862585 0.268869 -6.61468e-21)
(1.0292 0.00304547 4.43886e-21)
(0.549015 0.331977 -5.84267e-21)
(0.3203 0.430695 0)
(1.02241 0.0069519 1.02494e-21)
(0.883037 -0.0396013 2.8397e-20)
(0.854733 0.710788 -3.11355e-21)
(1.02566 0.00899514 1.03045e-20)
(1.05513 0.00153325 -3.30848e-21)
(1.05438 0.00118498 0)
(1.06128 -0.000787655 1.41115e-22)
(0.935541 0.218342 0)
(1.0464 -1.33436e-06 3.81035e-21)
(1.03622 0.437047 0)
(1.0005 -0.0629592 -8.95723e-21)
(1.01902 -0.0807937 0)
(1.05309 -0.000708982 0)
(1.01841 0.00591945 -1.31747e-20)
(1.02572 -0.00972313 7.30528e-21)
(1.0523 -0.000538422 1.43551e-21)
(1.03932 0.0189403 -2.38698e-21)
(0.697014 0.309142 -3.24896e-20)
(0.876323 -0.466414 0)
(0.610968 -0.546279 -2.71523e-20)
(0.699025 0.688709 0)
(0.807533 0.130024 4.04601e-21)
(1.03622 0.00101159 -1.02962e-20)
(1.01788 0.00536126 -8.21026e-21)
(0.724054 0.956694 0)
(1.0843 -0.0921074 6.75701e-21)
(1.18781 0.220907 1.42608e-20)
(0.980674 0.0329129 2.50961e-21)
(1.11351 -0.229569 2.93771e-20)
(0.715025 0.121712 3.4209e-21)
(0.846653 0.196968 -1.25916e-20)
(0.769361 -0.0808051 4.71492e-21)
(0.906666 0.0271877 0)
(1.05424 0.0028356 -3.05782e-21)
(1.04975 0.000506816 4.78964e-21)
(0.983383 -0.0176629 0)
(1.02884 0.00427322 9.48665e-21)
(1.35992 -0.624184 -9.65369e-20)
(0.656209 0.105715 6.64452e-21)
(1.06066 0.00582868 0)
(1.01831 0.00754307 -4.99301e-21)
(1.03777 -0.0794051 -7.29537e-22)
(1.03502 0.134903 2.74831e-21)
(0.678302 -0.0592328 -6.31947e-20)
(1.0362 0.0774277 -5.4302e-22)
(0.318074 -0.999197 1.53809e-19)
(1.02242 0.000693992 2.50789e-21)
(1.09484 -0.617399 0)
(1.02226 0.00363783 -9.85085e-21)
(1.02027 0.00676996 0)
(1.02995 -0.0239057 7.0246e-21)
(1.06305 0.00118116 -5.43927e-22)
(1.0408 0.00558667 -7.09777e-21)
(0.901239 0.261265 -2.44658e-21)
(1.029 0.00533913 0)
(1.20037 -0.0330129 2.23914e-20)
(0.949615 0.0537508 0)
(1.02252 0.000832353 -4.2665e-21)
(1.0215 0.0136006 1.00811e-20)
(1.05405 0.00624286 -1.79897e-23)
(0.966853 -0.032443 -1.28529e-20)
(0.673119 -0.536026 2.63997e-21)
(0.932681 0.0172356 3.5795e-21)
(0.813207 -0.491875 2.98562e-20)
(1.01723 0.000236766 0)
(1.20039 -0.099701 -1.78878e-22)
(0.759128 -0.0580218 1.391e-20)
(1.27039 -0.195781 0)
(1.04218 0.0106285 0)
(1.02332 -0.000555182 0)
(1.06026 -0.000652487 0)
(1.34842 0.137459 7.947e-21)
(1.01177 -0.00290058 8.28818e-23)
(1.04388 0.000282647 3.37143e-21)
(1.05601 0.00486123 -1.38137e-21)
(1.0606 0.00555524 -5.73872e-22)
(1.06134 -0.000820502 -1.21947e-22)
(0.782957 -0.109754 -3.75681e-20)
(1.10876 0.0516433 0)
(0.93619 0.0282827 -3.53942e-21)
(0.919139 0.110402 -1.13428e-20)
(1.03344 0.00348293 0)
(0.995114 -0.0528882 8.93024e-21)
(1.04427 0.0601953 0)
(0.839517 0.258435 1.06533e-20)
(1.04554 0.00507208 0)
(1.05592 0.0048636 0)
(1.02483 0.00504969 -5.70439e-21)
(1.056 0.00342794 -1.24098e-24)
(1.03735 0.000872592 -5.83652e-21)
(1.36236 -0.72131 0)
(0.982185 0.0393037 -5.17523e-21)
(0.94564 0.344284 1.17888e-21)
(1.05702 0.00507817 5.00925e-22)
(1.00435 0.0569624 1.53956e-20)
(1.03325 0.00362727 -6.76023e-21)
(1.03372 0.000723301 0)
(1.04796 0.0528185 -4.09342e-21)
(1.06119 -0.000486483 1.9829e-22)
(1.05596 0.00330005 1.95088e-21)
(1.19398 -0.0407617 -2.98559e-20)
(1.19377 -0.0698121 -1.86202e-19)
(0.70356 0.189647 1.14227e-22)
(-0.479312 0.993035 3.79115e-19)
(1.03854 -0.0757795 7.51066e-22)
(1.0171 0.00503303 3.75213e-21)
(1.04551 0.00484912 -5.34315e-21)
(0.654207 0.658029 -3.37444e-20)
(1.06162 -0.000711047 0)
(0.775109 0.459204 0)
(0.662143 0.0815009 8.41756e-21)
(1.00726 -0.962086 -1.32546e-19)
(1.05419 0.00262047 0)
(0.751487 0.791552 0)
(0.430598 0.766051 0)
(1.0186 0.00795475 -1.35975e-20)
(1.02103 0.046727 -1.09989e-20)
(1.33297 0.184023 -3.15078e-21)
(0.0794186 0.915975 -3.31847e-20)
(1.02053 0.000151298 0)
(1.03996 -0.0970665 -2.20993e-21)
(1.01856 0.00104292 1.4397e-20)
(0.727775 -0.598036 -4.12913e-20)
(0.41472 0.790847 0)
(1.06084 0.00640338 -3.45443e-22)
(0.796216 -0.590979 4.76339e-20)
(1.02485 -0.00897994 -3.39931e-21)
(1.04162 0.000671741 -5.61975e-21)
(1.04184 0.00685583 -7.18547e-21)
(1.03059 0.000988145 0)
(1.03259 0.00625525 -2.32853e-21)
(1.06103 -0.000506371 4.13387e-22)
(0.817408 0.284085 4.01988e-21)
(0.806891 0.223591 0)
(1.05916 0.00270527 5.19209e-22)
(1.02272 0.00393565 -1.15658e-20)
(1.02479 0.00505779 -2.88543e-21)
(1.00134 0.0187973 -7.52732e-21)
(1.03489 0.00363762 6.57812e-21)
(-0.728649 0.543153 7.33504e-20)
(0.613565 -0.545403 0)
(1.226 -0.137853 -1.59615e-20)
(1.06139 -0.000425206 -2.11821e-22)
(1.06253 -0.000229347 2.38859e-22)
(1.06074 -0.000939596 8.84557e-23)
(-0.569428 0.828492 6.91106e-20)
(0.636644 -0.513431 0)
(1.43294 -0.161904 -1.593e-19)
(1.39749 0.310258 7.97196e-21)
(1.05592 0.00445997 1.84968e-21)
(0.8272 -0.446387 1.11193e-20)
(0.931125 -0.405674 3.978e-20)
(0.904767 -0.665136 -6.94587e-20)
(1.06158 -0.000293851 0)
(1.05642 0.00483106 0)
(0.699749 -0.205719 -1.37597e-21)
(0.992163 0.0244033 7.65873e-21)
(0.853637 0.569431 -1.79648e-19)
(1.02935 0.00578493 9.15352e-21)
(1.04791 -3.38812e-05 -4.38436e-21)
(1.05195 0.00048296 0)
(1.02379 -0.130205 -2.10584e-21)
(1.0697 -0.0935593 3.19064e-21)
(1.06108 0.00340278 0)
(1.04619 0.0143518 2.90926e-21)
(1.02162 0.02778 -7.23505e-22)
(1.03719 0.000598387 2.74248e-21)
(0.813388 0.0566799 0)
(0.788171 -0.25724 0)
(0.742343 -0.109801 0)
(1.20843 -0.0740753 3.92392e-20)
(0.711058 0.0284057 5.88712e-21)
(1.01697 0.00538416 0)
(1.2015 -0.00549321 3.96461e-20)
(0.932744 -0.0473992 1.46071e-20)
(1.05373 -0.000369225 -1.02696e-21)
(1.03332 0.000541507 -5.52962e-21)
(0.737499 0.276794 0)
(0.778974 0.0962165 5.86113e-21)
(0.944851 0.560339 2.65816e-19)
(0.710139 -0.717156 0)
(1.03637 0.0205584 0)
(1.0565 0.00478024 1.37668e-21)
(1.09258 0.0643152 0)
(1.01123 -0.00350795 4.68015e-21)
(0.751205 0.808728 2.09266e-20)
(0.862815 0.231072 0)
(1.0545 0.000972285 -3.39294e-21)
(1.05291 -0.000641417 5.49688e-22)
(0.809995 -0.471536 9.63705e-21)
(1.02015 0.00988784 -4.71486e-21)
(0.900336 0.161456 -1.12977e-20)
(1.03255 0.00512241 2.07066e-21)