/*--------------------------------*- C++ -*----------------------------------*\
| =========                 |                                                 |
| \\      /  F ield         | OpenFOAM: The Open Source CFD Toolbox           |
|  \\    /   O peration     | Version:  v2012                                 |
|   \\  /    A nd           | Website:  www.openfoam.com                      |
|    \\/     M anipulation  |                                                 |
\*---------------------------------------------------------------------------*/
FoamFile
{
    version     2.0;
    format      ascii;
    class       volVectorField;
    location    "200";
    object      U_0;
}
// * * * * * * * * * * * * * * * * * * * * * * * * * * * * * * * * * * * * * //

dimensions      [0 1 -1 0 0 0 0];


internalField   nonuniform List<vector> 
18649
(
(0.844769 -0.00130238 5.05538e-21)
(1.02097 0.00391694 1.18752e-20)
(0.854039 0.0546626 -4.66387e-21)
(1.10233 -0.20889 5.15107e-21)
(1.03801 0.000514365 9.55504e-21)
(0.842886 -0.279898 0)
(1.01862 0.00584225 0)
(1.0597 -0.000721192 -3.31698e-22)
(0.764112 -0.0503376 -8.15814e-21)
(0.496949 0.563529 4.93118e-20)
(1.0236 0.00628199 2.33467e-20)
(1.02427 0.00413578 -5.15456e-21)
(1.03729 0.0007116 -8.4426e-21)
(1.0155 0.00729333 -1.3039e-20)
(0.548901 -1.00233 2.66325e-20)
(1.03944 0.000467071 0)
(1.03635 9.22603e-05 7.91976e-21)
(1.01865 0.00571071 0)
(0.662772 0.432996 -1.46008e-20)
(1.02098 0.00373617 0)
(1.02443 0.00408904 9.53599e-21)
(-0.421628 1.0424 -8.32091e-20)
(0.985955 0.00523361 -4.62397e-21)
(1.10222 -0.169475 0)
(0.468206 0.58431 -8.89253e-20)
(0.99541 0.00685871 4.9034e-21)
(0.740336 0.135194 1.58133e-21)
(0.738461 0.197349 -3.94122e-21)
(1.03082 0.0084449 1.84561e-20)
(0.708372 0.520232 3.70992e-20)
(1.01993 -0.0099061 0)
(1.01951 -0.00816751 0)
(1.03594 -0.00101402 2.23293e-22)
(1.03736 -0.0584664 6.6597e-22)
(1.02296 0.000451525 -1.10262e-20)
(0.954015 0.0461219 0)
(0.611266 -0.789428 5.91308e-20)
(1.04941 -0.0839072 1.18686e-20)
(1.02359 0.00594943 -2.30845e-20)
(1.01572 0.00748726 2.57311e-21)
(0.918656 -0.368405 8.88051e-21)
(1.02005 -0.000392595 -6.33712e-21)
(1.3077 -0.209608 5.29186e-20)
(0.751071 0.230915 -8.04972e-21)
(0.792497 -0.0572848 4.19094e-21)
(-0.287149 0.839677 -1.40277e-19)
(1.02208 0.0582201 -3.40831e-21)
(1.07095 -0.0369062 0)
(1.01748 0.00490112 6.79116e-21)
(0.988256 -0.194264 -1.59235e-21)
(1.10077 -0.194097 0)
(0.966512 -0.0210202 4.62994e-21)
(1.03679 0.0119327 9.21331e-21)
(0.915394 -0.341506 3.80182e-21)
(1.05672 0.00425823 1.67551e-21)
(1.14594 -0.358194 0)
(0.546775 -0.225727 0)
(1.01724 0.00493038 -6.68755e-21)
(1.06034 -0.00294174 2.72083e-24)
(0.954632 0.459482 -8.28707e-21)
(1.04684 0.00569226 0)
(1.24215 0.0319039 -1.4918e-20)
(1.01656 0.005636 0)
(0.568346 -0.34052 1.88398e-20)
(0.641815 0.539769 -1.42674e-21)
(0.957713 -0.135358 -2.72014e-21)
(0.992437 0.45433 7.89818e-21)
(1.02656 -0.0156817 0)
(0.758478 -0.0540176 -2.59097e-21)
(-0.451194 1.03131 -1.48175e-19)
(0.727389 0.123026 0)
(1.04061 -0.05795 -1.13737e-21)
(1.0189 0.00561328 0)
(1.0167 0.00567709 0)
(1.00293 0.00953449 0)
(0.740149 0.254684 3.70588e-21)
(0.787911 0.00247606 -3.97765e-21)
(1.02249 0.000422609 1.28071e-20)
(0.34133 0.889949 -1.23544e-19)
(1.07052 -0.0108755 -5.09881e-26)
(1.00724 0.0136049 0)
(1.04311 -0.102381 -1.39561e-20)
(0.818006 -0.426419 0)
(0.656324 0.380012 1.62981e-20)
(1.05611 -0.000721736 2.28161e-22)
(1.16664 -0.347043 5.28735e-20)
(1.0044 0.0474147 1.21729e-20)
(1.03735 0.0586988 -1.37737e-20)
(1.07233 -0.0115579 2.68534e-23)
(0.72571 -0.602421 0)
(0.61915 -0.977341 -2.23199e-20)
(1.26476 -0.139545 0)
(1.09959 -0.168734 -6.34188e-21)
(0.835183 0.187419 4.31695e-20)
(1.03235 0.0124148 -3.29964e-21)
(1.03713 0.0112018 -8.91911e-22)
(0.950207 0.0443291 -2.84273e-22)
(1.10447 -0.138698 0)
(0.961024 -0.108031 -1.81209e-22)
(1.04712 0.00555505 -2.76063e-21)
(0.877644 -0.462089 3.04747e-20)
(1.03998 0.000377605 -4.75804e-21)
(1.03005 -0.131543 0)
(1.05943 -0.000721348 3.89934e-22)
(0.740947 -0.0365518 -2.93064e-21)
(0.742693 -0.0108558 2.86447e-21)
(0.813053 -0.387387 -1.59616e-20)
(1.06186 -0.555228 7.71235e-20)
(1.12353 -0.35829 -8.62287e-21)
(1.01894 0.00550406 0)
(1.02273 0.000725009 3.48981e-23)
(1.07028 -0.051263 2.18669e-22)
(1.03627 0.072637 1.39615e-20)
(1.03145 0.00410143 1.64289e-20)
(1.03279 0.0126742 0)
(1.11938 -0.126544 -3.55918e-21)
(1.0252 -0.0157916 3.95342e-21)
(1.07176 -0.0536587 1.4206e-21)
(1.03544 0.000682948 9.84883e-21)
(1.0088 0.0471367 3.48703e-21)
(1.04801 0.0070302 2.79908e-21)
(1.10507 -0.121865 4.20809e-21)
(1.02104 -0.497363 5.38242e-20)
(1.03129 0.00386801 -1.02549e-20)
(1.05598 -0.000713809 3.34524e-22)
(1.023 -0.00193762 0)
(0.697432 -0.387944 0)
(1.01933 0.00986166 0)
(1.03127 0.0100222 3.06659e-23)
(1.06128 0.00484368 -1.64376e-22)
(1.01859 0.00785674 2.0382e-20)
(0.574247 -0.352025 -2.1517e-20)
(1.29107 0.0211906 0)
(1.31618 0.0238008 -6.36652e-20)
(1.02358 0.000488211 -2.06974e-20)
(-0.468815 0.688086 -6.93136e-20)
(0.741776 0.121387 6.04514e-21)
(1.05251 -0.556923 -5.66166e-20)
(0.742717 0.0583693 -7.23371e-21)
(0.716075 -0.0475173 -7.87569e-22)
(1.06953 -0.0272966 -1.28716e-22)
(1.03264 0.00046278 5.14866e-21)
(1.06082 -0.00104212 -7.50845e-23)
(1.02112 0.00306351 7.34266e-21)
(0.717024 0.109864 -7.26686e-22)
(1.04955 0.00649615 -2.60667e-21)
(1.02164 0.00686699 -5.82769e-21)
(1.30494 0.0473503 -3.97213e-20)
(0.729042 0.00997937 4.37476e-21)
(1.01864 0.00751465 4.96973e-23)
(0.837737 0.0794774 4.16453e-21)
(0.769492 -0.203452 -2.90711e-22)
(1.0318 0.000504346 1.6163e-22)
(1.01876 0.00511141 1.57508e-20)
(1.09656 -0.100941 0)
(1.15 -0.12686 -2.05073e-22)
(1.01854 0.00754143 5.91182e-21)
(1.03918 0.00652243 6.65814e-21)
(1.03384 0.00369183 -5.39577e-21)
(0.980223 0.0813444 -5.90682e-21)
(0.858291 -0.425017 0)
(0.799717 -0.0734091 -3.25225e-20)
(1.01861 0.00751882 -2.01628e-20)
(0.740965 -0.0162306 7.20592e-22)
(0.882478 -0.433269 -1.1074e-20)
(1.03421 0.000938712 5.29607e-21)
(1.06311 0.032305 2.968e-21)
(0.710483 -0.0145373 -5.26355e-21)
(1.0475 6.00115e-05 -1.89723e-21)
(1.04802 0.00540516 0)
(0.999717 0.0480393 5.05471e-22)
(1.02938 0.00106166 -9.66639e-21)
(1.03529 0.00548001 3.49095e-21)
(1.04202 0.0011537 -7.07394e-21)
(0.985242 -0.18435 1.7095e-21)
(0.992108 -0.0550814 1.81445e-21)
(0.748503 0.143907 1.02152e-21)
(1.01848 0.0076386 0)
(0.717465 -0.0337157 0)
(0.861881 -0.354331 -2.09689e-20)
(1.02543 0.00439998 0)
(0.701682 -0.044642 2.06919e-21)
(1.06192 0.0073593 0)
(1.03857 0.00762427 -6.97946e-21)
(1.02533 0.00175587 7.74002e-21)
(1.06103 0.00852859 0)
(1.05636 0.00405106 1.09735e-23)
(1.1 -0.112198 -1.56771e-23)
(1.04805 0.00638078 1.29237e-21)
(1.06294 0.000376176 0)
(1.01484 -0.0129767 0)
(0.835131 0.132435 1.20749e-20)
(0.757369 -0.188051 -4.72557e-21)
(1.00453 0.0619226 -1.11515e-20)
(1.11297 0.0716732 0)
(1.03522 0.00539652 -2.90687e-21)
(1.06212 0.00365075 -2.02573e-23)
(1.06178 0.00630426 3.40931e-21)
(0.878106 -0.42612 8.18649e-21)
(1.07438 -0.0327036 8.8653e-23)
(1.06291 0.000511407 0)
(1.03798 0.000908612 2.23652e-21)
(0.982352 0.128259 0)
(1.01873 0.00526415 3.25793e-21)
(1.02016 0.00255927 -1.36219e-20)
(1.0292 0.000920346 1.39791e-20)
(1.32756 -0.000530566 4.59173e-20)
(0.897575 0.445602 0)
(1.03047 -0.000450633 -3.43031e-21)
(1.03698 0.0100939 0)
(1.04792 0.00592674 -6.71416e-22)
(1.00268 0.0220772 0)
(1.05351 0.00355937 -1.02844e-21)
(0.958589 -0.0192749 2.98886e-23)
(1.19098 0.223159 -1.73562e-19)
(0.946597 -0.0256183 -2.1145e-20)
(1.01827 0.00068911 -1.86961e-20)
(1.01339 -0.0126774 -2.89168e-21)
(1.03888 0.00546694 1.24106e-20)
(1.03018 0.0549027 0)
(0.891074 0.0607325 0)
(1.08755 0.00565398 -4.32121e-22)
(-0.437004 0.696147 0)
(0.887188 0.196051 0)
(0.801508 -0.123866 1.80946e-20)
(1.05195 0.021513 -2.78021e-21)
(0.794439 -0.201057 5.69474e-21)
(1.26949 0.0492811 2.65659e-19)
(1.01899 0.000143406 0)
(0.876539 0.0785088 -3.2515e-21)
(1.06272 0.000192233 -9.84995e-22)
(1.00733 0.00126348 5.62404e-21)
(1.07189 -0.0413426 0)
(1.0238 0.00371605 3.20533e-22)
(0.73935 0.834595 0)
(1.02565 0.00448135 -9.41615e-21)
(1.01453 -0.0027267 -8.26449e-21)
(1.02462 0.00237803 1.52177e-20)
(1.05351 0.00444057 1.03549e-21)
(1.06029 -0.000658513 -1.6782e-23)
(1.08961 0.0803162 -3.1685e-21)
(0.922198 0.274391 0)
(1.25054 0.344895 0)
(0.334454 0.91855 0)
(0.814117 -0.19954 0)
(0.987038 0.00951932 -1.11195e-20)
(1.0068 0.0624345 3.38525e-21)
(1.0233 0.000568769 1.37921e-20)
(-0.642795 0.868435 -1.8959e-19)
(1.10023 -0.114746 -8.52651e-21)
(0.980915 0.0102419 1.18993e-20)
(1.23387 0.188032 -7.63023e-20)
(1.01974 0.00747655 4.39144e-21)
(1.002 0.00738435 -5.89482e-21)
(1.03859 -0.0378786 -1.00248e-21)
(1.03414 0.000825031 1.47634e-21)
(1.03718 0.00950983 0)
(1.04757 0.00542524 -2.7075e-21)
(0.885915 0.101647 7.87707e-21)
(1.04802 -4.22868e-08 0)
(0.587345 -0.828977 -1.04976e-19)
(1.0553 0.00228344 -8.38579e-22)
(1.05703 0.00437485 0)
(1.0782 0.0715632 1.16469e-20)
(1.05415 0.00320152 9.93595e-22)
(0.787958 -0.173583 -1.18706e-21)
(1.04967 -0.000663429 0)
(1.04282 0.0349796 2.76585e-21)
(1.04259 0.000395352 0)
(1.04716 0.0132975 1.27254e-21)
(0.609308 0.121842 -7.38159e-22)
(1.47742 -0.256311 1.34046e-19)
(0.963211 -0.0205008 -1.74648e-23)
(1.04755 0.0124672 0)
(0.582632 -0.922939 2.48523e-20)
(1.11051 -0.127116 -1.66998e-20)
(1.01434 0.0107618 -5.87695e-21)
(1.04747 -0.0102705 5.06363e-21)
(1.09383 0.0812633 0)
(1.24881 0.0186537 1.36604e-20)
(1.17676 -0.388263 3.50437e-20)
(1.01947 -0.00411646 -1.32477e-20)
(0.864863 0.428332 0)
(1.01842 0.000551791 6.90745e-22)
(1.06145 0.00484842 -1.02777e-21)
(1.16751 -0.32574 -3.87442e-20)
(0.930907 0.111932 0)
(1.02411 0.000727911 0)
(0.743016 0.135286 0)
(1.05729 -0.000780113 -6.3404e-22)
(1.02513 0.00423925 4.14462e-21)
(0.842616 -0.346253 2.24628e-20)
(1.01887 0.00833764 8.50761e-21)
(1.02068 0.00618752 0)
(0.740532 -0.319783 2.55643e-20)
(-0.633421 0.803836 0)
(0.555779 -0.279424 1.37949e-20)
(-0.0463947 0.8553 -3.79359e-19)
(1.06933 -0.0260726 0)
(1.039 0.00449593 -7.27075e-21)
(1.03387 0.0128081 0)
(0.744528 -0.0415482 7.94872e-21)
(0.91397 0.176929 0)
(0.601759 0.149366 2.2463e-20)
(1.31936 -0.294532 -5.36947e-20)
(1.05449 0.0187176 0)
(1.04412 0.0413993 0)
(1.2026 -0.0851168 -3.83151e-20)
(1.07371 -0.0321595 8.45603e-22)
(1.00121 -0.215275 1.45681e-20)
(1.02491 0.00419137 4.32077e-21)
(1.00098 -0.134949 -1.60848e-21)
(1.06057 -0.00310254 6.16604e-24)
(1.0577 0.00219044 3.01803e-21)
(1.01277 0.00913422 -1.62584e-20)
(1.00901 0.0182854 0)
(1.01166 -0.0157074 9.01787e-22)
(0.586447 -0.377573 6.11381e-20)
(0.787187 -0.0384451 2.30997e-20)
(1.05768 0.0027812 -3.91153e-21)
(0.112033 0.937158 6.00979e-20)
(1.0464 0.00802653 3.78092e-21)
(1.04788 0.00653213 -1.38639e-21)
(1.02216 0.000648543 1.1046e-20)
(-0.0115819 0.836245 4.63503e-19)
(1.02852 -0.0136758 -2.20584e-23)
(0.748043 -0.308433 -3.37655e-20)
(1.008 0.161597 2.24853e-21)
(1.04175 0.00302185 1.006e-20)
(1.01745 0.00451583 1.06433e-20)
(1.0162 0.00524474 6.99944e-21)
(0.773917 0.257223 8.11376e-21)
(1.31024 0.112927 0)
(1.04353 0.00034127 -3.53885e-21)
(1.06917 -0.468643 -5.53378e-20)
(1.02545 0.00489015 0)
(0.990022 -0.130805 2.31645e-21)
(1.05084 0.0140148 1.42039e-24)
(1.03073 -0.13009 2.01509e-21)
(1.31625 0.0209928 0)
(0.988316 -0.0456531 5.55658e-21)
(1.01716 0.477944 0)
(0.560231 -0.397591 -5.66443e-20)
(0.719814 0.273153 1.95876e-21)
(0.377404 0.59294 -1.10946e-20)
(1.11838 -0.211953 1.2482e-20)
(1.14027 -0.0621157 2.39546e-21)
(1.02404 0.00565572 -6.83036e-21)
(0.101191 0.733029 -2.42256e-19)
(0.70352 0.44271 0)
(1.01412 -0.00215971 1.28059e-20)
(1.35206 0.317482 -2.14083e-20)
(1.05515 0.00209396 0)
(0.995134 0.014821 1.64708e-20)
(1.03575 -0.0357753 -1.25713e-21)
(1.08045 -0.0935384 7.37202e-21)
(1.02756 -0.0120033 0)
(0.833469 0.351399 0)
(1.0113 0.0287078 5.3627e-21)
(1.05593 0.00371516 1.9416e-21)
(1.03372 0.0610406 1.50362e-20)
(0.797161 -0.575595 3.50638e-20)
(1.05837 0.0918353 -9.38918e-22)
(1.04119 0.00920848 -6.48441e-21)
(0.918099 -0.0992043 5.33899e-21)
(0.939131 0.408459 -3.76181e-21)
(1.0345 0.0128562 -1.04654e-20)
(1.05573 -0.000688058 -2.24413e-22)
(1.00158 0.501482 1.17903e-21)
(1.05358 0.00384037 0)
(1.09085 -0.0914947 7.08012e-21)
(0.765297 0.801468 -4.53972e-20)
(1.08102 0.00731535 4.00194e-22)
(1.0309 0.000838748 -2.57704e-28)
(0.616007 -0.871425 2.30182e-20)
(1.01858 0.008075 0)
(1.32247 0.369501 0)
(1.01604 0.509035 -2.82452e-20)
(0.830223 0.27315 0)
(1.30341 0.0849 -1.19144e-20)
(1.29106 0.103234 3.63101e-20)
(1.05816 0.00367058 1.96828e-21)
(0.999426 0.017355 -1.28946e-20)
(1.47661 -0.252508 -1.68622e-19)
(0.892873 0.240137 2.706e-20)
(1.00298 0.0179992 1.25647e-20)
(0.977036 -0.0542401 0)
(1.03466 0.0054726 -7.07965e-21)
(1.01633 0.00563439 0)
(1.022 0.00076319 -2.85094e-20)
(1.32587 0.086303 0)
(1.00734 0.000989072 0)
(1.0532 0.0125468 -1.39857e-24)
(1.00153 0.0158199 -2.1439e-22)
(0.747688 0.029606 -1.69922e-21)
(1.01771 -0.125142 -2.5385e-21)
(1.02004 0.0429633 7.55653e-21)
(1.06305 0.00133466 9.2242e-22)
(1.04476 0.000613528 -1.51343e-21)
(1.04623 0.00983928 -1.31884e-22)
(1.31982 -0.278929 0)
(0.755307 0.472872 0)
(1.03036 0.000582475 0)
(0.824501 -0.157211 0)
(1.13862 -0.0119954 -2.45921e-22)
(1.04882 -0.000655251 0)
(1.03453 0.00543363 0)
(0.947887 -0.0622117 0)
(1.058 0.00451881 0)
(1.13846 -0.0564853 9.50877e-21)
(1.02936 -5.72284e-06 5.29609e-21)
(0.829893 -0.17221 0)
(1.2648 -0.156766 3.28824e-20)
(1.01836 0.00765824 0)
(1.1883 -0.401915 -8.13087e-20)
(1.04296 -0.026485 -2.80401e-21)
(0.74427 0.270613 5.62095e-21)
(1.05219 0.0546783 3.50839e-20)
(1.01356 0.00770157 1.83265e-20)
(1.02101 -0.000935053 1.12824e-20)
(1.03657 -0.0675813 -1.14025e-21)
(1.05174 0.0105766 -7.9626e-22)
(0.998133 -0.204622 0)
(0.693122 0.326309 -3.99175e-20)
(0.959774 0.0494948 1.12906e-20)
(1.06024 -0.000672751 0)
(1.07878 0.13085 1.589e-21)
(1.01506 0.068041 -3.39835e-21)
(1.0452 -0.00880492 5.07685e-21)
(0.621152 0.19349 0)
(0.330836 0.545547 8.52718e-20)
(1.04976 0.00711647 6.77126e-22)
(1.04288 0.035889 1.26311e-20)
(1.04192 0.0382737 0)
(0.368389 -0.753926 0)
(1.02313 0.00660611 1.40987e-20)
(1.02489 0.00792843 1.13015e-20)
(0.719886 -0.4629 -1.3458e-20)
(1.02396 0.00576894 0)
(1.02772 0.0323025 7.58636e-21)
(1.0502 0.00691403 -6.09428e-22)
(1.06064 -0.000637612 -1.14959e-22)
(1.01885 0.00840532 9.71758e-21)
(1.0504 -0.119706 -4.67571e-21)
(1.01844 0.00778337 -4.22986e-21)
(1.01982 0.00794962 0)
(1.01351 0.00792088 0)
(1.2529 -0.176744 -6.13499e-20)
(0.851762 -0.232554 0)
(1.00339 0.02046 2.07574e-20)
(1.01894 0.00744103 1.55706e-21)
(0.71604 -0.364349 0)
(1.01892 0.007591 6.02997e-21)
(0.966131 -0.0585721 -2.40221e-21)
(1.03902 -0.0656207 6.63938e-22)
(1.03283 0.000277863 -6.50918e-21)
(1.02394 0.00403581 5.74623e-21)
(1.04545 0.0069786 -1.78749e-23)
(0.848395 -0.456199 1.74797e-20)
(1.18615 -0.360131 -6.05776e-20)
(1.03484 0.00401336 2.13838e-23)
(1.27125 -0.826896 -1.11998e-19)
(1.02323 0.00650296 -2.00908e-20)
(0.773472 0.125316 0)
(0.780737 0.736726 -3.0673e-20)
(1.04493 0.00734995 -4.03888e-21)
(1.06066 -0.000692614 1.62347e-22)
(1.05999 -0.00412881 -2.1389e-23)
(1.02014 0.0102874 0)
(1.0062 0.0198075 0)
(0.965016 0.0122334 1.16104e-23)
(1.0569 0.00400878 -9.46345e-22)
(0.954368 -0.0132451 0)
(1.13708 -0.151096 1.19573e-21)
(0.80452 -0.0760543 1.34156e-20)
(1.20445 -0.0678552 -3.20171e-20)
(1.01924 0.00622956 0)
(1.01905 0.00924106 0)
(0.992879 -0.0884162 6.92343e-22)
(0.841591 -0.462008 1.08206e-20)
(1.03463 -0.0904691 3.01534e-22)
(0.354212 0.840118 9.70542e-20)
(1.01237 0.0476891 0)
(1.04728 0.00548816 0)
(1.05451 0.00780564 0)
(0.964056 -0.143338 1.12952e-20)
(1.02528 0.00595312 -5.47915e-21)
(0.949594 -0.00518079 0)
(-0.189819 0.98623 0)
(1.0249 0.000543473 6.67212e-21)
(0.968122 0.00713815 -7.92107e-21)
(0.710645 -0.443026 1.29689e-20)
(1.05917 -0.00762859 1.05104e-23)
(1.05657 0.286418 0)
(1.03385 0.00335538 5.65716e-21)
(1.07852 0.323331 -5.03585e-21)
(1.34849 0.230201 -7.55646e-21)
(1.03246 0.000807845 6.06631e-21)
(1.0553 0.00182634 -2.05115e-21)
(1.03517 0.0181224 0)
(0.794443 -0.0517362 1.23575e-20)
(1.01955 -0.00188443 1.02305e-20)
(1.01203 0.0104347 -5.55897e-21)
(1.02551 -0.0115673 3.76979e-21)
(0.979619 -0.0106934 0)
(0.947334 -0.109501 2.8752e-21)
(0.807806 -0.523234 -3.60392e-20)
(1.06273 7.3912e-05 4.83724e-22)
(1.03484 0.00551407 0)
(0.613432 0.35554 -1.56575e-20)
(1.03664 0.034596 4.9093e-21)
(1.01944 0.00827022 8.67503e-21)
(1.04856 -0.000469453 -8.68422e-22)
(1.28761 -0.224043 -3.95341e-20)
(1.30097 0.00624112 -1.96578e-20)
(1.02921 0.0803424 -7.81411e-21)
(0.745344 0.206535 -2.76387e-21)
(1.02454 0.00435487 0)
(0.909022 -0.240157 3.02487e-21)
(1.035 0.00559788 -3.63894e-21)
(1.03285 0.00355041 6.6631e-21)
(1.03829 0.0443313 0)
(1.01636 0.00107846 -1.83458e-20)
(-0.418763 0.796092 -1.59549e-19)
(1.03304 0.00336297 -3.31205e-23)
(0.771352 0.216457 -2.4248e-22)
(1.51203 0.0415243 1.18234e-19)
(1.05766 -0.512765 0)
(0.731639 0.197224 4.1471e-23)
(1.09151 0.0390866 0)
(1.04466 0.00102185 0)
(1.41649 0.0262081 -9.5355e-20)
(1.05047 0.00734892 6.32392e-22)
(1.04472 0.00097634 -2.1894e-21)
(1.12015 -0.327771 7.32571e-20)
(1.01373 0.0103619 -1.82576e-20)
(1.06075 -0.00121175 1.20275e-22)
(0.969782 -0.0360318 0)
(0.338953 -0.691673 0)
(1.01634 0.00299058 1.1391e-20)
(1.4301 0.250241 1.41338e-20)
(1.01378 -0.00440512 0)
(0.00193205 0.707298 2.396e-19)
(1.02519 0.00558232 0)
(1.11862 -0.148843 1.75408e-20)
(0.564827 0.214988 3.79446e-22)
(0.751127 0.465075 -1.30024e-20)
(1.02407 -0.0111961 3.76919e-21)
(1.05975 0.154176 9.91523e-21)
(1.02075 0.000153407 0)
(1.02358 -0.0114448 0)
(0.84391 -0.0390273 -4.23069e-21)
(1.00684 0.0294842 -5.66015e-21)
(0.903498 -0.226562 -1.35202e-21)
(1.01955 0.00844641 1.03732e-20)
(0.792345 0.103049 1.00738e-21)
(1.13012 -0.0120821 0)
(0.92994 0.0169194 1.16e-21)
(1.02506 0.0052566 0)
(1.02158 0.00976258 1.08705e-20)
(0.762743 0.718399 5.87495e-20)
(0.880438 0.115904 -6.16383e-21)
(1.26938 -0.271196 0)
(0.991687 -0.0792376 -6.07549e-21)
(1.04626 0.00837682 3.87257e-21)
(1.04347 0.00915532 -1.91865e-21)
(0.327145 -0.738157 0)
(1.01268 -0.22511 -1.67056e-20)
(0.94468 -0.0239738 -1.38099e-22)
(1.14797 -0.0194889 -7.36864e-21)
(0.979016 -0.0144278 0)
(1.11557 -0.154192 0)
(1.0602 -0.00768825 2.64674e-23)
(1.03596 0.00657522 5.56008e-21)
(0.29463 0.385334 6.20508e-20)
(1.06094 -0.000578166 -3.39368e-22)
(0.74192 0.218765 2.60431e-21)
(1.00779 0.0197962 6.07302e-21)
(0.320337 0.454696 -4.26214e-20)
(1.01679 0.00554338 0)
(1.0338 0.017412 0)
(1.02572 0.00438674 -4.66379e-21)
(1.26591 -0.838802 8.55657e-20)
(1.05322 0.0094049 -2.85764e-21)
(1.05434 0.00110838 0)
(1.02183 -0.00104077 0)
(1.01764 0.00464101 -1.4638e-20)
(1.31404 -0.339635 0)
(-0.213382 0.887377 -3.49038e-20)
(1.02471 0.00439716 5.55356e-21)
(1.02838 0.00586009 1.14018e-20)
(1.03788 0.0159127 4.98959e-21)
(1.41438 0.0267861 3.87303e-20)
(1.0602 0.0100681 0)
(0.957636 -0.025618 5.50746e-21)
(1.02681 0.000537608 -6.16937e-21)
(1.01605 0.00304602 0)
(1.34748 -0.35102 6.40002e-20)
(1.0398 0.000356071 0)
(0.73723 -0.175211 3.70692e-21)
(1.05556 0.00432536 -1.54197e-21)
(0.710675 0.0896174 0)
(1.0462 0.00493415 1.82759e-21)
(1.0611 0.00371653 4.02524e-22)
(1.03443 0.00388039 6.49555e-21)
(0.829979 0.218699 -3.04414e-20)
(1.04781 -0.000641001 1.96781e-23)
(0.970679 -0.131923 -4.60199e-21)
(1.01645 0.00305376 6.00104e-21)
(0.717338 0.0603741 -2.60182e-21)
(1.0185 0.00779806 -4.61682e-21)
(-0.131538 0.958586 -9.44063e-20)
(1.05238 0.00791241 2.84273e-21)
(1.02538 0.00454076 4.78392e-21)
(1.25691 -0.232616 -3.32827e-20)
(1.02073 0.0130142 -1.94048e-20)
(1.03604 0.00645137 0)
(1.04256 0.000760245 0)
(1.41297 -0.256057 -1.84898e-20)
(0.827371 -0.0608058 -7.41019e-21)
(1.03263 0.00325338 -3.52527e-21)
(1.03542 0.0186883 -2.34535e-21)
(0.852232 -0.292706 0)
(1.02088 0.0093767 0)
(1.0332 0.131617 0)
(1.04044 -0.0516194 2.20446e-21)
(0.872673 -0.257384 -1.10993e-20)
(-0.402518 0.818835 3.68896e-19)
(0.811356 -0.513667 -2.89516e-20)
(0.318491 -0.74943 -1.92311e-21)
(1.01716 0.00512504 -9.88519e-21)
(0.817397 -0.14902 9.6479e-22)
(0.653147 -0.198065 3.10234e-20)
(1.02107 0.000438536 0)
(0.853648 0.175214 -1.92206e-21)
(0.942026 -0.399786 0)
(1.04054 0.0693852 6.96295e-21)
(0.565887 0.156237 0)
(1.02059 0.000438072 0)
(0.817014 0.709405 0)
(1.01677 0.00543646 0)
(1.02789 -0.502545 0)
(0.885856 0.216826 0)
(1.02458 0.00792246 -1.17669e-20)
(1.39621 -0.185214 4.2438e-20)
(1.04173 0.000564884 -9.34928e-22)
(1.0425 0.052392 0)
(1.05089 0.00699657 -6.35476e-22)
(1.00537 0.0218733 0)
(0.836579 0.63892 2.07465e-20)
(1.0557 0.00436647 -3.3204e-21)
(1.39131 -0.132796 -2.23275e-20)
(0.759323 0.234335 0)
(0.745745 0.0530502 0)
(1.01922 0.00703239 0)
(0.695929 0.780604 0)
(1.05926 -0.0879455 -9.57267e-22)
(1.01683 0.00649371 0)
(0.880598 -0.211455 -1.22992e-20)
(1.02057 0.00666963 -5.31339e-21)
(1.03053 0.000546711 0)
(0.766053 0.246608 -1.41179e-20)
(1.05332 -0.000656091 -3.39643e-22)
(1.09115 0.0442868 -1.14855e-20)
(0.766484 0.0580165 -1.68301e-20)
(1.03372 0.00295308 -6.32969e-21)
(1.01547 0.0340916 -5.10426e-21)
(1.10945 0.0739227 0)
(1.02905 0.00114033 0)
(1.04552 0.0060799 -1.63805e-23)
(1.24246 0.312588 -2.39848e-21)
(1.03564 -0.050248 -2.06211e-21)
(1.02828 0.00482194 0)
(1.03543 0.00561569 0)
(1.31363 0.082189 3.22848e-21)
(0.743593 -0.435191 1.13782e-20)
(0.829888 -0.0533504 -1.25848e-20)
(1.10152 -0.330467 -1.39128e-21)
(0.821187 0.666459 0)
(0.737052 -0.18009 0)
(1.0226 0.00721014 0)
(1.27101 0.383333 -2.037e-20)
(0.776404 -0.162924 8.45281e-21)
(1.01841 0.00602021 0)
(1.20378 -0.0985098 4.16213e-20)
(1.03557 0.00571811 -6.98067e-21)
(1.03362 -0.10443 3.25507e-21)
(1.01928 0.00712296 0)
(1.03431 0.000467045 1.10112e-20)
(1.02518 0.00562098 -5.95928e-21)
(1.03638 0.00661391 0)
(1.01674 0.00453673 -3.42354e-21)
(0.882129 -0.433544 -3.48462e-20)
(0.315301 -0.989082 9.405e-20)
(0.765246 -0.416173 1.39217e-21)
(0.956438 -0.00752471 1.44973e-20)
(1.06091 0.00913624 -1.02433e-21)
(0.771489 -0.497757 -2.50172e-21)
(1.05482 0.00107573 -2.36544e-21)
(0.625034 -0.201329 -1.98931e-20)
(1.02615 -0.0900488 -4.08674e-22)
(0.812224 0.189494 0)
(1.0235 -0.0132965 -9.93823e-21)
(0.795243 -0.494501 -1.09879e-20)
(1.04534 0.0091421 1.04392e-21)
(0.790573 0.69164 -2.24009e-20)
(1.01513 0.0403401 -2.46926e-21)
(0.671565 -0.219377 -2.04443e-20)
(1.02054 0.00485591 0)
(1.50731 -0.321837 2.86776e-20)
(0.813153 0.711289 3.07392e-20)
(0.949419 -0.015603 -1.18938e-20)
(1.35506 -0.634268 0)
(1.04446 0.000693707 -5.32871e-21)
(1.14514 0.316787 0)
(1.0467 -0.000529356 0)
(0.873961 -0.0559379 0)
(0.808294 -0.304599 1.81931e-21)
(1.04774 0.00543213 2.97747e-21)
(1.06342 0.00103528 5.74514e-22)
(1.0324 0.00342401 0)
(1.05414 -0.000544388 -1.79774e-21)
(0.858015 -0.275881 0)
(0.895422 -0.698807 6.60029e-20)
(1.02346 0.00405281 -6.02602e-21)
(0.888022 0.0434174 0)
(0.734842 0.806768 2.01528e-20)
(0.579796 0.370774 5.92765e-21)
(1.03649 0.00648638 0)
(0.72119 -0.0673098 -3.62621e-22)
(1.04814 0.0058427 7.14795e-22)
(1.02335 0.00388384 4.75425e-21)
(0.803545 0.0398665 0)
(0.738846 0.161528 5.68919e-21)
(1.04039 -0.0864815 0)
(0.874827 -0.124988 -8.10366e-21)
(1.0098 -0.013604 -3.43627e-21)
(0.818204 0.0267482 4.5485e-21)
(1.04318 0.000365671 3.14523e-21)
(1.03054 0.00297411 0)
(0.927242 -0.106235 0)
(1.33437 -0.218073 -1.25545e-20)
(1.06154 0.00410869 -6.90074e-22)
(0.923511 0.128881 -1.21693e-20)
(1.23404 -0.156571 1.25703e-20)
(1.01677 0.00434941 -1.91921e-20)
(1.03462 0.00346565 4.78546e-21)
(1.06137 -0.000456264 -5.66593e-22)
(0.664463 -0.58768 0)
(1.09704 -0.0963908 0)
(1.05408 0.00299278 1.03802e-21)
(1.03182 0.00661529 0)
(-0.689974 0.436943 -5.39786e-19)
(1.27047 0.0621719 0)
(0.873756 -0.143827 -3.38705e-21)
(1.37198 -0.320987 1.94875e-20)
(1.0237 -0.0139854 1.36075e-20)
(0.509633 0.257886 4.60483e-20)
(1.01268 0.00874733 0)
(1.05395 0.00419613 0)
(1.06073 0.00316072 0)
(1.07678 0.0549591 -6.59821e-21)
(1.1192 -0.241447 -6.08105e-20)
(1.01589 0.00291893 0)
(1.05113 0.00733453 6.37298e-22)
(1.04614 0.00490148 0)
(0.864608 0.270206 -6.62091e-21)
(1.02915 0.00313888 4.43776e-21)
(0.54755 0.329305 -5.89149e-21)
(0.319182 0.422924 0)
(1.02242 0.00694303 1.02168e-21)
(0.882728 -0.0387374 2.85774e-20)
(0.854832 0.710691 -3.16337e-21)
(1.02567 0.00901214 1.02714e-20)
(1.05513 0.00153506 -3.3185e-21)
(1.05438 0.00118451 0)
(1.06127 -0.000788526 1.41292e-22)
(0.937152 0.219499 0)
(1.0464 -2.80382e-06 3.8218e-21)
(1.0401 0.430306 0)
(1.00001 -0.0627375 -8.90226e-21)
(1.0184 -0.0806815 0)
(1.05308 -0.000708978 0)
(1.01842 0.00592356 -1.3132e-20)
(1.02561 -0.00969193 7.27251e-21)
(1.05229 -0.000538929 1.43941e-21)
(1.03948 0.0191793 -2.38319e-21)
(0.699924 0.309266 -3.31565e-20)
(0.876746 -0.465751 0)
(0.6104 -0.546037 -2.73501e-20)
(0.70418 0.689921 0)
(0.808642 0.134398 4.10827e-21)
(1.03622 0.00101263 -1.02901e-20)
(1.01788 0.00536438 -8.18358e-21)
(0.723971 0.956252 0)
(1.08378 -0.0918947 6.7781e-21)
(1.19015 0.220277 1.45737e-20)
(0.980909 0.0332218 2.50826e-21)
(1.11241 -0.230206 2.89967e-20)
(0.715071 0.12316 3.35186e-21)
(0.846423 0.199761 -1.26888e-20)
(0.769584 -0.079622 4.7134e-21)
(0.906637 0.0283296 0)
(1.05423 0.00282951 -3.06794e-21)
(1.04975 0.000505878 4.80326e-21)
(0.983264 -0.0174748 0)
(1.02884 0.00427265 9.46038e-21)
(1.35503 -0.625042 -9.60888e-20)
(0.656781 0.108412 6.68368e-21)
(1.06067 0.00584049 0)
(1.01831 0.00755446 -4.97746e-21)
(1.03736 -0.0794188 -7.19074e-22)
(1.03599 0.134458 2.7388e-21)
(0.678586 -0.0531248 -6.34075e-20)
(1.03697 0.0783723 -5.44592e-22)
(0.319389 -1.00109 1.52166e-19)
(1.02242 0.000693847 2.50015e-21)
(1.0917 -0.617695 0)
(1.02226 0.00363316 -9.82004e-21)
(1.02025 0.00678468 0)
(1.02977 -0.0238463 7.0017e-21)
(1.06305 0.00117259 -5.44894e-22)
(1.04078 0.00550502 -7.06674e-21)
(0.901921 0.2647 -2.56189e-21)
(1.029 0.00533866 0)
(1.20016 -0.0335892 2.25454e-20)
(0.949994 0.0543862 0)
(1.02252 0.000832078 -4.25337e-21)
(1.02154 0.0135875 1.00532e-20)
(1.05405 0.00626853 -1.8306e-23)
(0.966601 -0.03148 -1.28063e-20)
(0.675726 -0.535425 2.63052e-21)
(0.932796 0.0178241 3.58444e-21)
(0.814233 -0.490831 2.97954e-20)
(1.01718 0.000287848 0)
(1.19999 -0.100309 -1.8053e-22)
(0.7585 -0.0564723 1.40301e-20)
(1.26917 -0.196643 0)
(1.04218 0.0105827 0)
(1.02325 -0.000532852 0)
(1.06026 -0.000652671 0)
(1.34868 0.1351 7.92391e-21)
(1.0117 -0.00280673 8.22765e-23)
(1.04388 0.000283401 3.37878e-21)
(1.05601 0.00488222 -1.39364e-21)
(1.06061 0.00556682 -5.76548e-22)
(1.06134 -0.000820028 -1.22065e-22)
(0.783596 -0.103312 -3.78102e-20)
(1.10909 0.050677 0)
(0.936381 0.0289561 -3.54251e-21)
(0.919906 0.111213 -1.13177e-20)
(1.03343 0.00348174 0)
(0.994664 -0.052768 8.88165e-21)
(1.04472 0.0602986 0)
(0.840853 0.262186 1.06839e-20)
(1.04554 0.00506556 0)
(1.05591 0.00487956 0)
(1.02482 0.00505198 -5.6855e-21)
(1.05599 0.00342093 -1.42683e-24)
(1.03735 0.000872793 -5.83605e-21)
(1.35991 -0.723115 0)
(0.982359 0.039691 -5.14184e-21)
(0.94651 0.347386 1.2035e-21)
(1.05701 0.00504363 5.03177e-22)
(1.0047 0.056998 1.53707e-20)
(1.03325 0.00362501 -6.7469e-21)
(1.03372 0.000723995 0)
(1.04837 0.0529257 -4.14763e-21)
(1.06119 -0.000487302 1.98649e-22)
(1.05595 0.00329424 1.95707e-21)
(1.19375 -0.0417203 -3.00513e-20)
(1.19603 -0.0815489 -1.86306e-19)
(0.703118 0.188594 1.13093e-22)
(-0.480287 0.99563 3.84378e-19)
(1.03809 -0.0757861 7.40294e-22)
(1.0171 0.00503739 3.73947e-21)
(1.0455 0.00484335 -5.35579e-21)
(0.659132 0.659629 -3.42793e-20)
(1.06161 -0.00071557 0)
(0.773352 0.458797 0)
(0.66221 0.0847853 8.45971e-21)
(1.00549 -0.964715 -1.31848e-19)
(1.05419 0.00261531 0)
(0.752668 0.792396 0)
(0.427846 0.76322 0)
(1.01861 0.00796806 -1.35553e-20)
(1.02126 0.0467815 -1.09458e-20)
(1.33379 0.18055 -3.13475e-21)
(0.0817305 0.921539 -3.37618e-20)
(1.02053 0.000151451 0)
(1.0394 -0.0971072 -2.19972e-21)
(1.01856 0.00104246 1.43511e-20)
(0.729978 -0.596484 -4.10982e-20)
(0.420147 0.783659 0)
(1.06085 0.00641471 -3.47406e-22)
(0.797617 -0.58889 4.73387e-20)
(1.02473 -0.00900129 -3.38736e-21)
(1.04162 0.000671244 -5.62554e-21)
(1.04181 0.00675123 -7.16485e-21)
(1.03059 0.000987619 0)
(1.03258 0.00618573 -2.31882e-21)
(1.06102 -0.000506562 4.14148e-22)
(0.818451 0.288499 4.04095e-21)
(0.808013 0.228023 0)
(1.05916 0.00270572 5.208e-22)
(1.02272 0.00393107 -1.1531e-20)
(1.02478 0.00506056 -2.876e-21)
(1.00138 0.0189825 -7.49773e-21)
(1.03488 0.00363984 6.56928e-21)
(-0.728005 0.535498 7.35175e-20)
(0.612961 -0.54496 0)
(1.22532 -0.138655 -1.60056e-20)
(1.06138 -0.000428101 -2.12168e-22)
(1.06253 -0.000236279 2.3919e-22)
(1.06073 -0.000941005 8.8526e-23)
(-0.571204 0.829106 6.9322e-20)
(0.639446 -0.513236 0)
(1.4316 -0.164149 -1.59782e-19)
(1.39973 0.306199 8.11998e-21)
(1.05592 0.0044442 1.85722e-21)
(0.82663 -0.445237 1.11698e-20)
(0.931995 -0.404159 4.01518e-20)
(0.902559 -0.663913 -6.88861e-20)
(1.06158 -0.000299128 0)
(1.05642 0.00483638 0)
(0.698133 -0.204033 -1.44728e-21)
(0.992308 0.0245311 7.6489e-21)
(0.8584 0.562911 -1.81136e-19)
(1.02935 0.00578402 9.12763e-21)
(1.04791 -3.40464e-05 -4.39754e-21)
(1.05196 0.000482271 0)
(1.02314 -0.130143 -2.08645e-21)
(1.06887 -0.0938769 3.15143e-21)
(1.06108 0.00339293 0)
(1.04622 0.0141133 2.89748e-21)
(1.0218 0.0281586 -7.24569e-22)
(1.03719 0.000598501 2.74289e-21)
(0.813693 0.0584894 0)
(0.787016 -0.255787 0)
(0.742614 -0.108719 0)
(1.20798 -0.0749128 3.95165e-20)
(0.711189 0.0300209 5.90712e-21)
(1.01697 0.00538787 0)
(1.2015 -0.00621575 3.99874e-20)
(0.932293 -0.0463651 1.45744e-20)
(1.05373 -0.000369927 -1.02997e-21)
(1.03332 0.000541885 -5.52487e-21)
(0.737082 0.276926 0)
(0.77896 0.0975328 5.83977e-21)
(0.949349 0.554464 2.67199e-19)
(0.708712 -0.715404 0)
(1.03644 0.0205533 0)
(1.0565 0.00478274 1.38044e-21)
(1.09292 0.0636599 0)
(1.01117 -0.00342654 4.66915e-21)
(0.749571 0.809054 2.09176e-20)
(0.864534 0.232296 0)
(1.0545 0.000972143 -3.40334e-21)
(1.05291 -0.000641443 5.51142e-22)
(0.808405 -0.470535 9.59004e-21)
(1.02017 0.00988495 -4.70069e-21)
(0.901722 0.16282 -1.12803e-20)
(1.03253 0.00503098 2.06203e-21)
(0.95022 -0.714124 -1.0326e-20)