/*--------------------------------*- C++ -*----------------------------------*\
| =========                 |                                                 |
| \\      /  F ield         | OpenFOAM: The Open Source CFD Toolbox           |
|  \\    /   O peration     | Version:  v2012                                 |
|   \\  /    A nd           | Website:  www.openfoam.com                      |
|    \\/     M anipulation  |                                                 |
\*---------------------------------------------------------------------------*/
FoamFile
{
    version     2.0;
    format      ascii;
    class       volVectorField;
    location    "200";
    object      ddtCorrDdt0(U);
}
// * * * * * * * * * * * * * * * * * * * * * * * * * * * * * * * * * * * * * //

dimensions      [0 1 -2 0 0 0 0];


internalField   nonuniform List<vector> 
18232
(
(-0.118302 -0.0280407 2.11027e-20)
(0.00555863 0.000998674 6.92627e-21)
(-0.000571959 8.17561e-05 -6.21647e-20)
(-0.00139092 -0.00148864 -5.45448e-21)
(-0.0124911 -0.0117277 0)
(-0.0182209 0.0465306 -5.92373e-21)
(-0.000995492 -0.00162095 2.11126e-20)
(-0.000267993 -0.000903248 0)
(-0.0132918 0.0120424 0)
(-0.000268362 0.012297 -1.69459e-20)
(-0.00114998 -0.00116308 4.5394e-20)
(-0.00587949 0.0328468 2.70319e-21)
(-0.0117743 -0.000616213 -2.93226e-20)
(-0.037877 0.0148665 1.14501e-18)
(-0.00237424 -0.0123442 0)
(-0.0822836 0.0235642 -6.63085e-21)
(-0.000317451 -3.8435e-06 0)
(-8.12969e-05 -0.000450923 -2.02385e-20)
(-0.000995458 -0.000907509 4.12368e-23)
(-0.0123945 -0.00318267 -2.40706e-20)
(-0.0157474 0.0580786 -4.24532e-21)
(-0.00198393 -0.000996809 1.27758e-20)
(-0.00167288 -0.00310138 -1.1507e-19)
(-0.00290401 0.00199813 0)
(0.00112953 -0.00258249 3.0778e-20)
(-0.000216487 -0.00478226 -3.18906e-20)
(-0.00110515 -0.000242196 0)
(-0.016657 0.0496862 -1.58513e-20)
(-8.19295e-05 -0.000427951 -1.30395e-20)
(-0.000586165 -2.90895e-05 4.0703e-20)
(-2.76363e-05 -0.000230732 3.17578e-20)
(-0.108143 -0.266969 0)
(2.21107e-06 -0.00118759 0)
(-0.00958888 -0.429519 5.84198e-20)
(-0.0272471 -0.00025499 3.35892e-20)
(0.000360839 -0.00201185 1.56972e-20)
(-0.00926292 -0.000762357 0)
(-0.000235763 -0.0010886 -7.72561e-21)
(-0.0170491 0.00180675 0)
(-1.19733e-05 -0.00059503 -2.59877e-20)
(-0.214335 -0.0663334 -2.97637e-20)
(0.00346489 0.0282179 -1.47604e-20)
(-0.00503287 -0.00840157 0)
(0.00466582 -0.00204869 -1.45808e-20)
(-0.000261653 9.28157e-05 0)
(-0.0213835 -0.0203247 -2.19012e-20)
(0.0023653 -0.000957063 1.87164e-20)
(0.00217104 0.0301757 2.75087e-20)
(-0.0189265 0.000960773 6.12411e-20)
(0.00118408 0.00031169 2.40824e-21)
(-0.000240129 0.00014146 1.1757e-20)
(-0.000117255 -0.00010038 0)
(-0.144078 -0.0305844 5.51988e-20)
(-0.00866471 0.0165725 0)
(-0.0128168 0.000908278 -1.46112e-20)
(-0.0222616 0.00128091 -2.98356e-22)
(-0.000402246 -1.18322e-05 3.75154e-20)
(0.000186311 -0.000276292 -3.11944e-20)
(0.0127163 -0.000394641 2.89089e-20)
(0.00209548 0.00163152 -7.95573e-21)
(-0.0023893 -0.00830327 0)
(-0.00025422 0.00012207 -1.80102e-20)
(-0.0043991 0.00317453 -4.12917e-20)
(-0.00131773 -0.00216839 5.10512e-21)
(-0.028543 0.0385841 -5.35193e-21)
(-0.00152634 0.0021968 8.55968e-21)
(-0.0102622 0.0656236 6.0943e-21)
(-0.128643 -0.297071 0)
(-0.00101751 6.26351e-05 0)
(-0.0030635 0.00418728 0)
(-0.000395722 -7.91054e-05 1.31372e-21)
(-0.00038833 -8.32556e-05 -5.81216e-20)
(-0.111068 -0.273672 -1.24745e-20)
(-0.0158768 -0.00144171 0)
(-0.0144966 0.0253242 0)
(-0.0258879 0.000450274 1.08579e-21)
(-0.00325935 -0.0034414 0)
(-0.000578297 -0.00292185 6.20563e-20)
(-0.0579165 -0.0117703 9.09596e-21)
(-0.00197253 -0.00207124 2.75994e-20)
(-0.131181 -0.304086 2.0874e-21)
(-0.0144868 0.0238195 2.51496e-20)
(-0.00529248 0.0166688 -1.60638e-20)
(-0.00254865 0.00263853 -3.09703e-20)
(-0.0479599 0.024265 3.76901e-22)
(-0.0235338 0.000161653 2.69696e-20)
(-0.000547854 5.16049e-05 -2.093e-20)
(-0.000906486 -0.000952565 0)
(-0.0212528 0.0143704 -2.64805e-20)
(-0.0163673 0.0144409 3.71491e-20)
(-0.000983599 -0.00152223 -8.34652e-21)
(-0.00085034 0.00109161 0)
(-1.45031e-05 -0.000443197 5.23882e-21)
(-0.0238648 0.00900235 0)
(-0.000859605 -0.00143446 7.78607e-21)
(-0.00597953 -0.0005249 0)
(-0.000659753 -8.6999e-05 2.63938e-20)
(-0.00200679 -0.00119104 0)
(-0.0316286 -0.060789 0)
(-0.000845669 0.00127407 0)
(-0.00613345 -0.00765056 -9.65438e-20)
(-0.00784523 0.0208875 -7.0261e-21)
(-0.016154 -0.0123323 1.18262e-20)
(-0.00196834 0.00252125 -5.41767e-20)
(-0.000171044 -0.00706875 0)
(-0.00353914 -0.00396155 0)
(-0.000677965 -4.90224e-05 2.48308e-20)
(-0.0344463 0.0331947 2.67611e-20)
(-0.000118772 -1.78147e-05 -4.47893e-20)
(-0.00470618 0.00340547 2.97399e-20)
(-0.00116759 0.0048927 -6.17139e-20)
(-0.0309197 -0.00175552 0)
(0.00107393 0.000866624 0)
(-0.000859612 -0.00184147 1.04308e-20)
(-0.000287972 0.000231522 1.27829e-20)
(-0.00617554 0.0043755 0)
(-0.0234643 0.0236429 0)
(-0.0206288 -0.0211988 2.10355e-20)
(-0.01424 0.00809504 0)
(-0.00519373 0.00513904 4.5011e-20)
(-0.000412036 0.000192627 1.85057e-20)
(-0.000262756 -0.00108297 -9.2473e-21)
(0.0832653 -0.155506 -2.83052e-21)
(0.000309039 0.0174807 -4.94574e-20)
(-0.0811021 -0.00546852 1.4326e-21)
(-0.00595377 -0.0064668 0)
(-0.0364766 0.0987566 -1.50464e-20)
(2.26983e-05 0.000310715 -3.66278e-20)
(0.00609668 0.0239219 -3.53693e-21)
(-0.0265988 0.00340884 0)
(-0.000602349 0.000607879 0)
(-0.00205446 -0.0012941 -5.3268e-20)
(-0.0141625 0.00652221 0)
(0.000334911 0.000287155 0)
(-0.134664 -0.0346234 0)
(-0.0276527 0.00106521 -9.40772e-23)
(-0.0178039 -0.00233007 -3.33308e-20)
(1.61991e-05 -0.000873043 -3.65758e-20)
(0.00198265 0.00128443 -2.39985e-20)
(-0.0253088 -0.000270652 0)
(-0.0129056 0.00217491 3.95449e-20)
(-0.00418879 -0.00548264 0)
(-0.0451917 -0.357399 1.85842e-19)
(-0.000554875 -2.14452e-05 -2.73543e-20)
(-0.00804592 0.0022448 -4.74348e-20)
(-0.00750764 0.00136931 0)
(-0.00391357 -0.00203362 -3.16491e-21)
(4.82965e-05 -7.65043e-05 3.8604e-20)
(-0.0149957 -0.0123323 0)
(-0.00610859 -0.000117728 2.88545e-20)
(0.0162599 -0.0165614 0)
(-0.00145171 0.0212863 1.8975e-20)
(-0.0205353 0.0120451 0)
(-0.00314514 -0.00149181 3.072e-20)
(-0.0152632 0.00970403 -3.48155e-20)
(-0.221671 -0.0775878 1.09379e-19)
(-0.0452704 0.0389401 0)
(-0.0269747 0.0334195 2.78377e-21)
(-0.00552002 -0.0156632 8.47307e-20)
(0.00197978 0.0013113 2.44828e-20)
(0.00498189 0.00105363 -7.79013e-21)
(0.00046337 8.3374e-05 0)
(-0.000984802 9.91696e-05 0)
(-0.00688861 0.0578181 0)
(-0.0218831 0.0340038 0)
(-0.000146997 -0.00100006 3.88057e-20)
(0.0020519 0.0643033 0)
(-0.0498596 -0.362268 -1.00019e-19)
(0.00172735 -0.00586884 4.65878e-20)
(0.00832985 -0.0203709 2.78825e-20)
(-0.000808058 0.00135492 -3.04363e-20)
(-0.000264484 -0.000852639 3.12186e-20)
(-0.00067871 0.000274527 1.98422e-20)
(-0.00208831 -0.00166705 1.15978e-20)
(-0.00174574 -0.0027304 2.58936e-20)
(-0.0280244 -0.00772037 -1.67821e-20)
(-0.00272839 0.00205062 8.26276e-21)
(1.67509e-05 -0.000184807 1.22582e-20)
(-0.0163891 -0.00671386 -3.13603e-20)
(-0.000198586 9.72966e-05 6.80918e-20)
(-0.00968538 -0.000314692 0)
(-0.0196698 0.000714189 2.58449e-20)
(-0.000348449 -0.000341159 7.79189e-20)
(-0.0286729 0.00862008 -4.42549e-21)
(-0.219939 -0.0518466 1.07792e-20)
(1.25494e-05 -0.000159547 0)
(-0.00186262 0.00380496 0)
(-0.0117297 -0.0127032 -1.62688e-19)
(1.52204e-05 -0.000743283 0)
(-0.0750253 -0.015238 -9.97758e-21)
(0.000812889 -0.00175686 7.60081e-20)
(-0.000902911 -0.000840595 0)
(-0.00327425 0.00592146 2.33819e-20)
(-0.0138665 -0.0127347 0)
(-0.000552071 -3.99353e-05 -1.46364e-20)
(-0.00183976 -0.000532133 0)
(0.00103727 0.000722462 0)
(-0.000943864 -0.00232472 -2.11205e-20)
(-0.000263144 3.37506e-05 6.48563e-20)
(-0.000260992 0.000862239 0)
(-2.52567e-06 -0.000194913 -2.93348e-20)
(-0.00680959 0.00271955 4.23871e-20)
(-0.0109335 -0.0225066 7.59132e-20)
(-0.0135134 -0.0858061 1.18071e-19)
(-0.0323855 0.0190985 -1.06623e-20)
(0.00135687 -0.0251111 0)
(-0.0251842 0.0488577 1.27864e-21)
(-0.195619 -0.235089 0)
(-0.0145799 0.00861938 4.43825e-20)
(-0.0113796 0.00754269 -1.31742e-20)
(-0.000923464 0.000169434 3.1623e-20)
(-0.00303514 -0.00335775 1.69943e-20)
(-0.00369509 -0.00954017 7.87289e-20)
(-0.0513367 -0.0537324 -7.77039e-20)
(-0.0899288 0.0480691 1.88461e-20)
(-0.00721907 0.00477772 -4.1532e-20)
(-0.0215893 0.0148944 0)
(-0.000911214 3.56309e-05 -8.92261e-21)
(-0.000691284 -0.000165415 -6.53544e-20)
(-0.0020743 -0.00135865 -2.43084e-20)
(-0.00896376 -0.00701741 0)
(0.00199982 0.000997144 8.08295e-21)
(0.0031156 -0.0179525 -5.58866e-20)
(-0.00497339 0.00243849 -5.21305e-20)
(-0.000265875 3.63788e-05 -4.51544e-20)
(-0.00109186 0.000836637 -4.24796e-20)
(-0.00933088 0.00969768 -4.59888e-20)
(-0.00266396 0.00137445 0)
(-0.000314118 6.66174e-05 -2.47989e-20)
(1.81418e-05 -0.0014538 3.28942e-20)
(-0.000306111 -0.00130217 3.27766e-20)
(-0.000743346 -0.000679591 -4.28081e-20)
(0.0101115 -0.26982 3.1135e-21)
(-0.0522906 0.0216013 0)
(-7.73703e-05 -0.00107308 -1.47037e-20)
(-0.0213827 -0.0120549 0)
(-0.000523825 -0.00415796 1.03416e-20)
(-0.0519272 0.0566092 0)
(0.00131814 0.000471556 0)
(-0.000174022 -9.93782e-05 2.10185e-20)
(-0.000381084 -0.00134118 -3.19246e-22)
(-0.0401747 0.00390296 -2.48851e-20)
(-0.0404022 0.0685117 4.01776e-21)
(-0.00177425 -0.00743129 0)
(0.0060594 -0.000879054 -1.54616e-20)
(0.00687434 0.0025897 -2.68788e-20)
(-1.45423e-05 -3.47372e-05 -2.54875e-20)
(0.0168755 -0.000600319 2.11732e-20)
(-0.0373877 0.00742855 9.30039e-21)
(-0.0043091 -0.0026786 2.76875e-20)
(-0.0270379 0.0112514 9.74745e-22)
(-0.0266243 0.0037863 -1.28213e-20)
(-0.000370945 0.00194164 -2.27489e-23)
(-0.0106136 -0.00944845 -3.4258e-20)
(-0.00197253 -0.000685836 3.67262e-20)
(-0.0120601 -0.0235159 1.68733e-19)
(-0.00253798 -0.00926556 4.72659e-22)
(0.0204509 0.0447318 4.90843e-20)
(-0.0213486 -0.0808332 4.42773e-24)
(-0.0101899 -0.00243426 -1.00401e-19)
(-0.00402072 0.00141159 5.98781e-20)
(-0.00924879 0.0118344 0)
(-0.0106753 0.0108746 0)
(-2.9434e-05 -0.000223666 0)
(0.000118992 0.00163648 -3.40772e-20)
(-4.52582e-05 -0.000123815 0)
(-0.0186164 -0.00599467 -1.45936e-20)
(0.000480063 -0.014994 -8.46965e-20)
(-0.0257621 0.00585746 -2.22291e-20)
(-0.0138237 -0.0126754 0)
(-0.00223821 -0.00104461 -3.10989e-20)
(-0.0212476 -0.419106 -9.50261e-21)
(0.0050016 0.0145178 1.86809e-20)
(-0.000216235 -7.79342e-05 -4.25463e-22)
(-0.000355817 0.00174021 0)
(-0.0778237 -0.0146835 -5.37062e-21)
(-0.00800011 0.0250128 0)
(-0.000673911 -0.00296507 3.23682e-20)
(-0.000161434 -0.0001085 -2.67886e-20)
(-0.0942411 -0.00728143 0)
(-0.0282252 -0.00976861 0)
(-0.00568607 0.00646061 -2.7879e-20)
(0.00262278 0.00297916 -2.82229e-20)
(-0.0532458 -0.00898896 -1.74527e-20)
(-0.0174445 -0.00460589 -3.56522e-20)
(-0.000252974 -0.00522917 -2.55978e-20)
(-0.00921756 0.0029085 1.44837e-20)
(-0.00773206 -0.0118098 -3.11408e-21)
(-0.0049552 -6.32527e-05 3.41273e-20)
(-0.0171616 0.0265356 -1.98369e-20)
(-0.000962191 -0.000855258 -5.34057e-23)
(-0.0127197 0.0212276 -4.74145e-21)
(-0.0697753 -0.0162447 1.99954e-20)
(-0.00707383 0.0334631 -8.33332e-21)
(-0.000353352 0.0249247 -1.55454e-20)
(-0.0117787 -0.00162342 7.12027e-21)
(-0.0533509 -0.00925197 2.13528e-20)
(0.00259751 0.0013467 0)
(-0.000245201 -9.88832e-05 -4.53552e-20)
(-0.0073954 0.00190326 -1.8021e-21)
(-0.000442698 0.0085218 1.35201e-21)
(-0.000128386 -4.75694e-05 0)
(-0.00726016 0.00484054 1.46933e-20)
(-0.0270394 0.00562096 0)
(-0.000107817 -5.97711e-05 -2.42007e-20)
(0.000164534 -0.000141847 -1.34003e-20)
(0.000180656 0.0591718 -2.28519e-21)
(-0.00546137 0.0154762 -1.24422e-20)
(-0.000343245 1.28462e-05 0)
(-0.0118549 -0.0160293 3.44093e-22)
(-0.00242509 0.0133776 -4.06464e-20)
(-0.000491061 0.000329165 0)
(-0.0323393 0.0329056 2.02535e-20)
(-0.00301843 -0.00222857 -4.69673e-20)
(0.0028835 0.00229911 2.64745e-22)
(-0.0076844 0.000305727 2.91643e-20)
(-0.0546249 -0.0133277 0)
(0.000357998 0.000627375 -7.3386e-20)
(-0.0234413 -0.00727727 -2.49581e-20)
(-0.000294637 5.98111e-05 -4.71999e-21)
(-0.0273526 -0.000419658 -9.00187e-21)
(-0.00675009 0.00516058 -1.95689e-21)
(-0.0279213 0.0689828 3.18053e-21)
(-0.0066868 -0.0299861 8.85523e-20)
(-0.000670581 -0.00442927 0)
(-0.000682791 0.00298125 4.17024e-21)
(-0.0147582 0.0675143 -4.16571e-21)
(-0.00618659 0.00742121 5.34879e-20)
(0.006419 0.0195092 0)
(-0.0066 0.00755201 -3.12403e-20)
(-0.00703595 0.0135741 0)
(-0.000826162 -0.00114114 0)
(-0.0276612 0.0118336 0)
(-0.558355 0.170593 2.45263e-19)
(-0.0116482 -0.00289541 0)
(-0.0966766 -0.0378842 0)
(-0.0096842 0.000843157 -1.37006e-20)
(-0.0394568 -0.0533072 0)
(-0.000699375 0.00031206 -1.43433e-20)
(-0.0111829 0.00694882 -4.46022e-21)
(9.43675e-06 -0.00152596 8.52899e-21)
(-0.0302973 0.084466 -1.59319e-21)
(-7.70016e-06 -6.234e-05 5.49518e-20)
(-1.0996e-05 -2.89843e-05 0)
(0.000237706 0.000513406 7.72731e-20)
(-0.0322334 0.00758506 -4.17727e-21)
(-0.123589 0.00231215 0)
(-0.00874003 0.00383349 -1.05544e-20)
(-0.00440615 0.0642808 4.20033e-21)
(0.00059366 -0.00477334 5.18915e-20)
(-0.0495925 0.0195144 4.42514e-20)
(0.00283397 0.0068535 3.81502e-20)
(-0.00188078 -0.00197868 -2.36977e-19)
(-6.49635e-06 0.00172209 -7.16993e-20)
(-0.0134481 0.0155948 0)
(-0.00888599 0.00195973 7.49733e-22)
(-0.02463 0.00967499 0)
(-0.128302 0.000867849 0)
(-0.000360884 -0.000878728 -1.47541e-20)
(-0.000479066 0.000250773 0)
(-0.0815388 0.212479 0)
(-0.0102774 -0.000143145 0)
(0.0143364 0.00145201 -2.89006e-20)
(0.000375978 -0.00125533 -1.89596e-20)
(-0.119512 -0.0274916 0)
(-0.00114345 -0.00766319 -3.93039e-20)
(0.0121925 -0.0363961 -8.29171e-20)
(-0.13067 0.00015453 1.49145e-20)
(-0.00367734 -0.00721281 -3.92933e-20)
(-0.03213 -0.0458145 1.77686e-20)
(-0.00353624 -0.000445409 8.63103e-21)
(-0.011186 -0.00974783 0)
(0.00543623 0.00161574 0)
(0.14939 -0.5111 3.10638e-19)
(-0.000323505 0.000848719 2.83338e-20)
(-0.000786042 0.00126758 0)
(0.00160875 0.00162901 3.55656e-20)
(-0.000236825 -5.33966e-05 2.94403e-20)
(-0.0640485 0.0192037 -3.11131e-20)
(-0.117303 0.0475409 2.26801e-20)
(-0.00882342 0.0013701 0)
(-0.0100494 0.0120998 0)
(-6.72633e-05 -0.000262982 4.27132e-20)
(-0.00160806 -0.00260093 -5.03394e-20)
(-0.0568547 0.00584873 0)
(0.00499397 0.0314687 0)
(-8.58882e-05 -0.00139724 0)
(-0.00025316 -2.65218e-05 0)
(-0.000261714 -0.000621172 -3.18673e-20)
(-0.00787121 0.000605349 0)
(-0.012786 0.00279634 -8.07779e-21)
(-0.000645778 -0.0224135 7.78931e-20)
(-0.0220573 -0.0106449 -1.11239e-20)
(0.00790077 0.028904 0)
(-0.0160601 -0.000235644 1.49995e-20)
(-0.00428388 -0.00317337 0)
(-0.0314959 0.0396181 0)
(-0.000302132 -0.000163744 -5.15071e-20)
(-0.0164882 -0.0487838 -8.89809e-20)
(-0.000225002 -4.6208e-05 0)
(-0.0108575 -0.00575152 0)
(-0.0859116 0.023363 -1.35665e-20)
(-0.0154038 0.065275 -8.40928e-21)
(0.525447 -0.23251 9.64859e-20)
(-0.0124961 0.0127999 0)
(-0.000312996 -0.000958618 3.38304e-20)
(-0.0105556 0.00423362 0)
(-0.000139175 -0.000139474 2.964e-21)
(6.19507e-05 0.000120286 2.49111e-20)
(-0.00201254 -0.00943141 0)
(-0.0267567 -0.000965829 1.81574e-20)
(-0.280703 -0.632477 1.21354e-20)
(-0.00210213 0.0134175 0)
(-0.00624775 0.00574939 -6.15563e-20)
(-0.0326708 -0.0151981 -4.20152e-19)
(-0.00563841 0.00754074 -4.58209e-21)
(-0.000466401 0.000339013 3.62939e-20)
(-6.96358e-05 -0.000457403 1.33841e-20)
(-0.0214352 0.00416607 0)
(-0.000823857 -0.00252685 -5.27192e-20)
(-0.00742072 0.0028569 2.37431e-20)
(-0.0210195 0.0111696 -3.74949e-19)
(-0.00275789 0.0311934 5.57283e-20)
(-0.000372722 0.00122602 0)
(-0.0332616 0.00181908 0)
(-0.025696 0.0102152 1.73259e-20)
(-0.0121073 0.0368935 2.2812e-20)
(-0.000949641 0.0351507 2.25524e-20)
(0.0113267 -0.0317807 1.32803e-19)
(-0.0158483 -0.00182927 0)
(0.000198767 0.000587203 5.03474e-20)
(-0.0171623 0.0011449 2.1493e-20)
(-0.102221 -0.00194503 0)
(-0.000556823 -0.00240813 -6.45198e-23)
(-0.0198317 0.0178937 0)
(-0.000442754 0.00027108 -3.73104e-20)
(-0.000332473 0.000149125 5.94264e-21)
(3.89826e-05 -0.00138765 -4.37726e-20)
(0.00722271 0.00745687 2.59134e-20)
(-0.00109281 -0.00244871 0)
(-0.00687134 -0.021789 -1.23536e-19)
(-0.0260762 0.0173038 -2.00021e-20)
(-0.0102364 0.00938384 -4.1618e-20)
(-0.00579018 0.00381594 1.04672e-20)
(-0.00190719 0.00259267 -3.85675e-22)
(-0.00617096 -0.00204141 1.13129e-20)
(-0.00310097 -0.00416211 1.64182e-20)
(-0.00228251 -0.00129229 -7.58656e-21)
(-0.0160884 0.0243716 -1.23936e-20)
(0.0127539 -0.0393205 0)
(-0.0201332 -0.0216354 -1.5502e-20)
(-0.00173534 -0.0013551 0)
(8.0114e-05 0.0003039 2.23908e-20)
(-0.000463047 0.000273323 0)
(0.00329079 -0.0189708 1.17044e-20)
(-0.000879522 -0.000576007 0)
(0.0036277 -0.298116 -3.01617e-20)
(2.25647e-05 -0.000529769 -5.02255e-20)
(0.0101983 0.0106154 -5.17334e-20)
(-0.00608405 0.00186549 2.81203e-20)
(-0.000415637 0.00112191 -1.90591e-20)
(-0.0161344 0.00528803 -6.63994e-21)
(-0.00326648 -0.00291426 0)
(-0.0264692 0.0137246 -3.02068e-20)
(-0.000586795 0.0010076 0)
(0.000331607 0.00145662 -1.06837e-20)
(-0.000355989 0.000840704 -2.79122e-20)
(-0.00550328 -0.00285893 6.20995e-21)
(-0.0100861 -0.00119843 -2.92476e-21)
(-0.00720117 9.55994e-05 2.27852e-20)
(-0.000457033 0.000366418 -1.80446e-20)
(-0.0120462 -0.0219456 0)
(-0.0241733 0.00887791 3.40596e-20)
(-0.0505409 0.113375 -1.33699e-22)
(-0.000668795 0.00186373 -1.50353e-19)
(0.000606538 0.0312203 -1.9819e-21)
(0.00119268 0.00317061 -1.88589e-20)
(-0.0200465 -0.00984241 0)
(-0.104907 -0.0363352 -2.62791e-20)
(-0.00433461 -0.000410797 -6.02936e-20)
(-0.00440212 0.00120041 -7.38724e-20)
(0.00480511 0.0123553 2.09419e-20)
(-0.000465034 0.000303458 -6.62766e-20)
(0.00235357 0.0498358 1.06977e-20)
(6.47889e-06 -0.000794762 -2.80192e-21)
(-0.00126136 0.0130251 0)
(-0.00373373 0.00443993 0)
(-0.00360649 0.00464762 -5.34211e-20)
(-0.00934943 -0.0107123 1.72801e-20)
(0.00937631 0.0195574 0)
(-0.000444758 2.12252e-05 0)
(-0.00780491 -0.0112121 5.82564e-21)
(-0.00078306 -0.000609883 0)
(-0.0057387 0.0040056 5.58634e-20)
(-0.0178471 0.019471 3.77891e-20)
(-0.0251028 0.00672621 0)
(-0.000311465 0.000506997 -2.78217e-20)
(-0.00516112 -0.00368651 0)
(-0.019899 -0.00486225 0)
(-0.000316593 -2.82065e-05 0)
(-0.0011347 -0.00247432 4.05023e-20)
(-0.00212972 0.00650329 -5.71565e-20)
(0.00105918 -0.00445571 0)
(0.00991794 0.0369088 -7.01871e-21)
(-0.111485 0.000876854 -2.52268e-19)
(-0.0111081 -0.00544623 -1.47694e-20)
(-0.000473522 -0.000134299 2.54652e-20)
(-0.00243713 6.65072e-05 -4.8874e-21)
(-0.000341308 -0.000127101 -4.95758e-20)
(-0.00158362 0.00292303 0)
(-0.0185212 -0.0217635 0)
(-0.00215038 -0.00127059 5.51511e-21)
(-0.00606344 0.00513176 -6.29647e-20)
(-0.00859458 -0.000784925 0)
(1.88075e-05 0.000520604 2.32923e-20)
(-0.000594791 -7.54074e-05 0)
(-0.000544871 -0.00130469 1.2042e-20)
(-0.0137705 0.00427701 -5.2473e-21)
(-0.00288023 0.00204839 2.74082e-23)
(-0.00046066 0.00174678 0)
(-0.000516261 -0.00185553 0)
(-0.001298 0.00432961 0)
(0.00251866 -0.0148462 4.68169e-20)
(0.0110669 0.00400682 1.00297e-20)
(-0.017938 0.081746 0)
(-0.00125929 0.00187306 0)
(9.39139e-05 0.00161325 3.50839e-20)
(-0.000528121 0.000217494 2.55749e-20)
(-0.00512757 -0.000389229 0)
(-0.125358 -0.00502965 5.68513e-20)
(-0.000451616 -4.92302e-05 -2.06413e-20)
(-0.0238662 0.0779558 -3.42008e-21)
(0.000188537 0.0176103 8.33198e-21)
(-0.00615053 0.000711278 -3.74557e-20)
(-0.0397915 -0.139673 7.81335e-21)
(-0.000333856 -0.0001113 5.58733e-20)
(-0.0332347 0.00437868 -2.99564e-20)
(-0.000526859 -0.000127693 0)
(-0.0376092 0.00171874 -1.8292e-21)
(-0.0301525 0.01067 0)
(-0.00125245 -0.00188436 -9.24046e-20)
(-0.0118605 0.00218968 -2.07161e-20)
(-0.000324677 -0.000414432 5.76594e-20)
(5.81086e-05 0.000283599 -1.81189e-20)
(-0.000336187 -1.8978e-05 2.29175e-20)
(-0.0299214 -0.0235446 -1.75765e-20)
(-0.0259083 -0.0114986 -6.89047e-22)
(-0.0136891 0.00661554 4.81676e-20)
(-0.000839985 -0.000557207 4.61781e-20)
(-0.0151978 -0.00247528 1.51133e-20)
(-0.0102252 0.00253971 4.08186e-20)
(-0.00024395 0.000886463 -2.7223e-20)
(-0.0032991 0.00334806 3.85475e-21)
(-0.000442587 -1.18919e-06 0)
(-0.0528278 -0.0117997 1.87052e-20)
(-0.0997531 -0.0285406 8.11467e-21)
(-0.00038191 0.00305894 5.21752e-20)
(0.00313938 0.00635618 2.08529e-20)
(-0.000116353 -0.000823557 8.5181e-21)
(-0.0372983 -0.00471479 2.11255e-20)
(0.0190747 0.00488558 -1.29939e-20)
(-6.82852e-06 -4.45732e-05 1.38399e-20)
(0.0223378 -0.103902 0)
(-0.000148258 -0.000776756 0)
(-0.0346775 0.00918537 3.26899e-20)
(-0.000270638 2.84858e-05 -3.12299e-20)
(-0.000286715 0.000498062 -2.85626e-20)
(-0.0370998 0.000882079 9.85321e-20)
(0.00133805 -0.0239103 -1.4602e-19)
(-0.00450997 -0.00145131 7.16431e-20)
(-0.000255713 -4.14796e-05 2.94953e-20)
(-0.00128086 -0.00178865 -1.91116e-20)
(0.00842435 0.00419337 4.86417e-20)
(-0.00378339 0.00382808 2.39375e-20)
(-0.000514088 0.0018865 4.96869e-20)
(0.00132813 0.0025087 2.35746e-20)
(-0.0139879 0.0300738 8.59245e-22)
(-0.000732677 -0.00831936 3.59105e-20)
(-0.0213997 0.032119 5.35993e-21)
(-0.000863161 -0.00012276 2.95226e-20)
(-0.0753681 -0.0160094 -2.10745e-20)
(-0.000537542 -9.16896e-05 0)
(0.0116516 -0.00175751 -2.25973e-20)
(-0.0254341 0.032562 -7.48677e-21)
(-0.000189069 -1.50025e-05 0)
(-0.0139304 0.00331498 5.47746e-21)
(-0.000554174 -2.84746e-05 0)
(0.00121837 0.0330166 -3.89023e-20)
(-0.141712 0.0835048 1.05608e-20)
(0.0064623 0.0572149 0)
(-0.000194788 0.000845962 -2.63666e-20)
(-0.000385288 -4.16531e-05 3.89721e-20)
(-0.00544869 -0.0112897 4.09705e-21)
(-0.000587304 6.46691e-05 2.20523e-20)
(0.139569 -0.0317893 1.42886e-18)
(-0.00226586 -0.000271581 8.35784e-21)
(0.00667906 0.0062912 -3.46467e-20)
(-0.0139755 -0.301982 9.01005e-21)
(-0.0104098 -0.010877 0)
(-0.00619401 -0.00450448 1.55393e-20)
(-0.0025973 -0.00075259 0)
(-0.000260388 0.000330373 -1.71166e-20)
(-0.115551 -0.401688 8.51982e-20)
(-0.0237446 0.0113755 0)
(0.000468382 -0.000114018 0)
(-0.0110009 -0.0115336 0)
(-0.000408964 -6.39441e-05 0)
(-0.0551508 -0.0112242 1.33264e-22)
(-0.00034722 -8.51088e-05 -3.94584e-21)
(-0.00175386 -0.00212681 0)
(0.00116735 0.000836811 0)
(-0.000881743 0.00290749 2.03136e-22)
(-0.0132191 0.00431811 -5.51329e-20)
(0.00907868 -0.0190626 1.1589e-19)
(-0.00355937 0.000511845 -9.49912e-21)
(-0.000351011 0.000114797 1.64972e-20)
(-0.000943311 -0.00110816 0)
(-0.0397245 -0.00838548 -1.5489e-20)
(-0.000339236 0.000113137 -1.6611e-20)
(-0.000287792 -0.000631298 -6.92138e-20)
(-0.00140802 -0.000273651 1.18734e-20)
(-9.5402e-05 -0.000571175 -1.79285e-20)
(0.00435296 -0.192404 -2.83496e-19)
(0.00635421 0.00612172 1.0108e-20)
(-0.0132984 0.00699436 0)
(-0.0105628 -0.00797342 5.76966e-20)
(-0.0126437 -0.0148743 0)
(-0.13674 -0.128121 0)
(-0.00418605 -1.84448e-05 -2.42661e-20)
(-0.00204237 0.00211996 -1.32604e-20)
(-0.000476008 2.7863e-05 0)
(-0.00129906 -0.000670601 -4.38533e-20)
(0.000198238 -0.00106153 3.53565e-20)
(-0.000205294 -4.23539e-05 -7.35821e-21)
(-0.0128634 0.00349119 7.90008e-21)
(-0.0651697 -0.0183298 1.22134e-20)
(-0.0293476 0.0224722 0)
(-0.0174315 -0.00834074 4.32275e-20)
(0.0102505 -0.0182427 0)
(-0.00412746 0.023345 7.48757e-21)
(-0.0267421 0.0100576 -1.67061e-20)
(-0.0252793 0.00100839 0)
(-1.69458e-05 -8.44203e-05 0)
(-0.0233479 -0.000208615 0)
(-0.00172035 0.00188018 0)
(-0.0106237 0.00467284 7.47475e-20)
(-0.0265861 0.0294659 0)
(-0.124143 -0.123901 0)
(-0.00420288 0.00755386 0)
(-0.00205661 -0.00220844 -7.32364e-20)
(-0.0699879 -0.0197139 2.58459e-20)
(0.00295522 0.00156092 0)
(-0.00610321 0.00286186 0)
(0.00289872 0.00692913 -5.26639e-23)
(-0.0147908 -9.78924e-05 -3.78235e-21)
(-0.00928674 0.00301301 1.51224e-21)
(-0.00144699 -0.000791935 3.03004e-20)
(-0.017926 0.055829 1.15794e-21)
(0.0165917 0.0573883 -5.19542e-21)
(-0.0209409 -0.0131346 -6.88434e-20)
(-0.00226244 0.00641883 6.95741e-20)
(-0.00142545 -0.00012501 1.62341e-20)
(-0.000549188 0.00728498 -5.85744e-20)
(-0.00010002 0.0526167 2.9118e-21)
(-0.00131482 0.00197263 -1.04657e-20)
(-0.012424 0.066184 -5.7865e-21)
(-0.0072498 -0.00227794 2.53996e-19)
(-0.00060396 0.000366251 -7.14756e-21)
(-0.00151533 0.00301919 0)
(0.00145134 0.00211808 -3.95057e-20)
(-0.000189694 9.30156e-06 -3.22662e-20)
(-0.0878991 -0.00431676 4.70067e-20)
(-0.0021395 0.00344417 -2.89307e-20)
(-0.00184936 -0.00111458 4.00058e-20)
(0.00730951 0.00472269 -5.46255e-20)
(-0.012435 -0.0284488 1.40973e-20)
(0.00612633 0.00500179 9.98935e-22)
(-0.0259002 0.0292796 -1.15936e-20)
(-0.000176943 -0.000157328 2.44325e-21)
(-0.136435 -0.224302 0)
(-0.00481705 0.000433396 3.43854e-20)
(-0.000997321 -0.00606634 -4.05802e-20)
(-0.092146 -0.0112377 8.17223e-20)
(0.000230966 -0.00111684 -2.36315e-20)
(-0.00371137 0.00865878 1.42994e-21)
(-0.0485603 0.0119242 4.36944e-21)
(-0.00276993 -0.031379 -4.16559e-22)
(-0.00127586 -0.000196303 4.40239e-20)
(-0.00684316 0.000955024 0)
(-0.00211205 -0.0342987 -2.08453e-19)
(-0.00185453 -0.00398408 -6.11361e-20)
(-0.000493209 -0.000329338 -6.41599e-20)
(-0.0304974 -0.011923 1.18275e-21)
(-0.0198598 -0.0166243 -1.53485e-20)
(-0.00957876 -0.0291945 1.08199e-20)
(-0.0102891 -0.0108525 3.89611e-21)
(-0.0553934 -0.0119547 0)
(-0.00126733 -0.00886844 0)
(0.00954739 0.0227751 -1.12056e-20)
(-0.000267112 0.00428339 2.81553e-20)
(-0.0226612 0.00930908 0)
(-0.0895818 -0.0120432 -7.61986e-20)
(-0.0181725 0.0145716 1.40467e-21)
(0.0144123 0.000991717 0)
(-0.00603309 0.0165647 1.66753e-20)
(-0.000596099 -0.000377527 -5.0352e-20)
(-0.015712 0.0874844 0)
(-0.00016565 -5.53817e-05 0)
(-0.000322204 0.000167734 3.06314e-20)
(-0.000496529 -0.000434355 0)
(-0.137719 -0.392738 -1.22488e-19)
(-0.0422168 0.0778034 -5.35161e-19)
(-0.000287643 -9.63176e-05 -3.72456e-20)
(-0.0489806 0.00717707 -8.30538e-21)
(-8.80929e-06 -0.000503571 -2.09912e-20)
(-0.0037124 0.0240431 1.35372e-20)
(-0.00788284 0.00979254 2.67714e-20)
(-0.0155713 0.0767375 6.00035e-21)
(-0.00556567 0.0296031 0)
(-0.0114389 -0.0160652 1.46752e-20)
(-0.000870946 -0.00159887 5.63328e-20)
(-0.000159127 0.00123717 -1.72243e-20)
(-0.000810862 -0.000816434 1.56541e-20)
(-0.0831018 -0.048365 -5.9364e-20)
(-0.0327482 0.00985015 0)
(-0.0113105 -0.00590692 0)
(-5.66815e-05 -0.000104994 8.25253e-21)
(-0.0218425 -0.0111753 0)
(-0.000123721 -1.86457e-05 2.38301e-20)
(-0.000162285 -1.52953e-05 2.48152e-20)
(-0.00761053 -0.00247748 0)
(-0.000581545 3.02416e-05 0)
(-0.00377578 -0.000436589 0)
(0.000131104 -0.00443909 1.45117e-20)
(0.00220341 0.00144357 3.87748e-21)
(2.36333e-06 -0.000566259 -4.9186e-20)
(-0.127526 0.0758087 7.05243e-21)
(-0.00025261 -0.000142421 5.40906e-22)
(-0.0030251 -0.00587291 0)
(-0.232364 -0.0493125 0)
(-0.00089047 0.0300789 -6.54856e-20)
(-0.0970047 -0.0262174 0)
(-0.000109185 0.00125043 0)
(-0.00681787 -0.00108208 1.06997e-20)
(-0.359986 -0.506546 3.76451e-19)
(0.000252043 0.000805774 -4.88942e-20)
(0.0205504 0.00421439 5.62321e-21)
(-0.0141178 -0.00445838 1.63807e-20)
(0.0159282 0.000151948 -1.81131e-20)
(-0.0400872 0.00712971 0)
(-0.0111285 -0.000401229 2.54541e-20)
(-0.000195758 -4.82453e-06 -1.55166e-20)
(-0.00364097 0.00548015 5.6981e-21)
(0.00275884 0.0024081 2.82641e-20)
(-0.0134089 -0.00410457 8.49984e-21)
(-0.00512682 -0.00857557 0)
(-0.00346366 -0.000155109 0)
(0.0021549 0.00267347 -6.58155e-20)
(-0.000120371 -0.00123224 6.02743e-20)
(-0.0644953 -0.0153117 -4.82664e-20)
(-0.0864232 -0.31801 -2.01957e-20)
(-0.00295567 0.0149515 4.62367e-20)
(-0.000195831 -3.65527e-07 6.09394e-20)
(-0.0333287 0.10006 7.21279e-21)
(-0.000525843 0.00037125 0)
(-0.0122042 0.00995156 0)
(-0.066802 -0.052075 0)
(0.00158449 -0.0135864 0)
(-0.00364273 -0.236396 1.30078e-20)
(-0.00323784 -0.00284668 -4.04756e-20)
(-0.00533904 0.00470007 -4.56812e-22)
(-0.202517 -0.249973 -1.6487e-21)
(0.00168942 -0.0359953 -2.92835e-19)
(-0.00475615 0.00597123 0)
(-0.000482355 -0.000326775 -9.91074e-21)
(-0.0161252 0.0102655 -3.1898e-22)
(-0.0570805 0.01358 6.99487e-21)
(-0.0072906 0.00515529 -5.11614e-20)
(-0.000148618 0.000882514 -2.51829e-20)
(-0.00857534 0.0217383 -5.72301e-21)
(-0.0597044 0.0593804 -4.00356e-20)
(-0.0153643 -0.0747352 0)
(0.00253529 0.00723163 1.17334e-20)
(-0.0337377 0.00963247 -4.88358e-22)
(-0.000119015 -0.000890162 -5.06469e-23)
(-5.57993e-05 -0.000260527 -5.25232e-21)
(0.061449 -0.0788226 0)
(0.00457934 0.00163623 1.54358e-21)
(-0.0649201 -0.0154515 3.50264e-20)
(0.0200989 -0.0353105 0)
(-0.012811 0.000520444 -5.68867e-20)
(-0.00916511 -0.00224485 2.57563e-20)
(-0.00772117 -0.000346288 0)
(-0.00179296 -0.00118444 4.4718e-20)
(-0.00499295 0.00138582 4.22104e-20)
(-0.00903499 0.0089227 0)
(-0.0350992 -0.00373435 5.71253e-21)
(-0.00033699 0.00417524 -4.61847e-20)
(0.00398806 0.0270428 2.31174e-20)
(-0.0404659 -0.0106044 -1.9094e-20)
(-0.00681646 -0.00473877 7.32008e-20)
(-0.0566658 0.00646223 3.01842e-21)
(-0.000508373 -0.000176916 6.05972e-20)
(-6.96649e-05 -0.000721362 0)
(-0.00211429 -0.000802509 0)
(-0.00509022 -0.0122361 4.94803e-20)
(4.84542e-05 -0.000628896 0)
(0.17717 -0.211762 -8.49671e-20)
(-0.00899735 0.00287485 -1.69275e-20)
(-0.00307681 0.00593887 1.91963e-20)
(-0.0615431 -0.00244766 -3.99491e-22)
(-0.0101303 0.0242654 4.3123e-21)
(0.00363822 -0.013681 3.45093e-20)
(0.0175017 0.042085 1.1518e-20)
(-0.0312384 0.0391737 -6.04684e-20)
(-0.0309168 -0.00536725 -2.11289e-21)
(-0.0117555 -0.0128325 -7.90178e-21)
(-0.000402674 -0.00257141 -2.89261e-20)
(-0.000216401 -1.18941e-05 -2.47821e-20)
(-0.0122869 0.00279276 0)
(-0.0184519 0.0202927 0)
(-0.00528299 -0.00285424 -8.89339e-21)
(-0.0117685 0.0103449 1.96563e-20)
(-0.00179917 -0.0494403 1.06158e-19)
(0.00269579 0.00722816 -2.48624e-20)
(-0.00443882 0.00482343 -2.22844e-20)
(-0.00145238 -0.00171478 0)
(0.0108715 -0.0307055 -1.55137e-20)
(-0.00162942 -0.000519366 -3.32464e-20)
(-0.0130522 -0.00171812 0)
(-0.0193907 0.00856148 -3.1993e-20)
(-0.000679714 -0.000115489 6.67407e-20)
(-0.121965 0.0647806 0)
(-0.00150814 0.0212707 1.55547e-19)
(0.00717882 0.00389976 -1.92147e-21)
(0.00160399 0.00301522 0)
(-0.000654975 0.00181747 0)
(-0.000497678 -0.000233903 0)
(-0.0261363 0.000313162 -2.54933e-20)
(-0.000257741 -2.61193e-05 6.61801e-21)
(-0.00677695 0.0252392 1.12354e-20)
(-0.000467196 0.000268869 0)
(-0.132493 -0.193456 -3.39299e-20)
(-0.00137011 -0.00396622 -1.72989e-20)
(-0.068398 0.0666522 0)
(-0.00756196 0.0526793 6.17378e-21)