/*--------------------------------*- C++ -*----------------------------------*\
| =========                 |                                                 |
| \\      /  F ield         | OpenFOAM: The Open Source CFD Toolbox           |
|  \\    /   O peration     | Version:  v2012                                 |
|   \\  /    A nd           | Website:  www.openfoam.com                      |
|    \\/     M anipulation  |                                                 |
\*---------------------------------------------------------------------------*/
FoamFile
{
    version     2.0;
    format      ascii;
    class       surfaceScalarField;
    location    "200";
    object      ddtCorrDdt0(phi);
}
// * * * * * * * * * * * * * * * * * * * * * * * * * * * * * * * * * * * * * //

dimensions      [0 3 -2 0 0 0 0];
oriented        oriented;


internalField   nonuniform List<scalar> 
27055
(
-0.0053184
0.00531838
-0.00133668
0.000300327
-0.000283751
-1.65729e-05
0.000506734
0.000112549
-0.000619295
0.000519387
-6.1795e-05
-0.000457598
-0.00124497
0.00211228
-0.000867312
-0.000207219
0.000568298
-0.000361059
0.000217661
0.000184991
-0.000402648
0.00028084
-0.00134703
0.0010662
0.000550142
-3.07387e-05
-0.00068764
8.26948e-06
0.000679372
-0.00331712
-0.000521767
0.00383891
0.00133304
-0.000604277
-0.000728766
0.00179904
-0.00132259
-0.000476476
0.00124461
-0.00043963
-0.00080499
0.00562757
-0.00460003
-0.00102756
0.000152546
-0.000155221
2.66946e-06
-0.000219252
0.000108936
0.000110313
0.000356151
-0.000523731
0.000167569
-0.00127929
0.000699854
0.000579426
0.00326317
-0.000355498
-0.00290766
0.000482537
-0.000689472
0.000206922
-0.000310377
-0.000377253
-0.000437746
0.000782863
-0.000345141
0.000106541
0.000216576
-0.000323108
-0.000490544
0.000597088
-9.48347e-05
-0.000256143
0.000350987
0.00118486
-0.00242986
-0.000124661
-9.45931e-05
0.000114056
0.000186264
0.000136142
-0.000152474
1.63354e-05
0.0111818
-0.017992
0.00681022
-0.000504541
0.000460079
4.44733e-05
-0.00577457
0.0170568
-0.0112822
-0.000892686
0.000721318
0.000171398
-0.00029428
9.0129e-06
0.000285216
-0.000349188
0.000375386
-2.62016e-05
-0.000152218
0.000450602
-0.000298381
-0.000208612
-0.000552449
0.000761059
-4.12659e-05
-0.000102123
0.00014339
-0.00893599
-0.000699938
0.00963588
-0.00289768
-0.00118607
0.00408373
-0.000801059
0.00104788
-0.000246793
0.000269115
-0.000140845
-0.000128258
-0.000108357
-6.28461e-06
0.000114654
0.000171373
0.00133644
-0.00150779
-0.000670555
-7.11838e-05
0.000694701
-0.00359238
0.00146457
-0.00111058
-0.000353973
0.000130197
-0.000335925
0.000205722
0.000150068
-8.74547e-05
-6.26138e-05
3.87353e-06
-6.72892e-05
6.34182e-05
0.00480417
-0.00595908
0.0011549
0.000882215
0.00105557
-0.00193779
-8.70079e-05
-0.00102679
0.00111379
-0.00188582
0.000600736
0.00128506
1.36605e-06
0.000122035
-0.000123391
8.0048e-05
-0.000124157
4.41165e-05
-0.000530197
-9.82041e-05
0.000628356
0.000103563
-0.000651928
0.000548352
0.000412754
0.000831842
-0.000117906
9.53924e-06
-0.000222355
0.000936268
-0.000713911
0.000693471
-0.000186741
0.005136
-0.00284288
-0.00229312
0.000989155
-0.000357603
-0.000631587
0.00238201
-0.00276391
0.000381935
0.000323838
0.0108579
0.00024632
-0.000341124
0.000738295
-0.000960671
0.000127286
-0.000125915
0.000218794
-9.40422e-05
-0.000124766
-0.00844783
-0.00954418
-0.000340639
-0.000484271
0.000824905
-0.00145256
-0.00256646
0.00401903
-0.00130287
-0.000146845
0.00144972
-0.000706673
2.07329e-05
0.000686039
0.000277284
0.000256572
-0.000533854
0.00260492
-0.00260491
0.000752067
-0.000356911
-0.000395155
0.0149172
-0.0145934
-0.000555879
-0.00162829
0.00218416
0.0025404
-0.000354051
-0.00218632
-0.000787201
0.00029046
0.000496726
-0.00120702
-0.00204694
0.00325392
-0.000979737
-0.000906111
0.00026538
-0.000243086
-2.22973e-05
0.000484794
-0.00012866
-0.00284289
0.00228696
0.00275502
-0.000721248
-0.00203376
0.000399614
8.51455e-05
0.000264513
-0.000339967
7.54783e-05
0.000131067
5.07879e-06
-0.000162855
-0.00163724
0.0018001
0.000469515
-6.98988e-05
-0.000211562
0.000949863
-0.000148065
0.000237973
-8.99026e-05
0.000640347
-0.000201433
-0.000438945
-0.00350062
-0.000690716
0.00419132
0.000352743
-0.000632972
0.000280265
-0.000320299
-0.000300428
0.000620723
0.0028031
-0.00192091
-0.000631557
0.000248717
0.000382835
0.00222879
-0.000532686
-0.00169608
0.000269068
-0.00056336
0.00112
-0.000843887
-0.000276117
0.000265068
-0.000151015
0.00147374
-0.00335858
0.0018848
6.65607e-05
-6.65575e-05
-0.000107892
0.00104415
0.000168009
0.000821153
-0.00141769
0.00129666
0.000121047
0.000306614
9.75572e-06
-0.00031639
0.000299421
-0.000506633
6.4157e-05
8.5923e-05
-0.00121651
0.0004921
0.000724454
0.00285497
0.00022016
-0.00307516
-0.000808254
0.00097962
-0.00077926
0.00147394
-0.000694706
0.000300107
-0.00117305
0.000872965
4.43473e-05
-0.000185737
0.000141394
-0.000380857
0.000228639
-0.000379182
-0.00378466
0.00416391
7.81279e-05
-0.000918585
0.000840486
0.000173281
-0.00270106
0.00252777
-0.000868468
6.74432e-05
0.00901711
-0.00492685
-0.00409025
-6.99514e-05
-5.07726e-05
0.000120715
0.00242992
0.000833228
0.000118912
-0.0015366
0.000328666
-0.00015776
-0.000170897
-0.000662904
0.00043653
0.000226336
0.000588278
-0.00136755
0.000162411
-0.000103129
-5.92772e-05
-0.000511408
0.00531556
-0.00154898
0.000246095
0.00147651
-1.19144e-05
-0.000376925
8.13026e-05
0.000295629
-0.000570571
0.000186431
0.000384124
-0.000813585
-0.0005836
0.00139719
0.00113822
-0.00122525
0.000350465
0.000769539
-0.0144076
0.0219865
-0.0075788
9.4301e-05
-0.000186183
9.18886e-05
-0.000966598
-4.00016e-05
0.00100657
-0.000247149
0.000958229
-0.000710993
0.000713116
-0.000300346
-7.52684e-05
1.82579e-05
5.70116e-05
-0.000482501
0.00102965
-0.000547141
0.000321225
-0.000365568
4.42763e-05
-0.000711182
0.000343216
-0.00192481
-0.0010702
0.00299503
-0.00124838
-0.00110278
0.00235117
-5.83768e-05
-0.00064827
0.00166922
0.0010858
-0.0099379
0.00100188
-0.00266945
0.0032748
-0.00060537
0.00173738
0.00339863
0.00216568
-0.000146558
-0.00201914
-0.000467011
-0.000987745
-0.000348886
0.000134743
2.76957e-05
8.37614e-06
0.00237564
6.34966e-06
0.000421169
0.0016009
-0.00202211
0.000175048
-0.00026382
8.87819e-05
0.00028029
-0.000669098
0.000388803
0.0070684
-0.021476
-0.000416828
0.000180733
0.000236114
-0.000163304
-0.000760118
0.000923488
0.000401372
-9.52373e-05
-0.000306098
-0.00020473
0.000422388
0.000116327
0.000212334
-0.000180358
-0.000264827
0.000717027
-0.000452216
0.0012711
-0.00127112
-0.000404498
-0.000382705
-9.11774e-05
0.000106761
-1.5591e-05
-0.000651012
-0.000241689
7.58648e-05
-2.73189e-05
-4.85448e-05
0.000815462
-0.000802101
-1.3349e-05
0.000707292
-0.000915892
9.76036e-05
0.000121191
5.19454e-05
-0.000683517
0.0105995
-0.0105995
-7.52673e-05
0.00107874
-0.000669334
-0.000409413
-0.000193146
-0.00101386
0.000238345
-0.000279609
-0.0031474
0.00327162
-0.000124199
-0.000318876
0.00084237
-0.000523468
-0.000370035
0.000381024
-1.09908e-05
0.000830978
-0.000776098
0.00103036
-0.000254282
-8.40492e-05
0.000178349
-0.000218913
0.000512201
-0.000293286
-5.37998e-06
0.000311982
0.000671811
-0.0002289
-0.00044292
-8.93774e-05
-1.48557e-05
0.000104247
-0.000300413
1.64802e-05
0.000283926
-7.77564e-05
8.63207e-05
-8.5667e-06
0.00142573
-0.000940221
-0.000485482
-0.0001934
0.00129286
-0.00109944
-0.00490281
-0.00254299
0.00744586
0.00377844
-0.00230471
0.000186612
-0.000758829
0.000572232
0.00655127
-0.00727673
0.000725459
0.011089
0.0103548
-0.0214438
-0.000990645
0.000947649
4.29641e-05
0.000785239
0.000779407
-0.00156466
0.000240538
-0.000307721
6.71848e-05
0.000508816
0.00020431
0.000283365
-0.000603663
-0.00419567
0.00069502
-0.00181239
-0.00357869
0.00539107
0.000819587
0.000606043
0.000770997
-0.00201938
-0.00034431
4.34656e-06
0.000146858
0.000118223
4.45082e-05
0.000595871
-0.000658288
0.000175788
-0.000500237
-0.000151702
-0.000704504
-0.000257486
0.000961989
0.00011575
0.000835286
-0.000951021
2.30617e-05
-0.00011245
-6.75431e-05
0.000468909
-0.000669422
-0.000654183
0.000216413
-2.96797e-05
0.000105551
8.37e-05
0.000321316
-0.000405012
-0.00014941
0.000324205
-0.000174769
-0.000619032
0.000202223
-0.00156651
0.00247029
-0.00513974
-0.000399795
-0.000104743
-0.000750683
0.00134066
-0.000589989
0.000792968
-0.000734658
-5.83123e-05
-0.00570082
0.00717498
-0.00147419
0.000378703
-0.000248517
3.71193e-05
6.16944e-05
-9.88079e-05
-0.000278175
0.00012878
-0.000991395
0.0018566
-0.000865209
0.000664634
-0.00636546
-0.00018822
0.00129736
-0.00110914
0.000304289
-3.51749e-05
-0.000405342
0.00024209
1.45879e-05
-2.18601e-05
7.27282e-06
-0.000694015
0.000560303
0.000133722
-0.00165558
-0.00036193
0.00201753
-0.000324134
-0.000510097
0.000834246
-0.000830792
-0.00117999
0.00201077
-0.0019699
0.000935038
0.00103487
-0.000117537
-0.000408952
0.000526483
0.00125223
-0.000304611
-0.000451933
0.000233046
0.0014466
-0.000452725
-0.00099385
-0.00117269
2.30366e-05
0.00114966
-0.00113142
0.000426898
-0.00104637
-0.00100055
0.000812654
2.83822e-06
-0.000793345
0.000871448
-7.81828e-05
0.00213028
-0.00107472
-0.00123679
0.000321838
0.000914947
-9.692e-05
5.74444e-06
-0.000549031
0.000202579
0.000346434
5.47553e-05
1.51491e-05
-6.98995e-05
-0.000567741
0.000891334
-0.000323604
-0.000353809
0.00251948
-0.00136917
-0.00119704
0.000893286
0.000303747
-0.000111186
0.000547706
-0.0162458
0.0104712
0.00129128
-0.00113501
-0.000156282
9.79057e-05
-9.48005e-05
-3.11251e-06
0.000271365
-0.000388902
-0.00340018
0.00314344
0.000256724
0.000710394
0.00183001
-0.00037854
0.00070909
-0.000330535
8.3904e-05
-4.67805e-05
0.00282056
-0.00264727
-0.000653603
-0.00059294
0.00124651
-0.000916396
-0.000829258
0.000815923
1.33221e-05
-0.0026216
0.00151047
0.00111113
-0.00154099
0.000430399
0.000640158
0.000152825
0.000292579
0.000714648
-0.00100723
4.70748e-05
0.000479786
-0.000526881
-0.000906195
0.000573241
0.00033292
-0.000122642
0.00297755
-0.000368231
-1.81842e-06
0.00289597
-0.00187116
-0.0010249
-0.000842984
-0.00230445
-0.00393818
0.000621071
-0.00311089
-0.000439835
-0.000757214
-0.000949782
-0.00167182
0.000758175
-0.000234921
-0.000523262
-8.0253e-05
-3.76643e-05
0.00138274
-0.00132692
-5.58804e-05
0.000873767
0.000721724
-0.00159549
6.86628e-05
-2.27105e-05
-4.59511e-05
-0.000669924
0.000165358
0.000504592
0.00232377
-0.00106026
-0.00126354
3.18398e-05
3.68244e-05
8.38083e-05
-3.75731e-06
-0.00427655
0.0064996
0.00244488
-0.000634644
-0.00181033
0.000130754
2.17936e-05
-0.000854709
7.85853e-05
-0.0010272
0.000838967
-9.8837e-05
0.000228634
-0.000129806
0.00400211
0.000119782
-0.00412192
-0.000668111
-1.92187e-05
0.000687324
-0.00087858
4.93247e-05
-0.00067402
-0.00186219
0.00252063
-0.000658448
0.000117214
-0.000169022
5.18043e-05
-0.00130241
0.000551725
-0.000128451
2.5267e-05
0.000103199
0.00116576
-0.000189571
-0.000976207
0.00126162
-0.000769506
0.00488582
-0.000874251
-0.00401151
-0.00152295
-0.000371921
4.84336e-05
0.000323505
-0.000899093
-1.17632e-05
0.000910858
0.0034488
0.000248054
0.00101359
0.00378955
-0.000943006
-0.00284662
-0.00111776
0.000388622
0.00174165
-6.89293e-06
-0.000326131
0.000333007
0.00305418
-0.00210345
-0.000950778
-0.00363363
-0.000347315
0.00398092
0.0010143
-7.72588e-05
-0.000937041
-0.00389354
3.98395e-05
0.0038537
0.000491408
-0.000755614
0.000264169
-0.00296859
0.000240384
0.00272822
0.000219078
2.72171e-05
-0.000684488
0.00146969
0.000549446
-0.000465743
0.00372535
0.00282591
2.39177e-05
-9.33008e-06
-8.07062e-07
-9.51234e-06
1.03076e-05
-5.39914e-05
0.000171211
0.00143424
-0.0024671
0.00103281
-0.00340768
-0.00201613
0.00542383
0.00116047
-0.000445842
0.00278937
-0.00706592
-0.000678791
0.000543458
0.000135342
-0.00258832
0.00288238
-0.000294077
0.000283027
2.26427e-07
-0.000283237
-0.000409439
3.751e-05
0.000290184
0.000219186
-0.000509377
0.000545656
0.00147478
-0.0020205
-0.00108752
0.000984657
0.00010277
-0.00121703
0.00105416
-0.00486097
0.00421949
0.000641488
-8.81424e-05
0.000341639
-0.000253499
-0.000108457
-9.76056e-05
0.000206052
0.000803697
-0.00808043
-9.34651e-05
-0.000774979
6.35825e-05
-0.000593747
-3.86339e-05
-0.00529535
-2.30277e-05
-0.00129172
0.000972845
0.00078406
-0.00145045
0.000666379
-0.00496297
0.0015553
2.85133e-05
-0.000872386
-0.00181577
-0.00115283
-0.000268442
5.5198e-05
0.000213195
-0.000101801
0.000944339
-0.00084253
-1.92341e-05
-0.000968482
-0.00228696
-0.0199736
0.0222605
-3.02319e-05
-0.000270182
-0.000180136
0.000532883
-9.42511e-06
0.00051183
-0.000502401
-3.85053e-05
0.000110172
-7.16779e-05
0.0030888
0.00253877
-0.00643321
-0.000786416
0.00721961
0.000283978
-0.000986557
0.000702579
0.00142188
0.00147405
-0.000209382
2.13401e-05
0.000188046
0.000686861
-0.000745257
5.8353e-05
-0.00221135
0.000555777
0.000169395
0.00362012
-0.00013308
0.000219054
-8.59721e-05
-9.62629e-05
5.77542e-05
-0.00016759
-6.74584e-05
0.000235064
0.00108315
-0.00123093
0.000147747
0.000955111
-0.00116583
0.000210705
-6.39877e-05
0.00047411
-0.000410084
0.000878827
0.000150834
0.00413205
-0.00396269
0.000630933
-2.2355e-05
-0.000608587
-0.000762827
0.000438687
0.0027734
-0.00315255
0.000158574
-6.09745e-05
-0.00520608
0.000303193
-4.03062e-05
9.96256e-05
-5.93175e-05
-0.000595593
0.000493787
-0.005303
0.00349062
-0.00801808
0.0016624
0.00635568
0.00425385
-0.00788748
0.00196753
0.000251122
-0.000339262
-0.00104386
0.00130571
-0.000261895
-7.81811e-05
8.20584e-05
3.79835e-05
-6.53252e-05
2.73433e-05
0.000695316
2.90971e-06
-0.000698243
0.000437982
0.000727768
0.0184543
-0.0207413
0.000537575
0.00190731
0.000891098
-0.000643041
0.000577882
0.00122117
-0.000177037
0.000737628
-0.0005606
0.000270812
-0.000170785
-0.000100045
0.000139649
2.51203e-05
-0.000164769
-0.000840395
2.68e-05
0.000460522
0.000211302
-0.000761048
0.0011611
-0.000400106
-0.000935401
0.000398273
0.000537119
-0.00530047
0.00585287
-0.000552396
-0.000338943
0.000279011
5.99193e-05
-0.00147857
0.000487167
0.00237625
-0.00132779
-0.00104848
0.00208168
-0.00353423
-0.00315417
-0.00170419
0.00485835
0.00214081
-0.00135674
-0.000765078
-0.000514214
-0.000154352
0.000232917
-7.85696e-05
0.000813634
0.000662891
-0.00143465
-0.00342629
0.000202731
-0.000581257
0.00143955
0.00161463
8.21376e-05
-0.000190591
-0.000124292
-4.15569e-06
-0.000220943
0.000542263
-0.00190075
0.0016976
0.000203157
0.00043694
0.000256525
0.000807055
-0.00100045
0.00123102
0.00109097
-0.00232201
5.13982e-05
0.000673822
-0.000659743
-1.41004e-05
0.000520566
0.00055815
0.00088621
-0.000212427
-0.00091248
0.00047448
0.000438045
0.000580248
0.000171805
-0.00398506
0.000220679
0.00376442
0.00131154
-0.00103126
-0.00112436
0.00151553
-0.000391149
-0.000161505
0.000560569
-0.000399115
7.45638e-05
2.66187e-05
-0.000101207
-0.00019644
-0.000539409
-0.000633279
0.000249964
-0.000311878
6.19272e-05
-0.0142175
0.00156741
0.0126502
-7.99665e-05
0.000219616
0.000651944
0.000639361
0.000565229
-0.000812358
-1.06271e-05
-0.000328336
-0.000589441
0.00113857
-0.000549169
-0.000778069
-0.00013441
0.00193085
-0.00173331
-0.000197559
-0.000332677
0.000356346
-2.36644e-05
9.3956e-05
8.10975e-05
0.000303466
-0.000254497
-4.89828e-05
-0.000238353
0.00100115
-0.000762746
0.00100267
0.000330385
0.000849198
0.000182501
8.83182e-05
-0.00106055
-6.38022e-05
0.00214338
-3.64143e-06
-0.00213974
0.00639337
0.000596229
-0.00698963
-0.00046548
0.000401486
0.000939775
-0.00195866
0.00101893
-0.000642259
-0.000109275
0.000751547
-0.000597468
-0.000671291
0.00126877
-0.0048491
0.000955555
-0.000343005
-0.000450369
0.000550707
-0.000636751
8.60101e-05
-8.95971e-06
0.00177599
-0.00176701
0.000205791
-0.000161438
0.000419434
-0.00571989
-0.000357456
-1.94676e-05
0.000379115
0.000532705
-0.000911812
0.00109599
-0.000466825
-0.000629221
0.000524453
0.000346951
0.000583381
-0.000536321
0.000366339
0.0037657
-1.07228e-05
0.000153719
-0.000142987
0.000377838
0.000317465
0.00033107
-8.10937e-05
0.000161733
0.00072939
-0.000214284
0.00121377
-0.000999498
0.0010149
0.00136135
0.000132393
-0.000194552
6.21568e-05
6.78193e-05
-0.000336269
-0.000828117
0.00107681
0.000142709
-1.19559e-05
0.000679694
-0.000242739
-0.00140716
0.00121533
0.000191818
-0.000463345
-0.000155673
-0.00163702
-0.00148927
0.00312626
0.00516778
-0.000948274
4.9637e-05
0.000763048
-0.000215512
0.000130483
8.5047e-05
-0.000488981
0.000556302
-6.73086e-05
-0.000175747
4.97619e-05
0.000125977
0.000770262
-0.000508365
-0.000261878
-0.00146572
0.00065746
0.000510564
-0.000672094
0.000950723
-0.000788996
-6.37635e-05
-0.000285431
4.53977e-05
0.000113571
-0.000158955
-8.88585e-05
-0.000126629
0.000198333
-0.000331421
-0.000209715
-0.000917342
0.00112705
-0.00107265
0.000598376
0.000474256
-0.000479953
0.000529989
-5.00213e-05
0.000302676
-0.000766002
-0.000731082
-0.00215942
-0.000267576
-0.000150105
0.000417611
0.00353757
-0.00396386
0.000426302
0.000109718
-0.000577117
0.000467416
-0.000258846
-0.000134316
0.000181052
-4.67327e-05
0.000945212
-0.000829448
0.000204811
0.000171741
-8.96993e-05
-8.20274e-05
0.00374075
0.00527637
-0.00222645
-0.000404572
0.000190284
-0.00361246
0.00843987
-0.00482743
8.09334e-05
7.76596e-05
-0.00244804
0.00133239
0.00111565
4.54439e-05
-0.000179754
-0.00200892
0.00107725
-0.00190805
-0.000455797
0.000733093
0.00104101
-8.58877e-05
-5.4291e-05
-0.000121461
-0.00012947
5.95078e-05
2.02012e-05
0.000122502
-0.00179718
0.000883141
0.000914033
-0.00103706
0.000383447
0.000646217
0.000827676
0.000248709
7.20994e-05
-0.000320813
-5.17953e-05
0.00106607
0.000603568
-0.000697008
0.000293955
-0.000277463
-0.000341925
-0.000730761
-0.000126186
0.000115465
0.00218345
-0.00239423
0.000210766
0.00490373
-0.00137167
-0.00353207
-0.000584929
0.000650328
-6.54046e-05
0.00120438
-1.478e-05
-0.00118958
0.000137446
-0.00020723
6.97849e-05
-0.00132008
-0.00112795
0.000911301
-0.000867028
-4.42172e-05
-2.95094e-05
3.13846e-07
2.91981e-05
0.00245365
-0.00130387
-0.00114978
-0.000104693
0.000286352
-0.00018166
0.00201313
-8.22788e-05
0.000126049
-6.17737e-05
-6.42688e-05
-4.27854e-05
0.000175179
-0.00135725
-0.00123109
0.00195244
-0.000505843
0.000185144
-0.000109149
7.31965e-05
3.59582e-05
0.000598855
-2.37005e-05
-0.000575162
0.000396987
-4.73683e-05
-0.000349628
0.000339353
0.000756641
-1.84145e-05
-0.000461537
-0.000189649
-0.000452613
-0.000742504
0.00142575
-0.000683239
-0.00100988
0.000867252
0.000142647
-0.00102126
0.00269805
-0.00167676
7.50934e-05
0.000143993
-0.000667105
-0.00273308
-2.42165e-05
-0.00010185
0.000126066
0.000505962
0.00331372
-0.00233389
-0.000979884
-8.21225e-05
5.85336e-05
2.35989e-05
-0.00112823
0.000918524
-0.000203222
0.000179008
0.0043664
-0.00367171
0.0110291
0.00121094
-0.00256467
0.00135372
2.69532e-05
0.000267013
0.000193802
-0.000108041
-8.5756e-05
0.000202689
0.000935909
0.000126572
0.000138805
-0.00907344
0.00345546
0.00561797
-0.000530217
0.000129387
0.000400839
-0.00170879
-0.00019198
-0.0101692
-0.00404833
-0.000458117
-0.000200171
0.00061395
0.000768795
-5.3941e-05
-0.000476278
0.00020375
-0.000129562
-7.4206e-05
0.0256875
-0.0131119
-0.0125757
0.00121029
-0.000151279
0.00010231
4.8941e-05
0.000307964
0.000586739
-0.000894717
9.5249e-05
7.64931e-05
0.000796314
0.0018086
0.000125738
6.80657e-05
0.000942442
-0.000563334
-0.000335158
0.000344918
0.000183522
0.00058674
0.00124319
-0.000596971
0.00185592
-0.000844602
-0.0010113
-0.000748299
0.000211494
0.000536771
3.10842e-05
-0.000152863
0.000121785
0.000331247
-0.000256167
-0.00207007
0.000951815
0.00111829
-9.96506e-05
0.000130739
0.000156598
0.000428482
-0.000192228
-0.000236259
0.000114862
-0.000219555
-0.00924611
0.00689065
0.0023555
-0.000125904
-0.000162858
0.000288767
-0.000986621
0.00176604
-0.000229074
0.000928929
-0.000351838
0.00160407
0.0085823
-0.0027392
-0.00584309
0.000388739
0.000298079
-0.000686854
0.000840334
-0.000319722
-0.000190285
5.68864e-05
0.000133429
0.000252179
-0.000406712
0.000154541
-0.00031903
-5.73843e-05
7.78955e-05
2.00161e-05
-4.85957e-05
-0.000503856
-0.00285259
0.00144646
0.00140612
-0.000988602
0.00140977
-0.000799227
0.000231495
-0.000607131
0.000145482
0.000461652
-0.0023092
-0.000630244
0.00293947
0.00110673
1.67466e-05
0.00133506
-0.00135182
-2.26968e-05
-6.81102e-06
-0.00127869
0.00129542
-0.000398636
-0.000976749
0.00082547
0.000151274
-0.00262273
0.00336097
0.00522137
0.00174173
-0.00042324
-0.00131855
0.000674377
1.24991e-05
-0.00154354
-0.00130906
-0.000774173
0.000254091
0.000520101
0.00119982
-0.000783091
-0.000416743
4.36008e-05
0.00116079
-5.53762e-05
0.000686302
0.000702177
-0.000611694
-9.04877e-05
0.000264272
0.000164223
0.00300201
0.00072331
-0.00622054
-0.00127565
0.00144896
-0.000173318
-0.000158709
-0.00124851
-0.000478035
0.000221475
0.00025658
8.01602e-05
-0.00120671
0.00112661
-0.000322982
0.00436513
-0.00404213
0.000697881
-0.000538466
-0.000159412
-0.0041441
0.00693344
-0.000759677
-0.000175731
0.000287732
-0.0001714
0.000346199
0.000494062
0.000413423
-0.000422866
-2.4231e-05
-5.72329e-05
8.14575e-05
-0.00381689
-8.68238e-05
0.00390372
-0.000136961
-5.86591e-05
0.000195615
-0.000648328
0.000503171
0.000145168
0.000271089
-0.00112368
-0.000615651
0.00173932
0.000198288
-0.000361163
-0.00393642
-0.000282097
0.00421848
1.47189e-05
-8.86221e-05
7.39048e-05
0.0018264
-0.0124287
0.000758256
-0.000996566
-0.000612246
-0.000397626
-0.00386276
0.000234491
0.00362828
2.00254e-05
-0.000339052
0.000230208
0.00151154
0.00170596
-0.00237722
0.000671232
-0.000157214
0.00141727
-0.00126005
-8.99728e-05
0.000342165
-0.000838938
0.000679418
0.000159468
-0.000795463
0.000982077
0.000165193
0.000615518
-0.000780717
0.000242101
-9.88567e-05
-0.000143264
0.001014
0.000746074
-0.00176008
-0.000641095
-0.000824636
-0.000803225
-0.00141613
0.000202996
-0.000554878
-0.00222319
0.000361002
0.00110414
-0.000272504
-0.000831638
-0.00213908
-0.00101282
0.00315187
-2.49831e-05
0.0001253
-0.000100321
0.000703944
0.00116182
-0.00186582
-0.00359879
-0.000263963
0.00247862
-0.00080939
-0.000266577
-0.000427406
-0.00214782
0.00179378
-0.000242463
9.43945e-05
0.00353758
-5.05092e-06
-6.7325e-05
7.23772e-05
-4.06132e-05
0.000144977
-0.000104359
-3.34366e-05
0.000158558
-0.000125139
0.01555
0.0101375
-0.00232044
0.00528642
-0.00296598
-6.94817e-05
0.000123536
-5.40483e-05
0.00228928
-0.000583315
-0.000172946
-3.64372e-05
0.000845793
0.00218196
-0.00302771
0.00125354
-0.00129407
4.0473e-05
-0.00104067
-0.00292317
0.00294295
-0.00346473
-0.00152826
0.000257407
-0.000590947
0.00033353
0.000396722
-0.000344304
-5.24076e-05
0.000292039
-0.000298932
0.00436773
-0.00136832
-0.00299941
0.00207171
0.00053794
-0.00260967
0.00025402
-0.00071213
-3.85736e-05
-3.9186e-05
-0.00125439
0.000656904
4.38513e-05
-7.16075e-05
0.000244205
-1.03147e-05
-0.000232771
-0.000238428
0.000627173
0.000103153
-0.000784531
0.000681376
-0.000302411
6.75481e-05
0.000234893
2.58599e-05
0.000176513
-0.00020237
0.00731867
0.00371048
6.98632e-05
0.000472052
-0.000772478
0.00750585
0.00309369
-0.00337939
0.00226226
0.00264148
0.000118188
0.000278531
4.62108e-05
0.000445196
0.0124073
-0.0257031
0.0132957
-0.000208344
-0.000877458
0.000609869
0.000154421
0.0018447
-0.00199917
0.000798954
-0.000238646
0.00228487
0.000249272
-0.00253416
-0.000415431
0.000462803
-4.73779e-05
6.74949e-05
-9.17111e-05
-0.00144328
0.000976409
7.88225e-05
0.000737107
0.00086874
-0.00126092
0.000392144
-0.000305477
-0.000329334
0.000634835
6.22033e-05
1.59078e-05
-0.000695359
0.000106842
0.000588517
0.000251096
-0.000497726
0.000246637
0.00180316
-0.00224366
0.000440486
0.0118338
-0.0167538
0.00492002
-0.000869283
-4.93003e-05
-6.73364e-05
-1.6565e-05
8.39009e-05
0.000111492
-0.00243196
0.000115196
0.000172537
0.000751434
-0.00188526
0.00113378
-0.00172902
-0.00105128
0.00133429
0.0116141
0.0028307
-0.0144448
-0.000849516
0.000713569
0.000135931
0.000723032
0.000476793
-0.00865508
0.0197441
-0.00109479
0.00117951
-8.46972e-05
-0.00089303
-0.000550262
-9.98258e-05
0.000234004
-0.000134182
0.0012691
0.00120949
0.00220714
0.000116138
-0.00232329
0.00106377
0.00018976
0.000257763
-0.000304285
4.65455e-05
-0.00347715
0.00571341
0.000679948
-0.000824126
0.00216427
-0.00134013
-0.00157013
0.00161373
0.00251779
-0.00108357
-0.000131664
0.000330912
-0.000199251
-6.25483e-05
0.000103327
-4.07778e-05
-0.00080175
0.000454436
-0.000512774
0.00145252
-0.00127778
0.00308094
-0.000401781
-8.62767e-05
0.000488061
0.00111935
-0.00101264
-0.000106726
0.000694354
-0.000450034
-0.000244376
0.000261527
0.000113856
-0.000639685
9.54967e-05
0.000544197
-0.000801196
0.000193228
0.000607886
-0.00204738
0.000700329
-0.00101525
0.00170088
-0.000685664
-0.000620095
0.00026247
0.00222733
-0.000550358
-0.0015197
0.000227934
-0.000530355
3.64232e-05
-0.00214038
0.00210394
0.000142268
0.000154687
-0.000136139
-0.000708975
-0.000369751
0.0010787
0.000160354
-2.28973e-05
-0.00150748
-0.00756597
-0.000951909
0.000153167
0.000798756
-0.000192619
-0.00084795
0.00104055
0.00226633
-7.28263e-05
-0.00219351
-0.00255747
0.000118014
0.00243951
0.000939591
-0.00100894
6.93849e-05
0.00187473
-0.000663792
0.00229385
-0.00620453
0.00391062
0.00167376
-0.000659751
-5.29642e-05
0.000771348
-0.000718377
0.000736394
-0.000479816
-5.57478e-05
9.48977e-05
-3.91372e-05
0.000791482
0.00147647
-0.00115489
-0.000321526
-0.000861403
0.00018705
0.000674319
-0.00180464
0.00112015
-0.00117664
-0.00260797
-0.000202882
-0.00136724
0.000124045
-0.000922869
0.000798813
0.000591597
6.93739e-05
-0.000660945
0.00165164
-0.0013804
-0.00027131
0.00016418
-0.000436522
0.000272342
-0.000579444
0.000238833
0.00181663
0.000326761
0.000157778
8.01962e-05
0.0101211
-0.00280244
-0.00067874
-0.000501569
0.000173724
0.000327848
-0.000804629
-0.000377184
-0.000255774
-0.000147587
0.000114159
-0.000486415
-0.000916809
0.00140321
-8.71336e-05
-2.30472e-05
0.000110184
-0.000792027
-0.0017155
0.00250757
5.04348e-05
-0.000197326
0.000146914
0.00866706
-0.00684064
-0.000715424
0.000450587
0.00195519
-0.00655522
0.0012656
-0.00540973
-0.0017635
0.00134018
9.07934e-05
-1.46576e-05
-7.61504e-05
-0.00100235
0.000555211
0.000447129
-0.000534616
-0.000553245
0.000325328
0.000227934
-0.000414083
0.000491929
-7.78512e-05
-0.0133031
0.00884896
0.00445417
0.00743053
-0.0123935
0.00496298
-0.000950938
0.000511308
-0.000713314
0.000133891
-0.000375207
0.00010533
0.000269879
0.000234165
-9.29456e-05
-0.000141224
0.00136379
-0.000413064
0.000462782
-0.000211684
0.000580717
-9.05403e-05
0.00198607
0.000242746
-0.00133611
0.00187367
9.1434e-05
3.96376e-05
-0.000923139
0.000174811
-0.00183774
0.000421625
0.000175058
-0.000332359
0.000157302
0.000163408
-0.000188431
0.00139373
-0.002305
0.000911259
-9.61635e-05
-0.000109128
0.000205282
-6.89825e-05
0.000119688
-5.07172e-05
-0.000252905
-0.00046042
0.00120597
0.000380219
-0.00158617
0.000255666
2.10241e-06
-0.000413558
0.00252425
-0.00211069
-0.00167136
0.00186048
-0.000189124
0.000249467
8.17951e-05
-0.000164734
5.66909e-05
-0.00529537
-0.0122078
0.00296167
-0.000827283
0.00205828
0.000516143
-0.00445252
0.00229627
-1.139e-05
0.0005759
-0.000233719
-0.000342148
0.00107445
-0.000367173
-0.000617206
0.001047
0.00022412
-0.00124792
0.00120615
4.17444e-05
-0.000793329
-0.00066036
0.00145362
-0.000423726
-0.000115699
0.000752011
0.000367329
-0.000150294
0.000133983
1.6314e-05
-0.0039914
6.35149e-06
0.00451823
-0.00054939
-0.000221217
8.33104e-05
0.000137918
-0.000188249
0.000284523
-9.62687e-05
0.000501161
-0.00069377
-6.31637e-05
0.00012236
-3.0923e-05
4.94011e-06
-0.000141908
-0.000572313
0.00142153
-0.000849224
-0.000110716
2.35799e-05
-0.000277319
0.00031407
0.000188835
-0.000502875
-0.000768983
-0.00254681
-0.0176196
0.0201664
-8.38785e-05
-9.44106e-05
-2.97467e-05
0.000114953
-0.00178632
-0.00136406
-0.000139807
0.00150386
5.22052e-05
-0.000855973
0.000803752
7.99566e-05
0.000139105
9.84531e-05
0.000105287
9.44768e-05
-0.000110738
1.62571e-05
-7.75456e-05
1.02216e-05
-0.00904769
-0.000890272
-0.000106276
-5.8462e-05
-0.000190217
-5.84179e-05
-0.000162803
0.000195087
-0.000305848
0.000110749
-0.00289693
-0.00195217
0.0004699
0.000227996
0.000523674
-0.00185979
-0.000314216
0.000308848
0.0023992
-0.00100973
-0.0013895
-0.00291007
0.00276549
0.000144594
0.000409385
-0.000329425
-0.00165731
0.000202942
0.00145438
0.00994433
0.000176777
-7.78296e-06
0.000166352
0.000325207
-0.000480894
0.000155691
-0.000601644
0.00157876
-0.000977158
-0.000257004
-0.000296239
9.88625e-05
-4.37808e-06
-8.01581e-06
7.20462e-06
-1.68474e-05
-0.000133446
0.000503619
0.000475418
-0.000979066
0.000684748
-0.000632562
-0.000632667
-0.00113086
-0.00134075
0.00138351
-4.27738e-05
-0.0017813
0.0017169
6.44296e-05
-0.000172517
-5.97985e-05
-0.000451941
-0.00405572
0.00450767
-0.00801924
0.00869403
-0.000674789
-0.000303765
-0.00105905
0.000197603
0.000907161
-0.000593543
-0.000313651
-0.000593274
-7.65396e-05
0.000669819
0.000343641
-0.000238308
0.0144433
-0.00342418
-0.00409877
-0.000188908
-0.000975322
0.00116422
0.000107457
-0.000127779
2.03325e-05
-0.000721029
0.000913001
-0.000191937
-0.000339045
-0.00347785
0.000123048
0.000110959
0.000167333
-0.000793307
0.000626037
-0.00170855
0.0135424
0.000195254
-8.47467e-05
-0.000110514
-0.00137411
-0.00124481
0.00261887
-0.000504054
-2.86293e-05
0.00189214
-6.23618e-05
-0.00182979
-0.00022713
-0.00124791
0.00147503
-8.81217e-05
2.08346e-05
-2.38634e-06
2.38629e-06
-0.0014125
0.000840178
0.00248033
-0.00169573
0.00253991
-0.00016426
0.00290202
-0.000468033
-0.00243402
-0.00040718
0.00123178
-0.000824538
-0.00077174
0.000146201
-0.000407258
0.000261038
0.000106312
1.97445e-05
0.00191021
0.000386477
-0.0022968
4.22617e-05
-0.000466
-3.06847e-05
0.000138153
0.0140552
-0.00799614
-0.00605913
0.000700913
9.49133e-05
-0.00079581
-0.000256226
-0.000535482
0.000791682
0.00394672
0.000326958
-7.75174e-05
0.000460189
-0.00118122
-0.000695348
-7.85226e-05
-0.000335572
3.70903e-05
-0.0013469
-0.000611717
9.99513e-05
-4.51976e-05
0.000274394
-7.93057e-05
-0.000598148
-0.00020308
0.00279105
-0.00320462
0.000503681
0.000435306
-0.000938961
0.000263512
-0.000870632
-0.000178473
4.38472e-05
0.00013463
-0.000641724
0.000101588
0.000540142
-0.000952915
9.88795e-07
0.00109007
-0.000338073
0.000781386
-0.000569875
0.000766138
-0.0034672
-0.000476119
-0.000232874
-0.00183819