/*--------------------------------*- C++ -*----------------------------------*\
| =========                 |                                                 |
| \\      /  F ield         | OpenFOAM: The Open Source CFD Toolbox           |
|  \\    /   O peration     | Version:  v2012                                 |
|   \\  /    A nd           | Website:  www.openfoam.com                      |
|    \\/     M anipulation  |                                                 |
\*---------------------------------------------------------------------------*/
FoamFile
{
    version     2.0;
    format      ascii;
    class       volScalarField;
    location    "400";
    object      ddt0(omega);
}
// * * * * * * * * * * * * * * * * * * * * * * * * * * * * * * * * * * * * * //

dimensions      [0 0 -2 0 0 0 0];


internalField   nonuniform List<scalar> 
18355
(
-0.0150812
1.34589e-06
-0.00708598
7.0668e-07
-0.0215313
-0.0831957
-2.18617e-05
-0.0234362
3.12736e-06
0.0144806
-3.00167e-05
0.0252691
0.00276159
-0.928062
1.39327e-06
7.22538e-08
8.20277e-07
-0.000254633
-0.00752115
8.21282e-06
-1.34058
7.1673e-06
-3.74311e-07
-0.0938486
-4.78902e-07
-1.85766e-05
3.05575e-07
4.01276e-07
2.84311e-06
-0.000113237
-0.313501
0.00300297
-2.06732e-06
1.26226e-06
3.01068e-06
7.56122e-05
-6.32087e-05
7.54687e-05
-4.94386e-05
-1.8084e-05
-3.8491e-07
-2.21621e-05
1.57993e-06
1.28213e-06
1.15656e-06
0.307869
1.6496e-06
1.42935e-06
-0.247228
2.02851e-05
2.06584e-07
-0.0279258
2.12332e-05
-0.01339
2.21929e-06
-0.000123265
-1.2336e-07
-0.562099
-7.02826e-06
-0.056607
1.44345e-06
0.00496622
-0.0112379
-0.000194478
0.00108766
-1.79089e-06
9.01302e-05
8.72856e-06
-3.5712e-07
0.639747
5.42198e-06
1.84135e-06
0.00184583
-0.000322821
-0.134186
2.29696e-07
-0.536983
4.70978e-07
4.59865e-06
-0.0884369
0.000126809
-0.0177116
-1.49494e-07
0.000119457
0.0037213
-3.46835e-07
1.55076e-06
0.00192736
-2.27202e-06
0.00160988
-0.199196
-1.37668
-0.0266952
2.10408e-05
0.220493
0.000136656
-1.28687e-06
-0.000255318
-0.00319624
1.21543e-05
0.000240207
4.48112e-06
1.86348e-05
7.7653e-07
0.000265229
-3.10632e-07
0.00309045
0.349697
-0.00176598
1.48063e-06
-3.4566e-07
-3.45805e-06
0.000386705
0.000112103
0.388071
0.000511594
3.66774e-06
-0.000906481
3.05009e-05
5.42201e-05
0.617421
-0.0172111
-0.177809
0.00111339
-0.00710597
-0.196073
-1.82543e-05
5.23878e-07
-0.0177357
5.56016e-06
-1.44277e-06
-0.122995
-1.02887e-06
-0.0226234
-0.00899737
-1.69806e-06
-0.013077
0.342341
-5.08126e-07
-1.78291
0.000362849
-0.120782
9.21332e-07
-0.101459
-0.00838944
-1.01792e-07
-0.0637393
1.70816e-06
0.000112153
-0.00482614
5.53931e-07
9.29944e-05
-0.000159305
0.00270911
1.72996e-06
-4.59566e-07
4.60034e-07
-5.38881e-07
1.07082e-06
-8.00071e-07
-0.000228009
-1.22373e-06
1.24389e-06
-0.00988127
-0.000277307
0.01481
-0.0793578
-0.0352379
0.776699
0.00046294
-5.8087e-07
-0.0182474
-3.66426e-06
-0.206171
-3.34356e-06
-9.09864e-07
-3.92355e-06
1.48351e-06
1.41794e-05
0.000773891
2.62434e-06
0.0624047
-2.12221e-06
3.86839e-07
0.0865384
1.73001e-05
-1.64812e-06
-3.5847e-05
5.2715e-07
2.94812e-05
-0.13737
-0.00864565
6.74758e-07
-2.0045e-06
-7.60936e-08
0.6962
3.32589e-08
-0.0203192
1.21239e-06
-0.938458
1.39711e-05
-0.000177734
-0.000179636
3.48884e-06
-0.019371
1.51017e-06
0.516202
4.67177e-07
-3.60982e-06
0.000440141
-2.82207e-06
0.0197189
0.00137322
0.000732431
-2.5554e-06
-0.159415
0.00101828
-0.000132191
4.9698e-06
1.65091e-06
0.000510966
-2.04593e-06
-0.000510093
0.0200817
-0.000364528
0.000363578
-1.64426e-06
0.17149
-0.00761556
0.00143187
-4.74782e-05
0.000227445
-0.0011902
-2.38033e-06
0.00121584
0.0010591
7.34647e-06
0.151893
-0.000126953
0.000642196
1.29419e-06
1.43073e-05
-0.000161736
0.00112818
3.2554e-06
2.26491e-06
1.63582e-06
0.0107723
-0.0378504
2.82406e-06
0.000227268
-0.0247115
-0.0207139
0.018611
1.30357e-06
-0.0428618
-0.000234411
-2.02035e-07
0.000334226
-1.39025e-06
-0.000497081
0.0454476
-0.00624293
0.000305057
-0.000120764
-0.0131467
-0.0222919
-0.0118094
-1.35474e-06
2.38848e-06
2.89243e-05
1.99209e-06
-0.00019136
-0.000105908
7.53242e-07
9.74851e-07
-0.000560858
-1.59188e-06
-0.00192779
-0.0630597
-0.00105495
-3.47745e-06
0.000534055
2.00531e-06
0.00056318
5.64741e-06
0.000717324
-6.82426e-07
0.000881672
0.0141684
-1.4477e-06
0.00255863
7.24095e-05
-0.000115786
-0.016744
2.46262e-06
-1.87726e-06
-0.00381034
-2.94561e-07
-0.120683
0.000180207
-0.180917
-0.000566419
-0.00512868
-0.000198373
-6.73711e-05
1.49301e-05
0.000231977
0.000483262
0.00241511
0.0252695
2.92137
3.38378e-06
0.000204591
-0.0112381
0.00058794
3.28043e-06
1.34159e-06
1.65148e-06
-0.00257591
2.62301
0.90982
0.0416293
-0.00136025
-6.1077e-06
-0.00657394
4.47973e-06
3.28607e-06
-3.38938e-05
2.72741e-06
0.00154049
3.16933e-06
-0.053316
-4.64161e-07
0.00371297
9.01219e-07
-1.96626e-05
-0.00025441
0.019574
-0.0338641
0.000644998
0.0716189
1.64672e-05
-2.47597e-06
2.32789e-06
-0.000145899
-0.0302233
-2.93711e-06
-8.63805e-08
0.0125498
-3.76998e-06
-2.70115e-06
0.0587133
-6.49792e-05
1.8025e-06
-2.67195e-05
0.000884575
2.96701e-08
0.000727431
2.91458e-05
5.10379e-07
1.23426e-05
-0.0403513
-0.00163455
2.22349e-05
8.50314e-07
0.000147168
1.54208e-06
-8.34354e-07
-0.019025
-0.011899
-0.000891346
1.67887e-06
2.33771e-05
-0.0191758
-0.00106798
-0.0413726
0.000203167
1.75086e-06
2.85378e-05
0.00560103
9.2404e-06
3.66319e-09
-0.000232862
-1.82182e-06
-0.000222824
-2.65984e-08
-0.00956935
-0.000131727
0.000122592
-2.04406e-06
1.83738e-06
-0.000165948
-3.26739e-05
-0.00623068
-0.139086
0.0164455
-0.000286779
-0.0184987
-0.00126638
6.88374e-07
3.08105e-06
-0.00126464
4.82457e-07
-0.00141745
-2.3174e-05
-0.000435739
-0.0244869
-0.00624603
-0.0289407
-0.00933304
7.7572e-07
-0.086476
9.0691e-06
9.27515e-07
-0.686562
9.27934e-07
-0.000326662
-0.00152686
0.000257325
9.69911e-07
-0.000994831
0.0240549
-0.00139968
-4.48106e-06
2.37516e-06
9.46363e-05
4.12975e-05
-1.39611e-05
0.0208571
0.0238832
9.39759e-07
0.000550715
-0.00909065
2.12596e-06
-3.16692e-05
0.000599777
-0.508337
-0.00144443
2.75056e-06
1.51593e-05
-0.00275253
-4.50307e-07
4.25296e-06
-1.63102e-05
-0.00805328
-0.128939
1.93155e-06
1.71457e-06
2.2582e-07
0.0613629
0.0111468
-4.63223e-06
-0.000106732
-0.00126397
-8.55714e-07
0.613569
0.00199796
1.71738e-06
-1.32554e-06
-0.00220058
0.00835402
-1.06852
2.994e-06
-0.040023
-1.40089e-07
3.19081e-06
-0.00335938
9.18311e-05
-0.00994931
0.00177054
0.000119781
-0.000373107
8.78914e-06
0.0473419
5.17042e-05
-0.00156152
-9.68331e-06
3.41335e-06
-3.6186e-06
3.72149e-06
-0.0105339
-0.118533
-1.3513e-05
-0.000274219
-1.15755e-05
-6.95671e-06
0.000296007
-0.000212873
1.54847e-05
-1.03903e-05
-2.25008e-07
-4.10435e-06
1.57924e-06
-0.000108288
-0.195125
-0.0310947
-0.00702688
5.37542e-06
1.0635e-06
0.00077635
3.63154e-06
-0.00080075
-0.250628
0.000123567
0.000220255
-0.000391519
3.69258e-05
-4.4214e-05
-0.226952
0.000327503
4.83474e-05
0.0112328
1.25347e-06
-0.0273758
-0.132369
-0.000280941
-3.11437e-05
-0.247529
6.50906e-07
-0.00661255
0.00306662
0.168033
4.96376e-05
1.8931e-06
-2.53714e-07
-0.290584
-0.922715
0.125258
-0.0293206
-0.000187563
6.62134e-07
0.000284686
1.88309e-06
0.000259061
-1.93833
-0.126839
-0.131947
-0.165714
-0.000107656
0.00219111
0.000736688
1.78895e-06
-2.09145e-06
-0.00360681
5.50524e-05
6.0254e-06
1.46476e-06
0.0187476
-1.49787e-06
-0.161548
0.000285257
-0.00908618
-0.0364534
-2.02337e-06
7.46079e-05
-0.016853
1.91181e-07
-0.149549
-2.21202e-07
-0.305278
0.000684917
-9.10107e-07
0.000905831
-0.00318395
-0.00223923
3.64087e-06
-1.76866e-06
-0.00244103
-0.000244113
-0.00350671
-2.08771e-07
0.00659296
-1.55952e-06
-0.206311
3.24821e-06
5.4337e-06
-0.0823279
0.000692516
0.000104758
-3.53756e-06
0.000357423
0.00079752
-0.0588126
0.298759
1.747e-05
-0.00968654
2.81642e-06
0.000686793
3.01743e-06
0.00013897
-0.116984
7.27659e-07
0.0152956
-2.0919e-06
8.87312e-08
0.000338643
0.00560892
0.000302503
-0.00808748
0.000163986
-0.00125164
-0.00118503
3.85726e-06
1.80763e-06
-0.0189837
0.00104602
0.00290481
0.00224817
-1.71449e-05
8.18174e-07
6.23699e-06
-0.000268221
-2.00898e-06
-0.000363264
-0.0112554
-0.564693
4.87372e-06
-0.437102
-0.505418
-5.96775e-05
-0.105529
4.91699e-06
-0.012679
-0.144975
1.97573e-05
-0.0355735
-0.00637447
0.311928
-0.0632899
-2.12255e-05
4.46933e-06
-3.65816e-06
0.0638563
-0.00488687
-1.92421e-06
-4.53922e-06
-0.0127719
8.81031e-07
-0.00809404
6.04912e-06
-0.00214639
-0.0866925
-0.299518
0.0469195
-0.211562
-0.00091614
-0.427662
0.000125269
-4.30079e-07
0.00028766
-0.0481929
-0.00131865
0.000510154
-5.13793e-06
-0.0049168
2.38735e-07
-1.65839e-05
2.21416
-2.11655e-07
0.0004612
0.000409156
-0.00847364
-2.60029e-07
1.10722e-06
0.000344862
0.000346818
-3.97955e-07
-0.000216722
0.00134034
-0.0179419
0.0001314
3.68101e-07
0.00130199
0.00301217
-9.18043e-07
-0.221484
0.543604
-1.11725e-06
-0.176831
-7.37667e-06
-0.0385505
2.28986e-06
-0.00123692
-0.134944
6.81671e-05
-0.502603
7.79704e-05
1.08642e-06
-0.358976
2.96983e-06
1.78765e-06
-1.44272e-07
-1.85235e-07
0.00035912
0.000982274
-0.1466
-4.97062e-06
-0.156597
-7.91177e-05
-0.260707
-0.0531219
-3.0155e-05
1.97595e-06
0.000330834
-0.00010069
-0.0161563
-1.61403e-06
1.91627e-06
-1.92141e-06
-3.72179e-06
4.40222e-07
0.0291963
-0.000298386
-0.00217416
5.87664e-05
0.00026713
-0.000187655
0.00234824
-0.0104462
7.63664e-07
-0.00316795
-0.000165919
-1.76357e-06
-0.0943979
-0.0893824
-1.92427e-06
-0.194867
3.23504e-06
0.00577395
0.000681969
1.73369e-05
-0.00270636
0.000344043
-0.238542
-2.33081e-06
0.000267129
-0.0980067
-0.00315525
0.0693273
6.66625e-07
0.106094
-0.0103364
-0.013237
-9.80111e-08
2.38137e-05
-1.94693e-05
1.26206e-06
2.9902e-06
2.812e-06
1.14951e-06
-0.209827
-0.000311389
-1.97924e-07
1.08784e-06
-1.91978e-06
4.58664e-06
-0.00388514
-0.0116642
-4.13837e-06
0.000344158
-8.66753e-06
-1.55579e-05
-4.31431e-05
1.08827e-06
-0.0357464
8.44126e-07
-8.29197e-07
-2.57537e-06
7.61414e-06
9.53213e-06
-0.00191552
0.278673
-1.34108
-6.47012e-05
-1.13752e-06
-0.050295
1.79664e-06
1.06378e-06
-0.00132949
0.143236
-0.000237186
-0.00110987
-1.36813e-06
8.74672e-07
-0.000254114
-6.627e-07
-0.00063077
-1.67108e-06
8.52502e-06
2.31099e-06
5.37384e-05
-0.364654
-8.04603e-07
1.53605e-05
-1.31535e-07
-0.0119432
0.197155
0.000689585
-9.76412e-06
-0.00645581
0.000543185
-0.00819023
-0.18342
2.7226e-06
0.019074
1.1445e-05
0.287346
5.31e-05
3.31479e-06
-3.89976e-05
0.393247
-2.13911e-05
0.000989138
-0.00678197
0.114736
0.00227166
-6.92445e-06
6.38953e-08
9.41606e-07
-3.19093e-07
-0.00105932
-0.0063889
-0.0697437
7.83848e-05
-1.57291e-06
-1.14638e-06
1.98781e-06
1.59792e-06
3.84666e-06
-1.24089e-05
-0.00457003
-0.000153478
-0.0354879
-5.69074e-07
-2.0492e-06
0.00160026
1.07941e-06
0.0790987
0.000884171
0.000342938
0.000426871
-0.0508107
-0.000653232
1.61058e-06
-8.56133e-07
1.172e-05
1.87489e-07
0.568946
-0.00658316
-0.013183
5.83006e-08
6.76399e-06
-0.000198255
4.28714e-06
-0.152313
0.0566224
7.83074e-07
-1.90896e-05
1.65729e-06
2.58547e-06
-3.01497e-06
-3.1689e-05
-0.437288
-8.16747e-06
6.68281e-05
-4.50472e-07
-1.47536e-08
3.35607e-06
8.08323e-07
-0.00044768
-1.20643e-07
-0.00176015
-1.72363e-06
0.00388545
-0.113958
-0.000234543
0.0929426
-0.000406699
-1.9483e-05
-0.00912703
0.203348
3.7625e-07
1.20723e-06
-6.05975e-07
-0.00232231
-3.20273e-07
-0.000628257
0.102425
-1.29016e-06
3.3746e-05
-2.51009e-06
0.470755
0.0981651
-4.57914e-06
1.46909e-06
-4.42075e-06
-0.00130497
-1.61937e-06
-0.00916543
5.42386e-07
-2.57711e-06
-2.8397e-06
-0.460751
0.0179482
-8.40997e-05
-0.563737
-2.83599e-06
-0.0418355
-0.00139623
6.50833e-05
6.82491e-07
-0.00480592
0.000123673
-0.030428
-0.427345
-2.76621e-06
-2.43506e-06
-6.89866e-07
3.82757e-05
-2.58574e-06
-0.00589889
-0.0130256
1.65293e-06
-2.47245e-06
6.1006e-06
-0.00114117
1.26913e-07
-9.05575e-06
0.00489595
-2.67655e-06
0.000387984
0.0123026
0.00447526
0.0143017
2.07345e-07
-7.73494e-07
1.81369e-06
0.000589676
0.00241087
0.00895769
-1.92954e-06
9.28746e-07
-0.000499574
0.130562
-4.45089e-07
-7.08082e-07
0.00188309
-3.06114e-06
-5.03411e-07
1.01295e-06
0.0546129
-1.59734e-07
-2.36992e-06
-4.78323e-07
0.00585774
-9.89274e-07
-0.00018475
0.00482269
-6.29025e-07
-0.00390527
0.000924468
0.250725
-0.00128023
8.44742e-07
0.000198948
-1.06406e-06
-1.50623e-07
5.87037e-07
0.0149969
0.00300827
-0.0166112
-4.37019e-05
-0.464444
-0.0113189
3.74826e-05
0.00627957
-0.000300229
8.77774e-05
2.58329e-05
-0.370191
2.8243e-05
-1.84975e-06
-1.10629e-06
1.48385
-0.291285
0.102015
8.18808e-07
-0.00374623
-0.0664737
0.00208657
-0.000340326
6.13325e-05
-0.000159949
0.000350185
0.00700597
-0.000111914
5.09915e-05
-3.84157e-05
-0.132128
0.187082
4.38688e-07
2.8824e-06
-1.40551e-05
0.329276
-0.000249345
-2.26294e-05
-0.38132
-0.000147014
0.000998043
4.54073e-05
-0.00220506
1.25009e-06
0.997505
-8.66251e-06
4.45352e-05
1.55917e-06
-0.000108302
1.55954e-05
-2.42729e-06
9.62854e-06
0.0570677
5.7797e-07
1.42267
0.000466308
-6.26959e-06
1.38446e-06
0.0103878
1.05051e-06
-3.12114e-06
-4.85649e-05
-0.368884
-0.000267186
6.48122e-05
1.63664e-06
1.12087
1.27608e-06
-0.00312627
1.84166e-06
0.231935
0.000123008
0.0106632
0.000307828
-1.525e-05
-0.0777824
-0.505091
0.0468478
-6.71867e-07
1.46188e-06
0.00167852
-0.118039
3.79311e-06
-0.00213194
0.000120316
-0.000387661
-2.01519e-06
-3.42021e-06
-3.71444e-05
-1.08655e-05
1.72249e-05
0.00118615
0.0018162
3.28641e-05
-0.0103768
-0.263997
4.517e-05
0.113069
3.01681e-05
-0.0170182
0.245598
-0.0442222
-4.59198e-06
0.000104572
2.10059e-06
-0.901946
-3.64875e-06
-2.85208e-07
-0.0118889
-6.25281e-07
4.67771e-06
-4.38439e-07
-1.57214e-05
6.36154e-07
0.0793159
0.0159675
0.00202281
-3.78231e-07
-2.2035e-08
-0.00879738
-7.97599e-05
-0.142462
-1.07473e-05
2.28217e-06
-2.72116e-05
0.000286782
0.216578
-0.00053819
5.58942e-07
-0.0333396
-2.44594e-06
-1.87542e-05
9.1349e-05
0.0854275
0.0192669
5.6763e-07
3.62315e-06
-0.286676
-0.0155172
-0.0206934
0.0011245
-0.00178061
0.215651
2.81872e-06
-0.025899
-0.000110754
0.147303
0.000105318
2.85078e-07
0.000105434
2.55505e-05
0.31675
-2.1032e-08
-8.23994e-06
0.166705
0.0133681
0.161266
8.74246e-06
8.32109e-05
-4.17544e-05
8.58491e-06
9.45539e-07
4.67731e-06
1.04357e-06
7.72156e-06
2.401e-05
7.30596e-06
-0.00392151
-0.000651533
-0.000686328
-0.000112514
-0.000194346
1.75157e-06
0.0101615
-1.64592e-05
2.80417e-05
-3.91508e-06
-5.62025e-05
2.90134e-06
-7.99998e-05
-7.27493e-06
-4.27057e-06
3.68326e-06
1.41176e-06
-0.26273
-0.156284
-9.51669e-06
0.507081
-0.00147013
2.081e-06
9.90263e-06
1.36948e-06
-0.203123
-9.6101e-06
3.68348e-06
1.67427e-06
-1.54004e-06
-0.0219149
-3.739e-07
5.0388e-06
-0.0199595
-1.465e-06
-3.44787e-05
-0.00587038
-0.00540438
-0.00572968
0.00775585
0.195556
2.15228e-06
0.308038
0.000185627
-1.84586e-06
8.93848e-07
0.00194368
1.54092e-06
0.000864934
0.000363416
-0.00013726
-4.54679e-06
2.16027
-0.00116071
-0.0078492
0.00597251
0.156096
-0.0207908
-0.000110367
-0.296695
-0.088214
2.04893e-06
0.417592
1.01491e-06
-2.39461e-06
0.01098
-5.44478e-06
0.0450238
0.000258897
9.34914e-05
-1.15412e-05
0.0904336
1.55417e-07
1.40492
5.65306e-07
-1.40323e-06
-0.410109
-6.37682e-06
0.000467433
-1.27634e-05
-0.00224718
-2.93976e-07
-8.64848e-07
6.93137e-05
0.179994
-7.63505e-06
-4.19791e-07
1.96134e-06
0.000140576
-1.61449e-06
1.63967e-05
0.0925517
1.50167e-07
-0.000697499
1.49382e-05
0.000223836
-0.0051316
9.83867e-07
-2.68886e-05
-0.01129
-1.63271e-05
2.47143e-05
0.000236047
-0.00146431
4.84535e-05
-1.00723e-06
-8.84482e-07
0.000246312
-0.000425868
-5.74585e-05
7.12731e-07
-7.1915e-07
-5.8033e-07
6.84129e-06
-3.24777e-05
3.83447e-05
0.00547348
-0.00112048
1.81616e-06
-0.739392
-2.13478e-06
0.000483105
-0.140313
0.000668782
-2.25354e-06
-0.0124238
0.000155215
7.04189e-07
-0.0326823
-1.96833e-05
-0.00129038
-3.7794e-06
-0.0167591
-3.27065e-05
-1.94978e-06
-1.44632e-06
0.125945
-0.0335719
-5.61097e-06
-0.0068353
-8.24378e-07
-1.11642e-05
-4.31791e-08
-0.0262333
-1.22406e-06
1.17058e-06
-0.00234774
4.29313e-05
2.15418e-06
1.15967e-06
3.18184e-06
-6.65107e-06
-2.35534e-06
-1.37161e-06
-0.000204696
-2.72794e-06
-0.822978
0.00014653
-2.84542e-06
-0.374729
0.000502689
2.51974e-07
-1.76816e-06
-5.34592e-06
-6.17469e-06
0.000284758
-0.000290812
-0.0156241
0.00381247
-1.63533e-05
-0.00287039
-0.0161392
-2.20144e-06
3.87962e-05
0.010451
-5.70048e-06
-0.0037606
-7.67996e-07
0.000849785
0.000319792
-0.00195256
0.000680274
-0.00069697
1.08163e-06
0.00725796
-2.16034e-07
9.47764e-05
-0.000169076
0.036091
-5.43691e-07
0.000245846
-0.00264949
-3.06632e-06
0.267259
-0.0269364
-6.56419e-05
-0.000493199
8.29176e-06
-5.3848e-05
0.00182343
6.66867e-07
-0.00165667
-0.00572824
-0.530306
-0.0160994
0.00887821
0.000343879
2.55974e-06
0.000909527
1.43431e-06
1.24773
0.00941442
-3.70242e-06
3.58151e-06
-0.253645
0.00179189
-2.13098e-07
-4.17177e-06
0.437202
-2.04553e-06
1.02681e-06
-0.27185
-0.003358
1.97444e-06
-0.007443
-1.22624e-07
0.048335
-0.00364656
7.85617e-07
-1.91991e-06
-8.68838e-05
-0.159555
2.63031e-06
0.000227225
-1.81746e-06
1.98269e-06
-1.48676e-06
-0.636801
-7.36197e-07
-2.65937e-05
1.13577e-05
-0.0166252
0.000185755
2.55357e-06
1.02816e-06
-0.00805982
-1.67845e-06
-1.16834e-07
0.116424
-0.0994948
-2.00656e-05
0.521653
0.000194854
-0.00701115
0.000141419
-0.00571727
0.275264
0.000274666
0.00127831
-1.58188e-06
0.000372068
-2.18838e-06
-0.0101157
-0.00381975
-8.5669e-07
4.79716e-05
1.9709e-07
-2.96441e-05
-0.103295
-2.04153e-06
-5.86968e-05
7.74498e-05
-0.000506653
-1.8401e-06
1.23746e-05
-0.000226914
0.34442
-1.32288e-06
-1.10494e-05
2.53446e-07
5.75038e-07
0.000146205
-0.000925971
-9.8854e-06
-1.54441e-06
-5.87387e-06
-1.72469e-05
-1.28334e-06
-0.125235
-1.54398e-05
7.20569e-06
-7.85126e-07
-0.00319614
6.00122e-08
-1.65983e-07
0.00101455
-4.49335e-06
-0.00281363
6.06867e-07
6.01489e-07
0.086625
-0.234081
0.0420766
-0.0434984
0.00131896
-3.68517e-06
0.168996
4.51932e-07
-6.75852e-05
-1.91734e-05
-0.367148
8.0034e-07
0.000312679
-6.82739e-07
-0.0706844
0.0027005
0.0187702
0.786658
5.75803e-05
0.00131342
5.68014e-06
-1.7812e-05
2.19731
-0.000718243
-7.52756e-07
-4.5538e-07
-4.46525e-05
4.17953e-05
-1.02326e-06
-3.90117e-06
8.9136e-07
-8.93283e-06
0.00200011
-0.00237889
1.97446e-05
-0.00159386
0.00888203
-0.901592
6.57522e-05
0.0012418
3.78462e-05
8.97298e-05
-1.65882e-07
0.00124168
0.0331075
8.17877e-08
-3.40455e-08
2.55334e-06
0.0428342
0.00225046
0.000443094
1.38344e-06
4.70123e-06
0.000366064
3.06947e-06
0.000213995
-0.000389056
-0.0350805
-8.37534e-05
-0.190716
1.67938e-06
5.288e-08
1.68745e-05
-9.93661e-05
-2.67033e-06
-1.54128e-06
-0.0420496
6.10823e-07
-0.0137764
-5.1098e-05
2.90523e-07
3.90685e-07
-0.00125026
8.97843e-06
-0.00806062
1.53301e-05
-3.21277e-06
-0.206069
-0.00667863
3.94228e-07
7.05881e-06
0.140958
-0.0283694
6.37844e-06
3.25755e-06
-3.83022e-05
0.00180227
-0.0722787
-0.0233389
-0.00279478
4.38925e-05
0.00290952
0.0150906
1.55294e-05
-7.18466e-07
-0.0528676
0.000123033
0.0244831
-0.000126523
-1.83049e-06
0.00031095
-0.00849422
-0.241562
-0.00886943
-0.313392
1.38235e-07
-1.2477e-05
1.8644e-07
1.53984e-07
2.69154e-06
8.34474e-06
1.82447e-06
-1.19196e-06
-9.54304e-06
-0.0014291
4.48294e-05
-0.000141412
3.80339e-05
1.17898e-05
3.15083e-06
-6.64044e-06
-0.000712956
0.00284477
1.98944e-07
3.51978e-07
-0.00228755
-0.000340829
-0.000313463
-8.89499e-07
-0.354151
-8.57773e-08
0.00287386
7.79198e-05
4.8539e-06
8.63404e-06
2.32832
-0.103387
-0.000803775
0.00060419
7.70514e-05
-0.000654243
-5.59908e-07
0.000587648
0.00199643
-3.50685e-08
-0.0187487
4.09112e-06
8.22095e-07
0.000476879
2.82291e-05
2.16933e-05
-0.000264837
-0.236994
-0.000763042
1.04955e-06
4.78729e-07
-5.65646e-06
-0.00130359
3.11059e-06
0.0568113
-1.50497e-06
1.66741e-09
8.63575e-07
-0.00754622
-1.43777e-05
-4.45814e-06
1.50455e-07
-0.0154532
-1.14443e-07
0.0629169
3.42064e-07
-0.000504886
0.000397555
0.00144645
5.27216e-07
4.90173e-05
-0.284412
0.0164014
2.78076e-06
-0.000625357
3.69399e-08
-3.93417e-06
1.59158
-0.318243
7.99521e-08
8.7506e-07
7.04038e-05
-1.61208e-06
1.03134e-05
-4.41777e-06
-6.26956e-06
0.000412751
-0.00047005
6.27056e-05
0.000343237
-0.0147769
5.41002e-06
6.80002e-07
-4.75058e-07
0.00424122
0.000675236
3.65125e-07
-0.073666
-0.00011835
0.281609
0.000414381
-9.63084e-05
-4.86128e-06
-4.39687e-06
-0.00111318
-7.10046e-05
-0.000202712
-9.01756e-06
-0.000393108
-0.397845
9.04501e-05
-0.00206727
-5.8752e-06
1.76446e-06
-4.83826e-05
-2.63302e-06
8.88937e-05
-1.08955e-08
0.0020038
-6.95596e-06
-1.65665e-05
0.13326
0.00283392
-0.300439
7.1142e-07
-0.00602546
5.04094e-05
0.121225
-0.00295856
0.0125319
-8.24487e-05
-1.20993e-05
-0.00535886
2.99892e-06
0.223752
1.35415e-06
-0.00185307
2.27735e-05
2.05765
0.000614132
8.48583e-05
-0.00177115
1.24019e-06
-8.08603e-07
-8.92027e-06
-1.65896e-05
-9.25325e-06
7.20667e-05
-1.07904e-06
0.000263843
-0.00559411
0.0865777
-2.68429e-06
-0.0714737
1.78268e-06
-1.20092e-06
-6.04542e-06
0.00327199
3.37084e-05
-0.279029
-2.25528e-06
5.15441e-05
-0.0293512
-1.06182e-06
-0.000138105
5.51436e-07
-0.000131825
-0.102445
-0.000138349
-0.124714
0.00084001
0.00170367
0.000105489
-1.16486e-06
4.85843e-05
-0.0137664
5.45862e-06
1.03589e-06
-3.53406e-05
9.958e-07
0.0212692
3.00736e-07
-0.00549968
0.0160684
-0.00247837
0.000325429
-0.0109207
0.000367773
-5.76231e-05
-0.460682
-7.40991e-07
1.3724
-3.82561e-06
7.90536e-05
0.0207664
0.0167884
0.000547678
-0.293083
-3.09371e-07
-0.105964
8.23281e-07
0.075322
1.79744e-06
-0.000630691
0.001637
0.000570186
1.63093e-06
1.5285e-05
2.93494e-06
-0.000500113
0.0864398
0.000281164
0.125817
-1.73051e-06
-0.202279
-1.99057e-06
-6.31235e-07
-2.02561e-05
3.1002e-06
-0.017625
-6.18601e-06
-1.6272e-06
-0.00105367
8.40654e-07
-0.0830134
0.000276928
1.33577e-06
-0.0453211
-0.000168233
-1.34716e-06
1.96454e-06
6.81472e-05
-2.42568e-06
0.000851589
4.17504e-05
-8.98625e-05
-0.000113904
1.47934e-06
1.56883e-06
-0.00393912
-1.94864e-05
1.73862e-06
1.54736e-05
0.00011782
-2.35065e-06
-0.083604
0.000447278
-0.125454
0.000187794
-0.00817313
-0.000649342
-1.46012e-06
-0.000465916
-0.00030498
8.2562e-07
0.121306
-3.64391e-05
-0.00501282
-0.00302265
-0.000518978
-0.0630577
0.562238
7.28403e-05
0.00132733
0.00584686
-0.080441
-2.2216e-06
-0.000116571
1.30171e-06
0.000194733
0.135764
0.000836202
8.19458e-05
-1.54634e-05
-4.14385e-07
-5.42563e-05
0.0149738
-0.000214506
-0.000958257
0.462686
2.07582e-06
3.41364e-05
2.95235e-05
2.19221e-07
2.85202e-07
6.6166e-05
0.00166174
-0.0116536
-1.8187e-05
-0.000125455
-0.127633
-3.46896e-06
-8.71061e-08
8.68626e-05
-2.20101e-06
0.0143609
0.0563108
-0.0200542
-0.00804686
-0.131911
5.84706e-05
-1.05502e-06
-0.0571764
-0.00169659
0.000486712
6.07066e-06
1.04779e-08
-0.102554
0.00112288
-6.60265e-07
1.89719e-06
0.00052809
-0.100333
-4.25236e-05
2.16773e-06
0.183246
-4.67769e-05
-0.00147758
1.61191e-06
-0.000705644
4.49013e-06
-9.94434e-05
0.000307045
-6.47882e-07
0.935589
2.52308e-05
8.77663e-06
0.00280345
0.0186674
-0.00437649
-2.26944e-07
-0.00369159
2.32558e-05
0.00255241
-0.000299603
0.000318551
1.11681e-06
6.11772e-05
0.160487
-4.97175e-05
0.187403
2.15409e-06
0.125273
-6.40317e-07
2.01488e-05
0.124208
-8.27736e-05
0.139778
-0.00391759
-5.49919e-06
-0.152738
0.846672
-9.67123e-07
-0.171824
0.00147911
2.34736e-07
1.64561e-05
0.189392
-0.0812653
-9.70109e-06
-2.16671e-06
0.000581332
2.74979e-06
0.956388
-0.265461
1.17288e-06
-1.52767e-05
-7.06649e-07
0.48756
0.000184817
0.0167271
3.47459e-06
0.836808
-1.31916e-05
-0.00430988
-0.0139802
3.38905e-06
-1.78974e-06
0.000250572
0.0202558
-1.45847e-06
-1.07563e-07
1.96425e-07
0.000338954
8.85711e-05
0.24282
0.000439504
-3.76794e-06
-2.48832e-07
-0.000127495
-0.239963
0.00235028
-9.74828e-07
-6.86387e-06
-0.0149422
0.000987921
4.30065e-05
-0.0277692
-0.000450549
6.80622e-05
0.110816
1.49791e-05
0.000439589
-9.08078e-06
0.0150577
1.32703e-06
2.56149e-05
-0.0241133
-0.000511781
-7.94474e-10
6.67475e-07
3.73563e-06
0.000309983
-0.00236159
1.47729e-06
-2.05411e-06
-2.39443e-05
0.00115431
-0.00356215
-7.35093e-07
3.5272e-08
3.37214e-07
-0.00137768
-0.00212051
3.54771e-05
2.95888e-05
0.83184
-1.09909e-06
-0.542375
0.00164731
0.00107905
-0.000171304
-0.000955796
-1.86485e-06
0.0223952
0.00308337
-0.0042608
0.219029
0.000131844
-7.24682e-07
3.52385
3.41087e-06
-0.0080303
1.82794
-0.00115388
-1.17958e-06
-3.36717e-05
-0.00978048
-1.90129e-06
4.52274e-05
0.0157928
1.79828e-06
-0.00471682
0.000133606
-2.93315e-05
2.24867e-06
-0.000808602
-0.0273874
-4.74816e-07
3.28243e-07
0.180656
-1.90567e-06
5.72321e-06
6.24372e-07
3.46601e-06
-0.145577
-0.000854453
6.99204e-05
5.82534e-06
1.26805e-05
-0.000428258
-0.000792901
0.0302925
9.61701e-06
1.4346
-0.00516812
0.000120934
0.184135
-1.27269e-07
1.00561e-06
8.21467e-06
1.62679e-06
9.20002e-06
-4.28522e-06
4.61115e-05
2.46503
-2.47795e-06
-9.71053e-07
-2.55602e-06
3.5751e-06
0.0875856
-1.11047e-06
0.521864
0.0564935
-0.00879549
-0.000834432
0.186266
0.00223416
1.61781e-06
-0.000126407
9.50601e-07
-1.38454e-05
0.000889282
-1.81447e-05
3.14348
-4.78198e-07
1.37112e-06
0.00134612
-0.000178
2.16258e-06
-9.21234e-07
-0.247879
-5.46912e-06
-0.00519398
1.16791e-06
-9.4698e-07
3.25528e-07
0.0729009
6.44751e-06
-0.0147899
-0.00381188
-0.00392021
-9.87452e-07
-1.24823e-05
0.000387766
0.0756535
-1.48793e-06
0.000504691
-1.12906e-06
0.0979628
0.444313
4.94544e-06
-0.143107
2.93014e-06
6.80801e-05
4.41606e-05
1.367
0.000288656
-0.000474067
-0.000407247
0.00184356
-1.70225e-05
0.000154271
-2.39801e-06
-0.0408358
-0.0127622
-0.0102806
-4.21272e-06
0.000933515
-0.0566579
-0.469717
-5.09572e-05
0.00028043
-0.148109
-0.143747
1.95871e-06
0.00157116
1.35609e-06
0.000100777
-8.56215e-06
-2.09218e-06
-3.32107e-06
0.0596975
-1.79409e-05
-4.98361e-06
-0.00505682
-0.0317281
0.00817601
0.00505851
0.446027
1.34025e-06
-0.15959
-0.00846664
5.06105e-08
-1.19238e-06
-0.120074
0.00107715
-2.16404e-06
3.22171e-08
0.00127404
5.49828e-07
1.22973e-06
-0.0863164
1.33478e-06
2.46446e-05
1.5057e-07
-5.46236e-07
5.1513e-05
3.24587e-05
2.65121
0.0010829
-0.000114232
1.89589e-05
0.000382124
-0.325334
-5.4534e-06
3.57838e-05
0.0925341
0.0291498
8.63509e-07
0.00012126
3.83777e-07
9.433e-07
0.0216669
0.045737
8.60853e-07
7.17996e-07
0.145379
-0.200506
-0.242965
0.0216272
0.0012372
-0.0459969
-4.62122e-06
5.42812e-05
0.00027082
7.00734e-05
0.0238242
-0.115093
0.00174292
0.0255174
0.267902
3.58696e-05
-1.37282e-05
-9.61892e-05
-0.000166327
0.464584
-3.96314e-07
0.0013971
0.52673
0.00465902
-6.82257e-06
5.16444e-05
1.3703
1.06681e-05
0.000177677
0.0261949
1.16023e-06
-1.59623e-06
-0.00019619
-0.28387
-0.000195206
4.29541e-06
-1.45713e-05
0.0228082
0.000258358
0.245928
6.21888e-08
-1.63019e-06
-0.000932244
-2.1324e-05
-0.00663196
8.31769e-06
-0.0111233
0.00409768
5.50628e-07
-1.63861e-06
-0.306969
0.154082
-0.0785372
-3.06665e-07
3.54337e-07
4.26028e-06
2.13114e-07
9.69596e-07
-1.3175e-06
0.00377782
-7.67272e-07
-3.63289e-06
1.86237e-06
-0.000308433
-7.07831e-05
0.00283858
-0.0191175
-0.0115282
-0.00194028
5.23297e-05
-0.000471692
-0.00867548
-0.000397551
0.000498483
0.000372883
8.6938e-07
-0.699077
-0.000245087
-6.2903e-07
-5.10879e-05
0.4608
-3.8389e-05
0.401242
-1.3437e-05
2.05906e-06
0.000393303
7.52515e-07
-1.98557e-06
1.6942e-06
0.00275943
-0.0258739
-9.33971e-06
2.91904e-05
0.000108066
0.0454823
9.52398e-05
-0.101034
4.14492e-06
-0.000502651
1.10579e-05
5.70029e-07
-1.70231e-06
2.49299e-07
3.93247e-07
-0.00248066
-0.0817766
-0.000370812
0.00175042
-0.00896539
0.213391
-0.00156774
-2.62955e-05
-0.00723401
-0.0011941
0.625416
-3.0563e-07
0.000441072
0.00197857
-0.223546
1.17609e-06
-1.29646e-06
4.34334e-07
-6.09337e-07
-0.0236965
5.21111e-06
-0.00572517
0.00119732
1.0815e-06
0.00200361
-1.59721e-06
0.173884
-1.82957e-06
0.0105825
-2.1851e-06
-1.81822e-05
1.52178e-05
-0.00145578
-0.11878
7.53735e-08
-0.000383868
-0.178601
-8.67317e-07
-1.16918e-06
-0.00715855
-9.42739e-07
-0.158059
-0.00476075
-3.06572e-06
-0.00237766
-2.80714e-06
0.00080034
3.05992e-06
-2.97492e-06
-3.32419e-06
2.12213e-06
-2.0817e-05
3.50199e-07
-1.73022e-07
-1.79622e-05
-0.00381103
8.48294e-06
-0.00771081
3.02229e-06
-7.34949e-07
0.000414212
-0.00187365
1.96058e-05
-1.72247e-06
-2.80616e-07
5.05462e-06
-0.00263692
0.874641
-0.000939429
2.44949e-05
-1.7335e-05
1.46951e-06
-0.000601094
4.98255e-07
-2.89452e-07
-0.00412478
0.20515
-0.000651051
-5.15325e-07
3.0734e-06
1.75763e-06
-7.87304e-07
-0.00147892
1.98164e-06
-0.011954
8.66776e-06
-0.0236693
-0.000175515
0.0108827
-6.65015e-06
-0.00308772
-0.0674684
0.0167176
-0.172831
0.000413393
-0.00455712
0.600883
9.04948e-06
-0.000928668
-0.0552611
0.000463558
-2.0379e-07
1.28175e-06
0.000194469
-0.00601703
-2.25141e-07
0.000242837
0.461593
1.13771e-06
-1.39649e-07
1.01862
-0.529519
0.0229914
-0.174365
-0.224972
3.40772e-05
-0.000309736
-4.3895e-05
-0.000173914
0.314063
1.00469e-06
-0.460246
-0.0377348
-0.000104637
4.81588e-06
-8.75606e-05
0.00225685
-5.72499e-05
-0.237797
1.32359e-06
2.18766e-07
4.61586e-07
0.0762986
0.306962
-0.0173818
-9.8473e-06
-7.2873e-05
4.96426e-06
-0.0729714
7.03611e-07
3.53331e-05
-4.76811e-05
-0.00524341
6.08546e-07
-0.00717534
-0.123819
0.0410368
-3.16983e-05
0.112296
-6.23617e-05
-0.259183
1.62861e-06
-0.077345
-0.00273626
0.00547406
-0.000254474
-0.08748
0.00475648
6.38233e-05
4.69085e-05
-0.00156166
0.000103432
-1.27496e-06
4.76765e-07
-9.53099e-05
-2.86073e-05
0.135072
9.70106e-07
-4.27809e-06
-1.92859e-06
-4.03074e-07
0.125444
1.38611e-06
3.39262e-07
7.27345e-06
0.0168701
-0.000425676
0.000248974
2.31103e-05
-2.00126e-05
0.0115377
-3.34874e-05
9.24648e-07
-0.00321263
-0.000939997
3.19991e-07
0.00159765
-1.05081e-05
0.16951
1.10028e-06
-0.0229939
-0.00136208
-3.75682e-06
-7.77218e-07
-5.19416e-07
-1.63358e-06
-4.37761e-07
0.436784
-0.000535227
-2.77145e-06
1.0757e-06
-9.30565e-07
2.13496e-06
-0.000604111
2.88828
0.000433112
0.0185422
1.64744e-05
0.0885936
-1.41063e-05
-0.00377935
6.9783e-07
1.49509e-06
0.000373984
-1.16202e-07
5.56534e-08
-1.36996e-05
-0.000381132
-0.0908916
-3.3972e-07
1.5952e-06
-0.0424951
-0.284578
0.0142586
-0.00122496
0.000154279
0.000215717
0.698904
0.000191951
-1.46811e-06
1.42171e-06
-0.596592
1.48414e-05
6.5467e-06
-0.00233057
-2.61824e-06
0.00012156
1.1556e-06
2.03935e-06
-1.65302e-06
-0.00671831
0.000293171
-2.36185e-06
1.1834e-06