/*--------------------------------*- C++ -*----------------------------------*\
| =========                 |                                                 |
| \\      /  F ield         | OpenFOAM: The Open Source CFD Toolbox           |
|  \\    /   O peration     | Version:  v2012                                 |
|   \\  /    A nd           | Website:  www.openfoam.com                      |
|    \\/     M anipulation  |                                                 |
\*---------------------------------------------------------------------------*/
FoamFile
{
    version     2.0;
    format      ascii;
    class       volScalarField;
    location    "400";
    object      ReThetat_0;
}
// * * * * * * * * * * * * * * * * * * * * * * * * * * * * * * * * * * * * * //

dimensions      [0 0 0 0 0 0 0];


internalField   nonuniform List<scalar> 
18355
(
287.637
615.672
509.496
601.862
424.776
113.2
603.966
423.576
581.353
132.64
591.074
599.905
600.667
235.343
603.127
619.4
601.709
586.68
394.156
553.38
85.2434
558.702
615.334
105.72
615.181
600.354
604.615
600.828
578.688
592.044
107.056
524.153
615.897
621.573
595.76
590.479
493.209
590.39
591.868
582.833
585.931
591.761
621.291
615.882
615.716
676.673
601.922
602.173
99.2228
601.3
605.071
45.7034
599.926
364.56
594.478
555.282
596.597
84.7668
599.951
50.0077
621.439
570.826
362.38
581.73
467.56
609.455
519.982
492.003
622.395
154.483
607.42
594.607
545.434
569.351
130.479
622.06
88.5131
621.905
607.908
125.358
520.987
129.038
622.22
522.842
414.079
584.956
578.731
434.654
606.329
432.66
74.88
368.26
127.547
601.677
242.817
566.706
606.054
575.657
419.284
567.202
416.455
608.178
602.885
631.069
527.218
619.25
476.572
237.017
463.804
620.255
603.582
591.81
572.911
526.685
241.154
572.677
608.635
126.286
548.607
526.223
192.62
556.733
74.3761
419.108
126.988
560.986
604.127
601.96
287.048
570.989
606.063
45.9966
590.84
467.724
346.311
606.504
397.233
249.41
597.604
143.047
499.295
418.847
603.879
48.799
343.912
596.947
46.1116
629.686
575.334
130.77
601.092
529.101
607.618
522.555
621.116
613.266
601.54
589.972
604.24
610.526
591.68
590.345
620.072
673.074
586.142
140.647
44.634
267.107
199.189
501.203
592.613
461.059
589.104
96.036
594.75
589.621
595.096
631.035
548.054
491.055
587.064
150.083
566.104
600.385
173.775
603.688
585.339
433.562
602.047
603.715
742.545
422.27
615.153
621.197
605.162
188.436
610.655
266.219
615.51
159.677
604.659
558.46
591.387
588.577
273.74
574.318
210.936
599.346
617.153
605.691
579.698
105.077
573.292
595.619
629.493
90.0201
498.795
516.586
573.634
602.209
467.319
622.926
438.273
509.064
412.522
536.679
622.476
292.078
301.993
547.144
587.844
522.484
144.384
622.598
757.744
418.558
564.165
645.237
537.387
597.527
615.166
554.227
606.987
535.637
574.712
595.261
601.782
117.208
92.9125
607.099
566.097
94.9486
597.452
479.984
631.139
681.572
530.409
592.145
529.415
607.731
131.966
352.182
427.748
513.268
591.013
555.702
607.284
411.47
607.952
594.791
602.409
620.2
554.56
515.86
601.807
577.123
475.242
606.886
373.975
75.0638
496.694
578.628
573.425
620.381
435.406
578.13
500.923
593
508.877
109.929
616.453
472.212
542.941
526.181
528.512
593.972
621.579
377.702
578.545
501.333
499.312
264.451
429.71
429.8
571.71
470.293
600.355
537.64
515.209
468.696
162.268
398.698
600.451
575.994
366.175
571.837
600.424
602.52
600.778
519.927
399.327
70.5007
163.743
486.171
506.695
122.966
629.696
576.338
501.966
589.625
539.761
599.076
117.256
618.757
140.641
600.763
580.221
561.704
600.123
251.15
524.198
180.72
572.485
606.3
590.039
517.938
129.378
605.525
590.296
154.466
571.537
605.807
599.67
527.203
601.25
594.856
492.795
584.031
500.777
620.808
595.893
568.526
55.7728
159.96
621.409
603.501
455.621
600.637
591.392
118.301
162.624
461.252
589.783
562.787
600.346
591.943
598.183
535.645
617.717
468.322
427.963
570.119
596.36
588.921
592.213
595.82
605.777
497.507
608.138
529.737
603.648
601.051
552.871
599.102
503.851
39.8516
148.625
564.607
593.644
496.531
599.658
598.798
476.187
601.298
450.666
604.212
564.955
124.193
406.762
254.927
411.33
630.845
49.6018
566.52
602.002
64.6099
600.135
486.801
629.125
461.258
602.215
462.221
131.101
433.437
590.39
615.061
432.485
544.136
603.532
136.734
331.489
602.138
476.721
491.779
615.161
584.457
518.215
64.5476
440.78
572.566
597.8
484.252
600.186
619.26
600.851
421.034
40.6863
618.14
580.608
597.784
600.718
424.625
621.4
485.336
438.627
586.146
127.788
561.131
564.767
597.651
445.475
597.747
185.164
618.636
259.994
597.841
618.252
423.68
540.171
484.286
543.482
526.382
568.382
559.41
598
548.185
515.687
568.498
619.108
571.295
618.776
555.826
41.847
462.434
585.361
583.444
569.328
606.636
575.428
563.417
621.897
601.03
431.231
615.041
565.476
240.039
266.66
368.058
571.334
584.483
501.552
563.567
133.318
577.814
579.803
528.802
525.279
547.014
518.942
34.6709
454.126
594.142
100.064
590.823
260.267
50.3187
532.323
584.617
33.5069
601.566
463.718
521.65
182.309
549.997
572.203
585.306
254.28
125.547
203.964
126.17
561.522
586.989
520.143
595.374
578.498
141.243
87.2531
40.5846
62.4599
552.586
531.035
572.785
601.82
595.88
543.242
521.605
577.285
595.975
154.028
606.861
62.0812
568.493
487.094
599.301
595.63
525.579
281.169
600.26
39.1509
594.644
316.769
455.741
591.816
575.102
416.522
408.453
585.354
622.581
485.191
525.32
478.047
603.774
584.868
607.203
500.672
593.055
599.041
582.175
513.372
433.13
597.604
535.627
536.782
115.112
62.4726
518.042
600.165
595.188
570.601
571.111
519.696
28.5845
615.852
148.831
580.4
595.676
511.989
135.269
580.053
360.33
556.379
500.136
134.256
629.543
601.265
275.016
435.677
247.551
533.343
581.298
596.845
607.078
576.985
573.582
626.67
316.26
51.2445
598.878
60.3034
61.9328
591.96
609.655
618.949
294.737
189.975
628.195
135.288
485.952
68.5797
111.03
597.11
607.263
591.696
158.113
512.72
589.075
570.163
319.041
566.304
482.2
606.252
485.733
45.8132
243.68
394.755
358.166
429.94
82.0472
525.243
604.482
553.317
110.732
509.493
514.448
589.947
308.106
593.252
582.604
454.306
587.983
540.055
451.186
369.607
600.842
600.241
511.062
530.706
622.914
602.951
574.045
360.269
528.421
597.912
424.631
133.918
592.09
372.549
160.659
584.691
223.622
622.049
488.654
593.389
622.209
586.36
553.624
67.3205
531.013
600.413
224.199
591.533
620.472
592.238
604.01
549.865
436.208
252.801
581.961
39.0186
594.071
264.041
76.3623
581.529
589.418
530.061
620.896
590.789
595.573
620.878
619.826
589.231
599.978
819.817
587.361
465.84
549.606
576.376
591.879
543.575
445.383
615.046
546.541
414.774
622.135
82.7738
47.2643
605.756
217.713
595.873
143.768
504.087
628.491
488.408
550.06
272.608
602.047
537.721
136.26
357.109
176.208
599.758
171.15
570.814
295.181
602.891
538.785
596.837
581.803
600.307
598.41
615.936
196.827
503.125
606.194
621.752
607.885
574.239
363.747
567.026
616.637
538.031
584.323
582.471
590.005
603.538
515.914
621.849
605.483
588.899
572.907
538.997
598.921
478.11
263.418
515.598
605.818
597.225
621.055
621.681
591.497
259.401
590.439
600.923
619.478
615.364
582.505
622.547
543.38
594.9
568.557
600.047
537.495
85.8863
605.209
565.967
598.341
394.829
171.928
511.664
572.755
520.904
563.257
488.172
36.9552
589.246
214.074
564.901
78.3993
588.133
617.449
621.29
218.979
622.003
512.496
657.352
599.514
539.237
577.956
603.753
598.678
592.763
516.658
449.812
121.677
445.503
596.635
622.603
573.812
599.469
609.115
562.61
464.859
515.162
120.613
597.192
596.751
571.457
595.931
599.641
451.109
425.555
591.508
48.7328
589.769
602.364
622.445
574.753
598.675
118.83
509.781
584.168
616.807
573.819
596.229
608.798
38.4426
419.063
621.758
621.533
601.879
599.851
605.218
592.186
692.407
622.577
592.512
616.699
612.662
599.898
582.29
524.633
612.949
518.76
619.463
169.207
621.14
566.279
420.256
540.026
567.887
488.844
185.458
595.632
609.079
615.058
502.186
583.117
587.261
216.152
580.771
597.203
601.838
77.9521
186.47
581.391
610.163
516.527
430.936
595.933
412.889
606.284
623.076
514.119
216.727
124.496
148.536
694.635
621.491
505.874
441.796
510.175
592.259
442.9
580.57
380.535
129.917
603.776
621.379
600.332
571.336
621.128
417.114
136.622
620.896
580.256
575.551
492.425
590.007
600.08
783.692
601.491
602.593
153.184
443.203
480.477
599.7
618.585
620.647
565.389
547.037
538.752
606.311
611.705
558.391
179.255
615.238
603.766
408.935
605.533
608.541
594.792
62.8885
618.979
596.856
615.163
545.903
618.796
494.004
597.14
602.472
389.26
478.082
590.712
439.817
601.157
505.602
607.255
608.704
601.189
109.418
98.5768
683.767
494.347
186.585
499.294
598.959
443.638
418.458
533.894
620.65
60.0266
568.23
608.826
612.497
686.309
49.4723
237.15
609.499
573.17
204.317
541.283
566.053
585.332
594.101
498.457
145.933
589.973
567.357
591.431
42.9884
770.811
591.675
591.604
604.738
65.227
556.393
583.18
148.981
496.212
572.447
586.232
129.278
610.056
126.707
550.697
620.955
602.905
616.549
620.915
606.109
570.791
581.793
613.691
121.07
501.618
577.143
607.302
435.977
593.221
582.593
568.304
112.628
428.226
550.245
576.667
70.2032
610.685
431.973
577.933
231.006
574.163
121.296
498.524
602.065
455.216
70.3323
345.892
613.283
593.903
498.803
29.2493
630.272
440.729
596.144
570.355
606.764
621.297
601.129
552.18
621.646
570.198
545.211
577.705
598.091
61.2895
549.31
180.433
620.697
593.12
69.4153
599.876
621.824
557.109
579.605
243.48
598.215
608.844
559.887
581.121
578.302
580.471
553.779
593.61
55.9197
99.0109
467.242
608.983
592.139
304.094
621.311
696.235
583.456
580.299
566.925
573.641
602.825
606.016
589.41
269.462
580.13
561.778
503.908
59.0531
144.659
594.866
606.633
30.9057
110.672
281.51
611.441
497.855
589.811
615.713
488.738
591.573
118.267
563.044
595.938
592.32
618.876
60.9526
589.5
600.989
178.323
464.632
195.251
621.474
545.286
621.578
628.917
619.127
560.785
591.16
575.078
619.348
570.378
435.55
556.445
527.321
611.159
590.013
599.572
114.816
582.526
594.976
592.336
621.526
574.184
565.456
603.106
591.437
608.914
618.992
306.863
518.199
602.377
61.1379
481.401
589.958
573.662
547.931
330.713
571.6
620.931
621.041
621.65
272.842
589.563
617.312
386.737
622.458
627.072
585.948
624.186
419.572
590.178
228.913
618.809
236.623
500.686
592.374
615.802
569.758
593.465
467.078
438.336
589.125
585.191
378.47
396.218
259
368.092
233.126
412.274
598.862
475.354
58.192
620.556
179.455
609.77
541.52
599.502
608.272
357.634
553.422
542.011
600.51
623.786
595.419
226.098
593.951
619.131
274.689
626.746
559.548
571.164
445.013
598.755
605.357
541.304
216.359
602.838
589.105
618.299
516.079
595.514
538.593
161.345
604.859
524.425
569.261
578.864
588.615
602.768
568.353
577.512
582.657
580.606
578.835
128.587
597.394
598.52
604.067
507.884
414.954
589.33
601.025
604.651
613.391
629.103
621.419
591.476
723.821
443.429
576.086
274.167
609.599
610.278
30.9402
515.229
622.8
408.076
605.265
600.923
107.537
581.958
422.615
626.894
577.377
600.2
621.875
618.249
186.755
398.213
584.746
290.022
618.606
599.522
609.773
599.056
596.551
611.083
587.326
544.64
595.268
582.83
609.441
572.835
580.085
607.163
588.125
621.742
226.13
470.112
618.816
350.799
505.585
603.825
609.172
586.432
607.132
499.937
525.891
403.8
403.819
581.148
558.102
555.574
592.338
603.833
484.943
534.503
127.838
619.107
572.447
556.01
588.832
576.719
524.249
602.283
586.675
590.521
539.929
595.092
599.167
595.262
532.613
678.967
607.335
126.906
130.349
538.413
527.598
474.515
623.572
515.93
583.27
457.04
110.161
49.3476
617.333
585.867
496.683
600.27
463.463
612.517
74.2164
688.376
590.673
609.269
393.48
536.28
591.185
592.71
80.7883
590.393
611.071
299.871
504.95
620.756
295.274
617.669
656.172
507.113
594.537
597.964
532.772
57.0149
609.074
492.115
600.059
594.053
607.36
104.611
586.022
595.88
600.641
308.447
490.56
608.658
625.83
563.489
595.469
615.522
321.26
42.994
570.115
400.057
533.832
510.497
549.334
476.742
123.059
562.394
608.413
616.511
509.622
593.538
109.002
360.272
613.745
596.933
617.238
621.684
355.828
593.367
591.254
535.313
452.259
597.727
569.757
525.642
135.436
593.203
599.509
615.413
611.75
513.415
518.486
579.076
596.783
602.391
599.438
616.38
45.8976
582.463
606.155
597.565
492.605
616.713
615.509
455.891
596.101
434.665
591.135
593.558
173.28
29.8595
54.866
805.507
583.639
600.799
61.444
610.276
530.607
622.335
227.829
631.289
507.21
597.937
74.6491
535.969
1032.25
68.7112
596.788
506.285
569.589
576.036
373.322
479.468
597.412
617.813
518.911
498.214
604.071
602.36
610.371
620.896
414.65
111.824
569.291
540.878
52.0104
228.642
540.009
573.617
528.585
542.967
598.622
583.836
406.489
603.713
617.426
578.561
400.973
371.063
501.702
576.322
600.571
493.94
592.218
560.729
424.076
384.237
535.956
375.618
620.726
592.594
576.275
620.092
591.614
606.428
420.613
600.776
137.598
607.867
610.083
613.611
558.463
572.797
504.071
397.966
617.252
408.319
574.1
614.035
625.052
170.853
395.343
624.417
608.813
606.116
583.22
596.532
399.866
595.617
571.782
598.63
57.0489
561.287
598.206
527.856
520.915
158.433
592.574
595.634
466.086
516.378
29.6816
488.476
249.1
616.003
600.473
589.559
589.131
519.625
569.521
581.919
608.258
572.66
606.344
567.094
588.799
532.658
571.533
593.843
604.688
446.842
522.42
603.356
595.651
406.433
597.29
568.199
600.524
86.3174
615.729
489.214
555.1
619.352
600.196
117.037
364.845
592.728
555.75
567.019
432.103
605.5
496.214
570.648
600.487
422.992
608.985
600.533
581.221
578.915
501.436
399.151
31.53
493.992
619.121
602.226
603.506
459.915
563.513
302.597
607.501
594.914
599.111
490.211
600.655
578.607
590.791
565.095
615.5
232.287
615.478
515.717
605.353
510.122
601.313
525.131
177.703
466.35
619.028
447.419
594.673
593.52
343.68
272.381
617.498
595.823
534.928
618.413
599.522
580.099
574.991
524.457
508.556
551.513
503.761
585.24
600.537
601.899
597.666
550.54
483.658
603.171
28.9976
609.866
61.0784
528.197
620.917
609.414
609.67
378.703
602.001
583.828
582.965
605.571
211.836
549.509
504.199
577.279
581.311
552.376
590.983
551.166
602.988
557.972
555.33
577.892
270.329
535.02
186.452
600.952
569.518
597.74
188.956
409.349
304.784
584.357
622.541
503.826
604.088
221.293
567.427
423.616
570.667
86.2106
248.529
552.512
493.131
609.489
614.044
581.219
622.44
567.751
530.578
608.375
576.359
460.965
207.9
605.778
571.253
620.98
595.692
603.588
587.782
596.158
313.409
589.55
596.591
322.098
605.594
589.718
602.698
596.542
334.29
572.249
48.2203
562.211
411.282
529.887
598.248
592.444
535.582
551.955
593.326
545.015
600.529
311.037
609.591
51.9965
386.223
417.684
545.376
331.351
658.365
622.668
74.4003
595.918
225.17
569.167
538.12
116.045
121.473
498.587
60.4342
604.796
189.208
629.844
51.7545
620.08
550.769
424.892
576.435
609.953
559.015
591.314
448.294
198.577
448.555
257.365
605.947
78.1238
598.757
575.251
594.923
597.45
227.523
577.748
613.568
520.305
579.572
111.18
369.594
594.13
486.718
453.203
606.964
587.739
570.455
617.189
518.614
470.808
586.311
558.658
615.42
593.784
499.335
577.657
587.534
556.534
624.379
619.809
257.34
569.333
41.2409
494.204
514.692
536.8
597.116
573.012
619.265
601.514
225.266
555.026
670.379
434.796
602.462
571.707
218.659
596.713
549.221
441.578
45.7356
617.422
620.134
600.732
481.566
212.388
546.795
522.923
579.734
598.058
626.26
154.416
578
552.753
181.916
591.037
596.427
587.063
598.811
594.189
601.1
542.302
385.127
578.787
547.679
416.369
595.78
590.726
556.198
577.752
97.5782
116.173
127.288
356.967
78.8911
597.548
606.3
430.243
549.502
576.328
599.868
619.512
120.335
367.298
599.363
609.746
496.287
793.96
538.127
620.21
60.7557
533.004
489.519
620.374
529.433
630.122
557.69
579.223
597.867
27.4224
561.925
454.087
370.722
215.19
377.012
598.121
510.814
521.318
569.647
576.851
551.511
582.206
596.965
175.765
551.367
187.155
609.187
583.657
617.969
565.299
534.1
519.276
590.525
592.232
567.017
31.4179
69.5164
605.862
344.889
547.696
609.614
623.96
254.176
331.788
611.649
617.91
570.968
618.334
71.6701
307.048
631.255
625.485
605.755
683.847
515.889
115.734
619.251
81.4226
579.411
392.852
53.0434
563.968
610.607
602.103
113.68
617.006
600.14
618.607
523.147
545.747
26.3314
575.349
571.224
595.868
510.472
590.273
565.136
598.631
599.187
591.163
502.98
584.136
86.369
590.881
562.691
441.259
542.324
542.303
570.992
152.601
583.66
562.381
274.292
509.628
600.778
602.482
629.959
542.817
386.466
602.64
618.112
580.814
562.704
564.464
619.483
594.839
609.808
541.768
514.154
597.536
605.291
421.482
597.125
67.0826
467.081
456.671
566.89
584.996
591.182
343.668
377.071
549.777
26.2646
464.621
605.615
177.365
618.831
569.305
85.3077
537.053
598.249
517.806
500.739
593.44
602.75
328.477
595.396
599.726
601.28
575.676
616.085
376.142
600.521
618.848
600.58
70.8689
594.161
618.805
601.447
608.725
54.3673
532.96
557.1
576.918
562.314
617.772
440.528
597.585
499.609
584.352
596.547
558.394
26.1721
604.802
616.726
599.349
607.93
565.474
626.482
564.333
116.864
600.432
597.692
575.462
609.164
278.317
569.564
64.9689
515.5
509.279
495.196
173.21
580.36
594.929
592.689
602.189
577.062
560.307
580.809
322.861
618.02
589.498
448.09
368.405
569.632
606.201
587.09
599.361
502.166
600.134
606.096
599.468
246.864
600.242
378.271
449.955
604.259
606.358
594.662
525.459
190.429
618.808
568.234
597.85
57.1671
691.993
562.116
599.596
581.533
559.425
528.116
148.393
533.493
557.365
497.999
122.359
580.588
555.336
595.917
463.641
534.972
402.504
605.855
572.81
204.76
259.423
597.651
514.301
161.169
141.853
608.457
540.37
593.812
576.809
582.879
581.295
581.793
344.045
581.605
581.59
466.874
118.824
363.708
579.708
259.622
608.967
164.181
456.117
603.371
598.344
112.948
576.525
590.231
599.447
425.214
609.788
595.408
44.1306
581.243
567.828
600.631
600.87
547.273
598.35
298.223
518.685
588.367
611.871
579.549
60.4704
607.416
594.751
187.089
511.423
600.298
527.637
609.586
602.971
476.812
601.569
603.008
592.552
181.508
142.159
60.7407
432.818
576.752
130.869
605.441
525.916
521.083
611.353
290.763
65.1204
471.26
469.393
72.6547
623.765
625.608
592.012
446.163
109.426
617.245
444.089
220.549
53.3318
579.71
545.095
264.085
594.083
533.383
131.319
602.858
595.551
601.616
588.66
604.357
557.731
577.73
397.621
582.883
139.256
593.498
596.626
511.037
579.356
642.267
561.404
557.439
599.832
601.385
587.343
31.8153
60.8584
81.6512
608.634
602.607
572.047
600.664
593.34
604.414
577.172
596.173
611.145
609.541
411.589
542.297
567.909
84.3804
454.175
493.972
587.16
460.354
352.985
495.386
536.046
576.354
598.887
101.286
625.742
618.169
609.384
153.532
607.861
133.804
578.908
620.523
526.796
594.403
596.038
594.986
745.781
323.452
577.958
611.835
534.572
274.173
495.862
118.455
599.594
452.905
583.438
591.674
619.147
609.661
602.323
545.877
148.133
560.261
577.168
574.342
69.7877
599.273
609.034
417.914
514.192
174.958
614.383
597.012
548.86
164.511
626.236
586.855
609.442
617.093
596.253
582.68
387.681
576.128
626.512
520.797
605.262
135.983
601.644
502.663
583.506
495.489
570.06
462.482
130.035
599.924
563.585
37.4516
598.791
580.487
494.39
627.438
304.42
473.483
607.531
490.054
622.239
558.331
589.771
603.911
618.734
556.667
603.656
609.517
602.06
600.658
489.423
615.553
393.809
613.709
605.391
512.854
437.874
562.151
627.395
595.656
576.325
440.107
224.719
517.649
558.808
566.262
609.501
490.503
603.704
582.836
53.7298
675.341
529.43
600.131
600.703
554.729
627.212
486.031
620.733
326.633
555.779
399.002
494.671
57.8678
579.041
418.077
259.384
100.147
303.928
506.157
110.236
68.5866
565.856
513.622
48.4207
612.547
608.867
588.784
529.095
363.544
582.264
584.742
234.166
631.272
600.485
95.6921
87.0657
598.284
281.055
208.004
552.122
384.537
540.538
530.359
297.944
576.055
27.0102
736.485
539.892
600.951
588.714
537.461
603.471
230.61
626.33
594.207
598.698
114.41
26.3806
649.982
602.173
584.331
608.35
54.6258
601.316
596.29
520.914
380.15
610.061
435.955
47.3054
168.345
571.967
214.82
593.567
136.296
625.686
589.776
599.689
553.032
500.021
64.0438
377.888
561.663
555.817
454.567
563.851
597.748
609.698
592.398
600.63
201.265
628.856
603.859
599.52
602.809
205.016
609.687
620.723
600.383
158.568
503.924
483.029
554.897
549.534
430.085
600.227
597.13
405.973
498.083
620.77
448.681
535.385
198.615
596.27
391.451
589.782
593.04
619.115
619.87
595.621
599.547
282.585
420.195
579.44
600.175
596.637
581.952
515.853
111.582
575.362
456.425
555.093
164.119
582.799
438.963
596.771
596.583
580.341
595.029
583.04
608.247
627.104
45.1673
603.927
609.894
775.104
263.147
491.848
600.104
624.908
515.28
67.6616
526.066
568.551
580.603
474.431
576.84
605.709
334.646
607.673
515.444
570.809
576.92
617.413
469.156
580.544
610.974
593.042
603.925
604.619
117.816
572.093
600.879
626.651
564.286
619.736
591.135
554.454
610.27
555.93
572.179
160.814
627.115
547.821
480.561
495.659
378.431
595.466
584.289
275.859
603.464
615.716
217.373
583.916
263.382
331.965
547.224
71.1916
599.08
493.597
246.769
591.275
622.335
174.064
115.342
604.423
620.413
554.174
600.863
572.392
441.697
315.1
587.499
571.267
592.561
601.02
39.5188
152.496
28.6104
519.299
578.519
289.149
590.546
604.334
564.796
603.109
572.751
219.513
627.238
156.003
574.829
569.45
602.627
515.255
600.353
49.7274
610.439
593.349
557.438
620.15
31.1473
510.482
592.469
42.3309
175.393
458.209
86.9898
597.815
37.0782
517.154
608.894
550.579
589.549
122.062
111.289
585.97
532.64
122.086
599.233
613.489
591.94
210.484
147.051
581.433
564.262
369.517
560.72
556.293
537.395
404.222
620.436
55.9774
581.867
230.578
411.62
474.934
30.3407
227.692
26.065
616.868
79.1451
624.387
626.484
493.101
626.313
551.507
596.158
412.204
611.589
395.986
620.012
569.819
175.826
519.03
515.046
117.412
574.427
618.986
566.97
439.062
591.179
417.097
603.927
497.143
574.209
256.455
593.023
579.506
603.691
127.288
516.912
584.167
25.8646
603.788
603.731
593.097
107.823
601.592
31.8208
595.444
430.781
583.381
502.015
601.817
490.924
604.935
409.407
518.186
520.776
604.086
579.46
346.835
616.831
583.632
565.196
621.349
377.422
78.39
366.819
590.453
626.979
596.215
351.875
585.16
29.2216
526.672
191.199
595.384
118.727
614.079
468.518
600.317
573.097
267.443
588.221
26.183
551.084
609.487
60.0053
576.893
595.94
536.423
396.849
573.62
558.924
581.043
580.064
496.69
551.291
509.351
163.776
583.97
597.558
25.7574
25.7828
499.828
541.493
187.64
348.709
592.149
583.153
593.196
68.3178
610.503
597.079
482.637
384.035
625.652
611.509
549.054
33.884
614.581
552.99
625.568
431.872
592.92
117.454
567.792
611.787
589.381
615.779
324.665
579.071
458.993
597.308
497.494
619.339
618.411
339.017
523.948
608.963
375.476
604.605
575.856
135.227
599.227
527.617
121.696
620.288
580.511
609.43
625.372
592.117
273.665
601.551
30.7768
320.811
251.051
137.474
609.628
109.668
546.018
27.7414
451.749
25.8014
562.705
576.898
469.031
575.105
559.827
598.496
567.424
598.001
500.859
249.691
32.3008
551.667
535.01
116.705
125.074
593.174
595.305
336.252
473.94
608.602
436.706
463.173
590.683
612.569
548.558
90.9866
582.964
493.124
630.055
89.7505
27.0067
400.365
582.972
608.223
602.792
590.859
585.369
581.533
587.972
600.229
26.6732
606.187
601.023
599.204
142.728
51.3092
593.323
592.77
42.9352
615.05
32.8845
599.503
585.703
627.352
577.856
612.186
575.112
617.411
361.526
594.974
419.399
603.013
302.79
603.573
526.751
211.852
582.649
596.276
600.673
499.556
627.448
150.026
157.539
580.127
608.71
594.963
616.211
619.484
204.243
423.029
123.888
465.761
599.431
597.196
614.002
95.4048
455.913
579.492
596.689
608.206
506.372
604.194
71.9445
32.2323
463.853
618.164
26.3405
435.267
601.694
130.408
547.785
98.0114
515.981
511.204
554.107
73.5597
482.021
26.8027
609.282
614.136
609.758
613.286
579.277
497.354
605.992
501.72
622.324
666.228
609.258
530.563
61.9135
556.443
626.035
557.882
31.1741
591.227
611.81
518.972
36.6571
341.687
605.151
627.138
88.5364
590.127
534.385
482.982
585.093
578.616
583.142
599.78
609.533
597.623
125.19
615.972
570.711
157.741
413.362
612.062
579.161
609.742
33.2964
515.397
518.34
606.071
609.799
589.966
458.664
595.909
597.484
627.272
591.825
609.214
572.941
578.827
56.3803
562.577
457.355
609.991
472.34
598.349
582.955
610.171
674.62
544.691
621.298
571.577
94.2309
462.115
30.6242
494.802
591.816
609.246
584.602
552.888
30.6528
611.056
26.0514
31.0718
604.067
470.972
178.731
578.334
143.644
598.762
599.941
32.2871
519.03
613.389
25.897
89.7095
590.963
573.132
174.633
337.247
598.922
596.005
207.506
604.771
609.741
569.724
621.688
591.818
166.039
39.3401
599.037
756.217
72.0164
25.8967
582.642
125.772
600.718
712.529
36.0191
521.565
25.8562
31.8959
596.158
584.988
600.462
545.174
33.4001
484.957
595.482
473.805
60.5465
309.802
490.919
597.356
581.705
571.918
555.428
599.14
474.344
466.904
569.981
128.722
539.887
161.5
595.462
55.8954
595.51
593.635
574.619
452.281
609.043
346.032
573.561
54.6929
34.5266
554.34
502.253
44.2207
127.883
130.927
47.2187
591.154
128.945
321.059
463.726
562.255
594.936
596.701
599.962
548.306
597.306
622.617
576.358
598.166
119.191
408.618
580.441
572.272
265.85
448.974
454.929
599.796
599.691
601.133
622.32
621.909
612.154
570.086
555.005
346.501
573.389
532.686
346.415
322.082
617.581
562.426
64.9482
322.782
556.984
567.917
572.251
554.804
531.222
526.152
26.4507
554.77
399.951
321.725
488.85
27.0802
120.717
598.265
596.329
596.286
508.878
602.723
595.066
558.761
511.462
594.803
602.277
581.94
587.246
422.213
603.782
124.633
558.612
499.49
584.522
74.1127
621.185
573.454
418.896
588.807
610.182
122.287
586.372
598.772
699.738
578.569
608.173
560.534
602.133
501.851
557.49
63.2538
591.69
594.814
601.132
510.955
624.343
551.013
106.593
124.973
71.981
593.831
622.953
551.833
550.158
568.693
591.673
491.397
589.755
625.534
386.12
575.007
573.719
479.363
200.758
598.682
580.431
607.581
620.929
307.664
605.973
25.736
564.022
79.9314
562.83
89.9028
578.881
542.459
578.06
474.646
202.83
600.231
75.7059
589.483
345.828
364.218
317.919
421.733
581.028
350.323
358.153
586.526
550.211
501.924
531.362
554.456
404.663
595.435
575.432
508.411
439.613
602.287
416.086
506.76
598.235
174.943
519.919
605.946
554.496
626.58
610.704
303.761
603.951
600.678
553.945
541.395
558.295
602.522
548.556
503.469
614.169
591.358
87.784
585.568
584.907
598.637
599.688
402.996
595.717
108.849
184.074
401.51
603.91
552.394
47.6835
73.7148
578.141
504.696
562.464
583.329
616.592
591.718
592.194
602.159
232.167
578.155
595.745
597.865
173.961
572.971
473.124
548.552
611.886
560.797
539.991
353.202
541.988
500.831
609.831
584.845
232.493
407.054
591.897
607.787
581.964
201.095
31.2421
259.053
601.218
598.48
32.7352
161.022
580.771
604.182
101.752
520.367
455.229
604.588
602.035
529.97
201.337
597.078
596.279
610.32
25.925
613.516
583.43
597.958
328.799
567.952
412.233
475.477
556.35
72.5898
549.97
556.63
171.586
505.107
564.934
554.568
618.38
426.905
530.21
602.542
514.291
543.477
125.058
572.903
86.1877
523.758
481.647
616.346
572.336
434.112
620.567
330.464
412.599
316.556
570.251
577.049
320.049
575.544
519.099
478.231
610.635
64.1383
538.673
423.813
534.464
593.534
473.767
122.184
612.399
79.3991
49.0918
54.0348
571.442
394.716
596.384
345.104
617.291
168.183
625.897
503.599
557.885
558.688
574.071
251.152
181.933
598.648
564.517
545.302
57.0561
589.554
573.638
423.48
601.969
623.418
505.234
602.814
419.233
466.615
527.413
373.671
288.299
576.32
592.89
472.711
393.381
529.938
599.042
532.425
576.584
449.083
132.745
548.579
607.444
420.612
26.9879
513.89
542.599
553.627
129.577
502.046
603.501
565.193
408.673
523.418
598.946
603.126
396.949
448.754
565.535
508.296
588.182
570.412
131.392
122.253
620.603
570.41
581.515
115.891
574.414
598.285
598.996
361.325
517.874
439.361
603.837
603.94
498.433
553.887
590.538
357.291
578.898
590.069
103.055
553.926
607.455
510.823
511.929
513.857
424.584
614.146
534.146
276.924
592.46
596.848
118.075
541.371
407.627
143.724
557.785
114.248
606.388
599.458
598.85
556.978
191.268
470.787
548.92
513.367
581.15
34.9693
583.481
152.713
575.136
98.8679
459.258
510.889
366.141
600.78
391.15
149.743
291.679
540.218
544.2
626.594
397.131
670.599
540.08
457.296
509.095
572.49
601.384
583.832
586.46
577.029
495.167
507.071
319.73
600.512
363.286
582.761
616.319
596.119
592.714
537.386
590.372
572.553
587.864
596.079
592.492
622.124
532.751
58.3396
537.513
548.698
592.368
132.263
485.06
379.365
602.071
593.188
484.786
552.382
538.603
433.782
592.496
566.615
562.561
498.967
599.886
433.234
443.463
596.117
284.42
344.041
602.668
553.867
616.973
48.6967
568.824
516.214
625.455
594.33
519.771
564.758
417.206
541.393
543.365
506.544
582.398
554.754
607.631
612.877
405.628
547.194
569.767
105.83
552.079
406.559
606.837
590.966
587.461
508.085
518.105
399.079
509.12
549.5
582.892
552
618.735
569.719
33.334
299.159
579.801
523.481
577.44
553.286
592.192
566.923
532.919
335.83
602.571
555.47
618.707
596.558
542.56
581.396
597.266
595.846
330.445
601.549
611.615
417.271
602.311
563.614
622.026
450.718
436.817
247.94
594.305
937.041
447.523
37.1287
482.642
460.571
591.125
576.668
410.997
604.389
601.602
566.953
555.292
215.788
559.279
120.293
554.69
590.554
578.886
507.254
579.894
595.638
594.414
616.802
524.446
597.781
155.826
425.171
600.773
602.779
560.528
433.332
607.781
526.312
658.074
27.4528
512.273
600.275
598.309
470.55
589.83
356.047
559.583
630.55
596.815
580.977
603.238
596.021
600.965
591.441
469.547
588.912
536.728
591.035
608.665
520.063
117.242
473.448
535.15
612.19
545.534
566.23
530.195
513.48
569.949
599.966
597.946
583.177
46.7465
533.513
90.5934
551.576
588.617
470.62
553.51
303.211
542.647
601.264
582.42
400.354
598.347
377.759
612.014
358.712
560.938
631.139
555.896
588.556
468.241
741.778
603.32
598.987
29.9902
559.805
596.554
581.706
479.787
474.533
605.096
37.4716
551.267
33.0226
514.624
530.595
477.772
594.779
582.465
150.992
33.0201
579.43
594.83
577.468
556.253
359.137
44.2335
553.096
526.732
581.156
586.811
462.805
621.949
521.723
598.03
566.453
579.218
436.648
591.986
449.499
572.183
539.478
574.51
594.12
582.292
484.327
556.899
39.5261
593.739
558.466
567.062
572.183
552.237
469.49
598.113
583.971
64.1958
610.994
323.962
33.0902
596.596
594.274
556.588
596.891
379.82
502.568
581.312