/*--------------------------------*- C++ -*----------------------------------*\
| =========                 |                                                 |
| \\      /  F ield         | OpenFOAM: The Open Source CFD Toolbox           |
|  \\    /   O peration     | Version:  v2012                                 |
|   \\  /    A nd           | Website:  www.openfoam.com                      |
|    \\/     M anipulation  |                                                 |
\*---------------------------------------------------------------------------*/
FoamFile
{
    version     2.0;
    format      ascii;
    class       volVectorField;
    location    "400";
    object      U_0;
}
// * * * * * * * * * * * * * * * * * * * * * * * * * * * * * * * * * * * * * //

dimensions      [0 1 -1 0 0 0 0];


internalField   nonuniform List<vector> 
18355
(
(0.902955 0.168879 0)
(1.00954 8.29204e-07 0)
(1.16881 0.118449 0)
(1.01104 0.00110268 0)
(0.989688 0.00571524 0)
(0.99267 -0.140473 0)
(1.01553 -0.00106484 -1.11053e-21)
(0.98972 0.00785827 1.56729e-21)
(1.00577 7.11476e-05 0)
(1.06728 0.0548808 -5.68087e-22)
(1.01715 0.00731116 -2.1961e-21)
(1.11696 0.0428705 -1.42337e-20)
(1.11833 0.0405807 3.1109e-21)
(0.888459 0.0967028 0)
(1.00751 0.000152783 -3.6302e-22)
(1.01018 -0.000389202 5.15379e-22)
(1.01092 0.00106211 0)
(1.02 0.01033 9.2948e-22)
(1.0799 0.166295 -8.10698e-21)
(1.0101 0.00422231 0)
(0.791961 -0.00371041 7.5708e-21)
(1.02315 0.0123078 0)
(1.00861 2.82337e-05 7.10288e-22)
(0.999736 -0.142794 0)
(1.0086 2.16901e-05 8.05094e-22)
(1.01414 0.000647838 9.22294e-22)
(1.01506 -0.00160138 4.70381e-22)
(1.01145 0.00205868 7.09523e-22)
(1.00447 3.47042e-05 1.06237e-22)
(1.01848 0.00588578 -3.0086e-21)
(0.936205 -0.286314 0)
(0.981641 -0.00386121 3.92058e-21)
(1.01177 -0.00061545 0)
(1.00982 -0.000252638 4.86957e-22)
(1.0059 -4.71412e-05 0)
(1.01009 0.00381798 3.24963e-21)
(1.04633 0.034961 -1.57788e-21)
(1.0099 0.0034501 -2.89034e-21)
(1.01867 0.00490359 1.58933e-21)
(1.01722 0.00945929 -2.40308e-22)
(1.01385 0.000209688 4.27861e-24)
(1.0171 0.00611701 1.35961e-21)
(1.00985 -0.000249767 -7.90702e-22)
(1.00931 1.50662e-05 0)
(1.00939 4.39008e-06 0)
(1.1243 0.0174076 -1.85726e-21)
(1.01113 0.00255279 -1.82976e-21)
(1.01101 0.00242408 2.35108e-21)
(0.928102 -0.284438 0)
(1.01139 0.00068094 -5.38112e-22)
(1.00683 -3.22598e-05 -1.45845e-21)
(0.629558 0.143018 1.21854e-21)
(1.01136 0.000817619 -5.5769e-22)
(1.00207 0.150961 0)
(1.01653 0.00333411 0)
(1.00953 0.003258 0)
(1.00562 -3.76963e-05 4.772e-22)
(0.85963 -0.325565 0)
(1.01391 0.000474928 -2.18534e-21)
(0.861332 0.00595967 -5.574e-21)
(1.00988 -0.000244858 -7.63859e-22)
(1.10725 0.0588407 -2.28673e-20)
(0.997162 0.150624 0)
(1.01624 0.00131817 -7.66972e-22)
(0.959162 0.0129746 0)
(1.00728 -9.30303e-05 -7.8176e-22)
(1.02295 0.0222809 2.73771e-22)
(1.04553 0.0341545 0)
(1.01006 -0.000374927 -9.95347e-22)
(1.07997 0.0967749 -2.8069e-21)
(1.0117 0.000381085 -1.5937e-21)
(1.01662 0.00353337 0)
(0.991508 0.00417951 -1.57561e-21)
(1.02158 0.0118329 0)
(0.963426 -0.0384596 -1.68084e-21)
(1.01011 -0.000341687 -9.64356e-22)
(0.864573 -0.327489 1.38653e-20)
(1.01017 -0.000346136 1.40187e-21)
(1.01167 0.000348452 1.05643e-21)
(0.969964 -0.0451376 0)
(1.02223 0.0214494 -2.58072e-22)
(0.995361 -0.068689 1.08485e-22)
(1.01013 -0.000374526 1.01429e-21)
(1.01836 0.0233588 -5.39256e-23)
(0.991512 0.0630488 2.8401e-21)
(1.00455 -1.57376e-05 4.47637e-22)
(1.00747 0.000249779 0)
(1.0138 0.0600401 -9.64671e-22)
(1.01045 0.00131933 2.29944e-21)
(1.01109 0.0572907 0)
(0.795033 0.149235 8.16176e-21)
(0.85553 -0.0343144 3.14588e-21)
(1.00174 -0.080266 0)
(1.01143 0.000504989 -1.70376e-21)
(0.991385 0.150137 1.55549e-21)
(1.01366 0.00254345 -7.10122e-22)
(1.01003 0.00135802 0)
(1.01357 0.00195899 5.37109e-24)
(1.05888 0.105268 0)
(1.02182 0.0115328 1.89095e-22)
(0.994555 0.0594469 4.00146e-22)
(1.01147 0.000484054 9.97268e-22)
(1.01145 0.000406711 1.71041e-21)
(1.01072 -0.000324765 1.97141e-23)
(1.02088 0.0215362 -3.02347e-22)
(1.01023 -0.000402041 2.2584e-22)
(0.960909 0.0112897 -4.07443e-21)
(0.974941 0.170305 0)
(1.03053 0.0494291 2.97372e-21)
(1.01008 -0.000314303 9.44949e-22)
(1.0069 -7.21468e-05 7.44397e-22)
(1.00478 -3.44724e-05 -8.87575e-22)
(1.00644 0.00235193 2.17698e-21)
(1.01848 0.0221507 0)
(1.14838 0.0163734 3.2367e-21)
(1.00865 0.0142863 1.64682e-21)
(1.01143 0.000444144 -9.71669e-22)
(0.964201 -0.0675611 0)
(1.02053 0.0165839 -9.67941e-23)
(1.02406 0.0212037 -4.28031e-22)
(1.07571 0.0800406 0)
(1.17366 0.10601 0)
(0.794504 0.121047 0)
(1.00858 0.0692662 2.1145e-22)
(0.970444 -0.0646232 0)
(1.12972 0.0144682 0)
(1.01544 -0.00112361 1.03689e-21)
(1.01083 0.000912358 -1.23321e-21)
(0.906514 0.175091 -1.42137e-21)
(1.02226 0.0097865 0)
(1.0101 0.00138351 0)
(0.62411 0.114989 -3.40316e-21)
(1.01563 0.00519703 0)
(1.08832 0.0906988 -1.22932e-21)
(0.946363 0.0862721 0)
(1.0105 0.0012453 2.22578e-21)
(1.08677 0.167739 -1.24438e-22)
(1.03823 0.104249 0)
(1.01262 0.00088573 -2.1403e-23)
(0.831992 -0.0313416 -3.21997e-21)
(1.03649 0.0298977 -4.24288e-21)
(1.0085 -0.0341754 1.16446e-21)
(1.0108 0.00221885 0)
(0.654322 0.231433 -4.01692e-21)
(0.943802 0.0770741 0)
(1.01427 0.000335909 0)
(0.834236 -0.00471096 4.9074e-21)
(1.01293 -0.00100992 4.73088e-23)
(1.00764 0.000664529 -2.09457e-21)
(1.021 -0.0634537 0)
(1.01135 0.00187763 2.07985e-23)
(1.0241 0.0211202 4.64205e-22)
(1.01599 -0.00201934 0)
(1.01961 -0.0116468 0)
(1.00993 -0.000248157 0)
(1.00791 4.38975e-05 -8.01436e-22)
(1.01068 0.000897557 1.44569e-21)
(1.00454 1.73245e-06 0)
(1.01086 0.00229907 0)
(1.00772 4.1204e-05 0)
(1.01996 0.00911119 3.32143e-21)
(1.01566 0.0053645 0)
(1.01006 -0.000316748 0)
(1.01729 -0.0206363 1.28075e-21)
(1.02231 0.0102505 1.10906e-21)
(1.07306 0.0115644 -1.00966e-21)
(0.807566 -0.00348719 0)
(0.87036 0.166493 2.04812e-21)
(0.82035 -0.292113 0)
(1.03553 0.029502 -4.98295e-21)
(1.00513 -3.00697e-05 0)
(1.08611 0.0849968 9.87962e-22)
(1.00472 -2.46418e-05 1.03475e-21)
(0.9514 -0.245376 -7.10819e-21)
(1.0055 -5.91594e-05 0)
(1.01368 0.000300602 0)
(1.00507 -2.50026e-05 4.65476e-22)
(1.01153 -0.000577055 5.47194e-23)
(1.03953 0.0136361 -4.11678e-22)
(1.00902 0.0274661 -9.53562e-22)
(1.0044 -1.00044e-05 0)
(1.06698 0.0197904 2.40794e-22)
(1.02275 0.011113 2.55096e-22)
(1.01178 0.00241664 1.26316e-21)
(1.05349 -0.00220474 -7.04545e-23)
(1.01159 0.000230699 1.10431e-21)
(1.00551 -1.74749e-06 -7.06031e-22)
(1.00766 0.0534099 -2.66761e-22)
(1.01641 0.000937918 0)
(1.01502 -0.00161909 -1.35377e-22)
(1.12899 0.0169513 -8.19125e-21)
(1.06292 0.101931 0)
(1.00966 -2.82516e-05 -3.54689e-22)
(1.01148 -0.000680458 3.5748e-22)
(1.0155 0.000186805 -4.51883e-24)
(1.15067 0.0232965 -1.11654e-20)
(1.0075 -6.10986e-05 0)
(0.875822 0.199161 -1.75811e-21)
(1.00961 -1.58268e-05 0)
(0.874276 0.0831793 -1.67454e-21)
(1.01165 0.000164377 -7.63939e-22)
(1.0175 0.0116277 2.16505e-21)
(1.02013 0.00508524 -3.18651e-21)
(1.0052 6.17837e-06 -1.34262e-21)
(0.881804 0.177523 0)
(1.02264 0.00832283 -3.71735e-22)
(0.824295 -0.292628 -2.70489e-22)
(1.0117 0.00247456 4.4347e-24)
(1.01166 -0.000616655 -8.70496e-22)
(1.01452 -0.00200904 -1.18678e-21)
(1.01878 0.00888872 1.84599e-22)
(1.04757 -0.0630981 -1.23675e-21)
(1.01995 -0.000390085 0)
(1.01862 -0.000937448 0)
(1.01316 -0.00109359 0)
(0.953294 -0.221696 0)
(1.0083 0.0274688 1.89106e-21)
(1.04685 0.0261314 3.80449e-21)
(1.02232 0.00877717 0)
(1.01113 0.00257997 0)
(1.03091 0.0474338 0)
(1.01119 -0.000758636 4.59257e-22)
(1.01854 0.0577335 -1.43746e-21)
(1.00945 -0.0095667 -6.40646e-22)
(1.03448 0.0314016 0)
(1.01985 0.00449313 2.71684e-23)
(1.01124 -0.000751852 0)
(1.02834 0.10284 8.68315e-23)
(0.916983 0.13722 0)
(0.995163 0.0147883 -6.28451e-22)
(1.01489 0.00123084 1.06934e-21)
(1.02139 0.0226147 0)
(1.07303 0.0114205 -1.73475e-21)
(1.01128 -0.000773257 2.91789e-24)
(1.02156 -0.0183978 -1.24104e-21)
(1.03377 0.0256608 -3.12608e-22)
(1.03331 0.00866723 -3.42577e-21)
(1.12469 0.0161133 1.78611e-21)
(1.05359 0.0186493 -2.46088e-21)
(1.01834 -0.00164619 0)
(1.00985 -2.01755e-05 -6.81127e-22)
(1.03895 0.0127761 4.08042e-21)
(1.01723 -0.00170286 -7.09928e-22)
(0.997368 0.0194618 0)
(1.02227 0.008429 3.12507e-22)
(1.01658 0.00303694 0)
(1.01104 0.00237132 2.5016e-22)
(1.05597 -0.0594839 8.84331e-22)
(1.03473 -0.091729 -2.21843e-22)
(1.01221 2.11077e-05 -6.96126e-22)
(1.01687 0.00218009 7.27285e-22)
(1.04567 -0.0946779 2.82852e-24)
(1.14495 0.0740707 -1.16002e-23)
(1.00746 -0.00925039 6.85156e-22)
(1.01142 -0.000562301 -5.12215e-23)
(1.0156 -0.0151567 -6.18019e-23)
(1.05293 0.0188879 -2.36788e-21)
(1.0134 0.000545048 4.78091e-23)
(1.01881 0.00574373 1.23063e-23)
(1.00974 0.00099373 0)
(1.03152 -0.0475322 0)
(0.98618 0.0151663 2.16739e-21)
(1.06188 0.0962557 -5.44338e-21)
(1.06436 0.0311457 -1.06385e-20)
(1.02066 0.00386845 -1.778e-21)
(1.03764 -0.0171878 -4.42242e-22)
(1.00437 -0.0252315 2.68373e-21)
(1.05809 0.110577 -9.05396e-21)
(1.00973 0.000966121 0)
(1.01668 0.00323884 -1.46775e-24)
(1.01457 -0.00222934 0)
(1.01029 -0.000333046 5.78378e-22)
(1.01704 0.0121227 -1.35541e-21)
(1.04781 0.0265403 -1.07823e-21)
(1.01094 0.00165756 0)
(1.01952 0.00898182 2.52494e-23)
(1.02236 0.0253115 -2.07764e-21)
(1.0104 0.00115915 -1.10118e-21)
(0.980806 0.100236 -2.02402e-21)
(0.942287 0.0924745 0)
(1.02344 0.0206929 -3.78194e-21)
(1.01896 0.0091504 -2.13834e-22)
(1.00751 0.0123107 -1.70398e-21)
(1.01021 -0.000305142 -1.47982e-22)
(1.01818 0.0631908 5.52339e-22)
(1.02241 0.00729563 1.37605e-21)
(1.0054 0.0267661 0)
(1.01424 0.000254303 1.46797e-22)
(1.0073 0.0247036 1.2792e-22)
(0.889101 -0.0729324 1.76979e-21)
(1.01168 -0.000615401 0)
(1.06955 0.0584104 0)
(1.02208 0.0170843 -3.30285e-22)
(1.01446 0.00603903 9.68126e-22)
(0.999908 -0.0209998 0)
(1.00714 0.000128774 0)
(1.01135 -0.000687557 4.89379e-22)
(0.983353 0.0930593 1.80893e-21)
(1.01928 0.00895521 5.84536e-23)
(1.00257 -0.0293827 -1.35411e-21)
(1.04897 0.0340997 -3.57506e-21)
(0.90646 0.25204 0)
(1.02436 0.0654591 -1.16644e-21)
(1.06238 0.0988257 5.33871e-21)
(1.01878 0.0113929 5.72302e-23)
(1.02333 0.0275879 -2.17963e-21)
(1.01142 0.00095496 0)
(1.04991 0.0159558 0)
(1.06358 0.0297154 1.73125e-21)
(1.06802 0.0593132 0)
(1.06099 0.0115308 -5.28447e-22)
(1.20548 0.122087 -9.63143e-21)
(1.01173 0.0032628 0)
(1.00624 0.00100605 -4.50209e-21)
(0.994529 0.136247 -2.79511e-22)
(1.00671 0.0109134 -2.37009e-21)
(1.01174 0.00325516 -5.96641e-22)
(1.01094 0.00238455 7.64986e-22)
(1.01116 0.00228221 2.12039e-22)
(1.08652 0.0447521 -1.85335e-20)
(1.20283 0.106426 0)
(1.09411 0.169217 -2.15436e-20)
(1.05777 0.0163834 -3.75513e-22)
(1.02502 0.0234831 2.06916e-21)
(1.03808 0.027648 -6.19659e-21)
(1.06099 -0.0497971 0)
(1.01262 -0.00098857 -7.53353e-23)
(1.02257 0.00795121 -6.39242e-22)
(1.03681 0.027893 6.83681e-23)
(1.01885 0.00506304 0)
(0.994707 0.0158034 6.75884e-22)
(1.00648 -1.63893e-05 1.12207e-23)
(1.09693 -0.0175228 3.08084e-21)
(1.01052 -0.000440782 0)
(0.982781 -0.0971732 -4.43112e-22)
(1.01484 0.000579105 -5.43164e-23)
(1.01727 0.00948591 1.99615e-22)
(1.01906 0.0124783 4.62576e-22)
(1.12666 0.0462907 -1.06666e-20)
(0.848127 0.169079 5.39359e-21)
(0.997349 0.0197672 0)
(1.04905 0.0240459 -1.4659e-22)
(1.01931 0.011297 0)
(1.01053 0.00141936 -1.90966e-21)
(1.01859 0.00494201 0)
(1.01659 0.00915291 -2.13193e-22)
(1.07292 0.0386382 -2.21971e-21)
(1.01068 0.00158257 0)
(1.01145 0.000639423 -5.28886e-22)
(1.05098 -0.0241613 5.11406e-23)
(1.02004 0.0111947 1.10361e-22)
(1.01076 0.00151425 2.72785e-22)
(1.14201 0.0576129 -1.37761e-20)
(1.01673 0.00782284 0)
(1.01111 0.00233591 -1.01466e-21)
(1.01462 0.000744555 -8.52843e-22)
(1.003 0.0249449 1.0972e-21)
(1.01218 0.000511878 -2.39879e-22)
(1.00231 0.0246815 3.94932e-22)
(1.01251 -0.00106005 9.65876e-22)
(1.01141 0.000645231 1.244e-21)
(1.02154 0.0112395 -5.47288e-22)
(0.923635 0.00592763 -7.84873e-21)
(1.04742 -0.03014 5.17487e-23)
(1.01242 -0.00103874 -9.08056e-22)
(1.01065 0.00207606 0)
(1.02368 0.0195632 -7.64345e-22)
(1.01128 0.00230245 -7.78183e-22)
(1.00511 -1.54107e-05 -1.17076e-21)
(1.07894 -0.0405538 2.43509e-22)
(1.04077 -0.0310365 2.83488e-22)
(1.02027 0.0288267 1.5486e-21)
(1.01811 0.00489599 0)
(1.03366 0.00954408 -2.17238e-21)
(1.12028 0.043435 -3.12173e-21)
(1.01061 -0.00111154 9.29776e-22)
(1.01351 -0.0196805 6.15411e-23)
(1.05078 0.0157197 0)
(1.01125 -0.000535672 -2.89944e-22)
(1.02384 0.0157284 0)
(0.994936 -0.00549128 -1.39137e-21)
(1.02136 0.0105434 -1.66222e-22)
(1.01131 0.000660848 0)
(1.02001 0.0101672 4.78856e-21)
(1.00764 0.000221814 0)
(1.01783 -0.00164108 2.57136e-22)
(1.01549 0.000214836 0)
(0.999289 -0.044936 0)
(1.01693 -0.00218381 0)
(1.02547 0.0203404 0)
(1.00669 -3.90782e-05 4.20562e-22)
(1.01119 0.00236748 -9.74956e-24)
(1.0166 0.0117248 8.55154e-22)
(1.01567 -0.00261352 -2.73622e-22)
(1.09267 0.0630397 6.22249e-21)
(0.749822 -0.0481927 -9.8599e-21)
(1.06138 -0.0294006 3.45746e-22)
(1.01923 0.00272614 -4.475e-22)
(1.1435 0.0776 9.14898e-21)
(1.00705 -0.012027 -6.39977e-22)
(1.01486 0.000542661 6.10014e-23)
(1.00658 -4.87171e-05 0)
(1.06816 0.0550893 1.06689e-20)
(1.01656 0.00104638 4.05696e-23)
(1.01952 0.030147 -1.74863e-21)
(1.01511 -0.000564316 0)
(1.02472 0.0127413 2.16799e-21)
(1.05355 -0.0591438 1.62435e-22)
(1.04196 0.0383486 1.05069e-21)
(0.845642 0.161896 -7.00827e-21)
(1.04789 0.104614 4.67323e-22)
(1.0107 -0.000316547 0)
(0.805421 0.145304 -1.88577e-20)
(1.0222 0.0116165 -5.14416e-22)
(1.01082 0.0016959 0)
(0.770696 -0.0119643 -2.2085e-22)
(1.01514 0.000718692 2.75015e-22)
(1.02099 0.0126002 0)
(1.0165 -0.00298814 0)
(0.953711 0.00258279 5.2758e-21)
(1.0151 0.000730578 -2.22143e-22)
(1.08612 0.0829638 -4.6838e-21)
(0.980765 -0.133366 -6.74951e-23)
(1.06271 0.0898034 0)
(1.01423 0.00553571 -3.43035e-22)
(1.01016 -3.96995e-05 -4.27691e-22)
(1.0652 0.0894807 1.21053e-20)
(1.02098 0.017329 2.44363e-22)
(1.01339 0.000354497 5.09429e-22)
(1.06996 0.0341107 -1.11033e-21)
(0.992369 0.0179473 0)
(1.01074 0.00155338 -7.84339e-22)
(1.06887 0.056895 1.14699e-22)
(1.09186 0.0638643 -1.11557e-20)
(1.01005 -2.71003e-05 3.69332e-22)
(1.01767 0.0102977 -4.89897e-23)
(0.999958 0.0226797 1.69032e-21)
(0.936807 -0.21763 1.05378e-20)
(1.03785 0.0635875 6.69356e-21)
(1.01977 0.0110856 0)
(1.01146 0.00108658 9.37209e-22)
(1.06588 0.0479937 6.83322e-21)
(1.0078 0.000222062 1.44641e-21)
(1.01154 -0.000465527 0)
(1.01416 0.000413393 0)
(1.0417 0.0338015 -8.2679e-22)
(0.770695 -0.0407574 1.8043e-20)
(1.01116 -0.000514985 -2.86059e-22)
(1.00226 -6.38023e-06 0)
(1.01389 0.000576218 -9.50349e-23)
(1.12926 0.0428928 0)
(0.995773 -0.00884462 8.91525e-22)
(1.01163 -0.000784064 0)
(1.01988 0.014475 0)
(1.02006 0.0577609 2.42196e-21)
(1.02265 0.00453511 -1.5867e-21)
(1.13993 0.0164956 1.32738e-20)
(1.10734 0.060411 1.41442e-20)
(1.0231 0.0114355 -6.80679e-22)
(1.00763 0.000219182 0)
(1.03845 0.0617561 -3.26635e-21)
(1.12756 0.0390104 5.87128e-21)
(0.869852 0.23995 -1.05982e-20)
(1.01114 -0.00048557 0)
(0.872391 0.227283 -2.22251e-21)
(1.01238 0.000880359 9.29299e-23)
(1.01122 -0.000511764 0)
(1.02164 0.0675123 1.64517e-21)
(1.02174 0.0183054 -3.2705e-22)
(0.99369 -0.0484067 -2.47684e-21)
(0.990058 0.00760371 1.57633e-21)
(1.0252 0.0214308 -8.94399e-22)
(1.02247 0.0126681 0)
(1.02363 0.0122651 4.93286e-22)
(1.14088 0.0631454 -1.16277e-20)
(1.02002 0.0172473 4.02586e-23)
(1.06308 0.027282 -7.39364e-21)
(1.02057 0.0116721 6.3802e-23)
(1.01108 -0.000447496 5.8885e-22)
(1.02774 0.00808791 0)
(1.01118 -0.000479546 5.97522e-22)
(1.10615 0.063853 0)
(0.796047 -0.0335986 -2.12146e-20)
(0.955181 0.00197502 5.16818e-21)
(1.02076 0.0107458 0)
(1.01631 0.00828538 4.41187e-22)
(1.02025 0.0115596 -1.18789e-22)
(1.01525 -0.00265473 7.9901e-22)
(1.01896 0.0110204 0)
(1.01529 0.0028594 7.14326e-22)
(1.01339 -0.00107228 -6.53454e-22)
(1.01804 0.0011999 -1.36803e-22)
(1.01951 0.0624802 1.20193e-23)
(1.00998 -3.53571e-05 0)
(1.01464 0.00289084 -1.44067e-21)
(0.866413 0.331204 -1.92549e-21)
(0.878264 0.202704 -3.82723e-22)
(0.999552 0.137862 -1.15557e-21)
(1.02235 0.00939321 0)
(1.00365 -7.34793e-06 0)
(0.999983 0.0227312 2.07794e-21)
(1.02288 0.0119324 0)
(1.04246 -0.047659 -4.9216e-24)
(1.18037 0.14015 -6.42168e-21)
(1.0071 0.000401343 2.83343e-21)
(1.01605 0.0211079 0)
(1.01962 0.0168306 -2.27896e-21)
(1.02783 0.0149031 -1.39422e-21)
(1.03178 0.0233972 -2.0692e-21)
(0.580806 0.00217467 0)
(1.01089 0.042653 5.30432e-23)
(1.01074 0.00355463 0)
(0.89904 -0.0766437 -2.61043e-21)
(1.00841 0.000376182 -7.30672e-22)
(0.859609 0.183111 1.61376e-21)
(0.801324 0.160132 5.55045e-20)
(1.0549 0.0193347 4.35011e-21)
(1.01766 0.0101527 -1.63162e-21)
(0.547297 -0.00252338 -1.4824e-21)
(1.01102 0.00180919 7.32136e-22)
(1.08414 0.0802569 0)
(0.981887 -0.00043786 0)
(0.988378 0.0622674 1.6732e-22)
(1.01958 0.0165149 2.66055e-22)
(1.02753 0.00756653 0)
(1.02207 0.0047359 -1.12628e-21)
(0.951497 0.0621626 1.4188e-21)
(0.857257 0.246102 -1.89755e-22)
(0.98547 0.0565743 0)
(0.925225 -0.0541939 0)
(1.01797 0.0117847 -3.10411e-21)
(1.02171 0.00471014 2.57501e-23)
(1.01896 0.0240882 -1.98784e-22)
(1.01674 0.00295711 0)
(1.00668 0.00311892 -1.53594e-21)
(0.82592 -0.0160938 0)
(0.980603 -0.157753 0)
(0.769968 -0.0412038 1.94066e-20)
(1.05498 -0.123829 -4.89952e-21)
(1.00002 -0.00365538 3.57214e-21)
(0.98367 0.00329893 -6.46925e-21)
(1.00772 -0.00219205 1.19176e-21)
(1.01121 0.00260801 7.92282e-22)
(1.01345 0.00354581 0)
(0.997955 -0.0067346 -1.83626e-21)
(1.00985 0.0132395 -9.27726e-22)
(1.02282 0.00739486 -1.43028e-21)
(1.0166 0.00274592 0)
(0.983362 -0.102938 4.71888e-22)
(1.00997 0.00123003 5.08188e-22)
(1.05708 -0.126936 4.03077e-21)
(1.00346 0.00112425 2.58297e-21)
(1.09945 0.0760859 -3.38774e-21)
(1.12149 0.0404336 3.50476e-21)
(1.01358 0.0035784 0)
(1.01783 0.0213165 4.41062e-23)
(0.898655 0.189177 0)
(1.01797 0.00127077 4.19513e-22)
(0.714195 -0.0563735 -3.09839e-20)
(1.01134 0.000643563 -1.02413e-21)
(0.885662 -0.0355819 7.29746e-21)
(1.00983 0.0426035 7.55568e-22)
(1.01402 0.000284822 -8.78837e-23)
(1.00956 -0.00286375 -1.14948e-21)
(1.06165 0.109144 5.48876e-21)
(1.04349 0.109146 0)
(1.00413 2.89094e-06 1.35347e-21)
(1.01046 -0.000524363 -7.36368e-22)
(1.0634 0.0462114 0)
(1.05608 0.0201755 -1.18252e-20)
(1.09913 0.0768252 3.36703e-21)
(1.01656 0.000580144 1.14516e-23)
(1.10825 0.0565408 2.78951e-20)
(1.00994 0.00118362 -1.07598e-21)
(1.17098 0.150609 0)
(1.0057 -7.38602e-06 0)
(1.01199 0.00372619 8.06985e-22)
(1.16527 0.0758758 2.15371e-20)
(1.02544 -0.00427395 -4.65618e-22)
(1.02838 0.0252545 0)
(1.00588 -4.52084e-05 0)
(1.01445 0.0205375 1.39084e-22)
(1.0117 0.003534 9.5803e-22)
(1.09776 -0.00385895 0)
(1.05848 0.135266 -2.72568e-20)
(1.03949 0.0252112 2.2296e-21)
(1.00978 -0.0138134 -2.91388e-22)
(1.00567 -1.83193e-05 -7.17227e-22)
(1.0075 0.0130905 -3.85412e-21)
(1.0206 0.0107196 -7.07818e-23)
(1.03933 0.0243656 1.99362e-21)
(0.342478 -0.0993271 -2.26247e-21)
(1.00906 1.84328e-05 2.30905e-24)
(1.06477 -0.0258152 0)
(1.018 0.00871256 -1.00783e-22)
(1.00522 -4.01116e-05 -3.32375e-22)
(1.03217 0.02628 1.19611e-21)
(1.05078 -0.0317468 -1.85094e-23)
(1.00988 -0.0017195 0)
(0.95451 0.0733906 2.00685e-21)
(1.01439 0.0037782 5.14901e-22)
(1.07281 0.0384501 5.30762e-21)
(0.988034 -0.168726 -1.03962e-21)
(1.01284 -0.00104109 -5.09125e-23)
(1.01112 0.00240784 7.69943e-22)
(0.896939 0.219525 -1.82945e-21)
(1.01004 0.0565829 -3.42497e-24)
(0.880844 0.319792 -7.57311e-22)
(0.985918 0.0118959 1.68118e-21)
(1.01716 0.00919569 0)
(1.01662 0.00247536 -7.73637e-24)
(1.01186 0.000207344 1.05219e-21)
(1.02166 0.0115353 0)
(1.01888 0.0113798 -6.70367e-22)
(1.01629 -0.00255018 1.50426e-22)
(0.921866 0.0880483 0)
(0.624466 0.0338395 1.51117e-21)
(1.012 0.00371087 4.03994e-22)
(0.979771 -0.0969406 -2.50526e-20)
(0.969869 -0.158677 0)
(1.01689 0.00853713 -2.75128e-21)
(1.17665 0.0825542 -6.00442e-21)
(1.01162 -0.000498839 -6.95741e-23)
(0.912685 0.153409 0)
(0.950347 0.0617825 0)
(1.01392 -0.00131807 -9.27334e-23)
(0.974697 -0.18505 2.1021e-21)
(1.06784 0.0517548 -3.52086e-21)
(1.05444 0.00884336 0)
(1.09318 0.0152545 0)
(1.01375 0.000594047 -9.69086e-22)
(1.01196 0.000212026 9.75161e-22)
(1.00481 -2.63825e-05 -1.06127e-21)
(1.06148 0.00697794 0)
(1.08479 0.0455105 1.2679e-20)
(1.01408 0.00560723 4.02558e-22)
(1.03444 0.00700034 0)
(0.926826 0.0991304 4.92469e-21)
(1.02236 0.0111033 5.49768e-22)
(1.06943 0.0516182 -8.45986e-21)
(1.01207 8.73989e-06 -2.98756e-22)
(1.06752 0.0481336 -7.80586e-21)
(0.819243 0.0543343 -2.45728e-20)
(0.950513 0.0581324 -9.81916e-22)
(0.995647 -0.00623014 -1.14132e-21)
(0.965729 0.0436806 -1.22667e-21)
(1.0051 0.0573645 0)
(0.875817 -0.323614 -1.19292e-20)
(1.0166 0.0218882 -1.87437e-22)
(1.0105 0.00188227 0)
(1.00991 0.0171719 1.12097e-21)
(1.08845 0.0275532 -1.1954e-21)
(1.02123 -0.00925594 0)
(1.08512 0.0407063 1.29646e-20)
(1.01423 0.00557276 -2.37595e-23)
(0.927839 0.143644 0)
(1.01398 0.000563558 4.197e-23)
(1.01752 0.00954567 -1.68024e-22)
(1.07542 0.32687 0)
(1.00413 -2.20801e-05 1.20115e-21)
(1.00883 0.0192877 0)
(1.02783 0.0199011 0)
(0.96048 0.0691239 -2.01525e-21)
(1.0215 0.000883559 8.91518e-24)
(1.01548 0.00120275 7.85819e-23)
(1.03015 0.0255954 4.21147e-21)
(1.01314 0.0202745 0)
(1.01147 -0.000813039 9.38089e-22)
(1.0129 -0.00382541 1.16764e-21)
(1.01223 -0.00571159 5.87482e-22)
(1.00113 0.156341 0)
(1.02647 0.020857 1.18836e-21)
(1.00687 8.48352e-05 0)
(1.01029 0.0627946 0)
(0.973162 -0.158836 4.51816e-22)
(1.01356 0.00500099 1.20428e-21)
(0.96464 0.0386445 1.22078e-21)
(1.14312 0.0180385 8.77461e-21)
(1.02228 0.00457908 1.78123e-21)
(0.81981 0.236802 8.96617e-22)
(1.01197 -0.000918228 0)
(1.16946 0.117927 1.00387e-20)
(1.01828 0.00318849 0)
(1.01715 -0.00287736 0)
(1.16377 0.0684982 -1.16249e-20)
(1.01855 0.0164306 -2.73873e-22)
(0.931087 -0.239946 -1.12834e-20)
(1.02677 0.0198141 -1.61603e-21)
(1.0155 0.00116947 5.52668e-23)
(0.815312 0.247271 -9.30745e-22)
(1.01814 0.00326081 -1.15245e-22)
(1.01003 -0.000287875 0)
(1.01294 0.000643054 2.68719e-22)
(1.01058 0.00199037 0)
(1.00776 0.0179343 1.29069e-21)
(1.01575 0.055285 0)
(0.831938 0.144273 2.41547e-21)
(1.00451 1.12483e-05 0)
(0.714836 -0.0551407 2.3401e-20)
(1.01797 0.00100725 0)
(0.957791 0.0322661 2.56128e-21)
(0.975224 0.069417 3.55145e-20)
(1.01777 0.0105104 -5.26885e-22)
(1.01837 0.0050107 8.56266e-23)
(1.01481 0.0212641 -6.31711e-22)
(1.01382 -0.00136011 0)
(1.12018 0.0657359 -9.63039e-21)
(1.01442 0.00371591 1.48902e-22)
(1.01018 -0.000288538 0)
(1.01183 -0.000514395 8.13173e-22)
(1.01409 0.00558994 1.84498e-21)
(1.0177 0.00140679 -3.77303e-22)
(1.19052 0.0903476 0)
(1.02124 0.00991785 -2.27359e-21)
(1.06906 0.0612558 2.00872e-21)
(1.01039 0.00426173 1.02983e-21)
(1.00578 0.00170811 0)
(1.0193 0.00934789 -2.25253e-21)
(1.0233 0.00216166 0)
(0.984639 0.0101841 -7.11771e-22)
(1.0098 -2.78665e-05 7.97929e-22)
(1.10542 0.0627713 0)
(1.00466 0.063485 0)
(1.01133 -0.000753384 -2.31116e-22)
(0.976216 -0.119843 0)
(0.832604 0.0693578 4.68513e-20)
(1.00684 -5.08568e-05 1.05974e-21)
(0.960913 -0.00372784 0)
(1.00536 -4.22919e-05 0)
(1.07481 -0.00280948 2.19768e-21)
(1.07169 0.0401938 5.00385e-21)
(1.01392 -0.00128078 1.07898e-22)
(1.06501 0.0463996 8.74521e-22)
(1.01134 0.0185751 -1.12814e-21)
(0.958278 0.0145629 -2.1367e-21)
(1.00664 -4.80857e-05 -9.4222e-22)
(1.05252 0.0170996 8.09553e-21)
(0.916761 0.0368566 4.29772e-22)
(0.938021 0.0500069 -3.11988e-21)
(1.05511 -0.0426686 1.15289e-22)
(1.01766 0.00141082 1.43919e-22)
(1.03543 0.0544315 -2.14095e-22)
(1.10343 0.0489599 0)
(0.909004 0.148877 0)
(1.01672 0.000679598 9.9554e-23)
(1.03633 0.0174874 0)
(1.01339 0.000656696 1.22326e-21)
(1.01864 0.00817622 -3.22496e-23)
(1.0118 0.00323088 1.12811e-21)
(1.00627 -4.09854e-05 -7.04382e-23)
(1.00919 1.95896e-05 3.82736e-22)
(0.955253 0.00943047 -3.7471e-22)
(1.01825 0.011423 -1.08699e-22)
(1.00753 9.695e-05 7.72542e-22)
(1.00981 -0.000254581 -1.0388e-24)
(1.00751 -8.54246e-05 7.3422e-22)
(1.01931 0.0106532 -2.9901e-22)
(0.941581 0.0447447 5.4484e-21)
(1.10217 0.0508998 0)
(1.01175 -0.000626436 1.22022e-21)
(1.01272 0.0200013 -9.22607e-22)
(1.01657 0.00806987 0)
(1.01633 0.00815231 8.01731e-22)
(1.01538 0.00105773 -5.59439e-22)
(1.01074 0.0021853 2.64365e-22)
(1.03892 -0.0152595 1.33154e-21)
(1.00998 -0.00030131 0)
(1.01022 0.00157068 1.04882e-21)
(1.00518 2.85315e-07 0)
(1.02193 0.00918758 -2.47835e-22)
(1.01161 0.0116143 -8.53369e-22)
(1.01546 -0.00346042 0)
(1.15633 0.0241692 -2.02381e-20)
(0.868082 -0.0522174 0)
(1.03849 0.0260355 -2.50138e-21)
(1.01008 0.00141625 0)
(1.12521 0.0406908 3.04213e-21)
(1.01011 -0.000272356 1.25946e-22)
(1.00999 -0.00029011 -1.03525e-24)
(1.0162 -0.00309877 -2.7625e-22)
(1.05881 -0.0362001 4.69619e-22)
(1.02023 0.00945215 -3.22481e-21)
(1.01644 -0.00299566 5.40896e-22)
(1.01193 -0.000498582 0)
(1.00959 -1.4898e-05 -7.53199e-22)
(1.02242 0.0107123 -1.19117e-21)
(1.01007 -0.000403519 0)
(1.0234 0.0146878 2.14329e-21)
(1.01421 0.00354258 0)
(1.02166 0.0107964 4.9119e-22)
(1.01186 0.00321968 1.05719e-23)
(1.036 0.01702 3.25635e-21)
(0.830592 0.0930758 2.44888e-22)
(1.01045 0.0018192 5.68529e-22)
(1.02395 0.0117159 -1.49517e-21)
(1.00791 0.000225827 2.13455e-24)
(1.08983 0.172105 6.96208e-21)
(1.00008 0.0735368 -4.87026e-23)
(1.05642 0.0280625 0)
(1.01858 0.0112133 6.91452e-22)
(1.00477 -0.00981218 -1.54939e-21)
(1.00219 0.00227929 -1.76033e-21)
(1.0396 -0.00252525 -1.32449e-21)
(0.645559 0.00354663 6.48336e-21)
(1.00473 -9.81865e-06 4.35979e-22)
(0.974523 0.0515743 7.49115e-22)
(1.02397 0.0119271 5.87909e-22)
(1.12002 -0.064472 7.89178e-22)
(1.01017 0.00500831 -1.12139e-21)
(1.0115 -0.000561925 0)
(1.01392 -0.00106901 -1.93081e-22)
(1.00807 0.161704 -4.45816e-21)
(1.01349 -0.00102817 -2.12879e-22)
(1.05769 0.0287173 1.18727e-20)
(1.013 -0.0146317 -2.91357e-22)
(1.14669 0.0566882 1.47332e-21)
(0.988172 0.00257829 7.2516e-21)
(1.00644 0.000156232 -8.58388e-22)
(1.00735 0.000116494 1.02399e-21)
(1.0067 -2.85885e-05 -2.89792e-22)
(1.01344 0.00483344 -1.05397e-21)
(1.06411 0.0277577 -8.47266e-21)
(1.09933 0.109405 6.65201e-21)
(1.09071 -0.0568572 0)
(1.05428 0.0687154 0)
(1.02464 0.00174653 1.52594e-22)
(1.01025 -0.000465113 -1.2126e-22)
(1.00678 0.000264636 -2.19659e-23)
(1.01194 0.00320821 5.07574e-22)
(1.01106 0.00062013 5.49585e-22)
(1.02584 0.0103601 5.89134e-22)
(1.06802 0.0633687 6.2445e-21)
(1.01835 0.0099771 0)
(1.07611 -0.0523137 3.24785e-22)
(1.02429 0.00168263 -1.49673e-22)
(1.02081 0.00189443 0)
(1.00989 -0.00618957 -6.38195e-22)
(1.01676 0.00266289 4.76059e-23)
(1.1295 0.0421774 7.53753e-21)
(1.05686 0.0699877 0)
(1.00498 0.0591082 3.96133e-23)
(1.13496 0.083817 0)
(0.861459 0.00335384 0)
(1.02623 0.00531693 -1.28206e-22)
(1.01109 0.00254048 0)
(1.01025 -0.000434071 6.21544e-22)
(1.02756 0.00684964 1.05345e-21)
(1.01428 0.00080229 -5.54989e-23)
(1.09379 0.0960764 2.04436e-21)
(1.08286 0.0480966 0)
(1.11836 0.0686329 1.35014e-20)
(1.01117 -0.000500754 0)
(1.02194 0.00888547 0)
(1.01786 -0.000713821 1.02661e-21)
(1.01118 0.000569824 -5.84669e-22)
(0.6748 0.00736271 -3.32267e-21)
(0.993316 -0.00263974 1.27008e-21)
(1.01017 -0.000318097 5.43972e-22)
(1.01348 -0.00113343 4.33019e-22)
(1.00654 -2.73856e-05 5.86272e-22)
(1.01188 0.00333352 -2.33445e-21)
(1.01071 0.00162758 -1.36648e-21)
(1.01446 0.000815983 0)
(1.15872 0.0340865 -1.45593e-20)
(1.01336 -0.000887042 1.93492e-22)
(1.01056 0.00372787 0)
(1.01114 -0.00048387 -7.27749e-22)
(1.00886 0.000335375 5.10458e-22)
(1.01181 0.00333343 -1.17801e-21)
(1.01839 0.00790893 5.22105e-23)
(1.0205 0.0166132 2.76986e-21)
(1.00886 0.000327234 0)
(1.02409 -0.00658882 0)
(1.01197 -0.000530241 0)
(1.04421 -0.0235599 0)
(1.17427 0.0732464 -1.28972e-20)
(1.01931 0.0118746 -1.39437e-21)
(1.05616 0.0436106 -5.18836e-23)
(1.01433 0.00488748 0)
(1.03257 0.00764633 0)
(1.09319 0.0683232 5.78375e-21)
(1.0367 0.0529077 9.22975e-24)
(1.01389 0.000593449 1.13568e-22)
(1.00747 2.6981e-05 0)
(1.00862 2.73063e-05 -9.69325e-22)
(1.01052 0.00753727 7.31891e-24)
(1.00413 1.10406e-07 1.37182e-21)
(1.02695 0.00622933 1.14016e-22)
(1.04737 0.00546167 1.35749e-22)
(1.01835 0.0083462 0)
(1.01139 0.00189865 0)
(1.02157 0.000251308 -6.64539e-23)
(1.14061 -0.0364116 -1.45574e-21)
(1.04308 0.025668 -1.32713e-23)
(1.00445 1.25151e-05 0)
(1.00745 -4.01706e-05 0)
(1.01032 0.014131 9.43688e-22)
(1.02747 0.0660348 0)
(1.01322 0.0037357 0)
(1.05134 0.104269 2.38481e-21)
(1.00795 0.000211932 0)
(1.01123 -0.000770567 -4.61411e-22)
(1.03853 0.026644 4.7035e-21)
(0.934747 -0.0288011 0)
(0.921069 -0.0816909 0)
(1.06942 0.0144868 -2.55443e-22)
(1.15833 0.0340012 7.45972e-21)
(1.01126 -0.000627231 0)
(1.02395 -0.0103682 1.11108e-21)
(0.95108 -0.00943459 -6.34815e-22)
(1.00811 0.0142776 0)
(1.01328 0.00475633 0)
(0.948518 -0.00667155 6.60412e-22)
(1.00771 -0.000454106 0)
(1.06606 0.188323 8.21111e-21)
(0.921308 -0.0291627 2.55327e-21)
(1.00688 -9.1423e-05 -5.37127e-22)
(1.01124 -0.000591004 0)
(1.02189 0.000767587 -6.1471e-22)
(1.01117 0.00683703 6.96893e-22)
(1.01145 -0.000643395 1.28202e-22)
(1.05004 0.0484988 -7.63335e-22)
(1.07535 0.0216456 1.77568e-21)
(1.00971 -0.000237761 -2.86396e-22)
(1.01831 0.0085558 0)
(1.01918 0.0111358 -2.81955e-22)
(1.0702 0.0460279 -4.22867e-21)
(1.01344 0.00510256 -8.56152e-22)
(1.01253 0.000440349 -6.92226e-22)
(1.03207 -0.00553511 0)
(1.01408 -0.00254354 0)
(1.01225 -0.000779256 6.89609e-22)
(1.0676 0.0052366 9.40128e-22)
(1.09157 0.107152 6.08103e-21)
(1.09866 0.0855727 5.06409e-21)
(1.01433 0.000893429 -1.56913e-22)
(1.01048 -0.000435844 0)
(1.00995 -0.000267718 0)
(1.01645 0.00199685 8.0165e-22)
(1.02339 0.00190146 -4.94357e-22)
(1.01864 -0.0120901 0)
(1.01053 0.00127798 0)
(1.00764 2.42195e-05 0)
(1.01868 0.00307128 -9.58434e-22)
(1.0263 0.0502142 9.81581e-23)
(1.00902 -2.44382e-07 8.35403e-22)
(1.01847 0.000594298 3.51706e-22)
(1.04005 0.106763 3.89602e-21)
(1.01077 0.00155734 -3.08014e-22)
(1.00938 0.000752748 -2.11027e-21)
(1.01811 0.00273686 2.93641e-22)
(0.660054 -0.0860108 2.37583e-21)
(1.01044 -0.000429002 -1.26989e-24)
(1.02118 0.00182456 0)
(1.00914 -9.77511e-06 8.3775e-22)
(1.01568 -0.0052144 0)
(1.01024 -0.000422472 -7.98334e-23)
(1.03293 0.0325005 8.11508e-22)
(1.13718 0.0629545 -1.08291e-20)