/*--------------------------------*- C++ -*----------------------------------*\
| =========                 |                                                 |
| \\      /  F ield         | OpenFOAM: The Open Source CFD Toolbox           |
|  \\    /   O peration     | Version:  v2012                                 |
|   \\  /    A nd           | Website:  www.openfoam.com                      |
|    \\/     M anipulation  |                                                 |
\*---------------------------------------------------------------------------*/
FoamFile
{
    version     2.0;
    format      ascii;
    class       surfaceScalarField;
    location    "100";
    object      phi_0;
}
// * * * * * * * * * * * * * * * * * * * * * * * * * * * * * * * * * * * * * //

dimensions      [0 3 -1 0 0 0 0];
oriented        oriented;


internalField   nonuniform List<scalar> 
27055
(
-0.00900573
0.00900573
-0.261448
-0.461432
0.336739
0.124692
-0.358678
0.164314
0.194364
-0.0284859
-0.0581047
0.0865906
0.0829529
-0.0377093
-0.0452437
-0.184441
-0.0816006
0.266042
-0.434021
0.3733
0.0607209
0.112562
-0.0241828
-0.088379
-0.0937523
0.0652663
0.0190297
0.199738
-0.218768
0.130646
-0.149342
0.0186958
-0.112633
0.00747265
0.10516
-0.0435517
0.0424927
0.00105906
-0.106979
0.120703
-0.013724
-0.0694578
0.0935266
-0.0240689
-0.479307
0.477319
0.00198771
0.0826837
0.32434
-0.407024
-0.366673
0.223502
0.143171
0.095988
-0.0831556
-0.0128323
0.0379386
-0.0668538
0.0289151
-0.0622343
0.232266
-0.170031
-0.208832
0.227862
0.24389
-0.231411
-0.0124798
0.128456
-0.0536557
-0.0748002
0.0545544
0.0739015
0.0861222
0.248459
-0.334581
0.0509934
0.0319596
-0.345414
0.428098
-0.16939
-0.292042
0.341783
0.205794
-0.547577
-0.00641932
0.0076812
-0.00126188
0.264446
0.138155
-0.402601
-0.00125808
-0.00262527
0.00388335
0.0388648
-0.0388177
-4.7062e-05
-0.0506931
0.075602
-0.0249089
0.0351556
-0.0352714
0.000115822
0.481954
-0.179614
-0.302339
0.0202607
0.0238164
-0.0440771
0.548219
-0.285282
-0.262937
-0.0085857
0.00013328
0.00845242
0.132723
-0.14288
0.0101579
0.00821391
-0.0803537
0.0721398
0.0254354
0.0084402
-0.0338756
0.27507
0.162003
-0.437073
0.0263067
-0.0483009
0.0219942
-0.259757
-0.104034
0.139058
-0.00633568
-0.0890886
0.0668354
0.0222532
0.189278
-0.291464
0.102186
-0.371753
0.326382
0.0453707
0.391752
0.0666246
-0.458376
0.0064131
-0.00828929
0.00187619
0.118467
-0.125217
0.0067497
0.0393963
0.057657
-0.0970532
0.0956541
-0.0457579
-0.0498962
0.00605782
-0.314111
0.308053
0.395317
-0.225472
-0.169845
-0.00647761
-0.000963259
0.00744087
0.188006
-0.286855
0.0988489
-0.127485
0.0205063
0.446984
-0.171914
-0.0904154
-0.0325769
0.122992
-0.164299
-0.194379
-0.0894895
-0.0250852
0.114575
-0.125378
0.206422
-0.081044
0.00635561
-0.00709905
0.000743435
-0.00399291
-0.00242641
-0.235074
0.321196
-0.211489
0.121074
-0.278401
0.284459
-0.448613
0.341606
0.107007
0.0060434
0.0016378
0.0296898
0.0279952
-0.0576851
0.140994
-0.0529476
-0.0880461
0.060709
-0.00117151
-0.0595375
0.112275
0.0557398
-0.168014
0.188789
-0.238463
0.0496745
-0.0219975
0.0219975
-0.178178
0.244493
-0.0663154
-0.00720939
0.00321648
0.103911
-0.0102927
-0.0936179
0.0126372
-0.127157
0.114519
0.14179
0.0997402
-0.24153
0.0495717
0.0122907
-0.0618624
0.0542814
0.0413727
-0.432683
0.3304
0.102282
-0.173974
-0.192699
0.0982901
0.00562045
-0.0904332
-0.0238907
0.114324
-0.378998
0.205024
-0.330258
0.232278
0.0979805
-0.0742958
0.416079
-0.0369002
0.0908624
-0.0539623
-0.175239
-0.203759
-0.0812035
-0.130286
0.100047
-0.336966
0.236918
-0.290537
0.192096
0.0984408
0.00668042
0.0471879
-0.0538683
-0.334393
0.179736
0.154657
-0.0813984
0.10583
-0.0244318
-0.00822876
0.126696
0.0659732
-0.0385855
-0.0273877
-0.0984254
0.0188312
0.0795942
-0.0709453
0.0202523
-0.11201
-0.0115474
0.123557
-0.384007
0.214617
0.0354959
0.0481381
-0.083634
-0.513631
0.513631
0.130162
-0.162739
-0.228563
0.103184
0.0676774
-0.0487224
-0.0189549
0.102957
0.180091
-0.283048
-0.273802
0.0893607
-0.320994
-0.0507588
0.141405
-0.156106
0.0147006
0.0146337
-0.110724
0.0960901
0.0433731
-0.0170664
0.119485
-0.1023
-0.0171846
-0.151014
0.146434
0.00458086
0.132783
0.254732
-0.387515
0.262886
0.219067
-0.0327786
0.0275023
0.00527631
0.0722127
-0.0262836
-0.0459292
-0.00420879
0.0352159
-0.0310071
0.0933953
-0.0851813
-0.034133
-0.0674797
0.101613
0.290172
-0.467202
0.177029
-0.0234124
0.0613511
0.0127584
0.054919
-0.368566
0.318731
0.0498348
0.24806
-0.0652408
-0.182819
0.0174887
0.101996
0.35003
-0.0367502
-0.31328
-0.00216063
0.00857372
0.0494108
0.0112981
-0.0842164
-0.00487223
-0.257005
0.507057
-0.250052
-0.283271
0.194811
0.0884594
0.0219701
0.0228328
-0.0448029
-0.0721365
0.111533
-0.152729
0.040719
0.0107226
-0.00378944
-0.00693313
-0.172165
0.348193
-0.176029
0.137732
-0.0558684
-0.0818636
-0.0130311
-0.102228
0.115259
-0.127956
0.000471355
-0.238637
0.49799
-0.259352
0.00463717
-0.0301177
0.0254806
-0.095949
0.0813115
0.0146375
-0.0082098
0.0121429
0.122906
-0.134067
0.0111612
-0.0136189
0.102206
-0.0885873
-0.0497608
0.162035
-0.110371
0.0199374
-0.00734574
-0.00123996
0.101172
-0.0742303
-0.0269414
-0.107359
0.0178693
-0.0498628
0.0553139
-0.00545112
-0.0952649
-0.148938
-0.11251
0.319276
0.0307547
-0.0817997
0.006147
0.000208618
-0.04781
0.0146588
0.0331512
0.334784
-0.194201
-0.140583
-0.0781213
0.0957636
-0.0176424
0.00748731
0.00323526
-0.170033
0.0186067
0.151426
-0.0555301
0.00983363
0.0456965
-0.028176
-0.192925
0.221101
-0.334009
-0.100013
-0.0288462
-0.33972
0.185826
-0.160197
-0.0350934
0.19529
-0.0245496
0.0245496
0.21377
-0.0719806
0.367079
0.049941
-0.41702
0.0367024
0.00216234
-0.237082
-0.0947669
0.331849
-0.0867206
0.0671725
0.019548
-0.0288352
0.0490959
-0.375397
-0.0732162
0.0261154
0.0398578
0.0117796
-0.0117796
0.237553
-0.159245
0.244215
-0.08497
0.000890521
0.0486812
0.376184
0.172035
0.0245907
-0.0260546
0.00146395
0.166433
-0.0606729
-0.105761
0.351156
-0.156276
-0.19488
0.0188095
0.00648402
-0.0357306
0.0292466
0.144547
-0.316712
0.00986411
-0.205775
0.195911
-0.195387
0.298345
-0.0193229
-0.1886
0.207923
0.42933
-0.0186797
-0.41065
-0.101976
0.33132
-0.229345
0.254709
0.222587
-0.477296
-0.135069
0.153791
-0.0187226
-0.106384
0.0281935
0.0781903
0.0574651
-0.0309742
-0.0264909
-0.0682008
0.103697
-0.00373194
0.000448058
0.00328388
0.0182074
0.055007
-0.0732145
-0.00518154
-0.00397709
0.00915863
0.0838766
-0.0630844
-0.0207921
0.0261554
-0.132074
0.105919
-0.199835
0.349894
-0.150059
0.00353041
-0.131487
-0.105706
0.024308
0.0611658
-0.0544854
0.0654468
0.00357247
-0.0690193
-0.150469
0.0154003
-0.0961401
0.0825212
0.317262
-0.0849844
-0.285412
-0.0985944
-0.162159
-0.128377
0.0386084
-0.0339712
-0.0828905
-0.203964
-0.0067815
0.0155524
-0.00877095
-0.00504615
-0.136024
0.14107
-0.0333477
0.462678
0.238749
-0.266924
-0.0120724
0.202047
0.041843
0.137514
-0.374596
-0.401845
0.342037
0.0598075
0.338862
-0.14986
-0.189002
0.0100554
-0.180088
0.00984223
0.0252853
0.0758863
-0.168725
0.433171
0.0152588
-0.0465833
0.0313245
-0.146077
-0.0315246
0.177602
0.116361
-0.0485973
-0.0677632
0.300838
-0.11156
0.138403
-0.514397
0.375994
0.207704
0.131158
0.0184078
-0.0484731
0.0300653
0.0934997
0.0228608
0.11941
-0.0294362
-0.0899742
0.0312974
-0.00586201
-0.043834
-0.0116961
-0.514503
0.204168
0.310336
-0.0101898
0.00901466
0.00117516
0.0195602
0.000344973
-0.0199052
0.143047
0.0177015
-0.160749
-0.00736558
0.0696472
-0.0622816
0.0866947
-0.0526089
-0.0340858
0.320804
-0.168038
-0.152766
-0.0882482
0.0251638
0.225541
-0.215677
-0.0247479
0.0236301
0.00111786
0.030281
-0.0558846
0.0256036
-0.0154496
0.00866814
-0.0444226
0.0567133
-0.0860169
-0.000703694
0.196711
-0.145217
-0.051494
-0.0907946
-0.034422
0.0705095
-0.086745
0.0162355
-0.0571301
0.424209
-0.0775514
0.282776
-0.205224
-0.522275
0.403126
0.11915
0.0275769
-0.0330942
0.00551733
-0.0486903
-0.00117245
0.0409368
0.0674385
-0.0639503
-0.00348811
0.149577
-0.214818
0.00281349
-0.00407157
0.036904
-0.0725838
0.0356798
-0.449872
0.452262
-0.00238978
0.215151
0.105653
0.0238912
-0.0226133
-0.00127785
0.135467
-0.12283
-0.156392
-0.0686843
0.225076
-0.272556
0.410959
-0.025205
0.0209962
0.020542
0.00788918
-0.0284312
-0.00960901
-0.0961964
0.257827
-0.161631
0.0321364
-0.0190374
-0.013099
0.0851796
-0.0183442
0.0735449
-0.219622
-0.0718245
-0.0142697
0.0860942
-0.0315581
-0.00345358
0.0350116
0.19745
-0.12325
-0.0742006
0.107567
-0.0929336
0.153025
0.198131
-0.0805279
0.121089
-0.0405609
0.00460383
0.0199869
0.00650172
0.124144
-0.0199744
-0.0039401
0.0713786
0.0118084
0.0203281
0.279116
-0.195931
-0.0831847
0.29047
0.156514
-0.181705
0.165384
0.0163209
-0.184787
0.197255
-0.0124671
-0.484648
0.0602816
0.424366
0.0268318
-0.0448465
0.0180147
-0.0845763
0.0164617
0.0681146
-0.431507
-0.0531407
0.1435
0.251817
-0.131302
0.0142256
-0.10402
0.148177
-0.0441573
-0.402442
-0.0768655
0.0426785
-0.0361945
0.0654145
0.0539959
-0.115739
-0.248255
0.363994
0.00331477
-0.0849201
0.0816053
0.0915154
0.115603
-0.207119
-0.263018
0.166822
0.0659076
0.0221941
-0.026895
0.00470087
-0.211337
-0.112881
0.324218
0.0470245
-0.0317657
0.413967
-0.146754
-0.267213
-0.0413944
0.013822
0.0275724
-0.151663
-0.0044428
-0.106051
0.129586
-0.0235355
-0.00811207
-0.0321639
-0.0615594
0.0937233
0.144543
-0.224073
0.07953
-0.0838942
-0.169774
0.0181104
0.144186
-0.160715
0.0165292
0.116247
-0.131936
0.0411411
0.237271
0.0574892
-0.29476
-0.0729754
0.094002
-0.0210266
0.0184919
-0.0269296
0.00843773
-0.0774517
-0.00502021
0.0824719
-0.00665466
-0.00268024
0.0093349
-0.0584743
0.0738801
-0.0154058
0.0652987
-0.0341677
-0.0311311
-0.333462
0.0983888
0.127212
-0.101057
-0.155276
-0.246568
-0.051963
0.0701704
-0.0883598
-0.426143
-0.3487
0.51175
-0.163051
-0.328168
0.116831
-0.0806121
0.0768436
0.00376852
-0.00975275
-0.00264679
0.0123995
-0.117664
0.103394
-0.112991
-0.0183117
0.109469
0.0895864
-0.199056
0.0759923
-0.0424642
-0.0335281
0.119017
-0.0495268
-0.0694904
0.0708716
-0.103036
0.288985
-0.297022
0.00803665
0.11324
-0.121809
0.00856948
0.106165
-0.120987
0.0148216
0.0230182
-0.0599184
-0.0106928
0.0105386
0.000154233
-0.457579
0.059766
0.397813
-0.0822016
0.369499
-0.287297
0.0698672
-0.0148602
0.0224584
0.0709369
0.000977131
-0.00745474
0.183014
-0.00803878
-0.000966954
0.0888541
0.0775793
-0.102306
0.0704435
0.0318621
-0.0112073
0.0014545
-0.136528
0.124981
0.0358203
0.0294785
0.068791
-0.0216544
-0.0471367
0.0468708
-0.0691969
0.0223261
0.0429675
-0.191905
-0.00405639
0.00116038
0.00289601
-0.311976
0.210001
-0.224802
-0.109591
-0.222117
0.299007
-0.0768895
0.273403
-0.454223
0.18082
-0.078669
0.00921124
0.0823097
-0.0339766
-0.0483331
0.000871788
0.0982241
-0.0990959
-0.123601
0.0430728
0.297355
-0.480043
0.182689
-0.311044
0.163327
0.147717
0.0171928
0.00236744
0.148147
-0.00396169
-0.219155
0.00798318
0.211172
0.423381
-0.149978
0.345147
-0.197119
-0.148028
-0.138143
0.127472
0.0106711
-0.048818
0.0906204
-0.0418024
0.07236
-0.00463171
-0.0677283
-0.0328401
0.00272237
0.15838
-0.0102326
-0.0334034
-0.00501955
0.0384229
0.166582
-0.0235343
-0.0188139
-0.0139647
-0.433915
0.0585185
0.0199402
0.0375248
0.323771
-0.447585
0.123814
0.0632336
-0.0163628
0.0862637
-0.0208169
-0.0456651
0.13215
-0.0864853
-0.0144016
0.0328935
-0.010361
-0.373347
-0.0842322
0.132738
-0.109809
-0.022929
0.52529
-0.133539
0.327523
-0.0929535
-0.234569
-0.00717214
-0.0555997
0.0627718
-0.0182249
-0.0231695
-0.00271404
-0.00134236
-0.148292
0.0442729
-0.149957
-0.0198164
-0.0132118
-0.0303399
0.0769137
-0.0649515
-0.0119622
-0.479104
0.118677
0.360426
-0.467774
0.447596
0.0201784
0.039991
-0.0180209
-0.14012
0.120797
0.141075
-0.123612
-0.017463
0.100758
-0.0774943
-0.0232635
0.120225
0.0244042
-0.144629
-0.0917264
-0.198834
0.29056
0.041101
-0.0226932
-0.0890531
0.0952782
-0.00622508
0.076196
0.0647976
0.11504
-0.135816
0.0207767
-0.0317155
-0.0705901
0.0437582
0.0522298
0.226908
0.104309
-0.331217
-0.0372687
-0.0469476
-0.0015179
-0.00917492
-0.223365
0.0669726
-0.0964659
0.0234905
-0.34248
0.260279
0.208472
0.205495
0.244056
0.0979807
-0.197541
0.0436391
0.153902
-0.301601
0.137302
-0.0917181
-0.0146657
0.0134435
-0.0785041
0.0650605
-0.0119859
-0.0730846
0.102512
-0.029427
-0.250116
0.0908704
-0.101033
0.0279488
0.0726299
0.0893522
-0.161982
-0.249337
0.0711591
0.109502
-0.117621
0.00811848
-0.0932351
0.0151138
0.00910192
-0.0400994
0.0309975
0.167569
-0.229378
0.0618091
-0.255462
0.393095
-0.137633
0.25376
-0.0323974
0.0626784
-0.017408
0.278823
-0.261415
0.00634249
0.000278673
-0.00662116
-0.392537
-0.0752375
0.0834598
-0.0465558
-0.105446
0.0924148
-0.276679
0.184953
0.0695012
-0.073595
0.00409376
0.180684
-0.108054
-0.0350491
0.0604996
-0.0254505
0.0293802
-0.297197
0.267816
0.135218
0.199566
0.0461558
0.252458
-0.298613
0.0621179
-0.139502
0.0773843
-0.114948
0.00231489
-0.104574
-0.111669
-0.367435
0.0435046
-0.0344027
-0.0660994
-0.0196993
0.0857986
-0.105166
0.0859575
0.0192086
0.0241197
0.0482403
-0.072187
-0.0128984
0.0850853
-0.248244
0.191389
0.0568544
0.0450152
0.0164833
-0.0614985
-0.00952869
0.00287403
0.147333
0.0493771
-0.0984195
0.0789688
0.0194506
-0.150097
0.160195
-0.0100979
-0.22973
0.362513
0.141052
-0.020827
0.268992
-0.525998
0.0981724
-0.06836
-0.0298124
-0.148467
0.164778
-0.0163109
0.0422862
-0.187503
-0.0353363
0.00377827
0.144442
0.0139376
-0.0171203
-0.342643
0.359763
-0.0590575
0.0518854
-0.235112
0.217704
-0.157315
0.00735727
0.0861533
-0.0867939
0.000640568
-0.016267
-0.0727861
0.133793
0.219102
-0.352894
0.042357
0.026434
0.0246777
-0.0632632
-0.423934
0.0214928
-0.0991679
-0.202433
0.126268
0.0565236
-0.182792
-0.136808
0.146863
-0.0797748
0.0572114
0.0225633
0.0106513
-0.000112676
-0.0362956
-0.0497213
0.373606
-0.16582
-0.207786
0.206542
-0.217732
0.0111902
0.312473
0.0799178
-0.392391
-0.0870646
0.214857
-0.127793
0.0427435
0.000629576
-0.0171942
0.184763
-0.164546
0.00723163
0.00990432
0.0252513
0.408359
-0.282079
-0.126281
0.174762
0.198844
-0.252537
0.0333824
-0.0220775
0.0862619
-0.0641844
0.178429
-0.244545
0.0661159
-0.147881
-0.163555
0.311436
-0.166143
0.0293353
-0.0840195
0.00845134
-0.00175104
-0.0128702
0.0146212
0.00642177
-0.0085565
0.00213473
-0.256069
0.199512
0.0565572
0.211433
0.244393
-0.341176
0.0967835
-0.165283
0.160236
-0.000555982
-0.406612
0.205875
0.200737
0.0585106
-0.0926437
-0.0102736
0.088257
-0.00210371
0.00380517
-0.00714107
0.0033359
-0.114156
-0.31976
0.0774213
-0.0451406
-0.0322806
-0.087595
0.331988
0.0367108
-0.062267
0.0549014
0.192231
-0.00344235
-0.0924678
0.0436498
-0.0848164
0.39729
-0.158312
0.448484
-0.0461248
-0.377809
0.0905029
-0.0673989
-0.023104
0.0252409
-0.00469891
-0.101679
-0.00062084
-0.0829495
-0.22413
0.30708
-0.0123953
-0.0650564
-0.0731459
0.0956043
0.109251
0.222069
0.207853
-0.0294233
0.264344
-0.281465
-0.0275905
0.0288726
-0.00128216
0.0109805
-0.00209618
-0.00888436
0.136031
0.113644
-0.249675
-0.0625224
0.165746
-0.103224
0.241204
0.0470962
-0.2883
0.0483839
0.0290374
0.048283
-0.0481992
-8.38223e-05
0.350366
-0.447055
0.0966887
0.00363356
-0.0615457
0.0579121
-0.475198
0.040829
0.434369
-0.0612315
0.0261824
-0.495125
0.283212
0.211914
0.34436
-0.210567
0.0485245
0.0274678
0.00208359
-0.0268315
-0.017108
0.398836
-0.297593
-0.101243
-0.0699947
-0.206147
0.276142
0.0269529
0.00448177
-0.0314347
-0.156862
0.00839508
-0.228339
0.0804574
-0.222581
-0.0256625
-0.00596475
-0.0292763
0.0352411
-0.0243048
-0.07151
0.0958148
-0.0502999
0.00245078
0.0478492
-0.237855
-0.0956068
0.00328547
0.0206057
0.0323141
0.241544
-0.273858
0.00444897
-0.0603336
0.0947299
-0.0343964
0.425695
-0.304735
-0.12096
0.06084
-0.0829175
0.345013
-0.312699
0.0376963
0.101362
-0.105599
0.00156779
-0.00569416
0.00412638
0.337979
-0.228728
-0.528745
0.249101
0.279644
-0.0740768
0.000481857
-0.247261
-0.185421
0.010039
-0.0155126
0.00547366
0.172195
0.0166925
-0.188887
-0.00825181
-0.189289
0.00678469
-0.000442208
0.00936448
0.0292439
-0.152839
-0.0288651
-0.0220546
0.194249
-0.343303
-0.0624739
0.405777
-0.000722421
0.00577214
-0.00504972
0.0336684
-0.322258
0.228602
0.0936559
-0.00579366
-0.0985561
0.10435
-0.145468
-0.261144
-0.00821887
-0.0137787
-0.211027
-0.317718
0.0319861
0.0661863
-0.104058
0.284148
-0.208948
0.121883
-0.104628
0.00294899
0.00282002
0.0723424
-0.0751624
0.113282
0.00377483
-0.117057
0.0735769
0.30283
-0.376407
-0.339856
0.102
0.0377941
-0.013177
-0.0246171
0.378003
-0.304426
0.195287
-0.314792
0.136778
0.178013
-0.368576
-0.106621
0.0386647
-0.0230146
-0.0156502
0.00320935
-0.0339492
0.0307398
-0.0130533
-0.119021
-0.0202116
-0.062944
-0.0725526
-0.0156957
0.00507561
0.00290001
-0.00797562
-0.096103
-0.0792342
0.175337
-0.166447
-0.0836687
0.377955
-0.117192
-0.260763
-0.0417117
0.257692
-0.21598
-0.336429
0.29294
-0.409558
-0.0403144
-0.016577
0.0403934
0.027421
-0.0171797
-0.0102413
-0.00795424
-0.0398558
0.0300767
-0.00249979
-0.0553861
0.0305298
0.0248563
0.116748
-0.136953
0.020205
-0.0615581
0.00950042
-0.0603547
0.0508543
-0.138729
0.489096
0.065071
-0.0555706
-0.0412121
0.0802432
-0.0994132
0.01917
-0.0124336
-0.00342582
0.00850143
-0.151045
0.162705
-0.0116597
-0.114971
-0.196073
0.012965
0.014456
-0.257551
0.184005
0.073546
-0.12963
0.149759
-0.0201293
-0.17954
0.117018
0.00978905
-0.0431924
-0.0855659
0.070404
0.0151619
-0.107157
-0.207634
-0.0673805
0.0154175
0.00963376
0.0371491
-0.0593399
0.0221908
0.186155
-0.0598865
0.347621
-0.239933
-0.107688
-0.206437
0.144804
0.0616332
-0.134447
0.0638619
0.0705854
-0.212303
-0.0294082
0.241711
-0.105802
-0.00718842
0.0606017
0.0401562
-0.343168
0.314322
-0.252644
0.0861968
0.0303374
-0.252455
0.129149
0.31137
-0.440518
0.0205537
-0.0010143
-0.0195394
-0.00963098
0.0345918
-0.0249609
0.339772
-0.149185
-0.190587
0.0301623
-0.0491698
0.0856394
-0.0364696
0.0064105
-0.0403597
-0.0191187
0.0968173
-0.0776986
-0.297124
0.390621
-0.0934972
0.00881041
-0.00614242
-0.0890993
0.151217
-0.100352
0.0760471
-0.0105427
0.000124938
0.0104177
-0.322189
-0.0142406
-0.157902
0.0068574
-0.0177841
0.0453006
-0.0275164
-0.0391331
-0.00809262
0.0472257
0.210821
-0.252532
0.12065
-0.132844
0.0121941
-0.00340323
-0.000328708
0.173372
-0.243656
0.0702841
-0.431536
0.330033
0.101503
-0.0402431
-0.0210456
0.0612887
0.037893
0.00485051
0.101935
-0.0685012
-0.0834118
0.0108592
0.0250765
-0.00288233
0.0105369
-0.105979
0.0954419
-0.159644
0.148213
0.0114318
-0.00298596
0.0262328
-0.0232469
0.0244859
-0.0889483
0.0644624
-0.00993511
-0.000607569
-0.0917433
-0.0186273
-0.00605813
-0.00413168
-0.0138133
-0.113343
0.340965
-0.240918
0.00642177
-0.0985702
0.474463
-0.375893
-0.102582
-0.306392
0.408974
0.248058
-0.357811
0.109753
-0.00663513
0.00591271
0.0822493
-0.0343834
-0.047866
0.306338
-0.405865
0.0995271
-0.0518932
0.0341091
-0.21376
0.511115
0.131527
-0.118439
-0.0130877
-0.136988
0.0629389
0.0740487
-0.00235476
-0.00620174
-0.0842657
-0.0650761
0.0390872
0.19691
0.0770947
-0.274005
0.0719907
0.211635
-0.283626
-0.059595
0.296866
0.00817141
0.000828956
-0.00900037
-0.0940963
0.0270274
0.0670689
-0.0328786
0.042243
0.519274
-0.264565
0.0671474
-0.0221322
-0.453349
0.415061
-0.0174923
-0.0483516
0.378752
0.0940986
-0.190202
0.122071
-0.00687215
-0.115199
0.000261645
0.0819807
-0.0822424
0.526909
-0.269603
-0.257306
-0.0456467
-0.0599524
-0.130452
0.0312309
0.0745993
0.00817032
0.00360932
-0.017319
0.00441772
0.00656282
0.282287
-0.210297
-0.0012419
-0.0572324
-0.00332975
-0.00212224
0.00545199
-0.10126
-0.00919965
0.00744861
0.0397906
-0.0935865
0.053796
0.0101466
-0.00113197
-0.0783961
0.0149468
0.0634494
0.0362086
-0.0365996
0.000391014
-0.326819
0.455968
0.134986
0.0297918
0.168378
0.0894489
-0.0684199
0.0859955
-0.0175756
0.0479287
-0.0381509
-0.00977781
0.0526946
0.0195181
-0.265117
0.188881
0.0762359
0.410617
-0.00894835
-0.401668
-0.0180578
0.0207781
-0.00272027
-0.00810328
0.00675857
0.0013447
0.023823
-0.0501066
0.382897
0.0693062
-0.452203
0.0476872
0.0345621
-0.00995743
-0.333211
-0.123667
0.103183
0.0204834
0.000546923
0.0268848
0.0921324
0.00563179
-0.0112132
0.0055814
0.243827
-0.0931016
-0.150725
0.0139545
-0.143584
0.0020039
-0.00718544
0.00272896
0.00109548
-0.00382444
0.17337
-0.0383839
0.325018
-0.402559
0.0775415
0.0111734
-0.102917
-0.0517629
0.015486
0.0362768
-0.0613632
-0.0756243
-0.232695
-0.114789
0.347484
-0.0194077
-0.040585
-0.0645812
-0.0768163
0.00192891
0.0748874
-0.20921
0.0296692
-0.0806801
6.79444e-05
-0.478058
0.157601
0.320457
0.445735
-0.0530805
-0.392655
-0.0181
-0.00882963
0.0148617
-0.0870487
0.00992541
-0.0279832
-0.00387507
-0.0134281
0.0173031
-0.092726
0.065806
0.02692
-0.0857523
0.0608014
0.0249509
-0.027834
-0.00743745
0.301819
-0.191441
-0.110378
0.117142
0.019114
-0.136256
0.0869174
-0.1111
0.0277949
-0.0518941
0.0240992
0.0192137
0.187209
-0.121948
0.00854806
0.0292461
-0.0944754
0.094737
-0.0111484
0.0452828
-0.0341344
-0.106519
-0.437229
0.133997
0.100058
-0.0892799
-0.0107778
0.00200203
0.239202
-0.0130114
0.0230503
0.072943
0.0301655
-0.103109
-0.169637
0.148528
0.0211082
-0.0413901
0.00986354
0.0315265
-0.0173459
0.112206
-0.0948601
-0.0253665
0.0194385
0.00592796
0.00539527
-0.00382748
0.00101798
0.0565364
-0.0575544
-0.0577228
0.0174797
0.041436
-0.0633719
0.0219358
-0.0766133
-0.16185
0.309085
-0.451756
0.142671
-0.0734401
0.00839482
-0.00451128
-0.00388354
-0.00231405
0.0929675
-0.0906535
0.104444
0.0227686
0.00426706
0.0232352
-0.180742
-0.028468
-0.167511
0.151454
0.0160566
-0.26556
0.214399
0.0511609
-0.00374896
0.0062177
-0.00246874
-0.0539173
0.239295
-0.185377
0.0499479
-0.0202581
-0.0928671
0.0267677
-0.257418
-0.079548
-0.108081
0.0624343
0.0334253
-0.0106804
-0.00145053
0.0121309
-0.0737275
-0.127572
0.307308
0.314233
-0.0661745
0.0235803
0.0400495
-0.0636297
0.402627
0.0450169
-0.447644
-0.137678
0.123188
0.0144897
0.111758
0.245292
-0.35705
0.00779453
0.00101588
0.0436976
-0.203895
0.058349
0.0351777
-0.109119
0.00331695
0.131564
0.0311409
-0.335941
-0.0779407
0.413882
0.169482
-0.19021
0.0207284
-0.0150564
0.358354
-0.152804
-0.20555
0.0749258
-0.17951
0.104585
0.000847057
-0.039273
0.0384259
0.00846422
0.0030938
-0.011558
0.0410836
0.0796192
0.05388
-0.0039321
0.0163874
0.409037
-0.425424
-0.387101
0.256871
0.130231
-0.120347
-0.0441989
0.116393
0.294223
0.0294121
-0.0207902
-0.10162
0.00319494
-0.12807
-0.0202227
-0.406425
0.332129
0.104592
0.00869001
-0.106201
0.0376995
-0.479662
0.0234453
0.456217
0.0112
-0.014186
-0.0818696
0.0669228
0.0149468
-0.322502
0.41418
-0.0916786
0.351176
-0.468486
0.11731
0.0492421
0.00463785
-0.0352143
0.00214943
0.0330649
0.117715
-0.350409
0.0143214
-0.0443333
0.0300119
0.0338003
-0.0589945
0.0251942
-0.249846
-0.0900099
0.509461
-0.26036
-0.00803878
0.0190987
0.0195661
0.0770288
-0.0635853
-0.0900928
0.070974
-0.0608403
-0.0175558
-0.0797471
-0.182175
0.261922
-0.0475296
0.0186943
0.0202681
-0.0172617
-0.00728789
0.00843087
-0.133688
0.125258
-0.155331
0.151203
0.0041275
0.0242367
-0.056634
-0.0782092
-0.0145168
-0.275512
-0.188128
0.46364
-0.00733863
0.116841
-0.086778
0.0619917
0.233242
-0.380939
0.147697
-0.250794
-0.0975492
0.348343
-0.175503
0.0058667
0.195874
0.0755537
-0.481979
-0.0309984
0.0213674
0.0351681
-0.0629256
0.0277574
0.42478
-0.0221529
0.22319
0.010442
0.00322086
-0.0136628
0.00585935
0.00433205
0.00190525
-0.00623731
0.252082
0.132782
-0.358254
-0.0238893
0.0576896
0.134551
-0.177364
0.0428134
0.0465795
0.0598079
-0.106387
0.263988
-0.256005
-0.416372
0.0730694
-0.378452
0.447557
-0.0691048
0.381403
0.0930594
-0.00743579
9.00471e-05
0.320449
0.189012
0.389688
0.366703
-0.133461
-0.362848
0.238319
0.124529
-0.00683406
-0.00269464
0.0648873
-0.27719
-0.145275
0.0172054
-0.288666
0.0932792
-0.0734172
-0.0103902
0.0838074
0.075024
-0.0511644
-0.0238596
0.0759963
0.187992
-0.0230827
0.0489997
-0.0259171
-0.0609493
-0.0471317
-0.276226
-0.081585
0.423521
-0.00690166
-0.416619
-0.161535
0.0255386
0.135997
0.224815
0.13354
-0.382792
0.00434032
0.0997118
-0.448412
-0.464674
0.189162
-0.0673725
-0.0106418
0.0780144
-0.0588813
0.105461
0.171213
-0.0396493
0.0568901
-0.088532
0.0316419
0.0706994
-0.0920913
0.0213919
0.414573
0.212135
-0.000257198
-0.00696043
0.00721762
0.033243
-0.102684
0.0694407
0.0161808
0.0877579
-0.0900719
-0.068735
0.0196383
0.0490967
0.25477
-0.177729
-0.0770416
0.0943804
0.314657
-0.00756473
0.0106618
0.00937503
-0.0442928
0.148165
-0.103872
-0.127989
0.31057
-0.182581
0.0517122
-0.0100072
-0.0417051
0.00297107
0.0175826
-0.0837717
-0.318787
-0.0515167
0.116939
-0.0654221
-0.00269943
-0.00540385
-0.00908326
0.0298433
-0.02076
0.126157
-0.150968
0.0248107
-0.0875026
0.106334
0.108599
0.08731
-0.195909
0.00090939
0.0140741
-0.0149835
0.465924
-0.399299
0.298645
0.177545
0.0629861
-0.027818
0.00597578
-0.00571418
0.00635777
-0.000210775
-0.070065
-0.0191311
0.0891962
-0.0506447
0.0622049
-0.0115602
-0.0741372
-0.329308
0.258413
0.0708942
-0.359914
-0.135211
-0.123954
0.141649
-0.0176951
-0.0414053
0.0656419
0.199957
-0.327946
-0.0081637
0.00502729
0.00313641
-0.169086
0.0235841
0.145502
0.0254593
0.0368504
-0.0623097
0.00690956
-0.350058
0.100212
0.0312754
0.0204368
-0.089173
-0.0865736
0.161499
-0.099581
0.0688157
-0.081714
-0.191527
-0.330748
-0.253247
-0.1096
0.133436
-0.0162944
-0.0375354
0.0518568
-0.00690616
-0.123614
0.130521
-0.0191807
-0.0362054
0.492669
-0.344139
-0.148531
0.0801703
-0.196575
0.116404
0.0984115
-0.0254685
-0.0851393
0.00693017
-0.107858
0.111633
-0.00500246
0.0402184
0.0304923
0.0695654
0.0726711
0.0181913
-0.269191
0.189444
0.0272033
-0.0408025
0.0135992
-0.0433234
0.0410544
0.002269
0.0686315
-0.0511687
-0.0174627
-0.0656687
0.0150241
-0.0385522
-0.00681491
0.0453671
0.281642
-0.00702022
-0.00114348
0.12076
0.0147068
0.0941174
0.194302
-0.288419
0.015163
0.0581087
-0.0732717
-0.0313613
-0.00647499
0.0378363
-0.00134361
-0.00609218
0.120848
0.0764569
-0.197305
0.0158826
-0.0225143
0.439611
-0.217024
0.0334959
0.0196627
-0.0531586
0.117428
0.0048805
0.017117
-0.413774
0.0863722
-0.0294821
0.112684
0.0175959
-0.130279
-0.0475182
0.00237753
0.0531986
0.196896
0.00964581
-0.0077762
-0.0357531
-0.176916
0.212669
0.0406407
-0.00293521
0.00674038
0.469909
-0.328388
-0.141521
0.171624
-0.26582
-0.1483
0.0243461
0.0904929
-0.107839
-0.134015
0.173899
0.0047242
-0.178624
-0.0388514
0.042485
-0.130641
0.222157
-0.0589412
0.0145186
-0.00485119
0.111016
0.0637495
-0.0827991
0.0190496
0.176161
-0.0239672
-0.152194
0.107145
0.0935791
-0.200724
-0.00581204
0.00248229
0.139558
-0.0381963
-0.387151
0.110925
0.0266293
-0.0497119
-0.0352614
0.00243375
-0.00641083
0.000912274
-0.00670425
0.00579198
-0.0391633
0.00988694
0.104776
-0.122275
0.0174985
-0.126741
0.509638
-0.306186
0.51198
-0.0799383
0.195542
0.24146
0.0694038
-0.310863
-0.00243618
0.0644279
0.00483097
0.0015268
-0.0119021
-0.0519521
0.0638542
-0.35571
0.341541
0.0141695
-0.0702794
0.0777521
0.00419716
0.00293117
-0.00712833
0.0296364
-0.0449265
0.0152902
0.275421
-0.102765
-0.103672
-0.03338
0.00998472
0.0233953
0.0553947
-0.0218987
0.0955726
-0.117496
0.0219236
0.0954243
0.0116522
-0.107077
0.108993
0.170123
-0.191957
0.156203
-0.0152687
-0.117576
0.0192029
0.00534664
-0.0436866
-0.231561
0.275248
0.00975798
-0.0047307
-0.232631
0.262968
0.152634
0.00614306
0.000544763
-0.00668783
-0.0294555
-0.0494622
0.0789177
0.116628
0.127199
-0.555729
0.235324
0.320406
-0.125848
-0.024621
-0.0809482
0.0972462
-0.016298
0.0969953
0.0105721
-0.107418
0.0617528
0.277742
-0.191052
-0.0866899
0.29692
-0.210013
-0.0869067
0.187697
0.0305391
0.00762992
-0.038169
-0.0759293
0.090791
0.0895625
-0.0953562
0.0163414
-0.0351552
-0.156305
-0.0127813
0.397896
-0.283415
-0.114481
-0.226905
-0.0375668
0.264471
-0.103803
0.0820299
0.0217734
0.027389
-0.0959623
0.0685732
0.107659
-0.308181
0.200522
0.139893
-0.142796
0.00290243
0.0405834
-0.129683
0.0450772
0.358048
-0.451526
0.240651
0.210875
-0.398849
0.280837
0.118012
0.362444
-0.124601
-0.237842
-0.278451
-0.173075
-0.0834343
-0.0239245
0.0339253
0.314268
-0.0421226
0.0409511
-0.0471367
-0.137651
-0.116871
0.135301
-0.0184299
0.0170198
0.0705823
-0.0876021
0.0562579
0.140997
0.312039
-0.0705798
-0.0217394
0.0522785
-0.0156695
0.172607
-0.156938
-0.00252013
-0.00668866
0.00920879
0.162179
-0.222357
0.060178
-0.163949
0.0120414
0.151908
-0.0576306
0.0825822
-0.0249516
0.237971
-0.426095
0.188125
-0.0125007
0.00182027
0.194168
-0.164788
0.0909832
-0.0205792
-0.00294391
-0.0220506
-0.0212728
0.0142974
-0.131169
0.131219
-0.087552
-0.0436667
-0.286264
-0.142763
0.429027
-0.00577853
0.00853553
-0.0103656
0.0614677
-0.0511021
0.136946
0.159974
-0.0635627
0.258374
-0.0668156
0.253313
-0.186498
-0.00744377
0.00412359
0.00332018
0.134623
0.00994715
-0.14457
0.0606707
0.021639
-0.00640897
-0.0211815
0.194852
-0.184543
-0.0642632
0.248806
0.0108
0.317497
-0.328297
0.00888287
-0.00321112
-0.00567175
-0.122403
0.130849
-0.0084461
-0.113389
-0.0221677
0.0352398
0.0552631
0.0017495
0.000979468
-0.0768918
-0.0537399
-0.0172055
-0.00668416
-0.0259323
-0.00208104
0.0280133
-0.0670458
0.373384
-0.440421
0.38329
-0.0313845
0.0568437
-0.00413784
-0.017775
0.0219128
0.0766386
0.0124231
-0.0797956
-0.259494
0.00790743
-0.0813246
-0.364031
0.334599
0.0294325
-0.292876
-0.0711556
0.0768696
-0.00645286
-0.000346091
0.00679895
-0.316928
0.327728
-0.29757
-0.101279
0.239524
-0.283211
-0.00608418
-0.349626
0.00514997
0.0433745
0.350224
-0.232509
0.0257665
0.0594131
-0.344841
0.122921
0.22192
-0.105259
0.11369
-0.0144864
-0.0485904
0.0630768
0.183575
0.343334
0.299331
-0.191672
0.0126577
-0.0936059
-0.28301
0.0888086
0.160464
-0.0259126
-0.0966453
0.112606
-0.0159606
-0.00313046
-0.00864919
0.00884394
-0.0703896
0.414207
-0.207089
-0.207117
0.0777484
0.026536
-0.104284
0.0675841
-0.0421721
-0.0254119
0.253106
0.0830591
-0.336165
-0.144255
0.0184068
-0.0435199
0.0343256
0.00919436
-0.00646232
0.0919136
-0.0169178
-0.0215759
-0.0822274
-0.0414432
-0.115564
0.157007
-0.010356
-0.0898862
0.100242
-0.141991
0.347985
-0.205993
0.351571
0.155486
0.110856
0.317422
-0.428278
0.0967821
0.144591
0.0970664
-0.241657
-0.113263
0.00540562
-0.0516249
0.0206508
-0.00713651
-0.0182299
-0.158966
0.363133
-0.0449378
-0.0408215
0.0857593
0.191284
-0.287404
0.0961202
0.210892
-0.411877