/*--------------------------------*- C++ -*----------------------------------*\
| =========                 |                                                 |
| \\      /  F ield         | OpenFOAM: The Open Source CFD Toolbox           |
|  \\    /   O peration     | Version:  v2012                                 |
|   \\  /    A nd           | Website:  www.openfoam.com                      |
|    \\/     M anipulation  |                                                 |
\*---------------------------------------------------------------------------*/
FoamFile
{
    version     2.0;
    format      ascii;
    class       volScalarField;
    location    "100";
    object      k;
}
// * * * * * * * * * * * * * * * * * * * * * * * * * * * * * * * * * * * * * //

dimensions      [0 2 -2 0 0 0 0];


internalField   nonuniform List<scalar> 
18598
(
0.00114924
0.00179541
7.13078e-05
0.000110499
7.15457e-05
9.75046e-05
0.0348156
6.57895e-05
6.45549e-05
6.93489e-05
4.50696e-05
6.89781e-05
8.4196e-05
0.0411959
0.000392761
5.75479e-05
8.14868e-05
0.00313136
0.00207258
0.00192835
0.00208581
5.87662e-05
0.000124516
5.71921e-05
7.37273e-05
0.00186402
5.33246e-05
0.0432949
8.24852e-05
4.86741e-05
0.00128579
6.43135e-05
0.00195923
4.4993e-05
0.00256389
5.15857e-05
8.48214e-05
7.36224e-05
9.53701e-05
0.00345784
0.0438107
5.3872e-05
7.00582e-05
9.42168e-05
5.1493e-05
0.043082
5.60731e-05
0.00303411
8.99227e-05
7.69814e-05
0.000160741
7.70055e-05
6.48019e-05
9.20761e-05
8.93523e-05
5.1517e-05
0.00783847
0.0332676
0.0411108
0.00331664
7.97193e-05
6.64299e-05
6.47292e-05
0.000474174
8.98711e-05
7.03744e-05
8.84244e-05
7.03824e-05
6.69997e-05
0.000525227
7.78823e-05
7.65945e-05
9.03453e-05
8.26654e-05
6.76948e-05
5.76214e-05
7.95901e-05
6.536e-05
6.56722e-05
9.12584e-05
7.68788e-05
7.68941e-05
5.8549e-05
6.78768e-05
8.77984e-05
9.02001e-05
5.56458e-05
0.00193775
0.0124432
0.0535071
8.46152e-05
7.37775e-05
7.99127e-05
8.51481e-05
7.70123e-05
8.93045e-05
8.97631e-05
0.000460425
6.89669e-05
8.5308e-05
0.00867525
0.00715383
9.40085e-05
0.00151996
0.0366502
9.51934e-05
0.0001662
0.000179946
4.44268e-05
0.0525601
5.15912e-05
7.69005e-05
0.000125084
9.10798e-05
6.41889e-05
0.000757926
9.04727e-05
6.46719e-05
5.37507e-05
7.17799e-05
0.000629173
4.7338e-05
0.00435111
6.99366e-05
7.69569e-05
0.0335475
0.0121654
7.15751e-05
5.37123e-05
0.0509154
4.79674e-05
0.0392817
8.85629e-05
9.36468e-05
9.4079e-05
9.54462e-05
5.31828e-05
4.76983e-05
4.76376e-05
0.0412285
9.05304e-05
4.87424e-05
8.12107e-05
0.0421133
0.000124452
5.30268e-05
0.0358745
6.46209e-05
0.00328014
4.86727e-05
6.39779e-05
0.0077927
5.40022e-05
0.021678
6.27304e-05
8.48803e-05
5.39643e-05
0.00107211
7.86856e-05
7.27582e-05
9.4831e-05
0.00043021
0.000162185
8.55083e-05
0.02585
0.00111703
0.000144803
8.72981e-05
5.93978e-05
8.22173e-05
0.000101608
8.81386e-05
0.00214549
0.000148769
0.00253852
0.000299634
8.16296e-05
0.000191689
7.13692e-05
7.09888e-05
0.0565031
4.48989e-05
8.58888e-05
0.0477898
8.87237e-05
7.3897e-05
0.0413421
6.87228e-05
0.000112407
0.00127142
0.000125671
9.07764e-05
7.20487e-05
0.00869582
8.23847e-05
0.000142476
5.84934e-05
6.88507e-05
4.87626e-05
0.0226999
0.000112868
9.17625e-05
5.63275e-05
8.31913e-05
0.000172644
8.69271e-05
5.86064e-05
8.41997e-05
5.61745e-05
0.0118387
8.67934e-05
4.48746e-05
7.35278e-05
0.000129287
0.012947
9.39925e-05
0.00649818
0.000155459
0.000121456
5.27783e-05
9.80193e-05
0.000158916
0.0532373
5.83381e-05
7.36461e-05
6.83439e-05
8.95003e-05
0.0545266
8.56336e-05
4.87326e-05
0.000117346
0.017716
7.85466e-05
6.92481e-05
4.8758e-05
8.90747e-05
5.30181e-05
0.000113407
4.48669e-05
8.2892e-05
7.01018e-05
8.85201e-05
0.000112285
8.61697e-05
7.25316e-05
8.82705e-05
8.19579e-05
7.75034e-05
7.26799e-05
4.41725e-05
0.0334196
6.38925e-05
0.0194346
0.000107144
7.97822e-05
7.73007e-05
7.14748e-05
9.73708e-05
6.38612e-05
0.0494357
4.46849e-05
6.13642e-05
0.000109928
6.38178e-05
7.1306e-05
0.00388848
4.76406e-05
6.96839e-05
5.12645e-05
0.00430754
4.76284e-05
7.78245e-05
0.0486407
4.76537e-05
9.12519e-05
0.0374913
6.85712e-05
0.00185017
0.00230851
0.000257097
0.00017092
0.00969919
6.44431e-05
8.56589e-05
0.0120123
0.000433933
0.00202743
8.86552e-05
0.0118695
0.0208012
5.06973e-05
0.00158516
4.51695e-05
7.54126e-05
0.0498011
9.0233e-05
0.00011319
7.55946e-05
4.41262e-05
0.00195565
6.86984e-05
7.12078e-05
0.0128938
8.88079e-05
5.10316e-05
0.000115341
7.74717e-05
6.60146e-05
6.2995e-05
5.09222e-05
7.73741e-05
7.18931e-05
0.000211291
4.46273e-05
7.331e-05
0.0118575
8.39726e-05
5.98672e-05
0.00393991
7.17165e-05
6.82033e-05
6.91377e-05
4.42832e-05
7.25747e-05
0.00144207
0.00681983
9.34986e-05
8.5252e-05
7.32713e-05
0.00415693
4.43835e-05
0.0543601
6.34748e-05
0.0363102
5.7112e-05
0.0461813
8.56628e-05
8.14025e-05
0.00560992
5.08012e-05
9.53776e-05
4.42488e-05
0.0208119
6.33594e-05
5.4268e-05
6.18931e-05
8.45471e-05
0.00389031
0.0214201
0.0474022
8.56392e-05
0.000134291
7.73544e-05
0.0474839
0.0409365
8.9633e-05
0.0404945
0.00695657
0.000194846
8.18452e-05
8.95073e-05
0.00113073
5.42623e-05
8.98825e-05
0.0451977
8.20577e-05
0.0356431
7.0666e-05
0.037176
7.21673e-05
8.87029e-05
8.04246e-05
6.97434e-05
8.94258e-05
0.0415663
7.05402e-05
8.01291e-05
7.10059e-05
7.75016e-05
9.00023e-05
5.75013e-05
0.000119215
0.00018583
8.79342e-05
9.37507e-05
0.000163887
6.50798e-05
7.96136e-05
8.60072e-05
8.15932e-05
7.0468e-05
0.05305
8.15755e-05
9.11237e-05
0.000135282
8.84324e-05
4.76517e-05
0.00453801
0.000269429
5.11508e-05
8.71664e-05
5.03262e-05
4.83124e-05
8.16337e-05
6.79672e-05
0.00319134
5.01754e-05
0.0287004
8.42757e-05
0.0252413
6.93266e-05
7.89885e-05
0.0529679
0.0330069
0.0210752
8.33329e-05
0.0024561
9.02943e-05
0.00197045
8.45449e-05
4.53268e-05
8.36779e-05
7.24662e-05
5.1559e-05
0.010747
0.00135963
0.00862495
8.7634e-05
8.37949e-05
8.86542e-05
5.0824e-05
8.90778e-05
7.01345e-05
9.04375e-05
8.88245e-05
8.95993e-05
6.98075e-05
5.13449e-05
6.21854e-05
6.85803e-05
7.19186e-05
4.80928e-05
0.0184285
8.11791e-05
7.78726e-05
7.9067e-05
5.06702e-05
7.2937e-05
8.37024e-05
0.0370847
8.52865e-05
5.27101e-05
8.89155e-05
0.036968
6.95159e-05
8.75315e-05
8.9443e-05
6.36589e-05
8.98698e-05
5.79759e-05
0.0340638
5.33299e-05
4.47364e-05
6.21017e-05
5.31037e-05
4.46689e-05
8.79953e-05
0.046465
8.93444e-05
4.47955e-05
5.76902e-05
8.8778e-05
4.43959e-05
8.16882e-05
0.0148712
6.94299e-05
8.53896e-05
6.1442e-05
8.97227e-05
7.50445e-05
0.000117246
7.46626e-05
9.08842e-05
7.08453e-05
4.61619e-05
0.000535147
0.000121679
4.5609e-05
8.11542e-05
0.0119057
0.0074291
0.053387
0.000112783
4.7627e-05
0.0520611
0.0162766
4.7676e-05
9.50505e-05
0.000216119
0.00011782
0.0361056
0.000459759
6.53587e-05
0.045772
8.63574e-05
6.57814e-05
4.86771e-05
5.69705e-05
0.0140678
9.23624e-05
0.00205412
8.15217e-05
8.51183e-05
0.0533289
0.0020823
0.000249852
0.0350063
0.00314893
4.47512e-05
4.53009e-05
0.0197689
9.4133e-05
0.0197003
0.0010693
9.18521e-05
7.35826e-05
0.000325071
0.000182773
0.000114701
8.64973e-05
8.465e-05
4.45614e-05
7.01721e-05
6.3546e-05
6.5692e-05
5.28847e-05
0.00407725
7.76381e-05
6.0795e-05
0.00477287
0.000131755
0.00561763
8.82882e-05
0.000131068
0.0221625
8.11323e-05
8.61761e-05
0.000101169
0.0334226
0.0563842
0.000496891
5.94012e-05
8.9353e-05
7.93349e-05
0.000125958
4.77438e-05
8.09878e-05
5.82078e-05
4.46588e-05
4.47452e-05
4.47505e-05
0.0320008
0.0196491
9.47357e-05
0.011907
0.0176134
8.84022e-05
0.000262562
8.80571e-05
4.83455e-05
9.60854e-05
0.0422152
8.2714e-05
8.51514e-05
7.99362e-05
4.81382e-05
8.2524e-05
0.0471983
7.80155e-05
6.8571e-05
5.94935e-05
0.0523773
0.000118165
0.0545697
7.53427e-05
8.49004e-05
6.31674e-05
0.00794162
0.00215528
7.90836e-05
5.88813e-05
4.44133e-05
6.3467e-05
8.82772e-05
6.77278e-05
8.20325e-05
0.00013292
6.27575e-05
0.00914067
5.5181e-05
7.57455e-05
7.49744e-05
5.87766e-05
5.70744e-05
6.2816e-05
6.96784e-05
0.000763998
8.2726e-05
0.000121773
6.35422e-05
9.38836e-05
6.32645e-05
0.000373381
0.0208272
5.26855e-05
6.31291e-05
5.50666e-05
0.033591
7.40305e-05
8.9753e-05
6.30798e-05
8.51597e-05
0.0198697
6.09077e-05
0.0464062
4.46863e-05
0.0165983
0.0367882
9.411e-05
5.96743e-05
8.12887e-05
7.23922e-05
7.53312e-05
7.57729e-05
8.83383e-05
0.00765033
7.50871e-05
9.05887e-05
4.07619e-05
8.09149e-05
7.5617e-05
8.88815e-05
0.000452066
0.000120021
0.00274577
6.59262e-05
8.12522e-05
0.000157429
7.75704e-05
7.69333e-05
8.51095e-05
7.83017e-05
0.00778462
6.85699e-05
0.0244215
0.000106278
0.000209736
6.34186e-05
3.86102e-05
6.96057e-05
8.82529e-05
4.85552e-05
0.00116649
8.09297e-05
7.20357e-05
8.62257e-05
6.90952e-05
0.00610734
9.0319e-05
9.49118e-05
5.93876e-05
5.33933e-05
4.84826e-05
0.000749457
0.00742666
8.87557e-05
5.3818e-05
0.000193461
1.23228e-05
0.0096434
8.06918e-05
0.0409011
8.46464e-05
0.00830555
0.0334712
6.9548e-05
4.46385e-05
0.0405151
3.95061e-05
4.44278e-05
0.0520952
0.0544199
0.00145212
8.87484e-05
8.94972e-05
7.21786e-05
0.000121437
0.00787221
0.00406338
7.36181e-05
9.59399e-05
0.000106741
5.11347e-05
0.0293957
6.41669e-05
5.99625e-05
0.0443252
8.9187e-05
0.0556877
7.82768e-05
7.89917e-05
8.0724e-05
8.10121e-05
0.0332267
0.0168793
9.00838e-05
0.0323277
6.35667e-05
5.88725e-05
8.87284e-05
9.61084e-05
8.87403e-05
0.00240257
0.0324098
9.10043e-05
7.4156e-05
7.30189e-05
0.0338377
9.48587e-05
0.00268992
0.004369
7.89419e-05
8.9349e-05
0.0395971
0.0548901
5.58788e-05
0.00471526
9.46381e-05
5.4379e-05
8.35805e-05
8.93423e-05
5.53292e-05
0.000110327
8.83678e-05
5.43404e-05
7.17865e-05
0.00502858
0.000489457
0.0099762
0.0296519
9.14681e-05
8.59818e-05
4.85827e-05
0.0215064
0.00244138
9.43946e-05
7.09512e-05
6.29481e-05
0.000110605
0.00278062
7.06097e-05
8.33803e-05
0.000141041
7.60789e-05
0.0159095
5.22658e-05
0.0110304
0.0235899
5.20724e-05
6.44448e-05
7.90594e-05
8.59719e-05
7.84315e-05
6.47422e-05
5.77542e-05
5.97986e-05
0.00568728
4.81602e-05
5.79414e-05
4.94372e-05
0.000296735
0.0411465
7.4346e-05
5.26265e-05
8.50209e-05
6.30688e-05
0.03348
8.73075e-05
0.0238726
4.5222e-05
8.89951e-05
0.00669032
6.87043e-05
9.09371e-05
7.2717e-05
8.85223e-05
8.49171e-05
5.96404e-05
8.88878e-05
0.000123548
7.52405e-05
4.77021e-05
6.27471e-05
8.41204e-05
8.4624e-05
1.27378e-05
7.42396e-05
7.81671e-05
5.76518e-05
5.07312e-05
7.88738e-05
7.67549e-05
8.92194e-05
8.86375e-05
0.022719
7.24887e-05
8.8822e-05
0.0105453
0.0414955
0.0523021
0.00828458
0.0401622
8.91288e-05
0.000110406
4.84571e-05
5.48484e-05
7.86408e-05
5.97006e-05
9.19833e-05
4.43759e-05
0.00106104
8.29716e-05
5.80887e-05
4.63496e-05
7.70547e-05
9.68416e-05
8.10083e-05
0.0350198
0.0296594
7.39059e-05
7.24285e-05
4.71338e-05
0.0341871
7.07491e-05
0.0459486
5.24541e-05
0.000156446
1.90967e-05
5.79668e-05
9.38786e-05
0.000855098
0.0211063
7.08896e-05
0.00570418
7.35788e-05
0.0392013
0.0398077
6.33568e-05
0.000262332
6.7813e-05
6.33632e-05
8.89187e-05
7.80152e-05
5.83233e-05
4.43299e-05
0.0342916
5.54657e-05
8.58895e-05
4.94516e-05
7.89586e-05
8.88002e-05
0.0461796
8.86585e-05
6.26083e-05
6.75539e-05
6.50719e-05
6.23221e-05
4.43772e-05
7.69515e-05
5.40153e-05
9.09351e-05
4.94397e-05
8.26673e-05
0.0365958
8.31288e-05
0.000212062
9.08839e-05
4.43305e-05
0.0002929
7.59655e-05
6.96792e-05
0.00535707
0.00410114
0.000116922
0.0527998
6.02293e-05
7.95526e-05
7.29676e-05
8.63638e-05
7.73755e-05
8.38044e-05
8.33494e-05
7.58476e-05
8.35094e-05
8.79813e-05
6.22463e-05
8.67258e-05
8.46498e-05
5.89393e-05
6.79474e-05
0.0536617
5.69336e-05
6.24798e-05
7.52704e-05
0.000108919
5.61891e-05
6.06336e-05
8.7743e-05
6.05256e-05
4.23796e-05
7.57664e-05
0.050671
8.87519e-05
7.37438e-05
8.36447e-05
8.87393e-05
5.96374e-05
8.74919e-05
0.0166842
0.000267974
6.04589e-05
0.000247964
0.000244247
7.65833e-05
8.85714e-05
7.0339e-05
4.75067e-05
0.0416314
7.66867e-05
0.0111402
8.3111e-05
5.57208e-05
0.000102373
0.0108818
8.21282e-05
7.68542e-05
0.0410403
0.0167451
0.000132031
0.00687978
7.0795e-05
0.000168488
5.39748e-05
5.95e-05
0.00149212
6.46526e-05
0.00613437
0.00564302
8.7965e-05
5.2513e-05
7.36917e-05
4.81587e-05
0.000301777
0.0511095
0.0110455
7.90738e-05
6.22222e-05
0.0413127
0.0352349
0.0366768
7.86102e-05
0.0279883
0.0397788
8.76195e-05
0.025903
6.21175e-05
0.000116972
7.87947e-05
5.65104e-05
6.26273e-05
0.000163323
4.49848e-05
0.032556
9.38978e-05
5.26208e-05
5.31369e-05
5.20193e-05
9.00588e-05
0.0169556
0.00562052
0.00903762
9.12627e-05
0.0203487
7.87397e-05
8.30145e-05
8.09876e-05
8.24261e-05
4.6402e-05
7.33323e-05
5.34568e-05
5.44765e-05
7.45785e-05
7.5772e-05
0.000326541
4.61163e-05
8.80001e-05
0.0086325
0.0392491
0.00871175
6.64688e-05
0.0536138
0.000117508
0.000124837
7.77039e-05
0.00900833
8.09561e-05
9.13575e-05
0.000134091
0.00286242
0.00732496
0.0296009
0.0490207
5.74774e-05
0.0533617
7.35709e-05
0.000133528
0.000116978
5.6098e-05
4.48736e-05
5.27161e-05
5.25767e-05
0.0357775
8.65939e-05
0.0019103
6.54459e-05
6.84791e-05
8.67708e-05
6.18201e-05
7.93264e-05
4.53969e-05
0.000762377
8.78987e-05
5.53357e-05
4.53612e-05
0.000233508
7.52911e-05
0.000102399
4.74787e-05
6.83808e-05
5.96762e-05
0.00872001
8.94105e-05
7.99551e-05
6.84179e-05
5.31304e-05
0.00721337
0.000143859
8.22488e-05
0.000158501
0.0340835
8.89306e-05
0.000106925
0.000276237
7.85916e-05
0.000283023
7.64807e-05
9.7172e-05
9.15271e-05
0.0097073
0.0414867
0.000109696
0.0522548
6.13286e-05
7.76583e-05
0.0289661
7.37496e-05
0.00969269
0.040155
0.000100206
8.15009e-05
7.22016e-05
6.91922e-05
0.0505683
4.83572e-05
8.88329e-05
8.95667e-05
6.16354e-05
6.12551e-05
7.94045e-05
8.44361e-05
6.24232e-05
0.00214904
9.04292e-05
0.00553731
6.17401e-05
0.0168817
8.90982e-05
7.57024e-05
5.10797e-05
0.00715426
0.0472102
5.9633e-05
9.29928e-05
0.0066849
8.90443e-05
0.00630389
5.92585e-05
4.76575e-05
7.36206e-05
8.10003e-05
8.99082e-05
8.09083e-05
5.71621e-05
0.0512677
7.40558e-05
0.000176888
0.0158035
7.51585e-05
7.5712e-05
6.5566e-05
0.00887877
4.92415e-05
8.63091e-05
0.0519234
0.000113252
7.95788e-05
5.68389e-05
0.03643
7.69871e-05
7.83757e-05
8.92307e-05
0.000249944
8.21887e-05
7.66098e-05
4.78769e-05
7.32772e-05
8.73899e-05
8.96632e-05
0.0119497
7.17937e-05
7.8963e-05
7.65659e-05
0.0459696
0.00248198
5.72265e-05
6.46401e-05
0.000101383
4.76842e-05
8.74194e-05
5.30688e-05
6.41631e-05
0.0087893
7.02083e-05
4.8252e-05
5.97589e-05
8.48873e-05
5.09389e-05
6.45139e-05
6.4174e-05
5.97928e-05
4.79561e-05
0.00377544
0.00162523
8.00143e-05
7.95201e-05
8.22409e-05
0.00919089
0.000101119
4.80707e-05
7.97256e-05
0.000140757
0.000134678
0.0089758
5.28341e-05
9.43963e-05
0.000121459
0.0137489
5.42501e-05
0.00874392
6.86329e-05
7.31234e-05
4.77606e-05
8.42286e-05
0.000118695
7.25242e-05
0.000102103
0.000137129
7.01355e-05
6.93522e-05
8.72673e-05
5.29125e-05
0.0508476
6.54817e-05
6.69525e-05
0.020047
6.63585e-05
6.41125e-05
0.0517798
5.66577e-05
8.44685e-05
5.27958e-05
6.12133e-05
0.000251986
7.40426e-05
6.28618e-05
0.00144606
0.000109089
7.69669e-05
0.0168134
0.00134115
0.000178558
6.81721e-05
7.811e-05
8.50093e-05
8.92641e-05
0.0516824
0.0467823
0.0200919
8.18386e-05
0.000103139
8.39198e-05
2.65809e-05
0.00687838
8.54741e-05
8.14709e-05
7.06173e-05
9.42417e-05
7.00172e-05
8.55226e-05
7.96019e-05
8.03698e-05
0.0111545
5.1045e-05
8.35935e-05
0.0322171
7.39078e-05
7.43112e-05
6.25803e-05
5.32667e-05
0.051124
4.77441e-05
8.7637e-05
7.00701e-05
8.57315e-05
8.43562e-05
8.04727e-05
0.000104731
0.0539417
5.34025e-05
6.15988e-05
0.000119984
0.000226114
8.72063e-05
0.0541653
0.0156878
0.0482415
5.98449e-05
7.22106e-05
7.54464e-05
0.0134497
8.66527e-05
7.71928e-05
6.67951e-05
9.02573e-05
0.0322409
7.86608e-05
7.99658e-05
8.73001e-05
0.00133641
7.30021e-05
4.61727e-05
0.0540102
6.45287e-05
0.0200898
8.2432e-05
5.06263e-05
6.87083e-05
5.85504e-05
6.30996e-05
7.86761e-05
8.65882e-05
5.45003e-05
7.00283e-05
7.35322e-05
0.0142949
8.29014e-05
0.00899051
0.0384047
0.010166
5.74012e-05
0.00463796
9.46333e-05
0.00101307
0.0279643
6.74906e-05
9.06934e-05
0.000100941
8.26125e-05
0.0387603
7.70828e-05
8.56348e-05
4.51193e-05
7.87538e-05
9.03198e-05
0.000127148
0.000120927
0.000128938
7.36416e-05
0.0447242
6.23081e-05
7.55736e-05
0.000100679
0.000107832
7.75019e-05
8.71684e-05
6.18529e-05
0.000233834
0.0148227
7.70072e-05
8.26756e-05
0.0128431
7.24253e-05
7.53368e-05
4.89707e-05
0.000108517
7.05596e-05
9.74275e-05
4.62316e-05
0.000449712
6.28376e-05
8.3978e-05
7.85701e-05
0.00227133
0.000132438
4.89095e-05
6.94814e-05
0.000125083
0.000101224
6.78535e-05
7.83435e-05
6.10575e-05
0.000112952
5.02509e-05
7.73193e-05
5.50198e-05
0.000124562
7.57103e-05
0.000322402
8.94379e-05
6.02788e-05
8.41423e-05
8.2799e-05
7.17653e-05
0.00599068
0.00131538
0.0399117
0.0103106
5.23551e-05
0.000159302
0.0118059
5.16381e-05
9.73575e-05
0.00103314
6.08947e-05
7.04554e-05
0.000106109
0.000134679
6.31408e-05
0.000105211
7.61503e-05
0.0297507
7.6686e-05
4.92918e-05
0.0424013
9.72653e-05
8.3311e-05
8.47112e-05
0.00320788
6.52035e-05
9.78574e-05
8.34317e-05
7.32119e-05
4.75675e-05
4.94457e-05
8.99407e-05
0.0331939
8.96195e-05
0.0425448
6.7509e-05
0.000108664
5.71927e-05
4.60216e-05
0.000381683
0.00615023
9.17346e-05
0.000140932
0.00712769
7.96449e-05
0.00434465
7.5259e-05
6.18576e-05
0.00258701
5.42892e-05
0.000539238
0.000104196
4.75208e-05
8.92723e-05
0.000126024
0.0355091
8.86929e-05
0.000125667
6.79016e-05
0.000162305
5.69858e-05
7.82142e-05
4.68961e-05
9.07197e-05
9.19945e-05
0.016443
0.00545146
6.93907e-05
6.67126e-05
0.000517587
5.72198e-05
0.0450025
0.0525429
7.34417e-05
6.97606e-05
0.00229304
8.85742e-05
0.050719
8.05123e-05
0.00560144
8.01133e-05
8.82933e-05
8.42236e-05
6.01689e-05
7.00196e-05
0.0522868
0.0416196
4.48991e-05
6.69085e-05
0.000124706
0.012003
5.1179e-05
0.000271057
9.21564e-05
7.0528e-05
0.0182619
0.0073684
7.02767e-05
0.00256278
0.00275492
6.32659e-05
8.78377e-05
0.000210103
5.14596e-05
5.87167e-05
0.00949813
4.48384e-05
0.00616865
0.00190513
4.5764e-05
2.67305e-05
4.72814e-05
9.96264e-05
0.00235324
5.29415e-05
5.35188e-05
5.31427e-05
0.00522504
5.47548e-05
5.69042e-05
8.42359e-05
0.0176698
0.00144284
6.34187e-05
0.000188801
0.0497842
7.84134e-05
9.97522e-05
5e-05
0.000126789
0.00785958
0.0464372
0.0275561
9.92193e-05
0.00949012
5.3059e-05
9.10369e-05
7.27308e-05
6.90952e-05
0.0325164
7.5985e-05
0.00481843
5.99535e-05
0.00249638
5.70056e-05
8.09882e-05
0.0520549
8.00051e-05
0.00752518
0.0398763
8.8436e-05
5.04121e-05
0.0253844
5.45589e-05
8.11905e-05
0.00341091
8.56755e-05
7.47125e-05
5.71347e-05
0.0555494
7.39708e-05
7.96347e-05
0.00192675
0.00010857
4.49279e-05
0.0519805
8.95248e-05
0.0412418
0.000306686
6.06103e-05
7.79864e-05
7.76663e-05
0.0530106
0.0272712
0.000157177
8.90371e-05
8.29507e-05
6.75612e-05
9.07334e-05
0.0420164
8.17241e-05
0.0340684
6.7276e-05
7.62791e-05
8.41835e-05
0.000564011
0.000100104
0.0143688
8.33111e-05
7.56813e-05
0.0271961
7.25518e-05
6.93386e-05
6.38279e-05
8.3457e-05
8.41031e-05
8.69354e-05
0.0244032
8.49001e-05
8.67383e-05
7.9999e-05
5.33549e-05
5.22605e-05
0.010411
4.55558e-05
0.0513122
6.82875e-05
0.00410525
5.31566e-05
8.52523e-05
6.15078e-05
8.61773e-05
7.04624e-05
7.80176e-05
7.62058e-05
8.34111e-05
0.0017356
8.52247e-05
9.57507e-05
7.33819e-05
9.1368e-05
4.88236e-05
0.0204302
0.00216724
4.45754e-05
7.9199e-05
0.000115585
0.00377315
5.87494e-05
0.00348566
0.00450628
0.000120001
8.06525e-05
0.00713607
6.42719e-05
8.1338e-05
4.96998e-05
5.99328e-05
7.47688e-05
5.31211e-05
7.32197e-05
5.86402e-05
4.43646e-05
0.0078966
8.8406e-05
7.98547e-05
9.15643e-05
0.0469283
6.07207e-05
7.40566e-05
0.000105449
4.53883e-05
6.13229e-05
8.90004e-05
0.00103802
8.54628e-05
6.44909e-05
7.81135e-05
4.52352e-05
8.39127e-05
5.72081e-05
6.12486e-05
0.00790802
0.00178512
8.30672e-05
0.0276
0.0157822
8.3254e-05
8.51643e-05
0.000106975
0.00458444
7.86323e-05
0.000122873
0.000107999
9.01486e-05
5.92479e-05
6.70368e-05
9.6475e-05
7.30749e-05
9.43497e-05
6.51776e-05
0.007945
0.000316507
0.00343708
8.30188e-05
0.0460106
8.37907e-05
8.19332e-05
0.0195395
0.00352436
7.82414e-05
4.74615e-05
0.0428968
0.000101706
0.0420036
8.48026e-05
4.43108e-05
5.13649e-05
8.43367e-05
4.48116e-05
0.0314809
0.053013
8.54206e-05
5.68742e-05
8.0345e-05
0.0513703
0.000226309
8.27481e-05
5.98034e-05
0.0431346
4.78927e-05
8.63642e-05
0.0441455
0.00111579
0.0328717
0.00756412
0.0272105
6.7472e-05
8.88304e-05
6.5441e-05
9.77655e-05
0.0418783
8.59987e-05
0.000307359
4.88863e-05
8.39566e-05
0.0440085
6.3776e-05
2.65797e-05
8.5026e-05
0.0378697
0.00665601
8.72127e-05
0.00012515
8.12666e-05
0.0052769
6.72347e-05
0.000174747
8.92162e-05
0.000921754
8.46887e-05
8.69362e-05
0.0431505
7.2602e-05
7.64115e-05
0.0322552
8.81722e-05
5.87368e-05
6.0114e-05
0.000119385
7.38888e-05
6.69789e-05
7.88106e-05
4.58886e-05
5.39059e-05
0.000128138
7.9829e-05
0.051956
0.000107002
0.000104267
7.31614e-05
0.00968104
5.45771e-05
5.94163e-05
8.50211e-05
7.69622e-05
4.58553e-05
0.00545471
0.000162287
0.0143551
8.06571e-05
0.000161037
4.58303e-05
0.0023746
0.000123429
0.053157
0.000115054
5.83603e-05
6.07401e-05
0.0306418
7.58221e-05
7.84064e-05
6.65844e-05
4.77135e-05
0.0147494
0.000152789
0.000485218
8.84541e-05
6.02381e-05
0.0337025
0.00566157
0.000260903
8.03692e-05
9.11247e-05
8.78776e-05
0.00675902
6.17101e-05
6.0772e-05
0.000118326
0.0506762
6.12465e-05
6.32562e-05
4.67261e-05
5.69018e-05
7.95241e-05
6.73261e-05
7.34435e-05
6.8749e-05
0.00020429
0.0130224
5.03427e-05
8.04891e-05
4.48658e-05
6.09918e-05
0.0410807
8.6122e-05
8.75502e-05
0.0105001
0.0394725
0.000258364
8.2948e-05
0.0510366
6.8552e-05
8.92771e-05
8.82737e-05
0.000250877
0.0192885
8.48132e-05
6.44459e-05
0.0344085
0.0100099
6.02533e-05
5.89347e-05
8.80075e-05
8.22309e-05
8.81435e-05
0.0025597
0.00583943
0.000101906
7.9619e-05
0.000218305
5.04823e-05
0.00577709
8.90132e-05
0.021231
0.0019212
5.26661e-05
6.00702e-05
5.31699e-05
0.000130779
0.000175133
4.93607e-05
8.47449e-05
5.92364e-05
7.78983e-05
8.56292e-05
9.55169e-05
0.020027
5.06105e-05
8.68096e-05
8.5839e-05
8.47356e-05
0.0346792
8.04218e-05
8.82136e-05
6.02668e-05
5.83991e-05
8.92436e-05
0.00010644
7.6552e-05
9.65279e-05
0.0102493
6.84087e-05
6.05377e-05
0.00149712
5.64243e-05
5.99349e-05
0.0473021
6.09929e-05
0.00409191
5.8291e-05
9.04458e-05
8.08715e-05
4.73485e-05
8.0204e-05
7.93521e-05
5.86978e-05
0.0305256
0.00335309
0.000126276
4.99875e-05
9.74302e-05
7.79519e-05
5.04621e-05
0.00849662
4.82863e-05
0.00011382
9.15527e-05
0.0205185
0.000122492
5.63526e-05
9.87119e-05
9.02177e-05
7.55866e-05
0.0301828
8.81144e-05
4.60633e-05
0.00886354
0.000109298
8.46118e-05
8.59504e-05
0.000223893
6.89495e-05
8.54892e-05
4.98869e-05
0.00366881
0.0020051
6.42612e-05
7.27173e-05
0.050197
8.87205e-05
0.00800699
0.00458927
5.72323e-05
0.00398874
8.81598e-05
7.62392e-05
8.91381e-05
0.000411815
8.88897e-05
4.75145e-05
8.4567e-05
0.0399025
8.44633e-05
8.84557e-05
0.000238969
6.99369e-05
8.30401e-05
0.038122
4.72691e-05
8.79907e-05
8.75294e-05
8.03967e-05
7.55432e-05
0.000176846
8.81367e-05
8.83857e-05
8.84687e-05
0.00382787
3.26608e-06
4.72563e-05
0.00387994
6.45279e-05
0.0263086
6.98278e-05
5.69052e-05
0.0263038
6.69732e-05
0.000103975
5.7149e-05
6.11038e-05
5.32941e-05
7.57218e-05
0.00112849
6.24718e-05
0.0502202
7.94193e-05
9.67997e-05
8.25244e-05
0.0423195
0.00487406
7.44473e-05
0.012264
8.76843e-05
4.99022e-05
8.48715e-05
8.80795e-05
0.00488013
0.0104825
5.72475e-05
9.64637e-05
8.57045e-05
7.04795e-05
7.54821e-05
0.000119105
0.0523879
6.08758e-05
0.00542166
8.88336e-05
0.00508487
0.00671139
8.55249e-05
4.91864e-05
8.8384e-05
0.00227966
9.0215e-05
4.65879e-05
7.88153e-05
0.0108023
0.0161984
0.00346278
0.0284884
9.03129e-05
0.0277168
6.09101e-05
8.9026e-05
8.30687e-05
0.0215697
5.0467e-05
5.69482e-05
8.97903e-05
4.91501e-05
5.13031e-05
0.00284032
4.97791e-05
0.000145641
9.68601e-05
8.99461e-05
9.08388e-05
0.00877929
8.46212e-05
8.37807e-05
8.77602e-05
0.000939037
0.000157639
0.0175076
7.53003e-05
6.9663e-05
7.23657e-05
0.0464741
5.93193e-05
5.40952e-05
6.57631e-05
0.0368932
0.00442552
8.05689e-05
0.0276697
5.86934e-05
5.72803e-05
0.000134004
0.0518778
8.04581e-05
0.00798269
8.69363e-05
0.0423631
7.26289e-05
7.61377e-05
0.000454542
0.0509396
8.13688e-05
7.1173e-05
6.95421e-05
8.48478e-05
6.26368e-05
7.78868e-05
8.06754e-05
0.0470529
0.00673784
8.38459e-05
7.55804e-05
0.000103424
0.00523442
8.76253e-05
8.44046e-05
4.4484e-05
0.000102299
4.91384e-05
0.000910247
8.86844e-05
5.93132e-05
8.03166e-05
0.000101399
0.0282819
0.0480378
0.00493518
0.0421416
0.000121074
0.00137053
0.0468575
0.000113756
0.00666278
9.06022e-05
0.000104978
8.10403e-05
0.000106614
0.00012423
4.71158e-05
0.00190698
0.040336
0.000110482
0.00822485
0.00409055
0.00104116
6.00281e-05
5.3316e-05
9.10369e-05
9.0001e-05
0.003449
4.97417e-05
0.0484907
8.74523e-05
8.43601e-05
7.5733e-05
0.00218398
9.47378e-05
0.000117106
7.68106e-05
0.00857652
0.000384018
5.06119e-05
8.90019e-05
0.0201743
0.000113234
0.000168563
6.98417e-05
6.98921e-05
0.000101404
0.00032533
0.0108977
0.00639714
0.013652
0.00011808
0.021559
0.000114165
5.18258e-05
8.43499e-05
5.16363e-05
5.2602e-05
0.00381017
5.389e-05
9.3109e-05
9.03626e-05
0.0209474
0.00122009
5.06942e-05
4.78874e-05
6.05023e-05
0.000116105
9.00663e-05
6.65558e-05
5.35751e-05
0.00660247
0.0522689
0.000113269
6.71672e-05
0.000102504
0.00572773
5.73927e-05
5.69779e-05
0.00010047
7.44602e-05
8.45427e-05
8.15995e-05
0.000136692
0.000691577
8.55061e-05
6.95382e-05
6.75778e-05
0.000114288
0.0276541
4.62784e-05
6.56853e-05
8.3006e-05
0.000210487
0.000105733
0.000127587
0.0360285
5.89789e-05
0.00207009
7.88109e-05
0.0461754
0.010274
0.0189373
8.68677e-05
7.8095e-05
8.61533e-05
8.38844e-05
6.51288e-05
0.000138046
8.20215e-05
0.000118218
0.00452387
6.73771e-05
5.95238e-05
7.22581e-05
7.98347e-05
0.0313355
0.000574576
1.66348e-05
4.83207e-05
0.0159788
8.64849e-05
6.02163e-05
0.000105831
6.70815e-05
0.0015178
8.06202e-05
0.000103074
0.00325143
5.22455e-05
0.0524405
0.0542198
0.0188715
0.0389424
9.02778e-05
0.000108056
8.17901e-05
6.75581e-05
8.25879e-05
0.000182449
0.0419555
8.26701e-05
0.000993139
6.73356e-05
7.61079e-05
0.0100382
8.91801e-05
4.73606e-05
8.65209e-05
5.74604e-05
0.0044249
8.95089e-05
7.66457e-05
9.5814e-05
7.16313e-05
9.0745e-05
0.000700137
0.0477031
0.00457315
0.0231453
8.14537e-05
8.1925e-05
0.000118256
0.0035617
8.26115e-05
0.00706663
0.000108213
0.000142088
0.000125364
0.0440748
8.69714e-05
0.0277524
0.00324581
0.0044415
0.0436184
6.88756e-05
6.28791e-05
5.66161e-05
6.72528e-05
8.57484e-05
8.42641e-05
8.44653e-05
0.052875
0.000179645
5.61594e-05
8.79301e-05
4.60813e-05
8.66467e-05
8.76857e-05
0.00595591
0.0286759
9.02071e-05
0.000114797
0.00244708
0.0357207
8.87684e-05
0.030404
0.0123144
0.000133717
0.00037679
0.00416259
5.06253e-05
8.77277e-05
4.79065e-05
7.2192e-05
6.59873e-05
5.35561e-05
5.45896e-05
6.52076e-05
0.000914482
9.85852e-05
7.07135e-05
0.000103785
0.0516048
5.96316e-05
0.0113796
7.95054e-05
8.78e-05
0.000116538
8.54901e-05
4.71767e-05
0.00498794
8.72525e-05
8.79031e-05
0.0478685
5.23797e-05
8.88431e-05
0.00263838
8.91095e-05
0.0398988
0.0297319
0.0268551
8.36863e-05
7.00384e-05
7.61811e-05
4.49858e-05
8.11528e-05
0.00654246
5.05808e-05
9.35231e-05
8.7014e-05
6.67425e-05
0.0362008
0.00462933
8.03475e-05
8.88402e-05
7.67054e-05
5.06314e-05
9.65335e-05
5.41602e-05
0.00461442
7.18892e-05
0.0294994
0.0133708
0.0379975
8.33185e-05
0.00686226
0.00114972
8.61041e-05
0.000132961
6.88333e-05
7.26401e-05
0.00676227
0.00054436
0.0163872
8.83419e-05
9.53835e-05
0.0422025
7.89719e-05
5.34968e-05
7.26599e-05
8.8646e-05
5.43251e-05
9.01614e-05
9.96153e-05
6.64545e-05
0.00155041
0.00258767
0.00317526
8.97638e-05
0.000106145
0.0402088
0.000107045
6.43231e-05
7.74178e-05
0.000149176
4.48281e-05
6.71812e-05
9.05258e-05
0.0460487
6.04227e-05
0.0345985
0.000125397
9.19782e-05
0.00141806
8.76257e-05
0.006814
6.4822e-05
9.27434e-05
7.80421e-05
0.0255786
0.00159797
7.05957e-05
0.000111344
5.85536e-05
0.0454753
5.83638e-05
8.04011e-05
0.0105562
0.0286605
4.71844e-05
0.00318172
0.00619048
8.77796e-05
0.0417769
7.76733e-05
0.0533363
8.67485e-05
9.06596e-05
9.7733e-05
0.00440191
0.0286747
8.92949e-05
5.76463e-05
6.63694e-05
0.0526814
7.77541e-05
4.75493e-05
0.0547137
8.84668e-05
0.000120193
0.00145655
8.4756e-05
9.65034e-05
0.0540621
0.000128235
6.74946e-05
0.012475
7.66024e-05
0.0272955
0.00431056
8.68142e-05
6.40768e-05
7.93738e-05
6.33555e-05
7.41609e-05
8.49567e-05
6.08714e-05
0.000115272
8.65108e-05
8.13848e-05
5.46917e-05
5.81734e-05
8.65624e-05
0.0529813
6.59954e-05
7.23504e-05
0.0485821
0.0451462
8.12078e-05
8.11888e-05
8.49561e-05
8.68925e-05
5.84502e-05
8.54025e-05
8.80415e-05
0.0387661
0.0504639
8.41627e-05
5.61564e-05
2.9111e-05
6.58345e-05
6.35833e-05
0.00177116
5.63516e-05
7.92729e-05
0.000111196
6.56804e-05
0.0450914
8.31325e-05
0.00489521
4.75911e-05
0.000155322
9.64873e-05
0.0401763
0.000128664
4.75277e-05
8.39243e-05
9.48207e-05
9.38195e-05
7.0453e-05
4.73297e-05
0.0261121
8.53243e-05
7.19939e-05
0.0486234
8.19922e-05
0.0436181
4.42179e-05
8.91555e-05
8.73502e-05
5.26488e-05
0.000176319
0.0447538
0.050235
0.0439868
0.0140516
0.0322915
0.000116699
6.39849e-05
9.36018e-05
6.66696e-05
9.05141e-05
0.0414944
0.0426985
6.48745e-05
8.98159e-05
0.000208766
0.00544308
7.88302e-05
0.000127043
0.000268604
8.09361e-05
9.3998e-05
0.000223233
0.0117244
8.11126e-05
0.0244625
8.36231e-05
6.65445e-05
5.93581e-05
0.0042913
8.10037e-05
0.00477264
0.000107803
9.32353e-05
0.0139712
8.34126e-05
6.88294e-05
7.14967e-05
7.17313e-05
0.0518554
9.02154e-05
7.63391e-05
0.0519177
8.83677e-05
8.17888e-05
0.0348356
5.53156e-05
0.00294663
0.0494347
0.00642969
0.000102142
8.82287e-05
9.2524e-05
6.80127e-05
8.04253e-05
0.0266283
5.24901e-05
0.00012586
6.27326e-05
8.44829e-05
5.34248e-05
0.000119194
7.56341e-05
9.29023e-05
8.56859e-05
6.97903e-05
0.00745865
0.0517839
0.000189871
0.00368228
4.61327e-05
8.68718e-05
9.29479e-05
0.0488597
0.00134071
0.0446926
9.36555e-05
0.0403683
0.0241813
0.000140089
9.17353e-05
9.29195e-05
0.0236823
0.000114151
0.000288069
0.00154068
0.0392866
0.000132373
8.69388e-05
8.4107e-05
8.56753e-05
4.8485e-05
0.0280213
8.53311e-05
0.000114185
5.66746e-05
0.000178789
8.97504e-05
8.03448e-05
6.09008e-05
6.04338e-05
0.00651167
5.84281e-05
0.000119329
0.000104674
0.0541169
8.9374e-05
0.0193689
7.28932e-05
0.0319521
5.54762e-05
5.76461e-05
0.00425276
0.000109959
0.000110027