/*--------------------------------*- C++ -*----------------------------------*\
| =========                 |                                                 |
| \\      /  F ield         | OpenFOAM: The Open Source CFD Toolbox           |
|  \\    /   O peration     | Version:  v2012                                 |
|   \\  /    A nd           | Website:  www.openfoam.com                      |
|    \\/     M anipulation  |                                                 |
\*---------------------------------------------------------------------------*/
FoamFile
{
    version     2.0;
    format      ascii;
    class       volScalarField;
    location    "100";
    object      k_0;
}
// * * * * * * * * * * * * * * * * * * * * * * * * * * * * * * * * * * * * * //

dimensions      [0 2 -2 0 0 0 0];


internalField   nonuniform List<scalar> 
18598
(
0.00114112
0.00178323
7.1308e-05
0.0001105
7.15459e-05
9.75045e-05
0.0348189
6.57892e-05
6.45549e-05
6.93492e-05
4.50696e-05
6.91375e-05
8.4196e-05
0.0411967
0.000389917
5.75682e-05
8.14868e-05
0.00309085
0.00211613
0.00194478
0.00205655
5.87661e-05
0.000124514
5.71921e-05
7.37273e-05
0.00189921
5.33246e-05
0.0432948
8.24852e-05
4.8674e-05
0.0012768
6.43135e-05
0.00195081
4.49931e-05
0.00253704
5.15857e-05
8.48214e-05
7.36224e-05
9.53703e-05
0.00344888
0.0438106
5.38721e-05
7.00582e-05
9.42171e-05
5.14929e-05
0.0430836
5.60731e-05
0.00302606
8.99228e-05
7.69814e-05
0.00016075
7.70056e-05
6.48019e-05
9.20748e-05
8.93523e-05
5.1517e-05
0.00786083
0.0332684
0.0411137
0.00329308
7.97193e-05
6.64299e-05
6.47293e-05
0.000471344
8.98712e-05
7.03744e-05
8.84244e-05
7.03824e-05
6.69996e-05
0.000520789
7.78823e-05
7.65945e-05
9.03453e-05
8.26654e-05
6.76947e-05
5.76214e-05
7.95902e-05
6.536e-05
6.56723e-05
9.12584e-05
7.68788e-05
7.68942e-05
5.85489e-05
6.78768e-05
8.77984e-05
9.02001e-05
5.56458e-05
0.00192086
0.0124426
0.0535112
8.46152e-05
7.37775e-05
7.99127e-05
8.51481e-05
7.70123e-05
8.93045e-05
8.97632e-05
0.000459605
6.89671e-05
8.5308e-05
0.00868045
0.00718432
9.40122e-05
0.0015099
0.036646
9.5194e-05
0.000166194
0.000179966
4.44269e-05
0.052565
5.16825e-05
7.69005e-05
0.000125083
9.10895e-05
6.41889e-05
0.000768319
9.04727e-05
6.46715e-05
5.37837e-05
7.17799e-05
0.000658058
4.73273e-05
0.00434991
6.99367e-05
7.69569e-05
0.0335532
0.0121777
7.15751e-05
5.37123e-05
0.0509152
4.79554e-05
0.0392859
8.85649e-05
9.36468e-05
9.40793e-05
9.54468e-05
5.31828e-05
4.76982e-05
4.76376e-05
0.0412306
9.05304e-05
4.87424e-05
8.12106e-05
0.0421175
0.000124455
5.30267e-05
0.0358714
6.46207e-05
0.00325047
4.86728e-05
6.39779e-05
0.00780461
5.40015e-05
0.0216694
6.27304e-05
8.48803e-05
5.39638e-05
0.00107257
7.86856e-05
7.27582e-05
9.48315e-05
0.000427025
0.000162177
8.55083e-05
0.0258503
0.00112648
0.000144807
8.72981e-05
5.93977e-05
8.22173e-05
0.000101607
8.81428e-05
0.00213681
0.000148797
0.00252729
0.000306369
8.16297e-05
0.000194535
7.13692e-05
7.09888e-05
0.0565042
4.48989e-05
8.58888e-05
0.0477923
8.87237e-05
7.3897e-05
0.0413439
6.87228e-05
0.000112408
0.00128339
0.000125675
9.07764e-05
7.20487e-05
0.00869835
8.23846e-05
0.000142481
5.84933e-05
6.88505e-05
4.87625e-05
0.0227155
0.000112867
9.17625e-05
5.63275e-05
8.31956e-05
0.000172649
8.6927e-05
5.86064e-05
8.41997e-05
5.61745e-05
0.011841
8.67933e-05
4.48746e-05
7.35278e-05
0.000129287
0.0129467
9.39926e-05
0.00651202
0.000156158
0.000121459
5.2779e-05
9.99335e-05
0.000158902
0.0532418
5.83381e-05
7.36461e-05
6.83441e-05
8.95005e-05
0.0545337
8.56336e-05
4.87326e-05
0.000117346
0.0177171
7.85466e-05
6.92483e-05
4.87581e-05
8.90747e-05
5.30181e-05
0.000113407
4.48669e-05
8.28924e-05
7.01018e-05
8.85201e-05
0.000112286
8.61697e-05
7.25316e-05
8.82705e-05
8.19579e-05
7.75035e-05
7.26799e-05
4.41725e-05
0.0334203
6.38925e-05
0.0194479
0.000107148
7.97822e-05
7.73007e-05
7.14748e-05
9.80821e-05
6.38612e-05
0.049443
4.46847e-05
6.1364e-05
0.000109932
6.38178e-05
7.13061e-05
0.00390893
4.76406e-05
6.96839e-05
5.12644e-05
0.00432088
4.76283e-05
7.78245e-05
0.0486396
4.76537e-05
9.12519e-05
0.0374927
6.85712e-05
0.00186063
0.00229434
0.00025693
0.000170933
0.00968496
6.44432e-05
8.56624e-05
0.0120095
0.00043157
0.00201463
8.86552e-05
0.0118747
0.0208028
5.06973e-05
0.00162524
4.51695e-05
7.54125e-05
0.0498009
9.02331e-05
0.000113178
7.55945e-05
4.41263e-05
0.00197714
6.86983e-05
7.12077e-05
0.0128953
8.8808e-05
5.10316e-05
0.000115323
7.74717e-05
6.60146e-05
6.2995e-05
5.09221e-05
7.73741e-05
7.18931e-05
0.000211181
4.46272e-05
7.331e-05
0.0118597
8.39726e-05
5.98671e-05
0.00391682
7.17165e-05
6.82034e-05
6.91377e-05
4.42832e-05
7.25747e-05
0.00146265
0.00686977
9.34986e-05
8.52593e-05
7.32713e-05
0.00414522
4.43836e-05
0.0543668
6.34747e-05
0.0363109
5.7112e-05
0.0461878
8.56628e-05
8.14025e-05
0.00559802
5.08012e-05
9.53778e-05
4.42487e-05
0.0208082
6.33595e-05
5.42684e-05
6.18929e-05
8.45471e-05
0.00386997
0.0214152
0.0474035
8.56392e-05
0.000134291
7.73544e-05
0.0474829
0.040941
8.9633e-05
0.0404973
0.00701264
0.000194859
8.18452e-05
8.95065e-05
0.0011409
5.42647e-05
8.98825e-05
0.0451983
8.20576e-05
0.0356448
7.0666e-05
0.0371766
7.21673e-05
8.87029e-05
8.04246e-05
6.97434e-05
8.94258e-05
0.0415703
7.05402e-05
8.01289e-05
7.10059e-05
7.75016e-05
9.00023e-05
5.75013e-05
0.000119213
0.00018584
8.79341e-05
9.37508e-05
0.000163876
6.50799e-05
7.96133e-05
8.60155e-05
8.15932e-05
7.0468e-05
0.0530554
8.15755e-05
9.11228e-05
0.000135282
8.84324e-05
4.76518e-05
0.00452855
0.00026884
5.11507e-05
8.71664e-05
5.03263e-05
4.83122e-05
8.16337e-05
6.79673e-05
0.00324236
5.01755e-05
0.028703
8.42757e-05
0.0252415
6.93267e-05
7.89886e-05
0.0529681
0.0330115
0.0210752
8.33328e-05
0.00248868
9.02945e-05
0.00194955
8.45467e-05
4.53268e-05
8.36779e-05
7.24662e-05
5.15589e-05
0.010734
0.00134919
0.00861241
8.7634e-05
8.37949e-05
8.86542e-05
5.08241e-05
8.90778e-05
7.01345e-05
9.04375e-05
8.88241e-05
8.95993e-05
6.98075e-05
5.13449e-05
6.21854e-05
6.85799e-05
7.19184e-05
4.80929e-05
0.0184142
8.11809e-05
7.78726e-05
7.9067e-05
5.06704e-05
7.2937e-05
8.37023e-05
0.0370839
8.52865e-05
5.27101e-05
8.89155e-05
0.036968
6.95158e-05
8.75315e-05
8.9443e-05
6.36589e-05
8.98698e-05
5.79758e-05
0.0340685
5.3332e-05
4.47361e-05
6.21017e-05
5.31037e-05
4.46687e-05
8.79953e-05
0.0464667
8.93445e-05
4.47955e-05
5.76902e-05
8.8778e-05
4.4396e-05
8.16881e-05
0.0148555
6.94299e-05
8.53896e-05
6.14413e-05
8.97226e-05
7.50445e-05
0.000117245
7.46625e-05
9.08841e-05
7.08453e-05
4.61618e-05
0.000535302
0.000121682
4.56089e-05
8.11525e-05
0.0118989
0.00744047
0.0533934
0.000112783
4.7627e-05
0.0520667
0.0162724
4.7676e-05
9.50505e-05
0.00021253
0.000117822
0.0361147
0.000455911
6.53587e-05
0.0457717
8.63574e-05
6.57813e-05
4.86771e-05
5.69704e-05
0.0140667
9.23624e-05
0.00206785
8.15216e-05
8.51183e-05
0.0533348
0.00206091
0.000249833
0.0350139
0.00313115
4.4751e-05
4.53007e-05
0.0197796
9.4133e-05
0.019709
0.0010706
9.18521e-05
7.35826e-05
0.000318788
0.000183877
0.000114703
8.64973e-05
8.46501e-05
4.45614e-05
7.01721e-05
6.3546e-05
6.5692e-05
5.28846e-05
0.00405348
7.76381e-05
6.07949e-05
0.00477718
0.000131757
0.00559258
8.82882e-05
0.000131072
0.0221488
8.11322e-05
8.61761e-05
0.000101159
0.0334233
0.0563855
0.000486878
5.94012e-05
8.9353e-05
7.93349e-05
0.000125956
4.77436e-05
8.09878e-05
5.82078e-05
4.46588e-05
4.47451e-05
4.47504e-05
0.0320014
0.0196529
9.47358e-05
0.0119175
0.0176178
8.84022e-05
0.000262063
8.80571e-05
4.83455e-05
9.60862e-05
0.0422135
8.2714e-05
8.51515e-05
7.99362e-05
4.81382e-05
8.2524e-05
0.0472025
7.80154e-05
6.85709e-05
5.94936e-05
0.0523774
0.000118474
0.0545767
7.53426e-05
8.49004e-05
6.31672e-05
0.00793611
0.00217698
7.90836e-05
5.88813e-05
4.44133e-05
6.3467e-05
8.82773e-05
6.77276e-05
8.20324e-05
0.000132922
6.27576e-05
0.00918936
5.51811e-05
7.57454e-05
7.49744e-05
5.87766e-05
5.70745e-05
6.2816e-05
6.96784e-05
0.0007807
8.27262e-05
0.000121773
6.35422e-05
9.38841e-05
6.32645e-05
0.000380845
0.0208271
5.26855e-05
6.31291e-05
5.50666e-05
0.0335948
7.40305e-05
8.9753e-05
6.30797e-05
8.51791e-05
0.0198723
6.09076e-05
0.0464093
4.46865e-05
0.0165851
0.0367888
9.41101e-05
5.96743e-05
8.12886e-05
7.23922e-05
7.53311e-05
7.57729e-05
8.83384e-05
0.00766379
7.5087e-05
9.05887e-05
3.9394e-05
8.09149e-05
7.5617e-05
8.88815e-05
0.000463626
0.000120019
0.00278088
6.59262e-05
8.12522e-05
0.000157384
7.75704e-05
7.69333e-05
8.51096e-05
7.83017e-05
0.00777892
6.85701e-05
0.0244144
0.000106279
0.000210327
6.34186e-05
3.90972e-05
6.96057e-05
8.82529e-05
4.85553e-05
0.00120704
8.09297e-05
7.20357e-05
8.62257e-05
6.90952e-05
0.00610603
9.0319e-05
9.4912e-05
5.93876e-05
5.33933e-05
4.84826e-05
0.000759226
0.00748162
8.87557e-05
5.38178e-05
0.000193807
1.19413e-05
0.00961837
8.06918e-05
0.0408984
8.46464e-05
0.00834046
0.0334841
6.9548e-05
4.46384e-05
0.0405177
3.94722e-05
4.44279e-05
0.0520952
0.0544261
0.00145323
8.87484e-05
8.94972e-05
7.21786e-05
0.000121436
0.0078478
0.00405364
7.36181e-05
9.59405e-05
0.000106743
5.11347e-05
0.0294051
6.41669e-05
5.99625e-05
0.0443215
8.9187e-05
0.0556894
7.82768e-05
7.89917e-05
8.0724e-05
8.1012e-05
0.0332285
0.0168831
9.00838e-05
0.0323284
6.35667e-05
5.88725e-05
8.87284e-05
9.61089e-05
8.87403e-05
0.00239297
0.0324105
9.10043e-05
7.4156e-05
7.30189e-05
0.0338388
9.48589e-05
0.00266462
0.00437314
7.89419e-05
8.9349e-05
0.0395989
0.054892
5.58789e-05
0.004713
9.46382e-05
5.4379e-05
8.35805e-05
8.93423e-05
5.53288e-05
0.000110327
8.83678e-05
5.43404e-05
7.17864e-05
0.00505029
0.000499859
0.00997963
0.0296629
9.1468e-05
8.59861e-05
4.85827e-05
0.0214969
0.00241864
9.43948e-05
7.09512e-05
6.29481e-05
0.000110607
0.00275294
7.06098e-05
8.33803e-05
0.000141015
7.60789e-05
0.0159062
5.22658e-05
0.0110227
0.0235781
5.20724e-05
6.44448e-05
7.90594e-05
8.59718e-05
7.84315e-05
6.47422e-05
5.77542e-05
5.97986e-05
0.00568431
4.81603e-05
5.79414e-05
4.94371e-05
0.000298758
0.0411463
7.4346e-05
5.26265e-05
8.50209e-05
6.30689e-05
0.0334806
8.73071e-05
0.0238624
4.5222e-05
8.89951e-05
0.00672792
6.87043e-05
9.09372e-05
7.2717e-05
8.85223e-05
8.49171e-05
5.96403e-05
8.88878e-05
0.000123505
7.52402e-05
4.7702e-05
6.27471e-05
8.41205e-05
8.46241e-05
1.436e-05
7.42392e-05
7.81671e-05
5.76518e-05
5.07312e-05
7.88738e-05
7.67549e-05
8.92194e-05
8.86375e-05
0.0227077
7.24887e-05
8.8822e-05
0.0105316
0.0414956
0.0523039
0.00828665
0.0401599
8.91288e-05
0.000110407
4.84572e-05
5.48484e-05
7.86408e-05
5.97006e-05
9.19834e-05
4.43759e-05
0.00105386
8.29716e-05
5.80884e-05
4.63497e-05
7.70547e-05
9.68416e-05
8.10083e-05
0.0350186
0.0296651
7.39057e-05
7.24285e-05
4.71339e-05
0.0341927
7.07491e-05
0.0459506
5.24541e-05
0.000156449
1.8874e-05
5.79665e-05
9.38786e-05
0.000849649
0.0210939
7.08896e-05
0.00569745
7.35786e-05
0.0392026
0.0398094
6.33568e-05
0.000261982
6.7813e-05
6.33631e-05
8.89187e-05
7.80152e-05
5.83233e-05
4.43298e-05
0.0342914
5.54657e-05
8.58895e-05
4.94516e-05
8.24697e-05
8.88002e-05
0.0461822
8.86585e-05
6.26083e-05
6.75539e-05
6.50719e-05
6.23221e-05
4.43772e-05
7.69515e-05
5.40153e-05
9.09352e-05
4.94397e-05
8.26674e-05
0.0365828
8.31288e-05
0.000225075
9.0884e-05
4.43305e-05
0.000301226
7.59655e-05
6.96793e-05
0.00540439
0.00414262
0.000116921
0.0528022
6.02293e-05
7.9552e-05
7.29676e-05
8.63638e-05
7.73755e-05
8.38044e-05
8.33494e-05
7.58476e-05
8.35096e-05
8.79813e-05
6.22463e-05
8.67255e-05
8.46498e-05
5.89392e-05
6.7947e-05
0.0536639
5.69336e-05
6.24798e-05
7.52702e-05
0.000108919
5.61889e-05
6.06335e-05
8.77429e-05
6.05256e-05
4.1154e-05
7.57664e-05
0.0506749
8.87518e-05
7.37438e-05
8.36447e-05
8.87393e-05
5.96375e-05
8.74918e-05
0.01668
0.000267633
6.04589e-05
0.000266964
0.00024971
7.65833e-05
8.85714e-05
7.0339e-05
4.75068e-05
0.0416346
7.66867e-05
0.011176
8.31224e-05
5.57209e-05
0.000102374
0.0108776
8.21282e-05
7.68542e-05
0.041042
0.0167401
0.000132033
0.00685971
7.0795e-05
0.000171884
5.39748e-05
5.95001e-05
0.00149128
6.46526e-05
0.00610533
0.00561595
8.7965e-05
5.2513e-05
7.36914e-05
4.81588e-05
0.000296006
0.0511155
0.0110764
7.9074e-05
6.22222e-05
0.0413129
0.0352334
0.0366739
7.86102e-05
0.0279891
0.0397801
8.76195e-05
0.0259038
6.21175e-05
0.000116971
7.87947e-05
5.65102e-05
6.26272e-05
0.000163327
4.49848e-05
0.0325617
9.38956e-05
5.26208e-05
5.3137e-05
5.20193e-05
9.00588e-05
0.0169533
0.00563083
0.00902537
9.12628e-05
0.020342
7.87399e-05
8.30145e-05
8.09877e-05
8.24261e-05
4.64019e-05
7.33323e-05
5.34564e-05
5.44763e-05
7.45785e-05
7.57722e-05
0.000326067
4.61163e-05
8.80001e-05
0.00862947
0.0392511
0.00871464
6.64688e-05
0.0536209
0.000117507
0.000124836
7.77039e-05
0.00898366
8.09561e-05
9.13575e-05
0.000134093
0.00286752
0.00732928
0.0296056
0.0490258
5.74771e-05
0.0533685
7.35709e-05
0.000133529
0.000116977
5.60981e-05
4.48736e-05
5.27162e-05
5.25767e-05
0.035783
8.65939e-05
0.00190885
6.54459e-05
6.8479e-05
8.67708e-05
6.18201e-05
7.93289e-05
4.53968e-05
0.000762663
8.78987e-05
5.53357e-05
4.53611e-05
0.000232632
7.52911e-05
0.000102401
4.74787e-05
6.83817e-05
5.96762e-05
0.00872697
8.94107e-05
7.99551e-05
6.84181e-05
5.31301e-05
0.00723585
0.00014386
8.22488e-05
0.000158497
0.0340842
8.89308e-05
0.000106926
0.000276651
7.85916e-05
0.000282379
7.64807e-05
9.71721e-05
9.15271e-05
0.00969671
0.0414839
0.000109696
0.0522549
6.13286e-05
7.76583e-05
0.0289699
7.37496e-05
0.00969463
0.0401571
0.000100206
8.15009e-05
7.22016e-05
6.91922e-05
0.0505754
4.83571e-05
8.88329e-05
8.95667e-05
6.16355e-05
6.1255e-05
7.94045e-05
8.44361e-05
6.24232e-05
0.00213864
9.04292e-05
0.00553359
6.17401e-05
0.0168822
8.90982e-05
7.57021e-05
5.10799e-05
0.00712576
0.0472134
5.96329e-05
9.29931e-05
0.00664942
8.90443e-05
0.00630452
5.92585e-05
4.76575e-05
7.36206e-05
8.10004e-05
8.99082e-05
8.09083e-05
5.7162e-05
0.0512686
7.40558e-05
0.000176881
0.0158009
7.51585e-05
7.5712e-05
6.5566e-05
0.0088757
4.96172e-05
8.63091e-05
0.0519235
0.000113251
7.95783e-05
5.6839e-05
0.0364273
7.69871e-05
7.83757e-05
8.92306e-05
0.000248946
8.21887e-05
7.66098e-05
4.78768e-05
7.32772e-05
8.73899e-05
8.96632e-05
0.0119499
7.17937e-05
7.8963e-05
7.65659e-05
0.0459708
0.00247683
5.72263e-05
6.46401e-05
0.000101384
4.76842e-05
8.74193e-05
5.30688e-05
6.41632e-05
0.00879835
7.02083e-05
4.82519e-05
5.97725e-05
8.48873e-05
5.09391e-05
6.45139e-05
6.4174e-05
5.98016e-05
4.79561e-05
0.0037352
0.00164442
8.00143e-05
7.95201e-05
8.22409e-05
0.00918316
0.000101119
4.80706e-05
7.97256e-05
0.000140761
0.00013468
0.00897653
5.28339e-05
9.43966e-05
0.000121458
0.0137446
5.42501e-05
0.00872738
6.86329e-05
7.3123e-05
4.77606e-05
8.42286e-05
0.000118697
7.25242e-05
0.000102093
0.00013721
7.01355e-05
6.93522e-05
8.72673e-05
5.29124e-05
0.0508558
6.54817e-05
6.69523e-05
0.0200302
6.63584e-05
6.41125e-05
0.0517866
5.66577e-05
8.44685e-05
5.27956e-05
6.12133e-05
0.000251943
7.40426e-05
6.28618e-05
0.00144665
0.000109073
7.69669e-05
0.0168145
0.00134686
0.000178552
6.81721e-05
7.811e-05
8.50089e-05
8.92641e-05
0.0516835
0.0467829
0.0200839
8.18386e-05
0.000103139
8.39198e-05
2.5733e-05
0.00688187
8.54741e-05
8.14709e-05
7.06173e-05
9.42417e-05
7.00171e-05
8.55222e-05
7.96019e-05
8.03698e-05
0.011154
5.1045e-05
8.35935e-05
0.0322223
7.39078e-05
7.43112e-05
6.25804e-05
5.32666e-05
0.0511239
4.77439e-05
8.7637e-05
7.00701e-05
8.57315e-05
8.43562e-05
8.04727e-05
0.000104732
0.0539473
5.34021e-05
6.15988e-05
0.000119984
0.00022621
8.72063e-05
0.0541725
0.0156808
0.0482416
5.98449e-05
7.22106e-05
7.54464e-05
0.0134459
8.66528e-05
7.7193e-05
6.67951e-05
9.02574e-05
0.0322438
7.86608e-05
7.99658e-05
8.71613e-05
0.00131788
7.30021e-05
4.61727e-05
0.0540147
6.45287e-05
0.0201019
8.2432e-05
5.06263e-05
6.87082e-05
5.85503e-05
6.30996e-05
7.86762e-05
8.65882e-05
5.45003e-05
7.00283e-05
7.35322e-05
0.0142911
8.29014e-05
0.00897075
0.0384062
0.0101485
5.74011e-05
0.00463501
9.46335e-05
0.00103178
0.0279791
6.74906e-05
9.06935e-05
0.000100941
8.26125e-05
0.0387652
7.3563e-05
8.56348e-05
4.51197e-05
7.87538e-05
9.03199e-05
0.000127152
0.000120922
0.000128937
7.36416e-05
0.0447241
6.23081e-05
7.55736e-05
0.000100679
0.000107825
7.75019e-05
8.71683e-05
6.18529e-05
0.00023378
0.0148187
7.70073e-05
8.26756e-05
0.012848
7.24253e-05
7.53368e-05
4.89707e-05
0.000108517
7.05597e-05
9.7429e-05
4.62314e-05
0.000450806
6.28094e-05
8.39777e-05
7.85701e-05
0.00233271
0.000132442
4.89094e-05
6.94814e-05
0.000125151
0.000101224
6.78536e-05
7.83435e-05
6.10576e-05
0.000112952
5.02509e-05
7.73193e-05
5.50198e-05
0.000124566
7.57103e-05
0.000335648
8.94381e-05
6.02788e-05
8.41423e-05
8.2799e-05
7.17653e-05
0.00598768
0.00132014
0.0399093
0.0103138
5.2355e-05
0.000159312
0.0118126
5.16381e-05
9.73575e-05
0.00103698
6.08947e-05
7.04554e-05
0.00010611
0.00013468
6.31495e-05
0.000105211
7.61503e-05
0.029751
7.6686e-05
4.92916e-05
0.042403
9.72622e-05
8.3311e-05
8.47111e-05
0.00319892
6.52035e-05
9.78579e-05
8.34317e-05
7.32118e-05
4.75676e-05
4.94455e-05
8.99408e-05
0.0331971
8.96195e-05
0.0425433
6.75092e-05
0.000108656
5.71926e-05
4.60215e-05
0.000382859
0.00614767
9.17348e-05
0.000140939
0.00712428
7.96449e-05
0.0043394
7.52589e-05
6.18576e-05
0.00258809
5.42892e-05
0.000532124
0.000104196
4.75208e-05
8.92723e-05
0.000126024
0.0354953
8.86929e-05
0.000125671
6.79016e-05
0.000162592
5.69859e-05
7.82142e-05
4.65026e-05
9.07198e-05
9.19946e-05
0.0164284
0.00545072
6.93907e-05
6.67128e-05
0.000520775
5.72198e-05
0.0450008
0.0525483
7.34417e-05
6.97606e-05
0.00229251
8.85742e-05
0.0507208
8.05123e-05
0.0055982
8.01133e-05
8.82934e-05
8.42236e-05
6.01689e-05
7.00191e-05
0.0522933
0.0416179
4.4899e-05
6.69085e-05
0.000124706
0.0120065
5.11792e-05
0.000270058
9.21563e-05
7.05291e-05
0.0182511
0.00736848
7.02767e-05
0.00257721
0.00272762
6.32659e-05
8.78377e-05
0.000210119
5.14595e-05
5.87167e-05
0.00948284
4.48384e-05
0.0061737
0.00190676
4.57639e-05
2.88836e-05
4.72815e-05
9.96297e-05
0.00234395
5.29415e-05
5.35188e-05
5.31427e-05
0.0052229
5.47547e-05
5.69042e-05
8.42321e-05
0.0176831
0.0014277
6.34204e-05
0.00018879
0.0497868
7.84134e-05
9.93043e-05
4.99999e-05
0.00012679
0.00793242
0.0464407
0.0275568
9.92192e-05
0.00948326
5.30588e-05
9.10369e-05
7.27307e-05
6.90952e-05
0.032518
7.5985e-05
0.0048042
5.99535e-05
0.00250086
5.70055e-05
8.09883e-05
0.052055
8.00074e-05
0.00751436
0.0398787
8.8436e-05
5.0412e-05
0.0253804
5.45589e-05
8.11904e-05
0.00339176
8.56755e-05
7.47125e-05
5.71347e-05
0.055551
7.39708e-05
7.96347e-05
0.00190623
0.00010857
4.49278e-05
0.0519886
8.95248e-05
0.0412447
0.000307813
6.06101e-05
7.79864e-05
7.76663e-05
0.0530125
0.02727
0.000157184
8.90371e-05
8.29507e-05
6.75612e-05
9.07335e-05
0.0420187
8.17241e-05
0.0340691
6.7276e-05
7.62791e-05
8.41834e-05
0.000564053
0.000100104
0.0143613
8.33112e-05
7.56811e-05
0.0272106
7.25519e-05
6.93386e-05
6.38279e-05
8.34568e-05
8.41031e-05
8.69354e-05
0.0244034
8.49001e-05
8.67383e-05
7.9999e-05
5.33549e-05
5.22604e-05
0.0104194
4.55558e-05
0.0513176
6.82875e-05
0.0040993
5.31566e-05
8.52523e-05
6.15077e-05
8.61773e-05
7.04624e-05
7.80176e-05
7.62058e-05
8.34111e-05
0.00173861
8.52248e-05
9.57509e-05
7.33813e-05
9.1368e-05
4.88236e-05
0.0204161
0.00217708
4.45754e-05
7.9199e-05
0.000115679
0.00376544
5.87494e-05
0.00347751
0.00450961
0.000120013
8.06542e-05
0.00713746
6.42873e-05
8.1338e-05
4.96997e-05
5.99328e-05
7.47685e-05
5.31209e-05
7.32197e-05
5.86403e-05
4.43646e-05
0.00794024
8.8406e-05
7.98547e-05
9.15643e-05
0.0469286
6.07207e-05
7.40565e-05
0.000105449
4.53883e-05
6.13229e-05
8.90004e-05
0.00102663
8.54628e-05
7.05758e-05
7.81136e-05
4.52352e-05
8.39127e-05
5.72081e-05
6.12486e-05
0.00788411
0.00178165
8.30672e-05
0.0276024
0.0157784
8.3254e-05
8.51643e-05
0.000106975
0.00458157
7.86323e-05
0.000122873
0.000107998
9.01486e-05
5.92479e-05
6.70368e-05
9.64751e-05
7.30748e-05
9.43496e-05
6.51776e-05
0.00791851
0.000317635
0.00344174
8.30227e-05
0.0460048
8.37907e-05
8.19332e-05
0.0195278
0.00351406
7.82414e-05
4.74616e-05
0.0428918
0.000101462
0.041998
8.48026e-05
4.43109e-05
5.13649e-05
8.43367e-05
4.48115e-05
0.0314864
0.0530133
8.54206e-05
5.68742e-05
8.0345e-05
0.0513764
0.000226397
8.27481e-05
5.98034e-05
0.0431363
4.78926e-05
8.63642e-05
0.0441428
0.00109191
0.0328716
0.0075629
0.0272118
6.74109e-05
8.88304e-05
6.5441e-05
9.77655e-05
0.0418801
8.59987e-05
0.000315534
4.88863e-05
8.39566e-05
0.0440069
6.3776e-05
3.08011e-05
8.5026e-05
0.0378708
0.00662391
8.72127e-05
0.00012515
8.12667e-05
0.00527213
6.72347e-05
0.000174742
8.92163e-05
0.000936989
8.46888e-05
8.69362e-05
0.0431477
7.2602e-05
7.64115e-05
0.0322572
8.81722e-05
5.87368e-05
6.01155e-05
0.000119383
7.38888e-05
6.6979e-05
7.88106e-05
4.58887e-05
5.39047e-05
0.000128137
7.9829e-05
0.0519594
0.000107041
0.000104266
7.31614e-05
0.00969132
5.45772e-05
5.94163e-05
8.50211e-05
7.69622e-05
4.58552e-05
0.00545289
0.000162276
0.0143449
8.06571e-05
0.000161048
4.58303e-05
0.00238025
0.000123428
0.0531626
0.000115053
5.83603e-05
6.07401e-05
0.0306423
7.58221e-05
7.84065e-05
6.65844e-05
4.77134e-05
0.0147442
0.000155936
0.000484748
8.84541e-05
6.02383e-05
0.0337025
0.00567448
0.000261002
8.03693e-05
9.11247e-05
8.78777e-05
0.0067629
6.17101e-05
6.0772e-05
0.000118325
0.0506791
6.12465e-05
6.32563e-05
4.66497e-05
5.69018e-05
7.95241e-05
6.73034e-05
7.34435e-05
6.8749e-05
0.000204298
0.0130485
5.03424e-05
8.04892e-05
4.48658e-05
6.09918e-05
0.0410795
8.61221e-05
8.75502e-05
0.0105047
0.039467
0.000259788
8.2948e-05
0.0510365
6.8552e-05
8.92771e-05
8.82737e-05
0.000250474
0.0192797
8.48132e-05
6.44459e-05
0.0344091
0.0100209
6.02504e-05
5.895e-05
8.80075e-05
8.22309e-05
8.81435e-05
0.00259025
0.00585646
0.000101906
7.9619e-05
0.000218197
5.04795e-05
0.00577265
8.90133e-05
0.0212125
0.00191791
5.26659e-05
6.00702e-05
5.31682e-05
0.000130781
0.00017525
4.93608e-05
8.47449e-05
5.92649e-05
7.78983e-05
8.56292e-05
9.55104e-05
0.0200131
5.05152e-05
8.68097e-05
8.5839e-05
8.47356e-05
0.0346864
8.04218e-05
8.82136e-05
6.02668e-05
5.83991e-05
8.92436e-05
0.00010644
7.6552e-05
9.65279e-05
0.0102456
6.84087e-05
6.05349e-05
0.00146574
5.64244e-05
5.99308e-05
0.0473059
6.09929e-05
0.00407227
5.82905e-05
9.04458e-05
8.08715e-05
4.73486e-05
8.0204e-05
7.93521e-05
5.86978e-05
0.0305312
0.00332628
0.000128639
4.99869e-05
9.74181e-05
7.79519e-05
5.0461e-05
0.00849778
4.82864e-05
0.000113819
9.15527e-05
0.0205219
0.000122491
5.63526e-05
9.87124e-05
9.02177e-05
7.55866e-05
0.030183
8.81144e-05
4.60633e-05
0.00886025
0.000109298
8.46118e-05
8.59504e-05
0.000223914
6.89495e-05
8.54892e-05
4.98801e-05
0.003675
0.00196512
6.42613e-05
7.27171e-05
0.0501981
8.87205e-05
0.0079781
0.00467415
5.72322e-05
0.00410114
8.81598e-05
7.62392e-05
8.91381e-05
0.00040886
8.88897e-05
4.75145e-05
8.45669e-05
0.0398978
8.44633e-05
8.84558e-05
0.00023926
6.99369e-05
8.30401e-05
0.0381237
4.72699e-05
8.79908e-05
8.75294e-05
8.03967e-05
7.55433e-05
0.000176838
8.81368e-05
8.83858e-05
8.84687e-05
0.0038751
3.51384e-06
4.72568e-05
0.00386954
6.45279e-05
0.0263075
6.98278e-05
5.69051e-05
0.0263031
6.69374e-05
0.000103975
5.71491e-05
6.11037e-05
5.3294e-05
7.57218e-05
0.0011522
6.24717e-05
0.0502221
7.94194e-05
9.67998e-05
8.25244e-05
0.0423159
0.00486061
7.44473e-05
0.0122588
8.76843e-05
4.99022e-05
8.48715e-05
8.80795e-05
0.0048606
0.0104886
5.72474e-05
9.64639e-05
8.57045e-05
7.04796e-05
7.54821e-05
0.000119104
0.0523917
6.08758e-05
0.00544458
8.88336e-05
0.00507783
0.00672679
8.55325e-05
4.91863e-05
8.83842e-05
0.00224904
9.0215e-05
4.65879e-05
7.88153e-05
0.010802
0.0162107
0.00345923
0.0284916
9.0313e-05
0.0277161
6.09101e-05
8.9026e-05
8.30687e-05
0.0215695
5.04655e-05
5.69482e-05
8.97903e-05
4.91501e-05
5.13032e-05
0.00286226
4.97791e-05
0.000145643
9.68602e-05
8.99461e-05
9.08389e-05
0.00876064
8.4621e-05
8.37807e-05
8.77602e-05
0.000942108
0.000157647
0.0175129
7.53003e-05
6.96631e-05
7.23657e-05
0.0464744
5.93193e-05
5.40952e-05
6.5763e-05
0.0368939
0.00441429
8.05689e-05
0.0276725
5.86934e-05
5.72803e-05
0.00013401
0.0518799
8.04581e-05
0.00797436
8.69363e-05
0.0423605
7.26287e-05
7.61377e-05
0.000470129
0.0509483
8.13688e-05
7.1173e-05
6.95421e-05
8.48478e-05
6.26368e-05
7.78869e-05
8.06754e-05
0.0470576
0.00674459
8.38459e-05
7.55804e-05
0.000103424
0.0052337
8.76253e-05
8.44046e-05
4.4484e-05
0.000102299
4.91383e-05
0.000905429
8.86844e-05
5.93133e-05
8.03165e-05
0.000101399
0.0282804
0.0480375
0.00501029
0.0421445
0.000121072
0.00135548
0.0468573
0.000113756
0.00665707
9.06023e-05
0.000104977
8.10403e-05
0.000106614
0.00012423
4.71159e-05
0.00192126
0.0403307
0.000110419
0.00820612
0.00408868
0.00104031
6.00281e-05
5.33144e-05
9.10367e-05
9.0001e-05
0.00346932
4.97417e-05
0.0484907
8.74523e-05
8.43601e-05
7.57331e-05
0.00225013
9.47378e-05
0.000117106
7.68106e-05
0.00860362
0.00038238
5.06119e-05
8.90019e-05
0.0201805
0.000113233
0.000168582
6.98417e-05
6.98924e-05
0.00010144
0.000324495
0.0109104
0.006388
0.0136384
0.00011808
0.0215587
0.000114165
5.18258e-05
8.43499e-05
5.16362e-05
5.2602e-05
0.00380578
5.389e-05
9.31092e-05
9.03626e-05
0.0209471
0.00120426
5.06942e-05
4.78896e-05
6.05024e-05
0.000116105
9.00663e-05
6.65558e-05
5.35722e-05
0.00656521
0.0522725
0.000113268
6.71673e-05
0.000102504
0.00572402
5.73924e-05
5.69778e-05
0.00010047
7.44601e-05
8.45426e-05
8.15995e-05
0.000136688
0.000700458
8.55061e-05
6.95383e-05
6.7578e-05
0.000114288
0.0276573
4.62501e-05
6.56853e-05
8.3006e-05
0.000206273
0.000105733
0.000127587
0.0360293
5.89789e-05
0.00203864
7.88109e-05
0.0461797
0.0102815
0.0189447
8.68677e-05
7.8095e-05
8.61533e-05
8.38844e-05
6.51288e-05
0.000138041
8.20255e-05
0.000118217
0.00454406
6.73771e-05
5.95238e-05
7.22581e-05
7.98347e-05
0.0313413
0.000564174
1.77039e-05
4.82354e-05
0.0159763
8.64849e-05
6.02163e-05
0.000105832
6.70588e-05
0.00154105
8.06202e-05
0.000103075
0.00324655
5.22455e-05
0.0524406
0.0542202
0.018866
0.0389443
9.02779e-05
0.000108056
8.17901e-05
6.75581e-05
8.25879e-05
0.000179957
0.0419524
8.26701e-05
0.000978443
6.73355e-05
7.61079e-05
0.010033
8.91801e-05
4.73606e-05
8.65209e-05
5.74602e-05
0.00443133
8.95088e-05
7.66457e-05
9.58141e-05
7.16313e-05
9.0745e-05
0.000693337
0.0477035
0.0045648
0.0231333
8.14538e-05
8.1925e-05
0.000118282
0.00354829
8.26115e-05
0.00705632
0.000108213
0.000142091
0.000125364
0.0440749
8.69714e-05
0.0277527
0.00327013
0.00443752
0.043613
6.8876e-05
6.28791e-05
5.6616e-05
6.72528e-05
8.57484e-05
8.42641e-05
8.44653e-05
0.0528802
0.000179595
5.61593e-05
8.79301e-05
4.60812e-05
8.66468e-05
8.76856e-05
0.00595256
0.0286842
9.02071e-05
0.000114797
0.00248832
0.0357214
8.87684e-05
0.0304095
0.0123468
0.00013372
0.000376309
0.00417547
5.06253e-05
8.77277e-05
4.79065e-05
7.21919e-05
6.59873e-05
5.35561e-05
5.45896e-05
6.52279e-05
0.000925963
9.8581e-05
7.07136e-05
0.000103785
0.0516048
5.96315e-05
0.0113686
7.95054e-05
8.78e-05
0.000116452
8.54901e-05
4.7177e-05
0.00497906
8.72525e-05
8.79031e-05
0.0478711
5.23797e-05
8.88432e-05
0.00260786
8.91095e-05
0.0398928
0.0297322
0.0268553
8.36863e-05
7.00387e-05
7.61811e-05
4.49858e-05
8.11528e-05
0.00659206
5.05807e-05
9.35235e-05
8.7014e-05
6.67425e-05
0.0362022
0.00465777
8.03534e-05
8.88403e-05
7.67054e-05
5.06313e-05
9.65335e-05
5.41602e-05
0.00460471
7.18892e-05
0.0295062
0.0133702
0.0379939
8.33185e-05
0.0068622
0.00115266
8.59071e-05
0.000132963
6.88333e-05
7.26401e-05
0.00677913
0.000546474
0.0163939
8.83419e-05
9.53832e-05
0.0421945
7.89719e-05
5.34968e-05
7.26599e-05
8.8646e-05
5.43252e-05
9.01614e-05
9.96153e-05
6.64545e-05
0.00154803
0.00258328
0.00316168
8.97638e-05
0.000106145
0.0402051
0.000107045
6.42614e-05
7.74178e-05
0.000149215
4.48281e-05
6.7181e-05
9.05258e-05
0.0460419
6.04243e-05
0.0346057
0.000125356
9.19783e-05
0.00141629
8.76258e-05
0.00679608
6.48218e-05
9.27436e-05
7.80421e-05
0.0255841
0.00159039
7.05957e-05
0.000111341
5.85536e-05
0.0454713
5.83638e-05
8.04011e-05
0.0105568
0.0286606
4.71846e-05
0.00317451
0.00625044
8.77798e-05
0.0417773
7.76734e-05
0.0533366
8.67483e-05
9.06597e-05
9.77333e-05
0.0044112
0.0286696
8.9294e-05
5.76462e-05
6.63694e-05
0.052682
7.77541e-05
4.75492e-05
0.0547214
8.84668e-05
0.000120193
0.00148844
8.4756e-05
9.65034e-05
0.0540693
0.000127624
6.74946e-05
0.0124641
7.66024e-05
0.0272929
0.00433117
8.68141e-05
6.40768e-05
7.93738e-05
6.33554e-05
7.41609e-05
8.49567e-05
6.08714e-05
0.000115272
8.65108e-05
8.13848e-05
5.46918e-05
5.81734e-05
8.65621e-05
0.0529882
6.59954e-05
7.23503e-05
0.0485854
0.0451488
8.12078e-05
8.11888e-05
8.4956e-05
8.68925e-05
5.84502e-05
8.54025e-05
8.80415e-05
0.038762
0.0504639
8.41627e-05
5.61563e-05
2.93441e-05
6.58345e-05
6.35832e-05
0.00179191
5.63516e-05
7.92729e-05
0.000111196
6.56804e-05
0.0450835
8.31325e-05
0.00488687
4.7591e-05
0.000155296
9.64873e-05
0.0401738
0.000128665
4.75276e-05
8.39243e-05
9.48206e-05
9.38196e-05
7.0453e-05
4.73297e-05
0.0261169
8.53243e-05
7.19939e-05
0.0486213
8.19922e-05
0.0436216
4.42179e-05
8.91555e-05
8.73501e-05
5.26487e-05
0.000176338
0.0447569
0.0502348
0.0439833
0.014051
0.0322976
0.000116698
6.39848e-05
9.36018e-05
6.66711e-05
9.05142e-05
0.0414949
0.0427015
6.49051e-05
8.98159e-05
0.000208617
0.0054233
7.88303e-05
0.000127044
0.000268698
8.09361e-05
9.39941e-05
0.000223034
0.0117306
8.11126e-05
0.0244597
8.36227e-05
6.65445e-05
5.93582e-05
0.00428229
8.10037e-05
0.00477825
0.000107803
9.32353e-05
0.0139566
8.34126e-05
6.88294e-05
7.14967e-05
7.17313e-05
0.0518555
9.02154e-05
7.63391e-05
0.0519179
8.83677e-05
8.17888e-05
0.0348414
5.53156e-05
0.00292197
0.0494396
0.00649054
0.000102142
8.82287e-05
9.25241e-05
6.80127e-05
8.04253e-05
0.0266362
5.249e-05
0.000125862
6.27326e-05
8.44828e-05
5.34248e-05
0.000119193
7.56341e-05
9.29023e-05
8.56859e-05
6.97903e-05
0.0074501
0.0517856
0.000189906
0.00368478
4.61327e-05
8.68718e-05
9.29482e-05
0.0488626
0.00133573
0.044696
9.36556e-05
0.0403692
0.024178
0.000140089
9.17354e-05
9.29196e-05
0.0236825
0.000114151
0.000288124
0.00151278
0.0392887
0.000132378
8.69388e-05
8.4107e-05
8.56753e-05
4.84848e-05
0.0280149
8.53311e-05
0.000114185
5.66746e-05
0.0001788
8.97504e-05
8.03449e-05
6.09007e-05
6.04339e-05
0.00654719
5.8428e-05
0.000119329
0.000104674
0.0541243
8.93741e-05
0.0193661
7.28932e-05
0.0319525
5.54762e-05
5.76461e-05
0.00423529
0.000109959