/*--------------------------------*- C++ -*----------------------------------*\
| =========                 |                                                 |
| \\      /  F ield         | OpenFOAM: The Open Source CFD Toolbox           |
|  \\    /   O peration     | Version:  v2012                                 |
|   \\  /    A nd           | Website:  www.openfoam.com                      |
|    \\/     M anipulation  |                                                 |
\*---------------------------------------------------------------------------*/
FoamFile
{
    version     2.0;
    format      ascii;
    class       volScalarField;
    location    "100";
    object      p;
}
// * * * * * * * * * * * * * * * * * * * * * * * * * * * * * * * * * * * * * //

dimensions      [0 2 -2 0 0 0 0];


internalField   nonuniform List<scalar> 
18598
(
-0.0257425
-0.0868877
-0.00221923
-0.00552788
-0.0020935
-0.0163067
0.00539912
-4.89093e-05
-0.00412967
-0.00170095
2.9953e-05
-0.000275896
-0.0156335
-0.0365311
-0.0289244
-0.000337574
-0.00868412
-0.00018473
0.00024907
0.00117233
-0.00011518
-0.0016628
-0.0384644
-0.00163834
-0.00985437
8.93864e-05
-0.000726248
-0.0966513
-0.0183601
7.94826e-05
-0.028167
-0.0040572
-0.0889881
2.53653e-05
-0.000879251
-0.000126358
-0.013988
-0.00980867
-0.0317198
-0.00510467
-0.0961677
-0.000738756
-0.00688292
-0.0317757
-0.000186727
-0.0363624
-0.00111054
-0.00549036
-0.0206877
-0.0116188
-0.0276973
-0.0113548
-0.00259785
-0.00313115
-0.03368
-0.000131348
-0.00349364
-0.0948627
-0.0532185
-0.00406322
-0.0136019
-0.00398746
-0.00265894
-0.0705718
-0.0197484
-0.00426607
-0.024646
-0.00442759
-0.00505008
-0.0355992
-0.00881073
-0.0125356
-0.0332588
-0.0186124
-0.00426643
-0.00175102
-0.0135306
-0.00288321
-0.002891
-0.0406387
-0.0115589
-0.0113213
-0.00149129
-0.00533129
-0.0195738
-0.0328147
-0.00111122
0.000957696
-0.00200498
-0.0471147
-0.0133815
-0.00576258
-0.0145501
-0.0239135
-0.0118311
-0.0341981
-0.0224119
-0.037645
-0.00168408
-0.0175825
-0.00163543
-0.000779026
0.000287339
-0.000172844
0.00195196
-0.0106069
-0.0449999
-0.0726951
1.46067e-05
-0.0175352
-0.000636554
-0.0117822
-0.0368241
1.21907e-05
-0.00395656
-0.000213158
-0.0397283
-0.000221955
-0.000418816
-0.00841315
0.00130864
0.000192939
-0.00141882
-0.00691327
-0.0127075
0.0059998
-0.000542019
-0.00829757
-0.000738365
-0.0885657
0.000278491
-0.0695277
-0.00177249
-0.0519169
-0.0325896
-0.00896615
-0.000700331
0.000187989
0.000205061
-0.0377871
-0.0406326
0.00012968
-0.0101606
-0.0731496
-0.0295007
-0.000153367
-0.000529289
-0.00265569
-0.000959128
0.000114787
-0.00387502
-0.0118936
-4.98092e-05
-0.0898662
-0.00192862
-0.0233641
-4.14102e-05
0.000259351
-0.0138897
-0.00846797
-0.009631
-0.030664
-0.0440372
-0.015508
-0.105027
0.00129665
-0.0275106
-0.0257098
-0.00161539
-0.0179862
-0.016308
-0.00160403
-0.00408874
-0.0020831
-0.00443852
-0.00169096
-0.00396199
-0.0016964
-0.00809428
-0.00799617
-0.0984637
1.71459e-05
-0.0234515
-0.0742439
-0.0193866
-0.00595224
-0.0380525
-0.0050141
-0.0318876
0.000998142
-0.0264587
-0.0404664
-0.00859208
-0.00407481
-0.00377893
-0.0265739
-0.00163623
-0.00133423
0.000161301
0.000996466
-0.0343342
-0.0465645
9.09049e-05
-0.00199322
-0.0270705
-0.0254157
-0.00161709
-0.0135653
9.13645e-05
-0.000620172
-0.0255085
2.3186e-05
-0.00662978
-0.0751087
-0.00246529
-0.0529091
-0.00806283
-0.00317753
-0.0271273
-6.9408e-05
-0.00158179
-0.0412784
-0.0421569
-0.00158279
-0.00676082
-0.00152604
-0.0220673
-0.0399018
-0.0176065
0.000168702
-0.0466741
-0.0213393
-0.0126565
-0.00178009
9.52682e-05
-0.029164
-0.000178937
-0.005196
1.12853e-05
-0.00186016
-0.0078681
-0.0191431
-0.0307998
-0.0240559
-0.0082828
-0.0307561
-0.0146833
-0.00875161
-0.0081645
9.62374e-07
-0.0970886
-0.00233692
0.000800684
-0.00147784
-0.0144224
-0.0101725
-0.00862393
-0.00185035
-0.00377732
-0.0239378
6.03096e-05
-8.02847e-05
-0.00101295
-0.00238297
-0.00850679
-3.31679e-05
0.000310508
-0.00697171
-0.000145086
0.00120543
0.000267639
-0.00896747
-0.00151539
0.000249589
-0.038007
-0.0689375
-0.00664803
0.00231688
-0.00407352
0.0015478
-0.0733879
-0.088766
-0.00261916
-0.00186856
-0.00135087
-0.0687298
-0.00394575
-0.0250954
-0.00081235
0.00295817
-4.66259e-05
0.0026903
2.18682e-05
-0.00307873
-0.0887238
-0.0386484
-0.00031235
-0.00287994
3.74093e-06
0.00147377
-0.00691688
-0.00503093
-0.0209139
-0.0247331
-9.29078e-05
0.000170502
-0.0128158
-0.00391992
-0.00197618
-8.6993e-05
-0.00889386
-0.00894165
0.00177273
4.69888e-05
-0.00665445
-0.00144594
-0.0131422
-0.00157183
-0.00336178
-0.00884882
-0.0017926
-0.00669629
-4.02763e-06
-0.00906247
0.00197289
-0.00044949
-0.0401322
-0.00170145
-0.00677027
-0.0018081
1.28373e-05
-0.0372403
-0.00266546
-0.0979904
-0.00163372
-0.0245698
-0.0167633
-0.00910968
-0.00355715
-5.45513e-05
-0.0307843
1.93307e-05
0.00299302
-0.00198894
-0.000214366
-0.0015558
-0.0214857
-0.00399748
0.00294859
-0.0651135
-0.0223074
-0.075827
-0.0104849
-0.00195348
-0.0736341
-0.0376131
-0.0547142
-0.00142082
-0.0248644
-0.012511
-0.00356209
0.0057051
-0.000242261
-0.0383222
-0.0182294
-0.0177909
0.00363904
-0.00732535
-0.0987907
-0.00873342
-0.0325516
-0.00935402
-0.00768287
-0.0167476
-0.0735839
-0.00800837
-0.00473101
-0.00758557
-0.0129292
-0.0380223
-0.000494827
-0.00124477
-0.0251056
-0.0198296
-0.0499722
-0.0423047
-0.0026257
-0.0043941
-0.000718369
-0.0145044
-0.00720345
-0.0150065
-0.0141204
-0.00308522
-0.0028681
-0.0277539
0.000287945
-0.00286903
-0.0335763
-0.000128058
-0.0258148
0.000238886
2.83207e-05
-0.012203
-0.00156742
0.00485021
0.000232222
0.0051029
-0.0210842
-0.106619
-0.00131406
-0.013864
-0.086058
0.00601662
0.0046094
-0.0126719
0.00101291
-0.0134209
-0.00281277
-0.0010641
3.68428e-05
-0.0206244
-0.00892117
-0.000171855
-0.000752222
-0.0861331
-0.00361961
-0.0176366
-0.020751
-0.031975
0.000297708
-0.031523
-0.00773904
-0.0167881
-0.00353929
-0.0377608
-0.00769856
-0.000181842
-0.00360718
-0.000174537
-0.0042486
8.5729e-05
-0.000425312
-0.00216882
-0.0102417
-0.00773909
0.000279739
-0.00842198
-0.00298417
-0.0671798
-0.0166989
-0.000697848
-0.0253874
-0.0660496
-0.00561682
-0.0174877
-0.0316928
-0.0036989
-0.0384394
-0.00185422
0.00499463
-4.79472e-05
8.52678e-05
-0.00354327
-0.000740123
7.23809e-05
-0.0323661
-0.0197239
-0.0188981
5.92936e-06
-0.00191226
-0.0168542
3.042e-05
-0.00946173
-0.0888487
-0.00557435
-0.0222254
-0.000107472
-0.0322605
-0.00918541
-0.0452816
-0.00861761
-0.0400859
-0.0074717
-1.12572e-05
0.00266909
-0.0285358
-1.30738e-05
-0.0020129
-0.0930169
-0.00206079
-0.0310293
-0.0331458
0.000228675
-0.0339345
-0.0928125
0.000221872
-0.0156405
0.00189724
-0.0268133
-0.100739
-0.0723893
-0.00277402
-0.0972337
-0.0230896
-0.0037998
0.000161318
-0.00159176
-0.023852
-0.0165522
0.00033482
-0.00998793
-0.0181186
-0.015747
-0.00282499
0.00285722
-0.100462
-0.002727
1.3253e-05
9.41614e-06
0.00325848
-0.0403853
0.00294562
-0.000126077
-0.0471293
-0.00840212
0.000332583
0.000473137
-0.0277528
-0.023539
-0.0218177
7.71615e-06
-0.00789196
-0.0023428
-0.00298495
-0.000710049
-0.00209923
-0.0130178
-0.00260639
-0.00281142
-0.0664444
-0.0890637
-0.0279228
-0.0287393
-0.000514042
-0.00847553
-0.0162575
0.000400287
-0.100312
-0.0949117
-0.000161291
-0.00259685
-0.0319478
-0.0145779
-0.015882
0.000109006
-0.00496296
-0.00165103
-5.09415e-06
8.64317e-06
4.80717e-06
-0.0962761
0.00305015
-0.0271485
3.98633e-05
0.000406654
-0.0195354
-0.0317091
-0.0194432
0.000107146
-0.00985029
-0.0167577
-0.0163511
-0.0141852
-0.0144472
0.000136574
-0.016316
-0.0310288
-0.0102424
-0.00400413
-0.00267163
-0.0801556
-0.00283559
-0.0371015
-0.0039793
-0.0181517
-0.00155077
0.00151205
0.00260289
-0.0144005
-0.0015668
7.21859e-06
-0.00422818
-0.0252057
-0.00353821
-0.0093438
-0.0656211
-0.00382858
0.000685493
-0.000313744
-0.00282447
-0.00894848
-0.00156395
-0.00049924
-0.00388366
-0.00698667
0.00253776
-0.00320235
-0.00152457
-0.00224529
-0.0111952
-0.0022049
0.00234677
0.0065534
-0.000678895
-0.00404515
-0.000305439
-0.0968143
-0.00888835
-0.0369647
-0.00398607
-0.000993686
0.00284227
-0.00260151
-0.0729115
3.50447e-05
0.000914625
-0.0694351
-0.0512043
-0.00269194
-0.0136693
-0.00829488
-0.00288012
-0.00327273
-0.0313596
-0.00248988
-0.00395703
-0.0406374
0.0026615
-0.0098466
-0.00329567
-0.0175095
0.00118319
-0.0165938
0.000275797
-0.00396836
-0.0133745
-0.00136877
-0.0128811
-0.0125935
-0.0214928
-0.0135409
0.00106759
-0.00181255
-0.0889787
-0.000747113
0.000782611
-0.00414849
0.00179769
-0.00680784
-0.017598
7.91026e-05
0.000430271
-0.0152227
-0.00931085
-0.0155262
-0.00707896
0.00075512
-0.0398448
-0.0297663
-0.00261532
-0.000734702
-7.28833e-05
-0.00117198
0.00131165
-0.0184419
-0.00040147
0.00115507
0.00244933
-0.00274205
-0.00913031
-0.0142244
-0.0228965
-2.98392e-05
0.00316523
-0.00694386
1.20866e-05
-0.0487691
0.000322793
1.95653e-05
-0.0877355
-0.0397662
-0.000107178
-0.0347686
-0.0363538
-0.00935931
-0.039121
-0.00474977
-0.0252969
-0.00854127
-0.015119
-0.00103602
-0.000438251
0.00624437
-0.00237746
-0.0027653
-0.016667
-0.0175718
-0.0952241
-0.0134989
-0.0139602
-0.0150813
-0.0101462
0.00441163
-0.0185039
-0.0283028
-0.100117
-0.00371855
-0.00164544
-0.0310987
-0.0158536
-0.0189978
-7.23505e-06
-0.10043
-0.0168401
-0.0103064
-0.00831819
0.00501559
-0.0287861
-0.00255146
-0.000374062
-0.012552
-0.0368396
-0.0479152
-0.0914657
-0.000140426
-0.00424282
-0.0278543
-0.000320005
-0.0133268
-0.0368948
-0.000291472
-0.0480988
-0.0307118
-0.000289795
-0.00516136
0.00042953
0.00433223
0.00810229
0.00627212
-0.0417513
-0.000830869
-9.70003e-05
0.0020503
-0.000425613
-0.0335705
-0.00612096
-0.00348218
-0.00929036
-0.00152016
-0.00380475
-0.0129003
0.00175788
-0.00966499
-0.0265943
-0.000623938
-0.00112278
-0.000570789
-0.000599335
-0.00251485
-0.00810042
-0.0202917
-0.0137585
-0.00335547
-0.0015519
-0.00244682
0.00240878
0.00010032
-0.00194115
-0.0001026
2.78958e-05
-0.0281436
-0.00860775
-0.000499611
-0.0233845
-0.00357276
-0.102742
-0.00396433
-8.84052e-05
2.81774e-05
-0.031654
0.000483759
-0.0069976
-0.0349784
-0.00821453
-0.0197595
-0.0213434
-0.00223065
-0.0353817
0.00107212
-0.00258315
6.94797e-05
-0.00340618
-0.020771
-0.0207139
0.000737734
-0.00274699
-0.013567
-0.00150908
-0.00036823
-0.012341
-0.00829797
-0.028946
-0.0312415
-0.000528836
-0.00927518
-0.0287618
-0.0262283
-0.026606
-0.0538221
0.00704787
-0.0178684
-0.0190601
-0.0100713
0.000102462
-0.00117056
-0.0138721
-0.00239476
-0.0471626
1.5831e-05
-0.00217231
-0.0149732
-0.000170494
9.59247e-05
-0.0120273
-0.0577202
-0.0129134
0.000701088
0.0039289
-0.00306513
-0.00867853
0.000341148
0.00481578
-0.0081227
-0.0660182
-0.000646239
-0.0265238
0.000870425
-0.000203753
-0.0476623
-0.00255412
-0.000313178
-0.00413726
0.00146604
-0.00308079
-0.0501274
-0.0458404
-0.00207366
-0.0183354
-0.0050415
-0.00363965
-0.0212033
-0.0133648
-0.00165414
8.17764e-06
0.00420833
-0.000294858
-0.0228959
0.00019949
0.00310027
-0.0198915
-0.0733293
-0.0342402
-0.00163696
-0.00494248
-0.00273955
-0.00264594
1.84369e-05
-0.0119859
-0.000293529
-0.0371069
0.000181783
-0.00346204
0.00161783
-0.0171839
0.00333167
-0.034126
5.06537e-06
0.000671469
-0.00555184
-0.00677997
-0.00161509
-0.00297973
-0.043719
-0.0544172
-0.00284903
-0.00231239
-0.00992201
-0.0203974
-0.0101018
-0.0167552
-0.0198506
-0.0094909
-0.00326413
-0.030163
-0.00257722
-0.00393151
-0.0227511
-0.00177832
-0.00154395
-0.0904035
-0.00157748
-0.00168713
-0.00253527
-0.0466178
-0.000199902
-0.00222789
-0.0088368
-0.00285104
0.00229272
-0.00566931
-0.0195237
-0.0167406
-0.00995646
-0.015456
-0.0347002
-0.00262464
-0.00921702
-0.0438331
-0.0199538
-0.00295974
0.00392593
0.00135898
-0.0124214
-0.0176283
-0.00785787
0.000410272
-0.0652502
-0.00806018
0.000337645
-0.00117019
-0.00013481
-0.00217924
-0.00186827
-0.017753
-0.0104653
-0.0810531
-0.00155747
-0.068404
-0.00295832
-0.00422244
0.00098839
-0.00031951
-0.00264179
-0.000180756
-0.00424109
-0.00354452
-0.00190116
-0.0177013
-0.000678499
-0.00284883
-2.9613e-05
0.00115847
-0.0291679
-0.000187064
-0.00365903
-0.00162251
-0.0974329
0.00118957
0.00191022
-0.0120221
0.00541573
-0.0426283
-0.0295602
-0.105785
-0.00167539
-0.0426
-0.0139101
0.000263417
-0.00331931
-0.0804262
8.38605e-05
0.00621492
-0.00265832
-8.54671e-05
-0.000739873
-0.000568538
-0.0168102
-0.000376213
0.000862166
0.00204958
-0.0389905
0.000796712
-0.00388417
-0.013043
-0.00424806
-0.0127438
0.000103278
-0.00934501
0.000128272
-0.000311606
-0.00879326
-0.00855129
-0.0751462
1.18272e-07
-0.0319083
-0.00492181
-0.0555336
-0.00306835
-0.00189307
-0.0127476
-0.0147784
-0.078706
-0.010345
-0.000690348
-0.0113193
-0.0420687
-0.0696265
-0.000188965
-0.00290025
0.00509921
-0.03185
-0.000411139
-0.0143921
-0.00969245
-0.0726566
-0.0409023
-0.00136223
6.71075e-05
-0.000706957
-7.60518e-05
-0.0965938
-0.0174289
0.00248508
-0.00260372
-0.00454976
-0.0206161
-0.0030276
-0.00180139
3.91834e-05
-2.81293e-05
-0.0301272
-0.000283325
2.32674e-05
-0.00137035
-0.0111519
-0.00152825
0.000345824
-0.00145425
-0.00269596
-0.00295606
-0.0212551
-0.0145587
-0.00164827
0.000144006
-0.000757307
-0.0303833
-0.0179402
-0.08082
-0.101344
-0.0160899
-0.00621422
-0.00487596
-0.013699
-0.0349085
-0.00977633
-0.0591516
-0.045511
-0.00126261
-0.0133521
-0.0422299
-0.0825373
-0.00326536
-0.0107727
0.00468574
-0.00806412
-0.00114634
-0.0606772
-0.00261454
-0.00430889
-0.00851591
-0.00527865
-0.00992699
-7.47888e-05
-0.0186339
-0.019276
-0.00245601
-0.00323246
-0.0148335
-0.0224163
-0.00324386
-0.00101309
-0.0395553
-0.000243535
-0.00242492
0.000878901
-0.0331269
-0.0025065
0.000337538
-0.00550724
-0.0653814
-0.00268003
-0.0110346
-0.00337431
-0.0215222
0.00197154
-0.00254585
0.000353996
-0.00801568
-0.0045973
-0.032195
-0.0126631
-0.000457531
-0.0695891
-0.0106706
-0.0793245
0.000325571
-0.0110211
-0.00955233
-0.00440781
-0.000160199
0.000391261
-0.0204884
-0.0770555
-0.0153352
-0.00221961
-0.00159107
0.0019094
-0.0102646
-0.0118287
-0.0186786
-0.00139368
-0.0123805
-0.00868694
0.00010236
-0.00866774
-0.0147707
-0.0283084
-0.00241747
-0.00271094
-0.0141267
-0.0101097
-0.0643783
-0.0013887
-0.000251707
-0.00339369
-0.01227
9.64734e-05
-0.0211658
-0.000705889
-0.0024772
-0.00286292
-0.00619516
0.000125995
-0.000684805
-0.0232871
0.000309322
-0.00479001
-0.00459356
-0.000530713
8.52702e-05
-0.00129395
0.0012662
-0.0145137
-0.0142725
-0.0162491
-0.00292208
-0.0131059
0.000119927
-0.0150322
-0.0292623
-0.0715358
-0.000658381
0.000192519
-0.0087891
-0.0113887
0.000265183
-0.000840019
-0.00433693
-0.00699248
-0.00278832
8.14358e-05
-0.0205694
-0.00420753
-0.00848997
-0.00166244
-0.00165437
-0.00606205
-0.00686505
-0.028945
-0.000706201
-0.0126912
-0.00442343
-0.0036347
-0.000355077
-0.00191471
-0.00452625
-0.010973
0.000169267
-0.0205917
0.000233999
-0.00281764
-0.0835049
-0.010165
-0.00170659
-0.000162005
-0.000119211
-0.010345
0.0011538
0.00146354
-0.07834
-0.00611367
-0.0135592
-0.00426939
-0.0354251
-0.065953
-0.0833072
-0.00039847
-0.0174197
-0.0565983
-0.0175697
0.00265351
-0.000813768
-0.0180448
-0.00465324
-0.00393944
-0.0488914
-0.00773658
-0.00432182
-0.00909897
-0.0151853
-0.0028568
-0.000421661
-0.0167292
0.00594751
-0.00662968
-0.00886159
-0.00208935
-0.000304679
-0.0826227
6.53166e-05
-0.0210504
-0.00709938
-0.0237462
-0.0226702
-0.0134054
-0.0231106
-0.0395207
7.53798e-05
-0.00146982
-0.00372659
-0.0211579
-0.017432
-0.0203368
-0.00294912
-0.08261
-0.00269057
-0.00268316
-0.00933775
-0.0436058
-0.0281045
-0.00435217
-0.0018215
-0.0329961
0.00371231
-0.00886395
-0.0142542
0.000491714
-0.00241156
-0.00854183
7.03735e-05
-0.045459
-0.00236837
0.00252628
-0.0167856
-0.000358166
-0.00708466
-0.0020621
-0.00193441
-0.0091877
-0.0277438
-0.000965584
-0.00712662
-0.00866737
-0.00070732
-0.0169871
-0.00353676
-0.0636333
-0.00328345
-0.000525023
-0.00106708
-0.0262791
0.000620854
0.00841569
-0.00591901
-0.0115057
-0.0662863
-0.0192424
-0.0734562
0.00311465
-0.018247
9.84688e-05
-0.0133666
-0.0126865
-0.00624856
0.000336703
-0.0794176
-0.0103624
-0.0956819
-0.00315937
-0.00835141
-0.0639625
-0.00105132
-0.0126867
-0.0284319
-0.00161429
-0.0825328
-0.00153849
-0.00441862
-0.0191873
-0.0175453
-0.00849184
-0.00938288
0.000125615
-0.0154071
-0.00647754
-0.00218354
7.65703e-05
0.00303597
-0.000509894
-0.00460707
-0.00718266
0.00308491
-0.0270434
0.000114909
-0.00753733
0.000869407
-0.0651656
-0.00379947
-0.00670151
-0.00322504
-0.0481848
-0.000294813
-0.010527
-0.00117275
-0.0062369
-0.0115336
0.00592639
-0.0140007
-0.00288601
-0.0175755
-0.0126289
-0.00861445
0.00195037
-0.00149447
-0.0192397
-0.00402322
-0.000443056
-0.018526
-0.000942835
-0.00051219
-0.0551205
0.000521385
-0.00319044
-0.00417366
-0.023756
-0.000304742
-0.000502006
-0.0558462
-0.00988158
-0.0984434
-0.0125109
-5.81269e-05
-0.0800846
-0.0020849
-0.0200761
-0.0207159
-0.0894742
-0.00511948
-0.0144494
-0.0201928
-0.00321642
7.14647e-05
2.03959e-05
-0.0286062
0.00512475
-0.0347995
-0.0483288
-0.00166376
-0.000570151
-0.000795508
-6.10119e-06
0.000711139
0.00147
-0.0116235
0.000334576
-0.00367643
-0.0138602
-0.0036032
-0.00267253
-0.00152451
-0.000433123
-0.000872844
-0.00242139
-0.0213937
0.000391714
-0.016804
-0.0590653
0.00136046
-0.0281654
-0.0253457
-0.00388712
0.000112992
-0.000753553
-0.0133938
-0.000421547
-0.0416814
-0.0475868
-0.00181201
-0.000231457
-0.00684405
-0.00182781
-0.0393076
-0.000257062
-0.0119334
-0.0178304
-0.00853224
-0.00716013
-0.0011842
-0.0215833
-0.070681
-0.01201
0.00219764
-0.0099967
-0.0287079
-0.0213181
-0.00282794
-0.00108655
-0.0297692
-0.0181196
2.03413e-05
-0.00185936
-0.0574902
-0.000730094
0.000360107
-0.0494627
-0.0121094
-0.00112091
-0.00165133
0.00185007
-0.00701568
0.00121162
-0.00609749
-0.00365349
-0.0298378
-0.0344905
-0.00049852
-0.00209333
0.00154065
2.09328e-05
0.00168719
-0.000591241
-4.28427e-06
0.00418126
0.000368311
-0.00171439
-0.00399173
-0.000737303
-0.00079615
-0.00077005
-0.00302274
-0.000366951
-0.00146745
-0.000974152
0.00196927
-0.0328944
0.00011545
-0.069136
-0.0655222
-0.0135508
0.000858664
-1.47423e-05
-0.0619939
0.00145315
-0.06337
0.00635974
-0.0661392
-0.00234252
0.000120009
-0.0414289
-0.00350695
-0.00726905
0.00395797
-0.00842229
-0.000434352
-0.00237892
0.00125492
-0.00151113
-0.0164727
-0.0763601
-0.00175207
-0.00502195
-0.0656933
-0.0285102
-0.000282984
0.00544464
-0.000966777
-0.0116073
0.000173919
-0.0234013
-0.00875422
-0.00139216
-0.0933595
-0.00872569
-0.00870961
-0.00119142
-0.0408941
1.43066e-05
-0.0143877
-0.0285554
-0.0644417
0.00233221
-0.00157475
-0.0134679
-0.0131197
-0.0918937
0.00490654
-0.0200085
-0.0341333
-0.019513
-0.00478363
-0.0109458
-0.0637554
-0.0172329
0.00485841
-0.00470851
-0.00959155
-0.0133834
-0.0151409
-0.066898
-0.0437856
-0.00351822
-0.00262867
0.007497
-0.00867755
-0.00739514
-0.00441357
-0.00454918
-0.0212069
-0.0175049
-0.107753
-0.0199003
-0.0169845
-0.01517
-0.000777686
-0.00061413
-0.0027942
4.40429e-05
-0.00830934
-0.0060578
-0.00349447
-0.000707339
-0.024378
-0.00152939
-0.0246647
-0.00803476
-0.0132681
-0.00859895
-0.0204529
-0.00370104
-0.0148821
-0.00809053
-0.00216558
-0.0446328
0.000178483
-0.00141835
0.000618292
-3.43964e-06
-0.0141117
-0.00196546
-0.00445374
-0.00216329
-0.00472074
-0.0026895
-0.000241593
-0.00160095
0.0016873
0.00024764
-0.0169489
1.55545e-05
-0.00277539
-0.00266447
-0.000133982
-0.010048
-0.00224475
3.57248e-05
-0.000206578
-0.0259194
-0.00930914
-0.0452922
-0.083343
-0.00191431
-0.00534588
-0.0219552
2.8796e-05
-0.00297276
-0.0125113
-0.0312466
-0.0151472
0.00296585
-0.00625518
1.58e-05
-0.01664
-0.00140293
-0.00139582
-0.00511258
-0.00186356
-0.0196487
0.00616101
-0.0012673
-0.0165642
-0.0198647
-0.0465739
-0.00328582
-0.00681761
-0.0737077
-0.0384091
-0.0390385
-0.00257538
-0.0019415
-0.0287097
-0.00337781
-0.0130985
-0.00256477
-0.00310841
-0.0850403
-0.000446866
-0.00105596
-0.000109131
-0.0165163
-0.0153916
-0.000783181
-0.00549665
-0.00899357
0.000362935
-0.0130605
-0.00161225
-0.0123064
-0.0232982
1.96256e-05
-0.000123734
-0.0208596
-1.0385e-05
-0.0792087
-0.081652
-0.0205004
-0.000868111
-0.0157058
-0.030956
-0.0228126
-0.0185527
-0.00272497
-0.0303549
0.000394096
-0.0169361
-0.00932692
0.00201829
-0.0864792
0.00240526
-0.104038
-0.00222717
-0.0345563
-0.00270323
-0.0565749
-0.0379474
-0.0235631
0.00161559
0.000162161
-0.0199924
-0.0129241
-0.00433779
0.00294273
-0.0169442
-0.0645417
-0.00435342
-0.0171316
-0.0605835
-0.0167824
-0.00309825
-0.00458569
-0.0101019
-0.0255565
-0.0526263
-0.0229939
-0.0280209
-0.0103089
-0.00771389
-0.00846581
-0.0948407
-0.0329145
-0.00230137
-0.000918961
-0.0113763
-0.0105517
-0.0045199
-0.0138232
6.24297e-05
-8.87041e-05
-0.0763563
-0.0150557
-0.0136101
-0.00195916
-0.0477875
-0.00862218
-0.00705345
-0.000305994
-0.00260414
-0.0201701
-0.0127122
5.11889e-06
-0.00124602
-0.0394024
-0.000932473
-0.011472
-0.0693402
6.06252e-05
-0.00728662
-0.0768363
-0.0120235
-0.0200373
-0.00186557
-0.00124385
-0.0982672
-0.00853527
-0.0063544
-0.00190526
0.000382301
0.000521158
0.000270285
-0.0148592
-0.0335941
-0.00086859
-0.0840114
0.00178543
-0.0769583
-0.0153946
-0.0437366
-0.0304453
-0.00578173
-0.00295098
-0.0019687
-0.0360559
-0.0649151
-0.00148355
-0.00211231
0.000297501
-0.0007808
-0.0145143
-0.00205329
-0.0102405
-0.00711745
-0.0363334
0.00623542
1.08104e-05
-0.0155348
6.19214e-06
-0.00135673
-0.0510452
-0.0227354
-0.0261126
-0.0034082
-0.0104483
-0.00295284
-0.0194242
-0.0971178
-0.00502545
-0.035066
-0.0301163
-0.0308104
0.000547354
-0.0210184
-0.00470626
-0.101601
-0.00397034
-0.000974324
-0.000937976
-0.0295693
-0.0158578
-0.0255824
0.00143821
0.000536397
-0.0675735
-0.0132986
-0.0831212
0.000250464
0.000143593
-0.0246943
0.000364665
-0.00188583
-0.000677425
-0.00244133
0.000763053
-0.0620592
-0.00145128
0.000324825
-0.0230893
-0.000959553
-0.0131879
-0.0165085
-0.00223228
1.59179e-05
0.000546073
-0.0280049
-0.0167764
-0.0169441
-0.0988288
-0.0153559
-0.024965
-0.00106701
-0.00189808
-0.0281713
-0.0149448
-0.00910472
-0.0592697
-0.00442612
-0.00693795
-0.000921978
-0.0809172
-0.000737387
-0.000958554
-0.0606927
-0.00127246
-0.00501156
5.59555e-05
-0.0399968
-0.0163207
0.000396007
-0.0116893
-0.00855428
-0.0022475
0.00673618
-0.00436691
0.000305447
0.000290753
-0.00214999
-0.0132224
0.000285702
-0.0435046
9.0641e-05
-0.0194846
-0.0455192
0.00431673
0.000931367
-0.00122355
-0.0142135
-0.039486
-0.00609516
-0.0961488
-0.0245137
3.40374e-06
-0.00351013
-0.0394791
-0.0191536
-0.0223978
-0.0589957
-0.00712451
-0.0204407
0.000248075
-0.00117862
-0.0827976
-0.00233296
-0.00219378
-0.0913475
-0.0119867
-0.00248134
0.00249087
-0.00169528
0.00500322
-0.0174536
-0.0110344
-0.0328213
-0.034043
-0.0166688
6.2281e-05
-0.00871802
0.00230144
-0.0210389
-0.0294551
0.00309579
-0.0045262
-0.016535
-0.0681697
0.000432551
-0.0188617
-0.0285042
-0.00981299
-0.00770528
-0.0682542
-0.0216493
-0.0217644
-0.0252672
0.00170394
0.00167314
0.000412667
-0.00574009
-0.00245998
0.00490852
-0.00714728
-0.00164654
0.00447728
-0.00200216
-0.0570739
-0.00169667
-0.00274732
-0.000512884
-0.0117655
0.00148871
-0.0031332
-0.0715979
-0.00716073
-0.0306701
-0.0185756
-0.00788757
-0.000944365
-0.00533062
-0.00364853
-0.0182373
0.000300582
-0.019782
-0.0238632
-0.00586567
-0.00197438
-0.000708629
-0.0278029
-0.0238356
-0.00632179
-0.00809291
-0.073117
-0.0127873
-0.00102211
-0.0482607
-0.0323573
-0.00387629
-0.00107108
-0.00104081
0.000330343
-0.0158156
-0.0024832
-0.0393383
4.46288e-05
-0.00865461
-0.00266077
-0.0746758
-0.00299903
0.00555542
-0.0338405
0.00595767
-0.00267639
-0.030894
-0.0195702
-0.0275455
0.000288069
-0.000840902
-0.0324889
-6.98012e-05
0.000352305
0.00120093
0.000202545
-0.00788772
-0.0295913
-0.0387906
-0.0424697
-0.00443769
-0.00907298
-0.0201104
-0.0184297
0.00018646
-0.0675199
0.00123184
-0.00755612
-0.00423531
-0.00756699
-0.054517
-0.00249488
-0.000410192
-0.00266841
-0.0982589
-0.00487303
-0.0154952
0.00531277
-0.00229883
-0.00076974
-0.00347311
-0.00714094
-0.011217
-0.0046204
-0.0284164
-0.0165719
-0.00282406
-0.0110426
0.00274677
-0.0201962
-0.0154334
-0.00285445
-0.00701679
-0.0169163
-0.00205191
-0.00583288
-0.013274
-0.0512163
0.000742739
-0.0197163
-0.011382
-0.0464034
-0.00182156
-0.029046
-0.0203868
3.34169e-05
-0.052629
0.000312259
-0.0252233
-0.0337715
-0.00154353
-0.0148891
-0.054916
0.00519479
-0.0951385
0.00153147
-0.0417582
-0.0123352
-0.0014421
-0.0940271
-0.0467086
-0.0394602
-0.0413278
-0.0202329
-0.0164615
-0.0566535
-0.0756547
0.000355976
0.00156455
-0.0114872
-0.00144588
-0.000230428
-0.0922538
-0.000106612
-0.00281243
0.000570962
-0.0112011
-0.0277293
-0.00115879
0.000215629
-0.0835979
-0.0164986
-0.0191005
-0.00596789
0.00549311
-0.00340743
-0.0134314
-0.0125769
-0.000585712
-0.0746605
-6.44487e-05
-0.0332082
0.00398481
-0.0137721
-0.0100214
-0.00591184
-0.00159055
-0.00220841
-0.0712007
-0.00615551
-0.0048204
-0.00434467
-0.0352598
0.00445008
-0.0407386
-0.000538982
-0.0208796
-0.000525498
-0.000168673
-0.00309238
-0.000315741
-0.0328174
-0.0320583
0.00400808
-0.000602136
-9.16602e-05
0.000525157
-0.00107167
-0.0584749
-0.0268951
-0.00488718
0.000419254
-0.00174286
-0.00844783
-0.0356023
-0.00174504
-0.0550725
0.000207991
-0.000617417
-0.00164568
-0.0615856
-0.00549477
-0.0101016
-0.0172928
-0.0154781
-0.0543354
-0.0236633
-0.00247425
-0.00170921
-0.0497499
0.00584581
0.000583327
-0.0054439
-0.0190377
0.000524789
-0.0386367
-0.0731449
-0.0967958
-0.00218953
-0.00364873
-0.00834392
-0.0533542
-0.00235504
-0.0776314
-0.0229116
-0.0104842
-0.0236612
-0.0203793
-0.00503947
-0.0143331
-0.00122347
-0.0499098
-0.000406192
-0.001823
-0.00255972
-0.00761439
-0.00973161
0.00691567
-0.00092413
0.00101285
0.000404069
0.00014317
-0.0172952
-0.00234963
-0.0108385
-0.0021507
0.00157704
-0.0119102
-0.00985315
-0.00315293
5.19591e-05
-0.0981565
-0.0974717
-0.000121365
-0.0583572
-0.0313255
-0.0320699
-0.0174541
-0.00572653
-0.0190853
0.000351681
-0.0174846
-0.0169673
-0.0016005
-0.00580352
-0.00525976
-0.00146985
-0.0245888
8.74138e-05
-0.0230631
-0.000951706
-0.00344085
-0.0201743
-0.0115058
-0.0548815
-0.00714348
-0.0383838
-4.52389e-05
-0.0566217
-0.00361747
0.00297909
-0.0050306
-0.0150111
0.000394837
-0.0055582
-0.0184386
-0.0252893
-0.0547445
-0.00787931
-0.0559755
-0.0947065
-0.0233081
-0.101329
0.000615572
-0.00338017
-0.0139534
-0.00145274
-0.00255046
-0.000773791
-0.00175278
-0.0206875
-0.0203402
-0.0163584
-0.0110123
0.00280447
-0.000605617
-0.027022
2.64337e-05
-0.0280579
-0.012356
0.00129886
-0.0120996
-0.0313962
-0.0569039
5.33719e-05
-0.0984288
-0.0243854
0.0068819
0.00584447
-0.0635985
-0.0648784
-0.000113485
-0.000102394
-0.0237633
0.000370821
-0.00865795
-0.00292783
-0.000760494
-0.00064868
-0.00221779
-0.000114663
-0.00196326
-0.00303772
-0.0197023
-0.0947032
-0.00270958
0.00387315
-0.0140496
-0.0313682
-0.00147009
-0.0233741
0.000392122
-0.00497297
-0.0284718
-0.0296195
-0.0693148
-0.00011744
-0.0168505
-0.00466706
-0.0283646
-0.00928466
-0.0968978
-0.103326
-0.016615
-0.00169732
-0.0121953
-1.86445e-07
-0.0169013
-0.00028356
2.27372e-05
-0.0158751
-0.0289652
-0.00195783
-0.0347
-0.0491815
-0.00153473
-0.0288865
-0.00901489
-0.000139491
-0.0598778
-0.000558628
-0.00517747
-0.00727812
-0.0153553
-0.00192224
0.00360379
-0.0200461
-0.0925818
0.00473174
-0.000760632
-0.0605269
-0.00430066
-0.00767296
-0.00127488
0.000661176
-0.0146084
-0.0183871
-0.00839082
-0.00852163
-0.0143961
-0.000731111
-0.00632689
-0.023978
-0.000525443
-0.0274263
-0.0155517
-0.00571552
-0.00115106
-0.00286305
-0.00447724
-0.0385898
-0.047905
-0.0116623
-0.0534382
-0.000417382
-0.0126367
-0.00134273
1.68973e-05
-0.00328723
-0.0415609
0.000865916
-0.000847609
0.00646849
-0.00202309
-0.0181941
-0.000812858
-0.0181552
0.00191726
-0.00158587
-0.0319949
-0.0135301
-0.0174447
-0.00885453
-0.00610118
-0.00214979
-0.00112717
-0.0233249
-0.000955723
-0.0129152
-0.0041585
-0.0993488
0.00037406
-0.0043961
0.00186304
-0.0208864
-0.00252564
-0.00543758
-0.0944744
-0.00860233
-0.0321332
-0.0128503
-0.00149613
0.00522586
-0.00299889
-0.000709616
-0.00290415
-0.0796062
-0.0132836
2.16039e-05
-0.0283147
-0.0173616
-0.0573814
0.000697157
-0.0232038
-0.0554559
-0.0378261
-0.00188438
-0.00465642
-0.000253945
-0.00463684
0.00571212
-0.0438964
-0.00804534
-0.00332545
-0.0141368
-0.00316074
-0.00862777
-0.0170496
-0.00110034
-0.0555634
-0.0272471
-0.0169499
-0.0003007
-0.00215384
-0.00815867
-0.028724
-0.00299239
-0.00379764
-0.064615
-0.0285802
-0.0167952
-0.0153081
-0.00986139
-0.0284846
-0.00223119
-0.023982
-0.0265665
0.00326176
-0.0801831
-0.0199792
-0.000735013
0.000986907
-0.00473814
-0.000717376
0.0010708
-0.000767025
-0.0134635
-0.0538941
-0.00548165
0.000580395
-0.0191712
-0.00388778
4.93735e-05
0.00148926
-0.0546019
-0.0186149
-0.0718521
4.08631e-05
-0.0202028
-0.0576928
-0.0382473
-0.00827878
5.55145e-05
-0.0784649
-0.0242647
-0.0074674
-0.0955251
-0.0165138
-0.061379
1.35945e-06
-0.0172837
-0.0083003
-0.000270486
-0.0645896
-0.033875
-0.0943325
-0.0947977
-0.00207711
-0.070803
-0.0399921
-0.00323592
-0.053281
-0.00187656
-0.0387538
-0.0270237
-0.0395935
-0.00219244
-0.0386192
-0.0601376
-0.00642129
-0.00728754
-0.0697901
-0.0830213
-0.0163065
-0.00244723
-0.0473968
-0.00139302
-0.0167417
-0.0355783
-0.00650469
-0.00573173
-0.00158979
-0.00438547
-0.0162691
-0.00158216
-0.0522578
-0.0427818
0.00111556
-0.019681
-0.00511435
-0.00459205
-0.00896984
-0.0720508
-0.0323931
-0.00517333
-0.0712604
-0.0265619
-0.0171765
0.00901815
-0.00115694
-0.00335741
-0.0292737
0.00114073
-0.0602857
-0.0285365
-0.0186432
-0.00668075
-0.0158872
0.00481654
-0.000244484
-0.0634151
-0.00183488
-0.0175427
-0.000621968
-0.0772528
-0.00798308
-0.00394018
-0.0220503
-0.00578701
-0.00137695
-0.0645954
-0.0647828
-0.00173225
-4.35546e-06
-0.0170794
-0.0155888
-0.0661594
-0.00195023
-0.0642089
-0.0514181
-0.035572
0.00407995
-0.0531011
-0.045749
-0.0201245
-0.110265
-0.00184856
-0.074148
-0.00184555
-0.0621274
-0.0231394
-0.0287615
-0.0162247
-0.0180053
-2.55202e-06
0.00405007
-0.0229992
-0.0540348
-0.000831985
-0.0710261
-0.0200034
-0.00444494
-0.00284986
-0.0019072
-0.00125846
-0.00222579
-0.0557675
-0.0505454
-0.0303412
-0.0337519
0.00142375
-0.00641027
-0.0353995
-0.00134127