/*--------------------------------*- C++ -*----------------------------------*\
| =========                 |                                                 |
| \\      /  F ield         | OpenFOAM: The Open Source CFD Toolbox           |
|  \\    /   O peration     | Version:  v2012                                 |
|   \\  /    A nd           | Website:  www.openfoam.com                      |
|    \\/     M anipulation  |                                                 |
\*---------------------------------------------------------------------------*/
FoamFile
{
    version     2.0;
    format      ascii;
    class       volScalarField;
    location    "250";
    object      ddt0(k);
}
// * * * * * * * * * * * * * * * * * * * * * * * * * * * * * * * * * * * * * //

dimensions      [0 2 -3 0 0 0 0];


internalField   nonuniform List<scalar> 
18758
(
1.25865e-05
0.000910016
-2.5447e-08
1.06164e-05
2.71657e-06
3.29476e-08
-2.53043e-08
7.79539e-08
2.67391e-06
2.16475e-06
0.000743361
-0.00189362
-0.0017346
2.09441e-07
-2.51211e-08
-1.58673e-08
-0.00156685
1.02833e-08
-2.06554e-08
-9.88572e-07
0.00492911
0.00267961
3.16593e-08
-2.48818e-08
0.0081465
0.00168519
0.0114708
-2.82235e-06
1.69129e-06
0.000216935
0.000676331
0.0125879
1.45746e-07
0.0247054
1.76244e-06
0.000593688
-0.00128764
3.1022e-06
0.000476718
8.75464e-08
-0.00239655
-1.28344e-06
-0.00275831
5.81467e-07
-2.11308e-09
-0.00371941
-1.31418e-07
-1.22889e-06
0.00370859
7.49141e-06
0.000828744
0.0181947
6.11091e-06
-1.39308e-07
4.81889e-06
-0.0013461
5.84274e-08
-1.02067e-06
-8.26302e-07
2.64437e-08
-2.5647e-09
5.92779e-07
0.0173804
-0.0448592
-3.39263e-09
0.00566641
2.55552e-08
1.4273e-08
3.14142e-06
1.96864e-08
0.0167573
0.00411736
-3.82632e-08
4.92611e-07
2.93271e-05
4.68919e-06
-0.0103854
-0.00144733
2.70329e-06
-0.00271511
-5.74997e-06
0.000622611
-0.000996593
5.29689e-06
4.66877e-06
1.36205e-05
1.17728e-08
6.35545e-07
0.0192795
5.1804e-06
0.00747041
-1.8356e-08
-2.33296e-06
0.00416971
-3.14121e-08
9.53007e-09
1.54423e-08
7.8865e-07
-0.00144579
5.30897e-08
0.00180661
-1.71678e-06
7.52518e-09
1.02168e-08
0.0060571
0.00346893
-5.06717e-06
0.00786284
0.0266424
0.000128338
-1.42809e-08
-0.050861
-9.92869e-06
1.73713e-08
-1.95039e-06
-1.09355e-05
2.13109e-06
-3.03773e-08
-0.0001977
-1.52724e-06
-3.53526e-08
-0.00884457
2.95744e-06
1.09231e-08
-0.00189396
-3.49139e-07
7.14748e-08
1.27276e-08
-7.88643e-06
-0.00596636
-1.91831e-06
-2.1262e-08
1.23086e-06
0.00170577
1.32488e-07
-3.64994e-09
-0.00475633
-2.69124e-06
-5.97943e-06
-6.41486e-06
-2.44991e-06
-0.000241127
1.25884e-06
0.0128515
-0.00388168
3.87215e-06
0.00207929
1.93503e-06
0.000924081
-0.000487993
-0.00827481
0.000669815
-4.08417e-08
2.78244e-06
-0.00275376
0.0281514
1.83032e-06
-1.24228e-05
5.06701e-06
0.00102601
0.0078494
7.1076e-09
0.00414709
0.00253429
-0.0187717
-5.34456e-08
-2.65965e-10
0.0140034
-0.00697792
-0.00245921
0.00229774
-2.38959e-08
-2.27195e-06
0.000866506
0.0390433
-3.54522e-08
-4.00734e-08
-0.000353306
0.0247781
1.77888e-07
-3.98402e-09
-8.72337e-07
9.79882e-06
-3.25321e-07
-0.000229974
2.785e-08
1.79194e-05
-1.99875e-06
0.00467352
-0.0184278
0.00106812
2.9285e-08
4.4894e-06
-0.011673
-2.06645e-08
-2.4914e-07
-1.38811e-05
-4.7517e-08
0.00431833
3.65199e-08
9.853e-07
-1.2769e-05
0.00852677
-9.86765e-09
-1.35766e-08
0.00485537
-9.31303e-09
2.18574e-06
-0.00782599
-0.00328787
2.327e-08
-9.28884e-07
9.72263e-07
-3.32251e-07
-7.14391e-07
1.14843e-08
1.30877e-08
1.73322e-06
2.38157e-08
0.0020509
-0.00142908
-1.2252e-07
7.86164e-07
-6.81471e-06
0.00703956
0.000801445
1.61547e-06
-9.43237e-06
0.0105282
-9.49802e-09
-6.58376e-06
2.8512e-06
0.0483872
-5.21774e-09
1.13983e-08
-2.58723e-07
1.06624e-05
0.00416818
-1.10066e-05
-2.34463e-07
-4.69013e-09
1.03729e-05
-1.78386e-07
-1.16671e-08
-0.00034104
-2.55489e-05
1.42705e-08
-3.51213e-09
8.85876e-07
5.21821e-08
0.00263157
2.45278e-07
0.000633822
2.50511e-08
3.33948e-08
-1.64059e-06
-1.45015e-07
0.00715155
-1.27552e-08
-0.00727094
-1.10456e-05
5.05965e-09
1.49145e-08
4.25971e-06
0.0230621
0.0237886
6.23805e-09
-3.6991e-06
-3.51732e-08
1.21679e-07
9.03144e-05
0.0237674
1.20402e-07
-3.71246e-08
4.47313e-06
-5.73192e-07
6.49561e-07
2.34327e-08
-4.85592e-07
3.61322e-07
3.12891e-11
-6.22893e-08
-1.31205e-08
-0.00035544
-2.04361e-08
-3.17016e-08
1.10298e-08
2.12858e-06
1.29878e-08
1.19177e-08
-5.96252e-09
8.72008e-08
7.80676e-08
-2.36289e-08
-3.71172e-08
2.77359e-06
0.000648102
-1.49569e-08
-2.77807e-08
-0.0044634
2.20169e-07
-2.0866e-08
-2.05501e-08
0.000133303
0.0004304
-7.60141e-09
-3.67108e-06
0.00166693
-3.38352e-08
-0.00112112
-1.05442e-08
0.0192988
-9.8651e-06
-1.39868e-06
1.93955e-06
0.0232627
-3.13005e-09
0.00710341
-1.56115e-05
1.83366e-08
1.88758e-07
5.6656e-06
-0.00017608
1.06578e-08
3.25009e-09
-0.00456408
0.00192098
1.53154e-08
0.00253688
5.66256e-06
-2.38556e-05
0.00545383
9.26262e-09
-2.10375e-07
-1.01422e-08
2.53761e-08
-1.57046e-07
-7.57214e-06
-2.51087e-09
3.62909e-08
-1.72768e-07
-6.72067e-09
0.0110996
-0.000230064
-2.55542e-06
0.00413868
-0.000318478
1.23092e-08
-2.41911e-06
-2.21631e-05
0.00285119
-0.00153609
-1.604e-06
1.80534e-08
0.00371026
-0.0102885
-1.63398e-06
9.36989e-08
-4.8084e-05
-5.99087e-07
2.7894e-07
-9.56416e-06
-0.0158113
-0.00208053
-1.77842e-05
-0.022566
1.38821e-08
-1.38644e-07
-1.05053e-06
2.26191e-06
0.00382998
-3.21755e-05
0.0337756
-1.05614e-05
-0.00147729
-4.705e-06
2.91459e-08
0.0100492
1.93906e-06
0.000429572
-0.00231632
6.96608e-09
-2.38209e-08
0.00204505
-0.00219108
-0.00225917
-0.000512002
0.000353094
-1.32127e-07
-0.00240288
-0.00044985
-1.70307e-08
3.71813e-07
-9.66044e-07
3.98441e-06
-3.12517e-08
-6.14124e-07
1.17558e-08
-1.06047e-07
1.54024e-08
-4.64906e-07
2.53688e-06
-0.00553284
-7.28526e-07
-0.00352842
-0.00541143
-0.00979116
-0.00858394
-8.78254e-06
2.77259e-06
-1.90179e-08
-0.00284886
8.68612e-08
-1.05318e-07
0.000176344
1.01136e-06
4.90582e-05
-1.00452e-07
0.0132578
2.39924e-09
1.11359e-07
-2.24294e-08
0.00459431
0.0242383
-0.00151302
-3.81202e-08
0.00644716
-4.28072e-06
2.15475e-08
3.46626e-06
3.71472e-08
0.025857
-6.13111e-09
-1.76089e-08
-0.0154948
-1.06371e-06
-2.03622e-07
-3.78386e-08
2.00123e-07
4.68608e-07
-0.0457198
-3.09685e-05
3.89229e-09
0.00669696
-2.41718e-08
-2.09282e-05
4.59781e-06
6.97784e-09
-0.00138207
3.58013e-09
6.46502e-07
-2.51018e-08
-3.76877e-05
6.28601e-06
8.4085e-09
0.00517707
0.000435871
1.44949e-08
2.54455e-07
-5.79872e-07
-1.15383e-08
-1.04216e-09
2.05141e-08
0.0101282
0.00563348
5.79707e-08
1.47952e-06
-0.0230876
-0.000263935
0.000920673
2.45152e-06
0.0017414
-1.42549e-08
-9.92674e-06
8.72755e-06
1.72119e-06
2.12168e-07
0.00167093
0.000207898
1.07189e-05
-1.69245e-08
-1.47783e-08
1.84792e-08
5.46075e-09
1.89925e-08
-1.96207e-08
-0.00273898
3.34909e-08
-2.08812e-08
-6.01856e-07
-2.56251e-08
-1.47424e-08
-1.44738e-07
-2.98388e-07
0.000105872
0.00610287
2.26994e-08
0.00072324
2.13206e-08
1.26219e-06
2.64819e-05
0.0116288
-4.04219e-05
-7.22943e-09
1.77939e-08
0.00683877
0.00432384
0.000149608
1.67307e-08
9.34087e-06
-0.000417646
1.04892e-08
1.78045e-08
0.00881055
-5.99809e-07
-5.54052e-06
0.000132984
3.66831e-06
2.09956e-06
-1.67379e-09
-3.56739e-08
-7.04288e-09
-8.03652e-09
-2.98863e-08
-8.36317e-09
0.00428522
9.40695e-09
0.00046184
-0.0208123
1.59002e-08
9.29108e-09
3.80371e-08
5.54655e-07
-2.26076e-06
-1.41558e-05
5.26665e-08
-0.0154908
2.15352e-06
2.00634e-06
9.11795e-08
-7.3428e-07
7.19985e-07
1.44374e-07
1.22645e-07
0.00380772
-0.000295422
-2.07685e-09
-2.21554e-08
1.1051e-07
0.0134856
-2.19696e-08
9.69844e-09
-4.4564e-09
-2.17442e-08
-4.02995e-08
8.418e-08
-7.20657e-07
-1.38904e-08
-1.8395e-06
4.42833e-08
2.52197e-07
-3.50627e-05
0.014517
1.12945e-05
1.68041e-07
2.28405e-08
-1.69321e-08
-3.28239e-08
-4.50998e-06
-0.000109022
0.000372131
-1.59281e-07
0.0154793
1.7631e-08
-1.16841e-06
1.66958e-07
2.42609e-08
1.17549e-07
2.31438e-08
-1.33766e-08
0.00939405
-2.72468e-08
7.02961e-08
-6.50752e-05
-2.3843e-08
2.02357e-08
0.00422862
-2.39659e-08
-0.00242686
8.87241e-05
2.48932e-08
-2.51648e-08
4.63423e-06
-1.29392e-08
-1.95673e-06
-3.52258e-08
-0.00854019
0.0160868
0.00203145
4.10248e-09
-0.00700946
-1.44607e-08
3.0483e-08
2.45956e-08
5.38625e-06
-0.0183884
2.74629e-05
-9.32825e-07
-3.54289e-07
4.39037e-06
-0.00804859
5.37119e-06
1.17948e-08
-5.86729e-06
4.72938e-07
0.00455838
9.68736e-07
9.62217e-05
3.49294e-08
-5.15899e-07
-2.00335e-06
2.71374e-08
3.52975e-08
-1.86399e-08
4.96198e-09
5.64753e-07
-2.18602e-06
0.000731635
0.00813631
0.000149003
9.7647e-07
2.80291e-08
-1.03034e-08
0.000525391
0.00546127
-2.0499e-08
-2.17226e-06
-0.00030308
0.00257049
3.46874e-08
6.70962e-10
6.03059e-06
0.000556803
-1.18937e-08
-0.000484802
6.32758e-08
-8.13346e-08
3.06358e-07
4.51843e-08
1.13075e-07
-9.8721e-07
1.24869e-08
2.21963e-06
1.12352e-06
-2.22876e-06
-0.00217721
-2.29351e-07
-4.41898e-08
-0.000164877
1.73883e-09
7.45883e-05
0.00420269
6.70578e-08
-0.00147572
-1.50388e-06
1.59196e-07
-0.00483794
0.00178347
0.0017619
0.0154823
-2.95093e-09
0.0108118
1.21877e-08
0.0129667
-0.0102354
-1.74539e-06
-1.79847e-08
-0.00244721
4.32422e-07
1.04559e-05
-2.22486e-05
0.000732905
-3.44084e-08
0.00275425
3.71396e-08
-1.90779e-06
4.29399e-06
-3.96875e-09
7.30426e-07
-0.00248376
-0.0027345
-9.09536e-07
-7.70107e-07
-2.25706e-08
1.18527e-07
4.77693e-06
-1.9171e-06
6.70739e-06
-9.2248e-08
9.57737e-05
1.50259e-07
1.09878e-07
7.22958e-07
-7.1074e-09
0.000213047
-1.4989e-08
4.69302e-09
-0.00030227
-5.86735e-09
-6.48521e-07
-0.00196728
-7.3573e-06
5.47391e-06
1.37778e-08
1.59906e-07
4.08508e-06
1.21772e-07
0.000100654
2.71872e-07
-6.36358e-07
3.96797e-08
9.0793e-08
-1.77929e-08
0.0125834
-8.59825e-09
0.00684056
-1.1941e-05
-7.77776e-08
0.0101121
1.99107e-08
1.08085e-06
-8.44893e-07
-0.0132336
3.84386e-07
-0.000251867
-0.00204115
-2.22964e-08
-0.00223693
-7.36016e-09
-5.78197e-07
1.46148e-07
-2.05294e-08
0.00905423
-0.00213578
-9.49633e-09
-1.28712e-07
3.09672e-07
-6.95697e-10
1.02092e-08
0.000440836
0.00529076
-2.62241e-07
1.26023e-09
-6.2524e-09
-0.0326031
-6.10466e-05
-0.000259372
9.35336e-09
4.30359e-05
-1.04433e-07
1.52935e-07
1.9591e-07
-0.00141663
1.12619e-08
-7.93929e-07
-4.2062e-05
3.95035e-06
0.000266006
2.42552e-08
1.01651e-06
1.41555e-08
-2.93292e-08
5.67031e-07
1.21666e-07
-6.88015e-07
6.31383e-09
-0.00119922
-1.11788e-08
1.27685e-07
-2.28021e-06
-0.00307039
-3.21172e-07
-1.81211e-08
7.69339e-08
-0.00254258
6.51867e-05
1.01887e-05
-1.30784e-08
3.81874e-08
9.72143e-07
0.00276928
-0.00215747
-9.29729e-08
-2.69244e-08
1.96397e-08
-1.2259e-07
-1.81021e-06
-2.59406e-08
-2.41642e-08
0.00122655
-1.93403e-08
2.10128e-08
-0.00242866
-2.70839e-09
-2.87712e-05
2.18586e-06
-0.00135473
-4.33373e-05
-0.00160052
0.0070207
-2.94237e-08
4.72509e-08
-1.00228e-06
-3.4232e-07
1.01214e-08
-1.67232e-08
7.22807e-09
5.38507e-08
-0.0262675
1.25121e-05
-2.39594e-05
1.35846e-06
4.17505e-08
1.45512e-06
1.19741e-06
6.58602e-06
1.7323e-08
-9.48565e-07
-4.99237e-08
0.00380599
0.0175148
0.00616302
2.30778e-08
-5.54737e-06
-1.027e-05
0.000137292
0.00253269
0.00201416
-2.86823e-07
5.32072e-06
1.84217e-07
0.0263381
-4.53354e-08
2.21295e-08
3.31747e-07
-0.0111688
-1.64306e-08
0.000539184
-0.000143782
-9.32652e-09
2.73656e-09
-3.32688e-09
-1.29316e-07
-1.93134e-08
1.3033e-06
-2.45181e-07
-3.84688e-08
-8.82323e-08
0.0115714
0.00532863
-3.09995e-08
0.0022877
0.000172439
-1.96074e-07
9.90683e-07
-4.35313e-07
2.03306e-08
-6.08245e-07
-1.31373e-07
3.02929e-08
1.1624e-08
1.03912e-06
-3.94406e-08
0.0133067
6.49401e-07
2.08801e-08
-1.23843e-07
0.0010689
-3.56872e-08
2.58001e-08
-0.0181489
5.18434e-09
1.59938e-06
5.42423e-07
2.41898e-08
-7.12879e-09
3.78699e-08
-1.32484e-06
-3.26685e-06
-7.30938e-09
-0.00147462
4.79789e-06
-4.96977e-06
0.00380098
-4.28467e-08
-4.78523e-05
1.25734e-08
-3.77803e-05
-7.31564e-08
-1.0963e-07
6.23494e-06
-2.20053e-05
2.81834e-07
0.000541456
0.00025714
2.56076e-08
1.80536e-07
2.79653e-08
5.60047e-08
4.95753e-07
5.29737e-07
3.65806e-09
-3.40143e-05
1.26322e-08
-8.70584e-08
-0.00205517
1.15467e-07
1.24125e-08
-5.51136e-09
0.0186823
-1.34163e-07
1.3501e-06
2.61448e-07
0.00441035
-0.00255642
-3.12346e-06
0.00441158
-3.6526e-08
-1.58136e-08
2.30793e-08
-0.00134981
4.09392e-08
-2.50099e-08
3.25635e-07
-5.64088e-08
-1.36372e-05
-6.72117e-08
3.76606e-08
0.031437
-9.17542e-09
-3.50737e-06
0.00179529
-1.68711e-08
-3.27175e-08
0.0159455
-7.33407e-07
-0.0109536
0.000894603
-1.03316e-08
4.2068e-08
-0.00386107
1.40372e-08
3.09974e-07
-0.00203751
-1.93798e-08
-0.00194733
-6.94359e-09
-1.18348e-07
-2.91787e-08
2.93879e-06
2.70439e-07
0.00411653
-3.69638e-08
1.34812e-08
-0.0028919
-0.00183768
-7.28177e-07
-1.03271e-06
-5.04227e-05
0.0026705
0.00390338
-7.90968e-09
0.00252918
-4.76552e-08
0.00966402
0.00999586
-2.57579e-07
-2.50641e-06
-1.11669e-08
0.000131852
3.09812e-08
-0.0189146
1.16923e-07
0.0223737
2.10059e-05
2.88129e-09
-1.93448e-08
-2.55868e-08
0.00949543
2.24971e-05
5.785e-08
-0.00561241
2.00956e-08
1.05065e-08
-0.000868115
1.49285e-08
-0.000532863
1.75533e-08
-2.50008e-08
5.48655e-09
2.25142e-08
1.60985e-08
3.40148e-08
8.05459e-06
-8.48508e-07
2.18281e-06
3.09123e-07
2.73883e-07
-1.7868e-08
-0.00239857
4.34774e-09
0.00436176
-4.1084e-08
-0.000938137
3.33708e-07
0.000732089
-6.45628e-09
4.73385e-08
1.27789e-08
0.00638851
7.51135e-10
0.00325643
6.08603e-06
6.99151e-09
8.82332e-07
4.3051e-10
-2.59022e-09
-8.45565e-07
-1.19625e-07
-0.00168451
5.48544e-08
-3.33969e-07
6.0407e-08
1.08359e-07
-0.0127056
-0.00413345
1.54257e-07
-1.14858e-08
-1.35348e-06
2.63437e-07
1.9201e-09
2.45686e-06
-1.49445e-07
-2.12077e-08
-1.6087e-08
-5.27098e-08
4.60878e-06
-5.47949e-06
2.06817e-08
-2.20864e-08
-0.00229803
-1.6726e-07
0.0014886
0.00310925
2.04187e-07
0.00485733
1.09347e-08
6.15147e-08
1.50595e-06
1.10183e-07
-4.14542e-05
-3.77292e-08
2.2306e-06
-0.0018102
-1.86855e-05
-0.00100372
-0.00262395
2.7622e-05
-2.3602e-06
1.65852e-08
3.95583e-08
-0.00287169
-5.58252e-08
3.38661e-08
-1.58835e-07
-1.28777e-05
2.75457e-08
-1.66728e-08
0.00322336
1.01976e-07
-9.02742e-06
1.51619e-06
9.54782e-08
-2.87725e-05
4.05882e-08
3.03224e-07
6.34403e-08
-2.36878e-06
-6.18298e-06
-7.92355e-09
2.44766e-07
0.00743822
-1.45e-07
-1.57166e-08
-0.00304793
-1.74806e-08
1.83095e-08
-3.20169e-08
-1.77474e-07
-2.82679e-06
0.00897831
-4.86545e-06
-0.00293918
0.000412102
-0.0505733
0.00172612
-5.24703e-06
-0.0114621
-0.00214189
9.07614e-08
2.05244e-07
1.66423e-08
4.43673e-08
-1.41767e-07
-2.04136e-07
4.10553e-05
4.10124e-05
3.5455e-08
-8.4323e-09
4.37415e-06
-8.01827e-06
0.00153412
-2.09211e-08
-2.12044e-07
4.52214e-08
-1.0793e-05
-0.00292826
8.72129e-07
-0.00033769
3.14998e-08
5.01331e-08
4.02173e-07
9.707e-06
4.03582e-08
-3.22772e-05
3.79186e-07
-1.35467e-05
0.000532158
-5.06486e-06
-2.24805e-06
-4.17581e-09
3.46932e-08
-2.10525e-07
-2.84428e-08
-0.00281517
5.87406e-06
0.00476293
-6.74554e-06
-0.000489074
4.24354e-07
0.00361246
0.00909613
-0.00269164
5.32328e-06
0.00481616
-2.01737e-06
0.00085448
1.04496e-06
-2.23539e-06
1.5846e-08
-1.85238e-08
1.82224e-07
3.43073e-06
-1.09162e-08
-1.41598e-08
0.000184579
0.00501751
0.00070145
0.00137838
-3.08641e-07
-0.00465947
-2.66731e-07
2.81806e-06
-6.73011e-09
0.00717675
-9.91702e-06
3.65194e-08
1.33745e-06
-0.00302775
0.00441977
-0.000797124
2.39015e-06
7.77116e-06
-1.16643e-08
-0.0102982
-2.88173e-08
-0.0025106
-0.000192198
-2.3605e-06
-2.88159e-05
-5.01812e-07
2.95863e-08
-4.634e-08
0.00552
-0.00023051
-3.89295e-05
3.67663e-07
1.2039e-06
-9.24444e-07
-0.00162095
-2.84338e-08
-0.000265859
1.06737e-07
0.00189416
0.000412789
3.55622e-07
-0.000229765
2.57242e-05
-0.00243327
-1.30421e-08
-2.27432e-06
0.00946109
8.35195e-07
-1.34644e-08
0.000500658
0.00666984
1.99609e-08
-6.80672e-09
0.000694384
-1.81512e-06
-1.63016e-07
0.00619472
-0.000418941
2.53188e-07
-7.06442e-07
-0.00132902
2.09525e-07
7.77417e-08
5.00605e-08
-0.00156084
2.42553e-09
-7.43313e-08
-1.35048e-08
3.80669e-05
5.50819e-09
-0.000166995
1.6584e-08
1.21718e-08
0.00231799
4.89134e-07
3.83324e-08
0.00024981
-1.69525e-08
2.98748e-07
4.36642e-08
2.63508e-08
-2.21656e-08
-2.93569e-06
-3.73674e-07
-0.000779873
5.94527e-06
-0.00438307
-0.000150966
3.90372e-07
-1.49369e-08
4.47228e-09
0.00789977
6.82691e-07
-4.28329e-07
-0.00141305
1.287e-06
0.00238492
1.31283e-08
1.36533e-08
-1.16571e-08
-1.08791e-07
6.33485e-08
-3.20068e-08
-2.81982e-07
-5.72247e-07
1.41161e-08
0.000637012
-2.08774e-05
0.00120975
-2.79457e-06
4.28861e-08
4.79435e-07
0.0103518
0.0100287
0.00115026
0.00209166
0.00205638
2.1421e-05
0.00914448
-4.54341e-06
-1.79732e-06
2.33507e-06
0.00563482
-8.93539e-09
-0.00151068
0.000410869
-7.53645e-06
-2.8727e-08
0.0023882
3.85871e-08
-3.52421e-09
2.66e-08
1.32824e-06
-0.0485897
-0.000512595
-5.28347e-08
2.72515e-08
-1.75391e-08
8.55736e-09
-7.83664e-06
2.61022e-08
0.00798164
-6.1151e-07
-1.51276e-05
3.78254e-07
-2.16517e-09
-4.36219e-08
0.0150694
0.00150887
-1.79875e-08
-2.67799e-07
-1.41425e-05
7.45115e-09
2.59143e-08
-8.09952e-09
3.28649e-08
-2.00357e-08
1.63617e-09
3.83788e-08
-2.11699e-05
-2.15269e-07
-1.11182e-05
-2.40133e-08
-1.74515e-08
0.00010537
2.62755e-08
0.0084577
-1.59879e-08
-4.48489e-06
0.000333425
-0.00191832
-2.28058e-06
-2.50666e-06
0.00128392
1.72976e-06
2.21034e-06
-5.57571e-08
-1.98632e-08
-5.70374e-08
9.86569e-10
2.81084e-05
1.26285e-06
2.33803e-07
2.95277e-05
-5.42423e-08
-1.27771e-07
6.73452e-07
0.00140529
-9.20706e-09
1.15678e-06
-0.000484256
-8.12946e-07
0.00409422
-3.35412e-08
-4.96007e-08
-0.00212914
-1.0083e-05
-1.53647e-08
2.44425e-08
-1.28353e-05
-1.31572e-08
2.17072e-09
-0.000337982
3.28539e-07
-5.31814e-07
-4.39097e-07
2.70136e-06
0.0108471
2.48194e-07
-0.00884231
-0.0241457
-1.91075e-08
-3.31225e-08
-0.00749944
4.0843e-07
2.00692e-05
-1.14143e-07
2.73875e-05
4.42837e-07
-1.38045e-08
-1.27146e-06
-9.80499e-06
2.97894e-06
-0.00835086
0.000723605
2.4951e-06
0.000117774
-0.00820925
1.51474e-07
0.00381032
-0.025918
-6.97984e-07
-0.000812583
-5.91635e-09
-3.9112e-06
-5.02103e-06
0.00204366
3.34574e-05
-0.000271285
2.09984e-06
-0.000484153
4.44391e-08
2.47373e-08
-0.000867761
-7.32289e-07
-9.87793e-09
-1.33281e-08
3.47313e-07
5.2818e-08
-1.65114e-07
-6.54398e-09
-3.07722e-08
-0.00154244
8.47028e-06
3.29368e-08
6.6492e-07
-0.00117695
-0.00239857
-1.85492e-08
9.9866e-07
-0.000339891
1.53066e-06
1.09816e-07
1.27714e-08
0.014363
3.9024e-07
2.58567e-06
-3.63315e-06
1.31606e-09
1.53366e-05
0.000875726
-3.43189e-08
-0.00212944
-0.0133264
0.0109615
-1.88822e-07
-3.44211e-08
1.79849e-08
2.051e-08
-2.205e-08
-0.000112878
0.0208531
2.61965e-08
2.14239e-06
0.0031393
3.61333e-08
3.01064e-08
-1.10657e-08
0.00161053
0.00461825
-1.51708e-05
5.35763e-06
-1.24874e-07
0.000413492
0.00226026
-1.67016e-08
7.75912e-10
6.97074e-07
3.47961e-07
1.41732e-05
-0.00149045
-1.94672e-08
-0.000144897
0.0020748
6.58185e-07
-1.5415e-08
3.28193e-08
-1.11797e-06
-2.17013e-08
9.35757e-08
-4.09216e-09
0.000164057
-0.00163324
-8.0353e-08
-7.50565e-08
-6.50493e-07
8.57688e-09
1.01779e-08
-1.89092e-06
0.00148522
-7.46624e-09
1.55339e-06
0.0102148
5.57289e-06
2.52852e-05
-4.11579e-06
-2.93952e-06
1.41351e-07
-1.04509e-06
-2.97083e-08
7.12721e-09
-2.67889e-07
-0.00189583
-1.74947e-05
-1.06601e-07
2.45769e-05
-1.23656e-08
0.000172255
-0.00107468
5.31735e-08
-0.000186306
-8.21921e-08
4.33348e-07
-8.56114e-06
0.00858741
5.29439e-08
2.43738e-07
-7.49111e-08
0.000136284
-2.54308e-08
0.00405894
0.0148281
-6.86753e-10
-3.46378e-06
-0.0023304
-1.10843e-08
-1.7807e-07
0.000951193
-1.05149e-06
-6.70604e-08
0.000177071
2.40347e-07
-2.80457e-08
0.00605845
-0.00386641
0.000114777
5.85494e-10
-0.0110748
-4.62049e-07
-8.66457e-09
3.50782e-06
1.83004e-06
-2.07972e-06
-5.79845e-05
-0.00774962
-0.000773813
-1.07451e-05
-4.21284e-05
-4.27887e-09
0.0262183
0.00056624
-2.19395e-05
5.65573e-05
-4.44552e-10
-0.0027439
3.20284e-08
-3.05398e-09
1.01379e-06
2.21243e-08
4.6785e-05
0.00224789
-2.00869e-08
0.00920059
-0.0197283
0.00243866
1.48852e-06
-8.66872e-07
-9.09569e-09
-3.10039e-06
3.12207e-07
-1.77394e-09
0.002539
-0.0221741
-0.00161022
-0.00040812
3.27944e-05
-0.000881471
0.00722256
3.43426e-08
6.49671e-07
-0.0216443
-2.44032e-06
6.60862e-08
-4.41184e-09
-0.00393073
-6.49873e-05
6.81983e-07
-1.86463e-08
-4.67533e-08
7.06032e-05
2.4555e-08
2.90731e-05
0.00208309
-6.88504e-08
0.00411065
-2.0891e-08
0.0050232
8.02587e-05
0.0253677
1.51474e-06
0.00555305
3.67959e-07
-3.24311e-08
2.25477e-09
0.00563995
1.09073e-06
0.00157232
-3.56839e-08
2.4012e-08
0.000453537
0.0249297
-7.98191e-09
1.4363e-05
2.33072e-05
0.0139014
0.0220003
-1.94158e-08
7.98326e-08
-0.00194684
-5.64703e-09
-1.78216e-08
2.7205e-07
5.87749e-08
1.37651e-08
-4.37015e-09
-1.59974e-09
1.47526e-08
-2.30333e-08
2.08882e-06
2.47178e-06
-1.41825e-06
-0.0147215
0.00500898
4.744e-07
-8.1662e-09
1.56523e-08
2.94561e-05
3.03552e-08
-1.80737e-08
-7.39909e-08
-2.2068e-05
-1.18827e-07
-8.57765e-09
1.3627e-07
-0.000126198
-0.000706334
-2.9653e-08
3.70903e-05
-0.000198666
1.10727e-06
5.96202e-06
-4.82665e-05
1.01431e-07
-3.25909e-08
6.89648e-05
4.91434e-05
-2.69835e-09
-0.00239626
0.0130212
1.2453e-08
0.0420654
-2.57528e-07
-1.35344e-07
-0.00216501
-0.00540576
0.00364767
-9.65217e-07
7.39435e-09
0.00301246
2.25744e-06
0.00871611
-1.52381e-05
0.00420541
0.0062055
-1.04564e-07
-1.15634e-06
4.5849e-08
-4.35834e-05
3.10881e-06
0.00156585
-1.25878e-08
-1.51445e-08
-3.1012e-05
3.23064e-07
-0.00837866
8.21712e-08
-0.00034953
-0.0187275
-7.22644e-07
0.0249721
0.00375602
-9.19887e-08
-2.60204e-08
-3.63992e-08
-0.00266948
0.000905763
-1.33481e-07
5.20251e-08
-2.76039e-07
-8.48593e-09
-4.32992e-06
-1.02196e-07
1.98916e-08
-0.000151685
-3.9178e-08
8.16047e-09
1.98801e-07
0.00266801
-0.0190673
0.0132558
2.61158e-08
-3.78415e-06
5.64656e-06
-5.90917e-07
-1.58554e-05
-0.00383885
0.00502665
1.48988e-06
2.91473e-05
-1.97685e-08
6.41524e-07
-2.96962e-05
-7.48435e-07
0.00291886
4.77218e-08
-2.45233e-06
-1.11346e-07
-0.000125393
-0.00260823
1.89719e-08
1.28885e-07
5.01917e-08
5.13207e-08
-0.00893398
-3.61311e-08
-6.08477e-08
1.90505e-07
2.98301e-07
3.00326e-08
1.13116e-08
1.68216e-08
4.66011e-07
2.50935e-08
1.34967e-08
0.00495571
0.00196071
0.0288509
1.83082e-08
-2.70575e-08
-2.49559e-08
4.37766e-09
5.1392e-09
1.54217e-06
2.52265e-08
-5.00576e-09
-5.67177e-09
-1.61169e-08
7.02482e-07
-7.0184e-10
-0.0075342
-0.00377846
-3.75374e-07
-0.03052
8.72093e-09
0.000816494
-9.99394e-05
-0.000739511
1.3845e-07
0.00401332
-6.37731e-08
1.27507e-08
-6.95598e-09
-3.71737e-06
-1.63295e-07
-1.13925e-08
8.28424e-06
-1.60119e-06
-1.10536e-08
-0.000122146
0.00231936
-1.11697e-06
-2.91682e-08
-1.39384e-06
0.0052793
2.1396e-06
-0.0176382
-1.05834e-08
-7.12465e-07
-5.68937e-08
1.92153e-06
-5.8299e-06
0.00165264
-4.82174e-07
-2.75144e-08
0.0275587
-1.0134e-05
3.37892e-05
1.13764e-08
-3.12762e-07
-0.00252169
1.25578e-07
1.06789e-07
1.01031e-06
0.000588961
5.70038e-08
6.33626e-08
-4.2883e-08
6.96898e-07
3.64055e-08
0.0059091
1.58107e-08
-2.76979e-07
1.34694e-06
-0.000934835
-2.80234e-08
2.56082e-08
-2.41617e-08
4.87722e-07
-9.15644e-09
0.000283813
-0.000744407
2.30453e-07
-0.00136478
9.73411e-09
0.0397507
-4.96386e-08
-9.82143e-09
-4.79462e-05
7.95074e-06
6.18572e-06
-0.00122248
2.6025e-05
-5.5477e-05
3.75327e-06
-5.35533e-07
-5.03869e-07
0.000161534
-8.66213e-08
1.12092e-06
0.000796001
-3.81875e-08
-0.00101588
0.000738043
0.000733415
-0.000809034
-0.000782549
-0.00342695
-0.000472289
-1.63817e-07
9.70435e-07
-3.7539e-05
-4.72144e-08
-2.74449e-08
3.59213e-08
0.00342499
0.0219799
0.000220534
4.80535e-07
3.26449e-07
-0.000177084
-4.49786e-09
3.3785e-06
1.45367e-08
1.20485e-06
-1.04373e-08
1.93017e-10
-1.0583e-06
-1.77613e-06
0.0418544
-1.49474e-06
3.66543e-08
-3.02878e-08
-7.40148e-06
-0.00165302
-5.54104e-08
1.48407e-05
0.0218966
-4.56835e-09
2.03815e-07
-1.05712e-08
0.00744282
-1.62461e-06
0.00995401
-2.53459e-07
8.98567e-08
1.25557e-06
-4.99789e-05
-0.00539956
-5.17423e-05
0.000109275
2.59662e-08
-4.19541e-08
-9.43903e-09
7.17363e-08
-3.00378e-08
1.73154e-08
-0.0029885
0.00321196
1.29674e-05
1.64161e-07
-4.9839e-07
-3.31983e-06
4.43117e-08
-3.66958e-08
-1.75032e-06
0.00109273
-0.00211905
-1.07457e-07
-5.45461e-05
-1.62853e-08
-6.19457e-06
2.78883e-07
-3.42406e-07
-2.50704e-05
-0.0016807
0.000701319
-6.3103e-09
-2.10637e-08
2.81269e-09
-1.34798e-08
-1.46067e-09
-4.69468e-09
0.007993
2.21202e-08
-4.09642e-07
-8.40536e-08
1.43149e-06
-8.82209e-09
-0.00212365
0.00255441
0.000177863
5.22769e-08
1.06265e-05
-2.92507e-08
-0.000280417
0.0116191
1.17543e-06
-0.000176359
2.2424e-07
-9.95508e-07
9.19637e-08
9.08213e-07
-1.13218e-06
9.51647e-06
-5.90939e-06
0.00148356
-6.19148e-06
9.88601e-06
1.1059e-06
-1.16504e-07
6.31236e-08
0.00296966
4.60738e-07
0.0111912
-1.50808e-07
0.00960685
-0.016848
-0.00214057
8.57145e-08
2.21628e-05
2.47713e-07
9.71927e-09
-5.65247e-08
-2.0475e-08
-3.44992e-06
-2.00247e-08
-0.000890647
-2.57403e-05
-1.86102e-06
6.93444e-09
-3.66331e-07
-2.19606e-05
-0.00289353
0.00284793
4.90423e-07
1.86471e-05
0.0244106
-3.77914e-05
-6.98271e-08
6.98969e-06
0.00119094
-5.85562e-07
-0.0082703
4.4629e-07
1.14174e-06
4.55437e-05
-3.22247e-08
0.000461805
1.04736e-06
-6.64452e-08
0.000627687
-0.000218879
-0.0166155
2.08415e-06
-1.11637e-05
1.44362e-05
2.37438e-08
1.19024e-06
-1.73962e-08
6.1015e-05
1.75359e-06
-0.00518225
0.00841652
0.00507387
0.00205302
-1.52717e-05
-0.0191663
1.20617e-07
7.75775e-05
0.00239519
0.00720405
-7.69987e-08
4.70604e-07
-3.01413e-08
-4.61734e-07
-4.63291e-08
1.27568e-08
-0.0199535
3.94613e-08
-3.32922e-08
2.35669e-06
5.43023e-07
2.4278e-08
-2.39132e-05
0.000590047
4.23616e-07
-2.34267e-08
-5.42031e-08
-3.6245e-07
-5.68655e-07
3.01321e-08
4.36778e-09
1.42452e-08
-0.0124658
5.31384e-07
-7.52175e-05
-4.14471e-07
4.56983e-08
3.36049e-09
-3.03515e-05
2.40814e-07
-0.000163527
5.17306e-06
-2.46827e-08
1.32201e-06
-1.15299e-09
-5.26534e-08
0.0011651
-0.0295149
1.26261e-05
-2.10807e-07
-9.86272e-08
1.611e-06
0.00407298
0.0014713
0.00368045
3.78578e-07
-1.03439e-07
-9.45102e-09
4.80292e-07
1.56017e-05
0.00398998
-2.32469e-08
-0.000771815
5.14474e-09
-3.08405e-08
-3.02861e-06
-1.77697e-08
-0.00745499
-2.20908e-06
8.0096e-05
-2.17973e-08
2.61595e-07
-9.72936e-07
0.0118202
-1.27629e-07
-5.33815e-08
-2.1139e-05
-0.00169843
-0.00506146
0.00121586
0.00362918
-1.35161e-07
2.84902e-05
3.78227e-07
-3.72553e-05
0.00460499
-3.65779e-06
-2.64698e-08
3.14631e-08
-4.36008e-08
-0.000652034
0.00491859
6.14946e-07
0.0123768
-5.50393e-08
-2.65282e-08
1.98952e-08
-5.9737e-06
5.50778e-05
0.0145551
1.73536e-08
-1.61948e-07
2.89407e-06
4.8566e-05
-3.05082e-08
0.0020606
-2.9641e-07
5.58688e-06
-0.00768337
-1.53363e-08
0.0283658
0.00120766
0.000490752
0.0129663
7.17476e-07
5.24837e-07
2.87929e-06
0.00501014
-2.14981e-05
-2.84363e-08
-0.0085784
0.000184024
-1.15288e-09
-2.78641e-08
-0.0192868
1.40595e-08
-0.00445482
0.00288514
4.04082e-07
-2.37621e-08
2.3852e-07
2.30756e-06
-0.000358382
-1.31968e-08
-8.37047e-07
-4.04281e-07
0.000771649
0.00471218
-9.27864e-09
-5.95483e-08
-7.30057e-06
6.66976e-07
-1.7341e-08
5.42128e-08
-1.13154e-08
-2.58845e-06
3.7617e-07
0.0018874
2.25835e-08
2.09895e-08
-3.77413e-07
-6.1592e-08
5.02621e-06
1.63022e-06
0.00292959
0.00206657
-0.00296334
1.20965e-07
-2.93209e-08
-0.00392991
-1.925e-07
-4.27504e-06
-0.021716
-7.2263e-06
0.00288165
0.00431654
-1.13862e-08
0.000881455
-1.41596e-05
3.43946e-08
-1.2618e-09
1.43131e-08
1.46307e-08
-0.00306016
-0.000931133
-3.50885e-08
-0.00120091
0.00351261
0.00489358
-2.97933e-08
-1.55924e-08
3.85754e-05
-9.8765e-09
-2.6742e-08
2.49358e-08
-1.2758e-08
-6.48142e-05
1.17839e-10
0.00507978
0.00286799
8.3886e-08
-0.0157315
-2.83909e-06
-0.000722153
-0.00101101
7.96196e-09
4.60865e-07
3.54156e-06
0.0213595
0.000730498
0.000209698
-3.05002e-07
1.66751e-08
-2.60973e-06
1.63986e-08
-0.000457003
0.00421492
-7.38573e-09
-0.000698725
-2.29351e-08
0.00702594
-1.50435e-06
-0.000717083
2.65096e-07
-0.012902
0.000106767
0.00954713
-0.0083957
-3.80139e-08
-9.91686e-06
0.00462486
-1.94873e-07
0.00049562
4.92794e-08
-1.51765e-08
5.77848e-08
1.26671e-06
2.54076e-07
3.60861e-08
7.75826e-09
7.63379e-08
-4.24584e-08
1.37481e-06
0.00124972
-6.03387e-07
-1.3204e-06
-4.91152e-07
1.78514e-06
-6.33884e-08
-1.62608e-05
-8.3962e-05
-0.01152
0.00323776
-1.01995e-06
-1.59873e-07
-8.58946e-08
-4.94623e-05
1.06424e-07
1.2561e-08
-0.00624793
0.00675936
0.00447819
4.44046e-06
-4.46424e-08
-1.16983e-06
-0.0247022
1.48499e-06
1.39872e-08
1.13843e-06
-2.08332e-07
4.54039e-07
-5.29321e-08
0.000275191
7.26201e-08
0.00980562
-1.39599e-08
0.000323893
0.00435417
-0.0207892
2.45991e-08
9.63505e-06
-2.41293e-08
-3.44814e-08
-1.07475e-06
0.0055221
-2.15341e-08
2.05652e-07
0.00971479
-1.50998e-08
-3.48826e-07
0.00119677
-6.24828e-07
-0.000179056
-2.38283e-08
-0.00731795
-9.86532e-08
-6.59257e-06
-3.02096e-08
-1.25102e-08
0.0280689
5.64741e-09
-0.000969809
3.79182e-07
2.20593e-06
0.0154929
5.75079e-08
1.69755e-08
3.43959e-07
3.18628e-08
-0.022582
0.00120546
-2.20726e-08
-0.000113827
-2.73215e-05
-0.00113625
6.45543e-08
-2.54949e-05
0.000966036
6.63201e-07
-5.75193e-07
2.639e-08
-0.00254232
-1.351e-08
0.00667024
-2.91029e-08
2.2984e-07
2.33454e-07
-3.60116e-08
1.08975e-08
1.38654e-05
9.76829e-08
-4.89891e-09
-6.09476e-05
-4.02732e-08
5.13172e-06
1.5462e-07
-0.000697158
1.66593e-05
1.92181e-07
1.39154e-06
-4.03778e-09
4.5416e-09
2.4088e-07
0.00116908
0.000597544
0.000531355
0.015828
1.46277e-08
-7.65499e-08
-1.02636e-07
-1.33299e-08
6.16789e-09
-0.000270235
-8.28958e-09
1.5861e-06
2.2566e-05
-2.07501e-07
1.46847e-05
-8.88165e-09
1.67899e-08
0.00367636
-0.00791383
-2.52559e-08
9.81555e-07
1.35089e-08
-0.00348658
2.47096e-08
1.30368e-08
0.00446557
1.08965e-07
0.000500723
-5.90441e-06
3.02539e-07
1.94029e-07
0.0186971
-1.48606e-07
-2.34035e-07
-0.0068536
-0.0214768
1.38392e-07
6.66112e-06
3.8672e-06
0.0221932
2.63331e-07
0.00772616
-0.00889031
-0.0238429
0.00331103
-5.91682e-07
5.10343e-08
-2.15767e-08
0.000945607
0.0012314
2.50926e-06
0.00636381
3.19726e-08
0.00498639
-9.92711e-07
-0.00250106
3.94976e-08
1.0843e-06
-3.08019e-06
-2.78761e-11
4.13926e-07
-3.8681e-05
3.37088e-07
1.77383e-07
9.0507e-09
6.08967e-06
2.97735e-07
-2.4055e-08
0.000740689
-8.84984e-08
-7.13557e-08
-5.65819e-08
-0.0231154
8.04308e-06
0.00218159
1.02985e-06
1.12102e-07
0.00665075
4.99641e-07
-8.53521e-07
-3.35527e-08
-3.1884e-08