/*--------------------------------*- C++ -*----------------------------------*\
| =========                 |                                                 |
| \\      /  F ield         | OpenFOAM: The Open Source CFD Toolbox           |
|  \\    /   O peration     | Version:  v2012                                 |
|   \\  /    A nd           | Website:  www.openfoam.com                      |
|    \\/     M anipulation  |                                                 |
\*---------------------------------------------------------------------------*/
FoamFile
{
    version     2.0;
    format      ascii;
    class       volScalarField;
    location    "250";
    object      omega;
}
// * * * * * * * * * * * * * * * * * * * * * * * * * * * * * * * * * * * * * //

dimensions      [0 0 -1 0 0 0 0];


internalField   nonuniform List<scalar> 
18758
(
0.0259587
0.30374
0.0216285
0.0258024
0.0255655
0.0205186
0.0212811
0.0226269
0.0251193
0.0248392
0.19986
0.469883
0.194069
0.0225457
0.0212611
0.0211444
0.483409
0.0195366
0.0212508
0.0234909
0.542515
1.51209
0.0206653
0.020557
2.55003
0.257226
0.765348
0.104652
0.073971
0.342847
0.313471
0.904089
0.0225124
3.91871
0.0258242
0.342113
0.159465
0.0254764
0.173085
0.0198815
0.300036
0.0257255
0.292877
0.0214541
0.0213548
0.443053
0.0249919
0.0746713
2.07884
0.025092
0.202026
3.08498
0.0251199
0.0238481
0.119263
0.117346
0.020539
0.0233278
0.0690568
0.0205057
0.0215173
0.0213917
1.24551
1.55778
0.0216713
4.31292
0.0214062
0.0198548
0.103476
0.0195546
3.05027
0.817177
0.0212158
0.0253494
0.0692825
0.36609
1.48003
0.494124
0.0253403
0.320217
0.0801678
0.159753
0.474811
0.0392059
0.022154
0.114087
0.0247249
0.0258294
1.26239
0.112859
2.77965
0.0223234
0.0634319
2.09746
0.0212043
0.020748
0.0196742
0.0521047
0.524417
0.0210956
0.30771
0.0269945
0.0198477
0.0207425
4.27914
0.568917
0.0753713
2.87145
1.57854
0.103835
0.0211686
1.78797
0.0258376
0.0213807
0.0270656
0.203961
0.0506527
0.0203517
0.247984
0.0229152
0.0212171
1.47751
0.0223428
0.0204747
2.92526
0.0238946
0.021146
0.0204776
0.12379
3.25546
0.0705271
0.0222095
0.0268548
3.65133
0.0199156
0.0213267
1.24389
0.0221985
0.131383
0.0788982
0.0271974
0.247854
0.0423388
1.53975
2.99875
0.0471797
4.23809
0.109809
0.235084
0.303384
3.45017
2.63983
0.0215815
0.0257937
0.314591
1.6688
0.0619482
0.129331
0.0404487
0.280569
2.48808
0.0205773
2.16547
4.19878
1.0235
0.0206005
0.0205648
2.5763
3.28816
0.451191
2.23958
0.0217841
0.0808644
0.243134
1.53539
0.0210579
0.0212025
0.161839
3.62454
0.0219811
0.0197819
0.0238421
0.116091
0.0224321
0.402029
0.021358
0.339296
0.0304671
2.16405
1.34534
2.55275
0.0213496
0.0669463
1.50253
0.0196927
0.0223581
0.150165
0.0215679
2.20968
0.0207277
0.0217955
0.140463
1.36401
0.0211413
0.0211706
2.20138
0.0209415
0.0262511
3.43678
3.02229
0.0212419
0.0621535
0.0220678
0.0221476
0.0229053
0.0196921
0.0212974
0.0617276
0.0201974
0.259241
1.55482
0.0208582
0.0413686
0.143667
1.48977
0.270333
0.0725865
0.102419
2.53524
0.020916
0.178521
0.0459147
1.62389
0.0215575
0.0209912
0.0209382
0.0838218
2.10409
0.169449
0.0218624
0.021183
0.0745426
0.113875
0.0214409
0.306423
0.195009
0.0210046
0.0206247
0.0212618
0.0210954
2.18734
0.0213369
0.254791
0.021042
0.0210503
0.197893
0.0205556
1.34805
0.0211833
0.89992
0.025732
0.0204954
0.0210129
0.0630169
1.75588
1.73583
0.0205075
0.125641
0.0215924
0.0213894
0.251718
3.47447
0.0213653
0.0208495
0.0199784
0.0227573
0.0256808
0.0200352
0.0223521
0.0225368
0.0206286
0.0223352
0.0212126
4.10502
0.0212717
0.0208319
0.0195216
0.110297
0.020728
0.0207313
0.0216424
0.0220595
0.0205199
0.020885
0.021302
0.0220181
0.279947
0.0228579
0.020772
3.04988
0.0238097
0.0208615
0.020868
0.305348
0.0205604
0.0197763
0.0316632
0.568532
0.0215098
0.126903
0.0212182
1.68532
0.142592
0.0826329
0.0732411
3.93045
0.0198241
0.640155
0.160189
0.0214229
0.0791634
0.0388743
0.321242
0.0209662
0.019831
3.13573
0.276511
0.0207267
2.71843
0.0608084
0.0290552
3.49515
0.0209595
0.0206198
0.02116
0.0212874
0.0219791
0.0229302
0.0226637
0.0209913
0.0219227
0.0218503
2.26418
0.245504
0.0219819
0.487953
0.524996
0.0207146
0.0313465
0.0511621
2.07781
0.245598
0.149439
0.0213601
2.46044
0.785597
0.0322736
0.0218439
0.0300995
0.0222249
0.0213785
0.160943
1.49102
0.265192
0.0923059
1.43243
0.0209991
0.0253275
0.0241255
0.0519217
2.07715
0.193424
1.20497
0.124428
0.275753
0.155949
0.0211923
4.34896
0.114605
0.0813539
0.302855
0.0210106
0.0205274
1.41405
0.283089
0.369377
0.26812
2.81893
0.0218843
0.479959
0.101694
0.0211535
0.0224232
0.0228406
0.0229393
0.0212269
0.0223005
0.0214186
0.0227865
0.0214002
0.0212461
0.0291391
0.361785
0.0277351
0.358443
0.428676
3.24171
0.477043
0.111523
0.0217671
0.0205994
0.301453
0.0224172
0.0218874
1.33033
0.0506762
0.0715914
0.020579
2.26359
0.0212338
0.0239362
0.0197402
2.44702
1.82277
0.268246
0.0212826
3.3839
0.0598626
0.021238
0.0227585
0.021284
0.988988
0.0213142
0.0208616
0.939052
0.02785
0.0219028
0.0211915
0.0225136
0.0238534
1.9691
0.0693664
0.0217368
4.35046
0.0197331
0.0238251
0.0981594
0.0214104
0.366301
0.0217465
0.024019
0.0215822
0.179226
0.0217712
0.0214121
2.24804
0.0295043
0.019535
0.0252915
0.0229979
0.0211483
0.0210285
0.0220953
1.74196
2.17683
0.0216537
0.0340956
1.39674
0.195227
0.391969
0.192061
0.389409
0.0202861
0.102826
0.0665027
0.0278276
0.0224678
0.273788
0.0130504
0.0268238
0.0206264
0.0212786
0.0207245
0.021406
0.0207183
0.0213896
0.567079
0.0218214
0.0197022
0.0580869
0.0221921
0.0216306
0.0198777
0.0228095
0.0127668
0.537805
0.0209631
0.158403
0.0208431
0.0278974
0.124819
2.14955
0.145528
0.021151
0.0213693
2.13932
3.52175
0.0242898
0.020554
0.0801195
4.14946
0.0195203
0.0206468
2.18243
0.022942
0.0824985
0.0205262
0.0231163
0.0339742
0.0206312
0.021015
0.0222473
0.0209908
0.0208906
0.0215621
0.431924
0.0197907
0.0457369
1.44524
0.0195322
0.0197907
0.0220415
0.0254194
0.0268727
0.0724482
0.0211061
1.4336
0.0278407
0.0276582
0.020757
0.0210151
0.0215662
0.0216726
0.0216599
2.90693
0.493029
0.0206238
0.0208697
0.0220024
2.66005
0.0197489
0.0197105
0.021388
0.0197106
0.0207993
0.0207282
0.0224477
0.0211423
0.0716524
0.0211028
0.0200069
0.0968126
2.23453
0.0253106
0.0211821
0.0210836
0.0217814
0.0211876
0.0225803
0.0495643
0.0649487
0.0220169
0.798222
0.0210726
0.0323685
0.0212342
0.0207627
0.0467984
0.0195614
0.0210323
0.704723
0.0215783
0.0224234
0.0732846
0.0210206
0.0213107
2.31241
0.0203364
0.719714
0.022793
0.0209885
0.0216043
0.0368626
0.0228342
0.0269606
0.0210416
0.83184
0.741942
0.389476
0.0206488
3.12616
0.0196724
0.0212556
0.0211189
0.0236814
1.21812
0.112614
0.0213533
0.0223584
0.0227096
2.09418
0.0749009
0.0210557
0.0342884
0.023977
2.1665
0.0266429
0.0301949
0.0207477
0.0235858
0.0511833
0.02095
0.0207505
0.0197551
0.0206804
0.0255304
0.0602616
0.252293
0.705383
0.0233365
0.023354
0.0211226
0.0205874
0.0264774
2.2304
0.019918
0.0421143
2.73916
2.92586
0.0214772
0.0212712
0.0408432
0.357627
0.0196642
0.0825314
0.0211907
0.0226386
0.0287412
0.0213731
0.0216692
0.0217133
0.0206692
0.0223407
0.0642706
0.0459762
0.349483
0.022097
0.0208178
0.229367
0.0197315
0.247005
0.40858
0.0212018
1.26741
0.0234815
0.0213047
1.26255
0.254718
0.258486
1.74193
0.0226865
0.881371
0.0197998
4.3614
3.23772
0.0309838
0.0211646
0.417376
0.0237289
0.0490735
0.114273
0.378989
0.021546
0.519216
0.0208301
0.0438166
0.0787547
0.0207422
0.0290318
1.52117
0.687824
0.0249627
0.0225527
0.0197012
0.0218495
0.0218613
0.0302443
0.0819688
0.0208623
0.212881
0.0231629
0.0213738
0.0255286
0.0197369
0.149077
0.021201
0.0206849
0.319901
0.0206105
0.0224192
0.30821
0.061667
0.0642291
0.0213899
0.0213646
0.0503207
0.0213542
0.364216
0.02365
0.023088
0.0221866
0.021344
0.0196844
2.55186
0.0197385
2.07528
0.155495
0.022025
3.01701
0.0205531
0.0272767
0.0246817
1.79876
0.0235193
0.0750372
0.349148
0.0212925
0.335714
0.0202167
0.108796
0.0213739
0.0217438
3.51339
0.289218
0.0211812
0.0215389
0.0225513
0.0205404
0.0213836
0.236566
2.15834
0.0207714
0.0205295
0.0202328
1.93509
0.110148
0.0581893
0.0206578
0.0341262
0.0217371
0.0213831
0.0281395
0.50698
0.0210573
0.0426423
0.0834923
0.0204423
0.0217974
0.0213875
0.0265813
0.0210337
0.0203828
0.0254185
0.0213997
0.0521049
0.0213871
3.82782
0.0214283
0.023792
0.0715731
0.52963
0.0432174
0.0207322
0.0213307
0.343554
0.0329941
0.0459266
0.0208271
0.0210843
0.0253377
2.07311
0.324269
0.0207237
0.0211697
0.0219321
0.0215102
0.0220751
0.0211713
0.0211209
0.395178
0.0211976
0.021318
0.340656
0.020637
0.204493
0.0848179
2.20734
0.335123
0.299617
2.15413
0.0211797
0.0210962
0.0228541
0.0207569
0.0210647
0.0205239
0.0207035
0.0218118
1.01612
0.12595
0.0804721
0.0217765
0.0210572
0.0284307
0.0287174
0.0563119
0.0214918
0.0222185
0.0203624
2.13805
1.62868
0.421702
0.0215628
0.0798415
0.113001
0.0227772
2.05343
0.968995
0.0222792
0.0196774
0.0200794
3.64527
0.0215203
0.0198723
0.0699151
0.999579
0.0211614
0.257476
0.0583509
0.0212258
0.0211331
0.0212439
0.0211813
0.0212684
0.022728
0.0287716
0.0212527
0.0215335
0.792101
2.14169
0.0212412
0.305658
0.106775
0.0220665
0.0215109
0.0208116
0.0203044
0.0226821
0.0220487
0.0211348
0.0216678
0.0225432
0.0215236
3.49643
0.0258685
0.0209467
0.0211928
0.122731
0.0215595
0.0198607
1.83346
0.0210789
0.0324032
0.0253592
0.0213285
0.0208006
0.0205139
0.0237416
0.0382857
0.0211335
0.306722
0.0590762
0.10123
0.996338
0.021879
0.0825159
0.0197994
0.0841849
0.0220706
0.0211045
0.131272
0.20625
0.0216704
0.309653
0.356049
0.0204214
0.028157
0.0198611
0.0218812
0.0258984
0.0222512
0.0210671
0.0281428
0.0210329
0.0208367
0.481055
0.02081
0.0210608
0.0207991
3.54206
0.0212208
0.0212723
0.0284814
1.67854
0.426161
0.185661
0.483259
0.0210304
0.019727
0.0213371
0.362842
0.0218112
0.0209154
0.0230021
0.0203178
0.101748
0.0215551
0.0215092
1.6019
0.0211416
0.0597715
0.320078
0.0197203
0.0212446
1.51813
0.0227092
3.37847
0.161336
0.0205826
0.021405
0.641289
0.020679
0.0230539
0.356406
0.0200879
0.566058
0.0212292
0.0211502
0.0212591
0.0288512
0.0223418
0.587836
0.0225473
0.0209785
0.369977
0.351966
0.0389001
0.0256197
0.0341527
2.08125
1.66958
0.0196216
2.11306
0.0215044
2.38308
0.79149
0.0207965
0.0232267
0.0215706
0.376656
0.0207665
1.84698
0.020807
1.65626
0.118688
0.0206043
0.0196879
0.0211881
0.56237
0.101302
0.0211891
0.706648
0.0214276
0.0210641
0.569617
0.021283
0.270845
0.0208118
0.0231447
0.0209496
0.0208143
0.0209877
0.0207689
0.0768206
0.0262707
0.0289037
0.0311552
0.0217442
0.021226
0.398798
0.0212584
0.592682
0.0214801
0.478029
0.0254914
0.326624
0.0205237
0.0206815
0.0210372
3.08009
0.0210945
0.353845
0.0517234
0.0213968
0.0252097
0.0212531
0.0206251
0.0230018
0.0208284
0.432915
0.0211985
0.0223652
0.0211975
0.0226269
1.78434
0.750895
0.0213579
0.0208135
0.0214412
0.0216638
0.0211138
0.0218636
0.0218063
0.0211789
0.0203006
0.0204733
0.19556
0.0815331
0.0213913
0.0203088
0.331431
0.0221009
0.460344
1.57973
0.0217631
2.27289
0.0222815
0.0205427
0.0211367
0.0228709
0.0202631
0.020387
0.0316965
0.407639
0.0285893
0.290627
4.44155
3.03186
0.0276864
0.02151
0.0214214
0.328127
0.0203018
0.0214247
0.0288006
0.0292132
0.0210289
0.0206318
2.58045
0.0233979
0.0226836
0.0216442
0.0231793
0.029719
0.0214121
0.0236856
0.0212076
0.0285432
0.0227316
0.0216778
0.0216376
0.546103
0.0217095
0.0212359
0.373435
0.0196868
0.0209669
0.0213546
0.022086
0.0217154
0.869931
0.106864
0.382497
0.332986
1.96229
0.277962
0.0222754
0.678051
0.342637
0.0213511
0.0219858
0.0215765
0.0214223
0.0221518
0.0220134
0.084479
0.103747
0.0214194
0.0202037
0.0361056
0.0226503
0.289809
0.0209497
0.0218558
0.0210708
0.180175
0.42587
0.0284508
3.79756
0.0211117
0.0210815
0.0738207
0.0258225
0.0210655
0.0985773
0.021743
0.0232256
0.375018
0.081759
0.0282205
0.021538
0.0215932
0.0217623
0.0206418
0.374131
0.0730047
2.94177
0.0444875
0.298888
0.0217112
2.10993
2.76868
4.42782
0.101875
0.660956
0.025001
0.0660504
0.102546
0.0297042
0.0195396
0.0211648
0.0213801
0.0350142
0.020811
0.0212805
0.0248501
2.18702
0.42053
0.278174
0.0763239
0.562443
0.0260982
0.02312
0.0212461
2.42427
0.178207
0.0206626
0.0289212
0.408821
2.34975
2.8023
0.0330224
0.0504017
0.0197311
3.31367
0.0217064
0.393598
0.0652682
0.0275863
0.117242
0.105853
0.0213951
0.0212258
0.562454
0.0657604
0.186292
0.0217035
0.0213435
0.0231758
0.415957
0.0240936
0.270777
0.0217441
0.32866
0.0444459
0.0241048
0.0919725
0.0718904
3.04153
0.0197316
0.0312644
2.67226
0.0270314
0.0211594
0.161688
0.558411
0.0211351
0.0212495
0.247397
0.0223032
0.0224246
1.33054
0.0711047
0.0215685
0.028017
0.15704
0.0292727
0.0227352
0.0226553
0.220101
0.0240673
0.0207341
0.0209859
0.0695005
0.0207705
0.309065
0.0204406
0.0206665
0.322613
0.0216239
0.0211152
0.0125108
0.0196852
0.0230932
0.0204816
0.0210776
0.0214897
0.0782596
0.0213114
0.285756
0.130572
0.586437
3.71027
0.0235948
0.0205681
0.0207738
2.6117
0.0253208
0.0211961
0.290119
0.0308705
0.552208
0.0201265
0.020433
0.0205703
0.0208032
0.0212073
0.0198934
0.0219356
0.0222037
0.0212959
0.0608579
0.0233078
0.275409
0.022365
0.0204843
0.0212951
4.38831
2.90833
0.531102
3.80571
0.314799
0.103235
2.81454
0.0226748
0.0325497
0.043376
2.47899
0.0209732
0.231092
0.11476
0.157662
0.0211818
0.489175
0.0210543
0.0212396
0.0211006
0.0290181
1.91687
0.240051
0.0215391
0.0195753
0.0204382
0.0200774
0.0274313
0.0213401
2.74486
0.0623482
0.030359
0.0217769
0.0211437
0.0198574
2.52271
0.436205
0.0211628
0.0209827
0.118998
0.0200506
0.0213389
0.0203124
0.0211822
0.0214744
0.0212349
0.0205018
0.0467805
0.0229104
0.170396
0.0238935
0.0216131
0.12085
0.0215456
3.53162
0.0216212
0.0474865
0.164264
0.275978
0.0315161
0.0875833
3.01723
0.0233289
0.0293713
0.0222337
0.0211693
0.0204845
0.0209371
0.0732632
0.035673
0.023667
0.0705624
0.0204627
0.0213803
0.0352307
0.173947
0.0196464
0.0413848
0.152927
0.102308
0.394208
0.0218707
0.0214909
2.90314
0.0265882
0.0208542
0.0211275
0.112429
0.0205528
0.020642
0.422626
0.057529
0.0222753
0.021934
0.0216712
2.98851
0.0235712
3.2011
1.90127
0.0212242
0.0210101
0.555456
0.0313351
0.0211068
0.0221847
0.021608
0.0209477
0.020824
0.0233087
0.157868
0.0387956
3.46886
0.335684
0.0338757
0.308697
0.654628
0.0206714
0.496952
1.90429
0.0226998
4.47957
0.0214695
0.189388
0.0783887
0.414251
0.0199132
0.069034
0.0276402
0.297236
0.0210548
0.0198712
3.92908
0.0228238
0.021142
0.0211793
0.0216358
0.0198418
0.0218621
0.0209842
0.0211703
3.84742
1.51016
0.0210889
0.0217522
0.0703959
0.338461
0.0197129
0.185683
0.089888
0.044449
0.0213709
0.0209755
2.57173
0.0216582
0.0537677
0.0838796
0.0206471
0.0202835
3.69393
0.0209363
0.423384
1.3306
2.76332
0.0218145
0.0209235
0.0212909
0.0211644
0.0211932
0.283859
1.12351
0.0203266
0.0319192
2.78319
0.0219766
0.0215172
0.0211981
0.442008
2.84119
0.0266172
0.0324655
0.0228838
3.70227
0.304373
0.0205104
0.0210669
0.0256888
0.0343574
0.291026
0.297442
0.0206846
0.0795119
0.300475
0.0203488
0.0208671
0.0215353
0.0230873
0.0210155
0.0219152
0.020629
0.0203001
0.243889
0.0213377
0.0215054
0.0314574
0.0206592
0.0210774
0.0219437
0.340155
0.0206022
0.0230773
2.11606
0.15731
0.0720081
0.0775641
0.0219669
0.0217461
0.022087
0.0204075
0.0210741
0.0218861
0.182162
0.0261403
0.0221022
0.0218269
0.0203489
0.180017
0.222997
0.0212058
0.341358
0.0207551
0.0224898
0.171859
1.58887
0.0236192
0.0232507
0.0234266
0.0282581
0.0197162
0.89696
4.26121
0.0206294
0.0759081
0.480061
0.0213407
0.0222568
0.338616
0.0699252
0.021546
0.409865
0.0240669
0.021179
0.858605
0.5146
0.0476544
0.0207229
1.2868
0.0301079
0.0198305
0.0484735
0.0285187
0.0216865
0.0307965
0.353589
0.410336
0.0393517
0.0426914
0.0206169
3.79077
0.27014
0.178561
0.227248
0.0213434
0.835097
0.0213454
0.0210214
0.0444044
0.0219357
0.0446891
0.324981
0.0215758
3.85571
1.14241
2.2589
0.0273395
0.065744
0.0196388
0.0219183
0.0230553
0.0196051
0.402858
0.953187
3.88002
0.0567295
0.10871
0.417931
1.46209
0.0211893
0.0221648
1.88033
0.0588534
0.0213481
0.0211324
0.471668
0.0345476
0.0258544
0.0212354
0.0214666
0.069952
0.0211379
0.0879674
0.291927
0.0198335
2.88872
0.0202477
2.13203
0.217271
2.8144
0.0222819
0.458898
0.0214354
0.0210689
0.0221178
2.62013
0.0349517
0.36326
0.0215582
0.02113
0.226688
3.80817
0.0215686
0.115785
0.226518
4.31452
1.53992
0.0208592
0.0213658
0.410724
0.0196091
0.0203475
0.023778
0.0212144
0.0214382
0.0208292
0.0211222
0.0237977
0.0211657
0.0281632
0.0273765
0.0209742
1.82934
2.47224
0.0242201
0.0202082
0.0212845
0.0306466
0.0213476
0.021239
0.021338
0.0971704
0.0211297
0.0226464
0.0227741
0.0409223
0.424963
0.0209107
0.0574938
0.0516805
0.0256067
0.0638051
0.043771
0.020731
0.0211899
0.0179938
0.0206797
0.0230603
0.769453
2.62415
0.0212891
2.17003
0.0219449
0.067367
0.763223
0.782891
2.0953
0.0227141
0.0210741
1.03106
0.0227639
0.552759
0.0239135
0.36904
2.08402
0.0206571
0.0398022
0.0210663
0.0318027
0.0858462
2.28854
0.0209975
0.0213395
0.0862543
0.02166
0.808027
0.0206234
0.426757
1.11018
0.0435485
2.97162
2.59367
0.0207658
0.0208962
0.0213356
0.253527
0.334104
0.0217318
0.0225992
0.0217548
0.0202226
0.0190673
0.0207898
0.0203943
0.0515723
0.0217025
0.0203633
0.0235883
0.981021
0.99985
2.77088
0.0215199
0.0531477
0.0212561
0.0249092
0.112495
0.690167
2.61203
0.020438
0.0377676
0.0197121
0.0345823
0.0281328
0.0542144
0.261156
0.0217726
0.0834132
0.0202687
0.335173
0.257958
0.0203943
0.0222957
0.0220834
0.0220859
3.18025
0.021318
0.0213496
0.0219396
0.0216686
0.0204738
0.0223244
0.0212941
0.0216906
0.0213441
0.0210236
0.428098
0.529709
3.40303
0.020061
0.0197146
0.0197716
0.0201262
0.019815
0.0321507
0.0198306
0.0206131
0.0212454
0.0208515
0.0285879
0.0212566
0.706034
2.27023
0.0392289
1.93373
0.0215165
0.1386
0.0658362
0.152736
0.020547
0.857468
0.0220211
0.0213408
0.0213559
0.0565879
0.0979499
0.0209117
0.0291396
0.0269888
0.021168
0.0476799
0.448447
0.0285918
0.0208943
0.0229291
0.852305
0.0201062
0.753448
0.0209191
0.0220101
0.0213413
0.0223224
0.0283854
0.345003
0.0298961
0.0203615
2.27416
0.0372888
0.0301174
0.0210599
0.0238236
4.22333
0.020667
0.0217346
0.0268841
0.22366
0.0198139
0.0210205
0.0204513
0.0296738
0.0214695
0.577944
0.0213589
0.0249411
0.0277182
3.80281
0.0206329
0.0204164
0.0197187
0.0301018
0.0202167
0.695331
0.444743
0.0287829
0.425806
0.0212733
2.2982
0.0213856
0.020587
0.0389381
0.0550363
0.162905
0.298483
0.26025
0.156688
0.0264011
0.0341023
0.02213
0.0364673
0.0213478
0.0220368
0.16036
0.0216501
0.412753
0.249649
0.249886
0.316859
0.297714
0.787956
0.568561
0.0789179
0.0220106
0.0253209
0.0213459
0.0203747
0.0210329
3.30485
2.9277
0.427454
0.0244165
0.0233768
0.409402
0.0209304
0.0293249
0.0204236
0.0360176
0.0212044
0.0198608
0.0222402
0.0403561
2.14102
0.0281808
0.027504
0.0204248
0.0276047
0.238455
0.0202664
0.0576277
3.3016
0.0196168
0.0572072
0.0205633
2.71401
0.0220225
3.82752
0.0218
0.0214876
0.0250144
0.0259618
1.77702
0.0300327
0.334025
0.0225443
0.0213379
0.021353
0.021364
0.020351
0.0213016
1.77244
3.12578
0.0276676
0.0210779
0.0248144
0.0229944
0.0215613
0.0215159
0.087947
0.439386
0.348258
0.0212083
0.40749
0.0205584
0.0633821
0.0224739
0.0398085
0.220625
0.421556
0.355238
0.0198961
0.0213071
0.0209444
0.0211539
0.0213428
0.0211323
2.66149
0.0214637
0.0216511
0.0217794
0.0328511
0.0211327
3.06163
3.1905
0.295901
0.0213629
0.273059
0.020339
0.42994
0.816709
0.0225437
0.299118
0.0236191
0.0649943
0.0207041
0.0216528
0.0276394
0.0448803
0.106417
0.176427
0.154045
0.128922
0.0324602
0.0220544
0.0211952
0.253502
0.0231025
0.831647
0.0219753
3.79861
1.13525
0.331123
0.022208
0.0931383
0.0233231
0.02118
0.0201478
0.0226023
0.0680036
0.021241
0.461077
0.0343655
0.109069
0.0210258
0.0247013
0.246862
0.413535
0.401395
0.0243687
0.0198279
2.78621
0.076622
0.0216903
0.0413444
0.3333
0.0656819
0.775045
0.024879
0.0258142
0.200246
0.0198695
0.256819
0.0489656
0.0213311
0.0348643
0.270128
1.81372
0.0227226
0.122109
0.0270499
0.0204172
0.0530764
0.0217951
0.211832
0.0204526
2.11325
2.20328
0.759277
0.304356
0.105079
1.12457
0.0238416
0.0208145
0.332287
3.3311
0.0223885
0.0218538
0.0210205
0.0249975
0.0199053
0.021051
1.0689
0.0210435
0.0206053
0.028104
0.0218908
0.0198311
0.0427673
1.0381
0.059097
0.0212545
0.0213488
0.0280092
0.0222169
0.0210435
0.0209469
0.020408
0.688603
0.0249313
0.0547509
0.0253057
0.0212108
0.0198585
0.215222
0.14797
0.0804395
0.0215602
0.0216352
0.0349913
0.0209399
0.0268577
0.228358
1.80367
0.0272721
0.0231266
0.0202814
0.0267307
0.47581
0.274867
0.382887
0.0245929
0.0203365
0.0205964
0.0241123
0.073839
2.45241
0.0204541
0.399003
0.0198667
0.0210491
0.0885428
0.0208601
0.828054
0.0907319
0.372889
0.0198212
0.0317013
0.0405367
3.06271
0.020322
0.0214358
0.168529
0.562053
1.40289
0.100565
2.34463
0.0221751
0.201646
0.0247365
0.0263127
3.24478
0.0194748
0.0209352
0.0215417
0.0200833
0.154893
3.86964
0.0239936
4.38234
0.0201371
0.0209461
0.0214911
0.127193
0.019903
4.2778
0.0213893
0.021816
0.031935
0.387487
0.0203288
0.434712
0.0206974
0.0202944
2.14475
0.0208637
1.52065
0.848893
0.51278
4.20221
0.0213165
0.0233311
0.022078
2.35445
0.0275614
0.0213744
3.38465
0.0224095
0.0195921
0.0224649
1.08095
0.0204376
3.03811
2.28796
0.0243952
0.0197264
0.023502
0.0244492
3.85895
0.0205723
0.0307744
0.0221154
0.46664
2.81706
0.0212283
0.0201833
0.157346
0.0247455
0.0214816
0.0210326
0.0208905
0.0531182
0.0228131
0.200201
0.021768
0.0216362
0.0208388
0.0223938
0.021207
0.0225306
0.847319
0.343958
0.389195
0.0217605
0.0203177
0.215462
0.0253392
0.0662594
1.04379
0.107476
0.328777
2.38873
0.0203097
0.0579413
0.0520898
0.0221899
0.0208307
0.0213932
0.0213767
1.78275
0.25461
0.02135
4.44975
0.599663
2.56946
0.0197668
0.0205861
0.401451
0.0208942
0.0214529
0.0240266
0.0210257
0.209123
0.0225967
3.20264
0.37858
0.0208142
1.30081
0.0623718
0.261717
0.280199
0.0212797
0.0235826
0.0325905
3.50925
0.259915
0.0380462
0.0216821
0.0213951
0.0871543
0.0204341
0.238543
0.85415
0.0209285
0.161051
0.0203856
2.48586
0.0216121
0.295067
0.022084
1.83474
0.19624
2.15343
3.35769
0.0200728
0.201705
2.28736
0.0218027
2.44074
0.0217456
0.0199622
0.0212021
0.0260695
0.0233259
0.0215124
0.0209818
0.0667552
0.0412891
0.0458402
4.52059
0.0560585
0.0268177
0.0220431
0.0589815
0.0201725
0.0968983
0.349098
1.78813
0.399431
0.0223357
0.0232676
0.02217
0.0331845
0.0226162
0.0210239
3.0858
0.968112
2.88033
0.0195347
0.0215248
0.0445099
1.80501
0.0218856
0.0204169
0.0221959
0.0223713
0.0405553
0.0212515
0.422252
0.0216831
2.94045
0.020574
0.042681
0.668363
0.883162
0.0200703
0.0899807
0.0213509
0.0203965
0.0714647
0.820093
0.0210016
0.0220072
2.14238
0.0212886
0.0569743
0.0525762
0.025317
0.860461
0.0214335
1.38046
0.0282472
0.299722
0.0203078
0.0206755
3.45827
0.0208206
0.299905
0.0236297
0.0280048
2.81207
0.0221791
0.0213931
0.022022
0.0210331
1.297
2.31441
0.0204005
0.419502
0.0545725
0.2802
0.0212051
0.0715024
0.0827324
0.0260208
0.0284355
0.0213599
4.38063
0.0199948
2.58203
0.0202973
0.0205943
0.0232779
0.0215464
0.0206729
0.0600051
0.0229725
0.0210084
0.247621
0.0204331
0.0445832
0.0251316
0.183862
0.0285651
0.0206039
0.029926
0.0209723
0.0209487
0.0234627
2.20142
0.215608
0.24929
2.66431
0.0203901
0.0211203
0.0212419
0.0209024
0.0202207
0.25332
0.0198435
0.0232445
0.199274
0.0220285
0.213226
0.0213458
0.0203948
2.67677
1.77189
0.021563
0.0464346
0.0240993
0.363424
0.0210543
0.0225031
0.51156
0.0214279
0.17717
0.173596
0.0220265
0.0220612
3.20611
0.0235961
0.0558345
0.960951
1.17582
0.0231159
0.0207788
0.0335989
3.16813
0.0217956
0.854089
0.759977
1.34174
2.21916
0.0205172
0.0213633
0.0211623
0.131865
0.497492
0.234758
2.87501
0.0200565
0.351141
0.0205598
4.41672
0.0211936
0.0377946
0.104184
0.0219458
0.021901
0.104407
0.0246896
0.0217022
0.0219169
0.0638799
0.022957
0.0209242
0.209611
0.021736
0.0217572
0.0211076
0.892919
0.0260941
0.343109
0.0270481
0.0228385
2.15362
0.024152
0.092009
0.0203805
0.0211726
4.04781
2.8535
0.521351
0.0215612
0.0233945
4.54632
0.0935678
0.0942861
0.135614
0.151186
0.403179
0.0203742
0.729568
0.0206343
0.0641053
0.0494464
0.100341
0.101443
0.0221402
2.14887
0.0697451
0.353187
0.0363178
0.0210535
0.0213373
0.0213156
0.0473057
0.0205209
0.0383833
0.0680182
0.423239
0.0202225
2.47737
3.97735
0.297396
0.327023
0.0221303
0.0216634
0.0210722
0.0251267
0.0213738
0.0242332
4.30238
0.0211895
0.0221831
2.76317
0.297764
0.292984
0.0246263
0.0294429
0.0207766
2.16194
0.02194
3.66992
0.0415431
0.0823336
0.0280194
0.0936025
1.63656
0.0212762
0.0211821
3.2714
0.237012
0.320201
0.134311
0.0452362
0.0208133
0.0721905
0.0214157
0.0668066
0.0213802
0.0225275
0.300396
0.0219651
0.0923357
0.0205324
4.10003
0.967374
0.0217858
0.0282824
2.60054
0.025488
0.0202875
2.47431
4.03072
2.24903
0.0208956
0.0217253
0.804132
4.24811
3.48456
0.0214791
0.0226641
0.0215701
0.0253039
0.0216934
0.0206681
0.797212
0.0209339
3.00884
0.0230431
0.0878166
0.0200683
4.23703
0.158104
0.10398
2.54375
0.501196
0.0206154
0.0771255
1.77141
0.0208507
0.0216671
0.0213217
2.20613
3.21972
0.0214752
2.94581
0.038238
0.0212345
2.82471
0.0227522
0.06807
2.14405
2.21002
0.0212094
2.62167
0.0203143
0.020253
2.75144
0.042929
0.350037
1.70601
0.0274158
3.31569
0.207536
0.0256546
0.559595
3.94721
2.57874
0.0220382
0.0200281
0.0211144
0.0224106
0.27577
1.21066
2.89877
1.90577
0.0244274
0.0200176
0.0209358
0.0233867
0.29941
0.0211961
0.418946
0.250168
0.0203807
0.0221672
2.86589
0.0607222
0.822293
0.234976
0.0213269
3.13522
0.349933
1.06485
0.0224548
0.0243493
0.153193
0.0213252
0.0226992
0.101209
0.0237919
0.102147
2.05877
0.0216279
0.0995397
1.62196
0.0508935
0.0379103
0.296757
0.224249
3.42794
0.0213555
0.766459
4.03523
0.0426786
0.0220315
0.0205335
0.0217135
0.0211845
0.694898
0.0225512
2.74025
0.0225882
0.0212394
2.5393
0.618452
0.0202775
0.021125
0.402993
0.434206
0.0213775
0.0204554
0.0246041
0.0252162
0.180889
0.0578463
0.0205603
0.0997377
0.0219549
0.392511
0.162127
0.427726
0.0212641
0.0374375
2.33323
0.415386
0.0219374
0.111403
0.153447
0.912413
0.0202327
0.0224265
2.56361
0.137229
0.0557705
2.94704
0.0214202
0.0608205
0.0227202
0.0546462
0.0724426
0.550031
0.132486
0.0187016
0.0209614
0.0355723
0.339053
0.0213417
0.0365964
0.294578
0.0682217
0.0206665
2.91651
1.47951
0.0596677
0.0224792
0.021539
0.0215064
0.0244527
0.0389892
0.305531
0.09608
0.0204387
0.0212887
0.331916
0.0841176
0.021441
0.300638
0.226076
0.0224047
2.4383
3.89539
0.0202698
4.24718
3.48199
3.08001
2.48989
0.0207505
0.289343
0.124748
0.0219973
0.0232124
3.19051
0.343095
3.27054
0.0190871
0.0212894
0.0247869
3.83017
0.0187127
0.321796
0.0197521
0.0215568
2.86782
0.309865
0.0335953
0.405592
0.0563404
0.0226828
1.30996
0.83907
0.209783
0.342189
0.0595108
0.064932
0.0213198
0.0213051
0.0543009
1.85749
2.34675
0.177504
0.116038
0.303892
1.85654
0.029439
0.0209682
0.0217278
0.0639258
0.640787
0.0204628
0.058894
0.443537
0.0951273
0.29258
0.116557
2.94718
0.0216963
0.0225589
0.400083
0.022324
0.0217438
0.0223097
0.258356
0.029404
0.0548632
0.0204057
0.0212981
0.344216
0.41035
0.022238
0.190098
0.244226
0.0822209
0.0222201
0.329353
0.0210437
2.06579
0.104815
3.21724
0.0215293
0.162583
0.0200548
0.0212969
0.680519
0.264056
0.108204
0.0204039
0.213879
0.43177
0.745514
0.901873
0.0371445
0.0223667
0.268163
0.185096
0.0212192
0.0209452
0.0517855
0.796386
0.281686
0.0254451
2.33932
0.0203632
0.0217496
0.0886282
0.0667651
0.0211752
0.412136
0.0213055
0.021511
0.022049
0.0222041
0.184091
0.343541
0.0195793
0.0885865
0.0208918
0.0334524
2.45841
0.0218427
0.318207
3.52011
0.195833
0.191333
0.0214607
2.0857
0.0223441
0.140003
0.0207385
0.129244
0.0353125
0.0247577
0.0214579
0.112346
0.0630984
0.166194
0.277862
0.0217655
0.0202678
0.342153
0.131205
0.0319509
2.80205
0.0237309
3.60742
0.0214685
0.187364
0.121216
0.36462
0.0202619
0.185018
0.0548224
0.14368
0.0224082
0.0238438
0.0241701
0.0236838
0.0241418
0.0241634
0.0240159
0.021045
0.0932788
2.16422
0.497814
0.0246165
0.0212022
2.29663
0.918202
0.0212007
0.0625574
0.023735
0.0227993
0.592846
0.357772
0.020235
2.36328
0.0214134
0.30507
0.181242
0.161606
0.0235436
0.0218333
0.0230492
0.0204356
0.0223296
0.260423
0.249994
0.0326952
0.309077
0.146791
0.0213531
0.0417826
1.11155
0.0214983
0.0243071
0.180485
0.0235925
0.0581065
0.0235845
0.0240335
0.0500829
0.794633
0.0953481
3.19125
0.0249188
0.200322
0.0669093
0.0839289
0.0651345
0.0265057
0.0209921
0.0243259
0.148642
0.302002
3.48083
0.0209721
2.3847
0.313815
0.293323
0.130243
0.122739
2.85322
3.74121
0.0197506
0.100183
0.0239298
0.173441
0.253308
0.32503
0.0211171
0.364653
0.0523806
0.121152
0.0210396
0.350262
0.0234384
0.152248
0.0226695
0.0950687
0.163732
0.0250589
0.0208504
0.021702
2.47834
0.0207739
0.222692
0.0651957
0.226074
0.026981
0.356649
0.0729934
0.0212102
0.0207064
2.09451
0.0232719
0.0208556
0.0211442
0.0280662
4.34678
0.11331
0.0213879
0.035899
0.300619
0.399116
0.0461504
0.0209562
0.0243937
0.884854
0.0260447
0.0232873
0.0208087
4.32675
0.0207018
3.55555
0.294903
0.0449176
0.107438
0.0361106
0.0202841
0.022532
0.470713
0.0230141
0.0249549
0.0210943
0.0215646
2.9352
0.127207
0.137132
0.0205123
2.89829
0.0696435
0.296236
0.0212107
0.0277556
0.0244328
0.137876
0.0212537
0.0573718
0.367245
0.0943319
0.0245261
0.0208222
0.0259168
0.0261681
0.0492106
0.0202168
0.0213409
0.0214936
0.021496
2.90028
2.06102
0.25665
0.0348616
0.0219913
0.0196753
0.260916
0.758585
0.631328
0.0239929
0.0921907
0.0212966
0.0217112
0.0788962
0.0207259
1.62263
0.0217197
3.31706
0.0201793
2.16453
0.0214349
0.317587
0.332485
0.121021
0.163719
0.0196648
0.419939
0.0203122
0.118098
1.02564
0.141217
0.020605
0.0663828
0.10022
0.0620559
0.103885
0.0328157
0.106916
0.0200702
0.0333681
0.0204049
0.323159
0.18415
2.269
2.71314
0.0216904
0.332155
0.0209326
0.0209683
0.158288
0.020123
0.0210234
0.0210852
0.0210166
0.19143
0.0222746
0.0230756
0.0219652
0.021264
0.0210776
0.0223802
0.0241787
0.0214472
0.0305672
0.0351936
0.0192174
0.307346
0.0231171
0.0572109
0.0667988
0.0361831
0.045985
0.0888338
0.191788
0.0555796
0.265911
0.250396
0.286859
0.0203605
0.0208951
0.0235808
0.0198368
0.099175
0.0328402
0.0202115
2.65391
3.17328
1.87272
0.0351521
0.0567355
0.0418706
0.0213767
0.595953
0.10932
0.0222089
1.47767
1.58023
0.0215446
0.287116
0.719439
0.314415
0.0444287
0.0639555
0.0466419
0.0206502
0.0198547
0.49892
0.279245
0.808322
0.0232725
0.0211046
1.86418
0.0472118