/*--------------------------------*- C++ -*----------------------------------*\
| =========                 |                                                 |
| \\      /  F ield         | OpenFOAM: The Open Source CFD Toolbox           |
|  \\    /   O peration     | Version:  v2012                                 |
|   \\  /    A nd           | Website:  www.openfoam.com                      |
|    \\/     M anipulation  |                                                 |
\*---------------------------------------------------------------------------*/
FoamFile
{
    version     2.0;
    format      ascii;
    class       volScalarField;
    location    "250";
    object      ReThetat_0;
}
// * * * * * * * * * * * * * * * * * * * * * * * * * * * * * * * * * * * * * //

dimensions      [0 0 0 0 0 0 0];


internalField   nonuniform List<scalar> 
18758
(
488.051
159.973
592.222
481.283
575.164
611.099
590.941
546.838
577.281
577.105
202.734
105.77
310.761
540.003
590.455
597.847
102.128
630.468
592.276
588.459
112.845
276.65
606.785
610.511
151.059
454.271
108.098
331.084
412.722
137.447
258.22
91.5779
552.411
59.2608
575.678
138.708
389.415
577.289
250.48
624.666
128.449
565.763
134.524
599.968
594.745
260.573
568.141
405.881
26.439
498.744
195.518
56.1227
494.832
527.8
523.318
443.174
613.97
584.747
405.674
614.612
592.958
601.89
85.0205
87.2996
588.084
38.3907
595.709
624.603
332.34
630.281
53.7255
342.147
592.189
589.422
507.391
231.302
56.9764
97.7105
574.53
121.077
449.489
283.394
102.622
562.357
571.062
498.752
517.036
589.611
84.1993
516.121
36.6086
582.596
455.27
26.4799
592.987
608.484
627.792
430.951
89.7261
598.614
320.19
584.249
624.71
608.168
39.2247
105.918
405.877
38.1613
61.9619
296.811
597.526
69.8849
491.318
595.612
582.073
271.111
430.053
616.04
260.585
541.443
600.624
56.9505
564.376
614.502
27.1299
531.516
603.361
614.427
397.66
29.0133
407.272
578.187
492.931
35.7992
624.404
599.296
60.3288
557.304
335.89
442.762
485.062
166.466
452.26
59.4733
27.5134
472.42
37.2868
403.546
187.508
271.661
30.5503
26.7068
583.281
578.448
119.356
97.4317
449.077
397.775
568.03
168.367
52.9372
612.73
26.2756
37.8411
93.9821
613.405
612.849
60.9067
29.3457
109.866
26.1368
587.645
407.276
132.249
71.7978
602.137
592.866
436.708
70.1287
567.192
626.059
537.335
510.702
557.381
321.189
594.625
135.69
478.724
26.6868
62.006
26.5884
595.133
383.011
57.56
627.72
556.39
320.128
587.026
26.9196
606.992
564.627
394.732
83.7398
598.558
598.004
26.4095
606.977
574.791
30.0695
27.9797
597.853
455.575
552.538
568.608
579.703
627.632
594.191
448.127
616.419
153.248
58.2753
592.834
450.705
390.911
75.6063
111.879
506.477
565.745
53.6974
607.192
476.304
468.477
76.4343
592.879
601.164
590.149
449.447
26.2769
308.623
565.284
597.13
473.843
351.753
595.332
308.188
342.923
600.722
611.07
606.637
599.129
26.0856
595.675
139.044
585.935
600.122
303.004
614.372
237.803
597.646
83.1882
491.463
613.978
599.289
393.064
48.9172
57.9209
613.883
345.047
582.033
595.53
250.842
58.5637
594.337
608.222
604.09
576.52
497.968
619.915
562.702
533.525
611.35
582.884
595.54
37.1035
591.077
608.382
630.837
358.407
608.753
608.554
590.753
563.99
614.139
604.736
596.295
591.075
108.438
573.042
605.604
27.7055
523.697
603.18
606.267
230.05
412.359
626.261
429.328
101.841
601.496
344.517
596.27
79.0713
328.363
376.822
416.944
58.9169
625.119
168.881
386.045
594.207
378.91
567.968
255.41
601.527
625.021
28.3861
116.604
610.347
26.5489
502.938
489.769
34.7182
602.02
613.395
599.292
598.947
569.141
556.858
544.978
606.38
570.355
570.133
46.0401
244.282
559.899
202.948
90.1314
610.57
482.245
447.86
207.446
167.819
305.178
595.314
26.2571
93.7973
454.16
568.926
488.022
566.379
600.302
315.533
57.3919
159.199
540.069
58.1445
600.963
502.862
534.879
427.348
26.2984
279.377
116.631
354.963
142.798
299.813
597.196
42.1223
403.023
255.811
141.947
602.472
608.275
375.367
149.987
130.584
247.279
26.7919
565.605
103.717
283.306
597.852
547.424
570.453
586.874
597.292
564.463
595.436
573.639
595.294
604.488
552.169
218.031
538.369
237.801
210.482
29.7603
167.293
393.619
597.248
608.427
130.481
544.418
567.089
58.81
427.33
277.244
614.397
46.5114
593.202
522.917
626.845
27.5296
67.5063
156.925
597.258
33.2326
480.525
595.412
591.294
596.974
143.624
596.436
605.161
119.571
541.882
565.297
593.526
561.518
545.876
54.1932
336.93
586.96
39.6721
626.978
546.787
538.54
604.38
238.041
589.758
548.156
592.511
285.747
583.458
594.754
26.204
323.147
630.601
500.35
596.367
598.327
602.803
587.124
44.9986
30.0829
575.977
452.65
58.7115
403.829
95.412
336.191
96.9461
616.745
395.975
489.405
579.17
557.542
147.175
541.757
495.835
608.06
591.384
609.231
604.267
608.88
605.561
116.153
589.42
627.594
480.368
584.586
591.714
624.846
597.208
609.274
114.824
606.657
211.847
603.704
499.996
430.713
28.3054
346.949
596.399
596.285
29.4298
34.4671
465.929
614.379
312.044
36.4898
630.903
607.874
80.5589
581.898
436.767
523.607
583.968
447.651
611.259
602.492
578.253
597.807
607.673
589.909
108.419
625.943
293.646
57.3278
630.596
625.917
584.323
496.172
525.142
336.946
597.897
57.8176
528.534
581.822
609.715
607.423
603.212
574.028
573.455
27.1224
351.459
611.168
607.832
567.098
54.0641
626.648
627.156
605.793
627.387
608.918
610.19
571.088
598.146
402.411
597.699
623.518
402.337
27.7981
528.904
601.748
600.586
586.65
595.047
548.367
346.089
329.83
564.623
100.81
600.531
475.54
602.972
606.114
462.408
630.083
601.853
99.0938
593.167
558.59
568.823
602.958
593.658
27.1317
616.178
98.9748
511.024
600.79
592.442
568.316
564.972
518.487
602.204
89.5719
107.046
98.7452
610.785
28.2606
628.097
597.335
596.95
503.729
70.6011
372.367
581.16
557.091
549.607
42.4587
317.98
599.645
410.004
515.183
26.2038
498.759
493.373
609.73
500.02
423.44
603.822
609.98
626.487
610.61
506.827
360.348
144.129
98.6218
537.53
594.357
597.045
612.346
366.603
176.723
624.261
444.427
26.9675
27.1721
592.397
596.335
561.685
102.713
628.297
424.021
597.459
575.327
483.507
594.361
573.605
599.37
610.115
594.571
353.436
460.32
132.697
566.551
608.622
266.118
626.885
253.444
113.174
598.404
59.2271
576.479
598.493
60.2215
126.667
125.644
45.3806
563.969
92.9833
625.768
45.6776
29.6447
463.467
581.39
118.19
522.357
562.087
318.204
235.533
587.875
88.162
604.856
439.598
410.785
607.192
472.465
57.1612
100.25
590.981
573.346
627.526
565.786
586.913
474.795
470.52
607.569
265.405
595.093
597.386
517.946
626.896
244.918
597.027
610.99
287.389
611.485
563.459
142.503
469.908
492.529
597.674
592.421
415.145
589.06
100.142
527.876
586.329
549.1
600.183
627.829
60.6539
626.9
29.7654
390.232
562.39
46.1057
610.365
501.992
589.99
42.6384
532.008
297.695
106.073
596.172
130.707
618.506
320.211
589.203
568.376
47.3799
149.305
597.227
579.353
559.531
613.439
597.772
165.451
28.1335
608.759
613.657
618.365
48.0207
381.271
597.253
610.308
395.659
567.307
593.185
516.621
94.3463
599.797
447.195
320.702
606.537
441.199
590.424
500.236
600.443
615.22
503.212
597.958
424.402
603.684
36.3687
596.127
526.667
409.956
120.808
438.57
605.917
600.398
107.804
392.315
568.102
606.524
599.666
589.02
26.1749
134.545
609.874
597.523
571.634
580.314
595.844
594.764
600.843
96.4656
597.529
593.341
109.133
611.345
341.48
368.185
43.7711
255.475
142.359
27.6987
594.442
599.001
571.184
605.938
599.067
612.46
608.153
565.981
140.498
433.462
326.708
579.926
599.611
514.035
559.651
405.173
593.35
560.022
615.012
27.1579
62.2136
144.591
592.527
404.314
396.136
497.115
26.1024
75.2613
574.112
609.8
622.693
69.2746
578.796
624.514
388.125
75.5623
595.443
136.364
330.975
597.131
596.276
597.783
599.163
589.724
595.635
471.729
589.896
578.148
90.4647
26.8621
591.834
134.539
510.398
566.603
571.014
601.272
613.828
561.82
568.604
599.976
573.136
596.596
578.917
50.2637
493.145
601.603
597.163
295.532
587.533
624.716
42.8458
598.973
455.12
502.471
593.804
607.105
613.818
588.11
475.558
600.517
139.865
394.497
393.569
76.0119
573.069
523.925
625.756
318.076
565.68
600.632
435.077
296.131
590.493
294.966
472.422
612.407
491.321
624.687
585.311
501.107
588.757
601.084
537.977
599.936
607.865
92.0857
609.079
599.149
607.31
53.4278
595.897
581.902
475.768
64.427
108.196
306.935
97.8494
602.463
627.25
594.488
226.043
587.712
604.971
527.387
615.251
321.737
577.129
582.623
73.4123
595.931
484.649
209.78
627.255
589.638
59.7585
573.646
31.5968
237.975
612.49
590.551
106.828
609.544
531.445
133.567
618.779
85.7349
596.971
599.56
590.206
539.889
588.192
89.389
578.656
600.799
145.885
104.077
475.569
501.612
569.333
26.0325
61.6307
628.941
26.0388
594.406
69.1221
88.4577
597.329
522.147
577.432
96.7014
608.972
44.3365
609.356
64.355
504.664
610.08
627.776
594.546
245.838
316.615
599.147
92.1535
595.041
599.449
83.5017
594.02
536.548
607.701
528.595
602.263
607.628
600.426
609.017
387.284
493.905
581.674
461.491
594.19
593.617
122.26
597.343
87.6848
599.136
103.504
502.561
149.591
614.793
613.638
599.654
33.947
598.804
126.375
542.382
603.815
518.556
597.388
611.126
556.3
606.942
114.201
599.587
573.917
595.619
542.914
41.5887
87.6704
590.045
606.849
575.569
595.236
596.958
581.753
575.075
594.685
616.607
614.714
550.798
434.953
595.602
616.305
298.11
597.888
238.27
58.7076
567.37
26.5678
582.8
613.793
608.149
562.805
696.672
615.727
458.204
119.958
579.276
276.435
31.8689
27.6359
529.479
581.058
592.273
141.407
614.116
595.809
478.334
553.101
602.015
609.725
26.3726
537.446
586.148
578.903
527.306
569.554
589.943
528.533
596.115
491.696
570.409
573.541
582.008
109.171
576.814
594.367
125.851
627.775
604.295
596.401
554.447
567.12
85.01
400.613
127.159
127.214
61.1474
114.862
592.238
180.292
133.476
588.323
566.235
591.298
591.925
553.221
597.909
465.659
401.006
592.965
618.923
578.931
575.27
109.791
603.922
574.288
598.941
304.984
130.397
476.982
38.7859
597.282
598.913
384.984
514.231
598.777
402.429
589.491
528.124
96.5884
365.583
493.942
590.804
592.237
571.857
611.7
126.842
395.288
32.5721
355.421
379.399
589.103
26.1722
40.6962
31.5292
465.994
211.401
568.509
270.167
387.583
485.055
630.417
594.904
590.547
581.831
606.839
597.311
449.965
79.0395
234.068
141.482
436.296
98.7098
526.958
557.914
593.449
60.4547
340.487
606.95
476.629
236.077
26.1898
27.0454
468.438
518.688
627.018
30.7017
573.348
121.663
326.838
553.226
421.995
389.317
589.782
591.75
105.964
314.934
576.354
589.09
603.974
555.83
116.725
566.687
131.958
567.696
108.561
355.59
589.443
296.165
496.394
27.6314
626.991
462.877
41.4372
484.859
597.859
252.999
110.127
596.035
598.344
155.961
550.717
596.263
224.694
474.996
570.454
492.804
325.761
473.54
571.981
567.557
175.653
589.765
608.261
602.46
317.934
607.687
253.74
615.153
610.234
120.357
590.039
597.422
528.226
627.854
531.684
614.392
600.542
602.226
457.95
587.463
127.29
536.049
93.3347
29.3452
535.516
612.875
607.454
38.29
504.695
583.039
123.855
484.779
222.286
617.838
615.209
612.545
607.252
595.011
621.94
597.827
565.129
594.159
263.214
599.605
128.95
597.477
614.374
584.085
42.4589
43.7187
86.2276
40.7238
137.422
400.804
40.5288
589.278
454.724
436.758
26.2781
602.589
282.779
237.797
382.392
593.878
97.7904
599.278
596.92
599.298
482.024
56.0056
336.417
588.635
629.853
614.908
620.794
564.769
597.437
37.3144
397.033
480.773
591.176
595.666
622.933
27.0343
289.046
598.595
588.62
326.807
620.557
595.499
617.215
595.94
601.436
599.609
614.042
347.443
529.52
293.123
563.167
577.711
832.262
602.427
88.9443
581.403
456.297
227.808
160.999
465.358
359.389
27.5936
580.989
582.339
582.448
595.304
613.412
602.4
530.643
474.626
525.572
534.079
613.724
582.544
450.594
258.825
628.587
460.297
449.053
459.976
347.93
588.086
581.356
27.3657
561.951
605.468
596.51
417.425
613.25
610.846
423.738
410.662
561.369
597.197
567.39
46.8594
533.764
29.2263
45.7328
594.605
602.537
125.283
488.641
551.855
544.868
525.058
587.983
606.359
579.876
354.558
462.456
31.8154
123.919
459.654
142.297
103.956
611.808
93.7701
46.6507
540.852
33.8955
593.704
410.154
397.043
146.965
539.725
656.77
582.248
118.452
599.518
624.537
29.7327
561.361
595.919
597.072
596.621
625.004
573.237
602.422
594.701
33.6828
57.0125
599.825
582.94
397.713
127.608
627.275
378.897
434.203
436.032
588.093
601.022
26.9631
597.747
402.698
393.632
611.009
559.175
35.2622
601.95
110.002
58.8804
44.5516
572.885
604.429
592.883
600.902
596.484
129.314
120.056
614.316
414.74
133.665
584.782
582.142
598.248
94.4879
26.8725
698.745
456.445
534.69
37.6585
132.941
610.452
601.306
495.302
461.382
243.606
118.682
608.246
309.195
131.459
595.221
605.052
582.149
576.266
602.341
569.003
611.433
783.359
179.166
586.44
581.139
461.473
610.471
600.76
597.033
103.797
611.764
587.548
28.6403
374.826
485.892
438.955
601.868
570.149
563.881
615.27
598.85
572.744
282.308
545.09
558.202
625.34
615.687
311.995
300.07
594.069
245.252
607.51
547.924
420.66
149.455
552.317
527.534
539.236
653.972
627.128
290.979
50.0615
611.217
401.472
92.372
586.673
554.163
101.549
401.3
577.768
127.295
515.547
595.342
88.7872
686.652
344.254
608.95
60.1781
585.993
624.152
421.583
481.637
566.92
599.29
215.096
123.413
492.613
661.171
611.282
60.8181
131.809
384.706
324.229
586.957
85.092
587.656
601.863
434.399
567.484
318.122
109.99
576.477
44.7251
77.2797
28.8238
482.721
393.686
628.697
601.464
527.715
629.277
254.598
100.497
35.7787
418.628
422.487
116.706
172.211
600.425
581.614
45.3034
411.399
588.187
596.287
139.094
646.168
521.928
593.923
580.82
553.949
596.054
440.834
121.621
625.356
27.7515
614.632
32.5334
366.791
82.3195
575.496
132.946
577.874
601.818
557.257
26.4108
468.192
165.436
592.069
596.559
350.195
60.4603
575.269
430.201
329.298
50.6007
61.2958
606.371
588.03
117.046
629.147
613.603
535.841
594.268
595.564
607.158
596.731
522.214
597.93
583.248
499.076
603.401
40.9539
26.2637
574.693
618.749
593.907
638.381
595.193
593.716
586.408
530.659
600.441
574.221
570.96
355.777
118.791
604.902
569.495
677.505
533.721
476.779
326.842
608.967
593.728
554.423
545.587
570.477
92.3339
122.675
595.034
64.0945
571.104
416.474
92.808
88.219
26.5706
570.011
599.153
78.4821
568.66
143.96
620.718
153.419
30.9598
613.967
460.285
599.088
407.847
367.598
28.0698
602.291
586.666
466.144
584.355
78.5254
613.9
109.808
75.4183
432.864
85.7948
26.3718
607.591
605.485
587.26
203.803
145.493
570.744
577.754
576.487
618.599
629.591
607.001
615.882
644.497
570.78
616.38
544.374
280.987
95.4778
48.8262
583.538
381.589
567.245
517.442
531.271
101.799
26.3903
617.705
479.553
627.338
456.666
618.12
414.212
182.516
589.979
362.422
612.073
138.444
150.577
615.88
557.275
585.756
580.157
28.8691
587.71
586.123
566.662
581.761
611.516
554.556
593.632
596.893
597.774
599.81
167.203
88.932
70.107
620.763
627.208
625.772
617.798
624.762
583.933
625.197
611.567
593.809
605.566
477.447
598.5
178.927
64.4839
453.888
47.8764
581.349
324.881
491.066
733.322
612.703
81.0813
591.621
585.861
586.386
372.481
383.313
603.715
448.747
502.883
594.682
767.17
95.2463
588.08
605.33
547.373
123.551
603.997
144.435
603.615
577.92
586.468
547.966
543.674
115.949
587.152
616.206
50.8623
468.079
651.945
599.313
589.707
31.4013
612.122
575.24
575.837
291.958
625.57
602.053
614.265
587.002
589.099
103.582
586.833
521.758
486.612
34.1854
611.794
615.514
627.182
466.606
618.741
367.759
149.401
588.253
110.066
595.449
55.0944
584.669
612.282
731.992
507.967
377.66
119.224
308.739
460.214
508.925
458.802
574.751
453.041
585.979
559.74
355.959
574.753
118.29
147.567
156.025
142.819
119.066
90.2936
101.915
429.465
590.921
577.353
585.826
615.961
599.91
41.3221
62.346
118.857
577.906
554.132
123.906
603.031
460.422
615.42
450.715
597.504
624.718
589.241
461.314
66.888
586.445
482.565
614.918
488.558
303.624
614.973
534.075
86.3701
629.077
470.295
612.738
26.6148
597.558
76.6715
575.883
581.558
574.103
806.375
41.6903
554.817
137.231
552.195
586.788
586.291
602.826
616.394
593.511
41.3782
28.2639
492.271
607.825
518.778
543.382
589.892
592.564
389.225
116.215
109.419
595.853
128.513
613.239
446.012
548.183
454.922
315.879
97.456
98.2498
624.176
588.085
602.119
595.319
586.645
596.47
38.0708
591.657
600.885
572.503
585.215
598.761
27.7274
29.5798
116.613
587.629
313.27
616.614
91.6113
166.774
591.356
115.244
520.632
437.977
609.61
570.729
490.378
559.45
374.569
211.868
350.917
428.941
536.581
551.244
596.497
219.95
526.313
82.7045
569.253
45.5365
71.5658
130.942
560.483
318.535
534.159
596.132
617.978
572.988
427.174
595.053
88.4739
542.721
376.589
599.55
520.353
309.497
114.256
100.166
511.625
597.241
77.756
328.73
570.557
571.991
104.345
426.942
164.125
510.516
545.827
369.38
622.364
132.933
459.601
586.698
310.376
155.89
42.8733
534.051
394.516
480.043
615.507
412.592
588.858
392.574
616.562
40.4265
26.7837
102.969
117.512
461.98
73.9986
523.36
549.14
107.697
33.5292
546.009
597.705
602.42
515.387
621.046
599.11
83.2235
599.716
612.371
582.101
596.84
625.179
470.068
75.5065
481.478
597.447
586.285
480.677
574.829
599.478
602.306
615.671
100.708
502.575
386.579
590.08
593.524
624.798
312.397
376.293
309.354
627.909
576.074
448.032
602.636
503.417
334.988
51.6527
627.868
542.97
612.272
536.409
99.7832
143.81
134.328
508.69
611.118
611.927
514.28
524.338
27.66
614.408
132.917
624.675
600.957
361.28
606.509
74.9077
361.721
140.865
624.411
457.682
449.804
48.5474
610.31
602.761
351.183
101.946
57.9027
243.707
42.3087
598.191
444.451
501.881
596.319
39.4724
603.869
604.012
592.117
620.221
260.952
42.0466
553.256
46.1271
618.268
603.758
581.611
333.707
574.07
45.6132
600.841
568.031
470.785
219.097
616.799
120.718
598.235
594.693
43.9089
605.064
81.4832
84.7679
93.5564
57.5136
577.45
534.716
556.161
26.2035
703.148
585.144
31.045
514.561
629.428
544.755
80.7073
615.205
27.6529
67.8275
508.375
627.082
562.63
562.086
38.1159
612.892
461.777
589.675
224.84
32.4879
594.661
616.661
411.449
588.258
601.507
601.704
604.065
420.354
532.441
324.58
587.922
591.283
593.152
572.033
568.947
567.13
86.7225
107.55
109.384
572.359
617.011
208.096
512.037
440.19
85.6188
421.011
117.406
59.1039
617.257
285.782
315.185
554.358
607.264
601.508
599.848
41.5084
125.682
586.4
33.8632
134.548
27.1823
625.878
612.491
227.677
603.985
581.761
560.656
602.065
386.902
580.521
40.1407
139.024
609.495
91.3178
467.668
456.746
225.459
594.92
579.781
567.111
78.0665
287.199
316.881
577.061
600.211
395.198
615.195
408.179
73.9166
603.271
260.093
615.787
26.3208
603.862
124.834
555.49
43.2575
273.959
27.8314
30.3813
620.45
278.398
26.5612
570.786
28.6997
565.968
623.114
594.812
530.467
559.664
584.845
602.024
425.809
443.398
423.132
35.4471
404.732
511.831
570.84
427.237
616.713
516.291
221.43
45.9175
101.16
584.552
541.486
558.026
565.72
562.107
599.649
28.081
83.3318
28.478
611.955
589.256
428.285
49.7522
599.434
615.482
579.523
573.296
441.663
591.011
115.471
586.59
43.6615
612.782
300.037
125.522
109.525
620.629
516.784
586.366
615.427
382.45
101.76
602.452
559.676
28.0507
589
403.172
297.535
590.808
84.0252
582.466
58.0011
473.981
272.538
617.19
607.132
63.9936
607.392
116.623
575.582
541.422
52.9849
561.786
599.321
556.631
599.747
63.8731
28.9701
615.489
120.21
501.796
277.086
596.572
329.005
244.886
509.883
486.42
590.934
32.8798
622.547
35.5251
617.394
600.006
535.535
588.648
609.695
550.423
533.183
601.867
130.645
614.624
531.326
506.614
309.558
459.027
611.661
585.162
602.454
601.946
568.804
38.4955
194.372
130.107
111.993
615.867
598.655
594.477
604.008
618.648
339.762
624.532
548.382
461.253
566.29
323.156
602.296
615.839
28.3707
45.8971
585.928
470.827
560.319
205.614
599.009
571.695
140.893
604.416
218.123
335.591
562.133
557.251
94.0588
589.832
400.678
461.418
69.2814
539.964
579.275
562.44
83.481
598.658
76.0312
87.7312
61.2947
29.1209
616.259
588.547
595.613
214.527
121.086
258.989
27.1033
620.974
264.424
616.395
32.7583
594.29
464.103
381.486
588.943
598.318
562.872
509.445
568.759
570.339
423.619
536.172
604.16
465.681
573.342
567.523
598.867
107.536
482.821
113.644
569.413
536.704
28.684
566.689
347.748
615.762
595.756
39.7901
26.8421
115.524
603.526
589.997
35.5686
346.49
387.409
236.23
273.119
164.759
616.169
104.082
611.03
422.93
458.088
489.135
509.437
584.484
26.8272
382.508
108.299
407.365
599.16
597.837
587.41
359.037
614.012
429.48
411.788
91.3968
618.594
27.2223
42.9809
122.031
122.914
556.397
587.132
599.613
516.324
587.854
585.843
32.1786
598.445
555.293
26.7755
121.035
135.233
587.657
561.647
609.107
26.3055
582.602
40.2644
438.827
273.783
588.884
517.428
65.0308
595.625
596.716
29.6808
183.045
196.365
422.343
429.101
603.508
532.294
602.538
339.012
600.623
557.774
129.724
558.887
531.31
613.398
39.1644
97.8082
609.775
505.938
29.1268
511.382
617.562
30.1077
42.3096
26.2386
603.896
576.63
104.917
45.7151
32.5597
579.489
597.335
586.842
530.784
572.255
609.797
84.0841
603.949
55.3406
588.995
323.627
620.795
49.7861
242.244
453.093
129.393
121.453
612.196
377.029
41.1009
605.553
571.363
589.372
27.7701
29.1248
602.355
27.1818
500.666
595.743
30.1106
538.707
387.163
27.2971
26.9948
597.381
35.2498
602.516
614.299
26.6059
537.963
98.6867
155.766
516.267
43.8935
201.398
555.335
135.43
46.2536
26.6428
557.36
621.535
597.123
549.665
130.607
98.8919
62.9979
47.3337
524.639
621.765
603.098
577.707
125.093
597.833
94.8897
129.33
616.081
552.207
26.8777
397.442
160.026
487.887
592.891
28.5263
100.538
80.7899
546.066
556.377
233.681
587.199
577.175
432.831
557.85
264.951
31.2875
567.836
376.681
73.6084
416.227
469.413
127.91
381.292
59.7881
597.082
98.8232
36.1179
431.599
559.168
613.78
570.293
577.155
176.629
586.004
26.7884
583.145
591.121
26.4285
210.789
617.752
596.858
132.797
121.816
592.217
613.476
513.475
499.624
372.522
490.68
613.153
448.719
569.34
102.631
223.744
92.6921
590.602
372.653
51.6678
92.5703
597.655
293.581
734.981
422.078
618.82
550.818
48.4025
415.056
366.88
51.7075
602.945
418.939
574.481
406.669
397.758
119.11
376.088
603.108
602.531
386.089
105.491
590.742
387.16
114.897
444.853
609.822
69.3939
56.437
355.222
551.7
589.981
579.987
511.249
480.404
233.613
458.005
613.916
590.59
118.996
725.842
605.149
109.363
236.282
578.314
33.7541
47.0023
617.56
42.5407
70.4076
35.7887
30.4919
609.971
150.011
367.013
571.316
527.561
83.6787
108.871
44.8779
613.816
591.121
513.907
55.6674
591.69
232.629
626.316
590.683
57.5583
115.401
462.949
306.295
459.917
597.783
59.0645
91.3856
372.719
144.394
406.739
404.263
588.585
591.553
483.742
239.698
29.9328
273.393
341.768
104.148
195.754
466.317
603.071
570.131
449.834
168.009
614.117
446.512
148.382
461.389
284.829
287.641
34.2918
579.755
573.558
128.208
651.119
569.749
549.915
300.401
533.09
489.473
615.688
589.982
111.707
98.3872
578.85
224.144
133.043
367.803
576.857
152.19
599.311
26.0796
346.446
42.939
592.8
369.395
621.124
591.061
118.696
326.996
376.319
615.655
388.438
154.65
138.301
77.4013
576.131
544.009
234.466
403.588
594.885
601.921
457.07
91.7938
293.136
541.208
27.5346
616.389
572.556
303.119
419.994
596.481
101.161
595.412
583.457
557.912
584.458
253.516
701.058
629.604
385.001
603.984
470.636
177.863
573.881
262.314
37.4851
526.432
452.08
580.023
26.4904
572.976
388.114
610.257
389.643
520.686
505.777
579.375
368.266
403.675
300.013
170.911
599.174
617.917
99.0484
383.066
464.905
85.5131
556.733
41.1659
602.139
400.822
375.738
140.453
616.112
247.876
409.438
373.575
562.444
569.502
558.933
571.915
558.461
554.565
554.733
599.153
392.978
26.9675
116.824
510.868
594.546
26.6879
76.484
600.681
430.52
559.004
570.714
207.402
102.984
613.843
26.7944
596.811
230.249
326.237
341.344
561.567
582.674
545.751
614.775
579.49
151.482
131.113
503.391
127.727
409.815
585.935
567.941
75.3711
585.809
556.776
525.971
542.196
404.757
536.068
514.049
422.114
516.254
381.876
32.3565
517.609
315.185
410.249
277.131
416.111
581.015
600.664
510.256
363.287
126.953
72.0332
602.165
33.8117
128.82
123.935
373.161
281.617
30.5099
43.7814
626.349
363.347
516.472
369.238
329.602
120.474
597.138
110.105
419.056
364.678
601.192
170.073
564.071
311.608
595.018
481.764
408.713
514.519
605.575
571.377
29.0127
607.682
309.783
387.074
304.558
585.594
139.178
378.133
593.353
609.336
26.5901
535.76
605.522
596.075
424.388
32.0352
339.48
591.817
488.612
130.594
121.973
424.529
603.438
768.193
504.119
563.615
547.469
606.918
51.1078
607.062
36.7751
123.462
424.324
284.636
343.172
617.278
569.147
86.8276
589.471
569.199
597.076
598.189
87.9006
309.739
255.2
614.157
29.0804
532.879
131.912
594.914
514.774
511.333
365.983
590.428
399.621
104.977
353.507
508.158
607.471
573.226
504.79
420.434
618.493
566.131
593.251
584.358
57.2767
42.0923
282.353
408.909
556.967
628.037
272.978
87.6147
178.414
517.581
496.22
591.769
572.802
371.664
609.622
55.0594
597.676
30.5454
617.682
26.3626
582.025
129.099
117.35
273.624
307.008
628.241
439.348
616.889
328.173
88.949
437.16
612.353
317.049
304.464
486.972
344.941
597.432
383.354
620.938
579.12
615.64
122.571
278.377
27.1563
28.604
584.058
100.157
602.415
599.978
292.845
618.763
599.996
597.632
602.298
322.737
573.341
542.232
571.63
605.007
599.795
563.217
510.694
582.885
498.241
496.35
584.624
133.247
575.691
443.652
405.468
535.456
563.209
511.224
514.325
556.824
248.969
436.848
286.684
615.495
604.178
520.95
624.749
407.717
424.624
618.893
31.6205
74.5885
43.4045
579.288
440.275
437.233
603.282
136.402
435.063
576.639
89.6022
71.1858
581.254
142.046
96.6915
120.976
490.879
409.125
436.23
611.029
624.393
143.626
288.342
88.7148
565.958
597.194
43.3924
519.273
542.273
624.628
242.23
618.088
510.947
568.022
596.225
455.885
27.9939
603.11
622.411
510.422
29.3392
89.3061
615.156
445.691
586.38
285.283
235.156
489.801
43.932
128.861
139.967
299.547
120.945
411.443
356.106
170.597
582.31
337.133
145.411
422.152
519.376
325.098
550.774
507.515
576.892
523.83
574.168
108.317
38.2588
509.571
390.555
35.4495
362.453
518.359
624.308
615.494
86.3245
415.113
71.389
546.014
610.079
503.073
435.885
394.172
132.838
586.366
239.062
589.537
363.997
624.859
582.729
226.376
154.059
34.1467
99.3182
568.897
578.386
121.193
264.939
622.172
27.2541
380.325
93.5023
435.066
210.692
416.026
398.694
173.301
122.71
105.919
423.18
483.229
605.417
414.793
591.823
581.384
291.458
417.208
601.939
506.914
624.613
579.423
616.569
570.745
44.7197
538.238
57.095
361.277
26.5646
536.361
594.035
535.513
593.098
485.693
114.647
425.923
595.494
475.165
592.805
26.7883
465.58
581.508
520.884
461.928
41.506
41.5738
255.33
573.297
522.798
563.978
32.9061
402.695
76.4685
27.3486
55.6697
605.229
105.866
46.6582
55.8958
575.808
48.0409
557.207
585.772
592.118
587.825
583.109
615.701
261.368
424.102
52.9837
464.736
120.392
566.878
29.4283
606.951
100.183
577.157
311.187
344.475
559.264
29.8996
47.7466
597.496
41.1856
592.833
482.243
569.235
547.025
612.566
542.229
26.6911
589.016
405.436
293.244
465.165
490.491
588.678
430.792
79.0718
601.461
548.303
85.6504
464.798
42.2974
537.635
244.532
597.817
55.6906
580.012
581.229
35.4502
397.357
205.569
616.687
587.016
149.615
166.231
572.591
599.915
432.11
26.5797
57.6496
542.7
537.089
574.518
466.173
585.207
33.2768
26.6378
48.7547
27.8448
616.857
437.197
445.626
416.99
433.264
578.63
588.299
596.346
465.591
624.052
414.91
586.217
95.4568
174.566
471.716
561.324
582.678
37.3483
515.133
543.202
100.468
580.06
578.779
282.852
27.0979
50.5012
556.843
51.3612
550.751
520.3
445.368
597.401
330.117
49.1061
562.004
454.415
445.38
508.063
675.11
56.9599
485.736
355.158
576.491
416.491
577.925
124.73
597.81
255.798
390.392
51.7964
604.734
203.126
30.8632
103.733
140.157
580.251
493.786
501.063
587.454
30.5614
26.3463
132.452
569.716
56.4851
580.391
60.0501
597.812
612.539
570.626
105.187
554.723
519.458
127.095
88.5686
593.599
540.532
470.059
595.728
403.314
604.799
128.109
537.653
593.048
395.574
356.953
535.087
519.498
531.039
439.215
435.683
583.988
160.315
599.502
130.006
76.5531
598.142
148.745
571.716
587.634
427.733
417.935
205.759
573.445
581.343
617.357
604.427
74.6978
579.172
101.552
576.571
596.801
585.608
131.359
302.527
381.494
462.378
584.197
553.877
589.357
761.829
582.737
535.023
563.724
336.062
581.3
611.475
537.405
63.285
568.983
598.287
596.058
536.878
579.811
594.332
610.576
128.701
619.346
38.5044
561.876
615.053
128.425
465.295
584.145
62.1478
592.109
533.776
145.433
601.065
543.077
490.801
89.9471
45.8217
427.226
373.709
55.4077
518.732
458.836
543.727
595.565
29.2659
540.836
546.509
584.411
593.312
57.9765
152.584
439.55
572.47
445.944
607.85
563.604
590.017
583.569
405.649
350.377
497.937
332.124
28.1759
143.443
596.942
355.399
579.58
538.745
614.635
561.762
595.615
594.296
594.457
99.866
607.879
27.8642
550.144
318.372
604.255
26.3492
578.456
590.679
588.497
567.985
56.6409
41.0448
448.031
464.807
546.629
483.619
226.04
598.704
592.409
36.7374
64.4937
402.346
592.672
598.973
597.334
611.906
298.233
317.105
407.992
602.284
125.022
592.775
600.721
510.065
574.217
342.768
561.864
294.092
479.273
63.4914
98.0892
239.986
94.598
547.709
71.6963
413.22
612.216
505.563
582.963
396.356
81.345
591.026
581.444
396.109
387.456
602.116
592.209
71.9396
562.837
596.452
600.378
571.942
587.789
589.564
532.67
26.2904
565.858
589.612
546.472
596.882
411.906
582.414
494.672
571.864
148.571
604.522
536.263
599.445
197.727
39.9529
593.48
63.1048
536.245
294.286
183.897
609.928
439.757
580.851
424.499
501.083
608.211
591.231
112.589
411.928
278.272
571.596
605.033
598.451
537.195
572.348
571.186
314.743
452.914
104.672
603.85
559.955
121.258
596.562
610.396
573.233
572.598
604.902
551.09
428.192
28.2569
596.377
293.758
604.394
556.294
597.277
576.087
542.454
258.042
507.88
585.491
594.075
572.76
579.062
574.734
51.3762
595.446
108.599
570.914
69.1221
346.527
587.79
227.614
598.302
592.244
27.5337
575.456
550.297
137.809
64.6472
586.096
599.492
580.249
590.092
537.127
587.159
277.842
597.407
601.406
563.449
388.472
594.532
586.104
612.779
593.275
603.935
63.4633
597.378
585.783
585.067
557.966
585.608
29.6762
416.393
116.718
590.559
389.381
426.538
92.3246
583.247
605.657
46.3209
558.364
191.504
133.674
143.561
383.426
140.648
374.62
505.651
409.042
83.058
56.8162
143.491
595.429
584.312
311.735
558.418
590.657
76.5406
146.467
583.828
573.659
601.32
605.908
595.081
604.525