/*--------------------------------*- C++ -*----------------------------------*\
| =========                 |                                                 |
| \\      /  F ield         | OpenFOAM: The Open Source CFD Toolbox           |
|  \\    /   O peration     | Version:  v2012                                 |
|   \\  /    A nd           | Website:  www.openfoam.com                      |
|    \\/     M anipulation  |                                                 |
\*---------------------------------------------------------------------------*/
FoamFile
{
    version     2.0;
    format      ascii;
    class       volVectorField;
    location    "250";
    object      U;
}
// * * * * * * * * * * * * * * * * * * * * * * * * * * * * * * * * * * * * * //

dimensions      [0 1 -1 0 0 0 0];


internalField   nonuniform List<vector> 
18758
(
(1.02178 -0.00896153 0)
(1.04472 -0.0499027 0)
(1.00424 1.32228e-05 1.10528e-21)
(1.02069 -0.00917232 6.58187e-22)
(1.00768 0.00525314 1.78453e-22)
(1.00716 8.31867e-05 -4.00274e-23)
(1.01577 -0.00486874 2.63841e-22)
(1.02282 -0.0168692 0)
(1.00754 0.00393068 0)
(1.00583 0.0021094 -1.5183e-21)
(1.02564 -0.0400961 -1.16467e-22)
(0.856231 -0.134854 -2.61739e-21)
(0.947212 0.0266584 0)
(1.03364 -0.0161083 0)
(1.01523 -0.00457765 -6.29108e-23)
(1.01264 -0.00198292 5.41866e-22)
(0.85356 -0.111912 3.43764e-22)
(1.01143 0.000814755 -1.79834e-23)
(1.01505 -0.00431875 0)
(1.01926 -0.0125978 -2.4865e-21)
(1.05914 -0.109648 -1.63342e-21)
(1.18795 -0.0907552 2.27225e-20)
(1.00681 5.97836e-05 -7.95126e-23)
(1.00689 0.000115919 -1.80841e-22)
(1.17465 -0.0911838 -1.36046e-20)
(1.13886 -0.241918 1.54387e-20)
(0.851303 0.250193 -9.56821e-21)
(0.930685 -0.0832851 7.8173e-21)
(1.05502 -0.112102 0)
(1.0429 -0.0703123 1.08454e-21)
(0.845345 0.286162 -2.75081e-21)
(0.830501 0.221786 -5.72781e-21)
(1.02281 -0.0161951 -7.43732e-22)
(1.02746 -0.0934212 -8.16623e-22)
(1.00976 0.00724095 -1.70598e-21)
(1.03529 -0.0766526 0)
(0.940811 0.0128224 0)
(1.00967 0.00632631 -1.77996e-22)
(0.905571 -0.273933 0)
(1.01448 0.00181313 -3.52164e-23)
(0.889261 -0.14553 4.023e-22)
(1.00203 -0.00156616 -7.9021e-22)
(0.921461 -0.0485503 -6.45748e-22)
(1.01085 0.00126473 0)
(1.00994 -0.000674346 0)
(0.843219 0.28222 0)
(1.00339 -0.00242647 1.7697e-21)
(1.04088 -0.113397 -2.33931e-21)
(0.0195648 0.252067 -4.54018e-20)
(1.01612 -0.00830709 7.47018e-22)
(1.01457 -0.0517297 0)
(0.807501 -0.262084 2.22366e-20)
(1.01541 -0.00728088 -7.66177e-22)
(1.01245 -0.0139564 -3.87926e-22)
(1.14079 -0.103213 3.94306e-22)
(0.955416 0.0254633 3.8534e-21)
(1.0124 0.00122284 5.96668e-22)
(1.01911 -0.0125505 2.38942e-21)
(1.03561 -0.105685 4.14094e-21)
(1.0124 0.00124712 -5.23451e-22)
(1.00942 -0.000613426 0)
(1.0111 0.00135448 -4.22003e-22)
(0.817452 -0.216884 5.73509e-23)
(0.706735 -0.202445 3.4791e-21)
(1.00923 -0.00060873 0)
(0.727013 -0.00361758 -3.51572e-20)
(1.00665 -0.000190355 0)
(1.0111 0.000631391 3.02548e-22)
(0.927065 -0.0828806 2.67667e-23)
(1.01149 0.000814622 1.44613e-23)
(0.770945 -0.251525 -4.64918e-20)
(1.14143 -0.265974 9.05659e-21)
(1.01351 -0.00470386 -1.55595e-23)
(1.01823 -0.0109407 -1.26668e-21)
(1.01925 0.0438877 7.03823e-21)
(0.840675 0.291657 6.9546e-21)
(0.921078 0.0959239 -3.27307e-20)
(0.853337 -0.0444231 0)
(1.00578 0.00353467 0)
(0.919887 -0.0337353 8.73839e-22)
(1.10016 -0.0967095 -1.60863e-20)
(0.893179 -0.278828 4.3339e-21)
(0.853295 -0.0455104 0)
(1.0121 0.0128766 -4.2491e-22)
(1.00986 -0.00121441 -1.07971e-21)
(1.1295 -0.09537 3.73552e-20)
(1.05336 -0.0208877 0)
(1.01862 -0.00955623 1.83774e-21)
(0.832474 -0.239935 -7.51569e-21)
(1.12903 -0.0927854 -2.46255e-20)
(0.412337 -0.0757008 1.54101e-20)
(1.00951 -0.000428981 -3.54363e-22)
(1.092 -0.0780954 0)
(0.0321481 0.245695 3.4837e-20)
(1.01341 -0.0044781 5.88915e-22)
(1.00841 -0.000698251 1.74542e-21)
(1.01294 0.00121166 1.08459e-22)
(1.05167 -0.0818281 -1.65166e-20)
(0.849588 -0.0300499 -1.48082e-21)
(1.01131 -0.00359924 0)
(0.839711 0.281469 0)
(1.02521 -0.0122083 -1.57485e-21)
(1.01112 0.000630312 2.88544e-22)
(1.00839 -0.00069811 -1.99358e-21)
(0.742726 -0.00716567 -2.23189e-20)
(1.06682 -0.098791 -2.8402e-21)
(1.04516 -0.114259 -2.99637e-21)
(0.45169 -0.0941657 0)
(1.03143 -0.116572 -1.18085e-20)
(1.01504 -0.145351 -2.38845e-21)
(1.01305 -0.00193801 0)
(0.685363 -0.232817 -5.04106e-22)
(1.00686 -0.0104653 1.59638e-21)
(1.00565 -3.28534e-05 -1.09341e-23)
(1.02521 -0.0122943 -2.9689e-21)
(0.860492 -0.138994 -7.12357e-21)
(1.04877 -0.0812928 7.83294e-21)
(1.01237 0.000712979 4.58401e-22)
(0.847408 -0.181568 0)
(1.01003 -0.00370903 0)
(1.00605 -2.42059e-05 6.61863e-22)
(0.905996 0.0777317 1.94851e-20)
(1.00995 -0.00150583 1.08215e-21)
(1.01026 0.000133862 0)
(0.0450341 0.278915 6.5036e-21)
(1.01315 -0.0148218 4.10903e-22)
(1.01116 0.000421639 8.24141e-22)
(1.01024 0.000130142 -3.69385e-22)
(1.06536 -0.160663 -3.04302e-22)
(0.0644623 0.222332 -5.09795e-20)
(1.03898 -0.106182 2.63909e-21)
(1.00681 -0.000261136 0)
(1.0167 -0.0287369 0)
(0.545023 0.052188 1.90166e-20)
(1.0148 0.0017907 0)
(1.00617 -9.18736e-05 -1.18154e-21)
(0.750408 0.24273 -3.29127e-21)
(1.01104 -0.00279179 2.30646e-22)
(0.957004 -0.146121 -1.4812e-22)
(1.0961 -0.0989806 1.3753e-20)
(1.00416 -0.00986087 1.55494e-21)
(0.917002 -0.167804 1.36034e-21)
(1.05895 -0.0654121 -5.71653e-21)
(0.983521 -0.0625306 0)
(0.0617425 0.274191 1.80812e-21)
(1.08187 -0.0608214 0)
(0.687706 0.0117602 2.14814e-21)
(1.0679 -0.146401 -1.8823e-20)
(1.03203 -0.0429773 1.16507e-22)
(0.882118 -0.312391 4.70357e-21)
(0.151386 0.233317 -4.39337e-20)
(-0.043343 0.217382 5.79649e-20)
(1.02555 -0.00444036 9.29947e-22)
(1.01253 0.00727621 2.3803e-23)
(0.88652 -0.141295 -4.75801e-22)
(0.965268 0.351797 0)
(1.0892 -0.0787188 0)
(1.07003 -0.163373 1.27021e-20)
(1.02391 0.0161215 1.45044e-21)
(1.03654 -0.0476502 0)
(0.518952 -0.290666 -7.88057e-21)
(1.0111 0.000321555 2.21586e-22)
(0.0355166 0.194698 2.48492e-20)
(0.70022 0.0077595 -1.78792e-20)
(0.835441 0.286668 -1.66202e-21)
(1.01377 0.00116959 0)
(1.0111 0.000317355 -3.22225e-22)
(0.636932 -0.325005 1.63248e-20)
(0.0880961 0.230082 4.48463e-20)
(0.85935 -0.18556 5.59292e-21)
(-0.0569368 0.206414 -1.57512e-20)
(1.00341 1.85654e-05 -1.68226e-21)
(1.05235 -0.120514 0)
(0.884516 -0.0849742 -6.69916e-23)
(1.05364 -0.188181 -1.04928e-20)
(1.01085 -0.00272207 -1.39839e-21)
(1.01348 -0.00441744 -1.47556e-22)
(1.14126 -0.201746 -9.25173e-21)
(1.08745 -0.116332 0)
(1.03558 -0.00671442 0)
(1.01017 0.000557886 -2.87124e-22)
(1.01545 -0.0148808 -4.43067e-22)
(1.13623 -0.106331 1.41753e-20)
(1.04081 -0.00997257 -5.44363e-21)
(0.843097 -0.336678 1.63392e-21)
(1.01753 -0.00269117 -6.73752e-22)
(1.04416 -0.0685154 -7.04117e-22)
(1.01949 -0.0283997 -2.20211e-21)
(0.0701816 0.234452 -1.11264e-20)
(0.834899 0.255026 0)
(-0.05345 0.208037 -8.16909e-20)
(1.01733 -0.0027662 5.74441e-22)
(0.966566 -0.0658932 1.24116e-21)
(1.00714 0.136175 -1.36714e-20)
(1.00999 0.00063556 1.82412e-22)
(1.03892 -0.0103324 2.34127e-21)
(0.941085 -0.159574 0)
(1.02511 -0.00420775 0)
(0.0921921 0.227063 -1.82458e-20)
(1.00636 6.0568e-05 -3.00362e-22)
(1.0117 -0.00226457 6.6352e-22)
(1.07219 -0.173996 0)
(1.05413 0.116817 2.81665e-21)
(1.01252 -0.00159567 -1.80163e-22)
(1.01313 -0.00208266 0)
(0.0616503 0.195162 -3.03406e-20)
(1.01119 -0.000345214 5.51385e-22)
(1.01117 0.00850255 2.63521e-23)
(0.119836 0.227056 0)
(-0.00703552 0.204007 2.48792e-20)
(1.0047 3.04895e-05 -2.71718e-22)
(1.08533 -0.0850617 0)
(1.01197 -0.00284993 -6.50117e-22)
(1.01212 -0.00400696 8.19207e-22)
(1.0185 -0.0124934 1.20264e-21)
(1.013 0.00124014 -1.05634e-22)
(1.01247 -0.00068177 -1.82952e-22)
(1.08619 -0.0831658 0)
(1.00811 0.000131684 4.93309e-23)
(0.936901 -0.14631 1.94973e-21)
(1.04229 0.0951069 1.53513e-20)
(1.01332 -0.000545077 7.82846e-22)
(1.05634 -0.0656731 7.07044e-21)
(1.06471 -0.17585 6.25819e-21)
(1.03831 0.126505 -7.13578e-21)
(0.895275 0.028489 0)
(1.02954 0.0458093 -7.23579e-21)
(1.1315 -0.0819556 -1.50503e-20)
(0.540953 -0.290759 7.16033e-21)
(1.01108 -0.00038816 1.17533e-21)
(1.13781 -0.236306 1.73972e-20)
(1.07957 -0.0623727 2.13805e-21)
(1.08794 -0.217338 -2.05213e-20)
(1.00591 -0.000104165 1.1565e-21)
(1.01029 -0.00163727 2.43853e-24)
(1.01381 -0.000682745 -2.17213e-24)
(0.970021 0.0361353 -6.38091e-21)
(-0.0128082 0.265723 -1.09841e-20)
(0.926762 -0.170477 0)
(1.02203 -0.0122801 -9.43261e-23)
(1.01341 -0.00232606 2.23861e-22)
(0.976509 0.0349193 6.3202e-21)
(0.968912 -0.136144 0)
(1.00421 2.45983e-05 0)
(0.874123 -0.326633 4.13009e-21)
(1.00007 -0.223546 0)
(1.01041 -0.00161938 9.26539e-22)
(1.0082 -0.000385809 -3.94133e-22)
(1.01568 0.00176075 -2.49853e-22)
(1.01128 -0.00357091 -5.70106e-22)
(-0.0530418 0.212908 4.35271e-20)
(1.01101 -6.39746e-05 1.2581e-21)
(1.04319 -0.0191074 6.0432e-22)
(1.01383 -0.00106938 -3.64592e-24)
(1.00545 2.36264e-05 -2.84381e-23)
(0.930268 -0.205922 0)
(1.01331 0.00134328 4.70372e-22)
(1.13635 -0.269027 4.10412e-22)
(1.01324 -0.000936408 0)
(0.876559 -0.308251 -3.26952e-21)
(1.00791 -0.0108925 -5.55667e-23)
(1.01055 0.000197009 1.65812e-21)
(1.01056 -0.00164421 -7.71666e-22)
(0.96806 -0.0622392 -2.41245e-21)
(0.612143 0.0592413 2.38147e-21)
(0.63275 0.10643 5.31396e-22)
(1.01057 0.000189049 -1.87487e-21)
(0.966336 -0.151723 0)
(1.02599 -0.00414133 -2.86207e-21)
(1.0116 -0.00486158 0)
(0.826472 -0.161804 -2.51817e-21)
(0.964914 -0.199894 -5.16616e-20)
(1.01168 -0.00494392 0)
(1.01092 -0.000414807 -1.21548e-21)
(1.01682 0.00540424 3.83982e-22)
(1.01832 -0.0123306 -7.53113e-23)
(1.0273 -0.0314061 -4.8173e-22)
(1.00845 0.000152079 0)
(1.01246 -0.00427726 2.58383e-21)
(1.03275 -0.0160446 5.92313e-21)
(1.00812 -0.000421814 0)
(1.00606 -0.00017929 4.35533e-23)
(1.01389 -0.00219044 -8.30025e-23)
(0.666291 0.0206015 -3.65741e-20)
(1.01555 -0.00463828 -4.02496e-23)
(1.01079 -0.000427749 5.37414e-22)
(1.01046 0.000496738 -5.28937e-23)
(0.978286 -0.141708 0)
(1.00839 -0.000696229 1.02052e-21)
(1.00835 -0.000683277 0)
(1.00355 7.13958e-06 0)
(1.03471 -0.00904482 -8.02569e-21)
(1.0122 0.00114504 3.57193e-22)
(1.00597 5.21624e-05 2.14206e-22)
(1.00466 3.31743e-05 -7.58045e-22)
(1.01796 0.0032549 4.64581e-22)
(0.888126 0.0485567 1.7276e-21)
(1.0092 -0.000373434 4.7738e-22)
(1.00632 7.94595e-05 -1.02086e-22)
(0.0963885 0.288486 0)
(1.04256 -0.0215959 0)
(1.0063 4.83406e-05 4.99994e-22)
(1.00619 5.19067e-05 0)
(0.883796 -0.304821 1.15217e-20)
(0.990686 -0.024041 4.04132e-22)
(1.01019 0.000561148 -4.31917e-22)
(1.0226 -0.0180985 0)
(1.07074 -0.0915531 3.51111e-21)
(1.01122 0.00200582 4.42052e-22)
(0.961936 0.0389797 0)
(1.01403 -0.00214057 2.81341e-23)
(0.683643 0.204344 -1.19214e-21)
(0.954285 -0.162139 -6.98075e-22)
(0.98893 -0.113144 0)
(1.05862 -0.108476 0)
(1.01982 -0.0862073 -2.78102e-20)
(1.01094 0.000630701 0)
(0.874949 -0.305484 7.02133e-21)
(1.0637 -0.191556 2.32951e-21)
(1.00672 -0.000213251 0)
(0.987995 -0.103039 0)
(1.01918 0.0114468 0)
(0.874479 -0.296919 0)
(1.01008 -0.00200309 7.95657e-22)
(1.01093 0.000631249 2.92045e-22)
(0.0168262 0.210463 0)
(0.887413 -0.0405993 -2.3365e-22)
(1.00954 -0.000650885 0)
(0.00472946 0.281497 3.90387e-20)
(0.981221 0.0230354 0)
(0.998585 -0.00326384 0)
(0.480952 0.0631181 -1.94369e-20)
(1.01001 -0.00184372 -3.94544e-22)
(1.01376 0.00121178 -9.86096e-22)
(1.01345 -0.000938007 7.17372e-23)
(1.00565 -2.99757e-05 1.50216e-24)
(1.01491 -0.0100436 0)
(1.00955 -0.00199156 -5.13843e-22)
(1.02336 -0.0172701 -1.00561e-21)
(1.01121 -0.000335079 -2.19834e-21)
(1.01505 -0.00973933 2.47861e-22)
(1.02284 -0.0119536 -8.62292e-22)
(0.761771 -0.0405433 -4.37126e-20)
(0.903886 -0.302789 1.82549e-20)
(1.01177 -0.00287677 -5.90447e-22)
(0.873742 -0.305399 -1.22719e-20)
(0.851347 -0.00496454 6.7037e-21)
(1.00941 -0.000635378 0)
(1.05506 -0.0462831 2.64062e-21)
(0.98109 -0.0160199 4.90631e-22)
(1.17442 -0.0729036 -3.77608e-20)
(0.914634 -0.141242 -1.37242e-21)
(0.90867 -0.128915 0)
(1.01749 -0.0024173 1.89413e-22)
(-0.0317255 0.263201 -4.32656e-20)
(0.877041 -0.311513 3.20252e-22)
(1.00966 -0.0296713 -4.32223e-23)
(1.02299 -0.0120008 7.92769e-22)
(0.99867 -0.00313515 0)
(1.01304 -0.00436999 -1.06256e-23)
(1.01095 0.000689655 -4.3252e-22)
(0.939719 -0.172809 0)
(0.991005 0.12578 1.36188e-20)
(0.914211 -0.113201 -2.65989e-22)
(1.03962 0.0634402 0)
(0.959473 0.167638 -1.3862e-20)
(1.01042 -0.00166114 3.93755e-22)
(1.04588 -0.0282434 -2.91557e-21)
(1.01606 -0.0151343 0)
(1.04522 -0.0834517 -1.17648e-21)
(-0.00511668 0.257986 2.50525e-20)
(0.873861 -0.149956 3.77447e-21)
(1.0885 -0.24236 0)
(0.89341 0.00151079 8.12729e-21)
(0.900706 -0.156858 0)
(0.899519 -0.128254 2.93865e-21)
(1.00515 4.65199e-05 3.22527e-24)
(0.804616 -0.0217134 3.59608e-20)
(1.07254 -0.149685 -2.46065e-22)
(1.00315 -0.0382183 -3.61828e-22)
(0.905614 -0.108823 0)
(1.00717 -0.000238045 0)
(1.00704 0.000109133 -2.88937e-23)
(1.18361 -0.0819975 1.31469e-20)
(0.903146 -0.139664 -1.27965e-21)
(0.927345 0.21807 0)
(0.816879 -0.16877 6.94028e-21)
(0.0182864 0.277622 -3.58945e-20)
(1.02247 -0.0122438 6.3501e-22)
(0.852545 -0.154554 2.10014e-21)
(1.00298 -0.131748 0)
(1.01282 -0.0020135 -4.99999e-22)
(1.03104 -0.016037 0)
(1.01776 -0.0125283 0)
(1.01303 0.0043233 0)
(1.00613 -4.10359e-05 -7.4066e-22)
(1.01345 -0.00459986 8.04385e-22)
(1.0194 -0.00232175 4.85853e-23)
(1.0053 -0.000143851 0)
(1.00447 2.02721e-05 0)
(1.01642 0.00141903 -2.55689e-22)
(1.00617 -0.0205376 0)
(0.890808 -0.290398 0)
(1.05777 -0.0328851 0)
(0.843161 0.259017 0)
(0.834236 0.270083 -4.73589e-21)
(0.17552 0.26748 -7.38783e-21)
(0.896277 -0.29987 -8.00701e-21)
(1.05051 -0.151903 7.95817e-21)
(1.01723 0.00213383 -2.35639e-22)
(1.00678 0.000111367 1.56431e-22)
(0.91738 -0.0634075 4.57355e-23)
(1.03043 -0.0159314 1.5269e-21)
(1.0214 -0.0124018 -2.80288e-22)
(0.739194 0.157233 0)
(1.04281 -0.0828969 1.0292e-21)
(0.978411 -0.0805771 -1.22719e-21)
(1.01326 0.00138933 0)
(0.755887 -0.0309764 3.60457e-20)
(1.00995 -0.000682471 0)
(1.04264 -0.022354 0)
(1.01007 0.000622051 2.87216e-22)
(0.157015 0.204626 -3.16809e-20)
(0.647941 0.147297 -5.80701e-22)
(0.905679 -0.162753 2.70198e-21)
(1.00461 4.25156e-05 3.85285e-22)
(0.421366 0.0815386 -1.46067e-21)
(1.09488 -0.0740302 0)
(1.01332 -0.000725828 -1.4506e-23)
(1.01362 0.00388123 -4.02255e-22)
(1.00453 2.41247e-05 3.90747e-22)
(1.09962 -0.236191 8.92934e-21)
(1.00458 1.49623e-05 -1.74889e-22)
(1.00596 5.73844e-05 -1.0435e-21)
(0.833093 0.275868 1.42395e-23)
(1.05903 -0.03189 2.39786e-21)
(1.02178 -0.0124233 -7.57355e-22)
(1.01335 -0.00420314 6.12569e-22)
(1.02161 -0.0155371 0)
(1.0196 -0.0195858 0)
(0.640941 -0.31132 8.12667e-22)
(0.993734 -0.0913624 1.58204e-21)
(1.00304 1.42786e-05 -1.46659e-22)
(0.758853 -0.0124315 2.1966e-20)
(1.01008 0.000623852 -2.52669e-22)
(1.00913 -0.00269881 5.44143e-22)
(1.12939 -0.0776945 1.92702e-21)
(1.0161 -0.000303685 -2.79833e-22)
(0.843872 0.286414 -6.20416e-21)
(1.00291 3.73461e-05 1.56757e-22)
(1.01888 -0.0193836 3.40363e-23)
(1.00417 3.41812e-05 0)
(0.88236 -0.132408 0)
(1.01912 0.00386942 1.32147e-21)
(1.0191 -0.00246777 -2.02829e-22)
(-0.0252844 0.274704 2.48323e-20)
(0.991947 -0.0260814 -4.07501e-22)
(1.01066 0.000577812 0)
(1.04453 -0.0286454 0)
(1.01527 0.00143792 -2.44292e-21)
(1.01259 -0.00172892 1.65788e-22)
(1.00577 3.397e-05 0)
(1.01255 -0.0004482 0)
(0.641802 0.0466771 -1.44842e-20)
(0.188872 0.0698951 0)
(1.0263 -0.00714767 8.28413e-22)
(1.03099 -0.0535918 -4.87614e-21)
(0.9321 0.183557 9.05823e-21)
(1.1334 -0.198726 8.53167e-21)
(0.877348 0.000299572 -9.76352e-21)
(0.990514 -0.220465 2.3217e-21)
(0.876977 -0.0128208 8.91219e-21)
(1.0121 0.000614235 0)
(1.04717 -0.143327 7.39253e-21)
(0.97661 0.0251713 3.46839e-21)
(1.01135 -0.0106396 -3.27535e-21)
(1.0224 -0.0157138 0)
(0.925041 -0.157652 1.94281e-21)
(0.984893 -0.00907605 -7.53262e-22)
(1.00375 -0.00802256 1.74225e-21)
(1.00678 5.45618e-05 5.81555e-22)
(1.01573 -0.00488712 -1.93776e-22)
(1.00853 -0.000747152 4.62637e-22)
(1.01595 -0.00034524 -6.78994e-23)
(1.00851 -0.000732459 2.68391e-22)
(1.0155 -0.000129262 9.08847e-23)
(0.966917 0.0715238 9.05059e-22)
(1.00396 -1.79356e-06 -6.64105e-22)
(1.00985 0.000586101 4.16076e-22)
(1.09643 -0.0696708 0)
(1.00666 -0.000245645 -1.89661e-21)
(1.00395 1.44531e-05 0)
(1.01414 0.00187213 -2.83299e-22)
(1.01512 0.000525603 -1.48028e-21)
(0.983091 -0.00568352 0)
(1.03639 -0.13905 3.6225e-21)
(1.01117 -0.000364227 1.90764e-21)
(1.0092 -0.0496511 4.41993e-22)
(1.00633 5.25363e-05 6.43861e-23)
(1.05512 -0.0339634 8.58797e-21)
(1.11304 -0.130105 6.66798e-21)
(0.143881 0.141122 1.06546e-20)
(0.884678 -0.0127176 -8.09624e-21)
(1.01269 -0.000879676 0)
(1.01774 -0.00233882 1.29137e-22)
(0.169243 0.0974281 1.13726e-21)
(0.487487 0.0705487 -2.33377e-20)
(0.997432 -0.00300981 -5.24022e-22)
(1.01279 0.00137637 5.54035e-22)
(0.977459 -0.0995736 0)
(0.653492 0.0257186 -3.71349e-22)
(1.01057 0.000532644 4.91435e-23)
(1.00682 7.55635e-05 -5.16548e-23)
(0.67747 -0.363903 -1.17967e-20)
(1.01871 -0.0124359 -1.15509e-21)
(1.09494 -0.103383 1.44967e-20)
(0.997232 -0.00135053 4.30712e-22)
(1.01428 0.00486243 6.90094e-22)
(1.02918 -0.0530853 -2.01755e-21)
(1.00828 -0.000436699 7.94243e-22)
(1.01058 -0.00241232 1.21955e-21)
(1.01029 -0.000449581 0)
(1.00565 4.00141e-05 1.21887e-23)
(1.01106 -0.000379527 -1.06199e-21)
(1.00992 -0.000619053 -2.18507e-22)
(0.875883 0.165081 0)
(1.00936 0.000337922 0)
(0.97407 -0.074709 0)
(0.93741 0.157117 -3.19731e-20)
(1.01078 0.000617859 0)
(1.00946 0.000372902 0)
(1.00328 3.42134e-06 -2.31168e-23)
(1.03701 -0.0310801 1.57943e-21)
(1.02232 -0.0181757 2.56779e-21)
(1.0013 -0.100453 0)
(1.01143 -0.00371658 0)
(0.835544 0.235064 1.14499e-21)
(1.00993 -0.0235569 1.33958e-21)
(1.01239 -0.0104324 3.53903e-21)
(1.01127 0.000498858 4.66947e-22)
(1.01581 0.00100134 5.27647e-22)
(1.01591 0.00250022 -2.4879e-22)
(1.02588 -0.00801861 -4.42815e-22)
(1.02583 -0.0076793 9.83077e-22)
(0.0904995 0.296584 2.11282e-20)
(0.848956 -0.354787 0)
(1.00806 -0.000374665 0)
(1.01093 -0.000421369 -6.48824e-24)
(1.03395 -0.00837416 7.73408e-21)
(0.586582 -0.291334 9.87674e-21)
(1.01018 0.000627092 -2.7288e-22)
(1.01332 0.00132537 0)
(1.01532 -0.000122598 6.53729e-23)
(1.00986 0.000582033 7.43139e-24)
(1.01064 -0.000422045 0)
(1.01128 0.000492066 -4.31642e-22)
(1.01729 -0.0117937 -1.13128e-21)
(1.01256 -0.00183704 -3.57665e-22)
(1.03036 -0.107905 0)
(1.01146 -0.00369148 5.20701e-22)
(1.01513 0.00207475 0)
(0.927647 -0.00276382 0)
(0.137649 0.161697 -1.45735e-20)
(1.00424 -0.00414016 4.38959e-22)
(1.01111 0.00017327 0)
(1.01107 -0.00329748 6.06473e-22)
(1.00348 2.32617e-05 3.55383e-22)
(1.01352 -0.00379821 2.38448e-22)
(1.01114 -0.00388595 4.34469e-25)
(1.00022 -0.0565224 0)
(0.976287 -0.0498365 1.51391e-21)
(1.03506 -0.0077213 6.17008e-21)
(1.06202 -0.170335 -2.09147e-21)
(1.01098 -0.00321547 -6.43418e-22)
(1.05621 -0.0478178 2.97087e-21)
(1.01114 0.000803401 -6.37682e-22)
(1.00628 5.62978e-05 -3.16053e-22)
(1.07865 -0.0638962 1.31846e-21)
(1.01148 0.000818306 -2.3678e-23)
(1.00545 5.62849e-05 4.03817e-22)
(0.882484 -0.216867 6.69381e-21)
(1.00428 2.71997e-05 -8.39866e-22)
(1.03902 -0.0107787 1.3981e-21)
(1.04414 0.058472 0)
(1.00577 3.99579e-05 -9.52548e-22)
(1.01659 -0.00344246 -9.91205e-23)
(0.120991 0.215162 2.33894e-20)
(1.01237 0.000712615 4.80092e-22)
(0.974566 0.0848562 0)
(0.994214 -0.00393346 0)
(1.00583 1.99033e-05 2.80268e-22)
(1.00418 2.96635e-05 0)
(1.01488 0.00936875 4.6742e-22)
(1.02023 -0.0158455 -2.1226e-22)
(1.02192 -0.0192081 -1.36373e-21)
(1.01076 -0.00262888 -1.36386e-21)
(0.886493 -0.316723 3.6549e-21)
(1.03697 -0.199129 1.49264e-21)
(0.879084 -0.0271765 4.80757e-21)
(1.00843 -0.000511335 1.72761e-21)
(0.127354 0.286721 2.36239e-20)
(1.00974 0.000519203 0)
(1.00473 2.25149e-05 -3.36314e-22)
(1.01179 -0.00379321 0)
(1.01152 -0.00693467 3.01897e-24)
(0.821233 0.266373 0)
(0.910938 -0.0162063 -6.84273e-21)
(1.01556 -0.00108332 -8.40924e-22)
(1.03965 -0.00954069 1.80378e-22)
(1.00975 -0.003085 -9.86367e-22)
(0.670946 -0.177679 -1.19612e-20)
(0.97341 -0.0900781 0)
(1.01123 -0.00151144 2.46996e-22)
(1.02607 -0.01968 0)
(1.04044 -0.0232525 0)
(-0.0237754 0.26782 0)
(1.01847 -0.0302049 0)
(0.990568 0.0018026 0)
(1.00939 -0.000806665 -1.24355e-24)
(1.01041 -0.00655386 -3.31768e-22)
(1.03685 -0.083965 -4.68047e-21)
(1.00577 2.1811e-05 -3.02797e-22)
(1.00944 -0.000795364 -1.4543e-24)
(1.01015 0.000619204 0)
(1.00903 -0.000546989 9.44278e-22)
(1.02194 -0.0287265 8.49904e-22)
(0.998186 -0.0755197 0)
(1.04265 -0.0241958 5.48144e-22)
(0.865338 -0.196165 -1.00768e-20)
(0.992984 0.00590623 8.85901e-22)
(1.0146 0.0020055 -2.28227e-21)
(1.01177 -0.00384903 -5.49499e-22)
(1.00794 -0.000238267 0)
(0.959051 -0.0735415 6.78106e-22)
(1.18096 -0.0778518 2.6108e-20)
(1.01447 0.00189484 2.61898e-22)
(1.05173 -0.0681148 6.91789e-21)
(-0.0345113 0.21771 2.36497e-20)
(0.0887933 0.298084 3.01137e-20)
(1.00393 2.34125e-05 0)
(1.00455 6.68943e-05 3.94708e-23)
(1.01621 0.0143636 0)
(0.926199 0.0424709 0)
(1.00975 0.000516753 0)
(0.979947 -0.0142647 -4.51048e-22)
(1.01155 -0.00411478 5.04478e-22)
(1.0053 -0.000166906 0)
(1.05234 -0.0390238 -8.48068e-21)
(1.01328 -0.000713423 4.04804e-23)
(1.02631 -0.00746461 -2.36767e-22)
(1.01075 0.0020746 -4.02927e-22)
(1.00821 -0.000567869 0)
(1.01243 0.0033795 0)
(1.00438 -0.07805 -1.29447e-21)
(1.07604 -0.065187 9.66257e-21)
(0.885918 0.237088 -6.27979e-21)
(1.01178 -0.00369111 -8.17014e-22)
(1.01078 -0.000415535 -6.53039e-22)
(0.854925 -0.17015 -2.98466e-21)
(1.01342 0.00138234 6.69922e-23)
(0.839984 -0.17828 1.45082e-21)
(0.882862 0.18393 0)
(1.01153 -0.00411528 0)
(0.740137 0.202773 0)
(1.01029 0.00403669 -2.10633e-22)
(1.01102 1.53077e-05 4.59224e-22)
(0.77054 0.221019 -8.65877e-21)
(0.883428 -0.0646254 1.55288e-23)
(0.886704 -0.0633776 7.63536e-24)
(0.621926 0.0402159 3.17715e-21)
(1.0204 -0.0152904 0)
(0.817879 0.198382 6.00532e-21)
(1.00927 0.000311084 -4.31411e-22)
(0.866971 -0.0340696 0)
(0.175752 0.270702 3.52884e-20)
(1.00881 -0.0284932 -3.41788e-21)
(1.01438 -0.00131479 -6.70327e-22)
(0.868534 -0.191047 -1.21347e-20)
(1.03937 -0.0226193 0)
(1.05808 -0.0016201 -1.04932e-21)
(1.06498 -0.172831 4.83518e-21)
(0.777887 -0.222465 -1.32867e-21)
(1.02431 -0.0043044 -4.11687e-23)
(0.871804 0.0686626 0)
(1.00607 5.68098e-05 7.46551e-22)
(1.04882 -0.0715423 1.20364e-21)
(1.05619 -0.116687 0)
(1.00658 5.71811e-06 3.50594e-22)
(1.02997 -0.0428706 0)
(0.961955 0.0472591 3.14277e-20)
(0.961444 0.0775042 0)
(1.02003 -0.0108625 2.48833e-21)
(1.01751 -0.0119413 -1.45612e-21)
(1.00999 0.00063046 0)
(1.02342 -0.0119797 0)
(1.0189 0.00238327 -9.27859e-22)
(1.01766 -0.0260522 4.0855e-21)
(1.00043 0.0561993 -5.13725e-21)
(1.01131 -0.000326403 0)
(0.852025 -0.156389 3.7595e-21)
(1.01492 0.0017515 2.72543e-21)
(1.01159 -0.00464239 1.85972e-21)
(1.05127 -0.0267619 -1.79096e-21)
(1.00936 0.000374371 0)
(1.03695 0.000514548 0)
(1.01371 -0.00223002 8.54174e-23)
(1.0091 -0.000553193 0)
(0.855448 -0.322945 -5.73078e-21)
(1.00796 -0.000303434 -1.16541e-21)
(1.01286 -0.00469938 -8.82329e-22)
(0.91618 -0.0467303 0)
(1.09511 -0.0749968 -3.70083e-21)
(1.10429 -0.064949 4.2109e-21)
(1.01802 -0.0018514 -3.49472e-22)
(1.01184 -0.00516897 -2.08025e-22)
(0.986284 -0.0561849 -1.11848e-21)
(1.01232 -0.00557903 0)
(0.912413 0.0655011 3.40885e-21)
(1.04387 -0.0201949 0)
(1.01883 -0.0126006 9.21312e-22)
(1.02941 -0.0142306 1.55961e-22)
(1.01157 -0.00407043 1.44579e-21)
(1.00993 0.000592266 -1.9996e-22)
(0.616684 -0.327868 -1.19825e-20)
(1.00941 0.000397392 7.64877e-23)
(0.244533 -0.0324946 0)
(1.07027 -0.188279 -1.3449e-20)
(1.03572 -0.00728966 9.28833e-23)
(0.637272 -0.194261 -2.5835e-20)
(1.00689 6.99689e-05 -3.82037e-22)
(1.00108 -0.00468603 4.50248e-22)
(1.02 -0.0115356 -6.30139e-23)
(0.557466 -0.360459 -1.13012e-20)
(1.0451 -0.0183737 8.61066e-21)
(0.991688 -0.0740364 1.2197e-21)
(0.8865 -0.0904808 -1.35733e-21)
(1.0045 4.94738e-05 2.57989e-22)
(0.913459 -0.04008 0)
(1.00765 6.90218e-05 0)
(1.05386 -0.162219 -2.6463e-21)
(1.01222 -0.00566945 0)
(1.02547 -0.00987051 0)
(0.811235 -0.129198 -5.07316e-20)
(0.91471 -0.0824056 0)
(1.01333 -0.00214981 0)
(1.01552 -0.0082341 7.09441e-22)
(1.02196 -0.0160144 0)
(1.00924 1.6069e-05 -1.44439e-21)
(1.01778 -0.00183156 0)
(0.927442 -0.141503 1.2715e-21)
(0.0953787 0.197955 2.41933e-20)
(1.01325 0.000216652 0)
(1.00911 1.34039e-05 0)
(1.00764 6.6388e-05 0)
(0.613024 -0.324223 0)
(0.91248 -0.0103629 -3.82664e-21)
(0.981604 0.0167577 2.11268e-21)
(1.00823 -0.000541371 1.80388e-24)
(1.02075 -0.0216314 4.70387e-22)
(1.02507 -0.00993559 1.4988e-24)
(1.01176 -0.00514745 0)
(1.05722 -0.0338174 0)
(0.849595 -0.0441208 3.40911e-21)
(1.01129 -0.00142849 -5.0653e-22)
(1.05413 -0.0687332 -1.39077e-20)
(1.00507 -0.120054 2.51649e-23)
(1.01652 0.00447122 0)
(0.986665 -0.0211004 -1.14639e-21)
(1.01895 -0.00423234 -1.07581e-21)
(1.01588 -0.028693 1.71976e-23)
(1.01124 -0.00126047 0)
(1.0129 0.000607342 -2.53006e-22)
(1.0436 -0.0300326 1.03073e-20)
(1.01155 -0.00442034 -1.94692e-21)
(1.03934 -0.0853459 -5.48709e-22)
(1.01574 -0.000403654 -5.87857e-23)
(0.593506 0.0431006 -1.88653e-20)
(1.00716 -0.000256818 0)
(1.04388 -0.0206491 2.23299e-21)
(1.04962 -0.109708 -7.22842e-22)
(0.95658 0.0608773 -9.17923e-22)
(1.04641 -0.0705641 0)
(1.00632 0.000106402 0)
(1.0116 -0.00389564 -2.09918e-21)
(0.879898 -0.134547 0)
(1.01818 -0.0267283 0)
(1.05174 0.00115302 0)
(1.00878 -0.000914597 7.67369e-22)
(1.01115 -0.00348714 -5.55733e-22)
(1.01768 -0.0110133 -2.64912e-21)
(-0.0200787 0.14434 -8.82339e-21)
(0.906793 -0.0715552 -2.74107e-22)
(1.01294 0.000304525 0)
(1.01319 -0.0023679 0)
(1.02023 -0.0123256 -7.94333e-23)
(1.01543 -0.00796921 3.44118e-22)
(1.01092 0.00282429 -4.23669e-22)
(1.01301 -0.00392722 -6.37386e-22)
(1.00574 2.68847e-05 1.5382e-24)
(0.877283 -0.00697013 -5.12194e-21)
(1.01369 -0.00227208 0)
(1.01681 -0.00365462 0)
(0.881903 -0.120027 0)
(1.00847 -0.000448207 0)
(1.00058 -0.236493 0)
(0.937243 -0.0468211 -6.39629e-21)
(0.713562 -0.126877 0)
(0.881976 -0.281365 0)
(0.889169 -0.187119 2.9746e-21)
(0.0805954 0.218542 -1.29488e-20)
(1.01325 -0.00392458 1.26792e-22)
(1.01124 -0.00357564 1.86295e-21)
(1.01807 -0.0123134 -1.19817e-21)
(1.01318 0.000126023 6.56415e-22)
(1.01134 -0.00186162 0)
(1.00691 5.5411e-05 -6.16717e-22)
(1.00648 6.0582e-05 -1.30416e-21)
(1.02347 -0.0115644 4.56758e-23)
(0.747327 -0.181579 -3.24573e-21)
(1.11447 -0.130111 9.82936e-21)
(0.997677 -0.113773 -3.3348e-23)
(1.01332 0.00391179 2.44687e-22)
(1.011 -0.00324953 0)
(1.00909 -0.024956 -2.95021e-22)
(1.00678 -0.018857 0)
(0.977473 -0.0594796 1.74109e-21)
(1.00395 7.43337e-06 0)
(1.01104 -0.00406066 -8.49573e-22)
(1.01287 0.000605689 -2.48911e-22)
(0.0448487 0.254138 -3.86713e-20)
(1.09461 0.0640966 0)
(0.877317 -0.22884 0)
(1.00602 -0.00014758 0)
(1.04746 -0.119308 -3.34752e-21)
(1.05629 -0.15182 4.94599e-21)
(0.986026 -0.0197298 -1.34583e-21)
(-0.0339181 0.150632 -9.50295e-21)
(0.780272 -0.166102 0)
(1.01757 -0.0115698 0)
(1.01777 0.00501568 -5.74966e-22)
(1.0155 0.002066 0)
(1.0943 -0.124874 -2.88336e-20)
(1.01858 -0.00871181 4.4861e-23)
(1.00965 0.000418967 -3.45824e-22)
(0.99651 -0.0966958 0)
(0.901549 -0.232451 -1.90879e-20)
(1.01305 -0.0033753 -3.91095e-22)
(1.04492 -0.00276219 1.16254e-21)
(1.01234 -0.095998 -1.64692e-22)
(1.01418 -0.00206631 -3.3744e-23)
(1.01225 -0.00369773 2.0624e-22)
(1.0144 -0.00186926 0)
(1.01144 -0.00238567 -7.57214e-22)
(1.01532 -0.00494335 0)
(1.01243 5.69342e-05 -2.92478e-21)
(1.02541 -0.0391873 7.69637e-22)
(1.01436 -0.00510615 0)
(1.01847 -0.00880099 -4.87298e-23)
(0.909174 -0.227346 0)
(0.0290702 0.268601 4.47711e-20)
(1.01478 -0.00420187 2.95501e-22)
(0.931727 -0.153519 0)
(1.17374 -0.158298 2.23114e-20)
(1.01395 -0.00974679 0)
(1.01509 -0.00204446 8.41238e-23)
(1.01342 -9.2992e-05 1.63658e-22)
(1.00788 0.000118526 -5.00105e-23)
(1.0164 -0.0121933 -3.55488e-22)
(1.01384 -0.00987593 6.1668e-22)
(1.00532 4.38582e-05 0)
(1.02544 -0.00828787 1.93324e-21)
(1.01261 -0.00016752 7.24228e-22)
(1.0198 -0.0086174 2.9784e-22)
(0.853357 -0.1568 4.90479e-20)
(1.0257 -0.031349 -1.49345e-21)
(1.00601 2.34293e-05 -6.45436e-22)
(1.01142 -0.00229119 0)
(0.89841 0.26778 1.0439e-20)
(1.02477 -0.00443284 1.23861e-21)
(1.00977 0.0004192 3.53618e-22)
(0.527491 -0.363675 3.48437e-21)
(1.01154 -0.00180656 -5.06677e-22)
(1.02735 -0.0508486 -1.66211e-22)
(1.04255 -0.0300886 -1.24337e-20)
(1.01703 -0.00341151 -1.62685e-22)
(1.0087 -0.000860252 4.93009e-22)
(1.00953 1.4711e-05 8.56629e-22)
(1.01955 -0.0124739 -8.37122e-22)
(1.07468 -0.0498174 4.69774e-21)
(1.00558 3.56656e-05 6.70167e-22)
(0.887028 -0.192874 2.20551e-21)
(0.976208 -0.0652241 1.56618e-21)
(1.04223 -0.142459 2.87235e-21)
(0.766883 -0.129837 -3.35925e-21)
(1.02021 -0.0117785 -8.84695e-24)
(0.975293 0.0423983 -2.26011e-21)
(1.00936 0.000331435 5.65392e-22)
(0.985636 -0.108507 0)
(1.03535 -0.00855877 5.36697e-23)
(1.0111 -0.00226344 -1.45853e-21)
(1.12356 -0.140718 0)
(0.915687 -0.201483 -1.8268e-22)
(1.01134 -0.00597056 -1.86254e-23)
(1.0794 -0.229603 1.14228e-20)
(1.1329 -0.26387 -1.76053e-20)
(1.00717 9.72118e-05 0)
(1.05114 -0.0377067 0)
(1.00989 0.00043602 -3.9223e-22)
(1.01263 -0.000470275 -5.21986e-23)
(1.02199 -0.0300723 -1.78027e-21)
(1.00959 -0.00506828 -1.3312e-21)
(1.00717 -0.000242067 -9.7009e-22)
(0.997042 0.0022952 0)
(1.01087 -0.0017221 -2.6783e-24)
(1.01114 -0.00034556 -1.82283e-21)
(0.856885 0.0797725 9.6017e-21)
(1.01146 0.000679115 -4.32775e-22)
(1.01132 -0.00192847 -8.08304e-23)
(1.00874 -0.00086544 0)
(0.914891 -0.171978 5.76922e-20)
(1.01148 -0.00232944 0)
(1.01353 -0.00147218 0)
(1.0242 -0.0387974 2.13007e-21)
(1.00052 0.144943 0)
(0.931687 0.197577 -1.13307e-20)
(0.930588 -0.191004 -7.62407e-22)
(0.874737 0.124502 0)
(1.01068 -0.0025275 -1.27425e-21)
(1.00961 0.000485851 1.25832e-22)
(1.01724 -0.00326029 1.7404e-22)
(0.766167 -0.222723 0)
(1.00436 -8.68274e-06 -6.91336e-22)
(1.00997 -0.00143929 0)
(1.03338 -0.0196194 -1.35062e-21)
(1.01252 0.000539463 7.40792e-22)
(1.04192 -0.149973 1.59772e-21)
(1.01961 -0.00902109 -5.36167e-23)
(1.02237 -0.00621411 0)
(1.14518 0.0304988 0)
(1.0125 -0.00360073 -3.4418e-22)
(1.09742 -0.0695481 -4.36884e-21)
(0.837587 0.285581 -1.43705e-21)
(1.00962 0.000495809 1.18325e-22)