/*--------------------------------*- C++ -*----------------------------------*\
| =========                 |                                                 |
| \\      /  F ield         | OpenFOAM: The Open Source CFD Toolbox           |
|  \\    /   O peration     | Version:  v2012                                 |
|   \\  /    A nd           | Website:  www.openfoam.com                      |
|    \\/     M anipulation  |                                                 |
\*---------------------------------------------------------------------------*/
FoamFile
{
    version     2.0;
    format      ascii;
    class       volScalarField;
    location    "400";
    object      ddt0(ReThetat);
}
// * * * * * * * * * * * * * * * * * * * * * * * * * * * * * * * * * * * * * //

dimensions      [0 0 -1 0 0 0 0];


internalField   nonuniform List<scalar> 
18758
(
-47.5161
135.13
-0.047753
-72.3173
103.807
-0.0162081
-1.78599
-5.36978
79.6396
14.6636
60.8184
53.1428
-238.952
-5.85543
-1.01574
0.0645859
42.7198
0.00136511
-1.27285
-11.1058
3.83793
52.6087
-0.0442689
-0.0185657
7.76158
-52.5808
12.6022
-82.8971
-37.6243
74.1356
-399.318
17.9979
2.80516
190.954
61.5727
42.9317
-181.925
72.8278
-187.955
-3.22531
-9.97371
7.7421
7.32944
2.74267
-0.355127
-6.61301
5.70073
-109.915
3.42742
-63.8197
31.152
15.9493
-44.9599
-11.985
65.8849
-164.211
10.8057
-22.6636
-62.8015
7.99159
-0.209256
0.977152
18.5775
25.7723
-0.145872
-14.872
0.150574
-0.0812591
-74.5542
-0.0282596
11.8072
-183.761
0.092047
23.9921
36.0048
-401.484
267.086
19.5295
42.1176
8.57449
3.25658
-237.812
22.6618
40.0164
2.18753
12.3659
-18.505
14.4405
18.0396
-12.7071
1.76491
-0.114627
-2.1101
3.53814
0.0944253
0.00416008
-0.154184
-28.713
22.2647
0.402002
-468.419
-6.4253
-0.0800629
-0.275748
-15.0143
19.0435
-87.1159
3.55369
211.969
-28.2606
-0.126106
57.0433
-19.3281
0.0838709
-16.4145
-5.34466
-45.5983
-1.8775
-1.99708
-9.31987
0.0272288
358.713
-3.74132
0.0446939
0.950039
-17.2868
2.48536
0.0371762
-42.9521
0.486028
-199.876
0.139961
30.5481
16.1154
-4.8757
0.144059
720.351
-6.54485
-94.9151
-9.00889
-20.8525
-41.9776
-22.2339
214.117
0.848318
-7.43665
-2.8763
-30.0024
99.6236
0.389681
0.486376
0.83042
-1.34549
11.1471
6.40905
14.8452
2.41129
-49.8806
19.2712
76.9025
-19.4706
1.36704
2.69482
2.25612
-4.14819
-1.11336
0.761303
-11.2129
0.50149
34.8864
1.17211
-0.00862504
-30.2668
-12.994
98.0095
0.456625
-0.0267922
20.2453
139.669
-5.85441
0.00688038
-34.4342
3.97314
-4.21072
-8.16807
-0.583773
79.0821
-16.8093
4.02015
36.9501
0.763711
-0.46572
-34.377
33.0895
-0.0252372
-4.50977
-148.174
-2.09192
4.50799
0.0212092
-7.6445
-37.5227
46.1889
0.0937634
0.063093
3.02152
1.36811
39.3703
0.469729
0.473726
-0.0428996
-11.2281
-8.00846
-4.57457
-8.19921
-0.21677
-0.403048
-4.09058
-0.0397508
-30.6987
-35.6236
-3.24882
-33.027
-34.6252
39.3289
24.4154
31.486
37.3104
-15.7897
0.420022
-29.1892
-11.5809
127.108
0.259522
-0.096068
-6.778
153.418
2.66026
-68.1506
1.31565
-0.203566
112.295
-82.7166
0.0566296
-1.72185
-3.84152
-0.0793986
0.208123
4.37945
0.427631
1.40208
-0.930782
94.4223
-4.67327
0.0138192
116.727
-4.33891
-105.275
0.360502
-37.103
-18.262
0.024079
-0.397529
-30.2266
-29.6848
-35.6022
0.336349
-65.9833
-1.46885
4.2716
-3.5881
242.1
3.24082
0.643076
-2.71972
6.47085
0.696874
-0.029373
-5.02577
1.89495
0.149563
0.201082
-0.677982
10.8428
-1.41114
0.0737579
-0.0176009
-76.9667
-0.156297
-0.283567
0.0468395
-4.78331
10.733
0.029859
0.0324275
-5.30889
26.7638
-0.00271931
-0.023147
0.520388
-11.5579
0.109257
0.061101
-28.7033
0.993514
0.00777494
-381.386
19.8889
0.00766459
154.115
0.181032
-29.4012
-115.297
-54.3353
-82.1202
-227.202
-0.0638894
-1.74845
-21.8211
-0.354781
-50.3908
20.6489
-0.453845
0.175461
-0.0417383
0.471179
-7.22031
0.221503
1.29719
138.875
4.81735
15.6125
0.0714565
-4.36483
0.144466
0.0201078
-7.67903
-2.1214
2.56804
4.18863
-7.00124
8.15171
423.971
-32.835
-3.93199
-12.6316
15.3374
0.187852
-34.2688
-4.68177
130.689
-11.6986
1229.62
-0.694522
1.67176
29.1595
-26.7793
6.903
5.17664
-8.99258
2.85015
185.481
-100.697
8.4972
29.8201
-93.6955
0.00484389
-14.2411
-31.8495
-105.415
2.88557
-2.5731
60.5009
52.5016
-19.4525
509.095
0.0188095
-22.0889
-31.4477
22.4905
15.9348
0.185804
-0.023321
80.5148
7.06675
-16.0093
-3.20958
1.14794
4.69023
57.3973
-44.742
-0.104047
-5.33964
-15.1296
57.5333
0.0410928
-10.462
-0.489527
0.0864928
0.0521044
-10.1055
72.8826
-195.835
-10.8795
-52.6094
-49.7451
0.498989
-126.95
-44.4648
-9.73882
-0.0657661
9.04354
-7.31908
4.76822
126.541
-95.6117
-9.77207
-4.11384
219.007
-0.363317
-15.4895
-0.0102372
5.28435
-25.2471
-21.7431
0.0423705
13.974
-17.5795
-0.472821
24.9284
-0.00857872
89.2195
-0.0612884
0.0647708
104.324
-4.85029
2.62778
0.0773495
12.9753
15.1096
977.68
328.928
-0.0536198
-18.693
-0.0126591
-11.1423
21.6947
-0.463809
-126.329
-0.0498129
5.33753
-0.0408284
-4.6021
3.19567
-0.613116
2.13222
7.02276
-0.0238677
-11.6394
1.33438
0.112839
-0.101578
-0.467539
-37.2653
-2.89957
-1.38042
-36.3859
-80.7467
13.3999
16.6666
-728.245
9.61687
-2.7474
-92.8268
226.824
40.6626
4.43555
-31.2009
14.03
-14.607
0.0802156
-2.97327
-0.128613
-0.285096
-0.142801
-0.208996
-144.673
-0.013035
0.00532452
-6.75071
0.0111745
-0.0876918
-1.40255
3.15095
13.2368
-3.03159
3.06728
22.2367
0.0377136
-14.5471
-2.91707
-3.0304
-52.1461
-0.37695
-0.784485
-2.62602
14.5367
65.6613
5.04047
18.5492
7.0497
-0.0260857
0.0512288
-21.4971
3.21434
-12.886
35.4213
-1.04824
-61.1693
0.138951
-0.0187457
-0.0875776
-0.118278
0.830028
-0.312885
-2.79757
0.0121029
-3.6872
3.05523
-0.00222324
0.010449
-0.00983505
-5.68351
-34.685
199.01
0.350239
43.3469
43.2008
33.5952
1.03231
-15.3794
0.00547256
0.140279
-0.643094
-0.278243
-7.92755
0.1267
0.400531
-4.81645
-10.0948
-0.00231089
-0.254794
-0.0624358
-0.00932614
0.0226577
1.74374
-9.771
0.118796
-83.2743
0.169545
-4.76362
0.521228
-3.47026
0.593547
1.81905
0.855432
-0.0729918
-1.08743
-7.54635
28.7473
-10.3887
-2.82037
-14.3327
0.236856
-29.0245
3.08279
0.0501894
-14.3028
-0.0381193
-0.070553
7.02795
0.0268964
-3.80514
22.9729
0.0720033
-0.927653
4.72699
-2.35885
-48.3842
7.2068
0.0341269
-0.0548782
24.984
13.7112
-50.8462
0.463316
-25.2417
-20.9474
4.50897
0.0421889
0.349642
-0.018928
-0.0104321
0.41727
-10.2968
-13.5111
-16.0269
-24.9674
-7.06747
-7.18795
197.548
34.3295
-0.467602
-522.296
-6.03346
2.31887
30.1526
139.431
0.111483
-12.7877
-64.8456
0.0143779
0.113025
0.013021
0.171461
19.3879
428.899
117.905
9.75289
97.8847
12.9879
0.629216
0.248135
-9.89613
117.727
-1.93512
-53.5813
0.767225
-0.173542
-0.0383644
-0.0568119
26.5566
59.8207
-0.0172072
-6.22358
1.72611
-0.0857379
-22.9344
-0.423508
-1.54309
-2.36471
-0.221988
75.0194
1068.42
-16.8581
-25.7211
-5.16472
-0.342089
-1.8765
-0.430146
-2.69098
-6.92887
2.14311
335.397
-2.77113
1.0121
571.872
-9.30677
-10.8949
-33.2977
9.61819
19.2038
-0.00729061
-9.20396
0.473414
-20.6027
-8.01216
2.37346
-7.66785
4.02655
77.1772
2.32581
-1.46342
13.921
0.0154931
-43.1608
-16.4729
0.146147
-28.6352
348.578
-162.19
18.468
-11.8777
-0.00444002
-3.39767
-9.54403
-11.1589
37.0195
-1.69106
-4.15662
4.95531
4.34562
-8.53463
0.0149681
-66.2018
-0.392008
0.108412
-4.97369
0.139208
-7.66067
12.7894
-8.59266
13.032
-0.592516
3.64231
-20.0673
0.780227
52.9714
-4.36169
-6.92554
-0.64675
5.0801
-0.0301687
-14.1927
0.0173934
-14.8734
-24.4966
-4.22674
7.67431
0.0320251
-7.34059
21.5508
95.1362
-14.4735
2.61761
25.791
0.0174731
12.9098
0.0541173
118.725
1.87077
0.912211
67.495
12.1574
-0.167685
-1.82839
12.3246
-0.0256112
-0.816619
-25.1546
1.96624
-6.39291
-0.0334926
0.0936134
272.122
-6.9232
-75.0814
-0.0866437
443.802
1.87092
3.64215
-14.7158
25.6272
-0.276496
-53.0047
44.6455
-5.8047
9.59929
-0.85727
30.0639
-0.208365
-4.3899
-17.2544
5.01398
-31.7348
-0.433956
15.5787
0.0986551
-4.4881
-41.8542
-271.348
-40.6926
-0.0650951
3.92885
12.1522
408.777
13.5248
0.369982
0.708352
23.7973
-0.776326
14.587
-5.16029
0.518996
5.48384
-0.921974
0.403979
0.301605
0.128849
9.11346
0.99472
0.0556995
22.3557
0.147842
-40.925
-22.664
336.742
1.38326
-42.8728
1.67935
0.348097
0.59236
-12.7011
-8.40236
-0.354978
0.0914139
-0.054717
-4.71903
15.9076
-10.5089
86.576
68.7638
0.755184
64.3297
105.625
-24.8316
-0.0224044
-3.77763
-3.50653
3.69708
87.4696
-0.314603
0.11358
-183.316
-53.6365
4.19433
-0.283987
252.489
-9.8463
0.543174
-8.42943
-85.7846
1.18326
-0.0405322
-42.7808
11.4755
0.322967
11.2983
3.36714
0.798731
0.173071
-0.182048
-6.57433
2.49584
12.5549
-17.3716
-0.619145
1.27031
9.73578
3.0577
-3.20142
-24.9654
46.359
-14.8289
-10.7647
-11.1522
0.0439111
-11.4761
-9.28682
-0.0195798
0.768385
11.2176
1.4675
93.6067
4.11072
-0.177846
-4.8598
-69.9948
-1.47093
-0.033471
34.8955
-0.15365
-77.3455
-14.0867
-0.482403
0.199125
0.0631856
4.98394
-16.4249
-0.0865168
-46.4902
-29.7106
-219.711
121.445
4.51363
213.141
0.00861284
26.6754
-3.77181
-4.24872
5.87661
39.1581
0.951335
31.7326
-252.112
0.040503
-26.1985
-0.0353948
-0.301222
9.43313
4.58619
-0.371152
0.213638
-0.132562
-1.34776
44.612
3.89522
-0.0886828
0.307659
161.217
-2.79165
0.91607
-10.5832
38.9102
-86.641
662.192
4.45607
0.213175
0.0164122
-0.403235
8.19725
-0.0675586
-0.21236
-2.63895
-2.31214
99.5634
0.823141
-0.288428
31.4192
-0.325638
-19.0754
-528.551
0.00128672
-0.0895275
82.0744
-2.22116
0.319635
-64.4932
0.312059
-0.535147
-191.861
-0.103643
-9.04335
-14.4344
-0.0439046
33.5768
0.138057
-7.66227
1.60434
74.1659
4.86689
11.9408
-0.466264
0.19581
21.0732
28.4252
-17.7106
-13.7533
-11.8763
1.64302
32.4325
0.0015598
1.40902
0.088118
-19.4043
11.9829
-4.99595
-11.3856
0.837636
50.0117
0.0308918
96.4034
3.75982
29.0278
38.9411
-0.0770814
-0.0310687
0.159249
62.6627
54.476
1.88304
629.453
0.269409
-0.386861
24.0456
0.552184
54.8233
0.0581346
6.2894
-0.130126
0.0962497
-0.193159
0.183446
-14.9381
-5.91723
20.8609
-37.7147
5.76367
0.224258
30.6604
-0.510489
12.9993
-0.11277
31.9529
-10.9592
102.129
0.892205
-1.17175
0.125193
10.774
-0.0900529
-14.902
26.9075
-0.430674
-9.34019
0.383023
0.12575
-19.012
-3.23267
46.2685
1.57015
-2.34279
1.34819
-6.37948
46.6969
439.217
2.23851
0.194024
-1.20392
7.80915
0.0843766
9.4542
-5.97148
0.607318
-2.42068
-2.51158
-7.93821
-9.35804
0.0442219
-3.32889
155.533
1.7381
-10.4489
105.582
7.21567
2.95731
0.0101178
-1.70411
0.4116
13.2811
57.5199
-2.12333
-41.6912
-112.354
21.6055
449.058
-6.46198
-0.661271
-38.8298
-0.440252
-1.04512
-71.2189
-1.36703
0.0144094
-24.8772
-3.82552
-0.0361722
0.0469734
1.51714
-0.0424252
1.23373
47.5438
-10.7045
36.8633
-0.548061
-14.449
1.49823
-67.7932
1.41271
0.69089
0.095422
-2.13926
-1.73351
1.20174
-45.8491
-0.0307471
-0.0837657
-0.0311725
2.20382
-3.81868
205.029
-41.4642
-56.2778
82.5941
-108.347
-3.92599
-2.12461
21.0905
-42.691
-0.531493
-3.25973
0.0352337
-0.207518
2.42835
5.07913
41.7358
59.0542
-0.0320671
0.0327523
18.9429
1.27673
0.946133
0.0157081
-4.28187
0.773468
307.613
29.9267
-18.669
24.8964
0.538241
0.383758
-43.0067
-10.5425
0.0476043
-1.81352
1.19703
-13.2549
43.1548
-36.0432
-24.2642
-0.0583766
0.0375059
3.91783
-0.0267906
-29.2377
-13.7163
8.76783
49.5761
-0.756559
1.80028
2.48173
-1.40909
-5.50402
11.1582
-3.78121
11.5351
-8.38303
26.615
-36.5966
-0.00444943
-0.287594
2.99184
27.0872
0.226981
-0.084413
39.8941
-27.2012
-24.6597
-24.5292
-24.4529
-17.1895
4.17364
-7.16502
-0.157918
-21.5354
-7.63802
0.0176892
-12.0393
-15.5948
1.87663
0.861366
7.48038
376.429
0.0152549
0.421546
-0.733788
-35.1131
-6.4531
-41.8249
-1.17512
-39.0744
-0.544984
0.249335
-1.47454
11.9663
106.712
1.23128
-5.84694
-24.1633
-168.592
-0.601554
-15.9726
4.36657
0.594942
-7.63451
18.3445
5.91276
47.1064
-0.0585857
0.0153017
-15.8964
-5.25437
-20.173
-0.137467
-53.9191
-1.02255
0.218854
-0.296391
115.557
-8.3654
-19.4754
660.338
7.75247
-23.0383
-23.0754
-261.624
-19.059
11.0294
8.33242
-4.29574
16.4161
-0.426008
0.179451
19.1039
-0.0534074
-0.937628
-0.0913323
-0.152179
-4.07056
1.7314
0.392798
26.9484
-0.0155637
-3.09388
0.159794
0.828426
-0.744966
11.913
-14.162
-3.72273
100.043
95.039
0.468551
24.0167
0.413644
-0.0302635
-4.74414
-4.49918
-14.7538
-7.49706
10.7739
-14.1716
0.0421504
-0.169945
0.349881
-1.62981
-0.73424
-0.349607
8.29763
-11.5505
-0.762835
7.0728
11.7304
-14.9936
-17.4563
0.155775
-15.864
-8.42588
2.21136
16.7336
37.1485
-13.3267
318.231
0.43133
-5.6973
-24.1913
-54.4328
1.65506
0.217045
-6.96371
30.9822
-46.7059
0.261589
6.18541
0.120476
-0.615586
-0.0273317
-18.8294
98.6712
382.708
-1.75412
-0.0549801
-2.92034
-0.0513399
-19.478
-0.795186
0.318099
-33.9486
28.005
3.87601
-0.0965424
-0.251018
-1.35619
34.4644
0.0228692
-0.650183
152.263
-0.149995
-0.505084
0.0237337
-0.854712
-0.153898
-0.144798
0.0147845
30.3115
-9.40254
57.2165
-0.577124
-1.09793
34.5207
54.6074
229.997
-0.981004
-11.9072
-127.466
-2.80241
-10.2571
-34.6731
-0.83087
18.566
37.9547
0.112806
0.130211
-1.64959
0.0226802
17.919
11.6158
-10.4286
17.4939
-0.560147
-8.15264
-3.93421
-37.8211
-0.00842903
-24.6299
51.8782
4.81943
28.3449
0.10203
-0.489641
0.774485
-34.109
0.362078
-0.0456191
-5.50744
0.361895
0.082651
-2.49577
-114.477
-4.49124
-2.41779
-2.26937
5.88825
-6.86269
0.576427
5.0953
1.29829
0.135583
7.03514
9.89683
3.14665
2.11621
9.61319
-21.0292
0.290279
-9.39235
69.5304
13.1419
0.475612
91.2562
-32.6617
-17.8249
0.475137
0.455225
8.42831
119.089
-11.1298
-9.80862
-0.151939
-33.2901
-189.847
6.20521
9.25979
-28.932
23.5886
-52.5733
0.383607
-0.0220448
-0.394837
-12.0025
-0.240736
0.336861
10.8297
-4.36802
5.02221
0.287801
0.291939
8.25276
189.811
0.51787
0.759474
-11.5329
-45.7946
-5.81917e-05
0.57029
186.763
-46.7289
-0.485895
0.327682
-1.0188
12.9185
-23.6321
-224.474
0.105445
25.2938
14.2608
0.100559
-112.803
512.974
-3.80701
3.69568
0.0836039
-1.23105
0.0818659
0.693725
-6.77215
-2.94561
0.0157052
6.87779
154.956
-0.158464
-0.0885421
0.9729
17.8819
0.132091
-10.8791
84.3348
-3.61974
21.3513
-21.1384
0.166835
0.3559
-19.3101
-31.2641
10.4947
-15.266
0.142386
8.304
-14.46
-3.24555
0.274755
-0.216969
-10.2474
0.273387
4.65507
0.12061
5.24162
-0.156382
-0.619551
-0.749136
-63.7453
-0.0522147
0.41776
-4.71778
6.97769
0.253355
-15.3869
-3.61606
-134.68
19.6195
-19.5169
-14.7123
-21.3873
-6.07811
-0.106157
-0.344068
-10.0175
8.96618
-29.6859
2.71421
37.7472
-3.97082
79.465
68.0802
0.470178
-2.11245
-0.513539
8.4733
-13.4221
-2.67246
-3.58869
-7.85099
-6.13717
63.9
-0.0541283
752.381
-51.2563
0.103346
-281.91
48.6307
-1.45416
7.05445
23.3406
-248.371
0.528468
-164.254
-13.4343
-0.84563
-341.647
45.4852
56.3176
0.0447
435.95
6.55493
-0.137756
-15.3692
-3.25406
-6.04313
12.3461
-770.433
134.268
38.7643
5.78827
0.131219
140.093
-15.3863
2.4399
255.193
-1.0742
-1.98314
-0.246565
0.377304
-71.9334
4.72602
72.3914
-1.67786
0.569364
93.0133
-3.13373
3.16895
-24.8625
-42.2718
-0.00336256
-4.80985
-6.23706
-0.022556
-9.99324
-3.52117
13.0785
9.13318
254.048
41.7716
-4.26016
1.49584
1.98608
58.5973
-161.209
0.0121211
0.049643
-204.946
150.712
22.8324
-0.307176
0.364739
0.0820141
-0.00749379
15.8299
-8.8722
-0.559394
1.27144
-0.0608807
-13.6889
-16.9169
175.247
-3.17483
-10.1972
0.139833
0.488996
-0.593499
1.24128
10.4989
3.53402
-0.0149654
0.221001
32.472
-16.0943
0.87289
6.48582
162.717
-18.9965
92.6467
0.0802931
-0.163375
-84.9641
-0.00324614
-0.0602299
19.6799
0.364188
0.0472266
0.00735342
0.234421
-7.25834
0.385953
28.0975
-51.6123
-15.919
81.5118
1.70611
24.4276
0.0309052
1.50221
-6.79404
-0.741791
-2.41639
0.209459
2.76685
-2.93843
-0.0253957
12.1577
-7.43298
47.5799
-0.170227
-2.42849
59.4307
43.5764
22.4119
-3.8094
0.462934
-0.0196805
20.6164
2.13559
-0.254532
-45.3376
59.4842
-0.531102
43.8178
-9.74568
-8.78672
-173.124
6.46419
3.62152
-16.6788
-0.274124
32.8958
-4.3664
-7.29042
-21.9957
-11.0957
-13.635
-4.82295
-25.2337
0.0517027
196.183
-56.5992
5.54043
0.345391
-1.12122
29.7181
1.54066
99.7707
5.72785
43.779
73.7035
-96.3301
162.765
1.51598
-0.48296
-0.123715
-5.00418
6.88023
51.078
5.46157
-0.272651
-3.05889
0.0234089
0.233491
-0.724078
0.00557815
-257.07
1.01796
0.0172506
-3.13017
-3.34093
-0.757055
-4.42337
-0.125658
-264.412
20.2603
-4.32218
-21.7918
-273.366
1.37215
4.18818
172.05
-0.00947269
-49.9394
-16.4352
-111.513
-19.5113
0.0219781
-41.1464
-0.884106
146.863
5.41896
0.0169484
6.97177
0.0227988
0.0430555
0.482113
-0.979008
-1.14026
-1.57049
0.323314
-0.0198742
10.8972
0.0619569
12.3897
-0.805084
-0.0657887
-7.54093
12.8644
350.539
0.296054
-0.056345
-0.0460138
-0.143469
-0.067531
2.66508
-0.00662361
0.147677
0.854209
0.307849
-34.6461
-1.04929
266.809
-40.9631
-49.3225
-86.4256
-0.592429
-49.1882
45.8772
-17.8457
0.310678
160.007
-0.365911
-8.60587
-1.60624
42.7572
-194.545
0.168555
-214.267
-75.8157
-0.200564
227.515
12.9367
13.9501
1.30388e-05
-5.96136
36.7712
-6.68631
18.2724
0.291575
-1.10604
-0.328971
-6.35415
8.09449
-0.151428
27.0124
-0.0622158
93.2062
-23.1237
9.36586
-0.279833
13.5869
-1.09033
2.19353
-0.821548
71.0213
7.6033
-2.74928
-0.126653
-0.515325
3.00796
-1.59543
3.10851
-0.703303
-17.0891
6.9206
9.83345
0.0754726
-0.0103566
-0.0170049
-21.568
0.0332733
-1.42522
-125.169
20.5249
-79.5203
-0.0969297
82.1715
-1.58269
0.303494
203.855
117.717
-78.2523
-13.4071
130.848
13.3022
-54.0539
-49.6291
1.42438
2.5947
-0.207082
-2.64626
294.548
0.00875503
68.4789
114.035
222.426
-14.1241
-30.8993
44.3818
61.6057
-20.2074
6.16348
8.17968
-2.71973
-0.0791082
0.152068
21.9529
9.51352
35.886
27.7629
16.6013
188.341
0.326424
-0.90888
-0.116924
-3.21288
-0.196319
-0.00348971
-8.8811
-13.6244
26.6365
0.122327
-9.95529
-0.145408
-0.282718
-296.357
-0.590885
31.2289
64.841
-0.0123343
-15.2256
0.347546
0.41798
2.57934
206.985
-0.864914
2.59963
9.12607
159.103
-285.428
29.4268
144.525
3.76229
-1.20835
-1.26147
-0.716162
-0.0642552
-0.0152601
92.3225
1.2806
-12.8048
-5.1029
-12.5392
-5.95678
-0.454439
-0.0282108
-201.167
30.5207
7.9352
-1.55465
171.375
0.4616
-30.2102
-8.52573
-35.909
435.165
40.5367
21.2285
0.0166195
-1.09546
-0.311132
-0.345458
1.18755
-0.104378
-2.89789
0.224092
19.0043
3.24919
13.5872
0.159286
-0.248611
4.55517
6.20317
-0.270937
405.276
-0.0423994
25.9682
35.9814
41.1341
-40.3424
-2.59818
3.38839
0.421257
-0.520084
-17.08
32.4159
-61.8159
-18.1623
-54.761
23.9513
-2.09643
0.147833
1.11806
-46.8623
2.29024
13.2343
-8.63407
95.3556
111.618
-42.141
6.67311
39.9747
-19.8253
-0.131152
-0.290987
9.96951
-25.2661
-0.768103
44.4316
6.3631
-140.341
0.026943
-10.6834
102.757
-59.5619
4.6906
-3.65764
34.9915
32.7864
66.4426
-0.241056
2.95647
12.5727
-25.1331
207.602
14.4148
48.6951
-54.5867
-0.2951
20.9825
-17.7521
-3.05161
-0.539704
-45.2531
60.2022
-10.1474
-34.0253
-72.3665
-0.0229971
-72.4095
0.105602
25.3443
0.140004
-40.7236
1.93497
78.3
-5.53201
-5.20269
-16.2134
-10.8582
41.8605
-2.20029
14.8019
-6.42474
16.0675
0.255897
-10.1892
-0.372067
-0.52008
18.7581
0.213272
0.081667
23.9149
18.2924
0.00143568
1.09242
37.7622
11.3807
0.0323123
0.123105
-30.3483
4.64621
-0.0371997
-0.117894
-0.0586019
638.826
-9.02045
40.4127
7.42555
0.672145
-0.0215019
193.946
-183.074
13.7383
-2.09418
-0.781058
-7.2085
0.275038
1.80897
27.3906
-46.9993
6.70667
-2.53567
-0.976093
45.9216
3.25556
-30.5873
-4.71078
-3.87469
-1.12141
0.293583
-0.267625
34.5966
5.85368
-0.603664
-171.143
-0.036206
0.0657494
-58.8712
0.0293968
46.3342
-60.458
-14.2527
-0.215094
-23.0036
-46.5157
10.367
-1.1607
3.43345
42.2731
96.629
106.462
-21.9148
-19.7869
-1.46739
-7.64915
0.86558
18.9555
17.2007
-3.21224
0.335979
-0.00862742
-0.105696
-111.057
49.4786
10.8486
-40.0452
-0.281568
0.279377
0.609089
-83.6645
24.2932
-117.1
-0.551832
3.13992
9.98239
-75.9568
-0.043669
27.1549
-0.431281
1.42501
-46.8091
0.247469
4.00408
2.50689
11.1905
-1338.12
-5.27679
-13.0796
-2.81049
1.91699
118.54
-1.26674
0.499183
0.768395
-0.0216566
-2.65113
17.5715
-0.108393
0.653163
-30.6327
-1.31235
-0.0193137
19.3775
-5.75613
21.2302
0.293787
-18.394
4.13475
-29.3498
6.39555
1.99282
-0.465542
-21.2182
8.40908
-0.205021
-0.179039
0.266815
-175.753
-3.49043
58.0519
0.27908
-0.397852
-0.117417
5.81919
42.013
-4.73103
-10.6998
-6.28032
25.28
-0.558364
-0.0377523
-92.3262
-9.28612
-21.8652
11.4788
-3.67582
-3.86366
-27.0108
0.0217149
-87.8699
88.1556
3.76188
0.0352773
-0.371211
-0.615879
517.067
-18.3163
0.900524
-9.09097
23.8915
2.06618
-0.0953726
-0.143603
-43.8919
0.286299
0.640176
-0.402458
0.397078
32.2265
0.00767735
15.6575
16.6928
-2.02841
37.9644
16.742
15.3012
-0.657082
-0.758013
19.7023
63.3039
124.694
-4.40657
37.3233
-0.818533
-0.386416
-90.0712
-0.140658
49.543
14.6988
0.263735
-171.806
-0.0666005
1.40855
-4.725
-2.19828
2.78023
-40.6137
-10.5381
0.471525
0.521584
-0.12959
-23.6409
2.63949
3.69524
6.71439
-0.846834
0.02588
0.448461
54.5861
12.8548
-0.345994
0.152909
7.00594
-15.824
-10.2767
-13.5196
-34.4027
-99.7887
-4.19746
-5.2005
-0.368541
-3.6316
-93.0767
-99.9436
0.872759
3.84147
-6.63282
8.97664
41.2932
14.3899
-0.0229061
0.689311
26.9103
4.13554
0.387456
-1.43701
-156.557
-156.696
55.9856
-0.0894289
-1.3295
5.15012
-41.9657
-0.302572
88.1624
-2.43615
3.93559
-0.11245
24.8168
29.7964
47.7976
0.362789
12.9213
-1.09203
-0.100477
-46.0501
30.628
0.131793
-1.47981
-0.00217562
-1.27752
-36.9214
-27.1985
17.7732
-447.569
0.561955
223.16
-11.7986
6.41872
-0.046313
-0.0699508
355.478
0.0448582
-29.4696
18.5086
70.7658
-2.8129
4.32615
-0.421782
-0.899025
-0.00903197
40.1889
4.05513
-0.0881424
-111.316
44.8391
-111.153
1.33284
121.383
1.44406
31.8813
-12.738
-0.735441
-5.62238
0.0273185
-2.61645
-0.035996
-0.320628
-5.57315
-1.58911
-0.146492
22.3661
8.54087
0.525685
-20.4676
-0.201179
306.632
-17.5418
-97.0814
-23.6347
0.988875
16.4859
0.259228
-0.0999116
17.639
-22.0744
194.592
-15.6174
53.254
-0.0351483
-1.55623
-0.990833
0.238669
-0.00811513
40.6736
-0.10006
-8.04101
78.1476
-15.538
1256.07
-0.401576
-0.0334058
6.69317
-151.196
-1.63447
-8.44527
-0.163235
-20.3692
-0.037858
7.29005
52.1692
-2.75117
251.121
-994.431
-1.1658
0.487918
74.6024
14.9856
-33.3815
31.9534
-18.556
-4.73949
48.3352
106.247
-51.0021
10.0679
17.579
611.317
47.1976
1.55234
-4.40848
0.452365
-1.28345
6.75844
8.66992
-4.68077
-0.576497
0.335335
69.6757
-7.48656
-6.50645
0.733968
8.46186
-211.341
2.37284
13.7226
23.7336
-0.718925
4.47679
-3.21707
-10.1656
16.4769
0.20717
4.85152
2.56425
-2.48761
-1.32708
12.0453
-101.254
-0.0638622
50.7882
11.863
0.482771
36.1558
-52.3653
-0.0930116
0.661034
19.8408
0.956934
45.1936
9.40579
10.2103
-14.1815
-57.0139
-258.075
56.1931
-114.656
-41.5502
-0.0298399
-30.0711
-4.04018
-23.3933
-121.051
9.17007
1.6498
-0.221537
4.36341
-43.9334
-8.67226
58.0257
0.103235
-0.72721
-0.827938
-107.874
0.280516
-20.3533
-79.846
34.2501
-0.00284886
-0.740595
56.0734
-66.8417
-7.36218
3.65086
-3.10973
0.587514
-11.5809
0.387033
-4.64825
-2.70816
0.0164251
1.77066
-0.0203575
-60.6853
39.692
14.9814
113.242
-0.0741938
2.46849
3.89976
32.0791
-75.2388
59.4329
24.3634
21.1491
-3.0333
-0.500895
0.998456
0.548353
304.08
-83.3601
7.53817
-147.852
-0.811483
30.4912
-0.83614
325.218
-0.580522
2.40258
-11.3912
-1.19574
15.3851
0.392296
11.9995
106.196
-15.8111
59.0149
7.94632
-10.1048
-0.046613
4.14332
32.4399
2.13585
0.256986
-0.411759
10.4375
-96.0385
0.462428
-0.945995
2.77002
-0.897817
29.2057
4.49519
-0.11262
263.215
0.35001
9.23017
12.0367
62.2785
0.420617
-184.245
-160.063
-3.1826
-63.8846
24.6495
-0.0476181
-50.7255
425.096
0.420388
2.8891
-0.282924
4.48367
0.55848
-0.43024
0.84782
8.23015
2.55088
9.5373
-0.796535
-42.4956
3.55553
4.79614
0.0337537
-1.16848
-3.138
-0.738672
0.925928
268.849
28.2169
302.554
-19.3225
27.4856
67.1092
36.2261
-675.056
132.526
0.202325
-6.34683
-0.0570536
-0.0908555
17.6938
-11.4057
101.148
6.38145
38.5382
-8.96112
-0.0259891
-0.0897916
20.8709
-86.4839
-0.601752
12.0833
-16.7266
-0.0316985
4.74169
0.807035
-35.7733
15.6023
-4.35754
-0.104884
0.625365
10.5127
-596.389
-5.06422
-0.0767221
162.762
-1.26515
-0.105321
13.3458
0.226867
81.6192
-16.9956
-19.3527
-55.5006
-296.858
-59.1996
-18.8434
-39.7994
4.71033
198.082
-0.778841
-11.5237
11.1587
-120.795
2.32682
0.338554
2.41257
-7.07359
253.061
-0.653163
-0.153379
-0.19428
0.097588
1.23686
3.62838
-0.0398075
0.0533658
-377.119
13.0214
-0.834142
0.828369
-46.5886
-4.8099
-43.8396
20.9042
0.397391
-18.928
4.721
2.17212
80.1056
15.8301
-0.715531
56.7734
-30.2574
28.7684
16.3267
-147.784
87.7351
35.3181
-1.42042
17.1221
-14.2201
-27.077
538.48
4.13619
-0.675617
-22.4765
-0.0627704
-36.0722
-190.812
-0.9514
-114.767
8.80666
-0.0280941
3.61736
0.14122
-0.184462
-106.508
46.6974
3.99731
-0.160164
13.2391
25.9622
966.889
6.77147
-0.9578
0.446561
-20.5503
10.1413
-3.05257
1.08703
0.681751
2.43174
-8.94209
8.14239
-0.442968
43.4956
-24.2997
-0.165576
-3.87189
142.263
1.38457
-51.9235
57.886
10.327
3.58657
0.147496
-168.091
-83.8885
-3.48216
-26.7133
-113.979
-8.64254
24.7697
57.5254
1.21964
13.3747
268.596
34.4623
-48.2207
-0.0598459
-0.381522
1.40786
-6.43682
-46.3827
5.76352
-9.51213
1.9739
481.492
71.779
6.80403
-4.03763
-70.6905
-186.243
-0.101757
-1.13896
-2.65287
24.2913
2.23309
-38.7997
-79.4904
28.3454
7.46388
-36.6635
0.255333
-1.05977
-18.0428
53.6024
-0.950929
-20.5386
-60.9841
15.7116
29.6445
-56.3868
7.74907
-2.52666
-0.717653
-161.7
-1.82773
5.24477
-9.56996
42.3627
5.89327
7.80593
-0.00588826
0.252862
-10.6836
4.5737
-0.092186
-49.5076
-18.0858
-56.8473
-0.156089
17.4363
-0.12932
2.07586
-80.0229
18.6977
-0.237686
-165.366
0.600454
-0.187524
25.3141
22.7409
48.6712
-0.0481702
11.2064
-163.08
120.914
72.4204
-17.8386
5.03616
-95.6228
6.01514
3.24517
0.193592
-3.92634
35.7214
77.9893
47.9737
5.99963
0.0239528
1.78769
8.47209
-46.9424
0.909821
39.646
0.228829
-0.382704
-3.77235
0.0382067
-69.9913
65.9983
-0.0293724
-76.7704
0.359192
-31.2267
102.952
-3.03673
4.21591
21.2518
-107.339
43.9283
0.0492041
3.28222
-0.538805
-18.7227
0.169711
-11.4504
-5.00019
-16.5656
0.0471081
-43.0415
-96.6727
89.7178
33.8046
6.40994
-0.0470908
28.4331
-242.602
-4.22582
111.44
22.7745
34.5697
-0.423399
17.5642
-152.325
-3.10868
-0.0812886
-174.439
-49.3945
-211.514
8.69211
-0.541389
0.115432
-0.411652
-0.107446
-0.204131
0.222596
-0.0728909
91.9607
4.65999
53.0126
11.3859
-0.773074
1.23865
79.2731
2.78193
-36.975
0.449035
0.0337125
-9.12964
-1.60247
-0.640009
3.05743
0.127038
-60.4385
-426.713
-394.11
0.164932
0.878389
-9.64492
-0.215121
-0.246874
-13.0721
-14.6833
12.5572
-13.6145
-22.7035
-0.440915
-4.50072
99.8605
-0.348096
-0.29716
-97.2509
-26.2375
-59.2548
-8.88422
8.28793
-182.582
-4.8895
-92.8366
13.1321
19.3359
200.826
-201.936
-66.6163
-42.7341
35.723
-0.223756
8.50923
-96.6705
-9.10827
46.4957
0.136446
-5.59917
-8.7077
-3.53376
-100.651
-119.12
9.60052
65.5721
-0.0686948
-61.6933
-16.7091
-157.85
-131.045
4.61243
0.115567
-5.01826
-163.98
-47.2123
0.130366
-122.055
-0.0497998
-103.239
-7.18027
3.18524
5.22596
18.3943
0.422223
-1.85341
6.64561
-0.0147769
274.381
-39.9491
91.8903
10.746
-2.91975
-48.8743
-5.24469
0.152051
3.48056
-17.5363
0.38366
0.384875
-8.3036
-3.65117
-88.479
-1.08893
1.12489
8.4181
-42.3354
-91.9424
0.319578
45.1971
41.5984
31.5214
20.6432
0.209717
-156.247
-0.00921537
19.7669
-13.2339
-7.14232
3.28585
6.72886
0.356459
8.5486
38.6376
4.33596
-29.6681
-0.400963
4.09575
132.97
19.3754
-168.347
0.278142
6.776
19.6395
-77.0675
0.841836
2.53386
-9.65024
-110.207
-1.46464
-14.979
0.0204206
-69.3532
-6.58231
0.0808807
43.3444
19.8905
-120.685
0.220424
-8.84429
-0.251182
-0.000329952
3.92741
-66.8539
7.88276
75.1595
0.700872
-0.0283842
2.56985
584.515
7.89086
-18.0609
-8.14503
0.423055
1.05718
-53.3132
-0.0910711
30.1851
11.8167
0.170718
-0.407391
2.52815
-0.0121144
-11.8906
-9.5027
-262.268
119.785
-0.0155198
3.24594
0.865194
-98.3286
20.9127
47.3172
0.144251
7.07375
8.68892
6.2631
-84.5463
1.5084
-228.861
2.61814
15.2583
-0.0388604
-6.57032
-19.1787
0.191907
7.40667
-2.8023
36.4674
0.0598346
3.41755
2.27157
-0.0885069
-0.0726842
-0.140022
-0.131471
335.634
3.28586
13.8581
-3.53408
36.3821
-1.36557
9.28455
-13.8735
-0.321686
-14.555
3.83444
73.4401
-5.19275
-0.241491
-19.8215
-129.241
14.7755
19.8615
6.16409
-44.3067
13.6105
-3.42033
9.5138
24.2431
0.288353
0.214747
-11.6406
-0.0738475
-3.58733
46.3619
-0.876568
4.52016
271.694
113.204
19.8851
-35.3815
-86.5747
-0.517033
-85.3185
7.51798
4.92543
9.19927
-34.8322
-0.630889
131.308
-1626.1
-9.5778
118.92
-73.8012
-58.623
-3.31825
-0.119986
52.302
18.8083
-286.902
-0.25899
0.0306437
376.232
60.4398
-9.31488
0.137242
-6.41417
-0.0337545
-4.10856
-10.3769
-1.04986
-24.6748
4.35119
-0.476574
-0.0425982
1.12591
-0.522831
37.2084
-0.047381
-1.83881
2.43522
-25.6371
-53.4988
-16.8554
-43.6118
-1.08347
-9.60374
37.0288
-28.0856
-40.5743
-68.7974
1.45676
7.32768
-82.149
96.3625
1.64791
19.0067
-166.304
-8.77907
-18.1314
-10.0737
-1.76553
7.16226
72.0573
12.0409
31.7236
-68.1464
-20.4912
804.62
-12.7517
0.0404951
-0.671556
-66.7235
-211.955
30.919
21.0494
-5.41131
-4.53889
-144.964
-23.8612
-0.357552
-0.477013
-32.4431
-0.817022
19.2976
-0.0851388
-3.57611
-79.877
-198.505
-7.81791
37.6688
-3.0042
-1.63317
-6.71536
-10.059
-0.0565986
2.54554
121.656
-11.0642
-28.9739
-10.3829
-9.56451
60.2379
-74.0303
-6.15543
126.55
-61.6936
-23.1416
-0.0150458
-14.5115
7.02955
-0.326374
58.5668
-15.1079
-0.370128
13.9893
-0.00984312
-12.2187
-0.0142055
4.88987
68.4734
38.8042
-287.424
-171.298
1.21193
-4.03555
-3.08985
-7.2958
-0.0341547
7.66055
46.0187
-129.14
-2.7382
-12.8374
-0.912783
1.1392
-127.268
-1.73148
125.996
-7.40732
-30.2477
33.7892
-12.3443
-4.70844
15.937
-1.98893
13.467
-10.7653
508.1
-0.0612364
24.2566
0.0680603
-5.64306
-139.307
25.8456
-3.40192
30.2946
-4.2851
31.7307
-0.0524942
35.2047
31.1168
-0.000373047
-31.9628
-63.1486
21.2212
-16.7381
-234.9
-0.0687872
-0.285828
4.64429
20.0098
7.72965
1.07206
273.496
-29.0498
-4.4136
2.07238
-0.0164282
212.251
23.2012
-4.70845
-12.6957
-0.412231
0.930083
-8.9785
0.0805329
-4.0097
-39.8383
3.44722
18.7474
-21.3788
19.4668
-44.9067
58.2167
0.406783
3.84961
44.6326
-164.461
55.5307
17.0984
-49.6081
8.62342
-134.603
-5.50394
41.3369
-14.3766
-33.476
167.455
-0.0132131
-0.912213
4.79673
80.5698
-0.118295
-0.270648
-50.6977
0.731296
37.3598
12.3005
12.9597
10.5557
-8.33796
-0.68996
-3.31904
0.714475
48.8751
5.5284
-0.459989
-48.6615
-6.30624
6.58558
110.549
-3.38008
-13.2293
15.3514