/*--------------------------------*- C++ -*----------------------------------*\
| =========                 |                                                 |
| \\      /  F ield         | OpenFOAM: The Open Source CFD Toolbox           |
|  \\    /   O peration     | Version:  v2012                                 |
|   \\  /    A nd           | Website:  www.openfoam.com                      |
|    \\/     M anipulation  |                                                 |
\*---------------------------------------------------------------------------*/
FoamFile
{
    version     2.0;
    format      ascii;
    class       surfaceScalarField;
    location    "400";
    object      ddtCorrDdt0(phi);
}
// * * * * * * * * * * * * * * * * * * * * * * * * * * * * * * * * * * * * * //

dimensions      [0 3 -2 0 0 0 0];
oriented        oriented;


internalField   nonuniform List<scalar> 
27882
(
0.000666543
0.00233996
-0.0030065
-0.00215946
0.0149015
-0.012742
-4.86987e-06
1.41501e-05
-9.28479e-06
0.00324006
-0.00257352
0.00313727
0.00115676
-0.00429403
6.60121e-06
8.19489e-06
-1.47956e-05
-2.12027e-05
-7.01516e-05
9.13651e-05
0.000209491
0.000202849
-0.000412342
7.19344e-05
0.00306533
-0.00199755
0.000396178
0.00160138
0.00992827
0.00667214
-0.0166004
-0.00819661
0.000581065
0.00761554
0.00203648
0.0157931
-0.0178296
-0.000595815
0.000511375
8.44371e-05
-9.12778e-06
0.000130351
-0.000121212
9.78174e-05
-1.55935e-05
-8.22324e-05
0.0225698
-0.0307664
2.40738e-05
5.56323e-06
-0.000113385
0.000104255
-1.59394e-05
0.000791694
-0.000775754
-0.00777434
0.0255426
-0.0177683
0.00610267
-0.00565678
-0.000445902
-5.16548e-06
1.17686e-05
5.24452e-06
-4.19069e-06
-1.05284e-06
0.00847822
-0.00237556
0.00165477
-0.0125196
0.0108648
0.0570642
-0.0937202
0.036656
-0.0180011
0.0133811
0.00461998
0.000722672
0.00478147
-0.00550412
0.00100976
0.0156772
-0.016687
-0.0131081
0.00847066
0.00463744
0.102973
-0.0459091
-0.000235648
0.000445148
0.000413698
-0.00893102
0.0085174
0.00255594
0.00137042
-0.00392636
-0.0219003
0.02291
0.0264163
-0.0243798
0.0037127
0.00712723
-0.0228655
0.0157383
0.000307917
-0.000125863
-0.000182054
-0.00394017
-0.0211621
0.0251023
0.00288649
-0.00208995
-0.00079653
-0.0153222
0.000283515
0.0150387
-0.000245125
0.00109704
-0.000851912
-0.000108935
7.32816e-05
3.56556e-05
-0.0260867
-0.00701714
0.0331038
0.00169507
0.00119142
0.00552132
-0.00493917
-0.000582138
0.00246994
-0.00887543
0.00640557
-0.00251525
0.00354579
-0.00103054
-0.00967516
0.0196034
0.0261575
-0.0313458
0.00518824
-0.00040835
-0.00210689
0.0015226
-0.00185
0.000327396
-0.00130643
-0.00305737
0.00436383
0.00308866
0.0127044
0.000286505
-1.17333e-05
-0.000274771
-0.000413116
0.000397177
0.00555591
-0.000157193
-0.00539874
9.17989e-05
0.000194704
-0.000106549
1.95832e-05
8.69632e-05
-0.000552357
0.000307228
-0.1313
0.0530655
0.00949892
-0.00818816
-0.00131078
-6.50408e-06
-0.000100042
0.00898331
-0.00787525
-0.00110804
2.22181e-06
-5.16312e-05
4.94099e-05
1.99276e-06
-9.9644e-06
7.97831e-06
-0.000871966
-0.0171291
3.09128e-05
-6.83957e-06
-0.00488194
0.0310394
0.0126715
-0.00650396
-0.00616752
2.0143e-05
9.40148e-05
-0.000114154
-0.000201309
-0.000987868
0.00118918
0.00720911
-0.0129845
0.00577541
-0.00627939
-0.00682869
-0.0022051
0.0234752
-0.0212701
0.0383493
-0.0329999
-0.00534942
-0.00192562
-0.0341584
0.0188362
-0.000802254
-0.0029838
0.00378607
0.0163119
-0.00918467
0.0075101
0.0308392
0.00348144
0.00244196
-0.00592338
0.00151811
-0.000351059
-0.00116705
-0.00524721
0.00459098
0.000656186
-8.59886e-05
-0.000517463
-0.00204147
0.00184016
-0.0738022
-0.0574978
-0.00222016
-0.00302706
-0.0266249
0.0183027
0.00832217
7.31389e-05
-0.000105229
3.20898e-05
-0.00213693
-0.00107236
0.00320935
0.00664494
-0.00417497
0.00011313
-9.29827e-05
-6.30853e-05
1.49415e-05
4.81466e-05
6.23202e-05
-6.62101e-05
3.88872e-06
-0.00361059
0.000343244
0.00326737
0.0104005
0.0346413
-0.0450417
-4.33259e-05
8.87852e-05
-4.54578e-05
-0.00168622
-0.0244005
0.00259569
-0.001615
-0.000980677
-4.34984e-06
6.34423e-06
-4.55801e-05
-1.75033e-05
0.00788648
0.00109687
0.01381
-0.0215844
-0.00030814
0.00582948
-0.0189938
-0.00763113
-0.0145888
0.03402
-0.0194312
-0.0209188
0.0462361
-0.0253173
5.40885e-06
-9.78231e-05
9.2413e-05
0.0229269
-0.013428
-0.00308644
0.0035353
-0.000448851
-2.67675e-05
2.7718e-05
-9.50812e-07
0.00216446
0.000431225
0.0230929
0.00756739
-0.0306603
-0.000127796
-0.00348278
0.000131489
-1.7421e-05
-0.000114064
-0.0171057
-0.00470315
0.0218088
0.000727797
-0.00138926
0.000661476
-3.45971e-05
3.15383e-05
3.05762e-06
0.0220572
-0.0242623
0.00106089
0.000457229
-1.18618e-05
5.66748e-08
1.18002e-05
-0.00800429
0.0120494
-0.00404505
0.00178131
-0.000258704
0.000426243
-0.000726464
0.000300218
-1.01343e-05
-1.7291e-06
0.0103093
-0.00530559
-0.0050037
-0.0128932
0.0103313
0.000616737
9.29713e-05
-4.38259e-05
-4.91426e-05
0.00186453
-0.000944268
-0.000920224
0.00630503
-0.0173863
0.0110814
0.00018277
0.000125148
4.50681e-05
-5.39113e-05
8.84416e-06
-0.00631405
0.0198394
-0.0135254
0.000800917
0.000431263
-0.00123217
0.00993897
0.00587606
-0.015815
0.00306577
-0.00386797
-0.00305517
-3.12686e-05
-0.0214248
0.0501643
-0.0287395
-0.00274866
1.60286e-05
0.00273263
-0.0398995
0.0253107
-0.0123528
0.00434848
-0.000902631
-0.00113374
0.0020364
0.0103299
-0.00244342
0.00986541
-0.00578271
-0.00408268
0.019126
-0.0124539
0.0415147
-0.0104774
-0.0310374
0.012465
-0.00390833
-0.00855672
0.0114428
-0.0120575
0.000614613
-0.000123023
0.000165095
-4.20631e-05
-0.00365887
0.00191117
0.0017477
0.00703008
-0.0109703
0.0271355
0.00973385
0.0011638
-0.00330073
0.00589873
0.0044106
-0.00395938
-0.00245458
0.00641396
0.0169666
-0.0119595
-0.0487258
0.0606853
5.58137e-05
-7.86783e-06
-4.79412e-05
0.00733867
-0.0063928
-0.000945904
0.00874841
0.00158157
-0.0218329
0.00013189
0.021701
-0.000304268
1.04487e-05
0.000293819
5.95384e-05
-3.73046e-06
0.0389761
0.0128648
-0.0518408
-0.00923694
-0.00365624
-0.00376641
-0.0133283
0.0170947
0.00689434
0.00372647
-0.0106208
-1.02431e-05
5.37099e-06
-0.00144383
-0.00561812
0.00706199
-0.0258605
0.0285191
-0.00174712
0.0357671
4.83002e-05
3.08547e-05
-7.91529e-05
7.67364e-06
0.00010546
-0.00707266
-0.00155038
0.00862306
0.00770346
-0.00728976
-2.86153e-05
-0.000287335
-1.36805e-05
-3.36658e-06
1.7049e-05
0.000925345
-0.000437669
-0.000487669
-0.00507056
0.00376412
-0.000524544
0.000177379
0.0289508
-0.0485302
0.0195794
-0.000133135
4.04758e-05
9.26615e-05
-0.010928
0.0266052
-0.000834073
-0.000763535
0.0015976
0.0121463
-0.00550136
-0.0192958
-0.00224793
0.0215437
0.00133169
0.0101111
-2.56192e-05
-0.000107512
0.00151402
0.00668749
-0.00820152
-0.00105286
0.020604
-0.0195511
9.76077e-07
1.30907e-05
-1.40646e-05
-9.50806e-06
0.000357887
-0.00034839
0.011146
0.00880278
-0.0199488
-0.000152829
2.98141e-05
0.00405013
0.00809623
1.01331e-05
1.96961e-06
-1.21046e-05
0.00104638
0.000124333
-0.0011707
0.00279547
0.00310326
-0.0124795
-0.00293138
0.0154109
1.80819e-05
-9.46383e-05
7.65576e-05
8.97599e-05
-8.43505e-05
0.00339824
0.00394047
7.39951e-05
-8.81733e-05
1.41826e-05
-0.00228845
-0.010843
0.00695015
-6.9771e-06
2.53834e-06
4.43701e-06
-0.00376119
0.00113868
0.00262254
0.00137915
-0.000332772
0.000672111
-0.000750073
7.79639e-05
0.000144289
-0.000596062
0.000451775
8.43751e-05
-2.20565e-05
-3.54958e-06
-8.77033e-05
9.12586e-05
-0.00259739
-2.6999e-06
1.08938e-05
0.0463181
-0.0215053
-0.0248128
-0.0177664
0.0167135
0.000401541
-0.000202542
-0.000198997
-0.000150287
-0.00259839
0.00850735
-0.0057119
0.00350981
-0.0159893
0.0233161
0.00105477
-0.0243709
0.0119299
-0.00472084
-0.00345679
0.00287924
0.000577528
-0.0583508
0.0463913
6.43809e-05
9.61398e-06
0.0100097
-0.0083549
0.00161462
-0.00251719
0.0226218
-0.0243689
-2.25863e-06
4.73263e-05
0.00010749
-3.49581e-05
-7.25302e-05
0.000356583
4.49552e-05
0.009936
-0.00971845
-0.000217559
0.00596431
-0.00918639
0.00322207
0.0102031
0.0109155
-0.0211186
0.000119677
-0.000201403
8.17337e-05
4.37581e-06
-9.89577e-05
9.45813e-05
0.00176367
0.00817233
0.00518906
0.010949
-0.0161381
1.29528e-05
4.74001e-06
-1.76954e-05
0.0302526
0.0112621
-0.0142953
0.018397
-0.00410166
0.000109174
-6.94251e-05
-3.97487e-05
5.37192e-05
-7.70052e-06
-4.60155e-05
-0.000231081
0.000697549
-0.000466469
-8.37496e-05
4.04242e-05
0.00971112
-0.00281676
-0.000664735
0.000292148
0.000372589
-0.0109626
-0.00782809
0.0187907
0.000653793
-0.000297207
-1.55661e-05
4.94757e-06
1.06194e-05
0.00246469
-0.013844
0.0113793
0.000332685
-0.000362242
2.95574e-05
0.0096723
0.00299922
9.11798e-05
9.08737e-06
-0.000100268
-0.00973658
0.00410804
0.00169135
0.00184395
-2.07939e-05
2.08448e-05
3.3623e-05
7.55533e-05
0.00685708
-0.00534304
-0.101588
0.116864
-0.0152763
-0.116296
0.0147086
1.08843e-06
-2.18879e-05
0.015128
4.47686e-05
0.000120326
0.000160285
-0.000105628
-5.46548e-05
-0.00708346
0.025107
-0.0180236
-0.0061831
-0.0134214
0.0196045
0.000127979
3.23069e-05
3.79991e-05
-4.01858e-05
2.18536e-06
-9.58867e-05
0.000708168
-0.000612281
0.000481645
-0.000337352
-0.001269
0.000213481
0.00105553
-1.36731e-05
1.09734e-05
0.000963219
-0.000291104
-0.00026722
-0.000328594
1.634e-06
5.20853e-05
5.50229e-05
2.17513e-05
-7.6772e-05
0.00012166
-0.000101821
-1.98305e-05
-0.0112429
0.00279624
0.00844672
0.000109155
3.15266e-05
6.47286e-06
-1.21722e-05
2.18656e-05
-9.69268e-06
0.013725
-0.00277596
5.9912e-06
-3.81903e-05
3.22011e-05
-3.95879e-05
1.51313e-05
-2.17771e-06
-0.000248831
0.000301808
-5.29599e-05
0.000152503
-0.000164231
1.12066e-05
-9.51857e-07
-1.02567e-05
4.1312e-06
-4.09958e-07
-3.72478e-06
0.000321972
0.000927282
-0.00124925
-0.00132247
0.0246386
9.0648e-05
-1.7513e-05
4.5366e-06
7.08936e-07
-0.0130182
0.00589753
0.00712066
0.000194598
0.000377014
-0.000571618
1.4465e-05
-1.32774e-05
-1.19285e-06
1.68175e-05
-2.34989e-06
-0.159427
0.0955176
0.0639089
-0.0113152
0.0238372
-0.012522
1.60546e-06
-1.52866e-05
0.00932253
-0.00673844
-0.00258408
-0.0184183
0.0322283
-0.000439357
-0.000112994
0.0119224
-0.00883379
0.000104975
1.66831e-05
0.119909
-3.56079e-05
-0.119873
0.0170221
-0.00650454
0.00812225
-0.00161771
-0.00359391
0.0043166
-0.000629121
-0.00830186
9.44539e-06
-9.0317e-06
-4.13017e-07
0.0168527
0.0749461
-0.0917987
-0.00294996
-0.00732014
0.0102701
-6.53781e-06
5.57641e-05
-4.92278e-05
0.00279306
-0.00929758
-0.00630717
0.00234779
-0.0341957
0.0237184
-2.34951e-05
9.54332e-05
-7.19361e-05
5.09743e-06
-0.00605846
0.00734243
-0.0456544
1.48835e-05
-4.34175e-05
2.85372e-05
-0.00868007
0.0110367
-0.00235669
-0.00929026
0.00905013
0.000240147
-0.00420422
0.00241536
0.00178888
0.000731233
-0.0168783
0.016147
-9.46898e-05
7.11979e-05
2.84116e-05
8.72361e-05
3.94345e-06
-6.61095e-06
-2.01573e-05
-6.68921e-05
-0.000167023
0.000233915
0.00018173
-0.000887406
0.00070568
-0.00023749
0.000440342
0.000121292
-0.000109389
-1.19023e-05
0.000135628
-0.00020252
0.000116416
-0.000163654
4.72298e-05
0.014027
-0.0265447
-0.0617008
-0.0977258
4.81753e-05
0.000752744
0.11237
-0.0477613
0.0581618
3.22804e-05
-1.73941e-05
0.00179929
-0.00118
-0.000619264
-0.0168491
0.00553392
0.00686072
-0.00189685
-0.00496395
-0.0200921
0.0321543
-0.0120622
-0.0225892
0.0227064
-0.000117231
0.000143771
-0.000103294
-0.0108551
0.00923578
0.00161933
-0.00655705
-0.00415706
0.0107141
-0.00407149
0.00598436
-0.00191286
0.000208606
-9.21846e-05
-0.00793056
0.00372633
0.000816304
-7.56281e-05
-0.000740673
0.000544667
0.000552377
0.0190059
0.000522095
0.0200819
-0.0237537
0.0214996
0.00225407
0.0123213
-0.00710874
-0.00521257
0.019145
-0.0186229
3.80648e-05
-0.00110316
0.000688211
0.000414951
0.000618407
0.000306938
-0.00403227
0.00390448
-0.00291109
-0.000899333
0.0239922
-0.02819
0.0508119
-0.00768173
-0.0170469
0.0247287
-0.0357881
0.014626
-0.000726618
-0.0218626
-3.66731e-07
-1.51999e-05
0.00526651
-0.00723871
0.00197224
0.00455981
-0.00369368
0.0128468
-0.00915316
-0.0109068
-0.0128468
-4.92276e-05
5.14487e-05
-3.24966e-06
-9.3999e-07
-0.0017878
-0.00386903
0.0014075
-0.0328048
0.015745
0.0170599
-0.0258431
0.0187596
0.00336926
-4.39824e-05
-0.00318534
-0.0366313
0.0157126
8.06361e-05
1.71791e-05
-0.000496074
0.000517514
-2.14476e-05
-0.000265111
-0.000294045
0.000559161
0.00165588
0.00182981
-0.00348569
-2.16692e-05
-1.29318e-05
-0.000297634
0.00111394
-0.000133585
9.35704e-05
4.00193e-05
7.19972e-05
-1.69725e-05
2.01546e-05
-1.0368e-05
-9.79186e-06
-0.000468349
-0.000533903
0.00100225
0.000559216
0.0022158
-0.002775
-0.0119253
0.00316906
0.00875621
0.00115339
-1.43521e-06
-0.00115193
-0.0126476
0.00459703
0.0080506
-0.00852401
-0.00412363
-0.004388
-0.00792306
0.0123111
0.0071433
-0.0105116
0.00683895
0.00367265
-0.00052527
0.000847243
-2.04197e-06
-1.53315e-07
2.19727e-06
0.0132137
-0.0129301
-0.000216783
-0.000279288
0.00011104
-0.000173941
6.2904e-05
-0.0155518
0.0193219
-0.00141695
-0.00261531
-0.0153224
-0.00879703
0.0241195
-0.000279569
-8.26742e-05
0.0347788
-0.0207518
-6.24757e-05
-4.646e-05
-0.00030499
0.000499596
-1.3978e-05
-9.57766e-06
2.35559e-05
-0.010319
0.00925343
0.00106562
0.00361254
0.0107295
-1.72463e-06
5.8547e-06
0.0138019
-0.0130707
0.00359684
-0.000592368
-0.00300444
0.000118455
-0.000101172
-1.72817e-05
0.000115244
0.00154063
2.70637e-06
-8.77732e-06
6.06951e-06
0.00361894
-0.0318089
-1.9888e-06
1.38438e-06
6.04406e-07
1.2955e-05
-1.74429e-06
-0.0282011
0.00636816
0.00102844
0.000124947
-9.03662e-05
-9.62023e-05
0.00010388
0.000131945
-0.000395532
0.000263585
-0.00103126
0.000890774
0.0001405
0.00248175
-0.0088814
0.00639966
0.0225349
-0.0120985
-0.0104365
8.83625e-06
-5.06404e-06
-3.77246e-06
-0.00260876
1.26156e-05
-2.65942e-05
0.00185636
-0.00167463
-0.00126017
-3.74896e-05
-1.92276e-05
5.6719e-05
0.0235399
-0.0150692
3.8736e-06
4.96443e-06
-0.000405214
-0.000626035
-1.05816e-05
1.9513e-06
8.62925e-06
0.0253961
-0.0262954
0.000415825
-0.00161532
0.0011995
-8.66543e-05
-4.69257e-05
0.00784862
-0.0094575
0.00160881
0.0200807
0.00375649
-1.56245e-05
-1.00018e-05
2.56251e-05
-0.000430683
-0.00067249
4.48286e-05
-0.00112807
0.00108325
-7.994e-05
9.80205e-05
6.36585e-06
4.92799e-07
-6.86282e-06
-0.000118667
7.15706e-05
4.71003e-05
-0.0859436
-0.0224687
0.108412
0.0185412
0.00426036
-0.0228016
-2.75264e-05
-0.00014107
0.000168604
-0.00255886
0.00206991
0.000488939
0.031724
-0.012579
0.000457283
-0.00752994
0.0352769
0.00807406
-0.0433509
-0.0159017
0.00160646
0.0465602
-0.0112833
-7.31974e-05
0.000104471
-3.12712e-05
-0.00733408
-0.00317752
-0.0075266
0.0028711
-0.00233756
-0.000533547
-0.000406356
0.000170713
0.0147287
0.0315894
-0.0152203
0.00663357
0.00858668
-0.00159494
-0.00146022
9.40647e-06
7.24058e-07
-1.0139e-05
-0.00011355
4.33987e-05
-6.06295e-05
2.81303e-05
3.25017e-05
-5.99971e-05
2.25128e-05
-2.11357e-05
-3.94933e-05
-1.07592e-05
-3.02921e-05
0.00678709
-0.0215945
0.0148074
2.38279e-05
1.04104e-05
-3.42388e-05
5.64532e-07
-1.61236e-05
1.55614e-05
0.00271798
-0.000935288
-0.00178269
1.93056e-05
7.36664e-05
5.5616e-06
-8.16174e-06
2.5984e-06
0.000223353
-4.80856e-05
-0.000175265
0.000689853
-0.00064502
-0.000435171
-0.0147851
0.0323627
-0.00682004
3.31193e-05
-0.0108493
0.00117412
-1.23145e-05
-1.51479e-06
1.3829e-05
0.000953014
-0.00104152
8.85205e-05
-0.00222773
-0.00320152
0.00542926
0.0256947
-0.0172658
-0.00842884
0.0140516
-0.0217334
-9.00268e-05
8.64774e-05
6.16875e-05
8.20755e-05
0.0194437
-0.000902447
-0.0105732
-0.00538662
0.001557
0.00382961
0.000368284
-0.000276482
-0.0243876
0.0171012
0.00728637
-0.00249451
-2.77968e-05
5.36572e-06
-1.76798e-05
0.0485313
0.00934001
-0.0578714
-0.000298293
-0.000297765
-0.00127451
0.00434027
0.00050884
-0.00589546
0.0017065
-0.00159126
-0.00180142
-0.000757441
4.8702e-05
-5.6404e-05
-5.85475e-05
9.77436e-05
-3.91926e-05
0.000105255
-4.36766e-05
-6.15796e-05
3.75426e-06
-2.97011e-06
-7.84195e-07
3.94869e-05
2.4896e-05
-1.72404e-05
9.05196e-05
-0.0798563
-0.00262769
0.082484
-3.14812e-06
1.16981e-05
-8.55209e-06
-0.00198941
-0.013333
0.0179069
0.013817
-2.53419e-05
1.53392e-05
8.36172e-06
-1.15138e-05
3.13745e-05
-7.54676e-06
0.00109461
-0.000455415
-0.000639209
0.00106778
0.00156071
-0.00262849
0.018788
0.00374692
5.43821e-05
3.44051e-05
-0.000966744
-0.018329
-0.000495043
-0.00168902
0.00218406
0.000670532
0.00220057
0.000105426
-0.000131027
2.56015e-05
0.000180982
-0.000649328
-0.000756349
1.80194e-05
-0.000157542
0.000139529
0.000165977
-0.000147953
0.00262678
-0.00767705
0.00505027
0.0458956
-0.0169448
4.97686e-05
-4.81349e-05
-6.98172e-07
-0.000284513
3.56933e-05
-0.0118064
0.0507825
1.76618e-05
-2.72398e-05
6.67859e-05
1.75899e-05
-4.24449e-05
3.16941e-05
1.57067e-05
-1.51407e-05
-3.96626e-05
2.26881e-05
1.69751e-05
2.38626e-05
8.15651e-05
9.49489e-05
-0.00024279
0.000147847
-9.55371e-05
0.00647354
-0.00663073
9.00232e-05
-3.56402e-05
0.00042338
-0.000240609
-0.0100166
-0.0061446
0.0161612
0.0167699
0.00892475
0.00294635
-0.00128284
-0.00166351
-0.000126274
0.000552518
-6.07915e-05
6.80912e-05
-7.29932e-06
8.20972e-06
-2.65053e-06
-0.000105051
4.62738e-06
0.000100428
0.00115906
0.0094654
0.00662985
-0.0160952
0.0296409
-0.0178047
-0.0118362
0.000324704
-4.31727e-05
-0.000281506
0.0389452
-0.00186749
-0.0370776
-7.62804e-05
1.5488e-05
0.000657327
0.00114195
-0.00018179
-1.29524e-06
1.06065e-05
-9.31033e-06
-0.000841833
0.00245644
3.26141e-05
-1.70077e-06
1.7447e-06
2.00968e-06
0.0963626
-0.0711958
-0.0251668
-1.44925e-06
1.56028e-05
0.000349742
-0.000359238
0.00330115
0.00902014
-1.53682e-05
-2.9053e-06
1.82815e-05
9.80851e-05
-0.000124213
2.61304e-05
-0.00626889
-2.22852e-05
0.000153777
-0.0197854
0.00861716
0.0111683
-0.0110887
0.00354619
0.00754249
2.04062e-05
-6.6638e-06
-1.37418e-05
-5.89244e-06
-4.69234e-06
-0.00132766
0.0048091
0.000398428
-4.09964e-05
-0.000357433
-0.00109787
0.00216566
-3.23664e-05
8.06696e-05
0.0382363
0.000708909
-0.0385036
-0.00434477
2.3117e-06
-5.28941e-05
5.05836e-05
-0.00650711
-0.0065111
-1.49973e-06
-1.04772e-05
1.19793e-05
-1.82992e-06
-5.14902e-06
-5.86652e-05
9.96654e-05
-4.09971e-05
-0.002707
0.00201745
0.00068956
0.0235135
-0.0257615
0.00156196
0.0158779
-0.0174399
0.000749937
-0.000631141
-0.000118797
-0.000166657
-0.000328371
0.0138733
0.00332079
-0.0171941
-0.0162448
-0.00814279
4.96614e-05
4.23154e-05
-9.19807e-05
0.00787587
0.00144667
-0.000669672
0.000803654
-0.000133973
-0.00133773
0.0011495
0.00071504
-0.00265174
0.0107763
-0.00812457
-5.1942e-06
3.22079e-05
-2.70107e-05
-0.00110557
-0.00160143
0.00378119
-0.000965976
-0.00281522
1.20093e-05
8.4003e-06
-3.06241e-05
2.5431e-05
-2.68424e-06
2.03447e-05
-2.51837e-05
5.31456e-05
-2.7959e-05
-0.000170225
0.00115063
-0.000980395
0.0203469
-0.00978804
-0.0105588
0.00570025
-0.0166628
0.0242873
-0.00692534
0.00427359
0.000952149
0.000760462
-0.00171261
-9.6e-05
3.73363e-05
1.99932e-05
4.1297e-05
-6.12867e-05
-0.0231619
0.0211725
0.00507291
9.74904e-05
-0.00010719
0.00277958
-0.00267238
-0.00680989
-0.00524762
0.00672448
-0.00409771
5.59524e-06
-2.8892e-06
5.228e-06
-5.39406e-06
1.67656e-07
-0.00386521
0.0179516
0.0106888
-0.0286404
5.07635e-06
-6.57583e-06
0.00786116
-0.0247103
-9.62191e-05
8.76344e-05
8.58592e-06
2.8172e-05
-0.00116049
0.00100573
0.000154766
2.7473e-05
9.0988e-05
0.000138453
-0.00081906
0.000379706
5.654e-05
-4.07624e-05
-1.57746e-05
-0.000360826
0.00219064
0.00824839
0.00118439
-0.00202621
-0.0283459
0.0319208
-0.00357495
-0.000327014
-0.000423059
-8.13629e-06
-0.0276119
0.0105062
-3.03121e-05
9.70963e-05
0.0204039
-0.0147574
-0.0650989
-7.26663e-05
-2.35529e-05
0.000992471
-0.000274224
-0.00071824
-0.000791008
0.024602
-0.00476258
-0.0275441
0.00168361
0.0309206
9.14008e-05
0.000307024
0.0860084
0.0169649
1.73251e-06
-1.45453e-05
1.28144e-05
0.00524727
0.0022201
-0.00746737
0.00750419
-0.0118922
-0.00457951
0.000508014
0.000120059
0.000533735
0.0118176
-0.0251459
-0.000695034
2.53692e-05
-0.00717241
0.0002028
0.00696962
-0.0241015
-0.00761735
0.0317188
0.0130872
-0.0200063
0.00691912
0.000145522
6.85882e-06
-0.000152362
0.0449473
0.0114929
-0.0564402
-2.98585e-07
1.04307e-05
-0.0029068
0.00279961
0.00333766
2.73799e-05
-4.44685e-06
-2.29407e-05
-0.00106985
0.00170564
-0.000635763
-0.0164243
-0.0129983
2.44394e-05
-0.00123772
0.00121328
0.000382569
-0.000287619
-1.51469e-05
7.74516e-05
0.000131144
0.00134311
0.00196607
-0.00280014
0.013217
-0.00337118
-0.00984581
3.56167e-05
-5.62223e-05
2.06089e-05
-0.0200445
-0.000175924
-0.000165586
5.99582e-05
-0.000884309
0.00012954
0.000754785
-2.17091e-05
7.91498e-06
1.37935e-05
0.00697379
-0.00413597
-0.00283781
-5.68686e-05
-4.49498e-05
1.58499e-05
-4.10307e-05
-0.0182776
-4.81758e-05
5.68041e-05
-8.62725e-06
0.000887593
-0.0276579
0.00533482
0.0223231
0.00252448
0.00132697
0.00110905
-0.000101367
7.33418e-05
2.80371e-05
-0.000184699
0.000168531
1.61726e-05
-0.000411862
-0.00452285
0.00493471
-0.000171031
0.000187802
-1.67686e-05
0.0271306
-0.009179
0.000197406
0.000493447
-0.000690886
-0.000711405
-0.000381668
0.000234906
0.000146769
4.60663e-05
7.51684e-05
-0.000121236
1.31858e-05
-9.39584e-08
-0.045486
-1.38525e-05
-7.85664e-06
-0.0314986
0.00555739
0.00029609
0.0272714
-0.0218714
-0.00540006
8.73047e-06
-1.00261e-05
-0.00218181
0.00459718
0.000876149
-0.000851706
-0.00910678
-0.0144775
0.0235842
0.000123492
0.000344053
-0.000467566
-0.020978
0.012181
-0.00470579
0.00381125
0.000894559
7.68421e-06
6.35761e-07
-8.32198e-06
0.0177874
-0.0454453
1.90836e-05
-2.81602e-05
9.07596e-06
-0.00342377
-0.0206777
-0.000181036
1.00071e-05
-0.000259011
0.000172184
8.682e-05
0.0234374
0.00050758
-0.023945
-0.0264945
0.0155876
9.4134e-05
-2.09681e-05
8.96302e-05
-6.86605e-05
-0.000274414
-9.71794e-08
2.57729e-05
-2.56734e-05
-7.8098e-05
-2.32657e-05
0.0186644
-0.0401697
-0.00551427
0.000135569
0.00537871
-0.000271427
0.000155272
0.000116147
2.30501e-05
-2.31474e-05
-9.51539e-06
2.86012e-05
-0.018843
0.0213248
0.0169462
-0.0153843
-0.00409416
0.00809229
-0.00399813
5.64304e-05
-1.0354e-05
-4.6076e-05
0.00590121
0.0016888
-0.00758999
-0.000105201
-0.000153813
-5.67189e-05
0.000951572
0.00164137
-3.37186e-05
8.33836e-05
0.00262928
-0.0269858
0.00469212
0.0222937
-0.000698206
0.000602319
-0.0230309
0.0059436
0.0170873
0.000123214
5.87509e-06
-0.000129101
0.000963206
-0.00190747
5.58763e-05
-8.95969e-05
5.86038e-05
-0.000151504
9.28983e-05
-0.00112216
0.000691461
-8.87833e-05
-7.68015e-05
0.00236424
4.05425e-05
-5.80017e-05
1.74623e-05
0.00828895
-0.0154995
0.00721057
-6.48685e-05
5.05929e-05
1.42767e-05
0.000574417
-0.00581226
-0.0366221
0.0150276
-0.000516751
-0.00239001
-2.07873e-06
3.77373e-08
-4.37472e-05
8.98146e-05
-0.0120272
0.0056975
0.0063297
0.0126577
-0.00675648
-0.000244663
-0.00692774
-7.21887e-05
1.14069e-05
6.07841e-05
8.58236e-05
-7.79236e-05
-7.89954e-06
0.000787852
-0.00177571
-0.0131511
0.00632745
-0.0211597
-9.00039e-05
-0.000181433
0.000102659
-1.34213e-05
-8.92404e-05
0.000111092
1.17149e-05
-0.000122818
-8.89554e-05
6.79879e-05
-0.000623949
-0.000195109
-3.68027e-06
9.53706e-05
-9.16859e-05
0.00805661
-0.000104806
4.79383e-05
0.000131402
-3.33158e-05
-0.00499712
4.79192e-05
1.08015e-05
-5.87202e-05
0.0102629
0.00813406
0.00923009
0.00441882
-0.0136489
-0.0255299
-0.00866586
0.0420986
-0.0312658
-0.0108328
-0.000506748
-0.00500753
0.000103391
-9.76612e-05
-5.7221e-06
2.07381e-06
-0.00047036
0.000205252
0.000278439
-0.000123173
-4.4557e-05
9.31968e-05
-4.86387e-05
-1.37466e-05
1.88071e-05
-5.0534e-06
8.15764e-06
-6.29044e-06
-1.86897e-06
0.00017989
-0.000102442
0.00384062
-0.0120288
-0.00580441
0.00357668
-0.012124
-0.0148618
-0.000665029
-0.00222757
0.0028926
1.88645e-05
6.27652e-05
-8.16288e-05
0.0013342
-0.00182924
-0.00168823
0.00224745
-0.000703601
0.00543046
-0.00472683
3.21662e-06
-6.75867e-07
0.000944509
-0.000323751
-0.000620757
-5.87449e-05
0.000117351
-0.0131117
0.00901649
0.00409522
-0.0155496
-0.00359719
0.0191468
-0.106208
-5.82997e-05
5.69311e-05
1.36733e-06
0.000211382
-0.00139907
0.00823803
-0.0124518
-0.0105791
-0.00601045
-0.0193923
-0.00115468
0.0205469
0.000234103
-0.000239497
5.40023e-06
0.00116326
-0.000455092
0.000226433
0.000196947
0.00864061
-0.000937151
-7.23525e-05
-9.43763e-06
8.17911e-05
3.37111e-05
-3.12479e-05
-2.45656e-06
0.00451027
0.00347249
-0.00798274
0.00614873
1.0218e-05
9.11898e-05
-0.000101404
0.0143291
-0.0221571
0.0321251
-0.0129511
-0.019174
6.76254e-05
3.73474e-05
2.90875e-05
6.80215e-05
-9.7109e-05
-5.34878e-05
0.000100581
-4.70962e-05
-5.77064e-05
-2.04625e-05
7.81709e-05
5.70732e-06
-0.000108733
0.000103033
0.000741445
-0.000957234
0.00021579
-0.00171762
0.00149992
0.00021771
-8.11871e-05
0.000116858
-3.56693e-05
-3.73977e-06
-6.86135e-05
0.0821761
-0.0729647
-0.00921141
-0.00589164
-0.00722007
2.2405e-05
-0.000135787
0.0640247
-0.049296
0.00780015
-0.0021662
-0.00563391
-0.000489705
0.000138075
0.000351633
4.77208e-06
0.000876448
-0.000881218
5.03247e-05
0.000228112
-1.20667e-05
1.74322e-05
0.000319361
8.70442e-06
-0.000328064
-0.00022969
-0.000260012
1.38418e-05
-1.35622e-05
-2.72751e-07
7.49192e-07
-0.000158287
0.000909493
-0.000168045
2.65936e-05
-9.95708e-05
7.29767e-05
-0.0109112
0.0343486
-6.25567e-05
-0.00120644
1.13845e-05
-9.19389e-06
-2.18848e-06
-5.54017e-05
-1.21399e-05
6.75436e-05
-0.0561364
0.0577622
-0.00162585
-7.30139e-06
2.93024e-05
-2.98128e-06
-2.63216e-05
0.0263057
-0.00900031
-6.09724e-05
-2.37627e-05
8.47369e-05
0.000154809
-0.00195623
-0.000609361
-0.000512815
0.000130048
-2.56798e-05
-0.000104371
-5.54659e-05
5.50074e-05
4.60525e-07
-2.42042e-05
2.31126e-05
1.09231e-06
0.00116958
-0.000377893
0.00142142
-0.00149805
7.66536e-05
8.39563e-07
5.52596e-06
0.0304388
0.0116598
0.00615348
-0.00179067
-0.0055434
-0.00687981
-0.0125125
-1.14342e-05
0.000122533
-0.00653636
-0.0155261
0.0220625
1.34293e-05
-0.00666396
0.0237652
0.000258634
-7.16906e-06
-4.42908e-05
5.14612e-05
-0.0043625
0.00735721
-0.00299469
0.0122294
-0.00976473
-0.000352786
0.000257363
9.54221e-05
-0.031295
0.048893
-0.017598
0.00350572
1.36787e-05
-1.01577e-06
-1.26623e-05
-0.00111009
-5.03841e-05
3.23038e-05
-3.00099e-06
-9.11892e-05
0.00113562
-0.00130584
-0.000909103
0.000604412
0.000304698
3.39114e-05
-4.045e-05
-0.0057756
-0.000415031
0.00619064
6.37107e-05
-9.33205e-05
2.96149e-05
2.98696e-05
5.74921e-06
-0.0208532
0.000247229
-8.34438e-05
-4.75817e-05
4.41065e-05
-8.86688e-05
-4.49259e-06
-5.0972e-05
-0.0170943
-7.5907e-05
2.0507e-05
-0.000187133
-0.000424704
0.000611839
-0.00164184
-7.57577e-05
0.018866
-0.0153562
0.00783763
-0.0181104
0.0102727
-0.0188588
0.00501486
-0.0468504
0.0442227
-9.09129e-05
3.336e-06
1.58446e-05
-1.91813e-05
3.67342e-05
9.3316e-05
-0.00415085
0.017238
-1.93154e-05
3.3657e-05
-1.43414e-05
9.06768e-05
-6.70504e-05
-2.36233e-05
0.000686769
-0.000405954
-0.000280815
2.41082e-05
-8.28624e-05
0.0191879
-0.0226117
-9.47459e-05
-1.35786e-05
0.000108318
-1.71796e-05
-0.000132388
0.000149556
0.000572599
-0.0168172
0.0162447
-8.08309e-05
-1.19517e-05
9.27843e-05
0.0021256
-0.00796561
-1.49316e-05
1.82702e-05
-0.000113162
3.19786e-05
-0.0340085
0.00767992
0.0263286
1.12857e-05
0.0132552
-0.00734101
-0.0026306
-0.0535058
5.87232e-05
-3.87267e-05
0.000126736
-0.00012768
9.43099e-07
0.0124706
0.0241223
-0.0365929
4.7961e-05
8.58109e-06
0.000367558
0.000319213
-0.0226023
-0.0102025
1.06063e-06
-2.95003e-06
1.88963e-06
0.0435902
-0.0292747
-0.0143155
0.000108322
-4.06994e-05
-1.28413e-05
-4.48635e-05
-0.000115503
0.00253101
-0.000315204
-0.000541647
-0.000367454
0.0558882
-0.00250844
-0.0533797
-2.80538e-05
9.96258e-05
0.000107808
-7.33031e-05
-3.44994e-05
-0.0033611
0.0252863
-0.0219252
-0.00970291
-0.000101076
0.00152255
0.00202108
-0.0034984
0.00147732
-0.00643346
0.000657851
-0.00675002
-0.00165736
0.00840739
0.00236176
0.0165042
-4.67009e-06
-8.15003e-07
5.4858e-06
0.00296108
-1.54748e-07
3.16969e-05
0.0584257
-0.00989434
0.0109803
-0.000152222
-0.00204105
0.000935482
-5.84916e-06
-8.88966e-05
0.0244076
0.00272293
3.79311e-06
3.46091e-05
-3.84005e-05
0.0100909
-0.0191977
9.68572e-05
-0.000180303
-0.014977
0.00434035
0.000250614
4.11503e-06
4.04066e-06
-8.78802e-06
3.60755e-06
5.18072e-06
-0.00010899
3.94561e-06
-0.0276761
-0.00863272
0.0278206
-9.51421e-05
2.24742e-05
-0.0114505
0.00999811
-8.13884e-05
6.54518e-05
1.59361e-05
8.60183e-05
-4.37027e-05
0.00895436
0.0346358
4.09007e-05
4.92711e-05
-9.01721e-05
0.00211007
0.00569009
-2.42735e-05
4.76364e-05
-2.33604e-05
0.000833007
-0.000389561
-0.000443457
-1.81389e-05
-7.65496e-05
-4.21e-05
1.78277e-05
3.82085e-05
6.96001e-05
-3.12172e-05
3.50111e-05
-0.00141482
0.0106449
-0.00270629
0.00472737
0.000718558
0.00203144
-0.00274999
0.00242349
-0.000396408
-0.00202706
0.000217479
0.000179227
-0.000396704
-9.87501e-05
0.000103188
-4.44296e-06
-0.0192894
-0.0102398
0.0295292
-6.86375e-05
-4.41517e-05
0.00011279
0.00195536
0.0539328
-8.14228e-06
6.08162e-05
-5.26704e-05
0.0300799
-5.26149e-05
0.00114722
0.0145755
0.000325942
8.87138e-05
0.000481622
-0.000178242
-0.000303377
8.32863e-05
-1.95771e-05
-0.00368144
0.017637
-0.0139556
3.03143e-06
2.19689e-06
0.0635972
-0.0783547
0.00311605
0.00434245
-0.00745849
-1.94601e-05
-0.000231728
-0.000652567
3.78174e-05
-0.000106455
4.20397e-06
-5.46703e-05
5.04647e-05
0.000386747
-0.000353922
-3.28231e-05
4.59716e-07
7.54777e-07
-1.20725e-06
-0.0116739
-6.64118e-05
-2.87307e-05
0.000174307
5.98005e-05
-8.39568e-05
0.000110564
-2.66062e-05
9.69663e-05
0.000414406
0.00638346
-0.0208609
0.00411471
-0.000173697
-7.33483e-06
-6.40915e-05
5.94867e-05
4.60727e-06
-0.000469452
0.000673644
-0.000204192
-9.2919e-05
0.0003104
2.82399e-05
6.46967e-05
-9.29339e-05
-0.00106778
-0.000547538
3.72674e-05
-1.24873e-05
-2.47786e-05
-5.59798e-06
-9.54834e-05
0.000202328
2.05061e-05
-0.000222831
-0.00497984
-0.000860949
0.00584078
-0.00470654
0.00343204
1.34914e-05
6.42569e-05
4.02154e-05
0.0153484
0.0139555
-0.029304
0.000352717
-0.00058602
0.000233304
-0.0293674
0.0968878
-0.0675204
-0.0213635
0.000103154
8.13395e-05
-0.000184489
-0.0040529
0.00745113
4.32657e-05
2.02798e-05
-6.35441e-05
0.000212777
0.000511439
0.00018611
-0.000506801
0.000465799
0.000568294
-0.00546734
0.00489907
0.000136913
-0.000154328
-0.00131789
0.0014727
0.0216792
-0.00669137
-0.0149878
0.0044391
-0.00145676
-0.00298234
-0.00754884
0.0228973
-0.000691226
0.0021044