/*--------------------------------*- C++ -*----------------------------------*\
| =========                 |                                                 |
| \\      /  F ield         | OpenFOAM: The Open Source CFD Toolbox           |
|  \\    /   O peration     | Version:  v2012                                 |
|   \\  /    A nd           | Website:  www.openfoam.com                      |
|    \\/     M anipulation  |                                                 |
\*---------------------------------------------------------------------------*/
FoamFile
{
    version     2.0;
    format      ascii;
    class       volScalarField;
    location    "400";
    object      nut;
}
// * * * * * * * * * * * * * * * * * * * * * * * * * * * * * * * * * * * * * //

dimensions      [0 2 -1 0 0 0 0];


internalField   nonuniform List<scalar> 
18758
(
0.00770911
0.00532629
0.00681057
0.00801903
0.0047994
0.0067891
0.00673909
0.0066947
0.00613322
0.0064309
0.00607858
0.00713756
0.00337283
0.00509432
0.00673586
0.00670989
0.00831338
0.00668539
0.00673325
0.00543254
0.0068626
0.0003811
0.00680346
0.00677966
0.000315916
0.000692666
0.0135993
0.000659781
0.000602915
0.00745379
0.0016524
0.0128974
0.0067148
3.70982e-05
0.00485864
0.0087766
0.00470796
0.00589468
0.00409651
0.00677307
0.00886453
0.00569951
0.0111233
0.00679444
0.00673948
0.00099242
0.00633339
0.000623455
0.0104789
0.00800215
0.00784798
0.0159777
0.00834107
0.00473658
0.000401488
0.00272831
0.00679689
0.00492729
0.00076253
0.0067966
0.00674511
0.00678953
0.0134826
0.0114544
0.00674858
0.00243045
0.00675463
0.00671162
0.000875708
0.00668756
0.0172849
0.000461129
0.00674539
0.00285189
0.00126312
0.00230187
0.00368674
0.011234
0.00639108
0.0116439
0.000419435
0.00359802
0.0104418
0.001244
0.00674301
0.000328596
0.00210231
0.0031069
0.0129922
0.000362064
0.0173872
0.00675989
0.000634976
0.00999664
0.00674206
0.00670193
0.00672858
0.00092822
0.0115477
0.00674584
0.000822442
0.00238902
0.00671168
0.00670154
0.00195199
0.0068823
0.000575704
0.0177461
0.00554014
0.00656716
0.00671014
0.00827542
0.00648316
0.00677716
0.00240125
0.0134631
0.000953014
0.00678297
0.0213082
0.00673271
0.00676024
0.00389398
0.00673781
0.00674192
0.0127425
0.00636955
0.00679837
0.00674117
0.000586724
0.0119482
0.000714208
0.00677749
0.00598604
0.00641252
0.00677641
0.00676036
0.00203454
0.0067774
0.000785051
0.000493652
0.00648322
0.00843249
0.00123806
0.00535556
0.0127696
0.000723218
0.00298302
0.000504192
0.00569794
0.0208243
0.0119824
0.0104909
0.00678073
0.00574593
0.00877327
0.0151268
0.000605593
0.000430959
0.00150694
0.00623668
0.0105495
0.00677412
0.00714637
0.00266994
0.00212306
0.00680288
0.00677177
0.0122938
0.0121215
0.00579312
0.00882467
0.00681251
0.000491273
0.0132137
0.00836498
0.00676636
0.00673958
0.000580233
0.000294954
0.00470146
0.00668989
0.00658934
0.000625442
0.00381551
0.014888
0.0067236
0.00750137
0.0031953
0.00968509
0.00218418
0.010025
0.00672318
0.000738155
0.00259582
0.00667889
0.00496152
0.000997601
0.00677597
0.00966811
0.00678241
0.00680151
0.000462573
0.00203736
0.00670566
0.00671117
0.00757841
0.00680195
0.00499999
0.0120187
0.0112457
0.00680941
0.000596164
0.00684839
0.00678119
0.00499844
0.00673305
0.00674785
0.000597883
0.00675381
0.010951
0.00237163
0.00680723
0.00105151
0.000524637
0.00226604
0.0126739
0.00170794
0.00048184
0.0112718
0.00679691
0.000936036
0.000910641
0.00753037
0.00677627
0.00670561
0.0068118
0.00113839
0.0111499
0.00289978
0.00681279
0.00671252
0.00110306
0.000683662
0.00680904
0.0198077
0.000718735
0.00670488
0.00670286
0.00678676
0.00674825
0.00880839
0.00679167
0.00506203
0.00681578
0.00683189
0.00417624
0.00680312
0.000317015
0.00672452
0.00419662
0.00651084
0.00675071
0.00670549
0.000712061
0.0170742
0.0161035
0.0067532
0.000793101
0.00678228
0.00681591
0.0223314
0.00144335
0.00681421
0.006786
0.00698607
0.00587878
0.00620896
0.00673624
0.00677586
0.00556264
0.00670154
0.00679129
0.00671235
0.00340405
0.00673675
0.00678048
0.00666855
0.000571388
0.00670258
0.00670172
0.00681594
0.00549432
0.00679425
0.00677976
0.00681074
0.00682667
0.0122116
0.00676572
0.00679883
0.0135011
0.00378843
0.00675647
0.00675608
0.0119959
0.00777382
0.00668964
0.00562358
0.00698818
0.00677862
0.00259141
0.00671252
0.0161751
0.000645423
0.000533494
0.000498405
0.000248985
0.0067066
0.0138287
0.000712097
0.0067538
0.000676622
0.00137736
0.0210398
0.0067108
0.0067067
0.0115482
0.0144791
0.00673362
0.012433
0.00116107
0.00690573
0.00770558
0.00670959
0.00680443
0.00671776
0.00677084
0.00680311
0.0070891
0.00523413
0.0068065
0.00680805
0.00681261
0.00328047
0.010334
0.00680073
0.0138275
0.0129406
0.00673026
0.00171834
0.00870468
0.000275959
0.00779862
0.00184588
0.00672228
0.0113844
0.00313469
0.00214335
0.00681225
0.00682869
0.00678471
0.00679434
0.000850884
0.00346402
0.00819771
0.0013061
0.00245093
0.006706
0.00258472
0.00514782
0.000923381
0.0106539
0.00972743
0.00953443
0.00105554
0.00924805
0.00234641
0.00683777
0.00136991
0.00044868
0.00741417
0.00866123
0.00673132
0.00677862
0.000295125
0.00789925
0.0113464
0.0224345
0.012435
0.00666753
0.00660285
0.00587649
0.00671032
0.00445954
0.00636653
0.00686501
0.00676212
0.00678035
0.00673026
0.00680669
0.00680915
0.00683346
0.00371918
0.00258666
0.00188962
0.00156695
0.0015987
0.0110176
0.00252662
0.00047064
0.00680516
0.00678603
0.0109967
0.005966
0.0068095
0.00640538
0.000960733
0.00670209
0.00680272
0.00525419
0.00674217
0.00371136
0.00668505
0.00899077
0.017148
0.00782116
0.00680627
0.00850021
0.00061499
0.00674363
0.0068502
0.00681494
0.00855531
0.00681388
0.0067766
0.00220544
0.00187452
0.00680775
0.00673656
0.00667899
0.00629121
4.75724e-05
0.00414525
0.00684162
0.00165734
0.00668457
0.00770741
0.000363358
0.00671284
0.00131504
0.00682375
0.00641233
0.00680524
0.00635378
0.00693135
0.00672938
0.0116929
0.00774185
0.00667326
0.00279639
0.00665167
0.00670774
0.00677359
0.00674687
0.0135186
0.015224
0.00680299
0.00234294
0.00272254
0.000718572
0.0132999
0.000621313
0.014065
0.00677419
0.000419857
0.000971015
0.00277378
0.00672157
0.0111652
0.00549976
0.00643089
0.00673743
0.00674077
0.00670545
0.0067117
0.00670517
0.00670949
0.00324758
0.00680685
0.00667783
0.00055401
0.00677772
0.00680835
0.0067758
0.00667543
0.00563658
0.00702521
0.00680285
0.00827808
0.00682319
0.00191648
0.000402888
0.0149388
0.00109922
0.00673564
0.00672283
0.0152222
0.00725463
0.0035442
0.00680002
0.00945587
0.00359359
0.00666975
0.00680747
0.00947731
0.00585282
0.00057505
0.00323566
0.00687676
0.00269474
0.00670432
0.00675448
0.00674793
0.0068193
0.00679419
0.00675522
0.0152096
0.00667721
0.00698357
0.00417929
0.00667441
0.00667883
0.00681534
0.00358253
0.0025365
0.00428631
0.00674563
0.00220362
0.00530614
0.0028927
0.00679502
0.00681597
0.00678402
0.00680716
0.00680553
0.0144735
0.0151872
0.00670001
0.0067884
0.00558434
0.0127312
0.00668773
0.00674069
0.006716
0.00667875
0.00677304
0.00679247
0.00675426
0.00670855
0.000538231
0.0067429
0.00678309
0.00084901
0.0147836
0.00655998
0.00679683
0.00675759
0.0068138
0.0067284
0.00675042
0.00656833
0.0101545
0.00556728
0.00700951
0.00675638
0.00157573
0.00679662
0.00679046
0.000890675
0.00668756
0.00681791
0.0132733
0.00680475
0.00400114
0.00173882
0.00676675
0.00672484
0.00911996
0.00678246
0.00370181
0.00582578
0.00678148
0.00681011
0.00172125
0.00634045
0.0029141
0.00676073
0.00325287
0.00629592
0.0147641
0.00670648
0.0136476
0.0066726
0.00681403
0.00673879
0.00781775
0.00197753
0.00108456
0.00683402
0.00422561
0.00670638
0.00222902
0.00779919
0.00670321
0.00278859
0.00366658
0.0112499
0.00603613
0.00461313
0.00672817
0.00834635
0.00104404
0.00677598
0.00673073
0.00668763
0.00671969
0.00621797
0.00285802
0.0052574
0.0137198
0.00574461
0.00659708
0.00674163
0.00669774
0.00586801
0.000353309
0.00677728
0.00100184
0.0107653
0.0143131
0.00682266
0.00682885
0.0014241
0.00794886
0.00667161
0.0085263
0.00678279
0.00679879
0.00221044
0.00674456
0.00680486
0.00678048
0.00670209
0.00681997
0.000845111
0.000956351
0.0112394
0.00677872
0.00677899
0.0184485
0.00674618
0.0221035
0.0147646
0.00678804
0.00378645
0.00678799
0.00679393
0.00257184
0.0144512
0.0138029
0.0163054
0.00628898
0.013547
0.00667593
0.000805662
0.0104218
0.00238266
0.00682388
0.00592061
0.00409507
0.00195348
0.00787711
0.0138522
0.00677076
0.012897
0.00678936
0.00112057
0.000567758
0.00674089
0.00568712
0.00290998
0.00321139
0.0028298
0.00673828
0.00667964
0.00681159
0.00689481
0.00301607
0.0013351
0.00679456
0.0179624
0.00662238
0.0068169
0.00270696
0.00667297
0.00850421
0.00671216
0.00672215
0.0173114
0.00669773
0.00677656
0.0094409
0.0005752
0.00055781
0.00672242
0.00681143
0.00136253
0.00680524
0.0074392
0.00358784
0.00495152
0.0067661
0.00681873
0.00667653
0.0114316
0.00667436
0.0119211
0.000570405
0.00517617
0.0179808
0.00677139
0.00672875
0.00466409
0.00148667
0.0036217
0.00737348
0.010285
0.00682489
0.00999469
0.00668538
0.00709912
0.00680814
0.00681228
0.00401768
0.00885653
0.00671168
0.00681875
0.00670448
0.00671951
0.00672133
0.0101381
0.0157748
0.00680502
0.00671629
0.00668643
0.00125334
0.00102028
0.00335771
0.00670283
0.00148627
0.00681332
0.00681357
0.00241941
0.0106288
0.006702
0.00158742
0.00787878
0.00692046
0.00648853
0.00673908
0.00600526
0.00670306
0.00678778
0.00460973
0.00681821
0.0010811
0.00671003
0.00527576
0.00674884
0.00363243
0.000727328
0.00325459
0.00110566
0.00679585
0.00681805
0.00862257
0.00316866
0.00155963
0.0067039
0.00674964
0.00343084
0.00334908
0.00942725
0.00680414
0.00671266
0.00680617
0.00681619
0.00676681
0.00673275
0.00677548
0.0143219
0.00671267
0.00672664
0.00879277
0.00670751
0.000963528
0.00075819
0.00224455
0.0215365
0.00803942
0.0156054
0.00673158
0.00675089
0.00576079
0.0068033
0.00670755
0.00672432
0.00674732
0.0068141
0.0129177
0.000366484
0.00679294
0.00713881
0.0067382
0.00500173
0.00361873
0.00107705
0.00682037
0.00676553
0.00678599
0.0138334
0.00262197
0.0155782
0.00677405
0.000559676
0.000486377
0.00657622
0.00411859
0.00419056
0.00677444
0.00704931
0.00679419
0.000253721
0.00681231
0.00668605
0.000775749
0.00387791
0.00672307
0.0048045
0.00708347
0.00671235
0.00673118
0.00671167
0.00680837
0.00674119
0.00666862
0.00584257
0.00674995
0.00681507
0.0109316
0.0138379
0.0067322
0.0123263
0.000356024
0.00679272
0.0068004
0.00680393
0.00677663
0.00673311
0.00679264
0.006785
0.00680852
0.0066941
0.00680574
0.00351549
0.00617126
0.00677
0.00680915
0.00873068
0.00677513
0.00668716
0.00106522
0.00670713
0.00243568
0.00238389
0.0067253
0.00670474
0.00672485
0.00417097
0.00121197
0.00678093
0.0087808
0.000850284
0.000581262
0.00506504
0.00681218
0.00262744
0.00667759
0.00851421
0.00521831
0.00679293
0.000350476
0.00819226
0.00680488
0.0101068
0.00101799
0.00675616
0.0023962
0.00668907
0.00675802
0.00615869
0.0067285
0.00673367
0.004893
0.00670677
0.00678849
0.00855387
0.00679798
0.00670828
0.00670564
0.00191197
0.00681079
0.00679005
0.00585745
0.00196124
0.00757088
0.00371645
0.0149032
0.00675931
0.00667636
0.00672568
0.0108989
0.00680871
0.00674439
0.00491456
0.00678049
0.00687464
0.0068139
0.00677535
0.00267726
0.00672801
0.000689236
0.0016134
0.00667575
0.00674853
0.00884862
0.00617287
0.00929474
0.00854212
0.006696
0.00674205
0.00482583
0.00670271
0.00569576
0.0119088
0.0067345
0.00770138
0.00671203
0.00680291
0.00673802
0.00440827
0.00671462
0.0113005
0.00674291
0.00671021
0.00926942
0.0101277
0.000896171
0.00649637
0.00456874
0.00793541
0.00246933
0.00666789
0.00792692
0.00678159
0.0101116
0.0116496
0.00680303
0.00768836
0.00681683
0.00874235
0.0067233
0.00130087
0.00679913
0.002591
0.000284689
0.00673834
0.00668389
0.0067302
0.00888585
0.00786095
0.00678764
0.00259445
0.00674428
0.00670475
0.0081364
0.00672412
0.000578516
0.00672448
0.00635276
0.00670922
0.00672709
0.00671068
0.00672567
0.000717395
0.00638002
0.00187023
0.00538678
0.00679599
0.00672492
0.00572406
0.00671125
0.0118898
0.00675059
0.00917668
0.00313359
0.00585772
0.00679907
0.00680654
0.00670606
0.014373
0.00682667
0.0141898
0.00137451
0.00671118
0.00298219
0.00671024
0.00669694
0.0066892
0.00678945
0.006647
0.00679187
0.00676168
0.00677437
0.00423205
0.00148719
0.00305151
0.00680828
0.0067043
0.00679398
0.00680423
0.00672254
0.00690997
0.00681893
0.00672946
0.00677528
0.0067979
0.000394558
0.000465941
0.00680507
0.00677873
0.00148261
0.00676869
0.0117682
0.00245663
0.00681549
0.00738531
0.00679907
0.00679941
0.00678424
0.00664001
0.00656232
0.00678869
0.00231641
0.0070808
0.00714759
0.00112805
0.00651872
0.0145243
0.00214608
0.00677934
0.00674192
0.00669154
0.0067792
0.00680406
0.00424496
0.00563118
0.00677773
0.00673704
0.0117703
0.00328031
0.00687543
0.00714798
0.00629076
0.00709767
0.00674464
0.00363125
0.00677953
0.00255343
0.00698717
0.00680984
0.00680923
0.00847799
0.00571951
0.00672365
0.00966393
0.00668537
0.00677014
0.00681046
0.00599
0.00680115
0.00515606
0.000460554
0.0059582
0.00703969
0.000583147
0.0149593
0.0068605
0.0107716
0.0099813
0.00680239
0.00570107
0.00681155
0.00674384
0.00630175
0.00677848
0.00142299
0.000914516
0.00680793
0.00668382
0.00161938
0.00696971
0.0151522
0.00676384
0.00681567
0.00674184
0.00145847
0.00781399
0.00585822
0.00439526
0.00674085
0.00674246
0.000667591
0.00652097
0.00673307
0.000824456
0.00679688
0.00793487
0.00968169
0.000759423
0.00302089
0.00681642
0.00676767
0.00681996
0.00672433
0.0106822
0.00073013
0.0150915
0.0061024
0.0199331
0.00680024
0.00659715
0.0167014
0.00661511
0.00047176
0.012948
0.00595472
0.0102195
0.000459287
0.00252679
0.00668231
0.00673803
0.00681105
0.00167164
0.00670526
0.00680889
0.003577
0.00852746
0.0112522
0.0125332
0.000571303
0.00401349
0.00665344
0.00669689
0.00672257
0.00995622
0.0010592
0.006807
0.00577972
0.00157316
0.0113469
0.0111724
0.00437827
0.000932571
0.00667395
0.00960943
0.00679924
0.0100115
0.00724981
0.00297925
0.000431708
0.000597939
0.00674143
0.00674666
0.00718472
0.00708654
0.000376715
0.00680189
0.00681473
0.00658583
0.00585772
0.00667636
0.0119185
0.00681591
0.0147815
0.00955236
0.00404447
0.0111478
0.00143959
0.0141307
0.0066754
0.00175255
0.0147773
0.00534462
0.00670975
0.00512348
0.00752957
0.00673544
0.00670728
0.00722034
0.00690211
0.006824
0.000148578
0.00879811
0.00681515
0.00223017
0.00214157
0.00297261
0.00599987
0.00606757
0.0103211
0.00409233
0.00676676
0.00673661
0.00861935
0.0067036
0.0218045
0.00669858
0.00670327
0.0143732
0.00678594
0.00674374
0.00420603
0.00667466
0.00577944
0.00672375
0.00675273
0.00673564
0.000442266
0.00681008
0.0108613
0.000289711
0.00452684
0.00754554
0.00651419
0.00669973
0.00670283
0.0149081
0.00625749
0.00682373
0.0104785
0.00543798
0.0120686
0.0067583
0.00669372
0.00669392
0.00678322
0.00680553
0.00674083
0.0067877
0.00678148
0.00672166
0.00878269
0.00668725
0.013519
0.0068144
0.00672694
0.00699202
0.00145403
0.0179992
0.0127776
0.00345868
0.0140564
0.00100586
0.0173859
0.00678173
0.00184569
0.00131669
0.012446
0.00673063
0.0127195
0.00719186
0.000597413
0.00673563
0.0141129
0.00673014
0.00671223
0.00683049
0.00204913
0.0075985
0.00146383
0.00676688
0.00669115
0.00679442
0.00668399
0.00541387
0.0067194
0.0170796
0.000764425
0.0066237
0.00679211
0.00673406
0.00673542
0.0152097
0.00204784
0.0068212
0.00677959
0.00618795
0.00668316
0.00672427
0.00669443
0.00680487
0.00673317
0.00676637
0.00672168
0.00674297
0.00544557
0.00333589
0.00294371
0.00678901
0.00038359
0.0067948
0.000172761
0.00670547
0.000857737
0.00924887
0.00843903
0.0019514
0.000815473
0.01399
0.00679627
0.00205108
0.00674968
0.00672508
0.0067645
0.00670975
0.00216794
0.00311659
0.00466496
0.00218234
0.00675781
0.00680741
0.00409777
0.0061082
0.00666962
0.000999043
0.000648724
0.000386753
0.00284599
0.00681785
0.00681202
0.0114367
0.00589125
0.00670578
0.00673713
0.000419042
0.00669425
0.00670473
0.0188571
0.000829867
0.00676775
0.00679065
0.00676194
0.0183412
0.00338315
0.0130092
0.00121022
0.00672547
0.00675066
0.014584
0.00539939
0.0069773
0.00673895
0.00599252
0.00701396
0.00670491
0.00563766
0.000774516
0.00213556
0.00923178
0.0066254
0.0019887
0.0128576
0.0150786
0.00679562
0.0139495
0.000990339
0.00701804
0.00497645
0.00675022
0.000483491
0.000499787
0.0127712
0.0068497
0.00309429
0.00322668
0.00796778
0.00673498
0.00668767
0.00747354
0.00671309
0.00672992
0.00671326
0.00680743
0.00676879
0.00681407
0.0067337
0.00673076
0.00613065
0.00618878
0.00675383
0.00678035
0.0109204
0.00842873
0.00667601
0.000662485
0.00380868
0.00109293
0.00680567
0.00671125
0.0152199
0.00680501
0.000953375
0.000532133
0.00670807
0.00724568
0.00619975
0.00678605
0.00689076
0.0018917
0.0156512
0.00681811
0.00678291
0.00672583
0.00677095
0.00671315
0.0115188
0.00266443
0.00674592
0.00711121
0.000251726
0.00681009
0.00677926
0.00670964
0.0109258
0.0141155
0.00662113
0.00501482
0.00397644
0.00549994
0.0127663
0.0067248
0.00675945
0.00473009
0.00270864
0.0124972
0.00990728
0.00673968
0.0102526
0.0135454
0.00699265
0.0067054
0.00677735
0.00663488
0.00674779
0.00680746
0.00670582
0.00249918
0.00854509
0.0067818
0.00681536
0.0035388
0.00670702
0.00676069
0.00685274
0.0144835
0.00669709
0.00685562
0.0148689
0.000655245
0.00226771
0.000534753
0.0068028
0.00678599
0.00676871
0.00673581
0.00670788
0.00681281
0.00861115
0.00686732
0.00678267
0.00673797
0.00678533
0.00827164
0.00297454
0.00676758
0.0209189
0.00677297
0.00671948
0.000440397
0.0180544
0.00658543
0.00570157
0.00324989
0.00431665
0.00669451
0.000271682
0.000698574
0.00669863
0.000538387
0.00758517
0.00679022
0.00648744
0.0125106
0.000616561
0.0068102
0.00350602
0.00308312
0.00672598
0.00116791
0.00038868
0.00606021
0.00673811
0.00172699
0.00165463
0.00673429
0.00147071
0.00580249
0.00678425
0.00474697
0.00173853
0.00510705
0.00391241
0.00650601
0.00669634
0.000228759
0.0129016
0.000588125
0.0028549
0.00679327
0.0156946
0.0067963
0.00674491
0.00129205
0.00680427
0.00404802
0.0149322
0.00679967
0.00181604
0.00208832
0.0158017
0.00538855
0.000699656
0.00666832
0.0067955
0.00549277
0.00666651
0.00930782
0.00209546
0.00520881
0.00780664
0.00099276
0.00678883
0.017279
0.00679272
0.00685969
0.00114559
0.000727109
0.00679945
0.00672916
0.0037934
0.00580366
0.00610694
0.00672498
0.0068022
0.00649068
0.00673794
0.00141843
0.0143087
0.00676759
0.00770668
0.00675147
0.0123663
0.000816701
0.0033877
0.00673871
0.00686969
0.0067935
0.00676775
0.00677904
0.013033
0.00325907
0.0134811
0.00681862
0.00673966
0.00205107
0.000373788
0.00679872
0.000411942
0.000953067
0.000421182
0.00860321
0.00672468
0.00680298
0.00789754
0.00666673
0.00676285
0.006477
0.0067722
0.00676536
0.00672178
0.00672465
0.00454554
0.00671177
0.0031843
0.0062575
0.00682278
0.00147577
0.0121072
0.00634496
0.00668468
0.00672266
0.00699786
0.00672473
0.00672098
0.00677913
0.00051288
0.00679895
0.00681676
0.00631402
0.0033544
0.00633543
0.00674134
0.00684604
0.00402748
0.00612878
0.0022747
0.00420515
0.00678391
0.00673439
0.00339145
0.00376559
0.00676156
0.00366979
0.000393903
0.00672024
0.01173
0.00680845
0.000740561
0.00293086
0.01576
0.0108836
0.00656667
0.00670524
0.0103542
0.00670991
0.0123853
0.00701793
0.0067118
0.0123812
0.00680723
0.00122314
0.00673568
0.00274477
0.000551264
0.0136386
0.00674009
0.00678741
0.00128288
0.00680673
0.00704248
0.00680338
0.00469145
0.00194955
0.00154888
0.000470646
0.0121204
0.00677448
0.00673703
0.00675217
0.00928859
0.00805386
0.00682129
0.00673481
0.00682272
0.00668499
0.00694745
0.00678111
0.00670289
0.00306287
0.0068148
0.00670175
0.00659505
0.0178769
0.00211359
0.0154705
0.00677269
0.00234863
0.00720788
0.00271311
0.000363867
0.0038588
0.0127426
0.00681415
0.00312449
0.00667735
0.00265313
0.00681179
0.00091298
0.00643931
0.00680222
0.00063119
0.00677551
0.00458387
0.0102746
0.00670487
0.00675362
0.00680016
0.00680314
0.0133777
0.00677856
0.0067751
0.00568533
0.00680699
0.00675957
0.00674948
0.00672299
0.00680122
0.00671841
0.00671371
0.0137253
0.0136235
0.000270736
0.00674488
0.00669232
0.00671517
0.00671763
0.00668031
0.00184915
0.00668738
0.00669953
0.00672398
0.00670672
0.00335928
0.00670933
0.00105779
0.00702586
0.0015992
0.00099635
0.00678298
0.0111411
0.00552617
0.000385318
0.00679132
0.00566432
0.00675349
0.00675519
0.00679462
0.00124179
0.000625508
0.00671222
0.00741789
0.00268485
0.00674057
0.00462348
0.0120834
0.00208324
0.00673476
0.00672358
0.00146327
0.00702614
0.00221648
0.00671405
0.0067933
0.006771
0.00700633
0.00282156
0.0141571
0.0020178
0.00672092
0.0090043
0.0078488
0.00576553
0.00670601
0.00369759
0.0067102
0.00679566
0.00680251
0.0034114
0.0104595
0.00676449
0.00678558
0.0067523
0.00181393
0.00678897
0.00785011
0.00679736
0.00265429
0.00589911
0.00618805
0.00672147
0.00670211
0.00668163
0.00569368
0.00668436
0.0192309
0.00616653
0.00202116
0.00498845
0.0067185
0.00945784
0.00679657
0.0066949
0.00576328
0.000872719
0.000623296
0.00965433
0.0055119
0.000512758
0.00634269
0.00220164
0.00679058
0.00612181
0.00678334
0.00696344
0.00107869
0.00681089
0.00630777
0.00645564
0.00319047
0.0126174
0.00876399
0.00370152
0.00639624
0.000509272
0.00682089
0.00662376
0.00676457
0.00672522
0.00672683
0.0108283
0.0184245
0.00674783
0.00488818
0.00543754
0.00437378
0.00671319
0.00663328
0.00669321
0.00379087
0.00670876
0.0066736
0.00689229
0.00154915
0.0134984
0.00212458
0.00597974
0.00674134
0.00657945
0.00282842
0.00677303
0.00129367
0.000272654
0.00666737
0.000632852
0.00669292
0.0140416
0.00680928
0.000103428
0.00682052
0.00678668
0.00641135
0.00612545
0.00122586
0.00687395
0.00484453
0.00431642
0.00678442
0.00679184
0.00674627
0.00671987
0.0067245
0.00156121
0.00770611
0.00674589
0.0068048
0.00395959
0.00673225
0.00676831
0.006814
0.000544939
0.00791631
0.0125218
0.00680931
0.00284931
0.00669916
0.000562897
0.00395947
0.00098456
0.00389864
0.00913233
0.0132012
0.00667483
0.00677691
0.00670808
0.00673498
0.00676756
0.00672547
0.0158354
0.00674628
0.00678312
0.00682116
0.00194139
0.00670512
0.0142668
0.00776314
0.00654992
0.00680039
0.0023414
0.00671607
0.0119427
0.00251613
0.0068039
0.00714951
0.0034993
0.000562275
0.00677885
0.00687325
0.00240377
0.00141971
0.000573647
0.0063313
0.000950314
0.000481314
0.00427827
0.0067832
0.00677864
0.0051283
0.00539295
0.0094711
0.00680151
0.00166722
0.00222522
0.00930283
0.00676732
0.00900035
0.00650892
0.00683712
0.00674915
0.00636413
0.000591826
0.00671978
0.00795877
0.00555441
0.000634321
0.00670715
0.00426351
0.00556958
0.00888842
0.0144211
0.00503851
0.0069841
0.0118574
0.00645473
0.00681365
0.00183195
0.0136472
0.000767513
0.0010835
0.00632166
0.00595916
0.00107973
0.00674031
0.00565086
0.000938991
0.00676033
0.00885339
0.0089871
0.00121279
0.0072527
0.000440035
0.00784204
0.00670049
0.00113874
0.00676548
0.000531906
0.00684245
0.00741952
0.0145578
0.00423266
0.0145414
0.000671009
0.0024163
0.0042466
0.00348466
0.0148738
0.00949645
0.00519077
0.006782
0.00675168
0.00509546
0.00674529
0.00671035
0.00203015
0.00672954
0.00671935
0.00265896
0.00677622
0.00668564
0.00740645
0.00955374
0.000633924
0.00678706
0.00678089
0.00307064
0.00677953
0.00672528
0.00671023
0.0066911
0.00154085
0.00601109
0.00165873
0.0035381
0.00676457
0.0066735
0.00260477
0.00064624
0.0096281
0.00681305
0.00680913
0.00380093
0.00671375
0.00169731
0.00261869
0.0123269
0.00592361
0.00301761
0.00677669
0.00589768
0.0148341
0.0119025
0.0103838
0.00476013
0.00678369
0.00669832
0.00554745
0.00232974
0.00929611
0.00674831
0.00603089
0.00667445
0.00679158
0.00073845
0.00672652
0.00804832
0.00065252
0.00978722
0.00672968
0.00266381
0.00106137
0.0174415
0.00678266
0.00677752
0.000919079
0.00591628
0.00718759
0.00602046
0.0108152
0.00675762
0.000407496
0.00525173
0.00664475
0.0126034
0.00704957
0.00673026
0.00676068
0.00673304
0.00394517
0.00236818
0.00640954
0.0010152
0.00674775
0.00673349
0.00677829
0.000848582
0.00338697
0.00103036
0.00671706
0.00681627
0.0053349
0.00781164
0.00671506
0.00867249
0.00678916
0.00699909
0.00663199
0.00670635
0.0026489
0.0166517
0.0133188
0.00046238
0.00680601
0.0030173
0.0069303
0.0117387
0.00621202
0.00679512
0.0113163
0.00670565
0.0066671
0.00496297
0.00216796
0.00669554
0.0132738
0.00829153
0.00566072
0.00668245
0.00618704
0.00648191
0.00425416
0.00669848
0.00250707
0.00674914
0.0115886
0.0163394
0.00672186
0.00675724
0.000400787
0.00288006
0.00673515
0.00678754
0.00670538
0.000828946
0.00438833
0.00270728
0.00675588
0.00676677
0.00677831
0.00667474
0.00730859
0.00672756
0.0159069
0.0138465
0.00755858
0.00680186
0.00671161
0.00340644
0.00435964
0.000823021
0.0021423
0.000457596
0.0144883
0.00900718
0.00669584
0.00435784
0.00427766
0.00674931
0.00672373
0.00671636
0.00671746
0.000775336
0.0109292
0.00677189
0.00486702
0.0162236
0.00753008
0.00671183
0.00672936
0.0101262
0.00670693
0.00679712
0.00667606
0.00674858
0.000785966
0.00676208
0.013693
0.00896493
0.00680637
0.00143855
0.00229414
0.0175192
0.0212922
0.00671992
0.00489583
0.00189336
0.000243187
0.0225633
0.00553603
0.00682473
0.00671962
0.000480584
0.00669685
0.0104376
0.00821129
0.00671463
0.00228021
0.00672627
0.0130495
0.00679438
0.00943899
0.00678292
0.00159475
0.0119832
0.0157886
0.0116203
0.00673163
0.00767979
0.00687623
0.00681759
0.013414
0.00681485
0.00667839
0.00677095
0.0060616
0.00629623
0.00676836
0.00672646
0.00222639
0.00110459
0.00137629
0.00398149
0.000755184
0.00325162
0.00679074
0.00081625
0.00675611
0.000447253
0.00622824
0.0090257
0.0148805
0.0067379
0.00346889
0.006774
0.00687558
0.00657069
0.00670442
0.013037
0.0120592
0.00802744
0.00705479
0.00676267
0.00131776
0.00937116
0.006817
0.00669153
0.00673944
0.00673972
0.00155369
0.00674688
0.00411905
0.00679321
0.0181652
0.0067255
0.00645388
0.014999
0.00184212
0.00674927
0.00038881
0.00678901
0.00673462
0.000754258
0.0128941
0.00674365
0.00584556
0.0158494
0.0067713
0.0010063
0.00592065
0.0025695
0.000896207
0.00679142
0.00516554
0.00527175
0.0200434
0.00671062
0.00679375
0.000437679
0.00672296
0.00903604
0.00565556
0.00450346
0.0165221
0.00677103
0.00672038
0.00638521
0.00672468
0.00226515
0.0155956
0.00673109
0.00382688
0.00676998
0.00700834
0.00678375
0.00437739
0.00971706
0.0060921
0.00251773
0.00673773
0.00552739
0.00668032
0.0157777
0.00670751
0.00679589
0.00657559
0.00676749
0.00669937
0.00212929
0.00549395
0.0067409
0.0122618
0.00674641
0.00113496
0.00376047
0.00847541
0.00705662
0.00679525
0.00195011
0.00672818
0.0067072
0.00557522
0.0103055
0.00433423
0.0132364
0.000368399
0.00669313
0.00679799
0.00681045
0.00671165
0.00670242
0.0113628
0.00671577
0.00670383
0.000376952
0.00679697
0.00210061
0.00674511
0.00669501
0.00901096
0.00628508
0.00677257
0.000804181
0.00668033
0.0172336
0.00672214
0.00671465
0.00465697
0.0067994
0.00410247
0.000600957
0.00551238
0.00678628
0.000319623
0.00435732
0.000935092
0.000367951
0.00249738
0.00660504
0.00720717
0.00191759
0.000309249
0.00679075
0.00910068
0.00302023
0.00221315
0.0161978
0.00680301
0.00674514
0.00672179
0.00944721
0.0116461
0.0204577
0.0147621
0.00674801
0.00276219
0.00681246
0.0056148
0.00675952
0.00217257
0.000529894
0.00675622
0.00677717
0.000373698
0.00635348
0.00681781
0.00584009
0.000850066
0.00663884
0.006725
0.00280685
0.00682317
0.00681387
0.00679649
0.00216471
0.00862413
0.0143148
0.00378873
0.00629187
0.0160303
0.00464063
0.000723606
0.00672944
0.00672131
0.00237218
0.013009
0.0101544
0.00678955
0.00524506
0.00411771
0.000771669
0.000556545
0.00652529
0.00531589
0.00497563
0.00669102
0.0143917
0.00679635
0.000682957
0.00298757
0.000447695
0.000363365
0.00674925
0.0106959
0.00075279
0.0125983
0.0023241
0.00672782
0.00671706
0.00676736
0.00399761
0.00669458
0.00575006
0.000573142
0.0106406
0.00670472
0.00529349
0.00153958
0.00666023
0.0138637
0.00625974
0.00679126
0.00674546
0.00429201
0.00674809
0.00407145
0.0060978
0.00681326
0.00676959
0.014489
0.00769338
0.00420291
0.00299858
0.0031415
0.00672263
0.0120196
0.00677234
0.00478663
0.00137019
0.00572411
0.00257529
0.000416589
0.00290712
0.00671739
0.00672041
0.0124062
0.00392418
0.00314691
0.000487075
0.0011151
0.00678897
0.00164303
0.00671817
0.0043288
0.00671668
0.0049492
0.0138524
0.00648632
0.000409515
0.00669258
0.00256915
0.00213558
0.00709871
0.00576405
0.0126144
0.0046355
0.00670657
0.0161674
0.00174004
0.0120744
0.00670429
0.00682425
0.0125968
0.000756728
0.00853964
0.0067908
0.0066995
0.00677312
0.00618693
0.00682205
0.0066974
0.00302997
0.00672784
0.0182261
0.00512415
0.00706582
0.00675293
0.000305622
0.00267211
0.000388143
0.000333717
0.0115323
0.00672239
0.000724407
0.00297801
0.00670408
0.00681659
0.00679686
0.0141994
0.0122841
0.00673162
0.0130268
0.0021205
0.00671824
0.0121793
0.00599452
0.000780753
0.0142594
0.0100956
0.00684406
0.0164228
0.00707109
0.00677193
0.0132838
0.00125171
0.0120176
0.00241403
0.00666923
0.00979012
0.00532029
0.00507421
0.00150862
0.00116493
0.0147648
0.006098
0.00671925
0.00672108
0.00608088
0.011473
0.00138808
0.0190472
0.0105078
0.00308535
0.00671794
0.00679006
0.0060361
0.00658348
0.00670677
0.0136912
0.0118048
0.00669264
0.00641555
0.0132787
0.000850821
0.00136266
0.000895099
0.00672697
0.0122458
0.0142546
0.0025418
0.00515655
0.00397713
0.00417654
0.006769
0.00673388
0.000342128
0.0068201
0.00559498
0.0112223
0.00674582
0.000492108
0.00154138
0.00128187
0.00155982
0.00533243
0.000832657
0.0018236
0.00672101
0.0165598
0.00429985
0.00148557
0.00679067
0.00669405
0.00682035
0.00695405
0.00196144
0.00676627
0.0147015
0.00675496
0.0067432
0.0106402
0.0105861
0.00670376
0.00672051
0.00546983
0.0100256
0.00673454
0.00677822
0.00790243
0.00577827
0.000754889
0.000588921
0.00669593
0.000425406
0.00680313
0.0148888
0.00614624
0.0133336
0.00676213
0.00383523
0.0086771
0.0110194
0.00677117
0.00370337
0.000368608
0.000410656
0.00679343
0.00673203
0.0117392
0.000471378
0.00265832
0.0186865
0.00671765
0.00236452
0.00673425
0.000888492
0.000710833
0.0134036
0.000546054
0.00710237
0.00679514
0.00276667
0.0149134
0.00673498
0.00298951
0.00750274
0.0023303
0.00670042
0.0173872
0.00230357
0.000728402
0.00672281
0.00676342
0.00679213
0.00499939
0.00186553
0.0224392
0.000505988
0.00677784
0.00673708
0.00993373
0.000349751
0.00671787
0.00975967
0.00495008
0.00676746
0.0151216
0.000949622
0.00675222
0.00144911
0.000449412
0.0153562
0.0164683
0.0067329
0.00345497
0.000694004
0.00678953