/*--------------------------------*- C++ -*----------------------------------*\
| =========                 |                                                 |
| \\      /  F ield         | OpenFOAM: The Open Source CFD Toolbox           |
|  \\    /   O peration     | Version:  v2012                                 |
|   \\  /    A nd           | Website:  www.openfoam.com                      |
|    \\/     M anipulation  |                                                 |
\*---------------------------------------------------------------------------*/
FoamFile
{
    version     2.0;
    format      ascii;
    class       volScalarField;
    location    "400";
    object      omega_0;
}
// * * * * * * * * * * * * * * * * * * * * * * * * * * * * * * * * * * * * * //

dimensions      [0 0 -1 0 0 0 0];


internalField   nonuniform List<scalar> 
18758
(
0.0255632
0.221144
0.0216306
0.0245527
0.0254069
0.0205142
0.0212875
0.0227451
0.0248578
0.0244576
0.250191
0.39198
0.328283
0.0225249
0.0212671
0.021144
0.428533
0.0195412
0.0212569
0.0238138
0.437917
0.307043
0.0206604
0.0205602
0.28659
0.309439
1.00303
0.0977491
0.0705065
0.289455
0.646585
0.977026
0.0226232
0.325096
0.0260039
0.320932
0.476468
0.0255241
0.769075
0.019896
0.283236
0.0250397
0.310867
0.0214543
0.02135
0.267302
0.024522
0.0677107
3.04663
0.0215065
0.294105
2.9456
0.0203651
0.0234607
0.161941
0.135628
0.0205488
0.0235905
0.060592
0.0205167
0.0215149
0.0213889
1.28985
1.68864
0.0216686
2.761
0.0214022
0.0198589
0.095936
0.0195582
2.83784
0.278436
0.021214
0.026514
0.0587432
0.856765
0.513771
0.473492
0.024857
0.31194
0.0882497
0.68195
0.46247
0.0410173
0.02222
0.119214
0.0244581
0.0271868
1.28942
0.116325
2.31089
0.0223237
0.0612952
3.14273
0.0212024
0.0207457
0.0196751
0.0467807
0.491713
0.0210936
0.42758
0.0284872
0.0198525
0.0207404
2.63793
0.429827
0.0700332
2.42979
0.76949
0.600552
0.0211697
1.69842
0.0260523
0.0213745
0.0285177
2.50723
0.0456966
0.0203658
2.49776
0.0231106
0.0212187
0.693502
0.0223133
0.0204807
2.26508
0.0235091
0.0211107
0.0204827
0.128573
2.1619
0.0623042
0.0222128
0.0265896
3.50731
0.0199338
0.0213312
0.549172
0.0220789
0.142442
0.0838674
0.0276373
0.329038
0.0396015
0.76618
2.22913
0.045619
3.04395
0.112735
0.226205
2.36503
2.16079
2.57112
0.0215773
0.0260999
0.282635
1.60191
0.0615916
0.135643
0.0430187
0.257135
2.77526
0.020587
3.71986
3.00681
0.193446
0.0205994
0.020575
2.40979
2.1518
0.316582
3.0863
0.0217866
0.078359
0.263553
0.96213
0.0210678
0.0212018
0.278298
0.329366
0.021981
0.0197865
0.0235815
0.153492
0.0223896
2.0731
0.0213557
0.291289
0.0308184
3.20881
0.149043
2.66645
0.0213479
0.0556229
0.197738
0.0196929
0.0223036
0.194827
0.0215639
3.22391
0.0207238
0.0221585
0.151351
0.0969828
0.0211408
0.0211719
3.61653
0.0209615
0.026424
2.14234
2.27429
0.0212333
0.0639031
0.0226188
0.022057
0.0230604
0.0196924
0.0213025
0.0623878
0.0201936
0.329445
0.1902
0.0208578
0.0385804
0.153589
0.0993651
0.280505
0.0617804
0.12558
2.69036
0.0209341
0.307776
0.0448283
0.904747
0.0215627
0.0209914
0.0209454
0.0644478
2.87693
0.640109
0.0219012
0.021185
0.0598688
0.120288
0.0214435
2.26044
0.274759
0.0210044
0.0206275
0.0211461
0.0210955
3.13289
0.0212636
0.174905
0.0209884
0.0210502
1.94249
0.0205854
0.245961
0.0211848
0.153593
0.0265172
0.0205029
0.0210123
0.0532511
2.12031
2.12236
0.0205146
0.143856
0.021589
0.0213905
2.38907
2.03721
0.0213642
0.0208657
0.0215011
0.0228709
0.0253218
0.0200317
0.02227
0.0225232
0.020631
0.0223429
0.0212156
3.26829
0.0212782
0.0208469
0.0195235
0.111992
0.020726
0.0207293
0.0216444
0.0220431
0.0205241
0.0208895
0.0213029
0.0220337
0.276307
0.0228608
0.0207762
2.16825
0.0235973
0.0208638
0.0208705
1.38128
0.306972
0.019781
0.0214431
0.436482
0.0215074
0.0806449
0.0212212
2.08235
0.138371
0.0742766
0.0689347
0.481174
0.0198295
1.39894
0.179749
0.0214181
0.0696601
0.0414643
2.32983
0.0209679
0.019836
2.21705
0.272845
0.0207312
2.39357
0.0532138
0.0269919
3.42717
0.0209613
0.0206327
0.0211626
0.0212813
0.0219136
0.0228844
0.0227766
0.0210109
0.0218633
0.0218758
1.12241
1.36802
0.0218891
1.42886
0.491162
0.0207189
0.0299293
0.318859
0.274882
0.322098
0.242234
0.0213576
2.62194
0.199722
0.0334489
0.0218691
0.0279064
0.022179
0.0213258
0.176289
0.141519
0.335521
0.0712553
0.179338
0.020999
0.0248714
0.0238798
0.0470394
2.98015
2.44731
1.02813
0.115327
0.292126
0.690087
0.0211938
2.10154
0.120595
0.292705
0.343327
0.0210091
0.0205301
0.298614
0.325518
0.490405
2.2977
2.34244
0.0219193
0.361537
0.562154
0.0211537
0.0224465
0.0228828
0.0225832
0.0212277
0.0222706
0.0214142
0.022799
0.0213997
0.0211154
0.0295138
0.286291
0.0266795
0.34115
0.354191
2.17324
0.218246
0.110837
0.0216994
0.0206003
0.310453
0.0224418
0.0219371
0.885571
0.045567
0.557036
0.0206145
1.41318
0.0212317
0.0237066
0.0197439
3.36142
2.08886
0.316628
0.021285
3.38329
0.0613018
0.0212383
0.0224659
0.0212775
0.978822
0.0213061
0.0208662
0.190827
0.0267967
0.0219542
0.0211903
0.0226623
0.0241477
0.933246
0.469413
0.0217362
2.41857
0.0197363
0.0218128
0.117334
0.0214075
0.394394
0.0217457
0.0243435
0.0215819
1.85868
0.0222565
0.0214077
2.71066
0.298654
0.0195368
0.0248126
0.0233485
0.0211479
0.0210234
0.0221043
2.17109
2.24756
0.0216495
0.0315544
0.184591
0.255264
0.379161
0.174851
0.383301
0.0202963
0.102281
0.0561768
0.0291322
0.0225885
0.331148
0.313238
0.0273526
0.020627
0.021285
0.0207225
0.021403
0.0207166
0.0213864
0.0792165
0.0218181
0.0197033
0.0623796
0.0221978
0.0216258
0.019878
0.0231227
0.31837
0.445719
0.0209817
0.309714
0.0208469
0.026977
0.133462
2.33039
0.124764
0.0211525
0.0213662
2.24516
3.47552
0.117543
0.0205778
0.969156
3.28308
0.0195224
0.020651
2.66572
0.0231256
0.084965
0.111864
0.0228176
0.0315404
0.0206341
0.0210228
0.0222485
0.0209888
0.0209088
0.0215559
0.507049
0.0197922
0.566751
0.116149
0.0195346
0.0197926
0.022038
0.0249069
0.0274176
0.572849
0.0211029
0.141067
0.0279201
0.0291467
0.0207559
0.0209753
0.0213528
0.02167
0.0216563
2.13676
2.10579
0.0206263
0.0208861
0.0219952
2.39357
0.019753
0.0197102
0.0213809
0.0197123
0.0208128
0.0207286
0.0224704
0.0211417
0.063931
0.0210991
0.0200231
0.0784383
2.41761
0.0250988
0.0211388
0.0210896
0.0217775
0.0211885
0.0225813
0.471094
0.335541
0.0220013
0.664304
0.0210792
0.0307777
0.0211978
0.020763
0.0460404
0.0195641
0.0210315
0.801402
0.021582
0.0223664
0.0698372
0.0210249
0.021312
3.33489
0.0203494
0.0682123
0.23443
0.020987
0.0216021
0.03893
0.0230488
0.0273811
0.0210507
0.15849
0.651034
0.376391
0.0206516
2.14456
0.0196719
0.021247
0.0211132
0.0211786
0.173215
0.0966293
0.0212605
0.0223142
0.0229301
0.645224
0.817668
0.0210537
0.0155662
0.0237403
2.81272
0.0263011
0.0335955
0.020748
0.0202033
0.0451499
0.0209477
0.0207518
0.0197596
0.0206846
0.0253001
0.133403
0.167034
0.793295
0.0288323
0.0237396
0.0211169
0.0205896
0.515791
0.292512
0.0199214
0.038437
2.48304
2.14236
0.0214705
0.0212686
0.0426751
0.298794
0.0196635
0.32141
0.0211923
0.0226515
0.0277399
0.021377
0.0216639
0.0217708
0.0206699
0.0221381
0.179511
0.0449767
0.47455
0.0219926
0.0208325
2.56394
0.0197307
2.40273
0.519551
0.0212052
0.727432
0.0226401
0.0212409
0.541394
0.279986
0.265455
2.15591
0.0228738
0.968512
0.0198008
1.51847
2.16844
0.0314562
0.0210706
0.311078
0.0235427
0.0519367
0.924453
1.86419
0.0215407
0.519489
0.020825
0.039629
0.0761034
0.0207459
0.0277777
0.498569
0.0923842
0.0258731
0.0225919
0.0197021
0.0218744
0.0220051
0.0301394
0.0650439
0.0208781
2.55651
0.0235382
0.021379
0.0250983
0.0197394
0.0381493
0.0212038
0.0206894
2.13439
0.0206129
0.0223636
0.355096
0.0609213
0.0668555
0.0213865
0.0213579
0.0428916
0.0213392
0.287205
0.0234524
0.0233262
0.0222112
0.0213615
0.0196841
2.5612
0.0197413
3.04664
0.173322
0.022016
2.68226
0.0205544
0.0274687
0.025485
0.412202
0.0233521
0.580165
0.305312
0.0212995
0.361176
0.0202174
0.842559
0.0213591
0.0217537
3.11169
0.348412
0.0211829
0.0215338
0.0226952
0.0205349
0.0213802
0.312513
2.32077
0.0207906
0.0205241
0.0202338
0.742048
0.093092
0.132586
0.0206592
0.0424907
0.021743
0.0213782
0.0270776
0.475509
0.0210554
0.03927
0.901301
0.0210894
0.322718
0.0213847
0.0265031
0.0210316
0.0203929
0.0249663
0.0214091
0.0464295
0.0213841
3.53936
0.0214286
0.0235711
0.0665805
0.123085
0.0389114
0.0207327
0.0213499
0.279802
0.104109
0.0488005
0.0208267
0.0210866
0.0265309
4.95927
0.354534
0.0207419
0.0211712
0.0219935
0.0215051
0.0219295
0.0211688
0.0211248
0.378426
0.0212002
0.021319
0.287112
0.0206404
0.229764
0.0708082
0.789925
2.4344
0.309621
2.29727
0.021179
0.0210973
0.0229332
0.0207685
0.0210623
0.0205264
0.0206991
0.0218392
1.72403
0.134641
0.802038
0.0215171
0.0210577
0.0282093
0.0293049
0.0472513
0.0214832
0.0220843
0.0203744
2.64971
0.151277
0.797485
0.0215643
0.0759763
0.113885
0.33368
4.58715
0.540782
0.0223153
0.0216442
0.0200636
0.270138
0.0215335
0.0198686
0.0603839
0.256305
0.0211604
0.153043
0.579745
0.0212288
0.0211275
0.0212466
0.0211862
0.0212751
0.0229678
0.0274165
0.0212548
0.0215479
0.80531
2.6003
0.0212467
0.356421
0.251536
0.0219688
0.0212908
0.0208271
0.0203076
0.0226098
0.0219457
0.0211285
0.0216698
0.0227743
0.0215339
2.95027
0.0255227
0.0209405
0.0211897
0.911611
0.0215546
0.0198578
0.431189
0.0210766
0.0303862
0.0249309
0.0213284
0.0207989
0.0205085
0.0241245
0.0365362
0.0211287
0.327173
0.0492868
0.0984954
0.614922
0.0219331
0.0485573
0.0198006
0.914257
0.0220475
0.021108
0.147016
2.39571
0.0216448
1.0705
0.316711
0.0204205
0.027236
0.0198583
0.0218832
0.0256138
0.0222101
0.0210652
0.184704
0.0210313
0.0208508
0.385529
0.0208115
0.0210583
0.0207971
2.4198
0.0212129
0.0213259
0.0273144
0.106442
0.34382
1.20865
0.510129
0.0210389
0.0197297
0.0213364
1.83384
0.021804
0.0209115
0.022974
0.0203271
0.831282
0.0215662
0.0215054
0.106346
0.0211374
0.063637
0.708008
0.0197228
0.0212461
1.02015
0.0227985
2.28092
0.909716
0.0205844
0.0214014
0.414081
0.0206793
0.0230139
0.484137
0.0200893
0.46847
0.021232
0.0211532
0.0212653
0.0290173
0.0222988
0.573201
0.0225563
0.0209793
0.605024
0.305074
0.037077
0.0263293
0.1773
3.42376
0.108688
0.0196205
3.38413
0.021507
2.67
0.801545
0.0208063
0.0215678
0.0215825
0.314076
0.0207633
0.420793
0.0208102
0.111139
0.133117
0.0206008
0.0196864
0.0211885
1.00607
0.918525
0.0211948
0.238231
0.0214297
0.0210621
0.504517
0.0212866
0.281649
0.020806
0.0231122
0.0209517
0.0208082
0.0209881
0.0207659
0.0637661
0.0281793
0.0309264
0.0289811
0.0217446
0.0212304
0.327913
0.0212611
0.57565
0.02148
0.449594
0.024922
0.248539
0.020549
0.0207392
0.0210355
2.93299
0.0210913
0.511683
0.0503942
0.0213938
0.0248118
0.0212553
0.0206273
0.0229198
0.0208357
0.36703
0.0212059
0.0224064
0.0211927
0.0225927
0.381175
0.292946
0.0213467
0.0208124
0.021558
0.0216701
0.0211093
0.0226844
0.0218006
0.0211785
0.0203123
0.0204877
0.218584
0.0825945
0.0213899
0.0203172
0.161899
0.0222744
1.74383
0.15716
0.0217777
3.68607
0.0222733
0.0205431
0.0210965
0.0230924
0.0307942
0.020403
0.0298429
0.339316
0.0258983
0.122809
4.22344
2.12851
0.0285793
0.0215064
0.0214163
0.342273
0.020311
0.0214186
0.0273563
0.234821
0.0210229
0.0206328
2.51996
0.0232299
0.0227982
0.021474
0.0231503
0.0262315
0.0214087
0.0234794
0.0212036
0.0288834
0.0226586
0.021682
0.0215958
0.498985
0.0217109
0.0212404
0.429199
0.0196847
0.0209606
0.021353
0.0221004
0.0218958
0.393063
0.107504
0.302598
0.276677
0.782586
0.28218
0.0222337
1.74916
0.437157
0.0213347
0.0219864
0.0215772
0.0214178
0.0221621
0.0221667
0.0650479
0.082552
0.0214134
0.0202038
0.0401822
0.0228254
0.285871
0.0209496
0.021847
0.0210709
1.19707
0.563901
0.0273031
3.37411
0.0211067
0.0210803
0.0640811
0.0255704
0.0210629
0.0818602
0.021716
0.0212249
0.333452
0.0691651
0.028356
0.0215308
0.021589
0.0217957
0.0206472
0.472324
0.06169
2.84451
0.428219
2.30068
0.0216947
3.65746
2.17052
4.19558
0.118177
1.66235
0.0245375
0.338641
0.10082
0.0302787
0.0195433
0.0211597
0.0213699
0.0384622
0.0208097
0.0212738
0.150218
2.71588
1.85952
0.355709
0.0751138
0.263607
0.0262035
0.022807
0.0212501
2.76114
0.229086
0.0206621
0.0277586
0.32032
2.68654
2.42489
0.0314196
0.0462569
0.0197336
2.22104
0.0217062
0.468716
0.610741
0.028596
0.132673
0.103726
0.021392
0.0212251
0.453362
0.530308
0.214115
0.0216699
0.0212821
0.0231091
0.234938
0.0240958
0.316915
0.0217508
0.364599
0.330832
0.024819
1.00526
0.0596257
2.13472
0.0197344
0.031995
2.21621
0.0262972
0.0211598
0.535775
0.460842
0.021129
0.0212527
0.197348
0.0227361
0.0222024
0.356238
0.601623
0.0213587
0.0269968
0.276684
0.0277593
0.0229631
0.022843
0.312005
0.0247578
0.0207343
0.0209923
0.887319
0.020768
2.33581
0.0204378
0.0206675
0.383584
0.0215312
0.0211104
0.197878
0.0196853
0.0230961
0.0204794
0.0210822
0.0214882
0.0860821
0.021311
0.310614
0.15029
0.280351
3.87119
0.02375
0.02057
0.0207715
2.21909
0.0250608
0.0211456
0.314879
0.0300365
1.84231
0.0201303
0.020431
0.0205718
0.0208094
0.0211772
0.0198972
0.0220615
0.0221761
0.0212977
0.319338
0.0236005
0.336281
0.0220844
0.0204829
0.0235571
2.0823
2.36312
0.513703
3.09827
0.491098
0.0784294
2.2465
0.0223283
0.0344392
0.0391364
2.51389
0.0209789
1.00653
0.276913
0.174207
0.0211795
0.47762
0.0210521
0.0212424
0.0210974
0.0281459
1.65872
1.7614
0.0215347
0.0195774
0.0204509
0.0200768
0.0289774
0.0213388
2.22361
0.0534828
0.0284315
0.0217664
0.0211381
0.0198587
2.19829
0.0840987
0.0211695
0.0211073
0.801166
0.0200504
0.0213381
0.0203156
0.0211559
0.0214723
0.0212296
0.0204969
0.503667
0.0228356
1.38536
0.0238968
0.0216103
0.265594
0.0216026
0.26692
0.0216186
0.0459533
0.0336522
0.360004
0.032104
0.073844
2.13239
0.022514
0.0314661
0.022241
0.0211688
0.0204933
0.0209397
0.0692509
0.0334011
0.0234866
0.0680603
0.0204706
0.0213762
0.0323643
0.596576
0.0196452
0.038764
0.313348
0.119893
0.0922171
0.0218767
0.0215029
2.34779
0.0279202
0.0208554
0.0211215
0.121794
0.0205536
0.0206447
2.22071
0.0498995
0.0221559
0.0220568
0.0217096
2.58336
0.0233805
2.16109
0.412778
0.0212286
0.0210178
0.996959
0.0303404
0.0214788
0.0222043
0.0249732
0.0239614
0.0208235
0.0235058
0.18558
0.0356712
2.26305
0.261721
0.031653
0.488304
1.02266
0.0206746
0.522479
0.545292
0.0231874
3.89823
0.0214692
0.194003
0.0724173
0.646708
0.0212861
0.0988696
0.0293532
0.26282
0.0210541
0.0198676
3.92553
0.0227634
0.0211373
0.0211812
0.0216517
0.0198517
0.0219176
0.0209901
0.0211686
3.65185
0.885406
0.0210925
0.0216255
0.968251
0.314997
0.0197148
0.219118
0.052683
0.0400062
0.0213532
0.0209767
2.17477
0.0216955
0.0448381
0.0786367
0.0206504
0.0206683
3.53488
0.0209391
0.308931
0.508666
2.14741
0.0218617
0.0209271
0.0212943
0.0211663
0.0211956
0.30318
0.108774
0.0203248
0.559519
0.260683
0.0219718
0.0215134
0.0211999
0.44042
2.18808
0.0310985
0.0269554
0.0228247
3.44942
0.363604
0.0205127
0.0210755
0.0251748
0.0318842
1.78815
0.310816
0.0206882
0.970404
0.37604
0.0226076
0.0208687
0.0215309
0.0232384
0.0210233
0.021968
0.0206323
0.0684775
0.360139
0.0213369
0.0215185
0.029202
0.0206616
0.0210855
0.0216724
0.363899
0.0206045
0.0226176
2.37331
0.181678
0.0729351
0.0765869
0.0218246
0.0216267
0.0218834
0.0204146
0.0210717
0.0218434
0.595125
0.0260302
0.022148
0.0307259
0.0203561
0.956455
0.0582211
0.0211982
2.23451
0.0207554
0.0225051
0.186766
2.2045
0.0232045
0.0232422
0.023252
0.041054
0.0197151
0.200377
1.01428
0.0206316
0.0692344
0.358323
0.0213302
0.0223181
0.348232
0.0617797
0.0215567
0.0864912
0.0238135
0.0211794
0.0299084
0.299704
0.448852
0.0207261
0.349817
0.032841
0.0198296
0.0419538
0.0276048
0.0218073
0.035957
0.224687
0.231555
0.0314172
0.0323604
0.0206192
0.354645
0.321413
0.20118
0.802878
0.0213298
1.03279
0.02133
0.0210282
0.0399467
0.0219938
0.172688
0.358288
0.0215735
2.22578
0.171155
2.4538
0.0265153
0.0568947
0.0196379
0.0217376
0.0230385
0.0196032
1.22752
0.260109
3.53801
0.582513
0.0830464
0.330006
2.15449
0.0211993
0.0226188
0.561663
0.0516245
0.021332
0.0211273
0.315852
0.038867
0.0259676
0.02124
0.021478
0.0327877
0.0211317
0.0662766
0.342996
0.019834
3.77673
0.0202498
2.90729
0.264423
2.79159
0.0221
0.431167
0.0216481
0.0210794
0.0221703
2.38878
0.0328483
0.653207
0.0215576
0.021124
0.0803707
0.451005
0.0215664
0.12613
0.430847
0.958003
0.980727
0.0208569
0.0213481
0.38514
0.0196077
0.0203477
0.0239588
0.0212069
0.0214399
0.0208248
0.0211176
0.0235849
0.0211669
0.0300618
0.0278935
0.0208669
0.355175
2.54786
0.0247828
0.0202087
0.0212874
0.0305832
0.0213461
0.021243
0.0213403
0.116567
0.021135
0.0226402
0.0229984
0.147314
0.308626
0.0209079
0.0333684
0.0553965
0.025879
0.0674637
0.202832
0.0207173
0.0211896
0.0856744
0.0552025
0.0230745
0.0685739
0.298148
0.0212912
1.62897
0.021891
0.0567763
0.0962584
1.0052
2.99514
0.0227331
0.0210721
0.845807
0.0225234
1.05324
0.0257837
0.425481
2.96262
0.0207101
0.0371266
0.0210644
0.0900046
0.077168
2.78129
0.0210042
0.021332
0.0689061
0.0216249
0.527011
0.0206588
0.194068
0.273405
0.0390552
0.443057
2.4852
0.0207686
0.0208936
0.0213427
0.614172
0.302591
0.021758
0.0226024
0.0217626
0.0202234
0.0256398
0.0207932
0.0203955
0.336323
0.0217028
0.0203665
0.0231748
2.17727
0.203183
2.13706
0.0215155
0.0589088
0.0211792
0.0245382
0.123708
0.269873
2.41951
0.0203825
0.0338646
0.0197141
0.0322126
0.02791
0.0469642
0.410074
0.0217655
0.0721055
0.02027
0.22326
0.308467
0.0203959
0.0223849
0.02208
0.0220822
2.14866
0.0213139
0.0213567
0.0219429
0.0216218
0.0204711
0.0224035
0.0212963
0.0217169
0.0213424
0.0210223
1.04575
0.502135
0.582686
0.0200546
0.0197142
0.0197705
0.0201228
0.0198136
0.0354455
0.0198308
0.0206156
0.0212499
0.0208525
0.0272772
0.0212587
0.132538
2.73684
0.0361916
0.496989
0.0215133
1.00235
0.0488261
0.248993
0.0205375
0.426166
0.0220803
0.0213471
0.0213431
0.0446834
0.0932953
0.0209151
0.0225451
0.027001
0.021162
0.0451804
0.452015
0.0308379
0.0208926
0.0226838
0.0892512
0.0216103
0.264352
0.0209228
0.0220434
0.0213492
0.0228921
0.0278172
0.388002
0.0324418
0.0203673
1.58886
0.0265383
0.040131
0.0210577
0.0244298
3.94278
0.020672
0.0217356
0.0277244
1.1468
0.0198235
0.0210042
0.0204597
0.0322309
0.0213708
0.477254
0.0213433
0.0246152
0.0270361
3.62458
0.020638
0.0204154
0.019721
0.0283245
0.0202172
2.26646
0.390739
0.0312219
0.195048
0.0212761
1.5929
0.0213801
0.0205888
0.0351438
0.0489396
0.18792
0.316092
2.35934
0.273226
0.0268274
0.0316315
0.0221675
0.531367
0.0213486
0.0226687
0.121599
0.0216494
0.29727
0.199406
0.118995
0.485452
0.29783
0.073898
0.382736
0.0784245
0.0220726
0.0285742
0.0213535
0.0203808
0.0210323
3.2187
2.73476
0.333304
0.0250251
0.0237026
0.178268
0.0209338
0.0314063
0.020422
0.0329404
0.0212061
0.0198591
0.0220009
0.0378854
1.62793
0.0303543
0.0266061
0.0204326
0.0287287
0.451317
0.0202737
0.0535617
0.281379
0.0196152
0.0571226
0.0205645
2.24057
0.0216503
0.246684
0.0218041
0.0214911
0.0245076
0.0336947
0.293198
0.0266745
0.20175
0.0224741
0.0213335
0.0213436
0.0213823
0.0203561
0.0213035
0.385998
3.77693
0.0272589
0.0211
0.024374
0.022791
0.0215583
0.0215169
0.0817767
0.367985
0.314924
0.021196
0.105388
0.0205599
0.061854
0.0224657
0.0369909
1.61339
0.357751
0.352917
0.019895
0.0213018
0.0209466
0.0211487
0.0213506
0.0211281
2.15518
0.021466
0.0216401
0.021817
0.0359446
0.0211318
2.12868
3.62308
0.230273
0.021346
0.938473
0.0203438
0.409991
0.0991111
0.0221756
0.239468
0.023443
0.0618825
0.020692
0.0221042
0.0265887
0.0462931
0.103888
0.406769
0.178609
0.143334
0.0286343
0.0220803
0.021193
0.54744
0.0230749
0.793824
0.0219023
2.32842
0.307881
0.345301
0.0222874
0.97039
0.0234366
0.0211762
0.0201488
0.0228053
0.0639865
0.0212451
0.369239
0.034042
0.108846
0.0210233
0.024231
2.537
0.420408
0.428681
0.0241013
0.0247053
3.10622
0.791628
0.0216912
0.0456291
0.360351
0.0603705
0.127736
0.0247508
0.0262723
0.273861
0.0198693
0.182401
0.0460022
0.0213392
0.327805
0.339422
0.432286
0.0229006
0.124698
0.0263896
0.0204157
0.0454602
0.0217952
0.217368
0.0204009
2.85915
2.4166
0.0725211
0.352591
0.114865
0.18802
0.023624
0.0677032
0.343376
3.28393
0.0223666
0.0219321
0.0210287
0.0244035
0.0199081
0.0210485
0.20686
0.0210424
0.0206082
0.0299275
0.0219563
0.0198308
0.0281255
0.81431
0.063643
0.0212548
0.021352
0.0267689
0.0222718
0.0210415
0.0209493
0.0204071
0.462442
0.0245789
0.0925509
0.0264107
0.0212023
0.0198564
1.8225
0.165945
0.894099
0.0266775
0.0216353
0.0322415
0.0209432
0.0261062
0.0893686
2.23425
0.0349958
0.0229973
0.0202863
0.0272222
0.484658
0.343631
0.420129
0.0243136
0.020348
0.0205988
0.0238992
0.0723142
3.31031
0.0204631
0.183897
0.0198643
0.0210536
0.0798759
0.0208572
0.61934
0.0840366
0.470431
0.0198205
0.0310265
0.0370181
2.79668
0.02033
0.0214448
0.202256
0.344222
0.936877
0.395847
2.87585
0.0223739
0.220692
0.0244664
0.0248537
3.1136
0.0234097
0.0209402
0.0215387
0.0200817
0.748362
2.77807
0.0243634
1.53742
0.0201365
0.0209515
0.0214887
0.143715
0.0633518
1.46573
0.021386
0.0218489
0.0306439
1.74441
0.0203327
0.387305
0.0206888
0.0221443
2.81386
0.0208653
0.114632
1.03094
0.482082
0.544213
0.0211789
0.0232172
0.0228943
2.64653
0.0311305
0.0213674
2.20953
0.278503
0.0195903
0.0224433
0.214196
0.0204352
2.18334
2.76927
0.0242049
0.0197292
0.0238798
0.0239037
3.34804
0.0205742
0.0307191
0.0220079
1.89189
2.66043
0.0212322
0.0201859
0.164472
0.0257152
0.0214797
0.0210159
0.0208928
0.046754
0.0227813
0.130214
0.021771
0.02163
0.0208596
0.0225511
0.0211615
0.0223103
1.04923
0.314693
0.313029
0.0217616
0.0203213
0.255751
0.0246429
0.0632157
0.246133
0.117114
0.377968
2.79753
0.0203132
0.39463
0.164286
0.022195
0.0208257
0.0213899
0.0213736
0.725976
0.261895
0.0213585
3.86879
0.95503
3.73713
0.0197664
0.0205813
1.84912
0.0208968
0.0214634
0.0240499
0.0210334
0.289228
0.0225997
3.0509
0.394233
0.0208406
0.131738
0.0681219
2.82706
2.07427
0.0212822
0.0240428
0.03379
0.275258
2.29368
0.222835
0.0216972
0.0213915
0.0817632
0.0204317
2.96857
0.759963
0.0209323
0.66595
0.0203922
2.44879
0.0215292
0.323917
0.0221301
0.332782
2.51699
2.18793
2.16907
0.0200699
1.22013
3.82557
0.0218388
2.85046
0.0217466
0.0199629
0.0211956
0.026257
0.0236609
0.0215074
0.0209862
0.0711957
0.0373158
0.039918
3.66417
0.0480421
0.0268787
0.0219853
0.0501188
0.0201733
0.110195
1.65107
2.14172
0.401742
0.0221993
0.023122
0.022222
0.0261509
0.0227861
0.0210215
2.1768
0.90516
3.58984
0.0211673
0.0215202
0.0393744
2.05449
0.021867
0.0204156
0.0220492
0.0225231
0.0366444
0.0212552
0.161041
0.0216855
2.46802
0.0205694
0.266609
0.926163
0.296247
0.0200642
0.106322
0.0213446
0.020403
0.061154
0.898768
0.0210088
0.0220145
2.16472
0.0212836
0.0485173
0.378938
0.0264145
0.0298709
0.0214433
0.82802
0.0270963
2.64348
0.0203105
0.0206748
1.29496
0.0208153
0.297392
0.0240755
0.0283427
2.1469
0.0222679
0.0213895
0.0220371
0.0210319
0.152553
2.54538
0.0204075
0.126455
0.0286107
1.96225
0.0212044
0.585681
0.33922
0.0260323
0.027166
0.0213591
3.94763
0.0199969
2.16102
0.0202995
0.0205706
0.0234036
0.0215427
0.0206735
0.0596743
0.0229551
0.0210148
0.27478
0.0204407
0.0419583
0.024636
0.878903
0.0307209
0.0205904
0.0323416
0.0209776
0.0209506
0.0238518
2.94115
0.157938
0.284012
0.296634
0.0203901
0.0211123
0.021224
0.0209056
0.0202159
2.94682
0.0198491
0.0229178
0.222644
0.0219457
0.808785
0.0213398
0.0203945
3.35732
1.85306
0.0215596
0.0446609
0.024128
2.3893
0.0210514
0.0226762
0.0694114
0.0214975
0.127223
0.166741
0.022034
0.0221103
0.295791
0.0241298
0.0471711
0.293353
0.170177
0.0232463
0.0220021
0.0344178
0.291834
0.0218965
0.783861
0.258619
0.161821
2.26557
0.0204494
0.0213646
0.0211619
0.33186
0.645895
2.47809
2.13078
0.020051
0.110433
0.0204801
3.98532
0.0211857
0.0347642
0.103622
0.0218541
0.0220109
0.131672
0.0245635
0.0217126
0.0219111
0.0537457
0.0230178
0.020929
0.0948888
0.0217691
0.02176
0.0210973
0.319645
0.0200932
0.385637
0.0278178
0.0228291
2.1887
0.0246572
0.0820103
0.0203864
0.0211736
2.81628
2.28099
0.600147
0.0214797
0.0238512
3.67957
0.0842721
0.0899152
0.221645
0.0509912
0.0637093
0.0203749
1.04778
0.0206493
0.0586178
0.337141
0.109884
0.111823
0.0221325
3.05372
0.0588703
0.314446
0.0323187
0.0210511
0.0213359
0.0213197
0.321031
0.0205201
0.370752
0.0622512
0.395112
0.0202174
4.61405
2.28281
0.212206
0.38268
0.0221377
0.0216654
0.0210741
0.0245934
0.0213746
0.0247302
3.95283
0.0211837
0.022243
2.16835
0.251094
0.145342
0.0255336
0.0299742
0.0207724
2.73438
0.0219644
3.33664
0.0374514
0.201501
0.0301786
0.113805
0.145148
0.0212786
0.0211837
2.15692
0.127279
0.144387
0.155296
0.0401747
0.0208001
0.0638782
0.0214124
0.400663
0.0213772
0.0224637
0.377146
0.0219856
0.114516
0.0205329
2.8061
0.326575
0.0239239
0.0280158
2.95444
0.0248166
0.0202887
2.51655
2.24677
2.67302
0.0208977
0.0217457
1.01527
1.37699
2.35242
0.0214855
0.0229405
0.0215671
0.0255484
0.0217178
0.020669
0.556848
0.0209391
2.72994
0.0233819
0.836688
0.0200638
0.9015
0.632091
0.109841
0.285363
0.627193
0.0206187
0.0669056
1.16633
0.0208514
0.0216755
0.0213075
2.67499
2.16347
0.0214733
2.23727
0.0355639
0.0212384
3.02677
0.0227118
0.0580169
2.60337
3.15957
0.0212137
2.16376
0.0221396
0.020259
2.30423
0.0412008
0.339706
2.28976
0.0279427
3.25825
0.2586
0.0262103
0.237961
1.64477
2.18568
0.0220275
0.0200241
0.0211106
0.0224973
0.310921
0.135889
2.59694
1.64542
0.0241763
0.0200128
0.0209298
0.0237974
0.187352
0.0211979
0.427407
0.266837
0.0203812
0.0222034
2.25492
0.0517871
0.116335
0.319114
0.0213271
2.18871
0.360508
0.239851
0.0224208
0.0243877
0.151544
0.0213304
0.0226993
0.105436
0.0238272
0.186026
3.02161
0.0216731
0.095863
0.0750236
0.0432938
0.0359737
0.168446
0.292575
2.40133
0.0213532
1.06142
3.44946
0.0376306
0.0220359
0.0205333
0.0217286
0.0217335
0.196506
0.0224659
2.15241
0.0225553
0.0212427
2.63942
1.16864
0.0202784
0.021122
0.0976031
0.417241
0.0213749
0.0204462
0.0227057
0.0248791
0.233884
0.0603396
0.0205615
0.104308
0.022016
0.421002
0.202089
0.420294
0.0212607
0.145354
2.84512
0.404324
0.0220372
0.272734
0.285568
0.305325
0.0202287
0.0225028
2.68165
0.146224
0.109314
2.47624
0.0214172
0.0675615
0.0227337
0.0468221
0.0634069
0.801714
0.14503
0.0238791
0.020954
0.035346
0.354086
0.021342
0.052577
0.250198
0.0729885
0.0206674
2.85097
0.139056
0.151421
0.0225576
0.0215356
0.0215099
0.0241339
0.0361099
2.24532
0.107946
0.0204318
0.0212945
0.305091
0.251484
0.0214388
0.286715
0.0613298
0.0224002
2.23407
1.67905
0.0202723
1.94098
0.338987
2.87436
2.45105
0.0207523
0.0634284
0.129858
0.0219223
0.0243591
0.268645
0.311346
3.20839
0.0282274
0.0212959
0.0247176
0.653103
0.0223339
1.78796
0.0197517
0.0215605
2.3302
0.33758
0.0316052
0.0962406
0.0553978
0.0229708
0.667194
0.0812295
0.249786
0.411253
0.0511286
0.057019
0.0213058
0.0213091
0.0566319
0.310225
2.32744
1.04085
0.122614
0.267238
0.319942
0.0278105
0.0209744
0.0217436
0.0643093
0.268981
0.0204721
0.0577897
0.132752
0.105632
2.86081
0.033431
2.73721
0.0216172
0.0226234
0.247944
0.0315586
0.0217645
0.0223117
2.79924
0.028993
0.0576117
0.0204055
0.0213032
0.310151
0.413249
0.0221242
0.520368
0.293833
0.072584
0.0222158
0.379693
0.0210415
3.33341
0.103247
3.10219
0.0215256
0.198883
0.0200511
0.0213018
0.937105
2.88321
0.113739
0.0204032
0.24131
0.357476
0.344188
0.723474
0.0417694
0.0223341
1.4802
0.185757
0.0212231
0.0209473
0.387823
0.0593322
2.83288
0.0258256
3.16403
0.0203668
0.0217812
0.92734
0.0618668
0.0211764
0.327393
0.0213
0.0215069
0.0220508
0.0222048
0.26569
0.278065
0.0195774
0.081537
0.0208937
0.0310613
0.25967
0.0218232
2.56161
3.40212
0.209539
0.209091
0.0214671
2.89153
0.0223729
0.149129
0.0207411
0.134463
0.0302744
0.0243622
0.021469
0.115211
0.0545337
0.946717
0.326889
0.0218704
0.0202677
0.310247
0.140356
0.0302333
2.99464
0.0241311
3.36778
0.0214662
0.20136
0.127868
0.470861
0.0202585
0.0389297
0.0468997
0.161348
0.0225425
0.0238548
0.0242079
0.023574
0.0241808
0.0241966
0.0240433
0.0210426
0.0875312
3.0074
0.551138
0.0245097
0.0212054
2.31494
0.680153
0.0212127
0.0581325
0.0237727
0.022804
1.29699
0.320404
0.0202355
3.61557
0.0214135
1.71713
0.294827
0.191316
0.0235801
0.0217753
0.0227918
0.0204439
0.0223219
0.295903
0.301816
0.0314396
0.393479
0.151381
0.0213607
0.0466647
0.318536
0.0214934
0.0243387
0.18485
0.0233822
0.0495652
0.0232302
0.0238667
0.0434109
0.302491
0.089376
3.19065
0.0249711
1.00528
0.0595985
0.44115
0.0601583
0.0276446
0.0209913
0.0241824
0.167728
0.368428
0.287455
0.0209767
2.36599
0.363216
0.319687
0.141445
0.824224
2.98718
2.79218
0.019751
0.0929997
0.0237268
0.223629
0.360271
0.318207
0.021114
0.394673
0.0457452
0.125347
0.0210443
0.0912296
0.0234698
0.287841
0.0227908
0.100742
0.173368
0.0250033
0.0208508
0.0217191
2.81271
0.0207718
0.119054
0.0546256
2.40114
0.0287148
0.474379
0.0626703
0.0212137
0.0206926
2.84971
0.0231681
0.0208564
0.0211425
0.383584
3.99128
0.118751
0.021385
0.0355002
0.314181
0.462379
0.0402853
0.0209621
0.0646946
0.298956
0.0267253
0.0235464
0.0208074
1.07926
0.0207067
3.42814
0.317556
0.0390375
1.00106
0.221272
0.0202915
0.0227035
0.40047
0.0233345
0.025442
0.0210895
0.0215627
0.446283
1.09573
0.0241889
0.0205112
3.44867
0.0631818
0.137935
0.0212047
0.0271345
0.0243331
0.150437
0.0212494
0.047789
0.376713
0.0872502
0.0242778
0.0208163
0.0266409
0.0259105
0.0423251
0.0202204
0.0219601
0.0214883
0.0214919
2.46848
2.62585
2.68318
0.0564282
0.0220152
0.0196743
2.55154
0.258629
1.80048
0.0237513
0.102346
0.0213008
0.021738
0.0685422
0.020726
0.122074
0.0217702
2.20173
0.0201846
2.69561
0.0214456
0.295066
0.305048
0.019169
0.451951
0.0196635
2.47628
0.02032
0.12208
0.231487
0.155099
0.0206088
0.56208
1.06258
0.0668152
0.099259
0.0253059
0.108704
0.0200665
0.0371436
0.020404
0.303241
2.07411
2.16868
3.31491
0.0216945
0.297238
0.0209349
0.0213957
0.899476
0.0201199
0.0210228
0.0210808
0.021001
0.329923
0.0224093
0.0232205
0.0219538
0.0212834
0.0210679
0.0225116
0.0240154
0.0214536
0.030038
0.0351222
0.0228751
0.365243
0.0231333
0.0545218
0.296875
0.0350549
0.0480312
0.105529
0.178987
0.055938
2.21042
2.70289
2.84627
0.0203534
0.020898
0.0234169
0.0198353
0.0994
0.0286745
0.0202049
2.51844
0.887278
1.6211
0.0381679
0.0546312
0.0374733
0.0213741
0.0820914
0.114932
0.0222987
1.76513
2.30957
0.0215407
0.199644
0.230512
0.30036
0.0468148
0.0565659
0.0533144
0.0206674
0.0198599
0.0504444
2.84606
0.112777
0.023291
0.0210994
1.1511
0.0288283
0.022991
0.0198118
2.40752
0.0202577
0.0240547
0.0264804
0.0212898
0.0321847
2.6345