/*--------------------------------*- C++ -*----------------------------------*\
| =========                 |                                                 |
| \\      /  F ield         | OpenFOAM: The Open Source CFD Toolbox           |
|  \\    /   O peration     | Version:  v2012                                 |
|   \\  /    A nd           | Website:  www.openfoam.com                      |
|    \\/     M anipulation  |                                                 |
\*---------------------------------------------------------------------------*/
FoamFile
{
    version     2.0;
    format      ascii;
    class       volScalarField;
    location    "300";
    object      ddt0(k);
}
// * * * * * * * * * * * * * * * * * * * * * * * * * * * * * * * * * * * * * //

dimensions      [0 2 -3 0 0 0 0];


internalField   nonuniform List<scalar> 
18166
(
-0.000294559
3.71068e-08
0.000979508
1.76778e-06
0.0004327
8.89566e-07
-3.11832e-08
1.14208e-08
-2.21375e-08
-0.000139293
1.51571e-08
-7.44989e-07
1.33538e-08
-4.95858e-08
3.2146e-08
2.98897e-08
0.00996888
-1.05755e-09
-1.71312e-08
-1.54683e-05
-2.23759e-08
5.02709e-09
-1.52766e-08
1.48362e-08
2.87808e-06
0.000100874
9.7684e-09
0.00109001
-3.22192e-08
-3.08191e-08
2.0873e-09
0.000351412
-3.74315e-08
4.70543e-06
0.00110743
9.70743e-11
-1.45428e-11
-5.50092e-10
9.37296e-09
-9.52139e-07
-7.73032e-09
9.83984e-09
-7.685e-11
-2.74263e-08
0.000512659
2.25818e-09
-1.03178e-08
-0.000873225
5.81015e-10
-5.14194e-06
0.000463761
0.0090379
1.24906e-10
3.91614e-08
8.79432e-09
1.65871e-08
0.00025434
4.46191e-09
0.00120771
-2.86958e-09
-1.40674e-09
2.04971e-08
1.9562e-09
3.98374e-08
-1.31848e-09
-1.25233e-08
1.9163e-10
4.84941e-08
-0.000511954
-4.61669e-09
-1.02483e-09
-1.81502e-06
1.0126e-07
-1.75949e-08
-7.68242e-09
2.22475e-08
-0.00184512
-0.00137436
0.00372016
2.77055e-09
-3.76403e-08
-1.47126e-09
0.000316121
-7.07586e-09
5.39646e-09
-4.00116e-09
4.69096e-09
4.86045e-08
-1.72648e-08
-0.00198609
2.15623e-09
2.61014e-08
1.87317e-08
-1.41053e-08
-1.54394e-08
-8.31865e-09
0.00322473
7.0981e-09
-0.00071582
-0.00218574
5.22692e-09
-2.12167e-09
-1.83353e-08
0.000979486
3.78839e-09
0.000152579
8.46672e-10
6.86206e-09
-2.09782e-08
1.86093e-08
0.00828384
-0.000106914
0.0115852
-0.000142129
-2.57048e-08
0.00115921
-0.00189544
1.31322e-08
3.65271e-08
2.27354e-09
-7.03422e-09
6.08929e-09
2.39263e-08
8.22937e-10
-6.34365e-09
-2.6275e-08
-3.92672e-08
-4.80926e-09
-2.06713e-09
-5.15305e-09
-6.78753e-08
2.25435e-08
-7.75541e-08
3.04986e-08
7.67804e-10
0.000958546
-7.13275e-09
0.00364848
-2.57854e-09
-0.000438507
5.9458e-09
-6.82085e-09
3.83786e-08
-0.00123726
-3.91614e-09
0.000738876
-0.00107287
-9.99471e-09
-2.26491e-08
-0.0027904
4.29309e-09
-2.93657e-08
0.000409487
0.00591106
-7.4649e-05
-4.1595e-09
3.3222e-09
-4.94109e-09
-0.000185182
-1.94138e-08
-4.2822e-09
6.78355e-09
0.000624283
-2.47021e-09
-2.77962e-09
-2.09556e-09
-3.02563e-07
-2.85864e-09
0.00591063
-1.18145e-08
-2.04427e-09
0.0015676
-4.13159e-08
9.08301e-05
-1.20635e-09
-0.00022834
-7.21643e-09
-3.81425e-05
4.47988e-08
-6.45271e-09
2.59547e-10
1.34244e-08
-8.1774e-06
0.00487293
4.60472e-08
1.9573e-10
-2.12993e-08
7.17249e-09
-3.05513e-08
2.52919e-09
-6.20678e-10
4.60214e-08
0.00494801
3.65081e-09
5.0131e-09
0.00062428
6.16313e-05
-1.08648e-06
-6.5368e-09
2.97413e-09
7.45793e-09
-0.000822573
0.0058402
-2.21656e-08
-4.85011e-08
7.52078e-05
-7.02864e-09
-6.48423e-07
-1.11485e-05
1.27176e-08
-2.78788e-08
1.78688e-05
-2.67765e-05
-4.79357e-10
-5.28233e-08
-1.14213e-08
-0.00126633
4.65125e-08
-4.42749e-09
1.29063e-08
-2.26874e-10
-0.000708612
-8.82716e-08
-4.61033e-09
3.60129e-09
-0.000975608
1.38804e-08
2.93493e-09
-6.91551e-07
-1.93774e-09
-2.17073e-09
1.48187e-09
5.58105e-05
2.54175e-09
0.00560455
-0.000348564
-0.000231707
1.69639e-09
1.35764e-09
-9.71976e-07
-7.54517e-09
-5.42467e-08
-1.65665e-09
-0.000733504
-2.38406e-09
3.45636e-09
-0.0028603
3.16251e-09
1.49126e-08
-4.79987e-07
-0.000943136
-3.47173e-09
-1.04718e-09
-8.05729e-08
-1.33355e-08
5.95992e-09
6.60396e-09
-1.85024e-08
7.1213e-09
-9.87807e-09
7.4557e-08
7.96025e-08
2.55926e-08
2.90605e-10
6.35713e-09
-2.56254e-08
0.000644854
-1.53065e-08
-2.96682e-10
5.29263e-06
5.77942e-10
-5.75451e-08
-2.53975e-07
0.000446155
-2.70412e-09
-1.89738e-09
0.000649744
-6.9116e-10
2.03337e-08
0.00197867
-3.63821e-08
-1.47804e-08
3.48008e-08
-4.78463e-08
1.46703e-08
-2.9063e-10
-0.00021574
-1.58946e-07
-2.76034e-09
-2.9903e-09
-5.40894e-09
-1.84569e-05
1.70546e-08
8.1171e-09
2.15126e-11
9.16369e-10
-2.85864e-09
-7.38524e-05
-5.85588e-09
0.000814137
1.56831e-08
-1.77363e-07
-0.00146674
1.64382e-08
1.5549e-08
5.91363e-09
-1.12253e-07
4.79097e-08
1.59275e-08
-1.53052e-08
5.17342e-09
-5.28367e-09
-2.6697e-08
-3.59252e-10
7.60644e-09
1.3654e-09
-1.621e-09
0.000279338
-0.000414911
-2.39728e-09
0.00383276
4.428e-08
0.00601469
5.13127e-08
-1.56591e-10
-5.70516e-09
-3.24776e-08
0.000821555
8.29568e-09
-1.01899e-05
1.44831e-09
-3.58721e-10
2.91986e-10
3.1636e-08
4.24318e-08
1.06474e-08
2.77147e-06
5.25951e-08
2.17954e-09
2.09025e-09
-1.58094e-07
-1.1026e-08
0.000154033
3.67258e-09
-4.96965e-08
4.37559e-08
0.00429555
4.50387e-09
1.87653e-08
4.21356e-09
-2.32705e-07
-7.16138e-09
-8.24988e-07
-3.60789e-08
0.00133152
4.26843e-08
1.35649e-09
1.91329e-09
-0.000251719
-1.495e-07
-3.96653e-09
-4.49255e-08
-3.29404e-09
-4.48343e-08
6.42282e-07
-7.09382e-09
-2.5266e-09
-1.29324e-08
3.80278e-08
-1.69033e-09
1.56369e-09
-2.09597e-08
2.02301e-08
0.00408072
-2.19706e-08
3.40754e-09
9.4196e-09
1.36717e-09
-3.29861e-09
-1.92656e-08
-4.9856e-09
-3.5966e-08
-5.53515e-07
0.00114386
-5.75821e-09
4.32655e-08
-3.58743e-08
-5.91052e-08
-1.87416e-08
0.00431155
-2.21629e-09
1.56657e-05
-2.64159e-08
2.28456e-08
0.000222921
-2.82747e-07
1.46241e-08
-5.6493e-09
-3.43453e-09
-3.17571e-06
-3.91587e-09
-2.0915e-09
6.19883e-09
4.98184e-09
2.58105e-08
-9.89381e-09
2.17834e-09
-1.93937e-06
0.000569592
3.88098e-09
4.91727e-09
0.000387979
-3.9185e-08
-5.06639e-09
2.12544e-09
0.00600617
-3.4487e-08
7.28053e-09
6.34137e-09
-2.63855e-08
8.0964e-09
2.14855e-09
-0.000223565
-0.000248567
-2.87259e-09
1.1604e-08
-8.67528e-10
3.72603e-09
-3.9175e-10
-8.68576e-09
2.10317e-08
3.87934e-10
1.39231e-08
-2.33846e-08
1.494e-09
1.3391e-08
3.37616e-08
-1.11207e-05
-0.00197398
-1.04469e-06
0.00515598
0.00144315
-1.35039e-06
-9.32015e-07
1.97378e-08
-1.47675e-09
0.00361648
6.46113e-09
-3.3564e-08
-1.1472e-06
-1.06613e-08
-3.52586e-08
-2.10072e-08
3.52487e-10
-2.35401e-09
-2.16825e-08
-8.90325e-09
-1.82866e-08
4.67283e-09
-1.83571e-08
-2.84535e-09
2.33461e-09
8.1331e-10
-2.37642e-08
2.29921e-08
-8.79169e-09
7.13501e-09
-4.62065e-09
1.55104e-07
-4.02547e-09
-1.85009e-07
8.64463e-10
-8.25788e-09
-1.00862e-08
-0.00255021
-2.43087e-08
-6.07442e-09
-2.94892e-09
-9.0861e-09
0.000851204
-2.62806e-08
1.02535e-08
0.000545525
4.51851e-08
3.8452e-08
4.60599e-09
-9.8614e-06
-3.01819e-09
2.09553e-08
6.12146e-10
-1.9588e-10
-1.6312e-08
2.65829e-08
-4.26844e-07
-0.00163825
-2.39784e-08
1.38437e-08
1.50794e-08
-3.74358e-08
5.82306e-08
4.10053e-08
-4.33612e-08
-4.4765e-08
-0.000100871
-5.48127e-10
-2.88336e-08
-1.4187e-08
-1.61808e-09
-7.50497e-09
7.99782e-06
2.46151e-08
-9.50496e-09
-3.67701e-09
4.06203e-09
-4.13887e-05
0.000241651
-1.73131e-06
4.92495e-08
-0.00137088
-2.60699e-08
8.54184e-09
0.000277066
-1.05515e-07
-3.10236e-07
0.00568502
-3.3792e-09
-1.38058e-09
-2.52204e-09
-1.07654e-09
3.04615e-09
-8.1454e-07
7.09967e-09
-0.0023806
1.37487e-05
1.55518e-08
-0.00110536
1.76301e-10
1.64959e-09
2.10674e-08
4.44763e-08
4.00654e-10
1.62279e-06
-3.79679e-09
-6.33643e-05
-3.42335e-08
-1.07557e-08
-8.31268e-09
8.01319e-10
-4.21273e-06
-9.45422e-09
3.41144e-08
7.98422e-09
3.60074e-09
7.47864e-08
-3.0138e-09
-4.80073e-09
-4.48677e-07
-3.52001e-07
2.32761e-08
-0.00327552
-2.65659e-08
1.30749e-08
-5.20842e-07
8.11073e-10
3.03304e-08
0.00127711
5.83983e-08
-6.10942e-09
-7.98188e-10
4.16649e-08
2.38884e-09
-5.60125e-09
-2.31004e-05
6.35919e-09
0.000868525
0.000401197
-7.70645e-08
-2.60265e-08
-4.46428e-08
-9.83755e-09
-2.01897e-08
0.000323235
1.02563e-08
1.1457e-08
-2.18266e-05
-8.27104e-10
-1.77412e-09
2.5104e-09
1.31911e-06
-4.09677e-09
6.60514e-06
2.67689e-09
-3.8529e-07
7.83818e-09
4.2563e-08
3.00696e-09
2.26553e-09
0.000275542
-0.00227917
-2.60065e-05
-2.74832e-09
-1.2705e-08
-3.91592e-09
2.40519e-08
6.18527e-08
-1.04399e-08
-1.00245e-06
-0.00205418
1.09187e-06
-1.87561e-09
1.88955e-09
-6.13725e-07
-1.59572e-09
2.4075e-09
6.20058e-09
1.3133e-08
2.79516e-08
6.10808e-09
9.01707e-09
7.51718e-05
6.79727e-07
9.62336e-09
0.000453625
0.00604619
2.77505e-10
-4.94765e-07
1.1685e-09
2.71567e-08
-0.0009565
-1.00902e-08
6.97165e-09
-3.75864e-09
-2.40581e-08
-0.00126948
5.12933e-07
-2.26138e-08
-4.54759e-09
-1.04847e-08
-2.46517e-09
-7.2457e-07
-2.52359e-08
1.0605e-10
6.92386e-06
-4.42985e-09
7.44253e-09
-1.34121e-08
0.00134905
3.41635e-09
-2.0308e-08
1.97536e-09
-2.99283e-08
1.25161e-09
-7.89303e-09
0.000225685
-1.19986e-08
0.00545938
-4.33267e-08
-4.15905e-08
-2.10801e-09
1.01219e-08
-8.8958e-09
-3.92226e-08
4.64034e-08
8.68225e-09
-2.3186e-09
-7.38569e-08
1.64743e-10
0.000232138
2.43349e-08
5.98875e-05
-1.78195e-07
-1.12585e-09
5.74951e-08
0.000154277
9.65518e-06
-0.000205186
8.12369e-08
-7.33619e-09
-6.64191e-08
-1.45183e-08
6.22391e-09
-6.2735e-09
6.94361e-10
0.000612809
5.1013e-07
0.00112991
-0.000264125
0.000735574
8.10463e-06
-2.78189e-08
-1.11137e-08
1.02304e-09
7.89216e-09
5.30979e-08
-0.000657752
0.000113008
-4.18637e-08
-1.40092e-07
-1.63883e-08
9.90358e-09
1.6402e-07
-2.12723e-06
-1.42926e-08
-0.00163813
-3.68271e-09
-7.38248e-09
-6.83854e-10
9.23325e-09
2.87264e-10
-2.7094e-09
-0.0017762
0.00202149
1.25986e-07
3.09012e-07
0.00143474
5.53242e-08
-3.97739e-08
-3.53915e-08
-2.27277e-09
-9.41253e-09
-2.64406e-06
6.24624e-08
-0.00123644
-4.4506e-08
-1.26131e-08
-4.96448e-09
-1.00563e-06
1.19506e-08
-3.5394e-08
0.000734656
1.50691e-07
1.11402e-08
1.18408e-08
1.40696e-06
-6.01844e-09
-1.521e-08
2.62451e-08
8.85392e-05
1.11582e-08
-3.09314e-07
-0.0014832
-9.7898e-05
-2.55636e-09
-2.9201e-08
2.22579e-10
2.82378e-09
1.58741e-08
-1.21989e-08
1.8089e-08
-9.48433e-09
1.04631e-08
-1.35419e-08
-1.16895e-08
7.19896e-10
-0.00350109
5.18915e-08
0.000484761
5.22776e-09
4.63389e-09
2.99587e-07
-3.60134e-10
-6.53388e-10
-4.79842e-08
-8.94621e-07
2.34241e-08
-7.69513e-09
1.15608e-08
-3.92955e-08
0.00736641
1.75172e-09
2.30998e-08
1.17801e-08
5.20182e-09
-1.19008e-09
-8.41451e-10
-8.71806e-07
0.000670956
-0.000575858
1.1679e-07
-8.23915e-07
0.00536014
2.40031e-08
-1.05314e-05
-3.88471e-07
0.000614008
-2.33804e-08
3.65009e-08
2.11496e-08
-4.62121e-08
0.00116704
6.35685e-09
-1.71955e-09
3.88132e-08
2.48054e-08
0.00271472
-1.3416e-08
3.38846e-09
2.3324e-08
2.12841e-08
2.60423e-08
7.6508e-08
8.13748e-09
-1.05962e-08
0.000369511
-3.89409e-09
1.09708e-08
-1.52083e-08
-1.08414e-06
-9.95879e-09
-0.00246025
6.08497e-08
-2.41845e-05
8.36428e-09
-9.46984e-10
0.000563448
4.69008e-09
-0.00334449
-0.00212256
-1.8632e-08
2.15651e-09
-3.52407e-09
3.12582e-09
1.5357e-08
-3.69535e-09
4.02287e-09
0.00755148
-6.35371e-09
6.60916e-08
5.01432e-09
-1.92956e-07
-8.71498e-10
-2.76913e-09
-1.67084e-08
-1.3923e-08
-4.34154e-09
-5.37274e-09
-6.33406e-08
8.68352e-09
5.37221e-09
5.04289e-08
-4.58756e-05
2.09876e-08
0.00213517
-6.58716e-06
1.32196e-08
-1.92541e-10
5.3194e-08
1.99228e-08
1.31922e-09
6.55294e-09
3.15525e-08
2.567e-09
-7.75677e-07
2.19874e-08
-2.73435e-06
-2.19276e-08
-1.07489e-05
-0.000333356
-3.43201e-09
1.97031e-08
-3.31424e-09
1.0896e-09
0.000285572
3.55582e-08
-0.000471561
-8.84021e-09
-9.84329e-09
-7.66327e-07
0.00539755
8.52053e-05
-4.00932e-09
-8.4337e-08
1.06769e-08
-8.80808e-06
-1.02278e-10
-2.17129e-07
-4.33468e-06
0.000976818
1.92157e-09
1.94953e-09
-5.01349e-09
-0.00132689
4.15779e-09
-0.0101847
-7.14044e-09
0.000565341
-1.74649e-05
-2.43594e-08
2.7486e-08
0.000707978
3.37437e-08
2.02021e-06
-1.96419e-08
4.40573e-09
1.02641e-07
2.22866e-08
-6.31409e-09
-1.84282e-05
0.000260909
2.74765e-08
3.83577e-09
2.44752e-08
-3.16292e-09
-3.1036e-09
2.76301e-09
0.00573175
9.69651e-10
-0.000416417
-0.0060772
-8.68215e-09
0.000319299
-1.40558e-08
1.69116e-10
1.21503e-05
1.09678e-05
3.82411e-05
3.77203e-08
0.0037333
3.93011e-09
-2.12632e-08
-1.13124e-05
0.00650924
1.95503e-06
-4.10664e-08
-1.34577e-08
0.000955276
-5.6425e-10
-1.69212e-08
2.11606e-08
1.93425e-08
2.39419e-08
4.82038e-08
2.59442e-08
1.15217e-08
0.000297169
2.41438e-08
-2.96945e-05
0.00377342
-1.75107e-05
-0.00290484
0.000293073
-1.65424e-06
-0.010296
-1.50251e-08
-1.60892e-08
6.29176e-10
1.8635e-08
2.72048e-08
-8.98782e-06
2.36952e-08
0.00035661
5.26606e-09
0.000288039
4.81141e-07
-2.91933e-09
-1.33681e-08
-4.42442e-09
1.76753e-08
0.000195939
-7.75983e-09
6.95862e-10
0.00544784
9.29693e-05
-0.000243781
0.000116361
-7.85921e-10
0.000783033
-7.16286e-09
1.15818e-08
-2.09562e-08
7.38715e-10
-0.000109723
2.4848e-09
-2.09297e-08
7.08198e-08
5.05331e-08
-3.26786e-09
-2.02657e-09
4.73798e-08
9.7044e-09
0.00122882
3.96195e-09
-2.0359e-09
0.00036007
-9.44634e-09
-3.13479e-05
-0.000319375
-2.41468e-08
-2.07002e-08
1.08974e-08
-0.00106325
5.52889e-06
-0.000931549
2.97443e-09
-4.4665e-09
4.12388e-08
0.006119
3.28024e-08
-1.39902e-08
-5.48251e-08
-7.05641e-08
9.04144e-09
0.000589476
-1.02825e-05
-4.82621e-09
3.35703e-09
4.31214e-09
9.21175e-09
-1.76879e-09
1.18637e-07
-1.28835e-09
2.23211e-05
-1.16008e-06
2.25383e-09
-0.00147606
-1.10241e-08
4.28643e-09
-4.86253e-10
-1.04073e-08
2.11473e-07
-2.26116e-08
1.21498e-06
-4.30618e-08
-3.3947e-08
-9.99159e-09
0.000372221
2.60286e-07
-1.17145e-08
-1.91589e-07
-5.3203e-10
-3.80886e-08
0.00669686
-0.000263316
-4.63522e-09
1.19571e-08
6.39877e-09
-2.26976e-08
-2.33207e-08
0.000671048
2.35495e-06
-0.000276929
4.31353e-07
-2.56565e-08
-6.94074e-09
-2.15978e-08
0.00478003
9.60028e-09
2.07766e-05
-2.03733e-09
0.00210103
6.40252e-09
-0.000239771
9.52292e-10
3.61357e-09
-1.02664e-08
-4.21829e-09
1.27815e-08
9.37934e-08
1.81559e-08
-5.50081e-05
5.15235e-06
0.00301215
6.7556e-10
8.16745e-09
1.28801e-08
-4.81616e-06
-0.0014903
6.66093e-09
8.84223e-07
4.02319e-08
5.94731e-09
-1.45994e-08
2.52145e-08
3.6213e-09
-2.80656e-08
-9.59368e-09
2.43645e-08
0.000462966
0.000239365
-2.24257e-08
-0.000672884
0.000446862
0.000703311
5.94575e-06
1.54039e-08
-2.01782e-08
0.000546211
-7.73866e-09
2.61861e-09
2.35495e-07
1.57474e-08
0.00405885
3.74518e-09
-0.000929458
2.14691e-08
1.23761e-09
1.55345e-08
-8.77681e-10
4.62747e-07
-8.19421e-09
1.03116e-05
-7.01834e-09
1.70324e-08
-1.48998e-08
1.28002e-08
-3.2763e-08
2.74499e-08
2.1671e-08
-0.00191771
2.67221e-08
-3.27977e-09
5.07642e-08
-0.000173521
-3.38684e-08
4.34938e-09
1.6986e-08
4.11978e-08
-1.1246e-09
-4.06716e-09
5.12445e-08
3.91132e-09
5.16648e-09
1.29424e-08
-0.00146838
-9.09879e-06
-1.79982e-08
5.60228e-10
6.03123e-09
-2.09393e-08
-9.64339e-09
-4.10353e-08
-4.10254e-09
1.5972e-07
0.00123517
-4.67987e-09
6.28819e-09
-7.3596e-08
-3.60504e-08
0.000602732
1.76523e-09
-6.48056e-09
-1.60437e-06
0.000459116
-5.58783e-09
-7.13437e-09
-6.94214e-09
0.000538353
-8.51717e-09
1.06415e-08
-1.68253e-08
-3.17507e-09
-1.29492e-08
-2.53933e-08
0.000649019
-1.33322e-08
0.000620603
0.0012953
6.77923e-09
0.00362119
-3.94927e-07
-0.000153164
-1.02375e-07
6.37556e-09
1.62411e-09
-4.44357e-09
0.00632021
-3.94926e-08
-5.88709e-09
1.68826e-08
2.03679e-08
-8.07367e-09
-1.35561e-06
-0.0032351
0.000347903
-3.42041e-09
1.21551e-08
1.70996e-06
-0.00132657
1.71203e-09
-1.74743e-08
0.000197449
-7.76838e-09
4.365e-09
2.2517e-09
-1.15545e-06
-1.1353e-07
1.35967e-08
-1.74006e-08
-2.53526e-08
-2.10571e-08
2.07922e-09
-1.16043e-09
5.27816e-09
5.18558e-07
-0.00737928
0.00567155
-4.5477e-08
-7.7759e-09
-5.55407e-09
-1.75041e-06
-2.31035e-05
2.38257e-09
1.94852e-08
-2.57535e-07
9.09442e-09
-3.27971e-08
-5.38225e-08
-1.44272e-07
1.60216e-08
5.03512e-10
-6.04212e-08
0.000443638
0.000503555
-6.2885e-09
4.77836e-09
-2.14732e-08
4.23553e-07
2.97225e-10
0.000802004
2.69113e-08
-1.38644e-09
6.15629e-11
-1.63961e-08
2.2933e-08
-1.83714e-08
1.78378e-08
0.000435513
-0.00649077
-2.81581e-08
1.68897e-09
2.9534e-09
-0.00330792
4.76414e-09
0.000306521
-1.62051e-09
-1.8385e-09
0.000720393
-1.02757e-08
-6.45569e-09
0.000734773
0.00340799
2.71689e-06
-1.12688e-09
-2.28314e-08
3.69046e-10
-2.33072e-08
-9.88956e-08
-3.38503e-08
-3.44874e-08
6.67148e-09
-9.80777e-09
0.00104599
-1.98354e-07
4.18362e-09
9.37442e-10
-2.26707e-08
-4.37438e-09
-0.000889013
7.18203e-08
-0.00224468
-9.92943e-08
-2.50851e-09
-1.95169e-08
-1.09527e-09
3.90105e-06
2.55671e-08
0.00081332
5.92356e-08
0.000262781
-0.000448042
-3.89327e-09
4.85992e-09
1.63241e-09
-1.17562e-08
-4.04053e-10
1.19976e-08
-2.2093e-11
3.25035e-08
6.09751e-09
-5.97969e-06
-2.10951e-08
-1.02827e-09
-9.85207e-09
-0.000764253
-3.8169e-10
4.10246e-09
-1.95176e-08
0.000307093
9.40699e-10
-7.76324e-09
-1.21748e-08
3.13837e-09
2.44641e-08
-6.64982e-11
-8.02012e-08
-5.08826e-09
2.08025e-09
-0.000317151
-4.15965e-09
-0.00269567
-3.56366e-09
0.000185778
0.007669
-2.07813e-09
8.46121e-09
-7.57138e-09
-3.71194e-08
-1.99981e-08
1.92394e-07
-6.47872e-06
-6.92107e-09
-4.84891e-08
-7.99847e-09
-3.97675e-10
-3.01723e-09
4.53946e-08
-9.17443e-11
0.000295671
-0.00513597
-1.12192e-08
-4.0088e-09
-1.60282e-09
-2.97616e-08
-6.90687e-09
-6.16635e-09
1.19612e-08
1.0381e-08
6.63001e-09
-1.62049e-10
-6.65978e-05
9.45097e-09
-3.28718e-08
-7.23361e-09
-1.6582e-08
5.11371e-08
7.31689e-08
3.05335e-09
4.03323e-08
0.00101913
-0.00190991
1.03305e-09
0.00105259
1.7363e-09
-1.80625e-09
-0.00166459
-0.00212759
-8.57583e-09
3.20411e-09
1.21324e-08
0.000228503
-0.00265388
-4.86043e-09
-2.83308e-09
-9.01679e-09
7.26224e-08
0.000478253
-0.000528839
-3.34964e-09
-9.56393e-09
-9.16886e-09
9.1677e-08
-1.64606e-08
-1.19368e-09
7.50965e-09
9.79036e-08
2.67927e-08
4.77928e-09
5.94241e-08
1.04085e-08
6.19491e-09
0.000311972
5.59226e-08
1.68958e-08
-3.84113e-05
0.000167162
-1.06153e-08
3.46561e-08
4.60189e-08
-3.70552e-08
-7.00692e-08
9.9099e-06
7.49942e-08
-7.75925e-09
0.00059261
-1.71562e-05
-2.51434e-08
-2.88692e-09
-2.15267e-10
-2.02398e-08
-2.83052e-10
0.000424827
-0.000302986
-1.37096e-08
4.8285e-09
2.36167e-09
8.3753e-08
0.000632905
-2.07328e-09
-9.74899e-09
1.63909e-10
2.03681e-08
7.20187e-09
2.23583e-08
1.21772e-08
0.00111374
4.70332e-10
-0.00372524
-0.00278946
-1.09989e-08
6.44162e-09
-1.00054e-08
6.26324e-09
-1.08326e-08
2.12799e-08
1.14408e-05
2.40943e-05
0.000393677
1.26904e-09
0.00791257
-4.12606e-08
0.000150017
2.03917e-09
1.46233e-07
-1.0899e-08
-4.2128e-07
2.10614e-08
1.83358e-09
1.15238e-08
-6.7078e-05
-1.03657e-07
1.88584e-08
-6.38264e-09
6.92322e-09
0.00100074
3.61993e-08
0.00053179
0.000608563
-2.40467e-09
4.89613e-09
2.83903e-10
-2.38237e-09
-3.38501e-09
8.67139e-10
-2.14937e-08
5.3855e-08
0.000107402
-1.81706e-08
9.20918e-09
9.50784e-09
5.73147e-08
-2.70538e-08
-6.68658e-09
-1.32095e-08
-6.08308e-09
3.3453e-08
1.04204e-08
-3.94825e-09
1.60587e-08
0.000710886
0.000333112
2.47564e-08
1.40242e-08
-8.33798e-10
-7.93226e-09
-5.26492e-09
9.07956e-09
5.34489e-06
1.709e-06
1.0748e-05
-6.29995e-09
8.25969e-09
-1.44769e-08
-4.02529e-09
7.59471e-10
3.29917e-08
-7.16457e-05
1.25114e-08
-0.00212626
-8.43713e-09
-2.63267e-08
-0.00106909
-1.12788e-08
-4.70226e-08
9.58108e-05
-0.000309054
-8.74915e-07
-1.36296e-08
2.84067e-09
-6.17657e-09
-1.38168e-05
0.000173788
0.000614825
0.00369017
-7.7001e-09
-7.38354e-06
-1.1822e-07
1.46108e-06
-1.05569e-09
-4.44266e-06
8.5217e-07
-0.000376802
-1.81066e-09
1.25359e-08
1.8981e-05
0.00204993
-6.91653e-08
1.81694e-06
3.63589e-08
-4.15123e-09
-1.00545e-08
-1.95833e-08
-7.97857e-09
-2.6177e-08
-4.27162e-08
-8.16213e-09
2.92196e-10
-5.40355e-09
0.000134411
-0.00157807
1.15237e-09
1.59375e-08
-2.1125e-08
0.00138649
-0.000241098
-4.67325e-08
-0.00223131
4.37345e-08
-0.000682914
3.2417e-07
-9.87839e-06
1.87554e-08
1.8311e-07
-8.56254e-09
1.60691e-09
0.004132
4.54485e-09
-1.16144e-08
0.000153109
-3.60504e-07
1.52966e-08
-6.71347e-09
2.51173e-08
-2.17768e-09
-0.00183875
0.000628935
-4.54848e-10
-7.84718e-09
0.000503183
0.00227785
2.0108e-09
-1.97331e-09
-3.43576e-08
3.76702e-08
-8.2924e-09
0.00389548
0.000109623
-6.61535e-05
-2.52704e-09
1.62414e-08
-2.7214e-05
-8.33961e-09
3.3279e-07
2.12989e-10
0.00399182
-3.71213e-08
1.03621e-08
-1.36475e-06
-8.73329e-09
-2.45457e-05
-5.40711e-09
-4.59592e-10
2.89259e-08
-1.71702e-07
-7.49026e-09
4.34259e-08
3.74021e-08
1.92962e-08
-1.48307e-08
3.38552e-09
-6.75104e-09
6.21692e-09
-1.88514e-08
-3.00414e-07
-3.50995e-08
-2.36226e-08
-5.07945e-09
2.93644e-05
-6.26743e-09
-2.97471e-08
8.45285e-07
1.2077e-08
0.000157416
7.60378e-09
-1.1783e-08
-6.33849e-10
-1.61071e-08
3.48974e-07
5.01909e-09
-0.00114671
-0.00151272
1.8782e-08
-2.18266e-08
1.86813e-08
-0.000774111
0.00352425
0.000205301
1.69513e-08
1.02121e-07
-3.13964e-09
-2.70645e-09
1.15237e-08
-4.61561e-09
2.06756e-07
1.69008e-08
2.93851e-08
-0.000523379
2.42383e-07
2.61651e-08
4.53773e-09
6.9405e-10
0.00677154
-0.000587825
-5.56183e-09
-0.000212014
0.000773945
-1.43302e-05
0.00066551
2.80605e-08
-1.45379e-08
-3.75481e-09
5.96252e-06
-3.62229e-08
-8.37243e-07
-0.000882692
-3.61573e-09
3.31234e-07
5.74834e-09
4.78427e-09
-1.64199e-08
-2.92506e-08
0.000206448
-1.29042e-08
3.90497e-09
-0.00138731
-1.18748e-08
2.97646e-05
-8.34988e-09
3.37103e-09
0.00573678
-1.91564e-09
6.69976e-09
-0.000764316
-4.53897e-09
6.13093e-09
-5.51147e-10
7.43642e-09
-0.000979148
3.17416e-09
2.93424e-09
1.11644e-05
-1.54419e-08
-3.1485e-09
1.24535e-08
1.06242e-08
-1.03275e-07
9.0629e-09
1.73443e-07
6.61805e-08
-1.47949e-08
-6.7105e-09
-2.28366e-08
1.72095e-08
0.000467969
-1.242e-08
-1.36403e-06
-3.36667e-08
0.000487757
1.37889e-07
-6.97433e-09
-1.15843e-05
-1.43147e-09
-1.06271e-05
-3.26781e-08
0.00126591
4.9227e-08
-3.54169e-09
1.30272e-08
-1.4061e-08
9.71515e-09
-1.25014e-10
-3.17548e-06
-5.66377e-09
0.000487123
3.69618e-08
4.67032e-09
2.14036e-06
-0.00159971
8.73564e-06
-1.39966e-06
-0.000111874
-2.53401e-08
0.00309527
-2.31682e-08
-1.50805e-08
-2.16767e-06
8.50419e-09
-9.01048e-07
2.55476e-06
5.63614e-09
2.0047e-08
4.33056e-09
-2.13669e-09
2.00369e-08
-6.0029e-05
-3.18768e-08
-0.00596285
-2.96866e-08
-9.70282e-10
4.5419e-06
-4.39063e-09
1.23236e-08
-1.35122e-08
4.03681e-09
-1.9179e-09
8.93263e-05
-9.28361e-09
-1.31586e-08
1.26158e-08
4.86059e-08
4.93046e-06
-6.33102e-09
6.34255e-05
3.78528e-11
-5.15661e-08
7.53081e-09
-3.12518e-08
1.63437e-08
3.23782e-09
-9.43701e-09
-5.96109e-06
9.96705e-06
-3.5459e-08
-1.03302e-08
-2.46252e-07
-8.70224e-10
5.36384e-08
0.00164912
-3.01475e-09
-2.74506e-08
-0.00256829
4.68395e-08
1.72352e-08
-1.37032e-08
0.000826872
-2.01984e-08
-1.50169e-05
1.03566e-08
-9.56656e-09
-3.78729e-08
6.54408e-08
-7.37875e-09
2.30526e-09
-5.57051e-09
-2.78825e-09
1.10704e-09
1.96475e-06
0.00567972
8.84718e-09
-7.69593e-10
-5.7214e-08
0.00383356
1.14012e-08
4.41381e-09
0.0055533
-3.54244e-07
9.79804e-09
3.65994e-08
1.96447e-08
5.26571e-08
1.40332e-08
-0.000618947
3.21068e-08
-2.59116e-06
-0.00148566
-4.81024e-08
-2.09863e-09
-0.000202062
-0.000839316
-2.1245e-09
-6.16183e-09
-2.13256e-08
1.42831e-08
1.9391e-08
0.00010886
2.56679e-09
1.00812e-08
-9.52443e-08
0.0002575
2.19484e-08
0.000530326
-4.12191e-09
2.69973e-08
-2.02123e-08
-0.00203555
9.54891e-09
-1.85545e-06
8.69686e-09
2.3012e-09
2.7331e-08
1.37285e-08
2.37822e-09
1.014e-08
-1.47075e-08
0.00191745
2.3442e-08
-2.38368e-09
7.96799e-09
-2.14481e-08
2.49866e-07
-6.89473e-10
-1.61998e-08
-3.14781e-09
1.79289e-08
-7.18287e-08
1.66338e-08
-2.06709e-06
0.000826445
-3.19132e-10
-1.02876e-09
9.51532e-05
1.06384e-05
3.84827e-09
-8.34789e-09
3.94722e-08
-3.57722e-08
0.00257277
3.78484e-09
-1.24586e-06
-7.51752e-08
-1.07869e-09
3.31662e-08
-6.28071e-09
-7.24064e-07
-4.82906e-08
0.00340217
-6.64305e-09
-1.71787e-08
-9.61308e-09
0.00159008
8.08569e-09
2.98923e-08
-9.28187e-06
0.00699062
-0.000389534
-8.16813e-09
-1.35661e-07
-0.00260877
-6.22462e-09
-3.45736e-09
-3.20867e-08
5.13211e-09
-8.77727e-09
5.40568e-08
1.28359e-06
-2.09939e-07
-2.17461e-09
2.6037e-07
-1.00421e-05
-1.95296e-09
4.30504e-09
-0.00204991
-1.12399e-06
-9.13522e-08
-4.33596e-08
0.000309114
0.000212534
-0.000970707
-1.71932e-08
-0.000265886
-4.707e-09
-8.77925e-09
0.000452962
9.867e-09
-0.000351382
-5.09337e-08
-7.43494e-09
-5.92218e-10
-1.14043e-09
-7.64181e-09
-9.69633e-09
0.000691272
-5.03466e-05
0.00638318
0.000209599
3.17977e-08
4.60229e-09
7.24675e-09
-4.91146e-09
-2.68077e-09
1.50185e-10
2.41634e-08
0.00983117
-5.75375e-07
9.41747e-10
4.13953e-08
1.34962e-05
0.000785138
-3.57568e-08
-4.30672e-09
-5.03445e-09
-4.80765e-08
5.79122e-09
3.83534e-08
0.00019897
3.15721e-09
3.71955e-07
-4.71153e-08
0.000830394
2.87136e-09
6.64411e-06
0.00328944
9.38244e-10
-2.46628e-08
-4.27763e-08
1.97536e-11
-3.71196e-08
8.47867e-07
-0.00122781
-3.74749e-10
-1.82232e-09
-4.04206e-09
0.000340287
2.71328e-08
0.00135766
0.000173966
-2.89314e-09
2.89129e-08
9.51064e-06
3.40974e-08
-1.40301e-10
-8.15435e-09
-2.37132e-09
1.12666e-08
2.54539e-07
-1.45096e-08
2.85465e-05
-6.66776e-09
4.98944e-07
1.19884e-09
-2.65625e-09
-0.00179515
-0.0010634
-6.79496e-09
0.000389968
-4.21366e-10
1.11682e-08
2.81312e-06
0.000545584
5.31821e-07
-2.9604e-08
2.02097e-09
9.91861e-09
2.67767e-09
0.000658271
-2.8072e-09
2.9407e-08
8.62109e-06
0.000155462
5.52576e-09
2.43833e-09
4.08963e-08
-3.99919e-08
-0.000724443
0.000867442
2.15129e-09
2.48683e-08
0.00571839
4.12019e-08
3.03585e-05
2.49681e-08
3.70229e-08
-4.26576e-09
-3.6505e-08
-3.26458e-09
1.82958e-08
3.0634e-08
2.48775e-08
0.00678289
-1.06403e-08
2.64276e-09
0.000366179
2.14675e-09
7.80688e-09
7.41359e-09
-3.8392e-08
1.25482e-08
-8.76103e-09
2.07395e-05
-1.41365e-08
1.67863e-08
-8.33894e-09
0.00431212
0.00344143
1.52566e-09
-7.34643e-09
-6.06235e-08
5.19443e-08
1.77863e-09
-4.21899e-08
-5.45048e-06
-7.19091e-09
2.11111e-08
-3.47339e-07
4.3788e-09
-1.37298e-06
-1.18618e-08
2.42859e-08
0.000209102
-0.000185047
-1.64731e-08
1.51034e-05
8.35326e-09
1.10606e-08
4.25902e-07
2.18872e-08
1.51713e-08
-7.99539e-08
-3.17444e-08
-1.94274e-08
2.37246e-08
2.47132e-09
3.37387e-08
1.51604e-06
0.000209652
2.8676e-05
-0.000700789
6.11043e-10
0.000774867
2.88435e-08
1.25428e-08
5.35544e-09
-1.92658e-08
1.00121e-08
-8.69044e-09
-0.000959833
-2.74699e-08
-1.8471e-09
-5.40305e-10
2.79279e-09
0.00440265
-0.000100295
3.73695e-08
1.67979e-08
-8.35239e-07
-2.08609e-08
-1.02846e-09
-0.000250623
0.00427294
5.50092e-10
-3.89737e-08
9.87094e-09
-0.00240275
4.81573e-09
1.78258e-09
0.00621183
-0.00226706
4.64437e-09
3.89141e-05
2.74456e-08
-2.66274e-09
8.45086e-09
2.90025e-09
4.25647e-06
2.68799e-09
-3.62904e-10
0.00113162
2.2999e-10
3.51238e-08
-1.14562e-08
1.58433e-09
1.37515e-05
1.45148e-06
-1.77614e-08
1.10554e-08
-1.81933e-06
1.9366e-08
-9.94168e-09
1.38445e-10
-3.97021e-09
1.54657e-08
-9.71112e-09
4.19754e-09
9.83442e-10
-3.72221e-08
-9.49302e-07
0.005085
8.34382e-06
9.88247e-09
6.13857e-07
1.24174e-08
2.22375e-08
-9.93453e-10
-5.08048e-09
-4.28897e-08
-2.23649e-10
1.8816e-08
1.8247e-09
2.13157e-08
9.62136e-09
0.000469168
1.07563e-08
-1.78544e-08
-2.72167e-09
-2.04148e-08
-4.27883e-09
-3.02869e-08
3.02519e-08
2.30281e-07
0.00022156
-7.95953e-08
0.00663882
6.76466e-09
1.51391e-09
-1.55771e-08
-9.18708e-09
3.22625e-08
1.73726e-08
-8.27103e-09
0.0031615
-2.50148e-06
0.00690647
0.000228717
-0.0033242
2.6417e-08
0.000186121
-1.06646e-08
2.61417e-07
-1.24357e-08
-7.46057e-09
3.50741e-10
1.10247e-07
-4.1479e-09
-0.000121609
1.7128e-08
6.48904e-09
3.50844e-08
7.44874e-09
1.07484e-07
4.59046e-09
9.01081e-08
2.25523e-07
5.7506e-08
0.00517608
4.37431e-09
0.000784016
-2.99701e-08
-1.69993e-08
8.21775e-08
2.67248e-09
-4.45735e-09
1.0674e-06
-2.51517e-10
-1.63375e-08
8.3856e-09
-5.23712e-09
0.00490774
0.00371658
-2.32062e-08
2.93176e-10
-2.53969e-08
5.616e-09
-1.44368e-08
-0.00449322
-2.36003e-10
-0.00703849
0.00547408
3.52852e-08
-2.51789e-08
0.000253404
2.92057e-08
-2.36247e-07
0.000544775
-4.8258e-09
3.44135e-09
-8.90807e-07
-6.73344e-08
-3.54972e-07
0.00554696
-3.58949e-09
-1.42754e-08
2.98045e-08
1.35108e-08
-3.10504e-07
1.21826e-08
-3.58511e-10
-6.08597e-09
8.72714e-08
-2.34054e-08
-4.35929e-06
-8.97921e-09
9.94405e-06
5.81933e-07
2.53253e-08
-3.9071e-09
6.36437e-08
3.25122e-09
0.00418259
-1.53185e-09
-1.20795e-08
-0.000705678
3.91161e-05
-4.02027e-08
0.00173046
-0.000277989
-3.40188e-08
-4.7217e-09
-1.42013e-08
2.60524e-09
0.000497095
-6.26231e-09
1.8335e-08
1.24671e-08
2.36801e-06
7.17601e-07
-0.000144188
0.00123427
-5.98181e-08
3.65297e-09
-0.00429492
0.000159796
1.27479e-07
-5.57901e-09
-6.7075e-09
-1.35877e-06
-3.25226e-07
-1.1314e-08
-1.13407e-06
8.2535e-09
1.08343e-05
9.27462e-09
-5.02586e-09
-2.55516e-08
3.7834e-08
6.43593e-09
4.17206e-08
-1.1185e-08
8.6139e-09
8.66089e-09
-8.25627e-10
0.000413171
-5.79001e-09
-4.12222e-08
7.85272e-10
-0.000113008
-2.23349e-05
-3.39068e-07
2.16636e-08
8.7707e-09
-3.61117e-08
1.98131e-09
-5.84246e-09
-2.34807e-08
-2.63582e-08
-7.76038e-09
0.00686133
3.21227e-08
3.15613e-08
2.60667e-05
7.52532e-06
6.99518e-10
7.32277e-09
3.05855e-10
-8.40704e-09
-1.66603e-08
6.84858e-09
-0.000623341
-1.06749e-08
-6.32193e-09
1.65289e-08
-4.49181e-06
-1.55126e-06
-4.54811e-08
1.11041e-06
-1.21394e-08
6.26807e-09
-0.000722702
-1.76658e-08
1.20665e-08
-0.000172929
-2.27155e-08
1.58117e-08
-7.31349e-09
8.48413e-09
7.02304e-09
4.20279e-09
0.000178659
5.33558e-05
-0.000421793
1.11581e-07
-0.000714078
6.02293e-09
-1.41584e-09
-0.000436596
9.70323e-09
0.000206862
3.67148e-08
-3.13566e-06
1.38618e-09
6.00365e-05
-0.00110695
-2.87243e-09
5.46629e-09
-9.49948e-09
-1.78955e-09
1.04664e-08
2.17198e-06
9.00306e-10
-6.14192e-09
8.66105e-09
3.06118e-08
-1.58327e-08
7.7923e-05
-3.73467e-10
-7.99069e-09
9.55848e-09
-3.32697e-08
-1.08855e-09
-9.84646e-06
-4.88032e-09
-0.000697443
-1.04942e-05
-2.19961e-07
-3.92751e-08
3.22278e-09
-5.11252e-10
1.1657e-08
5.71753e-09
-9.2185e-10
-0.00203325
-1.87509e-08
6.23336e-06
6.34395e-09
-1.54526e-08
6.68341e-08
-3.11665e-10
-0.000160682
3.9351e-08
3.56923e-09
-1.08922e-08
0.000990137
-2.08567e-08
9.79173e-09
2.67736e-08
-1.84321e-07
2.96267e-07
-1.44514e-08
4.76685e-09
9.4362e-10
-3.71473e-09
1.08518e-08
1.29012e-08
-4.85819e-08
-1.91809e-08
-7.09692e-09
-4.58475e-08
1.28854e-08
-7.51882e-06
-0.00996273
1.84719e-08