/*--------------------------------*- C++ -*----------------------------------*\
| =========                 |                                                 |
| \\      /  F ield         | OpenFOAM: The Open Source CFD Toolbox           |
|  \\    /   O peration     | Version:  v2012                                 |
|   \\  /    A nd           | Website:  www.openfoam.com                      |
|    \\/     M anipulation  |                                                 |
\*---------------------------------------------------------------------------*/
FoamFile
{
    version     2.0;
    format      ascii;
    class       volScalarField;
    location    "300";
    object      epsilon_0;
}
// * * * * * * * * * * * * * * * * * * * * * * * * * * * * * * * * * * * * * //

dimensions      [0 2 -3 0 0 0 0];


internalField   nonuniform List<scalar> 
18166
(
1.97205e-05
1.34569e-06
4.13802e-05
2.22528e-06
0.000130802
1.88202e-06
1.1659e-06
1.15284e-06
1.48918e-06
1.54659e-05
1.35267e-06
1.91671e-06
1.63102e-06
1.54678e-06
1.55389e-06
1.31688e-06
0.0113867
8.18552e-07
1.61994e-06
9.76651e-07
1.59012e-06
1.34115e-06
1.61274e-06
1.44956e-06
8.18924e-07
6.05918e-06
1.15728e-06
0.000210024
1.46305e-06
1.26239e-06
4.09593e-07
1.06413e-05
1.17527e-06
7.83108e-07
0.000116516
1.55665e-06
8.48221e-07
5.29673e-07
1.16164e-06
1.91496e-06
1.48248e-06
1.63094e-06
6.39264e-07
1.62181e-06
0.000334612
8.60237e-07
1.41087e-06
3.00933e-05
4.15994e-07
1.09067e-06
6.95981e-06
0.0112999
4.14772e-07
1.2405e-06
8.59073e-07
1.47465e-06
0.000275382
1.5064e-06
5.3215e-05
1.48276e-06
7.67573e-07
9.8194e-07
7.81106e-07
1.5729e-06
1.2682e-06
1.00352e-06
1.10902e-06
1.31332e-06
0.00356196
7.30158e-07
1.62724e-06
2.23681e-06
1.43387e-06
1.48638e-06
7.28759e-07
1.14162e-06
0.00963945
0.00104243
2.8992e-05
1.10378e-06
1.59309e-06
9.5916e-07
0.000209871
7.05402e-07
9.06158e-07
7.72951e-07
6.58142e-07
1.57633e-06
1.27236e-06
0.0087161
7.01813e-07
7.46211e-07
1.63412e-06
1.27818e-06
1.4851e-06
1.53166e-06
3.32084e-06
1.49347e-06
0.000203633
0.0133867
1.02309e-06
8.0733e-07
1.25472e-06
0.00014134
7.16635e-07
0.000189146
7.32229e-07
1.13536e-06
4.17494e-07
1.464e-06
0.00635259
0.000903479
0.00777907
0.00350119
1.46304e-06
0.000148522
0.00103839
1.37457e-06
1.44966e-06
5.61416e-07
1.33908e-06
5.58989e-07
1.37265e-06
9.46277e-07
1.32686e-06
1.52645e-06
1.52831e-06
8.16586e-07
7.56757e-07
1.56138e-06
1.16254e-06
1.58135e-06
8.86842e-07
1.01976e-06
1.17065e-06
9.87424e-05
1.10309e-06
2.33531e-05
7.57364e-07
4.05691e-05
1.26338e-06
1.33175e-06
1.56403e-06
6.4534e-05
4.15247e-07
0.000443559
4.08726e-05
8.47856e-07
7.84978e-07
0.0136212
8.98821e-07
1.61064e-06
4.18913e-05
0.00594643
2.31644e-06
7.8978e-07
9.52036e-07
1.25833e-06
2.37798e-06
1.46541e-06
1.12789e-06
7.87212e-07
0.00603277
7.31832e-07
1.58936e-06
9.14495e-07
1.37258e-06
1.15368e-06
0.00571742
9.51289e-07
8.8567e-07
0.000199601
1.11562e-06
1.22605e-05
7.03447e-07
5.75033e-06
7.72811e-07
6.73808e-07
1.46682e-06
1.58556e-06
9.45338e-07
7.48612e-07
5.91942e-07
0.00471718
1.40179e-06
7.23632e-07
1.14015e-06
1.59505e-06
1.40271e-06
7.95956e-07
1.25682e-06
1.40663e-06
0.00547905
1.47121e-06
7.82821e-07
3.86679e-05
2.68666e-05
1.08489e-06
1.27014e-06
1.11489e-06
9.3471e-07
0.000305301
0.0057059
1.46641e-06
1.49596e-06
2.22885e-06
1.32471e-06
2.25312e-06
2.13767e-06
6.74963e-07
1.1105e-06
2.19268e-06
2.14342e-06
6.74511e-07
1.60599e-06
1.26121e-06
2.41946e-05
1.23504e-06
1.24853e-06
1.19749e-06
9.54164e-07
0.000130896
1.56397e-06
1.00154e-06
1.46391e-06
0.000142646
9.80922e-07
1.1512e-06
4.2293e-07
9.84754e-07
9.80594e-07
5.71554e-07
3.96149e-06
5.72556e-07
0.00593331
0.000142108
0.000142616
7.44404e-07
9.10986e-07
1.82631e-06
1.01066e-06
1.54991e-06
9.7606e-07
0.00012063
1.00483e-06
5.55835e-07
0.000175636
5.57936e-07
1.10929e-06
1.9066e-06
0.000128265
1.19097e-06
1.14119e-06
1.81126e-06
1.33102e-06
1.41703e-06
1.25629e-06
1.53242e-06
1.13551e-06
1.53324e-06
1.43189e-06
1.42456e-06
1.60222e-06
6.85843e-07
1.43226e-06
1.22336e-06
5.3193e-06
1.1496e-06
7.24551e-07
6.98151e-07
1.12359e-06
1.50386e-06
1.36909e-06
2.03366e-05
8.66616e-07
1.08663e-06
1.25335e-05
9.08339e-07
1.34069e-06
3.15598e-06
1.15524e-06
6.58202e-07
1.72793e-06
1.49038e-06
1.56051e-06
8.20991e-07
2.43473e-06
1.78867e-06
1.09184e-06
1.26965e-06
4.1895e-07
5.8737e-07
1.56391e-06
1.41161e-06
5.6222e-07
1.1758e-06
5.0723e-07
0.000275474
5.65261e-07
5.31457e-06
1.53276e-06
1.15851e-06
0.00405818
1.15664e-06
1.27335e-06
8.61754e-07
1.63326e-06
1.14829e-06
8.04044e-07
1.26576e-06
1.33207e-06
1.32769e-06
1.46386e-06
1.11969e-06
1.15015e-06
7.41912e-07
7.35314e-07
2.30062e-06
2.49926e-06
1.11999e-06
0.000519266
1.41313e-06
0.00594766
1.40783e-06
8.52305e-07
7.38473e-07
1.33303e-06
3.89724e-05
1.31439e-06
2.13027e-06
7.37725e-07
6.76149e-07
1.05439e-06
1.2484e-06
1.71857e-06
1.38419e-06
2.08926e-06
1.42845e-06
9.6058e-07
1.20251e-06
1.14785e-06
1.46045e-06
2.26824e-06
1.32083e-06
1.53467e-06
1.47115e-06
3.34426e-05
1.44991e-06
9.47356e-07
7.20263e-07
1.35312e-06
6.33663e-07
1.83856e-06
1.47122e-06
1.01818e-05
1.61696e-06
1.13334e-06
9.61162e-07
2.46108e-06
1.63594e-06
9.11732e-07
1.17438e-06
5.65405e-07
1.5343e-06
1.10694e-06
5.65467e-07
8.49857e-07
1.3702e-06
1.09004e-06
1.3506e-06
9.59913e-07
1.00554e-06
1.15689e-06
0.000823252
1.20092e-06
8.7475e-07
8.22644e-07
8.52457e-07
9.87892e-07
1.4583e-06
5.49673e-07
1.44506e-06
1.9835e-06
0.000380923
5.52215e-07
1.48391e-06
1.53374e-06
1.98488e-06
1.58909e-06
4.54329e-05
5.46826e-07
2.18881e-06
1.48597e-06
1.51612e-06
2.09455e-06
2.12963e-06
1.27819e-06
5.43277e-07
1.35902e-06
2.14929e-06
5.40036e-07
5.37108e-07
1.25383e-06
6.29808e-07
1.51118e-06
1.09956e-06
8.14086e-07
1.44128e-06
8.12838e-05
6.30209e-07
8.14493e-07
3.90263e-06
8.94136e-07
5.81641e-07
4.14831e-07
0.00153942
1.53725e-06
1.50696e-06
8.94363e-07
1.40615e-06
1.06157e-06
4.15646e-07
1.44582e-06
9.70345e-07
9.25244e-07
1.28268e-06
1.4469e-06
4.12507e-07
4.13321e-07
9.87896e-07
1.52414e-06
5.12496e-07
1.26834e-06
8.88903e-07
9.45133e-07
1.19757e-06
1.0949e-06
2.74737e-06
0.00601421
1.05187e-06
0.00578155
0.000119677
1.6616e-06
1.64732e-06
1.24231e-06
8.90236e-07
0.000319781
1.3235e-06
1.53847e-06
4.24854e-07
9.82796e-07
1.14705e-06
1.43986e-06
5.10045e-07
4.7852e-07
1.36801e-06
8.43311e-07
1.18833e-06
1.2065e-06
1.00797e-06
5.02295e-07
6.45149e-07
8.42565e-07
1.61317e-06
1.55837e-06
8.4789e-07
1.41771e-06
1.33684e-06
9.97178e-07
1.27566e-06
8.00089e-07
1.35957e-06
1.36194e-06
7.78311e-07
0.000108689
1.39591e-06
9.20824e-07
5.69536e-07
9.14163e-07
0.00170899
1.30211e-06
6.90175e-07
0.000192764
1.14305e-06
1.14783e-06
8.98978e-07
2.78942e-06
5.89639e-07
1.27528e-06
9.4897e-07
1.09495e-06
1.0215e-06
1.26979e-06
1.70678e-06
0.000104682
1.29928e-06
1.10594e-06
1.63584e-06
1.51777e-06
1.45136e-06
1.56852e-06
1.55343e-06
1.59756e-06
0.000902666
9.10419e-07
1.55223e-06
1.0209e-06
1.09221e-06
9.14952e-07
6.13457e-07
1.24576e-06
1.31898e-06
1.107e-06
1.17722e-06
3.35687e-06
2.61494e-06
1.0685e-06
1.47715e-06
0.0027172
1.53418e-06
1.24585e-06
0.000110256
8.92019e-07
1.70062e-06
0.00601634
8.25683e-07
1.54689e-06
1.35003e-06
5.25988e-07
1.1254e-06
2.15438e-06
1.10349e-06
0.00684256
2.21517e-06
8.34718e-07
0.00247589
5.3691e-07
7.68023e-07
1.10819e-06
1.29794e-06
9.09184e-07
1.96056e-06
9.0429e-07
2.69129e-06
1.5574e-06
1.63346e-06
7.31658e-07
5.44499e-07
1.76972e-06
9.09295e-07
1.55049e-06
9.24824e-07
1.06475e-06
1.43569e-06
4.17275e-07
5.4524e-07
1.97103e-06
2.0818e-06
1.08802e-06
7.52496e-05
1.34343e-06
1.53321e-06
1.38972e-06
7.09745e-07
1.13779e-06
0.00518561
1.30563e-06
8.12931e-07
5.38183e-07
1.51665e-06
9.30098e-07
5.38898e-07
2.79292e-06
1.15731e-06
0.000132262
3.2284e-06
1.61132e-06
1.24351e-06
1.60115e-06
1.09714e-06
1.04998e-06
7.06467e-06
1.34513e-06
9.21604e-07
4.3146e-07
6.32926e-07
1.30407e-06
9.57132e-07
1.57317e-06
1.46688e-06
0.00216023
7.86505e-07
1.16524e-06
1.4825e-06
1.57823e-06
1.6522e-06
1.61027e-06
7.8767e-06
4.14764e-06
0.000694924
8.73728e-07
1.42633e-06
1.34407e-06
1.29176e-06
1.37269e-06
5.90089e-07
7.76469e-07
0.000105174
1.95232e-06
9.83766e-07
7.86918e-07
7.56728e-07
1.2319e-06
1.09245e-06
8.24575e-07
1.10448e-06
1.64425e-06
9.81856e-07
9.04073e-07
9.15201e-07
1.56823e-06
7.85125e-07
6.53577e-06
0.00233742
1.13917e-06
7.69225e-07
1.30624e-06
1.14311e-06
0.0136329
7.75326e-07
1.26505e-06
1.237e-06
1.04589e-06
0.0106844
1.65627e-06
1.48997e-06
7.57298e-07
8.89238e-07
1.3301e-06
8.89818e-07
1.23944e-06
4.16622e-07
2.2286e-06
1.50499e-06
1.49552e-06
9.61745e-07
0.000177427
9.44344e-07
9.94341e-07
4.17061e-07
1.56303e-06
7.36867e-07
7.6018e-07
1.23706e-06
8.84619e-07
0.00573939
1.60494e-06
1.4704e-06
8.67986e-07
8.27727e-07
9.12057e-07
1.5404e-06
1.6122e-06
1.37752e-06
5.00851e-07
1.14732e-06
9.40402e-07
1.53752e-06
1.28547e-06
2.28146e-06
8.81688e-07
1.24288e-06
1.30479e-06
7.05973e-06
5.90664e-07
9.52978e-07
9.91919e-07
1.15452e-06
1.62422e-06
7.58455e-07
7.31698e-07
8.0207e-07
8.66625e-07
2.79239e-06
1.86802e-06
1.1e-05
3.97337e-06
0.000189719
1.54574e-06
1.12424e-06
1.41965e-06
1.10136e-06
7.92753e-07
1.73876e-06
2.76188e-05
3.04116e-06
1.64195e-06
1.41561e-06
1.50838e-06
1.26509e-06
1.51669e-06
8.64319e-07
1.12938e-06
0.00533967
7.31213e-07
1.10605e-06
1.09873e-06
1.26748e-06
7.3674e-07
1.3562e-06
0.00528144
3.49467e-06
1.47328e-06
1.14598e-06
0.000149352
1.4838e-06
1.54017e-06
1.34135e-06
1.54055e-06
1.48868e-06
1.63086e-06
1.45464e-06
2.00161e-05
1.30627e-06
8.38956e-07
8.12168e-07
1.96245e-06
1.62631e-06
1.55426e-06
0.00171774
1.141e-06
7.80692e-07
1.62772e-06
2.04681e-06
7.56021e-07
1.12286e-06
1.52484e-06
6.68465e-06
1.34506e-06
9.1306e-07
0.00516582
1.0434e-06
5.80841e-07
1.05835e-06
6.99686e-07
1.23983e-06
1.48953e-06
8.78005e-07
1.34006e-06
1.4611e-06
1.24617e-06
1.29338e-06
9.06644e-07
1.28844e-06
0.0021202
1.57664e-06
7.48488e-05
7.29407e-07
1.1071e-06
1.53389e-06
8.3758e-07
9.21642e-07
1.63532e-06
1.75594e-06
1.56192e-06
9.43465e-07
1.10262e-06
1.30609e-06
0.000545972
1.31981e-06
1.23706e-06
1.00883e-06
1.02362e-06
4.15198e-07
8.8107e-07
1.95198e-06
3.28064e-05
1.3519e-05
1.62433e-06
2.0679e-06
0.00587143
1.10744e-06
2.6434e-06
1.78865e-06
3.56401e-05
1.55532e-06
1.29677e-06
1.00611e-06
1.30788e-06
9.65739e-05
1.12411e-06
6.56078e-07
1.44478e-06
1.27098e-06
0.000487227
1.19078e-06
1.31678e-06
1.10484e-06
9.51606e-07
1.29e-06
1.46228e-06
1.5628e-06
7.76853e-07
2.87231e-06
9.4161e-07
1.23915e-06
8.73696e-07
7.63358e-07
1.09817e-06
1.56187e-05
1.40926e-06
5.79549e-07
7.28897e-07
7.07821e-07
0.000176631
4.18054e-07
7.41613e-05
3.77242e-06
1.00321e-06
9.8057e-07
1.35629e-06
1.0837e-06
1.21866e-06
1.0235e-06
7.74254e-07
0.00101311
1.27085e-06
1.36521e-06
1.14587e-06
1.2306e-06
1.11329e-06
7.20401e-07
1.3624e-06
9.09394e-07
7.2659e-07
8.31512e-07
1.551e-06
1.1415e-06
6.9116e-07
1.45348e-06
2.82903e-05
1.56228e-06
3.74164e-06
4.20149e-07
1.0125e-06
8.49452e-07
1.00682e-06
1.37774e-06
8.93242e-07
1.13576e-06
1.03945e-06
1.23448e-06
4.21142e-07
1.52939e-06
2.05904e-06
9.96924e-07
7.18971e-07
0.000166138
1.23741e-06
1.56293e-06
5.07583e-07
1.00689e-06
0.000108845
1.52759e-06
0.000170535
8.28759e-07
1.23287e-06
1.76209e-06
0.0056853
9.0274e-07
9.62866e-07
1.56321e-06
1.25913e-06
8.14906e-07
9.58742e-07
8.73463e-07
2.08977e-06
0.00418802
7.12655e-07
1.53477e-06
1.28929e-06
0.00403536
1.13885e-06
0.00800115
9.3268e-07
0.0016967
3.78089e-06
1.31158e-06
1.39519e-06
8.83554e-05
1.7095e-06
2.07776e-06
1.26662e-06
1.13556e-06
1.22979e-06
1.4103e-06
7.54562e-07
5.90117e-07
2.46032e-06
1.22894e-06
9.73537e-07
1.25905e-06
1.43521e-06
5.06117e-07
1.20974e-06
0.00108865
1.02359e-06
0.000386719
0.0182863
1.29741e-06
2.36235e-06
1.53542e-06
8.38923e-07
1.83487e-06
2.05776e-06
1.80928e-06
1.74924e-06
0.000718258
1.0702e-06
1.89967e-06
4.06495e-07
0.00766414
9.13595e-07
1.61265e-06
7.56069e-07
2.96892e-06
1.16405e-06
1.17096e-06
1.12566e-06
7.37145e-07
1.33518e-06
1.48189e-06
1.73882e-06
8.11031e-07
0.00166368
1.22108e-06
1.75453e-06
0.000439213
1.75195e-06
0.000228267
1.1308e-05
1.07578e-06
0.00650997
1.2292e-06
1.30127e-06
7.08745e-07
1.39138e-06
1.29229e-06
2.10383e-06
7.8209e-07
3.45084e-06
1.54625e-06
1.45118e-05
1.58578e-06
6.20969e-07
1.96311e-06
8.47965e-07
1.34009e-06
4.55892e-05
1.53106e-06
9.49729e-07
0.000106282
4.03712e-06
1.37229e-05
5.38398e-06
6.48261e-07
0.000334175
6.33652e-07
7.38558e-07
1.53795e-06
1.55895e-06
3.97083e-05
1.22392e-06
1.15836e-06
1.42441e-06
1.52784e-06
7.15781e-07
7.99877e-07
1.61203e-06
1.24827e-06
0.000275234
1.37314e-06
1.22291e-06
4.86234e-05
1.11193e-06
2.2941e-06
7.83988e-07
1.29534e-06
1.05863e-06
1.54896e-06
0.00972001
1.20725e-06
0.00513243
1.58656e-06
8.38284e-07
1.10094e-06
7.4377e-05
1.0922e-06
8.70945e-07
1.30111e-06
1.29496e-06
1.45764e-06
6.5979e-05
5.24201e-07
4.17554e-07
8.4307e-07
8.13977e-07
7.86395e-07
9.69912e-07
1.10276e-06
5.27281e-07
2.24977e-06
8.83536e-07
9.04275e-07
0.00344672
9.70741e-07
1.16311e-06
5.26599e-07
1.43296e-06
5.90424e-07
1.09435e-06
2.0506e-06
1.43237e-06
1.04883e-06
7.0156e-07
7.5071e-06
5.8923e-07
1.05565e-06
8.05302e-07
5.42112e-07
1.54369e-06
0.00603268
9.11726e-06
7.31049e-07
1.4179e-06
1.40951e-06
1.59004e-06
1.4595e-06
3.05065e-06
4.19146e-07
0.000405868
1.15191e-06
1.48856e-06
9.75936e-07
9.79593e-07
0.00144727
9.06866e-07
8.45081e-07
8.29975e-07
0.00503976
6.21859e-07
2.34927e-06
6.97862e-07
7.45263e-07
8.58524e-07
4.155e-07
6.21704e-07
1.48055e-06
1.26026e-06
0.000169677
8.67832e-07
0.000422476
7.04203e-07
1.21566e-06
1.49437e-06
2.28636e-06
0.000171405
1.4653e-06
1.82524e-06
1.3389e-06
1.23923e-06
1.43319e-06
1.52041e-06
1.26319e-06
1.54172e-06
1.04006e-06
1.64532e-06
3.07116e-05
4.73688e-05
1.04437e-06
0.000168762
2.47438e-06
0.000131604
2.08903e-06
1.21028e-06
1.37742e-06
0.00172222
1.58099e-06
7.44103e-07
9.66722e-07
1.29168e-06
0.0157295
1.38616e-06
0.00584308
1.46101e-06
1.01514e-06
1.23125e-06
7.66929e-07
1.30076e-06
9.01994e-07
2.16482e-07
8.23072e-07
9.90566e-07
7.8386e-07
1.49257e-06
1.18116e-06
1.73626e-06
1.21237e-06
0.00896032
1.33308e-06
1.41628e-06
1.48744e-06
1.63009e-06
1.27435e-06
1.10349e-06
1.65681e-06
1.52875e-06
4.72937e-07
1.20886e-06
1.58583e-06
5.79742e-07
5.81718e-07
1.38163e-06
1.81851e-05
1.67168e-06
8.55725e-07
1.27975e-06
7.26398e-07
1.22856e-06
1.49177e-06
1.43389e-06
9.49948e-07
1.79315e-06
0.0164828
1.53742e-06
1.13246e-06
1.5533e-06
1.40281e-06
2.68657e-06
1.36218e-06
1.04529e-06
1.83248e-06
0.00169891
1.20569e-06
9.57038e-07
8.19909e-07
2.38999e-06
8.27879e-07
7.81929e-07
1.5458e-06
1.37712e-06
1.56037e-06
1.35357e-06
2.64059e-06
1.04341e-06
0.000174793
3.14153e-06
9.91851e-07
3.97592e-06
1.30659e-06
7.35355e-07
1.686e-06
8.57003e-07
9.16574e-07
7.14366e-07
0.00899537
1.1829e-06
9.16063e-07
8.56962e-07
1.5369e-06
1.51984e-06
5.53671e-07
0.0027984
8.73258e-05
5.43927e-07
1.2588e-06
1.61998e-06
0.00281069
6.94317e-07
1.09026e-06
1.82137e-05
5.25318e-07
1.16309e-06
5.30658e-07
2.00017e-06
1.70191e-06
7.97837e-07
1.41376e-06
1.20452e-06
1.39984e-06
9.04039e-07
1.22391e-06
1.47309e-06
9.73095e-07
0.0178692
0.0054505
1.62284e-06
5.27673e-07
8.99412e-07
6.1862e-07
6.62357e-07
5.33366e-07
1.56036e-06
1.82132e-06
1.58161e-06
1.30392e-06
1.02205e-06
4.80857e-07
1.70231e-06
6.9088e-07
1.61269e-06
0.00102986
2.71767e-05
6.50831e-07
1.38616e-06
1.59341e-06
1.08436e-06
6.94427e-07
8.6018e-05
9.9209e-07
8.55007e-07
6.78399e-07
1.61688e-06
1.28736e-06
1.3675e-06
1.02219e-06
3.82927e-05
0.0124785
1.49157e-06
1.44044e-06
8.05994e-07
0.00285156
1.4389e-06
0.00105201
9.52287e-07
7.33372e-07
0.00211511
9.2059e-07
1.08116e-06
2.49835e-06
4.23209e-06
8.88709e-07
1.1019e-06
1.27354e-06
5.15334e-07
1.31929e-06
1.68427e-06
1.25837e-06
1.62885e-06
8.41709e-07
7.2245e-07
3.22384e-06
1.88203e-06
5.17515e-07
8.43202e-07
1.29241e-06
1.57076e-06
0.000244506
1.60244e-06
0.000127246
1.62925e-06
7.97779e-07
1.24552e-06
4.70361e-07
2.19634e-06
1.51808e-06
6.27916e-05
1.46496e-06
3.36748e-06
0.00354642
7.66517e-07
7.52629e-07
5.22001e-07
1.28393e-06
7.31115e-07
8.74044e-07
1.36542e-06
1.44679e-06
7.14903e-07
5.14573e-07
5.32182e-07
9.1484e-07
7.68534e-07
0.000169404
1.21843e-06
1.20046e-06
1.39537e-06
2.35583e-06
5.24281e-07
1.00203e-06
1.43886e-06
1.01061e-06
1.22664e-06
5.27982e-07
1.20381e-06
7.51172e-07
7.11905e-07
3.59823e-06
5.0863e-07
0.00204664
6.47915e-07
0.000490814
0.000300447
6.21376e-07
1.58463e-06
6.37529e-07
1.30287e-06
1.26331e-06
1.78734e-06
1.71869e-06
5.10803e-07
4.86504e-07
1.04593e-06
7.10945e-07
7.96861e-07
1.24973e-06
1.60085e-06
2.58875e-06
0.0124893
1.08778e-06
1.40678e-06
7.99877e-07
1.46036e-06
8.76303e-07
9.7409e-07
1.25638e-06
1.37335e-06
1.06275e-06
5.34317e-07
3.73933e-06
7.0102e-07
1.44523e-06
1.04635e-06
1.34801e-06
1.59695e-06
1.81872e-06
5.18633e-07
1.63829e-06
7.88186e-05
0.00143785
9.34085e-07
8.41023e-05
4.16118e-07
7.84519e-07
0.00643437
0.00848415
1.37519e-06
1.4396e-06
1.12917e-06
2.80604e-06
0.00198538
1.05418e-06
1.44542e-06
1.28457e-06
1.49377e-06
0.000206865
0.000110032
1.1024e-06
7.94603e-07
7.85366e-07
1.82791e-06
5.1193e-07
9.76394e-07
1.21175e-06
1.50716e-06
1.26228e-06
5.20926e-07
1.56866e-06
1.20283e-06
9.31501e-07
0.0023235
1.62631e-06
1.52634e-06
6.09734e-07
9.63193e-07
8.32745e-07
1.71017e-06
1.63578e-06
1.14828e-06
4.79199e-07
1.87301e-06
1.77813e-06
5.05336e-07
1.31272e-06
3.94219e-06
1.45553e-06
1.0493e-06
1.37881e-06
1.10762e-06
1.04414e-06
4.58912e-06
9.91445e-05
5.14181e-07
4.98887e-07
1.2751e-06
1.48513e-06
0.000997883
1.16108e-06
5.07512e-07
6.70479e-07
1.58319e-06
5.02073e-07
1.43516e-06
5.01035e-07
0.000135843
6.25678e-07
0.00626492
0.00318495
1.58985e-06
1.37376e-06
9.96046e-07
1.52017e-06
1.52095e-06
1.02484e-06
3.9807e-07
8.4242e-06
0.00154161
9.90161e-07
0.000237157
1.6165e-06
1.3718e-05
1.49264e-06
1.79522e-06
1.3725e-06
1.00631e-06
1.57576e-06
8.97863e-07
1.89158e-06
3.89784e-05
7.973e-07
1.60459e-06
1.2566e-06
7.24102e-07
0.000101195
1.59655e-06
2.23061e-06
0.00101323
6.35005e-07
5.0426e-07
7.29722e-07
5.53524e-07
1.24972e-06
1.42317e-06
1.49445e-06
1.41651e-06
2.77177e-05
1.59364e-06
1.25627e-06
9.46422e-07
1.76272e-06
1.35132e-06
4.95731e-07
1.18927e-06
5.56695e-07
4.92625e-07
7.3638e-07
7.14808e-07
7.02914e-07
2.21097e-05
6.96344e-05
4.94774e-07
1.00407e-06
5.79269e-07
6.24114e-07
7.66089e-07
1.1464e-06
2.3789e-06
8.92263e-07
5.00966e-07
5.74699e-07
8.71465e-07
1.41056e-06
4.97889e-07
6.25196e-07
1.22681e-06
1.97796e-06
1.45755e-06
0.00216166
1.05385e-06
1.43416e-06
3.04298e-06
1.16675e-06
1.12122e-06
2.5996e-05
7.40264e-05
2.0112e-06
4.89516e-07
1.22629e-06
9.91632e-07
7.18175e-07
3.27902e-06
2.17843e-06
4.77334e-06
1.63647e-06
1.60945e-06
1.92661e-06
4.40308e-07
7.65721e-07
2.38431e-06
1.34784e-06
8.7906e-07
1.2252e-06
1.56132e-06
1.399e-06
0.00518783
4.88882e-07
4.42396e-07
1.75012e-06
4.91794e-07
7.238e-07
7.78923e-07
5.46364e-07
1.22108e-06
1.44274e-06
7.88547e-07
1.00996e-06
1.49682e-06
4.67324e-06
0.00199467
8.46165e-07
1.56085e-06
9.04552e-07
3.39408e-06
1.1761e-06
1.35945e-06
0.00360055
1.57474e-06
7.90519e-05
1.53636e-06
7.22993e-07
1.29304e-06
1.40212e-06
1.58084e-06
1.55692e-06
5.11191e-06
1.41257e-06
7.20923e-07
1.02286e-06
1.75266e-06
9.92994e-07
9.31026e-07
1.25209e-06
1.26552e-06
0.000199096
1.13976e-06
1.4654e-06
1.2339e-06
1.94839e-06
0.000142527
1.55682e-06
1.07502e-06
1.44041e-06
1.41563e-06
8.46016e-07
0.00215947
0.00154761
6.80009e-07
1.08357e-06
1.02007e-06
2.46347e-06
1.28402e-06
9.60575e-07
6.33457e-07
0.00115118
1.0266e-06
1.55731e-06
1.85146e-06
1.39189e-06
2.59709e-06
1.50032e-06
1.48448e-06
1.20725e-06
1.39099e-06
1.36599e-06
1.63595e-06
1.40041e-06
1.57923e-06
9.85677e-07
1.73039e-06
8.3681e-07
1.39846e-06
1.0657e-06
1.24149e-06
1.20157e-06
1.3574e-06
5.99521e-07
5.04047e-07
6.37518e-07
1.03367e-06
2.05011e-06
7.22196e-07
0.00160195
1.22044e-06
1.6076e-06
1.08402e-06
1.04863e-06
4.71582e-07
1.44574e-06
0.0106989
0.00288228
1.73417e-06
1.27019e-06
1.26553e-06
0.000813769
0.00519937
0.0129412
1.21666e-06
4.86066e-07
1.47956e-06
1.20573e-06
1.21936e-06
1.22401e-06
4.6977e-07
1.3352e-06
1.73855e-06
0.00122048
4.40683e-07
1.18966e-06
1.53235e-06
1.01722e-06
0.00837961
0.000267225
1.62114e-06
1.50977e-06
7.64445e-07
4.22741e-07
0.00179656
1.2122e-06
1.55294e-06
7.81109e-07
7.4639e-07
1.19728e-06
1.8782e-06
0.000146104
6.65964e-07
1.93387e-06
1.34141e-06
1.29845e-06
9.83012e-07
1.19491e-06
1.22559e-05
1.02993e-06
6.69348e-07
0.00247152
1.41957e-06
8.08195e-08
1.52151e-06
5.99274e-07
0.00577418
4.15708e-07
1.45076e-06
0.00151181
1.25478e-06
7.86648e-07
7.38127e-07
5.99616e-07
0.000217719
6.69948e-07
1.05095e-06
2.3235e-06
5.2917e-07
1.0813e-06
1.53254e-06
1.19987e-06
1.70178e-06
1.20259e-06
9.54431e-07
1.83946e-06
1.2678e-06
4.15994e-07
9.73321e-07
1.39031e-06
0.000105202
1.41683e-06
9.55067e-07
5.30461e-07
4.75836e-05
4.83621e-07
7.30267e-07
5.15266e-07
8.91835e-07
7.8957e-07
1.20608e-06
0.00011982
1.4049e-06
6.83608e-07
1.44722e-06
1.31674e-06
1.1456e-06
5.29852e-07
1.36418e-06
9.5541e-07
1.18845e-06
1.35551e-06
1.37071e-06
8.45092e-07
0.000133411
0.0120313
9.36447e-07
7.88488e-07
1.49673e-06
0.000617133
1.39798e-06
8.45307e-07
5.45568e-07
9.41796e-07
7.50931e-07
1.36001e-06
6.71666e-07
1.46144e-06
6.60455e-07
8.30147e-07
1.50582e-06
1.46799e-06
1.43037e-06
0.00535195
1.21853e-06
7.2897e-07
7.285e-07
5.46105e-07
8.0541e-07
7.02882e-07
7.90277e-07
1.45343e-06
4.69504e-06
1.15119e-06
1.04012e-06
8.35373e-07
1.91375e-06
8.68885e-07
8.86153e-07
4.2701e-06
6.315e-07
1.61548e-06
6.62311e-07
1.47068e-06
1.1599e-06
6.31901e-07
1.09973e-06
4.27437e-07
1.12044e-06
1.43426e-06
1.36908e-06
5.24613e-07
4.16855e-07
1.48752e-06
3.31638e-06
6.98001e-07
1.35127e-06
8.6478e-05
9.89857e-07
1.50966e-06
1.38628e-06
0.000966452
1.06094e-06
7.45324e-07
8.02373e-07
1.31005e-06
1.30412e-06
1.6134e-06
1.62082e-06
7.63257e-07
1.31636e-06
1.2656e-06
1.11087e-06
5.21691e-07
0.00436358
8.40747e-07
7.8183e-07
1.5553e-06
2.24951e-05
1.38872e-06
1.03814e-06
0.00489331
1.06444e-06
4.50074e-07
1.57361e-06
1.1308e-06
1.47328e-06
9.39559e-07
7.90528e-05
1.73017e-06
7.62583e-07
0.000100121
1.45038e-06
1.02899e-06
0.00109709
0.0092805
5.14141e-07
6.64465e-07
1.22241e-06
1.34233e-06
1.2704e-06
0.000201617
9.4475e-07
1.57584e-06
4.74011e-07
0.000138917
1.25557e-06
1.18394e-05
1.13953e-06
1.50135e-06
1.27806e-06
2.09121e-05
1.10433e-06
9.04675e-07
1.30815e-06
9.58458e-07
1.20678e-06
1.02744e-06
1.45919e-06
8.75498e-07
8.31324e-07
9.31649e-05
1.65402e-06
5.25645e-07
1.0273e-06
9.8772e-07
1.89813e-06
9.78147e-07
1.57252e-06
7.01742e-07
1.26104e-06
1.29497e-06
9.88584e-07
7.63128e-07
0.000960342
6.48159e-07
8.31378e-07
0.000500015
5.32941e-07
6.51493e-07
6.5511e-07
1.59942e-06
1.30282e-06
1.0641e-05
1.08008e-06
1.07047e-06
1.1573e-06
1.20761e-06
1.49098e-06
1.1906e-06
5.42498e-07
1.44255e-06
0.00497382
1.06914e-06
1.1894e-06
1.0276e-06
7.04189e-06
1.51504e-06
1.50427e-06
1.75547e-06
0.00640799
3.20171e-06
6.29541e-07
4.76538e-07
2.79639e-05
1.44827e-06
1.55227e-06
1.3673e-06
6.68136e-07
1.46056e-06
1.4594e-06
1.16256e-06
1.63166e-06
6.65259e-07
4.67349e-07
1.80308e-06
1.25049e-06
8.5475e-07
1.22621e-05
2.0107e-06
1.57457e-06
1.60795e-06
5.97459e-06
1.44736e-06
0.000230126
1.5983e-06
2.51148e-06
1.4392e-06
4.51099e-07
5.85402e-05
1.36699e-06
0.000271413
1.50822e-06
1.34315e-06
1.15583e-06
6.4505e-07
1.50477e-06
1.59165e-06
5.69401e-06
3.25831e-06
0.0181942
6.48931e-05
1.10294e-06
1.55548e-06
8.21721e-07
9.6703e-07
4.9967e-07
7.16509e-07
1.20505e-06
0.0193369
1.83332e-06
6.57861e-07
1.21425e-06
2.28665e-06
0.00312187
1.0214e-06
1.04749e-06
5.54601e-07
1.35267e-06
7.13713e-07
1.4972e-06
4.65773e-06
5.1624e-07
4.74038e-07
1.59991e-06
9.17435e-07
1.43581e-06
2.53832e-06
3.46907e-06
9.67539e-07
1.27885e-06
1.51004e-06
1.42208e-06
1.51862e-06
9.87538e-07
3.99108e-05
8.21589e-07
1.36953e-06
1.22401e-06
2.34453e-05
1.44257e-06
0.000180898
0.0121158
1.58195e-06
1.7949e-06
7.60172e-07
1.35714e-06
9.26003e-07
1.44067e-06
7.50812e-07
1.36207e-06
4.67321e-07
6.63235e-07
7.5209e-07
1.26602e-06
4.42393e-07
9.54723e-07
6.67133e-07
0.00283124
0.000146595
9.20947e-07
0.000192912
9.70621e-07
5.39216e-07
8.03973e-07
9.42604e-05
2.00391e-06
1.30133e-06
1.51544e-06
1.15572e-06
6.61436e-07
4.96912e-05
7.35526e-07
1.39663e-06
4.27804e-07
2.01327e-06
4.79239e-07
4.76772e-07
1.487e-06
4.17604e-07
0.000149494
2.47039e-06
9.21472e-07
1.63582e-06
0.00584482
1.36548e-06
6.69121e-07
1.48961e-06
4.82165e-07
1.27197e-06
1.49772e-06
6.41976e-07
8.15851e-07
1.56927e-06
1.70343e-06
0.00228561
5.49897e-07
7.13055e-07
0.00019319
1.09999e-06
1.33511e-06
1.87058e-06
1.30571e-06
1.54817e-06
6.64065e-07
5.63095e-06
1.42618e-06
1.74852e-06
1.07503e-06
9.43532e-05
0.000133423
1.43094e-06
9.77574e-07
1.53563e-06
1.62617e-06
5.35742e-07
1.61698e-06
1.00501e-06
9.79665e-07
1.39422e-06
2.03143e-06
8.90214e-07
1.24593e-06
4.53842e-07
1.57926e-06
0.0020163
0.000176804
1.26577e-06
1.41195e-06
7.09466e-07
7.06692e-07
9.80101e-07
4.80498e-07
1.01278e-06
4.83434e-07
1.42631e-06
1.36531e-06
9.48922e-07
1.54075e-06
1.49864e-06
1.97913e-06
1.20171e-06
4.2286e-07
0.000142023
1.52123e-06
9.4556e-05
7.41798e-07
5.38575e-07
4.80951e-07
1.30731e-06
6.94421e-07
1.19569e-06
0.00641894
1.54854e-06
7.8604e-07
7.91392e-07
4.51816e-07
0.000705715
4.1297e-07
1.25746e-06
1.26441e-06
1.85094e-06
1.40054e-06
4.75059e-07
0.000330898
0.000371306
9.31608e-07
1.51294e-06
7.5802e-07
0.0152898
1.38995e-06
1.12607e-06
0.0055845
1.61116e-05
1.01554e-06
4.4622e-06
1.5732e-06
6.9559e-07
6.61455e-07
9.79398e-07
0.00106379
9.86381e-07
1.00476e-06
0.00307722
6.864e-07
1.23238e-06
5.52985e-07
1.33029e-06
8.6461e-07
2.12811e-06
1.31177e-06
1.2239e-06
1.91977e-06
1.2745e-06
1.37109e-06
1.42957e-06
6.49228e-07
1.5789e-06
7.74589e-07
1.58132e-06
9.34512e-07
1.55379e-06
7.18473e-07
0.00559714
1.98169e-06
1.69589e-06
1.95008e-06
1.34043e-06
1.72889e-06
8.22068e-07
1.48239e-06
1.14282e-06
7.18647e-07
1.55022e-06
1.08748e-06
9.94196e-07
1.58247e-06
6.93641e-05
9.03905e-07
1.53476e-06
5.70162e-07
1.35062e-06
8.83396e-07
1.2199e-06
1.19248e-06
9.48543e-07
0.000176762
4.76553e-07
0.00181544
1.43531e-06
9.72088e-07
1.0346e-06
1.4908e-06
1.3597e-06
6.86102e-07
6.90655e-07
0.00336028
7.31564e-07
0.00235185
5.5639e-06
0.000106038
1.72806e-06
0.00106273
1.03549e-06
4.64985e-07
1.36952e-06
6.60512e-07
6.24622e-07
1.82347e-06
1.15247e-06
1.0722e-06
1.39828e-06
1.51218e-06
1.42897e-06
7.75766e-07
1.10012e-06
9.77447e-07
7.315e-07
4.46335e-07
1.49097e-06
0.0185073
1.42474e-06
0.000159155
1.37313e-06
1.28611e-06
1.46976e-06
7.02461e-07
9.39507e-07
1.28537e-06
1.53002e-06
1.22984e-06
6.55062e-07
1.31372e-06
0.000564903
0.00728467
1.44808e-06
1.00176e-06
1.59581e-06
7.49758e-07
5.19481e-07
5.15617e-05
8.62722e-07
3.64854e-05
0.00573365
1.59462e-06
5.30877e-07
1.34098e-06
1.49247e-06
1.63408e-06
2.45604e-06
1.02169e-06
1.16438e-06
1.76322e-06
1.64756e-06
1.99869e-06
0.000166192
1.58608e-06
9.58489e-07
1.49209e-06
1.32098e-06
4.62621e-07
1.46654e-06
5.72401e-07
8.19871e-07
5.3731e-07
1.21605e-06
6.90068e-07
1.33739e-06
7.61972e-07
1.27481e-06
1.8679e-06
7.01311e-07
1.46246e-06
1.47135e-06
1.85643e-05
1.03298e-06
6.99729e-07
0.000265795
8.12265e-05
1.27802e-06
3.56519e-06
5.70705e-05
1.53089e-06
1.45184e-06
1.22903e-06
1.11778e-06
2.62154e-06
1.03792e-06
1.85977e-06
5.22237e-07
2.42666e-06
1.17748e-06
1.93881e-06
2.40976e-05
1.32991e-06
4.45783e-07
0.0182641
9.96266e-07
9.42441e-07
1.47821e-06
7.72282e-07
1.03935e-06
4.40173e-07
1.39202e-06
1.15402e-06
1.13589e-06
5.73662e-07
1.36762e-06
1.56581e-06
1.3814e-06
1.46457e-06
1.43417e-06
1.81794e-06
8.19685e-07
1.56661e-06
1.16197e-06
1.27733e-06
0.00196341
1.1432e-06
1.53798e-06
9.36889e-07
8.81296e-05
6.75272e-07
1.6856e-06
8.18046e-07
4.45463e-07
1.44764e-06
1.12083e-06
6.15786e-07
5.26161e-07
1.30684e-06
5.46957e-07
0.00344123
1.26284e-06
1.49791e-06
0.00242998
2.25404e-06
1.63829e-06
9.96236e-07
1.40831e-06
4.52806e-07
1.34547e-06
4.16105e-07
0.00286616
1.47814e-06
1.16811e-06
1.47125e-06
7.39793e-07
1.55027e-06
1.53925e-06
1.22123e-06
1.11571e-06
7.93643e-07
0.000250529
1.50831e-06
4.75109e-07
0.00154027
6.65858e-07
1.00052e-06
4.69815e-07
1.26699e-06
1.2724e-06
9.43828e-07
2.49344e-06
2.27505e-06
0.00263424
1.4846e-06
0.013112
1.40864e-06
6.15268e-07
0.00928643
1.53578e-06
1.44231e-06
1.41952e-06
6.71155e-07
7.57619e-07
1.45789e-06
0.0057339
1.23864e-06
6.30562e-07
1.48106e-06
1.61613e-06
1.20733e-06
2.16333e-06
5.6054e-07
1.196e-06
1.5071e-06
1.51349e-06
1.4287e-06
5.33688e-07
7.50601e-07
8.57908e-07
1.04036e-06
7.26291e-07
4.56728e-07
7.35653e-07
1.03095e-06
0.00239993
1.3462e-06
5.14703e-07
1.32402e-06
1.36694e-06
9.16055e-07
1.38113e-06
9.33135e-07
1.38446e-06
1.07949e-05
9.59294e-07
2.29267e-06
1.34589e-06
1.27395e-06
1.4931e-06
6.72486e-07
0.013071
1.44738e-06
1.38887e-06
1.43041e-06
0.000913454
1.28882e-06
1.09033e-06
5.22722e-07
1.65881e-06
1.10302e-06
1.47704e-06
7.30312e-07
7.47178e-07
1.33931e-06
1.35398e-06
7.83498e-07
1.60724e-06
1.28037e-06
6.79248e-07
1.30077e-06
7.45608e-07
7.31317e-07
0.012217
1.02848e-06
9.56451e-07
6.47134e-07
4.95053e-06
1.25305e-06
7.64883e-07
1.37096e-06
9.67827e-07
6.11765e-07
8.10423e-07
1.02931e-06
1.46488e-06
0.000196637
7.31529e-07
7.29023e-07
4.40991e-07
6.88799e-07
2.10809e-06
3.93475e-06
1.47737e-06
1.46598e-06
0.00727342
9.50137e-07
2.77641e-06
1.51692e-06
4.37997e-05
1.575e-06
0.00908271
7.56616e-07
7.76864e-07
7.82552e-07
1.44158e-06
1.11546e-06
1.61613e-06
1.21925e-06
1.48108e-06
1.71955e-06
7.18417e-07
1.5313e-06
1.01925e-06
1.42626e-06
1.56611e-06
7.90679e-07
1.03475e-06
1.62049e-06
6.57632e-07
8.12759e-07
1.53725e-06
1.32263e-06
6.33497e-07
5.62953e-05
1.02046e-06
7.35805e-07
9.6503e-06
1.65874e-06
0.00162602
0.00744446
1.39469e-06
1.90436e-06
3.48739e-06
0.000134033
1.35205e-06
1.22885e-06
1.77443e-06
0.00450153
1.40934e-06
1.62171e-06
4.01337e-05
2.01018e-06
7.4656e-07
6.08053e-06
1.61745e-06
0.000140671
9.75467e-07
1.10882e-06
5.17977e-07
1.8333e-06
1.33752e-06
1.59209e-06
0.00562576
1.31001e-06
5.49329e-07
1.44902e-06
9.61228e-07
1.70122e-06
7.68794e-07
1.42877e-06
5.1324e-07
0.00572249
1.40849e-06
1.42527e-06
1.21745e-06
1.06769e-06
2.07068e-05
1.53552e-06
8.99834e-07
7.90021e-07
4.16732e-07
1.75481e-06