/*--------------------------------*- C++ -*----------------------------------*\
| =========                 |                                                 |
| \\      /  F ield         | OpenFOAM: The Open Source CFD Toolbox           |
|  \\    /   O peration     | Version:  v2012                                 |
|   \\  /    A nd           | Website:  www.openfoam.com                      |
|    \\/     M anipulation  |                                                 |
\*---------------------------------------------------------------------------*/
FoamFile
{
    version     2.0;
    format      ascii;
    class       volScalarField;
    location    "200";
    object      p;
}
// * * * * * * * * * * * * * * * * * * * * * * * * * * * * * * * * * * * * * //

dimensions      [0 2 -2 0 0 0 0];


internalField   nonuniform List<scalar> 
34253
(
-0.000605606
-0.00179824
-0.00151605
-0.00051016
-7.64929e-05
-0.00110371
-0.0129585
0.00591371
-0.0540356
0.00197308
-0.0178706
0.00199088
-0.000626074
-0.0121086
-2.61685e-05
-0.00894041
-0.0236248
1.15991e-05
0.00761696
-0.0145651
0.0102393
-0.0209038
0.00194926
-0.000744048
-0.00243494
-0.0428049
0.00943682
-0.00898888
0.00373886
-0.00418712
-0.0023033
-0.0356393
-0.0420207
1.07302e-05
-0.0109204
-0.0284928
-0.00653499
-0.000245632
-0.00461597
-0.00466918
-0.000283136
-0.00280799
-0.000247356
-0.0173947
-0.000534009
-0.0181831
-0.100097
-0.000206029
-0.000209363
-0.00446217
0.0102602
-0.0100117
-0.00324114
-0.000292837
-0.00279319
-5.0194e-05
-0.00228841
-0.0189762
-0.010377
-0.0102718
-0.00231004
-0.0030641
-0.00122938
0.000775016
0.000607651
-0.00277963
-0.0193291
-0.00675204
-0.00912133
-7.27469e-05
-0.0011574
-0.00193204
-0.00322545
0.00631362
-2.70113e-05
-0.105219
-0.0996632
-0.0097707
-0.000199511
-0.0138503
-0.0329791
-0.0042332
-0.000201695
0.00524597
0.000462194
-0.00887198
0.0062076
-0.000134985
-0.0287967
-0.00184034
-0.00966732
-0.00465057
-0.00849739
-0.00236978
-0.0531583
0.00200538
-0.00201199
-0.00306729
0.000928694
-0.0546332
0.000128043
-0.0604711
-0.0144275
0.00178851
-0.0519579
0.000446178
-0.000502811
-0.00240247
-0.00281099
0.00135124
-0.00021414
-0.00480495
-0.00446008
-0.000574077
-0.00990804
0.000417796
-7.44584e-06
0.0052005
0.000234483
-0.000643694
-0.0512388
-0.00588313
-0.000777119
-0.056218
0.000119872
-0.00841741
-0.00487008
-0.00547991
-0.00573069
-0.0117282
-0.0131514
0.000494201
-0.000575015
-0.00158128
-0.0283244
-0.031448
-0.102915
-2.60413e-05
-0.00134664
-0.0928077
0.00732312
-0.096253
-0.0646794
-0.00271606
-0.000643378
-0.0335447
-0.0139212
-0.0101932
-0.000313862
-0.00131065
-0.0600557
-0.00896165
-0.0107091
-0.00807793
-0.0528613
-0.00181322
0.000575389
-0.0388319
-0.0895774
-0.00212238
0.00524404
-0.0002073
-0.051689
-0.00885972
-0.00780443
-0.0168693
-0.0101261
-6.65257e-05
0.000154513
-0.0120511
-0.0127736
-2.75634e-06
-0.00443504
-0.0972734
-0.0236268
0.00637302
-0.00159564
-0.000448772
0.00195703
0.00258417
-0.0672862
-0.00477004
-0.00419769
-0.00137444
-0.0285888
-0.0511655
-0.00852534
6.31198e-05
-0.00059008
-5.12784e-06
-0.00829692
-0.00181928
-0.0101857
-4.71303e-05
-6.30077e-06
-0.00420454
0.000777519
-0.0358198
-0.000253189
5.82366e-05
-0.0307907
-0.0340962
-0.0342371
-0.00184944
-0.000191587
-0.00659972
3.76044e-05
0.000111252
-0.00293193
-0.00611608
-4.0972e-06
-0.000664263
-0.0546399
0.00713778
-0.0203494
-0.00116062
-0.00184863
-0.0162328
-0.0537791
-0.00931902
-0.000480575
-0.0469602
-0.0205512
0.000808771
-0.0200846
-0.0040583
-0.00047523
-0.000230772
-5.61349e-05
-0.000697002
-0.0201371
-0.0973325
-0.0598137
0.000732093
-0.0217527
-0.00181164
-0.00188376
-0.0071549
-0.000863899
-0.0432817
-0.102241
-6.2924e-05
0.00818585
-0.0315854
-0.102656
-0.0766893
-0.00021206
-0.000400045
-0.0122392
-0.00912325
-0.00324815
-0.00771803
-0.00381402
-0.000910603
-0.0087528
-0.00817869
0.00793587
-0.0221846
-0.0396131
-1.47631e-05
-0.0449419
-0.000527226
-0.000197106
0.00656837
-0.00963753
-0.00892646
-1.53759e-05
-0.0144298
-0.00922507
-0.00516716
-0.0204372
-0.0158064
0.00099021
-0.00396195
-0.00831369
-0.00162405
-0.00112072
-0.0177166
-0.0660124
-0.000402467
-3.382e-06
-0.000843881
-0.00225365
-0.0217855
-0.0238261
-0.00804887
0.00443222
-0.00154879
-0.0969938
-0.000266654
-4.45715e-05
-0.00225013
-0.0339989
-0.00922834
-0.00437789
-0.000134593
-0.00155563
6.29321e-05
0.00977139
0.000840857
-0.00162005
-0.000198271
-0.0358925
-0.0197057
-0.0046812
-0.00020316
-0.00183235
-4.54307e-06
-0.00943046
-0.00995523
-0.00884218
-0.00180311
-0.00519291
-0.00110933
-0.00168441
-0.027134
-0.00212426
-0.00591902
-0.0963537
-0.0209247
-0.0330046
-0.0347222
-0.00194975
-0.0197318
-0.0940219
-0.000120034
-0.0335227
-0.000193188
-0.00400012
-0.0213613
-0.00300282
-0.0193265
-0.0464385
-0.052465
-0.00170816
-0.0352879
-0.00964902
-0.000199478
-0.00271981
-0.00192563
-0.0365627
-0.111932
-0.0710342
-6.81136e-05
5.44161e-05
-0.00205536
-0.00207839
-0.000200522
-0.00164883
0.00641807
-0.00229818
-2.44918e-06
-0.0391562
-0.000595729
-0.105993
-0.00604304
0.000225271
-0.0496067
0.000611945
-0.00290312
0.00580782
0.00101121
-0.00397534
-0.000741553
-0.00228169
1.51374e-05
-0.00160986
-0.107588
-0.0203489
-0.00033472
-0.0531211
-0.0096187
-0.00183182
-0.0657668
-0.0405222
0.000934919
-0.00287902
0.00342679
0.00125508
0.00786263
0.00171926
-0.00142334
-0.0540169
-0.0040039
-0.000357273
-0.00102587
-0.000202063
-0.0354609
-0.0017964
-0.00018339
-0.000600733
-0.000545851
-0.00273447
-0.0392004
-0.000234221
-0.00278008
-2.4772e-05
-0.000202827
-0.00558926
-0.00545427
-0.000193344
0.0055975
-0.00372757
-0.00375033
-0.00912845
-0.00144522
-0.0770551
-0.0273521
-0.0494941
-0.0901636
-8.83761e-05
-0.0045049
-0.089709
-0.00337329
-0.0351137
-0.0595146
-0.0607259
-0.00679854
-0.114142
0.00887988
-0.00991895
-0.00188051
-0.000612431
-0.00296869
6.06945e-05
0.00212538
-0.0576465
-0.0440334
0.00570992
-0.0153283
-0.0541944
-0.000247406
-0.000773154
-0.0512422
-6.72696e-05
-0.0110165
0.00809841
-0.00514746
-0.0439145
-0.0140678
-0.000300062
-0.00376316
-0.000491257
-0.0147384
-0.00294701
-0.0800347
-0.0943658
-0.00075653
-0.00186969
-0.029015
-6.04892e-05
-8.99086e-06
-0.00455495
-4.78125e-06
-0.00024342
-0.0221664
-0.0136195
-0.00418401
-0.000945863
-0.00216307
-0.0145373
-0.00931535
-0.0850894
-0.000302092
-0.00145759
-4.71125e-05
-0.00338303
-0.000534361
-0.0896
-0.00103517
-0.0212963
-0.00190566
-8.49187e-05
-0.0148252
-0.00572638
-0.0458548
-0.00015813
-0.0195842
-0.000645525
-0.00473641
-0.00739356
-0.0603025
-0.000618658
-0.0125153
-0.0420258
0.000302097
-0.00187399
-0.0202768
-0.00571998
-0.00363485
-0.000946375
-0.0151176
-0.0012565
-4.73811e-05
-0.0151147
-0.000217421
-0.0056436
-0.000795964
-5.10254e-05
-0.00307566
-0.00365146
-4.59341e-05
-1.87421e-06
0.000607868
7.92891e-06
0.000539064
-0.00404037
-0.000989877
0.00245668
-6.30983e-05
9.91018e-05
-0.00894095
-0.00330054
-0.0115963
-0.00228622
-1.08565e-05
-0.000187036
-6.4676e-05
-0.0342704
-0.00955336
-1.56371e-05
-0.0358201
-0.0485159
-0.00208968
-0.0138289
-0.00156141
-0.00231482
-0.0326834
-0.00248266
0.00421053
-0.015123
0.000203228
-0.00455421
-0.000523971
-0.00251764
-0.00819164
-0.00146512
-7.78068e-05
-0.00607625
-0.00154412
-0.00136664
-0.00730959
-0.00216376
-0.00206234
-0.00101685
-0.0276049
-0.00439197
-0.000272884
-0.0225668
-0.00100659
-0.00155221
-0.0431974
-0.00600349
-0.00909018
-0.00836039
-0.000292185
-0.115488
-0.00696849
-0.0428787
-0.000765269
-0.000773721
-0.0270209
-0.00354666
-0.00102571
-0.00414063
-0.00481594
0.00166811
-0.0018121
0.00123645
-0.00285285
-0.0156177
-0.0484087
-0.000386979
-0.000764399
-0.000617434
0.00522364
0.00108127
0.00204037
-0.0325994
-0.00106587
0.00180999
-0.0454634
-0.00716236
-0.043146
-9.14745e-05
-4.87347e-05
-0.0577637
-0.000788811
-0.00116678
-0.0428384
-0.113657
-0.0435935
-0.0433165
0.0077994
0.00504947
-0.00425565
-0.000221596
-0.00449863
-0.0284128
-0.00216018
-0.000744403
-0.000506817
3.99844e-08
0.00874961
0.00220451
-0.0016241
-0.0292836
-0.00865614
-0.000277831
4.55769e-05
-0.00270545
-0.0297253
-2.42685e-05
-0.0522794
-0.0546937
-0.0249309
-0.000856955
-0.00258247
-0.00239893
-0.000498641
-0.00903727
-0.00844074
-0.111059
-0.0684964
-0.0751675
-0.069764
-0.0392083
-0.000276205
-0.00932244
-0.000977345
-0.00035049
-0.109994
0.00423363
-0.00214472
-5.23592e-06
0.00556451
-0.0036202
-0.00421322
-0.0532153
-0.033953
-0.00338339
-0.0131362
-0.00439853
-0.00220863
-0.000202313
-0.0642276
-0.00163317
-0.000326085
-0.028605
-0.00457714
0.00489632
-1.98312e-05
-0.0507698
-0.0171156
-0.0011454
0.000188917
-0.00139824
-0.0287373
-0.00571499
-0.00025568
-0.00300864
-0.0141501
-7.4302e-05
-0.0872066
-0.00673967
-0.00124828
0.00138489
-0.000422769
-0.00439444
-0.00208552
-0.00289545
-0.0257258
-0.000317843
-0.000652048
-0.0670136
0.00405831
-0.0823551
-0.0566844
0.00403415
-0.0392164
-6.79591e-05
-0.00420435
-0.0153442
-0.00117193
-0.00205517
-0.00058906
6.0579e-05
-0.000946366
6.54696e-05
-0.0987431
-0.0039117
-0.000276983
-0.0064756
-0.048743
0.000739223
-0.0321009
-0.00203615
-4.65623e-05
-0.0054036
-0.00139595
-0.0170471
-0.0100719
-0.0721005
0.00328338
-0.00940937
-0.00277194
-0.000259357
-6.54895e-05
-0.00217101
-0.000441809
-0.00201755
-0.112331
-0.0649443
-0.00121694
-0.0125562
-0.00104469
-0.0567582
0.00804422
-0.000360369
-0.00656761
-0.0249521
-0.00563952
-0.000201836
-0.000583917
0.00817528
-0.000431271
-0.11616
-0.00015539
-0.046587
-0.00357835
-0.00167944
0.00826054
0.00214168
-0.0154136
-0.0362327
-0.00501569
-0.00266696
-0.00113706
-0.00151272
-0.000635459
-0.0133827
-0.000245483
-0.000156847
-0.00854704
8.13833e-05
-5.43852e-05
-0.000284526
-5.74668e-05
-0.0085873
0.000267292
-0.000734649
-0.00107967
0.00162981
-0.00765542
-0.000141144
-0.0100943
-0.00642771
0.000376716
-3.59842e-05
-0.0054014
-0.0873462
-0.00442948
-0.00974591
-0.00789691
-0.0278014
-0.00101049
-0.00583243
-0.000760611
-0.00462319
-0.0759375
0.000341749
-0.000378993
-9.69736e-05
-0.00131539
0.000411485
-0.00496284
-0.0105318
-0.00783635
-0.00389776
-0.0026104
-0.000534888
0.00522156
-0.0217423
-0.000578095
-0.0168668
-0.00133197
-0.000572882
-0.00581737
-8.18947e-05
-0.0301954
-0.00030029
-0.00610665
-0.00759834
-0.0362529
-0.00171136
0.00306981
-0.0229466
-0.115709
-0.079784
-0.0214764
-0.0729502
-0.00583594
-0.000221064
-0.0241749
-0.0204718
-0.000528962
-0.0321034
-0.00290779
-0.0185865
0.00345499
-0.00402357
-2.30689e-06
-0.0697347
-0.0552485
-0.017316
-0.000198522
-0.00876009
-0.0100507
-0.00794743
-0.00236835
-0.000306495
-0.000970475
-0.000613602
-0.00491947
-0.000602537
-0.00854205
-0.000636065
-0.00675136
-6.50957e-05
0.000673655
-0.000653152
-0.000896039
-0.0295172
-0.0655812
0.00310706
-7.68499e-05
-0.000187207
-0.00105412
-0.000661175
-0.0276515
0.00289227
-2.30546e-06
-0.0336519
-0.0183444
-0.000189432
-0.0680312
-0.00257331
-0.000367944
0.000381328
-0.0372797
-5.66486e-06
-0.0288926
-0.00676375
-0.00122902
-0.0204879
-0.0333035
-0.017183
-0.0025358
-0.00382269
-0.00725332
-0.0160577
-0.00447301
-0.0159981
-0.0825234
-0.0968218
-0.000232981
-0.000274926
-0.00433381
-0.0610273
-0.0871141
-0.00123445
-0.00266302
0.00222602
-0.00766865
-0.0730046
-0.000639046
-0.000958603
-0.000560781
-0.000564048
0.00157365
-0.00743384
-0.00545104
0.000808577
-0.00803855
-0.00904415
-0.0283133
-0.00246536
-0.0086847
-0.000518024
0.000535034
-0.112371
-0.0709238
-0.116991
-0.000257719
-0.00344327
-0.000600318
0.004434
-0.000891
-1.51768e-05
-0.00162982
-0.0281469
-0.00447179
-0.0946893
-0.00678569
-0.110726
-0.0838939
-0.00355157
-0.00541463
-0.000291336
-0.00464925
-0.00131772
-0.00198252
-0.0347611
-0.0026004
-0.00196278
-0.0848891
0.0036489
-0.000842986
-0.000302926
-0.000181827
-0.00016198
-0.00650761
-0.0842582
-0.00240729
-0.00435092
-0.0169458
0.0038359
-0.0165175
-0.0349033
-0.000670302
-0.0349349
-0.00687394
-0.00313575
-0.00213223
-0.0395386
-6.3383e-05
0.00783615
-0.0759373
-0.000131434
-0.0721464
-0.000524715
-0.00954865
-0.0165778
0.000405027
-0.0529379
5.75412e-05
0.00341795
-0.0736735
-0.0025632
0.00732608
-0.0309179
-0.00860888
-0.000417996
-0.00825792
-0.0973063
-0.000270854
-0.000184761
-0.00169545
0.00437715
-0.00700207
-0.00858387
-0.0813318
-0.0111664
-0.00672197
-0.000136195
-6.85152e-05
-0.00110286
0.0048857
-0.000137452
-0.00344297
-0.00813556
9.92238e-06
-0.000577621
-0.0139827
-0.00237777
-0.0201375
-0.00841073
-0.0475608
-0.000354122
-0.000963008
0.000533045
0.000136125
0.000351296
-0.00165331
0.00425504
-0.00575219
-0.00650428
-0.0068635
-0.0195364
-0.00545326
-0.0882165
-0.0221977
-0.000554219
-0.000618949
-0.0160679
-0.00275813
-0.0335128
0.000487136
-0.0290916
-0.0080922
-0.0046565
-0.00463075
0.000166333
-0.00783632
-0.00846907
0.00452415
-0.00560903
2.00827e-06
3.32893e-05
-4.02791e-05
0.00610208
-9.94584e-05
-0.014499
-0.00191139
-0.00162252
-0.000907922
-0.00947351
-0.000247843
-0.00822615
-0.00280086
7.7241e-06
-0.00133544
-0.00102545
0.0072939
-0.00296368
-7.22863e-05
-0.00189757
0.00499163
0.00420889
-0.000983218
-0.000109797
-0.0942956
-0.00507072
-0.0011819
-0.0192828
-0.0130461
-0.0533524
-0.000247115
-0.00486795
-0.000608382
-0.00515209
-0.0669258
-0.0004047
-0.00190174
-0.00183425
0.00921136
-0.0204478
-0.116857
-0.0011359
-4.40873e-05
-0.00809426
-0.00561012
-0.000277479
-5.82824e-05
-0.00238707
-0.000108183
-6.1569e-05
-0.000245667
-0.00100647
-0.000585314
-0.110771
-0.000107691
-0.00421429
-5.87384e-05
0.00505533
-0.000298522
-0.000490046
-0.107335
-0.00054026
-0.0103269
-0.00322099
-7.99786e-05
-0.0120829
-0.0342782
0.0044184
-0.000258396
-0.0157502
0.000898287
-0.000765877
-0.034117
0.00122179
-0.00142354
-0.0306196
-0.000751638
-0.00117384
-0.0993175
-0.00902875
-2.90774e-05
-0.00937773
-0.108698
-0.00033852
-2.21533e-05
-0.000232464
-0.000160065
0.00507723
-0.000499667
-0.013367
-0.0506515
-1.12237e-05
-0.00898107
-0.000914855
-0.0901451
-0.00378553
-0.00119189
-0.020543
-0.000532382
-0.0153862
-0.0584523
-0.00578179
-0.0388062
-0.000731028
-0.0819429
-0.00283648
-0.00407148
-0.00857776
-0.00401673
-0.0851726
-0.000267319
-0.00401175
-0.0406237
-0.000185173
-0.00220487
-0.00249635
-0.0258049
-0.0337022
-0.000327427
-0.0158878
-0.0122488
-0.0042412
-0.000188806
-0.115333
-0.00297294
-0.0780201
-0.00162279
-0.0826781
-0.0305199
-0.000720443
-0.0128671
-0.00476832
-0.00235273
-0.000340564
-0.0162353
-0.000443224
-4.3084e-05
-0.000165853
0.000741495
-0.00933391
-0.00848152
-0.0388799
-0.011386
-0.0151174
-0.0295811
-4.41613e-05
-0.0267256
-0.00188728
-0.000663261
0.00945533
-0.001484
0.00296367
-0.0364848
-0.0009534
-0.0343564
-0.00553852
-0.029581
-0.00873287
-0.0150038
-0.00138718
-0.00243499
-0.00233725
0.00497567
-0.0359044
-0.00192154
-0.0508141
-0.00117795
-0.106763
-0.000430147
-0.0163015
-0.000432177
-3.87106e-07
-0.0011354
0.00933295
-0.00545049
-0.0272776
-1.34954e-06
-0.000608013
-0.00892844
-0.00185991
-0.000312674
-0.0121026
-0.00381808
-0.00121624
-6.5461e-05
-0.0131906
-0.0139091
0.000815716
-0.00369009
-0.000294075
-0.0140924
-0.00752719
3.90611e-05
-0.00528159
-0.00141949
-0.00527303
-0.00523573
-0.00950126
-0.000792286
-0.0161136
0.00304843
-0.00435058
-0.00772415
0.0039015
-0.000244433
-0.000356405
-0.00011366
-0.0196346
-0.0302824
-0.0132628
-0.0121298
-0.0662989
-0.111656
-0.00286046
-0.000562306
0.00164448
0.00204488
-0.0606845
-0.00427533
-0.117322
-0.0335043
0.0044282
-6.63685e-05
-9.20283e-05
0.00262956
-0.0935585
-0.00982012
-0.00826045
-0.0257313
0.000783028
-0.013965
-0.000237963
-0.00758634
-0.0147641
-0.0288891
-0.00582619
-0.00246307
-0.000232889
-0.000651991
-0.000332039
-0.000290233
-0.0059088
-0.00861021
-0.0198807
-0.033032
-0.00973349
-0.0854881
-0.000758692
-0.000296173
-9.43706e-05
-0.00111053
-0.0222935
-0.000351319
-0.00407045
-0.009276
-0.000114281
-0.00045021
-0.0262065
-0.00176155
-0.0293959
3.01203e-05
-0.0122788
0.00165296
-0.000233813
-0.00774071
-0.000182832
0.00069717
-0.00555811
-0.00421115
-1.62178e-07
-0.000346227
-0.0729468
-0.00129139
0.000323537
-0.0366741
-0.00107006
-0.0343788
0.000734787
0.00254692
-0.00088202
-0.00356348
0.00211411
-0.00922259
-0.0644086
-0.0306773
-0.00768301
-0.00698633
-0.000454779
-0.0155886
-0.00283642
0.000191596
-0.0431246
-0.00121535
-0.00402256
-0.00074832
-0.00285273
-0.00764894
-0.00415205
-0.000567654
-0.00690259
-0.017832
0.00230945
-0.00857659
0.00157463
-0.0157921
-0.000877646
-0.0377854
-0.0856751
-0.095567
-0.00223849
0.00115255
-0.0146845
-0.00170502
-0.00500422
-0.00536621
-0.00839353
-0.0493716
0.00326028
-0.00222457
0.00385152
-0.00272686
-0.00163472
-0.00527835
-0.0380673
0.00116388
-0.00438408
0.00478818
0.000423506
-0.00848322
-0.0201012
-0.00266658
-2.2321e-05
-0.0987277
-0.00142669
-0.00954498
-0.00376891
-0.00221055
-0.000565523
-0.117623
-0.00221664
-0.000330363
-0.00836198
-0.000245738
-0.00569728
-0.0591704
-0.0904948
-0.00861232
-0.0195401
-0.00262741
-0.00239077
-0.00672839
-0.00388992
0.00528391
0.000173773
-0.00091096
-0.00286685
-0.011834
-0.00390693
-0.0664711
-0.00406442
-4.85833e-05
-0.00778699
0.00174424
-0.00283518
-0.0410217
-0.00704283
-0.00976225
-0.00343011
-0.00041992
-0.0163535
-0.0265743
-0.0010679
-0.00453442
-0.00276399
-0.00926329
-0.004677
-0.0023578
-0.00444259
-0.000985615
-0.0051306
0.00852653
-0.00604648
-0.00371734
-0.0016739
-0.00529832
-0.00459401
-0.0606244
-0.00947653
-0.0252664
0.00447115
-0.0018496
-0.0262486
-0.00389877
-0.011192
-0.0745598
0.000370569
-0.000893539
0.00158752
-0.00581808
-0.00371382
-0.0154299
-1.15679e-05
0.0011308
-0.00831443
-0.0209362
-0.00356778
-0.0864076
0.000868083
-0.012266
0.000590903
0.00270229
-1.93042e-06
-0.000958878
0.00130009
-0.0342457
-0.00437138
0.00587329
-0.00156024
-0.000293836
-0.0131615
0.00185081
-0.000946693
-0.000876976
7.51517e-06
-0.00696408
-0.0457338
-0.0701513
-0.000156476
-0.00363573
-0.000190935
-0.000178558
-0.000733894
0.00504893
-0.0260004
0.00285912
-0.00211922
-0.0404347
-0.0840358
-0.0274551
-0.00813308
0.000802448
-0.00110753
-0.0170453
0.00166414
-1.80274e-05
-0.000849125
-0.00383206
0.000432198
-0.00380373
-1.34307e-05
0.00312791
-0.00159048
-0.00139043
-0.0491826
0.000211998
-0.00406891
0.000447242
-0.0040576
-0.000211685
-0.00020903
-0.00118382
-0.0193115
-0.000543018
-0.110944
-0.000160193
-0.0591945
-0.00691239
-0.000842486
-0.00256583
-0.00441153
0.00148628
-0.000509674
-0.105838
-0.111795
-0.000565211
0.00561659
0.00230107
-0.117004
0.00258947
0.000829648
0.00392186
-0.0143476
-0.106255
-0.000666521
-0.00868655
-4.23584e-06
-0.0137156
-0.000667919
-0.0171478
-0.00233497
-0.0140064
-0.010992
-0.0819111
-0.0953394
0.00199008
-0.0004979
-0.0914246
-0.0122322
-0.0781079
-0.00395677
-0.00160189
-0.0427979
-0.0275575
-0.0174444
0.000571779
0.000391594
-0.000498689
-0.0417485
0.000500947
-0.000711511
-5.57113e-05
-0.00401033
-0.038136
-0.00014405
-3.49859e-05
-0.108654
-0.00709804
-0.00843121
-0.0121041
0.00248287
0.00760021
-0.0928074
-0.00295446
-0.00356928
-0.00248264
-2.8608e-05
-0.00974774
-0.0071786
0.0016031
-0.0881149
-0.00532682
-0.00100547
-0.0034348
0.00460237
-0.0123125
0.00502646
-3.29763e-05
-0.0271869
0.00241215
-0.00602727
0.00453986
-1.24215e-05
-0.00090908
-0.00426215
-0.0171528
-0.0430791
-0.019472
-4.75373e-05
-0.111176
-0.00130084
-0.0084561
-0.00235436
-0.0185631
0.000215285
-0.000109421
-0.00251989
-0.00686118
-5.68532e-05
-0.0692904
-0.0354856
0.00453316
-0.00421857
-0.000680001
-0.00784567
-0.00713699
-0.000792175
-0.00429558
-0.00120996
0.00197451
-0.036394
0.00123043
0.00132575
0.00574215
-0.0207324
-0.00891031
-0.00184112
-7.02091e-05
0.00433466
-0.00438156
-7.55814e-05
-0.000890196
0.000307975
-0.000932871
-0.00311474
-0.0842842
0.0024639
-0.0423157
-0.0190873
-1.76851e-05
-0.0350217
-0.00565783
-0.00270748
-0.0146543
-0.000279814
-0.00185281
-0.00704688
-0.00127583
-0.000801955
0.00117555
-0.000776348
0.00529623
-0.00718765
-0.000271664
-0.00886676
-0.0223112
-0.00348336
-0.000880258
-0.0514881
-0.0839364
0.00470802
-0.0356514
0.00474062
0.00217678
-0.0170603
-0.010154
0.000316486
-0.000160232
-7.35865e-05
-0.00114028
0.00465911
-0.000160549
-2.04024e-05
-0.100685
-0.00245759
-0.0911268
-0.00684019
-0.0982688
-0.00593556
-0.00190001
-0.000127389
-9.14884e-05
-0.0227698
-0.000714697
-0.0344911
-0.00309187
-0.00319179
-0.00555951
-0.0198971
-0.000252594
-0.0058995
-0.0258636
-0.0240284
-0.000904556
-0.00855484
-0.00909196
-0.0237395
-0.000633313
-0.0487339
-0.086757
-7.68239e-05
-0.00237279
4.42826e-05
-0.014374
-0.0935204
-0.0297364
0.00445006
-0.0579055
-0.00347815
0.00107359
-0.0246008
0.00671771
3.05305e-05
-0.000713491
-1.7215e-06
0.001308
-0.00340367
-0.00327309
0.000232377
0.00769193
-0.000891951
-0.00659025
-0.00357413
-0.000198241
-0.0119792
-0.0146884
-0.0982295
-7.76996e-05
0.00326392
-0.018334
5.12272e-05
2.20224e-05
0.00203271
-0.0071598
-0.000916239
-0.00714222
-0.00833973
-0.012977
-0.00372387
-0.00859877
-0.00701643
-0.0897047
-0.0169551
0.00107866
-2.37454e-05
-0.000401335
-0.000252409
-0.027184
-0.00178153
-0.000344629
-5.23799e-05
-0.017303
4.6608e-05
-0.0197403
0.00547747
-1.7733e-05
-0.0789608
-0.117663
-0.000386095
-0.00334248
-0.00306217
-0.000288715
-0.0367596
-0.000330999
-0.00362686
-0.00359899
-3.21034e-05
-0.00573729
-0.00883132
-0.00901839
0.0021417
3.35302e-05
-0.00012698
-0.000757713
-0.00959111
-0.0169823
-0.000600362
-0.00362151
-2.76524e-06
-0.00141013
-6.2536e-05
-0.000350169
-0.00667628
-0.0179577
-0.0414256
-0.0196505
-0.019741
-0.000152644
0.00285632
-0.0291053
-0.00252402
-0.00854927
-4.13287e-05
0.00459815
-0.00651256
-0.0284398
-0.0124844
-0.00213977
-0.0027863
-0.000198042
0.000381681
-0.0609296
-0.108286
-0.00269233
-0.00194198
-0.0186508
-0.0866089
-0.00188127
-0.00948452
-0.00132349
-0.000154935
-0.00459544
-0.000590512
-0.0421363
-0.0227135
-0.0159111
-0.0272778
-0.00822881
-0.00746953
-0.00898662
-0.00177569
-0.0949863
0.00122683
-0.0341205
-0.00164525
-0.000133557
-0.0021853
-0.00523347
-0.00583963
-0.00191316
-0.0098712
0.000116882
-0.000130775
-0.000134463
-0.000131376
-0.000782608
-0.000951501
-0.00887501
0.001993
-0.00739205
-0.0165885
-0.062015
-0.0253095
-0.000199314
-0.0448233
-0.0115569
-0.00058082
-0.0151398
-0.0101026
-0.000181229
1.01197e-05
-0.0877478
-0.0112548
-0.00184369
-0.000897756
-0.00197314
-0.0388985
-0.000179422
0.00330456
-0.00611347
-0.0104901
-0.0816751
-0.0108997
-0.00628461
-0.0217466
-0.00270897
-0.0536852
-0.0106973
2.09743e-06
-0.0105718
-0.00793338
-0.00879341
-0.00464611
-0.000298173
-1.39093e-05
-0.001215
-0.000753066
1.5959e-05
-0.000333423
0.00442045
-0.00160977
-0.00626148
-0.0093815
-2.53679e-05
-0.00480444
-0.000311501
-0.000161744
-0.00358331
0.00322897
-0.00170924
-0.0825395
-0.000754199
-1.13957e-06
-0.000475302
-0.0144126
-0.00248141
-0.027791
-0.00236837
-0.00113977
0.00111015
-0.0010767
-0.00075892
0.000899048
-0.00173425
-0.00175552
-0.000478498
-0.00237862
0.000940663
-0.000340016
-0.00123386
0.000829712
-0.00363866
0.00411577
-0.0243897
-0.00227433
-0.0113032
-0.00164983
0.00608511
-0.00192641
-0.0378141
-0.0308858
-0.000186858
-0.00071384
-0.111734
-0.0016262
-0.000534769
-0.000568384
-0.00141578
-0.000758938
-0.0197807
-0.0160565
-0.0109417
0.00457734
-7.2377e-05
-0.0195812
-0.0325509
-0.0114099
-0.00361418
-0.0360958
-0.0891004
-0.0455568
-0.000218347
-0.0255363
-0.00139099
-0.00866867
-0.000421259
0.000836475
-0.00532491
-0.051369
-0.00850826
-0.000729088
-0.00165974
-0.00575499
0.00626924
-0.0319841
-0.0531804
-0.00727649
-0.00321596
-9.42139e-05
-0.00614897
4.35857e-05
-6.56754e-05
0.00267628
-0.0422721
0.00878306
0.00341854
-0.117153
0.000332126
-0.00371692
-0.0274795
-0.00315553
0.000207232
-0.00244346
-0.000183953
-0.000532436
-0.0516532
-0.000227902
-0.00291166
0.00392902
-0.000632067
-0.00437682
-0.000881248
-0.00299326
-0.0532388
-0.0878964
-0.0604911
-0.0774548
-0.000796533
-0.0198485
-0.0200226
-0.0363523
-0.0146641
-0.0114693
-0.0532943
-0.000111544
-0.000244263
-0.0134779
-0.00921237
-0.0482618
-0.0112867
0.00105712
-0.00110387
-0.00137912
-0.00870063
0.000668682
-0.00392546
-0.109304
-0.0437148
-0.0047321
-0.000793337
0.000846923
-0.00447493
-0.000551775
-0.00895991
-0.00316648
-0.0191789
-0.00356379
-0.0526029
-0.00697918
-0.000636613
-0.00883498
-2.18317e-05
-0.108521
-0.0772441
-0.0118421
-0.0153658
-0.10123
-0.0354456
-0.000332903
-0.00184119
-0.00198516
-0.0138596
0.00480708
-0.0100631
-0.00221193
-0.0367495
-0.0208335
0.00281774
-0.00480665
-0.0449042
-0.0674589
-0.0157671
-0.117628
-4.936e-05
-0.00270934
0.00803179
-0.110619
-0.000158687
0.00359693
-0.000139445
-0.0162322
-0.0097367
-0.0100201
-0.00229424
-0.00385347
-0.00929265
-0.0115921
-0.00415669
-0.00476256
-0.00140153
9.42964e-06
-0.022682
0.00569684
-0.00138374
-0.00224885
-0.0119847
-0.0262451
-0.0003473
-0.000116674
-0.00878639
-0.00537907
-0.000782172
0.0030189
-0.0085644
-0.000116246
-0.00288599
-0.0125054
0.00333401
-0.0349873
-7.65619e-05
-2.21899e-05
-0.0142277
-0.0157542
-0.000105389
0.00834823
-6.56558e-05
-0.000232712
0.000297613
0.00315656
-0.000220077
0.00953542
-0.00804126
-0.000893989
-0.00136864
6.08953e-05
-0.00158314
-0.0109903
-0.0699187
0.00240951
-0.00156435
-0.00710186
-5.08146e-05
-0.000579764
-0.108671
-0.0674422
-5.09862e-05
-0.00434262
-0.000773951
-0.105744
-0.00240905
0.000639968
-0.00026407
-0.0511737
-0.000768529
-0.0125248
-0.0484809
-0.000355647
-3.32078e-05
-0.0026862
-0.00112219
-0.00745842
-0.107552
-0.0633799
-0.011221
0.00219662
-0.0109995
-0.00980114
-4.80428e-05
-0.00076848
-0.0134865
-0.0133308
-0.00851829
-0.0143627
-0.00481291
0.000674988
-0.000560458
0.00120737
-0.00859674
-0.103568
-0.00263837
3.33143e-05
-0.0192506
-0.101466
-0.00138256
-0.0505382
-0.000564874
-0.020897
-0.0415323
-0.00746952
-0.00462944
-0.0772743
-0.00426064
0.00516889
-0.000129611
-0.0103543
5.59703e-05
0.00450867
0.000396724
-0.000128023
-0.0015888
-0.00426394
-0.00306884
0.00700582
-0.0026483
-0.00958377
4.48868e-05
-0.0393909
-0.0250915
-0.000116766
-0.00271312
-0.0175231
-0.00733633
0.00362188
-0.000661581
-0.0758494
-0.00717879
0.00143416
0.00279089
-0.000414554
-0.00319276
-6.13594e-05
-0.000140141
0.00077444
0.0042103
-0.000190715
-2.67916e-05
-0.00903094
-0.0945296
-0.00879129
-0.0346748
-0.00019972
-0.00185087
-0.0221256
-0.00115751
-0.0380676
-0.00166968
-0.00969166
-0.000566145
-0.00740503
-0.0328415
-0.000189116
-0.0120742
-0.00512752
-0.0111235
-0.0011435
1.48335e-05
-0.00164368
0.00275921
-0.000271661
-0.000583157
-0.0517961
-0.00925189
-0.000337811
-0.00711283
0.00401581
-0.00183654
0.00726739
-0.0329303
-0.000283251
-0.0112691
-0.00325468
-0.000431019
-0.00864636
0.00189918
0.0020826
0.00120319
0.00208174
-0.0637922
-0.00513212
-0.00897027
-0.00156941
-0.00122389
-0.0528955
-0.00670752
-0.0683964
-7.90006e-06
-0.00358388
-0.0103159
-0.0034329
-0.0864957
0.000129341
-0.010051
-0.00136052
-0.00645157
0.00165194
0.00249592
0.00290077
-0.109027
-0.00258564
-0.00259736
-0.0152955
0.000356169
-0.000269986
-0.0299915
-0.0179354
-0.00371289
-0.00196046
-0.0057283
-0.000140979
-0.0608097
-0.005173
1.39145e-06
-0.00346924
0.00165248
-1.12358e-05
6.73984e-05
-0.00163652
-0.00112456
-0.00766732
-5.84893e-05
-0.0864981
-0.00598381
-0.0140636
-0.0170006
0.000485814
-0.00573936
-0.000569037
-0.000401994
-0.00068859
-0.0025037
0.000606403
-0.00430658
-0.0033283
-6.31391e-05
0.00442981
-0.000181098
0.00136091
-0.0208945
-8.80215e-05
0.00944804
-0.0523786
-0.00846408
-0.00085703
-0.0218532
-0.00191605
-0.0100572
-0.000424474
-0.00173223
6.96031e-05
-0.0183344
-0.0766992
0.000953893
-0.03409
-0.00443766
-0.00436199
-0.011463
-0.0624984
9.07696e-06
0.0014322
-0.0948521
-0.00135967
-0.000259888
-0.0219603
-0.00126547
-0.0120196
-6.05812e-05
-0.00102202
-0.000221459
-0.051919
-0.0151835
-0.0159445
0.000678737
-0.0121728
-0.0151676
-0.00597348
-0.00802316
0.00191664
-0.00410638
-0.030574
-0.00387733
-0.00857275
-0.0230635
-0.00152163
-0.000103157
-0.00110698
-0.00133197
-0.00191182
6.28769e-05
0.0052128
0.000864174
-0.00636021
0.00028641
0.00144347
-0.000105323
-0.002088
-0.0906139
-0.000302102
-0.000583132
-0.00430672
0.00057154
0.000748433
-0.0948217
-0.00353377
-0.000104966
-5.35163e-05
-0.000140868
0.00398164
0.00808501
-0.000365826
-0.00349279
-0.00638884
-0.00122957
-0.00112842
-0.024026
-0.0600513
-0.00913533
0.000119385
-0.00516557
0.00947892
0.00108192
0.00081085
-0.0856468
0.000932521
-0.00835987
-0.000681713
-2.67257e-05
-0.00833011
0.00434243
-0.000293932
-0.00805925
0.00254958
-0.0550924
0.0013982
0.000596361
-0.00651851
0.00252731
7.32363e-05
-0.00223762
-0.00150833
-0.000839436
-0.0117558
-0.00665358
-0.00809183
-0.00113457
-0.0100081
0.00126397
-0.00803855
-0.00931683
0.00294425
-6.02022e-05
-0.00657009
-0.037364
-0.000949168
-0.0497034
-0.00754208
-0.00169693
0.00233577
0.00157975
-0.0027952
-0.00325637
-0.0532431
-0.0194226
-0.00116168
-0.000144423
-0.0112798
-0.0313157
-0.00903487
-0.00162412
2.12217e-05
-0.0452641
-0.0408618
-0.000674475
-0.0513857
-0.00856298
-0.000742589
-0.00231771
-0.00192096
-0.0190152
-0.0776834
-0.0456428
-0.00118109
0.00149772
-0.00153283
0.00547027
-0.000154404
-0.00522571
-0.0647316
0.00348865
-0.00191083
-0.0110587
-0.00250109
-0.000250085
-0.115599
0.0002058
-0.046084
-0.00165257
-0.0286303
-0.0526892
-0.0131506
-0.00156752
-0.00035144
-0.0052535
-0.0180119
-0.0541736
-0.00115812
-2.65085e-05
-0.0273083
-0.0141282
-9.93328e-05
-0.0820634
-0.064977
0.00491564
-0.0251635
-9.82333e-05
-0.0932894
0.00779915
-0.0149214
-0.0238636
-0.000897089
-0.0115362
-0.0107973
-0.00659079
-0.018045
-0.00489481
-0.00117081
-0.0160092
2.24354e-05
0.000550036
-0.112552
-0.000238985
-0.000402015
-3.53325e-05
-0.0489784
-0.0214868
-0.0107168
-0.000453861
-0.109598
-0.0483664
-2.07133e-05
-0.0880377
-0.0277806
-0.000381886
-6.59914e-05
0.00024347
0.000402158
-0.00829859
0.00888619
4.67795e-05
-0.0830998
-0.00535469
-0.00121924
-0.0148503
0.00107521
0.00661176
-6.35989e-05
-0.00986964
-0.0335244
-0.00232984
-0.000958656
-0.000382032
-0.000414427
0.00549938
-0.00127587
-0.0395136
-0.00157754
-0.0195891
-0.000544962
0.00200292
-0.000193945
0.000868714
-0.0642967
7.38172e-05
-0.0779487
-0.000100636
-0.110773
-0.05273
-0.00211398
-0.100776
-0.000105479
-3.56362e-05
-0.0856983
-0.00366007
-0.0130355