/*--------------------------------*- C++ -*----------------------------------*\
| =========                 |                                                 |
| \\      /  F ield         | OpenFOAM: The Open Source CFD Toolbox           |
|  \\    /   O peration     | Version:  v2012                                 |
|   \\  /    A nd           | Website:  www.openfoam.com                      |
|    \\/     M anipulation  |                                                 |
\*---------------------------------------------------------------------------*/
FoamFile
{
    version     2.0;
    format      ascii;
    class       volScalarField;
    location    "50";
    object      omega;
}
// * * * * * * * * * * * * * * * * * * * * * * * * * * * * * * * * * * * * * //

dimensions      [0 0 -1 0 0 0 0];


internalField   nonuniform List<scalar> 
18598
(
0.0502762
0.26652
0.0222927
0.0669845
0.0216236
0.0340368
0.0410867
0.0221602
0.248997
4.32552
0.0219327
8.69654
0.0215114
7.49958
0.0221347
0.0856972
6.42842
0.0333524
0.0234987
8.45195
0.0219281
0.021738
9.09615
0.0217275
0.0216168
6.53792
0.296688
0.0219896
0.295203
0.0484566
1.45203
0.0221672
0.0227158
0.0684576
0.040786
0.209233
0.0216508
0.0219297
0.021618
8.49188
0.110618
0.395666
0.180704
8.42294
0.0251322
0.0223483
0.0216313
0.530115
0.0215603
0.0216192
0.0217919
2.16415
0.131992
0.128943
0.0217344
0.0218249
0.0219887
0.022139
0.021524
0.0332179
9.29754
0.255401
0.0219914
0.0217216
0.182943
2.22622
0.021526
0.0226885
1.85202
0.0215736
0.025646
0.0411203
0.807104
0.133627
0.0220767
0.10388
0.0221009
0.021822
0.0533664
0.0256417
9.21755
0.0224066
0.0219771
6.48247
0.0226601
1.79441
0.0215809
6.5948
0.0219651
0.0290331
0.0252751
0.12125
0.0251305
0.0936182
17.5172
0.0217515
6.50678
0.0219148
8.60531
0.0720326
0.0219701
0.0221298
0.0287117
0.0348676
0.0505127
0.022984
0.0761483
5.83782
0.0219807
0.182546
0.0320662
6.47911
0.0221139
0.0286404
0.126062
0.0224061
8.99292
0.0332358
0.0279449
0.0216545
7.74545
0.0217096
0.0217839
0.0325174
7.27867
0.0239647
0.0239799
0.0508408
0.210104
0.0216093
0.0215074
0.0599593
8.37435
0.024815
1.35052
0.0217951
0.0654595
0.0219835
0.0216291
0.0803772
0.294422
0.0218309
0.0219809
9.5603
0.0218901
0.0230486
0.665382
0.119023
0.0219058
0.0316825
0.022957
0.0278894
0.0218583
7.95951
0.0217449
0.0218934
8.44549
0.0240915
0.0215053
0.0269906
0.0584063
0.0930871
0.0215692
0.0215807
0.0216103
7.52115
0.25447
0.022172
0.0521542
0.0566084
0.022071
0.0412942
7.55739
0.140531
0.0253534
0.0217343
6.89698
0.0224483
0.0264094
6.83903
0.0547725
0.36896
0.0572582
0.022698
8.88247
0.0315232
4.82036
6.98045
0.0220148
0.145777
0.0223081
0.0217
0.0586954
5.13804
0.028476
0.0216666
8.73278
8.93681
0.0573976
0.183529
4.44058
0.0218177
0.0394489
0.0222846
0.0245958
9.17527
0.403813
0.0218625
0.0239445
0.0239637
0.0519821
6.09019
0.021712
0.0687955
0.108461
0.0296155
0.105803
0.021902
0.0221284
0.0613564
0.021474
0.0219177
0.0230365
0.0220225
0.0385375
0.0218942
0.0217834
0.0219203
9.72698
0.0215754
8.28202
6.44927
0.0219113
0.0219459
0.250741
10.0293
0.0226237
0.0318408
0.0217128
0.0249941
0.0240544
0.0507531
9.60964
0.0215207
0.088913
0.0226806
0.0404026
0.0218311
0.0310205
0.0216699
7.98793
0.279308
6.54947
8.43649
0.0431134
9.04716
0.0379519
6.06701
0.0220012
6.37717
0.0263148
0.0522649
4.04619
14.0336
0.706794
0.022389
0.0214713
3.77307
0.102879
0.02478
0.021693
0.02194
0.0501888
0.0218283
31.6733
10.4792
8.72166
6.58027
0.108756
0.0537914
0.0496973
26.0918
0.0233873
28.9105
7.46467
0.0308824
0.0976444
0.0786646
0.0216796
4.77986
0.0978314
0.342829
6.95063
0.346547
9.33475
0.0335339
0.021522
0.252728
0.039136
0.0530129
10.9109
4.28475
0.039583
7.04309
0.0251425
0.0805393
6.88777
0.0321843
7.20128
0.298602
16.8105
0.0239089
0.270794
5.68348
0.0573169
0.0471779
0.0672235
0.0239822
0.0220053
4.50626
0.0226105
8.51129
0.0218666
0.0244035
0.0229901
7.29208
0.0221054
0.0823487
0.0292544
0.0225953
0.0242627
0.0225885
21.2644
7.05791
0.0216823
0.100982
0.0232365
6.65997
0.10643
0.0222866
0.0479524
0.243502
0.124409
5.22119
0.0220772
6.84065
6.47439
4.38631
0.264826
7.00743
0.0240979
0.0276759
0.0291241
0.100045
0.112725
0.0218887
0.0557884
8.17136
0.0949861
0.0216703
0.0219741
5.65257
0.0220709
0.0216867
0.0215085
0.0217378
34.8503
4.08044
0.0564199
6.26616
0.0470519
0.513513
0.0248724
8.38185
0.0221292
0.308403
6.89241
0.0229309
0.0219799
8.74012
8.16731
0.0220603
0.031949
0.0569495
0.0254974
1.78344
0.0219401
0.0222703
0.0214842
0.031154
0.241184
0.026219
0.0218518
0.0220585
19.6182
0.0220305
0.0243179
0.0219784
0.187783
0.023119
0.0254262
0.0219886
0.0216586
0.0222641
10.8455
6.45135
0.739078
7.29178
5.84558
0.0548458
0.0220549
6.86746
0.0219785
0.0260372
0.085467
0.0352494
0.0425636
0.0275019
19.8808
0.0280516
0.0224655
0.0218973
0.0220831
1.91632
0.0239768
0.0248584
0.0241182
0.0229063
0.0445181
1.84605
0.0217065
0.401724
0.0222645
0.177205
0.0747104
1.95632
0.0215083
0.0220643
0.121641
0.021857
18.8539
8.65696
0.0221623
0.0218553
0.02205
1.7028
6.51428
6.88901
0.0265186
0.37738
0.0215102
6.59173
11.3599
0.0222759
3.26461
0.0267764
0.0229956
0.0220612
0.0248096
0.0220572
0.252411
0.0221683
0.0222637
6.2406
0.0974647
0.0219441
0.369716
0.0219934
9.02518
0.0237614
0.0217277
0.0218996
0.0216841
22.467
0.0218979
0.0216661
0.0508117
0.025041
3.7288
0.0713
0.021501
8.1198
0.0949405
0.0368645
0.022169
0.0228993
0.0221299
0.022131
0.0286461
0.0219029
0.0233168
0.107816
0.0340512
0.111979
1.49874
0.025046
0.0821097
0.091451
8.79457
0.0217486
8.41453
0.136568
0.0220702
4.05727
0.0227141
0.0218943
7.1295
0.0221332
0.0219508
6.11598
0.0368318
0.0240741
0.0230226
0.0216549
0.0320904
0.0218213
0.0222303
6.57905
9.37065
0.0222737
0.0223623
6.1575
0.0250252
0.0223229
0.0239497
3.293
0.022759
0.0218881
3.08564
7.07493
0.0216175
0.102826
0.021941
0.0229596
0.229815
8.43658
0.252805
0.0217265
0.0218973
0.692562
0.022821
0.421095
0.022977
0.0218508
0.0220344
6.73125
0.0220451
0.114305
0.0215464
0.4288
4.38715
19.3874
0.264951
0.0219092
2.57134
0.0223814
6.35007
8.38806
0.0215716
0.0222691
2.78255
0.0690936
0.029398
0.0269118
0.0217513
9.68644
0.021924
3.66851
0.0220847
0.0243686
0.0217221
0.149129
0.0219814
0.0460173
9.50512
9.63801
0.0218975
0.0504182
0.0219004
0.0237952
0.171252
0.112264
7.75545
0.0215011
27.9272
7.44312
0.0218065
0.224345
0.0219869
6.50748
0.269538
0.0228828
9.59982
0.022061
0.112701
5.0814
0.0552453
0.0217698
0.0221542
0.0220945
0.025354
0.0216321
0.0254163
0.0221233
0.0216804
7.57492
0.0217565
0.047271
0.0222752
0.021807
9.281
6.77859
0.605949
0.0217563
9.49264
0.0218296
0.0239314
0.021749
0.0223446
10.6712
6.25222
0.0218575
0.0216967
0.0665963
0.0215491
0.0224584
0.155286
0.0219807
0.0221729
0.0215535
0.0219774
0.0237496
0.0219146
0.258797
0.022936
0.021922
0.0532588
0.0227729
9.77978
0.390898
0.0227505
0.0220636
0.0238557
0.0591953
0.02189
0.0397111
0.0214831
0.0222724
5.07394
8.6494
0.0219337
0.0221151
0.0227781
0.0217093
0.0238057
7.99532
5.64274
0.199377
0.0273827
0.141981
0.0221925
0.0524965
0.0276887
0.091204
0.037159
5.72818
0.0218903
0.0220264
8.30474
0.0218635
0.0215917
6.56269
0.021668
6.56798
0.0233074
0.0222499
0.0215892
0.0220572
0.192279
11.0827
0.049632
0.0217675
0.0227024
0.0219922
0.0424401
7.29809
0.0236099
0.741
0.0221652
0.0218968
0.0223605
0.022014
0.0217056
0.0428223
0.0220259
0.346856
8.01046
0.0693653
0.0222815
0.0214901
0.0222778
0.0624132
0.0219863
7.57326
0.0315456
0.0227359
0.0581975
0.0698933
11.66
0.021665
6.87294
0.0221141
8.89859
0.0243123
4.5184
0.0414892
3.99945
0.0287129
0.0222675
0.0312213
0.0292849
0.0219808
5.45646
8.6094
0.0277281
0.0235795
0.0217086
0.19427
0.0221327
0.0216808
0.404509
0.0227618
0.197
4.15402
0.0216718
0.25463
0.022159
0.0220364
0.425904
0.0639944
0.0222697
0.244335
0.0221203
0.0503102
0.66145
6.71607
6.37562
7.62993
7.3363
0.0347126
0.220087
0.0220912
0.0302063
2.38339
17.8266
0.0275597
0.0484098
5.02476
6.86311
19.6814
0.70747
4.26447
0.0219307
0.0219251
0.0746057
0.02187
10.4028
0.0404159
0.0223849
0.345026
0.0342087
0.0225
0.0228613
0.0216748
0.0222712
0.0218234
0.190623
0.0261106
0.0218442
6.70532
0.0219874
0.0528435
0.0566863
2.23816
0.0222869
4.62168
0.0223083
0.0216573
0.0234888
8.5781
0.0415195
0.0218516
0.0220394
0.0222717
0.0497349
0.0220082
12.4383
0.146785
4.65371
10.6587
0.0223007
0.135408
0.294473
0.0219525
0.0229628
0.0219083
0.022061
13.7961
0.0221177
0.0216283
0.0245476
0.0787777
0.0223023
6.1649
2.45896
0.032742
0.026917
0.0217862
0.0219885
0.882019
0.0222763
0.0227034
0.022591
0.0220102
0.0215615
0.0220282
15.4123
9.20896
0.0220463
0.0226057
0.280801
5.94142
0.0214913
0.0216985
0.0218362
0.0283201
4.71911
0.253798
0.0853332
7.69933
0.0219057
0.0528948
0.0219815
0.0281836
0.0247381
0.978085
2.73449
0.0218978
5.07473
0.0216978
0.0229358
0.0304852
0.021896
0.0218144
0.0541284
0.0485859
0.0217944
0.0573296
7.47816
0.250365
0.22102
0.0770333
0.0220487
0.0219198
0.0216317
0.0220327
8.7693
8.51086
0.0780146
0.0247366
0.0219767
0.20612
0.0221143
6.61392
0.0220239
0.0217802
0.287576
0.0216438
0.028376
0.201196
0.0217799
0.022264
0.0218558
0.0243911
0.146006
11.349
4.24608
0.0216443
0.0248429
0.0220359
3.38985
0.164518
0.02158
0.0234826
0.0220237
0.0257812
0.0710757
0.021654
9.68989
0.090813
0.0222692
6.92357
0.105544
0.0219242
7.57785
0.0221114
0.0215664
6.386
1.3973
0.0240709
0.394618
0.0216942
0.471597
0.0221633
0.021745
0.0224277
0.0215142
0.0258908
0.0218289
0.0290724
0.0216538
0.810273
0.377532
0.0925995
0.021977
1.97246
0.0759224
0.0977709
0.0221193
0.0223255
0.715555
0.0218249
0.0217074
0.0435286
0.132897
0.0215373
0.0259074
0.0219765
0.039571
6.78418
0.0220609
0.0216558
0.0216277
0.0860108
0.0218931
0.0222421
0.022238
0.111797
0.0218534
0.0217506
0.0218341
0.0378203
0.0223077
0.0219839
0.456859
0.0219502
9.6623
0.0233195
0.0219787
11.179
0.4714
0.056955
8.96543
0.0215342
6.89832
0.021663
3.96386
0.0545791
0.0220567
0.0232453
0.751899
0.884209
0.137755
0.0220865
9.55838
0.0228475
0.0326992
0.319146
0.0493581
0.0214748
0.0215934
0.0239618
0.0222408
0.0219125
0.0225987
0.443333
0.0547694
0.0877589
0.248537
0.0301435
4.80155
9.20539
0.0221581
12.4081
0.0489766
0.0223402
0.402046
10.7977
14.5481
9.79208
0.0418828
0.0281062
0.0216239
0.0279673
0.0222517
0.167446
0.289359
0.0228509
0.0223936
0.0665274
0.0228464
0.111092
0.0220504
0.0216605
0.0219041
0.0219046
0.192196
8.82164
5.46692
0.0223673
0.0221881
0.0462411
0.0215827
0.0214472
0.021999
0.0216326
3.35579
0.0275964
0.0220955
0.152041
0.0228675
10.0341
10.9994
0.0218728
0.249293
0.0288373
0.0237471
0.0214523
0.0480797
0.0221803
5.13327
5.57506
0.0217546
8.71528
0.0388674
0.0321681
7.03575
0.0219384
0.0217748
0.0216608
0.0381721
0.0447407
0.0230308
2.20417
0.0241184
0.0221395
0.857928
0.0230921
0.33698
0.0219226
0.0224307
4.2479
0.052426
0.0267337
9.10639
0.0387181
0.023592
6.66531
0.021473
6.61193
0.0218526
6.4176
0.021799
6.72207
0.0228885
9.32613
0.0219532
10.1128
0.0217199
9.40736
0.0222213
0.0219054
0.037796
0.0219583
0.0708473
0.431239
0.0219344
8.98297
0.0395007
5.38752
0.0218303
0.0258833
0.0218296
0.0428118
7.11535
0.0219423
0.77503
7.82221
8.07713
0.0216312
6.84857
0.02269
0.0219093
0.021931
5.33148
0.045686
0.0216216
0.365417
0.871141
0.022052
4.53369
8.96411
0.0399831
0.0222577
0.047535
8.89685
0.158878
0.0497431
0.0368674
0.0226314
0.0221028
0.0233198
0.139223
0.0222618
0.02203
0.0219282
0.0218167
0.0219776
0.0219175
7.90227
17.4817
0.0216485
7.58597
0.0475432
0.74809
0.0217172
0.0254111
0.0485182
0.0405798
0.0352113
0.356997
0.0222862
0.021924
0.022309
0.0221843
0.0219012
0.0227394
0.597703
0.396446
0.112427
0.0217652
0.0222445
0.0217076
0.0221748
0.0217842
10.3057
0.382601
9.9835
0.0220513
0.0217827
0.0238433
6.39628
0.0229952
7.40113
0.0219554
0.480534
6.48417
0.0229752
0.0219308
0.0218255
0.0221989
0.0449909
0.0381434
0.02493
0.0363271
0.346123
0.952909
0.130798
0.0251779
0.0254328
0.304694
0.021953
0.673384
4.35633
0.0225882
0.0474669
0.0271163
0.021825
0.0221942
0.0468316
0.02169
0.0309456
0.0222401
8.8437
0.0219354
0.0297114
0.0257519
5.41271
0.0728952
17.2517
0.0216395
0.0214597
0.0221152
9.17519
0.0216251
0.0219201
0.0292204
0.0338418
0.0592016
0.0981723
0.120428
6.25492
0.0215539
0.0221529
0.0217838
0.0479608
0.0219518
0.110868
0.022261
0.0215518
0.0993145
0.0398031
0.0217749
0.0409612
0.0495236
1.03673
0.021629
2.50513
0.0216478
5.78959
0.0228343
11.8689
0.14323
0.0586527
0.0218124
0.0277434
30.4355
0.0284735
0.0220865
0.117745
42.2147
5.91425
0.0216276
5.59285
0.119958
0.361066
0.123732
8.11977
6.81658
0.0216754
0.0220608
0.0218373
0.0219045
0.0223581
0.0219749
0.0232508
0.0218424
0.0219784
3.11795
0.139777
0.0216068
0.286479
0.0217847
0.407921
0.0219943
0.477979
0.0219825
0.0218343
0.0476408
0.0230259
0.411988
0.0229885
0.0216631
0.0218943
20.803
0.0222767
0.0222582
0.180775
6.04975
4.1708
0.0216383
0.0259072
0.0646852
0.021838
0.0218608
0.0224893
0.0215086
0.022059
2.22085
0.442898
0.063384
0.0219465
0.0223441
0.0222707
0.0222848
7.79365
0.0471014
0.0217699
0.0217845
12.5397
0.0832495
0.0220367
0.128811
0.0269568
0.530081
0.0227802
0.049941
0.0470134
0.0867681
6.96461
0.0218895
0.0663891
0.0488236
0.021933
0.0218041
0.0219765
0.0223148
0.0219077
6.37599
0.0248926
0.0408124
4.20273
28.401
0.357196
0.0236454
0.0218962
0.0221804
0.0221178
0.0219442
0.0227963
0.0303416
0.0222853
0.0222226
0.0222769
6.86438
6.78097
0.0430939
0.100647
0.0216751
0.0238328
8.39418
0.0224324
0.0285889
8.0091
0.314323
0.661297
0.0283078
0.0217503
0.0216779
6.61727
0.0242783
0.0219927
0.0398943
0.167892
0.0215194
0.269467
0.292651
0.0218074
8.27495
0.0244754
8.80599
0.339989
0.0540985
0.0224254
0.0270918
0.0867688
0.0219236
0.0218591
0.0220374
0.0220511
0.09267
0.101627
6.8713
0.021709
0.0730978
0.0221483
0.0385241
0.422183
0.0220311
6.8565
0.0771639
0.0219622
0.0240414
0.0935513
0.0222869
0.0222958
0.0745173
0.0217957
0.021624
4.72254
0.0390573
0.0288819
0.0244567
0.0216818
0.104318
0.085629
0.0424009
0.0750768
0.021542
0.0647953
5.84548
6.66099
0.0252102
9.31721
0.0220023
0.735131
18.7499
0.192833
0.0223677
0.0223418
0.0219896
0.021956
0.240321
0.062215
0.0971257
0.0217972
0.0928161
0.021503
0.0218655
6.897
9.95836
0.500246
0.0219992
5.71707
0.0216102
0.0667642
0.0218758
0.105528
0.0217126
0.0219993
8.08878
0.0698112
0.0221103
1.42535
0.0596848
6.42496
0.0224072
4.24856
0.0799835
0.0220439
0.0218802
0.29255
0.0236056
0.02192
0.292304
0.0260596
0.0544753
44.6718
0.0218343
0.11456
0.803003
0.0219791
0.0216717
0.254236
0.0218762
0.0270959
6.76319
0.117803
0.0219599
9.56167
0.0219806
0.0219825
2.49865
0.02197
0.0444892
0.0408089
0.0218797
0.0217951
0.021831
0.144865
0.502267
0.0217859
0.0221029
0.022269
0.0376702
0.0225444
6.79445
0.0221217
0.0219026
0.160998
0.041441
0.0963997
0.0519409
0.0229436
0.0446709
0.0226178
0.0336968
0.0217095
0.0409753
0.562609
0.0220561
0.0221521
0.021981
0.0219564
9.29367
3.38421
0.0228598
0.0217073
0.022005
0.022346
0.0230762
15.1984
7.81252
0.0219279
0.0918476
0.022442
0.0411821
0.0221935
0.0220248
0.0733519
0.347633
0.0795436
0.0220148
0.0222592
0.0347723
0.0217631
7.52374
0.0216132
0.0970126
0.0954537
0.025455
0.210159
0.021947
0.270226
0.0218788
0.0493374
0.0220197
0.0219295
0.0373784
0.0222711
0.0417216
0.0343981
12.8494
10.8538
9.64503
0.0217074
0.0219165
0.0221495
0.0283149
0.0276403
0.0234771
0.0218671
0.0218328
8.34511
0.0219497
0.0444268
0.0408784
16.5983
8.64996
0.0228444
0.0380157
6.80813
1.0141
0.0218445
8.96939
8.62501
0.0234376
8.76799
0.0218356
0.0221336
0.173106
0.0310955
0.0216684
22.9155
0.0299006
0.099853
0.021617
4.63009
0.0418864
0.104533
9.59655
0.159059
0.589485
0.0221456
0.0227945
0.0337054
0.0218425
0.128262
0.0218964
0.0218647
9.86168
0.021667
3.93775
12.699
0.0219599
0.0219422
0.0396101
19.529
0.0337106
0.0219568
0.0224418
0.0328823
0.0299914
7.23447
0.0265447
0.0224493
8.93392
12.1163
0.175434
0.0507684
0.0256992
7.49238
6.72314
0.0216219
11.9507
0.421255
6.94236
0.0251085
0.0220157
0.0221516
0.0218112
0.021916
0.659558
0.021971
0.130052
0.0219583
0.0216737
0.0244369
0.022068
6.59248
0.0485204
0.0222487
0.0220073
0.0216985
0.0256766
0.0645517
0.0221512
0.0267745
0.0218605
0.0221919
0.0295833
13.2958
0.0218331
7.914
0.0236719
5.29329
0.0255343
6.92397
0.0215897
0.0220025
0.0225952
0.0216157
5.34815
0.0216111
0.0340392
0.0222753
0.0490685
0.0916049
0.148436
0.0233924
0.0221984
0.0563926
0.0221169
0.0217228
0.0218366
0.0221052
0.0219392
0.0945228
0.0663701
0.0216156
0.0218615
0.0663485
0.194392
0.0218562
0.0243998
3.00926
3.43259
0.0739604
0.0224814
0.104214
0.0222814
0.0218094
0.0496754
0.0219176
6.89871
0.0379351
0.0217174
0.0218567
0.0687566
8.23292
0.103799
0.0220572
0.0220672
0.0220787
8.15531
0.102679
0.0229813
0.0676119
0.731442
0.270892
0.0221988
0.0661258
7.8221
5.4528
11.2058
0.270864
0.0221693
0.0221493
6.8247
17.2196
0.0216033
0.0916327
6.20177
8.92642
0.0218763
8.54632
0.0219939
1.51341
0.0219226
0.175808
0.0221629
0.0221866
18.5492
0.0218664
0.0240734
0.770592
0.0219709
0.119106
0.0219449
0.065788
0.0220656
7.07443
0.0215726
0.0277087
0.0223727
9.18301
7.99929
0.0222768
0.0315991
6.43137
0.021735
0.0238312
6.61369
0.0224426
0.0219453
0.0220397
0.0220528
0.19326
0.0269127
0.0218836
0.0220041
0.0444581
0.0220571
6.45827
0.0246606
0.0237508
0.0368543
0.0222708
0.0219559
0.0219756
0.0223806
0.0220636
0.0220893
7.84328
6.16035
10.2294
0.021857
7.10188
0.0294314
5.39636
6.46515
21.218
0.0216435
0.0218089
0.0219787
0.0217048
5.54624
0.021829
0.179515
0.0222914
0.113102
0.0217204
0.0217317
4.11542
0.0217362
0.0501833
14.0725
9.1972
0.021842
0.0239883
0.026268
0.158183
0.0226084
0.0970889
1.3493
0.0231278
0.79684
0.021739
0.0371126
0.0219043
6.48017
0.0259819
0.0647915
6.19554
0.0253344
0.0220138
0.0255248
0.0222622
0.0219397
5.77706
0.0254054
0.0237276
0.0222763
0.0218445
0.0754383
10.5492
0.0327153
6.89413
0.299403
0.035799
10.9248
0.0222894
0.0221458
0.0218056
0.0217629
0.0239353
0.138089
0.0214903
6.99779
0.0777039
0.151277
7.02499
0.630616
0.0395698
0.285139
0.0222356
0.119638
6.5823
0.033017
7.66046
0.654425
7.94566
0.419716
3.33068
0.237014
0.0366659
0.0220638
0.499664
0.110751
0.0218143
0.0484225
0.0261605
0.0659112
7.94796
0.0282417
0.0221696
0.0218035
0.120783
7.10066
0.0227058
0.0222155
0.0330768
0.251037
0.0218634
0.998837
0.0218432
0.0228343
0.0465212
0.0220637
0.0219545
0.022142
7.11942
0.0218323
4.538
0.045465
0.0221669
0.0599932
0.0222117
0.0217821
0.430184
6.28006
0.0216617
0.0221212
0.594074
0.150127
0.0220983
0.0220084
0.0259599
0.0482878
28.4309
0.0363717
0.0253844
0.0214367
5.85072
4.19368
0.0219508
0.1779
2.60535
0.0223843
6.97028
5.83244
9.67564
0.0220805
0.0662332
0.0229348
0.0215679
0.235304
4.02559
0.065801
0.0220529
6.09203
0.0215963
0.0218492
0.263386
0.0219921
0.174201
0.0219321
0.0222531
10.4935
0.270155
0.0214639
0.0218189
0.0219882
0.24402
8.07968
0.269363
0.277446
0.0223637
0.0228444
0.0218323
0.0221279
21.8851
8.74912
9.13983
0.0786109
0.17534
0.02177
0.0244917
0.0300612
0.0236822
0.0221408
0.0287092
0.0219295
0.0220636
0.0219236
0.0221268
0.0218138
8.52037
0.0221486
0.0218387
0.146407
0.0252544
0.0503413
0.0218455
0.0757213
0.0219336
0.0231022
0.0222525
0.0216366
6.58642
4.59151
0.0266404
8.5234
0.28621
0.0219289
0.0282618
0.0218553
0.0224009
0.026867
0.0230032
0.0219586
0.0703607
16.6145
6.68857
0.160404
0.0218194
0.021791
0.0271536
0.0265335
0.0695132
0.0222973
4.71327
0.305561
0.0217363
0.0245021
5.86075
0.0217597
0.301888
6.23788
10.5417
0.0263586
7.46516
4.06075
0.386265
0.0215693
0.0220581
0.0217409
0.0218548
8.01496
6.71779
0.159806
0.045589
0.0216337
0.0216901
0.0220174
6.56437
0.0217671
0.0218633
6.36171
9.50788
0.0226432
0.0219917
0.0221145
0.24218
0.0217229
0.0252929
0.022923
0.0220143
0.0219762
0.280493
0.022029
0.0216067
0.0221643
6.73419
0.0268565
0.155196
0.0370041
0.0218603
16.546
0.0222224
16.8229
0.0221679
0.936018
0.0219886
0.0218308
0.0218365
0.0246788
0.0429172
0.0219749
0.0215857
0.022147
8.74209
0.0234568
0.327571
0.0309454
0.0218603
0.279758
0.0252832
0.0216425
0.0220886
0.0850389
0.0221856
2.0079
0.0220245
0.0222793
0.0902988
9.85449
0.0364133
0.0225167
0.0332014
0.0225713
0.0219664
0.0474435
0.0219308
0.0445338
0.0216942
6.25977
4.93464
0.0394251
0.0219767
0.0215208
11.4206
0.0218349
0.028285
0.0341907
42.9418
6.651
0.0369767
9.29152
0.0219951
0.0218517
9.71457
0.264275
0.0219631
0.106284
0.0223365
0.0222127
0.0222744
0.139952
0.0219309
0.0375061
0.393476
7.33697
0.0217103
0.028261
0.295422
0.0220426
0.0256441
0.0236658
0.0222541
7.44254
0.149717
0.0223283
0.224845
0.0248343
0.892333
0.250959
0.0218014
0.0220729
0.0399727
0.0225273
5.43294
0.250536
0.0222547
0.0235009
0.0224069
0.0469057
0.0219048
6.75259
0.0768257
6.46557
0.0215302
0.0234163
13.908
0.0221024
7.34206
0.0216109
0.0220716
0.0442731
0.0223776
0.0335157
0.292626
4.76076
7.00234
0.0326198
0.0221362
0.0214996
0.0219163
0.0465121
0.264819
0.064904
0.340246
5.52843
0.0222076
0.0336226
8.40225
0.0220598
0.0228772
0.0253364
0.144016
0.0282216
0.311269
0.0218469
0.238937
0.0215747
11.3775
0.037013
0.0562421
0.0437729
17.9869
0.226821
0.191582
0.0736551
0.0320323
0.0221308
12.0157
8.67926
0.0218169
0.0366119
0.0220171
0.0216055
0.0215918
0.369549
0.0477843
0.0218191
0.0470386
0.168013
0.0216366
0.0214928
15.488
0.0257976
0.0384772
0.151751
0.0225521
0.0223767
0.0218978
0.0220557
17.3241
0.0214968
0.0216638
0.286949
0.0220424
0.0302789
0.299994
0.157209
4.91746
6.43893
0.0253077
1.39423
0.0219823
0.0416285
0.0269672
0.0252373
0.0222734
0.0220589
0.0274272
6.99397
0.0218586
0.0220099
1.04228
0.0219034
0.0541063
0.189525
0.0215641
0.0303383
0.021877
0.0216203
23.4294
0.021791
0.0221724
1.20615
0.0214332
0.0589331
0.55955
0.0218252
0.121174
0.285564
0.295507
0.0215185
0.0220919
16.3436
0.021718
1.67815
0.170484
11.9101
0.021637
0.0618047
0.0214142
0.0222289
0.0220492
0.0218468
0.0217948
6.75915
0.0216095
0.512403
0.0220552
9.56359
0.0219761
0.111205
0.748539
0.0407672
0.0220446
0.0220814
0.041551
0.0223307
0.265075
0.0863936
39.5037
0.0221313
0.0226521
0.0223929
0.0235751
0.060507
0.0230638
0.024306
0.0222778
13.71
0.23559
0.0396559
0.249808
0.0236952
0.0219858
0.0220842
0.022144
0.0219274
0.0473766
0.0221738
0.0263039
1.73548
0.0216773
0.250793
0.0219123
6.97243
0.0272703
7.66331
0.0222767
4.50562
0.0270602
0.0215962
0.0367608
0.331098
0.0240736
10.8879
0.0219721
0.0219237
0.0215232
0.131045
6.2354
7.42714
0.32677
0.103694
0.0257312
1.1397
0.060459
0.0228702
0.143781
0.0437541
0.0865913
2.86142
0.0298502
9.97031
0.0252956
0.0948939
0.0226689
0.0221063
0.0775796
0.0219299
1.94376
0.022966
0.0222708
0.0218142
0.0216696
0.022025
0.0216087
0.0219306
0.0218198
0.168662
6.2421
0.0220816
7.69155
6.78944
0.026583
0.0240559
0.140973
0.021837
0.022128
0.0219086
0.0490803
5.07486
0.0455546
0.258102
0.022107
0.266549
0.0218676
0.0219225
0.0222702
0.0579052
0.0220752
0.031485
0.024807
0.104549
0.0219734
0.0262682
0.0519973
0.0454011
0.150671
5.52043
4.86592
0.129399
0.0219606
0.0235191
0.025426
0.0217148
0.111971
7.12419
10.3557
1.83276
0.146929
0.73031
0.0220164
0.0216556
0.0236415
0.0215775
0.0218175
5.54378
7.0709
0.298016
0.0218109
7.33064
0.0274971
0.0223928
0.0262165
0.179186
0.0219892
0.0229449
0.0497079
0.0217942
0.177161
8.22034
12.1631
0.0819954
0.021797
0.0222552
0.140185
7.3767
6.29968
6.77033
0.0215231
6.10374
0.0781672
0.0221358
0.0219826
2.74497
0.0218218
8.01117
6.24443
0.0873619
0.0642687
9.69588
10.5577
0.0255978
0.0342644
0.21264
8.09739
0.0309552
0.0220599
0.0216013
3.089
6.82863
0.0424304
6.78426
0.0216883
0.0360582
0.226936
0.0244172
0.0320507
0.0221898
6.48654
0.652138
6.42193
0.0221274
0.0222799
0.168038
0.0917369
0.0219776
0.20927
0.0219345
0.0214947
0.0220489
0.0514411
0.0217029
7.97594
9.23198
0.235197
0.0220345
0.0216407
0.64213
0.0276362
1.82106
0.0393676
0.0219282
4.65586
0.0320183
0.0377175
0.021919
0.0216481
0.118935
0.113513
5.96269
6.87589
0.356372
0.0216588
0.209155
0.209003
0.0831099
0.239532
0.022328
6.79963
0.0219363
8.94329
0.0268508
0.021954
0.021899
0.0270854
6.48178
5.89516
4.03882
8.78223
0.133651
0.0235492
0.0221965
6.741
0.0269346
0.021518
10.3951
0.0362133
0.0219458
0.174428
0.233556
0.0220655
0.0215558
0.0218098
0.283029
7.03723
0.0222538
7.81539
0.0219899
0.0220033
0.0221069
0.0220538
0.100806
0.0219282
0.0234075
0.0221726
0.050203
12.2924
0.106251
0.534624
6.91495
7.29124
0.0271637
0.0718532
0.549983
0.32976
0.0311354
8.69805
0.022028
0.0218853
12.3523
7.0593
0.640918
9.92391
6.67661
0.022017
0.0246326
6.49909
7.38191
0.0218988
0.289936
0.862475
6.90334
6.80634
0.55423
0.0222943
14.4614
0.0215665
0.0222617
0.0704473
0.0339788
6.27896
0.0667052
0.0216747
0.23724
0.0222879
0.0272687
0.0219102
6.42695
0.0364739
8.9393
0.0220949
0.077258
0.0216359
0.0219246
6.86916
6.88102
0.0221497
7.93504
0.0216982
0.262199
0.42537
6.86658
6.53501
0.0745256
5.85353
0.0821433
0.0215071
8.17808
0.139804
0.0300021
0.0221839
6.99236
6.33362
0.330791
0.0218638
0.0219824
5.41798
0.153919
6.45719
0.158924
0.0637741
0.0219281
8.53452
0.031376
7.03432
0.0224819
7.02601
0.0255629
0.0221685
0.253685
0.399805
0.0525101
7.00768
0.11475
0.0220133
7.5437
0.0225848
0.0219771
0.22503
0.0222709
0.115771
0.0219333
0.0216355
0.0220066
0.0251604
0.0241756
6.86574
0.0278052
0.021675
0.0218073
0.0217882
2.6061
0.065558
4.78773
0.0254592
6.35085
0.0220944
0.0223951
0.0598893
7.09444
5.29867
0.0219104
8.02064
5.32844
0.22326
0.0425139
0.0596379
0.585355
0.0902363
0.0524446
10.0601
0.26753
0.0217017
5.48095
6.62389
0.073708
0.02203
0.0218817
0.246849
5.68975
0.0274161
0.334211
0.0218137
0.0219339
8.70914
0.0220017
0.141283
0.0445635
0.0219073
0.0219389
0.157574
0.0316781
0.0215983
0.0267149
6.66132
4.92506
5.00921
0.0218695
11.1752
0.0217839
0.0218617
37.687
0.0220273
0.323508
0.0219126
0.452469
0.390828
0.372342
0.0223254
4.41649
0.0843225
7.31088
0.0219287
9.17571
0.0219577
0.023532
0.0218038
0.380844
0.447324
0.0220789
0.024625
0.0215185
0.0220275
0.0247877
0.0220593
0.0949829
0.0296002
0.0220179
6.70212
0.022069
0.0239272
0.0217295
0.0219824
0.0222785
0.0219061
0.0220313
0.0217978
0.0222243
0.222497
6.18594
0.452874
0.0222142
0.0943549
8.69059
0.0221182
0.0742463
0.0796985
0.0227377
0.0248225
0.021916
6.54758
0.0218151
0.0322414
6.55637
0.0873456
0.0230376
0.0269004
0.0598341
0.0218799
0.0316054
0.0221583
6.72075
0.0229755
0.0730847
0.0218173
6.83317
0.0605142
0.0803132
0.0218865
0.0222769
0.02209
0.0221885
0.0219485
0.42068
0.0216877
7.49306
0.022056
0.024291
5.33176
0.0624671
0.0278453
0.19717
7.04409
0.0228644
0.0216543
0.0315265
0.0220864
0.0219714
0.0227572
0.0216166
0.325044
0.0314769
0.0221039
0.021922
0.0217061
0.025448
0.0220798
0.247654
0.236991
0.022022
3.06379
0.0216382
0.288838
0.0218112
0.0218645
0.041783
0.25326
0.0221069
0.0279305
0.0214379
15.0601
0.0236308
0.0223523
0.0254669
30.336
14.5983
0.0643706
0.025396
0.0219508
0.0230622
7.14357
0.0218297
0.0262586
0.315894
0.0219293
5.50772
0.0583582
0.0639891
0.0234895
0.0228762
0.022028
0.0222584
4.2886
0.0220643
0.0227194
0.0850221
0.0219333
0.0370531
0.0225949
0.110244
0.0218688
0.688902
0.0223276
0.0250065
0.022047
1.11024
19.5957
0.0220442
0.026234
8.58952
0.0462084
0.027121
13.9386
0.0221322
0.0612264
4.2788
8.53068
0.0403898
0.0220239
0.0219186
0.0222561
0.0220076
0.276549
0.0227824
0.426687
0.223576
0.0217069
0.0532904
3.74567
0.0220345
0.0652363
0.0608263
0.248433
0.022666
0.0352662
0.0217409
0.0220493
0.0219419
6.52948
0.091416
0.116695
0.0222977
0.0216177
0.0220338
0.0214961
18.0896
0.0217937
0.0583431
0.0222722
14.6526
0.0221988
0.0220542
0.0821731
10.0496
0.0218562
0.0290926
0.23013
0.221291
0.0215614
0.0227743
0.0607954
0.0220065
6.90667
6.90137
0.0246339
0.0316648
0.0219425
0.0219071
0.265192
0.0216849
0.544723
0.0218065
0.326184
0.0217934
0.0219148
6.63352
0.023487
0.0224078
0.0217781
0.0293189
0.0253301
0.0303218
0.0218284
6.92201
0.183817
0.0238786
0.0683363
0.0239778
0.0216725
0.0233059
0.0216625
0.30761
0.0524904
0.355669
0.0419692
0.0216285
0.122083
0.0221622
1.115
0.0254267
7.68953
0.0225383
0.0916983
5.91122
8.14604
0.024198
0.0362293
0.192968
0.147104
8.99055
0.0220274
0.0260773
0.0226686
0.0471589
0.0239331
15.0121
0.022166
0.0218123
0.0222074
0.0218822
0.0222296
6.9299
0.0218326
0.0219323
6.54166
0.0219705
0.0220019
0.0667631
7.46157
0.287046
0.0351065
0.0295611
0.0257953
12.4635
6.20972
0.0221056
0.0609704
6.61385
0.0214373
0.0242402
0.0219911
6.76615
0.0914211
0.202362
18.7225
0.0220235
0.0219128
0.0286814
0.0265293
0.0220091
5.06614
0.0352606
0.0218963
0.0219194
5.06675
0.0220913
0.0303259
0.0230635
0.0220377
0.0219839
0.875853
0.0267461
0.0918989
0.0226891
0.021902
0.233615
0.0220298
0.0222454
5.97921
0.0217441
0.022119
10.322
0.0216783
0.10384
0.0237431
0.235459
0.0237039
0.195258
0.218362
0.148801
0.0222246
6.36667
0.0219087
0.0217742
1.21493
0.0251872
5.50189
7.85914
0.0216209
0.0220205
0.124904
0.0845734
0.0826068
0.0219907
0.0216158
6.68039
0.0281622
0.0214699
0.0219275
0.0864267
0.0220414
8.26246
0.0747846
0.0372498
0.0230296
0.0227578
21.9951
0.0220293
0.0216153
0.133769
0.0316837
0.0219944
0.0219583
0.0222399
0.0217176
0.0783574
0.187187
0.0219283
0.021467
0.0223839
0.0219198
0.0538945
0.0218879
0.0220501
0.0220757
6.81447
0.0216066
7.05027
7.53166
0.186369
6.59548
0.0222697
0.0801398
3.67467
0.0257095
0.0218836
0.0220184
0.0265319
0.0220544
0.293334
0.513846
0.0221943
0.025338
0.0220395
0.0294152
0.0306921
0.254324
0.0383562
0.223154
0.021477
0.777809
0.391731
0.0662429
0.0219257
1.24801
0.0219867
13.6251
9.26316
0.0219332
5.72082
0.0222353
0.0570354
0.0221307
0.0491666
0.0605607
10.3104
0.0214967
0.092935
0.0864858
0.0449369
0.0219006
0.0217268
4.25668
0.429828
0.0224121
0.0221378
0.0259132
0.0269564
0.721459
0.0217758
0.22223
0.0453976
7.78583
7.11914
37.2979
0.0223778
0.0217855
0.109972
0.0215865
0.027826
0.0219571
0.0885916
23.3894
0.413988
0.029721
5.26788
0.0219262
0.0351925
0.0831736
0.104621
11.0578
8.53044
0.0218858
0.0221732
0.0789469
0.141988
7.94786
0.227397
0.0219728
0.0220056
0.025821
0.092354
4.65377
0.0218835
6.28037
0.0219037
7.29242
0.274859
0.0222161
16.2449
0.0220828
4.04743
38.3403
0.0250632
0.283681
0.467651
8.45816
23.803
0.0226325
10.2318
0.0269293
0.686806
0.0219846
0.250355
0.0219753
0.0383817
9.90554
0.0833584
6.88435
0.0228418
6.53466