/*--------------------------------*- C++ -*----------------------------------*\
| =========                 |                                                 |
| \\      /  F ield         | OpenFOAM: The Open Source CFD Toolbox           |
|  \\    /   O peration     | Version:  v2012                                 |
|   \\  /    A nd           | Website:  www.openfoam.com                      |
|    \\/     M anipulation  |                                                 |
\*---------------------------------------------------------------------------*/
FoamFile
{
    version     2.0;
    format      ascii;
    class       surfaceScalarField;
    location    "50";
    object      phi_0;
}
// * * * * * * * * * * * * * * * * * * * * * * * * * * * * * * * * * * * * * //

dimensions      [0 3 -1 0 0 0 0];
oriented        oriented;


internalField   nonuniform List<scalar> 
27668
(
0.063819
0.057394
-0.121213
0.0364115
-0.0666014
0.0301899
0.326363
0.149827
-0.0629945
-0.0331798
0.0961743
0.343822
-0.197303
-0.146519
-0.0760717
0.147602
-0.07153
-0.12971
0.0893677
0.0403419
-0.406253
0.403296
0.00295742
-0.0394899
-0.040065
0.0795549
-0.0717632
0.026927
0.0448362
0.297889
-0.194864
-0.103025
0.0019429
0.448143
-0.26107
-0.187073
-0.0102717
0.00349319
0.201958
0.199204
-0.401162
-0.125161
0.0874681
0.0376932
-0.0302424
0.00293038
0.0273121
-0.1477
0.0716283
-0.173507
0.178634
-0.00512671
-0.00245243
0.00690753
-0.0044551
0.110524
-0.249019
0.138495
0.342563
-0.160622
-0.181941
0.00568863
-0.0311861
0.0254975
-0.153558
-0.0909701
0.244528
-0.139133
-0.230198
0.369331
0.0227613
-0.0332896
0.0105283
-0.0862334
0.0410238
0.0452096
-0.100028
0.264331
-0.164303
-0.050014
-0.0362194
-0.0614499
0.125269
0.0661045
-0.0600456
-0.00605887
0.0422459
-0.448499
-0.206712
0.215964
-0.00925214
-0.050994
0.10407
-0.0530761
-0.0566741
-0.0730355
-0.0896319
0.0398111
0.0498209
-0.193049
0.392405
-0.199356
0.130402
0.167487
0.232326
0.111496
0.00638643
-0.0105875
0.00420102
0.0481954
-0.0879046
0.0397091
0.0291865
-0.0551543
0.0259678
0.106484
-0.0676452
-0.0388385
-0.00504344
-0.208878
0.0645571
0.144321
0.0388169
0.165308
-0.204125
0.180661
0.220778
-0.401439
0.0663864
-0.00318863
-0.0631978
0.122281
-0.283289
0.161008
-0.396883
0.25775
0.259965
-0.493415
0.23345
-0.0793474
0.0740599
0.00528747
-0.0946782
0.0843665
0.0103117
0.0345536
-0.0825145
0.0479609
0.22621
0.116353
0.146372
-0.420781
0.274409
0.417167
-0.277733
-0.139433
0.445161
-0.0116283
-0.433532
-0.319552
0.0325179
-0.0819973
-0.0378276
0.119825
-0.017502
0.0206341
-0.00313209
0.0779753
-0.0415639
0.149022
-0.24905
0.13929
-0.292848
-0.0930594
0.035342
0.0577174
0.0440782
-0.081558
0.0374798
-0.264182
-0.0553697
-0.0315433
0.186943
-0.1554
-0.0606902
-0.00357217
0.0642624
-0.370214
-0.107016
0.47723
-0.192073
0.109072
0.0830009
-0.0193257
0.0975605
-0.0782349
0.0643911
0.00199531
-0.0191637
-0.0755145
0.405228
-0.198426
-0.206802
0.105215
-0.0570194
-0.159654
0.399285
-0.23963
0.370947
-0.224575
-0.0494895
-0.0526032
0.102093
-0.123148
-0.0689252
-0.012206
0.00975357
-0.146045
0.184862
0.275453
-0.122701
-0.152752
0.0335378
-0.0107765
-0.191345
-0.0153674
0.0684989
-0.00239437
0.033208
-0.403422
-0.00491002
0.00300657
0.00190344
-0.288147
0.371447
-0.0833002
-0.140434
0.0796406
0.0607938
-0.0637638
-0.0526167
0.11638
0.083577
-0.0490234
-0.132553
-0.076325
0.0455517
0.0215544
-0.0671061
0.0604622
-0.0514562
-0.00900597
0.257571
0.019782
-0.277353
0.0177757
-0.0160632
-0.00171244
0.195968
-0.315758
0.11979
-0.010574
0.00970092
0.000873127
-0.101037
0.0500435
-0.308631
0.0204844
0.018005
0.427156
-0.176409
0.0896158
0.0867935
0.167999
-0.0967276
-0.0712714
0.0518841
-0.101374
-0.205225
0.210071
-0.00484537
0.0363277
0.0634435
-0.0997711
0.0216915
-0.0213449
-0.00034653
-0.123414
-0.147922
0.271337
-0.0580057
-0.0350537
0.0953298
-0.108514
0.0131839
0.00219284
-0.0196948
-0.194071
-0.181968
0.376039
-0.108985
-0.0674241
0.0360263
0.0475507
0.217432
-0.059375
-0.158058
-0.00993731
-0.000636738
-0.117954
0.0359568
0.0798619
0.0716028
-0.151465
-0.380696
0.187647
-0.0111563
0.00173393
-0.0907771
-0.150284
0.241061
-0.308841
0.139861
0.16898
0.00480751
0.0905223
0.00684278
-0.0266746
0.0198318
-0.133854
0.172419
-0.0385653
0.179317
-0.143991
-0.0353267
0.0497426
-0.116517
0.066774
-0.0535819
-0.0360501
0.138622
-0.357748
0.219126
0.44628
-0.469324
0.0230445
0.0447447
0.0371333
-0.081878
-0.0113461
-0.0157247
0.0270707
0.155013
-0.133943
-0.0210696
-0.0125827
-0.0481075
0.378201
-0.118236
0.0454051
-0.111965
0.0665598
0.140917
-0.216222
0.0654714
-0.0241674
-0.041304
-0.0681867
0.0286968
-0.226049
-0.0366751
0.262724
0.192645
0.224522
0.00280044
-0.00995624
-0.396019
0.148546
0.247473
-0.158417
-0.0174521
0.175869
0.0181421
0.0586462
-0.0767883
0.0866724
-0.0506461
0.348455
-0.195575
-0.15288
-0.03958
-0.0676435
0.107224
-0.182456
-0.0227694
-0.159778
0.0435859
0.116192
-0.154742
0.302276
-0.147534
0.000467974
-0.00398623
0.00351825
0.0101522
0.247418
-0.220338
-0.175681
0.0054135
-0.00479815
-0.000615358
-0.169626
0.0357721
0.328805
0.119338
-0.174178
0.109493
0.0646842
-0.039983
0.098314
-0.058331
0.0665001
-0.0209484
0.291578
-0.169297
0.129228
-0.304621
0.175393
0.326116
-0.187495
-0.000485688
0.00687212
-0.0595265
0.0810629
-0.0215364
0.301313
-0.493065
0.191753
0.0496533
0.0512107
-0.100864
0.0648194
0.0373244
-0.102144
0.250307
0.154922
-0.133526
0.0994949
0.0340316
0.00972126
-0.00692082
-0.0340149
0.085549
-0.051534
-0.166338
0.159108
0.00723024
-0.340953
0.180332
-0.00576716
0.00771005
0.091811
0.125621
0.0799002
0.0734155
-0.153316
-0.00182387
0.00247527
-0.0006514
0.0739751
-0.135179
0.061204
0.0271407
-0.0721211
0.0449804
0.0873058
-0.042561
-0.212111
0.0207666
-0.0182054
0.000379229
0.0178262
-0.0496534
0.113186
-0.0635322
-0.0637169
0.0369664
0.0267505
-0.00696714
-0.00340619
0.0103733
-0.413773
0.286806
0.126967
0.0539695
-0.0879845
0.120072
-0.251398
0.131326
0.163995
-0.254772
-0.0496328
0.0992861
0.0206076
-0.0217537
0.00114605
0.0808406
-0.152464
0.0716235
0.156063
-0.344305
0.188243
0.0142783
-0.00488684
-0.00939148
0.0234869
-0.00179544
-0.111621
0.0716381
0.051465
0.0550187
0.0407029
-0.00525063
-0.0354522
-0.0322028
0.40315
-0.082241
-0.0512854
-0.0970259
0.423389
0.028337
0.102518
-0.130855
-0.00252996
-0.00315788
0.00568784
0.073011
-0.00821417
-0.0647968
-0.320487
0.165744
-0.143595
0.17607
-0.032475
0.00188657
0.132921
-0.134807
0.12178
-0.0643862
0.000693579
0.0228436
-0.0235372
0.176677
0.18937
-0.366047
0.100289
-0.0548842
-0.107411
0.0791929
0.0282183
0.0960781
0.0668097
-0.162888
-0.0476478
-0.0597634
0.0874224
-0.2276
0.140178
-0.146395
0.373807
-0.227412
0.0443458
-0.10734
0.112122
-0.405606
0.293484
-0.129744
0.289867
-0.160123
-0.173557
0.0151402
-0.192272
-0.221501
0.0766019
-0.0959275
0.227278
-0.139856
-0.205772
-0.103069
0.373758
-0.211714
-0.162044
-0.0113232
0.286276
-0.157048
0.0229202
-0.0342663
-0.00499772
-0.00272607
0.00772379
-0.0694324
0.2654
0.24073
-0.130207
-0.040584
0.0885937
-0.0480097
-0.00528838
-0.00652837
0.0118168
-0.185913
-0.0261982
-0.102963
0.0533094
-0.117622
0.256912
0.0903156
-0.154079
0.0275253
0.148793
-0.176318
0.0721085
-0.100782
0.0286733
0.018476
-0.01904
0.000564003
-0.225611
-0.0444757
0.270087
0.0541209
0.0113505
-0.195099
0.0122807
0.182818
-0.130705
0.048464
0.0838122
-0.309861
-0.0341185
0.130197
0.337576
-0.181514
-0.000791392
-0.00128782
0.00207921
-0.0739437
0.0333597
-0.00293261
-0.00197741
-0.0267236
0.0216824
0.00504118
-0.0360932
0.115114
-0.079021
-0.0169
0.0225887
0.102026
-0.0563045
-0.0457214
0.0317193
-0.0609089
0.0291896
-0.37089
0.228175
0.142715
-0.0270024
-0.00815571
0.0351581
-0.0488756
0.128776
-0.0552577
-0.0593947
0.114652
0.0697666
-0.0256884
0.0520894
0.00837278
0.0871098
-0.0590399
-0.0280699
0.187734
-0.172208
-0.0155256
0.360476
-0.248354
0.0699158
-0.0515027
-0.018413
-0.0370999
0.0899713
-0.0528715
0.19684
-0.174913
-0.0219277
-0.198537
-0.186966
0.385503
-0.481131
0.525833
-0.044702
-0.0271461
0.089248
-0.0621019
-0.18155
0.334182
-0.152632
0.0247169
-0.00516219
-0.0195547
-0.0134492
0.0109193
0.00904672
-0.00965185
0.000605137
-0.00107212
-0.0291703
-0.0823587
-0.00319765
0.0855564
0.0594008
-0.114659
0.114995
-0.0428863
0.00836226
-0.0162106
0.00784835
-0.151085
-0.0224224
0.00537915
0.0193378
0.0263955
-0.00905262
-0.0173429
-0.0241812
-0.0787816
0.0558219
-0.0929218
-0.058247
0.104755
-0.0465077
-0.342607
0.191463
0.151144
-0.0353286
-0.0283882
-0.115081
0.0843327
0.0307481
-0.0236194
0.0507601
-0.0157725
-0.00243284
0.0670237
-0.0702123
0.0463873
0.00639239
-0.0527797
-0.0731978
-0.0745022
-0.265907
0.0402956
-0.048588
0.0853621
-0.0367741
0.0718019
0.030224
0.114373
-0.0646301
0.0165067
-0.0217951
-0.0187816
-0.0529816
-0.0723149
-0.0583901
0.021297
-0.0144543
-0.0110646
-0.155273
-0.0560279
0.0923556
0.000229017
-0.00205289
0.0736055
-0.00338116
-0.014795
0.0181761
-0.0830388
0.0802996
0.00273913
-0.0616119
0.05693
0.00468186
0.157292
-0.161731
0.00443909
0.0321508
-0.0807387
-0.0181206
0.0147394
-0.0584387
-0.0531824
-0.134206
0.0790826
0.0551233
-0.049661
0.11173
-0.0620689
0.165657
-0.00836499
-0.201479
-0.169411
0.0637485
-0.0320292
0.141792
-0.173336
-0.00562845
-0.0210952
-0.2082
0.212013
-0.00381283
0.189527
-0.0727731
-0.116754
-0.129567
-0.0439903
0.00991198
0.0256412
-0.0355531
-0.403299
0.243645
0.0242783
-0.0694224
0.0451441
0.14765
-0.192039
-0.00305989
-0.145739
0.173264
-0.015447
0.173381
-0.157934
0.00751976
-0.00222167
-0.0052981
0.00294324
-0.123126
0.267534
-0.144408
0.0514025
-0.000688976
-0.0507135
0.0344755
-0.154059
0.119584
-0.000160898
0.0186369
-0.0138822
-0.0684765
-0.441912
0.0243727
0.417539
-0.102224
0.0750781
-0.0439466
0.0789609
-0.0350143
-0.0331475
0.0912388
-0.0580914
0.0244475
-0.004662
-0.0197855
-0.188465
0.241245
-0.05278
0.0229871
-0.0202823
-0.00270477
0.00758367
-0.0125814
0.00434475
0.0363581
0.0692141
-0.0028039
-0.0664102
0.000383168
0.00503424
-0.00541741
0.0885914
-0.167165
0.0785732
-0.135705
-0.024073
0.0728423
0.0759925
-0.148835
0.0729568
0.0530846
-0.0813527
0.0282681
-0.12362
-0.114823
0.238443
-0.0919156
0.0393486
0.0525671
-0.00215933
-0.00182689
-0.0360545
-0.0790264
-0.16153
-0.182775
-0.248002
0.283108
-0.0351064
0.0034942
0.0258663
-0.0293605
0.2698
0.133661
-0.403462
0.233444
-0.35657
0.365716
0.0805635
-0.145318
-0.195636
0.00751976
-0.0231157
-0.0123896
0.0355053
-0.113768
0.0553292
0.00177982
-0.00754698
-0.125367
0.0639174
-0.0190776
0.0482641
0.118653
-0.0101864
0.00945304
0.000733385
0.382902
-0.180944
0.0368343
-0.0604537
0.0242546
-0.0404751
0.0162205
-0.1757
0.0461331
-0.406505
0.266195
0.14031
-0.00459107
-0.00599639
0.00430727
-0.00641851
0.00211124
-0.431251
0.307105
0.124146
-0.148168
0.0749707
0.112562
-0.0385864
0.143169
-0.125616
-0.0175536
-0.00828845
0.0524147
-0.0441263
-0.271012
0.126439
0.144573
0.489765
-0.229128
-0.260637
0.172023
-0.410216
0.238193
-0.0978139
0.0736327
-0.0484189
0.0849638
-0.0365449
-0.161727
0.111576
0.0501516
-0.408136
0.0974259
0.31071
0.284551
-0.151867
-0.132684
-0.00952251
-0.232882
0.222415
0.010467
0.108943
-0.107056
0.0525985
-0.3006
0.0492536
0.0228494
-0.072103
-0.111028
-0.0578864
0.168914
0.164443
-0.0212738
-0.347787
0.0217238
0.326063
-0.200033
0.356595
-0.156562
0.325852
0.163913
0.00565357
-0.00024007
0.0065354
0.0110211
-0.069295
0.0582739
0.00710133
-0.0140685
0.0177192
-0.0170257
-0.100889
0.0482861
0.339173
-0.152534
-0.186639
0.00800714
0.214252
0.0612004
-0.0878447
-0.0738828
-0.0623148
-0.0628464
-0.00124576
-0.0782693
0.0795151
-0.0548618
-0.0643649
0.119227
-0.156357
0.0972388
0.0591178
-0.00507171
0.051459
-0.0778673
-0.0414307
0.119298
0.173185
0.014549
-0.0710987
0.287004
-0.215905
-0.416482
0.229521
-0.0187525
-0.0605949
0.0953222
0.0839952
0.0538627
0.142978
-0.0486861
0.144008
0.048614
0.119768
-0.168382
-0.0969816
0.0608884
-0.0514686
0.0624897
-0.258406
0.140784
-0.0404091
0.0716258
-0.0312166
0.0682411
0.145385
-0.213626
0.0785287
-0.0292751
0.0731566
-0.0488783
-0.0504482
0.0636543
-0.0132061
-0.234277
-0.0171771
0.251454
-0.180944
0.0226409
-0.0704537
0.0478128
-0.335859
-0.0722778
-0.000951229
0.0578813
-0.0302839
0.00284665
0.0274373
-0.349675
0.391921
-0.236602
0.0284023
0.239357
-0.0470325
-0.192324
0.0516872
-0.00378473
-0.0479025
0.0435342
-0.0192796
0.00605004
-0.00653573
0.0689005
-0.148297
0.0793966
-0.0297462
-0.0289676
0.0587138
0.0817113
-0.315988
0.0196065
-0.0069601
-0.0126464
-0.0249048
0.179517
0.302737
-0.482254
-0.0554235
0.043227
0.0121964
0.129615
-0.00836271
-0.121252
0.067334
-0.178362
0.236185
0.109644
-0.345829
0.145769
-0.149598
0.00382904
-0.079219
0.315404
-0.0761233
0.0623523
0.013771
0.099253
-0.448928
-0.541457
0.354815
0.186642
-0.003616
0.00539582
0.058785
-0.103874
0.0450887
-0.111711
-0.159301
0.0657443
0.00127935
0.0403879
-0.388175
-0.00444535
0.00394436
0.000500993
0.155329
-0.159271
0.00394157
-0.219774
0.229926
-0.29785
0.0702505
-0.163155
-0.179453
0.000120708
-0.0347517
0.034631
-0.271487
0.200388
0.137544
0.0754646
0.0359701
-0.111435
0.000698529
0.141973
-0.142671
0.0390706
-0.0501751
0.0111044
-0.107104
0.0574427
-0.205474
0.287185
0.000975012
-0.000665617
-0.000309395
-0.0475023
0.0981631
-0.0506608
0.15063
-0.112305
-0.0383257
0.272303
-0.417619
0.145316
0.202623
-0.184263
-0.0183599
0.38411
-0.184906
0.202664
-0.349059
0.159156
-0.08597
-0.0731857
0.235793
0.112662
-0.191473
0.060376
0.131097
-0.0312984
0.0843829
0.0841147
-0.0853604
-0.0992927
0.0661453
0.070357
-0.0155662
-0.0547908
0.115933
0.0390803
0.0382805
-0.0965275
0.063306
0.0446418
-0.107948
-0.00563004
0.351441
-0.557144
0.205703
0.0143763
0.00730617
0.0707031
-0.0480623
0.050891
0.0103139
-0.0334297
0.139919
-0.182228
0.0423087
-0.171489
-0.126361
0.00941407
-0.00571458
-0.00369948
-0.215469
0.00953578
0.205933
-0.193737
0.232317
-0.0385803
0.0218896
-0.0207751
-0.00111449
0.0851696
0.0654607
0.0288244
0.161253
0.0488181
0.209472
0.147123
-0.136953
0.0554289
0.0815237
0.168224
0.111493
-0.279717
0.0854214
0.127849
-0.21327
-0.00738638
0.00466031
0.00517318
-0.00775124
0.00257806
0.025713
-0.197018
0.171305
0.18429
-0.0246831
-0.159607
0.025774
0.162024
-0.0162552
0.217236
-0.148995
-0.0133816
0.162174
0.00240363
-0.0552648
0.0528612
-0.172519
0.19244
-0.0199211
-0.131572
-0.164129
0.295702
0.0383726
0.0159966
0.00240276
0.000540484
0.265155
-0.0328293
-0.0315255
0.0903104
-0.260488
0.0667513
0.183777
-0.0225249
-0.0514281
0.0880246
-0.0365965
0.0237131
-0.00933687
0.00144389
0.0677702
0.545566
-0.283072
-0.262494
0.103659
0.0724578
-0.0817515
0.00929368
0.0434453
-0.0614746
0.0210654
0.0201672
-0.168183
0.318455
-0.150272
-0.234176
0.187143
0.00114101
0.00608031
-0.00722132
-0.260345
0.138186
0.122159
-0.0865375
0.0300588
0.0564787
0.510056
-0.212299
-0.297756
0.0448619
-0.055079
0.010217
0.0565483
-0.0296214
0.0523637
-0.052243
0.0752542
-0.052813
-0.0224412
-0.283669
0.0880943
0.0538653
-0.0514617
-0.111171
-0.0899016
0.201073
0.0165246
0.00125108
0.000544719
0.112398
0.175581
-0.287979
-0.299437
0.478954
0.0529799
-0.0139093
0.0532924
0.0478253
-0.101118
-0.090553
-0.0498814
-0.0706308
-0.103547
0.094544
-0.277374
0.18283
0.023225
-0.0110963
-0.0121287
-0.294327
0.173036
0.12129
-0.0665338
0.0570553
0.00947854
0.215907
0.0686447
-0.166971
0.0212318
0.0400677
-0.259842
-0.0252234
0.0954076
-0.0701842
-0.378753
0.137439
0.241314
0.0633523
-0.126593
0.0632403
0.000521736
-0.00131313
-0.0171631
0.0263939
-0.00923074
-0.373773
0.153435
-0.0305895
0.106054
-0.199574
-0.174198
0.170149
-0.01482
0.0560177
-0.0812411
-0.0659397
-0.0205978
-0.00196005
-0.00721245
0.0091725
0.117172
-0.322646
-0.0319659
0.0403282
0.00867357
0.000740499
0.0278626
-0.242691
0.214829
0.0714058
0.00191515
-0.073321
-0.316664
-0.0898409
0.0157276
0.207826
-0.181475
-0.0263512
0.00606187
0.250392
-0.329611
0.0410309
-0.0417199
-0.0175235
-0.00682124
0.0243448
0.10079
-0.177097
-0.195408
0.372505
-0.411478
0.317683
0.093795
0.198981
0.0422642
0.157164
-0.0822353
-0.0749282
0.285236
0.26033
-0.105167
0.183738
-0.0785704
0.199715
-0.223325
0.0236096
0.0268699
0.169592
-0.196462
0.00905211
-0.00387893
-0.321719
0.252213
0.0695061
-0.0620149
0.181353
-0.480791
-0.213289
0.241152
-0.00763423
0.00661039
0.00102384
-0.00358352
0.00396669
-0.0583873
0.0500988
-0.201708
-0.120011
-0.0189953
0.007899
-0.328792
0.147242
-0.179192
0.0174611
-0.208215
0.302759
0.177164
0.0528523
-0.230016
0.00922007
-0.0606763
-0.0324289
-0.0129403
0.0453691
-0.316209
0.190785
0.125423
-0.405648
0.207111
0.102448
-0.0491555
-0.167776
0.319708
-0.151933
-0.218085
0.207719
0.0103654
0.0160055
-0.0630876
0.0470821
0.214613
0.0927569
-0.30737
-0.42819
0.280866
0.147324
-0.30747
0.139694
0.267212
0.177304
-0.156265
-0.021039
0.212004
0.161754
0.0369432
0.0235626
-0.275486
0.145742
-0.043469
-0.0484466
-0.185656
0.047924
0.137732
-0.0107465
0.00973402
0.00101248
-0.0409865
0.0630506
-0.0220642
0.156086
0.00820358
-0.164289
-0.066759
0.336559
-0.161431
-0.0177613
-0.0507105
0.0950563
-0.357636
0.262615
0.09502
0.0704233
-0.127051
0.0566281
-0.233583
-0.31096
-0.230497
0.0237825
-0.0031749
-0.00649614
0.0252636
-0.0187674
-0.214246
0.222151
-0.00790538
-0.196319
-0.20698
-0.171047
0.195316
-0.0242694
-0.177776
0.354453
0.0180331
-0.00200784
-0.00562639
-0.0275546
-0.00379487
0.0313495
-0.0894096
0.0683152
0.0210943
-0.141473
0.0751494
0.0663235
0.0130858
-0.0701734
0.0570876
-0.0942315
-0.117101
0.211332
0.0400969
-0.0955872
0.0554903
0.17839
-0.102049
-0.0763415
0.0663725
-0.117041
0.050669
0.106079
-0.0560802
-0.0499984
-0.00205287
0.0197721
0.155431
-0.392005
0.199733
-0.00151478
-0.00923171
0.176039
0.141766
-0.317805
0.375416
-0.110171
-0.265244
-0.00453607
0.00567708
0.20755
-0.18068
-0.0115954
0.0120685
-0.000473106
-0.0289202
-0.162553
-0.0949051
-0.342573
0.437479
0.0707951
0.34572
-0.0953284
0.0800618
-0.024044
-0.00265028
-0.0107989
0.118266
-0.0150091
-0.103257
0.317355
-0.138508
-0.178847
-0.0352353
-0.150421
0.277714
-0.404688
0.126974
0.045269
-0.0956463
0.0503773
0.00206707
0.000939501
-0.0930031
0.127479
0.0616537
-0.078896
0.0172424
-0.0899824
0.391295
-0.146655
-0.0962367
0.242892
-0.0605427
0.180614
-0.0714453
-0.161437
-0.203309
-0.20234
0.0394344
0.0600604
-0.140253
-0.120092
-0.0740682
0.0330817
0.0317351
0.0263556
-0.0580908
-0.112827
0.0870081
0.0258194
0.0325349
-0.206934
0.176511
-0.32347
0.146959
0.320397
0.00360564
-0.324003
-0.113312
0.0519209
0.0613913
-0.187426
-0.191327
-0.00324972
-0.00119563
-0.0611022
-0.0758503
0.1567
-0.0167802
-0.100072
0.0493619
-0.0358112
-0.0770163
0.00969598
-0.000649259
-0.405946
0.188021
0.217924
0.00651208
-0.00866992
0.00215784
-0.199215
-0.179946
0.379161
0.00541839
0.000235182
-0.0585156
0.147107
0.0597731
-0.0476531
-0.01212
0.0993277
-0.0598933
0.0511342
0.0745699
0.0845858
-0.107016
-0.261878
0.368894
-0.0692458
-0.0789227
0.161398
-0.0717822
0.168087
-0.27872
0.110633
-0.0216807
0.0251749
0.00435882
0.0099195
0.15076
-0.070898
-0.134705
0.163876
-0.0291708
-0.4129
0.209591
-0.0857917
0.027786
0.19161
-0.221313
0.0297034
0.443893
-0.1947
-0.249193
-0.0102923
-0.193871
0.117224
0.0766467
-0.0540676
-0.0653285
0.0138258
-0.2347
-0.171245
0.0340288
-0.287606
-0.123872
-0.137296
-0.184704
0.321999
0.0585519
-0.0743078
0.015756
-0.0870458
-0.0262664
-0.28587
0.467223
-0.0328975
0.0806415
-0.047744
0.190039
0.101933
-0.0618358
0.0824467
-0.0207931
0.00244171
-0.00815629
0.0218259
-0.0200981
-0.00172775
0.00741242
-0.000802034
0.0194317
0.00696376
0.107853
0.0601464
0.0562802
-0.0891778
-0.225296
-0.145149
0.0759035
0.0502932
-0.000499971
0.00165762
-0.00115765
0.149522
-0.0199069
0.0196522
0.0986137
0.00625901
0.0300873
-0.0279369
-0.00215039
0.000629506
0.0342843
-0.0349138
0.047097
0.0400128
-0.0104663
0.0440232
-0.0335569
-0.174322
-0.0399239
-0.126028
-0.149459
0.087249
-0.0140923
-0.131414
-0.177766
0.30918
-0.00427506
0.00205339
0.121493
-0.0510702
0.194303
-0.211331
0.0170276
0.0209158
0.0301536
-0.0510694
-0.138703
0.0419752
-0.147177
0.13173
-0.0196143
0.209193
-0.358046
0.25103
0.174459
0.159723
0.0536961
0.0293563
-0.0830525
0.141507
-0.0726069
-0.437376
0.171163
0.266213
1.0555e-05
-0.00739693
0.299438
-0.0687162
0.100497
-0.0317811
-0.0543671
0.00688861
0.0447986
-0.117282
0.202703
0.00601135
0.0537618
0.126151
-0.237322
-0.419434
-0.061697
-0.161873
0.0271677
0.0279302
-0.0344263
-0.0604839
0.105753
-0.175967
-0.261409
-0.312251
0.174955
-0.170955
0.491352
-0.117115
0.0577202
-0.0251461
0.216104
-0.190958
0.00907158
0.00123504
-0.0103066
0.0680249
0.0273827
-0.0310651
0.0327836
-0.00171847
-0.0124224
0.010226
-0.0742334
0.0722054
-0.0591195
-0.0778499
0.0380641
0.0397858
-0.218075
0.370054
-0.151979
-0.158115
0.190663
-0.0325482
0.348916
-0.177618
-0.171298
0.0614236
-0.200325
0.138901
0.0149005
-0.00582894
0.191839
-0.191526
0.378423
-0.186897
0.157314
-0.154112
-0.00320273
0.0780288
0.00922014
0.19594
-0.212124
0.016184
6.41163e-05
-0.0116595
-0.0419162
0.0549559
-0.0130397
0.0605394
0.0518604
-0.1124
-0.0968459
-0.0446269
0.385377
-0.22537
-0.160007
0.452234
-0.234013
-0.218221
0.0731883
-0.0692114
-0.00397696
-0.471982
0.186112
-0.192764
0.176295
0.0164688
-0.152981
-0.0290118
-0.216824
0.191678
-0.133515
-0.173955
0.295342
-0.288488
-0.00685442
-0.0200061
0.0276196
-0.00761348
0.0302312
-0.0208634
-0.00936783
0.112082
-0.263949
-0.199162
0.00712276
-0.0173968
-0.065642
-0.0291737
0.293683
0.326612
-0.151657
-0.174955
0.374582
0.15125
-0.0778943
-0.031941
0.000875888
0.0424225
0.0386404
-0.0398137
-0.0548419
0.0946556
0.00904006
-0.00252798
0.279941
-0.114043
-0.165897
0.107258
-0.0620083
-0.0452492
0.145659
-0.271523
0.125865
0.168508
-0.096905
0.0569736
0.0683264
0.00486197
-0.0618786
0.0114305
0.273444
-0.16196
-0.111484
-0.0206272
0.0217611
-0.00113394
-0.137141
-0.131524
0.268665
-0.109703
0.158317
-0.141442
0.043628
0.10343
-0.250085
0.0191767
0.337271
-0.356448
0.0385413
-0.0447479
0.110707
-0.0659593
-0.0603185
0.279549
-0.219231
-0.0706796
0.109989
-0.0393095
-0.0198731
0.0297851
0.0371656
0.0521933
0.0192125
-0.00218025
0.103098
-0.100918
-0.085275
-0.226976
0.241545
-0.0188965
-0.222649
-0.317779
0.120476
-0.217018
-0.223036
0.440055
-0.0145268
-0.00913849
0.0236653
0.00105072
0.04244
0.0210097
0.113549
-0.134558
0.157825
-0.280526
-0.0934319
0.0533669
0.206508
-0.42232
0.215812
-0.000759019
0.00424255
-0.00348353
0.0298137
0.265529
0.204175
0.181202
-0.0664053
0.0135923
-0.18649
0.364079
-0.177588
0.0686679
-0.13821
0.0695423
-0.0877826
0.0201374
0.260442
-0.0903243
-0.170118
0.27058
-0.488665
0.218085
0.159011
0.143265
-0.166724
0.148678
0.0180459
0.0717349
-0.0557294
-0.00519338
0.0217001
0.0361662
-0.0162215
-0.0199447
-0.361895
0.245956
0.115939
0.00771658
-0.18672
-0.205285
-0.0485818
-0.0179521
-0.0804244
-0.000330135
0.0807545
0.28152
-0.169122
0.174374
-0.16506
-0.00931342
-0.181249
-0.0529266
0.0693188
-0.0599579
-0.038444
0.0984019
0.277452
-0.0699016
-0.0033143
-0.084932
0.0374297
-0.23695
0.539687
-0.017428
-0.00161203
0.0651071
0.020033
-0.0851401
0.144419
0.124565
-0.268983
-0.0289257
0.42057
-0.214062
0.152761
-0.00503893
0.00142293
0.0173905
0.0566694
0.034134
-0.178125
0.0381245
0.0250165
-0.0631409
0.181235
0.145376
0.0597786
-0.00472597
-0.0550527
0.371556
-0.270436
-0.178713
0.449149
-0.165232
0.336468
0.173588
-0.142192
0.133829
-0.402587
0.10966
0.292928
0.0754281
0.188261
0.0891905
0.0690885
-0.0509464
-0.054855
-0.0172661
0.101927
-0.0355549
-0.0118568
-0.222805
0.234662
0.0103114
0.0631567
-0.10297
-0.0671265
0.104998
-0.0378712
0.183687
-0.170516
0.196229
0.0584026
-0.061467
0.00306446
0.252036
0.158153
0.157725
-0.315878
0.0602524
-0.0211207
0.0807423
-0.0596215
-0.182482
-0.141221
0.323703
0.100214
-0.153945
0.0537305
-0.232
0.220143
-0.0595477
-0.0656803
0.125228
0.00100134
0.00206044
-0.00306178
-0.344244
0.20462
0.139624
-0.207431
0.366967
-0.159536
-0.163302
0.340921
-0.177618
0.0852878
0.184792
0.185662
-0.370455
0.176143
-0.378872
0.202729
-0.237343
0.413486
0.10183
-0.0263105
-0.0755194
-0.143096
-0.167946
0.311042
-0.0614428
0.23594
-0.174497
-0.319878
-0.0827096
-0.141063
0.0656667
0.0753964
-0.0735879
-0.156428
0.169352
0.0449
-0.013026
0.0728046
-0.258901
0.0370583
0.221843
-0.0100098
0.00804972
0.10361
0.0531905
-0.1568
0.0777245
0.233647
-0.311372
0.00629932
-0.000880927
-0.0122829
-0.0461044
0.0390178
-0.109697
-0.00924195
0.0129842
-0.00374228
-0.190203
-0.073979
-0.00333085
0.00257183
-0.0237564
0.207532
-0.183775
-0.052118
-0.0132105
0.0819831
0.0185141
0.229318
0.139498
-0.368816
0.159527
-0.0559169
0.0141638
-0.0435824
0.0294186
0.0638401
-0.00543758
-0.00455088
0.0900998
0.118538
0.106182
-0.22472
-0.0196598
-0.00830102
0.0279609
-0.203779
0.0811076
0.122672
-0.054034
0.125918
-0.0718838
-0.0256542
0.04657
0.102114
-0.0502296
-0.102433
-0.181392
0.422142
-0.26099
-0.161151
-0.156518
-0.0168066
0.173325
0.233186
-0.461964
0.228777
0.18305
0.058495
0.20197
-0.181227
-0.0207435
-0.0271746
0.0652991
-0.0839713
-0.0512079
-0.0639271
0.102208
0.0474263
-0.0597092
-0.067556
-0.0738859
0.0345239
-0.00309547
-0.0314284
-0.00661805
0.0122319
-0.00561382
0.352055
-0.357211
0.00515576
0.0189832
-0.0216335
-0.0517643
0.103432
-0.0516674
-0.0974355
-0.117222
0.214657
0.0561214
-0.000756807
0.00195148
-0.0219575
-0.0162416
0.000469047
-0.047472
0.102247
-0.0547749
0.125629
-0.0569616
-0.199
0.369157
-0.170157
0.069405
0.230947
0.0725252
-0.0717464
-0.000778768
0.0321576
0.0415979
-0.0737556
-0.136445
-0.441912
0.0485832
-0.109118
0.0605344
0.0213929
0.0815125
0.0203174
0.265475
0.0736987
0.222924
-0.24668
0.101954
0.149342
-0.0351827
-0.050609
-0.0102105
0.0188991
-0.00868856
-0.0207881
-0.196487
0.205482
-0.00899501
-0.090434
0.218283
-0.0619992
-0.0645935
0.117115
0.172345
-0.28946
-0.471564
0.374831
0.0967326
-0.0888502
0.232328
-0.143478
-0.375337
0.18381
-0.046442
-0.00373307
-0.0602507
-0.0961059
0.299893
0.0993914
-0.0174843
-0.0629401
0.200665
-0.175298
-0.0253671
-0.00025141
-0.000248561
-0.000198817
-0.30023
0.168817
-0.0521609
-0.0239625
-0.0716461
-0.0465814
0.118227
0.184614
-0.184215
-0.00039892
-0.205403
-0.266161
0.0412835
-0.0879937
0.0467102
-0.280884
-0.212181
0.00269382
0.0266597
-0.0238131
-0.236901
0.175458
0.00594309
-0.0161536
-0.126274
0.0667262
0.0695155
-0.12355
-0.00258961
0.502441
-0.200589
-0.301852
-0.365353
0.188255
0.177425
-0.384856
0.0447844
0.0612942
-0.128925
0.066926
0.0256628
-0.0448809
-0.00835702
0.0532379
-0.0230642
0.147041
-0.123977
-0.224485
0.130253
0.0633439
0.00498244
-0.0214801
0.150516
-0.129036
-0.0686423
0.038896
0.285825
-0.125799
-0.160026
0.0237
0.16059
0.0294337
0.0067325
-0.0496786
-0.0330806
0.142574
-0.0204685
-0.0107176
0.0598774
0.0663168
-0.126194
0.149714
0.000150748
-0.00421313
0.00406238
0.193834
-0.296267
0.0111053
-0.314297
0.146114
0.00354327
0.190455
0.164076
-0.354531
0.0212384
-0.0188766
-0.00236173
-0.126613
0.174537
-0.00974407
-0.00421029
0.0139544
-0.212311
-0.00531478
0.217626
0.00293753
0.0144747
-0.0174122
0.29625
-0.0796897
-0.216561
-0.000338813
0.240451
-0.0950662
-0.371514
0.100027
0.0652902
-0.123993
0.0587024
-0.162732
0.321941
-0.159209
-0.0708531
0.0376732
0.0717611
0.00124992
0.192932
0.155834
-0.348766
-0.0217869
-0.0617612
-0.0263427
-0.263171
0.186165
0.0770066
0.03694
-0.150314
0.113374
-0.299336
0.182658
0.116678
-0.0147582
-0.0808881
-0.0138355
-0.00240612
-0.281634
0.0673333
0.214301
0.0618003
-0.065329
0.00352866
0.00741779
-0.0198205
0.0124027
-0.0123936
0.0353138
0.283281
0.156656
-0.439937
-0.0102584
-0.0276947
0.0379531
0.016057
-0.15951
-0.206485
-0.0670706
0.273556
-0.0102038
-0.0245628
0.0347666
0.05969
-0.121818
0.0621279
-0.168074
-0.200233
0.368307
-0.0815793
0.0326609
0.0489184
-0.00110423
0.0629046
0.378792
-0.149474
0.0365685
0.00329253
-0.039861
0.00454755
-0.00611938
0.00157184
0.116554
-0.0670776
-0.0494766
-0.084773
0.210924
-0.0575276
0.114896
-0.0573688
0.00114025
0.0315023
-0.0884836
0.0569813
0.0571848
-0.02403
-0.0641481
0.0881781
-0.0358957
-0.156868
-0.0100703
-0.173617
0.183687
0.153469
0.0143022
-0.167771
-0.056535
-0.0327987
0.0893336
0.26424
0.237493
-0.501733
0.184159
-0.330201
0.146042
0.12974
-0.255767
0.321716
-0.368563
0.0468468
0.209343
0.123815
-0.333158
-0.134138
-0.114881
0.0306276
-0.0225056
-0.00812206
-0.0179788
0.0186083
0.180477
0.00679382
-0.00175959
-0.0713573
-0.0628486
-0.0748993
0.0158595
0.228276
0.0679744
0.10737
-0.106671
0.11966
-0.0599703
0.0571285
0.0350243
-0.107634
0.0726094
0.0665072
-0.0213315
-0.0451756
-0.0516403
-0.306406
-0.134023
-0.160304
0.0800294
-0.177465
0.405521
-0.263208
-0.142312
-0.255645
0.226912
0.028733
-0.0391471
-0.154724
0.0202499
0.0559499
-0.0761997
-0.076896
0.0565071
0.0203889
-0.0320978
-0.0492549
0.115647
-0.217987
0.199579
0.0184075
0.362416
-0.173046
0.152889
0.252632
0.18599
0.0744523
-0.00720027
-0.0471261
0.0643331
-0.017207
0.00320613
0.22183
0.136032
-0.302293
0.166261
0.175508
-0.0201598
-0.155348
0.00642047
0.00213777
-0.00855824
-0.156438
0.134958
-0.00724291
0.27851
-0.130349
-0.148161
-0.0151028
0.0736547
-0.00461506
0.00705677
-0.169128
0.186244
-0.0171157
0.35115
-0.158218
-0.105888
-0.157283
-0.436041
-0.000795423
0.436836
0.106926
-0.0175587
-0.043775
-0.048772
0.092547
-0.0229982
-0.151915
-0.0749287
0.0508987
-0.0767361
0.0685219
0.072136
-0.00879205
0.106587
-0.056869
-0.0497181
-0.109944
0.130953
0.0633162
-0.0474894
-0.0303604
0.144476
0.134034
0.040375
-0.0508413
0.176318
-0.00526789
-0.17105
0.0833296
-0.113919
0.137229
0.00430877
-0.141537
0.245886
-0.0919303
-0.153956
-0.0335923
0.19883
-0.165238
0.0987348
-0.117072
-0.160107
0.277178
0.07525
0.0535278
-0.128778
0.12335
0.0121669
-0.0043947
-0.00777223
0.0661928
-0.261057
0.167069
-0.0942265
0.171055
-0.122139
-0.0489156
0.00101093
0.0290163
-0.0300272
0.105883
-0.0424392
-0.00476983
0.00574484
0.257375
-0.0691137
-0.244687
-0.179231
0.423918
-0.0632385
0.181776
0.00976269
0.405538
-0.184761
0.275651
-0.131232
-0.15597
0.0885463
0.11485
-0.054311
0.119588
-0.0594546
-0.0601334
-0.0515939
-0.0522798
-0.0743599
0.0422621
0.0294677
0.00716675
-0.0366344
0.291238
-0.172183
-0.119055
0.0411875
0.310867
-0.281181
0.17647
0.104711