/*--------------------------------*- C++ -*----------------------------------*\
| =========                 |                                                 |
| \\      /  F ield         | OpenFOAM: The Open Source CFD Toolbox           |
|  \\    /   O peration     | Version:  v2012                                 |
|   \\  /    A nd           | Website:  www.openfoam.com                      |
|    \\/     M anipulation  |                                                 |
\*---------------------------------------------------------------------------*/
FoamFile
{
    version     2.0;
    format      ascii;
    class       volVectorField;
    location    "50";
    object      U;
}
// * * * * * * * * * * * * * * * * * * * * * * * * * * * * * * * * * * * * * //

dimensions      [0 1 -1 0 0 0 0];


internalField   nonuniform List<vector> 
18598
(
(1.07313 -0.021692 -7.98186e-21)
(1.135 -0.0581494 0)
(1 0.000123407 -2.99785e-21)
(1.0807 0.198705 2.27197e-20)
(1.01985 0.0077982 0)
(1.08227 0.00923876 1.58552e-22)
(1.07975 0.114147 0)
(0.999526 0.00159496 0)
(1.06846 -0.0352338 1.15558e-20)
(0.92094 -0.0697668 9.40799e-21)
(0.989518 0.0117449 1.36065e-20)
(-0.232268 -0.00204189 1.42334e-19)
(1.01574 0.00249137 -1.14228e-21)
(-0.214372 -0.000222596 -1.27236e-19)
(0.998742 0.00106798 5.88361e-21)
(1.15781 0.0845344 0)
(0.617034 -0.0396674 1.87558e-20)
(1.08109 0.0113691 0)
(1.01128 0.0611373 0)
(0.153585 -0.0045486 8.10199e-22)
(1.00116 0.0261594 1.11363e-22)
(1.01618 0.0161863 -5.35936e-22)
(0.570989 -0.0713816 -5.576e-21)
(1.02236 0.0140137 -1.79736e-23)
(1.01286 0.00448778 -7.40366e-22)
(0.703906 -0.0393186 1.20759e-20)
(1.07633 -0.0471123 0)
(0.992614 0.00263085 -6.54805e-21)
(1.07761 -0.0479191 -2.53242e-20)
(1.0726 -0.021931 8.27744e-21)
(1.08226 -0.0427726 0)
(0.999602 0.00130563 0)
(1.03491 0.0345716 4.0418e-22)
(1.09732 -0.0163718 6.37695e-21)
(1.07649 0.117633 0)
(1.07593 -0.0306593 -1.70447e-20)
(1.01294 0.00634958 -2.51906e-22)
(0.989209 0.0114992 0)
(1.02014 0.00752768 -2.43254e-23)
(-0.225362 -0.0184701 -5.01967e-20)
(1.08454 -0.0300826 0)
(0.911728 0.503595 -1.23119e-20)
(1.17994 0.190255 -4.61331e-20)
(-0.223135 -0.00148989 0)
(0.916188 0.0192143 -1.55368e-20)
(1.01526 0.0410492 1.57931e-21)
(1.01207 0.00418547 0)
(1.15596 -0.0951969 -1.41161e-20)
(1.02378 0.000476094 4.9022e-22)
(1.0126 0.00424312 0)
(1.00618 0.000824576 -2.17467e-21)
(1.30001 0.131615 0)
(1.17894 0.155505 4.0708e-20)
(1.12103 -0.0339335 2.19248e-20)
(1.01685 0.015623 6.27006e-22)
(1.00586 0.00492658 3.87489e-21)
(0.999454 0.0070429 6.79211e-21)
(1.0005 0.000273986 -1.60907e-21)
(1.02236 -5.45793e-05 5.58516e-22)
(1.03353 0.120771 0)
(0.482319 0.00711596 1.80513e-21)
(1.13263 -0.0580986 4.02182e-21)
(0.992531 0.00261219 7.19467e-21)
(1.02178 0.0139288 -2.82767e-24)
(1.07728 -0.0320255 -7.10984e-21)
(1.21004 -0.07723 3.21568e-20)
(1.0223 0.000331402 -1.30391e-21)
(1.04394 0.00479528 -4.96332e-21)
(1.03538 0.553064 0)
(1.01117 0.0010121 -2.12719e-21)
(1.05917 -0.000534543 -3.90715e-21)
(1.07154 0.113162 -7.07384e-21)
(1.15415 -0.0931488 0)
(1.17288 0.163868 0)
(0.997568 0.00216496 4.05728e-21)
(1.08412 -0.0295142 0)
(0.998885 0.00286519 6.27122e-21)
(1.00595 0.00510999 1.99022e-21)
(1.0601 0.179769 6.66404e-21)
(1.0594 -0.000288002 4.20659e-21)
(0.237326 -0.000313535 -3.43165e-20)
(1.01533 0.0435349 -8.02509e-22)
(0.984369 -0.00152968 0)
(0.750013 -0.0395717 0)
(1.03366 0.0344164 0)
(1.07829 -0.043673 -1.85431e-21)
(1.01113 0.00101808 3.07223e-21)
(-0.096477 0.0139226 0)
(0.998411 0.008043 -8.2724e-21)
(1.00488 0.105294 0)
(0.952048 0.0650278 -1.81281e-20)
(1.11961 -0.0306074 0)
(0.918458 0.0179898 1.56724e-20)
(0.816505 0.283327 0)
(1.08727 0.461049 0)
(1.02769 0.0102639 -7.56031e-22)
(0.420995 -0.0489297 -7.11258e-21)
(0.993207 0.0122865 -1.7794e-21)
(0.188679 -0.0133719 0)
(1.09859 -0.0182083 6.83159e-21)
(0.99825 0.00776849 9.19309e-21)
(1.00056 0.000258182 0)
(1.05813 0.0692843 -2.35495e-21)
(1.06687 -0.0188574 9.47962e-21)
(1.05585 0.166305 -1.3137e-20)
(1.04686 0.0166679 -1.25362e-20)
(1.07595 -0.0243577 -1.29142e-20)
(0.564234 0.00289056 3.72162e-20)
(0.992173 0.00344615 -6.77617e-21)
(1.07749 -0.0328357 2.51858e-20)
(0.949458 0.123049 0)
(0.493488 0.0060883 3.45444e-21)
(0.998577 0.00154179 0)
(1.05633 0.0705809 1.34995e-20)
(1.11698 -0.0331025 -2.28302e-20)
(0.964757 0.0161799 0)
(0.218714 -0.00979175 3.30484e-20)
(1.03196 0.114629 1.08929e-21)
(1.06571 -0.00143744 0)
(1.01297 0.00661719 2.68052e-22)
(-0.239985 -0.00483159 5.51177e-20)
(1.02434 0.0109037 -3.08707e-22)
(1.02923 0.0102187 2.37783e-21)
(0.956386 0.124679 0)
(0.546535 -0.0658315 0)
(1.054 0.014859 0)
(1.05287 0.00478587 0)
(1.08218 -0.0158965 0)
(1.0762 -0.03074 0)
(1.01752 0.00670298 0)
(1.01243 0.000400108 -1.0582e-22)
(1.03653 0.20204 -1.26561e-21)
(0.564318 -0.0907587 4.37334e-20)
(0.949186 0.0563801 -1.76835e-20)
(0.974851 0.564185 0)
(1.00614 0.000835284 2.09022e-21)
(1.13224 0.0951669 0)
(0.992205 0.00307666 6.98945e-21)
(1.01226 0.0045337 -1.65625e-21)
(0.717754 0.205005 8.53467e-20)
(1.06926 -0.0337931 0)
(1.00574 0.0190766 4.21096e-21)
(0.999423 0.00716279 -9.66827e-21)
(-0.276681 -0.00829434 0)
(0.998971 0.0124889 -2.584e-21)
(1.00884 0.0564261 4.40982e-21)
(1.27252 0.109766 0)
(1.11573 -0.0310744 2.27588e-20)
(0.995673 0.0130405 -5.35878e-21)
(0.933561 0.11125 7.6163e-21)
(1.04643 0.0180205 1.19588e-20)
(1.06013 -0.0109747 -3.60433e-21)
(1.00119 0.0167853 -5.39955e-21)
(-0.0870592 -0.024763 -7.06934e-21)
(1.0276 0.0101871 -3.50918e-22)
(0.998851 0.0124937 2.30509e-21)
(-0.121017 -0.0234081 2.41509e-20)
(1.05474 0.0156746 -1.72694e-21)
(1.0159 0.00229263 3.64687e-22)
(1.0581 0.0559204 -1.74006e-20)
(1.1214 0.0132683 6.65249e-22)
(0.836535 0.279612 2.88787e-20)
(1.02417 0.000310494 1.10382e-21)
(1.01893 0.00539782 -1.2436e-22)
(1.01797 0.00700304 -6.10291e-22)
(-0.202088 -0.0175477 4.71575e-20)
(1.0744 -0.0358428 9.52874e-21)
(0.999043 -0.000355616 0)
(1.04597 0.179398 0)
(1.12419 0.0501736 -1.48219e-20)
(0.997373 0.00257142 0)
(1.01173 0.153904 9.60731e-23)
(-0.24366 -0.00616365 5.78535e-20)
(1.18032 0.134669 -4.29479e-20)
(1.05942 0.03186 7.55324e-21)
(1.01573 0.015391 3.74527e-23)
(-0.192445 0.0016787 -8.89097e-20)
(0.963246 0.0191143 -2.82588e-20)
(1.0657 0.0234541 -3.73619e-22)
(-0.0179708 -0.0362184 -4.19612e-20)
(1.07466 -0.0215864 0)
(1.08069 -0.071504 -1.49243e-20)
(1.04004 0.199706 0)
(1.03283 0.0359972 0)
(0.390084 -0.000196482 4.69649e-21)
(0.92694 0.102945 1.28839e-20)
(0.985023 -0.0249004 0)
(0.217372 -0.0575654 0)
(0.998904 0.00578029 0)
(1.18273 0.146071 2.09005e-20)
(1.03695 -0.0041879 3.04453e-21)
(1.02383 0.0104062 1.31897e-21)
(1.04991 0.200222 -3.33634e-21)
(0.569474 -0.0121994 2.37206e-21)
(1.06484 0.0600432 0)
(1.01943 0.0108357 -2.33698e-23)
(0.318455 -0.060776 1.49009e-20)
(0.556943 0.00275489 -4.42774e-20)
(1.11947 0.0172 4.99073e-20)
(1.18324 0.189793 1.08385e-20)
(0.709015 -0.0440435 0)
(1.00616 0.00519889 -2.10141e-21)
(1.00642 0.153594 1.62307e-21)
(0.999995 0.000226013 1.73117e-21)
(0.958954 0.0625819 2.12455e-20)
(0.135428 0.014812 8.51124e-20)
(1.23266 0.216318 3.69811e-20)
(1.00065 0.0168306 5.41319e-21)
(1.05366 0.0130523 0)
(1.0267 0.0604864 3.6444e-22)
(1.07327 -0.0222149 -1.76205e-20)
(0.534549 -0.0338127 0)
(1.00982 0.00577456 5.2398e-21)
(1.13858 0.0926354 0)
(1.17147 0.0561176 1.39887e-20)
(1.06805 0.0635688 -1.30013e-20)
(1.17157 0.0565908 1.23471e-20)
(1.01111 0.0275253 2.05321e-21)
(0.998822 0.00135896 0)
(1.07329 0.190898 -2.13589e-20)
(1.01467 0.00138433 0)
(0.994102 0.011035 -7.59075e-21)
(1.00703 0.0567412 -6.16325e-21)
(0.998945 0.00574976 0)
(1.06863 0.110968 -1.76898e-20)
(1.01153 0.0268792 -3.53771e-21)
(1.029 0.0104031 -6.91817e-23)
(0.999956 0.00975123 9.72791e-22)
(-0.259897 -0.00631953 -5.63906e-20)
(1.01865 0.00513331 -1.82735e-22)
(0.649405 -0.0951596 0)
(0.205449 -0.0380068 1.45331e-20)
(0.993627 0.0126915 -1.22256e-22)
(1.00076 0.0269222 0)
(1.22433 0.0919348 -2.73502e-20)
(0.262705 0.0140914 7.72278e-20)
(1.03174 0.036178 5.92352e-22)
(0.922016 0.10601 8.92669e-23)
(1.02169 0.013407 -7.60612e-25)
(0.954539 0.0619265 0)
(1.05413 0.0100894 0)
(1.07852 -0.0194831 -4.25069e-21)
(0.49401 0.0087187 2.25103e-21)
(1.02187 0.000599534 0)
(0.718524 0.205124 5.327e-20)
(1.01621 0.0471655 3.00574e-21)
(1.00235 0.156051 -1.87269e-21)
(1.00556 0.018588 -4.74907e-21)
(1.07135 0.0613822 1.50229e-20)
(1.01997 0.0110849 -2.3748e-22)
(-0.0289758 -0.0236043 -4.21784e-20)
(1.22995 0.102146 1.00699e-19)
(-0.10165 0.0132632 0)
(0.46365 -0.0834508 7.61444e-20)
(1.10034 0.0861227 -8.61088e-21)
(0.465099 -0.068011 -4.17745e-20)
(0.85115 0.11442 -3.00462e-20)
(1.24282 -0.0268829 -7.97273e-20)
(0.992601 0.00136355 0)
(0.76746 -0.0372617 1.66043e-20)
(1.06493 0.0210876 -3.44089e-22)
(1.11341 0.0230506 1.52989e-21)
(1.19352 -0.0810354 4.07095e-20)
(1.14492 0.454985 -1.15793e-19)
(1.25462 0.184485 -1.0547e-20)
(0.986338 0.0399009 0)
(1.01488 0.00143398 0)
(1.01534 -0.0576553 0)
(1.13662 -0.0151998 5.27238e-20)
(1.05732 0.028646 6.01683e-21)
(1.01028 0.00537322 -2.64299e-22)
(1.01201 0.000182059 -7.67878e-22)
(1.09885 -0.00273783 0)
(1.00508 0.0133691 3.50396e-21)
(0.496401 -0.00471148 -3.27641e-20)
(0.229252 0.0236205 -3.72387e-20)
(-0.233205 -0.0155798 -4.64365e-20)
(0.63958 -0.0433926 -1.43139e-20)
(1.08207 -0.0283497 -8.60491e-21)
(1.11631 0.0263179 -2.55991e-20)
(1.07794 -0.0186998 8.28933e-22)
(0.326261 0.138301 2.55704e-20)
(1.00976 0.0598508 1.10811e-21)
(0.480652 -0.0220481 0)
(0.541163 -0.0717236 -1.72046e-20)
(0.921229 0.0945629 1.40443e-20)
(1.13547 -0.00991605 4.41948e-20)
(1.15076 0.0887788 -1.15338e-20)
(1.01823 0.0116845 -6.03576e-22)
(0.985403 -0.0253858 2.00993e-20)
(1.15714 0.112768 0)
(1.08024 -0.0734052 0)
(0.398953 -0.00246759 0)
(1.15034 -0.0857327 6.66569e-20)
(1.00114 0.700871 6.18031e-20)
(1.08113 0.0123109 9.03205e-21)
(1.02175 0.00100277 -1.24737e-22)
(1.20873 0.00865439 0)
(0.851528 0.112389 -3.70184e-20)
(1.08217 -0.0176235 -1.52185e-20)
(0.371376 0.0224293 -7.02074e-20)
(0.937237 -0.0682143 0)
(0.997534 0.163422 3.76021e-21)
(0.493563 -0.0607796 -1.66864e-20)
(1.05798 0.0338896 0)
(1.07581 -0.0252859 7.78968e-21)
(0.023821 -0.0411353 4.55817e-20)
(0.927927 0.113729 2.27783e-20)
(0.469588 0.00557665 0)
(1.19055 0.244692 1.57916e-20)
(1.10684 0.418454 3.36391e-20)
(1.05328 0.0205448 -1.07683e-20)
(1.21505 0.0110103 2.72747e-20)
(0.492429 0.00172253 6.3566e-21)
(1.11988 0.0187251 0)
(1.09801 0.00523425 0)
(1.12786 0.0187918 5.50795e-20)
(1.05409 0.0190368 1.33696e-20)
(0.992983 0.00117524 0)
(1.25239 -0.0273052 5.89913e-20)
(1.04276 0.00508185 -4.73686e-21)
(0.4826 -0.0833073 -8.11224e-20)
(1.03214 0.00963491 3.31614e-23)
(0.925131 0.0151956 -1.41655e-20)
(1.00595 0.055186 0)
(0.732464 -0.0819542 0)
(0.998858 0.00247648 4.21361e-23)
(0.984096 0.2605 0)
(1.0675 0.0596803 1.74046e-21)
(1.0144 0.0477389 -2.18532e-21)
(1.05543 0.0103473 0)
(1.039 -0.00615956 -5.76727e-22)
(-0.164344 -0.0129235 -5.55631e-20)
(-0.054071 -0.0307445 3.83101e-20)
(1.01089 0.00561844 1.75886e-21)
(0.788819 0.280096 0)
(0.947288 0.0236678 0)
(0.513024 0.00634028 5.17731e-22)
(1.0827 -0.0286552 0)
(1.00684 0.00016389 1.51472e-21)
(1.09835 0.00020309 -1.84223e-20)
(1.12777 -0.0579943 -3.44649e-20)
(1.16063 0.180787 7.12179e-20)
(0.56009 -0.0139893 4.46115e-21)
(0.97893 0.0177136 0)
(0.298572 -0.179561 0)
(0.236508 -0.0450752 -2.17787e-20)
(0.701325 -0.048 0)
(1.06604 -0.0390585 6.06598e-23)
(-0.135752 -0.023398 -1.30824e-19)
(0.947645 0.0411603 7.0046e-21)
(1.06028 -0.0106149 1.00831e-20)
(1.06114 -0.0154251 0)
(0.805893 0.300124 0)
(1.07735 -0.0273022 2.45291e-20)
(1.01277 0.0266323 -1.74304e-21)
(0.86484 0.206908 0)
(-0.0839954 -0.022384 8.7162e-21)
(1.15403 0.121547 2.20825e-20)
(1.01902 0.0111362 4.84507e-22)
(0.99105 0.00299295 1.86246e-21)
(0.659081 -0.0211394 1.47134e-20)
(0.999286 0.0039399 1.8431e-22)
(1.01078 0.00568339 5.84509e-22)
(1.01254 0.000349192 0)
(1.01505 0.0157497 -4.29161e-23)
(-0.183239 -0.0148052 -3.38552e-20)
(0.622282 -0.122669 -2.20688e-20)
(1.11781 0.0213674 -2.35641e-20)
(-0.169423 0.00325809 -2.85394e-20)
(1.07248 -0.0211259 -8.60466e-21)
(0.924582 0.523983 1.5723e-20)
(0.956728 0.0657158 1.58153e-22)
(-0.222471 -0.0168429 -2.10338e-20)
(0.99861 0.000900925 -1.00449e-22)
(1.0823 -0.0769575 -3.89593e-22)
(0.858819 -0.0979851 5.44112e-21)
(1.00413 0.0559718 9.3428e-22)
(0.998977 0.00718927 0)
(-0.22049 -0.0161854 0)
(0.139844 -0.00464319 -1.45206e-19)
(0.997175 0.00289375 -4.33618e-21)
(1.08009 0.0146117 7.85115e-21)
(1.07469 -0.0218843 0)
(1.05997 0.00341096 0)
(1.05989 -0.0531268 1.28623e-20)
(0.993356 0.00866631 0)
(1.00003 0.000277709 3.4138e-21)
(1.01435 0.00148069 -4.61586e-22)
(0.913962 0.100308 3.29183e-20)
(1.20167 0.00222376 0)
(0.927743 0.0529037 2.48422e-20)
(1.00519 0.00612827 -2.23162e-21)
(0.974088 0.00404908 -7.85055e-21)
(1.0586 0.411167 7.85096e-20)
(1.01174 0.0327666 -2.06262e-21)
(1.02705 0.0623785 1.56006e-21)
(0.991138 0.0030498 -1.91851e-21)
(1.07672 -0.0290522 0)
(0.98576 0.0524343 3.08962e-21)
(1.05928 0.00182287 0)
(1.00019 0.00669913 0)
(1.02021 0.0102308 1.41329e-22)
(1.00002 0.000304448 0)
(-0.147489 -0.0200507 1.95719e-20)
(0.728348 -0.0374935 -2.31989e-20)
(1.0631 -0.0421937 1.00861e-20)
(0.263897 -0.0637544 0)
(0.493393 -0.0291572 -7.91591e-21)
(1.05836 0.176249 -1.10779e-20)
(0.996158 0.00129869 -5.02228e-21)
(0.273672 -0.180506 1.56668e-20)
(0.983535 -0.00144921 -3.50399e-21)
(0.928874 0.0522838 1.8305e-20)
(1.15773 0.0834145 -4.32046e-20)
(1.01442 0.133431 -4.05491e-22)
(1.09956 0.0801093 0)
(0.986104 0.0995013 1.7412e-20)
(0.974356 0.684086 9.9795e-20)
(1.01171 0.100097 -1.13875e-21)
(0.986158 0.0403774 -1.00915e-20)
(1.00097 0.0104148 0)
(0.996602 -0.00236952 -6.74882e-21)
(1.30075 0.137066 0)
(1.05299 0.00513577 6.22669e-21)
(1.05863 0.0267274 2.95109e-22)
(1.05374 0.00338611 -5.97236e-21)
(0.949813 0.0188672 1.0718e-20)
(1.1023 0.091454 1.31134e-20)
(1.05879 -0.0478679 0)
(1.0211 0.0129374 -3.42691e-23)
(1.09899 -0.0800499 0)
(1.03513 0.0219979 2.72412e-21)
(1.07694 -0.0284597 9.7103e-21)
(0.980508 0.26874 0)
(1.08331 -0.0341171 1.47183e-20)
(1.0208 0.0011512 0)
(0.997378 0.0027837 3.96819e-21)
(1.0206 0.306517 1.41641e-21)
(1.00489 0.00597895 2.36587e-21)
(1.06185 0.369222 0)
(0.602174 -0.0550186 0)
(0.99959 0.0015279 -1.03316e-20)
(1.03152 0.00999286 0)
(0.979478 0.0157633 0)
(1.06997 -0.0219958 -1.6878e-20)
(0.913634 -0.0984172 1.0712e-20)
(-0.168252 -0.0199421 3.62677e-20)
(1.02511 0.0794503 -6.05035e-22)
(1.07316 -0.0269348 0)
(1.02068 0.00157486 -3.13582e-23)
(0.403113 -0.0525493 0)
(0.594985 -0.0503798 0)
(1.00001 0.000178876 -6.13063e-21)
(0.825596 0.854875 3.13878e-20)
(1.01224 0.086214 2.07436e-21)
(0.986567 0.0520691 5.58773e-21)
(0.995795 -0.00111233 9.96408e-21)
(1.04928 0.0450643 3.36886e-22)
(0.995618 -0.00127587 -8.09777e-21)
(1.0867 -0.0518062 0)
(0.999675 0.00145882 1.1951e-20)
(0.99992 -9.48174e-05 -1.19407e-20)
(-0.128986 0.00703242 2.64807e-20)
(1.15254 0.0190106 4.94362e-20)
(0.993564 0.0080947 0)
(1.14579 -0.0853479 -4.04724e-20)
(1.00024 0.00648366 0)
(0.10294 -0.0166663 -4.13369e-23)
(1.04883 -0.00387297 0)
(1.02707 0.00955324 -1.15277e-22)
(1.01009 0.0270721 -2.06822e-21)
(1.01777 0.0119993 0)
(0.780111 0.218034 1.94191e-20)
(1.00074 0.0107518 0)
(1.02037 0.0107974 -2.43148e-22)
(1.11905 0.0506535 3.20052e-21)
(1.055 0.0387962 6.79232e-21)
(1.03651 -0.0399136 3.76763e-21)
(1.13114 0.0212443 -1.67004e-20)
(1.02027 0.00121572 -3.83646e-22)
(-0.00247154 0.0329258 0)
(1.10363 -0.0245201 0)
(1.06946 -0.0171836 -4.04009e-21)
(0.999739 0.00150388 0)
(1.04552 0.0201616 -6.28433e-21)
(0.998718 0.00108012 -1.26467e-20)
(0.998902 0.00162752 3.15945e-21)
(1.06134 0.0651167 1.2196e-20)
(0.995666 0.0131556 0)
(1.01615 0.0587298 -3.13674e-22)
(1.0773 -0.0268994 -3.21475e-20)
(1.01408 0.131935 0)
(1.15154 0.173841 -9.41538e-22)
(1.08355 -0.0390453 2.46639e-20)
(0.948787 0.0593223 2.67483e-20)
(1.15309 0.0950864 2.60137e-20)
(1.15862 0.0654263 6.99218e-20)
(0.197311 -0.010173 3.597e-20)
(1.0087 0.000483775 3.77702e-22)
(0.468436 -0.0824393 -8.52745e-21)
(1.02482 0.323889 0)
(0.978665 0.0171129 4.32408e-21)
(0.646813 -0.112729 0)
(1.04376 0.00352364 -2.99746e-21)
(1.0095 0.0269595 4.03825e-21)
(-0.218281 -0.00784984 -1.02344e-19)
(0.977523 0.021206 -1.08418e-20)
(0.988834 0.017218 -1.62836e-21)
(0.553446 0.00389427 0)
(1.06876 -0.0176324 7.8046e-23)
(1.05438 0.0135508 0)
(1.04682 0.0159011 -6.34523e-21)
(1.02057 0.00998493 -5.70836e-23)
(0.869961 0.0642232 0)
(1.00592 0.0175351 0)
(1.03805 0.0148712 4.07968e-21)
(0.170306 -0.0298084 3.50144e-22)
(0.20957 -0.00860046 -5.99354e-21)
(0.986648 0.0362633 -8.7719e-21)
(0.982469 0.036751 -5.3742e-21)
(0.5618 -0.035266 0)
(1.05122 0.0459436 -1.86478e-21)
(1.03621 0.0232414 3.26847e-21)
(1.0535 0.00919162 0)
(1.04616 0.672837 -1.00046e-19)
(1.0364 0.0331994 -2.79219e-21)
(1.00142 0.0107188 -4.35979e-21)
(0.705938 0.788397 -1.85978e-21)
(-0.0599788 -0.0304488 -1.48799e-20)
(1.02055 0.00733031 -2.8009e-24)
(1.15533 0.0125281 -5.29815e-20)
(0.989598 0.0166791 2.5454e-21)
(1.04621 0.0153187 6.96008e-21)
(1.221 0.0835865 -5.72775e-20)
(0.523526 -0.0886541 8.57016e-21)
(1.06527 -0.0374742 -4.73421e-22)
(1.0124 9.83202e-05 8.36901e-22)
(1.01239 0.0271753 -2.04317e-21)
(1.27415 0.0706271 0)
(1.0362 0.033316 5.00648e-21)
(1.09843 -0.077053 1.77971e-20)
(1.04646 0.0189609 7.21008e-21)
(1.00372 0.0117061 0)
(0.980619 0.0168102 0)
(-0.179761 -0.0129732 0)
(0.976124 0.00624171 -8.37727e-21)
(1.10003 -0.0319209 0)
(1.01201 0.00049541 1.57565e-21)
(0.872108 0.491572 0)
(0.869155 -0.0771005 1.18742e-20)
(1.03712 0.318967 -4.00861e-20)
(1.07444 -0.0382734 1.09992e-20)
(0.995146 0.0124498 -3.26829e-21)
(1.03177 0.62207 9.22761e-20)
(1.04091 0.00791297 2.48525e-22)
(0.407602 -0.0449219 1.94313e-20)
(0.544813 0.00675406 0)
(1.02378 0.00159655 2.62808e-23)
(1.00002 0.000212249 0)
(1.0449 -0.038722 3.35881e-21)
(1.0943 -0.0200639 1.1234e-20)
(0.999061 0.109321 0)
(1.05643 0.0590902 -4.41191e-21)
(1.00966 0.00978683 2.07092e-21)
(0.502975 -0.0419605 3.16634e-20)
(0.990739 0.0136 1.47678e-20)
(1.121 -0.104133 1.66472e-20)
(0.972728 0.00407431 1.70707e-20)
(1.05607 0.0111328 0)
(1.02649 0.0097115 -3.86061e-22)
(1.07909 0.294135 3.46785e-21)
(0.99393 0.00535679 -6.30294e-21)
(1.07271 -0.0202758 8.28176e-21)
(-0.0399693 -0.0191211 3.64973e-20)
(0.548834 -0.0466919 -6.23504e-20)
(0.998417 0.0119802 0)
(1.11717 0.0457958 3.41749e-21)
(0.99837 0.0118039 -4.91512e-21)
(1.04901 -0.00476813 3.53779e-23)
(1.07608 0.318164 -1.04219e-20)
(1.10166 -0.0313342 0)
(-0.243457 -0.00799739 3.11182e-20)
(1.02004 0.00157341 3.43956e-22)
(0.695612 0.288648 -1.04248e-19)
(-0.225406 -0.00804191 3.10544e-20)
(1.00665 0.0139479 0)
(1.08738 -0.0473407 0)
(0.998894 0.00711674 5.28151e-21)
(0.739402 0.832808 0)
(1.07384 -0.0379015 0)
(1.04497 0.0218487 4.63772e-21)
(0.472149 -0.0444925 6.64779e-20)
(0.995724 -0.00163167 -3.92626e-21)
(0.775638 0.297572 0)
(0.583136 -0.0118823 -1.01435e-20)
(1.12252 0.0457014 3.98565e-21)
(1.0079 0.00614815 -3.73372e-22)
(0.998836 7.64266e-05 -3.68372e-21)
(0.978051 0.0191605 8.92495e-21)
(0.928202 0.0447078 5.05356e-21)
(1.01252 0.000109732 8.25341e-22)
(1.0623 0.0138308 -4.351e-21)
(1.02099 0.032965 0)
(1.02763 0.00200393 -1.13183e-21)
(0.234037 -0.0154249 1.20865e-20)
(1.01318 0.0162732 0)
(1.07277 -0.0211021 -8.49739e-21)
(1.00001 0.000171102 -1.95263e-22)
(1.00681 0.0137589 0)
(0.181762 -0.0111076 -2.56532e-20)
(-0.0970928 -0.0258663 3.2181e-20)
(1.06528 -0.053294 0)
(1.01264 0.016188 -2.17049e-21)
(0.410729 -0.0381706 0)
(1.00507 0.0130198 -3.50407e-21)
(1.05341 0.0214749 -9.99779e-21)
(1.00971 0.00955082 2.63859e-21)
(1.03794 -0.00337736 -3.13777e-21)
(1.14813 0.489061 7.58757e-20)
(0.933861 -0.0960335 -5.43417e-21)
(1.00166 0.0183844 2.64256e-21)
(1.01004 0.00492103 2.11507e-21)
(1.09309 -0.0192665 1.2796e-20)
(1.01857 0.00402682 4.97702e-22)
(1.03872 -0.00422896 -3.64735e-21)
(1.07832 -0.0308443 -1.99678e-20)
(0.990757 0.00219324 0)
(0.998938 -0.001785 0)
(1.01878 0.00426864 -2.47791e-22)
(0.990667 0.00230713 2.05329e-21)
(1.04933 -0.00261826 0)
(1.00005 0.00980084 3.37875e-21)
(1.20617 0.00197164 -3.0432e-20)
(1.04557 0.020433 -6.7791e-21)
(0.993703 0.0108162 0)
(0.862414 0.18988 1.25316e-21)
(0.971657 0.0407765 0)
(0.295447 -0.00263046 1.10592e-20)
(1.09789 -0.0656979 -3.36214e-20)
(1.00196 0.0545587 -2.85572e-21)
(0.999156 0.00433194 -1.6227e-21)
(1.05251 0.0226319 1.44548e-20)
(1.07376 0.184976 0)
(1.00291 0.00882508 -3.16459e-21)
(1.08985 0.0857299 -1.36412e-20)
(1.01455 0.00155249 0)
(0.999963 -8.67864e-05 6.00395e-21)
(0.557855 -0.0103725 2.81978e-21)
(0.548356 -0.0854924 4.94275e-21)
(1.00401 0.0275872 -2.04999e-21)
(0.998965 0.00222684 0)
(1.03784 0.0320963 -2.91914e-21)
(1.01004 0.00596176 -3.17294e-21)
(1.0495 -0.00314255 0)
(0.187155 -0.0155899 2.85144e-20)
(0.700394 -0.0207647 -9.03203e-21)
(1.07635 -0.0310105 -3.32343e-20)
(0.941895 0.0844799 2.19045e-20)
(1.19085 0.096127 -1.9259e-22)
(1.03549 0.0198065 -3.04136e-21)
(1.09544 -0.00851214 1.05348e-20)
(1.05122 0.0707916 0)
(1.1317 -0.000405103 4.38884e-21)
(0.835996 0.098397 0)
(0.480167 -0.0263931 1.81861e-20)
(1.00119 0.0108268 9.574e-21)
(0.998834 0.00538197 -6.35983e-21)
(0.301704 -0.00638859 0)
(1.00274 0.0117263 3.15578e-21)
(1.01868 0.00619544 0)
(-0.140405 -0.0132598 -4.39923e-20)
(1.02711 0.00189618 -1.89199e-21)
(0.281727 -0.020466 1.37425e-21)
(1.01414 0.0578952 1.3007e-21)
(1.00004 0.000410174 -8.55491e-22)
(1.01895 0.00570685 0)
(0.995562 -0.0018327 -2.58402e-21)
(1.08811 0.329369 0)
(0.269105 0.0297739 1.46518e-19)
(1.10173 0.00445397 1.0969e-20)
(1.01183 0.0165919 -2.96295e-21)
(0.972391 0.0390347 2.07104e-20)
(0.999867 0.00664506 3.32281e-21)
(1.10313 0.0604768 1.19931e-20)
(-0.0597368 0.0203034 0)
(0.946375 0.0227096 3.04522e-20)
(1.26982 0.0962725 0)
(0.998964 -0.000385304 -1.66743e-21)
(0.995575 0.0153128 4.56414e-21)
(1.03743 -0.00495053 0)
(1.01094 0.0326939 2.75503e-21)
(1.00972 0.00513577 0)
(1.02083 0.160131 3.12939e-21)
(0.977031 0.00501486 0)
(1.09955 -0.0644387 4.37456e-20)
(1.2072 -0.0198012 6.33422e-20)
(1.11882 0.00273476 0)
(0.964513 -0.00407901 2.93631e-20)
(1.01941 0.00151152 7.85844e-23)
(1.00002 0.000279629 1.22274e-21)
(1.13187 0.0396832 0)
(0.994188 0.00494718 1.12005e-20)
(0.111292 -0.0221946 -1.63019e-20)
(0.871373 0.065213 -1.96513e-20)
(1.04405 0.00238239 8.67454e-22)
(1.07027 0.178082 0)
(1.1197 0.00261592 0)
(-0.258962 -0.0143641 0)
(1.01235 0.00653733 0)
(-0.20045 -0.0120671 0)
(0.998296 0.00110715 -6.83639e-21)
(-0.141408 -0.0229883 -4.08588e-20)
(0.948889 0.0491243 0)
(1.01505 -0.0202971 3.34337e-20)
(1.01914 0.160179 -9.30983e-22)
(1.00166 -0.0597562 1.98582e-20)
(1.06311 0.0639888 1.09116e-20)
(0.999971 0.000214714 4.71894e-21)
(1.07999 0.0152828 0)
(1.06047 0.0689354 -5.77522e-21)
(0.990441 0.00134327 4.33778e-21)
(0.621251 -0.0183552 2.00969e-20)
(0.290567 -0.0601784 0)
(1.06455 -0.00202264 0)
(1.04315 0.0392016 0)
(1.00951 0.00473023 0)
(1.07729 -0.0338078 -1.84058e-20)
(0.975895 0.0193977 -9.84476e-21)
(1.01155 0.00650116 -2.36277e-21)
(0.873143 0.503129 -3.05654e-21)
(0.967373 0.0358532 -1.8457e-20)
(1.07642 -0.0318226 3.23382e-20)
(0.993579 -0.0604425 -6.68103e-21)
(1.01209 0.00666678 0)
(1.12977 -0.0579777 3.25565e-20)
(0.998966 6.03865e-05 0)
(0.997139 0.00405187 1.4054e-20)
(1.25344 -0.0119847 -5.99155e-20)
(1.13287 0.0380586 0)
(1.00002 0.00017761 3.36056e-21)
(1.1898 0.222644 1.33698e-20)
(0.998585 0.00146112 -6.32242e-21)
(1.09396 -0.00687367 0)
(1.2652 0.0872238 -4.44104e-20)
(-0.189787 -0.00864862 5.0144e-20)
(0.542214 0.00499493 0)
(0.207254 -0.0144521 0)
(0.521939 -0.0683352 2.15028e-20)
(1.06643 -0.0187985 -4.79611e-21)
(1.18027 0.222407 0)
(0.996917 -0.0023646 -3.92525e-21)
(1.07859 0.0171432 2.25114e-21)
(1.0329 0.62216 -3.24408e-20)
(-0.0343671 -0.00901171 0)
(1.0144 0.0908891 -1.25864e-21)
(1.1004 0.00229314 5.73114e-21)
(0.559438 -0.00909232 -9.01211e-21)
(0.693024 -0.0512981 4.56147e-22)
(0.668639 0.156978 -4.49631e-20)
(1.25571 0.184049 6.01176e-20)
(0.714747 -0.0986568 1.5884e-20)
(1.00362 0.0281987 4.36492e-21)
(0.993866 0.0101674 0)
(0.994211 0.261834 9.19991e-23)
(1.00213 0.0116977 -3.31431e-21)
(-0.121199 -0.0186875 2.26705e-20)
(1.09372 0.0824777 -1.57779e-20)
(1.03964 0.017571 -5.40422e-22)
(0.907593 0.46281 -1.93258e-21)
(1.0665 -0.0177769 -9.43599e-21)
(1.03846 -0.00557357 6.91976e-22)
(1.00268 0.0537586 7.93615e-21)
(1.01181 0.00640373 -1.25688e-21)
(0.999963 0.000216226 -9.73608e-21)
(1.00543 0.0136613 -3.62333e-21)
(1.07139 -0.0310161 0)
(1.02565 0.0791094 1.07585e-21)
(1.00508 0.00113484 -1.7051e-21)
(0.158735 -0.0300464 -1.7564e-20)
(1.00007 0.00678743 -5.54517e-22)
(1.01594 0.197681 -1.14939e-21)
(1.11825 0.0233893 2.67439e-20)
(1.07069 -0.0218526 1.36484e-20)
(1.03893 0.0150429 1.06447e-21)
(1.00962 -0.0218552 -4.09495e-20)
(1.04003 0.00833448 1.72923e-22)
(1.0121 0.000130513 5.63776e-22)
(1.0416 0.0395655 0)
(0.64479 -0.0902751 -4.48237e-21)
(1.10158 0.0586803 2.09088e-20)
(1.00488 0.00114765 -1.62502e-21)
(0.997086 0.00391463 3.54712e-23)
(1.00003 0.00037465 -4.53602e-21)
(1.11187 0.0274822 -1.42375e-21)
(0.993063 0.000287773 8.2651e-21)
(0.212084 0.0477773 5.2385e-20)
(1.08138 0.299135 -1.43842e-20)
(0.732759 -0.0353768 0)
(-0.287402 -0.00843549 0)
(1.0371 -0.00387494 4.77706e-21)
(1.18625 0.0936597 0)
(1.07686 -0.027637 -1.7052e-20)
(1.00103 0.00750402 -3.18789e-21)
(1.04661 0.0134673 -6.68601e-21)
(0.997894 0.0111677 0)
(0.983418 0.023105 0)
(0.315584 0.0594707 -1.12722e-19)
(0.998681 0.00179449 0)
(1.01382 0.00588462 0)
(1.04653 0.0476314 4.66783e-21)
(1.00515 0.262792 3.8392e-21)
(1.03399 0.0258388 -2.71061e-21)
(0.292528 -0.0254974 0)
(1.0508 -0.0340816 2.02747e-20)
(1.00178 0.127149 -8.0763e-22)
(0.941868 0.0774872 0)
(1.00786 0.0101693 5.26789e-22)
(1.00155 0.00532705 5.30587e-21)
(1.24533 0.256153 0)
(1.00001 0.000143854 -3.47114e-21)
(0.965077 0.0331018 -4.07713e-21)
(1.03823 -0.00733763 2.94893e-21)
(0.993018 0.000111224 0)
(1.01864 0.00460205 -7.74081e-23)
(0.99531 0.00268496 1.33113e-20)
(0.565233 0.0898709 0)
(0.563769 -0.066103 1.20457e-19)
(0.974942 0.00436261 7.33127e-21)
(1.01257 0.0467769 2.57605e-21)
(1.17879 0.259582 0)
(1.23568 -0.0230812 -2.60674e-20)
(1.01967 0.00116434 -9.04725e-23)
(1.01571 0.0124782 0)
(1.01203 0.000103791 8.26604e-22)
(1.06314 0.0608364 0)
(0.742598 -0.0341928 -7.28482e-21)
(1.07406 -0.036193 -4.14165e-20)
(1.13686 0.152966 3.44864e-20)
(-0.225725 -0.0109153 -1.18402e-22)
(1.00663 0.026921 0)
(1.00082 0.203715 0)
(0.984424 -0.00345667 0)
(1.06644 -0.00286349 0)
(0.923523 0.0161581 1.64832e-20)
(1.25365 0.245814 0)
(1.08219 -0.0322863 0)
(1.00801 0.0269864 0)
(0.553119 0.000139966 4.66916e-20)
(1.02651 0.0076588 0)
(0.948538 0.0156782 -1.0509e-20)
(0.913334 0.0872378 -3.23183e-20)
(0.995941 0.0150392 0)
(1.00633 0.00570901 2.28236e-21)
(1.00969 0.208755 0)
(1.09199 -0.00748199 0)
(1.00769 0.0128504 0)
(1.11129 -5.21857e-05 1.2242e-20)
(0.662438 -0.0777668 0)
(1.22488 0.0894206 -4.80953e-22)
(1.08662 -0.048098 1.54203e-20)
(1.15123 0.0765107 -2.45057e-20)
(0.997224 0.00351445 0)
(0.996967 0.0233735 -5.37838e-21)
(1.02 0.00814902 6.36216e-23)
(1.00158 0.00144879 3.80369e-21)
(0.487039 -0.0791888 -2.26355e-20)
(0.53342 0.00743778 0)
(1.15032 0.0878938 3.3775e-20)
(0.96592 0.0678452 6.83855e-21)
(0.984639 -0.00208175 -9.27961e-21)
(1.06902 -0.0323044 -2.44529e-22)
(1.00068 0.000890267 0)
(-0.121845 0.0151655 -7.16234e-20)
(0.995178 0.00249524 -1.55582e-20)
(1.00821 0.0101174 1.70439e-21)
(1.07378 -0.0394438 0)
(1.01444 0.00737104 9.51792e-22)
(1.06313 -0.00863935 0)
(1.18375 0.202425 0)
(1.02815 0.0119577 1.07975e-21)
(0.999966 0.000410805 -4.39133e-21)
(1.00151 0.0172948 0)
(1.05557 0.00696328 -1.09362e-20)
(1.07859 -0.0302165 -8.10131e-21)
(0.467961 0.0286124 0)
(0.676824 -0.0687753 -3.94423e-20)
(1.02079 0.00902807 0)
(1.04836 0.0474529 0)
(0.998862 0.00512411 0)
(1.12685 -0.108025 -1.42977e-20)
(1.11442 0.274928 2.15195e-21)
(1.02422 0.0013162 -1.6433e-21)
(1.04887 0.000301902 8.43281e-21)
(0.981336 0.0156576 -4.00663e-21)
(0.926647 0.0461765 -5.40713e-21)
(1.07491 -0.0243547 -7.30095e-21)
(1.02677 0.00155806 -3.04768e-21)
(-0.231889 -0.0146108 0)
(1.1038 -0.0232395 0)
(1.00002 0.000251443 5.49715e-21)
(0.50454 0.00661813 3.62129e-21)
(1.0891 -0.030554 8.38796e-21)
(0.991331 0.0118787 9.74137e-21)
(0.609074 -0.0768563 -9.47916e-21)
(1.00071 0.00084324 4.06217e-21)
(1.01884 0.00474289 3.36963e-22)
(-0.10116 0.0094674 2.61208e-20)
(1.29802 0.131886 3.17616e-20)
(1.05346 0.0064752 2.47126e-21)
(1.17591 -0.0754643 0)
(1.01615 0.0121581 -1.12712e-21)
(1.13976 -0.0778156 -7.36643e-21)
(0.999662 0.00154019 -2.19838e-21)
(1.00737 0.0010458 4.04079e-21)
(1.03876 -0.00405264 1.75898e-21)
(1.01217 0.000384365 5.1131e-22)
(1.01333 0.0825903 -1.46661e-21)
(1.00594 0.00639252 -2.24998e-21)
(1.06219 0.0683206 -1.27046e-20)
(1.02689 0.00137866 9.95361e-22)
(1.28141 0.0971107 5.31007e-20)
(1.08473 -0.0739709 2.134e-20)
(1.13296 -0.00476379 0)
(0.997364 0.00729868 6.99626e-22)
(1.08239 -0.0409611 -2.67071e-20)
(1.12608 0.150207 -1.0828e-21)
(1.08244 -0.0278427 2.29922e-20)
(0.998441 0.001246 6.68162e-21)
(0.985172 0.0370921 9.35389e-21)
(1.118 0.439245 0)
(1.00596 0.018267 -5.53307e-22)
(1.01481 0.0126529 -1.60679e-21)
(1.10092 0.084713 0)
(1.07578 -0.0287829 1.28146e-20)
(1.01849 0.00353636 0)
(0.916415 0.027234 0)
(0.997593 0.00744682 -7.14377e-22)
(1.07942 -0.00970032 -2.9588e-21)
(0.0500319 -0.0418018 2.10745e-20)
(0.99597 -2.96728e-05 -5.02127e-21)
(1.0142 0.00789258 1.97332e-21)
(1.01701 0.00780954 0)
(1.15606 0.0786489 0)
(1.00393 0.00561072 -6.27566e-22)
(0.999912 0.00045366 5.725e-21)
(0.99991 0.00043435 -5.40074e-21)
(1.16198 0.0198176 -1.45382e-20)
(1.00299 0.012719 3.52568e-21)
(1.0151 0.016856 1.895e-21)
(1.00564 0.00630817 2.37586e-21)
(1.06864 -0.0187753 -1.46412e-20)
(1.03804 -0.00251506 -1.76364e-21)
(0.982913 -0.00132439 -3.65565e-21)
(1.1376 -0.0755981 1.8036e-20)
(0.98788 0.0162952 3.171e-21)
(-0.277046 -0.0087352 3.61315e-20)
(1.03609 0.0436881 3.90379e-21)
(0.994532 0.00587104 6.62724e-21)
(-0.165377 -0.0196225 3.71592e-20)