/*--------------------------------*- C++ -*----------------------------------*\
| =========                 |                                                 |
| \\      /  F ield         | OpenFOAM: The Open Source CFD Toolbox           |
|  \\    /   O peration     | Version:  v2012                                 |
|   \\  /    A nd           | Website:  www.openfoam.com                      |
|    \\/     M anipulation  |                                                 |
\*---------------------------------------------------------------------------*/
FoamFile
{
    version     2.0;
    format      ascii;
    class       volScalarField;
    location    "300";
    object      ddt0(k);
}
// * * * * * * * * * * * * * * * * * * * * * * * * * * * * * * * * * * * * * //

dimensions      [0 2 -3 0 0 0 0];


internalField   nonuniform List<scalar> 
18598
(
-0.0175386
8.07757e-05
-3.20326e-05
-6.18952e-06
-1.70945e-06
1.63237e-07
-0.0369854
-1.38366e-08
-1.96864e-08
4.70183e-06
-1.91486e-08
-5.75543e-05
4.28708e-08
-0.0455423
-0.00428128
-3.29444e-05
2.00334e-06
-0.00144257
0.00236145
0.00111883
-9.36342e-05
-4.32727e-08
9.93071e-06
7.91665e-09
-4.20487e-08
0.00211599
-2.16932e-08
-0.00620654
4.98183e-08
-4.31572e-08
-0.015028
-1.17681e-08
5.75811e-05
-2.16877e-08
-0.00259814
5.38025e-08
4.63349e-07
-4.36733e-08
-2.89207e-06
0.000135294
-0.00495599
-3.12227e-08
5.23715e-08
-2.79509e-06
4.96568e-08
-0.0360578
-4.56467e-09
0.000895602
-2.80163e-06
-2.80524e-08
2.36036e-05
-9.48676e-08
-4.06213e-07
0.000817914
2.24017e-08
5.08813e-08
-0.00307462
-3.51279e-05
0.0207165
-0.00291851
4.6249e-07
-1.10178e-07
-1.48513e-08
4.32742e-05
-2.35126e-06
1.51767e-06
-8.32671e-07
1.2527e-06
-3.75408e-09
0.0008315
3.48357e-07
-1.00706e-09
-3.70592e-09
3.99677e-08
7.38211e-09
-7.65346e-09
4.06378e-07
-2.4255e-07
-2.971e-07
-1.12133e-06
-6.1722e-08
-1.34716e-07
6.17685e-08
-4.90414e-08
-1.46104e-09
-3.76733e-08
2.87039e-09
0.000871957
-0.00820533
-0.0132447
4.12557e-07
-8.41945e-07
-1.18753e-09
2.08179e-07
3.25418e-09
8.33353e-08
-1.44901e-06
-0.00041051
7.52962e-06
-1.04088e-06
-0.00308942
-0.0019353
0.000442463
0.00125272
-0.00467704
-6.75915e-06
1.63606e-05
6.37928e-06
-2.00611e-08
0.0035999
-6.43647e-05
-5.75275e-09
8.85663e-06
-4.91829e-05
-5.08537e-09
0.00190591
-9.15572e-07
-1.23983e-08
-4.16728e-05
-2.88157e-09
0.00126603
4.57805e-05
-0.000390429
4.97257e-08
8.21458e-09
-0.0103473
0.00964781
-3.55633e-09
-3.13251e-08
-0.0168857
5.89376e-05
-0.0112744
-8.22911e-06
5.17795e-07
-2.79166e-06
-3.12964e-06
-2.09065e-08
2.29743e-08
1.41701e-08
0.00755541
-3.97728e-07
-2.95008e-08
1.59644e-06
-0.0114871
2.94371e-06
-3.66648e-08
-0.00683697
-2.24513e-08
-0.00200335
-3.18668e-08
2.14568e-09
0.02622
-1.05452e-05
0.000723775
1.22108e-06
2.82454e-07
-1.21993e-05
0.000305667
5.59561e-08
-2.18184e-08
-5.11664e-06
-0.00142702
1.29389e-05
-3.03006e-08
0.000960825
-0.0071626
1.73475e-05
-1.95507e-08
5.15368e-08
1.03336e-08
9.76457e-08
7.92754e-06
0.00139289
-9.44984e-05
0.00138304
0.00257994
1.44324e-05
7.57926e-05
1.01706e-08
2.05721e-08
-0.00910499
-1.10852e-08
5.33032e-07
-0.0276253
-2.28411e-09
-5.78995e-07
0.00629504
-2.60758e-08
1.52323e-06
-0.00905808
-3.68384e-06
-8.23346e-07
-4.1928e-09
-0.00350149
2.38264e-05
8.96119e-06
-2.40067e-08
1.89718e-05
-1.81845e-08
-0.0214896
3.50265e-06
-1.57502e-07
8.82745e-06
9.76827e-06
1.80777e-05
2.11024e-08
-2.59826e-08
-4.00825e-08
4.30669e-06
0.0106769
-3.26625e-08
-2.08289e-08
-2.40148e-07
4.40364e-06
-0.00748062
9.45835e-07
0.0318478
0.000725757
-3.95476e-06
-1.2073e-08
0.000626791
7.66889e-06
-0.011011
-1.25792e-08
-2.23659e-07
6.45645e-06
-2.08511e-06
0.0240735
-1.27887e-06
-1.48332e-08
4.95107e-06
-0.0143464
-2.62545e-07
1.24114e-06
-4.31435e-08
-2.12332e-08
-6.74923e-08
-1.75613e-05
-8.35102e-09
-1.41401e-05
1.54247e-08
-6.33107e-09
-1.12179e-06
1.85678e-07
-9.40767e-09
3.74997e-08
-8.74637e-08
-1.58808e-07
-4.46262e-09
-2.50983e-09
-0.00131505
1.49801e-07
-0.0172931
9.62596e-05
1.11227e-08
-1.68551e-07
1.40639e-08
-0.000367541
9.20889e-09
0.00706431
4.10729e-09
-1.90892e-08
-0.00187822
2.49436e-07
1.82616e-08
-0.000200375
4.51491e-09
4.36364e-08
4.85064e-08
-4.13566e-05
1.19992e-08
1.35618e-07
-0.0268331
-2.52509e-09
-6.19298e-07
0.0151299
-4.63369e-08
0.00133818
0.000703002
-0.00225346
5.7978e-06
2.20321e-05
3.11825e-07
1.39571e-05
0.00869348
2.87504e-05
0.000209393
1.57688e-07
0.00502965
9.28513e-05
2.77145e-08
5.44557e-05
-1.84784e-08
-1.10866e-05
-0.0151943
-5.41721e-07
-0.00600606
-4.28406e-07
-8.68323e-10
0.00135373
1.13035e-07
-1.39225e-08
-0.011878
-1.44809e-06
4.19723e-08
-0.00652797
2.97806e-08
-1.0852e-07
9.35423e-07
3.94477e-08
-2.3634e-07
-1.05871e-09
-0.00230236
-6.76387e-08
-1.00503e-07
0.00734468
-7.18103e-07
5.5063e-08
-0.00170184
5.98351e-09
2.95373e-06
-5.29022e-09
-1.02179e-08
-4.83802e-09
0.00117823
0.000741999
-5.08501e-07
1.7509e-05
-6.03131e-08
0.000480249
-1.7221e-08
0.0220359
-1.36824e-08
-0.00715448
9.59455e-09
0.00154331
-2.83877e-08
9.0448e-07
-0.000654323
3.21595e-08
-3.71131e-06
-7.9764e-09
-0.0129443
3.61944e-07
-1.27612e-05
5.7812e-08
3.59903e-08
-0.00224185
-0.0120148
-0.043641
-2.64698e-07
6.79343e-06
-1.97547e-07
-0.0252953
-0.0129702
-2.90026e-07
0.0207582
0.00339412
9.23154e-05
5.45991e-07
2.39801e-05
-0.00716966
-3.3478e-05
-3.46654e-07
0.00804397
1.71431e-08
-0.0437772
5.91796e-08
-0.00782935
1.75519e-09
-2.94834e-07
1.52983e-06
1.82464e-08
-1.50474e-09
-0.0128078
1.52948e-08
-6.5578e-08
4.94768e-08
2.56604e-08
-9.33601e-07
6.86533e-07
0.000671421
6.34964e-05
1.50801e-10
-9.7654e-07
9.89596e-06
-1.19187e-06
-8.90546e-08
-0.000114525
6.68393e-07
5.67937e-08
0.00101479
5.99576e-07
-0.000331023
-7.93527e-06
-5.95121e-08
3.70079e-08
-0.000468093
0.000370418
4.79703e-08
5.84005e-08
-2.03271e-07
-2.58504e-08
1.40328e-06
6.38373e-06
-0.00317539
1.52925e-07
-0.00690856
-2.58565e-08
0.000551061
6.86818e-06
1.60277e-09
-0.0178583
-0.00691405
0.00145948
-1.89698e-06
-2.54857e-05
-2.82252e-06
-0.00247789
4.34281e-06
-1.78883e-08
5.53511e-08
-1.49274e-10
5.17447e-08
-0.00103566
5.03048e-06
-0.00366018
-1.21748e-08
1.52272e-08
-2.41986e-07
-9.47508e-07
2.96953e-08
1.70062e-08
4.26792e-07
1.83591e-05
2.74237e-08
1.76824e-08
5.0129e-08
1.5113e-08
-2.86637e-09
4.62429e-08
-1.09352e-08
-0.000935311
-1.72274e-05
-4.75488e-10
2.46973e-06
-7.83531e-07
-2.033e-08
-8.33604e-06
0.0146474
-2.4657e-08
-4.03245e-09
2.25269e-07
0.01538
9.34704e-08
-1.50403e-08
-4.71743e-08
1.71461e-08
-3.90081e-07
-9.23765e-09
-0.0254512
-7.68829e-09
-2.80257e-07
1.71788e-08
-1.54597e-08
-3.34919e-07
-4.46807e-07
0.00771691
8.40179e-09
-9.03265e-09
1.04791e-10
-8.20203e-09
-1.16453e-08
1.21771e-06
0.000148456
7.15091e-08
-3.62619e-07
-1.44611e-08
-1.40479e-07
-2.5285e-07
3.38753e-06
-2.11538e-07
-6.0245e-07
5.47779e-08
-1.81702e-08
-0.00325942
-2.21612e-06
-1.52627e-08
-4.18304e-05
-0.000201659
0.00228127
0.00753042
4.82374e-06
1.12525e-09
-0.000875443
0.000175821
-7.16925e-10
7.39887e-08
-0.00210966
-3.96725e-06
0.00277196
3.85358e-05
-6.96743e-07
-0.0042918
-8.18643e-08
-1.48108e-08
-2.1479e-08
1.20302e-08
-0.0211552
6.77113e-07
0.000939454
2.16674e-06
-2.34963e-08
0.00793498
-0.00231625
-0.000182825
0.00288804
0.00440026
-2.02592e-08
-2.08701e-08
-0.0141713
-6.55694e-07
-0.0135682
0.000325389
-3.20671e-07
-2.68515e-08
-0.000852243
5.89515e-05
-2.92531e-06
-7.82275e-08
1.66762e-08
-1.88925e-08
1.5421e-08
3.42937e-07
-3.08042e-07
-1.16183e-08
-0.00153888
2.70864e-08
-3.70482e-09
0.00209452
3.80759e-06
0.000107004
-1.42758e-07
6.70052e-06
-0.0130193
2.63853e-06
1.72521e-07
-0.000289246
-0.0032569
-0.010561
-0.000320195
-9.76173e-09
6.62202e-08
7.29951e-08
-9.04986e-06
1.68757e-08
-2.49229e-06
-1.81648e-08
-1.93729e-08
-8.34941e-09
-1.28067e-08
0.000957045
-0.0136391
-2.9359e-06
0.00779287
-0.000661363
-2.73108e-09
-0.000116958
-2.09119e-09
-2.04575e-08
-6.87781e-06
0.00953786
-4.01418e-09
-1.43884e-07
1.94771e-08
-5.92222e-09
-1.89494e-09
0.0141315
-5.29168e-07
-7.69102e-08
-8.43848e-09
-0.0242967
-0.000247139
0.0190493
-1.07162e-06
-3.40317e-08
5.55941e-08
0.00264119
0.000151717
6.78786e-08
-4.67515e-08
-1.46308e-08
7.26592e-09
-1.49396e-06
7.34497e-07
1.61477e-06
2.98297e-06
1.4676e-08
0.000333205
-1.18128e-06
8.22132e-06
-2.85334e-07
-3.53349e-08
1.14661e-06
1.19277e-08
4.1511e-08
0.000332668
-5.1054e-06
-8.1932e-05
6.02497e-07
-4.67218e-06
6.53982e-07
0.00035257
0.000572192
-9.43526e-09
8.93671e-09
-7.54213e-07
0.00450597
-8.33409e-08
-6.26054e-07
9.92731e-09
-1.24434e-05
-0.0129747
-4.60214e-10
-0.0213388
-5.26963e-07
0.00108932
0.0147153
-9.17482e-07
-1.12462e-08
4.44703e-07
-9.26554e-09
-5.16985e-06
-1.16464e-05
1.22709e-08
-0.000312652
-1.62788e-06
-1.44951e-07
-8.03872e-05
7.62305e-07
-2.10013e-05
-1.43938e-09
0.000309124
-1.00096e-05
0.00194756
-9.44468e-08
4.51132e-07
-3.39363e-06
3.2408e-08
-6.18e-09
-5.82072e-07
4.71954e-08
0.00172829
4.83986e-06
-0.000178981
-0.00566054
-0.00282618
7.62703e-09
0.000131947
4.32335e-08
-6.04729e-09
-3.66681e-08
0.00180194
6.52386e-09
-1.41244e-08
9.71471e-08
8.68622e-08
-0.00130821
-5.14779e-07
-4.45183e-06
-1.11386e-08
-2.34199e-08
2.64582e-08
0.00212311
0.000192056
-1.09224e-09
5.00918e-08
-0.00157288
0.000159782
0.000322916
1.7655e-06
0.0112234
-1.58139e-07
0.00128365
0.0116399
1.10818e-07
-1.34127e-08
0.0176892
1.17794e-05
-2.2005e-08
-0.016187
0.0123733
0.000515441
-6.67748e-07
-6.54682e-07
-8.79395e-09
9.94477e-06
-0.00289774
-0.0228003
-2.39543e-08
-2.97503e-06
-0.00538711
1.15413e-08
0.0170904
1.45115e-07
-9.82235e-09
0.017359
7.21622e-10
-0.0121791
3.62099e-08
4.79562e-10
5.53918e-09
-3.93306e-07
-0.000264059
-0.0065802
1.21414e-08
-0.00151507
1.85756e-08
-4.94949e-08
-2.53559e-07
-2.87883e-06
-6.38143e-09
0.000484279
-0.0025105
8.22595e-08
-3.04844e-08
-1.66514e-08
-0.01064
-4.70546e-06
-0.00297605
0.00138902
1.42804e-07
8.42784e-08
0.0157189
-0.0149335
6.7897e-07
0.0003
-3.83311e-06
8.18164e-08
1.22992e-07
2.67941e-09
2.9043e-08
4.63714e-06
-2.33678e-07
1.00206e-07
5.12258e-09
0.00408751
-0.00110098
-0.0264415
0.00718943
-1.10723e-06
-0.00019373
-1.92769e-08
-0.0134779
-0.00256396
-3.04767e-06
1.12928e-08
4.12072e-08
-7.36688e-06
-0.00276844
1.9409e-06
8.56607e-07
-0.0146028
-1.93694e-07
-0.0302887
4.95276e-10
0.00395508
-0.00883495
2.50112e-09
3.85876e-07
2.40977e-06
6.04457e-09
-3.81835e-09
1.51141e-08
-4.84683e-10
-2.24312e-08
0.000516495
-1.31819e-08
-3.05626e-10
-1.77922e-08
9.35262e-05
0.00857186
-1.34352e-07
3.86373e-08
-1.35513e-09
3.30286e-08
-0.00567917
2.38703e-05
-0.00698811
-1.99265e-08
-1.00931e-07
0.00196159
1.26667e-08
-4.93944e-07
-3.96494e-09
-7.40324e-09
-4.7732e-07
-5.80798e-08
-9.62829e-07
-0.0148853
4.46288e-05
1.18969e-08
4.40221e-08
-1.38301e-08
-2.42674e-07
-0.000815155
9.58423e-05
3.9996e-11
8.32232e-09
1.67039e-08
1.52407e-07
-6.71137e-07
-4.64656e-08
-3.8444e-07
-0.0120069
1.32516e-07
-5.86467e-09
-0.0356475
0.00924664
-0.0351026
-0.0237337
0.0110344
1.66617e-09
-7.56133e-06
-2.70126e-08
1.0662e-08
5.25571e-08
-2.64313e-08
1.90485e-07
-2.17791e-08
0.0215691
-7.04877e-08
5.87556e-06
2.79172e-08
2.36977e-08
1.60511e-06
7.87379e-07
-0.044502
-0.0336042
-3.05724e-05
-1.69178e-08
6.44395e-07
-0.0195694
1.67631e-08
-0.0355058
-1.80332e-09
2.78144e-05
-0.00102926
8.72685e-06
6.10783e-07
0.0148453
-0.0146608
1.92474e-06
-0.0017481
-3.30596e-05
0.0154177
0.0111592
5.70764e-07
0.00430112
-5.46449e-08
2.62888e-08
-2.3205e-08
1.28581e-08
-2.30935e-08
-2.35152e-08
-0.000287551
-1.13932e-06
2.55536e-07
2.65383e-07
0.000117824
-1.0473e-08
-0.0283477
-8.64355e-07
-7.81004e-07
-7.59797e-08
-8.72419e-07
8.18158e-08
-1.87772e-08
1.9811e-08
1.59376e-07
-3.42913e-07
1.21744e-07
6.35582e-06
0.0243252
-5.01623e-09
0.00195506
-1.07118e-06
-1.10472e-08
0.000349375
-1.75162e-06
4.63039e-08
-0.00149615
0.000237782
3.86799e-06
-0.0292516
1.14225e-08
-2.34132e-05
-3.96804e-09
-1.09699e-08
-1.5353e-07
-1.00732e-08
1.50029e-07
-2.42547e-07
-4.55438e-06
1.89385e-07
7.35695e-08
-3.51988e-05
-2.89276e-08
4.76123e-09
-3.06538e-05
-0.014704
1.50281e-08
-1.52949e-06
0.000162839
2.64043e-06
-2.04246e-08
-6.12408e-08
-3.01118e-07
-7.46094e-09
0.00071484
-1.63831e-06
0.00725489
-1.22296e-08
-3.68932e-08
1.0703e-07
-9.59951e-07
-1.33125e-08
-7.59577e-07
-0.0173901
-0.000526777
-1.35222e-09
0.000251753
0.000265463
-9.85133e-09
-2.21999e-09
1.55418e-08
-5.17106e-07
-0.0203995
-7.6485e-07
0.00420251
-1.11761e-05
-2.11879e-06
0.000368004
-0.00384907
6.20332e-08
5.27551e-07
0.000529677
0.00427635
7.43681e-06
-0.00341263
1.66493e-06
0.000252983
4.47291e-08
-9.3408e-09
-0.0158831
-2.39724e-08
-0.00353208
-0.0045648
-8.45546e-09
-1.98235e-09
4.20945e-05
3.21845e-08
-0.00121143
0.0257072
0.00454849
-1.15617e-06
-2.50138e-06
-0.00669179
-0.0477401
-0.0295063
1.8186e-07
-0.0116559
0.00666372
-2.82973e-08
0.00113653
-1.53206e-06
7.04903e-06
1.31095e-08
9.23032e-06
4.9694e-08
5.5851e-06
1.02324e-05
-0.0012062
-0.00157836
1.48733e-07
-1.71994e-08
4.30032e-09
-4.27261e-08
-0.00152444
0.00315928
0.00108188
-8.66797e-07
-0.0143843
-6.48791e-08
1.21231e-06
1.5345e-05
1.02288e-06
3.34403e-08
2.68618e-07
-1.55683e-05
3.60833e-08
-1.93716e-07
-2.97499e-08
-8.27906e-07
1.05969e-08
-4.05208e-07
-0.00377807
0.0190286
0.00495379
-2.21613e-05
0.00301032
-1.25759e-05
5.42604e-06
-1.06586e-07
0.000874712
1.09255e-06
-5.77625e-07
7.02061e-06
0.000583303
0.00446869
-0.0314825
0.0215867
2.19995e-06
-0.000119889
-4.66617e-08
2.32536e-06
8.9854e-06
2.60531e-08
-1.12361e-06
-7.05753e-09
1.40535e-07
0.00469073
-1.52822e-08
-0.00956212
-1.89243e-06
-2.59432e-08
-2.47614e-08
3.86654e-08
-6.65283e-05
-1.70318e-08
0.000212474
1.75657e-07
-1.48272e-06
-1.442e-08
0.00910178
-2.88444e-08
-0.0029537
-4.99556e-07
-5.11887e-06
-1.11812e-08
-0.00381161
-2.36145e-06
1.85448e-08
-1.33928e-06
-2.47311e-06
0.00299104
1.2942e-05
6.05552e-08
8.79595e-06
-0.00541585
-1.74951e-06
-9.47621e-06
-0.000488462
6.73579e-09
-0.000499183
-1.7296e-07
1.28338e-06
3.9256e-07
-0.00354665
0.0102754
7.10442e-06
-0.0214219
1.1183e-08
7.24698e-07
-0.0179091
-5.80903e-08
-0.00341142
-0.0411054
0.000114758
1.43587e-05
-1.61034e-08
-1.10335e-07
-0.00840549
3.6024e-08
-1.92307e-09
-1.62023e-06
6.41934e-09
9.8236e-09
7.27668e-08
2.68928e-08
4.88039e-08
0.00026224
-7.54759e-08
-0.0022963
1.57631e-08
-0.00217621
-1.95185e-07
2.65029e-05
-7.70841e-07
-0.00136777
0.0058776
-1.65471e-08
-4.04174e-06
-0.000677121
-1.78688e-08
0.00168075
-9.58639e-09
-3.31499e-07
-5.70788e-08
3.7844e-06
-2.33235e-06
1.07586e-06
1.31747e-06
-0.0284486
-8.17434e-09
4.20801e-06
-0.00179579
-3.93812e-08
-2.12278e-07
-5.42748e-08
0.00155163
2.8453e-05
2.08601e-09
-0.0253593
-1.32704e-05
-2.26367e-05
1.51546e-08
-0.0366337
-1.92712e-07
2.22387e-07
6.15071e-09
0.0120173
5.02287e-07
-6.09324e-07
7.45202e-09
-2.6237e-08
-9.23729e-08
-2.91331e-09
0.00334423
-3.81911e-05
5.8412e-08
-1.63481e-07
-0.0486977
0.000564027
3.84806e-06
2.25796e-08
-6.24558e-06
1.83788e-08
-3.0567e-08
-1.86654e-08
3.21754e-07
0.00419418
1.20448e-07
-1.40767e-08
9.1975e-05
3.96813e-08
-1.14842e-06
-6.87797e-09
-3.67405e-09
-2.95541e-05
-1.62853e-09
-0.00240541
0.00123198
2.13416e-07
6.77947e-09
2.37682e-07
-0.00341635
-7.81298e-06
-4.31522e-09
7.06563e-08
1.18875e-05
3.85406e-06
0.00089483
-1.63999e-06
-2.59875e-06
-6.65823e-06
-0.00443008
-2.2243e-08
-0.0034707
9.12622e-09
-2.48449e-05
9.97985e-09
-6.18174e-09
-2.00044e-05
-2.356e-08
-0.00176759
-0.000965911
1.28234e-07
3.52517e-08
-4.16929e-07
-1.39117e-08
-0.00137875
-4.87115e-08
-3.86135e-07
-0.0112656
-1.36397e-05
-1.21898e-09
-0.00607864
7.74076e-06
-8.64244e-08
-1.62644e-06
1.48416e-08
2.64214e-06
-3.29137e-08
2.1304e-06
0.000474845
-0.00399357
-1.95823e-07
-0.000192847
0.00271649
7.07493e-06
7.95732e-09
4.87054e-08
2.20033e-05
-4.73186e-07
-0.0302623
-0.0166335
-0.0145029
3.83666e-08
1.64016e-06
-1.81816e-08
-8.65063e-05
0.00334489
-1.80231e-08
2.70392e-06
2.07875e-06
2.87402e-07
1.79952e-08
-1.41025e-05
1.89703e-06
7.79015e-08
-0.00315736
9.03453e-09
-7.10231e-09
-0.00117171
-3.50491e-07
-1.11206e-07
5.27792e-07
4.97354e-08
-0.0189006
-2.51863e-08
-2.19846e-08
5.12748e-08
-1.23719e-07
-1.16372e-07
4.35383e-07
-7.65252e-06
0.00110969
-8.45581e-06
3.49782e-06
-1.09906e-05
0.000885161
-1.63558e-08
0.0113464
0.00656147
-0.0167492
-1.21818e-08
-6.4006e-05
-2.53488e-07
-0.00669002
-2.96192e-07
-2.6504e-06
-1.3237e-05
-2.23297e-06
0.00148265
1.34528e-06
3.59076e-07
0.00618899
-0.00768172
-2.00582e-08
1.7277e-08
-0.00638274
2.51068e-07
-0.00364877
3.68348e-09
1.31811e-08
7.83859e-09
-2.59039e-08
7.31069e-07
1.27458e-06
-2.18328e-07
-1.05236e-08
4.85842e-08
-2.41266e-08
-0.0047903
-1.29247e-08
-0.00279076
0.0173205
0.00463984
7.15058e-07
0.00110851
-2.84637e-06
0.00041614
0.00090084
5.97589e-08
-2.83722e-06
-1.74754e-06
6.63464e-08
-0.00295134
0.000142259
-1.93083e-08
6.28475e-06
-5.70349e-09
-2.72031e-06
-2.21294e-05
-0.00940481
5.47232e-06
-2.65961e-08
-0.00748756
5.13626e-08
-5.35592e-07
2.18901e-06
-0.00443423
2.16401e-08
-4.93432e-07
-5.39136e-07
-1.67024e-06
0.00795489
-3.2051e-06
4.72266e-08
-0.00381561
-2.14569e-08
-2.28685e-07
-3.16029e-08
-1.07195e-05
1.42206e-07
-0.00106829
2.1457e-08
-0.0057655
4.48961e-05
2.16234e-05
1.89591e-07
-0.000454931
5.12218e-06
-3.84776e-08
1.8381e-08
-0.00257885
2.80639e-07
-1.70881e-07
1.61926e-07
3.93702e-09
6.26602e-06
1.15572e-08
-2.17234e-07
1.1621e-08
-1.82237e-05
-1.39339e-08
-0.000789408
-2.31185e-06
-4.3649e-09
-2.19865e-08
1.36303e-06
-1.5787e-07
0.00104772
-0.00142298
0.0117935
-0.00123303
4.31792e-08
7.196e-06
-0.00201672
5.29113e-09
7.19912e-07
0.000465567
2.92391e-09
1.72643e-06
-6.56666e-06
0.000234491
4.2561e-05
3.66219e-06
-1.5068e-07
0.00144059
-9.93713e-10
3.69852e-08
-0.00172015
-0.000706631
-7.74124e-08
-7.1977e-08
-1.92766e-05
-1.18556e-08
-6.8513e-06
-9.79258e-09
-1.75037e-05
1.9646e-08
-3.16275e-08
2.62907e-08
-0.0119133
1.92703e-07
0.0107171
-2.44346e-05
-0.00431527
1.47144e-07
7.55385e-09
-0.00163152
-0.000499201
-2.08906e-06
0.000274338
0.00408221
3.97643e-07
0.000546624
-3.80744e-05
2.05636e-06
0.000924481
-2.07045e-08
-0.00789027
-9.72693e-06
-1.30579e-06
-3.14727e-09
9.59286e-06
0.0317057
-6.50675e-09
-4.61243e-06
-1.37974e-07
-0.0040371
1.27713e-07
4.38405e-08
8.84198e-06
1.37611e-07
1.31753e-07
-0.00958878
0.00173579
3.67958e-08
-1.79101e-05
3.43933e-05
1.43869e-06
0.00708015
0.0094537
-2.11181e-08
4.0675e-08
0.00106984
-3.3711e-09
-0.0217905
7.93496e-07
-0.000199394
9.77402e-07
-2.15972e-07
-3.19776e-08
-7.13385e-09
1.26483e-05
0.0292028
0.00964902
-1.68749e-08
-9.85247e-06
8.18131e-06
-0.00123115
-2.87356e-07
7.62491e-05
-5.3536e-06
-1.2614e-05
0.0024339
0.00208577
5.64014e-08
0.000387759
0.0434661
2.72271e-08
-1.52145e-06
4.60498e-05
4.84566e-09
-2.83196e-08
0.000926861
-1.48035e-08
0.00192412
0.00101094
-4.89424e-09
0.00581699
3.57381e-07
-0.00210641
0.00134699
-1.08112e-08
-1.65764e-08
-1.21298e-08
0.0019842
5.15634e-08
2.7742e-08
7.75201e-05
0.000476084
-0.00400997
0.000257108
4.04923e-06
-0.00971027
3.83916e-09
0.0065027
9.61809e-09
2.73539e-06
9.20864e-05
0.0113389
-0.032074
1.05857e-06
-0.00451775
-2.97282e-06
-8.98304e-07
-7.34797e-06
1.77298e-08
-0.000427439
-6.44985e-07
-0.00242101
-2.49719e-08
0.00106266
2.61743e-08
-1.52111e-08
-0.0284944
-3.19558e-05
0.000840673
0.0168336
-1.2225e-07
1.4425e-08
-0.00188128
-8.81025e-09
8.20606e-07
-0.00264819
2.94013e-07
-2.41581e-07
3.12719e-08
-0.0131668
-4.97829e-08
2.10623e-06
-0.00269663
5.87722e-06
-1.31214e-08
0.00146854
-4.05477e-08
0.0158993
0.00231198
4.77344e-08
4.34378e-08
2.34135e-08
-0.0125522
-0.0311561
1.27184e-05
-3.75874e-08
-7.13638e-08
-1.02337e-07
-2.73409e-06
-0.0368786
4.87851e-08
-0.00972081
-1.14335e-07
-2.07654e-07
5.8434e-07
0.0144084
-5.08132e-07
-0.020063
-3.43928e-07
-1.46651e-05
-0.0156442
-2.39467e-08
1.95383e-08
2.88353e-09
1.51646e-05
-3.26818e-08
-1.64222e-08
0.000240063
-7.07914e-08
-1.63216e-08
4.05766e-08
-1.56009e-08
1.51508e-09
-0.000706644
-1.09059e-08
-0.0130587
1.98954e-08
0.00173384
-2.3332e-08
1.46944e-07
2.47606e-06
-5.76868e-07
1.3529e-08
1.7164e-08
-6.55721e-07
4.54646e-08
0.0151236
6.16822e-07
-6.30404e-06
0.000595166
-4.01674e-08
-4.45464e-09
-0.00876122
0.000529928
-1.91057e-08
2.28003e-08
0.00340872
-0.00146006
-2.68833e-08
-0.00200333
0.00244219
-0.004396
-3.4793e-05
0.00320966
0.000539258
4.58304e-08
6.23433e-09
-9.92788e-09
7.25764e-05
-2.38539e-08
-1.5872e-08
-1.57097e-08
-3.06287e-08
-0.00350326
-7.23066e-08
1.89846e-06
7.48053e-07
-0.0159829
-9.13249e-08
-7.18865e-07
-9.44947e-06
-1.45896e-08
9.83196e-09
-1.11554e-06
-0.00732647
6.22146e-07
0.00366151
1.49848e-06
-1.56519e-08
-9.26091e-09
2.69044e-08
-1.61857e-06
-0.00232254
0.00050972
-9.05302e-08
0.010152
0.00592277
-5.06814e-09
4.55681e-07
2.76208e-06
0.00150209
-7.88574e-08
3.47156e-06
2.34023e-06
-3.56458e-07
-8.99347e-09
-7.56418e-06
-5.17995e-06
-1.47635e-05
-1.80825e-06
-1.92649e-06
-0.00164263
-1.108e-06
0.000734673
0.000170241
-0.0197723
-1.23378e-08
5.91428e-07
-0.010929
-0.00224562
6.78001e-07
-7.12212e-07
0.00996427
0.000318004
0.00790975
1.94032e-07
-1.69162e-08
4.82597e-08
2.82242e-08
-2.5494e-08
-0.000803624
-0.0208792
-1.36844e-07
1.26876e-07
1.11237e-07
0.0232855
0.000584107
2.62378e-07
-1.72851e-08
0.00745529
-1.58719e-07
-1.37949e-08
0.00570267
0.000197752
0.00628502
0.00135852
0.00179388
-7.82503e-05
1.39655e-08
-7.54445e-07
1.33644e-06
-0.0317768
-9.92424e-08
0.000269745
-1.21768e-08
1.4348e-08
0.00839283
4.83684e-09
4.48655e-05
-1.04111e-06
0.016863
-0.000717384
-1.83215e-08
6.59615e-06
-5.02902e-08
0.00195941
-1.40299e-07
-4.64772e-06
-2.33472e-06
-3.61359e-05
1.81821e-07
2.31283e-07
0.00772595
3.38804e-08
-6.74285e-07
0.00471392
-1.1999e-07
-1.45092e-08
-6.15058e-06
-9.67296e-06
-2.15644e-08
-1.39686e-07
-1.04598e-09
3.24311e-09
-1.67516e-08
7.31796e-06
2.71777e-08
-0.00204565
0.00806858
1.05533e-06
-2.8084e-08
0.00290041
1.19244e-07
-1.32626e-08
-6.22666e-08
7.16458e-10
-3.51081e-09
0.00160233
1.29873e-05
-0.00360829
1.18683e-06
4.46704e-06
-4.64765e-12
0.0396175
7.21691e-06
-0.0053861
-7.7735e-06
-3.67219e-08
-9.16256e-07
0.000720608
-5.90385e-07
1.18888e-06
-4.60453e-06
-4.93261e-07
-0.00318137
0.000340375
0.0170941
2.86824e-07
5.01025e-06
0.00736096
0.00299423
2.74708e-05
3.26377e-08
-1.49131e-07
-9.35193e-07
0.0457723
3.6324e-08
-8.27816e-08
5.29409e-06
-0.0106216
1.21416e-06
6.3936e-07
-5.53846e-05
1.36926e-07
1.78523e-08
-5.5248e-05
-2.35762e-08
1.16644e-08
4.45042e-05
0.0156155
-3.0115e-08
3.5292e-08
-6.61725e-09
-2.9871e-06
0.0104335
-6.92859e-08
-6.41463e-08
-0.00316484
0.00736611
0.00087405
3.61297e-08
-0.0043301
-8.41703e-09
-3.29001e-07
-1.43598e-07
-7.18269e-05
-0.00542432
-7.20941e-08
-6.84669e-09
-0.00640225
0.0394769
-4.98267e-05
0.000187146
4.74484e-08
4.53691e-07
-1.24945e-07
0.0015536
0.00261217
-2.27117e-06
4.75822e-07
9.58581e-06
6.42643e-07
0.00128175
1.10095e-07
-0.0123058
0.000524293
-7.22675e-09
-2.0338e-08
2.27431e-05
3.93563e-06
-0.00643726
-6.84161e-07
3.34318e-07
0.000260299
3.29612e-08
1.40332e-08
0.000447942
-0.015644
-3.69032e-05
-1.67099e-07
-2.22098e-08
-8.50117e-08
0.0034333
1.62037e-08
-1.26187e-07
2.50436e-06
-3.65523e-08
-3.51779e-08
-8.90145e-06
-4.53912e-07
3.43612e-09
0.000326575
3.77753e-09
-3.10998e-05
5.8222e-05
7.2811e-08
-5.40595e-05
0.0132369
-2.8514e-06
-0.00315207
-4.47195e-06
-3.46379e-07
-2.27781e-08
4.47404e-07
1.07546e-06
2.17138e-06
-1.77184e-08
0.00626941
-0.0029796
0.000227681
4.39336e-06
0.00228743
3.46256e-08
1.18333e-06
-0.00569353
-2.1591e-08
-1.02401e-05
5.04046e-07
-0.000161959
-0.00359133
1.18315e-08
-6.99561e-06
9.88051e-08
-1.47071e-06
0.00247129
-1.35929e-07
3.35392e-09
0.00573826
4.50484e-06
4.11577e-07
-5.92132e-08
6.41823e-06
1.7218e-08
-4.48406e-08
-2.35629e-06
0.00172665
-3.72137e-05
1.86132e-08
0.000313352
-0.01047
-3.42094e-07
0.000254735
-0.00292878
3.33956e-09
-0.000294566
-7.32112e-09
-1.17374e-07
-8.24842e-07
-0.00339117
-1.59793e-09
2.10758e-08
2.61075e-06
-0.020615
-1.72247e-07
-5.06576e-07
-0.00234414
8.4791e-07
-7.39302e-09
0.0156753
-3.47698e-06
-7.93223e-07
1.1964e-07
1.04695e-06
-7.04259e-07
6.12181e-06
-2.11421e-06
1.92684e-08
-1.00693e-08
-0.000919052
0.000206932
4.05691e-08
-0.00233443
4.59145e-07
0.00617198
4.30065e-08
1.07302e-08
-0.00173329
4.87664e-05
2.59822e-06
5.38225e-09
9.60486e-09
4.06853e-08
2.24918e-08
0.000929497
7.39346e-08
-0.0184257
2.63987e-06
-4.83132e-06
1.87483e-08
0.0062732
0.00140187
-1.64751e-06
-0.00742919
-5.74825e-09
2.09049e-06
4.09519e-07
-3.84812e-07
-0.000351068
-0.00372745
2.90584e-08
-3.30673e-06
-1.54992e-07
1.4485e-07
-5.52148e-07
4.40483e-06
-0.00601733
5.50121e-06
-0.00194102
-1.48113e-06
0.00172739
-0.005026
0.000132475
1.55246e-06
-1.38127e-06
-0.00185669
-3.758e-07
2.98527e-08
1.71954e-06
0.00119572
-7.63685e-06
0.000489676
-0.0298535
-1.54172e-06
-0.0252807
1.52503e-09
-1.9719e-08
6.93034e-08
-0.0316231
-2.9046e-07
1.4019e-07
-1.52774e-07
2.3768e-08
1.55029e-06
4.49072e-05
2.61762e-07
-2.14005e-05
-5.53521e-06
-4.12528e-07
-1.96739e-07
0.0045298
2.65352e-06
-5.24067e-08
-6.22296e-09
-0.00331856
6.02485e-06
0.000271844
-7.29304e-07
9.69733e-07
5.5294e-08
-0.0568449
-1.52124e-08
-9.54706e-08
-2.56502e-08
-0.00695071
-0.00255535
7.9331e-09
0.00359324
-1.30462e-08
1.45147e-07
-2.46947e-05
-0.0200727
-5.82197e-07
0.00303423
-3.4013e-07
0.0167228
-7.29164e-06
-1.07207e-07
0.00016338
0.00966414
1.23305e-08
2.35839e-06
3.74258e-08
-1.10176e-08
6.82177e-07
-1.64653e-06
6.22597e-07
0.0255699
0.00352647
7.27612e-09
-1.9666e-08
1.85995e-06
0.00198419
1.70858e-07
-3.788e-08
-3.09003e-08
3.88055e-06
8.46609e-07
-0.0129838
2.70453e-08
-1.04316e-07
1.22379e-07
1.9135e-06
-0.0255519
-0.00614938
-0.00289046
0.0148961
-6.3043e-06
4.75856e-05
-0.00753157
3.57484e-06
-0.00719578
-1.56775e-07
-8.34e-06
-5.04762e-08
3.88632e-06
5.91094e-06
5.00428e-07
0.00051511
0.00907182
0.00228424
0.00101402
-0.000137179
0.000329353
-1.1841e-09
1.72955e-05
-2.50898e-08
-7.80002e-09
0.00143306
3.5846e-07
-0.0152415
9.43859e-08
3.5452e-07
-1.45287e-06
-0.000408282
0.00017051
-8.50404e-06
-1.9705e-10
-0.00308725
-2.51795e-05
2.82449e-08
-3.45447e-07
-0.000262453
-7.76139e-06
-1.82466e-05
1.05164e-07
-8.2314e-06
0.0114051
-2.74547e-06
0.00299076
0.000468138
0.000231809
3.86343e-06
-0.000167423
8.12335e-06
5.21095e-09
-1.15106e-08
6.10852e-09
3.72804e-08
0.0017032
5.05936e-08
-2.82867e-06
3.69854e-08
0.00317001
-3.02543e-05
3.58548e-08
-3.94466e-06
3.34715e-06
7.09292e-06
3.53766e-09
-5.91068e-08
1.62977e-05
3.12316e-05
-0.0156544
3.38254e-06
-4.14572e-05
2.66107e-06
0.00118984
1.43987e-10
9.7375e-09
4.2103e-06
-1.41477e-06
1.57626e-06
-3.8167e-09
-6.44811e-06
-2.54458e-05
-9.77849e-08
-2.66944e-06
-4.32255e-06
8.5352e-06
-0.000426215
-3.95314e-05
-5.26001e-09
2.74297e-07
0.000281436
1.28454e-06
2.82996e-06
-0.00500235
-2.91878e-08
-0.00116996
1.905e-06
0.0239121
-0.00230925
-3.74549e-07
6.81074e-09
1.67017e-07
-8.76205e-08
-4.77929e-08
-1.30149e-08
-2.47515e-06
6.04884e-05
9.11205e-06
0.00380061
-5.20869e-06
-1.51043e-08
5.70914e-08
1.42443e-06
-0.0165043
-0.00025058
-0.000916768
-0.000248633
-0.00110405
-1.66198e-08
-2.33713e-08
-7.63808e-06
-0.000114021
0.00102604
8.53294e-07
-6.63589e-06
-0.000240409
-5.10404e-08
-0.00388517
-0.00520762
0.00164065
0.0191499
-2.21519e-06
-7.06162e-07
-2.52805e-08
-4.99443e-09
7.35388e-09
-5.95705e-05
0.0171415
-7.03658e-09
0.000130859
3.65544e-08
-2.28582e-06
0.0066345
-4.8683e-08
3.26653e-08
-9.43341e-08
-2.32184e-08
0.00292239
1.83806e-08
-4.39266e-08
6.89926e-07
9.18729e-08
-8.02761e-07
0.000714741
-0.0541334
0.00198993
0.0315427
-7.5548e-07
6.82494e-07
-0.00388493
-0.0014124
2.77604e-07
-0.0276536
3.04075e-06
-1.65104e-05
6.63216e-06
-0.00892086
3.0485e-08
0.0020603
0.00406894
0.000556242
0.00869651
-6.45395e-06
2.06867e-07
9.50197e-08
-4.95163e-06
-3.46393e-08
-1.14553e-08
-8.4946e-08
-0.00835543
-0.0147892
5.99775e-09
-1.59833e-07
7.969e-09
1.53919e-07
-5.04314e-07
0.00144877
-0.000609007
3.68601e-08
3.51981e-06
-0.00244303
-0.00581353
2.04392e-07
0.0111602
0.0134166
1.53932e-06
-5.02069e-06
0.00255832
3.45655e-08
-3.81316e-07
2.15202e-08
-6.87305e-09
-5.39237e-07
-2.61692e-08
-6.25754e-08
-0.00085284
0.00132235
0.000486138
5.67072e-06
-6.03775e-06
-0.00611962
-9.87591e-09
0.000570122
1.90816e-07
-5.97576e-07
0.00580109
5.56307e-08
-3.54223e-07
-0.000937178
-2.70006e-07
1.88266e-07
-0.00337035
6.40584e-08
-2.03732e-06
-0.00222543
-2.79255e-08
0.00433799
0.00344462
0.00139754
-1.28542e-08
-9.60461e-06
-1.186e-08
-2.2342e-08
1.09516e-07
-0.00353769
8.67819e-09
-1.50616e-06
1.79233e-07
-1.15556e-05
-0.0413338
0.000483412
0.000292733
-9.12428e-07
-4.45689e-07
3.67846e-08
-2.20661e-07
-7.2822e-08
-0.00192302
7.69949e-08
-0.0012372
-0.00776449
-0.0189761
-2.84434e-08
-2.49328e-05
-0.000519129
-0.00511135
7.69255e-06
1.16437e-07
2.93576e-08
-0.00395129
-0.00556339
-0.000789896
-4.7434e-09
1.8133e-08
0.000295858
4.07699e-08
-2.67147e-08
4.98277e-08
1.48384e-07
-8.42722e-08
2.52346e-08
2.41425e-08
-1.39857e-08
0.000489232
0.000786668
-6.57125e-05
2.29493e-07
2.47941e-06
0.00969073
2.72158e-06
8.31055e-05
2.62379e-08
0.000202201
-1.84007e-08
-5.19573e-08
2.09616e-07
-0.0205004
2.18107e-06
-0.0213764
0.0125999
-4.50135e-06
0.000495786
-1.00023e-06
3.60409e-05
-1.69766e-05
-2.06205e-06
4.85913e-08
-0.00371748
0.0427224
2.08231e-07
0.0147808
-2.24485e-07
0.0166754
4.9485e-07
6.86764e-07
0.0492751
0.00250038
1.33346e-06
0.00197366
-0.00215225
-1.8569e-06
-0.0144236
-4.343e-06
-0.00748805
1.14492e-08
-2.72778e-06
-5.48801e-06
0.00311934
-0.0214415
0.000496492
-4.27545e-07
-6.29714e-07
-0.0263711
3.53452e-08
1.22049e-08
0.025996
-4.68956e-09
6.41091e-06
0.00156785
-1.92743e-07
8.35959e-07
0.0289839
-0.00158416
-7.59547e-08
-0.000272705
-3.54201e-06
-0.0278242
-0.0151957
4.37298e-06
7.4867e-08
8.4149e-09
1.04156e-07
-6.97854e-08
-1.29173e-08
1.36916e-06
1.2357e-06
1.83771e-07
-3.35031e-08
-8.72144e-08
-5.4913e-09
2.41539e-07
0.0264398
-4.68354e-07
-4.88791e-06
0.00175488
0.00806121
2.85633e-08
2.29874e-08
1.36516e-06
1.06298e-07
-1.21687e-08
7.1225e-08
-1.38326e-06
-0.0177528
-0.0203851
2.75315e-07
3.31853e-08
-1.60519e-05
-4.70652e-08
-5.25567e-05
0.000675802
5.07185e-08
9.51129e-08
2.32229e-06
-3.49816e-09
-0.0128884
2.93021e-07
0.00194752
1.43457e-08
0.000369551
6.09926e-07
0.0113451