/*--------------------------------*- C++ -*----------------------------------*\
| =========                 |                                                 |
| \\      /  F ield         | OpenFOAM: The Open Source CFD Toolbox           |
|  \\    /   O peration     | Version:  v2012                                 |
|   \\  /    A nd           | Website:  www.openfoam.com                      |
|    \\/     M anipulation  |                                                 |
\*---------------------------------------------------------------------------*/
FoamFile
{
    version     2.0;
    format      ascii;
    class       volScalarField;
    location    "300";
    object      k_0;
}
// * * * * * * * * * * * * * * * * * * * * * * * * * * * * * * * * * * * * * //

dimensions      [0 2 -2 0 0 0 0];


internalField   nonuniform List<scalar> 
18598
(
0.0156923
0.000277459
0.000187705
0.000247898
0.000214268
0.000161802
0.0223591
0.000147262
0.000140744
0.000207482
0.000131194
0.000225038
0.000150495
0.0616894
0.00235033
0.000208035
0.000165657
0.00637978
0.00423126
0.00445768
0.00649648
0.000140892
0.000187058
0.000137187
0.000142843
0.00480072
0.000135326
0.0474063
0.000146898
0.000135557
0.00685373
0.000140597
0.000289361
0.00013127
0.00444402
0.000137969
0.000167284
0.000142639
0.000171441
0.00364261
0.0475046
0.000136223
0.000142866
0.000170417
0.000137031
0.0700389
0.000143532
0.00358787
0.000172186
0.000147334
0.000210727
0.000147873
0.000151027
0.000196266
0.000151495
0.000137667
0.00327894
0.0407263
0.0330429
0.00342416
0.00015106
0.000149568
0.000149768
0.000245683
0.000173057
0.000152833
0.000165406
0.000152302
0.000151277
0.000280773
0.000153834
0.000141727
0.00015025
0.000147172
0.000151355
0.000143296
0.000150654
0.000149332
0.000149712
0.000161646
0.00014714
0.000147709
0.000146986
0.000150516
0.000144526
0.000150251
0.000142703
0.00640751
0.00420617
0.0787449
0.000167411
0.000155496
0.000142229
0.000152936
0.000146816
0.000151764
0.000170165
0.000186371
0.000202775
0.000164096
0.00319775
0.00258589
0.00036232
0.00618162
0.00103244
0.000197881
0.000206016
0.000209341
0.000131575
0.0252108
0.00021075
0.000146545
0.000187561
0.000356326
0.000140764
0.00398812
0.000159815
0.000146626
0.000198755
0.000142345
0.00366979
0.000124289
0.00325326
0.000142588
0.000141786
0.0297735
0.00746338
0.000142459
0.000136076
0.0471938
0.000117825
0.00154977
0.000251499
0.000162373
0.000169677
0.000204383
0.000135258
0.000136286
0.000136501
0.0245186
0.000154308
0.000136446
0.000161531
0.0027134
0.00018668
0.000141869
0.000189013
0.000149294
0.0037394
0.000136152
0.000140649
0.0561009
0.000158673
0.000190782
0.000149872
0.000152877
0.000157356
0.000557123
0.00014635
0.000144594
0.000201023
0.000291337
0.000203371
0.000153635
0.0341875
0.00169115
0.000198226
0.000148788
0.000146668
0.000146811
0.0001603
0.000254484
0.00265222
0.000305653
0.002921
0.00547284
0.000189482
0.00559461
0.000142381
0.000142417
0.0302977
0.000130568
0.000158879
0.0137559
0.000144521
0.000154539
0.0242448
0.000151091
0.000180687
0.00286694
0.000188503
0.000160431
0.000142445
0.003992
0.000199451
0.000195596
0.000140393
0.000220813
0.000137069
0.0158875
0.000180863
0.000157166
0.000162515
0.000228619
0.00021995
0.000148931
0.0001408
0.000165795
0.000161166
0.00523444
0.000149123
0.000131197
0.000151843
0.000192162
0.00301912
0.000162854
0.0519373
0.00513543
0.000186808
0.000143056
0.0057927
0.000203207
0.0800634
0.000140301
0.000151261
0.000205936
0.000169947
0.0672773
0.000164986
0.000137338
0.000184297
0.066923
0.000149422
0.000201487
0.000135866
0.000149319
0.000141433
0.000254306
0.000131068
0.000229204
0.0001405
0.000144407
0.000180937
0.000159178
0.000144489
0.000151194
0.000150922
0.000153096
0.000145615
0.000130642
0.0410975
0.000150677
0.0167567
1.27396e-05
0.00014206
0.000150632
0.000141125
0.00550271
0.000140833
0.0778526
0.000136538
0.00014592
0.000664853
0.000149342
0.000141064
0.00436171
0.00013854
0.000142057
0.000137116
0.00435524
0.000137839
0.000153309
0.042285
0.000137686
0.000163135
0.0374974
0.000145882
0.00577496
0.00244608
0.000630335
0.000206826
0.00033563
0.000149366
0.000242966
0.00296787
0.000242397
0.00231765
0.000147576
0.0111948
0.000525818
0.00013712
0.00394439
0.000131257
0.000193192
0.0487403
0.00015983
0.0127423
0.00019897
0.000130664
0.00553171
0.000144408
0.000153652
0.0630463
0.000166237
0.000137186
0.0136154
0.000144849
0.000145084
0.000150541
0.000137026
0.000152679
0.000141102
0.00103829
0.000136649
0.000150998
0.0097352
0.00016585
0.00014669
0.00269453
0.000141135
0.000187152
0.000147858
0.000133095
0.000142297
0.00477178
0.00679883
0.000166807
0.000240425
0.000150557
0.00336118
0.000131631
0.0690466
0.000148813
0.0441166
0.000137027
0.0808286
0.000143043
0.000164225
0.00024341
0.000137264
0.000172253
0.000133441
0.00541383
0.000152855
0.000161259
0.000148082
0.000148201
0.00272599
0.00393768
0.0209676
0.000159261
0.000193422
0.000150375
0.0472477
0.00171597
0.00015445
0.0335664
0.00634538
0.000223997
0.000159988
0.000188048
0.0051521
0.000167237
0.000154079
0.017461
0.00014644
0.0177213
0.000142955
0.0448394
0.0001423
0.000151727
0.000160549
0.000140329
0.000143504
0.0032839
0.000140797
0.000153423
0.000142907
0.000144392
0.000159298
0.000153858
0.000275429
0.000210646
0.000144648
0.00016394
0.000205285
0.000151266
0.000154393
0.000268331
0.00015588
0.000142829
0.027024
0.000156389
0.000135116
0.000295506
0.000149035
0.00013831
0.0023826
0.000211651
0.000136944
0.000148981
0.000142678
0.00014155
0.000159709
0.000202846
0.00660037
0.000142406
0.00175827
0.000148137
0.0340484
0.000225019
0.000141742
0.0415467
0.030435
0.00060471
0.000155041
0.00396701
0.000181962
0.00418765
0.000245852
0.00013151
0.000148957
0.00014241
0.000137332
0.000126378
0.000257614
0.0057697
0.000143784
0.00014877
0.000151507
0.000146045
0.000150396
0.000140754
0.000152003
0.00014127
0.00015477
0.000140414
0.000136858
0.000138223
0.000147754
0.000152158
0.000134787
0.000146223
0.000221399
0.000151499
0.000158578
0.000145722
0.000144976
0.000215583
0.0329288
0.000142947
0.000134193
0.000147675
0.0336074
0.000145762
0.00014373
0.000150227
0.000140716
0.000154452
0.000143134
0.0265549
0.000143698
0.000137309
0.000138249
0.000134955
0.000137205
0.000154273
0.0195341
0.00014442
0.000130467
0.000140148
0.000143331
0.000133695
0.000164539
0.000299107
0.000145654
0.000158579
0.000146145
0.000150286
0.000148285
0.000184912
0.000152913
0.000161009
0.000142809
0.000140293
0.000182853
0.000185707
0.000138933
0.00022672
0.000306463
0.00242107
0.0799426
0.000181175
0.000137161
0.0822826
0.000256651
0.000137001
0.000162286
0.00324459
0.00018536
0.0324198
0.000244423
0.000150118
0.0482714
0.000147611
0.00014989
0.000136794
0.000137245
0.0584292
0.000154938
0.00432036
0.000162844
0.00014389
0.0305474
0.00406839
0.000323545
0.0328812
0.0217728
0.000136734
0.000137838
0.00617311
0.000167397
0.00459779
0.000669635
0.000156949
0.000147326
0.002749
0.000283411
0.000183729
0.000147848
0.000148482
0.000133308
0.000140594
0.0001489
0.000149334
0.000134751
0.00362113
0.000144666
0.000139536
0.0028434
0.00019281
0.000348041
0.000149248
0.000189192
0.00759733
0.000164838
0.00015224
0.000429718
0.0414877
0.0331425
0.0026659
0.000136621
0.00015048
0.000146406
0.000204124
0.000134731
0.000176504
0.000139483
0.000133282
0.000130934
0.000131884
0.039424
0.00605834
0.000173709
0.00934396
0.00691032
0.00014456
0.000248823
0.000144481
0.000135533
0.000202836
0.0135228
0.000143068
0.000168427
0.00014187
0.000135617
0.000143088
0.0290881
0.000154196
0.00015183
0.0001365
0.0422583
0.00553564
0.0722446
0.000172135
0.000143946
0.000147771
0.00652851
0.00360051
0.000146278
0.000141897
0.000133927
0.000138573
0.00016449
0.000150752
0.000165971
0.00019344
0.000138499
0.00712193
0.000144718
0.000202459
0.000148597
0.000141644
0.000147894
0.00013846
0.000141831
0.00285978
0.000207417
0.000390233
0.000149849
0.000193911
0.000149306
0.00242429
0.000477218
0.000134684
0.000138509
0.000144763
0.0344141
0.000147058
0.000159303
0.000138543
0.00030749
0.00458137
0.000139783
0.00903846
0.000145607
0.000231547
0.0358135
0.000164385
0.000136923
0.000156228
0.000144178
0.000201003
0.000185187
0.000151484
0.00224879
0.000171695
0.000153995
0.00321917
0.000161038
0.000187761
0.000143941
0.00161966
0.000200833
0.00473941
0.000144749
0.000156673
0.000347646
0.000145105
0.000141224
0.000158536
0.000145941
0.00719936
0.000191108
0.000176375
0.00645134
0.0137867
0.000138601
0.00163547
0.000142196
0.000143859
0.00013543
0.0038713
0.000142611
0.000141046
0.000156368
0.000144695
0.0055868
0.000154319
0.000172117
0.000136842
0.000135447
0.000139626
0.00559041
0.006773
0.000144188
0.000144019
0.0148996
0.00211505
0.0015148
0.000161952
0.0111962
0.000151207
0.00642664
0.0244983
0.000146849
0.00013185
0.0299725
0.000226851
0.00013188
0.0449029
0.0752706
0.00113978
0.000154805
0.00015872
0.000140999
0.000185767
0.00654532
0.0335004
0.000147018
0.000187084
0.00459
0.000134927
0.0164514
0.000151023
0.000137314
0.00832654
0.000144009
0.0295391
0.000145637
0.000141668
0.000142564
0.000158317
0.000622737
0.0703368
0.000148516
0.0402761
0.000140425
0.000141257
0.000150611
0.000186707
0.000144368
0.00347885
0.040513
0.000150166
0.000142503
0.000145756
0.0313027
0.000172978
0.00415233
0.00360164
0.000150574
0.000154737
0.0269513
0.0293803
0.000151157
0.002596
0.000173169
0.000143327
0.000164474
0.000155041
0.000144893
0.000181074
0.000150916
0.000143258
0.000152686
0.00606372
0.00645713
0.0103595
0.0188275
0.000161552
0.000312506
0.000138995
0.00915308
0.00451135
0.000169811
0.000152953
0.000140097
0.00022213
0.00393201
0.000158258
0.000164404
0.0103782
0.000149211
0.0539298
0.000134122
0.00162485
0.00219301
0.000133816
0.000150328
0.000158055
0.000145128
0.000142249
0.000145021
0.00013899
0.000138171
0.00581709
0.000135063
0.000141692
0.000140157
0.000344548
0.0204535
0.000148116
0.000141523
0.000150126
0.000139938
0.0417166
0.000170615
0.00153577
0.000131447
0.000150645
0.00592912
0.000140109
0.000163868
0.000145218
0.000144674
0.000157899
0.000145256
0.000155733
0.00564474
0.00022843
0.000134029
0.000139974
0.00014786
0.00015785
0.00246915
0.000168999
0.000142183
0.000139144
0.000135333
0.000150752
0.000152702
0.000149124
0.000150926
0.00522271
0.00014538
0.000149277
0.03974
0.02148
0.0672656
0.00654511
0.0152172
0.000144442
0.000217103
0.00013568
0.000137893
0.000146076
0.000138257
0.000156244
0.000134678
0.00611524
0.000150962
0.000164474
0.000133133
0.000146273
0.000167777
0.000156667
0.0167076
0.0107597
0.000197508
0.000143146
0.000140453
0.0282519
0.0001409
0.0140341
0.000134212
0.000205471
0.00162255
0.000164399
0.000165139
0.0029983
0.0120358
0.00015665
0.00551053
0.000206053
0.0262594
0.0260752
0.000151536
0.00774936
0.000144283
0.000140306
0.000145292
0.000141373
0.00013967
0.00013475
0.00059425
0.000145451
0.00015939
0.000139686
0.00318027
0.00014474
0.0109212
0.000154633
0.000153823
0.000144495
0.000149924
0.000142959
0.000131973
0.000145962
0.000142646
0.00016293
0.000139359
0.000202694
0.00377564
0.000143701
0.000843812
0.000163891
0.000132276
0.00103529
0.000160646
0.000142451
0.0026079
0.00238689
0.000184238
0.0702538
0.000140074
0.00021872
0.000141146
0.000145097
0.000150982
0.000143192
0.000152788
0.000149152
0.00020763
0.00015113
0.000142925
0.000184885
0.000150297
0.000144957
0.000212058
0.0220208
0.000136916
0.000151809
0.000130355
0.000180244
0.000144877
0.000146897
0.0001866
0.000142304
0.000631734
0.000159705
0.0224121
0.00014436
0.000142517
0.000149853
0.000155435
0.00013726
0.000184627
0.00484713
0.00239402
0.000137423
0.00374423
0.00121358
0.000141071
0.000143926
0.00014084
0.000142926
0.00490113
0.00015279
0.00516209
0.000283573
0.000150894
0.000207245
0.00410161
0.000145915
0.000152277
0.0486104
0.00651434
0.000192914
0.00440333
0.000155072
0.000713769
0.000142213
0.000136503
0.00337619
0.000140638
0.0044172
0.0220045
0.000143849
0.000134093
0.000196394
0.000139769
0.00301748
0.0392792
0.00446759
0.000187542
0.000151582
0.0465976
0.0114218
0.0249
0.00015068
0.00143734
0.0249937
0.000151282
0.0337775
0.000150224
0.0001846
0.000141904
0.000166799
0.000140125
0.000204084
0.000158471
0.0301823
0.000397717
0.000141364
0.000135066
0.000133924
0.000150185
0.00811872
0.00670202
0.00642193
0.000162785
0.0133631
0.000182673
0.000163085
0.000184266
0.000161513
0.000133242
0.000148128
0.000171045
0.000144302
0.000148162
0.000155254
0.000234321
0.000133786
0.000153924
0.00584975
0.0313021
0.00366221
0.000198527
0.0374753
0.000204004
0.000190397
0.000151109
0.00738628
0.000158758
0.000160922
0.00019421
0.00300067
0.00288643
0.00670563
0.0343641
0.000158936
0.0395994
0.000142985
0.000193586
0.000184046
0.000136594
0.000149137
0.000134394
0.000141163
0.0343011
0.000143592
0.00268348
0.000152352
0.000150668
0.000145189
0.000139654
0.000249583
0.000131643
0.000411537
0.000151339
0.000145398
0.000131267
0.00166887
0.000143019
0.00749563
0.000139229
0.000212288
0.000137117
0.00492476
0.000170895
0.000141949
0.000197032
0.000161775
0.00519349
0.000196804
0.000146195
0.00020271
0.0422293
0.000175144
0.000236968
9.37369e-05
0.00014148
0.000253662
0.000149659
0.000168339
0.000157022
0.00196577
0.00986431
0.000180262
0.0434784
0.000137864
0.000152134
0.00263811
0.000147991
0.00480657
0.00744323
0.000233121
0.000187986
0.000143048
0.000153907
0.0482426
0.000139858
0.000144263
0.000172896
0.000142404
0.000137806
0.000146207
0.00015118
0.000139996
0.00334317
0.000153624
0.00499149
0.00014275
0.0079998
0.000151457
0.000223297
0.000148796
0.00659593
0.0568729
0.00013748
0.000191638
0.00746061
0.000145433
0.00646996
0.000136816
0.000139473
0.000147858
0.000181757
0.000163372
0.000157032
0.000149714
0.0585963
0.000141256
0.000208416
0.00955894
0.000143142
0.000148805
0.000141851
0.00660932
0.000257806
0.000145202
0.0454664
0.000200253
0.000223376
0.000136778
0.0214655
0.000149928
0.00015085
0.000144335
0.00289284
0.000161241
0.000151806
0.000134856
0.000145394
0.000155967
0.00014865
0.0113178
0.000150435
0.000146462
0.000149459
0.0194226
0.0035593
0.000165907
0.000144649
0.000200867
0.000134452
0.000145357
0.000135124
0.000149884
0.00480545
0.000145467
0.000135735
7.68593e-05
0.000150338
0.00014832
0.000138768
0.000138713
0.000100278
0.000134664
0.00588367
0.00478707
0.000150357
0.000141727
0.000155312
0.0039488
0.000198125
0.0001353
0.000146407
0.000194432
0.000194416
0.00651602
0.000152002
0.000203955
0.000217063
0.00843043
0.000136258
0.00472496
0.000140021
6.20873e-05
0.000134276
0.000147349
0.000265681
0.000143919
0.00725095
0.0181981
0.000145639
0.000141508
0.000151603
0.000134891
0.0532517
0.000141587
0.000150449
0.00414151
0.000224698
0.000138729
0.0446394
0.000167183
0.000157171
0.00015178
0.000139331
0.000224123
0.000142608
0.000155098
0.000957002
0.016572
0.000149656
0.00764569
0.0083938
0.000209492
0.000148117
0.000144173
0.000210502
0.00015867
0.0599435
0.0529168
0.015999
0.000145801
0.000176035
0.00014373
0.00273696
0.00371565
0.00014382
0.0001832
0.000157091
0.000165644
0.000140632
0.000201582
0.000158233
0.000150207
0.00611587
0.000134223
0.000143202
0.0304323
0.000152194
0.000147422
0.000147133
0.000143925
0.0470467
0.000141423
0.000145272
0.000142436
0.000148642
0.000150553
0.000151659
0.000183367
0.07953
0.000164043
0.000150539
0.000270715
0.000158796
0.000143666
0.0378954
0.00547363
0.050968
0.000137331
0.000103268
0.00014873
0.000670629
0.000154007
0.000172508
0.0001975
0.000163509
0.00056912
0.000155399
0.0001506
0.00403945
0.00625377
0.000145611
0.000132527
0.0780577
0.000152814
0.0125585
0.000143616
0.000134529
0.000139925
0.000137666
0.000152059
0.000155135
0.000153601
0.000135925
0.000142183
0.000146106
0.00756886
0.000143636
0.00188649
0.0348853
0.00194948
0.000150865
0.00398697
0.000174169
0.00518613
0.01917
0.00014723
0.000186325
0.00017265
0.000148261
0.000317164
0.00363871
0.000143917
0.00015959
0.00014535
0.000183029
0.000251867
0.00341344
0.000192228
0.000141197
0.0480829
0.000140155
0.000150894
0.000172849
0.0111184
0.000145574
0.000151265
0.000149997
0.000221038
0.00550694
0.000171858
0.000148073
0.0668407
0.000143642
0.00014836
0.000136907
0.000197735
0.000145429
0.00106271
0.000132613
0.016053
0.000234474
0.000200868
0.000158378
0.00414524
0.000191626
0.000136536
0.000140248
0.0160577
0.000173208
0.000148245
0.000159368
0.000137498
0.000182533
0.000136687
0.000150038
0.000139209
0.000250408
0.000142995
0.00652032
0.000179196
0.000137362
0.000143689
0.000162812
0.000147319
0.0054596
0.00602064
0.0152685
0.00911687
0.000141728
0.000217521
0.0119175
0.000133751
0.000168997
0.00100285
0.000137404
0.000154143
0.000183472
0.000204323
0.000230275
0.000177809
0.000148941
0.0374554
0.000141627
0.000141203
0.0506535
0.00414667
0.000151259
0.000146682
0.000343873
0.000139001
0.000192326
0.000152451
0.000194594
0.000133913
0.000142899
0.00014868
0.0302119
0.000151848
0.0288211
0.000203934
0.0143844
0.000144142
0.000132887
0.0128995
0.00571753
0.000188035
0.00017874
0.00184924
0.000150423
0.000175279
0.00022091
0.000151718
0.00382526
0.000136261
0.0069631
0.000185528
0.000141188
0.000143595
0.000190853
0.00641925
0.000149066
0.00019014
0.000148261
0.0156041
0.000143927
0.000142015
0.000266895
0.000159062
0.000156475
0.00361411
0.00420059
0.000141711
0.000218031
0.00018131
0.000159729
0.0099617
0.0273891
0.000146049
0.00014152
0.00109094
0.000145482
0.0627497
0.000156325
0.00598625
0.000158503
0.000149683
0.000148629
0.000137386
0.00024322
0.0460226
0.014434
0.000130938
0.000186804
0.000189383
0.0121683
0.00015134
0.000237491
0.000163071
0.000242434
0.000274652
0.00522202
0.000143005
0.00344848
0.0331275
0.000140052
0.00015834
0.000220537
0.000133615
0.000137745
0.0066937
0.000130777
0.00594159
0.0011258
0.000133904
0.00226516
0.000140948
0.000976675
0.0031732
0.000134672
0.000139425
0.000134733
0.00279746
0.000145223
0.000137527
0.000287178
0.0076083
0.0031759
0.000456345
0.000211706
0.0634169
0.000141526
0.00591781
0.000142078
0.000191496
0.00729214
0.0541826
0.0102522
0.000170015
0.00295238
0.000155009
0.000160409
0.000175993
0.000140178
0.000742674
0.00015135
0.00462412
0.000138867
0.00409235
0.000137516
0.000145536
0.0444212
0.000236944
0.000748179
0.0400118
0.000149466
0.00013799
0.0148198
0.00013605
0.000159062
0.00500384
0.000158099
0.00014855
0.000138615
0.0327658
0.000146978
0.000159057
0.00473061
0.000179059
0.000130653
0.0507744
0.000148802
0.0426187
0.0126076
0.000148509
0.000143942
0.000144215
0.0183682
0.00895484
0.000212196
0.000159103
0.0001508
0.000144651
0.000187464
0.00888649
0.000145527
0.0327168
0.000144548
0.000149576
0.000154712
0.0331252
0.000171125
0.00256462
0.000203206
0.000210734
0.0184227
0.000143418
0.000140258
0.00013865
0.000197858
0.000148839
0.000143659
0.03351
0.000145362
0.000143364
0.000143537
0.00013897
0.000133939
0.00944273
0.000131903
0.041222
0.000141743
0.00195822
0.000139947
0.000153173
0.000148831
0.000158775
0.000140688
0.000141752
0.000151358
0.000151037
0.00119096
0.000167141
0.000209377
0.000861673
0.000156101
0.000137939
0.00226213
0.00285048
0.000133955
0.000142005
0.0176762
0.000472966
0.000137642
0.000821416
0.00268955
0.000720667
0.000266991
0.00608401
0.000583028
0.000146465
0.000142009
0.000137186
0.000175124
0.000143832
0.000141142
0.000137018
0.00013546
0.00779464
0.000148155
0.000158829
0.000155732
0.05175
0.000143491
0.000157761
0.000185284
0.000131405
0.000144327
0.000181544
0.00093548
0.000167861
0.00142471
0.000160179
0.000131167
0.000143135
0.000138727
0.000149147
0.00626133
0.00122163
0.000151197
0.0140884
0.00713148
0.000143128
0.000160707
0.000178999
0.000468715
0.000159704
0.000188722
0.000178447
0.000154091
0.000136328
0.000176664
0.000174181
0.000178141
0.000160936
0.000152442
0.00724271
0.00023723
0.00340047
0.000215468
0.0504562
0.000143092
0.000155653
0.0201941
0.00214731
0.000154142
0.000140094
0.00357576
0.00853414
0.00265703
0.000152235
0.000131429
0.000137537
0.00014765
0.000135866
0.000166367
0.039963
0.00016084
0.000142495
0.00014781
0.0370861
0.000257317
0.000152842
0.000138511
0.0235455
0.000140603
0.00014329
0.00640048
0.00441734
0.0374018
0.00578685
0.0340162
2.61415e-05
0.000153643
0.000151178
0.000169617
0.0722668
0.000148501
0.00177817
0.000137681
0.000146739
0.0110802
0.000138668
0.0026853
0.000164133
0.0347639
0.00713939
0.000143575
0.000190272
0.000145631
0.0027349
0.000144795
0.000253821
0.000166316
0.000273469
0.000151895
0.000157272
0.00739436
0.000146462
0.00015181
0.0347747
0.000156461
0.000136997
0.000175322
0.000215839
0.000141269
0.000144679
0.00014172
0.000132293
0.00014415
0.000191558
0.000143623
0.0208396
0.0133728
0.000177104
0.000145074
0.00251322
0.000144326
0.000137343
0.00014557
0.00014129
0.000134956
0.00374486
0.000205712
0.00833106
0.000157754
0.000204495
0.000132238
0.0303866
0.000189175
0.031149
0.000191672
0.000138782
0.000151421
0.0384095
0.000150937
0.000160741
0.000185715
0.000140135
0.00835483
0.000527279
0.0246341
0.000156602
0.000172484
0.0376513
0.0044843
0.000227113
0.000143412
0.000155567
0.000158179
0.0401468
0.000139809
0.000143501
0.000184167
0.0654585
0.000148052
0.000150055
0.000163598
0.000143361
0.000142255
0.000115499
0.000141216
0.00014001
0.000225054
0.00851068
0.000142941
0.000143562
0.000130534
0.000149235
0.0282226
0.000147567
0.000148823
0.0078631
0.00289923
0.00499896
0.000151488
0.0487285
0.000145716
0.000159246
0.000150625
0.000209502
0.0206777
0.000146976
0.000138786
0.0425144
0.0496823
0.000195268
0.000202017
0.000150565
0.000155841
0.00014812
0.00525398
0.00372337
0.000173107
0.000151356
0.000217961
0.000163965
0.00414482
0.000147261
0.00524457
0.00139379
0.000134505
0.000138737
0.000143539
0.000193163
0.0191555
0.000178739
0.000152536
0.000130453
0.000145211
0.000146309
0.0032738
0.0179767
0.000200584
0.000156245
0.000142931
0.000163124
0.0335182
0.000143209
0.000147694
0.000152953
0.000138628
0.000148775
0.000197479
0.000151001
0.000167136
0.00940568
0.000139848
0.000186453
0.000276834
0.000142458
0.000227777
0.055176
0.000151632
0.00341278
0.000147433
0.0001592
0.000145266
0.000142434
0.000155972
0.000158283
0.000137111
0.00135304
0.00431362
0.000573019
0.00014972
0.00600116
0.000145505
0.000157718
0.00296314
0.000135174
0.000191696
0.000156137
0.000478796
0.0160514
0.000143809
0.000193796
0.00015811
0.000157247
0.0373617
0.000147437
0.000131161
0.00522234
0.000179421
0.000159714
0.000147251
0.000220394
0.000140191
0.000145502
0.000174944
0.0011451
0.000292568
0.00015252
0.000454616
0.0109535
0.000181257
0.00767552
0.00466785
0.000136956
0.00695216
0.000143812
0.000146628
0.000160952
0.000109907
0.000145165
0.000133683
0.000175393
0.0303895
0.000156541
0.000161312
0.0167643
0.000150046
0.00014314
0.0376287
0.000147866
0.000169918
0.000150475
0.000159484
0.000152135
0.000209198
0.000167285
0.000145592
0.000147749
0.00414566
0.0014897
0.00014572
0.00168037
0.000151733
0.0144179
0.000141719
0.000136609
0.0128442
0.000113481
0.000176896
0.00013682
0.000139471
0.000143207
0.000141678
0.00506901
0.000146389
0.0625793
0.000161049
0.000173117
0.000147336
0.004317
0.0039922
0.000159213
0.00341267
0.000143988
0.000147021
0.000159916
0.00016525
0.00534483
0.00713385
0.000145338
0.000175034
0.00015769
0.000145607
0.000151264
0.000186986
0.0222588
0.000159688
0.000117357
0.000160265
0.00219475
0.00398609
0.000120501
0.000141905
0.000174928
0.00456751
0.000158606
0.00013248
0.000156399
0.0092421
0.000325302
0.000210444
0.00603154
0.000163136
0.0040222
0.000139369
0.000150154
0.000151901
0.0586255
0.000166303
0.000142973
0.000150124
0.000141054
0.00015133
0.00387622
0.000140444
0.000246529
0.000174107
0.000157617
0.000157389
0.0069579
0.000175297
0.0001475
0.000144063
0.00959862
0.000202975
0.007137
0.000152078
0.000150654
0.000146321
0.0380564
0.00013721
0.000140762
0.00015014
0.0447249
0.00265459
0.000143346
0.010187
0.000136884
0.000144779
0.000284669
0.0263474
0.000156427
0.00120549
0.000156788
0.012318
0.000134708
0.000146294
0.00298949
0.0667057
0.000142652
0.000186037
0.00014141
0.000143286
0.000148044
0.000161215
0.000154699
0.0474644
0.00457968
0.000146444
0.000143107
0.000176348
0.00333946
0.000150729
0.000146605
0.000135884
0.000175065
0.000141288
0.00999897
0.00015329
0.00014314
0.000150479
0.00017433
0.00429755
0.0484178
0.00425468
0.0277479
0.000213435
0.00249034
0.0484257
0.000182843
0.00132479
0.000158558
0.000187916
0.000145077
0.000178789
0.000189769
0.000141169
0.00306244
0.0037929
0.000570635
0.00716423
0.00033863
0.000681554
0.000138553
0.000158108
0.000163183
0.000148344
0.00597648
0.000140312
0.0499503
0.000150156
0.000158958
0.000157981
0.0069995
0.000251504
0.000209094
0.000141398
0.00824924
0.00023855
0.000136746
0.000151732
0.000517772
0.000205951
0.000251633
0.000145554
0.000212189
0.0109115
0.000236293
0.0027636
0.000455977
0.000505181
0.000183375
0.000557377
0.000182481
0.000133718
0.00015593
0.000133603
0.000140362
0.00204839
0.000141798
0.000168848
0.000149823
0.000772282
0.00239566
0.000136523
0.0001489
0.000154216
0.000185
0.000148029
0.000142071
0.000161802
0.00760181
0.0311968
0.000181627
0.000208581
0.000175396
0.00402008
0.00014647
0.000136734
0.000172533
0.000158053
0.000173
0.000146573
0.000210016
0.000275781
0.000156947
0.000177893
0.000193329
0.000183715
0.0110283
0.00017439
0.000138436
0.000152968
0.000230586
0.000177115
0.000191452
0.0438832
0.000137761
0.00529971
0.000156774
0.0472054
0.00875713
0.000325848
0.000146921
0.000151668
0.000147996
0.000147792
0.000139016
0.000214305
0.000262786
0.000185591
0.00349585
0.000184113
0.000137281
0.000145967
0.000158057
0.00225075
0.00265103
0.00289678
0.000167691
0.00771674
0.000143544
0.000139635
0.000210518
3.59642e-05
0.00500477
0.000157036
0.000211795
0.000114155
0.000142101
0.0488355
0.047362
0.0206201
0.0327291
0.000164838
0.000179074
0.000146338
0.000141242
0.000150712
0.000257019
0.010504
0.000143693
0.00539599
0.000145965
0.000162937
0.00486022
0.000147125
0.000133941
0.000147344
0.000145747
0.00319508
0.000144896
0.000146456
0.000166828
0.000145902
0.000161709
0.00527756
0.0376706
0.00252193
0.015645
0.000177263
0.00015614
0.0155509
0.00426652
0.000152386
0.0399972
0.000179954
0.000245394
0.000190044
0.0482501
0.000147182
0.034987
0.00421174
0.00233207
0.00260132
0.000210668
0.000144862
0.000142631
0.000192772
0.000145581
0.000146833
0.000162982
0.0339037
0.013942
0.000145339
0.000149049
0.000131785
0.000153314
0.000178415
0.00503573
0.07664
0.000149619
0.000183815
0.000849454
0.0436371
0.000147164
0.00239791
0.00564796
0.000194121
0.000240738
0.00563167
0.000136202
0.000164348
0.000139815
0.000142658
0.000150459
0.000135725
0.000139025
0.000416227
0.00497703
0.00708654
0.000177512
0.000187831
0.0478516
0.000136482
0.00041882
0.000149473
0.000155755
0.00132307
0.000149122
0.000143766
0.000348456
0.000150928
0.000150804
0.0593082
0.000140235
0.000174201
0.00497678
0.000148938
0.00164925
0.0354749
0.0348467
0.000143131
0.000209056
0.00014158
0.000134407
0.000148049
0.00472875
0.000137969
0.000183548
0.000153172
0.000177604
0.0632583
0.000305981
0.000193164
0.000162907
0.000151372
0.00013572
0.000166743
0.00013907
0.000635254
0.000146052
0.0783236
0.0059822
0.0306396
0.000152015
0.000326492
0.0171498
0.00338435
0.000194064
0.000148304
0.000146829
0.00453448
0.0107883
0.0717166
0.000144116
0.00015848
0.000341379
0.000144127
0.000135701
0.000150484
0.000146888
0.000139849
0.000148195
0.000159155
0.000139445
0.00103607
0.00118283
0.00440412
0.000155542
0.000178425
0.0072586
0.000179015
0.000256567
0.000145309
0.000287921
0.000131029
0.000150663
0.000157219
0.0485081
0.000176429
0.027766
0.0134069
0.000177874
0.000983193
0.000169799
0.000448873
0.000136054
0.000168709
0.000143613
0.0778098
0.0231653
0.000146585
0.010266
0.00014507
0.0202002
0.000147173
0.00015443
0.0419182
0.0355255
0.000142736
0.00143844
0.00559772
0.000167276
0.0584793
0.000163461
0.0462394
0.000161466
0.000165103
0.000195068
0.00479866
0.0149292
0.000257902
0.00014714
0.000151053
0.0363577
0.000143513
0.000133086
0.0611963
0.000143834
0.000187343
0.00459448
0.000151516
0.000167635
0.0570681
0.00862022
0.000152021
0.000523702
0.000167752
0.0128481
0.000926852
0.000185616
0.000143636
0.000141779
0.000148187
0.000147678
0.000143332
0.000156689
0.000184589
0.000156153
0.000145924
0.000144411
0.000136354
0.000160601
0.043579
0.00014997
0.000167957
0.0602581
0.0243911
0.000146148
0.000142563
0.000174622
0.000152796
0.000136815
0.000149962
0.000162954
0.0330703
0.0492527
0.00015704
0.000141853
0.000646735
0.000141149
0.000153351
0.00450516
0.000142006
0.000147586
0.000182241
0.000138576
0.0513503
0.000153444
0.00210701
0.00013356
0.000418274
0.00016799
0.0138636
0.000192174
0.000133359
0.000147268
0.000163297
0.000167667
0.000139922
0.00013336
0.000171026
0.000154282
0.000145826
0.00810346
0.000153681
0.04635
0.000131355
0.000143936
0.000187036
0.000138862
0.000209244
0.0792536
0.0480774
0.00295442
0.00669208
0.000302724
0.000183527
0.000147769
0.00016172
0.000224326
0.000152947
0.0215785
0.0273311
0.000366
0.000155196
0.000216711
0.00519321
0.000158762
0.000191201
0.000226939
0.000144837
0.00294467
0.000224293
0.0114146
0.000147755
0.0354764
0.000157379
0.000139535
0.000143145
0.00192222
0.000144466
0.00171105
0.000179589
0.000165506
0.00906576
0.000153596
0.00014585
0.000155226
0.000140866
0.0475293
0.000149941
0.0001638
0.0421656
0.000148506
0.000145123
0.0259192
0.000136296
0.00404061
0.0300322
0.00539836
0.000174302
0.000161319
0.000178344
0.000139777
0.000147652
0.00162587
0.00013872
0.000190459
0.000150795
0.000143617
0.000136459
0.00018672
0.000151689
0.000232763
0.000147179
0.00014571
0.00268682
0.0635851
0.00021312
0.000756985
0.000131309
0.00014353
0.00018254
0.0612539
0.00557123
0.050152
0.000162786
0.0241554
0.000669791
0.000196197
0.000155461
0.000177398
0.033466
0.000287569
0.000228961
0.00511347
0.0371903
0.000194925
0.00015342
0.00014496
0.000143787
0.000140168
0.0169656
0.000148861
0.000183846
0.000142308
0.000209582
0.000144868
0.000177529
0.000144511
0.000143267
0.00416154
0.000136651
0.000186266
0.000177175
0.0537228
0.000160962
0.0171749
0.000150682
0.0489526
0.000135214
0.000148716
0.00508823