/*--------------------------------*- C++ -*----------------------------------*\
| =========                 |                                                 |
| \\      /  F ield         | OpenFOAM: The Open Source CFD Toolbox           |
|  \\    /   O peration     | Version:  v2012                                 |
|   \\  /    A nd           | Website:  www.openfoam.com                      |
|    \\/     M anipulation  |                                                 |
\*---------------------------------------------------------------------------*/
FoamFile
{
    version     2.0;
    format      ascii;
    class       volVectorField;
    location    "200";
    object      U_0;
}
// * * * * * * * * * * * * * * * * * * * * * * * * * * * * * * * * * * * * * //

dimensions      [0 1 -1 0 0 0 0];


internalField   nonuniform List<vector> 
18649
(
(-0.194324 -0.038607 9.26573e-23)
(1.01183 -0.113002 2.26522e-21)
(1.07055 -0.00142132 0)
(-0.197783 -0.0488358 -1.08254e-19)
(0.474697 -0.169881 1.18857e-19)
(1.1072 -0.0726215 -2.54302e-20)
(0.0997951 0.0620438 -5.78401e-20)
(1.27558 -0.240918 -1.60566e-20)
(1.20609 -0.0128508 2.13928e-20)
(0.95806 -0.0501259 -8.84138e-22)
(1.21943 -0.301243 6.85728e-20)
(-0.273497 -0.0411371 -2.14695e-20)
(1.01475 0.0890441 -8.14836e-20)
(1.06921 -0.00172172 0)
(0.991826 -0.0182134 0)
(1.1737 -0.057962 3.14244e-20)
(1.01518 -0.00235738 2.52057e-22)
(1.17371 -0.0550825 1.36526e-20)
(1.12007 -0.392369 3.62494e-20)
(0.0242938 -0.034475 -1.36086e-19)
(0.0938381 -0.0633283 -9.74455e-21)
(1.04412 -0.0647662 0)
(-0.319587 -0.0582547 0)
(1.23881 0.060133 0)
(1.01593 -0.0155508 0)
(-0.00974946 -0.0367518 -2.92423e-20)
(1.0342 -0.055249 -3.54036e-22)
(-0.266799 -0.0395102 -6.29496e-20)
(1.35049 -0.193503 0)
(1.03007 -0.00202054 -8.60709e-21)
(1.05265 -0.0459977 3.0593e-21)
(1.04747 -0.320269 7.04667e-21)
(1.00479 -0.00951445 -8.03224e-23)
(0.960611 -0.0998482 -2.66292e-20)
(0.979459 -0.0661123 5.47336e-21)
(-0.311476 -0.0560495 -3.21422e-20)
(0.879774 -0.0668752 6.13184e-20)
(1.01351 -0.0506119 9.77055e-22)
(1.0337 -0.0142506 4.63832e-21)
(1.26857 -0.242995 -4.80397e-20)
(1.21041 -0.0122749 -6.46245e-20)
(1.23885 0.0592058 -2.82286e-21)
(1.20972 0.0101498 -3.20499e-21)
(-0.245717 -0.0539966 -2.1392e-23)
(1.01493 -0.113001 8.82759e-22)
(1.03041 -0.00193185 -7.6916e-21)
(-0.08107 -0.0520775 -1.10758e-19)
(-0.190468 -0.0495286 7.76671e-20)
(1.04438 -0.291032 6.17963e-22)
(1.03126 -0.0198248 7.60573e-21)
(-0.111715 -0.00265268 2.88138e-20)
(1.10836 -0.112681 -3.98207e-21)
(0.404348 -0.0911695 2.5344e-20)
(0.512515 0.0242198 0)
(1.00464 -0.0090304 -1.79003e-21)
(1.01634 -0.285395 8.63638e-20)
(-0.175373 -0.0208892 0)
(1.23311 -0.0243609 0)
(-0.115698 -0.038112 -1.16077e-19)
(0.959978 -0.0499617 1.00803e-21)
(-0.19381 -0.03761 -8.02039e-20)
(1.00313 -0.0206222 3.69291e-21)
(1.20695 0.011713 0)
(-0.168333 -0.0489345 -4.58468e-20)
(1.01483 -0.0504648 0)
(-0.154712 -0.0491674 1.6434e-19)
(1.04434 -0.0377281 0)
(-0.17062 -0.0158987 0)
(-0.163098 -0.046035 -8.53718e-20)
(1.32722 -0.04179 7.8859e-20)
(-0.282071 -0.0538026 1.11125e-20)
(1.00403 -0.0230423 5.01595e-22)
(1.03274 -0.329272 1.91043e-21)
(1.10568 -0.0404732 -8.33638e-23)
(0.965304 -0.0929047 2.13845e-20)
(0.0832574 -0.0654537 1.05823e-20)
(0.861392 -0.164056 1.25199e-20)
(1.03725 -0.161214 3.20226e-21)
(1.10332 -0.0398305 -8.54959e-21)
(0.963813 -0.503548 0)
(1.01558 -0.00199129 0)
(-0.104538 -0.0523586 0)
(-0.205868 -0.0523637 1.89337e-19)
(0.437524 -0.0952361 -2.4229e-20)
(0.836626 -0.26508 0)
(1.03343 -0.0134154 -6.48624e-21)
(0.886785 -0.116975 5.58519e-20)
(1.10642 -0.109434 3.01718e-20)
(1.14271 -0.154579 1.65971e-20)
(1.11031 -0.0455458 0)
(1.14009 -0.0253995 -3.8165e-20)
(0.965825 -0.0298231 0)
(1.00412 -0.0439461 -3.37872e-21)
(-0.0816767 0.0355055 -6.95813e-20)
(1.04341 -0.0629951 0)
(1.214 -0.294357 9.79717e-20)
(0.965342 -0.0547439 0)
(0.939804 -0.461739 5.76296e-22)
(-0.155464 -0.0456017 -4.31393e-20)
(1.03345 -0.0536429 2.82021e-22)
(-0.31985 -0.0568522 -1.078e-19)
(0.918066 -0.232532 0)
(1.01954 -0.00712332 2.61605e-23)
(-0.102194 -0.00119114 0)
(-0.164993 -0.0448444 4.72802e-20)
(1.1117 -0.112732 -6.45044e-22)
(0.999084 -0.00435872 -4.98478e-21)
(1.05698 -0.0493859 -7.13451e-22)
(0.919004 -0.238981 -2.12578e-20)
(0.963477 -0.0849163 1.82658e-20)
(-0.309824 -0.0561416 -5.85555e-20)
(0.681175 -0.216007 -1.35136e-19)
(1.00388 -0.0428389 -3.05904e-21)
(0.959283 -0.0823046 -5.72698e-21)
(1.28935 -0.0278217 5.95872e-20)
(1.07949 -0.00244622 -9.87734e-21)
(1.00423 -0.00862079 -3.11642e-23)
(-0.101366 0.007224 0)
(-0.252527 -0.0542763 0)
(1.04002 -0.0188378 0)
(-0.121535 -0.0386577 1.15758e-19)
(1.02131 -0.0639367 0)
(1.03711 -0.32254 -1.78965e-21)
(1.00358 -0.0228475 5.47796e-23)
(-0.13107 -0.0514823 3.70197e-20)
(1.01623 -0.0161325 0)
(1.00002 -0.000330559 -7.25133e-21)
(0.0143979 -0.028748 2.5596e-20)
(1.02031 -0.0628812 -1.34588e-21)
(-0.086625 0.0107596 4.78976e-20)
(0.998496 -0.0351894 5.16535e-22)
(-0.202007 -0.052573 -1.22199e-19)
(1.01677 -0.0299474 1.06117e-21)
(-0.0938566 -0.0410783 9.29664e-20)
(0.874722 -0.0666059 -2.20764e-20)
(0.999675 -0.00398792 -1.15835e-20)
(-0.272391 -0.0556378 -4.51364e-24)
(-0.169204 -0.0189714 0)
(1.13824 -0.0235806 3.34756e-20)
(1.03453 -0.157567 0)
(0.471751 -0.546633 -2.37138e-20)
(1.0243 -0.0429654 0)
(1.02874 -0.0156433 0)
(1.00818 -0.0146218 1.17457e-21)
(1.00006 -0.00770766 -1.26541e-20)
(-0.254535 -0.0270232 0)
(1.02928 -0.0154224 0)
(1.00144 -0.0162166 -9.58085e-21)
(-0.317378 -0.0543998 0)
(-0.167635 -0.0456474 9.51791e-20)
(1.32885 -0.0127338 -4.47377e-20)
(0.99958 -0.00257999 0)
(-0.238857 -0.0538123 0)
(1.05703 -0.0210831 -9.78752e-21)
(1.02318 -0.0547675 0)
(1.00778 -0.0142419 0)
(0.588632 -0.243919 0)
(0.962062 -0.486326 -4.69843e-21)
(1.00472 -0.00492039 -6.88213e-22)
(0.987671 -0.0393344 4.02977e-21)
(1.00045 -0.0139552 7.06402e-21)
(1.29437 -0.321155 1.10248e-19)
(-0.112586 -0.0394129 -9.55026e-20)
(1.05652 -0.0219391 -9.26866e-21)
(-0.123171 -0.0510832 0)
(1.28962 -0.0317848 -5.91749e-20)
(0.999068 -0.00464037 0)
(1.00526 -0.0241805 -1.63087e-21)
(1.02411 -0.0558351 3.26347e-22)
(1.07765 -0.00290477 -1.59561e-20)
(0.997876 -0.0348079 0)
(0.139492 -0.442367 1.18822e-19)
(1.2293 -0.026398 0)
(0.481114 -0.190868 0)
(1.01617 -0.0486818 2.61052e-21)
(0.538244 0.0930612 -8.63704e-20)
(-0.320801 -0.0548209 -4.791e-23)
(1.01928 -0.115971 -2.57123e-21)
(1.00442 -0.00473137 -6.66729e-22)
(1.33535 -0.0408527 0)
(1.34645 -0.0324219 0)
(1.02783 -0.00510158 0)
(1.00003 -0.000662379 2.15058e-21)
(-0.190789 -0.0128778 -5.50714e-20)
(1.09174 -0.0966039 0)
(1.17556 -0.0302636 0)
(1.00011 -0.00731517 9.55226e-21)
(1.02485 -0.0425368 0)
(1.15471 0.0100778 0)
(0.972215 -0.195813 0)
(0.878114 -0.795132 -1.99889e-20)
(1.01569 -0.0533035 0)
(-0.167656 -0.0263604 -6.70429e-20)
(1.05155 -0.0203385 0)
(1.01821 -0.00610961 1.62571e-21)
(1.00029 -0.00499359 0)
(0.890829 -0.114716 -2.00638e-20)
(0.979012 -0.29324 -1.16712e-21)
(0.96461 -0.0957814 1.12788e-20)
(1.00005 -0.00058074 0)
(1.00133 -0.0154872 0)
(1.27429 -0.0335603 0)
(-0.176415 -0.0154993 -6.36223e-21)
(0.890365 -0.07934 -1.72778e-20)
(1.14639 -0.158227 8.28345e-21)
(0.708987 -0.184792 1.94546e-20)
(1.3379 -0.182767 3.28597e-20)
(-0.0628796 -0.0521395 7.16474e-20)
(1.05555 -0.0485867 0)
(-0.235841 -0.0451095 -1.41724e-19)
(0.987017 -0.0423963 -4.16995e-21)
(1.01695 -0.0983183 8.46903e-22)
(1.01774 -0.0619254 0)
(-0.180458 -0.0279293 1.46583e-19)
(-0.206536 -0.0532034 1.60696e-19)
(1.03615 -0.0310163 -3.46863e-21)
(0.83011 -0.226347 0)
(1.02215 -0.0300324 7.01735e-22)
(-0.12607 -0.051631 -9.93746e-23)
(0.998213 -0.0476482 1.10468e-20)
(1.22233 0.02774 1.5203e-20)
(1.01913 -0.040111 -5.6321e-22)
(0.315226 -0.806566 3.87992e-20)
(0.164947 -0.4572 -1.06541e-21)
(0.0572855 -0.0373125 1.01972e-19)
(-0.0870142 0.0346224 3.64981e-20)
(1.03715 -0.0318423 4.06721e-21)
(0.998134 -0.0462968 -4.8477e-21)
(0.376939 -0.0852986 0)
(0.61069 0.0939921 1.1071e-19)
(1.15425 0.0167842 6.12551e-21)
(1.01666 -0.0275692 2.55842e-22)
(-0.318803 -0.0556774 0)
(1.17274 -0.064852 -2.9237e-20)
(0.0479966 -0.0347178 1.06663e-19)
(1.30314 -0.304422 1.48942e-20)
(0.596503 -0.224341 7.19696e-20)
(0.47802 -0.112249 6.28684e-20)
(1.01641 -0.0291407 -1.26382e-21)
(1.23179 -0.455957 -7.97133e-20)
(1.02124 -0.00481652 0)
(-0.219732 -0.0379118 -3.35437e-20)
(1.15334 0.0148927 1.35907e-21)
(1.02733 -0.00487287 2.13386e-22)
(0.96004 -0.0849277 1.20745e-20)
(0.977907 -0.194207 1.23997e-20)
(0.248955 -0.064238 1.1471e-19)
(0.988351 -0.0388073 0)
(0.769677 -0.34873 1.97567e-20)
(0.982212 -0.28739 -5.97108e-21)
(-0.309918 -0.0511451 6.86351e-20)
(0.0828823 0.0590404 7.37437e-20)
(1.17313 -0.0282992 0)
(0.978853 -0.0681421 6.27189e-21)
(1.09498 -0.096588 2.64449e-20)
(-0.246105 -0.052333 0)
(1.01912 -0.039008 6.43212e-22)
(0.987091 -0.0414213 0)
(0.956653 -0.0826844 5.99533e-21)
(0.965019 -0.08739 -1.91656e-20)
(1.03294 -0.0237548 -1.44323e-21)
(0.68562 -0.202614 8.05613e-20)
(-0.235453 -0.045595 1.34251e-19)
(0.986186 -0.0382223 1.38597e-20)
(1.01749 -0.00610803 -1.50227e-21)
(-0.118968 -0.0526054 3.84822e-20)
(0.372703 0.0853628 -4.74897e-20)
(1.00024 -0.00494818 0)
(-0.189086 -0.0105963 -2.73703e-20)
(1.02206 -0.0112188 0)
(-0.260641 -0.0296377 1.86836e-20)
(1.06567 -0.343622 -1.09542e-20)
(0.350914 -0.0825885 2.79737e-20)
(0.671275 -0.31374 0)
(1.12977 -0.389914 0)
(1.0513 -0.0192905 1.54614e-21)
(1.01715 -0.00554466 0)
(1.09271 0.0847678 -5.21267e-20)
(-0.0778901 0.0355758 0)
(-0.112026 -0.051913 -2.05193e-21)
(1.00018 -0.00767399 1.42282e-21)
(1.02111 -0.0297606 9.71501e-22)
(-0.230345 -0.0540975 2.40666e-20)
(1.05922 -0.128532 -1.18283e-20)
(0.889883 -0.137591 8.42385e-20)
(-0.316342 -0.0544195 0)
(1.05918 -0.0205375 0)
(0.863812 -0.171722 0)
(0.999744 -0.00322321 0)
(1.03058 -0.00626627 0)
(1.21951 0.0256012 -1.48957e-20)
(-0.305987 -0.0498906 2.83916e-20)
(0.23855 0.0689895 -6.13077e-20)
(0.29697 -0.0596485 -1.73994e-19)
(1.35789 -0.148251 -9.95495e-23)
(1.0006 -0.0783111 -9.5564e-21)
(1.33598 -0.00948662 0)
(1.35282 -0.192859 0)
(1.01857 -0.00655781 0)
(0.425934 0.0876112 0)
(1.00518 -0.000896921 -1.27825e-21)
(0.958212 -0.101257 3.64675e-20)
(0.966379 -0.0525946 0)
(1.00746 -0.0144236 -2.66019e-22)
(1.03891 -0.0185329 4.69516e-21)
(0.467345 -0.12544 4.11587e-20)
(0.999717 -0.00380223 1.32463e-20)
(1.19265 -0.032012 3.54828e-20)
(0.463157 -0.094624 -5.4776e-20)
(0.961305 -0.0967143 -2.32923e-20)
(-0.0294769 -0.03667 0)
(0.960714 -0.0526098 3.61642e-20)
(0.490931 -1.14055 -2.43625e-20)
(0.992262 -0.0177356 1.05893e-20)
(1.0587 -0.0213823 9.21745e-21)
(1.01692 -0.02858 0)
(1.06905 -0.0221743 2.46908e-20)
(1.00003 -0.000295425 -4.29333e-21)
(-0.21 -0.0529514 -9.42463e-20)
(-0.22278 -0.0514324 -6.97258e-20)
(0.999304 -0.00360695 0)
(1.00027 -0.0138306 -3.89293e-21)
(1.21145 -0.00934804 4.88713e-20)
(1.00023 -0.000435068 2.6437e-21)
(1.00703 -0.0139875 -1.8245e-21)
(1.03885 -0.0393071 0)
(1.00025 -0.00724358 0)
(0.921893 -0.160402 -3.3256e-20)
(-0.0639733 -0.0021919 0)
(0.69912 -0.171076 6.65227e-20)
(-0.22564 -0.044655 3.6271e-20)
(1.00479 -0.0237581 0)
(0.999864 -0.0119889 3.62735e-21)
(1.20473 0.0167026 1.22941e-20)
(1.00526 -0.00488429 6.47861e-22)
(1.03252 -0.000536267 0)
(-0.202169 -0.0107963 -5.75494e-20)
(0.990926 -0.150983 0)
(1.26055 -0.124406 5.96412e-20)
(0.88638 -0.0815197 0)
(1.29075 -0.328351 -5.41635e-20)
(1.00495 -0.00470163 0)
(1.09267 -0.0122339 0)
(1.01871 -0.0631793 1.55938e-21)
(1.0688 -0.0704026 8.86272e-21)
(0.99882 -0.0197277 3.14001e-21)
(1.0002 -0.00432695 -4.24204e-21)
(1.02076 -0.00434081 -2.81339e-21)
(1.13817 -0.019367 -1.92112e-20)
(1.17137 -0.067161 0)
(0.995797 -0.0203302 7.25933e-21)
(1.01398 0.0862898 -4.71723e-20)
(0.995538 -0.0209804 0)
(1.03877 -0.0386562 0)
(-0.220687 -0.0434118 -1.28311e-19)
(1.0432 0.0540662 0)
(1.07026 -0.0230341 0)
(-0.0379798 -0.0433206 0)
(1.29426 -0.304334 0)
(-0.117207 -0.0519924 -1.62371e-20)
(0.179501 0.0677037 0)
(1.06732 -0.0684965 -7.91064e-21)
(0.144144 0.0644594 0)
(0.995764 -0.021685 0)
(0.122554 -0.052835 1.07313e-19)
(0.51925 -0.943222 1.82141e-20)
(0.962521 -0.0525408 -2.57116e-20)
(0.904607 -0.0432262 -3.99196e-20)
(0.990978 -0.147347 7.9518e-21)
(1.05139 -0.0446884 0)
(1.01669 -0.0544535 -1.68704e-21)
(1.02786 -0.015261 0)
(0.999076 -0.0184775 4.74582e-21)
(-0.190094 -0.0353455 -3.35559e-20)
(0.916208 -0.162067 0)
(0.032929 -0.037153 -1.06489e-19)
(-0.22831 -0.0448355 1.5778e-20)
(1.35156 -0.173478 0)
(0.21354 -0.0609772 -7.27748e-20)
(1.08403 -0.0346606 -9.91997e-21)
(0.999962 -0.000514097 5.01251e-21)
(1.15047 0.0204555 0)
(1.01459 -0.0269829 0)
(0.835866 -0.825588 0)
(1.00005 -0.000120689 5.40988e-21)
(0.999661 -0.00252977 -7.83015e-21)
(0.0744266 -0.204018 0)
(0.265288 0.0722922 0)
(1.0617 -0.0508824 -3.81636e-21)
(1.03213 -0.0213798 0)
(1.32378 -0.293387 6.92179e-20)
(1.10267 -0.220821 -8.3295e-21)
(0.995241 -0.0458348 1.18055e-20)
(-0.14766 -0.00189015 -3.61665e-20)
(1.06643 -0.00172914 1.26454e-20)
(0.907192 -0.0416614 5.02539e-20)
(-0.306029 -0.0564849 1.72332e-19)
(1.08153 -0.0687307 -6.55744e-21)
(0.999757 -0.00301297 -3.98117e-21)
(-0.206073 -0.00849222 0)
(-0.192026 -0.0365739 0)
(1.17261 -0.0232036 -1.62733e-20)
(1.00351 -0.0307809 0)
(0.999938 -0.0115635 0)
(-0.197204 -0.0322566 0)
(-0.202402 -0.00916355 7.08485e-20)
(1.02256 -0.0310744 0)
(1.31641 -0.266424 6.32761e-20)
(1.02376 -0.0123712 0)
(1.0267 -0.0391519 3.0252e-23)
(0.108725 0.0557293 0)
(1.0358 -0.013327 2.27647e-22)
(-0.0523029 0.000588315 0)
(1.08168 -0.0706524 0)
(1.24955 0.0466987 0)
(0.173182 -0.0559676 1.13129e-19)
(0.976861 0.0908875 6.08606e-20)
(0.49743 0.0911438 1.26137e-19)
(1.01462 -0.024932 0)
(0.0262036 -0.0749613 5.51023e-20)
(0.99555 -0.0223638 0)
(1.1228 0.0834574 7.34376e-20)
(1.15006 -0.249745 0)
(0.0856777 -0.0483664 6.29174e-20)
(0.400439 -0.000639993 9.71731e-20)
(1.02733 -0.0147804 -1.90203e-21)
(1.03274 -0.000118048 -1.39011e-22)
(1.2264 -0.466225 0)
(-0.101243 -0.0521163 -3.28908e-20)
(1.09398 -0.0130737 7.87249e-21)
(0.679421 -0.300689 -5.66889e-20)
(1.06007 -0.0507942 3.43382e-21)
(1.04356 -0.0842724 8.60648e-21)
(1.01622 -0.00500073 -1.78056e-21)
(-0.0720577 0.0116813 2.44752e-22)
(0.974111 0.0888256 5.09571e-20)
(-0.0569988 -0.0494762 -3.27347e-20)
(1.05431 -0.0454838 5.56329e-21)
(0.965849 -0.0286292 -7.27906e-21)
(0.0930829 -0.217911 0)
(-0.237095 -0.0552137 -8.10891e-20)
(0.905712 -0.0370684 -5.77315e-20)
(0.995534 -0.0773211 -1.21245e-20)
(1.03201 -0.0221924 0)
(1.02445 -0.0123926 -3.796e-21)
(-0.105827 -0.0517963 0)
(0.000257789 -0.0292595 4.81988e-20)
(1.00412 -0.00749475 -1.1478e-22)
(1.05094 -0.00998524 -7.96443e-21)
(-0.311446 -0.0563799 0)
(1.03523 -0.017971 4.44401e-22)
(-0.286071 -0.0525037 1.87265e-19)
(1.03116 -0.0205225 -5.59374e-21)
(-0.156293 -0.0278971 0)
(1.09676 -0.218573 -2.5613e-20)
(0.103071 -0.0501081 5.70673e-20)
(0.944922 -0.136355 -1.61024e-20)
(0.54818 0.0276182 -4.03807e-20)
(-0.231391 -0.0442646 9.19898e-21)
(1.02288 -0.124682 -1.7081e-21)
(1.20533 -0.0169965 -2.36998e-20)
(1.0446 -0.0827025 -3.93049e-21)
(1.19682 -0.0219704 2.01187e-20)
(1.08292 -0.0329739 0)
(0.988206 -0.0354355 0)
(1.05907 -0.131592 7.98996e-22)
(0.200621 -0.582247 -6.41427e-20)
(1.03076 -0.00676605 0)
(1.07264 -0.0432296 0)
(-0.239823 -0.0550073 2.20086e-20)
(1.02288 -0.0130523 5.95074e-21)
(1.00018 -0.00431471 0)
(1.18866 0.0795257 0)
(1.01424 -0.0153756 1.14146e-22)
(-0.237284 -0.0528882 -3.64525e-20)
(1.06151 -0.0198136 0)
(1.06877 -0.0197574 0)
(1.04966 -0.00784437 0)
(1.11761 -0.0521757 -2.61728e-20)
(1.06511 -0.00113634 1.09074e-20)
(1.00004 -0.000489362 1.13381e-22)
(0.542574 -0.551334 0)
(1.02724 -0.0402851 -9.35871e-23)
(0.828912 -0.145617 0)
(1.00026 -0.012968 -3.64455e-21)
(1.08885 -0.118599 3.15624e-20)
(-0.248703 -0.0544453 -8.49887e-20)
(1.00004 -0.000981868 -1.16905e-22)
(0.777609 0.0624294 1.56023e-20)
(1.07552 -0.0999605 0)
(0.103785 0.0639689 0)
(-0.22597 -0.0124372 5.85349e-20)
(-0.229488 -0.0131293 0)
(-0.274632 -0.0537416 0)
(1.12034 -0.0528185 2.93952e-20)
(1.17878 -0.239022 6.35186e-22)
(1.15312 0.0194284 7.12281e-21)
(-0.2853 -0.0530753 -9.38181e-20)
(0.977898 -0.034441 0)
(1.15066 -0.316581 -4.74995e-20)
(0.969688 -0.0891576 1.81134e-20)
(0.534009 -0.0341026 9.75732e-20)
(1.27925 -0.0315111 -5.1784e-20)
(1.07624 -0.265946 0)
(1.00027 -0.000417869 -2.15667e-21)
(0.38629 -0.346144 -7.39607e-20)
(1.27959 -0.00145941 6.67551e-20)
(0.128593 0.0558903 9.07712e-21)
(1.04381 -0.0341885 0)
(-0.301678 -0.0564285 -2.26487e-19)
(0.927662 -0.0442186 -6.03932e-22)
(1.22515 0.0230359 -1.56532e-20)
(0.996792 -0.0113971 6.13863e-21)
(1.15286 -0.256894 -3.3238e-20)
(-0.237196 -0.0551714 6.52231e-20)
(0.999424 -0.00328816 -8.00349e-21)
(1.05007 -0.00933686 0)
(-0.229095 -0.0142054 0)
(1.03726 -0.0201614 0)
(0.953812 -0.45303 -5.56292e-22)
(1.03551 -0.0206625 0)
(1.10982 -0.0731267 2.35546e-20)
(1.03338 -0.0562814 1.13058e-21)
(1.14596 -0.10231 1.41639e-20)
(1.01395 -0.0147915 -7.52169e-23)
(0.725914 -0.482844 -2.30969e-20)
(1.00008 -0.000878628 1.46262e-21)
(0.0774584 0.0599504 -1.53457e-20)
(1.04502 -0.0342846 0)
(-0.274031 -0.0522528 -1.22057e-19)
(1.26622 -0.0892487 0)
(-0.0861105 0.0341376 4.14523e-20)
(-0.232156 -0.0552805 -8.42791e-20)
(1.07075 -0.042401 0)
(1.08311 0.0478959 6.58716e-21)
(1.19558 -0.0252749 3.883e-20)
(0.0218212 0.0106099 9.32899e-20)
(-0.229021 -0.0444474 -2.00791e-20)
(1.0405 -0.0174851 5.65659e-22)
(0.821428 -0.143696 2.63273e-20)
(1.24727 0.0454557 -4.91838e-20)
(1.07225 -0.0265243 1.27756e-20)
(1.26592 0.057037 7.95393e-21)
(1.01567 -0.0593737 0)
(0.999233 -0.00405257 4.54133e-21)
(1.07118 -0.0275072 -4.69623e-21)
(1.00358 -0.000643582 1.17327e-21)
(1.00006 -0.000716301 3.5382e-21)
(1.0152 -0.0609117 2.38778e-21)
(0.406856 -0.161769 1.1277e-19)
(1.02258 -0.0118104 0)
(1.02723 -0.0312063 0)
(1.11312 -0.0459888 -9.98174e-21)
(1.04583 -0.0919853 7.1126e-23)
(0.508113 -0.534501 4.48922e-20)
(-0.0907868 0.0341574 3.27306e-20)
(0.976797 -0.0342386 -7.40745e-22)
(1.2074 0.0153702 1.39237e-20)
(1.32725 -0.174805 0)
(1.07043 -0.27018 0)
(1.00008 -0.0128778 7.62759e-21)
(0.0274576 -0.0547026 0)
(0.654558 0.0940791 -3.90823e-20)
(0.172315 -0.0739958 0)
(1.26787 0.0551215 -9.5228e-21)
(1.15549 0.0121837 0)
(1.04801 -0.0816237 1.38817e-21)
(1.12134 -0.0623419 7.36619e-21)
(1.13977 -0.0210864 0)
(1.06319 -0.0196349 -5.6247e-21)
(1.36211 -0.142274 2.95125e-20)
(1.00927 -0.034479 0)
(1.06349 -0.0187728 -6.42496e-21)
(1.03081 -0.0102596 2.93679e-21)
(-0.150116 0.0174921 0)
(0.087803 -0.0514189 -1.79542e-19)
(-0.247412 -0.0212307 -3.15191e-20)
(1.02677 -0.154562 2.40529e-22)
(1.00471 -0.0297788 -3.84323e-21)
(-0.202098 -0.0341685 0)
(-0.142717 -0.0489753 -8.78683e-20)
(0.905035 -0.794015 1.5955e-20)
(1.09104 -0.120721 -1.48137e-20)
(0.763131 -0.0545612 -1.62699e-21)
(-0.192969 0.00566953 -6.56638e-21)
(1.00488 -0.000688213 1.0001e-21)
(-0.232687 -0.0154146 0)
(1.04366 -0.0912443 -6.04501e-23)
(0.955119 -0.0633796 0)
(0.957765 -0.0368632 0)
(0.589634 -0.606219 -2.98335e-20)
(-0.149308 -0.0450903 2.29013e-20)
(1.06104 -0.0207004 0)
(0.720748 -0.462886 0)
(0.943248 -0.141054 -9.47606e-21)
(0.999259 -0.077174 1.14259e-20)
(-0.186915 -0.0267985 -8.71998e-20)
(1.05327 -0.564078 -3.02915e-20)
(0.996156 -0.0286887 4.68775e-21)
(0.0368947 0.00976613 -8.81209e-20)
(1.14007 -0.0283026 1.00148e-20)
(-0.082105 0.00277077 -5.29439e-20)
(1.02209 -0.0551656 8.86277e-22)
(0.629831 -0.141953 -7.25769e-20)
(1.14518 -0.100056 2.58607e-20)
(1.11829 0.0111703 -1.20286e-20)
(1.01093 -0.00044932 -2.48404e-22)
(0.104415 -0.0526546 -7.15086e-20)
(1.17908 -0.13346 2.31116e-20)
(1.20741 -0.0233956 0)
(1.20526 0.0267592 1.27812e-20)
(-0.208969 -0.0545562 0)
(1.09384 -0.0152521 7.40541e-23)
(-0.241482 -0.0187882 5.79554e-20)
(1.05646 -0.0316226 0)
(1.0291 -0.158625 0)
(0.133664 0.04183 -7.77653e-20)
(1.1048 -0.0742976 1.32098e-20)
(1.00514 -0.00983167 0)
(0.754068 -0.0586376 -1.49374e-21)
(1.07014 -0.0325692 -1.34044e-20)
(1.19918 0.0200036 6.57566e-20)
(1.02658 -0.0303584 2.61196e-23)
(0.993155 -0.0335548 6.26145e-21)
(0.465234 -0.580469 -3.45379e-20)
(1.18784 -0.500109 0)
(-0.127444 -0.0538413 -7.76766e-20)
(1.00007 -0.000406052 0)
(-0.239477 -0.0531499 3.79395e-20)
(1.03209 -0.0196387 0)
(0.909541 -0.544793 1.68935e-21)
(1.17459 -0.0251541 9.72878e-21)
(1.03084 -0.010875 -3.10191e-21)
(1.04096 -0.0379903 -5.13815e-21)
(0.963459 -0.0549037 -8.95085e-21)
(1.28746 -0.0380475 0)
(0.971107 -0.0547351 -1.46824e-20)
(1.17773 -0.245326 4.6513e-22)
(1.22801 0.0219329 1.18213e-20)
(0.966945 -0.225706 1.74754e-20)
(1.02239 -0.0420329 0)
(1.02074 -0.0288143 -6.35597e-22)
(0.95555 -0.0802455 0)
(0.285538 0.0242843 3.8831e-20)
(1.00321 -0.0199921 3.53645e-21)
(0.913024 -0.138511 -1.56908e-20)
(1.02017 -0.00714815 -2.59898e-21)
(-0.133717 -0.00502526 1.55695e-20)
(1.00003 -0.00136783 0)
(0.950668 -0.0641959 2.493e-20)
(1.06478 -0.00479913 -3.09725e-21)
(1.02237 -0.0124472 -3.09956e-21)
(-0.313193 -0.056293 1.04074e-19)
(1.27637 -0.00376918 -3.0685e-20)
(0.184992 -0.388294 0)
(1.01622 -0.116261 3.64149e-21)
(0.531681 -0.11927 -1.55607e-21)
(1.13774 -0.0293433 0)
(1.03309 -0.0145329 1.63293e-21)
(1.12452 0.0158697 2.98546e-20)
(-0.158945 -0.0448683 0)
(1.08396 -0.0652322 1.13891e-20)
(1.04296 -0.0378471 3.01547e-21)
(0.329546 0.0270336 3.79911e-20)
(0.538828 0.0854574 0)
(1.00097 -0.0167078 9.93305e-21)
(-0.223542 -0.0541038 0)
(0.189303 -0.087999 0)
(1.05682 -0.0328751 5.06081e-21)
(1.06342 -0.0162709 0)
(1.1757 -0.181615 2.40284e-20)
(0.959497 -0.035906 -1.42172e-20)
(0.996677 -0.0284724 0)
(0.829868 -0.860303 0)
(-0.280749 -0.0535302 -1.32769e-20)
(-0.180889 -0.0236216 0)
(0.363206 0.0235764 -8.07311e-20)
(0.996923 -0.0256951 -1.83004e-20)
(0.775136 -0.282381 0)
(1.00527 -0.0250378 0)
(1.00763 -0.0198253 -1.06062e-21)
(1.03221 -0.0140278 -2.9406e-21)
(-0.177056 -0.0485283 0)
(1.02046 -0.00111698 -3.92451e-21)
(1.01719 -0.0496787 -2.20863e-21)
(-0.189184 0.00654966 8.88023e-23)
(-0.241136 -0.0551997 -1.28695e-19)
(1.06962 -0.0501642 1.82785e-20)
(1.339 -0.145897 1.0709e-19)
(1.08984 -0.12387 -8.99223e-21)
(1.00409 -0.00815248 0)
(0.208096 0.0757841 0)
(1.10735 -0.0393836 -2.2672e-22)
(1.17544 -0.493333 0)
(1.00588 -0.0743721 0)
(1.01149 -0.549045 -4.2308e-22)
(1.03243 -0.00120013 -4.60727e-21)
(1.09566 -0.0158775 -8.42493e-21)
(0.99996 -0.000832352 8.80181e-21)
(1.19572 -0.365889 5.94423e-20)
(1.0232 -0.042722 0)
(-0.190773 -0.0515262 2.09415e-20)
(0.326898 -0.0772808 0)
(1.29551 -0.112155 -7.40517e-20)
(-0.120645 -0.041142 -8.30629e-24)
(-0.113892 -0.0522633 0)
(0.911397 -0.102471 3.94666e-20)
(-0.274562 -0.0555426 -1.0051e-19)
(1.23702 -0.256625 0)
(1.22501 0.0265087 1.68073e-20)
(0.957396 -0.0387112 4.7803e-21)
(1.03977 -0.0377097 5.00295e-21)
(-0.0719056 -0.0521731 -3.679e-20)
(0.45247 0.0880759 0)
(1.31903 -0.185088 -3.75863e-20)
(1.20509 -0.296256 -9.22289e-20)
(1.08449 -0.269936 -2.60171e-20)
(0.998783 -0.019161 5.27711e-21)
(1.02052 -0.12247 2.4799e-22)
(0.156017 0.041173 8.90907e-20)
(-0.225241 -0.0433965 1.95404e-19)
(1.00437 -0.0288686 1.66356e-22)
(1.05911 -0.0857252 0)
(-0.144398 -0.0131737 -2.56257e-20)
(0.0646737 0.0517123 -7.49829e-20)
(0.0566507 -0.0477716 -9.44968e-20)
(1.27435 -0.0481217 5.74948e-20)
(1.00799 -0.000333432 2.67e-22)
(0.956963 -0.064424 2.90376e-20)
(-0.250279 -0.0539938 7.90735e-20)
(-0.00785022 -0.0526387 0)
(1.0135 -0.00317092 8.16721e-22)
(1.12149 -0.0268092 -3.32258e-20)
(1.01653 -0.00552648 1.51563e-21)
(0.732753 -0.902106 -5.5964e-22)
(0.997046 -0.0108927 0)
(1.2105 -0.0895278 -6.05783e-20)
(1.09017 -0.265067 3.03082e-20)
(1.0013 -0.0166585 8.50259e-21)
(1.05681 -0.00123268 0)
(-0.237518 -0.055366 2.40295e-20)
(0.996412 -0.0229436 0)
(1.07257 -0.0990272 6.60403e-21)
(0.992662 -0.032925 -6.31322e-21)
(1.01109 -0.000762359 8.36038e-23)
(1.00191 -0.0372113 7.42e-23)
(1.08097 -0.645389 -1.89562e-20)
(0.86805 -0.373261 -3.25573e-20)
(1.34858 -0.186385 -2.58297e-20)
(0.19702 0.0658338 -6.69299e-20)
(-0.239306 -0.0553822 6.48126e-20)
(-0.167056 0.00826504 0)
(1.00001 -0.000859674 -1.01645e-20)
(1.27225 -0.0794355 0)
(0.907208 -0.0498625 5.24792e-20)
(1.08674 -0.08362 -2.54513e-20)
(1.3287 -0.261822 -6.99596e-20)
(0.998588 -0.0203496 0)
(0.987627 -0.0346411 -1.75118e-21)
(1.03941 -0.0170423 0)
(0.332361 -0.870359 -3.24647e-20)
(-0.0859729 0.0331883 -8.43736e-20)
(0.344547 -0.763575 1.69859e-20)
(0.997624 -0.0285368 -1.51366e-20)
(0.986842 -0.145058 -8.18257e-21)
(1.03413 -0.0131388 -2.5208e-23)
(1.03167 -0.0143487 1.11701e-22)
(1.03238 -0.000371723 -9.89536e-21)
(0.99583 -0.0934903 -7.82944e-21)
(0.966904 -0.221075 -1.88894e-20)
(-0.131117 -0.00490803 1.21032e-22)
(0.918937 -0.138884 1.37695e-20)
(1.00731 -0.0194322 0)
(0.942328 -0.478529 -6.45236e-22)
(0.670649 -0.926179 -1.73361e-20)
(0.838004 -0.220054 1.13153e-21)
(1.00666 -0.0194946 2.65436e-21)
(-0.0725114 0.0322703 -1.0809e-19)
(-0.144239 -0.0541869 0)
(1.00462 -0.0282507 7.99729e-21)
(-0.167978 -0.0466532 -9.0924e-20)
(1.32324 -0.289568 -6.36301e-20)
(1.17647 -0.0140656 0)
(0.986426 -0.140938 0)
(0.999695 -0.00863453 0)
(1.01566 -0.0956903 -1.56562e-21)
(1.14618 -0.308106 0)
(-0.13602 -0.0435034 -1.0404e-19)
(1.01323 0.0886452 -1.44667e-20)
(1.04451 -0.0366647 -7.22964e-22)
(-0.0941896 0.0007511 -2.88119e-20)
(-0.230313 -0.0137221 6.34024e-20)
(-0.287522 -0.0536885 -7.23267e-20)
(1.06334 -0.0155436 1.71033e-21)
(-0.244756 -0.0537526 0)
(1.28354 -0.219005 -2.49866e-21)
(-0.268232 -0.0454151 0)
(0.834067 -0.254562 0)
(0.23651 -0.0860818 -6.77793e-20)
(1.04052 -0.019555 0)
(-0.244212 -0.055089 1.40019e-19)
(0.413975 0.0273438 0)
(1.25674 -0.0315686 0)
(1.01587 -0.0517706 0)
(1.05047 -0.00846217 0)
(1.03471 -0.131893 7.85459e-22)
(1.33801 -0.0332185 0)
(1.03432 -0.0526007 1.50944e-21)
(1.29172 -0.114965 1.01726e-19)
(1.00762 -0.0745936 0)
(1.14491 -0.49421 2.16189e-20)
(1.11901 -0.0637686 0)
(-0.267943 -0.0454449 0)
(-0.158462 0.0149687 5.68302e-20)
(1.03299 -0.020391 -7.35675e-22)
(1.33325 -0.262679 0)
(1.05687 -0.263574 8.8077e-21)
(1.26942 -0.0486444 -1.03046e-19)
(1.2312 -0.15984 0)
(-0.0753805 0.0344186 3.70929e-20)
(1.00002 -0.0248978 -6.49977e-21)
(1.19952 -0.289308 0)
(0.688177 -0.247868 2.82723e-20)
(1.29376 -0.288024 -1.00668e-19)
(0.0728667 -0.0495007 0)
(0.996116 -0.0425462 0)
(0.198598 -0.0598591 -9.23889e-20)
(0.144882 0.0443474 -1.99261e-20)
(0.992562 -0.0285676 -1.09427e-20)
(0.138529 -0.0247709 -8.79424e-20)
(1.23657 -0.288927 -3.76761e-20)
(1.01293 -0.0031245 5.74603e-24)
(0.0612424 0.0584001 0)
(-0.205791 -0.010127 -1.55222e-20)
(1.02575 -0.0664887 3.00014e-22)
(1.12017 -0.156687 0)
(-0.121227 -0.0311864 3.29999e-22)
(0.992222 -0.0280641 -6.78185e-21)
(0.0655743 -0.0435876 -9.59669e-20)
(0.99621 -0.0464235 -1.19979e-20)
(0.998734 -0.0314422 -8.38138e-21)
(0.988136 -0.0334942 1.77197e-21)
(1.14045 -0.048475 -4.18473e-20)
(1.00686 -0.0192742 0)
(1.03248 -0.00212701 6.60129e-21)
(-0.170264 0.00665463 4.49366e-20)
(0.999952 -0.00043466 -1.1582e-20)
(1.08422 -0.0674344 -1.95623e-20)
(1.05738 -0.0295989 9.90838e-21)
(0.513121 0.0903474 5.26521e-20)
(0.872418 -0.188417 0)
(0.999638 -0.0245449 8.69637e-22)
(1.03809 -0.0189215 -8.87761e-22)
(0.0710355 -0.0417749 -6.54811e-20)
(1.01461 -0.05806 0)
(0.62788 -0.669437 3.95824e-20)
(0.154521 -0.495433 0)
(1.02175 -0.155156 -2.55212e-22)
(0.832679 0.0643393 -2.83309e-20)
(0.996629 -0.0920933 1.28976e-20)
(1.12417 -0.0183375 4.07347e-20)
(0.444949 -0.0985446 -2.6902e-20)
(1.24625 0.0693974 0)
(0.907938 -0.103899 -3.75097e-20)
(1.00531 -0.0335133 0)
(1.01951 -0.151125 5.01033e-22)
(1.08488 -0.118235 0)
(1.35287 -0.180125 0)
(1.06902 -0.00335916 0)
(1.00474 -0.0185584 0)
(1.1897 -0.0288709 -3.78562e-20)
(0.99949 -0.00291978 8.41908e-21)
(-0.243806 -0.0304867 4.15035e-23)
(1.10815 -0.215788 -3.03831e-20)
(1.01234 -0.0568013 0)
(1.00142 -0.0150903 -5.28581e-23)
(1.09957 -0.0873486 3.22851e-20)
(1.05555 -0.126167 -4.97008e-21)
(0.180446 -0.517928 0)
(0.982617 -0.0283256 -1.92823e-20)
(1.01999 -0.0111541 -5.62993e-22)
(0.16284 -0.389344 0)
(1.00019 -0.0343295 -4.76688e-22)
(1.36145 -0.098806 -5.23787e-20)
(1.08127 -0.364122 -1.59003e-19)
(1.02251 -0.127437 1.68149e-21)
(-0.0531575 0.0355134 6.5799e-20)
(0.999807 -0.00839755 0)
(-0.22597 -0.0518164 0)
(0.999922 -0.01099 -6.95152e-21)
(1.23036 -0.167182 -1.22883e-20)
(0.660496 -0.662731 -1.0138e-20)
(1.24473 0.0705692 5.41724e-20)
(1.15597 -0.0820833 0)
(1.00707 -0.00577964 -7.77175e-22)
(1.2252 -0.169049 4.11692e-20)
(1.06975 -0.0208747 7.77903e-21)
(-0.19574 -0.0521513 -1.28077e-19)
(-0.234738 -0.0158691 -1.01993e-19)
(1.13384 -0.500642 -5.11017e-20)
(1.22296 -0.380984 6.32831e-20)
(1.18468 -0.108755 0)
(1.00299 -0.0761389 4.55874e-21)
(1.02138 -0.096825 8.54996e-22)
(-0.24468 -0.0552506 -9.44462e-20)
(-0.274303 -0.0495706 4.57529e-20)
(1.00452 -0.0320307 0)
(0.306796 0.0728897 1.93488e-20)
(0.966969 0.0881042 -1.9447e-20)
(1.02045 -0.0118044 5.85575e-22)
(0.703506 -0.198493 0)
(1.3462 -0.0215598 -1.27958e-20)
(1.21466 -0.124507 5.04458e-20)
(1.0382 -0.0198017 -3.69319e-21)
(-0.277159 -0.0535807 0)
(0.192818 0.0609025 -1.28988e-20)
(-0.236411 -0.0499139 1.01662e-19)
(0.000807833 -0.0537157 0)
(0.205584 0.039303 -4.28638e-20)
(-0.27124 -0.0386538 1.03197e-19)
(1.18541 -0.112463 1.15968e-20)
(1.00415 -0.0055681 1.55225e-21)
(0.90783 -0.0570585 2.55398e-20)
(1.1174 -0.152747 1.02702e-20)
(1.00088 -0.0256389 6.05362e-21)
(1.02446 -0.0674157 0)
(-0.149007 -0.048854 -1.29556e-19)
(1.06515 0.000124436 -1.20689e-20)
(1.17969 -0.18584 -3.29946e-20)
(-0.262306 -0.0362267 0)
(0.670433 -0.624062 0)
(-0.130376 0.00513588 -3.62259e-20)
(0.852904 -0.161976 1.41434e-20)
(0.978764 -0.160076 -7.9675e-20)
(1.24663 -0.25113 -8.92554e-20)
(1.18904 -0.231107 0)
(1.00002 -0.000212484 4.22507e-21)
(-0.172175 -0.0462952 0)
(1.00793 -0.000682793 3.31056e-22)
(0.47203 -0.000906785 -2.03825e-20)
(0.924185 -0.347943 -6.22257e-20)
(1.00037 -0.00531239 0)
(1.21657 0.0272459 1.43659e-20)
(0.986762 -0.0390081 -2.35563e-20)
(0.725804 -0.0968201 1.29844e-19)
(-0.233996 -0.0144975 8.76289e-20)
(1.03192 -0.568262 0)
(1.21957 -0.394104 2.08163e-21)
(1.03224 -0.00595415 0)