/*--------------------------------*- C++ -*----------------------------------*\
| =========                 |                                                 |
| \\      /  F ield         | OpenFOAM: The Open Source CFD Toolbox           |
|  \\    /   O peration     | Version:  v2012                                 |
|   \\  /    A nd           | Website:  www.openfoam.com                      |
|    \\/     M anipulation  |                                                 |
\*---------------------------------------------------------------------------*/
FoamFile
{
    version     2.0;
    format      ascii;
    class       volScalarField;
    location    "50";
    object      nut;
}
// * * * * * * * * * * * * * * * * * * * * * * * * * * * * * * * * * * * * * //

dimensions      [0 2 -1 0 0 0 0];


internalField   nonuniform List<scalar> 
18166
(
0.000225107
0.0067191
0.00672596
0.000397099
4.37583e-05
0.000237917
0.00672912
0.000116311
0.0127383
5.38996e-05
0.006723
0.00622702
0.00350816
0.000460307
0.0117725
0.000727678
0.00672328
2.18878e-05
0.00450574
0.00277204
0.000235419
0.00672316
0.000279709
0.00672248
0.00672518
0.00672846
0.000246915
0.000940703
0.00296413
0.000437375
0.000651893
0.00672824
0.00357195
0.00673743
0.00672519
0.00672224
0.0134171
0.00672223
0.00676986
4.17826e-05
0.00672552
0.00160559
0.0038838
0.00334398
0.000220322
0.00672286
0.000374423
0.000197535
0.000347678
0.000227671
0.00051641
0.000567847
0.000406841
0.00672483
0.00672289
0.00406602
0.00171182
0.000228843
0.0014032
0.000890646
0.000356797
0.00094647
0.00439906
0.000681722
0.000669065
0.00672243
0.00955791
0.0144471
0.00333045
0.000891084
0.00672475
0.00196241
0.000220134
0.000877227
9.94156e-06
4.21714e-05
0.000309204
0.00329437
0.000981925
0.00672222
0.00672581
0.0158384
0.00672241
0.00672326
0.00672202
0.00258069
0.00160547
0.00672105
0.000811213
0.00676657
0.00200585
0.000199064
0.00146082
0.00672601
0.00672536
0.00245772
0.00672162
0.000106582
0.000873977
0.00062284
0.00673116
0.00672323
0.0126073
0.00043817
0.000959171
0.0067234
3.42588e-05
7.24046e-05
0.000528613
0.00672245
0.000865783
0.0141623
0.0144276
0.0129604
0.00672364
0.00680094
0.00010027
0.00110458
0.001796
0.0124088
3.23958e-05
0.0025355
0.000314832
0.00938362
0.000411874
0.00673363
0.0067232
0.00324819
0.000540418
0.000191877
0.000438634
0.000891238
0.00123611
0.0159033
0.000419378
0.000381721
0.00672236
0.00672365
0.00168407
0.00562166
0.011449
0.000606124
0.00339096
0.0162704
0.000764174
0.00551382
0.000238798
0.0121515
0.00416523
0.00143781
0.00672173
0.00974383
6.94493e-06
0.000669464
0.00672552
0.00672259
0.00162924
0.00219084
0.00672232
0.00315633
0.00672033
0.0152181
0.000867123
0.00672325
0.000617266
4.09886e-05
0.00672321
0.0163836
0.0168159
0.00047845
0.000578641
0.0139406
0.00026777
0.013173
0.000889687
0.00424806
2.52323e-05
0.0122402
0.00671903
0.0067208
0.0067237
0.000291099
4.62453e-05
2.85895e-05
0.00599077
0.00672086
0.000186425
0.000417273
0.00672142
0.0067973
0.000325616
0.00573519
0.000477944
0.00672299
0.000299791
0.0020731
0.000157039
0.000271752
0.00108795
5.09739e-05
0.000545875
0.0125668
0.00558646
0.01225
0.00272324
0.00059742
0.0163745
0.00229263
5.81891e-05
0.000117627
4.34201e-05
0.0120217
0.00671898
0.00672243
0.000554582
0.00016246
0.000574449
0.000172067
0.0172814
0.0156788
0.000877278
0.00673051
0.00672063
0.000158643
0.00152038
0.00673732
0.000172183
0.00672011
0.00106855
0.0052207
0.00208611
0.0145793
0.00188237
0.0142331
0.00672183
0.0025442
0.000535509
0.000298542
0.0115427
0.00395857
0.0009261
0.0152643
0.00296567
0.00112402
0.0139073
0.00313812
0.000457103
0.0148812
0.0156086
0.00102905
0.000263568
0.00672315
0.00237425
0.000428706
0.00789804
0.000633322
0.00672283
0.0161829
0.000702223
0.00671996
0.00672239
0.0134818
0.000248952
0.000315244
0.000226543
0.0165606
0.010594
0.000837037
0.00672593
0.000645264
0.000384458
0.00672247
0.00672185
0.0158951
0.0005851
0.00449795
0.0126741
0.00671939
2.32996e-05
0.00672299
0.000391734
0.0107698
0.00111062
0.00347715
0.00129516
0.000196406
0.00203089
0.00193349
0.0140052
0.00672393
0.000869537
0.000421347
0.00068548
0.0067228
0.000938553
0.00313728
0.00673019
0.00672256
0.0067349
0.0134962
0.0129114
0.00672231
0.00247861
0.00672205
0.00769911
0.00282219
0.00366398
0.000499825
0.00301037
0.00680207
0.00139304
4.6045e-05
0.00424495
0.000333209
0.00672389
4.10481e-05
4.25202e-05
0.000687775
0.00672247
0.000622922
0.00673141
0.000484343
0.0138822
0.000256478
0.000190677
0.000577469
0.00265839
0.00380946
0.00675234
0.0135634
0.00672385
0.0160148
0.0039129
0.00635001
4.18146e-05
0.012503
0.000650024
0.0166449
0.00317204
0.0134122
0.00424612
0.010008
0.000720318
0.0112637
0.0025132
0.00672276
0.00673073
0.000439094
0.00204393
0.000301529
0.000978719
0.000418414
0.00672268
0.00672046
7.89016e-05
0.000861466
8.3664e-05
0.000787598
0.00672261
0.00675008
0.00672081
0.0160977
0.00331205
0.00672284
0.00672702
0.00672606
0.00672575
0.000153017
0.00672583
0.00523154
1.64843e-05
0.00672099
0.00673081
0.000703586
0.014406
4.95591e-05
0.0106782
0.00672565
0.000700753
0.000775424
0.00517354
0.00715466
0.0042643
0.00157196
0.00101618
0.00416585
0.0067224
0.00672582
0.01221
0.00569559
0.00672439
0.00121977
0.00675127
0.0119317
0.000417171
0.00672549
0.00672279
0.000902298
0.00672726
0.00672609
0.00163164
0.000687535
0.0124955
0.00672592
0.00767382
0.00282658
0.00536428
0.00392647
0.00614037
0.00155433
0.00621481
0.00076353
0.000264244
0.00895908
0.00137032
0.000854097
0.000180192
5.22797e-05
0.00672949
0.00672262
0.00214669
0.00673266
3.11843e-05
0.00084304
3.52768e-05
0.00672591
0.000260681
0.00610513
0.00363543
0.000150357
0.00053897
3.30541e-05
0.000196265
0.0020247
0.000616825
0.0107368
0.0129442
0.00672397
0.00586814
0.000719312
0.00674501
0.00830163
0.0123353
0.00673009
0.0152216
0.00998614
0.0067226
0.000182089
7.69285e-05
0.00551684
0.000116343
0.0155326
0.0002818
0.000636033
0.0156928
6.47757e-05
0.000685954
0.000342615
0.00674828
0.00264374
0.00422732
0.00315992
3.64462e-05
0.0081856
0.00109843
0.00156739
0.000776242
0.00151046
0.00214242
0.00673171
0.00672141
9.45173e-05
0.00986706
0.00672064
0.000374683
0.00672593
0.00606527
0.00672279
0.00671991
0.0016216
0.00976418
0.000198162
0.0155469
0.00672283
0.00672279
0.0155775
0.003037
0.000289862
0.00305265
4.10953e-05
3.83034e-05
0.00672459
0.00672333
0.00672546
0.00152433
0.0122962
0.015513
0.00267781
0.00135905
7.4992e-05
0.00394612
0.000467052
0.00672504
0.00102549
3.04966e-05
0.00296228
0.00672304
0.00672242
0.006732
0.000472095
2.92729e-05
3.23869e-05
3.59406e-05
0.00672217
0.000430395
0.00672555
0.00672588
0.00843515
2.60391e-05
0.000155097
0.0174345
0.0149239
0.0107721
0.0152488
0.000230083
0.0145448
0.00275091
0.000343236
0.00320598
0.00653034
7.04093e-05
0.00163068
0.00239742
5.71313e-05
0.00491928
0.000876946
0.000401323
0.0105443
0.000707476
0.00672549
0.00464653
4.237e-05
0.0128368
0.0172533
0.00673205
0.000436658
0.00298041
0.00118772
0.00259674
0.00672667
0.000629123
0.00111604
0.00126501
0.00672478
0.016531
0.00672274
0.0154406
0.000933531
0.0025448
0.000669951
0.00302009
0.00680562
0.00672124
0.0104247
0.0158451
0.000202049
0.0117189
0.00324958
0.0067224
0.00672383
0.0141376
6.14929e-05
0.00404217
0.000666051
2.9276e-05
0.0174004
0.000520877
6.7885e-05
0.00112807
0.00247227
0.00673041
4.62338e-05
0.0129195
6.18328e-05
0.00127572
0.0159155
0.00194062
0.00672161
0.00266945
0.0048483
0.00672509
0.000112084
0.0147118
0.00672539
0.0067227
0.00672285
4.39535e-05
0.011956
0.0067212
0.000541021
0.000984349
0.0039894
0.00672223
0.000237819
0.000714661
0.000785463
0.00346057
0.00672282
0.00672075
0.0128032
0.000467036
0.000597722
0.00179829
5.00073e-05
0.00181629
0.00340908
0.00374128
0.000661424
1.65681e-05
0.000159886
0.000792364
0.000283106
0.00954904
0.000604801
0.000375208
0.0013353
0.000495509
0.00304855
0.00672163
0.0146275
0.000409794
9.96341e-05
0.000185694
0.00674763
0.00275556
0.00454111
0.00672136
0.00672294
0.000408959
0.00674002
0.00037279
0.00405955
0.000416365
0.00178603
0.000593355
0.00674981
0.000125325
0.00186823
2.7329e-05
0.00177418
0.00200868
0.0153584
5.22038e-05
0.00498064
0.0127409
0.00238222
0.000240923
0.00672288
5.48251e-05
0.00357294
0.00354634
0.00048167
0.000509709
0.0137241
0.00672496
0.00151618
0.00672087
0.000426275
0.000677757
0.00469787
0.00672089
0.00701792
0.000462407
0.00193342
0.0164167
0.00259428
0.000130191
0.00672543
0.000570959
0.00672584
0.00672708
0.00673111
0.00436421
3.23957e-05
0.000881881
0.0085762
0.00669364
0.00355395
0.00486385
3.31831e-05
0.000251093
0.00672339
0.00519487
0.00672402
0.0067509
0.00976996
0.00674233
0.000473659
0.0110447
0.0175672
0.0142511
0.000600196
0.000429401
0.00650028
0.0103733
0.00261525
0.0100474
0.000168723
0.000390436
0.00050536
0.000158715
0.00984884
0.00142155
3.54417e-05
0.00672313
0.00285691
0.000358004
0.00049662
0.0143259
0.00673744
0.000380212
5.27518e-05
0.00673869
0.000521173
0.0129866
0.0102913
0.0100568
0.000316279
0.000809411
0.00672104
3.76995e-05
0.000111053
0.000542413
0.0103077
0.00620319
0.0179443
0.0145362
0.00103529
0.00066511
0.006726
0.000388954
0.00672573
0.00294384
0.00029042
6.96481e-05
0.00672928
0.00673809
0.00675042
0.00216183
5.90531e-05
0.000188812
0.00258487
0.000418357
0.00272565
0.00672269
0.00672263
0.000223591
0.00155153
0.000237184
6.37064e-05
7.19644e-05
0.000534381
0.00267732
0.007017
0.0161542
3.67285e-05
0.00242184
0.00672243
0.00162894
0.00672365
0.000715718
0.000978155
0.00675122
0.00063504
0.00124354
0.0134922
8.87324e-05
0.000212359
0.00672103
0.0096667
0.00680388
0.00128535
0.00394462
8.74981e-05
0.00672295
3.68646e-05
0.0179238
0.00532134
0.00672248
0.00583329
9.13686e-05
0.00318753
0.00672135
0.00288938
0.00672559
0.00242859
0.00414157
0.00375627
0.00194142
0.000116587
0.000685635
3.45861e-05
0.00671931
0.0107123
0.00574392
0.00672112
0.00673527
0.00273568
0.0149997
0.0046517
0.00672142
0.00173353
0.00675187
3.00933e-05
0.00137922
0.00244786
0.0067222
0.00672381
0.00672154
0.0160779
0.000685519
0.000252102
2.38319e-05
0.00672104
0.0141632
0.0143478
0.00113878
0.0067264
0.00421697
0.00804893
0.000921834
0.00037312
0.0161052
0.000199998
0.00572307
0.000625446
0.000868309
0.000490831
0.0178744
0.00355163
0.00675197
0.00359149
0.00673926
0.00035848
0.0005503
0.00040603
0.00421052
0.00152992
0.00444645
0.0103159
0.00672368
0.000406609
0.00674792
0.00230915
0.00672159
0.000682407
0.00199982
0.00672515
6.31771e-05
0.000992348
0.00672253
3.19292e-05
0.00672248
0.0135001
0.00073919
8.186e-05
0.00411997
0.000445269
7.77066e-05
0.00260562
0.00224966
0.000479742
0.0158183
0.00672352
0.000861668
0.000316054
0.014475
0.00672719
0.00139511
0.00158759
0.0142601
0.00672983
0.000396779
0.000686895
0.00107803
0.00672638
0.00672286
0.00672146
0.000402515
0.00674198
2.6192e-05
0.000535198
0.00674932
0.00125228
0.00310959
0.00673174
0.00084781
0.00672675
0.00672162
0.000429008
0.000426052
5.3261e-05
0.000997109
0.00208228
0.00218771
0.00257477
4.24479e-05
0.00967027
0.0013775
7.71608e-05
0.000597867
0.00672204
0.000433222
0.00153432
0.00255488
0.0131473
0.00672264
9.98951e-05
0.000229741
0.00134579
0.00691263
0.006724
5.06579e-05
0.000652414
2.88173e-05
0.00456353
2.01811e-05
0.00672798
0.00109019
0.0067257
0.00550548
0.0102472
0.00672629
0.0025472
0.000144986
0.00706479
0.00672205
0.0048022
5.75853e-05
0.0067932
3.19552e-05
0.00672577
0.00078665
0.0079711
0.000492074
0.00488707
0.00040549
5.26888e-05
0.00673361
0.00249062
0.00564887
0.00673072
0.00673235
0.00148438
0.0144269
0.0166521
0.00481376
0.00195737
0.000472964
0.000190792
0.00672574
0.00249581
0.00810023
0.00374412
0.00536638
0.014048
0.00672256
0.000610992
0.00508384
0.00147356
0.000632827
0.000207387
0.00550775
0.0152605
0.00408168
0.00673045
0.00146853
0.0067214
0.000140291
4.732e-05
0.00283134
0.00068821
0.0067227
0.00672615
0.00673767
0.000999818
0.00197657
0.00672198
0.00269776
0.00150495
0.005021
0.00277678
4.08565e-05
0.00405715
0.000235333
0.00344617
0.00406132
3.9627e-05
0.013672
0.000145988
0.00672286
0.000405114
2.97392e-05
0.00102474
0.000454032
0.00556651
0.0152497
0.00153896
0.000592942
0.00125304
0.00136084
0.0127702
5.67616e-05
6.95703e-05
0.000416881
0.0067313
0.000506064
0.000455576
0.00281786
0.000107147
0.00291202
0.00372461
6.2453e-05
0.000238919
3.08983e-05
0.00247469
0.00673104
0.00201575
0.00672593
6.115e-05
0.000590604
0.000847173
0.000506833
0.000122377
0.00112344
0.000323769
0.00672133
6.40115e-05
0.0146051
0.0140195
0.0150471
0.000366822
0.0067269
0.00224708
0.00311191
8.91119e-05
0.00673076
0.00415073
0.00356689
0.000291297
0.000358748
0.00672293
0.00253762
0.00275614
0.0031636
9.36642e-05
0.00672415
0.0171323
0.000939468
0.000228387
0.0174616
0.0019562
0.000425181
0.000236707
0.010124
0.00454575
0.00144651
0.000120504
0.0146084
0.000271108
0.000650417
0.0144216
0.000289387
7.10491e-05
0.0067259
0.00672566
0.00672273
0.00672547
0.00157102
0.000999689
0.00672063
0.0014825
0.00672109
0.00153918
0.00677864
0.00672311
0.000417057
0.0022168
0.00205914
0.000466948
0.00281646
0.00340202
0.00672574
0.00672602
0.0138815
0.000722003
0.000497619
0.00252707
0.00732924
0.00179767
0.000239954
0.0014376
0.00672574
0.000582197
0.00352393
0.000285577
0.0067302
0.00672266
0.00168942
0.00672288
0.000356252
0.000271439
0.00104917
3.22955e-05
0.006725
0.00297783
0.0112014
0.000535927
0.00891735
0.000222891
0.000352434
0.000664305
0.000449404
0.00731441
0.00313774
0.00838624
0.000558804
6.42915e-05
0.000813286
0.0173541
0.00979636
0.0174014
0.000242624
0.0132119
0.00334855
0.00672478
0.00629538
0.0088232
0.000881925
0.0144887
0.0154879
0.0133808
0.00673646
6.96e-05
0.0078231
0.00672492
0.00251097
0.000425342
0.00134738
0.0145845
0.000463298
0.000972148
4.88816e-05
0.00672235
0.00206925
0.00114113
0.00230803
9.82349e-05
0.00118157
0.00529124
0.00193036
0.0181958
0.00672158
0.007894
0.00672579
0.00386503
4.43864e-05
0.000384921
0.00673121
0.00674533
2.19268e-05
0.00673165
0.00672385
0.00523309
0.00112249
0.00724926
0.000119086
0.00672486
0.00293982
0.0172747
0.000275002
0.000367971
0.00202494
0.00338743
0.00246833
0.000310272
0.00672054
0.000154979
0.00120992
0.00354871
0.000360376
0.00672289
0.00465241
0.013236
0.0123078
0.00134267
0.00539133
0.0067251
0.00672873
0.000201433
0.00565604
0.000211542
0.000104401
0.0123648
0.0175258
0.000436487
0.0129178
0.000653514
0.00674184
0.000180878
0.00111874
0.00044014
0.000112526
0.00270495
0.0140838
0.00672242
0.000658159
0.000431644
0.000623069
0.0116893
0.00672194
0.0130016
0.00485968
0.000572931
0.00068601
0.000341683
0.0018071
0.000287164
0.00280873
0.00672292
0.0086199
8.31384e-05
0.0117556
0.0016009
7.9697e-05
0.000326734
0.000189704
0.000414974
0.00248811
0.00674421
0.0149854
0.00672962
0.00279412
0.00308185
0.00672355
0.00673417
0.00673652
0.0067203
0.00672307
0.00495885
0.0142256
0.000205753
8.04465e-05
0.00674025
0.00168293
0.00138963
0.0048729
0.000422073
0.00672525
1.10087e-05
0.00672067
0.00672362
0.00046035
0.00895973
0.000625683
0.0127137
0.00110186
0.0030709
0.00561353
9.52581e-05
0.000645922
0.000359667
0.006723
0.006723
0.000120987
0.000171134
0.0067221
0.00672935
0.00110075
0.0122498
0.000651475
0.0016428
0.000392296
0.00697739
0.000164919
0.000207305
0.00040747
0.000204494
0.00860943
0.00672267
0.00116422
0.00502467
0.00276002
0.00321951
0.000749081
0.00256643
2.63289e-05
0.00672243
0.00672166
0.00040573
0.00672312
0.000284452
0.00672137
0.00672607
2.19035e-05
0.00672896
0.00672367
0.00791708
0.000837918
0.000865818
0.000304784
0.0146664
0.000606783
0.0163385
0.00563592
0.000305595
0.000297061
0.00672273
0.00351383
0.000789066
0.00367992
0.00031382
0.00674246
0.00257405
0.00672734
0.000345033
0.0107834
0.000533303
0.00209856
0.0150303
0.00403544
0.000545492
0.000282294
0.0067241
0.00242078
0.00408464
2.82532e-05
0.00830757
0.00841321
0.00057084
0.000254842
0.000114929
3.47117e-05
0.00672771
0.00266041
0.000413145
0.00923696
0.00258565
0.00037799
8.09457e-05
0.000199906
0.00674837
0.0140378
0.00673761
8.39378e-05
0.00377521
0.00901951
0.00672133
0.000849001
0.00889662
0.00672387
0.000468117
0.00338949
0.00218187
0.0124057
0.00672295
0.000392566
0.00310461
0.00103244
2.96158e-05
0.0107824
0.0175866
0.000224743
0.0056518
2.88359e-05
0.00403244
0.00343805
3.08033e-05
0.00277441
0.00128028
0.00674783
4.58031e-05
0.00261852
0.0152842
0.000364429
0.000396826
0.00085832
0.00258377
0.000507771
0.00070387
0.00174343
0.000544042
0.0166928
2.27929e-05
0.000633235
0.00124312
0.0114697
0.0055902
0.000980624
0.00248953
0.0097802
0.00300309
0.00672264
0.0171369
0.00509656
0.00406359
0.00144303
0.0112249
0.00672738
0.00672554
0.0122929
0.00026975
0.00279059
0.00231198
0.00218596
0.000502176
0.0044882
0.0140808
0.00672614
0.00579432
0.000732342
0.0104063
0.0144785
0.000288531
0.0143079
0.0145195
0.00141119
0.00291912
0.000723665
0.0095015
0.00678855
0.0110059
0.00755132
0.000294868
0.00025725
0.00189837
2.94031e-05
0.0129605
0.000707257
0.00672583
0.00021327
0.00156971
0.000362784
0.000797339
0.000356671
0.00672475
0.0029938
0.00673047
0.000673953
0.0106709
6.62059e-05
0.00672387
0.0109139
0.00267214
0.00156211
0.00326624
0.0067304
8.38361e-05
0.000510978
0.00673536
0.0108427
4.04042e-05
0.00677064
0.0179684
0.00675042
4.60259e-05
0.0113272
0.00672247
0.00644343
0.00169637
0.00474711
0.0090855
0.000422597
0.00600207
0.0036481
0.00173766
0.00487594
0.00290926
0.00675228
6.28557e-05
0.000629508
0.000100235
0.00672274
0.00220627
0.000797572
0.00048175
0.00856059
0.00674664
0.00672254
0.000566863
0.00672247
0.00672271
0.0016838
0.00995219
0.000489405
0.00437459
0.00248499
0.0168282
0.00448356
0.0134903
0.000121972
0.00956715
0.00256541
0.00571271
0.0124029
0.00487516
0.000103543
0.00568
0.000626683
0.00524737
0.0162702
0.0176963
0.0020702
0.00036491
0.000326212
0.00672575
0.00487573
0.00900722
0.000824341
0.000449418
0.00671981
0.00672644
0.0146807
0.00671946
0.00160807
0.00101218
0.00672069
0.00674321
0.0067284
0.000699743
0.0157016
0.000215526
0.00509521
0.00672269
0.00672306
0.00672887
0.0114662
0.0067228
0.00628614
0.00502743
0.000402595
0.00558574
0.00235506
0.00672803
0.0067217
0.00673581
0.00307194
9.63375e-05
0.000251851
0.000161336
0.00296799
0.000454034
0.000442841
0.00672972
0.00139989
0.00131546
0.00109288
0.0011603
0.016973
0.000390654
0.0115781
0.000426426
0.000617228
0.0077628
0.00830077
0.00148491
0.000430465
6.23911e-05
0.00674831
0.00672962
0.00193822
0.00458047
0.00557273
0.00673867
0.00986931
0.00548197
0.0183813
0.000323902
0.00672319
2.98488e-05
0.000180839
0.00046721
0.0067928
0.0161094
0.000585559
0.0067264
0.00672256
3.85651e-05
0.00210048
0.00672261
0.00676017
0.00672937
9.16338e-05
0.000236229
0.0137661
0.00673217
0.00032769
0.00435676
0.000177995
0.00966858
0.000349056
2.68569e-05
0.000317313
0.00295041
0.000823665
0.000374287
0.00672258
0.00371382
0.00267257
0.000770459
0.00676911
3.62329e-05
0.00956616
0.00672083
0.00161272
0.00385907
0.00666991
0.000516329
0.00116352
3.86171e-05
7.42974e-05
0.000394292
0.000433747
0.0169336
0.00142723
0.00401607
0.002718
9.26979e-05
0.00672239
6.44333e-05
0.00172561
0.000167233
0.00672365
0.0067219
0.0067209
0.016352
0.00672425
0.000130807
0.00849172
0.000171692
0.0001442
0.000444091
0.00115505
0.00106611
2.68178e-05
0.00133478
0.00677007
0.00672203
0.00671862
7.88835e-05
0.00271451
0.00486892
0.000543296
0.00346953
0.00672553
0.000176771
0.00292554
0.000302148
0.000526647
0.0014176
0.000791772
0.000491017
0.0123255
0.00310289
0.00672232
0.00672596
1.77754e-05
0.0123828
0.0139616
0.00924141
0.0123534
0.00077007
0.0107365
0.00672184
0.00122598
0.00672744
0.000237887
0.00173702
0.0085092
0.0133076
0.00267789
0.00562681
0.00725404
0.000343801
0.0163055
0.00673876
0.00359744
0.00371418
0.00130758
0.00673686
0.00672374
0.011624
0.000156803
0.00672628
0.000434561
0.0138784
0.0108973
0.0141923
0.00669004
0.0026341
0.00244622
0.00687936
0.00270901
0.00673396
0.00794787
0.000916261
0.00134325
5.25778e-05
0.000157552
0.00394972
4.63611e-05
0.00355778
0.00428777
0.000480533
0.0134181
0.00018428
0.012703
0.0106078
0.00214565
0.00672761
0.00018764
0.00314854
0.000361575
0.0142595
0.000786885
0.00155113
0.00672056
0.00182029
0.000581593
0.000483775
0.00672202
3.85529e-05
3.93288e-05
0.00408509
0.000371022
0.00296604
0.00392292
0.00672248
0.00675119
0.00650853
0.000492874
0.000279252
0.000949264
0.000761506
0.00398322
0.00672408
0.0129222
0.0147922
0.00672537
0.00454097
0.0067266
0.0138291
0.000281277
0.00394594
0.00050241
0.00672422
0.00036438
0.00671982
0.0127209
0.0178681
0.00771029
0.00224611
0.0067224
0.00251323
0.00672489
0.0067343
4.1758e-05
0.00672935
0.00143584
0.0027547
0.00026177
0.00440581
0.00672421
0.0179174
0.00672297
7.82586e-05
0.0067224
0.00672276
5.43651e-05
0.00672841
0.000432845
0.00672324
0.000220056
0.000479234
0.00672098
0.00673023
0.000832368
5.20046e-05
0.00065629
0.0105941
0.00912099
0.0104116
0.00134906
0.00648504
0.00672279
0.000647069
0.00673641
0.0112874
0.000383274
0.000123113
0.000510027
0.00536703
0.00673872
0.00672173
0.0120015
3.0805e-05
0.0147069
6.01483e-05
0.00672586
0.00680226
0.00672865
0.00100145
0.0067253
0.00219781
0.00675727
0.000856276
3.01462e-05
0.00672577
0.0026684
0.00672562
0.000546237
0.0067245
0.00673808
0.00672246
0.0067255
0.00178705
0.000760634
0.017551
0.0067265
0.00279185
0.0135465
0.000168669
0.000984577
0.017981
9.37313e-05
0.00672553
0.00372716
0.000370637
0.006726
0.0181608
2.90325e-05
0.00510676
0.00672831
0.000610898
0.00672339
0.00672434
0.0138899
0.00675216
0.00672166
0.00185313
0.00325889
0.00107397
0.00203404
5.11435e-05
0.00209356
3.19652e-05
0.00506109
0.000126863
0.00672178
0.00107669
0.000596665
0.00233257
0.00672746
0.00672392
0.000481739
0.00035712
0.00672346
0.00672298
0.000531775
0.00672239
0.000164803
0.00841208
0.000782696
0.0109787
3.70451e-05
0.000112877
0.00672732
0.000234118
0.000191402
0.000480927
3.92086e-05
0.00673632
0.00672175
0.00672305
0.00260924
0.0067227
0.00672186
0.00398213
0.00248063
0.000393729
0.00672225
0.00672358
0.0150836
0.00371558
0.00035519
0.000251221
0.00546669
0.00259308
4.99536e-05
0.000448233
0.000680738
0.000743326
0.0174581
0.00195742
0.00211961
0.00097992
0.00672688
0.00672461
0.00206444
0.00101831
4.27937e-05
0.00807623
0.000278002
0.00717153
0.00101489
0.00672045
0.00124958
0.000185786
0.0041899
0.0103205
0.0067213
3.01842e-05
0.000291895
0.00967108
0.000198971
0.00672368
0.00143996
0.00101441
0.000899961
0.000108663
0.0157796
0.00793246
0.000448494
0.00672274
0.0136687
0.00673108
0.00672542
0.0180164
0.0146615
0.000548231
0.00250416
0.0140066
0.000438356
0.00675436
0.00291956
0.00672378
0.00285772
0.00916761
0.00771831
0.00672233
0.00672613
0.00276763
0.0025932
0.00853596
8.88673e-05
0.00672395
0.000335309
0.0135432
0.00010281
0.00175375
0.00672504
0.000648992
0.000735101
0.00672434
0.00677209
0.000507869
0.000786124
0.000382187
0.0132733
0.000321705
0.0050678
8.34474e-05
0.00414538
0.000484982
0.000388759
4.65226e-05
0.00672373
0.00672964
0.0100205
0.0145427
0.000303339
0.0149127
0.00965599
0.00185633
0.00522406
0.00441455
0.0040838
0.00672104
0.000578949
0.00151848
0.00613585
3.72474e-05
0.000769547
0.0165817
0.000390055
0.0127677
0.0111043
0.00206306
0.000588908
0.000212651
0.00672659
0.00677207
0.000495288
0.00296348
0.00147771
0.00429415
0.0067413
0.00153145
0.00010223
0.00396764
0.0113142
0.000495159
0.000505783
0.000476933
0.00673481
0.00144363
0.000319319
0.00395031
0.00122421
0.000370061
0.00128576
0.000468397
0.000511505
0.00520008
9.55001e-05
0.000356952
0.00939728
0.000230952
0.00674584
0.00867363
0.003511
0.00871689
0.00602604
0.000190416
8.47558e-05
0.000409781
0.000850872
0.00382012
0.00368257
0.000436401
0.00847599
0.00339045
3.59695e-05
0.00672223
0.000241319
0.000392879
0.00128495
0.00129594
0.0153023
0.00216849
0.00272161
0.00419999
0.00672481
0.000359131
0.00672237
0.00891073
0.000352281
0.012587
0.000674338
0.000465507
0.00672596
0.000742592
0.00673793
0.00540623
9.69566e-05
0.00145168
0.00672254
0.014655
0.00644806
0.00250277
0.00306933
0.00672222
0.00672238
0.000468372
0.00894217
0.001765
0.000203566
0.000774319
0.000878706
0.000538973
0.0035319
0.00802474
0.000507529
0.00108125
2.86945e-05
0.00386175
0.00643127
0.0155002
3.67472e-05
0.000447887
0.00295633
0.000242909
0.00412356
0.00672234
0.000387812
0.000349083
0.00672328
0.00539675
0.000506906
0.000211401
0.00672261
0.000855351
0.000589454
0.00218
0.00673607
0.00673692
0.000992003
2.21804e-05
0.000137212
0.00121135
0.00168805
0.00672912
0.00388835
0.00925314
0.00437053
0.00233298
0.000542093
3.63555e-05
0.0016431
0.000414381
0.00269737
0.00672231
0.000397785
0.000735585
0.00218235
0.00117604
0.00567457
0.000520304
0.0112577
0.0176453
0.000615709
0.013387
0.00371302
0.000411411
0.0028967
0.0067356
4.98655e-05
0.00389731
0.00676062
8.4535e-05
0.00673964
0.00672478
0.00226672
0.00231337
0.000595823
2.6534e-05
0.00556307
0.000117617
0.000716995
0.0134722
0.000562647
0.00439327
0.0028574
0.0130569
0.00838452
0.000434928
5.56831e-05
0.00755571
0.000393718
0.018151
0.00353473
0.000278746
0.00807553
0.00303172
3.32058e-05
0.000287617
0.000510268
7.86203e-05
0.00673105
0.00672472
0.00672253
0.000953849
0.0147325
0.00711976
0.00151347
0.0149818
0.00211593
0.00601872
0.000778536
0.00592447
0.0047422
0.00672202
0.0140374
0.000376448
0.00481625
0.00143476
0.000122566
0.0154171
0.00046507
0.00313737
2.14856e-05
0.000414162
0.000379644
0.0169994
0.000328173
0.00315794
0.0184328
0.01612
0.00205564
0.000211116
0.00211002
0.000274827
0.00672588
0.00671977
0.00672315
0.000745509
0.000340836
4.0519e-05
0.000142668
0.00245491
0.000754896
0.0160366
0.00592502
0.00672051
0.00112684
0.00672925
0.000422466
0.00680202
0.00672361
0.015394
0.00131642
0.00672193
0.00672274
0.000439849
0.00746642
0.0033212
3.64174e-05
0.00343081
0.00133617
0.00673166
0.00957117
0.00307091
0.0067189
0.00545878
0.00860455
0.00681955
0.00047059
0.000358109
0.00242305
0.00672973
0.00182948
0.0179055
0.0117443
0.00060776
0.000278901
0.00673071
0.0141843
0.0011878
0.0025325
0.0067756
0.00672361
0.0019563
0.00676215
0.00672861
0.00672581
0.000177522
0.00673124
0.0061657
0.00027848
0.00856545
0.000275431
0.0082762
0.0070179
0.0123098
0.00413641
0.00298556
0.00478451
0.0131171
0.00491133
0.000597011
0.00042531
0.000564125
0.00118588
0.000889172
0.00674979
0.000203892
0.000657864
0.00621138
0.0171953
0.000120559
0.00174375
0.00672614
0.000423733
0.000583915
0.00559973
0.000135812
0.00672717
0.00672049
0.0107487
0.00341842
0.00550739
0.00138499
0.00672322
0.0067265
0.0154313
0.00672468
0.00687656
0.00687984
0.0109342
0.00673214
0.000876483
0.00672357
0.00344889
0.00672675
0.01352
0.00672996
0.0106548
4.29385e-05
0.00789056
0.00677859
9.25146e-05
0.000247446
0.00178402
0.0128844
0.00060493
0.0119233
0.00656463
0.00994198
0.00959894
0.00672346
0.010582
0.00141069
0.00672041
0.00520711
0.00770075
0.0172175
0.000363343
0.00389056
0.000398655
0.000437787
3.20019e-05
0.00672795
0.00227646
0.000262627
9.29283e-05
0.00975731
3.37042e-05
0.00868172
0.00672607
0.000722255
0.000273624
0.00185031
0.013797
0.00869296
0.000229151
0.0078357
0.00040917
0.00025979
0.000705754
0.0067244
0.00102621
0.00722703
0.000331825
0.00152053
0.00262543
0.00070091
0.000210522
0.0109013
0.000553154
0.00673529
0.000548562
0.00672898
0.000130024
0.00672049
0.000260832
0.000141279
0.0011156
1.91918e-05
0.000471671
0.00231265
0.000939633
0.000418035
0.00278052
0.00604226
0.018061
0.00393216
0.000318783
0.00571431
0.000152737
0.00672717
0.00397304
0.00674691
0.00271562
0.000237169
0.00672353
0.00672612
0.00295505
0.00672369
0.00672264
0.0027046
0.00137292
0.0013733
0.00688642
0.000645231
0.0067217
0.00291328
0.00672765
0.0144393
0.0179756
0.000429172
0.00672226
0.00152628
0.00109787
0.000503235
0.00017255
0.00672319
0.00672398
0.00673853
0.0180578
0.00642427
0.000172167
0.007474
0.00781879
0.000417318
0.00569542
0.0124629
0.00599971
0.00547159
0.0148428
0.00037149
0.00672059
0.00617892
0.00427563
0.00257713
0.00019637
0.000612945
0.000358
0.00278572
0.010404
0.000665448
0.00825644
0.000265557
0.00672455
0.000401305
0.00034198
0.000342196
0.00463718
0.00011761
0.000665568
0.00461646
3.67636e-05
0.00672352
0.00672399
0.000680904
0.00673548
0.000682774
5.24078e-05
0.000351595
0.0179878
0.0089297
0.00672628
0.0132618
0.00682686
0.00725045
0.000893459
0.000113052
0.000682066
0.00672682
0.00672279
0.000433657
1.91544e-05
0.00672463
0.000351779
0.00181712
0.00996345
0.00883648
0.000544854
0.00868717
0.00208173
0.0163125
0.00513809
0.000157173
0.000704412
0.000736475
0.00672248
0.00673509
0.0138176
0.0179728
0.00672237
0.00673768
0.00675355
0.00672162
3.79821e-05
0.00197921
0.00217693
9.73217e-05
0.000446289
0.000321015
0.0131438
0.00979987
1.75534e-05
0.000421454
0.00136693
0.00672582
0.00673561
0.00675642
8.4804e-05
0.00406555
0.000552145
0.00139196
0.000634627
0.00672248
0.00672399
0.00120945
0.00675322
0.00672872
0.00052283
0.00077003
0.000302721
0.00880531
0.00675024
3.56072e-05
0.000570369
0.0067598
0.000391815
0.0173286
0.00672403
0.00225596
0.0147833
0.0067351
0.00040518
0.000402139
0.000234174
0.0067229
0.00019589
0.0068022
0.0169261
0.000353743
0.013092
0.00376671
0.000431555
0.000841172
0.0064591
0.00961756
0.000334937
0.0127756
0.0108004
0.0114723
0.00839193
0.0129847
0.00184882
6.18925e-05
0.00410724
0.0157172
0.000738896
0.00020814
0.00889584
0.00672335
0.0148735
0.0046228
0.000121461
0.00326207
4.96446e-05
0.000376125
0.0110088
0.00672244
0.00228629
0.000824377
0.00675701
0.0134001
0.011926
0.000635229
0.00672627
0.00134134
4.2307e-05
0.00130179
0.000686033
0.0159521
0.00235499
0.00672303
0.00672275
0.0021475
0.00846047
8.49873e-05
0.00073894
0.000799143
0.0142652
3.39013e-05
0.00677207
0.00947954
0.00279482
0.000157286
0.00334957
0.00278377
0.000294318
0.000882381
0.0060821
0.00844107
0.00147353
0.0121039
0.00846597
0.013547
0.00674597
9.29055e-05
0.000539215
0.000334746
0.000143595
0.000567132
0.0115511
0.00672992
0.000146343
0.000401366
0.00715873
0.00130859
2.94145e-05
0.0183677
0.0076528
0.0136797
0.00197601
0.00251412
2.34841e-05
0.00132286
0.00844691
0.00673576
0.0116036
0.0178506
0.000136361
0.00122187
0.000731509
0.0139481
0.0185739
0.00858474
0.0150569
0.000973099
3.43346e-05