/*--------------------------------*- C++ -*----------------------------------*\
| =========                 |                                                 |
| \\      /  F ield         | OpenFOAM: The Open Source CFD Toolbox           |
|  \\    /   O peration     | Version:  v2012                                 |
|   \\  /    A nd           | Website:  www.openfoam.com                      |
|    \\/     M anipulation  |                                                 |
\*---------------------------------------------------------------------------*/
FoamFile
{
    version     2.0;
    format      ascii;
    class       volVectorField;
    location    "50";
    object      U;
}
// * * * * * * * * * * * * * * * * * * * * * * * * * * * * * * * * * * * * * //

dimensions      [0 1 -1 0 0 0 0];


internalField   nonuniform List<vector> 
18166
(
(0.836831 -0.0119085 -2.8961e-20)
(1.00595 -0.0015704 4.29922e-22)
(0.999938 -0.000916999 1.06467e-20)
(1.21378 2.0922e-05 -3.75032e-20)
(0.0999506 -0.396254 -1.36793e-19)
(0.832525 -0.137526 -4.43237e-20)
(1.0147 -0.0113052 2.76614e-21)
(-0.315517 -0.00942782 -4.68915e-21)
(-0.103092 0.00848601 7.7762e-20)
(0.144861 -0.153275 -5.40812e-20)
(0.999402 -0.0106147 0)
(0.995954 -0.0172418 0)
(-0.119412 -0.0306385 -1.55551e-19)
(1.27349 -0.0670138 0)
(0.538313 0.0241595 -4.13579e-20)
(1.27447 -0.0637091 5.32609e-22)
(1.00092 -0.00629007 1.24953e-21)
(0.0231981 -0.929844 5.6738e-21)
(0.99171 -0.0191925 2.55671e-21)
(-0.21527 -0.00736165 1.06448e-19)
(1.24156 -0.123495 1.25033e-19)
(1.00086 -0.00628683 -4.41992e-21)
(1.23904 -0.108786 -1.05131e-19)
(0.996077 -0.00262199 2.13849e-21)
(1.00856 -0.0122477 -2.80957e-22)
(1.01423 -0.0109088 -4.40033e-21)
(0.85867 -0.0276672 -3.38292e-20)
(1.10349 -0.0504845 2.95629e-20)
(0.987908 -0.0314332 7.83025e-21)
(1.21864 -0.00320207 -4.06925e-20)
(0.000962098 -0.22384 0)
(1.01778 -0.000673057 2.7033e-21)
(1.00138 -0.032936 2.81909e-21)
(0.997249 -0.0215392 0)
(1.02104 -0.000103362 0)
(1.00218 -0.00884507 1.37391e-22)
(-0.0873754 0.00948043 0)
(1.00205 -0.00861611 -1.15523e-22)
(1.02959 -0.00944452 0)
(0.175863 -0.191321 1.12089e-19)
(1.00006 -0.000689254 -1.9281e-21)
(1.15704 -0.235528 3.07118e-20)
(1.00094 -0.0340746 7.16611e-22)
(0.981176 -0.0206519 0)
(0.83952 -0.0341959 -1.15917e-20)
(0.998259 -0.00326644 -1.01685e-20)
(1.14029 0.116031 -4.0391e-20)
(-0.0010016 -0.230134 0)
(1.22 0.157751 2.65267e-20)
(0.867672 -0.0240416 3.09382e-20)
(1.11731 0.0550374 2.32354e-20)
(1.14264 0.0157873 -3.44882e-20)
(1.24891 -0.0845544 -3.6393e-20)
(1.00018 -0.000666789 7.77209e-22)
(0.999638 -0.0101461 0)
(-0.228443 -0.00885601 9.87672e-21)
(1.1534 -0.230479 -9.01944e-20)
(-0.194837 -0.0117016 -8.08165e-20)
(0.990268 -0.0707689 -1.24576e-20)
(1.08702 -0.0414715 1.05115e-20)
(1.16813 -0.138847 0)
(1.08588 0.00613818 -9.25193e-21)
(-0.215575 -0.0100686 -1.18663e-19)
(1.09115 -0.102753 0)
(1.27243 -0.0546981 -2.40404e-22)
(0.996898 -0.00470802 0)
(-0.136426 -0.00513799 -1.75583e-20)
(0.255705 0.0448404 0)
(0.360078 -0.115261 -7.11227e-23)
(1.11104 -0.00939977 0)
(1.0208 -0.000172314 0)
(1.0277 -0.0505033 0)
(0.841668 -0.0578501 0)
(1.03589 -0.0820044 1.95401e-22)
(0.0583282 -0.414503 -6.95307e-20)
(0.35345 0.341813 9.08315e-20)
(1.24688 -0.101251 1.62753e-20)
(0.203569 -0.0829565 0)
(1.07522 -0.0617071 0)
(1.00155 -0.00764951 -1.01948e-21)
(1.00002 -0.00174284 1.86992e-21)
(0.0126986 0.0148382 2.95437e-20)
(0.996422 -0.00280747 -1.5831e-20)
(0.994929 -0.00465698 8.6485e-21)
(1.01764 -0.00146856 0)
(1.05625 0.0082581 0)
(1.08999 -0.0346051 4.61529e-21)
(1.00605 -0.00656983 4.46673e-23)
(1.14038 0.0209229 -1.64128e-20)
(1.02903 -0.00891083 3.34971e-21)
(-0.242736 -0.0065625 1.50496e-19)
(0.868336 -0.154427 -1.99977e-20)
(-0.19275 -0.0173958 0)
(1.00004 -0.000602073 0)
(1.00016 -0.000979067 2.00215e-21)
(1.05657 0.0106367 0)
(1.01804 -0.00125947 2.86714e-21)
(0.998764 -0.26199 -5.17709e-23)
(0.923836 -0.014783 -1.42117e-20)
(1.10297 -0.0364618 2.21535e-20)
(1.00532 -0.000813581 6.13857e-22)
(0.999059 -0.00543339 -2.6287e-21)
(0.604897 0.0253535 -6.96766e-20)
(1.0878 -0.104298 0)
(1.10998 -0.0103289 0)
(0.999112 -0.00498807 -5.03176e-21)
(-0.0997197 -0.368395 2.66427e-20)
(0.0861973 -0.0125587 -1.44847e-19)
(0.983861 -0.0848568 1.09379e-20)
(0.999878 -0.0089521 1.99527e-21)
(-0.182444 -0.0157271 -1.732e-19)
(-0.0570888 0.0148645 0)
(-0.0973855 -0.00177341 0)
(0.726916 0.0970425 1.02469e-19)
(1.00066 -0.00528787 2.37837e-21)
(1.03381 -0.00145755 -6.9896e-21)
(1.01667 -0.265782 0)
(0.0309081 -0.0337879 -6.04405e-20)
(0.975348 -0.0336345 3.35171e-21)
(0.600699 0.170498 0)
(0.627392 0.789849 -3.74062e-21)
(0.987164 -0.0299044 -5.05136e-21)
(1.29556 -0.230088 9.73172e-20)
(0.431607 0.0103906 0)
(1.23311 -0.00225617 -2.66636e-20)
(0.994491 -0.0156867 -4.61534e-21)
(0.998692 -0.00314403 -3.33641e-21)
(-0.146713 -0.0252368 9.83115e-20)
(0.946266 -0.112228 7.60578e-21)
(0.943942 -0.184898 1.90675e-20)
(1.23956 0.0120839 3.52298e-20)
(0.770879 -0.405622 2.55108e-20)
(1.08224 -0.00815631 4.71449e-22)
(0.0916875 -0.0585108 -2.74194e-20)
(0.937332 -0.0924751 2.10279e-20)
(1.13422 0.118796 3.30786e-20)
(1.00187 -0.00880092 0)
(1.009 -0.0099088 0)
(1.08361 -0.00557833 0)
(-0.0369653 -0.106668 -3.78229e-20)
(-0.138251 0.00579825 0)
(1.27525 -0.0607939 -3.628e-20)
(1.24404 0.172737 0)
(0.0717063 -0.0658072 0)
(0.986985 -0.0819886 -1.35313e-20)
(0.91821 -0.035859 1.47444e-19)
(-0.250139 -0.0109076 0)
(0.737528 0.0261577 0)
(1.04265 -0.00787537 3.90752e-21)
(1.09241 -0.00953433 -2.01411e-20)
(1.01786 -0.00106307 4.80033e-21)
(-0.0160443 -0.123489 -3.81048e-20)
(0.51117 -0.731122 8.63102e-21)
(1.23282 -0.00160341 0)
(0.999856 -0.00122357 -2.24919e-21)
(1.00003 -0.00855797 2.03037e-22)
(1.01008 -0.0561261 0)
(-0.22734 -0.0114847 8.88792e-20)
(1.0017 -0.00826408 -1.16044e-21)
(-0.140295 -0.0264925 8.8076e-20)
(1.01533 -0.00138633 0)
(0.167488 -0.00369369 0)
(1.08291 -0.0460614 1.33978e-20)
(1.01021 -0.00139495 -1.97344e-21)
(1.14266 0.0178363 3.74152e-20)
(0.328602 -0.00492101 -3.73552e-20)
(0.998753 -0.00377474 -8.31557e-21)
(0.0551237 -0.0752101 2.76489e-20)
(0.0220584 0.00799923 2.81127e-20)
(-0.139293 -0.0189236 1.76116e-19)
(1.25622 -0.0246042 0)
(0.788289 0.102369 -3.13009e-20)
(0.946353 -0.19009 -1.38324e-20)
(0.237971 0.0369959 0)
(1.27423 -0.0437262 0)
(0.995062 -0.0213425 0)
(0.596984 0.387441 1.34014e-19)
(0.367314 0.0852095 1.02864e-19)
(1.00632 -0.00121502 0)
(1.00583 -0.00606538 0)
(1.00057 -0.00536874 -2.89546e-21)
(0.96157 -0.178908 1.18531e-20)
(0.521017 -0.0836816 -1.28814e-19)
(0.594944 0.34785 -3.7028e-20)
(1.02913 0.00595283 7.18814e-20)
(1.00844 -0.00501265 -1.02676e-21)
(1.046 -0.22595 1.05e-20)
(1.20855 0.00555032 3.94644e-20)
(1.00285 -0.00609692 0)
(1.0331 -0.001087 3.85067e-21)
(1.17353 -0.127987 1.67951e-20)
(0.991243 -0.0204625 -3.02136e-21)
(1.12912 0.0336773 0)
(0.995237 -0.00467773 0)
(1.0335 -0.161048 0)
(-0.0085402 -0.198613 0)
(0.841387 -0.120416 7.26168e-20)
(1.02797 -0.153538 -2.39229e-21)
(0.00971436 -0.0499643 -2.20658e-20)
(0.105592 -0.00992634 -2.58254e-19)
(1.25457 -0.0288905 2.11775e-20)
(-0.132207 0.0137093 0)
(1.03928 -0.00207218 -6.15695e-21)
(0.760638 0.0262954 -2.02367e-20)
(0.998517 -0.0420839 2.9421e-21)
(1.14614 0.0118755 3.69206e-20)
(0.0433866 0.0170436 5.1319e-20)
(-0.239448 -0.00929469 -1.24815e-20)
(0.14528 -0.484541 1.77632e-19)
(-0.289055 -0.009985 4.5337e-21)
(0.122791 -0.347541 -8.85488e-20)
(-0.12516 0.00705457 4.50902e-20)
(1.00626 -0.00146244 0)
(0.99757 -0.0038591 -3.05455e-21)
(1.12636 0.0473329 1.28033e-22)
(0.868126 -0.150154 0)
(1.27442 -0.0405033 9.14994e-20)
(1.01411 -0.253504 -1.92196e-21)
(0.05222 0.00968393 -2.47424e-20)
(-0.0118269 0.0119356 -5.16102e-20)
(1.08063 -0.0329171 2.26416e-20)
(1.00277 -0.0172612 -2.39151e-21)
(1.00828 -0.00505387 8.89437e-22)
(0.76133 -0.0274539 -3.75401e-21)
(-0.267365 -0.0117678 0)
(1.01816 -0.0136168 1.97349e-21)
(0.994045 -0.258398 2.12888e-21)
(1.00839 -0.0014786 -4.34719e-22)
(0.979071 -0.070096 0)
(1.03883 -0.00287049 1.25448e-20)
(-0.225059 -0.00692365 -7.14022e-21)
(-0.0939125 -0.00271744 4.52784e-20)
(1.06405 0.00407808 5.11011e-21)
(-0.0592585 -0.149075 2.80619e-20)
(1.00345 -0.000616937 4.08564e-23)
(1.05663 0.00643254 -1.41626e-20)
(1.1256 0.040151 0)
(1.1555 -0.132387 -2.37173e-20)
(-0.145336 -0.006829 -4.03357e-20)
(1.0493 -0.0530602 -2.62969e-20)
(1.12866 0.0375432 0)
(-0.0330526 0.00576714 0)
(-0.211059 -0.00810606 0)
(1.08442 -0.0375479 -2.2693e-20)
(0.79053 0.0521688 7.8858e-20)
(0.97043 -0.00460255 -1.7742e-20)
(1.21249 0.00126235 6.52922e-22)
(-0.0436388 0.004198 0)
(0.112062 -0.0487946 5.89803e-20)
(1.04166 -0.0545463 0)
(0.829913 0.00946062 -2.14529e-20)
(0.998563 -0.00305252 9.32683e-21)
(0.999695 -0.0400995 -2.04778e-21)
(0.9461 -0.109892 1.32773e-20)
(-0.035178 -0.139658 2.04241e-20)
(-0.150963 0.0212 1.07187e-19)
(1.00009 -0.0072574 0)
(-0.00937041 0.00016114 5.55718e-20)
(-0.128704 -0.0210072 -2.25774e-19)
(1.00985 -0.00124954 2.37002e-21)
(0.997219 -0.00427616 0)
(-0.0548912 -0.153526 -3.25586e-20)
(1.16408 -0.150247 8.56111e-20)
(1.2152 0.162938 3.67628e-20)
(0.0195605 0.0221867 0)
(-0.0264788 0.00996307 0)
(-0.0172974 -0.00316942 -2.16908e-19)
(1.03377 -0.0821905 -1.30958e-21)
(1.00002 -0.00131454 0)
(1.107 -0.038147 -2.58713e-20)
(0.860432 -0.0321976 3.7119e-20)
(0.997605 -0.0037696 -1.85368e-23)
(1.00726 -0.00804187 1.48037e-22)
(0.331802 0.0202337 -3.91295e-20)
(1.14061 0.0215435 -1.20902e-20)
(-0.204703 0.00523852 0)
(0.430709 0.102355 0)
(1.00885 -0.00128129 4.72668e-22)
(0.373333 0.313216 0)
(1.01797 -0.000807049 9.24979e-23)
(1.16172 0.0874088 -1.50176e-20)
(-0.121091 -0.00447208 0)
(1.03036 -0.080802 0)
(1.04581 0.00562679 2.20919e-21)
(1.07777 -0.0348858 -1.51751e-20)
(1.16371 -0.201818 0)
(1.0857 0.0081879 0)
(1.05337 -0.0277885 0)
(-0.0702919 0.0114225 0)
(1.00045 -0.00477344 2.51773e-21)
(1.10325 -0.0489478 2.82422e-20)
(1.13119 0.109733 3.97738e-20)
(1.04368 -0.0833723 6.29999e-21)
(1.00022 -0.00723136 0)
(1.02898 -0.0800921 0)
(-0.012677 -0.191157 0)
(1.01558 -0.0113763 -7.16414e-22)
(0.997924 -0.00349068 9.10571e-21)
(1.01784 -0.0135495 -1.92789e-21)
(0.862029 0.0564889 5.94121e-20)
(0.519934 0.123987 -1.17267e-19)
(1.00141 -0.00784736 2.30301e-21)
(1.01693 -0.0485951 0)
(1.00753 -0.00825076 0)
(0.847243 0.00539205 0)
(1.00361 -0.0354101 0)
(-0.228372 -0.00885962 -1.14655e-20)
(1.23816 0.0239051 -3.0849e-20)
(0.980726 -0.0218288 0)
(1.03321 0.000209887 5.65639e-21)
(1.08038 -0.0111547 -1.86188e-20)
(0.315056 -0.147284 -1.04227e-19)
(-0.197536 -0.00682079 -3.45969e-20)
(0.906172 -0.059607 -3.09209e-20)
(1.00041 -0.00513031 0)
(0.126147 0.339825 6.96487e-22)
(0.659143 0.0265293 1.47197e-22)
(1.04785 -0.0825156 2.99861e-21)
(0.997235 -0.0040926 -3.80223e-21)
(1.27948 0.0531038 -6.60137e-21)
(1.00432 -0.0185163 2.43851e-21)
(0.928157 -0.0159395 5.8748e-20)
(-0.108596 0.0160916 0)
(1.15907 -0.151001 -6.95866e-20)
(0.933603 -0.167842 0)
(0.868091 -0.0202058 -7.97064e-20)
(1.05433 -0.0268326 9.00386e-21)
(1.00291 -0.0350108 0)
(1.02645 -0.0048682 2.77511e-21)
(-0.0146632 -0.00173633 -2.74256e-21)
(1.00905 -0.0101123 -3.9152e-22)
(0.0723478 -0.0705341 1.74197e-21)
(1.04599 0.0068742 0)
(1.03886 -0.00100584 0)
(0.489397 1.09072 7.14929e-20)
(-0.0757295 0.00859419 0)
(1.25688 -0.0117664 -9.11834e-20)
(0.00643762 0.000515736 4.50667e-20)
(-0.233309 -0.00546706 -1.1403e-19)
(0.0354308 0.0266813 0)
(1.04352 -0.00683471 -4.31323e-21)
(-0.0613045 -0.0100699 0)
(1.27748 0.0453983 0)
(-0.101217 -0.107392 -3.02995e-20)
(1.05511 0.00702823 1.33255e-20)
(0.999742 -0.00939915 4.74013e-21)
(1.01549 -0.0129426 -2.56043e-21)
(0.90167 -0.0410783 1.81024e-20)
(1.02702 -0.050757 -4.41676e-21)
(1.14915 -0.134911 1.173e-20)
(0.989652 -0.0702629 1.09252e-20)
(1.12608 0.111801 -1.87433e-20)
(0.997943 -0.0034499 -6.75271e-21)
(1.0077 -0.00473814 -1.03836e-21)
(0.683229 0.0667731 2.20318e-20)
(1.08968 -0.0360924 8.98224e-21)
(0.671211 0.0382526 0)
(1.13147 0.0276134 -2.69732e-20)
(0.999605 -0.00991039 0)
(1.02585 -0.00549663 -5.47906e-21)
(1.00551 -0.00612332 0)
(-0.0459526 0.00677282 -1.6042e-20)
(-0.0362306 -0.0116004 -1.31582e-20)
(1.00027 -0.00694305 1.55927e-21)
(1.01362 -0.00992047 0)
(0.993213 -0.00620268 5.17681e-21)
(0.999905 -0.000517659 0)
(1.06289 -0.319432 -2.03906e-20)
(1.00008 -0.000749101 0)
(0.145309 -0.0394192 0)
(0.574216 -0.681317 1.34494e-20)
(1.00683 -0.0062062 0)
(1.00383 -0.01834 -1.67898e-21)
(1.28267 -0.00155794 6.95853e-20)
(-0.0567582 0.00650991 0)
(0.604273 0.901315 6.03481e-21)
(-0.0973501 -0.099388 6.1066e-20)
(1.00006 -0.00217382 3.75574e-21)
(1.13197 0.0274266 2.85625e-20)
(1.258 -0.0103172 1.60226e-19)
(1.03915 -0.00176881 8.20785e-22)
(-0.0453597 -0.114047 6.37614e-20)
(1.22374 0.151582 5.15454e-20)
(1.0924 -0.0112051 1.45006e-20)
(1.04417 -0.0736192 6.86288e-21)
(0.98706 -0.012604 4.71765e-21)
(0.996916 -0.00445483 0)
(1.00002 -0.000149582 6.08201e-22)
(-0.136596 -0.0069219 0)
(0.987951 -0.0129242 -3.47599e-21)
(1.02065 -0.000510919 0)
(1.09307 -0.0179362 5.49806e-21)
(1.02527 -0.00944784 -1.50791e-21)
(-0.114706 -0.00124217 0)
(1.27156 0.0571745 1.28157e-19)
(0.999916 -0.00220911 -3.10967e-21)
(0.998018 -0.00305743 6.81789e-21)
(-0.204326 -0.0154968 -4.52208e-20)
(1.01284 -0.0118962 0)
(1.01198 -0.0114509 0)
(1.02238 -0.0447576 1.6498e-21)
(1.26794 -0.0491733 1.10132e-19)
(-0.0633256 0.00821585 -1.90977e-20)
(1.00008 -0.00108362 0)
(0.9395 0.0124349 0)
(1.0566 0.00446528 -7.29007e-21)
(1.03878 -0.00336715 -1.69326e-20)
(-0.214038 0.00169289 8.39461e-20)
(-0.198039 0.00442877 0)
(0.980544 -0.0472877 3.83767e-21)
(0.953244 -0.00455502 8.47601e-20)
(-0.133794 0.029127 -1.53762e-19)
(0.923015 -0.187491 0)
(0.952604 0.0231124 9.33115e-20)
(1.0808 -0.0170873 9.1563e-21)
(1.10047 -0.0416461 3.63367e-21)
(1.15675 -0.211112 0)
(0.974372 -0.45891 -5.22983e-21)
(1.01938 0.000144149 2.96489e-21)
(0.998969 -0.00720099 -7.09357e-21)
(1.0528 -0.0303109 2.04557e-22)
(0.994721 -0.0153034 0)
(0.297658 -0.0117578 0)
(1.00783 -0.0849188 1.70889e-21)
(0.408166 -0.434431 4.27988e-20)
(0.999914 -0.000955509 -3.52821e-21)
(1.28399 -0.230355 0)
(0.997272 -0.0214131 0)
(-0.0372474 -0.0234693 1.26903e-20)
(-0.323382 -0.00843179 -4.25763e-21)
(0.907788 -0.006393 1.8818e-20)
(0.376991 0.0368798 8.22597e-20)
(0.931138 -0.177302 0)
(1.05378 -0.0294047 0)
(1.1146 0.047766 -3.094e-20)
(-0.125644 -0.0124296 0)
(0.821584 0.031694 -1.07427e-19)
(1.00041 -0.000196874 -5.45906e-22)
(0.0885512 -0.0379485 5.29484e-20)
(1.12351 0.0089014 0)
(1.02394 -0.00756437 0)
(0.476485 0.0067164 0)
(-0.0968859 -0.00376316 -6.28407e-20)
(1.00252 -0.0181434 -3.34567e-21)
(0.174065 -0.00524012 0)
(-0.0377912 -0.00878617 4.56146e-20)
(1.00002 -0.00835822 -2.07583e-22)
(-0.295329 -0.00679754 -3.79074e-21)
(1.06379 -0.335198 -1.1431e-20)
(1.0382 -0.00395086 1.4725e-20)
(0.772285 -0.0274095 3.06184e-21)
(0.384702 0.0248584 -4.10812e-20)
(1.27768 -0.0417605 -2.05751e-20)
(1.12135 0.0537952 -1.6041e-20)
(0.0898323 -0.0633724 7.52934e-20)
(0.0709747 0.34446 2.18999e-20)
(1.27815 0.0635999 6.89871e-20)
(1.20345 -0.0415402 3.8839e-20)
(1.02474 -0.00889564 4.047e-21)
(-0.165003 -0.0220232 -8.06562e-20)
(0.992649 -0.0193561 -4.88317e-21)
(0.997127 -0.0401628 0)
(0.345565 0.0614271 -1.17582e-19)
(0.979865 0.0214185 -3.50616e-20)
(1.00087 -0.0664112 5.5424e-21)
(0.980394 -0.0463693 -3.51583e-21)
(1.121 0.013007 2.46912e-21)
(1.07886 -0.0144249 -8.50608e-21)
(0.971405 -0.00566536 1.38727e-20)
(1.01607 -0.0129642 2.60413e-21)
(1.01732 -0.00155756 0)
(1.0334 -0.237596 7.52558e-21)
(-0.153941 -0.00515017 0)
(1.00528 -0.00562439 -7.92438e-24)
(1.1561 0.0887046 2.31496e-20)
(0.999946 -0.000496722 -2.15001e-21)
(-0.18788 -0.0086778 -4.74489e-20)
(0.999004 -0.00721221 2.21347e-21)
(1.00333 -0.000314571 -5.10288e-23)
(1.28324 0.165603 -3.41592e-20)
(0.562608 0.0258456 -4.89748e-20)
(0.979717 -0.247679 0)
(-0.0261763 -0.00109274 0)
(1.00395 -0.0102076 0)
(1.0035 -0.00996693 7.58819e-22)
(-0.014093 0.0132105 -5.73937e-20)
(0.671946 -0.180869 -1.22854e-19)
(1.15677 -0.143291 2.57242e-20)
(1.05314 1.03364e-05 -1.32422e-20)
(0.594687 -0.362184 0)
(0.505357 -0.0592926 1.18535e-19)
(1.00022 -0.00389489 1.26167e-21)
(0.998782 -0.00348817 4.8828e-24)
(1.00004 -0.00248735 -5.40093e-21)
(1.03857 -0.0590403 1.44497e-21)
(0.0129946 -0.00116734 -3.95416e-20)
(-0.00886005 0.0161199 -1.57248e-20)
(0.995423 -0.0375025 2.69684e-21)
(1.00696 -0.0606289 0)
(0.622815 0.129133 -1.08947e-21)
(-0.168978 -0.0216803 0)
(-0.279152 -0.00966229 -6.34172e-20)
(1.02083 -0.000402848 2.325e-21)
(0.96675 -0.0498645 -3.58287e-21)
(0.604474 0.810941 -3.9428e-22)
(0.997724 -0.0395496 -3.04648e-21)
(0.998605 -0.00286564 0)
(1.00105 -0.00795503 0)
(1.0189 -0.00787227 -3.29463e-21)
(1.18038 -0.0723504 0)
(0.469653 -0.260036 1.11688e-19)
(0.691342 -0.742975 0)
(1.00604 -0.448429 1.8565e-20)
(1.00168 -0.00810529 3.27163e-21)
(1.25148 -0.0368525 3.57446e-20)
(1.00852 -0.0125247 -1.21537e-22)
(1.00003 -0.000362137 -1.09518e-22)
(0.00286077 -0.0181316 8.28311e-20)
(0.922882 -0.752388 2.06585e-20)
(1.0335 -0.229369 5.26321e-21)
(0.356256 0.071032 5.81668e-21)
(-0.0856745 -0.00152794 -1.74414e-20)
(0.63718 0.024982 8.27255e-20)
(-0.0257278 0.0152404 4.1508e-21)
(1.25051 -0.108134 -4.22051e-20)
(0.00792302 0.0201398 -1.25009e-19)
(-0.220873 -0.00846258 -5.43506e-20)
(1.14332 0.12306 2.46299e-20)
(-0.214318 -0.00649499 5.29309e-20)
(0.995404 -0.0183193 1.86455e-21)
(0.670992 0.0440364 0)
(1.0438 -0.0536821 6.00183e-21)
(1.05944 0.00744237 -2.12749e-20)
(0.640495 0.106242 9.71889e-22)
(1.21159 0.162733 0)
(0.98886 -0.0669145 8.64028e-21)
(1.30753 -0.166161 0)
(0.84268 0.0236884 2.0162e-20)
(1.14171 0.00618137 -3.08391e-20)
(0.999834 -0.0011652 1.15404e-20)
(0.980673 -0.0117483 -8.80613e-23)
(0.893093 -0.695143 -7.20381e-21)
(-0.0491159 0.0115865 0)
(-0.00100982 0.00157944 -9.20235e-20)
(1.02224 -0.00147269 2.25772e-21)
(1.30279 -0.154806 0)
(-0.109924 -0.0313104 3.48487e-23)
(0.960311 -0.0146105 0)
(1.05737 0.00410979 1.55573e-20)
(0.992826 -0.00611378 -2.88655e-21)
(0.920092 -0.0317607 -2.00043e-20)
(0.647588 -0.316194 -5.61656e-20)
(-0.170748 -0.0180438 1.67997e-19)
(1.00021 -0.000775072 -7.40034e-22)
(0.0690821 0.0184696 0)
(0.999004 -0.00614981 0)
(0.107397 -0.0521301 -6.84815e-20)
(1.07702 -0.0645615 -9.16677e-21)
(1.01781 -0.0449902 -6.38418e-22)
(1.07709 -0.0806512 -1.33837e-20)
(-0.187999 -0.019108 -1.28613e-19)
(1.03368 0.000802852 -2.95791e-21)
(1.00271 -0.00530687 0)
(-0.131984 -0.00460636 8.812e-20)
(0.0219713 0.0193397 1.38842e-20)
(1.17693 -0.205543 -6.09564e-20)
(0.665656 0.0259837 7.81395e-20)
(1.05263 -0.00109178 1.40224e-20)
(1.00127 -0.00736437 0)
(0.999232 -0.00203354 -1.37854e-21)
(-0.0456547 -0.154653 -7.51642e-21)
(0.718832 -0.269549 1.24979e-20)
(-0.0251091 -0.122678 0)
(1.10196 -0.0729888 -2.30364e-20)
(0.651211 -0.761579 0)
(0.0292596 -0.00366348 -2.86861e-20)
(1.12688 0.0417556 -4.05079e-20)
(-0.190419 -0.0111023 7.49773e-23)
(0.965673 -0.0490698 3.59614e-21)
(-0.257421 -0.0124267 1.84822e-20)
(1.01879 -0.00673508 0)
(0.506175 -0.027738 0)
(0.0431095 0.0204696 3.22779e-20)
(0.690012 -0.217093 1.26281e-19)
(1.08209 -0.00899757 1.86076e-20)
(0.015068 0.0219406 0)
(-0.231161 -0.0137935 1.76374e-19)
(1.00259 -0.00638295 0)
(0.354955 -0.134601 -8.96367e-20)
(0.991494 -0.0205042 3.92879e-22)
(1.00012 -0.000623661 -9.08516e-22)
(-0.281348 -0.0106367 -3.57085e-20)
(-0.0487921 0.0065832 0)
(0.999933 -0.0024898 6.50061e-21)
(1.00014 -0.00789982 0)
(1.01533 -0.00115032 -2.28278e-21)
(0.113232 -0.458904 -6.8229e-20)
(-0.0341466 0.00697901 7.52571e-20)
(1.00283 -0.00568426 0)
(1.26204 -0.0145772 -5.64142e-20)
(1.04476 -0.0775932 -9.46455e-21)
(1.04581 0.00419986 0)
(1.00382 -0.00954071 -5.83526e-22)
(1.19258 -0.126506 3.99453e-20)
(1.25305 -0.0327697 -2.71844e-20)
(1.08605 -0.0449784 -2.26407e-20)
(0.439556 -0.124287 -4.49804e-20)
(1.00041 -0.00698151 -3.10061e-21)
(1.00788 -0.00484678 9.89503e-22)
(0.455345 0.108186 0)
(-0.314375 -0.00984092 0)
(1.27626 0.0383131 -1.2792e-20)
(-0.230067 -0.00855083 -1.39314e-20)
(0.16691 -0.0935918 -6.48905e-20)
(0.96803 -0.011386 -2.28197e-20)
(-0.110198 -0.0317367 5.11079e-20)
(0.438921 -0.118797 -4.45163e-20)
(0.939033 -0.0468615 2.42375e-20)
(0.286795 -0.629346 -3.91107e-20)
(1.05517 -0.280253 0)
(1.07139 -0.0653175 0)
(1.08582 -0.175146 -1.20181e-20)
(-0.116304 -0.0272787 0)
(0.9032 0.00316385 0)
(1.19861 -0.0455815 -3.79059e-20)
(1.0346 -0.0581709 1.1702e-21)
(1.09498 -0.0977805 -1.02951e-21)
(-0.121512 -0.0294492 -5.24071e-20)
(1.00262 -0.00605043 -1.07544e-21)
(0.265916 0.0662471 9.11063e-20)
(1.18269 -0.0795934 -1.69175e-20)
(0.892128 -0.247744 -2.70857e-20)
(0.957738 -0.18479 -1.46738e-20)
(1.02478 -0.00876247 0)
(1.05525 0.000931819 -3.46683e-21)
(-0.182571 0.017522 4.30006e-20)
(1.00249 -0.005243 -9.04473e-22)
(0.999066 -0.00629397 -2.2999e-21)
(1.21806 -0.00944104 -4.72018e-20)
(1.02232 -0.00801848 -2.33284e-21)
(1.16528 -0.136684 -2.89894e-20)
(1.04622 0.00492398 -2.50207e-21)
(1.23712 0.0159382 1.69515e-20)
(0.977354 -0.0324494 5.85262e-21)
(1.10617 -0.0698694 -3.92098e-20)
(1.02574 -0.00564882 0)
(0.230819 -0.243069 -1.31688e-19)
(-0.224705 -0.0085027 0)
(0.0825028 0.500752 -1.597e-19)
(1.03588 -0.0584504 0)
(-0.234239 -0.00698422 0)
(-0.022134 0.0142547 3.36151e-20)
(0.524348 -0.0180016 0)
(1.03843 0.000709082 0)
(-0.0178755 0.012859 -6.80916e-20)
(0.962846 -0.00599929 2.34148e-20)
(-0.15276 0.196335 -8.69174e-22)
(0.995506 -0.00480203 0)
(0.653829 -0.0988118 -9.54298e-20)
(1.13482 -0.0178145 0)
(-0.0503942 -0.00919287 2.5092e-20)
(-0.311332 -0.00888111 -6.86729e-20)
(1.29811 -0.0643626 -1.08328e-19)
(-0.109328 -0.00639828 3.54752e-20)
(1.02097 0.000236622 -6.49761e-21)
(-0.244756 -0.00825841 0)
(1.00573 -0.000575172 0)
(0.9066 -0.0737231 -9.7069e-21)
(0.942627 -0.0527782 0)
(0.988781 -0.0112761 7.25142e-21)
(1.00251 -0.000655503 0)
(-0.183489 -0.00950287 -2.33167e-20)
(1.15482 0.0802419 2.16645e-20)
(1.0524 -0.0333737 8.69869e-21)
(0.104218 0.0212832 5.48242e-20)
(0.106372 -0.0714965 0)
(0.769351 -0.143689 -2.22741e-20)
(1.02108 2.03282e-05 3.92684e-21)
(0.945695 -0.0857221 2.25226e-20)
(1.00012 -0.00118047 0)
(1.01316 -0.012312 1.00166e-21)
(1.0187 -0.0074461 0)
(0.99405 -0.0224342 3.23091e-21)
(0.452495 -0.308294 -1.0283e-19)
(1.07369 -0.0832534 9.81803e-21)
(0.532575 0.0286647 -1.08563e-19)
(-0.216786 -0.00283346 4.61508e-20)
(-0.222059 -0.00937351 -3.10673e-20)
(-0.235617 -0.0049181 -1.10583e-19)
(0.747673 -0.449962 -3.7572e-21)
(0.904866 0.0054308 -1.1247e-20)
(0.998858 -0.00292705 3.99112e-21)
(1.02291 -0.00524494 -4.70608e-20)
(1.0091 -0.00965683 -4.87005e-22)
(-0.189438 -0.00929052 -1.03347e-19)
(-0.15629 0.0204639 3.58569e-20)
(1.0232 -0.00776455 0)
(1.09822 -0.10995 -1.30121e-21)
(-0.0441886 -0.0391608 0)
(0.0672175 -0.00404418 -3.99292e-20)
(0.365669 0.0750163 -5.68184e-20)
(1.11057 -0.0679049 1.10849e-20)
(0.91018 0.0102899 0)
(1.02236 -0.018687 -3.13369e-21)
(-0.000643421 -0.12818 3.87512e-20)
(-0.231294 -0.00877741 0)
(0.806407 0.0208335 3.41271e-20)
(1.05439 -0.264098 1.09571e-20)
(1.29035 -0.0455576 -1.10875e-19)
(-0.318713 -0.00971483 0)
(1.03725 -0.280141 -1.34096e-20)
(-0.0153727 -0.177012 5.17464e-20)
(0.868205 -0.350475 1.21857e-21)
(0.784657 -0.444782 -2.11224e-20)
(1.00376 -0.0103172 7.47729e-22)
(-0.217282 -0.00704413 -6.75475e-20)
(1.16656 0.0891078 8.244e-21)
(1.15152 0.074495 -6.42361e-20)
(-0.0971172 -0.00582325 0)
(1.01618 -0.0178258 -1.82456e-21)
(1.19168 0.118882 0)
(0.704056 -0.218473 0)
(1.01686 -0.017687 2.19462e-21)
(1.27858 0.0911548 3.8929e-20)
(0.782832 0.0305655 8.11288e-20)
(-0.0135524 -0.168449 -5.18005e-21)
(0.0282595 -0.00402417 1.14126e-19)
(0.857986 0.00506634 -2.45639e-20)
(1.1015 -0.0598584 0)
(1.00227 -0.000800337 0)
(0.620687 -0.317779 0)
(1.05274 -0.61467 2.56433e-20)
(0.93885 -0.0922937 -6.89777e-21)
(-0.0505644 -0.00673128 -1.02793e-19)
(1.00329 -0.0243042 2.23548e-21)
(0.0608793 -0.00213321 5.40443e-20)
(-0.0307059 0.0167523 0)
(1.08909 -0.00482142 2.33885e-21)
(0.980484 -0.0836366 0)
(0.999942 -0.00121044 0)
(0.869306 -0.134776 1.79677e-20)
(1.00014 -0.00158977 -6.34844e-22)
(0.2122 -0.0832868 9.35686e-20)
(1.20771 0.0765222 0)
(0.0747472 -0.0111595 1.79547e-19)
(1.01511 -0.0110028 1.18008e-21)
(1.01693 -0.0170598 0)
(1.02175 -0.0190869 -3.05479e-21)
(0.51093 -0.187296 -5.08982e-20)
(0.0797446 0.0198459 1.16774e-19)
(0.844433 0.0151164 -2.2137e-20)
(0.164579 -0.0843715 9.77836e-20)
(1.14733 0.0897751 0)
(1.18917 -0.0285967 8.5097e-20)
(0.995823 -0.00467545 0)
(1.00096 -0.00052051 1.59563e-23)
(1.26062 -0.308364 -4.45303e-20)
(1.00008 -0.0685671 -2.4996e-21)
(1.30431 0.112799 0)
(0.0622759 -0.418424 0)
(0.784903 -0.239324 1.38391e-21)
(1.27621 -0.0459455 0)
(1.0432 -0.0323794 -2.38761e-21)
(-0.172855 -0.00793083 -1.12032e-20)
(0.275578 0.0501349 6.09192e-21)
(0.600174 0.334947 -5.23309e-21)
(1.06347 0.00449984 -1.57002e-20)
(1.01228 -0.00149816 -2.62347e-23)
(1.05371 -0.0357482 -8.28205e-21)
(0.99932 -0.00493611 0)
(1.26339 0.0043597 9.4912e-20)
(0.988737 -0.0857783 0)
(1.02495 -0.011253 9.2112e-21)
(1.27969 0.098635 0)
(0.951148 -0.0338297 1.54978e-20)
(-0.0459293 -0.157166 -2.15475e-20)
(1.01472 -0.393957 -2.49807e-20)
(0.923521 -0.182294 -2.14493e-20)
(1.00647 -0.00632828 -3.2081e-22)
(-0.0948941 -0.0293699 -3.17849e-21)
(1.03435 -0.000901459 1.13023e-20)
(1.09085 -0.00821726 -8.75026e-23)
(0.130117 -0.185474 -8.37421e-21)
(0.625664 -0.145771 0)
(1.00334 -0.0103082 0)
(1.00563 -0.432545 -2.5462e-21)
(0.0458135 -0.00599097 -1.5044e-20)
(1.03126 -0.0151098 -5.53873e-21)
(1.00091 -0.00741534 0)
(0.996618 -0.0178057 0)
(0.761341 -0.128376 -3.0586e-20)
(-0.0459389 0.00551496 -5.19109e-20)
(1.00278 -0.00569929 2.2523e-22)
(-0.197818 0.00963682 -9.93936e-20)
(1.00008 -0.000888387 0)
(-0.154273 -0.0241057 0)
(0.157823 -0.0615447 -1.31847e-19)
(-0.026044 -0.112334 0)
(-0.0492891 -0.0314752 -2.32096e-20)
(0.984128 -0.250412 0)
(1.10468 -0.0557328 1.8687e-20)
(0.353829 -0.11098 -5.77906e-20)
(1.0052 -0.000642088 -9.31667e-22)
(0.831501 0.0268519 7.30582e-20)
(1.03074 -0.0158271 0)
(1.0101 -0.00429869 -2.73379e-22)
(1.02295 -0.00230146 0)
(1.04229 -0.0188012 -1.61073e-20)
(0.0741606 -0.0759083 -7.44604e-21)
(1.02693 -0.0245013 -2.22666e-21)
(1.00236 -0.00489505 8.61071e-22)
(1.01601 -0.0469995 -2.87941e-22)
(1.0253 -0.0109263 -3.48674e-21)
(0.92852 -0.61259 2.02114e-20)
(0.968856 -0.0549454 8.48722e-22)
(-0.194903 -0.0178697 7.23787e-20)
(1.00396 -0.00952769 5.75607e-22)
(0.999441 -0.004678 4.29787e-21)
(1.00276 -0.00637987 0)
(0.254286 0.0499186 0)
(-0.250255 -0.011299 1.16214e-19)
(-0.352094 -0.129662 6.94085e-20)
(0.440852 -0.408226 -1.06272e-19)
(1.00978 -0.00384534 -3.24861e-22)
(-0.103653 -0.00282668 -6.66936e-20)
(-0.0576101 0.005241 -1.70776e-20)
(1.03843 -0.0560155 1.88658e-21)
(1.00031 -0.0143609 -4.07395e-21)
(-0.228162 -0.00473476 0)
(-0.167148 -0.00866544 3.7212e-20)
(1.06697 -0.0678205 7.51129e-21)
(1.23094 0.0532255 2.73717e-20)
(0.470728 0.0316609 4.99838e-20)
(1.04257 -0.239384 0)
(1.03896 0.000239508 -1.11692e-21)
(1.16858 0.0273758 3.69186e-21)
(1.09406 -0.0968811 2.49837e-21)
(1.16728 0.0251864 -2.99743e-21)
(0.0751108 -0.00435982 7.28348e-21)
(0.0670143 -0.0488889 -4.6848e-20)
(1.02626 -0.00431166 -5.0275e-23)
(-0.228699 -0.00897296 2.06053e-22)
(1.0177 -0.0170075 -1.95604e-21)
(1.31559 -0.185596 0)
(1.14742 0.0779047 -4.1889e-21)
(1.14807 -0.126211 0)
(0.987945 -0.0122107 4.01224e-21)
(-0.22987 -0.00749998 0)
(-0.190303 0.0134624 6.04215e-20)
(0.913372 0.0272013 5.68675e-20)
(0.999054 -0.00203654 6.99301e-21)
(1.12285 0.105006 3.52277e-20)
(1.02505 -0.00841146 0)
(-0.23527 -0.00848506 6.41301e-20)
(1.00241 -0.00603911 -1.41949e-21)
(1.11384 0.0420205 2.05846e-20)
(1.05753 -0.0240165 -1.01809e-20)
(1.00897 -0.0119513 -2.56901e-22)
(0.775743 -0.265656 -1.46818e-21)
(1.00647 -0.0819749 -4.80677e-21)
(0.997602 -0.00623605 8.58195e-21)
(0.254986 0.11341 1.74419e-19)
(1.00149 -0.00597568 1.20844e-21)
(0.0116151 0.0173731 -1.64025e-20)
(1.10234 -0.0450426 -3.74755e-20)
(1.14423 -0.454654 -6.73038e-20)
(0.999171 -0.0310935 8.11428e-21)
(1.26859 0.0651719 -1.34551e-19)
(0.938722 -0.305709 0)
(0.99589 -0.0383632 -2.88983e-21)
(-0.153472 -0.023452 0)
(1.30094 -0.13844 -7.57311e-20)
(0.413565 0.0257317 -1.22849e-20)
(0.998936 -0.00306507 0)
(0.921387 -0.0164193 0)
(1.24583 -0.0998753 -1.91722e-20)
(0.362828 0.0190483 1.24127e-20)
(1.00014 -0.0147987 4.63592e-21)
(1.00786 -0.0567794 8.0123e-22)
(1.06908 0.00301493 1.21163e-20)
(0.223845 0.0587937 -1.23552e-19)
(1.02079 -0.00302846 -5.72764e-21)
(1.20747 -0.0178362 4.03395e-20)
(1.26207 0.000744066 6.07544e-20)
(0.969863 -0.0565095 3.27465e-21)
(1.02081 -0.00095905 0)
(1.0008 -0.000416413 3.60656e-23)
(1.00704 -0.00716187 -2.48321e-23)
(1.12041 -0.159385 3.06778e-20)
(1.02297 -0.00805551 4.86276e-21)
(0.913866 -0.567038 -1.20518e-20)
(1.12645 -0.0375949 1.25364e-24)
(1.02576 -0.00422907 -4.21834e-23)
(1.02395 -0.0782433 5.6967e-21)
(-0.224784 -0.00560871 0)
(1.00519 -0.0185791 0)
(1.07163 -0.04766 -1.4719e-20)
(1.01231 -0.0118183 -6.63596e-22)
(1.0022 -0.00618354 1.3193e-21)
(1.177 -0.0863312 -6.0403e-20)
(1.26816 0.073277 5.84632e-20)
(0.0627529 -0.487781 6.82779e-20)
(1.29427 0.158867 -5.18206e-20)
(1.06418 -0.00757108 -9.87524e-21)
(1.04461 -0.0314409 7.16155e-21)
(-0.199795 -0.0174882 1.47238e-19)
(0.129898 -0.105578 8.70893e-20)
(0.59353 0.0233688 1.42513e-19)
(-0.237382 -0.00700254 0)
(0.693587 -0.259229 -1.23184e-19)
(1.27865 0.0436408 -7.43956e-21)
(1.00381 -0.0089291 0)
(1.09396 -0.105245 -1.75893e-20)
(-0.211258 -0.0154103 0)
(-0.216453 -0.00730891 0)
(-0.0831067 -0.00351677 -3.58264e-20)
(1.00131 -0.00570204 -1.67509e-21)
(0.944511 -0.328806 7.65571e-21)
(1.04538 -0.240255 0)
(-0.253403 -0.00386052 1.46479e-19)
(-0.208296 -0.00148 4.71838e-20)
(0.997901 -0.0107536 -3.00072e-21)
(0.664076 0.120557 0)
(0.917921 -0.0203416 -1.96504e-20)
(0.118623 0.19052 5.86505e-22)
(-0.210479 -0.00413897 0)
(0.1554 0.522122 2.10872e-19)
(1.01413 -0.0104592 1.05386e-21)
(1.30121 -0.0746514 2.36397e-20)
(1.00002 -0.000191442 5.38227e-24)
(1.03835 0.0018081 0)
(-0.0273331 -0.00609784 9.94653e-20)