/*--------------------------------*- C++ -*----------------------------------*\
| =========                 |                                                 |
| \\      /  F ield         | OpenFOAM: The Open Source CFD Toolbox           |
|  \\    /   O peration     | Version:  v2012                                 |
|   \\  /    A nd           | Website:  www.openfoam.com                      |
|    \\/     M anipulation  |                                                 |
\*---------------------------------------------------------------------------*/
FoamFile
{
    version     2.0;
    format      ascii;
    class       volVectorField;
    location    "50";
    object      U_0;
}
// * * * * * * * * * * * * * * * * * * * * * * * * * * * * * * * * * * * * * //

dimensions      [0 1 -1 0 0 0 0];


internalField   nonuniform List<vector> 
18166
(
(0.836999 -0.0120775 -2.89767e-20)
(1.00595 -0.0015707 4.3852e-22)
(0.999937 -0.000918618 1.065e-20)
(1.21389 -0.000120904 -3.77275e-20)
(0.100999 -0.396404 -1.37322e-19)
(0.832542 -0.13753 -4.43262e-20)
(1.0147 -0.0113043 2.78779e-21)
(-0.315677 -0.00942421 -4.68321e-21)
(-0.102903 0.00838471 7.78669e-20)
(0.144817 -0.153444 -5.41729e-20)
(0.999401 -0.0106123 0)
(0.995954 -0.0172431 0)
(-0.119341 -0.0306085 -1.55785e-19)
(1.27347 -0.0672969 0)
(0.538155 0.0239323 -4.14676e-20)
(1.27448 -0.0640151 5.3269e-22)
(1.00093 -0.00628766 1.24905e-21)
(0.0189481 -0.927498 5.82745e-21)
(0.991709 -0.019196 2.55774e-21)
(-0.215557 -0.00740923 1.06708e-19)
(1.24149 -0.123553 1.25205e-19)
(1.00085 -0.00628502 -4.36424e-21)
(1.239 -0.108677 -1.05025e-19)
(0.996078 -0.00261746 2.14365e-21)
(1.00856 -0.0122486 -2.92539e-22)
(1.01423 -0.0109081 -4.43437e-21)
(0.85872 -0.0274748 -3.38423e-20)
(1.10349 -0.0505306 2.96397e-20)
(0.987912 -0.0314283 7.82969e-21)
(1.21878 -0.00328338 -4.07315e-20)
(0.000963662 -0.223468 0)
(1.01778 -0.000673364 2.71642e-21)
(1.00137 -0.032933 2.81161e-21)
(0.997249 -0.0215416 0)
(1.02104 -0.000103386 0)
(1.00218 -0.00884311 1.37076e-22)
(-0.087182 0.0093738 0)
(1.00205 -0.00861364 -1.15245e-22)
(1.02959 -0.00944718 0)
(0.17585 -0.191407 1.12332e-19)
(1.00006 -0.000690468 -1.91932e-21)
(1.15729 -0.235388 3.07622e-20)
(1.00094 -0.0340685 7.14621e-22)
(0.981178 -0.0206571 0)
(0.839471 -0.0339425 -1.15989e-20)
(0.998259 -0.00326254 -1.01917e-20)
(1.14007 0.116257 -4.04159e-20)
(-0.00103185 -0.229761 0)
(1.21978 0.158916 2.6591e-20)
(0.867688 -0.0240455 3.09627e-20)
(1.11721 0.0550303 2.32815e-20)
(1.14258 0.0158649 -3.45491e-20)
(1.24896 -0.0845458 -3.65481e-20)
(1.00018 -0.000667151 7.71894e-22)
(0.999638 -0.0101413 0)
(-0.228973 -0.00885412 9.9046e-21)
(1.15361 -0.230369 -9.03588e-20)
(-0.194777 -0.0116961 -8.09435e-20)
(0.990262 -0.0707401 -1.24317e-20)
(1.08703 -0.0414821 1.05317e-20)
(1.1681 -0.13874 0)
(1.08586 0.00613991 -9.27246e-21)
(-0.21613 -0.0100994 -1.19008e-19)
(1.09118 -0.102751 0)
(1.27259 -0.0548931 -2.42844e-22)
(0.996898 -0.00470317 0)
(-0.136703 -0.00525026 -1.76015e-20)
(0.256515 0.0459952 0)
(0.360395 -0.115414 -6.09442e-23)
(1.11105 -0.00938646 0)
(1.0208 -0.00017185 0)
(1.02769 -0.0505008 0)
(0.841781 -0.0579127 0)
(1.03587 -0.0819794 1.96448e-22)
(0.0581761 -0.415263 -6.97078e-20)
(0.35302 0.34169 9.07225e-20)
(1.24681 -0.101462 1.63003e-20)
(0.203775 -0.0830447 0)
(1.07523 -0.0617339 0)
(1.00155 -0.00764622 -1.01765e-21)
(1.00002 -0.00174401 1.86956e-21)
(0.012765 0.0146344 2.959e-20)
(0.996421 -0.00280191 -1.58694e-20)
(0.994929 -0.00465424 8.66614e-21)
(1.01765 -0.00146943 0)
(1.05625 0.00826018 0)
(1.09 -0.0346122 4.62282e-21)
(1.00605 -0.00657067 4.67362e-23)
(1.14039 0.0208669 -1.64451e-20)
(1.02903 -0.00891327 3.3633e-21)
(-0.242577 -0.00657984 1.50699e-19)
(0.86833 -0.154486 -1.99806e-20)
(-0.192674 -0.0173861 0)
(1.00003 -0.000601628 0)
(1.00016 -0.000979985 1.99302e-21)
(1.05657 0.0106394 0)
(1.01804 -0.00125995 2.88091e-21)
(0.998901 -0.261208 -7.17711e-23)
(0.923852 -0.0148321 -1.42265e-20)
(1.10298 -0.0364601 2.2209e-20)
(1.00532 -0.000813717 6.28603e-22)
(0.999059 -0.00543075 -2.63248e-21)
(0.604692 0.0251438 -6.987e-20)
(1.08778 -0.104361 0)
(1.10998 -0.0103351 0)
(0.999111 -0.00498608 -5.03922e-21)
(-0.0987907 -0.365947 2.67832e-20)
(0.0862108 -0.0126405 -1.4495e-19)
(0.983831 -0.0849026 1.09217e-20)
(0.999877 -0.00894786 1.99583e-21)
(-0.182382 -0.0157169 -1.73468e-19)
(-0.0568756 0.0147638 0)
(-0.0978751 -0.00166038 0)
(0.727394 0.0978792 1.0278e-19)
(1.00066 -0.00528568 2.37609e-21)
(1.03381 -0.00145792 -7.01436e-21)
(1.01642 -0.265991 0)
(0.029919 -0.0344171 -6.00261e-20)
(0.975348 -0.0336382 3.3529e-21)
(0.60172 0.171787 0)
(0.625891 0.790531 -4.87835e-21)
(0.987161 -0.0299052 -5.05128e-21)
(1.29514 -0.230129 9.74528e-20)
(0.431254 0.0102437 0)
(1.23322 -0.00220477 -2.67128e-20)
(0.994491 -0.0156868 -4.61845e-21)
(0.998692 -0.00314188 -3.34398e-21)
(-0.146639 -0.0252203 9.84567e-20)
(0.946261 -0.112184 7.58572e-21)
(0.943922 -0.184908 1.8999e-20)
(1.23977 0.0123333 3.53026e-20)
(0.771097 -0.405758 2.55358e-20)
(1.08223 -0.00816691 4.72538e-22)
(0.0921334 -0.0573544 -2.74051e-20)
(0.937328 -0.092354 2.10125e-20)
(1.13386 0.118973 3.30983e-20)
(1.00187 -0.00879872 0)
(1.009 -0.00990965 0)
(1.08361 -0.00557577 0)
(-0.0366515 -0.106877 -3.76915e-20)
(-0.137969 0.00574856 0)
(1.27539 -0.0612123 -3.63297e-20)
(1.24447 0.173966 0)
(0.0722086 -0.0646156 0)
(0.986973 -0.0820107 -1.35092e-20)
(0.917768 -0.0361521 1.47522e-19)
(-0.250514 -0.0109322 0)
(0.73728 0.025996 0)
(1.04265 -0.00788238 3.9204e-21)
(1.09242 -0.00941393 -2.01905e-20)
(1.01786 -0.00106375 4.82379e-21)
(-0.0157677 -0.122619 -3.81096e-20)
(0.511895 -0.729326 8.67501e-21)
(1.23294 -0.00152264 0)
(0.999855 -0.00122582 -2.25352e-21)
(1.00003 -0.00855324 2.03083e-22)
(1.01008 -0.0560982 0)
(-0.227886 -0.0115173 8.91438e-20)
(1.0017 -0.0082623 -1.15814e-21)
(-0.140222 -0.0264683 8.82082e-20)
(1.01533 -0.00138627 0)
(0.168134 -0.00254104 0)
(1.08288 -0.0460924 1.34343e-20)
(1.01021 -0.00139479 -1.99048e-21)
(1.14266 0.0178297 3.74848e-20)
(0.328689 -0.00481428 -3.7369e-20)
(0.998753 -0.00377286 -8.33237e-21)
(0.0555767 -0.0740575 2.76267e-20)
(0.0219835 0.00774911 2.81737e-20)
(-0.139239 -0.0189239 1.76467e-19)
(1.25645 -0.0247296 0)
(0.788769 0.103214 -3.13941e-20)
(0.946332 -0.18991 -1.37798e-20)
(0.238758 0.0381651 0)
(1.27392 -0.0438878 0)
(0.995061 -0.0213322 0)
(0.598757 0.385374 1.33931e-19)
(0.368193 0.0863527 1.03008e-19)
(1.00632 -0.00121511 0)
(1.00583 -0.00606629 0)
(1.00057 -0.00536707 -2.89365e-21)
(0.961592 -0.178979 1.17836e-20)
(0.520938 -0.0837555 -1.28787e-19)
(0.594144 0.349811 -3.8727e-20)
(1.02835 0.00576991 7.2025e-20)
(1.00844 -0.00501281 -1.03983e-21)
(1.04616 -0.226519 1.05631e-20)
(1.20871 0.00569322 3.95298e-20)
(1.00285 -0.0060956 0)
(1.0331 -0.00108625 3.86454e-21)
(1.17347 -0.127838 1.68313e-20)
(0.991243 -0.0204641 -3.02297e-21)
(1.12907 0.0337622 0)
(0.995237 -0.00467365 0)
(1.03347 -0.161092 0)
(-0.00847445 -0.198301 0)
(0.841379 -0.120514 7.2598e-20)
(1.02791 -0.153504 -2.41733e-21)
(0.00887939 -0.0507579 -2.19036e-20)
(0.10555 -0.00998974 -2.58428e-19)
(1.25481 -0.0289787 2.12164e-20)
(-0.132346 0.0138154 0)
(1.03928 -0.00206929 -6.17825e-21)
(0.760352 0.0261291 -2.02917e-20)
(0.998513 -0.0420747 2.93565e-21)
(1.14614 0.0119418 3.69861e-20)
(0.0434521 0.0168294 5.1398e-20)
(-0.239979 -0.00929872 -1.25172e-20)
(0.14735 -0.483607 1.78861e-19)
(-0.288752 -0.0099804 4.5379e-21)
(0.123059 -0.347833 -8.87643e-20)
(-0.124886 0.00699854 4.51386e-20)
(1.00626 -0.00146265 0)
(0.99757 -0.00385423 -3.06132e-21)
(1.12631 0.0474078 1.28263e-22)
(0.868129 -0.150236 0)
(1.27452 -0.0403967 9.23356e-20)
(1.01392 -0.253233 -1.94913e-21)
(0.0521407 0.00943144 -2.47957e-20)
(-0.0117516 0.0117451 -5.16936e-20)
(1.08063 -0.0329302 2.27046e-20)
(1.00277 -0.0172644 -2.38598e-21)
(1.00828 -0.0050543 9.00757e-22)
(0.761166 -0.0275485 -3.79108e-21)
(-0.267167 -0.0117435 0)
(1.01816 -0.0136166 1.98644e-21)
(0.993909 -0.258766 2.17695e-21)
(1.00839 -0.00147873 -4.39191e-22)
(0.979071 -0.0700818 0)
(1.03883 -0.00286405 1.25882e-20)
(-0.225212 -0.00696348 -7.15535e-21)
(-0.0944303 -0.00262563 4.5403e-20)
(1.06405 0.00407812 5.12342e-21)
(-0.0587819 -0.148482 2.79947e-20)
(1.00345 -0.000616922 2.75856e-23)
(1.05664 0.00642427 -1.42012e-20)
(1.12557 0.0401499 0)
(1.15547 -0.132485 -2.37788e-20)
(-0.145906 -0.00679659 -4.04479e-20)
(1.04879 -0.0533402 -2.63124e-20)
(1.12858 0.0376677 0)
(-0.033119 0.00557198 0)
(-0.211439 -0.00815822 0)
(1.08442 -0.0375481 -2.27531e-20)
(0.790754 0.0524903 7.91101e-20)
(0.970435 -0.00460653 -1.7773e-20)
(1.21257 0.00130395 6.55909e-22)
(-0.0437269 0.00401563 0)
(0.112546 -0.0476059 5.89537e-20)
(1.04167 -0.0545537 0)
(0.829867 0.00928154 -2.14797e-20)
(0.998563 -0.0030499 9.34777e-21)
(0.999691 -0.0400832 -2.04281e-21)
(0.946123 -0.109956 1.32546e-20)
(-0.0349433 -0.138828 2.04246e-20)
(-0.150971 0.0212003 1.06745e-19)
(1.00009 -0.00725292 0)
(-0.00960423 -5.75169e-05 5.57167e-20)
(-0.128649 -0.0210241 -2.2618e-19)
(1.00985 -0.00124951 2.39005e-21)
(0.997219 -0.00427119 0)
(-0.05446 -0.152979 -3.24861e-20)
(1.16398 -0.150349 8.57867e-20)
(1.21484 0.162684 3.68011e-20)
(0.0197197 0.0221705 0)
(-0.0267914 0.0101929 0)
(-0.0170947 -0.00304572 -2.17068e-19)
(1.0338 -0.0821374 -1.31741e-21)
(1.00002 -0.00131787 0)
(1.10703 -0.0381331 -2.59369e-20)
(0.860495 -0.0321626 3.71333e-20)
(0.997605 -0.0037651 -1.88224e-23)
(1.00726 -0.00804312 1.52639e-22)
(0.331708 0.0204941 -3.92658e-20)
(1.1406 0.0216646 -1.21122e-20)
(-0.204869 0.00520912 0)
(0.43162 0.103496 0)
(1.00885 -0.00128144 4.7753e-22)
(0.372705 0.313116 0)
(1.01797 -0.000807277 9.29433e-23)
(1.16148 0.0875339 -1.50464e-20)
(-0.121374 -0.00459586 0)
(1.03035 -0.0808033 0)
(1.04582 0.00562822 2.21597e-21)
(1.07777 -0.0348925 -1.52174e-20)
(1.16379 -0.20174 0)
(1.08569 0.00817515 0)
(1.05337 -0.0277926 0)
(-0.0701046 0.0113051 0)
(1.00045 -0.00477226 2.51616e-21)
(1.10325 -0.0489799 2.83189e-20)
(1.13097 0.109768 3.98028e-20)
(1.04371 -0.0833161 6.33357e-21)
(1.00021 -0.00723039 0)
(1.02895 -0.0800604 0)
(-0.0125869 -0.190851 0)
(1.01558 -0.0113756 -7.21294e-22)
(0.997924 -0.00348635 9.126e-21)
(1.01784 -0.0135493 -1.94054e-21)
(0.862256 0.0568391 5.95997e-20)
(0.520829 0.125159 -1.17447e-19)
(1.00141 -0.00784427 2.29958e-21)
(1.01693 -0.0485988 0)
(1.00753 -0.00825189 0)
(0.846539 0.00534267 0)
(1.00361 -0.0354181 0)
(-0.228917 -0.00886266 -1.14984e-20)
(1.23838 0.0238906 -3.09187e-20)
(0.980727 -0.0218332 0)
(1.03321 0.000210021 5.67664e-21)
(1.08037 -0.0111531 -1.86617e-20)
(0.314864 -0.146823 -1.04278e-19)
(-0.197817 -0.00688092 -3.46811e-20)
(0.906148 -0.0596304 -3.09301e-20)
(1.00042 -0.00512903 0)
(0.12617 0.339881 6.96938e-22)
(0.659182 0.02646 1.46715e-22)
(1.04787 -0.0823851 3.01384e-21)
(0.997235 -0.00408782 -3.81039e-21)
(1.27991 0.0535413 -6.61921e-21)
(1.00432 -0.0185184 2.42984e-21)
(0.928139 -0.015949 5.88053e-20)
(-0.108722 0.0162354 0)
(1.15892 -0.150995 -6.97273e-20)
(0.93359 -0.16788 0)
(0.86805 -0.0203082 -7.97658e-20)
(1.05433 -0.02685 9.03305e-21)
(1.0029 -0.0350097 0)
(1.02645 -0.00486942 2.78669e-21)
(-0.0141828 -0.00101507 -2.74602e-21)
(1.00905 -0.0101126 -3.98374e-22)
(0.072791 -0.0694244 1.73959e-21)
(1.04599 0.00687678 0)
(1.03887 -0.00100593 0)
(0.461203 1.09775 7.00526e-20)
(-0.0754401 0.00857783 0)
(1.25709 -0.0116351 -9.13488e-20)
(0.00621113 0.000295612 4.51855e-20)
(-0.233141 -0.00548925 -1.14185e-19)
(0.0359223 0.027219 0)
(1.04352 -0.00683819 -4.32703e-21)
(-0.0611331 -0.00993177 0)
(1.27781 0.045726 0)
(-0.100436 -0.107327 -3.01249e-20)
(1.05511 0.00702558 1.3362e-20)
(0.999742 -0.00939554 4.74032e-21)
(1.01549 -0.012942 -2.5795e-21)
(0.901658 -0.0408463 1.81329e-20)
(1.027 -0.0507584 -4.44955e-21)
(1.14919 -0.134672 1.17617e-20)
(0.989649 -0.0702581 1.09028e-20)
(1.12584 0.111902 -1.87523e-20)
(0.997943 -0.00344592 -6.76778e-21)
(1.0077 -0.00473853 -1.05331e-21)
(0.683307 0.0665983 2.20698e-20)
(1.08969 -0.0360831 8.99733e-21)
(0.671212 0.0382211 0)
(1.13144 0.027549 -2.70204e-20)
(0.999605 -0.00990735 0)
(1.02585 -0.00549808 -5.50172e-21)
(1.00551 -0.00612414 0)
(-0.0463011 0.00697485 -1.60883e-20)
(-0.0360669 -0.0124074 -1.30859e-20)
(1.00027 -0.00693928 1.55936e-21)
(1.01362 -0.00991959 0)
(0.993213 -0.00620156 5.18638e-21)
(0.999904 -0.000519102 0)
(1.0627 -0.319607 -2.05008e-20)
(1.00008 -0.000749256 0)
(0.145388 -0.0393876 0)
(0.574492 -0.676783 1.35734e-20)
(1.00683 -0.00620718 0)
(1.00383 -0.0183437 -1.67388e-21)
(1.28312 -0.00175545 6.96698e-20)
(-0.0567421 0.0063385 0)
(0.60179 0.895129 5.36459e-21)
(-0.0966066 -0.0994248 6.07165e-20)
(1.00006 -0.0021753 3.75678e-21)
(1.13194 0.027506 2.86128e-20)
(1.25821 -0.0102654 1.60531e-19)
(1.03916 -0.00177002 8.23621e-22)
(-0.04503 -0.114129 6.35419e-20)
(1.22424 0.152925 5.1542e-20)
(1.09241 -0.011381 1.4529e-20)
(1.04418 -0.073609 6.89867e-21)
(0.987059 -0.0126005 4.72385e-21)
(0.996916 -0.00444954 0)
(1.00002 -0.000149709 6.03446e-22)
(-0.137161 -0.0068807 0)
(0.987954 -0.0129087 -3.48052e-21)
(1.02065 -0.000510836 0)
(1.09307 -0.0179492 5.51105e-21)
(1.02527 -0.00945063 -1.51466e-21)
(-0.114311 -0.000846184 0)
(1.27193 0.0576971 1.28481e-19)
(0.999917 -0.00220416 -3.11301e-21)
(0.998018 -0.00305331 6.83357e-21)
(-0.204248 -0.0154901 -4.5286e-20)
(1.01284 -0.0118959 0)
(1.01198 -0.0114507 0)
(1.02239 -0.0447639 1.66427e-21)
(1.26813 -0.049174 1.10296e-19)
(-0.0630439 0.00820206 -1.91117e-20)
(1.00008 -0.00108481 0)
(0.938774 0.0122449 0)
(1.0566 0.00445178 -7.31019e-21)
(1.03879 -0.00337666 -1.69908e-20)
(-0.214245 0.00168352 8.41182e-20)
(-0.198225 0.00443948 0)
(0.980542 -0.0473034 3.83361e-21)
(0.952464 -0.00458709 8.48574e-20)
(-0.133829 0.0290331 -1.53138e-19)
(0.923019 -0.187369 0)
(0.952144 0.023023 9.35377e-20)
(1.0808 -0.0170921 9.1797e-21)
(1.10047 -0.0416423 3.64311e-21)
(1.15672 -0.211177 0)
(0.975085 -0.458381 -5.14591e-21)
(1.01938 0.000144203 2.97794e-21)
(0.998969 -0.00719728 -7.10218e-21)
(1.05279 -0.0302973 2.05389e-22)
(0.99472 -0.0153047 0)
(0.297805 -0.0116128 0)
(1.00786 -0.0848931 1.68643e-21)
(0.408077 -0.433338 4.2754e-20)
(0.999913 -0.000957443 -3.53254e-21)
(1.28365 -0.230478 0)
(0.997272 -0.0214155 0)
(-0.0370568 -0.0242221 1.26205e-20)
(-0.323609 -0.00843265 -4.25276e-21)
(0.907793 -0.00640688 1.88372e-20)
(0.377095 0.036852 8.23084e-20)
(0.931108 -0.177416 0)
(1.05378 -0.0293974 0)
(1.11451 0.0477687 -3.09893e-20)
(-0.125257 -0.0119491 0)
(0.821499 0.0316849 -1.0775e-19)
(1.00041 -0.000196946 -5.40396e-22)
(0.0886505 -0.0379116 5.30131e-20)
(1.12348 0.00893557 0)
(1.02394 -0.00756679 0)
(0.476148 0.00653985 0)
(-0.0971469 -0.00390823 -6.2992e-20)
(1.00252 -0.0181455 -3.3388e-21)
(0.174699 -0.00405889 0)
(-0.0376274 -0.00864133 4.56493e-20)
(1.00002 -0.00835428 -2.0763e-22)
(-0.295436 -0.0067961 -3.78539e-21)
(1.06344 -0.334829 -1.14653e-20)
(1.0382 -0.00395955 1.47756e-20)
(0.772417 -0.0280213 3.06929e-21)
(0.384664 0.0251358 -4.12239e-20)
(1.27751 -0.0416422 -2.06044e-20)
(1.12127 0.053836 -1.60658e-20)
(0.0902817 -0.0621953 7.52793e-20)
(0.0717058 0.344534 2.19004e-20)
(1.27855 0.064102 6.91655e-20)
(1.20345 -0.0413782 3.89274e-20)
(1.02474 -0.00889825 4.06545e-21)
(-0.164929 -0.0220088 -8.07761e-20)
(0.992648 -0.0193599 -4.88579e-21)
(0.997128 -0.0401631 0)
(0.345352 0.0614991 -1.17617e-19)
(0.979395 0.0213328 -3.51519e-20)
(1.00086 -0.0664259 5.51539e-21)
(0.980403 -0.0463917 -3.51213e-21)
(1.12099 0.0129944 2.47412e-21)
(1.07887 -0.014444 -8.52784e-21)
(0.971402 -0.00566006 1.38968e-20)
(1.01607 -0.0129633 2.62353e-21)
(1.01732 -0.00155822 0)
(1.03359 -0.237335 7.61128e-21)
(-0.153656 -0.00507816 0)
(1.00528 -0.00562505 -3.55153e-24)
(1.15591 0.0890214 2.3158e-20)
(0.999946 -0.000496204 -2.15474e-21)
(-0.188402 -0.00873198 -4.75847e-20)
(0.999003 -0.00720735 2.216e-21)
(1.00333 -0.000314483 -3.48922e-23)
(1.28336 0.166591 -3.42334e-20)
(0.562155 0.0256099 -4.90776e-20)
(0.979866 -0.247559 0)
(-0.0266605 -0.000992688 0)
(1.00395 -0.0102078 0)
(1.0035 -0.00996617 7.55501e-22)
(-0.0140072 0.0130269 -5.74837e-20)
(0.67208 -0.181099 -1.23039e-19)
(1.1568 -0.143148 2.57868e-20)
(1.05314 9.54515e-06 -1.32804e-20)
(0.595962 -0.359942 0)
(0.505264 -0.0594028 1.18519e-19)
(1.00022 -0.00389484 1.26152e-21)
(0.998782 -0.0034864 5.00566e-24)
(1.00004 -0.00248825 -5.40254e-21)
(1.03858 -0.0590541 1.45276e-21)
(0.0135058 -0.000372832 -3.95911e-20)
(-0.0087388 0.0159486 -1.57472e-20)
(0.995426 -0.0375141 2.69318e-21)
(1.00697 -0.0606285 0)
(0.622819 0.128494 -1.09281e-21)
(-0.168897 -0.0216678 0)
(-0.278889 -0.00965888 -6.3483e-20)
(1.02083 -0.000400369 2.33503e-21)
(0.966739 -0.049857 -3.58284e-21)
(0.598388 0.812994 2.0331e-21)
(0.997724 -0.0395366 -3.04105e-21)
(0.998605 -0.00286332 0)
(1.00105 -0.00795264 0)
(1.0189 -0.00787316 -3.31237e-21)
(1.18043 -0.0724166 0)
(0.469465 -0.261676 1.11609e-19)
(0.694463 -0.741978 0)
(1.00621 -0.447248 1.87447e-20)
(1.00168 -0.0081024 3.26571e-21)
(1.25156 -0.0369372 3.5811e-20)
(1.00852 -0.0125256 -1.29219e-22)
(1.00003 -0.000362402 -1.08904e-22)
(0.00295157 -0.0179894 8.29172e-20)
(0.922116 -0.7515 2.07063e-20)
(1.03337 -0.229518 5.29379e-21)
(0.356665 0.071818 5.83362e-21)
(-0.0861749 -0.00141534 -1.74903e-20)
(0.63669 0.0247646 8.29072e-20)
(-0.025613 0.0150747 4.15698e-21)
(1.25046 -0.108159 -4.22876e-20)
(0.00809311 0.0200345 -1.25134e-19)
(-0.22132 -0.00850883 -5.45038e-20)
(1.14307 0.123276 2.46665e-20)
(-0.214459 -0.00654066 5.30402e-20)
(0.995404 -0.0183226 1.86523e-21)
(0.670941 0.0442795 0)
(1.0438 -0.0536833 6.02854e-21)
(1.05944 0.0074365 -2.13311e-20)
(0.640383 0.106285 9.71107e-22)
(1.21227 0.163785 0)
(0.988857 -0.0669421 8.62369e-21)
(1.30749 -0.165522 0)
(0.842218 0.0235296 2.02083e-20)
(1.14171 0.00621885 -3.08993e-20)
(0.999834 -0.00116603 1.15632e-20)
(0.980672 -0.0117514 -8.87855e-23)
(0.893476 -0.693516 -7.22264e-21)
(-0.0488558 0.0115508 0)
(-0.00151626 0.00175913 -9.22884e-20)
(1.02225 -0.00147323 2.26706e-21)
(1.30265 -0.153919 0)
(-0.109881 -0.031271 3.36833e-23)
(0.96031 -0.0146113 0)
(1.05737 0.00410086 1.55998e-20)
(0.992825 -0.00611276 -2.89209e-21)
(0.920113 -0.0317354 -2.00286e-20)
(0.64731 -0.316206 -5.62489e-20)
(-0.170688 -0.0180302 1.68257e-19)
(1.00021 -0.000775348 -7.34562e-22)
(0.0691274 0.0182413 0)
(0.999003 -0.00614411 0)
(0.107885 -0.0509649 -6.84587e-20)
(1.07701 -0.0645677 -9.19821e-21)
(1.01782 -0.0449802 -6.5118e-22)
(1.0771 -0.0806454 -1.34185e-20)
(-0.187916 -0.0190974 -1.28788e-19)
(1.03368 0.000802802 -2.96833e-21)
(1.00271 -0.0053056 0)
(-0.131708 -0.00452598 8.81898e-20)
(0.0220839 0.0191558 1.3901e-20)
(1.17713 -0.205832 -6.44418e-20)
(0.66544 0.0258011 7.83561e-20)
(1.05263 -0.00110022 1.40628e-20)
(1.00127 -0.00735966 0)
(0.999233 -0.00203382 -1.38206e-21)
(-0.0452355 -0.153968 -7.50336e-21)
(0.718985 -0.269138 1.2494e-20)
(-0.024889 -0.122856 0)
(1.10196 -0.0729919 -2.30975e-20)
(0.650081 -0.766818 0)
(0.0289342 -0.00386281 -2.87679e-20)
(1.12685 0.0417929 -4.05799e-20)
(-0.190363 -0.0110972 7.30814e-23)
(0.965659 -0.0490815 3.59578e-21)
(-0.257229 -0.0123996 1.85018e-20)
(1.01879 -0.00673626 0)
(0.5062 -0.0279018 0)
(0.0432485 0.0203803 3.23042e-20)
(0.689755 -0.218222 1.26977e-19)
(1.08208 -0.0089992 1.86505e-20)
(0.0156196 0.0224851 0)
(-0.231054 -0.0137806 1.766e-19)
(1.00258 -0.00638132 0)
(0.355209 -0.134318 -8.97543e-20)
(0.991494 -0.0205083 3.93026e-22)
(1.00012 -0.000624021 -9.02313e-22)
(-0.281089 -0.0106339 -3.57471e-20)
(-0.048804 0.006403 0)
(0.999934 -0.00249352 6.51035e-21)
(1.00014 -0.00789832 0)
(1.01533 -0.00115141 -2.29519e-21)
(0.113156 -0.45915 -6.8597e-20)
(-0.0338824 0.00699941 7.53044e-20)
(1.00283 -0.00568322 0)
(1.26231 -0.0145541 -5.6522e-20)
(1.04476 -0.0775916 -9.51419e-21)
(1.04581 0.00419433 0)
(1.00382 -0.00954052 -5.79956e-22)
(1.1926 -0.126486 4.0029e-20)
(1.25314 -0.0328875 -2.72292e-20)
(1.08605 -0.0449592 -2.27053e-20)
(0.439763 -0.124516 -4.50288e-20)
(1.00041 -0.00697874 -3.10211e-21)
(1.00788 -0.00484732 1.00358e-21)
(0.456218 0.109323 0)
(-0.314552 -0.00983828 0)
(1.27667 0.0384581 -1.28227e-20)
(-0.230499 -0.0085964 -1.39699e-20)
(0.166941 -0.0935273 -6.49676e-20)
(0.968032 -0.0113833 -2.28554e-20)
(-0.11013 -0.0316954 5.11851e-20)
(0.439015 -0.118952 -4.45747e-20)
(0.939013 -0.0468766 2.3819e-20)
(0.297831 -0.628525 -3.9786e-20)
(1.05511 -0.280301 0)
(1.0714 -0.0653282 0)
(1.08571 -0.175201 -1.20657e-20)
(-0.115958 -0.026647 0)
(0.903208 0.00302925 0)
(1.19863 -0.045677 -3.79924e-20)
(1.0346 -0.0581141 1.17728e-21)
(1.09494 -0.0977658 -1.03275e-21)
(-0.121461 -0.0294152 -5.24907e-20)
(1.00262 -0.00604877 -1.06875e-21)
(0.266477 0.0670405 9.13064e-20)
(1.18272 -0.0796151 -1.69543e-20)
(0.892286 -0.247888 -2.70106e-20)
(0.957755 -0.184761 -1.45877e-20)
(1.02478 -0.00876539 0)
(1.05525 0.000931323 -3.47653e-21)
(-0.182658 0.0173806 4.30499e-20)
(1.00249 -0.00524174 -8.9773e-22)
(0.999066 -0.00628746 -2.30293e-21)
(1.2182 -0.00949365 -4.72955e-20)
(1.02232 -0.00802066 -2.3437e-21)
(1.16537 -0.136845 -2.90545e-20)
(1.04623 0.00492077 -2.50975e-21)
(1.23733 0.0159689 1.6982e-20)
(0.977344 -0.0324445 5.85415e-21)
(1.10621 -0.0699528 -3.93184e-20)
(1.02574 -0.00565051 0)
(0.232739 -0.24215 -1.32502e-19)
(-0.225074 -0.00854965 0)
(0.0820148 0.501252 -1.60363e-19)
(1.03587 -0.0584451 0)
(-0.234187 -0.0070091 0)
(-0.0220274 0.0140828 3.36678e-20)
(0.52449 -0.017958 0)
(1.03843 0.000707522 0)
(-0.0176425 0.0128201 -6.81406e-20)
(0.962844 -0.00600049 2.34558e-20)
(-0.153283 0.195914 -9.03924e-22)
(0.995506 -0.00480023 0)
(0.653842 -0.0990378 -9.54176e-20)
(1.13399 -0.0178868 0)
(-0.0501742 -0.010013 2.49452e-20)
(-0.311492 -0.00887909 -6.85845e-20)
(1.29834 -0.0647325 -1.08533e-19)
(-0.10989 -0.00634861 3.5576e-20)
(1.02097 0.0002374 -6.52096e-21)
(-0.245309 -0.00827854 0)
(1.00573 -0.000575193 0)
(0.906542 -0.0737519 -9.70483e-21)
(0.942621 -0.052744 0)
(0.988776 -0.0112987 7.26721e-21)
(1.00251 -0.000655272 0)
(-0.184047 -0.00954557 -2.33838e-20)
(1.15481 0.0803006 2.17224e-20)
(1.05239 -0.033362 8.72927e-21)
(0.104245 0.0210452 5.49058e-20)
(0.106571 -0.0714069 0)
(0.769267 -0.143261 -2.21967e-20)
(1.02108 2.05004e-05 3.94355e-21)
(0.945683 -0.0857361 2.25047e-20)
(1.00012 -0.00118203 0)
(1.01316 -0.0123114 1.01134e-21)
(1.0187 -0.0074469 0)
(0.994049 -0.0224336 3.23167e-21)
(0.452891 -0.308765 -1.02728e-19)
(1.07364 -0.0832388 9.83152e-21)
(0.532106 0.0284822 -1.08704e-19)
(-0.216455 -0.00283181 4.6192e-20)
(-0.222618 -0.00940092 -3.11584e-20)
(-0.235289 -0.0049135 -1.10683e-19)
(0.74888 -0.449082 -3.77254e-21)
(0.904821 0.00534553 -1.12548e-20)
(0.998859 -0.00292559 4.00005e-21)
(1.02219 -0.00536083 -4.7107e-20)
(1.0091 -0.00965742 -4.94804e-22)
(-0.19001 -0.00932332 -1.03646e-19)
(-0.156115 0.0204734 3.58931e-20)
(1.0232 -0.00776708 0)
(1.0982 -0.110004 -1.30513e-21)
(-0.0438358 -0.0383172 0)
(0.0667858 -0.00411505 -4.00576e-20)
(0.366134 0.0758407 -5.69882e-20)
(1.11061 -0.0679175 1.11172e-20)
(0.910217 0.0103256 0)
(1.02236 -0.0186863 -3.15186e-21)
(-0.000353256 -0.127284 3.87547e-20)
(-0.231851 -0.00880031 0)
(0.805801 0.020641 3.41952e-20)
(1.05468 -0.263435 1.1031e-20)
(1.29031 -0.0455915 -1.11273e-19)
(-0.318943 -0.00971414 0)
(1.03742 -0.280174 -1.3503e-20)
(-0.0150703 -0.176208 5.17296e-20)
(0.868845 -0.350688 1.21706e-21)
(0.784977 -0.442247 -2.12419e-20)
(1.00376 -0.0103172 7.44069e-22)
(-0.21745 -0.00709222 -6.76951e-20)
(1.1664 0.0893541 8.25982e-21)
(1.15146 0.0745729 -6.43451e-20)
(-0.09767 -0.00576199 0)
(1.01618 -0.0178241 -1.84085e-21)
(1.19155 0.119037 0)
(0.703432 -0.219373 0)
(1.01686 -0.0176862 2.2129e-21)
(1.2791 0.091782 3.90873e-20)
(0.782731 0.030518 8.13721e-20)
(-0.0132528 -0.167628 -5.17867e-21)
(0.028424 -0.0038842 1.1421e-19)
(0.858069 0.00505168 -2.46837e-20)
(1.10149 -0.0598688 0)
(1.00227 -0.000800126 0)
(0.62017 -0.319506 0)
(1.05316 -0.613912 2.56673e-20)
(0.93883 -0.0922389 -6.89297e-21)
(-0.0503704 -0.0065973 -1.02871e-19)
(1.00329 -0.0243031 2.22973e-21)
(0.0605862 -0.00235017 5.42031e-20)
(-0.0305083 0.0166463 0)
(1.08907 -0.00482559 2.3447e-21)
(0.980484 -0.0836473 0)
(0.999942 -0.00121159 0)
(0.869295 -0.134576 1.79546e-20)
(1.00014 -0.00159091 -6.34546e-22)
(0.212525 -0.0832627 9.36812e-20)
(1.20765 0.0769322 0)
(0.0746775 -0.0112889 1.79677e-19)
(1.01511 -0.011002 1.18885e-21)
(1.01693 -0.0170594 0)
(1.02175 -0.0190855 -3.07366e-21)
(0.511192 -0.187384 -5.09998e-20)
(0.0796797 0.0198407 1.16828e-19)
(0.844488 0.0150078 -2.21571e-20)
(0.164805 -0.0841838 9.79404e-20)
(1.14703 0.0899812 0)
(1.18852 -0.028601 8.52084e-20)
(0.995823 -0.00466842 0)
(1.00096 -0.000520434 1.57624e-23)
(1.26056 -0.309449 -4.45998e-20)
(1.0001 -0.0685266 -2.48594e-21)
(1.30446 0.113648 0)
(0.0625523 -0.418996 0)
(0.784858 -0.239223 1.38162e-21)
(1.27632 -0.0458253 0)
(1.0432 -0.0323746 -2.39661e-21)
(-0.173308 -0.00800655 -1.12343e-20)
(0.275774 0.0507514 6.10939e-21)
(0.600911 0.33455 -5.43845e-21)
(1.06346 0.00448908 -1.57405e-20)
(1.01228 -0.00149799 -2.62799e-23)
(1.0537 -0.0357528 -8.31343e-21)
(0.99932 -0.00493512 0)
(1.2637 0.00412301 9.51193e-20)
(0.988739 -0.0857612 0)
(1.02495 -0.0112556 9.25402e-21)
(1.27993 0.0986757 0)
(0.951147 -0.0338192 1.54954e-20)
(-0.0455328 -0.156543 -2.15046e-20)
(1.01405 -0.393701 -2.50867e-20)
(0.923508 -0.182335 -2.13388e-20)
(1.00647 -0.00632927 -3.3233e-22)
(-0.0945433 -0.0286797 -3.18069e-21)
(1.03435 -0.000900823 1.13421e-20)
(1.09087 -0.00817478 -8.44025e-23)
(0.127682 -0.184164 -8.29432e-21)
(0.625959 -0.144765 0)
(1.00334 -0.0103075 0)
(1.00556 -0.432872 -2.58143e-21)
(0.0453675 -0.00608634 -1.50909e-20)
(1.03126 -0.015114 -5.56185e-21)
(1.00091 -0.00741135 0)
(0.996617 -0.0178081 0)
(0.76149 -0.12853 -3.05944e-20)
(-0.0457955 0.00461265 -5.16041e-20)
(1.00278 -0.00569788 2.23629e-22)
(-0.197999 0.00957704 -9.95669e-20)
(1.00008 -0.000888529 0)
(-0.154208 -0.0240842 0)
(0.157891 -0.0615375 -1.32037e-19)
(-0.0258096 -0.11258 0)
(-0.0497961 -0.0322313 -2.30128e-20)
(0.983844 -0.251061 0)
(1.1047 -0.0557412 1.87359e-20)
(0.353925 -0.111238 -5.77932e-20)
(1.0052 -0.000642155 -9.55186e-22)
(0.831174 0.0267109 7.32506e-20)
(1.03074 -0.0158313 0)
(1.0101 -0.00429881 -2.75779e-22)
(1.02295 -0.00230173 0)
(1.04229 -0.0188041 -1.6165e-20)
(0.0745379 -0.0748814 -7.44588e-21)
(1.02693 -0.0245018 -2.23845e-21)
(1.00236 -0.0048938 8.54652e-22)
(1.01601 -0.0470124 -3.00657e-22)
(1.0253 -0.0109291 -3.50262e-21)
(0.929344 -0.610245 2.01796e-20)
(0.968853 -0.0549518 8.48414e-22)
(-0.19482 -0.0178606 7.24789e-20)
(1.00396 -0.00952797 5.72085e-22)
(0.999442 -0.00467651 4.30381e-21)
(1.00276 -0.0063789 0)
(0.254496 0.0505341 0)
(-0.250646 -0.011326 1.16522e-19)
(-0.353094 -0.130346 6.87313e-20)
(0.440671 -0.406896 -1.06343e-19)
(1.00978 -0.00384536 -3.28026e-22)
(-0.104162 -0.00272982 -6.68752e-20)
(-0.0576415 0.00506666 -1.71111e-20)
(1.03842 -0.0560239 1.89572e-21)
(1.00031 -0.0143611 -4.07182e-21)
(-0.228509 -0.00471045 0)
(-0.167669 -0.00872836 3.73188e-20)
(1.06697 -0.0678284 7.53981e-21)
(1.23104 0.0535784 2.74232e-20)
(0.470787 0.0319711 5.01498e-20)
(1.04236 -0.239764 0)
(1.03897 0.000242041 -1.12065e-21)
(1.16863 0.0275471 3.69882e-21)
(1.094 -0.0968864 2.50595e-21)
(1.16728 0.0252464 -3.00286e-21)
(0.0746866 -0.00440818 7.30737e-21)
(0.0670843 -0.0488876 -4.69139e-20)
(1.02626 -0.00431211 -5.03586e-23)
(-0.229252 -0.00898029 2.06646e-22)
(1.0177 -0.017007 -1.97044e-21)
(1.31507 -0.186616 0)
(1.14738 0.0778913 -4.18642e-21)
(1.14811 -0.126298 0)
(0.987944 -0.0122114 4.01795e-21)
(-0.2302 -0.00753448 0)
(-0.190432 0.0133789 6.05215e-20)
(0.913124 0.0271642 5.70249e-20)
(0.999054 -0.00203629 7.01038e-21)
(1.12261 0.105043 3.52485e-20)
(1.02505 -0.00841426 0)
(-0.235821 -0.0085102 6.43197e-20)
(1.00241 -0.00603895 -1.41234e-21)
(1.11382 0.0419742 2.06186e-20)
(1.05753 -0.0240174 -1.02128e-20)
(1.00897 -0.0119523 -2.63705e-22)
(0.775712 -0.266174 -1.46309e-21)
(1.00647 -0.0819648 -4.75534e-21)
(0.997602 -0.00623145 8.5959e-21)
(0.255083 0.113181 1.74448e-19)
(1.00149 -0.00597493 1.20562e-21)
(0.0117964 0.0172942 -1.64153e-20)
(1.10234 -0.045043 -3.7581e-20)
(1.14415 -0.456404 -6.72648e-20)
(0.99917 -0.0310943 8.10077e-21)
(1.26896 0.0657337 -1.34897e-19)
(0.938907 -0.306174 0)
(0.995887 -0.038372 -2.88587e-21)
(-0.153413 -0.0234351 0)
(1.30093 -0.137841 -7.57965e-20)
(0.413555 0.0260155 -1.2328e-20)
(0.998936 -0.00306406 0)
(0.921384 -0.016412 0)
(1.24591 -0.0997063 -1.92209e-20)
(0.362708 0.018752 1.24438e-20)
(1.00013 -0.0147996 4.63344e-21)
(1.00786 -0.0567429 7.94687e-22)
(1.06908 0.00299388 1.21476e-20)
(0.224335 0.0595149 -1.23826e-19)
(1.02079 -0.00302921 -5.75334e-21)
(1.20755 -0.0177827 4.04082e-20)
(1.26242 0.000658449 6.08776e-20)
(0.969861 -0.056535 3.27258e-21)
(1.02081 -0.000958862 0)
(1.0008 -0.000416343 3.56579e-23)
(1.00704 -0.00716309 -2.54823e-23)
(1.1205 -0.159421 3.07521e-20)
(1.02297 -0.00805792 4.88559e-21)
(0.913664 -0.568341 -1.20422e-20)
(1.12647 -0.0376032 -1.15549e-24)
(1.02577 -0.00422947 -4.23347e-23)
(1.02396 -0.0782772 5.76061e-21)
(-0.224723 -0.00564112 0)
(1.00519 -0.0185804 0)
(1.07164 -0.0476283 -1.47658e-20)
(1.01231 -0.0118183 -6.70628e-22)
(1.0022 -0.00618361 1.31287e-21)
(1.177 -0.0863453 -6.05263e-20)
(1.26829 0.0736098 5.85897e-20)
(0.0634214 -0.488321 6.84512e-20)
(1.29422 0.159864 -5.18682e-20)
(1.06418 -0.00758386 -9.90177e-21)
(1.04461 -0.0314538 7.18975e-21)
(-0.199708 -0.0174769 1.47439e-19)
(0.129949 -0.105573 8.72062e-20)
(0.593052 0.0231865 1.427e-19)
(-0.23743 -0.00704251 0)
(0.693412 -0.259124 -1.23128e-19)
(1.27901 0.0438623 -7.45827e-21)
(1.00381 -0.00892919 0)
(1.09388 -0.105177 -1.76528e-20)
(-0.211174 -0.0154033 0)
(-0.216773 -0.00735282 0)
(-0.0833766 -0.00367021 -3.59155e-20)
(1.00131 -0.00569885 -1.67129e-21)
(0.944714 -0.32876 7.50395e-21)
(1.04538 -0.240491 0)
(-0.253501 -0.00386617 1.46268e-19)
(-0.207997 -0.00149982 4.72326e-20)
(0.9979 -0.0107491 -3.00798e-21)
(0.664254 0.120121 0)
(0.917874 -0.0202676 -1.96772e-20)
(0.118145 0.190557 5.86895e-22)
(-0.210383 -0.00418049 0)
(0.150036 0.5215 2.11831e-19)
(1.01413 -0.0104583 1.06207e-21)
(1.30114 -0.0748094 2.36436e-20)
(1.00002 -0.000191588 5.39906e-24)
(1.03835 0.00180851 0)