/*--------------------------------*- C++ -*----------------------------------*\
| =========                 |                                                 |
| \\      /  F ield         | OpenFOAM: The Open Source CFD Toolbox           |
|  \\    /   O peration     | Version:  v2012                                 |
|   \\  /    A nd           | Website:  www.openfoam.com                      |
|    \\/     M anipulation  |                                                 |
\*---------------------------------------------------------------------------*/
FoamFile
{
    version     2.0;
    format      ascii;
    class       volScalarField;
    location    "400";
    object      omega_0;
}
// * * * * * * * * * * * * * * * * * * * * * * * * * * * * * * * * * * * * * //

dimensions      [0 0 -1 0 0 0 0];


internalField   nonuniform List<scalar> 
18649
(
0.710044
0.0212396
0.694191
0.0895008
0.0227251
1.31395
0.0213512
0.0195858
0.548966
0.237456
0.0212295
0.0211239
0.0240501
0.021883
1.9156
0.024486
0.0225981
0.0213466
0.167869
0.0212372
0.0211178
7.11003
0.525848
0.0654016
0.235641
0.534004
0.423941
0.592747
0.0216731
12.5312
0.0213865
0.0263094
0.0225626
0.0281811
0.0221036
0.0359578
1.80954
0.0692201
0.0212228
0.0218553
0.692061
0.0223842
0.187496
0.608623
0.393277
4.91855
0.501129
0.0274164
0.0213883
0.102555
0.0805399
0.527687
0.021044
0.758641
0.0202884
0.282788
2.37371
0.0213933
0.0205345
0.745783
0.0204734
0.100803
0.0214489
2.35289
15.0556
0.860724
0.766898
0.0237487
0.38088
6.93171
0.432016
0.0278745
0.0213353
0.021446
0.0266113
0.593921
0.89686
0.0227174
5.15951
0.173796
0.0251928
0.279955
1.25666
0.12309
0.0235585
0.240957
0.0273985
0.02929
0.205909
1.32274
1.89074
0.120196
0.0686239
0.0890094
0.0216663
0.0210553
0.0360123
0.493481
0.883715
0.0204636
1.07442
0.0234269
0.965991
0.020073
0.540626
0.52853
1.27163
3.24941
0.178789
0.0213308
0.0212805
0.0286689
0.0341434
0.0208489
0.0214772
0.31082
0.0237476
0.0292222
0.0223209
0.0272965
0.0204855
0.0489121
1.00251
0.0208521
0.0245556
0.0224634
2.55383
0.0215131
0.0217245
0.0200496
0.0214438
2.36879
0.147284
0.175894
0.0218312
5.66442
0.639487
3.23495
0.655499
0.378843
0.0267286
0.0229787
0.0197285
0.0215795
0.47023
0.020357
0.0218124
0.183178
0.514486
0.0215705
0.904122
2.74868
0.0238032
0.0213318
0.0415185
0.208643
0.0215769
0.0211839
0.0207918
0.568767
1.29223
0.909411
0.0215651
0.684893
2.73872
0.0217296
0.496725
0.499205
0.0249256
0.0203994
0.0283932
0.0215313
0.0208064
0.0222964
0.0853389
0.427851
0.480619
0.0215631
0.514679
1.33396
0.0210585
0.355568
0.0214606
0.0211214
0.0215529
0.0211828
0.0202959
0.0427774
0.0204342
0.02044
0.023587
0.898986
2.7519
0.0309546
0.0446598
0.0207986
0.0242214
0.0222598
2.83003
0.0274939
0.0204255
0.0213588
0.543688
0.0213372
0.0216727
0.021276
0.183062
0.718142
0.0226504
0.0210191
0.0204252
0.0237045
0.0201565
0.03221
0.755919
0.0357121
0.0220056
0.0235216
0.0212077
0.508616
0.634553
0.0287683
6.27745
0.0766146
0.895915
0.497215
2.49227
0.188383
0.0256232
0.791757
0.0201597
0.0143187
0.0277654
0.0211416
2.38644
0.0210482
0.0227392
0.0215415
0.0201632
0.0194167
0.0412577
0.700263
0.0546483
5.20654
0.797699
0.029719
0.0310834
0.0227267
3.61446
0.0454486
0.0322912
0.0300181
0.0214926
0.0568428
0.0257998
0.0213545
0.0210172
0.0204308
0.652435
0.0250834
1.80568
0.0201111
0.0203236
0.0362041
0.0201458
2.28471
0.0274781
0.516734
0.0254303
0.0207443
1.63272
0.343414
0.0310724
0.0207282
1.83795
0.050094
0.0218865
0.0240981
0.0411235
0.106041
0.318705
0.0226548
0.714814
0.021914
0.0200378
0.226114
0.0535402
0.0213857
0.611573
0.0228706
0.0210781
1.32782
0.0214273
0.0214489
2.54064
3.41021
2.38555
7.04903
0.0265744
0.0213698
0.0213586
0.691356
0.0715491
1.5787
0.246888
0.470601
0.514888
0.0702812
0.0271642
0.116254
0.021087
0.941317
0.0207977
0.0225063
0.0220456
0.0249242
0.0239631
1.22929
0.905634
0.0212151
4.57916
0.0205739
0.020463
0.0215145
7.89779
0.0257645
2.4047
0.543781
0.0218289
0.0213805
0.0219513
0.573067
0.29202
0.0243951
0.984362
0.0210671
0.924376
0.457957
0.0459246
0.194726
0.024487
0.793452
1.24139
0.541263
0.219918
0.0952382
0.0441547
0.0212104
5.77898
0.316155
0.0226639
0.0862571
0.0201111
0.0276291
0.0255917
0.0757294
0.0250351
0.568397
0.0268358
0.0202591
0.0302412
1.37027
0.656078
0.021512
0.832309
0.720705
0.0212413
0.0234614
0.807895
0.0201578
0.0372432
1.30406
0.0276478
0.0212204
1.82889
0.0214655
0.0817251
0.831953
0.432186
0.239523
0.244055
0.0206181
0.026617
0.354037
0.378583
0.0233642
0.129485
0.0208246
0.0219103
0.021389
0.288157
0.0292042
0.393188
0.0234475
0.675659
0.964843
0.0281559
0.0210644
0.0215984
0.0205937
0.250782
0.76141
0.0225817
1.30741
0.353767
0.0269371
0.0208232
0.907821
0.0205508
0.0426629
0.0275573
1.06842
0.132977
0.0214606
0.294725
0.0249187
0.582487
0.0314081
0.0220331
0.0223845
0.0296313
0.366915
0.0981532
0.506842
0.568643
0.0193413
0.64751
0.647918
0.0239381
1.09472
0.15516
0.0203615
0.0256402
0.0262882
3.07589
0.0212416
0.0210965
0.771453
0.0212173
0.0256924
0.0203333
0.019631
0.0214336
0.0414364
0.0214755
0.0214586
0.0220063
0.137856
1.32496
0.0253778
0.0215949
2.46362
0.0215832
0.415869
0.0291601
0.0251119
0.0211379
0.0205209
2.42199
0.279725
0.0214209
3.36902
0.0212354
0.490239
1.12807
0.022005
0.0196232
0.0218616
0.0214466
0.023097
0.0329824
0.0202726
0.033656
0.457898
0.112482
0.066595
0.0213318
0.0215337
0.0365731
2.33275
0.0338607
5.29971
0.0264762
0.0204417
0.0360758
1.34343
0.0210813
0.602728
4.46232
0.0223104
0.0367102
0.767273
0.0411571
0.206753
0.0207892
0.287132
0.0687927
0.0215887
0.0200938
0.0213089
0.150793
0.0224624
0.0221126
0.0244619
0.53696
0.872282
1.34779
0.0201408
0.0208271
0.218997
0.0257918
0.0213858
0.0271545
0.190701
0.151943
0.034283
0.612758
0.0211126
1.3248
0.020824
0.0208179
0.0271851
0.021405
5.91415
0.0208131
0.44582
0.491385
3.23106
0.442142
0.0367475
0.0208907
0.319384
0.0203352
0.0206919
0.249199
0.0219442
0.0197262
0.0413604
1.79502
0.0214028
0.0735438
0.018847
4.62681
0.0210908
0.0607745
2.32529
0.835292
0.0243157
0.0528801
0.0253438
0.0273671
0.722283
0.0257988
0.775708
0.0213784
1.30991
0.345728
0.553681
0.0211001
0.0213112
0.729735
0.753823
0.204208
0.0352963
0.0205759
0.0218404
2.93803
0.114634
0.0358705
0.0436726
0.0276858
0.0651292
0.0478226
0.0207747
0.0810905
0.019757
0.591514
0.0228896
0.079885
0.0214341
0.0212403
0.0210433
3.37674
0.251891
0.0200071
0.02246
0.0213744
0.298882
4.34504
0.0211068
0.0209421
0.0211404
0.304976
0.0216297
0.634731
0.0224629
0.0214166
0.315139
0.0241025
0.467635
0.021782
0.976073
0.0205824
0.0198742
0.0207782
0.0918025
0.0278566
0.880397
0.0213991
0.481857
0.0214528
4.31324
0.209343
0.0210633
0.178322
0.0215428
0.0207629
0.0217997
0.84208
0.100743
0.0208231
0.522901
2.84683
0.0213677
0.0463851
0.0272021
1.3517
5.88947
1.31093
1.7841
0.0214047
0.853817
2.27731
0.0221398
0.0823603
0.567761
0.0323294
2.29407
0.0226568
1.28268
0.0214299
3.21251
0.417557
0.0211145
0.46826
0.0225896
0.0294961
0.0203075
0.0234296
1.22438
0.0212609
0.151206
0.514578
0.121303
0.0213558
11.8957
0.0796068
0.0218414
1.35601
0.0214289
0.0226818
0.588397
0.0256877
0.0367141
0.11318
0.020791
0.0271458
0.0443145
0.0224864
0.020512
0.050705
0.0269103
0.0209419
0.0207959
0.04695
0.737044
0.0965481
0.185803
1.26839
0.44216
0.0212578
0.151227
2.76868
0.0213664
0.071194
0.0207881
0.0373456
0.0213492
0.023552
0.0210901
0.0207468
0.021408
1.22701
2.02698
0.726309
0.0327951
0.0214494
1.73305
0.0200113
0.697409
0.201365
0.411438
0.0233986
1.87886
0.0205451
1.26135
0.0285242
0.706446
0.0215089
0.388957
1.03487
0.0348089
1.85028
0.0216083
1.12469
0.0278196
0.070048
1.22207
0.0204119
0.0214308
0.0208279
0.0245351
2.7468
2.27657
0.0211625
0.798111
0.940383
0.242532
0.0207369
1.95817
0.0204024
0.0211643
0.899981
0.471473
0.0330888
0.0817485
0.023991
0.908453
0.0240705
0.0223281
0.84377
0.209943
0.0199724
0.05724
0.107585
0.0214034
0.0214741
0.0198172
1.29812
0.0388328
0.0201448
0.0218479
3.60949
0.0528914
0.0648984
1.03136
0.0235357
0.623609
0.0220824
0.0201563
0.019852
0.0348141
0.11751
0.0214219
0.0203109
0.0205554
0.0903217
0.022569
0.417191
0.0320575
0.0212571
0.0649764
1.05789
0.0210607
0.0200792
0.0200512
0.0197856
0.0705834
0.0265759
1.52484
0.0898926
0.231172
0.0253876
0.0213618
0.023152
0.0257043
0.516251
4.07066
0.892041
0.382819
12.9578
1.28736
0.0216395
0.0213741
0.165464
0.0370415
0.860738
0.028757
0.112791
0.457289
0.893414
0.550366
0.525873
0.0201408
0.0219891
0.0271741
0.0209212
1.92026
0.620549
0.0209676
0.0214606
0.0316005
0.0471779
2.20797
0.657177
1.96492
0.0216078
3.27002
0.0211945
0.0217311
0.0244385
0.0213307
0.021394
0.689236
0.0209206
0.0632737
0.0383384
0.0213181
0.0215552
0.0212056
0.539565
1.28795
0.0400613
1.28957
0.0224009
0.0761793
0.788553
0.149063
0.0216863
0.0224013
0.019417
0.0599952
0.0229139
0.0235676
0.0207716
0.0207947
0.0198028
2.71316
0.0419596
0.0387645
0.243315
0.0208029
0.0603976
0.0298099
1.3085
0.0205047
0.0210912
0.0211192
0.0207619
0.022149
2.58332
0.0284708
0.716796
0.0203561
0.0293209
0.0208083
0.0218357
0.0282932
0.0198027
0.020669
0.0616854
0.466088
0.510861
6.83691
0.030802
0.0214014
0.0204994
12.4825
0.019825
0.761675
0.821448
2.9761
0.0201395
1.91564
0.190422
0.0214467
0.0269676
0.0633204
4.39851
0.0251022
0.0353199
0.0213377
1.34526
9.48839
0.0214093
1.37626
0.0230564
0.0219388
0.0215111
0.0212769
0.0219388
0.0197838
1.22191
1.24016
0.0199029
0.0211836
0.0211196
0.0262701
0.0207592
3.66643
0.493345
0.103536
0.0198214
0.0200022
0.0196981
4.7364
1.26786
0.282325
0.0847093
0.0202422
1.23308
0.808521
2.28239
0.0198351
0.0206685
2.75584
0.0253754
3.76241
0.0209117
0.0256804
0.0209023
0.0460691
0.0876425
0.019862
0.0237606
0.606395
0.0232786
0.0903897
1.22606
0.544828
0.0707617
0.481072
0.0214189
0.0654086
0.722513
0.025099
0.0241801
0.551663
0.506421
3.11027
1.88731
0.0215353
0.020534
0.0385009
0.0229962
1.47531
0.087321
0.0199942
0.0249778
2.01961
0.0213934
0.752821
0.021895
2.59763
1.98505
0.149152
0.347902
0.0155902
0.0589962
0.0217142
0.601859
0.0619919
0.0310479
0.407014
0.647454
0.0210759
0.0200741
0.0214162
2.18405
2.1114
2.25977
0.0204876
0.368924
0.700452
0.0229595
0.0196379
0.0214437
0.589977
0.0198588
0.0329827
2.45291
11.4138
0.0209434
0.888417
0.0212223
0.724755
0.019751
0.57882
1.36946
2.78978
0.677824
0.0197933
0.0213371
6.62625
0.0222361
0.0215862
0.792279
2.25353
0.0219696
0.0205705
0.021699
0.500117
2.14648
1.07891
1.63835
0.0265368
0.343537
0.0225664
1.31076
0.0762115
3.00962
0.230219
0.0259918
9.29457
0.403001
1.33422
0.237252
2.4258
0.02006
0.0242692
4.87978
0.113482
0.0600787
0.0226607
0.0214599
0.441967
0.0251859
1.371
0.021514
0.0803652
0.0211738
0.856254
0.0324722
2.40042
0.0675521
0.0223829
1.10909
0.0541027
0.0201631
0.541896
3.11079
0.0366634
0.0219691
0.615176
0.0261158
2.36392
0.0211909
0.749913
0.0255082
0.0201525
0.0213676
0.829497
0.0202831
0.0200952
0.0205187
0.580534
1.2156
0.0213538
0.0210602
0.0240716
0.775174
0.0245503
0.021721
2.70132
1.35129
0.732213
0.0229498
0.020125
1.8753
0.0198652
0.430678
1.22844
0.0210113
0.0197585
0.0215673
1.14762
2.26802
2.48402
0.019796
0.0210788
0.352244
0.0438897
2.70025
4.63919
0.450539
0.0266958
0.021444
0.77956
0.0221281
0.0197751
0.0198581
0.0211727
0.473969
0.0246295
0.499011
0.021046
5.16505
0.651182
0.0196297
0.0279981
2.78632
2.54502
0.0214507
0.039261
0.0474234
0.0255325
7.02332
0.565655
0.137554
0.648768
0.536415
2.11574
0.0217499
0.0226098
0.0253255
0.0274875
0.021567
0.0208398
0.436794
0.026245
0.706643
0.262477
0.0206108
0.584669
0.497012
0.0234409
0.0235965
3.14721
0.0285093
3.23748
3.22881
0.0215768
0.0202826
0.872982
0.688379
0.100479
0.0223105
0.0212361
0.0208273
0.029939
0.0209366
0.157127
0.02158
0.607325
0.955671
0.0241204
0.021637
0.0204079
0.869686
0.0200829
2.79712
0.0239433
0.196458
0.0211716
0.296112
0.0210282
0.448735
0.0212095
1.28404
0.0240626
0.0213377
0.028638
0.0212476
0.0197554
0.020436
0.02177
0.021377
0.652908
2.76566
0.0207987
0.554026
0.0224114
0.0214684
2.14065
0.0209365
0.0197987
0.372254
0.0208303
0.0865558
0.734985
0.0333872
0.353857
2.60781
0.0210177
0.868213
0.0200329
0.0933817
2.52816
0.023715
0.0200252
0.0238927
0.0233609
0.0202586
0.0204141
0.115763
0.0199657
1.36263
0.380243
0.0901141
0.0440676
2.28405
0.0236239
0.0213634
0.0257741
0.0213892
0.0429568
0.0211752
0.0212156
0.0239921
1.35041
0.0216069
0.0210484
0.0214335
0.0211564
0.0354531
0.352771
0.0153607
0.0196951
0.685754
0.221403
0.305911
0.317968
0.806468
0.0218425
0.0204697
0.0214719
0.0249673
0.417728
0.0201686
0.700936
0.0209373
0.0948879
0.0208396
0.0199769
0.574965
0.0239604
0.0320424
2.35849
0.651556
0.0214655
0.0207707
0.294483
0.526428
0.0238131
0.846071
2.64506
0.0199334
0.0212591
0.02689
0.165131
0.0215941
0.0213357
0.048372
0.0212071
0.420751
0.545767
1.34955
4.5548
0.994234
0.490503
0.0825213
0.637509
5.05339
0.883047
0.0209374
0.0209369
0.0277846
0.0309307
0.0217776
0.0227277
0.69311
0.65804
0.0536799
0.0203804
0.0214895
0.673368
0.0211623
0.0218285
0.0214385
0.410891
0.0265864
0.697649
0.0214533
2.95999
0.0523629
0.0222034
0.410841
0.0212293
0.0216452
0.0211582
0.0263486
0.0212343
0.600498
2.0497
0.0210109
0.019696
0.0210024
0.0207942
0.886081
0.0220347
0.0210118
0.026403
0.0212793
0.0218069
0.0209261
0.0244121
0.356466
0.123259
0.0759469
0.0220328
0.0218
0.0198346
0.0215681
1.17315
0.713413
0.0223126
0.0264016
0.020515
3.55603
0.023351
0.689722
0.0197686
10.1667
0.0216204
0.0263127
0.133994
0.251574
0.916786
0.0770842
3.41803
0.0214084
0.491306
0.0204875
2.68341
2.75248
0.0205265
3.36211
0.0205117
0.0197965
0.811461
0.0205107
0.0210127
2.76087
0.0395854
0.0209968
0.0253767
0.0202414
0.0207847
0.752578
0.0210736
0.020408
0.779389
0.0214048
0.345382
0.0209128
0.0214109
0.0205579
0.0212052
0.193929
0.0443749
0.643006
1.36617
0.1028
0.021043
0.0203966
0.0207457
2.16328
0.0255421
0.0215166
0.0211171
0.0213535
3.17334
4.25855
0.0204354
0.936367
0.0208946
0.055084
0.0210659
0.0213367
0.563398
0.338411
0.0210293
0.068777
0.855957
0.0426134
0.0214228
0.318605
3.60596
0.0196732
2.37613
0.0208012
2.47356
0.02179
1.32069
0.0588145
0.0358742
0.0206813
0.0646472
0.0212852
0.0212172
0.0250594
0.0547493
0.0213466
0.525876
0.729983
0.0214065
0.021112
0.0251788
0.0221013
0.0653187
0.0211634
0.023029
0.0213554
0.0205433
0.0319766
3.0037
0.0212828
0.0211696
0.0279718
0.664163
0.498419
0.0215851
1.31091
1.34167
0.0768126
2.46974
0.0268673
0.0218331
0.0218704
0.020767
0.0220364
2.64132
0.0220574
0.0221994
0.0245886
0.0213637
0.528003
0.0210823
0.461082
0.0222102
2.99166
0.022103
0.730372
0.02016
0.0669021
0.0291585
0.0525263
0.0244445
0.0211166
0.19828
0.0278315
0.021408
0.0197893
0.648149
5.3508
0.0210437
0.0210329
0.675682
0.394131
1.21841
0.0204918
0.0209986
2.01264
0.0218264
0.508106
0.148548
0.0199135
0.0229775
0.777249
0.0211815
0.0214192
0.0204807
0.881727
0.0327969
0.159148
0.0332074
0.120728
0.215865
1.78127
0.771306
0.0211795
0.0209258
0.0214301
0.0245678
0.0200197
1.78009
0.0207483
1.09724
0.0227299
1.33601
0.850101
0.0413552
0.020573
0.0215705
0.409471
0.0206025
0.0212143
0.0243557
0.654375
2.54516
0.0215298
0.0212243
0.024686
0.022572
0.020604
0.0222741
0.785247
0.0248276
0.0787206
0.0511315
0.0370531
0.526541
0.0314306
2.64377
0.0214874
2.97801
0.0202575
0.0207804
0.0200317
0.020908
0.455284
0.0203826
1.18261
0.0303217
0.172158
0.0218804
0.031723
0.0215179
0.0741182
0.611412
0.41184
0.0219871
0.0209976
0.0209262
0.0271696
0.0207321
0.367657
0.0231522
0.0978313
2.69308
0.0225465
0.0212061
0.0211721
0.238183
3.32791
0.807831
0.022619
0.0207371
0.146772
0.604319
0.021401
0.0208867
0.903209
0.65517
0.0199324
1.19528
1.25883
0.0205382
0.128443
0.0202081
0.0219636
0.0683935
0.0215923
0.020609
0.033516
0.0258621
0.0234477
0.0200264
0.0198134
0.0222183
0.0227561
0.0221519
0.0197669
0.0216315
0.021693
0.0213839
0.0477548
0.0240991
0.0924436
0.0198141
5.02841
0.0214528
0.133342
0.0229508
0.418685
0.0219586
0.0238044
0.0211119
0.0201551
0.0837685
0.0246937
0.90817
0.02027
0.021422
0.480789
0.0267486
0.479453
0.519204
0.608214
3.02747
0.0559796
0.35133
0.0201693
0.0260673
0.0213392
0.0226063
0.0202044
0.020247
0.738448
0.51754
0.0273933
0.0218071
0.0221322
0.610767
0.0235147
0.0209269
0.0247866
0.0202367
0.0196517
0.599731
0.0224499
0.803615
0.0322028
0.199524
0.426633
1.07882
0.0238842
1.36024
6.83148
1.35132
0.587615
0.0209722
0.020589
0.0204439
0.0253339
0.0213508
0.0697802
0.0210343
0.704396
0.0201958
0.0329561
0.0197776
0.0218696
0.467339
0.07617
0.910236
0.0215826
0.019661
0.776416
2.30573
0.0212127
2.28361
0.0196304
0.0261373
0.0271632
0.0213773
1.03239
0.226703
0.028419
0.0219627
0.336409
0.0264488
0.0213543
0.951536
0.0218874
0.407576
0.0355527
0.0210172
0.145568
0.0199882
0.148354
1.84057
0.0264226
0.0213518
0.0359482
0.0197859
0.721439
0.0263459
0.407774
0.0282222
0.160866
0.885587
0.0393647
13.9139
0.482158
0.0201435
0.627017
2.5628
0.0864743
1.33244
0.0276976
0.0291026
0.0310774
0.0280956
0.811887
0.0883398
0.449331
0.589604
0.513219
0.0213472
0.0251379
11.3265
0.473073
0.662834
0.207597
0.0343951
0.474657
0.0227828
0.0302846
1.12911
0.435102
0.0201933
1.87725
0.0204163
0.538377
5.28859
0.026111
0.645337
0.0512641
0.0234771
1.3549
0.0311003
0.0293624
0.0213936
0.605581
5.54645
0.020365
0.0218135
0.0246868
1.90914
0.130531
4.84474
0.0341768
1.86071
0.0238065
0.0205832
0.482049
2.79852
0.0210241
2.57881
0.593741
2.32505
0.0227985
0.0223243
0.603126
0.484754
2.04438
0.0248515
0.505533
3.73463
0.483202
0.0202188
0.0201211
0.0221532
0.0202278
0.0205552
0.0255964
0.0201142
0.137462
0.878174
0.0854754
0.0238612
0.0227075
0.499102
0.1653
0.0315753
2.31174
0.0211032
0.0447355
1.3141
0.0273799
0.0218093
0.357037
0.0214026
0.72707
0.0204538
0.409132
0.0241733
0.702745
0.392577
0.0241945
0.0212025
0.535451
1.83316
0.0551988
0.0821932
0.510742
0.706688
0.519482
0.1886
0.976549
1.28547
0.321855
0.0324839
0.0215814
0.0213517
0.0216895
0.0204864
0.0242471
0.0197375
0.0458085
4.80065
0.0925704
1.98618
1.77632
4.68701
2.72751
0.0279304
0.338891
0.0215643
0.0201381
0.0246556
0.0205302
0.0209874
1.77526
0.0246237
6.13041
0.0229126
0.365603
2.64694
0.0200226
2.23279
0.0224843
0.029351
0.0208993
0.0201496
0.413438
0.815757
0.0229248
1.13686
0.0211829
0.0200335
0.566541
0.0211158
0.0197696
0.035076
0.0639289
0.0452695
0.0313305
1.52019
0.020187
0.901421
0.0211911
0.0212059
0.141759
0.819797
2.64404
0.0244897
0.0198153
0.0204409
0.71896
0.244125
0.029901
0.0261683
0.0205719
0.0217406
0.0210329
0.0243717
0.109919
12.0506
0.262808
0.0271632
0.0200387
0.50985
0.027032
0.519172
0.448773
0.0288925
1.30496
0.0211544
0.204434
1.20533
4.16409
0.0218299
0.0266074
0.0198057
0.0604423
3.34551
3.29467
2.08449
0.577806
0.0264234
0.0199566
0.414398
0.0257824
0.657934
0.0263427
0.02057
0.0626043
3.35697
0.0211777
0.0199605
0.0214231
0.0366486
0.0210986
0.0138352
0.0449266
0.0523328
1.26227
0.0198337
0.023641
1.16323
0.218766
0.0208033
0.0248751
0.511944
0.0647843
9.1359
3.56709
0.0214176
0.0215215
0.0213849
1.33608
0.639689
0.0210844
1.90434
5.86653
0.632238
0.0207485
0.0218015
0.0204855
0.0210915
2.92256
1.12379
0.717563
4.14711
0.0210451
0.0197164
1.90067
0.0214946
2.6291
9.11072
2.74629
3.15563
0.423778
0.0228681
0.00641406
0.0212581
0.871682
1.2591
2.74618
0.0196393
0.0250671
4.1101
1.14094
0.0228282
0.0207823
0.0268737
0.0269281
0.11566
1.42902
0.0308619
0.0437346
7.17078
0.22403
0.194224
1.19124
0.127462
0.330352
0.0242723
5.62377
0.0213153
1.2053
0.157821
0.0205416
2.08771
0.0213502
0.0260062
0.021542
0.983761
2.56272
0.0209019
0.0213419
0.841538
0.0346015
0.0241069
0.542716
0.0365401
0.603084
1.23091
2.6937
0.0217586
0.841439
0.0331631
0.0235444
0.0209572
0.0199978
0.0207814
8.37171
0.021556
0.483307
0.0215348
0.0584688
0.0216486
0.0428724
0.0313512
0.0213687
0.475579
0.0213547
0.58898
0.02117
3.25415
0.0416191
0.305913
0.054738
0.041056
0.202521
0.0261296
1.5044
0.60221
0.162925
0.219236
0.451618
0.0222177
0.0258605
0.0260206
0.529661
0.730513
0.68797
0.0474843
0.164049
0.0205542
3.01935
0.926106
4.78552
0.0228262
0.0204601
0.0576517
2.43471
0.0205663
0.481791
0.522646
0.021438
2.98055
0.0226929
6.9338
1.32132
6.79967
0.042953
0.0205367
0.0205572
1.93404
0.0194937
0.0235829
1.23349
0.07175
0.0204643
0.124436
0.492541
0.029237
0.0212322
0.207819
0.166664
0.0214672
0.0281236
0.806483
1.40114
0.127666
0.434671
1.34197
0.0291068
0.0214042
0.510455
0.0208817
0.0267773
0.50349
2.71206
0.02181
0.0210171
0.0212484
0.588693
0.825182
0.0207403
5.94601
0.0228695
0.462001
0.296667
0.841304
6.29068
0.0286447
5.87794
0.830095
0.0263676
0.0209635
1.36216
0.0226436
0.859963
0.0198102
0.023115
0.0239623
0.0230587
0.0233383
1.94403
0.0207565
0.0470399
1.80334
0.0196744
0.272402
0.0262788
0.120941
0.719067
0.276377
0.835423
0.0211554
3.16595
0.0325981
0.0275142
0.0446797
0.0239656
0.0375737
0.0782188
0.0211704
0.022051
0.0213165
0.451572
0.433952
3.15814
1.911
0.0208805
2.61151
0.0213487
0.0264348
3.12522
0.0211165
0.0284163
0.598412
0.0211951
0.0375877
1.16908
0.0367031
1.23752
2.30573
0.0227283
0.0244337
0.0295864
0.0213899
0.0403139
1.7021
0.0197706
0.0212227
3.62077
0.214556
0.562805
3.29284
1.51389
0.0230543
0.572016
0.487728
0.0210831
0.0199443
0.0331882
0.798613
1.33796
0.0227356
0.0215567
0.4443
0.0919676
0.0265306
0.0232604
0.0207444
0.0197867
2.65573
0.0341451
0.679729
2.33705
0.0197969
2.91074
0.023463
0.0254736
2.52323
7.8942
0.737725
0.0222303
0.030159
0.828635
0.0217567
0.0225774
2.26924
0.429224
2.85059
0.756191
1.1759
0.0212396
0.020415
0.0206165
2.76611
4.78742
0.0384298
0.0229616
0.0204601
0.549158
0.346059
0.0212932
0.330728
0.0577563
5.59835
0.314465
0.0204357
0.602906
0.0196442
0.034195
0.152624
0.0215205
0.0253131
0.325982
0.0237976
0.0229889
0.0330086
2.30969
0.0215951
2.46101
0.0206665
0.793201
0.865434
0.784094
0.0211026
0.319985
0.0742621
2.51021
0.398264
0.021488
0.0415101
0.0318696
0.019932
3.13576
2.76236
0.032072
0.0213078
0.0212908
0.0276889
0.0204961
0.0414085
0.0236304
0.0281362
0.423981
1.2539
0.616607
0.0261167
0.0940619
0.508816
0.023081
0.0352254
0.321582
0.0209866
0.0478991
0.0209535
0.0257251
0.0225578
2.52449
0.0740272
0.349698
0.0225916
0.794811
2.74357
1.56483
0.155834
0.789966
0.0257147
0.0230813
2.88879
0.0210648
0.0213622
0.0199338
0.0201686
0.0211973
0.0212712
0.0645297
0.0201155
0.0700787
0.946758
0.0267058
0.34199
0.0239467
0.0540932
0.0779708
0.0209754
0.0237155
0.386453
2.63674
0.0264273
0.0210329
2.45563
0.0206279
0.596629
2.85755
0.333254
1.30974
0.0289669
2.82854
3.47584
0.861186
0.022919
0.12683
3.51188
1.43413
0.0215878
5.13619
0.0213794
0.0215339
2.02213
0.51021
0.0215114
0.0219295
1.40923
0.0239127
0.460578
0.0220226
1.14687
0.0259443
0.0226612
0.0215589
0.0271389
0.021394
0.0210487
0.0290182
2.3894
0.0226937
0.621582
0.508041
1.2425
0.0221433
0.973029
0.0208347
0.0216665
1.33361
1.79504
0.0390285
0.0926086
0.0196735
0.0213591
0.0448226
0.586659
0.744163
0.021423
0.530437
4.83615
0.0986698
0.0215444
0.024779
0.0217182
0.0214632
0.223224
1.71568
0.0217166
3.02688
0.00754004
2.062
0.400611
0.386155
5.0114
0.021395
0.904979
0.0249402
0.0241829
0.0410131
0.078831
0.0355781
0.0209051
0.0211513
7.69676
1.94032
0.359606
1.17393
0.0208827
0.0201517
0.0211858
0.0210438
0.613908
0.563815
0.030492
0.0326868
0.0212019
2.21032
0.16679
0.0200999
0.369879
2.36402
5.49077
0.00337966
0.0225154
0.0215128
0.139584
1.27453
0.0154835
11.9027
0.0284309
0.0213703
0.0260379
0.0198255
0.456527
0.48209
0.0222893
0.0207239
1.88812
0.0215404
2.21257
0.0285098
0.27555
0.0216835
0.0217105
0.021306
0.02947
2.47923
0.0208424
0.434144
0.0217632
0.0198101
0.60529
0.0834899
4.72594
0.0225265
0.0209601
0.0259529
2.50056
0.0207098
0.0578062
0.0215161
2.45662
0.0222087
0.554255
2.12899
0.0392418
0.0257926
0.15205
0.0216688
0.0703818
0.0318147
0.0204513
0.0209823
1.59249
0.470044
6.411
0.463949
0.0207843
3.00428
0.0247027
2.53887
0.0401895
0.0211836
0.021113
0.209066
0.463999
0.523826
0.0218059
1.2481
0.0212761
0.0210977
0.0202389
0.126598
0.0363375
3.29054
0.020834
0.0213942
2.4051
0.0211276
1.8186
3.57299
0.02141
0.0204801
4.02629
1.098
0.0214486
0.166632
0.0262558
0.0256458
0.0226618
1.42177
0.019779
0.0214253
1.32086
0.0217085
0.179968
7.66255
0.0405302
0.053546
5.47207
0.0206288
0.0214499
0.0212035
0.0507679
0.0204521
0.0217362
0.632818
0.0275895
0.0289051
0.0222183
0.0214882
2.60234
0.0212437
0.0204646
0.0220171
0.125164
0.00843551
0.0212054
0.0209727
0.0204197
0.0214327
0.0285556
0.0232745
0.0208394
0.276582
0.0216968
0.020283
0.384302
0.0212642
0.0202967
0.484133
0.0207933
12.9074
0.0211248
0.635371
0.0568855
1.79192
0.0289166
0.331284
0.0574668
2.30612
0.873623
0.0224271
4.6562
0.572323
0.541111
0.0254512
0.020513
1.41739
0.0197853
0.0421215
0.032592
0.613822
0.0245385
0.0244083
2.87364
0.0248846
4.01117
4.28851
1.34602
0.0482054
1.90543
1.54874
5.40917
0.399464
0.01877
0.74962
0.0225695
2.14701
7.01056
3.49683
0.568098
0.0214204
4.50871
0.0323432
2.82134
0.0198981
0.0211773
0.0208078
0.540491
5.78963
0.65998
0.0250285
5.17538
1.34248
0.0213114
0.0281469
0.395388
0.0432133
0.14344
0.0423171
0.0211085
0.635731
3.25593
0.601009
0.0709402
5.14151
3.60489
3.62476
6.00137
0.0212011
0.854481
0.0214701
0.0590622
0.741465
1.87728
0.883813
0.0767218
0.0222239
4.6357
0.059563
3.09856
5.52848
6.88917
2.21312
2.7516
0.940463
0.451892
0.395742
0.0211626
0.315852
0.0214796
2.62406
1.15429
0.0735249
0.635695
2.54572
1.3277
0.136182
0.0220233
0.100062
0.720364
0.0210333
0.0213713
10.9449
0.514438
0.0281325
0.514456
0.0405517
0.0358009
0.0243268
0.123179
0.199928
0.857922
1.84915
0.0215476
1.25184
0.799548
0.0312963
0.975252
0.905563
0.145707
0.377632
0.429448
0.0371909
2.97583
4.74631
0.0217251
0.021566
6.21591
0.510106
0.0259278
3.28435
0.0965264
0.0213321
0.453326
0.02171
0.0380653
1.33479
0.0226599
2.74637
0.503076
3.07777
0.065307
1.29741
0.406174
0.0207776
1.2566
0.503157
1.64528
0.283993
0.0207467
5.69514
0.0605949
0.0891393
0.0586629
0.0214174
0.611787
0.0215041
0.0315333
3.33998
0.0210153
0.0206456
0.0214337
0.0113544
2.28615
0.720586
0.0452624
0.021172
0.024532
0.472552
5.88338
0.386686
0.595014
0.543436
0.712045
2.11791
5.00937
1.20882
0.0570482
0.985681
0.0218768
0.0252496
2.15179
0.809793
0.600909
3.03747
0.0552832
2.20709
0.0213894
1.8592
0.0267135
0.719769
0.0529857
0.214137
0.0292864
5.13692
0.841986
0.0262868
0.0393191
0.0328235
0.0220842
5.65881
0.0261298
6.02803
2.31398
1.25919
0.0214648
0.0221846
0.114542
0.182242
0.064629
1.19291
0.621732
0.0228397
0.0211795
0.0214202
0.0218449
0.0212134
0.662549
2.24882
1.07499
0.401453
10.3876
0.0357378
0.0896322
0.0253508
0.464748
0.0212965
0.976095
5.29361
0.0220023
0.33193
5.79414
0.449665
0.0210979
1.53105
6.57138
0.516047
0.0336607
0.0212575
0.0198553
3.94223
0.0208744
0.0210279
0.0215895
0.0209971
0.0677279
0.925412
0.0206813
0.322698
0.0555835
0.171905
1.05789
0.0960534
0.032089
0.524208
0.0262172
0.020942
0.022543
0.538435
2.49995
0.0452915
5.31245
0.524581
0.381034
0.474197
0.358314
0.020246
0.269316
0.449709
0.0404078
0.0266063
3.81601
0.0567072
0.0209418
0.0697599
3.22744
0.188005
0.714243
0.13134
2.1719
2.463
1.35746
3.49962
0.414701
0.0221499
0.888559
0.0383789
0.0261564
2.223
0.0612679
3.43869
0.403314
0.330618
0.268375
0.0249189
0.0220544
0.0458502
0.0285564
0.101819
0.0213713
0.0365459
0.0219051
0.0215147
0.0198033
0.0214309
2.68234
0.0219743
0.223727
3.08696
0.0204927
0.0540396
0.0222847
1.6845
0.0212317
0.0215563
0.405972
1.02366
0.591212
4.6991
0.0562471
0.0214352
0.176134
0.0230811
0.319843
0.0515799
0.039117
0.0205554
0.290615
0.0213485
0.697639
0.0279159
0.0216401
7.89333
0.899653
3.13794
0.0212006
0.00878286
0.693023
0.475443
1.08575
0.0836067
1.70239
0.124363
0.0599302
0.0216847
0.147763
0.367939
0.0213306
3.51848
2.93739
0.767888
0.1082
0.089186
0.622871
1.90829
0.30531
0.023361
0.54902
0.694309
0.0280216
0.119743
3.96287
0.512475
0.201469
7.32472
0.0213402
0.0280605
0.0197864
2.18317
1.82369
0.0300515
0.576936
0.020967
0.0212004
2.28058
0.0204681
1.0343
0.0219714
0.020973
4.57586
0.0198103
0.0526833
0.0213084
0.331169
5.80561
1.26282
0.5901
0.252637
0.0227382
0.0505217
0.0214859
0.0228001
0.145259
0.0225938
0.821574
0.085171
0.0207251
0.0215443
0.0606392
0.0280821
0.578281
1.27391
0.545132
0.0246744
0.0198324
0.0212799
0.129054
0.0596141
0.437053
0.0208696
0.0559434
1.32083
0.99218
0.464988
0.0215717
0.693886
0.424271
0.0406517
1.22545
0.0214927
0.0218066
0.44233
0.0353818
0.0232831
0.0244976
0.0247744
0.023606
0.0233089
0.0231695
2.35557
0.0315329
0.0291207
0.0229393
0.149545
0.0255935
0.0303711
0.8304
1.80788
0.0202613
0.0210335
2.85683
0.0211354
0.336785
0.0223237
1.80378
0.0259933
0.0273887
4.69065
0.0245071
0.0425097
0.188728
0.0406264
0.399633
0.328267
0.0372764
0.150092
0.0237928
1.5539
5.9234
1.20588
0.419423
0.031367
1.18544
0.155691
0.0214349
0.1344
0.0215354
0.0979058
0.0795223
0.0302722
0.0238015
0.0212193
0.021426
0.0308022
3.68732
0.0216209
0.0235198
0.600694
0.532512
0.0359541
0.0253253
0.0605447
0.100968
0.0337066
0.233255
0.0281189
0.686398
0.360117
0.954649
0.0199942
0.468263
0.412387
0.407671
2.62253
6.72851
1.81454
0.0974225
0.0511542
0.0311895
0.0263487
0.0208747
0.027844
0.0204633
0.585755
1.35178
1.88506
0.0280992
0.0642757
0.0917909
1.26292
0.0215807
0.0275307
0.0602773
0.0513318
1.2482
0.0339959
0.0357162
0.027734
0.0218442
0.363539
1.35624
0.135067
0.0288481
0.0217899
0.0204394
1.83816
0.0224985
0.511424
0.0301823
0.897531
0.0215626
0.0295547
0.427806
0.709009
0.0481354
0.633337
2.42053
0.489956
0.580532
4.30908
7.17711
0.0208855
0.671707
0.0435929
0.128355
7.02505
1.8532
0.0228602
0.418146
0.0210333
2.85454
0.0224964
0.0271837
0.0211951
1.37791
0.0268724
0.565584
0.506356
3.4147
0.394467
0.0307951
0.0215029
1.18698
0.452646
0.0426126
5.53459
0.0296158
8.00088
0.457038
0.0478645
1.93525
1.01903
2.44702
0.638901
0.97793
0.0198459
1.85429
0.069744
2.16938
0.0163186
0.0215454
0.0212825
2.38903
0.92316
0.40409
1.27939
0.41101
2.80818
0.0907154
2.55087
3.0559
0.0206114
3.13681
2.3641
0.0393041
1.66899
0.0233598
2.5701
0.0275114
0.451117
0.190377
0.0214005
2.66328
0.60142
2.55826
0.0208182
1.85535
0.430274
2.35043
0.354919
0.4596
1.3505
0.024117
0.02381
1.83875
1.31713
0.0215009
0.0211466
0.0901802
0.0207188
0.0229664
2.62387
0.0257326
1.82584
0.25167
0.0208722