/*--------------------------------*- C++ -*----------------------------------*\
| =========                 |                                                 |
| \\      /  F ield         | OpenFOAM: The Open Source CFD Toolbox           |
|  \\    /   O peration     | Version:  v2012                                 |
|   \\  /    A nd           | Website:  www.openfoam.com                      |
|    \\/     M anipulation  |                                                 |
\*---------------------------------------------------------------------------*/
FoamFile
{
    version     2.0;
    format      ascii;
    class       volVectorField;
    location    "400";
    object      U_0;
}
// * * * * * * * * * * * * * * * * * * * * * * * * * * * * * * * * * * * * * //

dimensions      [0 1 -1 0 0 0 0];


internalField   nonuniform List<vector> 
18649
(
(0.951321 0.306829 1.1849e-19)
(1.02189 0.00331237 7.44992e-21)
(0.966307 0.248443 -1.23419e-19)
(0.857627 0.0209638 -3.37314e-21)
(1.03881 0.000322928 6.13899e-21)
(0.614929 0.687193 0)
(1.02063 0.00576906 0)
(1.05821 1.6594e-05 -1.16942e-22)
(0.698637 0.115805 -5.28768e-22)
(0.802506 -0.42266 3.1444e-20)
(1.02284 0.00515927 1.43449e-20)
(1.02504 0.00551558 -3.28156e-21)
(1.03801 0.000472529 -5.42551e-21)
(1.03057 0.011682 -6.9303e-21)
(0.366813 0.121619 1.66631e-20)
(1.03968 0.000429567 0)
(1.00529 0.00930598 5.25246e-21)
(1.02056 0.00541862 0)
(0.77587 -0.38949 -1.61953e-20)
(1.02187 0.00324942 0)
(1.02523 0.00564381 6.13463e-21)
(-0.427635 -0.819986 -1.02756e-19)
(1.21478 0.104578 5.223e-21)
(0.899211 0.00686166 0)
(0.80763 -0.441051 -5.35313e-20)
(1.21355 0.0965892 -5.47906e-21)
(0.654815 0.0254256 -1.27295e-20)
(0.597505 0.0221469 -1.68103e-20)
(1.01614 0.000968246 1.10983e-20)
(1.2037 -0.626063 1.55205e-19)
(1.04253 0.0448945 0)
(1.04577 0.0392882 0)
(1.00543 0.00971198 1.50973e-22)
(1.00382 0.0347267 2.14155e-21)
(1.02411 0.000563557 -7.07781e-21)
(1.09097 -0.0104351 0)
(0.428906 0.424292 7.71309e-20)
(0.91277 0.0756631 1.59357e-20)
(1.02291 0.00512579 -1.42079e-20)
(1.02992 0.0117206 1.35132e-21)
(0.871796 0.652869 1.55431e-20)
(1.02844 0.0202821 -3.11845e-21)
(0.819258 -0.194717 4.82949e-21)
(0.603572 -0.0505045 -6.99293e-21)
(0.859721 0.0597933 -3.28102e-21)
(-0.379286 -0.193025 -3.46061e-19)
(1.21942 0.0436106 5.60193e-21)
(1.01014 0.0146892 0)
(1.01912 0.0056362 4.30056e-21)
(0.910319 0.146091 5.47984e-21)
(0.869685 0.0182226 0)
(1.19982 0.139754 -5.38282e-21)
(1.03003 0.00526759 6.25172e-21)
(0.891212 0.664615 8.79906e-21)
(1.05167 0.00320153 7.72314e-22)
(0.673829 -0.0132172 0)
(1.23921 0.614096 0)
(1.01879 0.00578419 -4.26585e-21)
(1.06073 0.00586095 7.86575e-26)
(1.02543 -0.31577 -4.51172e-20)
(1.04829 0.00652556 0)
(1.09741 -0.153926 -2.35694e-20)
(1.01787 0.00785526 0)
(0.976259 0.89088 8.48039e-20)
(1.03559 -0.53082 -7.1451e-21)
(1.16185 0.387826 2.73241e-21)
(1.09027 -0.324639 4.28468e-20)
(1.02569 0.0262924 0)
(0.833017 0.0598769 2.58582e-21)
(-0.551785 -0.76234 -1.81521e-19)
(0.636607 0.0302875 0)
(1.00521 0.0337346 -4.28174e-21)
(1.02077 0.00525257 0)
(1.01808 0.00788527 0)
(1.0747 0.0434118 0)
(0.596615 -0.0912504 4.09146e-21)
(0.57716 0.289103 -4.73639e-21)
(1.02363 0.000548026 8.22306e-21)
(0.477015 -0.301924 -4.27403e-19)
(1.0615 0.0180091 3.28366e-26)
(1.07314 0.0305662 0)
(0.895026 0.0933185 -1.96221e-20)
(0.784082 0.793981 0)
(0.808826 -0.37985 1.82673e-20)
(1.0544 -0.000313546 8.56131e-23)
(0.698765 -0.0227272 -1.76083e-20)
(1.05077 -0.0242347 4.61091e-21)
(1.02836 -0.0460407 -5.21557e-21)
(1.0614 0.0170705 -2.33077e-23)
(0.869678 0.0451675 0)
(0.363832 0.150542 -1.91263e-20)
(0.898734 -0.156388 0)
(0.892125 0.0245137 3.70867e-21)
(1.19785 -0.130071 -1.19752e-20)
(1.04828 0.0132317 -2.17115e-21)
(1.02989 0.00545057 -6.0266e-22)
(1.09145 -0.00359002 1.31613e-22)
(0.830306 0.0181482 0)
(1.16431 0.373253 -3.50759e-21)
(1.04865 0.00604839 -1.62209e-21)
(0.718369 0.647468 3.66417e-20)
(1.04021 0.000318508 -3.00176e-21)
(0.972966 0.234367 0)
(1.058 -9.42398e-05 1.30676e-22)
(0.67959 0.117293 -1.09315e-21)
(0.666984 0.0829062 4.72613e-22)
(0.769924 0.794348 -4.3563e-20)
(0.397986 0.0224334 -1.43738e-20)
(0.682948 0.0148488 4.34474e-21)
(1.0207 0.00493904 0)
(1.02363 0.000888721 2.15638e-23)
(1.0017 0.0152687 8.69673e-23)
(1.03225 -0.057891 4.57506e-21)
(1.03205 0.00367929 1.07861e-20)
(1.04747 0.0120734 0)
(0.830904 0.0142396 -1.23009e-20)
(1.02589 0.0269677 1.98465e-21)
(1.00009 0.0155892 2.23997e-22)
(1.03678 0.000645842 6.41251e-21)
(1.04769 -0.0267227 1.36742e-21)
(1.05084 0.00623739 1.61332e-21)
(0.93453 -0.0028268 -1.05319e-22)
(0.82091 0.0406082 9.08004e-21)
(1.03195 0.00341382 -6.73166e-21)
(1.05494 -0.000363271 1.13924e-22)
(1.02747 0.0218903 0)
(0.334708 0.899983 0)
(1.03318 0.0156285 0)
(1.01609 -0.000363533 2.62445e-23)
(1.05861 0.00170611 -6.26405e-23)
(1.02293 0.00918794 1.18916e-20)
(0.900588 0.943677 -8.65437e-20)
(1.06364 -0.21608 0)
(1.06101 -0.250383 -6.71755e-20)
(1.02486 0.000605473 -1.32841e-20)
(-0.785158 -0.0858585 -1.13701e-19)
(0.609661 0.0956255 8.34392e-21)
(0.362374 0.0281184 1.03783e-20)
(0.623909 0.148836 -8.396e-21)
(0.796475 0.0463164 6.65154e-22)
(1.01516 0.0146131 2.67035e-21)
(1.03381 0.000547866 3.36925e-21)
(1.06035 0.00253497 -7.4069e-24)
(1.02563 0.0184396 5.02645e-21)
(0.612498 0.0116182 -3.67796e-21)
(1.05113 0.00427946 -1.49193e-21)
(1.02333 0.0187427 -2.9033e-21)
(1.101 -0.244698 -5.7464e-20)
(0.650114 0.0864922 2.60323e-21)
(1.02399 0.0128049 5.83145e-23)
(0.593795 0.191152 2.15565e-21)
(1.12325 0.413983 1.72557e-22)
(1.03296 0.000589791 1.05745e-22)
(1.0204 0.00468564 9.91066e-21)
(0.958628 0.00634428 0)
(0.822073 -0.0223347 5.77476e-21)
(1.02435 0.01267 3.32908e-21)
(1.02811 0.00992325 4.63594e-21)
(1.03453 0.00443018 -3.55702e-21)
(1.27013 0.0921642 2.11438e-20)
(0.66854 0.69355 0)
(0.615569 0.335015 -2.42001e-20)
(1.02358 0.0128383 -1.12686e-20)
(0.647585 0.209366 5.88337e-22)
(0.536232 0.452933 5.87415e-21)
(1.03546 0.00105778 3.47818e-21)
(1.14895 0.00922904 -1.99223e-21)
(0.650867 0.126522 -8.15239e-21)
(1.04613 -1.40548e-05 -1.02423e-21)
(1.04939 0.00508533 0)
(1.05441 -0.0245661 -2.16067e-22)
(1.03028 0.000887131 -6.29459e-21)
(1.03605 0.00816862 2.3455e-21)
(1.0227 0.0143933 -5.1568e-21)
(0.921498 0.150481 -5.89288e-21)
(0.988911 0.0522144 -2.0774e-21)
(0.646531 -0.0445772 7.874e-23)
(1.02437 0.0123373 0)
(0.652139 0.121295 0)
(0.624673 0.689313 -3.40643e-20)
(1.027 0.00519129 0)
(0.782332 0.0560235 -1.54569e-21)
(1.04924 -0.000450384 0)
(1.02883 0.00902695 -4.87842e-21)
(1.01924 0.0155694 5.25574e-21)
(1.04995 -0.00104834 0)
(1.05182 0.00351301 2.47952e-23)
(0.951251 -0.00930444 -1.27222e-21)
(1.05028 0.00569317 7.48698e-22)
(1.05782 0.00108369 0)
(1.03138 0.0262884 0)
(0.582945 0.140185 5.31974e-21)
(1.1706 0.373308 4.49574e-21)
(1.05517 -0.0390909 -3.76229e-21)
(0.977581 -0.0764991 0)
(1.03623 0.00806844 -1.95093e-21)
(1.04824 0.00130739 5.87628e-24)
(1.04893 0.000212867 1.9113e-21)
(0.56998 0.437833 -7.94562e-21)
(1.01211 0.0116031 1.4256e-22)
(1.05792 0.000953385 0)
(1.03908 0.000669644 1.44332e-21)
(1.24188 0.0462913 0)
(1.02043 0.00500063 2.04341e-21)
(1.02594 0.0198044 -9.36201e-21)
(1.03016 0.00078133 9.10672e-21)
(1.04369 -0.265301 4.77062e-20)
(0.907905 -0.274976 0)
(1.02538 0.0234923 -1.27183e-21)
(1.02986 0.00668002 0)
(1.04979 0.00571847 -3.9164e-22)
(1.04466 -0.00132863 0)
(1.05188 0.00226627 -5.32088e-22)
(1.06515 0.0482727 1.9113e-22)
(1.03932 -0.686019 -1.4108e-19)
(1.07171 0.0537126 -1.45575e-20)
(1.01918 0.000611954 -1.20641e-20)
(1.03209 0.0258138 -1.62399e-21)
(1.02854 0.0108794 8.71029e-21)
(1.21657 0.0425988 0)
(1.19727 0.0291458 0)
(1.06018 0.00480215 -8.59199e-22)
(-0.771822 -0.0550437 0)
(1.15944 -0.120964 0)
(0.640886 0.362593 9.56356e-21)
(1.14186 0.0173943 1.80542e-21)
(1.10247 0.348203 1.37753e-20)
(0.82345 -0.41216 2.90475e-20)
(1.02026 0.000187369 0)
(1.2241 0.0109341 3.49638e-22)
(1.05774 0.00117733 -1.317e-22)
(1.06389 0.0522795 3.08621e-21)
(1.00825 0.0131803 0)
(1.02439 0.00482318 2.03589e-22)
(0.991973 -0.820864 0)
(1.02725 0.00509159 -6.07686e-21)
(1.03196 0.0202357 -4.30944e-21)
(1.02002 0.016276 1.02674e-20)
(1.05186 0.00233762 5.44416e-22)
(1.05996 0.000125875 -4.78823e-24)
(1.00278 -0.082952 -1.13927e-21)
(1.10126 -0.0785294 0)
(1.05927 -0.200274 0)
(0.469056 -0.364998 0)
(0.703071 0.367089 0)
(1.06034 0.0410671 -7.10171e-21)
(1.05296 -0.0415572 8.97277e-22)
(1.02461 0.000649762 8.85268e-21)
(-0.364391 -0.831088 -8.79576e-20)
(0.944369 0.00664286 2.0497e-21)
(1.0627 0.0489482 7.58926e-21)
(0.860208 -0.389879 -8.14638e-21)
(1.03044 0.0163383 2.99201e-21)
(1.07452 0.045273 -3.28807e-21)
(1.01523 0.0280889 -7.6931e-22)
(1.03534 0.000940089 9.71232e-22)
(1.02986 0.00675524 0)
(1.04906 0.00548389 -1.57203e-21)
(1.21488 -0.0185051 -1.17809e-21)
(1.04664 -8.17765e-05 0)
(0.429757 0.3688 -1.29487e-19)
(1.05371 0.00240387 -3.93502e-22)
(1.05621 0.00441321 0)
(1.00107 -0.0614114 5.30258e-21)
(1.05227 0.00241494 4.92083e-22)
(1.12171 0.338597 -4.88579e-21)
(1.04845 -0.000393796 0)
(1.1903 0.0293527 -2.56756e-21)
(1.0427 0.000277605 0)
(1.04271 0.00160191 8.25981e-22)
(1.44004 -0.108528 -1.35557e-21)
(0.760065 -0.336528 2.469e-20)
(1.06195 0.0406987 2.24537e-22)
(1.04228 0.00201175 0)
(0.398184 0.242027 2.07634e-20)
(0.937321 -0.00218747 3.91009e-21)
(1.03207 0.0067039 -3.04509e-21)
(1.02323 0.0224786 -4.85004e-23)
(0.996131 -0.0759318 0)
(1.0863 -0.171217 2.29427e-20)
(0.637555 -0.0506023 -9.08828e-21)
(1.02924 0.0219769 -6.51997e-21)
(0.836495 -0.257355 0)
(1.01932 0.000490944 4.45185e-22)
(1.05873 0.00163021 -3.78016e-22)
(0.705851 -0.0338414 1.46669e-20)
(1.12235 -0.0523749 0)
(1.02537 0.000861574 0)
(0.611519 0.0831267 0)
(1.05623 -0.000352476 -1.99152e-22)
(1.02644 0.00534744 2.6605e-21)
(0.646681 0.71758 3.59613e-20)
(1.02391 0.00820012 5.01469e-21)
(1.02836 0.0165953 0)
(0.331357 0.808655 3.1065e-20)
(-0.316448 -0.850335 0)
(1.14995 0.730511 6.13813e-20)
(-0.0754808 -1.18745 -2.97067e-19)
(1.0175 0.01478 0)
(1.02766 0.0126654 -5.11246e-21)
(1.04768 0.0106404 0)
(0.658156 0.223452 4.08879e-21)
(1.14923 -0.114132 0)
(1.44979 -0.12967 -5.18233e-20)
(0.745514 -0.206996 -1.50761e-21)
(1.11495 0.0120544 0)
(1.20193 0.0288109 0)
(0.957807 -0.0987978 -1.65421e-20)
(1.01428 0.0126982 2.61312e-21)
(0.876101 0.146543 -3.10278e-20)
(1.02617 0.00539902 2.76979e-21)
(1.04212 0.337311 9.22351e-22)
(1.06005 0.00610593 -7.23775e-25)
(1.05032 0.00384121 1.30388e-21)
(1.03328 0.00933377 -8.46394e-21)
(1.07395 0.025359 0)
(1.032 0.0282065 5.53565e-22)
(0.985314 0.0199812 8.47055e-20)
(0.599156 0.338251 2.21479e-20)
(1.05068 0.00323898 -1.7015e-21)
(0.276197 -0.294669 1.89344e-19)
(1.04219 0.00470559 2.39038e-21)
(1.05034 0.00645685 -8.0333e-22)
(1.023 0.000781448 7.07026e-21)
(-0.00193773 -1.16587 3.9198e-19)
(1.00032 0.0305361 3.51421e-24)
(0.34756 0.773341 -4.05475e-20)
(1.24102 0.0221077 -1.43291e-20)
(1.02448 0.0121111 7.3156e-21)
(1.01891 0.0051539 6.80391e-21)
(1.02993 0.0143575 3.67625e-21)
(0.643955 -0.140028 4.40071e-21)
(1.18825 -0.296012 0)
(1.04372 0.000252715 -2.10543e-21)
(0.819154 -0.00199977 -9.15437e-21)
(1.02699 0.00590399 0)
(1.08856 0.333984 -5.28744e-22)
(1.10461 0.0169677 -3.53161e-25)
(0.953689 0.0691153 -6.47488e-21)
(1.08612 -0.25583 0)
(1.01532 0.0901174 4.75834e-21)
(1.0838 -0.35476 0)
(0.968554 -0.0382431 -8.0964e-20)
(0.625393 -0.225612 4.09274e-21)
(0.831607 -0.450371 -5.96864e-21)
(0.8441 0.00181685 -6.14841e-21)
(0.986944 -0.0369564 1.4769e-21)
(1.02295 0.00581599 -4.23115e-21)
(0.0169615 -1.22775 -1.39711e-19)
(0.759677 -0.371894 0)
(1.03226 0.0197816 6.68432e-21)
(0.957969 -0.252564 -4.4574e-21)
(1.05354 0.00221253 0)
(1.05812 0.0302868 1.03235e-20)
(1.01725 0.0296543 -9.84454e-22)
(0.884636 0.0398038 1.14307e-20)
(1.00277 0.0287847 0)
(0.817395 -0.404978 0)
(1.07511 0.0119726 2.98786e-21)
(1.05208 0.00377929 8.86746e-22)
(1.03282 -0.0462412 5.69168e-21)
(0.842377 0.295811 3.63745e-20)
(1.23113 -0.0164459 2.59922e-21)
(1.02577 0.00733307 -4.51745e-21)
(1.26921 0.323962 -1.21424e-20)
(1.03396 -0.247776 -5.15457e-20)
(1.04704 0.00915484 -6.85164e-21)
(1.05399 -0.00028425 -8.42216e-23)
(1.02976 -0.400204 -2.3837e-21)
(1.0519 0.00229347 0)
(0.970335 0.0053154 -4.26255e-22)
(1.1297 -0.661628 -7.41047e-20)
(1.05962 0.00424013 8.29966e-22)
(1.03169 0.000815122 -1.94069e-24)
(0.396043 0.281147 2.7996e-20)
(1.02402 0.00912883 0)
(0.97502 -0.258533 0)
(1.02013 -0.414027 -3.958e-20)
(0.800935 -0.379617 0)
(1.17839 -0.267971 -2.66325e-20)
(1.19924 -0.257517 8.82441e-20)
(1.05069 0.00315005 9.29994e-22)
(1.05437 0.0243991 -8.25244e-21)
(0.72715 -0.324005 -2.28087e-20)
(0.830665 -0.354237 3.17205e-21)
(1.04386 0.00271025 5.98459e-21)
(1.01634 0.109573 0)
(1.03417 0.00763589 -4.75401e-21)
(1.02966 0.014016 0)
(1.02282 0.000895582 -1.82537e-20)
(1.17065 -0.305316 0)
(1.06122 0.0476357 0)
(1.08169 0.0100098 3.47553e-25)
(1.0446 0.00425046 -5.34775e-24)
(0.631787 0.160443 2.27495e-21)
(1.01391 0.252359 -9.41182e-22)
(1.07785 0.00235641 4.12622e-21)
(1.05867 0.000322475 8.87522e-23)
(1.04503 0.000640938 -9.14992e-22)
(1.04225 0.00381652 -8.49696e-23)
(0.730109 -0.186444 0)
(0.700605 -0.38138 0)
(1.02496 0.0233815 0)
(1.12736 0.279163 0)
(1.08219 0.00765441 3.17333e-22)
(1.04755 -0.0003709 0)
(1.0342 0.00748478 0)
(1.23878 0.247354 0)
(1.05103 0.00259583 0)
(0.993627 -0.0392465 7.25566e-21)
(1.0307 -1.72696e-05 3.45019e-21)
(1.09663 0.281789 0)
(0.882434 -0.141258 5.32936e-21)
(1.02235 0.00986355 0)
(0.632334 -0.0679682 2.40638e-20)
(1.01877 0.0239816 -7.39333e-22)
(0.599372 -0.134829 6.80672e-21)
(1.01458 -0.0473492 1.51852e-20)
(1.03235 0.0107893 9.67709e-21)
(1.0279 0.0209985 5.44354e-21)
(0.999129 0.0378825 -8.37729e-21)
(1.07281 0.0132724 1.32261e-22)
(0.897424 0.142385 0)
(0.73476 -0.418801 -1.30853e-20)
(1.25935 0.143432 -4.08866e-20)
(1.06 6.50285e-05 0)
(1.23093 -0.0330018 -3.76339e-21)
(1.26105 0.0486676 7.01231e-21)
(1.02341 0.0230145 3.89114e-22)
(0.299905 -0.949164 0)
(0.84222 -0.453242 3.42661e-20)
(1.05149 0.00419796 3.8587e-22)
(1.01502 -0.028554 6.19823e-21)
(1.01664 -0.0291785 0)
(0.134397 -0.49681 0)
(1.02289 0.00474737 8.48523e-21)
(1.02946 0.0094093 7.36999e-21)
(0.83467 0.308884 -1.07353e-20)
(1.02288 0.00552146 0)
(1.06553 0.0031381 4.64433e-21)
(1.05159 0.00389325 -3.47267e-22)
(1.06015 0.00134955 -2.62965e-23)
(1.02432 0.00783642 5.66696e-21)
(0.956005 0.0493407 5.85389e-21)
(1.02293 0.0101845 -2.45803e-21)
(1.03109 0.0153924 0)
(1.03237 0.010613 0)
(0.852225 -0.13333 -6.69743e-21)
(0.572422 0.632922 0)
(1.05274 0.0173528 1.30356e-20)
(1.023 0.0140815 8.63307e-22)
(0.347614 0.854869 0)
(1.02258 0.0140932 3.37479e-21)
(0.97936 0.0645335 2.7388e-21)
(0.999129 0.037376 8.03381e-21)
(1.03417 0.000285349 -4.24171e-21)
(1.02461 0.00519505 3.63994e-21)
(1.0428 0.00501131 -6.37562e-24)
(0.52754 0.532803 -1.15473e-20)
(0.676371 -0.0657907 2.07604e-20)
(1.03528 0.0176166 -1.38404e-23)
(0.280208 -0.333669 -1.2294e-20)
(1.0229 0.00485818 -1.21739e-20)
(0.669464 -0.0407923 0)
(0.607852 -0.605221 -3.87864e-20)
(1.02173 0.00919014 -2.92771e-21)
(1.0603 0.00142175 3.68221e-23)
(1.06 0.00766257 3.15679e-24)
(1.03344 0.0146677 0)
(1.04146 0.000274752 0)
(1.08132 0.061599 3.40279e-22)
(1.05586 0.00434918 -3.65608e-22)
(1.07164 0.0412412 0)
(0.813704 -0.0180911 6.1775e-21)
(1.19925 0.168887 5.40334e-21)
(0.978011 -0.101875 -1.93353e-20)
(1.02135 0.00537736 0)
(1.03251 0.0164867 0)
(1.00612 0.0740934 2.49438e-21)
(0.502815 0.54193 -4.40553e-21)
(0.984168 0.0450903 -1.0767e-21)
(0.503865 -0.267604 3.37215e-19)
(1.04467 -0.0270938 0)
(1.04878 0.00582132 0)
(1.05603 0.00827605 0)
(0.534803 0.395492 5.40124e-21)
(1.0273 0.0075548 -3.60044e-21)
(1.24923 0.218626 0)
(-0.0909887 -0.397628 0)
(1.02631 0.000489007 4.31522e-21)
(1.07572 0.0548234 -4.91967e-21)
(0.843353 0.283248 1.01987e-20)
(1.0596 0.0122575 -1.75001e-23)
(1.15013 -0.161086 0)
(1.03464 0.00418387 3.72897e-21)
(1.14932 -0.180882 6.68025e-21)
(0.990757 -0.174445 1.04807e-23)
(1.03339 0.000977321 3.98414e-21)
(1.05374 0.0018224 -9.89028e-22)
(1.03224 0.0014775 0)
(1.22382 0.14074 1.51433e-21)
(1.0288 0.0209118 5.01355e-21)
(1.03428 0.00781458 -2.85876e-21)
(1.00597 0.0300183 2.73462e-21)
(1.20329 0.130575 0)
(1.20938 0.336242 -2.77212e-21)
(0.860557 0.351899 -3.74207e-20)
(1.05767 0.00127193 5.90376e-23)
(1.03446 0.00794814 0)
(0.823052 -0.401342 -2.00045e-20)
(1.06142 -0.0120511 3.00527e-21)
(1.02383 0.0065339 4.94846e-21)
(1.04619 -0.000495865 -3.71812e-22)
(0.806264 -0.190732 -3.31432e-21)
(1.05176 -0.230653 -1.87486e-20)
(1.03878 -0.0574999 -2.81616e-21)
(0.597265 -0.00243106 -5.37577e-21)
(1.02543 0.00578368 0)
(0.924049 0.283312 -1.57139e-20)
(1.03473 0.00820353 -2.44284e-21)
(1.0334 0.00381149 4.40946e-21)
(1.02246 -0.0338926 0)
(1.01735 0.00123812 -1.20743e-20)
(-0.703659 -0.16304 -3.18436e-19)
(1.03363 0.00380714 -2.4834e-23)
(0.677535 -0.134435 -1.3825e-20)
(0.984865 -0.487145 7.26437e-20)
(0.426575 0.0491888 0)
(0.612235 -0.0876744 1.18104e-20)
(0.979426 -0.0508802 0)
(1.04491 0.00107148 0)
(1.03554 -0.379739 -8.34484e-20)
(1.05187 0.00371793 3.5786e-22)
(1.04497 0.00103941 -1.34605e-21)
(0.702302 0.024347 -3.97717e-20)
(1.03264 0.00781893 -9.49682e-21)
(1.06054 0.0027721 1.17795e-23)
(1.04142 0.0924631 0)
(0.59871 0.383501 0)
(1.01736 0.00365411 7.44449e-21)
(0.923316 -0.258958 2.37082e-21)
(1.05016 0.0428554 0)
(-0.000936355 -1.19816 1.34684e-19)
(1.02678 0.00737857 0)
(0.911521 -0.0113217 -4.02797e-21)
(1.48994 -0.208056 -5.58504e-21)
(0.744603 -0.449505 -1.45882e-20)
(1.00759 0.0330799 2.82561e-21)
(1.04285 -0.118853 1.45353e-21)
(1.02204 0.000160839 0)
(1.03915 0.0449269 0)
(0.970491 0.370223 -1.15381e-19)
(1.07985 0.0149229 -2.73435e-21)
(0.936761 0.276131 1.41416e-20)
(1.02382 0.00651345 6.01738e-21)
(1.43799 0.00504792 -2.88396e-20)
(1.08043 0.0113831 0)
(1.22398 0.209027 -4.68783e-21)
(1.02651 0.00755285 0)
(1.03226 0.0132048 7.1536e-21)
(0.60497 -0.581601 6.89237e-20)
(1.22746 -0.0493051 1.04093e-21)
(0.767215 -0.175365 0)
(1.01385 0.0708024 -1.37277e-20)
(1.04219 0.00465876 2.45929e-21)
(1.02346 0.00761244 -1.36762e-21)
(0.149689 -0.449893 0)
(0.859442 0.139235 3.09483e-20)
(1.075 0.0508996 -1.05918e-22)
(1.02912 -0.0452415 -1.20111e-20)
(1.0521 0.035097 0)
(0.901619 0.00423798 0)
(1.05828 0.0128464 -9.56327e-24)
(1.03892 0.00826222 3.73574e-21)
(0.85921 -0.457357 2.69797e-20)
(1.05852 0.00159013 -8.06121e-23)
(0.587475 -0.0319895 5.05139e-21)
(1.04025 -0.00102335 2.9621e-21)
(0.854964 -0.442307 -1.48366e-20)
(1.01825 0.00744529 0)
(1.03291 0.00258468 0)
(1.02736 0.00488293 -3.00972e-21)
(0.288119 -0.372812 8.87709e-21)
(1.06139 0.00912787 -7.94052e-24)
(1.05278 0.00109783 0)
(1.02785 0.021248 0)
(1.01922 0.00507319 -9.31321e-21)
(0.69042 -0.199054 0)
(-0.193059 -0.230481 -9.12104e-20)
(1.02566 0.00592204 3.57398e-21)
(1.03008 0.00467382 7.44764e-21)
(1.04839 0.00551551 3.1863e-21)
(1.00902 -0.368373 3.81667e-20)
(1.05162 -0.00159723 0)
(1.24868 0.228945 -8.85672e-21)
(1.02802 0.000448359 -4.00767e-21)
(1.017 0.00393046 0)
(0.688274 -0.224563 -8.78549e-24)
(1.04003 0.000329133 0)
(0.732981 0.21158 1.28693e-21)
(1.05483 0.00563335 -4.04532e-22)
(0.309131 -0.874042 0)
(1.04584 0.00828975 1.09523e-21)
(1.05816 0.00121207 1.43941e-22)
(1.03529 0.0050258 4.29297e-21)
(1.19815 -0.133977 8.73958e-21)
(1.04701 -0.000451922 1.81739e-23)
(1.11381 0.411454 6.94638e-21)
(1.0175 0.0037482 3.89546e-21)
(0.622791 0.0525799 -7.82567e-21)
(1.02286 0.00943988 -2.72006e-21)
(-0.0897529 -0.340915 -2.31016e-19)
(1.05766 0.0104126 7.90877e-24)
(1.02691 0.00546209 3.08549e-21)
(0.796022 -0.124679 2.23321e-21)
(1.02661 0.00111131 -1.07098e-20)
(1.039 0.00805819 0)
(1.04275 0.000768468 0)
(0.752728 -0.244666 -2.82395e-21)
(1.1741 0.141895 -1.88102e-21)
(1.03322 0.00348183 -2.31564e-21)
(1.182 0.0391496 2.17711e-21)
(0.847788 0.385541 0)
(1.03205 0.0138792 0)
(1.05237 -0.0970878 0)
(1.00897 0.0316208 3.86638e-21)
(0.557906 0.614603 -1.49613e-20)
(-0.641799 -0.255521 7.90666e-19)
(0.846569 0.455876 -3.34364e-20)
(0.572391 0.361524 -1.71642e-22)
(1.0187 0.00630794 -6.24727e-21)
(0.675947 0.34465 -3.27841e-21)
(0.491289 0.786089 1.13331e-19)
(1.02189 0.000502369 0)
(1.18311 -0.106873 3.81534e-22)
(0.76679 0.445354 0)
(1.0295 -0.0549791 2.56742e-21)
(1.4826 -0.163955 0)
(1.02139 0.000490316 0)
(0.878533 -0.585427 0)
(1.01826 0.00716697 0)
(0.432673 0.0997885 0)
(0.872703 -0.0758692 0)
(1.02937 0.00972768 -7.71562e-21)
(0.780797 -0.202341 1.89146e-21)
(1.04195 0.000555373 -5.83899e-22)
(1.02368 -0.0431683 0)
(1.05189 0.00342304 -3.59587e-22)
(1.0431 -0.00186065 0)
(0.837798 -0.557278 5.40583e-20)
(1.05485 0.00561393 -1.01471e-21)
(0.809955 -0.187162 -9.81971e-22)
(0.706792 -0.209484 0)
(1.29405 0.00543899 0)
(1.02202 0.0063342 0)
(0.79251 -0.661852 0)
(0.902914 0.059853 -1.77842e-21)
(1.03135 0.0197281 0)
(0.526037 0.55892 -1.79716e-20)
(1.02921 0.0154035 -3.52962e-21)
(1.03138 0.000613339 0)
(0.621078 -0.114138 -8.11847e-21)
(1.05222 -0.000348736 -1.15922e-22)
(0.982566 -0.0562761 -5.85696e-21)
(1.26759 -0.00118256 3.67436e-21)
(1.03452 0.00358928 -4.16576e-21)
(1.07379 0.0130832 -2.89637e-21)
(0.984373 -0.0865685 0)
(1.02502 0.0229872 0)
(1.04316 0.00578927 -1.19896e-23)
(1.05012 -0.177973 -3.53712e-22)
(1.0105 0.0320831 -3.65319e-21)
(1.02978 0.00392137 0)
(1.03698 0.00843342 0)
(0.962211 -0.121465 -1.81166e-21)
(0.840379 0.352274 9.75067e-21)
(1.17686 0.124587 -4.44502e-21)
(0.707333 0.0471218 -1.49594e-21)
(0.842169 -0.591382 0)
(0.741422 0.211509 0)
(1.02297 0.0045499 0)
(0.888072 -0.391918 -2.41961e-21)
(0.164602 0.746766 1.21076e-20)
(1.02051 0.00620607 0)
(0.955908 -0.0946931 1.77718e-20)
(1.03736 0.00806202 -4.67463e-21)
(0.976792 0.0508579 -1.14071e-20)
(1.02201 0.00616934 0)
(1.03565 0.000399935 7.17136e-21)
(1.02706 0.00776262 -3.91903e-21)
(1.0394 0.00760444 0)
(1.01806 0.00556203 -2.17294e-21)
(0.668864 0.652198 -3.83834e-20)
(0.355594 -0.0219851 5.16935e-20)
(0.840871 0.38308 1.09145e-21)
(1.07177 0.0366666 7.98125e-21)
(1.05056 -0.00217446 -6.74813e-22)
(0.504175 0.769538 -1.47133e-21)
(1.0533 0.00109242 -1.15393e-21)
(0.759722 -0.142248 -4.24298e-21)
(0.924426 0.104285 1.24953e-22)
(0.766411 -0.0309227 0)
(1.02713 0.0254755 -5.02467e-21)
(0.489152 0.713561 -1.37982e-21)
(1.04266 0.00417318 6.67069e-22)
(0.82137 -0.5956 -3.00459e-20)
(1.07963 0.00787898 -1.35012e-21)
(0.771866 -0.127112 -2.93216e-21)
(1.02747 0.0174453 0)
(0.685342 -0.344201 3.00693e-21)
(0.873316 -0.568556 1.95566e-20)
(1.075 0.0459069 -7.12491e-21)
(0.365134 -0.476374 0)
(1.04473 0.000719025 -3.24638e-21)
(0.735992 -0.958031 0)
(1.04662 -0.00033024 0)
(1.12345 0.11588 0)
(1.07033 0.707572 4.93284e-21)
(1.04917 0.00525286 1.72781e-21)
(1.0582 0.000520847 1.78938e-23)
(1.03298 0.00350411 0)
(1.05192 -0.000317496 -7.1316e-22)
(0.879737 0.372174 0)
(0.271033 0.210631 1.98114e-20)
(1.02386 0.0049264 -3.80475e-21)
(1.19981 0.0427659 0)
(0.756209 -0.712286 2.33942e-20)
(0.825873 -0.426077 5.01475e-21)
(1.03946 0.00726423 0)
(1.34203 0.177476 3.83984e-22)
(1.04979 0.00520166 4.14854e-22)
(1.02378 0.00464059 3.00886e-21)
(0.567586 0.231277 0)
(0.637413 -0.0690071 4.45464e-21)
(0.986199 0.0439289 0)
(1.07905 0.205024 -1.37417e-20)
(1.03307 0.0269695 -2.00201e-21)
(0.588096 0.238328 2.65127e-21)
(1.04344 0.000311099 1.89758e-21)
(1.04063 0.0217531 0)
(1.23431 0.367353 0)
(0.813297 -0.20844 -1.49557e-21)
(1.05857 0.00130057 -2.36815e-22)
(1.12577 -0.0659842 -6.43477e-22)
(0.893356 -0.128469 2.53234e-21)
(1.01807 0.00532283 -1.2358e-20)
(1.03593 0.0181117 3.33021e-21)
(1.0579 0.00154374 -1.18038e-22)
(0.886539 0.0107535 0)
(0.966925 0.00138851 0)
(1.05227 0.00234422 5.21002e-22)
(1.0133 0.00438292 0)
(-0.123783 -0.60986 -1.62753e-19)
(0.961783 -0.105208 0)
(1.07296 0.204777 -8.92738e-21)
(0.731901 -0.226023 2.97268e-21)
(1.02725 0.0258778 6.95647e-21)
(0.839691 -0.440962 2.88799e-20)
(1.0333 0.00943965 0)
(1.05204 0.00254595 0)
(1.05779 0.00106301 0)
(0.9958 -0.0568894 -2.81239e-21)
(0.823476 0.00161166 2.99097e-20)
(1.01682 0.00377 0)
(1.05215 0.00321409 3.55511e-22)
(1.04551 0.00752214 0)
(1.17351 -0.162641 2.96702e-21)
(1.04174 0.0231755 3.07208e-21)
(0.834212 -0.438232 -4.98964e-21)
(0.858539 -0.468696 0)
(1.02297 0.00458812 6.12742e-22)
(1.12367 0.0929896 1.72102e-20)
(0.92286 -0.546942 2.6968e-21)
(1.03057 0.00836888 6.81506e-21)
(1.05361 0.00154978 -1.61102e-21)
(1.05281 0.00115925 0)
(1.05859 0.00214903 2.67445e-23)
(1.12629 -0.138503 0)
(1.04489 -4.37184e-05 1.92747e-21)
(0.727415 -1.0541 0)
(0.97952 0.107657 -9.02537e-21)
(0.937562 0.113869 0)
(1.05196 -0.000385819 0)
(1.02043 0.00590563 -8.1849e-21)
(1.02678 0.0245378 3.35883e-21)
(1.05006 -0.000363432 5.7681e-22)
(1.16288 0.0307748 1.49476e-21)
(1.39659 -0.610697 -1.87128e-19)
(0.726762 0.610108 0)
(0.53324 0.934536 -5.53685e-20)
(0.883167 -0.596686 0)
(1.42762 -0.0110582 4.2563e-20)
(1.03755 0.000904501 -6.70402e-21)
(1.01965 0.00577512 -5.14045e-21)
(0.907329 -0.507118 0)
(0.969488 0.0105607 -2.35767e-21)
(1.36496 -0.435236 7.01029e-20)
(1.06628 -0.00785788 9.21525e-22)
(0.825933 0.00920705 -1.51607e-20)
(0.606848 0.00947227 1.28225e-20)
(0.593793 0.0894728 -6.06531e-21)
(0.708425 0.142527 4.57774e-22)
(1.16429 0.0582895 0)
(1.05244 0.0023048 -1.52904e-21)
(1.04878 0.000170689 2.6387e-21)
(1.04892 0.0350646 0)
(1.03013 0.00339372 6.16958e-21)
(0.450779 -0.256603 5.09019e-22)
(1.38878 -0.060769 -8.26122e-21)
(1.05841 0.00278862 0)
(1.02202 0.0100273 -2.94028e-21)
(0.992931 0.040837 6.92556e-21)
(1.04868 -0.0964743 4.22984e-22)
(0.490139 0.548138 -2.3921e-19)
(1.24031 0.0167595 8.8257e-22)
(0.374897 0.0359144 9.56336e-20)
(1.02336 0.000842298 1.59893e-21)
(0.334573 -0.0552448 0)
(1.02286 0.00366621 -6.20099e-21)
(1.02352 0.0168248 0)
(1.02273 0.0288801 3.77486e-21)
(1.05846 0.000479848 -2.26741e-23)
(1.0262 0.0106348 -5.00031e-21)
(1.04429 -0.0414383 -6.98709e-20)
(1.03036 0.00411414 0)
(1.0177 -0.0932927 2.16622e-20)
(1.09551 -0.0144676 0)
(1.02338 0.00103452 -2.72173e-21)
(1.02599 0.000330837 5.5353e-21)
(1.05573 0.00834129 1.17296e-23)
(1.18659 0.160293 1.38185e-20)
(0.90938 0.062496 2.62375e-21)
(1.09984 0.0184547 1.48967e-21)
(0.865636 0.499089 3.39344e-20)
(1.03005 0.0192347 0)
(0.941491 -0.094952 -6.57529e-23)
(1.27974 0.161549 -2.38454e-21)
(0.841221 -0.170517 0)
(1.02499 0.00548973 0)
(1.02717 0.021312 0)
(1.05987 0.000219445 0)
(0.975613 -0.145471 -1.25962e-21)
(1.03368 0.0200939 1.802e-23)
(1.04412 0.00022731 2.02126e-21)
(1.05525 0.00563934 -4.62374e-22)
(1.05841 0.00269693 -2.65615e-22)
(1.05866 0.00247984 -2.08119e-23)
(0.122132 0.702253 -6.22584e-20)
(0.97534 -0.0712335 0)
(1.09937 0.0124022 -1.18596e-21)
(1.17027 -0.0403786 -3.12067e-23)
(1.03404 0.00411766 0)
(0.993854 0.103754 8.50688e-21)
(1.06288 -0.032185 0)
(1.39793 -0.147651 9.74082e-20)
(1.04413 0.00594479 0)
(1.05516 0.00569722 0)
(1.02573 0.00760048 -3.6586e-21)
(1.05305 0.00588102 -3.68347e-23)
(1.03842 0.000638586 -3.77363e-21)
(0.39717 -0.34852 0)
(1.06661 -0.00954445 -1.80327e-21)
(1.10052 -0.166396 2.95376e-21)
(1.05163 0.00279959 2.41678e-22)
(1.05411 -0.0314049 5.47747e-21)
(1.03381 0.00411613 -4.46785e-21)
(1.03488 0.000884089 0)
(1.05757 -0.0286421 -2.74258e-21)
(1.05798 0.00149815 4.63677e-23)
(1.05334 0.00592199 6.82456e-22)
(1.00775 -0.0922923 -2.79036e-20)
(0.817872 -0.423045 -2.06379e-20)
(0.696082 -0.229397 1.56902e-21)
(-0.59817 -0.743056 4.92368e-19)
(0.994613 0.0402339 -7.13057e-21)
(1.01862 0.00604319 2.38049e-21)
(1.04431 0.00595308 -3.30598e-21)
(0.868768 -0.47954 -1.47854e-19)
(1.05808 0.00215411 0)
(0.702397 -0.339462 0)
(1.38678 -0.0497181 -6.73441e-21)
(0.202148 -0.330996 -2.35467e-20)
(1.05244 0.00225031 0)
(1.18313 -0.696484 0)
(0.828981 -0.485575 0)
(1.02338 0.00892018 -7.91529e-21)
(1.05575 -0.0154312 -6.00387e-21)
(0.987798 -0.161215 8.99587e-22)
(0.206771 -0.274325 -1.03784e-19)
(1.02178 0.000177484 0)
(0.977841 0.0472212 6.88208e-21)
(1.01954 0.000936878 9.27536e-21)
(0.865794 0.137516 -3.84444e-20)
(0.47868 -1.16816 0)
(1.05872 0.00302995 -1.95435e-22)
(0.849006 0.175741 3.74652e-20)
(1.02713 0.024238 -1.47974e-21)
(1.04186 0.000569349 -3.53618e-21)
(1.02512 0.00957192 -5.16508e-21)
(1.03139 0.000955681 0)
(1.01216 0.00552535 -1.47513e-21)
(1.05816 0.00147439 1.00538e-22)
(1.3414 -0.177828 2.90512e-20)
(1.38136 -0.0891133 0)
(1.05691 0.00106174 2.10465e-22)
(1.02324 0.00414588 -7.27367e-21)
(1.02563 0.00739784 -1.84856e-21)
(1.05459 0.0219087 -4.70494e-21)
(1.03599 0.00460049 4.33046e-21)
(-0.16016 -0.612817 2.0492e-20)
(0.506044 0.929195 0)
(0.897745 -0.119051 -3.02295e-21)
(1.05785 0.00150537 -4.66868e-23)
(1.0576 0.00135325 3.09546e-23)
(1.06041 0.0023498 7.48306e-24)
(-0.672985 -0.487456 6.15326e-20)
(0.922159 0.0302436 0)
(0.835355 -0.318074 -4.14221e-20)
(0.940085 -0.262774 2.30026e-21)
(1.0521 0.00319263 8.97011e-22)
(0.752509 0.784515 2.29254e-20)
(0.734165 0.482928 2.38231e-20)
(0.26941 0.245581 -2.09641e-20)
(1.05776 0.00147291 0)
(1.0556 0.00555293 0)
(1.21685 0.451239 1.01018e-20)
(1.05446 -0.0021 3.38035e-21)
(0.724111 -1.17217 -1.17909e-19)
(1.03068 0.00439599 5.97599e-21)
(1.04642 -7.25549e-05 -2.21826e-21)
(1.05059 0.000296013 0)
(0.957752 0.0692754 4.70282e-21)
(0.891421 0.0509361 4.09834e-21)
(1.05808 0.00111689 0)
(1.00377 -0.0118663 1.69083e-21)
(1.14964 0.0247367 6.86508e-24)
(1.03807 0.000398426 1.7682e-21)
(1.22284 -0.00128226 0)
(1.16193 0.648181 0)
(0.703916 0.159317 0)
(0.973233 -0.099444 2.27331e-20)
(0.633155 0.0923097 1.15356e-20)
(1.0185 0.00689783 0)
(1.04217 -0.0977145 5.42503e-20)
(1.08294 0.147539 1.0233e-20)
(1.05138 -0.000449713 -4.33972e-22)
(1.03466 0.000538351 -3.605e-21)
(0.621092 -0.198182 0)
(0.67778 -0.00864357 3.13694e-22)
(0.834811 -1.09401 1.66015e-19)
(0.385037 0.531783 0)
(1.03188 -0.000492145 0)
(1.05565 0.00541019 4.80136e-22)
(0.991806 -0.069445 0)
(1.03427 0.0207894 2.49903e-21)
(0.758356 -0.731618 2.96668e-20)
(1.17568 -0.155202 0)
(1.05296 0.000976636 -1.69276e-21)
(1.0514 -0.000309993 2.02791e-22)
(0.515988 0.66416 1.20227e-21)
(1.02534 0.00472773 -2.71288e-21)
(1.22598 -0.0622181 2.26149e-21)
(1.01149 0.0068528 1.31029e-21)
(0.25644 0.0686702 -1.61782e-21)
(0.836038 -1.0302 -2.55966e-19)