/*--------------------------------*- C++ -*----------------------------------*\
| =========                 |                                                 |
| \\      /  F ield         | OpenFOAM: The Open Source CFD Toolbox           |
|  \\    /   O peration     | Version:  v2012                                 |
|   \\  /    A nd           | Website:  www.openfoam.com                      |
|    \\/     M anipulation  |                                                 |
\*---------------------------------------------------------------------------*/
FoamFile
{
    version     2.0;
    format      ascii;
    class       volScalarField;
    location    "50";
    object      k;
}
// * * * * * * * * * * * * * * * * * * * * * * * * * * * * * * * * * * * * * //

dimensions      [0 2 -2 0 0 0 0];


internalField   nonuniform List<scalar> 
33474
(
0.000133485
0.000108921
0.0189334
9.87237e-05
0.000114044
0.0159965
0.000102267
0.000117226
0.000117577
9.90785e-05
0.000133152
0.000105218
0.000115297
0.00010993
0.000393724
0.000229411
0.000113337
0.000224317
0.0654907
0.00011354
0.00010698
0.000110765
0.000107828
0.00168045
0.00227359
0.00011024
9.74835e-05
0.00169784
0.0620464
0.000107328
0.000102781
0.00010617
0.0021441
9.84807e-05
0.00045568
0.000526247
0.000107431
0.000119521
0.000110112
0.000454141
0.000141949
0.0261838
0.0135318
0.000147351
0.0790936
0.0947894
0.000145715
0.000459799
0.000102222
0.000134778
9.87389e-05
0.000111212
0.0026378
0.0401448
0.000114203
0.00391788
0.000111834
0.000102127
0.0467614
0.0446498
0.000102169
0.000107525
0.0301352
9.67951e-05
0.000133777
0.000111667
0.0619882
0.0787439
0.000102118
0.0555411
9.84678e-05
0.000109568
0.000146044
9.90698e-05
0.000106211
0.000132715
0.000107336
0.000102263
0.00011403
0.000167706
0.0554151
0.000110628
0.0224985
9.3862e-05
0.000132451
0.0625207
0.000302246
0.045886
0.0257008
0.000102591
0.00182441
0.000125925
0.000234307
0.000102719
0.000105884
0.000111095
0.000106627
0.00011419
9.0942e-05
0.0421371
9.94128e-05
0.00212773
0.0762121
0.000110607
0.000288055
0.0952867
0.00108382
0.000128826
0.000100883
0.00017858
0.000203153
0.000132505
0.0416043
0.000107221
0.000223631
0.0274448
0.00012062
0.000110744
9.66803e-05
9.70612e-05
9.50908e-05
0.000112683
9.65467e-05
0.000100758
0.000550306
0.0267979
0.00019478
9.80399e-05
0.0256147
0.0751275
0.000497918
0.0408819
0.109046
0.00013703
0.000107249
9.41482e-05
0.000128864
0.000108735
0.000105904
0.000128858
0.0462051
0.0261832
0.000145486
0.000104318
0.000130678
0.000185456
0.0278819
9.7983e-05
0.00011692
0.000137486
0.000133709
0.000107722
9.76135e-05
0.000107961
0.000111332
0.000100775
0.0623262
9.68275e-05
0.000187792
0.0266394
0.000130932
0.000152132
0.0447077
9.51462e-05
0.0796043
0.000113578
9.18989e-05
0.000116315
0.000134095
0.000118101
0.000182881
0.00012945
0.000117868
0.065519
0.000107568
9.75375e-05
0.0440643
0.00010708
0.00103855
0.000107219
0.000121245
9.83481e-05
0.000107601
0.0753796
0.00010898
0.00013286
0.000122248
0.063491
0.0463839
0.000118899
0.000112516
0.0687916
0.00010607
0.000132076
0.038034
0.000167819
9.15616e-05
0.00012471
0.0303466
0.00011868
9.43006e-05
0.0018226
0.000112998
0.00010779
0.00012853
0.000118593
0.00551112
0.000122014
0.000487118
0.000458882
0.000102625
0.0221633
0.000217874
0.000110822
0.000111483
0.0770424
0.000120817
0.0787758
0.000108434
0.000113075
0.000404854
0.000127413
0.00010662
0.000215368
0.0137867
0.000107706
0.000357329
0.000132573
0.0461546
0.0932653
9.77732e-05
0.00514351
0.000116903
0.0631344
0.0641756
0.000126847
0.000106305
0.000309448
0.000106391
0.0679339
0.000349345
0.0380735
0.000101503
0.000111376
0.000108045
0.0111095
0.000186526
0.000104565
0.0143978
9.88038e-05
0.00238535
0.00012655
0.0293151
0.00379435
0.00316083
0.000109014
0.00010025
0.000107506
0.065322
0.0116497
0.000100938
0.000117
0.000143384
9.44575e-05
0.000113016
0.00012631
0.0676062
0.000124631
9.90531e-05
0.000180971
0.000105136
0.000104672
0.000107949
0.000120007
0.0405937
0.000108859
0.000287616
0.0610181
0.000110084
0.000102297
0.000126907
0.000107238
0.000102219
0.000104898
0.000105913
0.000100346
0.000113106
0.0156959
9.67595e-05
0.000105159
0.0304053
0.000126639
0.000138541
0.036023
0.0223248
0.0235583
0.000112388
0.00101373
0.000476975
0.000205204
0.00573966
0.0182694
0.0385029
0.000207976
0.00156293
9.15983e-05
0.000108073
0.0345806
0.0815651
0.000109535
0.000108199
0.000107256
0.000119
0.000107257
0.000106823
0.0450627
9.848e-05
0.000951025
0.000105537
0.0380889
9.45777e-05
0.00010305
0.00010892
0.000117082
9.39125e-05
0.000561443
0.000126368
0.000105136
0.000100387
0.000117144
0.0913272
0.000102186
0.000121346
0.000147343
0.000131316
0.0071471
0.000245401
0.000104518
0.0635536
0.0403039
0.000145804
0.0141195
0.000116565
0.000111667
0.000115273
0.00375408
0.000103101
0.000147586
0.000113691
9.18795e-05
0.000116715
0.0240704
0.000114073
0.0457546
0.0319579
0.0152681
0.0844773
0.0797822
9.59096e-05
0.000121708
0.000217597
9.18972e-05
0.0633494
9.84251e-05
0.000110522
0.0127905
0.000109626
0.000111205
0.000149398
0.0126216
0.000123997
0.000110998
0.0629305
0.000107929
0.000110425
0.0421216
0.0310212
0.00010514
0.0146252
0.000131182
0.0188383
0.00810524
0.000107582
0.000142575
0.000271724
0.042801
0.00010728
0.00010409
0.000105707
0.0460758
0.0870116
0.000106675
0.000143786
0.0140773
0.000105821
0.000118172
0.000116905
0.000180045
0.000132724
0.000102155
0.0339367
0.0075374
0.000145395
0.000169971
0.000106952
0.000117064
0.0252458
0.000279032
0.000116589
0.000146435
0.000127075
0.0393378
0.000145014
0.0235951
0.000117118
9.71625e-05
9.83458e-05
0.0543297
9.65821e-05
0.0327614
0.000101115
0.0715824
0.0167219
0.000101741
0.0650101
0.000133071
0.012919
0.0414228
0.000256808
0.0734429
9.29561e-05
0.00820331
0.0363614
0.000123003
0.000107271
0.000120393
0.000110622
0.000113354
0.000126925
9.88992e-05
0.000111036
0.00014436
0.000103217
0.000112478
0.0420479
0.0114877
0.000102117
9.78857e-05
9.91394e-05
0.000107722
0.00010796
0.0609076
0.000104624
0.00011025
0.0118308
0.00012746
0.000111516
0.000108169
0.00278749
0.000175888
0.0114175
0.070785
0.0625132
0.0279241
0.0445353
0.0158251
0.000129031
0.0888604
0.000122384
0.000122991
0.0479738
0.000119312
0.0379746
0.0514575
0.0584053
0.00022546
0.000101546
0.000107116
0.000117339
0.000131576
0.0546601
0.000123368
0.0765294
0.126544
9.61692e-05
0.0662586
0.0422614
0.00012677
0.0183267
0.000101698
0.000103376
0.000111561
0.0507403
0.000126988
0.000120889
9.45768e-05
0.000107824
0.000111195
0.0205538
9.31518e-05
0.0626377
0.000101622
0.000113526
0.0697031
0.000174104
0.000282511
0.00192495
0.00013234
0.024196
0.0447088
0.0632391
0.000192539
0.000129006
0.000119512
0.000107182
0.0460616
0.000112279
0.0623911
0.0610012
0.00011467
0.000105283
0.000127153
0.0963223
0.000107494
0.000957381
0.000382665
0.0411849
0.0389581
0.00150879
0.000112269
0.00011018
0.000230365
0.000129955
0.0958513
9.21185e-05
0.0712782
0.000112613
0.0617816
0.00834758
0.000122945
0.0861025
0.0147724
0.000128727
0.00011251
0.000176621
0.0132997
0.0225856
0.000104967
0.0379222
0.00471115
9.70788e-05
0.000377499
0.000114875
0.0315189
0.000118068
9.91429e-05
0.000132436
0.00011146
9.22633e-05
0.0273483
0.000134927
0.000114034
0.000140984
0.000113064
0.000110081
0.000102985
0.0400632
0.000104248
0.00290577
0.00330158
9.96401e-05
0.000111509
0.00183723
0.000110008
0.00925677
0.000122744
9.44256e-05
0.0258462
0.000106208
0.000112649
0.000123024
0.0245643
0.0414194
0.03386
0.000105387
0.000147533
0.00164157
0.0533567
9.40519e-05
0.000116784
0.000114192
0.000118412
0.0435387
0.000122737
0.000141492
0.000112937
0.000126789
0.00011237
0.0679749
9.86542e-05
0.0161967
9.40562e-05
0.000121028
0.000113326
0.0710394
0.000107942
0.000292128
9.39426e-05
0.000222123
0.00010505
0.000107939
0.000114935
0.00024624
0.000148168
0.000102049
0.0344732
0.0362465
0.000148286
0.000117913
9.40084e-05
0.000118657
0.0350406
0.000392069
0.0017485
0.0728249
0.000108289
0.000100423
0.000124513
0.000105697
0.000112705
0.000126044
0.0215468
0.000111289
0.000225025
0.0145295
0.00303803
0.000105551
0.0416371
0.020301
0.0153708
0.064845
9.93256e-05
0.000115102
0.000473912
0.0134694
0.00128209
0.036896
0.000134083
0.000469895
0.000145712
0.0182406
0.000132325
0.000405657
0.000289879
0.000122962
0.000147918
0.000103634
0.00010846
0.000423753
0.000232264
0.000107114
0.000108094
0.0809763
0.000106556
0.0933655
0.000107282
0.0783903
0.000111495
0.0798777
0.000234515
0.0660111
0.00765324
0.00014767
0.0107031
0.000110385
0.000117883
0.0693667
0.000122717
0.000106999
0.000118081
0.000117883
0.000127281
9.56089e-05
0.000104254
0.0283824
0.000106251
0.000106017
0.0536315
0.0133484
0.102433
0.0279558
0.0852296
0.0707113
9.67024e-05
0.0200539
0.000111098
0.000116924
0.000122761
0.0472827
0.000114351
0.000506876
0.000147815
0.0145768
0.000692692
0.000178635
0.000100688
0.000123012
0.000130377
0.0472351
0.00010278
9.82058e-05
0.000107779
0.000292086
0.0713563
9.88158e-05
0.0989165
0.000106339
0.1228
0.000168852
0.000106684
0.000103802
9.40459e-05
0.000122891
0.000106834
0.000107396
9.57078e-05
0.000121475
0.000123731
0.0569295
0.000105432
0.0164702
0.0362385
0.000106979
0.000248697
0.000456146
0.000139473
0.000113045
0.000131512
0.000108481
0.059724
0.000117118
0.000132356
0.000105198
0.0954464
0.0480627
0.00526432
0.0225092
0.062073
0.000113805
0.000110471
0.0962192
0.000285346
0.000174982
0.000105423
0.000124596
0.000118006
0.000107397
0.077719
0.000109987
0.0116136
0.000123319
0.000144914
0.000294427
0.000297246
0.000127137
0.0538126
0.000105856
0.000106055
0.000106042
0.0140225
0.0255114
0.000107315
0.000104141
0.0395535
9.87914e-05
0.082652
0.000102329
0.0522132
9.907e-05
0.000112254
0.0663366
0.000359716
0.0648946
0.0844964
0.00011098
9.92532e-05
0.000114917
0.000117809
0.0320351
0.000103554
0.00105893
0.00011984
0.000122733
0.0487498
0.000147883
0.0242546
0.0131488
0.0726327
0.019152
0.00430954
0.000109659
0.000106761
0.000102117
0.00085869
0.000416042
0.000254636
0.000145164
9.91909e-05
0.113953
0.0114866
0.00121447
0.000118223
0.000280703
0.000117244
0.000105336
0.00010583
0.000128404
0.00195787
9.67682e-05
0.000390285
0.000107923
0.000104656
0.003318
0.000133291
0.000111155
0.0784144
0.0100405
0.000115345
0.0453817
0.000102612
0.000102189
9.83936e-05
9.69133e-05
0.000142802
0.000107714
0.000106499
0.027057
0.0697909
0.00011442
0.000107206
0.0262859
0.00102269
0.000112875
0.000102768
0.000102967
9.77171e-05
9.86404e-05
0.000103871
0.000156551
0.000117036
0.0849621
0.00011304
0.0423767
0.000106913
0.000126917
0.000106939
0.0356648
0.000106872
0.000103251
0.118066
0.000123027
0.000116796
0.0213283
0.0617173
0.0475911
0.0791505
0.000326848
0.0118626
0.000119633
0.0561538
0.0247903
0.00010931
0.0840586
0.0442194
0.000110194
0.000744263
0.000106209
0.000113887
0.0784978
0.105055
0.00169986
0.00348829
0.0355956
0.00010868
0.000110821
0.00010912
0.000169382
0.00010322
0.000112328
0.02354
0.0272959
9.46128e-05
0.000109406
0.00283274
0.000122602
0.000127257
0.0713155
0.000126545
0.00796273
0.000107395
0.0893192
0.028035
0.00579981
0.000104963
0.000127475
0.000106193
0.000106667
0.0018763
0.000153325
0.000395648
0.00013462
0.000295875
0.000108171
0.00012459
0.127225
0.0441928
0.000266788
0.0468743
0.000108301
0.000121784
0.000101804
0.000114946
0.000108325
0.0443529
0.000628313
0.037728
0.000107189
0.0800888
9.8999e-05
0.052337
0.000420517
0.0755735
0.000112942
0.00156112
0.0978062
0.04787
9.09202e-05
0.00953529
0.0368517
0.000148456
0.000107559
0.0735687
9.87077e-05
0.057524
0.000116711
0.000123224
0.000109248
0.0752406
0.000924861
0.000100658
0.000147954
0.000108336
0.0150933
0.012406
0.000109103
0.000146312
0.0304207
0.000122452
9.75325e-05
0.000145849
0.0371607
0.0415326
0.00850178
9.94088e-05
0.00010626
0.0905353
0.000154244
0.000119083
0.000107183
0.000145302
0.000103768
0.00010741
0.0748731
0.000108537
0.0188005
0.0310735
0.000105896
0.0534553
0.0849459
9.30954e-05
0.000120567
0.054748
0.000110448
0.000147567
0.000106264
0.000131196
9.26597e-05
9.43391e-05
0.000109386
0.000109413
0.0358462
9.86069e-05
0.00639369
0.00214454
0.000110402
0.0156303
0.000121745
0.0174964
0.000116346
0.000138237
0.000338424
0.000108144
0.000122142
0.00577723
0.000143766
0.000147845
0.0881016
0.000167728
9.68113e-05
0.0230835
0.000100555
0.0288958
0.000113376
0.000111333
0.000105031
0.000106932
0.000113428
0.0589701
0.00010956
0.0998298
0.000642575
0.00010518
0.000114588
0.000474882
0.000111644
0.027366
0.000122788
0.0987334
0.00383893
0.000299487
0.025559
0.000132477
0.000107827
0.000116122
0.00508978
0.000109208
0.0726333
0.000124502
0.000117972
0.000107809
0.000107465
0.00014814
0.00010571
0.000116036
0.000107163
0.000137304
0.000107037
0.000139335
0.000143218
0.0244857
0.0703908
0.0703311
0.00749912
0.00010716
0.02131
0.00094958
0.000334618
0.000108404
0.0302668
0.000116505
0.000119197
9.84836e-05
0.000145213
0.000112457
0.0898185
0.000102679
0.0776726
0.000102158
0.000176256
0.000100338
0.000139018
0.0246492
0.000142517
9.92955e-05
0.00028905
0.000400339
0.000382963
0.000111799
0.0373776
0.0030139
0.000123489
0.0422017
0.000108401
0.0447367
0.0313078
0.000119181
0.000107192
0.000107251
0.000124059
0.0651408
0.000121983
0.000107896
0.0808514
9.13134e-05
0.000356896
0.0406532
9.78165e-05
0.0784534
0.00013079
0.000108493
0.000107658
9.86487e-05
0.000102019
0.000106322
0.0509245
0.000113078
0.000121709
0.00011191
0.000117538
0.0215055
9.41242e-05
0.000104554
0.000117876
0.000253991
0.000110146
0.000110964
0.000127736
0.000145926
0.000111585
0.028305
0.000121663
0.000147407
0.0460282
0.000103636
0.000117322
0.000103662
0.0447876
0.000123789
0.000342056
9.76617e-05
0.000123863
0.00010743
0.000107433
0.000104005
0.0380922
0.0395562
0.0423242
0.000132917
0.000197742
0.00010772
0.000106748
0.0016027
0.000106961
0.000105998
0.000178488
0.0704044
0.000117599
0.000133392
0.000102516
0.000106769
0.00823946
0.000364584
0.0801934
0.00023223
0.000348545
0.0912215
0.0637484
9.88282e-05
0.000123944
9.82732e-05
0.000107886
0.0120134
0.128955
0.00010808
0.000107595
0.00115242
0.0001125
0.0635951
0.000103791
0.000107226
9.43288e-05
0.000117123
0.00012672
0.0681768
0.000105604
0.00384895
0.0197911
0.000179056
0.00698621
0.0936495
9.12714e-05
0.000120496
0.000105408
0.000106233
0.0815222
0.000105256
0.000121058
0.0245169
0.000278153
0.0332178
0.00167495
0.0104504
0.000114404
9.5909e-05
0.00544478
9.14493e-05
0.00014567
0.000106937
0.0673384
9.22012e-05
0.0630125
0.0602072
0.000135571
9.30769e-05
9.48401e-05
0.0471492
0.000107086
0.008376
0.0191372
0.000128092
0.000156428
0.000218067
0.000127182
0.000118142
9.99689e-05
0.000108274
0.0441589
0.000104067
0.000117273
0.000170203
0.0801774
0.00010784
0.0535204
0.00010467
9.81125e-05
0.000106209
0.000112532
9.88809e-05
0.000144702
0.000118758
0.0257904
0.000126717
9.68507e-05
0.0789082
0.000107036
0.000102405
0.000127244
0.000102325
0.000116675
0.0242748
0.00010053
0.059585
0.0676168
0.043351
0.019831
0.000105945
9.18156e-05
0.00014342
0.000107241
0.000111157
0.00010945
0.00130062
0.000107293
0.0483742
0.115934
0.000144372
9.68962e-05
0.000109332
0.0836873
0.000134914
0.00222757
0.000111812
0.00020978
0.000123593
0.000236306
0.000333915
0.00012512
0.000148375
0.0001546
0.0649959
0.0349436
0.0716329
0.000204421
0.000103035
0.0336726
0.000127078
0.000148445
0.000106118
0.000132666
0.029694
0.000107494
0.121017
0.0594637
0.000103883
0.000118341
9.22854e-05
9.91031e-05
0.000106852
0.0691118
9.07738e-05
0.000114177
0.000478826
0.000460004
0.0821252
0.0798124
0.00908995
0.000102299
0.000665054
0.000122434
0.0024863
0.000143098
0.0605998
0.0409366
0.00012569
0.000106863
0.0490502
0.000106622
0.000533603
0.0805649
0.023785
0.0902992
0.00010388
0.0651743
0.038109
0.000436126
0.000108382
0.00320889
0.000133651
0.000179866
0.036174
0.000611875
0.0092522
0.0734551
0.0297996
0.000148013
0.000182966
0.000107027
0.0119207
0.000106146
0.000126634
0.000107659
0.0627587
0.000119117
0.000656282
9.91914e-05
0.000114171
0.0364861
0.0520796
0.00010181
0.000110341
0.000107425
0.0432126
0.000102421
0.000135257
0.0117344
0.000125433
0.0102383
0.000106394
0.000104037
9.29856e-05
0.000101481
0.0336976
9.91869e-05
0.0670926
0.000290271
0.000103539
9.51709e-05
0.094099
0.000112758
0.000122339
0.00013065
0.000111497
0.000247347
0.00013293
0.000189442
0.000100515
0.00270452
0.000103589
0.000132524
0.000826235
0.00188527
0.000197654
0.00010044
0.0796165
0.0348549
0.0126731
0.000116753
0.000110236
0.000130303
0.0726512
0.000106039
0.00012734
9.43181e-05
0.000108919
0.000144279
0.000116681
0.000120346
0.000341907
0.00010459
0.038456
0.0484412
0.000116797
0.0752625
0.00876777
0.0893607
0.00010578
0.000111542
0.000107569
0.000127425
0.000116408
0.000116132
0.000111334
0.00010924
0.000108693
0.000120571
0.0497669
0.000122255
0.0302272
0.00022895
0.0466296
0.0001175
0.000104194
0.000108056
0.000117183
0.0212588
0.000111387
0.00011521
0.0833924
0.0382691
0.000120957
0.000136335
0.0114774
0.0447185
9.81154e-05
0.0361516
0.0533885
0.000137056
0.000112744
0.0441858
0.000106649
9.53407e-05
0.000105969
0.000183049
9.41334e-05
0.0327443
0.0446883
0.0695863
0.000112583
0.000147135
0.000101928
0.0353628
0.000107356
0.000119496
0.000122453
0.0540174
0.040026
0.000122552
0.00131389
0.000116605
0.000108821
0.000121474
0.0696884
0.000104604
0.000119928
0.000134216
0.026512
0.000112356
0.000109158
0.00010226
0.00019341
0.000107678
9.56107e-05
0.000138514
0.000107338
0.0221546
0.00010146
0.000107049
0.000144112
0.000803308
0.000115976
0.000123578
0.022801
0.0693967
0.000104731
9.42999e-05
0.00313725
0.000262259
0.00012058
0.000114033
0.000104171
0.000115478
9.09224e-05
0.0557951
0.0285009
0.000127798
0.000233733
0.0543293
0.0739359
0.000127269
0.000107354
0.000242141
0.000115446
0.000122963
0.0339731
9.28048e-05
0.000126674
0.00010162
0.02266
0.0129905
0.0472722
0.0348876
0.000112681
0.0385551
0.0290007
0.0728818
0.000104235
0.000131437
0.000127546
0.000133577
0.0428601
0.000126903
0.000127033
0.000114212
0.00148686
0.000124204
0.00011037
0.0276052
0.000112358
0.0592447
0.000150566
0.000100666
0.000442403
0.0482215
0.00010523
0.000110605
0.000107607
0.0135005
0.000111015
0.000120302
0.0212212
0.0216806
0.00089567
0.000111039
0.000133823
0.00774343
9.71452e-05
0.000128048
0.000135681
0.013496
9.23948e-05
0.00153932
0.000125928
0.0420839
0.034586
0.000114211
0.0563684
0.000114674
0.0407612
0.000102882
0.0267157
0.000126055
0.000176279
0.0574641
0.00410671
0.000110588
0.000103381
0.0355747
0.000107458
0.000324444
9.90999e-05
0.000148943
0.0819081
0.000149046
0.0430927
0.000100258
9.7599e-05
0.000107441
0.000119643
0.000111969
0.000304048
9.75545e-05
0.024815
0.00010722
0.0541318
0.0362608
0.000107939
0.000111617
0.0016253
0.00012475
0.00013441
0.0388834
9.84004e-05
0.0386781
0.000114036
0.000103407
0.000147296
0.000123474
0.000106052
0.00412869
0.0202291
0.0366025
0.00561149
0.000132763
0.000150084
0.0017766
0.0343651
0.0342028
0.000111334
0.0718058
0.0257558
0.000132168
0.000210744
0.000106342
0.0476415
0.000104587
0.000105809
9.94386e-05
0.000108503
0.000107258
0.00811174
0.000105116
9.41814e-05
0.120371
0.000110533
0.0152068
0.000102859
0.109141
0.000106971
0.000120052
0.000124309
0.000146375
0.000126054
9.72879e-05
0.0225394
0.000143955
0.0567434
0.0453322
9.4463e-05
0.000109792
0.000120645
0.0219533
0.000104083
0.0458236
0.0784797
0.000112464
0.0611524
0.0669142
9.55659e-05
0.0476598
9.45215e-05
0.000114033
0.000132416
0.000159075
0.00013165
0.00010461
9.45237e-05
0.0239867
0.000635345
0.0286458
0.000114202
0.000110201
0.000104414
0.000130936
0.000116731
0.000103268
0.000105412
0.000112884
0.0445556
0.0724113
0.0557584
0.000116807
0.000109853
0.000115161
0.000123157
0.000504484
0.0799919
0.000107589
0.000467166
0.0427105
0.000114155
0.0131945
0.000106246
9.08372e-05
0.000501175
0.000106934
0.000112544
9.51541e-05
9.75819e-05
0.000127973
9.24256e-05
0.000110765
9.59391e-05
0.000139537
0.000111665
0.0369504
9.64636e-05
0.0017295
0.0381103
0.000336365
9.29448e-05
0.000110079
0.000103714
0.000112514
0.000103465
0.0342022
0.00011406
0.000107289
0.00695081
0.060947
0.000116719
0.0105757
0.000102842
0.0688311
0.0134204
0.000109394
0.000107618
0.000131677
0.00251489
0.0569651
0.0895059
0.000113424
0.000116655
0.0893826
0.000115331
0.0061286
0.0361856
0.0490811
0.000147532
0.00834947
0.0379863
0.0765624
0.000122636
0.000108078
0.000106133
0.000149529
0.000123043
0.000143365
0.041127
0.000101269
0.000114081
9.35837e-05
0.000111049
0.00069827
0.000121684
0.000146498
0.0477836
0.000106149
0.000121457
0.000105661
0.000138027
0.000119655
0.000101154
0.0219597
9.29903e-05
0.000123056
0.000128408
0.0987509
0.000145382
0.0331204
0.0301905
0.00898001
0.0248603
0.00010471
0.000106135
0.0003719
0.0336751
0.0416618
0.000150655
0.000114545
0.000147171
0.0385057
0.000111109
0.000103166
0.00229538
0.0471287
9.78779e-05
0.0623915
0.000110611
0.0347245
0.000108656
0.000109322
0.000123333
0.000127581
0.000111494
0.000110001
0.000119471
0.000107008
0.000148363
0.00140012
9.64052e-05
0.000112639
0.0017919
0.0549585
0.000109399
0.00014797
0.000107285
0.000130912
0.000105035
0.000220347
0.0021802
0.000116396
0.000124618
0.00010676
0.0258198
0.0017734
0.086242
0.00014701
0.00027539
0.000109397
0.00178886
0.0145352
0.000105049
0.000109612
0.0491289
0.000109051
0.00010561
0.0020671
0.000356499
0.000106881
9.45907e-05
0.0068337
0.000115771
0.000129545
0.0102814
0.000111728
0.000128069
0.000107255
0.00010474
0.000110595
0.0144266
0.000107779
0.000116044
0.000103597
0.00010952
9.57276e-05
0.000107217
0.0421676
9.33706e-05
0.0698104
0.0285476
0.00205384
0.000108245
0.00299434
0.000127057
0.0472861
0.0437629
0.000123758
0.000107717
0.000105722
0.000117104
0.000148379
0.000102628
0.000123218
0.0236928
0.0333236
0.102514
0.0020506
0.000105658
0.0810102
9.68195e-05
0.0243778
0.104115
0.0230788
0.000552774
0.000620289
0.0214254
0.0749185
0.0594612
0.000105501
0.0506321
0.000537932
9.9618e-05
9.3565e-05
9.84142e-05
0.0155478
0.000197181
0.000107322
0.000114056
0.000322717
0.0139803
0.000114845
0.000109754
0.000127021
0.000106304
9.58299e-05
0.000103298
0.000110994
9.85349e-05
0.0163829
0.000124103
0.000142169
0.000105273
0.000119492
0.000107384
0.0700166
0.000127492
0.000133067
0.000107676
0.0735031
0.000112727
0.000177803
9.36802e-05
0.000119795
0.000117484
0.000102833
0.000132668
0.00120809
9.60241e-05
0.000147641
0.000106923
0.000109447
9.93029e-05
0.000132249
0.000110204
0.000239072
0.000121255
0.000107223
0.00969161
0.0800067
9.89826e-05
0.000111379
0.000105643
0.000110361
0.0379976
0.0021946
0.000130501
0.0239486
0.000103611
0.000132025
0.000143594
0.000132512
0.0198283
0.000123331
0.0319792
0.0559077
0.002042
0.0215363
0.000107728
0.0334965
0.0494433
0.000104786
0.000126424
0.000104895
0.000106555
0.000111705
0.0735074
9.62243e-05
0.00011404
0.0386152
0.000136865
0.000101201
0.000104817
0.000105804
0.000107643
0.0221398
0.000497827
0.0299532
0.0243871
0.000284376
0.000122875
0.000107209
0.000123955
0.0387702
0.000107901
0.00556241
0.0251492
0.0697097
0.000147194
0.000102339
0.0642944
0.0414605
0.00609565
0.0552836
0.000148323
0.0422273
9.44976e-05
0.000103592
0.000108395
0.000149238
0.0593973
0.000111498
0.000109947
0.000142475
0.0389453
0.0248171
0.00010354
0.000116503
9.58371e-05
0.0699602
0.00256423
0.000103277
0.0496888
0.0226586
0.000153147
0.0503549
0.00079237
0.000183211
0.0765364
0.000107418
0.0540577
0.125894
0.000106317
0.032678
0.000161999
0.0698592
0.000114186
0.058797
0.000116705
0.000393418
0.0435417
9.78299e-05
0.000129828
0.0855778
9.62209e-05
0.0459531
0.00012525
0.00011158
0.000103681
0.025258
0.000157488
9.62115e-05
0.000122689
0.000108055
0.000103786
0.000147813
0.000103796
0.000105189
0.031904
0.000108012
0.0254383
0.043618
0.0807498
0.000104792
0.00420326
0.0351633
0.000132959
0.000143849
0.0157048
0.000118103
0.0016278
0.0807485
0.00010528
0.0135385
0.00833347
0.00010521
0.0798679
0.000107146
0.00367809
0.000106926
0.0222214
9.882e-05
0.0429858
0.000112495
0.0465184
0.00498972
0.000222147
0.000112772
0.000708199
0.0010282
0.000130215
0.00177578
0.0363106
0.000116264
0.0972283
0.000133121
0.000342568
9.86799e-05
0.000134783
0.000116555
0.0426338
0.000107138
0.0426082
0.0219656
0.000107602
0.000112445
9.58181e-05
0.000107474
0.000106406
0.000114789
0.0141797
0.0427859
0.0231861
0.000100619
0.063039
0.0478826
0.040612
0.000104145
0.0541123
0.000117611
0.000117633
0.0110775
0.0315095
0.000104538
0.08583
0.000135931
0.000126498
0.0559468
0.000107512
0.0880647
0.0225592
0.000132581
0.00839108
0.048759
0.0715076
0.000102796
0.0221992
0.000550518
0.000105079
0.000118496
0.000106074
0.0281802
0.0490977
9.88832e-05
0.000108834
9.90481e-05
0.000122929
0.00164144
0.000124541
0.000102695
0.000120974
0.000110058
0.000127705
0.00069087
0.000111971
0.00010626
0.000106767
0.000343344
9.1667e-05
0.000109604
0.0663958
0.0560359
0.000109087
0.0340102
0.000119661
0.0226404
0.0622377
0.0351328
0.000124143
0.00011744
0.000110088
0.000137204
0.000106786
0.000112944
0.000146884
0.000112433
0.000116529
9.37055e-05
0.0474636
0.000122694
0.00178609
0.0878131
0.000183419
0.000149249
0.000103701
0.000107576
0.000103821
0.0668695
0.0262889
0.000103568
0.000166521
0.000106729
0.000146106
0.000107736
0.000102359
0.0357554
0.0725407
0.000120344
0.00010387
0.00023163
0.000109313
0.0113708
0.00013507
0.0234623
0.000102968
9.78116e-05
0.000113821
0.000106533
0.000160561
0.0524295
9.78782e-05
0.0446354
0.0347988
0.000126677
0.0418749
0.019678
0.000124832
0.000101601
0.000111984
0.000111342
0.0216682
0.000127256
9.1227e-05
0.000130996
0.0375013
0.00010631
0.000140401
0.00101826
0.000164595
0.0850394
0.000101313
0.000126487
0.000495296
0.000124099
0.000116441
0.000117465
0.0598104
0.000108889
0.0462198
0.00027978
0.0351946
0.00013066
0.0107654
0.000343266
9.46536e-05
0.000108046
0.000107427
0.070306
0.000109346
0.000106063
0.0734813
0.000105481
0.000103548
0.000215821
0.0339461
0.000101906
0.000110603
0.000106295
0.00010153
0.000105752
0.0788188
0.0369943
0.000112701
0.000107868
0.0656916
0.000123985
0.0445785
0.0238726
0.0492023
9.41163e-05
0.00011648
0.0809832
0.0466592
0.0224676
0.000102937
0.000116533
0.000110805
0.0799812
0.00011629
0.000104827
0.00012296
9.96848e-05
0.000285088
0.00012242
0.000112405
0.000107864
0.000111826
9.40054e-05
0.00010721
0.0781936
0.000109339
0.0593085
0.116861
0.0280836
0.00010863
0.0119868
0.0515916
0.000114035
9.46884e-05
0.0638276
0.000113386
0.0590109
0.000107524
0.000146138
0.00025564
0.000928031
0.000110913
0.000150285
0.000103565
0.000112314
0.000126278
0.0534547
0.000110184
0.100791
0.00891454
0.000107342
9.69551e-05
0.0918552
0.0248855
0.000111052
0.000120611
0.000128545
0.000106876
9.65608e-05
0.000109394
0.000106405
0.000124893
0.0416396
0.000101949
0.0285599
0.00185586
0.000109922
0.0729791
0.0489028
0.000123352
0.000102096
0.0001079
0.000119602
0.0253417
0.0431451
0.000111451
0.0691358
0.0259593
9.79139e-05
0.000105793
0.0394367
0.000109116
0.0985404
0.0255288
0.0370324
0.00072043
0.000114016
0.053409
0.000235354
0.0629026
0.0362259
9.13688e-05
0.000112483
0.000490405
0.000120849
0.000107947
0.00014497
0.000100408
0.000111431
0.000122936
0.000138894
0.000127136
0.000140257
0.000108148
0.00364716
0.000291038
0.000111635
9.37326e-05
0.0473603
0.000125863
0.000134763
0.000225347
0.000135807
0.000103457
9.49469e-05
0.0129969
0.000109475
0.000105465
0.0633246
0.000103957
0.000146059
0.0296381
0.000248255
0.000105754
0.000105515
0.000136667
0.00013974
0.000161225
0.000110406
0.000112689
0.0721923
0.0363309
0.00010804
9.31211e-05
0.000107718
0.000879345
0.000109383
0.00011233
0.000116323
0.000131399
0.000114197
0.000107205
0.000136123
0.000101777
0.0573614
0.000147872
0.000705919
0.0396289
0.000112983
0.000120463
0.000145537
0.000111442
0.000104651
9.45215e-05
9.60756e-05
0.00902004
0.000247618
0.0138389
9.53765e-05
0.000579912
0.00012259
0.0010144
0.126694
0.00011253
0.000124166
0.000126006
0.000114062
0.000197949
0.00011648
0.000126153
0.000753647
0.000138289
0.000123247
0.000137748
0.000111316
0.00668881
0.0907181
0.000103837
0.000107135
0.000114546
0.0717002
0.000129784
0.000361771
0.000128983
0.000104794
9.67509e-05
0.000126414
0.0225146
0.0694241
0.000907703
0.000141435
0.000109564
0.000130969
0.000119631
0.0912216
9.99878e-05
9.41823e-05
0.000180589
0.05538
0.0359624
0.0209555
0.0350556
0.000119462
9.99209e-05
0.0660949
0.082944
0.00177175
0.011372
0.000105269
0.000110567
0.0363729
0.000111801
0.000102823
0.000107483
9.46301e-05
0.000112199
0.000137167
0.0451233
0.0202533
0.000121822
0.000122738
0.000111044
9.59828e-05
0.000119129
0.0164977
0.00013243
0.000131169
0.000112548
0.000106732
0.00010371
0.000117233
0.000117726
0.000116958
0.00011957
0.0703593
0.0444707
0.00026059
0.000109268
0.000105857
0.000120604
9.96323e-05
0.000356897
0.00116413
0.0330183
0.0583196
0.00013734
0.000117638
0.000104939
0.0416095
0.000106453
0.000148187
0.0013304
0.0234229
0.0363632
0.0661743
0.069934
0.000135284
0.0527145
0.000106626
9.47549e-05
0.0758163
0.000121651
0.000136618
0.000287288
0.000107796
0.112709
0.000113123
0.0782639
0.000108327
0.000120088
0.000118302
9.11938e-05
0.000125764
0.000106315
0.00013178
0.000101865
9.83378e-05
0.000903925
0.000129279
0.0485899
0.000105706
0.09124
0.000124119
0.00273736
0.017935
0.027511
0.010512
0.000225398
0.00759785
0.000106703
0.000132044
0.000105732
0.00011289
0.000721069
9.32025e-05
0.000108612
0.000106587
0.000106896
0.000124213
0.0565592
0.000102027
0.000104223
0.0001061
0.000107652
9.529e-05
0.000190723
9.63282e-05
9.59833e-05
0.00012289
9.47757e-05
0.0104915
0.000118682
0.0266766
0.000111143
0.000121743
0.000114184
0.00014286
0.000131233
0.0454527
0.000148428
0.0161884
0.088627
0.000133284
0.000121504
0.000107171
0.0405124
0.000112566
0.000113704
0.0583375
9.37948e-05
0.000148017
0.000115792
0.0569106
0.000111645
0.0567106
0.000112529
0.0321709
0.00022879
9.27271e-05
0.000140176
0.000127997
0.000107978
0.0352378
0.0383263
0.000132394
0.0272123
0.000103645
0.000103977
0.0241415
0.0400295
0.000132434
0.000102979
0.0513616
0.000128497
0.037723
0.000120759
0.000506163
0.0349581
0.0427856
0.000763659
0.000127833
0.000151873
0.000126799
0.000115315