/*--------------------------------*- C++ -*----------------------------------*\
| =========                 |                                                 |
| \\      /  F ield         | OpenFOAM: The Open Source CFD Toolbox           |
|  \\    /   O peration     | Version:  v2012                                 |
|   \\  /    A nd           | Website:  www.openfoam.com                      |
|    \\/     M anipulation  |                                                 |
\*---------------------------------------------------------------------------*/
FoamFile
{
    version     2.0;
    format      ascii;
    class       volVectorField;
    location    "50";
    object      U_0;
}
// * * * * * * * * * * * * * * * * * * * * * * * * * * * * * * * * * * * * * //

dimensions      [0 1 -1 0 0 0 0];


internalField   nonuniform List<vector> 
33474
(
(0.999206 -0.00362122 0)
(1.00943 -0.0131883 0)
(-0.232812 0.000883234 0)
(1.05327 -0.037197 3.04232e-21)
(0.980601 0.00173365 -1.21851e-21)
(0.253411 0.0846374 0)
(1.03553 -0.0685392 -2.01882e-21)
(1.00059 -0.0129362 1.14257e-21)
(1.00072 -0.0126461 0)
(1.01416 -0.00374322 0)
(0.812374 -0.0944207 0)
(1.01339 -0.013924 1.57323e-22)
(1.00531 -0.00801094 -4.39926e-22)
(1.00847 -0.0132414 -9.34109e-23)
(0.741562 -0.285363 1.28261e-20)
(0.681694 0.0682903 -4.84699e-21)
(0.992665 -0.0184453 2.07276e-21)
(0.687975 0.0626317 0)
(-0.187345 0.00101502 0)
(0.99251 -0.0180965 0)
(1.00997 -0.0063439 9.01513e-24)
(0.972961 -0.0130048 9.6038e-21)
(0.961458 -0.0292872 -3.8785e-21)
(1.23572 -0.0638318 -2.47769e-20)
(0.425052 0.130177 8.32739e-20)
(0.971571 -0.0150774 0)
(1.06947 -0.0191012 6.17558e-21)
(1.23483 -0.0587145 0)
(0.525259 0.0408432 0)
(0.945103 -0.0227954 -7.47985e-21)
(1.02003 -0.0286472 0)
(1.01035 -0.0276396 1.03511e-23)
(1.23347 -0.0486542 0)
(1.06945 0.017811 5.82085e-21)
(0.615517 0.151691 0)
(0.571976 0.0705237 1.39144e-20)
(0.980937 -0.0386194 0)
(0.994134 -0.00969547 0)
(0.878828 0.0108767 -1.1511e-20)
(1.18512 -0.0210667 -7.41364e-21)
(1.00019 -0.000151706 0)
(0.26227 -0.00523543 -2.5006e-20)
(-0.0312241 0.014125 1.8541e-20)
(1.00001 -0.000322781 -1.03749e-21)
(0.488713 0.0524235 -6.57846e-21)
(0.975416 -0.440954 -1.40936e-20)
(1.00005 -0.000426958 1.92059e-21)
(0.585028 0.076792 0)
(1.02726 -0.0607947 -2.43887e-21)
(1.07154 -0.169732 8.26933e-21)
(1.0519 -0.0371967 0)
(0.986291 -0.0221815 -6.68942e-21)
(0.416111 0.149585 -7.17756e-20)
(0.852235 0.0601538 3.43206e-21)
(0.980946 0.00143993 2.10599e-21)
(0.370211 0.101063 -4.86635e-20)
(0.9846 -0.019106 0)
(1.02347 -0.0401119 0)
(-0.184336 -0.0106818 -9.27424e-20)
(-0.162713 0.00737584 1.4876e-20)
(1.02158 -0.0287937 1.20039e-21)
(1.10174 -0.024507 3.87998e-21)
(0.246834 0.00694874 0)
(1.05319 -0.0233005 0)
(0.999291 -0.00351323 -2.39877e-21)
(0.984576 -0.0196534 0)
(1.14623 -0.19331 -3.25071e-20)
(0.590462 0.0563845 0)
(1.02224 -0.0289045 -2.62599e-21)
(0.560438 0.0375275 -9.76292e-21)
(1.07376 0.0104 0)
(1.09029 0.0128889 -1.53112e-21)
(1.00004 -0.000363659 0)
(1.06136 -0.039217 -3.99719e-21)
(1.01226 -0.0136991 0)
(0.803441 0.0713754 0)
(0.939963 -0.0173044 -1.20309e-20)
(1.0114 -0.00212857 -4.14941e-22)
(0.980656 0.00255543 9.8753e-21)
(0.982308 -0.24293 -1.51169e-21)
(0.434262 0.0315741 -1.62211e-22)
(0.978472 -0.0203607 0)
(0.31547 -0.00335873 4.53895e-21)
(1.0261 -0.00649454 7.93011e-22)
(0.804896 0.0666629 0)
(0.544395 0.0430952 4.97807e-21)
(1.17032 -0.0179629 3.14245e-20)
(-0.127602 -0.0105118 0)
(0.0419212 0.0052916 -2.42231e-20)
(1.07901 -0.0549789 7.42892e-21)
(0.433509 0.0521345 0)
(1.00177 -0.00498691 -1.45976e-22)
(0.676144 -0.0456111 4.23068e-21)
(1.01128 -0.00198578 0)
(0.966108 -0.065801 0)
(0.985659 -0.0222614 3.8854e-21)
(1.01022 -0.00636451 9.14766e-23)
(0.981072 0.00275219 -7.81389e-21)
(1.01686 -0.00015648 0)
(-0.232042 0.0107197 6.35526e-20)
(1.01401 -0.00387354 0)
(0.417808 0.054976 0)
(0.226269 0.0385214 2.17582e-20)
(0.972807 -0.0139745 -6.10705e-21)
(1.11156 0.0352119 0)
(0.588386 0.0549573 0)
(1.14416 0.0311826 0)
(1.00163 -0.000223046 -1.4035e-21)
(1.03876 -0.0520268 -9.25464e-23)
(1.14143 -0.147437 4.25226e-20)
(0.873426 -0.25454 0)
(0.800791 0.055671 0)
(0.835058 0.0590367 0)
(1.09253 0.00510024 -2.33557e-20)
(0.681592 -0.0371434 8.96631e-22)
(1.285 -0.156021 1.53874e-21)
(0.994824 -0.00871087 3.69222e-21)
(0.979188 -0.0202879 0)
(1.05238 -0.0224806 0)
(1.01597 -0.00400928 -2.24985e-22)
(1.0447 -0.0143739 3.70658e-21)
(1.05283 -0.128109 9.67146e-21)
(1.05515 -0.0213347 7.94749e-21)
(1.03893 -0.0508024 -6.73589e-21)
(1.1728 0.00277953 3.04147e-20)
(0.240408 0.00548191 0)
(0.766784 -0.170001 0)
(1.07045 0.0141181 0)
(0.327812 -0.00605059 -4.66829e-21)
(0.820727 0.0519731 0)
(1.12821 0.0327461 0)
(0.576955 0.0394371 5.019e-21)
(0.873029 -0.402116 0)
(0.805047 -0.0939851 -7.59788e-21)
(0.944267 -0.024237 0)
(1.03108 -0.0084057 -4.91783e-21)
(1.00156 -0.000270013 1.81631e-21)
(0.956493 0.00191551 0)
(0.964268 -0.0663108 -8.623e-21)
(1.00149 -0.00303144 4.68748e-22)
(0.887989 0.0536846 1.6571e-20)
(1.00028 0.0521348 0)
(0.764008 0.0180575 4.60602e-21)
(1.01356 -0.0109217 -4.47467e-22)
(1.08218 0.0348873 -1.78759e-21)
(0.84239 -0.225287 -1.24861e-20)
(0.521912 -0.615025 0)
(1.01493 -0.00370377 4.41921e-22)
(1.11617 -0.0489351 0)
(1.11498 0.00680048 0)
(0.99932 -0.00363191 -4.91688e-21)
(0.962961 -0.0312483 1.58137e-20)
(1.07066 -0.0193 -8.52479e-21)
(1.00974 -0.00774543 5.99157e-23)
(1.05153 -0.123678 -6.16291e-21)
(1.0127 -0.00297521 8.38968e-24)
(0.520279 0.0406664 2.3469e-20)
(1.07077 -0.00801722 2.5416e-21)
(0.720052 -0.07709 2.56367e-20)
(0.230892 -0.00420509 -5.56369e-21)
(0.997449 0.000738653 4.30582e-22)
(0.755191 0.0203042 -4.55945e-21)
(-0.262537 0.00599402 0)
(1.04405 -0.0140887 2.97871e-21)
(0.256376 0.0415366 -1.92705e-20)
(1.06176 -0.126255 -5.18666e-21)
(1.01668 -0.000132037 2.23686e-21)
(0.967748 -0.152287 7.85953e-21)
(0.999392 -0.0035225 4.64394e-21)
(1.0028 -0.0105119 -1.45321e-22)
(0.77672 -0.167792 0)
(1.00058 -0.00515396 -1.2375e-21)
(1.00299 -0.0106286 1.45771e-21)
(0.824346 0.0586447 1.16039e-20)
(1.0048 -0.0289092 1.95396e-21)
(1.04292 -0.0257122 3.33241e-21)
(0.906189 0.0543754 0)
(0.951962 -0.0344974 0)
(1.17223 0.0144356 2.75885e-20)
(1.10078 -0.0355429 1.19169e-22)
(0.997178 -0.00959055 0)
(1.07113 0.0147211 0)
(0.962859 -0.0324651 -2.11634e-20)
(0.83074 0.0499135 -2.38746e-20)
(1.00927 -0.0140005 2.58732e-22)
(1.13247 -0.0752622 0)
(0.840197 -0.0832685 -2.18833e-20)
(0.620519 0.0473534 0)
(-0.237667 0.00741721 8.15241e-21)
(1.00373 -0.0073595 -1.75969e-22)
(0.864994 -0.0342584 0)
(1.12979 -0.246249 -9.64819e-20)
(1.01243 -0.0134427 0)
(1.13088 -0.0728582 0)
(-0.28197 0.00513001 0)
(0.988477 -0.238492 0)
(1.0196 -0.00231378 -2.23473e-23)
(0.822355 -0.0589282 2.41959e-20)
(0.243864 -0.00683156 -9.07706e-21)
(0.841925 0.0517933 1.44385e-20)
(1.03071 -0.00857415 4.90707e-21)
(1.11908 0.0441581 -1.48026e-21)
(1.05607 -0.128438 4.27833e-21)
(1.00447 -0.0283985 0)
(1.00147 -0.00311873 -5.07845e-22)
(1.00377 -0.00760324 2.50194e-21)
(1.12551 0.0438619 0)
(1.10442 -0.108534 4.47056e-21)
(0.862324 -0.363287 -2.57438e-21)
(1.15237 0.0169741 1.4772e-20)
(1.07742 -0.0558237 3.78533e-21)
(0.450245 -0.0110444 0)
(0.704831 0.105228 -5.87565e-20)
(0.956345 -0.125229 2.0508e-20)
(1.00718 -0.00535441 0)
(1.06609 -0.177151 -3.52263e-20)
(1.00315 -0.00618227 0)
(0.15463 0.0355035 1.35881e-20)
(1.0894 0.0124069 -5.35384e-21)
(0.862515 -0.0376346 -8.13445e-21)
(1.15083 0.0155458 -2.90685e-22)
(1.00134 -0.00507599 -1.59591e-21)
(1.01143 -0.0193023 1.09301e-22)
(0.867386 -0.263347 0)
(-0.0320203 -0.0393424 0)
(1.0286 -0.114785 0)
(0.742915 -0.270409 0)
(0.997963 6.7843e-05 -4.59302e-21)
(0.57377 0.0347945 -4.64224e-21)
(0.624689 0.0558555 0)
(1.07347 0.00563268 -5.00368e-21)
(0.599454 -0.477383 -2.21919e-20)
(0.988535 -0.00826244 4.94074e-21)
(0.530979 0.041622 -2.0847e-20)
(0.514722 0.0425134 -5.26134e-21)
(0.997389 -0.00524196 0)
(1.00991 -0.00463665 -1.38288e-22)
(1.11236 0.0357888 0)
(1.01023 -0.0270246 1.77241e-22)
(-0.0945913 0.0182056 3.04342e-20)
(1.1861 -0.0413568 -3.44818e-20)
(-0.234382 0.00581355 1.19015e-19)
(1.01836 -0.0138731 0)
(1.00732 -0.00578003 -2.59288e-22)
(0.958216 -0.0227476 4.86051e-21)
(1.12984 0.0432155 2.07567e-20)
(0.727281 -0.0831749 -3.1316e-20)
(0.995922 -0.0663418 0)
(0.260832 -0.0670601 6.47038e-20)
(1.05388 -0.0382696 -3.20725e-21)
(1.11676 0.0461594 -3.02205e-20)
(0.995633 -0.00103927 0)
(0.268846 -0.00653394 2.49175e-20)
(1.20714 0.00369275 -5.31691e-20)
(1.22302 -0.018234 -5.00453e-20)
(1.00803 -0.000536979 0)
(1.02209 -0.0159136 1.72872e-21)
(1.10104 -0.025945 -3.76315e-21)
(0.888094 0.051159 -8.8478e-23)
(0.256196 -0.00254886 -9.42976e-21)
(1.02809 -0.034766 -2.80592e-21)
(0.845564 0.0474391 -2.88399e-20)
(1 -0.00142602 0)
(1.02356 -0.00639575 7.81127e-22)
(1.00652 -0.00803262 -6.46959e-22)
(0.826204 0.0802827 0)
(-0.0986621 0.0199205 2.18979e-20)
(0.996074 -0.00535947 0)
(1.05994 -0.0389767 0)
(1.14577 -0.146388 -3.75364e-20)
(1.00613 -0.0417487 -3.40589e-21)
(1.09493 -0.032864 5.12426e-21)
(0.959182 -0.0250422 -1.1215e-20)
(0.994279 -0.009001 0)
(0.0361974 0.0105969 0)
(0.957418 0.00243864 0)
(0.963673 -0.313281 0)
(-0.118419 0.01556 4.7255e-20)
(0.878514 0.0139592 -1.14481e-20)
(1.03662 -0.0698564 2.10203e-21)
(1.08172 0.0341411 1.62522e-21)
(0.93058 0.00567104 -3.11962e-20)
(1.02737 -0.0622883 1.74346e-21)
(1.01357 -0.0142378 -1.48306e-23)
(1.01004 -0.0299464 -1.82833e-21)
(1.02169 -0.0159766 -3.22174e-22)
(1.00657 -0.00786628 5.84873e-22)
(0.546326 0.552612 -2.81514e-20)
(1.07009 -0.00902047 4.56891e-21)
(1.01192 -0.0312935 5.28629e-22)
(0.15622 0.00649959 3.61353e-21)
(0.995964 -0.00257054 1.13679e-21)
(1.00037 -0.000216469 0)
(0.0232943 0.00810537 7.27073e-21)
(0.342955 -0.00479158 -1.99463e-20)
(1.05475 0.0496465 0)
(0.864474 -0.026136 0)
(0.650783 -0.347534 2.77183e-21)
(1.12866 0.031811 1.55141e-21)
(1.12196 0.020778 -4.04985e-20)
(1.12369 0.0442322 0)
(1.04552 0.0518751 0)
(-0.196049 0.00582355 1.61588e-20)
(0.695489 0.0300344 1.6117e-20)
(1.11796 0.04391 0)
(1.02561 -0.00369105 0)
(0.903442 0.0141805 0)
(0.0665735 -0.00645591 0)
(0.175909 0.0391112 0)
(0.962579 -0.000135748 0)
(1.10265 -0.0351622 -2.26596e-20)
(0.932219 0.00876533 -5.701e-21)
(1.00382 -0.000708042 -1.12626e-21)
(0.932145 0.00604731 2.6894e-20)
(0.937829 -0.0434182 -1.86961e-20)
(1.22135 -0.171633 0)
(1.0176 -0.00715406 1.58421e-21)
(1.16942 0.0141657 -2.06989e-20)
(0.993533 -0.0501619 -1.79516e-21)
(0.933797 0.0528591 0)
(1.02322 -0.00643102 1.46524e-21)
(1.02084 -0.0709421 -3.4651e-22)
(0.958198 0.00439898 0)
(1.11392 -0.0667256 0)
(1.02976 -0.00764612 4.89029e-21)
(0.853213 -0.372833 -1.18743e-20)
(1.00173 -0.00480824 0)
(0.998266 -0.0511241 0)
(1.01289 -0.00310684 -3.47783e-22)
(0.987418 -0.00420846 -3.66704e-22)
(0.966163 -0.146857 3.72703e-20)
(1.02558 -0.0561512 -2.66206e-21)
(1.00301 -0.00604603 2.37277e-21)
(0.762716 -0.0168764 -8.17918e-20)
(1.00006 -0.00474379 2.06507e-21)
(1.10031 0.0493641 -1.34167e-23)
(1.17589 -0.052716 6.98509e-21)
(1.01027 -0.00205532 0)
(-0.177872 -0.00782391 8.14149e-20)
(0.046502 -0.00954913 0)
(0.999941 -0.000700135 -9.56968e-22)
(-0.0349291 -0.0347361 1.12299e-20)
(0.991761 -0.0120984 0)
(0.869187 -0.026677 0)
(0.87548 -0.0868079 1.91587e-21)
(1.20758 0.00194859 4.62632e-20)
(1.0195 -0.0698854 8.61917e-22)
(1.00001 -0.000473857 -6.49716e-22)
(1.06476 -0.125327 5.66281e-21)
(1.02529 -0.0037273 -7.21163e-22)
(0.991631 -0.0116944 5.09932e-22)
(0.376805 0.00649853 -8.94713e-21)
(1.00584 -0.00790334 0)
(0.437029 0.0233543 -5.7238e-21)
(0.204237 0.00733426 0)
(0.0252971 0.00422925 5.19114e-20)
(1.02891 -0.214024 4.77183e-20)
(-0.107334 -0.00285697 7.67014e-20)
(1.06633 0.0114104 -6.95054e-21)
(1.00032 -0.00937022 -2.80982e-21)
(1.12246 0.0220513 9.07891e-21)
(1.02046 -0.00277258 1.83042e-21)
(0.592076 0.0454676 1.00719e-20)
(1.01773 -0.00739269 0)
(0.979396 -0.0213553 0)
(1.23109 -0.0103471 -3.2182e-20)
(1.00779 -0.000527394 7.43311e-23)
(0.956539 -0.12834 -5.36089e-21)
(1 -5.35747e-05 0)
(-0.0254262 0.0175853 -1.29248e-22)
(1.0016 -0.00688825 0)
(1.04803 -0.123488 -1.3825e-20)
(0.640672 0.0483122 -9.7955e-21)
(0.957894 -0.0240806 0)
(0.971829 -0.0142244 0)
(0.589171 0.0401785 0)
(0.389083 0.0103686 -8.2906e-21)
(1.00771 -0.0400867 0)
(0.574694 0.559248 2.00703e-20)
(0.997459 0.000246179 5.88156e-21)
(-0.211264 -0.000559941 0)
(1.20621 -0.400764 0)
(0.980105 -0.0377428 2.80506e-21)
(1.00015 -0.000144042 8.18953e-22)
(0.955256 -0.30633 2.06302e-21)
(-0.225563 0.0064415 -9.41116e-20)
(0.933718 0.0092676 0)
(1.01408 -0.0117927 -7.60263e-22)
(0.993504 -0.0490097 0)
(-0.163601 0.00908435 -4.37409e-20)
(0.6827 0.055842 4.15831e-21)
(1.00969 -0.00469284 -1.17829e-22)
(0.768546 -0.0206573 6.82926e-20)
(-0.0354702 0.0173775 -2.0408e-20)
(1.01066 -0.0297423 1.09976e-21)
(1.00395 -0.00778173 0)
(1.00468 -0.00285966 1.5404e-22)
(0.849776 -0.22318 1.38842e-20)
(1.00087 -0.00271431 0)
(1.0262 -0.0555071 0)
(0.162503 0.00799121 0)
(1.19138 -0.407906 0)
(1.00006 -0.000403307 -1.28237e-21)
(1.10366 -0.189237 -1.75071e-20)
(1.00949 -0.00451361 1.44322e-22)
(1.00452 -0.00281673 -6.67481e-22)
(0.349806 -0.00583686 2.72315e-20)
(1.09485 0.0465252 7.17341e-21)
(0.988103 -0.00819042 0)
(1.00002 -0.000678615 -7.42848e-22)
(0.997371 -0.00503747 0)
(-0.202698 -0.00896185 7.36052e-20)
(0.999916 -0.000785895 0)
(0.417634 0.00616182 -1.74111e-20)
(1.11736 -0.0474245 0)
(1.02691 -0.0129347 -1.65918e-21)
(1.01479 -0.00381827 1.27619e-21)
(0.428696 0.0300795 -1.72872e-20)
(1.05602 -0.02176 -4.62509e-22)
(0.120125 -0.00608845 0)
(1.02751 -0.0341544 2.66506e-21)
(0.84387 0.0529229 0)
(0.19984 -0.00426407 0)
(1.02441 -0.0324301 9.99768e-22)
(0.278462 0.0331579 0)
(0.799166 0.0619236 4.54388e-21)
(0.282451 -0.13323 5.52427e-20)
(-0.186043 0.00767938 -3.41121e-20)
(1.09443 0.0455173 0)
(0.274076 0.0392324 9.81205e-21)
(1.0564 0.00630761 0)
(1.09576 0.0493959 3.85627e-22)
(-0.00568255 0.00739215 1.43716e-20)
(0.997624 -0.00825378 1.90648e-21)
(1.00998 -0.00705947 0)
(0.994917 -0.00898644 -3.02708e-21)
(0.980122 -0.0214157 0)
(0.994734 -0.0187466 0)
(0.995729 -0.000822373 1.17144e-21)
(1.06738 -0.0340344 2.2174e-21)
(1.09578 0.007549 2.04088e-20)
(1.00005 -0.00108304 0)
(1.01531 -0.0123538 0)
(1.00687 -0.00781104 0)
(-0.0285008 0.00853813 -6.05819e-20)
(1.13026 0.0432238 1.83599e-20)
(1.02039 -0.0210714 0)
(1.07089 -0.021642 -1.9047e-20)
(1.01957 -0.0105339 9.16372e-22)
(0.961392 -0.0307408 6.49527e-21)
(1.00378 -0.0284706 -5.21443e-22)
(0.264468 0.0301064 0)
(1.0942 -0.0317524 -2.99887e-21)
(0.967719 -0.00640385 0)
(0.187559 0.00364464 -1.18977e-20)
(1.00104 -0.00559787 -7.90881e-22)
(1.00725 -0.00599239 0)
(1.00346 -0.0278959 -1.50004e-21)
(1.11566 0.0466704 2.9821e-20)
(1.10094 0.0329062 2.19503e-20)
(1.07588 0.0531522 -7.34216e-22)
(0.686915 0.0565808 -1.73145e-20)
(-0.201726 0.00472486 0)
(0.29991 -0.00698897 -8.08173e-21)
(-0.0887001 -0.0118388 0)
(1.01265 -0.582922 3.13696e-21)
(0.996798 0.000114529 -1.0141e-20)
(0.666934 0.0568697 -3.38978e-20)
(1.00175 -0.0079043 0)
(0.994527 -0.00523226 -2.9607e-21)
(0.453846 0.0264174 -1.18049e-20)
(1.00355 -0.0071782 1.53454e-22)
(0.133454 -0.00901103 0)
(-0.217452 -0.0104179 0)
(0.946032 0.0460336 0)
(0.695292 0.103968 8.04905e-20)
(1.02947 -0.0498982 -1.74507e-21)
(0.979036 -0.0411416 -1.90678e-22)
(1.11067 -0.0777105 -2.57067e-20)
(0.97849 -0.192998 0)
(-0.222363 0.00675737 -3.65911e-20)
(0.997679 -0.00799382 1.93981e-21)
(0.300646 0.0419715 1.69929e-20)
(0.571563 -0.100567 5.03705e-20)
(1.06715 0.0110384 0)
(-0.0945494 0.0186158 -2.3184e-20)
(-0.0311595 0.0106806 2.82732e-20)
(0.99826 -0.00588387 0)
(0.0148978 0.338654 1.50051e-21)
(1.02996 -0.0540337 1.55853e-21)
(1.015 -0.0120307 1.60788e-22)
(0.871617 0.0347213 3.94262e-20)
(1.19875 -0.177133 -8.95949e-20)
(0.996039 -0.00236442 -1.15527e-21)
(0.996972 -0.00975624 1.33686e-21)
(1.0516 -0.010695 -9.15693e-21)
(0.905567 0.0157293 0)
(0.975346 -0.0130362 2.9274e-21)
(0.417477 0.00659056 0)
(1.05708 0.00589232 3.3413e-21)
(0.280904 0.0314924 0)
(1.01827 -0.0141976 7.53452e-22)
(0.99346 -0.0183061 0)
(0.78926 0.0573477 3.85684e-21)
(1.10122 0.0320612 -1.48552e-20)
(1.12002 -0.243566 0)
(1.1748 -0.353324 3.56643e-20)
(1.12879 -0.0857514 1.16121e-20)
(0.356655 -0.00692847 -8.97094e-21)
(0.427851 0.0209089 1.92619e-21)
(1.11967 -0.636591 3.44616e-20)
(0.706243 0.0296898 1.34486e-20)
(1.00063 -0.00533693 -4.61019e-22)
(0.993931 -0.00893883 5.67629e-21)
(1.09275 0.00389505 1.11978e-20)
(-0.145705 0.0101165 2.66752e-20)
(0.975592 -0.00116448 5.37946e-21)
(0.269902 0.0313511 0)
(0.274005 0.0298676 2.30389e-21)
(1.00571 -0.00806005 0)
(1.00359 -0.0439761 0)
(1.00162 -0.00443663 1.20989e-23)
(0.650977 0.0505393 2.18421e-20)
(1.08419 0.0178584 0)
(0.517947 -0.12849 0)
(1.20082 -0.123671 2.0919e-20)
(-0.00647241 -0.00984841 -1.2339e-22)
(-0.258495 0.00653112 1.97753e-20)
(1.11692 0.0444097 -1.3618e-20)
(1.00678 -0.0118007 0)
(0.967571 -0.00810286 0)
(1.11287 0.0304472 -5.7584e-21)
(0.975457 -0.189153 -5.74167e-22)
(0.0452718 -0.0799393 -1.81132e-19)
(1.02526 -0.00407407 2.16108e-21)
(-0.158152 7.92445e-05 0)
(0.98768 -0.0186984 0)
(0.255678 0.0298417 0)
(1.17244 0.0322077 -1.04631e-20)
(0.994019 -0.00423626 3.07158e-21)
(-0.06879 -0.00430052 -7.26924e-20)
(-0.0409841 0.0142823 1.6671e-20)
(1.12457 -0.0202806 1.09791e-20)
(1.0068 -0.00793822 5.69289e-22)
(1.13538 -0.155855 1.6999e-20)
(0.141826 -0.00240611 0)
(0.359948 0.00526618 -1.16863e-21)
(1.01123 -0.00667885 -1.48043e-22)
(0.0783822 0.42354 6.69801e-20)
(1.22686 -0.0151771 2.22109e-20)
(1.0267 -0.012552 2.16825e-21)
(0.864039 -0.335648 0)
(1.00538 -0.00817474 -6.19017e-22)
(1.27093 -0.155581 0)
(1.00423 -0.0060528 1.61865e-21)
(1.05094 -0.0405535 3.28946e-21)
(1.07333 -0.164844 0)
(1.00196 -0.0203783 1.86383e-21)
(1.02492 -0.00413223 -1.36119e-21)
(1.0338 0.0504981 8.64112e-21)
(1.00069 -0.000279491 8.28836e-22)
(0.981789 -0.006295 -2.48001e-21)
(1 -0.0019515 0)
(0.994786 -0.0193021 8.89864e-23)
(0.966951 -0.0084984 5.20188e-21)
(1.01561 -0.0122709 8.6487e-22)
(-0.00221426 0.00960507 0)
(1.01567 -0.0181111 7.16124e-22)
(1.24241 -0.0564644 0)
(0.397826 -0.154365 0)
(1.07132 0.0183865 0)
(0.975216 -0.0109674 -3.22835e-21)
(0.471753 0.204712 4.19724e-20)
(1.00828 -0.0134362 0)
(1.10882 0.0459586 -1.53034e-20)
(1.00044 -0.00870415 0)
(1.02456 -0.00683176 7.68656e-22)
(1.04049 0.0503434 0)
(1.00889 -0.0297788 0)
(0.980885 -0.0128011 0)
(0.996276 -0.0073392 -2.44427e-21)
(0.392708 -0.00441942 -1.68432e-20)
(-0.280512 0.00181436 -6.52657e-20)
(0.401771 0.0126811 0)
(1.00258 -0.0440669 9.36755e-22)
(1.00002 -0.000341574 -1.32695e-23)
(1.17221 -0.342298 -1.12393e-21)
(0.644659 0.0423492 -9.15305e-21)
(1.02395 -0.00603462 3.34486e-21)
(0.989043 -0.00902937 0)
(0.981911 -0.00575907 0)
(1.09841 -0.107984 0)
(-0.281308 0.00379063 -4.31338e-20)
(0.993802 -0.00397754 -1.78044e-21)
(1 -0.00180929 -3.94286e-21)
(0.862079 -0.0297282 1.61918e-20)
(0.995871 -0.00196092 -2.08419e-21)
(1.00658 -0.0116402 5.20978e-22)
(0.711772 0.056998 9.57128e-21)
(1.05127 -0.0361494 0)
(1.21948 -0.00658825 -3.39532e-20)
(1.02941 -0.00780221 -4.90215e-21)
(1.00151 -0.0091949 0)
(1.00281 -0.0163855 -1.55313e-21)
(0.675209 0.0561229 1.35717e-20)
(0.982186 -0.0354195 2.53022e-21)
(1.11971 -0.250771 0)
(1.02896 -0.00745576 0)
(1.11192 0.030125 -4.71735e-21)
(1.00741 -0.0408224 6.76612e-22)
(1.03149 -0.115776 -2.91304e-21)
(0.879273 -0.0893065 3.4063e-20)
(1.18012 -0.0968439 -1.50752e-20)
(1.00001 -9.25012e-05 1.96556e-21)
(1.02417 -0.0398131 -6.42077e-22)
(0.0715829 0.236904 -2.06274e-20)
(-0.0196567 -0.00788992 0)
(1.14032 -0.0335121 -4.21091e-20)
(1.00359 -0.00934497 0)
(1.02574 -0.00661042 -9.80574e-22)
(1.00313 -0.160694 0)
(0.48654 0.0196665 -1.32417e-20)
(0.673732 0.215082 0)
(1.11798 0.0445267 1.92109e-21)
(0.91365 0.0282476 2.23643e-20)
(0.931697 -0.0889577 0)
(1.07091 -0.0450085 0)
(0.996104 -0.00559415 -2.47109e-21)
(1.03423 -0.101621 -1.60264e-21)
(0.988207 -0.0185378 0)
(1.00159 -0.00517143 1.40809e-21)
(0.249272 0.238146 2.70641e-20)
(0.871328 -0.0229275 0)
(1.1756 -0.0977648 1.2388e-20)
(0.966687 -0.590516 1.88779e-20)
(1.2432 -0.053144 -1.52267e-20)
(1.01219 -0.0111599 0)
(-0.24336 -0.00763393 -1.70756e-19)
(1.03532 0.0518843 3.40741e-21)
(1.14908 0.0358008 -1.28019e-20)
(0.906473 0.0476405 0)
(1.04795 -0.0416424 -4.94883e-21)
(1.10373 -0.0858974 -8.61869e-21)
(0.58324 -0.063778 0)
(1.02733 -0.566471 2.10039e-20)
(0.645747 -0.368438 4.29768e-20)
(0.0629689 0.453211 -6.76728e-20)
(1.00074 -0.00230988 3.44115e-21)
(0.613138 0.163798 0)
(1.00003 -0.000820231 -3.29766e-24)
(0.440997 -0.0102251 5.95769e-21)
(1.00091 -0.00284781 -1.25277e-21)
(1.18339 -0.0232252 0)
(1.16765 -0.0171922 -3.42461e-22)
(0.993864 -0.00369965 1.92444e-22)
(1.00002 -0.000106502 -1.96327e-21)
(1.01469 -0.0120896 4.43973e-22)
(0.933407 -0.0918047 -3.34565e-21)
(0.660453 0.216006 -6.31374e-22)
(0.678019 -0.0174487 0)
(0.953507 -0.0346468 -9.85542e-21)
(0.937526 -0.091665 -1.85362e-20)
(0.76398 0.0540304 -1.67037e-20)
(1.0101 -0.0257605 -7.56241e-22)
(-0.00988301 0.0104684 -1.38819e-20)
(1.01011 -0.00756469 -1.43952e-25)
(0.504547 0.052143 6.37607e-21)
(1.00433 -0.0181911 3.34178e-22)
(0.140447 0.0373819 -2.63943e-22)
(0.672397 -0.026017 5.5283e-22)
(0.93101 0.0374671 0)
(1.14425 0.0409646 2.02768e-21)
(1.00002 -0.000426145 -1.19485e-23)
(0.267837 0.00183788 -2.08792e-20)
(0.980321 -0.0224541 4.68562e-21)
(1.00434 -0.00619239 -2.04079e-21)
(0.729164 0.0577708 -5.76017e-21)
(0.994298 -0.0051393 2.07759e-21)
(1.01034 -0.00778627 1.71502e-23)
(1.00346 -0.00918707 7.41525e-22)
(1.00429 -0.00294193 0)
(1.10084 0.0172238 2.49773e-20)
(1.02724 -0.00996351 0)
(1.01548 -0.0178029 -3.24825e-22)
(0.0392243 0.0701214 0)
(1.09868 -0.0276221 0)
(1.08615 -0.0690267 2.07016e-20)
(1.17587 -0.165671 -3.25429e-20)
(-0.029796 -0.0516351 -2.00979e-20)
(0.144918 0.0336401 -4.32489e-21)
(0.196423 0.00588415 7.13644e-24)
(0.631648 0.0584835 -4.96116e-20)
(0.787935 0.0594203 2.36452e-20)
(1.05143 -0.0227953 -2.30337e-21)
(0.431363 -0.00581516 -1.71421e-20)
(1.00268 -0.0201226 -1.74774e-21)
(0.987004 -0.00433334 3.78872e-21)
(0.996341 -0.00761835 -2.83453e-21)
(0.379391 0.0224171 1.84388e-20)
(1.00186 -0.0156507 -3.80157e-21)
(1.16683 0.00602231 -1.67199e-20)
(1 -0.000451215 -4.92387e-23)
(0.265733 -0.114336 0)
(1.13326 0.0334224 1.9813e-20)
(1.10619 -0.194698 1.61483e-20)
(1.07944 0.00880224 0)
(1.00216 -0.0067343 0)
(0.968372 -0.189964 3.52386e-21)
(0.35112 0.0216556 -2.25685e-22)
(1.01621 -0.0131515 -5.24184e-22)
(1.03521 -0.0236079 -2.26574e-21)
(0.908317 0.0140941 0)
(1.11772 0.0317058 1.60638e-20)
(0.778845 0.0591911 -1.47213e-20)
(1.06811 -0.032941 -1.71853e-20)
(0.110818 0.0310593 0)
(0.958949 -0.0528107 -1.82158e-20)
(0.733349 -0.268338 0)
(0.850494 -0.211348 2.41472e-20)
(0.941034 -0.0627195 -1.0189e-20)
(1.01437 -0.0117274 0)
(1.02861 -0.00759034 6.53309e-22)
(0.830303 0.0649861 0)
(0.935909 -0.0426899 0)
(1.00925 -0.00457961 -3.66169e-23)
(1.0268 -0.00996568 0)
(1.00266 -0.00706796 2.18839e-23)
(0.830701 0.0711302 0)
(0.0210635 0.019768 4.07501e-20)
(1.01104 -0.00647452 -2.36394e-23)
(0.253332 0.107271 2.72237e-20)
(0.490465 0.0207222 1.2111e-20)
(1.0113 -0.0188591 1.43004e-22)
(1.10897 0.0344391 -1.6993e-20)
(0.604571 0.127491 0)
(1.00033 -0.000172417 0)
(0.986388 -0.016438 -6.83141e-21)
(0.997618 0.000234156 -4.33193e-21)
(0.89471 0.00780636 1.34648e-20)
(0.169444 -0.733348 0)
(1.0961 -0.105393 0)
(1.13097 -0.0837676 0)
(1.05116 -0.0937935 0)
(0.670581 0.0496543 -4.08035e-20)
(1.20223 -0.160067 -8.60234e-22)
(0.623359 -0.497195 0)
(-0.310923 0.00458912 -4.71064e-20)
(0.556039 0.0426642 -5.35141e-21)
(1.00233 -0.0160497 -1.55614e-21)
(0.981062 -0.0224939 -4.19916e-21)
(0.71606 0.0377544 4.47922e-20)
(0.97575 -0.308751 5.2898e-22)
(1.10262 0.0311807 0)
(1.03195 -0.100501 0)
(1.0362 -0.16828 7.1098e-21)
(1.00431 -0.00590578 8.91035e-22)
(1.00187 -0.03254 0)
(0.492249 0.0508366 1.21921e-20)
(1.00823 -0.0140343 3.41885e-22)
(1.16558 0.0329593 1.35775e-20)
(1.00205 -0.00676072 0)
(0.769493 0.0251912 0)
(0.78017 -0.265465 -2.8362e-20)
(0.982805 -0.315003 -7.41325e-22)
(1.00137 -0.00525165 2.09659e-21)
(0.821295 0.053798 -8.58888e-21)
(1.01203 -0.0109775 0)
(1.01244 -0.0140445 0)
(1.01009 -0.00482153 9.28477e-23)
(1.1164 0.0456869 -2.39205e-20)
(1.30091 -0.272772 -5.29219e-20)
(0.980592 -0.03965 5.79235e-21)
(1.07389 -0.0715116 2.3713e-22)
(-0.298302 -0.00135024 7.85613e-22)
(1.03366 -0.0252789 1.97859e-21)
(0.198188 0.0408332 2.9177e-21)
(1.02254 -0.0397085 2.2945e-21)
(0.139295 0.728083 -5.38917e-20)
(1.07477 0.010756 0)
(0.975882 -0.00164893 3.49787e-21)
(0.954356 0.0257318 0)
(1.18876 -0.0432031 3.70701e-20)
(0.843756 0.0568397 1.20994e-20)
(1.00526 -0.137362 0)
(0.942597 -0.119892 0)
(1.05117 -0.0414371 -8.27428e-21)
(1.0014 -0.0151999 -3.21242e-21)
(1.11304 -0.0766015 2.37965e-20)
(0.141516 -0.00603095 0)
(1.09156 -0.0327327 -1.08654e-20)
(0.503118 -0.117061 -3.18971e-20)
(0.994368 -0.00937609 0)
(0.99392 -0.0044255 -9.24616e-22)
(0.391495 0.0240646 -1.87104e-20)
(1.14081 -0.0351185 4.31638e-20)
(0.275524 -0.00375212 0)
(0.271698 0.0705614 3.03032e-20)
(0.62406 0.0547476 -3.09348e-21)
(1.02729 0.0585906 -1.15091e-20)
(1.12939 0.043149 9.80383e-21)
(0.891412 -0.0480855 2.38011e-20)
(0.938609 -0.0626501 1.0325e-20)
(1.0279 -0.0580195 -2.41062e-22)
(1.18446 -0.276734 0)
(0.855354 -0.346361 1.61215e-20)
(1.11143 0.0333969 -2.1172e-21)
(1 -0.00100464 -3.37385e-21)
(1.03943 -0.0339792 6.15867e-21)
(0.179965 -0.00268685 2.89014e-20)
(0.980744 -0.574545 -1.31006e-20)
(1.14651 0.0316627 -6.8777e-21)
(1.00419 -0.00569142 -8.68494e-22)
(1.11674 0.0314289 -2.86755e-20)
(1.11255 -0.0714654 -8.92332e-21)
(0.982126 -0.0831333 4.27122e-21)
(1.08409 -0.0693279 -2.09627e-20)
(0.965149 -0.185493 3.70006e-21)
(0.523506 0.30282 -8.85022e-21)
(1.05421 -0.0229284 0)
(1.20388 -0.119856 0)
(1.09081 0.00924408 5.95257e-21)
(1.01322 -0.0109502 0)
(0.386556 0.114964 4.27163e-20)
(0.998124 0.000123471 -1.62201e-21)
(0.871823 -0.0158617 7.28349e-21)
(0.477474 0.0512837 0)
(-0.0013812 -0.0788391 -2.44875e-20)
(0.964561 -0.148486 -3.47222e-21)
(-0.269422 0.00462897 0)
(1.02042 -0.029286 0)
(1.0865 -0.0347166 -4.76689e-21)
(1.05131 -0.0340836 -2.53472e-24)
(1.05025 -0.0240002 -7.02829e-21)
(0.999997 -0.00153213 -8.93839e-22)
(1.0107 -0.0142594 -6.23009e-24)
(0.964414 -0.0917337 3.74198e-22)
(0.386088 0.00779668 0)
(0.685664 0.0553106 -6.09002e-21)
(1.00157 -0.0156592 1.55544e-21)
(0.930903 0.00182285 2.75011e-20)
(0.0441329 0.00344809 5.00874e-21)
(0.636266 -0.332305 -2.78853e-21)
(0.985739 -0.0163719 6.97348e-21)
(1.01668 -0.0143921 5.65122e-22)
(1.01591 -0.012879 5.31617e-22)
(1.07275 -0.0157086 1.39453e-21)
(1.03999 -0.0306069 0)
(1.01054 -0.00154096 0)
(1.13118 -0.00391554 0)
(1.10629 -0.0875479 -1.75217e-20)
(0.109954 0.0358644 -8.1622e-21)
(0.898674 -0.100924 0)
(-0.111982 0.00845399 -2.74148e-20)
(1.07373 -0.0880032 2.12861e-20)
(1.00113 -0.0055768 3.9573e-21)
(0.934732 -0.0591039 -2.14234e-20)
(0.923966 0.0531623 0)
(1.07028 -0.090957 1.08307e-21)
(1.01645 -0.0692806 0)
(0.236404 -0.00319771 -5.61427e-21)
(1.107 0.00655556 8.02808e-21)
(1.00457 -0.00796079 9.08323e-22)
(1.29843 -0.274282 0)
(0.931044 0.0452062 0)
(0.170697 0.0165571 1.12083e-22)
(0.553838 0.055243 0)
(1.12097 0.0311891 3.55016e-22)
(0.206701 0.00223225 0)
(1.00324 -0.00781327 2.71625e-23)
(1.11584 -0.630592 -3.19071e-20)
(0.219747 -0.00348534 3.12168e-20)
(0.965757 -0.0161475 -2.251e-21)
(0.171719 0.0399821 2.51433e-20)
(-0.242031 0.0124836 0)
(1.00801 -0.00612668 2.01238e-22)
(1.14231 0.0295875 -2.57279e-20)
(0.962455 -0.0554834 9.90144e-21)
(1.00204 -0.0160821 8.35063e-22)
(0.695888 0.0576528 2.9776e-20)
(0.104793 0.0197595 -4.76544e-20)
(0.56667 -0.329533 4.39077e-20)
(0.461603 0.307994 -4.09416e-20)
(0.432086 0.0153729 7.31229e-21)
(1.00974 -0.0132804 7.01619e-24)
(1.08242 0.0235874 -1.15265e-20)
(1.00927 -0.0134012 1.40708e-22)
(1.00189 -0.238468 1.30245e-21)
(1.01763 -0.0705903 -1.07755e-22)
(1.0039 -0.0170582 0)
(0.376724 0.00693931 8.7901e-21)
(0.286698 -0.00523555 0)
(1.05245 -0.0109377 0)
(0.892626 -0.0458537 -1.99695e-20)
(1.23986 -0.0491221 4.4033e-20)
(1.10716 0.00525598 1.10988e-20)
(0.998883 -0.00618723 0)
(0.710999 0.0584082 0)
(0.995828 -0.00219764 0)
(1.14565 0.0405438 -2.34871e-21)
(1.08171 0.0202272 4.91213e-21)
(0.144639 0.0388574 7.41287e-21)
(0.133868 -0.00454058 0)
(1.18016 0.0278526 0)
(1.00868 -0.0400422 0)
(1.00156 -0.0042502 -6.18287e-22)
(0.966898 -0.0541993 -1.10497e-20)
(1.01004 -0.0251383 0)
(0.464761 0.189401 0)
(1.09589 0.0322315 -1.9419e-20)
(1.10018 -0.297831 -1.10407e-20)
(1.12256 -0.00715853 3.07728e-21)
(0.757926 -0.249364 0)
(1.01022 -0.0137605 4.55352e-22)
(1.00181 -0.00616295 -1.54085e-21)
(0.469762 -0.0863555 0)
(-0.145423 0.00749272 2.71029e-20)
(1.17914 -0.0514666 -7.36514e-21)
(-0.251157 0.00363182 0)
(0.897327 0.00701284 1.24524e-20)
(1.00018 -0.00928105 3.27295e-21)
(1.07923 -0.0470615 0)
(1.00113 -0.0152007 4.25081e-21)
(1.00279 -0.0279849 0)
(-0.143643 -0.0076255 2.63193e-20)
(1.1295 0.033908 0)
(-0.119786 0.00652162 6.52439e-20)
(0.929834 -0.00179184 -1.10442e-20)
(0.174677 0.0385096 0)
(1.03844 -0.0320787 -6.13211e-22)
(0.393639 0.0273759 1.38685e-20)
(1.20162 -0.0695625 -5.74273e-20)
(0.731902 0.0607647 1.38563e-20)
(1.09865 -0.0857329 0)
(0.491478 0.207906 -7.33904e-20)
(0.0136648 0.0068641 0)
(-0.218296 0.0150649 -9.3394e-20)
(1.03405 -0.00190433 -3.23114e-21)
(0.295236 -0.00468368 6.13187e-20)
(-0.127999 0.00671843 -6.71767e-20)
(1.00001 -0.000336173 0)
(0.910371 0.0157088 -1.08786e-20)
(-0.087029 -0.0395883 1.8824e-19)
(1.03345 -0.0245249 -1.41693e-21)
(0.615575 0.0424897 -2.521e-21)
(0.990484 -0.0107568 0)
(1.00272 -0.0030782 0)
(0.996658 -0.02827 2.04788e-21)
(0.797676 0.0555819 0)
(1.18658 -0.287027 0)
(1.06704 -0.0499886 -6.7172e-21)
(1.00001 -0.000180046 4.75406e-22)
(1.00946 -0.00767709 -1.11559e-22)
(-0.0435556 -0.0205006 1.06417e-20)
(-0.0243346 0.0238027 -1.80523e-20)
(0.959839 -0.0016455 5.69147e-21)
(1.11381 0.0133821 1.9288e-20)
(0.525084 0.0403154 5.8571e-21)
(1.00059 -0.00878727 0)