/*--------------------------------*- C++ -*----------------------------------*\
| =========                 |                                                 |
| \\      /  F ield         | OpenFOAM: The Open Source CFD Toolbox           |
|  \\    /   O peration     | Version:  v2012                                 |
|   \\  /    A nd           | Website:  www.openfoam.com                      |
|    \\/     M anipulation  |                                                 |
\*---------------------------------------------------------------------------*/
FoamFile
{
    version     2.0;
    format      ascii;
    class       volScalarField;
    location    "300";
    object      nut;
}
// * * * * * * * * * * * * * * * * * * * * * * * * * * * * * * * * * * * * * //

dimensions      [0 2 -1 0 0 0 0];


internalField   nonuniform List<scalar> 
18618
(
0.00536005
0.0161935
0.0067099
0.026225
0.00684279
0.00330864
0.00114965
0.0173612
0.00652667
0.00673117
0.0022768
0.00671051
0.0253933
0.00677663
0.00683971
0.00671355
0.00685343
0.0149978
0.00679134
0.0064458
0.00132214
0.00681707
0.00671374
0.000868852
0.00670803
0.00243056
0.00493081
0.00680936
0.0066998
0.00684042
0.00674161
0.00611842
0.00678396
0.00122111
0.0257692
0.00686402
0.00684793
0.0037704
0.00629116
0.00683875
0.00251852
0.00471877
0.00680326
0.00152749
0.00670875
0.00379574
0.0172096
0.00673731
0.00110358
0.0180239
0.00681884
0.00685325
0.0155304
0.00261223
0.0066767
0.0251653
0.00673816
0.00646132
0.00127471
0.00635858
0.00684982
0.00668489
0.00646431
0.00675915
0.00160963
0.0124984
0.00667906
0.00159455
0.00672114
0.0173683
0.00257878
0.0025036
0.000645145
0.019491
0.0067564
0.0012572
0.00226707
0.0192188
0.00671821
0.00526152
0.0217793
0.0129054
0.0190983
0.00674806
0.00678384
0.00680268
0.000902004
0.00672773
0.00356082
0.0152978
0.000723098
0.00461755
0.00110304
0.00216951
0.0096569
0.00122905
0.00687105
0.0106976
0.00676459
0.00671006
0.00840273
0.00675582
0.0031177
0.00606553
0.00203195
0.00141549
0.00668135
0.00671572
0.00150829
0.00670065
0.00981493
0.00673705
0.00515663
0.00681508
0.00686809
0.00671045
0.00667452
0.000691711
0.00675457
0.000539158
0.0108054
0.00540276
0.0243644
0.0142034
0.00603666
0.00470356
0.00287054
0.0151274
0.00215246
0.000471137
0.000546256
0.00673309
0.0152626
0.00468702
0.00686237
0.0068336
0.00664651
0.00674254
0.0140523
0.00667328
0.00663218
0.00666925
0.00668514
0.00686372
0.00677457
0.00215343
0.00685467
0.00681833
0.00125401
0.000900479
0.00674564
0.00126113
0.0151771
0.00671641
0.00672611
0.0159839
0.00076265
0.0206764
0.00100704
0.0067564
0.00668568
0.0221174
0.00673999
0.00315391
0.00673757
0.0101332
0.00672657
0.0066751
0.0217603
0.0059992
0.00674205
0.00673246
0.000464903
0.000497829
0.0205933
0.00154733
0.00637503
0.0163638
0.00672703
0.00672461
0.000644577
0.000741131
0.00686459
0.00687693
0.00255137
0.00665155
0.00661019
0.000566761
0.00599212
0.00215083
0.00682212
0.000780787
0.0196444
0.00667026
0.00125712
0.00750899
0.00106436
0.0120154
0.00668635
0.0134512
0.00446924
0.00155499
0.00629066
0.00333377
0.021871
0.0215756
0.00610106
0.00125316
0.00479522
0.00946387
0.00445431
0.00664805
0.00124177
0.00101491
0.00687711
0.00687235
0.00698218
0.0207737
0.00676088
0.00231123
0.00683501
0.00476018
0.0066474
0.000389137
0.00492118
0.00528634
0.00684679
0.00673774
0.0255174
0.00102324
0.00588415
0.0031782
0.00656721
0.00113248
0.0067438
0.000511789
0.00636687
0.00710198
0.00687249
0.00807353
0.000756915
0.00627098
0.00680251
0.00329278
0.00740908
0.00684062
0.000879991
0.0135195
0.00664367
0.001693
0.0131099
0.00804669
0.00341014
0.00451676
0.00474677
0.00670173
0.0040025
0.000980373
0.00685794
0.000700089
0.000372397
0.00494224
0.00314448
0.0191174
0.00744353
0.00686118
0.000940355
0.00269553
0.00411268
0.00217531
0.00134573
0.00674833
0.00684626
0.00681018
0.00674258
0.00895173
0.0065763
0.00674356
0.0204481
0.00684454
0.00556165
0.00674202
0.00334102
0.0154214
0.00532761
0.0214572
0.00672368
0.00230857
0.00680836
0.00134063
0.00684152
0.00623662
0.00672884
0.00672297
0.000700534
0.00670444
0.0068531
0.00668317
0.00986967
0.000652943
0.0202596
0.00981034
0.0201236
0.000565544
0.000827701
0.0150498
0.019603
0.0068292
0.00631306
0.000609378
0.0068489
0.00637474
0.00638373
0.00685086
0.00140975
0.0201322
0.0114034
0.00598365
0.00686677
0.0066426
0.00204703
0.0010942
0.00086622
0.0194484
0.00686218
0.0082218
0.0158371
0.00674845
0.00065587
0.00676496
0.00667716
0.00681432
0.000685693
0.00684295
0.00691008
0.00653432
0.00302882
0.00681883
0.00627711
0.0136372
0.00684498
0.0192872
0.00668932
0.0067078
0.00672874
0.00638979
0.00686246
0.00660831
0.0241731
0.00436129
0.0183856
0.00108144
0.00672617
0.00672911
0.0214565
0.000511316
0.0066919
0.000521257
0.00675006
0.0010393
0.0161195
0.012495
0.000383765
0.00691284
0.0133109
0.0210394
0.00678476
0.00239599
0.003546
0.00677391
0.0066913
0.00673924
0.0241765
0.0181707
0.00682261
0.00681522
0.0193339
0.00682244
0.00417182
0.002761
0.00378908
0.00620868
0.0238369
0.00829481
0.00679096
0.00627105
0.0067668
0.000477767
0.00668343
0.00672543
0.00677947
0.00484236
0.0038595
0.00677682
0.02024
0.0247484
0.000532274
0.00604842
0.0067319
0.00651813
0.00651168
0.0167775
0.00431105
0.000535067
0.00676122
0.0225319
0.00685007
0.00168281
0.00667113
0.00180756
0.00685923
0.0233331
0.00188865
0.00414316
0.00670914
0.000412012
0.00680141
0.00281255
0.00675802
0.013915
0.00673719
0.00489332
0.00659634
0.0254235
0.00249564
0.00670682
0.00652371
0.00176128
0.00668445
0.00231847
0.00685516
0.00680442
0.00685844
0.00453842
0.00269482
0.00676137
0.000484217
0.00685242
0.000720608
0.00663525
0.00351944
0.00169298
0.00685561
0.00683081
0.01696
0.0034225
0.0083338
0.000659009
0.00687367
0.00194477
0.00663223
0.00178065
0.0261793
0.00577316
0.000463718
0.00549693
0.00673033
0.019474
0.00668358
0.0114698
0.0276762
0.00259941
0.0139623
0.0068222
0.000243825
0.000665383
0.00100351
0.00440086
0.0194201
0.00681701
0.00675429
0.00679969
0.00317941
0.000676962
0.00674631
0.00672647
0.00673202
0.0107701
0.000915705
0.00661551
0.0162221
0.000166425
0.00246912
0.00674709
0.00667582
0.0192632
0.00683925
0.000882628
0.00319592
0.0262827
0.000471042
0.00675325
0.00670948
0.00216655
0.018916
0.00667012
0.018408
0.00674315
0.00681037
0.00569677
0.00395929
0.00662693
0.0101136
0.00677463
0.00673458
0.0045762
0.00668565
0.00662818
0.00667602
0.0223907
0.0104755
0.000514082
0.0070004
0.00686685
0.00672634
0.00663817
0.0282241
0.0064185
0.0172234
0.00686653
0.016671
0.00632543
0.00665603
0.00124221
0.00777644
0.00235809
0.00671679
0.00575162
0.0101328
0.0225396
0.00680968
0.000515281
0.00687745
0.006801
0.00675048
0.00615187
0.000898217
0.0066793
0.0201055
0.0232909
0.027496
0.0165666
0.00611046
0.001511
0.000639673
0.00509124
0.024521
0.0253681
0.00242296
0.000443773
0.00056508
0.0068011
0.00563635
0.00044802
0.00050614
0.00670514
0.00673798
0.00117838
0.001645
0.00175172
0.00662107
0.0163865
0.00686833
0.0207581
0.00330913
0.00674179
0.00065257
0.00677239
0.00438508
0.00383353
0.00673664
0.0216069
0.00247778
0.0214352
0.000704041
0.00204052
0.0197046
0.00681046
0.00686731
0.00083139
0.0070043
0.00676764
0.000643182
0.0134392
0.00417253
0.00660859
0.00497254
0.00680971
0.00668581
0.000731832
0.00616753
0.0115007
0.00633206
0.0255369
0.00616241
0.0188833
0.00666417
0.00653779
0.0176494
0.00626775
0.0226293
0.00667536
0.000887471
0.0020402
0.00537556
0.00308857
0.00994671
0.00683931
0.00687361
0.00673777
0.00679361
0.00974148
0.00377933
0.00682883
0.000909381
0.00083943
0.00602122
0.000707972
0.00316594
0.00686231
0.000801345
0.00385237
0.00347816
0.00253768
0.00556377
0.00134227
0.00260128
0.000784436
0.00151541
0.00676734
0.00672259
0.00674271
0.00640124
0.00594363
0.0111132
0.0068614
0.00670046
0.00683006
0.00668011
0.00669309
0.0066808
0.00643453
0.00313711
0.0268227
0.00668047
0.00608884
0.0114119
0.00683669
0.00666295
0.00152606
0.000946126
0.00653685
0.00675126
0.0067026
0.00865593
0.00639809
0.0209196
0.00536871
0.0068022
0.000825585
0.0025701
0.00578311
0.00931053
0.0239438
0.0219743
0.000570217
0.00677519
0.000676126
0.00109904
0.00667683
0.000680725
0.00674036
0.00420757
0.00503331
0.00323396
0.00672191
0.0225466
0.00687027
0.0179025
0.00673455
0.00052355
0.000833344
0.0030187
0.0197395
0.00306593
0.00672477
0.0102009
0.00684355
0.0196528
0.00685265
0.000965324
0.00442375
0.00394729
0.00341158
0.00650656
0.00686823
0.00213642
0.00666234
0.0068273
0.00667265
0.00681471
0.0050266
0.00672071
0.00673436
0.00882447
0.00667192
0.0076476
0.0066484
0.00329042
0.00680727
0.00200933
0.00671321
0.00830423
0.0072148
0.00885304
0.00267024
0.00680859
0.00668067
0.00671041
0.0068318
0.00686276
0.00677218
0.00676875
0.000608756
0.00685822
0.0148517
0.0165468
0.00102778
0.00671287
0.00671234
0.000745859
0.0207402
0.011209
0.00245259
0.0157764
0.0166654
0.0166951
0.00259767
0.0146361
0.0067536
0.00664022
0.00671895
0.00247044
0.00682533
0.00475308
0.000757568
0.0066571
0.00829684
0.00687304
0.00351324
0.000598451
0.00675324
0.00041182
0.000979063
0.0210419
0.00525986
0.00675256
0.00684145
0.00660141
0.0230341
0.000717101
0.00669012
0.00680439
0.0124826
0.00113317
0.0197314
0.00686379
0.00060138
0.00340113
0.0129331
0.00576016
0.00667625
0.00679028
0.00683395
0.00682784
0.0067657
0.00584313
0.0177435
0.0232978
0.00667807
0.0209128
0.00675141
0.0199421
0.00039224
0.0173271
0.00679363
0.00541287
0.00934929
0.00674771
0.0121422
0.00673089
0.00682507
0.0059915
0.00668549
0.000779281
0.0068052
0.00683715
0.00256695
0.00672913
0.000747857
0.00676305
0.018609
0.0067068
0.00680914
0.0066122
0.00619699
0.000945024
0.00210613
0.00360085
0.00492983
0.0105621
0.00204214
0.00671109
0.00679609
0.00680419
0.0068392
0.00148319
0.000805048
0.0214659
0.00684476
0.00671068
0.0245978
0.00674629
0.0225306
0.000688492
0.00671402
0.00688017
0.000957818
0.00659186
0.00167921
0.00681435
0.00672141
0.00686708
0.00663626
0.000985117
0.00397727
0.00393128
0.00687018
0.00350615
0.000555856
0.00957262
0.00682875
0.0201879
0.00656592
0.0055602
0.00680261
0.00684592
0.010488
0.00685215
0.00229336
0.000848538
0.00169138
0.00673105
0.00668198
0.00685021
0.00173561
0.00664261
0.00679565
0.0229362
0.0188347
0.00684106
0.00284193
0.0040576
0.0112465
0.0230347
0.000499172
0.00910812
0.00674625
0.0194888
0.00681717
0.000564273
0.000816259
0.0110163
0.00675247
0.00684482
0.00684757
0.00686559
0.0209268
0.00539685
0.0104611
0.00673144
0.00142475
0.00187681
0.00656724
0.00682154
0.00651827
0.0147272
0.00810337
0.0217277
0.000627269
0.00683736
0.00201203
0.00687549
0.000298331
0.00323762
0.00452992
0.000499783
0.00330837
0.0261475
0.0129272
0.00667623
0.000763758
0.0236228
0.0140064
0.00944093
0.0125777
0.0242936
0.00338987
0.00432697
0.00479298
0.00660063
0.00205985
0.00683737
0.0245819
0.0169608
0.00456839
0.00313669
0.00760835
0.00666954
0.00682568
0.00686524
0.00294505
0.00671195
0.000928992
0.00683933
0.00228821
0.00674101
0.00670495
0.0067974
0.0014184
0.00724741
0.00253029
0.00628166
0.00684215
0.0230527
0.00668011
0.00295812
0.00663882
0.00686852
0.00680886
0.00612466
0.00561753
0.00675248
0.00676732
0.0146816
0.0135899
0.00352491
0.00609856
0.00677515
0.014572
0.00668531
0.00386437
0.0197193
0.00680331
0.00445089
0.00679186
0.00291198
0.00792694
0.0152675
0.0064874
0.00686709
0.00625985
0.0128964
0.00667573
0.00680047
0.00618237
0.00681449
0.00671368
0.00680381
0.01919
0.00686637
0.00537605
0.000710302
0.00651398
0.00677084
0.00683381
0.00682083
0.00448666
0.0028469
0.0164596
0.00142535
0.00187886
0.00675569
0.00356125
0.00683737
0.00685019
0.000633559
0.00679152
0.0144215
0.00678687
0.00679112
0.0044916
0.00683298
0.00679223
0.00395075
0.00677693
0.00655906
0.00670141
0.00685522
0.00380158
0.00676824
0.00666434
0.000564498
0.00682186
0.000542327
0.0208422
0.00971591
0.00664527
0.0246067
0.00650224
0.0067247
0.00332194
0.021644
0.00656001
0.000763877
0.00676262
0.00682928
0.00658452
0.00670704
0.00679983
0.00527717
0.00658889
0.000787846
0.00729126
0.00665069
0.00675427
0.00630145
0.000510567
0.00672562
0.0027491
0.00364499
0.00455788
0.00678668
0.00684027
0.000353599
0.000407944
0.00666576
0.00667611
0.0066692
0.00687689
0.0030819
0.00684801
0.00189335
0.00356836
0.00675897
0.000416539
0.00681282
0.00680887
0.00220768
0.00677582
0.016167
0.000589531
0.006847
0.0255593
0.00684198
0.000685482
0.00728392
0.00392613
0.0063474
0.00967378
0.00673907
0.00673491
0.00482316
0.0029885
0.00585706
0.00668205
0.00102481
0.00678551
0.00669575
0.00681234
0.0230844
0.0104718
0.00674988
0.00157775
0.00311239
0.00139538
0.00523979
0.0070041
0.0139908
0.0261677
0.0190154
0.00681401
0.0258428
0.00610946
0.00514312
0.00187351
0.0231519
0.0261715
0.00666744
0.00638234
0.0265298
0.0068149
0.0149307
0.00633004
0.0016583
0.0255571
0.0147204
0.00663173
0.00472462
0.00539751
0.00684334
0.0148131
0.00180988
0.00666443
0.00224779
0.00191371
0.0118748
0.0261455
0.00594677
0.00685508
0.00677499
0.00154283
0.00123344
0.00153553
0.00668746
0.00078348
0.00287991
0.00668489
0.00677911
0.00667228
0.00679067
0.00673445
0.000893755
0.00381707
0.0066923
0.000749709
0.000238459
0.0087288
0.00667405
0.00666298
0.00635258
0.0100968
0.00652747
0.0179851
0.000802208
0.0239218
0.00563544
0.00674294
0.00674384
0.00660638
0.000494762
0.00684373
0.00673231
0.00684145
0.0254301
0.000469167
0.00676269
0.00652839
0.0066829
0.00620194
0.00312098
0.00685984
0.0063168
0.00956245
0.0063199
0.00525607
0.00742079
0.00118015
0.0171819
0.00855508
0.0184683
0.00284417
0.00974367
0.00672811
0.00683394
0.00680131
0.00686153
0.00823077
0.00619933
0.00688512
0.00686699
0.00686765
0.000446721
0.00677236
0.017797
0.00384906
0.00080631
0.00686001
0.00684875
0.00288864
0.000538633
0.00682089
0.0068713
0.00668327
0.00667646
0.0077357
0.00596332
0.00685186
0.00362052
0.00439506
0.00683072
0.00844699
0.00597376
0.000729031
0.00685653
0.00683254
0.000634288
0.0219222
0.00266855
0.00211959
0.00655146
0.00166133
0.00177461
0.00685746
0.00469767
0.00986065
0.00680334
0.0136741
0.00676525
0.00419379
0.00287928
0.00684594
0.00681296
0.00671112
0.0114184
0.00234131
0.0222596
0.00663987
0.00326319
0.000656725
0.0068562
0.0068459
0.00541028
0.00678241
0.00363
0.000724192
0.00372062
0.0017719
0.000789273
0.000790307
0.00686339
0.0167386
0.00663001
0.0216271
0.00324275
0.00686178
0.00376342
0.00295139
0.00222796
0.0251633
0.00685437
0.00282494
0.00684173
0.0151046
0.00182187
0.0174601
0.000248834
0.00682377
0.00673667
0.00836496
0.00155884
0.0141216
0.0057784
0.00671017
0.00685298
0.00609155
0.00214149
0.00675727
0.00628562
0.00682602
0.0192496
0.00684394
0.000889351
0.00666114
0.000444712
0.00669276
0.0086054
0.00673887
0.0017187
0.00671643
0.00647091
0.00685197
0.000750011
0.00686624
0.00673145
0.013145
0.00679876
0.006693
0.0139592
0.00678252
0.000808103
0.0162769
0.0118857
0.00672351
0.0067813
0.00556708
0.0231018
0.00262503
0.00651172
0.00473397
0.0113414
0.00675862
0.00631089
0.00187533
0.00276381
0.000552215
0.00678608
0.00601601
0.00663754
0.0056178
0.0012409
0.0102993
0.00639894
0.00131549
0.0208076
0.00614718
0.00681598
0.0068194
0.0064105
0.00673721
0.00682407
0.006719
0.00683864
0.00655861
0.00685099
0.00672762
0.00673688
0.00672999
0.00683883
0.00631
0.00686761
0.018192
0.00661912
0.00675647
0.0188506
0.00612372
0.0178777
0.0247293
0.000588868
0.0123897
0.0068578
0.000705952
0.00682148
0.0209789
0.00685421
0.000938718
0.000557199
0.0148432
0.00686696
0.00687668
0.00248005
0.000411944
0.000460449
0.0068438
0.00676148
0.0115893
0.00543643
0.00510293
0.00669103
0.00669456
0.0145376
0.00676289
0.00655756
0.00606078
0.0087812
0.0151699
0.00430298
0.0067998
0.00684642
0.00676304
0.00680217
0.00657936
0.0262762
0.00670769
0.00685596
0.0239918
0.00196745
0.00667802
0.00667215
0.00381078
0.00680127
0.00671322
0.00673709
0.00647581
0.00674725
0.00165807
0.00663456
0.0262056
0.00554549
0.00657266
0.00675926
0.0159891
0.000646823
0.000912919
0.00676683
0.000696017
0.00910705
0.00686041
0.00685155
0.00679898
0.000790334
0.00657058
0.00753761
0.00982954
0.0142774
0.00667209
0.00121637
0.0128813
0.00752248
0.0159251
0.0011178
0.00676736
0.00130687
0.00625852
0.000542621
0.00666674
0.0104519
0.00669755
0.00591109
0.00581365
0.0137488
0.00684549
0.00577149
0.000257564
0.00664089
0.00672908
0.00243932
0.00670588
0.00682817
0.00608221
0.00480454
0.00686104
0.00223642
0.00681429
0.00571588
0.00241553
0.00663807
0.00686544
0.00678692
0.00584867
0.0231951
0.00597536
0.00686406
0.00761892
0.0182547
0.0067405
0.012733
0.00678985
0.00676404
0.014367
0.00681398
0.00685426
0.0068152
0.00682438
0.00170504
0.00660985
0.00592643
0.0111687
0.00368851
0.00673979
0.00174353
0.014626
0.00667413
0.00039923
0.00669812
0.00967438
0.00682737
0.00651587
0.0230812
0.00674314
0.00675003
0.00666639
0.00645859
0.023389
0.00684035
0.0119503
0.00671765
0.00673866
0.0153237
0.00674593
0.00605529
0.00091337
0.0019312
0.000987216
0.00156292
0.00673749
0.00169593
0.00673382
0.000326934
0.0245135
0.00369326
0.00591637
0.00683599
0.00538844
0.00675188
0.0107342
0.00522634
0.00578747
0.00684967
0.00334524
0.000462979
0.000552998
0.00684828
0.00673191
0.000557359
0.00670565
0.00679233
0.00478028
0.0092995
0.00395325
0.012546
0.0066786
0.0169844
0.00671608
0.00137921
0.000560907
0.00302828
0.00994127
0.00683078
0.00673685
0.00174981
0.00681837
0.00685776
0.000933841
0.0274048
0.000467766
0.00674908
0.00328173
0.0141209
0.00657916
0.00374599
0.00668125
0.00673814
0.00214233
0.0233971
0.00558004
0.00684059
0.0181175
0.0200802
0.00750194
0.000757121
0.00680233
0.000345607
0.00918206
0.0217124
0.02491
0.00673847
0.000405994
0.00646818
0.00403912
0.0237218
0.0199823
0.000771049
0.00930571
0.0068116
0.00683948
0.00673392
0.0171414
0.00674681
0.00664253
0.0135662
0.00604941
0.00203828
0.00684141
0.00686676
0.00614796
0.00520846
0.000394094
0.00667193
0.00675818
0.00218558
0.000650303
0.0067291
0.0060922
0.00286255
0.00677237
0.0168952
0.0201648
0.017994
0.00666779
0.00645429
0.0128437
0.00916272
0.00686465
0.022611
0.0209863
0.0068659
0.0103082
0.00513559
0.00636235
0.000841684
0.00643582
0.0223216
0.00476861
0.00686604
0.00688458
0.00490341
0.00235642
0.00530165
0.00608321
0.000605383
0.0154821
0.00667668
0.0211632
0.0241385
0.00682268
0.00683286
0.00639113
0.00126273
0.00675034
0.00061879
0.0208006
0.00682676
0.00156592
0.0100575
0.00344226
0.0218312
0.00673419
0.000559531
0.0173825
0.00360648
0.00617287
0.00242633
0.0176643
0.00377613
0.00657537
0.00683683
0.0146036
0.00201414
0.00424042
0.0041887
0.0148166
0.00684325
0.00667132
0.00143026
0.00546669
0.0020761
0.0199681
0.00298589
0.00680609
0.00668992
0.00367168
0.00685938
0.00141632
0.0246868
0.026078
0.00665064
0.00667069
0.0217045
0.00675604
0.00674655
0.0053411
0.00674354
0.00681146
0.0172844
0.00328874
0.0068204
0.000483333
0.00178017
0.00335919
0.000513444
0.0240697
0.0063911
0.00459246
0.00950863
0.00339195
0.00228401
0.00655842
0.002193
0.00306077
0.0107352
0.004636
0.0019308
0.00673815
0.0010542
0.0011347
0.00627584
0.00083258
0.00650457
0.00365213
0.00265503
0.00355256
0.00675526
0.00654503
0.00682213
0.00635524
0.0220029
0.00207476
0.00196234
0.00675277
0.00574434
0.0193331
0.00361341
0.00247429
0.00659637
0.000898933
0.0203163
0.000745323
0.00675071
0.00682861
0.00198194
0.00681726
0.00404174
0.0256486
0.00660622
0.00637286
0.0218525
0.00672405
0.0068196
0.00699785
0.00489639
0.00451006
0.0140378
0.00909276
0.00683883
0.00593893
0.0216855
0.00632667
0.00621653
0.00681577
0.0066191
0.00254887
0.00263154
0.00130205
0.00671174
0.00240288
0.003837
0.00674512
0.0167368
0.00655927
0.0105127
0.000391738
0.0068558
0.00682861
0.0186099
0.00409845
0.00672845
0.00667434
0.0110018
0.005994
0.0136781
0.0112058
0.00640161
0.0253078
0.0220481
0.00302588
0.00676876
0.0065761
0.00066899
0.00662656
0.00366491
0.00265306
0.00681859
0.00886258
0.000535869
0.000718582
0.0063351
0.00193547
0.0201839
0.00682973
0.00681466
0.00659931
0.000516056
0.00663268
0.00684574
0.0103803
0.00389536
0.0070851
0.0167701
0.000966233
0.00665198
0.00544487
0.00672632
0.00670749
0.0225667
0.00685663
0.00303847
0.00103106
0.00674819
0.0059489
0.00685014
0.00874885
0.00416244
0.00103886
0.00328375
0.0015442
0.00686115
0.0066576
0.000777803
0.00683779
0.000638086
0.00172847
0.0021376
0.0023691
0.00679957
0.00660762
0.00752828
0.00881759
0.0066406
0.00671813
0.0116197
0.0157
0.00144143
0.00500582
0.0068505
0.0109037
0.0212402
0.00987111
0.0140475
0.00683532
0.00375382
0.014177
0.0152896
0.0013648
0.0101312
0.0194364
0.021506
0.00663143
0.0066141
0.0164049
0.00681041
0.00676303
0.00678033
0.00677468
0.000781681
0.00629774
0.00384819
0.00675743
0.0207814
0.00856467
0.000971114
0.00677665
0.00683698
0.0117018
0.0219942
0.00686419
0.00686102
0.00491118
0.00296624
0.00134113
0.00686432
0.00664573
0.00686866
0.00680031
0.00410469
0.000744426
0.0249308
0.00770731
0.00665803
0.0201317
0.00674108
0.00673298
0.00666894
0.00686344
0.00148087
0.00682041
0.00666206
0.00635418
0.0068531
0.002462
0.00685998
0.00675852
0.000839924
0.0067898
0.00671511
0.00686437
0.00660782
0.00648452
0.00670558
0.00677755
0.000533895
0.0179833
0.00266068
0.00377706
0.00678947
0.00675617
0.0114033
0.00680452
0.021417
0.00672462
0.003224
0.00680906
0.00649037
0.00673947
0.0063319
0.0208853
0.0197575
0.00424002
0.0064944
0.00777885
0.000789419
0.0176324
0.00685614
0.00938513
0.00109667
0.00676421
0.00426599
0.018807
0.0132872
0.00270131
0.00677907
0.0065752
0.00115983
0.00685778
0.0164669
0.000155393
0.00665176
0.0232855
0.00685691
0.00656987
0.00100322
0.00682479
0.00678714
0.0222395
0.00582981
0.000996116
0.00654175
0.00667112
0.00291261
0.00668403
0.0094254
0.00624402
0.00682878
0.00599408
0.00676208
0.00653882
0.00659392
0.0064273
0.000584804
0.00660687
0.00152274
0.00132136
0.000836804
0.0168133
0.00322084
0.00833534
0.00235237
0.00642584
0.00396106
0.00891356
0.0255576
0.00675238
0.00785003
0.00673711
0.00438043
0.000626034
0.0154189
0.00271641
0.00687206
0.00687367
0.0118271
0.0229023
0.00684934
0.00725839
0.0181419
0.000365028
0.000783062
0.0105549
0.000534463
0.00640511
0.00775771
0.0148758
0.0101859
0.000986998
0.00672801
0.00664531
0.0126428
0.00688364
0.00668246
0.00134151
0.00733054
0.000498249
0.00214953
0.00249156
0.00595863
0.00677138
0.00686542
0.00679201
0.00764709
0.00615349
0.000443577
0.00685943
0.0154383
0.0184918
0.000441183
0.0120969
0.00146445
0.00645003
0.00179304
0.00878447
0.00190753
0.00723166
0.0221007
0.0244703
0.00677925
0.0041978
0.00686049
0.00931037
0.00124909
0.00196737
0.00676673
0.00115663
0.00220084
0.0031747
0.000325269
0.0172602
0.00113166
0.00717791
0.0207313
0.00686805
0.0225179
0.002169
0.00234709
0.0221641
0.00600424
0.00110485
0.00683411
0.0067644
0.00687613
0.00542553
0.021088
0.00372363
0.0153181
0.00667966
0.0268785
0.0068246
0.0181066
0.00662743
0.00685994
0.0068022
0.00649266
0.0181674
0.00409547
0.00132142
0.0183015
0.00903792
0.002383
0.00677047
0.00672503
0.0044537
0.000699914
0.00107297
0.00676507
0.00687139
0.0196967
0.0145405
0.0194747
0.0256025
0.00606957
0.00161966
0.00542576
0.00685351
0.00682644
0.0248061
0.00236045
0.0254377
0.00680094
0.00107637
0.00667478
0.00679951
0.000417548
0.0147649
0.0062604
0.0099779
0.000463118
0.00675898
0.0227453
0.00245119
0.00535344
0.00675264
0.00674924
0.00103862
0.00104368
0.0127769
0.00140143
0.00665986
0.0195739
0.00254825
0.0037192
0.00644443
0.0163515
0.00679854
0.000906736
0.0114942
0.021567
0.00132329
0.0106766
0.0239684
0.00675609
0.0181772
0.000673554
0.00678439
0.0023151
0.000658623
0.00091362
0.000624084
0.00682536
0.0045043
0.00681666
0.00672534
0.00684341
0.0046379
0.00647037
0.000660527
0.00109351
0.00650597
0.00491268
0.00656121
0.00360131
0.0168546
0.0067564
0.0129431
0.0184467
0.00842855
0.0233346
0.00348074
0.00677816
0.00289256
0.00438682
0.00668377
0.00670838
0.00114409
0.000236228
0.0123716
0.0066722
0.00131551
0.00159179
0.00676001
0.00149838
0.00682244
0.00682374
0.00254531
0.00687133
0.0196683
0.00682848
0.00675162
0.00672831
0.000940487
0.00678288
0.000398784
0.0063431
0.00675891
0.0176314
0.000467431
0.000713818
0.00688138
0.00248724
0.000658609
0.00149924
0.0131418
0.0067673
0.00963303
0.00328866
0.0165185
0.00652112
0.00681777
0.00674094
0.00368311
0.00341097
0.00682805
0.000784221
0.00680041
0.00143668
0.00675374
0.00683758
0.0068232
0.00122513
0.0145672
0.00474619
0.00966234
0.00967908
0.00346225
0.0018136
0.00676984
0.00221229
0.00162367
0.00648968
0.0192878
0.00318296
0.0164031
0.0103363
0.00681072
0.00519127
0.00667516
0.00595586
0.0116319
0.00672669
0.00675191
0.0112296
0.00970703
0.00222533
0.00632524
0.00653552
0.00648046
0.0171687
0.00468891
0.00668103
0.0176581
0.00788459
0.0268727
0.00669746
0.00386577
0.00492264
0.0222817
0.00972007
0.0261114
0.00685663
0.0208493
0.00676067
0.00327147
0.0116141
0.00183325
0.0005524
0.00673617
0.00339756
0.0218993
0.00676382
0.00667644
0.00675549
0.00118778
0.00638574
0.000284006
0.0136656
0.0189633
0.0228855
0.00884751
0.00662607
0.0068355
0.00426966
0.0227989
0.00616242
0.00632552
0.00062284
0.00267589
0.00403663
0.00679167
0.0216046
0.0218561
0.0226836
0.00677747
0.00167825
0.00669332
0.00676275
0.00159706
0.0190019
0.000510859
0.000886344
0.0067323
0.0237794
0.00675623
0.00666847
0.0194124
0.0115639
0.00667822
0.00624855
0.00662732
0.00639214
0.00598137
0.00648229
0.00678672
0.0236169
0.00417082
0.00687406
0.00663503
0.00707929
0.00671308
0.00137987
0.00507132
0.00659159
0.00181632
0.000290304
0.0018448
0.0182627
0.00653457
0.00489699
0.00668282
0.00142676
0.0131928
0.0114581
0.00340338
0.0221949
0.00123048
0.0104174
0.00360076
0.0226148
0.0210834
0.00667272
0.0251096
0.00652922
0.00860097
0.00674931
0.00656811
0.00120592
0.00752261
0.00667314
0.00379577
0.00329017
0.00684977
0.0226132
0.00555499
0.0194779
0.00655293
0.00680249
0.00234023
0.00674819
0.00697292
0.00681058
0.00149824
0.00132742
0.00670811
0.0110413
0.00686339
0.0225579
0.0217467
0.013027
0.00684105
0.000664185
0.0066005
0.00619105
0.00676275
0.00663261
0.0233547
0.00063993
0.0251222
0.00351507
0.0057353
0.00686414
0.0181033
0.0171059
0.015544
0.00357319
0.00655832
0.0018426
0.000624051
0.00302833
0.0212766
0.0063521
0.0217044
0.0065202
0.0067318
0.00898835
0.0068704
0.000751572
0.00646573
0.0139768
0.00670882
0.00678407
0.0067066
0.00392929
0.00668621
0.0106238
0.0201522
0.00239247
0.00832895
0.00542198
0.00607178
0.00658334
0.00485246
0.0180651
0.0127147
0.00667708
0.00675901
0.0114788
0.00684374
0.00261683
0.006673
0.00677404
0.00673027
0.0199004
0.0162927
0.00662004
0.0172195
0.0222786
0.0033851
0.00565095
0.00686766
0.00633254
0.00456974
0.0209786
0.00494436
0.0195755
0.00440024
0.000896967
0.00651678
0.0115123
0.0177372
0.0066455
0.00667786
0.0143001
0.00642665
0.00281123
0.00109621
0.0126275
0.0113069
0.00280282
0.00685992
0.00151936
0.0152676
0.00673152
0.00675443
0.0174842
0.00662809
0.00130069
0.00654599
0.00686129
0.00672904
0.0252792
0.00733712
0.00663499
0.00151843
0.0198235
0.00594405
0.00652424
0.0167859
0.00685408
0.00686509
0.00114389
0.00665553
0.00674888
0.00107976
0.00683142
0.00583763
0.00117584
0.00117179
0.00555617
0.00687293
0.00687658
0.0136763
0.00463013
0.00675109
0.006852
0.0159283
0.00273672
0.00659665
0.00316022
0.00371855
0.0107416
0.000770906
0.00294411
0.000436018
0.000497874
0.0223504
0.00331274
0.0009642
0.00666412
0.0142606
0.00588356
0.00126378
0.010645
0.0114682
0.00613465
0.00685322
0.0067937
0.0201305
0.0173135
0.0252315
0.00678481
0.00102393
0.0068681
0.0111883
0.0133651
0.0172999
0.00685739
0.0189129
0.00261817
0.00686113
0.0222019
0.0239369
0.016706
0.00673048
0.00186605
0.00101956
0.00681111
0.00226319
0.0150511
0.0223808
0.00251208
0.0126119
0.0165197
0.00144102
0.00645205
0.0173648
0.0012833
0.00664391
0.0105226
0.00726336
0.00541788
0.0185976
0.0233185
0.023574
0.000387607
0.0277002
0.00340519
0.000776916
0.00667638
0.00680282
0.0186558
0.000954557
0.00669021
0.00637704
0.00685459
0.00675568
0.00398131
0.0149812
0.00209923
0.000631451
0.0138081
0.00682288
0.00800034
0.00195808
0.00691963
0.0129649
0.0188491
0.00354168
0.000532391
0.00686402
0.00613241
0.0240152
0.00142679
0.00476316
0.00675569
0.0173957
0.00679973
0.0236826
0.00682924
0.00242449
0.00103091
0.000356222
0.00669724
0.0023466
0.000370441
0.00673781
0.019082
0.00675781
0.00664938
0.00683195
0.0220689
0.00466137
0.003448
0.000943592
0.0226745
0.00686373
0.00405064
0.000843123
0.0229882
0.00938013
0.00112
0.00655939
0.00657267
0.00236132
0.0028429
0.00687423
0.000845619
0.00763869
0.00687772
0.006655
0.0045771
0.0187217
0.00406894
0.000387616
0.00173984
0.000405813
0.00345604
0.00971956
0.0179852
0.00892113
0.0112544
0.0132242
0.0212925
0.0191166
0.0102143
0.00679222
0.00686936
0.00590552
0.00678814
0.0156018
0.00145075
0.00667359
0.00237483
0.00666324
0.0261812
0.00682183
0.0188209
0.000495756
0.00680966
0.00318426
0.00658547
0.0215314
0.00842966
0.0067977
0.0178742
0.000566337
0.000641216
0.0228787
0.00685557
0.0158961
0.000442615
0.00267396
0.0131585
0.00376051
0.0143089
0.00658645
0.00670563
0.00683314
0.0177022
0.00826455
0.0066661
0.00685805
0.00311686
0.00491373
0.00249925
0.00288919
0.00657724
0.0067428
0.0269445
0.0245595
0.0195551
0.00292708
0.0182923
0.00219033
0.00259234
0.00654165
0.00399689
0.00255591
0.00365478
0.00706542
0.00508771
0.00683462
0.00681922
0.0183561
0.00687105
0.00796952
0.00673118
0.017747
0.00667601
0.0222793
0.00675827
0.00675892
0.00395662
0.000152451
0.00110914
0.00675635
0.00652302
0.00683691
0.00471609
0.0238777
0.00673585
0.00415575
0.0264709
0.00560253
0.00678977
0.00356118
0.0033331
0.00652059
0.00613569
0.0136004
0.0191784
0.0261766
0.0188899
0.0175974
0.0037178
0.0143642
0.00685978
0.00136339
0.0178463
0.00654439
0.00683303
0.00637519
0.000658242
0.00684182
0.014024
0.00679467
0.0245707
0.00655344
0.00668641
0.0272665
0.00623327
0.000945417
0.000758272
0.0252056
0.00652921
0.0197564
0.000356472
0.0208403
0.00517422
0.00599726
0.0014181
0.00586783
0.000879019
0.0056252
0.0162427
0.00666701
0.0254728
0.00797377
0.00392035
0.0038028
0.00347765
0.00675159
0.00400188
0.0269927
0.00536813
0.00687198
0.0206576
0.000791856
0.000785462
0.00086696
0.00856214
0.00685172
0.00675553
0.00572975
0.00688088
0.00368603
0.00672772