/*--------------------------------*- C++ -*----------------------------------*\
| =========                 |                                                 |
| \\      /  F ield         | OpenFOAM: The Open Source CFD Toolbox           |
|  \\    /   O peration     | Version:  v2012                                 |
|   \\  /    A nd           | Website:  www.openfoam.com                      |
|    \\/     M anipulation  |                                                 |
\*---------------------------------------------------------------------------*/
FoamFile
{
    version     2.0;
    format      ascii;
    class       volScalarField;
    location    "300";
    object      omega;
}
// * * * * * * * * * * * * * * * * * * * * * * * * * * * * * * * * * * * * * //

dimensions      [0 0 -1 0 0 0 0];


internalField   nonuniform List<scalar> 
18618
(
0.227188
2.40929
0.0196633
0.9448
0.0210316
0.0976826
0.0291864
2.43926
0.0241033
0.0214188
0.0249174
0.0196776
0.950119
0.0211014
0.0210175
0.0200364
0.0209529
3.06185
0.0207846
0.0245567
0.0249807
0.0199054
0.0200091
0.0575019
0.0218244
0.0552299
0.187708
0.020848
0.0204622
0.0207325
0.0212076
0.0263308
0.0214842
0.0820412
0.296871
0.0218333
0.0214637
0.279711
0.0250655
0.0207163
0.134223
0.140256
0.0201857
0.317218
0.0247381
0.0223935
2.41093
0.0199253
0.114063
2.4902
0.0208683
0.0218035
0.481078
0.137328
0.0216319
1.56267
0.0212762
0.0244034
0.0778534
0.02477
0.0207418
0.0215484
0.0242565
0.0213297
0.122082
1.84602
0.0208654
0.0290106
0.0200985
0.527687
0.0246374
0.116009
0.0472867
3.21802
0.0213569
0.0275311
0.088397
2.53062
0.0200825
2.3762
4.20579
2.92951
2.97499
0.0219798
0.0214776
0.020175
0.0691203
0.0214249
0.0357921
3.02255
0.0477034
0.0766045
0.420532
0.0887235
0.359623
0.0276941
0.0215619
0.701198
0.0211637
0.0197574
0.34654
0.0213217
0.0888382
0.0266198
0.0260701
1.34335
0.0215234
0.0198863
0.12457
0.0202425
0.981221
0.0207638
0.0219624
0.0207325
0.0212982
0.0197965
0.0210517
0.807937
0.02114
0.118786
0.72251
0.021942
1.5364
2.96384
0.272615
0.0661698
0.141865
3.36064
0.0259749
0.0659521
0.0791005
0.0207549
2.84162
0.0649997
0.02127
0.0206566
0.0229308
0.0214875
2.37996
0.0213528
0.022839
0.0214874
0.0215349
0.0215275
0.0200977
0.0524389
0.0214814
0.0208584
1.22751
0.0298388
0.0212004
1.14619
2.43007
0.019928
0.0204315
0.3076
0.408866
2.05905
0.0641804
0.0199054
0.0203268
0.398616
0.0214793
0.101367
0.0202128
0.687367
0.0204272
0.0213717
4.16657
0.021921
0.0214727
0.0198251
0.0834167
0.0517325
1.9627
0.0283625
0.0581842
3.21294
0.0198084
0.0201259
0.0412451
0.054745
0.0218206
0.0216365
0.149739
0.0222727
0.023195
0.0398045
0.0661582
0.130784
0.022292
0.0498971
2.01745
0.0213703
0.123545
0.0320268
0.042263
0.63605
0.0225754
3.12082
0.0565561
0.273696
0.0251115
0.0235712
4.13426
2.73709
2.43228
1.14036
0.0223085
1.36284
0.0634087
0.0223991
1.09153
0.36901
0.0216296
0.0217242
0.0405504
4.18743
0.0219385
1.8939
0.0223156
0.0228527
0.0223102
0.169534
0.0328541
0.0315852
0.0222123
0.0202059
0.29668
0.0605151
1.05343
0.100095
0.0236008
0.0291685
0.0211124
0.0632755
0.0247655
0.0277915
0.0217172
0.343642
0.0388749
0.0254947
0.0216642
0.0353474
0.329957
0.0218989
0.0604645
4.18188
0.0225497
0.0257926
0.452802
0.0454369
0.0235396
2.13639
0.0223527
0.0204779
0.0224279
0.068724
0.0209587
0.0572276
0.170662
0.0223807
0.0914378
2.61264
0.0505193
0.0220584
0.034346
0.0771956
0.0223999
0.0241189
0.028406
0.0198773
0.0207468
0.0208586
0.019923
0.608847
0.024389
0.0199336
4.03275
0.0207285
0.022801
0.0198642
2.01195
3.88843
0.0313521
0.511101
0.0222074
0.0488604
0.0198683
0.083504
0.0206885
0.0253736
0.0215624
0.0222295
0.416066
0.0203035
0.0209401
0.0219631
0.610156
0.799481
0.55173
1.14518
2.6775
0.061154
0.0653322
3.17528
0.389249
0.0219264
0.0219811
0.0506231
0.0211936
0.0256317
0.0228837
0.0207596
0.0293111
0.382642
1.41048
0.0254411
0.0220013
0.0229304
0.0255301
0.128104
0.0383097
0.395051
0.0220381
0.0326982
0.675614
0.0199307
0.0595877
0.0216407
0.0215477
0.0207228
0.0504701
0.0211724
0.0250028
0.0220617
0.106264
0.0263509
2.49473
2.82911
0.0206687
3.87984
0.0247078
0.0195718
0.020132
0.0254693
0.0378021
0.0234095
0.543894
0.0223555
0.489682
0.0668024
0.0229193
0.0213715
1.93389
0.134957
0.0207229
0.262991
0.0198905
0.049512
0.46157
2.33403
0.191955
0.0377205
2.38456
0.719548
0.0214538
0.024417
0.0332411
0.0200903
0.0217674
0.021468
0.558686
0.495399
0.0199295
0.0220147
0.684425
0.0209026
0.0741237
0.0588001
0.0338799
0.0258273
3.76091
0.401771
0.0207775
0.022005
0.0202791
0.248245
0.0204352
0.0213717
0.0199865
0.0581538
0.0223324
0.0199865
4.08546
0.666757
0.114639
2.42909
0.020189
0.0243727
0.021958
0.90198
0.0786137
0.677433
0.020262
3.82782
0.0221739
0.0301734
0.0215509
0.0440682
0.0212438
3.66722
0.415445
0.27419
0.0225869
0.206797
0.0207128
0.0278457
0.0215389
0.895013
0.02146
0.0224169
0.0246654
0.300234
0.198337
0.0200503
0.0243507
0.0746149
0.0214802
0.0247237
0.0207619
0.0208577
0.0220979
0.068148
0.0423292
0.0215495
0.0783387
0.0212189
0.476438
0.0229936
0.188309
0.385267
0.0230661
0.0228941
3.52316
0.0276205
1.04041
0.7336
0.0219343
0.0336613
0.0230845
1.64005
1.54928
0.0224477
0.135703
2.41228
0.0215416
0.479066
0.0205173
2.88279
1.5772
0.0233632
2.72475
0.0205338
0.206518
0.0632197
0.366134
0.0222782
0.689333
0.0219736
0.0199914
0.0208096
0.196508
0.0566939
0.0212249
0.0201624
0.0201837
2.63232
0.949312
0.0231736
3.07435
0.203439
0.0233892
0.0211074
0.0210617
0.467308
0.021436
0.0297539
0.0890988
1.55826
0.199725
0.0199815
0.0325237
0.034589
0.89121
0.0216416
2.66243
0.021088
0.0208212
0.0296947
0.870504
0.0235113
0.704943
0.0213882
0.0214424
0.0320524
0.0214538
0.0232272
0.0214361
0.379248
1.02297
0.19973
0.0413458
0.021947
0.0201584
0.0258255
1.5918
0.0251389
0.674352
0.0211192
2.00462
0.0257967
0.0219278
0.0722399
2.5533
0.0461193
0.0199773
0.0295852
0.996408
0.402899
0.0207304
0.0686978
0.0216815
0.0206086
0.0211172
2.44641
0.130744
0.0220643
3.29596
3.68215
1.58275
0.470807
0.0270684
0.282872
0.0500214
0.022454
1.77233
1.53898
0.074664
0.0745183
0.0519181
0.0220725
0.0219393
0.116789
0.109495
0.0216676
0.0214288
0.117699
0.0309835
0.0347963
0.0233809
0.477419
0.0218471
0.327282
0.0231786
0.021721
0.157838
0.0213781
0.0223171
0.947309
0.0214476
3.75599
0.12914
0.690416
0.0627195
0.0352256
2.91271
0.0223846
0.0214487
0.0651869
0.0298216
0.0200516
0.71348
0.341956
0.0223288
0.0231581
0.0224776
0.0275933
0.0204353
0.0587635
0.0266625
2.85312
0.0262507
0.295286
0.0260787
3.27174
0.0215687
0.0231384
0.89215
0.0262013
0.394949
0.0209358
0.169338
0.0405224
0.022504
0.0232502
0.373931
0.0209913
0.0213049
0.0201423
0.0206198
3.74182
0.0632142
0.020553
0.90457
0.375101
0.0269882
0.770472
0.0232642
0.0215109
0.0553358
0.0222754
0.0260203
2.06456
0.0222581
0.0780637
0.0241581
1.1097
0.297301
0.0200565
0.0201344
0.0211423
0.704212
0.0276187
2.84602
0.0220599
0.0204498
0.0210884
0.0213909
0.020757
0.0213564
0.0249789
0.0863159
0.68888
0.0211744
0.0266896
1.78855
0.0221009
0.0217055
1.37557
0.0485947
0.0238505
0.021129
0.0217482
0.655245
0.0219838
0.491742
0.0273676
0.0216168
0.0389169
0.124488
0.0219657
3.73438
0.476223
3.81855
0.13852
0.0212295
0.0525882
1.03223
0.0213135
0.062314
0.0198522
0.0320298
0.0762235
2.27236
0.0201273
2.27175
0.0219857
0.68049
0.021596
0.0643299
0.0590931
0.115926
2.54808
0.215538
0.0197934
2.23629
0.0206412
3.92668
0.0219715
0.0672008
0.0221571
0.0223871
0.0236635
0.0251175
0.0219912
0.0257817
0.0216953
0.0203065
0.0210686
0.0223026
0.0321856
0.0197752
0.0198381
0.649532
0.0214474
0.329859
0.0228474
0.0248299
0.0207149
0.0593683
0.0197115
0.636968
0.0287783
1.20094
0.0607889
0.0216325
0.0211065
0.0212441
0.020243
0.0219883
0.0212265
0.0214475
1.25962
0.0209717
2.85645
1.1066
0.165885
0.0197069
0.0212148
0.412957
0.891286
0.830306
0.131847
0.461857
2.95592
0.891828
0.0339068
2.85109
0.0211582
0.0231019
0.0199937
0.0996342
0.0221835
0.022107
0.0575037
0.0229012
0.756649
0.0213576
0.194824
0.105469
1.09441
0.239946
0.121757
0.390965
0.0320187
0.0211489
0.0209646
0.026776
3.57012
0.606488
0.0219187
0.0206901
0.799367
0.0436563
0.398476
0.0217544
0.068214
0.0236966
0.464056
0.0219445
0.021319
0.0200134
0.0208505
0.0219646
0.0212076
0.0219162
3.36915
3.62785
0.0212886
2.55591
0.0213216
2.91727
0.238204
0.698209
0.020027
0.0341732
2.1821
0.0199205
1.34003
0.0214018
0.0206957
0.0270159
0.0218991
0.697747
0.0214701
0.0206331
0.0955165
0.0213942
0.0356095
0.0212055
2.75714
0.0202955
0.0223509
0.0255236
0.0220008
0.0308243
0.0249235
0.0232726
0.0227056
1.11267
0.0268951
0.0196302
0.0223589
0.0206845
0.0215142
0.0888965
0.0476157
3.90256
0.021491
0.0223442
0.467841
0.021096
2.30337
0.0813938
0.0196411
0.0218094
0.33992
0.023368
0.025638
0.0210848
0.0216389
0.0218903
0.023635
0.554905
0.0280131
0.0335111
0.0219589
0.806263
0.141808
0.0219105
0.0213961
0.39927
0.0249828
1.02736
0.021274
0.0215015
1.10262
0.0219432
0.572942
0.0418305
1.74554
0.0218157
0.0209933
0.0209162
0.0260575
0.0225204
0.0215907
0.688906
2.7668
0.0222961
0.105545
0.433821
2.20178
0.92345
0.0686656
0.288281
0.0197982
0.913687
0.0207954
0.133853
0.0421733
1.3174
0.0199232
0.0215272
0.020886
0.0210285
0.39958
0.0270765
1.45867
0.0206569
0.0420709
0.365545
0.0240963
0.0208909
0.0240464
0.849671
1.00045
0.893327
0.115198
0.0214216
0.443778
0.0218948
0.0352291
0.030795
0.0620716
0.102225
0.0885042
0.311737
0.274118
0.021629
0.0863382
3.70573
1.52154
4.74847
2.35802
0.933995
0.0826135
0.465519
0.936645
0.0238617
0.0245138
0.022316
0.682444
0.881752
2.34491
0.0227199
0.260778
0.0214381
0.0222562
0.021042
0.0267512
0.0218474
0.167523
0.0223137
1.63363
0.0214979
0.0217015
0.0223981
1.73725
0.31844
0.0240504
1.18301
0.022276
0.471428
0.0221085
0.0319247
0.0236165
0.0212251
0.0206612
0.0258705
0.631957
0.0198066
0.0207592
3.03316
2.85641
0.0372938
0.022022
0.022487
2.7567
0.0209815
0.0223387
1.96078
0.0223517
5.93174
0.0204228
0.0229361
0.0287979
2.38894
0.0219868
0.0217574
0.0158211
2.38304
0.0225641
0.0204479
0.0262789
0.0215611
0.821053
0.0206434
3.03279
0.021287
0.0411114
0.300748
0.0245456
0.0218361
0.0208404
0.0208362
0.0328945
1.87696
2.90162
0.0878533
0.0422133
0.0211513
0.0277935
0.0214796
0.0222151
0.116931
0.0203563
3.11425
0.0212873
0.0203604
0.473437
0.0205561
0.0212961
0.294412
0.0212875
0.022478
0.0226266
0.0207757
0.0397174
0.0219512
0.023441
0.146957
0.021103
0.207568
0.380373
0.974687
0.0223514
0.673274
0.0257024
0.0213592
0.095548
0.40372
0.0293543
0.0534051
0.0217201
0.0206761
0.025085
0.0195415
0.0214611
0.0224711
0.0232339
0.136984
0.90349
0.0232666
0.0202502
0.0263983
0.209803
0.0213732
1.84472
0.0281113
0.0531306
0.0212575
0.0214959
0.15028
0.218995
0.0228585
0.0210018
0.0212875
0.0216967
0.386399
0.0209267
0.0244742
0.0275521
0.0208471
0.140263
0.0221219
0.020828
0.0242514
0.0202933
3.08527
0.128151
0.0206066
0.306725
0.0218624
0.125225
0.0290053
0.0223711
0.0223634
0.661043
0.0206881
0.0206782
0.0311891
0.0230486
0.125148
0.0211493
0.174638
0.0224486
0.0232344
0.0215613
3.65186
1.02865
0.0202369
0.349284
0.0235848
0.0929809
1.00795
0.091662
2.84236
0.675077
3.73224
0.0207669
0.495515
0.427965
2.36367
0.0242832
0.714759
0.311342
0.0215498
0.0252215
0.546727
0.020886
2.87155
0.0254082
0.412285
0.669403
0.857718
0.0230822
0.0643281
0.0455701
0.0222705
0.848977
0.02488
0.0228628
0.0347128
0.0247839
0.332876
0.492287
0.0218939
0.0206248
0.0210828
0.252215
0.362262
0.0860797
0.0213019
0.303842
0.0266374
0.0203248
0.0210504
0.0211894
0.0224111
0.0206688
0.884037
0.777898
0.0201302
0.048466
0.245445
0.413424
0.0220309
0.0215502
0.0256729
0.648091
0.0244222
2.76734
0.0369712
0.342649
0.0223203
0.0201475
0.0212293
0.0213888
0.0674161
0.0204757
0.0201267
0.0213678
0.306894
0.228838
0.0200145
0.023952
0.023301
0.0272633
0.157167
0.0211404
0.0253656
0.994285
0.0253848
2.38319
0.44508
0.0356799
0.635294
3.55861
0.608524
0.0936282
0.648707
0.0217862
0.0221095
0.0216065
0.020972
0.0694699
0.0259113
0.0217899
0.0215547
0.0215683
0.121253
0.0214517
2.60921
0.0222189
0.0369738
0.0211374
0.0207226
0.0228102
0.067686
0.0221987
0.0213808
0.0227773
0.0208829
0.0351533
0.0272236
0.0204733
0.0236814
0.0287995
0.0199772
0.596664
2.46627
0.16683
0.0219453
0.0208728
0.125637
3.3106
0.142957
0.0410492
0.0253272
0.468533
0.0453477
0.0220788
0.0221073
0.641668
0.0207263
1.42258
0.0214513
0.0221611
0.0393064
0.0204601
0.0207554
0.0196851
0.306268
0.134316
3.94078
0.0232261
0.522443
0.0674442
0.0209123
0.0206412
0.0485642
0.021404
2.03998
0.0666957
0.0743831
0.045995
0.0760297
0.0498193
0.021486
0.869603
0.0231552
0.455497
0.467662
0.0209599
0.217169
0.0897548
0.386574
1.76808
0.0220473
0.47165
0.0207018
2.83481
0.0416666
1.515
0.507163
0.0207977
0.021194
0.627922
0.0773149
2.83388
0.18023
0.0196674
0.0205272
0.0270472
0.026461
0.0215285
0.797772
0.0215895
3.36553
0.0213404
0.0619927
0.0233496
0.128818
0.020102
0.214221
0.0199375
0.0436309
0.0196403
0.0256903
0.0212558
0.0409914
0.0217955
0.0214272
0.847073
0.0208484
0.0207516
0.321591
0.0212512
0.0715951
2.65277
0.3087
0.0213462
0.0203082
0.0405437
0.510657
0.0253161
0.0288309
0.0446281
0.739049
0.0198435
0.293655
0.0253655
0.526103
0.0520359
0.0214167
0.0270433
0.0228552
0.660239
0.383315
0.315167
0.0255854
0.382147
0.923859
2.45288
0.020827
0.0219076
0.0252184
0.0208099
0.0208074
0.020093
0.0212169
0.0235436
0.0204977
0.0201213
0.0208047
0.0200959
0.0205639
0.0256415
0.021429
3.57346
0.0229379
0.0198304
0.68697
0.0263272
0.667934
0.516925
0.117499
4.40772
0.0213037
0.315381
0.0218777
0.492058
0.0212311
0.319666
0.102574
2.88975
0.0211038
0.0218685
0.183913
0.0869859
0.0795406
0.0201889
0.0213012
0.762674
0.0333837
0.0285316
0.0219402
0.0217979
3.05018
0.0214663
0.0236544
0.556985
0.653226
2.84281
0.0227305
0.0204069
0.0220267
0.0200226
0.0237673
1.08368
0.549761
0.0195724
0.0208986
0.562749
0.0252708
0.0226758
0.0218179
0.0346818
0.0208406
0.0196318
0.0208894
0.0243545
0.0219878
0.0261897
0.390905
0.679625
0.0315441
0.0259104
0.0213162
2.41696
0.148804
0.0359263
0.0216897
0.121078
0.0257594
0.0212532
0.0204711
0.0206609
0.129025
0.0263614
1.21293
0.422964
0.812323
0.0213415
0.065407
0.479431
2.63168
0.50297
0.409832
0.0214812
0.442594
0.0259432
0.0970393
0.021579
0.736082
0.0218303
0.0274788
0.021921
0.566837
0.0212335
2.00451
0.29206
0.0228461
0.0200877
0.0297232
0.0224022
0.0215992
0.0265124
0.600247
0.0211194
0.0240818
0.021073
1.8658
0.0237783
0.0230811
0.0217443
0.0214069
0.0232715
3.78499
0.0306007
0.0217188
0.042181
0.879933
0.0207164
0.357427
0.0206376
0.0213419
0.567581
0.0216079
0.0216592
0.0212322
0.0209469
0.0297762
0.0233079
0.028902
3.71792
0.023903
0.0208895
0.0453929
0.31235
0.0212611
0.131987
0.020305
0.705577
0.0211178
0.0239191
0.39756
0.0206423
0.0228321
0.0217675
1.90742
1.54918
0.0206698
0.787008
0.0196799
0.0201525
2.87846
0.0211355
0.0291402
0.0370631
0.042538
0.0544802
0.0662214
0.0208447
0.0255882
0.0201484
0.166501
0.391334
0.0232389
0.0290491
0.0205779
0.62853
0.0215417
0.33314
2.38187
0.0218999
0.0203634
0.0428534
0.126605
0.218821
0.0203814
0.0196651
0.0719782
0.0219415
0.0203838
0.0267632
3.40655
0.0256026
2.4781
0.021377
0.620472
0.0196687
0.0296627
0.218284
0.109248
0.414436
0.0214634
0.0207076
0.0746803
0.0211658
0.0210984
0.301404
0.347333
0.0675796
0.0213508
1.31739
0.802234
1.07803
0.0233829
0.021873
0.021364
0.0253425
0.567413
0.0309988
0.0203032
3.12321
0.691704
0.442784
0.0357845
0.0216712
0.132299
2.45143
3.35917
0.386293
0.0208522
0.0714535
0.0260669
0.486563
0.573259
3.06736
0.0505698
2.33133
0.0202135
0.0206556
0.0214319
2.50441
0.0210581
0.0230829
0.307768
0.0267556
0.0302382
0.020595
0.021772
0.0274267
0.394201
0.178873
0.0213641
0.0212897
0.0261476
0.0786393
0.0214026
0.0269923
0.202427
0.0212726
0.342481
0.888035
0.679388
0.0216603
0.0250159
2.79867
0.995138
0.0210457
2.90277
3.29377
0.0218469
1.46703
0.0225902
0.0253818
0.0405552
0.0221165
2.34897
0.0826659
0.0211795
0.0218085
0.120262
0.539213
0.0223958
0.026499
0.838047
2.9016
0.021817
0.402691
0.341935
0.02032
0.0206427
0.0250602
0.12855
0.0228207
0.0694511
3.90285
0.0205354
0.0567351
0.529173
0.0756542
1.87503
0.0206114
0.0791503
2.53409
0.624243
0.0261374
0.0251563
3.46942
0.846709
0.0243435
0.0208833
0.907704
0.0465361
0.0362667
0.0234717
0.535146
0.0203252
0.0217705
0.25043
0.0850944
0.043887
0.28726
0.102658
0.0225203
0.0219161
0.0915178
0.0211559
0.133637
0.654666
0.533574
0.0229513
0.0224212
0.439882
0.0214196
0.0199641
0.794001
0.0210495
0.0216879
3.02543
0.022931
0.0212708
0.0861328
0.0442858
0.0260142
0.388218
0.515425
0.374806
0.0500002
2.2845
0.0895925
0.105925
0.0236868
0.024202
0.0519078
1.40281
2.40605
0.0249561
0.0206207
0.0844802
0.0323
0.371888
0.0663893
0.0246781
0.0231151
0.02491
0.0704565
0.0201716
0.02387
0.0223986
0.0263136
2.39151
0.0238339
0.0554726
0.0213474
0.587291
0.417764
0.0261961
0.0483613
0.0241107
0.127897
3.24301
0.0570785
0.0211555
0.022017
1.38637
0.0210171
0.0237047
0.932095
0.0237344
0.0249248
3.80071
0.0213513
0.0206627
0.903264
0.054634
0.0233416
0.536417
0.669402
0.0206053
0.0273249
3.37807
0.025432
0.0258443
0.0212333
0.0230298
0.14759
0.0377017
0.0481568
0.0195998
0.0237411
0.0262983
0.0199527
1.21096
0.0238351
0.620037
0.149493
0.0205866
0.022338
0.514908
0.871701
0.0213518
0.0226866
3.28994
0.0278317
4.17412
3.15615
0.025121
0.363221
3.76245
0.103518
0.0214562
0.0240122
0.232861
0.0229701
2.16709
0.0352417
0.0206502
0.626626
0.0573558
0.04408
0.0251401
0.295382
2.5014
0.0212438
0.0220865
0.0263579
0.0588107
0.0233782
0.0206832
0.451459
1.16516
1.10798
0.487919
0.0874729
0.0233987
0.0422139
0.0205357
0.0195427
0.502114
0.0219118
0.0258584
0.0358437
0.0229371
5.47684
0.0220111
4.89243
6.093
0.0390101
0.0932992
0.275255
0.021505
0.0234596
0.951776
0.020128
0.0745932
1.23426
0.075676
0.130487
0.0209374
0.440261
0.983661
0.433598
0.441809
0.019756
0.469883
0.907524
0.143917
0.564584
0.0221007
2.5767
0.28924
0.328172
0.48755
0.0212548
0.979726
0.582115
4.04814
0.354839
0.337067
2.69105
2.83698
0.023159
0.0236464
4.01
0.0206251
0.0215182
0.019916
3.28192
0.0509391
0.025396
2.17785
0.0211332
0.689408
0.617686
0.0346911
0.0205338
0.0201115
0.466172
3.3989
0.0210403
0.0216934
0.0599681
0.136759
0.0294232
0.0209876
0.022641
0.0214161
0.0205774
2.35803
0.0386068
0.354026
0.404908
0.0228831
3.17648
0.0211439
0.0214467
0.0218899
0.0210668
0.058776
0.0216085
0.0230174
0.425985
0.0218225
0.0289671
0.0216599
0.0211441
0.133464
0.0215024
0.0197361
0.0210168
0.0231136
0.0273037
0.022404
0.0203891
0.0714024
2.51345
0.0424333
0.0229873
0.0215651
0.0213431
1.4919
0.0222963
0.374107
0.0213554
0.0948681
0.020181
0.0242486
0.0206327
0.0254493
0.39373
4.03143
2.41807
0.0246517
0.917006
0.0892596
0.382478
0.0207153
0.626312
1.198
0.0203579
0.148177
2.58816
2.804
0.0429187
0.0215409
0.0282238
0.127373
0.0215082
2.44434
0.382114
0.022416
0.435467
0.0219353
0.0222284
0.321698
0.0223556
0.0224023
3.46135
1.02539
0.0706001
0.023716
0.0221975
0.484588
0.0219791
0.635735
0.0354984
0.0203405
0.0310672
0.021559
0.783488
0.352481
0.0248207
0.277515
0.0239848
0.402158
0.40404
0.103212
0.630311
0.022627
3.34221
0.0235576
0.0246325
0.0254854
0.026184
0.373147
0.0214541
0.0247568
0.0219972
0.333559
0.233056
1.37114
0.0565331
0.0218061
0.0219764
3.5104
0.634952
0.0214779
0.0529925
2.63073
0.152548
0.790385
0.616269
0.0748091
0.0329429
0.0270287
2.40268
4.74817
0.0800125
0.0224395
0.0224488
3.0053
0.0218501
0.0214923
0.502416
0.851171
0.0430589
0.0246813
0.0769452
0.3091
0.0203791
0.0218763
0.0206162
1.63626
0.0262159
0.0747157
0.021671
0.332875
3.14499
0.135422
1.29808
0.0266063
0.0228157
0.0644495
0.425521
0.0775161
0.0248977
0.329475
0.388794
0.0206015
0.0319427
0.0219852
0.033932
0.0711545
1.43466
0.0228188
0.0318012
0.0430913
0.244249
0.174023
2.06474
0.202782
0.0385352
0.326237
0.0218123
1.5858
0.0329025
0.0320312
3.79445
0.0292227
0.200686
0.0200096
0.0214325
0.0219208
0.233025
3.32516
0.0653475
3.34894
0.0211687
0.577775
0.0207362
0.328206
0.0232695
0.0208981
0.0213278
0.0239651
0.373039
0.0338921
0.0275013
3.53862
4.88729
0.518507
0.0205327
0.021363
0.0270848
0.0642382
0.111007
0.021552
0.0219921
0.325209
2.81896
3.12899
0.472536
0.0285822
0.256871
0.188641
0.0216453
0.0212821
0.349564
0.0443651
0.478012
0.0205879
0.691214
0.0231386
0.0213633
0.179112
1.72068
0.0229592
3.38492
0.0714188
0.0214075
1.5819
0.0235021
0.0302647
0.0211677
0.0213346
0.0536763
0.0623423
3.0077
0.0271361
0.0233229
3.07594
0.982507
0.613922
0.0242707
0.638519
0.0217101
0.0481118
0.639634
2.39838
0.0281599
0.526647
0.394899
0.0214664
3.69965
0.0485309
0.0205479
0.0715168
0.147602
0.416583
0.0587922
0.0210414
0.15413
0.0211947
0.0205132
0.0208866
0.0311035
1.93335
0.0471006
0.110211
0.0244288
0.64774
0.0240409
0.0704816
0.627491
0.0212358
0.478971
3.03222
0.481953
4.06098
0.0229104
0.021531
0.0765275
0.0717921
0.0214996
0.0223456
0.20613
0.214401
2.7901
0.0217798
0.0262881
0.216984
0.0215228
0.708216
0.0212465
0.0215651
0.0253268
0.0213646
0.29485
0.022306
0.0214441
0.0205747
0.0605604
0.020123
0.143239
0.0220651
0.021505
1.14146
0.21855
0.0551979
0.021909
0.0240213
0.0608653
0.0373157
1.55873
0.0204734
0.309481
0.022738
0.609403
0.0241302
0.0215521
0.0215356
0.0345575
0.0818657
0.0214949
0.0611593
0.0223303
0.0754491
0.0215175
0.0212488
0.0213952
0.0356051
2.4574
0.9423
3.07007
2.97505
0.0228341
0.0407702
0.0225234
1.30286
0.735454
0.0260859
0.29875
0.17375
1.68512
0.624428
0.0204878
0.0859913
0.0222593
0.0272135
0.629176
0.0205509
0.0212122
2.30256
3.22105
0.0237011
0.0259112
0.0270199
0.023917
0.330172
0.0487386
0.0213468
3.08242
2.27366
0.567272
1.16419
1.89024
0.0295743
0.504324
0.810144
1.72145
0.0219219
3.84413
0.0215323
0.0227109
0.380111
0.0686262
0.424274
0.0215214
0.143182
0.435568
0.0214235
0.0207433
0.0228663
0.0575269
0.0262298
0.163445
0.883585
0.492455
0.398536
3.31582
0.0233295
0.0218074
0.816299
0.528252
0.0221911
0.0256087
0.0645781
0.112133
0.0255082
0.020552
0.678144
3.39583
1.85254
0.0205449
0.480499
0.021871
0.0199605
0.0282429
0.486551
0.186832
0.0739288
0.0196727
0.397287
0.0199512
0.0217277
3.33116
0.348863
0.0225491
0.0257215
0.023503
0.0250201
0.0297027
0.024022
0.0206216
0.457093
0.022215
0.0217879
0.0234201
0.0178121
0.0222611
0.508894
0.626761
0.0233232
0.371523
0.217308
0.899498
2.93017
0.0234918
0.107962
0.0209854
0.0270787
2.94531
2.76753
0.0228042
2.76346
0.565779
0.82965
5.57174
4.00965
3.83112
0.0227432
0.393498
0.0235363
0.425393
0.0201635
0.0239905
0.0576449
0.0942801
0.0214052
0.0234267
0.044994
0.0219042
3.74294
0.0258008
2.61078
0.0238631
0.0204624
1.67708
0.0214325
5.24685
0.0216487
0.0879019
0.375745
0.0223002
2.93214
0.0211021
0.381223
3.73231
3.46384
0.0208552
0.276896
0.0236007
0.026527
0.0204846
0.0226258
0.411084
0.219961
0.386453
0.0764576
0.0288427
0.0214851
0.277722
1.14246
0.422452
0.54729
0.0246435
0.3074
0.398396
0.0269842
1.64967
0.025977
0.332328
0.0242577
0.0220884
1.05655
0.0214349
0.043374
0.0246144
2.80855
0.0195689
0.0215565
0.0195371
0.0235132
0.0218826
0.580101
3.20873
0.0420569
1.43222
0.0362294
0.169265
0.0238071
0.0401303
2.59395
0.47593
0.0215195
0.0207893
1.40669
0.0201726
0.123208
0.0214814
0.0210567
0.0213415
3.71091
0.493137
0.0231554
0.588952
3.94648
0.0226369
0.0242074
0.0210669
0.0265085
2.39358
3.48077
5.78038
3.57179
0.0379218
0.0571402
0.02291
4.43904
3.44714
0.0227901
0.0215865
0.627467
0.0249563
0.0258086
0.0385273
0.479779
2.91285
0.257642
0.0218451
0.0485099
0.425446
0.0230098
0.0201613
3.3282
0.023132
0.184275
0.0238525
0.0215817
0.0213605
0.377074
0.0355908
0.0233643
0.0784112
3.76383
3.21448
0.0237523
3.75684
0.0219975
0.0210199
0.136804
0.0233909
0.0213004
0.256244
0.0213824
0.0282063
0.0452215
0.0615382
0.029743
0.0213352
0.0214761
0.357019
0.0303074
0.0212741
0.0218647
3.95666
0.0449701
0.0219376
0.0359571
0.0235582
0.337976
0.0389822
2.05643
0.189617
0.196438
3.4548
0.0258914
0.064129
0.0229543
0.621715
0.0315887
0.413578
3.07304
0.304791
0.0271688
0.0208235
0.0205837
1.52564
3.77013
0.958678
0.0217259
0.0537324
0.0213307
3.2274
1.32534
1.1287
0.0207555
3.41675
1.98795
0.0211328
4.00376
1.58045
1.19432
0.0214413
0.0423449
0.0947269
0.0201967
0.0763147
0.348378
0.399965
0.0386857
0.608112
2.6426
0.20168
0.024463
2.71316
0.0403687
0.0230827
3.34319
0.0439596
0.0271064
3.0448
0.355989
0.337392
0.685088
1.60111
0.0228246
0.178848
0.0225928
0.0206102
3.40963
0.0351264
0.0208677
0.0309618
0.0216558
0.0227132
0.0335188
0.88377
0.0244311
0.0711976
2.46801
0.0213212
0.0226131
0.024655
0.0235444
3.5196
0.6763
0.0230681
0.0604242
0.0209963
0.0369237
0.46982
0.213735
0.0258212
0.0212254
2.99501
0.0201518
0.340847
0.0210766
0.139206
0.100843
0.126022
0.0226276
0.886651
0.146035
0.0227892
0.350205
0.0199176
0.0224195
0.0214209
0.453399
0.0229886
0.0455165
0.0105063
0.335547
0.0209462
0.0586558
0.255283
3.72283
3.2773
0.0385363
0.0237916
0.0235088
0.0316159
0.595764
0.0213167
0.0448483
5.13491
0.0217368
0.0230459
0.17181
2.39323
0.0322717
0.135393
0.0360913
0.129748
2.12504
3.15174
2.36888
2.96722
0.331312
2.85082
2.63811
2.41316
0.621918
0.0216168
0.0219574
5.43401
0.0216991
3.23898
0.204928
0.0213527
0.114529
0.0232745
1.58932
0.0217005
0.623991
0.231252
0.0206137
0.0271838
0.0250194
0.67817
2.35141
0.0216335
2.46497
0.264582
0.0677692
3.89316
0.0207871
1.38077
0.207276
0.0264671
2.7989
0.0716231
0.35165
0.0234788
0.0230777
0.0219006
1.16262
0.720944
0.0215704
0.0207323
0.0612356
3.06725
0.054914
0.0451321
0.0265372
0.0268058
1.59618
0.402644
0.285913
2.0712
2.55059
0.0310707
0.0716236
0.0229373
0.0282681
0.0316769
2.12384
3.30682
0.0366712
0.0218941
0.0207632
3.16692
0.0214641
2.85063
0.0210175
1.4329
0.0208765
3.70726
0.0203485
0.0214607
0.0597478
0.186141
0.0594849
0.0213511
0.0231539
0.0213848
0.0222556
0.508072
0.0223983
0.875876
0.392672
0.0265058
0.0206163
2.24003
0.0401258
0.0228895
0.0272378
2.81076
3.17849
1.61053
3.43042
2.65414
6.23861
1.35415
0.0208803
0.475768
2.82295
0.0239295
0.0206442
0.0250063
0.262077
0.0220317
0.611203
0.0215661
1.73537
0.0237048
0.0213307
0.405206
0.0348926
0.119373
0.0389751
0.538974
0.0236771
2.60138
0.205265
0.616443
0.022617
0.0278419
0.663885
0.0286435
1.09966
0.60295
2.96862
0.0222846
0.364598
3.37153
0.0231592
0.0602466
0.0227193
0.02098
0.288053
1.63623
0.02227
0.0219045
0.50937
0.269671
0.0405988
0.0492104
0.287037
0.0208427
0.0215014
3.15739
0.0217506
0.561969
0.021333
0.0222133
0.0228711
0.0228829
0.0200792
0.185637
0.0268377
3.76019
0.337944
2.86432
0.0240219
0.121648
0.0747785
0.089869
0.0229459
0.020806
0.0210866
0.021975
0.0247091
0.0216741
0.214082
0.0231476
0.0471015
0.0236046
0.405838
1.30537
1.18631
0.244735
0.257557
2.67791
0.245588
2.34662
0.021863
2.26051
0.0334162
0.109473
3.57461
0.0295894
0.0214024
0.0254014
0.612886
0.0221956
0.118364
0.0208057
0.458745
0.0203521
2.77771
0.236401
0.0232076
0.0499465
0.0765817
0.555725
0.0215043
0.0213828
0.0448452
0.0217225
3.62449
0.438201
3.63003
0.185096
0.0320205
0.0227212
0.0205029
0.0634321
0.0254357
2.89372
2.80644
0.0252308
0.0211236
0.0264549
2.90642
0.0214222
0.0216699
0.0212087
0.0369022
2.80188
0.0239311
0.0218763
0.0218362
0.0527262
0.0212544
0.0268527
0.0217306
0.0255134
0.0670873
0.381633
0.0220002
0.262217
0.021832
0.135
2.97899
0.18708
0.0251784
3.32388
1.25067
0.0218591
0.093466
2.75263
0.0362283
1.60613
0.311761
2.76109
0.0218991
3.08963
0.203639
0.0303434
0.126698
0.266705
0.0204861
0.463532
0.0403682
0.304885
0.0212096
0.589018
3.26233
3.81001
0.109054
2.04771
0.0472498
0.0211268
0.0261816
0.0263872
3.03799
0.0227531
0.0272243
0.021831
0.0433
0.284108
0.0218868
0.0214974
0.0212655
0.358576
0.0214876
0.0219159
0.0549005
0.0713335
0.0267526
0.227588
0.698279
0.0255029
0.220401
0.0214909
0.0216305
0.0214143
0.0251968
0.0373584
0.0473832
0.200198
0.0802547
0.143506
0.0214231
0.126767
2.52381
0.0201229
0.0341044
0.0215518
0.0204126
0.337702
5.24125
0.0264666
0.0215563
0.0269582
3.05762
0.420838
0.0358345
0.0215306
0.185919
0.0323791
0.310647
0.139749
0.0332869
0.11928
0.644539
3.31223
0.027918
0.817772
0.183356
2.77683
1.6358
3.48174
1.92049
3.37388
0.0370582
1.34031
0.0667291
0.0331188
0.234549
0.24091
3.71085
0.0329327
0.0643395
0.0261212
0.0239835
0.0369058
0.0492396
0.0250561
0.0688785
0.0223594
0.0266724
3.59525
0.0212159
0.0614809
1.91911
0.0775862
0.117157
0.0201966
0.0351503
0.0373266
3.67896
0.0778292
0.119181
3.2203
0.0265478
0.0383825
0.129758
0.126075
0.0374352
0.0278123
2.91954
0.0205043
0.140394
0.0217191
0.216942
0.0613945
0.0215049
0.021769
0.0464792
0.0341172
3.0459
0.0265622
3.827
0.0233048
1.54031
0.13211
0.0405818
0.0993492
0.0556026
0.0207787
0.0242531
0.675595
0.0380184
0.0222212
0.628927
0.0507188
3.29433
0.907056
2.5336
0.0695095
2.98266
0.0502369
0.223389
0.245722
0.130993
0.027893
0.0289922
0.601008
0.0231676
0.0425323
0.0242023
0.702877
0.187323
0.0205619
0.034448
0.0193472
0.0309366
1.14476
0.0226287
0.0428289
0.0468
0.378608
0.0231608
0.021409
0.218181
0.0215655
0.0334191
0.525106
1.29159
0.0271219
0.167227
0.0314015
2.18263
0.02536
0.0562223
0.0528276
0.0227559
0.036327
0.323262
2.07572
0.133969
1.20946
1.87633
1.0194
1.96085
0.0466474
0.0214226
0.928457
0.0291546
0.0287049
0.0202476
0.0216887
0.0234216
0.0380557
0.341039
0.393009
0.387579
3.4005
0.0358138
1.9036
0.0221968
0.025766
0.859925
0.0211414
0.398431
0.0219591
0.155113
0.62337
0.0520094
0.026351
0.0328166
3.03108
0.0445687
0.0435361
1.0072
0.0259372
0.125217
0.118539
0.0258028
0.0339463
1.27594
0.0216376
0.566881
0.051798
0.326801
0.0657461
0.052014
2.00367
0.047053
0.0347427
3.55098
0.0435139
0.0277127
0.0375928
5.68777
0.435394
0.0260288
0.0468429
0.0213087
1.48665
0.174347
0.610682
0.600812
1.10792
1.71759
0.0626682
0.0368432
0.280534
0.235391
0.0208086
0.567561
0.655979
0.02149
0.0229377
0.105153
0.0255972
2.26844
0.242552
0.0280548
0.026598
0.0548701
0.161841
0.0548516
0.0230023
0.0507743
0.0346202
0.0257369
1.86205
0.0222
0.022633
0.0346645
0.0227692
2.5181
0.0229114
0.0230869
2.32185
1.59326
0.0221664
0.02048
0.121533
0.036139
0.0217981
0.675864
0.272223
0.0233775
0.0257121
0.544286
0.0231252
2.668
0.326469
3.819
0.0621091
0.225988
0.681775
0.0229816
1.16902
2.67162
0.958197
0.0247422
0.023519
0.0233752
2.33451
0.0380947
2.2797
0.369458
0.0213435
0.0225069
0.493053
0.0227112