/*--------------------------------*- C++ -*----------------------------------*\
| =========                 |                                                 |
| \\      /  F ield         | OpenFOAM: The Open Source CFD Toolbox           |
|  \\    /   O peration     | Version:  v2012                                 |
|   \\  /    A nd           | Website:  www.openfoam.com                      |
|    \\/     M anipulation  |                                                 |
\*---------------------------------------------------------------------------*/
FoamFile
{
    version     2.0;
    format      ascii;
    class       surfaceScalarField;
    location    "300";
    object      phi;
}
// * * * * * * * * * * * * * * * * * * * * * * * * * * * * * * * * * * * * * //

dimensions      [0 3 -1 0 0 0 0];
oriented        oriented;


internalField   nonuniform List<scalar> 
27663
(
0.468507
-0.163026
-0.305482
0.164924
-0.106982
-0.057942
-0.478696
0.523298
-0.0446021
-0.170258
-0.151588
0.321846
0.37971
-0.418641
0.0389306
-0.275734
-0.165043
0.440777
0.221012
0.0606066
0.0810454
0.083879
0.258012
0.17624
-0.434252
-0.356096
0.491927
-0.135831
-0.166748
-0.0652449
0.231993
-0.000362581
-0.478333
0.0917472
-0.262006
0.31659
-0.525325
0.208735
0.425207
-0.0454969
0.556643
-0.39217
-0.164473
0.551772
-0.364625
-0.187146
0.00579036
0.0145944
-0.0203848
0.505601
-0.245785
-0.259816
0.441412
-0.389117
-0.0522949
0.159061
-0.434795
0.121207
0.348638
-0.469845
0.398333
0.15831
0.155632
0.045302
-0.200934
-0.473435
0.477191
-0.00375642
-0.25718
-0.0201687
0.277349
0.137742
0.330765
0.308261
-0.550969
0.242708
0.400253
-0.582277
0.182024
0.588233
-0.163799
-0.424433
-0.469219
0.494505
-0.0252863
-0.178631
-0.159849
0.33848
0.452119
-0.214655
-0.237465
0.299828
-0.0935275
-0.206301
0.442116
-0.270374
0.471823
-0.254733
-0.21709
0.255773
0.13206
-0.387832
-0.358254
0.124016
0.234238
0.437445
-0.285751
-0.151693
0.394914
0.193319
0.329528
-0.309761
-0.0197674
0.449863
-0.312121
0.616886
-0.326448
-0.290437
-0.161105
0.00542233
0.155682
0.459775
-0.201762
-0.221111
0.315815
-0.0947031
-0.0887861
0.323082
-0.485996
0.162914
0.162253
-0.449988
0.287735
-0.0850182
0.0617708
0.0232473
0.510995
-0.202734
0.239862
-0.440441
0.200579
0.312235
-0.36628
0.0540445
0.284173
0.0453554
-0.444457
0.463038
-0.0185802
-0.17599
-0.0471713
0.223162
0.511224
-0.194634
0.145075
0.296337
0.174253
0.125576
-0.251643
0.454975
-0.203331
-0.5614
0.362933
0.198466
-0.545291
0.289741
0.25555
-0.0937266
-0.29539
0.0810228
0.273151
-0.354174
0.224272
-0.187677
-0.0365944
-0.0620998
0.146833
-0.0847327
-0.37051
0.540963
-0.170453
-0.289514
0.234669
0.0548443
-0.288839
-0.20524
0.49408
0.271122
-0.385719
0.114598
0.0985727
-0.265321
-0.621157
0.349298
0.271859
-0.244868
0.193863
0.0510052
-0.0133623
-0.000588298
0.0139506
-0.541688
0.270942
0.270747
-0.272038
0.21294
0.059098
-0.309458
0.22946
0.0799978
-0.0837283
-0.00128986
-0.494792
0.205953
0.0612547
-0.132975
0.0717199
0.0412877
-0.0181291
-0.00325808
-0.00982013
0.0130782
-0.00594933
-0.00741297
-0.49904
0.0586556
0.440384
0.256411
0.195708
0.32017
0.296715
-0.155182
0.224636
-0.0694533
0.00367639
-0.359773
0.340225
-0.271036
-0.0691884
0.016169
-0.0103786
-0.187499
-0.0573691
-0.442402
0.336074
0.106328
-0.197415
0.0363104
-0.284456
-0.0250017
0.441484
-0.000946746
-0.440537
-0.202917
-0.0691216
0.11959
-0.379903
0.260312
0.387084
-0.159412
-0.227673
-0.189517
-0.335808
-0.444459
0.444096
0.432395
0.00908856
-0.280837
0.36186
0.281364
-0.299554
0.0181905
-0.276008
0.0973769
0.430749
-0.430749
-0.14024
0.149392
-0.00915192
-0.380838
-0.0636198
0.0586049
0.365613
-0.424218
0.150804
0.0734684
0.188823
-0.479076
0.290253
0.263516
-0.0768259
-0.18669
0.132996
0.279796
-0.412792
0.357493
-0.321009
-0.036484
0.522456
-0.31431
-0.208146
0.0913167
0.275778
-0.367095
-0.484065
0.0396061
-0.464506
0.0939963
-0.147891
0.0148199
0.133071
0.170164
-0.452693
0.282529
-0.172233
-0.0087306
0.180964
0.145735
0.241349
0.287061
0.0704317
0.0386134
-0.214604
0.00412302
-0.0073811
0.246375
-0.409401
0.383865
-0.141977
-0.241888
-0.273284
0.256752
0.0165318
-0.0112169
-0.00864579
0.0198627
0.12618
-0.273814
0.147635
0.0747528
0.127774
0.1241
-0.191806
0.0677065
-0.29047
0.423466
0.0126891
-0.00743277
-0.00525631
0.199588
0.184547
-0.384135
0.338438
-0.247122
-0.206539
0.477445
-0.270907
0.285587
-0.530256
0.244669
0.129816
-0.411386
0.28157
-0.0230578
0.0988533
-0.0757955
0.60142
-0.257358
-0.344062
-0.468006
0.0558741
0.412132
-0.527689
0.233775
0.293914
-0.341745
-0.203546
0.382847
-0.263257
0.510721
-0.246692
-0.264029
0.0636385
-0.320819
-0.131318
0.38709
0.244596
0.266399
-0.0159133
-0.124327
-0.169811
-0.0389498
0.20876
0.172477
0.338748
-0.134845
-0.0130463
-0.118518
0.0954602
-0.333565
-0.452541
0.504515
-0.0519739
0.347542
0.0848719
-0.432414
-0.153907
0.154909
-0.00100235
0.105849
0.040088
-0.145937
0.132399
-0.224148
0.0917491
0.173783
-0.472494
0.298712
-0.464963
0.062734
0.402229
-0.149461
0.374367
-0.224906
0.416402
-0.286586
0.296802
-0.0325619
-0.26424
0.612304
-0.314542
-0.297761
0.349727
-0.203993
-0.429645
-0.0228955
-0.299832
0.525648
-0.225816
0.0133546
0.027933
0.173965
0.169828
-0.343793
-0.379204
-0.162484
0.124472
-0.437629
0.313157
0.178888
-0.0547881
0.134197
-0.200654
0.0664569
0.190115
-0.128655
-0.0614602
0.213318
-0.294103
0.0807851
-0.494812
0.176597
0.318215
0.000284129
-0.011501
0.410538
-0.286066
0.307482
-0.512723
0.0709841
0.15125
-0.222234
-0.0604295
0.194626
0.227468
0.244355
0.504334
-0.278484
-0.22585
0.0108887
0.537872
-0.312548
-0.225325
0.473769
-0.21587
-0.257899
-0.149002
0.219986
-0.340104
-0.154707
-0.438946
0.273903
-0.229918
0.45515
-0.225232
0.129157
-0.199549
0.0703924
-0.0616495
0.167498
0.299644
0.301777
-0.215812
0.135177
0.080635
-0.161986
-0.29365
0.455636
0.216949
-0.0656988
-0.277561
0.349044
-0.0714833
-0.0188021
-0.480238
-0.109734
0.00750301
0.102231
0.367408
-0.28565
-0.0817576
-0.0265361
0.189668
0.185801
0.324367
-0.237583
-0.086784
-0.0342173
0.0103847
0.0238327
0.0145742
-0.0341362
0.019562
-0.0613347
-0.0375992
0.0989339
0.158305
-0.157921
-0.00038429
0.202773
-0.31381
0.111038
0.224654
0.00544148
-0.230095
0.345069
-0.145481
-0.488312
0.465653
0.0226585
-0.00859081
0.14676
-0.138169
-0.134699
0.0070579
0.127641
0.226647
0.277687
0.52759
-0.300122
0.499291
-0.230335
-0.268957
-0.0208627
-0.147044
-0.141983
0.133392
0.112503
0.247248
-0.359751
0.330835
-0.302609
-0.0282261
0.318592
0.21928
0.172436
-0.107037
-0.0653989
0.120469
-0.326546
0.206078
0.323323
-0.0796281
-0.243695
0.361161
-0.248658
0.334864
0.27744
0.0871155
0.135821
-0.223336
0.0875146
-0.0337222
0.258376
0.0797684
0.217033
-0.492423
0.024417
-0.076196
-0.391911
-0.0773074
0.189445
-0.114693
0.215543
0.239432
0.164153
-0.44056
0.276407
0.249107
-0.213195
0.526962
-0.313767
0.222631
-0.155265
-0.0673668
-0.121617
-0.175849
0.297466
0.325221
0.10325
0.236975
0.195589
0.236806
0.413103
-0.173241
-0.04882
0.204452
0.0213532
-0.0321507
0.0107974
-0.498201
0.00988929
-0.0967455
0.222925
-0.0653024
0.377538
-0.502138
0.245909
0.256229
0.215555
0.108812
0.165854
-0.120217
-0.0456367
0.172472
-0.303698
0.131227
0.241157
0.255496
-0.496654
-0.3122
0.352584
-0.0403837
0.222526
-0.0901275
-0.487675
0.225209
0.262466
0.115848
-0.215951
0.100103
0.0834415
0.0889944
-0.139729
0.00667519
0.274689
0.124119
-0.0735446
-0.0505743
-0.318594
-0.183544
0.114683
-0.351837
0.237155
0.145785
0.0769029
-0.276693
0.26958
0.083004
0.20455
-0.280128
0.0755787
-0.0811624
0.138357
-0.424296
0.285939
0.572722
-0.177808
-0.200996
-0.349973
-0.510704
0.31949
0.191214
0.362148
-0.284759
-0.0773892
-0.468107
0.311218
0.156889
-0.187622
-0.0273855
0.00449452
0.022891
0.398301
0.174421
0.245049
0.0857859
0.433915
-0.295558
0.0577126
0.108141
-0.00974553
0.0310988
0.258065
0.0652581
0.212958
-0.335258
0.1223
0.528048
-0.098244
-0.429804
-0.221174
0.284812
-0.315629
0.436837
-0.255127
-0.026963
0.28209
0.237456
-0.443994
-0.308507
0.0227558
-0.0233742
0.418474
-0.3951
0.12927
0.398778
-0.0123438
-0.141563
-0.0776746
0.477928
0.306725
0.245047
-0.398339
0.294113
0.104226
0.0845875
0.0234605
0.392167
-0.121045
0.228853
-0.0434908
-0.185362
0.0728643
0.0512546
0.234873
-0.052647
-0.182226
-0.0883266
-0.109309
-0.000424448
-0.175012
0.356919
-0.181907
0.277991
-0.438887
0.160895
-0.111278
-0.0714973
0.0705623
-0.343485
0.272923
0.429621
0.0011276
-0.328786
0.088982
0.239804
-0.163098
0.0804063
-0.250217
-0.372663
0.197651
0.198531
-0.19309
0.450049
-0.290988
0.355004
-0.240321
-0.32454
0.527579
-0.203038
0.48767
-0.48767
-0.0650083
0.0672318
-0.216234
0.199206
0.157713
-0.354124
0.261863
0.0922614
0.28542
-0.447406
0.107802
0.241242
0.476687
-0.157198
0.168384
0.0664886
0.114613
-0.396482
0.281869
-0.4205
0.120669
0.266449
0.256007
0.129456
-0.203298
0.0738424
-0.25911
0.329672
-0.276575
-0.180661
0.457237
-0.287022
-0.0671017
-0.0594232
-0.209623
0.269046
-0.265483
0.429636
-0.0230281
0.0727866
-0.0497585
-0.0103059
-0.0212919
0.0315978
0.188659
-0.474439
0.28578
-0.0231936
0.00115852
0.0220351
0.183199
-0.171239
0.499831
-0.328592
0.476179
-0.168696
-0.4814
0.0506512
0.508121
-0.228115
-0.280005
0.457175
-0.0308085
-0.426366
-0.239291
-0.107301
0.346592
-0.100925
0.122274
-0.31745
0.195176
0.133088
0.0894377
-0.0837376
0.16324
-0.416058
0.252818
0.100177
0.0899381
0.161376
-0.122803
-0.0385727
-0.254173
0.495331
-0.0711374
0.132916
-0.061779
-0.250513
-0.221954
0.24
-0.0180458
0.128369
-0.31704
0.188671
-0.0460506
-0.0724674
-0.0381224
-0.109244
0.147367
0.219772
0.288349
-0.117538
0.0714872
-0.36511
0.236136
0.128975
0.449787
-0.335174
0.303122
-0.163691
-0.284142
0.447833
0.291548
0.219173
-0.425598
0.424889
0.000709073
0.138616
0.277786
-0.363155
0.123865
-0.205134
0.327407
-0.187752
0.536389
0.420109
-0.142118
-0.320765
0.141073
0.179692
0.495327
-0.330379
-0.164948
0.355845
-0.010776
0.259211
0.108197
0.334229
-0.230979
-0.281466
0.0510808
-0.0618604
0.0107796
0.372055
-0.067717
-0.304338
0.162506
0.343095
0.136279
-0.378756
0.242477
0.27016
0.179706
-0.449866
-0.136943
0.0658057
0.0122602
-0.477223
0.409144
-0.245904
-0.468345
0.0855615
0.382783
0.310385
-0.437354
0.126969
-0.315061
0.0939492
-0.469949
0.00160463
-0.0170009
-0.398782
0.243633
0.155149
-0.0123062
-0.159927
0.100753
-0.0394986
0.604313
-0.26945
0.442954
-0.197184
-0.24577
0.359441
-0.223162
-0.156017
-0.224002
0.380019
0.0257372
0.330108
0.108044
-0.142065
0.0340204
-0.18285
0.453009
-0.0266305
0.0602449
-0.0336143
0.126051
0.23511
-0.0718958
-0.161317
0.233213
-0.453742
0.474188
-0.0204464
-0.150864
0.278396
-0.127532
0.0620387
0.2764
-0.0628647
0.0684273
-0.00556263
-0.0459358
-0.10048
0.146416
-0.415128
0.185618
0.22951
-0.46851
0.314641
0.153869
0.103736
-0.141859
0.300577
-0.495981
0.195403
0.325069
-0.076769
-0.2483
-0.113241
0.404996
-0.291755
-0.127806
-0.256088
0.383894
0.423679
-0.285063
-0.107201
0.32775
-0.220549
-0.192329
-0.275777
-0.281484
0.3686
0.256648
-0.263681
0.00703268
-0.264193
0.453016
0.257835
0.185119
0.270715
0.11315
0.520152
-0.331675
-0.188476
0.237779
-0.327129
0.0893499
-0.521171
0.238973
0.282198
-0.092026
-0.396083
0.488109
0.365448
-0.239397
-0.180071
-0.26233
-0.291183
0.140319
-0.387136
0.273895
-0.124939
-0.0668679
-0.281446
-0.156962
0.141049
-0.519396
0.304994
0.214402
-0.099043
0.0795449
-0.125481
0.360649
0.0299066
-0.390556
0.413018
-0.0523687
-0.00493154
-0.0143308
0.0192623
0.230718
0.0943516
0.181865
0.046988
0.134519
-0.146396
0.0118771
-0.118733
0.356259
-0.237526
-0.0958392
-0.148422
0.244261
-0.22856
-0.290835
-0.0976454
-0.0418619
0.139507
0.217614
-0.00664387
-0.21097
-0.328729
0.110469
0.21826
0.0480366
0.11334
-0.0897237
0.0666956
-0.402016
-0.0714187
0.173586
-0.315786
0.1422
-0.451902
0.454577
-0.00267456
0.00286895
-0.0279553
0.245569
-0.321183
0.0835998
0.124135
-0.0727805
-0.0513545
0.302347
0.132878
-0.435226
0.037474
-0.119639
0.0821647
-0.223978
0.162008
0.0619709
0.136789
-0.0219572
-0.114831
0.206
0.110241
-0.316241
-0.107818
-0.212947
0.261114
0.158996
0.494658
-0.220604
-0.274054
0.239953
-0.485738
-0.247321
0.371337
-0.215593
0.0739628
0.141631
-0.357306
0.333932
-0.31032
0.596944
-0.286624
0.293993
0.0622125
0.0619225
0.147718
-0.0131986
0.214386
0.259383
-0.0211648
0.0357592
-0.084156
0.12163
-0.281218
-0.0399651
-0.148132
0.399254
-0.251122
0.530416
-0.343605
-0.186811
-0.146123
0.31971
0.393156
-0.261097
0.0207238
0.200288
-0.304715
-0.316443
-0.191031
0.229645
0.182168
-0.0364196
-0.145749
0.223024
0.271634
0.156177
-0.449827
0.111365
-0.225373
0.114009
-0.359567
0.20355
-0.428829
0.476192
-0.0473635
-0.00473241
0.0193066
-0.147159
-0.260227
0.407387
0.532014
-0.200487
-0.331526
0.383311
-0.138482
-0.244829
0.204773
-0.238496
-0.440991
0.450242
-0.00925194
0.159866
0.189861
0.277044
0.145031
-0.422076
-0.145216
0.426964
-0.281748
0.301633
-0.181164
0.321708
0.198443
0.430682
-0.145094
-0.394644
-0.0590981
-0.221566
0.363635
0.0840551
0.179461
0.142945
0.0392229
0.271176
-0.200141
-0.208275
0.408416
0.312818
0.284126
0.545792
-0.385155
-0.160637
-0.259582
0.231627
0.468868
0.376779
-0.148966
-0.227813
0.519377
-0.26387
-0.255507
-0.123749
-0.215653
0.440122
-0.224469
0.0180627
-0.389993
0.37193
-0.0859003
0.218989
0.0301644
-0.0914991
-0.277928
0.0567541
0.267848
0.174266
-0.442114
0.148017
0.235294
-0.251225
0.182027
0.0691979
-0.194003
0.384669
-0.190666
0.491644
-0.191066
-0.190749
0.131945
0.058804
-0.394134
0.271536
0.122597
0.488553
-0.501511
0.0129579
-0.387626
0.239494
-0.0479492
-0.0850254
0.0273658
-0.147883
0.120517
-0.485412
0.0598146
0.00931169
-0.0389236
0.029612
-0.0421261
-0.0207386
-0.0327601
-0.226822
0.108469
-0.312035
0.203566
0.125539
-0.292877
0.167338
0.182963
-0.209499
0.20095
-0.346722
0.117064
0.229658
0.248597
-0.149764
-0.0988338
-0.197675
-0.389298
0.0614202
-0.186359
-0.0700935
-0.151061
0.412174
0.205937
-0.325085
0.119147
-0.107674
0.155556
-0.0478813
-0.154001
0.0463269
0.434952
-0.0186729
-0.416279
0.552361
-0.417082
-0.135279
-0.138895
-0.0487823
-0.22566
0.153764
0.13841
-0.234249
0.106142
-0.208981
-0.13653
-0.216665
0.353195
-0.136116
0.483658
0.181402
0.0902201
-0.271622
-0.170045
-0.203883
0.373928
0.119177
0.0359737
-0.155151
-0.0611697
0.338214
-0.318419
0.201402
0.117017
-0.260483
0.0286813
0.231802
0.278463
0.00895465
0.177553
0.0648862
-0.242439
0.109354
0.191929
-0.301282
-0.0555944
0.222465
-0.1111
-0.0229746
0.0241909
-0.00121634
-0.324569
0.0946513
0.0871449
0.311561
-0.398706
-0.204002
0.16195
-0.450312
0.288361
-0.518943
0.183257
0.335685
0.135374
-0.361431
-0.110972
0.472403
-0.112419
-0.232986
0.42603
-0.193044
-0.0771417
-0.278609
-0.0583291
-0.393573
0.18364
-0.0677913
0.199454
-0.321242
0.121788
-0.0119458
0.00451304
-0.42015
0.1551
0.26505
0.104443
-0.139137
0.334032
-0.194895
0.0334747
-0.024163
-0.382219
-0.0466099
0.111207
0.358106
-0.469313
0.0648806
-0.230855
0.165974
-0.286278
0.0706253
-0.371027
0.395217
-0.533085
0.137868
0.147355
-0.115099
-0.0322561
0.183148
-0.278123
0.0949746
0.225251
-0.332452
-0.272854
0.149227
0.123628
-0.467673
0.254478
-0.195958
0.47666
-0.280702
-0.15997
0.414941
-0.254971
0.295214
0.191856
-0.487069
0.0413207
0.447232
0.118478
-0.352009
0.454695
-0.102686
0.467429
-0.165081
-0.0498766
0.00405575
-0.138755
0.216891
0.111037
-0.327929
0.133477
0.0132834
-0.0914527
0.25153
-0.149393
-0.0660619
0.215454
0.229251
0.0792982
-0.30855
0.0231331
-0.200255
0.177122
0.0416721
-0.139317
0.219659
0.0987881
-0.318447
0.0506076
-0.305735
-0.184348
-0.0957802
0.119218
-0.0549114
-0.0643062
0.188386
-0.381465
-0.137478
0.550897
-0.238078
0.137199
0.141333
-0.341164
0.199832
-0.110391
0.327282
0.00601211
-0.016318
0.122574
0.242873
-0.299819
-0.282458
-0.479096
0.283138
0.514214
-0.197655
-0.316559
-0.360582
0.573131
-0.212549
0.322792
0.191422
-0.0197314
-0.176351
-0.123203
0.363804
-0.226449
-0.137356
-0.523875
0.253189
0.270685
-0.358098
0.218961
0.118644
0.0281888
0.22038
0.124985
-0.345365
-0.329829
0.347892
0.085495
0.0337226
-0.196266
-0.0256873
-0.377313
0.144327
-0.217462
0.53139
-0.35633
-0.175061
-0.408942
0.207623
0.201319
-0.399762
0.280405
0.119357
-0.102828
0.263656
-0.138117
-0.0278676
0.311185
-0.283318
0.144734
0.0778974
-0.130908
0.30846
-0.117446
0.323383
0.0521692
0.0663091
0.0849648
0.253487
-0.338452
-0.0350044
-0.026856
-0.035769
-0.111745
0.147514
-0.37445
-0.0611911
0.435641
-0.223478
0.0740857
-0.0129192
-0.270778
-0.210797
0.481575
-0.144749
0.201064
-0.056315
0.140324
0.29359
0.102412
0.19922
-0.0437166
0.37979
-0.0150379
-0.126945
0.214858
0.336038
-0.0128246
0.0193073
-0.00648277
0.236271
0.21525
0.161529
-0.295131
-0.164559
0.45969
0.124014
0.0654313
-0.210811
-0.271712
0.212289
-0.00312436
0.0200988
-0.0169744
0.0183887
0.23826
0.10362
0.306918
0.0415599
-0.116584
0.0750237
-0.393554
0.474997
-0.0814432
-0.0186991
-0.363474
0.247139
0.116335
0.0830012
0.141634
0.229273
0.125977
-0.108086
0.309488
-0.298614
0.104215
0.194399
-0.499131
0.314692
0.184439
0.364649
-0.242075
-0.4814
0.0881954
-0.449386
0.36119
0.0181564
0.338599
-0.356755
0.273058
-0.430023
0.302584
0.127439
0.342993
-0.0849278
0.422528
-0.318908
-0.297305
-0.222056
-0.186886
-0.179319
-0.34837
0.37351
-0.177921
-0.17223
-0.358027
-0.0387186
0.276498
0.177334
0.250819
-0.270987
0.54767
-0.365344
-0.182326
-0.403076
0.239719
0.163357
0.481812
-0.263439
-0.218373
-0.237599
0.0581914
0.179408
-0.178569
-0.187231
0.365801
-0.264487
0.236619
-0.303306
-0.17428
-0.456107
0.113271
0.342836
0.342003
-0.323847
-0.339584
0.139443
0.0381812
-0.412631
0.215674
-0.411237
0.195563
0.0460211
0.103371
-0.18095
0.0056136
0.0277874
-0.033401
0.230673
-0.152043
0.127447
0.0199078
0.351183
0.196487
-0.0558963
-0.400211
0.01983
0.135079
0.238891
-0.356
0.117109
0.186348
-0.352305
0.165957
-0.244875
-0.183666
0.0259193
-0.00532289
-0.0205964
-0.351808
0.151921
0.0771788
-0.2291
-0.0370228
0.0426364
0.451062
-0.316238
-0.134824
0.457175
0.453588
-0.18574
-0.029738
-0.164243
0.193981
-0.108242
0.328622
-0.334309
0.226363
0.107946
-0.0530225
-0.162571
0.482508
-0.268122
0.335111
-0.193778
-0.408876
0.248906
-0.144413
-0.179542
0.167235
-0.0824665
-0.155132
-0.134497
-0.00244656
-0.134238
0.161603
0.229832
0.144535
0.253568
0.0894247
0.294123
0.156939
0.192729
0.283931
-0.333694
0.481014
-0.14732
-0.060669
0.0145772
0.0460918
-0.137132
0.581708
-0.213451
-0.368257
0.525857
-0.259408
0.316834
-0.193977
-0.122857
0.0800869
0.102396
-0.182483
-0.146362
0.345568
-0.130512
0.367416
-0.236904
0.178457
-0.357026
-0.216718
-0.0818963
0.396678
-0.347632
-0.220503
-0.104581
-0.524346
0.261903
0.262443
-0.368897
0.454459
0.482229
-0.227846
-0.254383
-0.246281
-0.192606
-0.339225
0.377406
-0.332024
0.111521
-0.0135773
-0.0355121
-0.025157
-0.346938
-0.177408
-0.0232615
0.0201371
0.362845
-0.0280875
0.00511293
-0.13727
0.00277332
-0.257308
0.0252573
-0.394155
0.396443
-0.245293
-0.151149
-0.075978
0.301195
0.175492
-0.157532
0.215723
-0.425421
0.00936254
-0.226314
0.509122
-0.282807
0.183464
0.102023
-0.285487
0.361054
0.220654
-0.025365
0.109248
-0.0838831
-0.31128
0.386799
-0.0755194
0.45733
-0.268671
0.205239
-0.234977
-0.0979524
-0.327468
-0.224202
0.147893
0.0763097
-0.398379
0.0591543
0.0042296
0.0686347
0.464292
-0.208796
-0.300661
-0.129362
0.353463
-0.105649
-0.154515
0.115565
-0.242141
0.0788057
0.163335
-0.131991
-0.313457
0.0993055
0.214152
0.0667868
-0.193246
0.126459
0.0757384
0.168186
-0.243924
0.308244
0.164016
-0.47226
-0.134418
0.383403
-0.248985
0.350614
0.175243
0.248464
0.125719
-0.374183
-0.264378
0.163631
0.100747
-0.210842
0.143896
0.0669456
-0.0512851
0.0246545
-0.41787
0.147474
0.270396
-0.485476
0.315431
-0.264354
-0.113866
0.378221
0.252095
-0.0202806
0.00745602
0.11963
-0.175648
0.0560182
0.45896
-0.150716
-0.136192
0.376312
-0.24012
-0.132033
0.139091
-0.185698
0.398633
-0.212935
0.210504
-0.18737
-0.034949
-0.310611
0.34556
0.344969
0.132222
-0.344805
-0.258177
0.420506
-0.162329
0.0870353
-0.1124
0.308474
-0.077756
0.11957
0.214659
0.126485
0.238164
0.0182148
-0.264295
0.246081
0.16342
-0.0950823
-0.0683379
-0.480567
0.242346
0.23822
-0.132236
-0.257375
0.389611
0.228616
-0.374978
-0.161547
0.472765
-0.0445306
-0.144188
0.188718
-0.158259
-0.297838
0.456098
-0.282424
-0.135446
-0.128116
0.194903
0.238008
0.121433
0.0176058
-0.272768
0.255162
0.238643
-0.172059
-0.0665846
0.136235
-0.0902144
-0.404343
0.109212
-0.491779
0.237606
-0.26028
0.48549
-0.191929
-0.0818857
0.484979
-0.0193259
-0.106567
-0.234048
0.340615
0.399923
-0.140262
-0.25966
0.0801856
-0.075956
-0.323268
0.0147329
0.308535
0.460159
-0.110861
-0.205362
0.298931
-0.0935693
0.089942
-0.0828004
-0.00714159
0.114218
-0.270614
0.156396
-0.0667352
-0.372203
-0.0807208
0.452923
0.307975
0.181688
-0.489663
0.112775
0.155819
-0.268594
0.305699
-0.140944
-0.0285684
0.169513
0.0732944
0.165349
0.0400442
-0.197576
-0.161207
0.462402
0.348746
-0.100282
-0.267301
0.46003
-0.523675
0.245811
0.277864
-0.142994
0.37161
-0.0934228
0.144911
0.118319
-0.26323
-0.176637
-0.236963
0.413601
-0.110301
0.190388
-0.050904
-0.0674912
0.118395
-0.0219736
0.279808
0.294331
0.454231
-0.32392
-0.130311
0.136599
0.139263
-0.275863
0.205825
-0.161822
-0.0440026
-0.102655
0.341546
-0.174721
0.12851
0.0462113
0.26092
0.0705498
-0.121454
0.363925
-0.23744
0.286357
0.178364
-0.365595
0.336122
-0.0608373
-0.118704
0.0817904
0.210186
-0.291976
-0.336402
0.391454
-0.0550523
-0.373071
0.457943
0.374938
-0.141163
-0.0522567
0.171887
0.0523818
-0.0346527
-0.0177291
0.232521
-0.013886
-0.218635
0.0168364
-0.0393642
0.0225278
-0.108525
0.148795
-0.0402704
0.280093
-0.165875
-0.199572
0.281363
0.253459
-0.0193689
-0.23409
0.129789
-0.17432
-0.28015
-0.160697
-0.101211
0.261907
0.362519
-0.314694
-0.0478245
0.222043
0.177879
0.20148
-0.133776
0.0858266
-0.0762892
0.279542
-0.203253
-0.468513
0.0963109
0.370018
-0.281823
0.154489
-0.244142
-0.279533
0.293653
-0.143342
-0.150311
-0.0042886
-0.438406
0.442695
0.0981155
-0.157248
0.0591321
-0.31543
-0.00783713
-0.134208
0.0272842
0.106924
0.280103
0.145678
0.271744
0.259646
0.431761
-0.129177
0.100075
0.0361603
0.400312
0.126649
-0.286332
0.101984
-0.242268
0.0981666
0.264352
0.350388
-0.265423
0.476339
-0.0413864
0.365533
-0.334162
-0.0313711
0.258892
0.161615
-0.181368
0.399708
-0.21834
0.299614
-0.486259
0.186646
-0.131281
-0.185988
0.317269
-0.268163
0.0628013
-0.167553
0.475528
-0.361339
0.40266
-0.087966
-0.00191965
0.0898857
-0.0161905
0.0182399
-0.00204938
0.33476
0.0307728
-0.0983514
-0.383322
0.248904
-0.115579
0.0427985
0.0466936
-0.407275
-0.0858093
0.0388432
0.294324
0.137437
0.0342843
-0.0356995
0.00141523
-0.154247
-0.259323
0.41357
-0.0970361
-0.181491
0.278527
-0.332732
-0.147835
0.0696399
0.0203021
-0.125466
0.134603
-0.372455
0.237852
-0.449187
0.165045
0.013837
-0.122362
0.526873
-0.407024
-0.119849
-0.418181
0.263933
-0.314856
0.183575
-0.414464
0.0671288
0.347335
-0.0862987
-0.0607637
0.360378
0.00991709
0.0174949
-0.027412
0.207026
-0.388394
0.387567
-0.209203
0.206303
-0.121725
-0.0845778
0.396894
-0.156856
-0.240038
0.293017
0.113784
-0.406801
0.246486
0.235742
-0.0986444
-0.356322
0.454967
-0.0729781
-0.0489981
-0.0852096
0.0097288
-0.0901257
-0.108035
-0.15857
0.10302
0.205454
-0.378892
0.0964682
0.149585
0.177347
-0.326932
-0.0419239
-0.132797
-0.466643
0.139713
0.326929
-0.00857009
-0.00622768
0.0147978
0.244496
0.144666
-0.389162
-0.132689
-0.333954
0.016875
0.236584
-0.160463
-0.304646
0.465109
-0.122734
0.367231
0.114975
0.0913279
0.194643
-0.395796
0.201153
0.406874
-0.295667
-0.199808
-0.268703
-0.158238
0.0713556
-0.423365
-0.0849015
0.377918
0.0143552
0.244536
-0.156527
0.120758
-0.296866
0.261918
-0.160132
0.124186
0.0359453
-0.142831
-0.16717
0.2332
0.249371
-0.482571
-0.176739
0.50799
-0.291812
-0.216178
-0.486537
0.327281
0.159255
-0.289954
0.0803314
-0.336998
-0.294135
-0.149515
0.0811759
-0.477658
0.208328
0.300794
0.0288383
-0.413993
0.301026
-0.472265
0.0563464
-0.367626
-0.221626
-0.107103
-0.325644
0.22474
0.100904
-0.129883
-0.0356182
0.165501
0.143779
0.0620458
-0.122783
-0.260203
0.382985
0.282761
-0.46561
-0.282761
-0.13739
-0.0171862
-0.0773932
-0.161172
0.112174
0.0857654
-0.271255
0.18549
0.114344
0.193329
-0.307674
-0.313677
0.423655
-0.109978
-0.035559
-0.343333
0.165091
-0.0675295
-0.097561
0.0928288
-0.139997
0.0471686
0.272063
-0.394846
-0.0692888
0.12402
-0.467625
-0.287116
-0.107018
0.213006
0.0859252
0.0460412
-0.410667
0.260898
-0.0352297
-0.185811
0.271577
0.156041
-0.51738
0.0966053
0.0668149
-0.283092
0.441334
-0.158243
0.484549
0.100818
-0.261515
-0.33792
0.517626
-0.00285532
-0.0851107
-0.149675
-0.0320281
-0.361526
-0.0289542
0.341615
-0.312661
0.166822
-0.177136
0.135212
0.216696
0.265117
0.0964242
0.21939
0.331068
-0.220599
0.397039
-0.205868
-0.191171
0.132557
0.273038
-0.405595
0.396522
-0.263965
0.295422
-0.19301
0.182593
-0.279629
0.452441
-0.311391
-0.14105
-0.354827
-0.169048
0.153487
-0.0553712
0.411367
-0.117043
-0.289422
0.303777
-0.0819189
-0.332545
0.0168697
-0.204942
-0.148826
0.431587
0.0141229
-0.283557
0.269434
-0.308735
0.0920172
-0.265351
0.158758
0.106592
-0.246689
0.306986
0.145455
0.00590581
-0.0271977
0.135778
0.228026
-0.0177586
0.0189171
0.526968
-0.258594
-0.268374
0.414392
-0.191451
-0.222941
-0.331389
0.0130345
0.318355
0.063154
0.0824143
0.178483
-0.0880577
0.324194
-0.365356
-0.396721
0.125943
0.247194
-0.38504
0.137846
-0.335052
0.213865
0.121187
-0.422405
-0.00740404
-0.0516105
0.0590145
-0.126599
-0.22661
0.353209
0.0627454
-0.163225
-0.119789
0.363422
0.208
-0.360826
0.152827
0.42799
-0.458799
-0.155876
-0.215556
0.371432
-0.337556
0.18168
-0.165109
-0.0757019
0.214965
-0.165125
-0.0770166
0.2827
-0.0734527
-0.123416
-0.203713
-0.442152
0.177019
0.237373
0.217584
-0.330828
0.113244
-0.354604
0.476205
-0.121601
0.527764
-0.256813
-0.270951
0.181606
0.135372
0.00141635
-0.101719
0.126046
-0.429352
0.13881
-0.0235474
-0.115263
0.105672
0.18798
-0.00937008
-0.416446
0.425816
0.191956
-0.336845
0.492886
0.256643
0.154723
0.219885
-0.111338
-0.0307266
-0.258645
0.355426
-0.292692
-0.0767291
-0.134112
-0.0356767
0.134402
-0.0987255
0.309466
0.0625896
0.443727
-0.454486
0.0107599
-0.498609
0.339653
0.158956
0.157361
0.203615
0.193424
0.146473
0.250421
-0.0353934
0.0807478
0.310037
-0.446153
-0.106124
0.325783
-0.169513
0.464726
-0.388428
-0.00348302
0.0955888
-0.432433
-0.212474
0.145975
0.0664993
0.540496
-0.22802
-0.312476
-0.301343
0.493198
0.445534
-0.177148
-0.268386
-0.0135692
0.355184
-0.0444411
-0.5061
0.285496
0.284411
0.16982
0.208039
0.115479
-0.323518
-0.413731
0.276341
-0.25317
0.227902
0.0252683
0.444946
-0.353889
-0.0910568
-0.417576
0.269139
0.148437
-0.055175
0.237202
-0.135838
-0.281738
0.0347288
0.0642052
0.334741
-0.010241
-0.3245
-0.0900715
-0.134131
-0.375499
0.196338
0.179161
-0.0408083
-0.0732362
0.114044
0.3368
-0.393817
0.0570171
-0.0151885
0.220428
0.424904
-0.221289
-0.133401
-0.161312
-0.208758
0.37007
0.204618
0.518033
-0.272222
0.449276
-0.14229
-0.125978
0.316979
-0.191001
-0.369382
0.10612
0.263261
-0.383243
0.252256
0.130987
-0.277895
-0.105348
0.0812594
0.0742964
-0.160473
0.376147
-0.0147684
0.0191109
-0.00434249
0.308571
0.215125
0.115052
0.329894
0.476429
0.19771
-0.190692
0.0563558
0.134336
0.219112
-0.380423
-0.321731
-0.0958311
0.410472
0.287294
0.253669
0.307431
0.141845
0.0965963
0.205241
-0.301837
0.428501
0.0219782
-0.450479
-0.0931803
0.325832
-0.217427
-0.108405
0.298734
-0.486486
-0.139514
0.355688
-0.216175
0.069794
0.00299261
-0.0380705
-0.16369
-0.231553
0.395243
0.386663
-0.485307
-0.137257
-0.0398791
0.00927581
0.000808046
0.255944
0.11078
0.16847
-0.279251
-0.181985
-0.317146
-0.0508426
0.113588
0.269128
0.00926814
-0.0899749
-0.208332
0.211474
0.213429
-0.238896
-0.257084
0.191682
-0.151638
0.269103
0.133001
-0.402104
-0.0832966
0.30966
-0.166071
0.276851
0.218826
0.32167
0.288072
0.043031
0.308152
-0.394315
0.0906612
0.303654
0.229108
-0.250308
0.0212002
-0.023527
-0.0277581
-0.351337
-0.0896531
-0.215149
0.325971
-0.110822
-0.0504667
-0.248192
0.498084
-0.249891
0.181516
0.273401
-0.454917
-0.192311
0.483009
-0.290698
-0.297836
0.442867
-0.10346
-0.183681
0.126968
0.0567127
-0.142557
-0.163989
0.269349
-0.10536
-0.15659
0.205531
-0.0489409
0.217982
-0.457798
0.1888
0.268999
0.357952
-0.149952
0.491646
-0.245984
-0.245662
0.119244
-0.383599
-0.313273
0.0981239
0.269841
0.364075
-0.19154
-0.100267
0.163818
0.0847795
0.216496
0.125455
-0.341951
0.0380399
-0.253116
0.215076
-0.245528
0.00629409
-0.255987
0.181946
0.0740409
0.22762
-0.0359379
-0.133956
0.0226179
-0.503939
0.245346
0.164236
-0.4558
0.291563
-0.195453
-0.21688
0.267487
0.0336933
0.437633
-0.352942
-0.0846904
-0.349084
0.392115
-0.336881
-0.0841495
0.42103
-0.420239
0.209926
0.210313
0.223373
0.125258
0.279738
0.228352
-0.0877078
-0.140644
-0.29949
0.366619
0.00608685
-0.0148224
0.00873556
0.177078
0.268456
-0.140335
-0.321882
0.102764
0.219118
-0.155897
0.0330938
-0.406278
0.396908
-0.0187385
0.456371
-0.197192
-0.288804
-0.267788
0.103799
-0.276103
-0.184122
0.460226
0.243192
0.264798
0.445585
-0.268507
0.234489
-0.0897546
-0.361037
0.230525
-0.140955
-0.288595
0.42955
-0.174478
-0.0730325
-0.323051
0.29255
0.280581
0.113787
-0.382281
0.268493
-0.374868
0.0241411
-0.180731
-0.0216135
0.00684504
0.301563
-0.402676
0.101113
-0.468681
0.154582
0.3141
0.0305369
-0.368457
-0.128039
-0.243579
0.371618
-0.200266
0.42429
-0.224025
0.31908
-0.108576
-0.308834
0.45753
-0.148696
-0.136287
0.328573
-0.192286
-0.256964
0.0975525
0.480553
-0.170465
-0.310088
0.483181
0.222335
-0.011573
-0.271984
0.0665305
0.13442
-0.339158
0.0413216
-0.236318
0.324706
-0.0883878
-0.28647
0.392638
-0.106168
0.113217
0.115135
0.081432
-0.103389
0.394791
-0.0932282
-0.249926
0.405026
-0.00763545
-0.116358
0.123993
-0.157839
-0.0549949
-0.36923
0.0129075
0.402716
-0.148537
-0.254179
-0.0125321
-0.468868
0.449985
-0.283041
-0.166944
-0.257453
-0.279933
0.0534204
-0.31261
0.259189
0.312997
-0.528867
-0.456422
0.119542
0.174836
0.342786
0.107199
0.497944
-0.181921
-0.316023
-0.523058
0.295038
0.35515
-0.107956
0.160547
0.241996
-0.402544
-0.0116718
-0.369152
-0.123271
0.175282
0.305271
-0.192104
0.333177