/*--------------------------------*- C++ -*----------------------------------*\
| =========                 |                                                 |
| \\      /  F ield         | OpenFOAM: The Open Source CFD Toolbox           |
|  \\    /   O peration     | Version:  v2012                                 |
|   \\  /    A nd           | Website:  www.openfoam.com                      |
|    \\/     M anipulation  |                                                 |
\*---------------------------------------------------------------------------*/
FoamFile
{
    version     2.0;
    format      ascii;
    class       volScalarField;
    location    "50";
    object      epsilon;
}
// * * * * * * * * * * * * * * * * * * * * * * * * * * * * * * * * * * * * * //

dimensions      [0 2 -3 0 0 0 0];


internalField   nonuniform List<scalar> 
18618
(
2.21481e-06
1.75919e-05
1.80331e-06
2.56471e-06
2.20989e-06
2.34841e-06
0.00604023
0.0158516
8.84435e-06
3.17324e-06
2.19603e-06
2.25539e-06
1.97273e-06
2.2165e-06
2.31165e-06
2.3398e-06
1.76225e-06
2.22299e-06
1.63916e-06
0.00269479
2.3045e-06
0.0462156
1.69864e-06
2.26736e-06
0.00537496
9.54434e-06
3.27741e-06
0.0376741
4.74694e-06
1.80725e-06
2.11798e-06
1.99371e-06
1.92956e-06
2.23076e-06
2.21964e-06
0.0223214
1.89618e-06
7.33666e-05
0.0141338
1.71032e-06
0.0318701
0.0364257
0.00843326
0.0167143
1.93349e-06
2.26319e-06
0.0112754
2.18324e-06
3.28062e-06
0.00782838
3.24681e-06
1.89985e-06
2.99395e-06
3.70671e-06
0.0046779
2.75621e-05
2.8623e-06
2.65047e-06
0.0319099
0.00388074
0.0186667
0.0117475
3.26857e-06
2.46118e-06
5.44107e-05
5.23965e-06
0.00355905
1.92183e-06
1.9377e-06
0.0314806
3.44405e-06
1.64619e-06
3.57769e-06
0.00090952
0.0375027
0.0234221
3.40654e-06
2.43557e-06
1.93073e-06
5.39294e-06
1.83279e-06
2.23032e-06
2.54566e-06
2.1192e-06
0.0482717
1.90372e-06
3.99085e-05
0.0303835
0.0109758
0.00287984
2.01403e-06
0.0174828
6.57175e-05
1.79081e-06
0.0159131
0.0119347
2.12987e-06
7.45482e-06
2.35336e-06
0.00995009
0.00743278
0.00328815
2.0034e-06
2.38971e-05
4.73356e-06
4.07142e-06
0.00346843
2.17773e-06
0.0122755
0.00706317
0.0269394
1.73163e-06
0.010895
0.0267884
2.61222e-06
1.729e-06
0.00408436
2.54997e-06
3.20912e-06
0.0345171
2.265e-06
1.88743e-06
1.82963e-06
2.38319e-06
2.90309e-06
4.68078e-06
1.9446e-06
3.92913e-05
5.71418e-05
2.97267e-06
0.00954704
0.00279567
0.00301568
2.73699e-06
2.14723e-06
1.98481e-06
2.70969e-06
0.025995
0.0876453
2.30531e-06
0.0166003
0.00745962
1.9446e-06
2.28732e-06
1.73094e-06
2.61847e-06
1.73893e-06
2.5601e-06
2.33795e-06
2.24472e-06
0.00123951
2.20648e-06
1.92843e-06
2.28261e-06
1.82949e-06
0.0151635
0.0101819
2.21589e-06
1.89348e-06
0.140224
2.87892e-06
2.16949e-06
0.00576247
0.00192122
2.74183e-06
2.14264e-06
2.12556e-06
0.035255
2.45326e-06
7.90306e-06
4.24082e-06
1.91368e-06
5.15672e-06
3.22885e-05
0.00867234
2.61251e-06
0.000201436
2.27515e-06
2.73183e-06
1.96826e-06
0.000941697
2.22131e-06
0.0569894
3.55031e-06
2.92612e-06
2.30536e-06
0.00141934
3.33179e-05
2.20859e-05
2.22036e-06
2.6447e-06
2.26706e-06
2.14212e-06
1.76728e-06
1.93113e-06
0.000382014
2.3095e-06
2.12557e-06
0.0128525
1.94239e-06
4.72284e-06
0.0210019
0.00131251
0.014655
0.000233637
2.13915e-06
0.0149233
0.00339538
3.27931e-06
1.73599e-06
2.27502e-05
1.65715e-05
1.98709e-06
1.74986e-06
2.13482e-06
3.98269e-06
0.00832013
0.00805065
2.26614e-06
1.82562e-06
2.24784e-06
1.8327e-06
0.0130298
3.87086e-06
0.02915
2.72649e-06
1.89391e-06
5.56199e-06
3.12955e-05
1.92765e-06
2.12004e-06
1.95677e-06
2.17586e-06
0.0159759
1.97341e-06
3.06336e-06
3.46656e-06
6.91791e-06
0.00150005
1.71708e-06
1.29426e-05
1.8989e-06
2.85141e-06
0.0101576
2.65164e-06
2.17368e-06
0.000313679
3.07615e-06
0.0267875
2.53533e-06
1.79843e-06
0.0396553
2.18175e-06
0.00229538
2.0627e-06
1.94962e-06
7.51725e-06
2.80997e-06
1.66471e-06
1.827e-06
2.58586e-06
0.00821961
0.00840887
2.22641e-06
0.043786
0.0001207
8.15173e-06
2.19737e-06
4.85337e-06
2.25983e-06
5.5829e-06
2.73925e-06
1.9294e-06
2.58491e-06
4.18838e-06
2.19601e-06
2.05206e-06
2.18933e-06
1.77776e-06
0.0128134
2.59128e-06
2.73617e-06
2.54372e-06
2.06202e-06
0.0119945
2.54551e-06
1.9631e-06
2.98123e-06
2.83424e-06
4.00127e-06
1.69144e-06
2.61414e-06
2.58506e-06
1.95245e-06
0.103786
3.52359e-05
0.0149784
0.00721556
0.00583795
1.99608e-06
2.29437e-06
2.43249e-06
2.29523e-06
2.14188e-06
2.79639e-06
3.25585e-06
2.3577e-06
0.00799232
5.27453e-06
0.00947152
0.000219728
1.64891e-06
5.49157e-05
3.90421e-06
3.55426e-06
2.32526e-06
2.06402e-06
1.85212e-06
2.38259e-06
0.00278206
1.73604e-06
0.000431832
3.12753e-06
0.0217575
3.6839e-06
6.70836e-05
0.000739302
2.32305e-06
1.66668e-06
0.072663
2.34436e-06
0.126761
2.34679e-06
3.52107e-06
1.99911e-06
2.6982e-06
0.0037778
1.99596e-06
1.71714e-06
0.0076227
2.58076e-06
3.28528e-06
0.0939797
6.14896e-06
2.82067e-06
2.94601e-06
2.00312e-06
4.98566e-06
2.64524e-06
1.71666e-06
2.88575e-06
1.65291e-06
0.00632166
3.20573e-06
2.55557e-06
2.91476e-06
3.1596e-06
2.63388e-06
2.37432e-06
1.92915e-06
2.15749e-06
0.0122498
0.0366633
2.60918e-06
0.0103795
0.0460094
2.86795e-06
3.54977e-06
2.91757e-06
7.30439e-06
2.00999e-06
2.59819e-06
2.24142e-06
1.96414e-06
1.74636e-06
2.42898e-06
5.62859e-06
2.26064e-06
2.60933e-06
2.50897e-06
5.99951e-06
4.23959e-06
1.97344e-06
1.66887e-06
3.73699e-06
1.98185e-06
3.12938e-06
0.109666
2.82998e-06
2.76406e-06
2.26628e-06
2.95088e-06
0.00134306
0.0274826
2.89081e-06
9.68112e-06
0.0181256
0.00620216
3.01981e-06
0.00777785
2.60607e-06
1.91397e-06
1.82203e-06
0.0118459
2.00618e-06
0.00202233
2.7516e-06
2.11706e-06
1.85897e-06
2.63713e-06
1.85557e-06
4.27144e-06
2.0264e-06
1.64768e-06
2.12822e-06
2.5592e-06
1.68301e-06
1.7085e-06
2.21752e-06
1.96956e-06
1.74768e-06
0.0169528
1.81924e-06
1.92235e-06
1.98138e-06
0.100225
2.58879e-06
1.73447e-06
0.000181731
0.00761886
2.98812e-06
2.78839e-06
2.25493e-06
2.49152e-06
1.909e-06
2.26089e-06
3.43378e-06
2.53137e-06
2.88865e-05
4.82184e-06
2.18157e-06
0.000263341
2.59992e-06
2.14644e-06
0.0118176
2.87611e-06
2.14489e-06
0.0102186
4.59339e-06
2.95425e-06
2.151e-06
4.01785e-06
2.5865e-06
2.24668e-06
2.82431e-06
2.04685e-05
2.64847e-06
1.8871e-06
2.05233e-06
0.0397501
0.0116961
1.782e-06
6.01845e-06
2.90422e-06
6.19088e-06
2.13132e-06
2.8084e-06
4.28162e-06
2.62151e-05
1.98643e-06
1.78418e-06
2.23709e-06
1.73366e-06
0.00357415
1.82382e-06
2.01601e-06
0.015596
1.80432e-06
0.000251249
2.30831e-06
9.02199e-06
2.27581e-06
0.00680745
1.6436e-06
2.24923e-05
2.54033e-06
5.98229e-06
1.8565e-06
2.91211e-06
1.95013e-06
1.24247e-05
0.115305
2.1299e-06
3.5798e-06
0.00642899
0.00551108
1.00662e-05
0.0534266
2.28027e-06
3.70901e-06
4.23594e-06
2.15825e-06
0.00351861
2.92254e-06
1.82833e-06
5.17257e-06
2.1301e-06
2.14674e-06
0.000693002
1.99104e-05
0.0257844
2.12125e-06
1.80281e-06
1.81595e-06
2.94268e-06
3.37126e-06
1.64396e-06
3.61563e-06
3.29582e-06
0.0105292
1.851e-06
3.34549e-06
1.40971e-05
3.01332e-06
1.76813e-06
3.02129e-06
0.00890307
3.08739e-06
0.0308755
3.45344e-06
0.0013519
0.00549704
2.13136e-06
2.15007e-06
2.81092e-06
3.9305e-06
0.0200108
4.28026e-06
2.14585e-06
2.00099e-06
2.19521e-06
2.22629e-06
2.59685e-06
2.87315e-06
2.9258e-06
3.297e-06
0.000285478
0.00698375
1.71617e-06
2.56282e-06
2.69573e-06
3.83878e-06
1.52355e-05
1.89749e-06
2.54654e-05
1.9594e-06
0.0237694
2.92387e-06
5.28643e-06
2.83256e-06
0.091169
1.72589e-06
0.00883778
2.15139e-06
2.49428e-06
3.68652e-06
0.00358917
2.26386e-06
5.02287e-06
2.33751e-06
3.05614e-06
0.0119885
3.2824e-06
0.0193324
0.0446649
0.00881387
0.00404657
3.25473e-06
0.000919955
1.85206e-06
2.14094e-06
2.18331e-06
2.05397e-06
3.34764e-06
3.03532e-06
1.85174e-06
3.24453e-06
1.95791e-06
0.00287658
7.46008e-06
2.67244e-06
2.15159e-06
2.12427e-06
1.887e-06
2.05432e-06
2.13873e-06
6.87862e-05
0.00848293
5.88549e-06
2.31593e-06
3.0252e-06
0.00013768
2.67589e-06
2.23335e-06
2.5589e-06
2.3815e-06
3.08614e-06
1.66466e-06
2.74085e-06
2.22369e-06
0.00217654
0.0141774
0.00832053
0.00316971
0.0030814
2.06187e-06
1.81441e-06
0.00935198
2.54643e-06
2.15298e-06
1.64627e-06
1.95524e-06
0.00175561
3.25759e-06
3.96649e-06
1.1219e-05
1.91696e-06
2.556e-06
1.42508e-05
3.10559e-06
2.13639e-06
2.5939e-06
0.00561123
1.66715e-06
3.16934e-05
3.44315e-05
0.000390086
1.97884e-06
0.00543277
2.82096e-06
1.9745e-06
2.24381e-06
0.00459454
8.6806e-06
1.97693e-06
3.64349e-05
3.27897e-06
2.40581e-06
1.91764e-06
2.24565e-06
0.00975192
2.95007e-06
1.95262e-06
3.25216e-06
1.68021e-06
2.06939e-06
2.68783e-06
0.00105575
2.30874e-06
2.60053e-06
0.0437384
6.71461e-06
3.23772e-06
2.18225e-06
2.51828e-06
2.2026e-06
2.04097e-06
3.24227e-06
7.83235e-06
2.13966e-06
0.00884344
4.28492e-06
3.57633e-06
2.19926e-06
2.30304e-06
2.89942e-05
0.0433713
1.88993e-05
0.0988617
2.15391e-06
0.0305065
2.02237e-06
2.69658e-06
3.26901e-06
3.37377e-06
0.00705265
0.000322794
3.29958e-06
1.82602e-06
2.81044e-06
0.000691209
1.83573e-06
2.61294e-06
2.47663e-06
1.25849e-05
7.03901e-05
2.50854e-06
2.90035e-06
2.87895e-06
0.00646893
0.000565342
1.99181e-06
2.16878e-06
5.69709e-06
1.64621e-06
1.93855e-06
2.00384e-06
0.00981036
1.91225e-06
2.30139e-06
1.68025e-06
2.53751e-06
1.81751e-06
0.00625349
0.00314107
0.000609237
1.93956e-06
8.32556e-05
1.95805e-06
2.0288e-06
1.95215e-06
1.6828e-06
0.0553222
0.0064361
0.0107447
2.35675e-06
0.00634091
1.73571e-06
2.58287e-06
2.50589e-06
3.44399e-06
0.0110252
2.89152e-06
2.16727e-06
0.0114535
1.91278e-06
0.00601437
0.00977936
1.84217e-06
2.68674e-06
2.26772e-06
3.51796e-06
2.26206e-06
0.00533925
0.00594983
0.0200545
5.24944e-06
5.85791e-06
2.60928e-06
0.0106945
2.03062e-06
2.19861e-06
3.04033e-06
1.98027e-06
0.014019
1.67268e-06
0.0264575
2.19764e-06
1.82791e-06
0.00510384
2.70463e-05
1.90376e-06
3.91936e-06
2.06795e-06
2.46334e-06
1.55314e-05
0.00427285
1.9157e-06
2.15287e-06
0.0540879
3.13054e-06
2.1897e-06
2.38128e-06
2.7847e-06
2.68108e-06
2.10894e-06
0.0151489
2.78753e-05
2.30195e-06
2.9727e-06
2.06715e-06
0.0427814
1.63029e-06
2.62166e-06
0.0571816
2.16037e-06
1.82057e-06
0.000557722
0.00988425
0.000226491
2.82399e-06
1.95664e-06
2.58579e-06
2.4134e-06
3.60595e-06
0.00913368
2.55763e-06
7.99215e-06
0.00422453
2.13129e-06
2.51625e-06
2.15485e-06
2.03779e-06
1.94627e-06
2.57969e-06
1.95001e-06
0.0257408
2.12581e-06
1.9692e-06
0.00914559
8.72619e-06
2.17937e-06
3.20224e-06
2.425e-06
2.07647e-06
2.63937e-06
1.7036e-06
1.96143e-06
2.29082e-06
1.64853e-06
1.87987e-06
2.19591e-06
1.79328e-06
0.0125388
2.36632e-06
0.00905766
0.00205053
2.18843e-06
1.22529e-05
3.43903e-06
3.15848e-06
1.84073e-06
0.000138424
0.00868542
1.82703e-06
2.28663e-06
0.0150334
2.84051e-06
2.12307e-06
2.13979e-06
0.000256837
1.84633e-06
0.00240388
2.3883e-06
2.0176e-06
0.00839983
1.93509e-06
2.84587e-06
1.72262e-06
3.23022e-06
0.00293022
0.00421574
0.020413
2.75246e-06
0.021486
0.00906079
0.0416773
0.0117126
2.16515e-06
0.00825081
2.70643e-06
2.26416e-06
2.17603e-06
3.05806e-06
0.000165392
2.39211e-06
2.06107e-06
2.07813e-06
4.66009e-06
2.76825e-06
1.95409e-06
0.0149459
2.31497e-06
2.12954e-06
0.00478795
2.3132e-06
2.80534e-06
0.00300179
2.31864e-06
2.06879e-06
2.06626e-06
2.04779e-06
2.17039e-06
2.17646e-06
3.42917e-06
0.000596178
0.0130363
5.94494e-06
1.72956e-06
0.00876915
0.00568129
1.85057e-06
2.20187e-06
1.68408e-06
4.57877e-05
2.71243e-06
2.64291e-06
2.01329e-06
1.8009e-06
2.68776e-06
4.23911e-06
3.61466e-06
4.63125e-06
2.84068e-06
1.94457e-06
6.2245e-06
8.51963e-06
2.28394e-06
2.15309e-06
3.21529e-06
2.26503e-06
2.76661e-06
2.20633e-06
1.83511e-06
1.97522e-06
0.0129707
2.48806e-06
3.02244e-05
3.64441e-06
1.67627e-06
1.82402e-06
1.72659e-06
1.8564e-06
2.19209e-06
0.0279575
0.0339087
0.00996198
2.99201e-06
2.24619e-06
2.15868e-05
3.02386e-06
3.29917e-06
2.3363e-06
2.22111e-06
1.7369e-06
2.66927e-06
4.35884e-05
0.0151378
2.52957e-06
2.78008e-06
0.0109077
0.0211688
2.86952e-06
4.06155e-06
0.0202022
0.0053772
3.03024e-06
1.92523e-06
2.38259e-06
2.49747e-06
7.27976e-06
1.85247e-06
1.94772e-06
6.59456e-05
2.40531e-06
1.90172e-06
3.15176e-06
1.7681e-06
3.18425e-06
1.85274e-06
0.0380299
2.07035e-06
1.87215e-06
1.73826e-06
2.61535e-06
2.69683e-06
1.71219e-06
0.00600406
0.00862514
2.01762e-06
1.73474e-06
0.000603315
2.12271e-06
1.73724e-06
2.12915e-06
2.03161e-06
0.00928844
1.78417e-06
1.86443e-06
2.2926e-06
0.0462024
2.5661e-06
2.3177e-06
0.0396713
1.92557e-06
2.97751e-05
1.87306e-06
0.0120651
3.62886e-06
2.86086e-06
0.0228464
2.15942e-06
0.0154672
2.64595e-06
0.000413847
0.0964331
2.25904e-06
5.66721e-06
0.0230522
4.16296e-06
0.00808731
3.68214e-06
3.01485e-06
2.62977e-06
2.70418e-06
2.98856e-06
3.24394e-06
1.90199e-06
0.0405861
3.0193e-06
2.26941e-06
1.92159e-06
2.05755e-06
3.55469e-06
4.01368e-06
2.1129e-06
3.18905e-06
1.70362e-06
2.17539e-06
1.98817e-06
2.75346e-06
0.000368905
1.90068e-06
2.69902e-06
2.02807e-06
8.17242e-06
1.99105e-06
0.0139452
8.81242e-06
0.00700088
2.70033e-06
1.98182e-06
0.000467324
0.034645
2.20985e-06
0.0386621
2.93518e-06
0.00153943
6.19661e-06
2.06991e-06
2.58228e-06
1.90116e-06
0.0201828
1.83943e-06
1.91403e-06
3.12794e-06
2.64198e-06
1.84353e-06
8.09118e-06
3.49859e-06
5.84216e-06
1.73414e-06
3.51795e-06
0.0338551
2.28818e-06
2.36718e-06
0.000464768
2.32919e-06
2.05861e-06
0.105141
2.2838e-06
2.57849e-06
6.13161e-06
2.34913e-06
1.65104e-06
3.41805e-06
1.98074e-06
2.06219e-06
2.19619e-06
1.82093e-06
2.76451e-06
0.0519305
3.23227e-06
0.000510206
1.86666e-06
3.52745e-06
2.31864e-06
1.80477e-06
1.74448e-06
2.39926e-05
0.00109844
1.92667e-06
3.46369e-06
0.0100584
0.00641027
0.0359438
2.14979e-06
3.0175e-06
2.13645e-06
1.75867e-06
3.94573e-06
1.65615e-06
1.80836e-06
1.92853e-06
1.81503e-06
2.61385e-06
1.86153e-06
3.49364e-06
1.92024e-06
2.65816e-06
2.07483e-06
3.50262e-06
0.00527297
4.67206e-06
0.0519345
2.27491e-06
2.68514e-06
3.48257e-06
0.0229737
5.18526e-05
2.02657e-06
1.85647e-06
3.35302e-06
0.0230164
0.000885642
2.90643e-06
2.18149e-06
0.0400651
0.0215202
4.55078e-05
2.32392e-06
1.32757e-05
1.84918e-06
2.24135e-06
2.77311e-06
2.75136e-06
2.00752e-06
2.12335e-06
1.74334e-06
2.10783e-06
0.00298687
0.000161237
2.4763e-06
1.78037e-06
3.6437e-06
2.68078e-06
1.60832e-05
1.98322e-06
3.09835e-06
2.01512e-06
1.98822e-06
2.35482e-06
1.96868e-06
2.44512e-06
3.07767e-05
1.85748e-06
3.63322e-06
2.53081e-06
2.77487e-06
2.20913e-06
3.24583e-06
0.0210958
3.82483e-06
2.48365e-06
0.00531401
2.46382e-06
2.54605e-06
1.91931e-06
3.71509e-06
0.0312874
1.79303e-06
3.15613e-06
1.14234e-05
1.99942e-06
3.06476e-06
0.00686163
2.86018e-06
3.35664e-06
2.15367e-06
1.9136e-06
3.25721e-06
1.63909e-06
0.00949064
2.5407e-06
2.96699e-06
2.15405e-06
6.00936e-06
3.26443e-06
0.00283358
0.0210263
2.08778e-06
3.99042e-06
0.00481384
2.76305e-06
0.00397154
3.29275e-06
2.25286e-06
2.92475e-06
0.00588815
2.83836e-06
1.82667e-06
2.0029e-06
1.72752e-06
2.00988e-06
0.0281246
9.43351e-05
1.99791e-06
0.00981472
4.24059e-06
1.86946e-06
2.5087e-06
1.96477e-06
1.6965e-06
2.30761e-06
3.87623e-06
3.32647e-06
0.00555099
0.0112019
1.99373e-06
2.0669e-06
1.91443e-06
0.00768341
3.91132e-06
2.09994e-06
3.19054e-06
0.00831167
2.12583e-06
2.48074e-06
2.80025e-06
1.89323e-05
2.45218e-06
2.86366e-06
2.60727e-06
3.4562e-06
1.99868e-06
2.96913e-06
1.86738e-06
2.78523e-06
2.6447e-06
1.86357e-06
2.53341e-06
2.08616e-06
3.02663e-06
3.10096e-06
1.7918e-06
0.010779
1.66138e-06
3.29693e-06
0.012741
0.013255
1.93969e-06
1.77287e-06
2.55705e-06
2.60576e-06
2.30918e-06
1.77711e-06
0.0197964
0.0134437
2.15015e-06
2.14063e-06
2.16259e-06
2.8946e-06
0.00571362
3.51997e-05
2.45998e-06
1.98898e-06
1.97634e-06
0.00937966
2.52116e-06
0.0220304
5.83049e-06
0.00761346
2.1472e-06
2.17039e-05
2.12414e-06
1.77074e-06
3.64667e-06
1.9991e-06
0.00293211
0.0429335
2.22213e-06
2.67859e-06
1.61721e-06
8.94639e-06
9.94325e-06
2.21435e-06
2.27756e-06
1.6358e-06
2.00607e-06
1.86057e-06
5.75827e-06
2.66555e-06
0.000225546
2.84803e-06
0.00213449
2.03557e-06
1.95577e-06
2.20541e-06
2.08761e-06
0.0044841
0.00661301
2.27387e-06
1.97077e-06
1.81268e-06
1.84888e-06
3.10837e-06
2.87338e-06
2.09227e-06
1.99832e-06
1.78474e-06
2.23374e-06
2.04011e-06
3.43101e-06
6.76927e-06
1.99392e-06
2.04556e-06
3.11611e-06
6.17714e-06
2.17251e-06
1.86377e-06
4.05532e-06
2.17483e-06
1.98219e-06
1.85292e-06
2.21307e-06
1.93799e-06
2.18596e-06
0.00774071
2.30242e-06
2.16252e-06
2.45027e-05
3.11905e-06
1.89994e-06
1.68204e-06
1.90241e-06
0.00264317
1.91082e-06
1.96883e-06
1.41262e-05
2.23915e-06
9.65703e-06
2.34252e-06
2.49191e-06
3.16985e-06
2.54183e-06
2.11226e-05
2.74106e-06
1.08793e-05
0.0022415
0.007298
6.89996e-06
2.03868e-06
2.71594e-06
1.75431e-06
6.32189e-06
4.09861e-06
2.57721e-06
3.2671e-06
0.00902702
2.16903e-06
0.029867
2.08495e-06
0.0530678
3.17448e-06
2.94899e-06
1.9947e-06
2.1356e-06
1.61977e-06
1.89731e-06
2.29382e-06
1.94292e-06
1.88176e-06
1.69646e-05
0.00281217
1.39229e-05
0.014151
8.28253e-06
1.74262e-06
2.1929e-06
1.89802e-06
1.85771e-06
0.000373588
2.77504e-06
4.89045e-06
4.85215e-06
0.0344312
0.005221
0.0225242
4.41945e-06
0.0346339
0.0582937
0.00340569
1.81389e-06
2.12206e-06
1.76024e-06
4.09685e-06
0.0329824
0.00333168
1.99216e-06
1.33104e-05
2.158e-06
2.16094e-06
2.93234e-06
2.7201e-06
6.84948e-05
2.05976e-06
0.000220142
0.0237369
3.44901e-06
0.0445311
1.91931e-06
0.00737167
0.00947201
1.92028e-06
2.31968e-06
4.23474e-06
2.30194e-06
2.66685e-06
2.31674e-06
1.823e-06
1.70717e-06
2.01044e-06
1.77449e-06
0.000134919
1.81098e-06
0.0127616
3.24393e-06
2.23994e-06
2.80617e-06
4.81588e-06
4.16479e-06
2.67017e-06
1.96335e-06
1.93404e-06
2.23343e-06
2.9345e-06
2.00424e-06
2.08821e-06
0.00919243
8.08319e-06
1.75623e-06
3.15934e-06
1.89415e-06
1.79167e-06
1.8012e-06
2.02106e-06
1.65926e-06
2.38967e-06
2.54956e-05
4.61653e-06
0.00343951
1.63651e-06
0.032721
2.51418e-06
1.80467e-06
1.98744e-06
2.16218e-06
4.14833e-06
2.94289e-06
1.91383e-06
1.92971e-06
2.69471e-06
0.00594095
2.72194e-06
0.110663
0.00927801
2.23878e-06
1.87426e-06
0.0533489
1.88288e-06
4.72146e-06
2.5606e-05
0.0479178
2.71197e-06
0.0216758
0.00682118
2.32602e-06
0.0120039
0.00319368
1.74044e-06
2.7123e-06
1.03689e-05
2.12125e-06
8.08919e-06
3.1593e-06
0.00325252
2.22407e-06
2.10276e-06
4.5918e-06
1.7418e-06
2.12771e-06
2.16317e-06
8.41437e-06
0.0162795
3.20769e-06
0.0134724
1.82595e-06
0.0202967
0.0332757
0.00258853
1.83242e-06
2.22256e-06
3.32899e-06
0.00596118
1.94488e-06
2.18456e-06
0.00217353
0.0172213
2.29086e-06
1.91426e-06
5.75762e-06
1.70265e-06
3.18877e-06
0.000222374
1.75836e-06
0.0101179
0.00362841
1.9943e-06
0.00137445
2.85747e-06
1.76671e-06
1.88543e-06
4.78564e-06
5.07098e-06
0.00270651
3.50611e-06
2.19876e-06
2.0508e-06
1.12709e-05
3.29071e-06
4.16111e-06
1.24368e-05
2.24254e-06
0.0159039
2.8781e-06
1.32047e-05
3.43332e-06
3.102e-05
5.65408e-06
0.0418131
0.00841512
2.19284e-06
0.00691834
2.57893e-06
2.03014e-06
1.98049e-06
1.70033e-06
2.73278e-06
1.76955e-06
2.53042e-06
4.00503e-06
2.34827e-06
3.49583e-06
2.74185e-06
0.0281322
7.67818e-06
2.28335e-06
2.60642e-06
0.0437251
2.01012e-06
3.80972e-06
1.84605e-06
2.98792e-06
0.00836573
1.70361e-06
3.29316e-06
1.02669e-05
1.93258e-06
3.90289e-06
0.0550127
0.00909023
1.86964e-06
0.000250563
2.88242e-06
2.2719e-06
2.13653e-06
2.17533e-06
1.18504e-05
2.24678e-06
1.90061e-06
2.78016e-06
0.00596559
2.03817e-06
2.29766e-06
2.15751e-06
1.70402e-06
0.0109044
1.70288e-06
2.2314e-06
2.24182e-06
2.87674e-06
0.0505326
3.3165e-06
3.28421e-06
0.0205099
2.35255e-06
0.00603342
1.98614e-06
2.0939e-06
2.49085e-06
2.16097e-05
0.0239425
2.8474e-06
2.36193e-06
2.47303e-06
2.88986e-06
1.80595e-06
2.90694e-06
0.00069165
0.0283422
0.0133786
0.0109783
1.11642e-05
1.96397e-06
0.0209753
2.94839e-06
3.73938e-05
1.77929e-06
2.15267e-06
1.97129e-06
1.91049e-06
3.55397e-06
1.65931e-06
3.91418e-06
2.55964e-06
0.0667163
1.81095e-06
2.37021e-06
3.24058e-06
2.4838e-06
3.84692e-06
0.0082371
2.58961e-06
1.96838e-06
3.52645e-06
2.30352e-06
2.21559e-06
1.70836e-06
3.45915e-06
1.70795e-06
0.00129035
0.00498772
1.76434e-06
1.99998e-06
2.46596e-06
2.51854e-06
4.06228e-06
2.19601e-06
2.77541e-06
2.36067e-06
3.04687e-06
1.81715e-06
2.76002e-06
0.00994925
1.77667e-06
3.70582e-06
2.25428e-06
0.000133763
0.00391091
3.38844e-06
3.42066e-06
1.8975e-06
3.20104e-06
0.0101503
0.00637488
0.0208059
0.0205083
1.98714e-06
3.96532e-06
2.11814e-06
2.69626e-06
6.82964e-06
2.64098e-06
2.09484e-06
0.0109073
2.16826e-06
3.17337e-06
0.0294238
0.0120064
3.00852e-06
2.02338e-06
2.17978e-06
3.19801e-06
2.09971e-06
0.00191358
1.82448e-06
2.06598e-06
4.84199e-06
1.98112e-06
4.19971e-06
0.0256233
2.27648e-06
0.0729707
0.0061107
0.000722647
2.82912e-06
3.35786e-06
2.19892e-06
2.25193e-06
0.00255851
3.81156e-06
0.0742674
2.24933e-06
3.56999e-06
0.0166082
4.16441e-06
2.22449e-06
4.2954e-06
4.20915e-06
4.17293e-06
0.0011301
0.0154911
5.35031e-06
1.68575e-06
0.00384493
7.16598e-06
1.99801e-06
1.94189e-06
2.32993e-06
0.000111694
2.12911e-06
2.73551e-06
2.22821e-06
2.02138e-06
3.15061e-06
1.80217e-06
2.0025e-06
0.000203489
1.83703e-06
1.79745e-06
4.24786e-06
0.00522618
0.00343585
0.00439029
0.0100234
1.85574e-06
8.0005e-05
0.00155928
2.18195e-06
2.39402e-06
2.43625e-06
2.53292e-06
2.32566e-06
3.15879e-06
1.85511e-06
1.99754e-06
2.85487e-06
2.90607e-06
1.96336e-06
2.17351e-06
1.99812e-06
2.34323e-06
4.14672e-06
0.0145099
1.87039e-06
0.0422499
2.03341e-06
2.15769e-06
2.44409e-06
2.69776e-06
0.0064364
3.42545e-06
1.91485e-06
0.0172011
1.87992e-06
3.18214e-06
1.8412e-06
2.76708e-06
5.6018e-06
1.74187e-06
2.08999e-06
2.63445e-06
3.43515e-05
2.74786e-05
0.0293555
4.05328e-06
1.07005e-05
0.0076162
3.35695e-06
2.12513e-06
2.48516e-06
2.71372e-06
4.20628e-06
0.00441477
0.00869467
0.00683346
2.06482e-05
1.99214e-06
5.77293e-06
2.14873e-06
2.9782e-06
1.81684e-06
2.36865e-06
1.98636e-06
3.83565e-06
0.0445073
5.66803e-06
0.0198459
3.5623e-05
1.24814e-05
2.96388e-06
0.0197648
2.8954e-06
0.109487
3.33066e-06
6.45237e-06
0.0425503
1.77891e-05
2.7328e-06
0.0193506
3.21771e-06
1.01373e-05
2.86241e-06
2.0982e-06
2.22034e-06
2.88297e-06
2.25697e-06
1.93714e-06
3.83423e-06
1.67232e-06
2.91718e-06
2.11558e-06
3.1643e-06
1.71676e-06
2.2709e-06
2.67306e-06
0.00589846
2.15086e-06
4.09254e-06
7.25306e-06
2.77506e-06
0.000849592
1.72766e-06
0.0275623
0.000166752
5.56546e-06
0.0255479
2.74228e-06
2.68903e-06
1.68697e-06
2.00148e-06
0.039946
1.82471e-06
2.09278e-06
2.02179e-06
0.112068
0.0109676
0.0102677
3.23799e-06
5.51952e-06
2.92932e-06
2.95017e-06
0.00745515
1.29143e-05
2.12213e-06
3.25192e-06
2.69438e-06
4.19552e-06
7.42767e-06
2.52644e-06
2.1675e-06
1.6334e-06
1.71155e-06
1.72173e-06
0.0156948
2.20242e-06
0.000645044
0.00764374
2.48165e-06
0.0104974
4.29608e-06
0.0197358
2.11366e-06
2.159e-06
1.75794e-06
2.51467e-05
1.81676e-06
3.46347e-06
0.00349864
0.122704
4.28586e-06
4.81103e-06
2.24973e-06
3.65109e-06
0.0124885
3.63053e-06
2.63201e-06
2.15841e-06
1.90482e-06
1.79026e-06
2.67028e-06
2.56811e-06
4.1663e-06
3.37194e-06
2.86829e-05
2.70771e-05
8.28327e-06
0.00283997
2.25694e-06
6.97329e-06
3.27889e-06
1.94663e-06
2.2875e-06
2.2438e-06
2.62981e-06
2.08436e-06
0.0179921
2.07227e-06
3.17477e-06
2.29923e-06
1.68009e-06
2.29984e-06
2.09309e-06
3.68331e-06
3.33315e-06
0.00759506
2.22887e-06
2.83591e-06
2.26747e-06
7.50371e-06
1.43755e-05
2.16542e-06
1.99688e-06
0.0197573
2.28398e-06
1.85082e-06
0.0953467
2.49915e-06
1.93054e-06
0.0167553
2.51267e-06
0.00980463
1.81277e-05
3.52015e-06
0.00228685
2.02074e-06
9.29485e-06
2.01263e-06
2.1815e-06
1.88204e-06
2.17519e-06
2.7996e-06
2.16452e-06
0.00705671
0.00474275
6.22462e-06
2.66296e-06
2.38981e-06
2.26315e-06
7.78647e-06
1.80685e-06
2.15494e-06
2.48023e-06
0.0878797
3.22033e-06
2.1923e-06
2.62769e-06
2.5464e-06
1.43716e-05
1.98572e-06
3.46966e-06
2.43805e-06
2.47755e-06
2.16192e-06
0.0118507
0.0029818
1.87322e-06
9.51501e-06
2.65287e-06
1.77384e-06
0.000333214
1.64452e-06
0.0204979
2.80357e-05
3.06093e-06
1.67663e-06
1.76554e-06
1.93275e-06
0.0592366
0.00425302
2.89788e-06
0.000602535
1.91042e-06
3.12821e-06
1.87959e-05
2.4164e-06
3.19344e-06
3.3237e-06
1.84733e-06
3.97215e-06
0.0900012
3.59389e-06
1.93192e-06
2.42994e-06
2.28322e-06
2.7602e-06
2.50145e-06
0.00736903
1.90579e-05
5.99028e-06
2.37787e-06
1.88319e-06
0.00769849
1.7957e-06
0.0396571
0.0148478
0.00017727
0.0424293
4.40172e-06
2.04287e-06
2.91825e-06
1.58576e-05
2.23272e-06
1.9394e-06
2.74641e-05
1.09156e-05
3.86297e-06
0.00517364
3.65382e-06
1.77632e-06
2.95132e-06
2.95925e-06
0.0155363
1.84629e-06
1.8364e-06
0.000254628
0.0195173
1.96724e-06
0.00925729
0.0137151
0.00496508
0.00119727
2.71359e-06
3.21471e-06
0.024898
2.43906e-06
2.38301e-06
2.83974e-06
0.00124395
3.21288e-06
2.19154e-06
1.77324e-06
2.3086e-06
1.90823e-06
0.0010053
2.05914e-06
0.0109539
3.54915e-06
0.0127422
1.88455e-06
0.0136177
2.4219e-06
2.77363e-06
1.91307e-06
2.99986e-06
0.0123937
0.000798702
2.18565e-06
0.00460965
1.92126e-06
3.02274e-06
1.79687e-06
3.27059e-06
0.00766117
7.01408e-06
0.0193804
0.00895525
1.78727e-06
3.16337e-06
3.14477e-06
2.9571e-06
0.00688631
2.24178e-06
2.53933e-06
2.14844e-06
3.14303e-06
3.55107e-06
2.18953e-06
2.28361e-06
0.0450236
0.00717301
1.71299e-06
2.2863e-06
1.94831e-05
0.00850918
0.0620954
3.75025e-06
2.45472e-06
0.0332677
0.000486035
2.14448e-06
2.29278e-06
2.1353e-06
0.00367771
2.28673e-06
3.44753e-05
2.18254e-06
2.2758e-06
3.03826e-06
1.74434e-06
2.78654e-06
3.8225e-06
2.25423e-06
0.0125493
2.17654e-06
0.0279524
3.49563e-06
5.98426e-06
0.0389818
2.27817e-06
2.94841e-06
2.01688e-06
3.31683e-06
2.36977e-06
1.94098e-06
2.24963e-06
0.01638
0.0145627
3.02373e-06
3.23165e-06
1.82326e-06
3.27941e-06
5.95824e-06
1.63564e-06
2.12691e-06
4.0718e-06
1.79377e-06
2.23624e-06
2.02167e-06
0.0981131
2.04788e-06
0.0125233
2.93626e-06
1.76246e-06
6.02156e-06
1.92593e-06
0.0208279
7.09624e-06
2.24472e-06
0.0585962
2.37677e-06
1.66297e-06
2.14742e-06
2.13826e-06
2.02979e-06
3.10431e-06
2.5704e-06
5.13496e-06
2.78369e-06
1.62678e-06
3.03543e-06
4.17442e-06
2.23536e-06
2.00803e-05
3.02198e-06
2.47155e-06
9.01898e-06
2.77382e-06
2.24541e-06
3.00253e-06
0.00827122
2.74083e-06
5.94655e-06
2.85912e-06
2.81104e-06
2.87041e-06
7.5654e-06
3.13221e-06
4.1123e-06
2.15213e-06
2.57822e-06
0.00078777
0.0311674
2.29037e-06
0.0163622
1.99131e-06
3.18787e-06
2.42615e-06
2.25729e-06
2.18505e-05
2.66931e-06
2.85928e-06
0.0235678
0.00188625
2.32609e-06
3.46018e-06
2.38102e-06
2.73251e-06
2.03558e-06
5.78136e-06
2.43521e-06
3.75259e-06
3.58959e-06
2.13624e-06
0.0264945
1.84585e-05
2.18328e-06
0.00758576
2.10099e-06
1.13587e-05
0.0177979
3.11856e-06
2.08836e-06
0.00134398
1.82954e-06
2.62376e-06
0.00110095
0.0430485
2.13235e-06
1.95039e-06
1.93524e-06
2.71573e-06
9.83086e-05
2.25985e-06
2.51473e-06
0.00451351
1.74956e-06
1.96854e-06
0.101087
2.21412e-06
0.0032631
1.85017e-06
1.87182e-06
1.22548e-05
1.94307e-06
3.11641e-06
1.90038e-06
1.95316e-06
4.14641e-06
0.00017948
2.12415e-06
2.28261e-06
4.20203e-06
0.00874853
0.0244831
2.42024e-06
0.0102525
1.15432e-05
0.0213309
0.00896018
0.0170128
2.10905e-06
1.8572e-06
5.96598e-06
3.27014e-06
2.15019e-06
2.83685e-06
1.62687e-06
0.00650317
2.97826e-06
2.12589e-06
2.06463e-06
0.0167209
0.00507801
0.0172494
2.57083e-06
0.0253749
2.18534e-06
3.01698e-06
1.91446e-06
0.00280577
9.3893e-06
1.9317e-06
2.65666e-06
1.99446e-06
0.00665617
1.90793e-06
0.0070925
0.000791948
6.08723e-06
2.11654e-06
1.77646e-06
1.87176e-06
2.50359e-06
3.28553e-06
2.27111e-06
1.62028e-06
2.28677e-06
2.38925e-06
1.6836e-06
1.18451e-05
2.99532e-06
2.14951e-06
0.00979922
2.17901e-06
2.81129e-06
1.6705e-06
0.116
9.46837e-06
2.0952e-06
2.31104e-06
1.71045e-06
2.55627e-06
2.08384e-06
0.0102982
1.84307e-06
0.000578289
2.24061e-06
2.27324e-06
2.49165e-06
3.64543e-06
2.27713e-06
0.00327516
7.32367e-06
2.94469e-06
1.03115e-05
0.010547
1.73534e-05
1.72032e-06
0.0390201
2.3289e-06
0.0246331
0.00256459
3.62588e-06
2.10579e-06
0.0260197
4.20406e-06
0.0185906
2.12512e-06
0.0433457
1.74556e-06
3.29872e-06
5.26127e-06
1.70505e-06
0.00126068
2.27662e-06
1.74053e-06
0.00410032
3.93676e-06
4.28414e-06
2.38862e-06
1.97381e-06
0.000576825
5.21973e-06
4.11769e-06
0.0203955
3.51246e-06
0.00335192
2.62236e-06
1.87568e-06
1.8849e-06
0.00131041
0.0321818
2.78364e-06
3.20325e-06
2.22763e-06
2.27578e-06
2.33944e-06
1.83546e-06
2.81649e-06
0.0193851
2.19546e-06
2.15173e-06
1.65181e-05
1.74821e-06
9.12249e-06
5.88691e-06
0.0746587
6.47714e-06
2.12713e-06
2.91331e-06
7.64704e-06
2.08528e-06
1.65442e-06
1.82294e-06
1.78171e-06
2.12852e-06
1.93762e-06
2.08321e-06
2.25393e-06
2.92131e-06
2.11341e-06
1.91505e-06
1.98452e-06
3.27087e-06
2.95167e-06
1.76041e-06
2.02803e-06
2.53672e-06
2.99115e-06
7.7591e-06
0.00585994
3.01032e-06
0.0126327
0.00783286
0.0472694
0.0371834
0.00443442
2.95011e-06
5.95885e-06
0.0166772
2.88969e-06
3.27752e-06
1.90092e-06
0.0063112
3.85395e-06
2.87207e-06
2.0751e-06
0.0118195
1.65303e-06
1.78225e-05
0.00527357
2.35455e-05
0.0259091
0.00257298
1.69808e-06
2.30223e-06
2.3293e-06
1.81833e-06
2.21156e-06
3.01757e-06
1.76945e-06
2.80272e-06
5.79119e-06
2.07934e-06
3.00909e-06
2.15069e-06
1.95425e-06
3.27873e-06
2.37011e-06
1.76422e-06
0.00268015
2.00165e-06
1.99905e-06
3.24271e-06
0.0788193
2.13107e-06
2.1506e-06
1.69964e-06
2.18065e-06
3.61855e-06
2.13984e-06
6.32327e-06
2.00026e-06
2.09901e-06
1.81925e-06
1.75274e-06
2.53936e-06
5.90394e-06
2.728e-06
3.90043e-06
0.0163987
1.48009e-05
3.33067e-06
3.85426e-06
2.57983e-06
0.00900183
0.00721948
2.36836e-06
2.58812e-06
1.21903e-05
0.0115709
3.81963e-06
2.076e-05
2.93344e-06
4.72328e-06
1.75318e-06
2.24414e-06
0.00632974
1.81621e-06
2.32929e-06
0.000178108
3.37064e-06
0.0133516
0.0296432
0.00859894
0.00700102
0.00542775
2.12597e-06
0.0550003
2.46398e-06
2.82021e-06
1.94381e-06
1.87295e-06
0.0377092
3.29933e-06
2.59695e-06
0.0240353
0.00268424
0.00214687
1.23683e-05
2.87487e-06
1.80805e-06
0.00562234
1.77439e-06
0.000243834
2.04263e-06
2.1362e-06
2.14679e-06
2.04367e-06
2.21103e-06
2.87689e-06
1.81851e-06
1.78927e-06
2.13252e-06
0.0240679
1.79635e-06
1.92399e-06
1.30153e-05
2.13656e-06
2.79173e-06
1.92544e-06
8.2755e-06
0.0129343
2.25413e-06
1.87925e-06
2.97002e-06
1.47299e-05
8.1507e-06
0.0188032
3.8497e-06
2.01103e-06
3.24586e-06
1.94226e-06
3.80607e-06
0.0264144
2.26339e-06
2.07858e-06
3.6195e-06
2.25256e-06
2.22506e-06
1.10358e-05
1.72608e-06
6.13619e-06
0.0198313
1.04597e-05
4.36824e-06
2.63293e-06
3.78039e-06
1.78901e-06