/*--------------------------------*- C++ -*----------------------------------*\
| =========                 |                                                 |
| \\      /  F ield         | OpenFOAM: The Open Source CFD Toolbox           |
|  \\    /   O peration     | Version:  v2012                                 |
|   \\  /    A nd           | Website:  www.openfoam.com                      |
|    \\/     M anipulation  |                                                 |
\*---------------------------------------------------------------------------*/
FoamFile
{
    version     2.0;
    format      ascii;
    class       volScalarField;
    location    "50";
    object      k_0;
}
// * * * * * * * * * * * * * * * * * * * * * * * * * * * * * * * * * * * * * //

dimensions      [0 2 -2 0 0 0 0];


internalField   nonuniform List<scalar> 
18618
(
0.000106054
0.000475038
9.53192e-05
0.000114478
0.000105911
0.000109459
0.0179694
0.019003
0.000297006
0.000144187
0.000105566
0.000107061
9.99611e-05
0.000106107
0.000108389
0.000109268
9.41874e-05
0.000106255
9.0661e-05
0.0111053
0.00010821
0.0684391
9.23374e-05
0.000107348
0.0180653
0.000314821
0.000143923
0.0609676
0.000184633
9.54253e-05
0.000103717
0.000100458
0.000101696
0.000106408
0.000106807
0.0425923
9.77834e-05
0.00107918
0.0215263
9.26617e-05
0.0345778
0.0601514
0.022227
0.0101378
0.000100206
0.000108783
0.0228409
0.000107162
0.000144631
0.025187
0.000142843
9.80017e-05
0.000134542
0.000155185
0.0160249
0.000640489
0.00012998
0.000126633
0.0370216
0.0156474
0.0237216
0.0269286
0.000144155
0.000111984
0.000976467
0.00020061
0.01459
9.99255e-05
9.89002e-05
0.0407361
0.000151554
9.08586e-05
0.0001361
0.00554237
0.0119952
0.0444131
0.000132662
0.000111429
9.87237e-05
0.000205513
9.6677e-05
0.000106424
0.000114006
0.000103896
0.0702817
9.80075e-05
0.000797044
0.0395919
0.0258554
0.0084635
0.000100911
0.0260495
0.00102509
9.49171e-05
0.0245622
0.0272531
0.000104012
0.000263606
0.000109465
0.0239554
0.024293
0.0159328
0.0001007
0.000591227
0.000184354
0.000169678
0.013768
0.000105093
0.0273002
0.019887
0.0324597
9.4005e-05
0.0251653
0.00944928
0.00011554
9.31958e-05
0.0143332
0.000114107
0.000141065
0.0117727
0.000107578
9.77499e-05
9.66999e-05
0.000110248
0.0001336
0.000186252
9.98913e-05
0.00083122
0.00101239
0.000137415
0.0161069
0.0121491
0.0121496
0.000125837
0.00010434
0.000102721
0.000117761
0.0372598
0.0854302
0.000108273
0.0209877
0.0202063
9.90731e-05
0.000107818
9.39221e-05
0.000115666
9.34734e-05
0.000114355
0.00010907
0.000106834
0.00676865
0.000105833
0.000101784
0.000107837
9.66213e-05
0.0242
0.0294077
0.000109507
9.77978e-05
0.0971175
0.000132824
0.000106733
0.0204842
0.00894676
0.000118503
0.000105336
0.000104049
0.059727
0.000111834
0.000275522
0.000148678
0.000101135
0.000198429
0.000713611
0.0203636
0.000115528
0.00278158
0.000107666
0.000118275
0.000101408
0.00545325
0.000106817
0.0690478
0.000135551
0.000122551
0.000111126
0.00714028
0.000723382
0.000561437
0.000106203
0.000116285
0.000109326
0.000105297
9.43367e-05
9.87059e-05
0.00310158
0.000108373
0.000103905
0.0180895
0.000100549
0.000187586
0.0446101
0.00676485
0.0163934
0.0028296
0.0001045
0.0235787
0.0168519
0.000130038
9.3402e-05
0.000571723
0.000457501
0.000100541
9.37713e-05
0.000104074
0.000143927
0.0261293
0.0224727
0.000107595
9.60162e-05
0.000106903
9.67105e-05
0.0303471
0.000141761
0.0387406
0.000118151
9.79051e-05
0.000209385
0.000707269
0.000100166
0.000104006
0.000101139
0.000105074
0.0212145
0.000101578
0.000125507
0.000133876
0.000250444
0.00761056
9.3136e-05
0.000388652
9.79523e-05
0.000120932
0.0220749
0.000126851
0.000110794
0.00273636
0.000125819
0.0375546
0.00011379
9.5124e-05
0.0627567
0.000107117
0.0104869
0.000105606
0.00010006
0.000264691
0.000120007
9.13762e-05
9.60606e-05
0.000114922
0.0257884
0.0227453
0.000106828
0.0661407
0.00154528
0.000279135
0.000107607
0.000190709
0.000108835
0.000209785
0.00011843
9.89224e-05
0.000114914
0.000147703
0.000106558
0.000104608
0.000105494
9.46488e-05
0.0298284
0.000115063
0.000129406
0.00011395
0.000102309
0.0249687
0.00011404
9.95941e-05
0.000133192
0.000131325
0.000168516
9.21633e-05
0.000124596
0.000114932
0.000102724
0.0887141
0.000761656
0.0286802
0.0238359
0.0204375
0.000100479
0.000110806
0.000111301
0.00011253
0.000104545
0.000119689
0.000129594
0.000109549
0.0196678
0.000202477
0.027936
0.0021799
9.09198e-05
0.00101258
0.000142435
0.000135627
0.00010877
0.000102363
9.87101e-05
0.000117455
0.0112373
9.33922e-05
0.00348138
0.000126904
0.0456768
0.00013818
0.00108445
0.00485082
0.000108709
9.16304e-05
0.0694169
0.000113483
0.10021
0.000109285
0.000134966
0.000103247
0.000117509
0.0154038
0.000100761
9.3139e-05
0.0239517
0.000123644
0.000144574
0.0908592
0.000223353
0.00012023
0.000134868
0.000101259
0.000194078
0.000125712
9.28549e-05
0.000121674
9.10689e-05
0.0217516
0.000128497
0.000114238
0.000122368
0.000127566
0.000125341
0.000110025
9.88968e-05
0.000104579
0.0252002
0.0607123
0.000125456
0.0166628
0.0684102
0.00012128
0.00013555
0.000135925
0.000260732
0.000100799
0.000115233
0.000107467
0.000101195
9.36816e-05
0.000111256
0.000210676
0.000107485
0.000115452
0.000122932
0.00021929
0.000148693
9.98639e-05
9.16643e-05
0.000155982
0.000100048
0.000139484
0.0843478
0.000120458
0.000130321
0.00010747
0.000123101
0.00693857
0.0327334
0.000121804
0.00030386
0.0262322
0.0212762
0.000124615
0.021485
0.000115408
0.000101019
9.70743e-05
0.0322444
0.000100688
0.00904171
0.000118726
0.000103878
9.89286e-05
0.0001161
9.6815e-05
0.000149229
0.000101222
9.09227e-05
0.000104088
0.000123334
9.19014e-05
9.29723e-05
0.000109573
0.000101388
9.37175e-05
0.0219437
9.6904e-05
9.98237e-05
0.000100053
0.0883668
0.00012441
9.40257e-05
0.00188447
0.0247839
0.000123925
0.000119535
0.000108568
0.00011269
9.81311e-05
0.000108892
0.000133206
0.000113718
0.000651581
0.000191193
0.000106013
0.0024999
0.000115199
0.000106783
0.0268572
0.000132875
0.000104911
0.0123657
0.000185137
0.000123181
0.000105549
0.000144587
0.000125498
0.000109475
0.000120343
0.000524489
0.000116361
9.76291e-05
0.000102055
0.0637977
0.0318853
9.54387e-05
0.000216938
0.000122086
0.000224464
0.000104059
0.000119985
0.000149428
0.000613166
0.000100172
9.55049e-05
0.0001102
9.39524e-05
0.0130946
9.69119e-05
0.000101716
0.0240178
9.65727e-05
0.00250241
0.000112189
0.000288307
0.00010781
0.022084
9.10803e-05
0.000544893
0.000113935
0.000219132
9.72275e-05
0.00013138
0.000100984
0.000383697
0.0963353
0.000103952
0.000136147
0.020384
0.0187749
0.000325963
0.068803
0.000107905
0.000138677
0.000148626
0.000104578
0.0145082
0.000122474
9.73394e-05
0.00019976
0.000104257
0.000105055
0.00443929
0.000503833
0.0471079
0.000103671
9.65258e-05
9.69387e-05
0.000134804
0.000131945
9.10161e-05
0.00013685
0.00014378
0.0169612
9.66911e-05
0.000131422
0.000419745
0.000136758
9.43653e-05
0.00012461
0.0157637
0.000126052
0.0112141
0.000133616
0.00720943
0.0174518
0.000104294
0.000105507
0.000131777
0.000142923
0.0224931
0.000149415
0.00010428
0.000100615
0.000110618
0.000106886
0.000125895
0.000129809
0.000122549
0.000130422
0.00271904
0.0197619
9.28439e-05
0.000114404
0.000117452
0.000163988
0.00042221
9.78415e-05
0.000607776
9.94974e-05
0.00869154
0.000122519
0.000200855
0.000132394
0.0861588
9.33779e-05
0.0131703
0.000105071
0.000112797
0.000161022
0.0130542
0.000107254
0.000195766
0.000109065
0.00012537
0.0294195
0.000130135
0.0425001
0.0612352
0.0191212
0.0140336
0.000143
0.00535627
9.66134e-05
0.000106662
0.000106014
0.000104662
0.000131467
0.000124947
9.66003e-05
0.00012934
9.94298e-05
0.00988358
0.000252216
0.000116926
0.000104456
0.000103799
9.75534e-05
0.000102113
0.000106607
0.00117071
0.0263187
0.000216177
0.000108519
0.00012472
0.00157725
0.000123882
0.000106554
0.0001143
0.000114674
0.000126014
9.15437e-05
0.000118502
0.000108592
0.0105925
0.0240686
0.0229389
0.0121288
0.0183585
0.000102209
9.69035e-05
0.0279296
0.000114025
0.000105112
9.10765e-05
9.93839e-05
0.00841964
0.000143248
0.000143607
0.00035687
9.84314e-05
0.000114239
0.000411284
0.000126451
0.000104681
0.000115116
0.0190939
9.16026e-05
0.000697828
0.000749775
0.00319553
0.000100303
0.0181522
0.000132522
9.99571e-05
0.000106761
0.0178891
0.000282728
9.99281e-05
0.000750095
0.000142021
0.000110744
9.8587e-05
0.000107094
0.0133449
0.000123083
9.93047e-05
0.000142503
9.20364e-05
0.000103005
0.000117278
0.006011
0.000108339
0.000115262
0.0423209
0.000244785
0.000129199
0.000105202
0.000122178
0.000105734
0.000104495
0.000129287
0.00026172
0.000104823
0.0155439
0.000149471
0.000136068
0.000105735
0.000108217
0.000670919
0.0667934
0.000498455
0.0921107
0.0001094
0.0344004
0.000104013
0.000128258
0.000129837
0.000132017
0.0233477
0.0027817
0.000130485
9.71876e-05
0.000120022
0.00457152
9.61455e-05
0.000115568
0.000112385
0.000382704
0.00122402
0.000113114
0.000122006
0.000121536
0.022019
0.00394005
0.000101095
0.000106711
0.000214091
9.10919e-05
9.89064e-05
0.000103352
0.0247919
9.93755e-05
0.000108174
9.18215e-05
0.00011382
9.67117e-05
0.0206023
0.00899348
0.00435275
0.000100573
0.00116549
9.94512e-05
0.000101896
0.000102561
9.18964e-05
0.0584105
0.0211003
0.0261175
0.000116902
0.0218155
9.34275e-05
0.000114858
0.000119875
0.000151645
0.0146348
0.000121803
0.000107525
0.0307259
9.8288e-05
0.020878
0.0140708
9.63121e-05
0.000117264
0.000109357
0.000134908
0.000107546
0.0183923
0.0206782
0.032581
0.000199096
0.000215658
0.000125332
0.0155716
0.000101348
0.000111317
0.000125034
0.000100333
0.01498
9.16019e-05
0.0533068
0.000105613
9.66366e-05
0.0162609
0.000623158
9.81588e-05
0.000142722
0.000105774
0.00011207
0.000433647
0.0169588
9.84077e-05
0.000109346
0.0586278
0.000126953
0.000106469
0.000114635
0.000119444
0.000117093
0.000103378
0.0215839
0.000637672
0.000108181
0.000123579
0.000102919
0.0489614
9.03967e-05
0.000115766
0.0153847
0.000104648
9.57361e-05
0.00403794
0.0162378
0.00221158
0.000120315
9.93916e-05
0.000125531
0.000110922
0.000136654
0.0254192
0.000122943
0.000277709
0.0148048
0.000105014
0.000113308
0.000106285
0.000101548
0.000100767
0.000123632
9.92229e-05
0.0131506
0.000106817
0.00010003
0.0129414
0.00030525
0.000107451
0.000139654
0.000119351
0.000103218
0.000116163
9.25997e-05
9.95255e-05
0.000108018
9.11597e-05
0.000100151
0.000106621
9.49951e-05
0.0328588
0.000113828
0.0240056
0.00942799
0.000107483
0.000360535
0.000133332
0.000127538
9.62999e-05
0.00174618
0.026825
9.60491e-05
0.000107815
0.0370643
0.00012069
0.0001037
0.000104245
0.00252888
9.65731e-05
0.013518
0.00011035
0.000101684
0.0243927
9.8807e-05
0.00012081
9.30147e-05
0.000129086
0.0118597
0.0149126
0.0387706
0.000118732
0.0309057
0.0230002
0.064919
0.0167201
0.000107004
0.0154141
0.000117675
0.000108795
0.000105654
0.000138039
0.00191541
0.000110439
0.000102765
0.000103227
0.000182267
0.000119096
9.93556e-05
0.0368176
0.000108509
0.000103888
0.0158852
0.000108487
0.000127227
0.0173694
0.000108613
0.000102667
0.000102624
0.000101795
0.000110638
0.000106782
0.000133119
0.0042213
0.0341281
0.000216944
9.3532e-05
0.0143308
0.0188786
9.8965e-05
0.000105714
9.19508e-05
0.000883298
0.000117822
0.00011626
0.000100932
9.51921e-05
0.000117217
0.00014867
0.000136822
0.000189864
0.000120707
9.93176e-05
0.000222551
0.000290719
0.000107736
0.000104474
0.000128725
0.000107267
0.000119038
0.000105902
9.61421e-05
9.99059e-05
0.0339281
0.000121083
0.000691167
0.000137426
9.1912e-05
9.70433e-05
9.33934e-05
9.91892e-05
0.000106358
0.0503836
0.0111424
0.0266918
0.000123997
0.000106811
0.000555043
0.00013899
0.000145147
0.000109039
0.00010619
9.40026e-05
0.00011686
0.000872298
0.0306494
0.000113636
0.000119329
0.0280312
0.0274528
0.00013139
0.000169477
0.0437865
0.0159084
0.000124809
0.000100005
0.000117374
0.000119499
0.000263009
9.67041e-05
9.92568e-05
0.00115257
0.000115432
9.79363e-05
0.000127404
9.44099e-05
0.000128062
9.70948e-05
0.0618725
0.000104815
9.71491e-05
9.40874e-05
0.000115614
0.000117466
9.2844e-05
0.0207758
0.0154747
0.00010106
9.36004e-05
0.00415263
0.000104044
9.34662e-05
0.000103863
0.00010139
0.0142163
9.48284e-05
9.83731e-05
0.000108042
0.057627
0.000114477
0.000108579
0.0632285
0.000100376
0.000696316
9.72575e-05
0.0154901
0.000137099
0.000121167
0.0443839
0.000104628
0.0336399
0.000116326
0.00323673
0.0878514
0.000112365
0.000211933
0.0433856
0.000172349
0.0185996
0.000138143
0.000124479
0.000115951
0.000124712
0.000123905
0.000142274
9.81212e-05
0.0644937
0.000137034
0.000107699
9.84754e-05
0.000102663
0.000135682
0.000144498
0.000103477
0.000128192
9.2815e-05
0.000105571
0.000100231
0.000118744
0.00310285
9.80471e-05
0.000128682
0.00010128
0.000278828
0.000100319
0.0354287
0.000298064
0.0234985
0.000127252
0.00010008
0.00352916
0.0592608
0.00010797
0.0461244
0.000122759
0.00752285
0.000225423
0.000102347
0.000124584
9.80042e-05
0.0435418
9.847e-05
9.82648e-05
0.000126904
0.000122719
9.67851e-05
0.000276854
0.000134495
0.000214532
9.35961e-05
0.000134894
0.0423186
0.000108054
0.000109775
0.003841
0.000112566
0.000102467
0.0942066
0.000109963
0.000114794
0.000221676
0.000109337
9.09777e-05
0.000150877
0.00010041
0.000102145
0.000107546
9.67744e-05
0.000129213
0.0728335
0.000129011
0.0038823
9.6981e-05
0.000135101
0.000108651
9.55463e-05
9.39302e-05
0.000565908
0.00656199
0.000100404
0.000133817
0.0141455
0.0154734
0.0603833
0.000104386
0.000124678
0.000105165
9.40709e-05
0.000143196
9.15773e-05
9.5613e-05
9.92252e-05
9.5586e-05
0.000115586
9.69257e-05
0.000134445
9.96662e-05
0.000116584
0.000102473
0.00015345
0.0189016
0.000191002
0.0723703
0.000112935
0.000126834
0.000134198
0.0468863
0.000968985
0.000103937
9.78268e-05
0.00014412
0.0471326
0.00554442
0.000122153
0.000108258
0.0418926
0.039017
0.000861461
0.000108713
0.000399536
9.8858e-05
0.000107343
0.000119197
0.000127419
0.000101393
0.000106132
9.38988e-05
0.00010571
0.0101032
0.00176646
0.000112378
9.46388e-05
0.000137398
0.000117097
0.000442801
0.000100237
0.000139169
0.000100998
0.00010055
0.000109466
9.98976e-05
0.000111631
0.000687511
9.81187e-05
0.000155032
0.00011365
0.000119233
0.000111677
0.000143173
0.034615
0.00014092
0.000112564
0.019136
0.000112092
0.000114012
9.86368e-05
0.000138793
0.0557107
9.49852e-05
0.000140225
0.000355388
0.000100567
0.000138371
0.0229436
0.000121096
0.000131654
0.000106902
9.82483e-05
0.000142998
9.07099e-05
0.0237867
0.000119622
0.000123455
0.000104543
0.000220669
0.000129779
0.0126964
0.0481879
0.000102796
0.000167939
0.0171997
0.000130491
0.0158337
0.000130308
0.000111417
0.000133182
0.0155017
0.000120611
9.64525e-05
0.000100893
9.34442e-05
0.000100798
0.0384708
0.00131558
0.000101116
0.013593
0.000148746
9.75056e-05
0.000113124
0.000101383
9.23036e-05
0.000108331
0.000141902
0.000131023
0.0190774
0.0263996
0.000100472
0.000102331
9.83297e-05
0.0221074
0.000165613
0.000103462
0.000141592
0.0243312
0.000106344
0.000112452
0.00011979
0.000508221
0.000111834
0.000121195
0.000115412
0.000133684
0.000100805
0.000123527
9.74446e-05
0.000119469
0.000116337
9.69858e-05
0.000122148
0.000105003
0.00013929
0.000138953
9.5407e-05
0.0303756
9.14377e-05
0.000130426
0.0316739
0.0341086
0.000101519
9.45104e-05
0.000114193
0.000115393
0.000108427
9.45998e-05
0.0433884
0.0346564
0.000104376
0.000104274
0.000107619
0.000121897
0.020179
0.000752322
0.000111995
0.000101865
0.000102527
0.0264955
0.0001134
0.0312296
0.000212906
0.0149981
0.000106417
0.000533107
0.000106779
9.43642e-05
0.000137453
0.000100507
0.00772783
0.0601675
0.000106726
0.000117068
9.00334e-05
0.000303894
0.00032259
0.000106548
0.000107557
9.06263e-05
0.000101664
9.94213e-05
0.00021927
0.000116738
0.00227958
0.000120849
0.00933588
0.000101748
0.000102129
0.000105805
0.000102858
0.0153417
0.0185547
0.000112826
0.000100088
9.56277e-05
9.69295e-05
0.000141901
0.000121427
0.000102969
0.000101577
9.47607e-05
0.000106568
0.000101749
0.000133162
0.000236474
0.000103162
0.000101887
0.000139873
0.000228856
0.000105583
9.79876e-05
0.000145278
0.000105002
0.000100077
9.77379e-05
0.000106551
9.89032e-05
0.000107054
0.0233744
0.000112724
0.000105057
0.000595511
0.000136998
0.000100475
9.18935e-05
9.79615e-05
0.0108729
0.000100923
9.97552e-05
0.000416313
0.000107914
0.000315953
0.000109337
0.000112743
0.000144134
0.00011391
0.000529883
0.000129482
0.000351829
0.00992819
0.017471
0.000250616
0.000104664
0.000117842
9.49661e-05
0.000232595
0.000146067
0.000114712
0.000129805
0.0159578
0.000104898
0.0459123
0.000105374
0.0645255
0.00012788
0.000133895
0.000101103
0.000104082
9.01227e-05
0.000100525
0.000108175
9.91405e-05
9.90094e-05
0.000465546
0.0116402
0.000398622
0.0341581
0.000284789
9.37954e-05
0.000111368
9.80715e-05
9.67373e-05
0.00299024
0.000119246
0.0001922
0.000188186
0.0571153
0.0192087
0.012884
0.000175634
0.0498968
0.072337
0.0125328
9.60743e-05
0.000104778
9.41694e-05
0.000146027
0.0550662
0.0125981
0.000101375
0.000384259
0.00010496
0.000105291
0.000122703
0.000129135
0.00109658
0.000102566
0.0022867
0.0460425
0.000133519
0.0488477
9.84172e-05
0.0242982
0.0130841
9.84347e-05
0.000108609
0.000170623
0.000108263
0.000116789
0.00010853
9.69377e-05
9.2716e-05
0.00010086
9.44523e-05
0.00157697
9.59684e-05
0.0333468
0.000142172
0.000107959
0.000130691
0.000190677
0.000172128
0.000116868
9.95965e-05
0.000100478
0.000110213
0.000134959
0.000101542
0.000102891
0.0167642
0.00027634
9.42626e-05
0.000127532
9.77339e-05
9.49574e-05
9.56844e-05
0.000101841
9.12156e-05
0.000110415
0.000598029
0.000185455
0.0127279
9.06631e-05
0.0415053
0.000113228
9.57966e-05
0.000100555
0.000110416
0.000146992
0.000122916
9.82662e-05
9.93127e-05
0.000123676
0.0196195
0.000128067
0.0956547
0.0160352
0.000106612
9.87166e-05
0.0686296
9.74312e-05
0.000188106
0.000605848
0.0646853
0.000117809
0.0409439
0.0231496
0.000108791
0.0323991
0.0120354
9.40651e-05
0.000127808
0.000331447
0.000106073
0.000283258
0.000127552
0.0124005
0.000106326
0.00010559
0.00018459
9.41453e-05
0.000104968
0.00010698
0.000294356
0.0330923
0.0001285
0.0203046
9.72807e-05
0.0280888
0.0364046
0.015579
9.60617e-05
0.000108554
0.000131091
0.0213139
9.91171e-05
0.000105379
0.0095442
0.021475
0.00011342
9.95146e-05
0.000212191
9.25894e-05
0.000128173
0.002242
9.50745e-05
0.0133603
0.0144575
0.000100383
0.00746308
0.000121062
9.51503e-05
9.75076e-05
0.000189331
0.000203367
0.012431
0.000148951
0.000110691
0.000101928
0.000354772
0.000143938
0.000147243
0.000378005
0.000107054
0.034231
0.000134671
0.000379536
0.000133211
0.000696887
0.000211129
0.0491416
0.0149484
0.000110893
0.0232577
0.000114805
0.000101651
0.000100175
9.26755e-05
0.000118285
9.5236e-05
0.000113636
0.000171297
0.000109305
0.000134464
0.000128287
0.0338221
0.000259062
0.000109435
0.000115376
0.0665604
0.00010154
0.000163121
9.65702e-05
0.000136109
0.0248361
9.28603e-05
0.000130344
0.000316887
9.87564e-05
0.000165319
0.0745172
0.0258866
9.97053e-05
0.00238678
0.000121614
0.000109443
0.000105896
0.00010676
0.00036614
0.000107291
9.82961e-05
0.000128431
0.0200143
0.000104409
0.000115089
0.00010572
9.28616e-05
0.0307078
9.27796e-05
0.000106474
0.000107294
0.000121517
0.0653821
0.000143138
0.0001421
0.0093503
0.000109408
0.0212261
0.000100172
0.000102976
0.000118093
0.000535153
0.0479845
0.000120887
0.000109638
0.000112298
0.000132141
9.5342e-05
0.000122126
0.00456846
0.0528141
0.032098
0.0168895
0.000348325
9.95888e-05
0.0447317
0.000123037
0.00078474
9.45942e-05
0.000104807
9.98071e-05
9.86948e-05
0.000135626
9.12122e-05
0.000168554
0.000123467
0.0719049
9.54677e-05
0.000113654
0.000146579
0.000112554
0.000163896
0.0188095
0.000115
9.98122e-05
0.000135085
0.000110203
0.000106127
9.29742e-05
0.000133714
9.26261e-05
0.00679889
0.0165621
9.42511e-05
0.000101254
0.000112131
0.000113363
0.000145401
0.000105735
0.000126383
0.00010973
0.000137135
9.67623e-05
0.000118844
0.0272884
9.459e-05
0.000138604
0.000107053
0.00160366
0.0160463
0.00013229
0.000132937
9.82014e-05
0.000128413
0.014307
0.0207833
0.00914389
0.0342635
0.000100192
0.000162726
0.000104208
0.000117442
0.000238131
0.000116197
0.000103074
0.028708
0.000105467
0.00012786
0.0540704
0.0303094
0.000138128
0.000101842
0.000105663
0.000128378
0.000103111
0.00964038
9.59584e-05
0.00010256
0.000187482
0.000100055
0.000147923
0.0334978
0.00011111
0.0800978
0.0205808
0.00467236
0.000128125
0.000131665
0.000106647
0.000107233
0.0107006
0.0001626
0.0710151
0.000108169
0.000135931
0.0390796
0.000147321
0.000108518
0.000172626
0.00014811
0.000147463
0.00649854
0.0346571
0.000211609
9.20046e-05
0.0154678
0.000244301
0.000102225
9.89926e-05
0.000109011
0.00145531
0.00010584
0.000118364
0.000106556
0.000102283
0.000140869
9.52525e-05
0.000100607
0.00208134
9.66669e-05
9.51034e-05
0.000148842
0.0169768
0.0137692
0.0214941
0.0280848
9.72388e-05
0.0012192
0.00777634
0.000105208
0.000110427
0.000111403
0.000113688
0.000116021
0.00012755
9.66761e-05
0.000100536
0.000121088
0.000122121
9.95941e-05
0.00010761
0.000100588
0.000109187
0.000146989
0.0351987
9.82566e-05
0.0194772
0.000101573
0.000104589
0.000111592
0.000128169
0.0221064
0.000151034
9.88171e-05
0.035378
9.73882e-05
0.000127969
9.68283e-05
0.000119066
0.000206299
9.37903e-05
0.000102866
0.000116059
0.000747866
0.000631117
0.0342046
0.000145258
0.000332928
0.0236686
0.000131654
0.000105426
0.000112593
0.00011786
0.000148063
0.0149606
0.0264823
0.0223058
0.000513507
0.00010042
0.000213829
0.000104414
0.000135759
9.57444e-05
0.000109942
0.000100216
0.000141137
0.0676233
0.000212433
0.0393822
0.000758083
0.000374591
0.000123349
0.0241583
0.000121902
0.0874319
0.000131137
0.00023597
0.0660719
0.000472104
0.000118272
0.0264526
0.000128763
0.000323838
0.000121173
0.000103452
0.000106465
0.000121644
0.000108486
9.97526e-05
0.000141088
9.20002e-05
0.000122361
0.000105631
0.000127635
9.3771e-05
0.000110241
0.000127348
0.0160239
0.000106211
0.000145969
0.000256893
0.000126481
0.00544924
9.31586e-05
0.0485593
0.00187812
0.000209724
0.0429369
0.000118427
0.000117261
9.19984e-05
0.000102903
0.0468107
9.59668e-05
0.000103367
0.000102294
0.0902062
0.0299319
0.0144741
0.00012918
0.000211644
0.000122624
0.000136269
0.014472
0.000374879
0.000104082
0.000129508
0.000128349
0.000147859
0.000251225
0.00011354
0.000109815
9.04684e-05
9.3596e-05
9.29846e-05
0.037203
0.00010569
0.00447701
0.0141042
0.000112501
0.0146593
0.000172296
0.0177236
0.000103617
0.000105271
9.39899e-05
0.000603876
9.57608e-05
0.000133813
0.0189406
0.0972742
0.000149518
0.000189222
0.000111329
0.000159493
0.0333152
0.000152783
0.000115979
0.000105748
9.91082e-05
9.51731e-05
0.000116845
0.000114512
0.000147331
0.000149473
0.000646083
0.000626927
0.000293489
0.0125839
0.000107325
0.00025382
0.000130096
0.00010089
0.00010789
0.000107294
0.000115948
0.000105578
0.0391636
0.000104978
0.000127898
0.000110005
9.18139e-05
0.000111627
0.00010303
0.00013818
0.000131161
0.0207896
0.000106534
0.000120591
0.000109199
0.000263124
0.000422554
0.000105426
0.000101242
0.0380159
0.000112565
9.65668e-05
0.0950328
0.000112881
9.86885e-05
0.0334286
0.00011327
0.0288322
0.000475642
0.000134891
0.01016
0.000102112
0.000302479
0.00010092
0.000110497
9.74045e-05
0.000107048
0.000130278
0.000105919
0.0205723
0.0177437
0.000222298
0.000116756
0.000114592
0.00010746
0.000268606
9.54106e-05
0.000104489
0.000112455
0.0927194
0.000128847
0.000105458
0.00011592
0.000114019
0.000402777
0.000100893
0.000154122
0.000116161
0.000112404
0.000104733
0.0274019
0.0116329
9.72589e-05
0.000311289
0.000116471
9.45644e-05
0.00296458
9.08085e-05
0.040117
0.000667214
0.00012547
9.1745e-05
9.43065e-05
0.00010044
0.0636136
0.0170579
0.000132208
0.00594184
9.96438e-05
0.000126853
0.000494744
0.000119097
0.000128285
0.000144871
9.86452e-05
0.000163051
0.0885249
0.000158303
9.95867e-05
0.00011133
0.000107788
0.000127859
0.000122093
0.0210217
0.000493126
0.000218615
0.000110124
9.745e-05
0.0237442
9.55313e-05
0.0541448
0.0182435
0.00195058
0.0201937
0.000179681
0.000101645
0.000122392
0.000431614
0.000106606
9.97445e-05
0.00063523
0.000347111
0.000141631
0.0187599
0.000155783
9.45193e-05
0.000123147
0.000134889
0.031131
9.64976e-05
9.61764e-05
0.00245763
0.0422104
9.98775e-05
0.0270508
0.0184644
0.0177367
0.00660474
0.00011788
0.00012874
0.0490457
0.00011889
0.000110247
0.000131748
0.00664131
0.000128691
0.000105637
9.47724e-05
0.000108508
9.82075e-05
0.00591045
0.000102142
0.0296385
0.000135516
0.0153842
9.91737e-05
0.0208799
0.000111137
0.000119207
9.83587e-05
0.000136044
0.0321803
0.00503295
0.000105291
0.0171602
9.84551e-05
0.000137658
9.50789e-05
0.000129862
0.0181596
0.000256682
0.0429564
0.027318
9.4881e-05
0.000138265
0.000127228
0.000123259
0.0232152
0.000107854
0.000113884
0.000104728
0.000127246
0.000135571
0.000107513
0.000107814
0.0658869
0.023787
9.27666e-05
0.000107905
0.000506312
0.0249563
0.0649187
0.000139478
0.000111868
0.054319
0.00371458
0.000106385
0.000113429
0.000104265
0.00997408
0.00010779
0.000741794
0.000105276
0.000109966
0.000125002
9.41405e-05
0.000129077
0.000140865
0.000108976
0.0316895
0.000106033
0.0495797
0.000134465
0.000218122
0.0515641
0.000107599
0.000123066
0.000100971
0.00014929
0.000109796
9.89929e-05
0.000106868
0.0357885
0.0346303
0.000135965
0.000129083
9.59289e-05
0.000130061
0.000215695
9.05447e-05
0.000104438
0.000145595
9.5046e-05
0.000107582
0.000102117
0.0963223
0.000104497
0.0260451
0.000134975
9.42497e-05
0.000219593
9.86568e-05
0.0423596
0.000252746
0.000106821
0.0628105
0.000113097
9.1477e-05
0.000104435
0.000104138
0.000101317
0.000126435
0.00011459
0.000201746
0.000119396
9.02865e-05
0.000124941
0.000172595
0.000107124
0.000527711
0.000124305
0.000117571
0.000296317
0.000129672
0.000110078
0.000124241
0.0139448
0.000118443
0.000223254
0.000130509
0.000129671
0.000121338
0.000263358
0.000126994
0.00014631
0.000104503
0.000124321
0.00527953
0.0493486
0.000110195
0.0387154
0.000100331
0.000128132
0.000111183
0.000111212
0.000556887
0.00012352
0.000129143
0.0449998
0.00999685
0.000114415
0.000133728
0.00011007
0.00011833
0.000101461
0.000214918
0.000111396
0.000139544
0.000152055
0.000106295
0.0475891
0.000494147
0.00010637
0.0235622
0.000103615
0.000358369
0.0407235
0.000137872
0.000103498
0.00688115
9.59907e-05
0.000115807
0.0061519
0.0424314
0.000103946
9.95572e-05
0.000101474
0.000117935
0.00134784
0.000107195
0.000121927
0.0177129
9.49398e-05
9.97277e-05
0.0930117
0.000112111
0.0144438
9.65445e-05
9.71296e-05
0.000386445
9.95936e-05
0.000126671
9.79013e-05
9.93076e-05
0.00017039
0.00193377
0.000103986
0.000107727
0.000176903
0.0268229
0.0480754
0.000114627
0.0248126
0.000354191
0.0418918
0.0194851
0.0380306
0.000103352
9.67437e-05
0.000224589
0.000129871
0.000109535
0.00013056
9.03618e-05
0.0197881
0.000136186
0.000103782
0.000102526
0.0252379
0.0188533
0.0366332
0.000114597
0.0456176
0.000106199
0.000134334
9.98203e-05
0.011938
0.000306891
9.87356e-05
0.000116566
0.00010124
0.0229383
9.97977e-05
0.0197659
0.00568292
0.000227193
0.000104108
9.46006e-05
9.72312e-05
0.000113049
0.000130207
0.000109844
9.01044e-05
0.000109511
0.000110329
9.24291e-05
0.000356642
0.000124213
0.000104384
0.0241654
0.000105128
0.000129804
9.17506e-05
0.103303
0.000305936
0.000107042
0.00011406
9.26989e-05
0.00012294
0.000102711
0.0163711
9.68077e-05
0.00401388
0.000106925
0.0001091
0.000112711
0.000137424
0.000107606
0.0133719
0.000257657
0.000122952
0.000333485
0.0211248
0.000473237
9.32622e-05
0.0631751
0.000108864
0.047075
0.0113596
0.000137045
0.000103597
0.0503112
0.000148023
0.0404758
0.000104318
0.0587894
9.42133e-05
0.000130442
0.000205138
9.25451e-05
0.00731562
0.000109078
9.35132e-05
0.015934
0.000165866
0.000149482
0.000110291
0.000100028
0.0040656
0.000203054
0.000169045
0.0432801
0.000134803
0.0138076
0.000115721
9.74134e-05
9.8189e-05
0.00706724
0.0480431
0.000119404
0.000145874
0.000106361
0.000109086
0.000109144
9.61416e-05
0.000120149
0.0427446
0.000107344
0.000104521
0.000442269
9.37768e-05
0.000295469
0.000217606
0.0803444
0.00023568
0.000104041
0.000133386
0.000262804
0.000105591
9.10908e-05
9.58247e-05
9.4694e-05
0.000106386
0.000100426
0.000105345
0.000113731
0.000122448
0.000103863
9.83019e-05
0.000100146
0.000145038
0.000123087
9.40833e-05
0.000101434
0.00011379
0.00013453
0.000259833
0.0208485
0.000124338
0.0269668
0.0211905
0.0655198
0.0517733
0.015134
0.00013443
0.000219413
0.0382051
0.00012175
0.000143813
9.81629e-05
0.0182869
0.000165308
0.000121383
0.000102541
0.0214321
9.10564e-05
0.00046776
0.0184526
0.000584637
0.0491514
0.0116443
9.23886e-05
0.000112957
0.00011371
9.58757e-05
0.00010643
0.000124566
9.59471e-05
0.000119846
0.000212529
0.000102661
0.000124372
0.000106874
9.93189e-05
0.000148165
0.000109861
9.5694e-05
0.0131374
0.000102933
0.000102093
0.000129302
0.0850326
0.000104581
0.000104478
9.23692e-05
0.000105876
0.000136913
0.000104179
0.000233569
0.000100552
0.000105035
9.57955e-05
9.39949e-05
0.000121992
0.000214751
0.000118179
0.000142373
0.0248326
0.000411396
0.000131124
0.00014147
0.000114795
0.0258522
0.0155554
0.000109817
0.000114981
0.0003565
0.0149405
0.000140797
0.000521205
0.000136251
0.000187506
9.41745e-05
0.000108014
0.0220419
9.56182e-05
0.000108828
0.00191338
0.000147231
0.0329459
0.0535257
0.0140095
0.0236349
0.0171193
0.000103806
0.0749974
0.000112096
0.000120243
9.96662e-05
9.73652e-05
0.0611211
0.000130457
0.000121196
0.0241242
0.0109648
0.00957689
0.000366682
0.000121433
9.54137e-05
0.0202388
9.44681e-05
0.00237233
0.000102461
0.000104141
0.000104411
0.000101752
0.000106441
0.000121487
9.56957e-05
9.51923e-05
0.000104037
0.0483167
9.50589e-05
0.000100076
0.000374992
0.000106665
0.000119607
9.87146e-05
0.000272188
0.0319204
0.000107098
9.75742e-05
0.000134163
0.000409428
0.000285922
0.042045
0.000159621
0.000100811
0.000129362
0.000101568
0.000140569
0.0454539
0.000110324
0.000102749
0.000136938
0.000107194
0.000111326
0.000333973
9.42929e-05
0.000228211
0.034977
0.000338409
0.000176344
0.000116046
0.000140037
9.48761e-05
0.0406833
0.000280845
0.00280697
0.0536492
0.000120482
0.000125798
0.000118952
0.022617
0.0157423
0.000132584
0.0300485
9.98574e-05
9.53468e-05
0.0203207
9.11958e-05
0.000104326
0.00316795
0.000106046
0.00014415
0.000102396
0.0001317
0.000237405
0.00014741
0.000105562
0.000343149
0.000444193
0.000101558