/*--------------------------------*- C++ -*----------------------------------*\
| =========                 |                                                 |
| \\      /  F ield         | OpenFOAM: The Open Source CFD Toolbox           |
|  \\    /   O peration     | Version:  v2012                                 |
|   \\  /    A nd           | Website:  www.openfoam.com                      |
|    \\/     M anipulation  |                                                 |
\*---------------------------------------------------------------------------*/
FoamFile
{
    version     2.0;
    format      ascii;
    class       volScalarField;
    location    "50";
    object      nut;
}
// * * * * * * * * * * * * * * * * * * * * * * * * * * * * * * * * * * * * * //

dimensions      [0 2 -1 0 0 0 0];


internalField   nonuniform List<scalar> 
18618
(
0.000457046
0.00115496
0.000453454
0.000459886
0.000456832
0.000459164
0.00481242
0.00205056
0.00089796
0.000589726
0.000456721
0.000457386
0.000455867
0.000457152
0.000457404
0.000459256
0.000453069
0.000457092
0.000451297
0.00412102
0.000457301
0.0091231
0.000451746
0.000457408
0.00546552
0.000934936
0.000568862
0.00887934
0.000646314
0.000453475
0.000457102
0.000455564
0.000482395
0.000456814
0.000462548
0.00731682
0.000453852
0.00143019
0.00295113
0.000451821
0.00337678
0.00894164
0.00527311
0.000553401
0.000467408
0.000470602
0.00416489
0.000473398
0.000573897
0.00729503
0.00056564
0.000454982
0.000544143
0.000584734
0.00494289
0.00134092
0.000531249
0.000544576
0.00386606
0.00568048
0.00271347
0.00555749
0.000572236
0.00045858
0.00157811
0.000691379
0.00538517
0.000467614
0.000454309
0.00474468
0.000600294
0.000451334
0.00046597
0.00304152
0.000345329
0.00758187
0.00046496
0.00045881
0.000454319
0.000704962
0.000458968
0.000457036
0.000459515
0.000458425
0.00921104
0.0004541
0.00143336
0.00464374
0.0054836
0.00223796
0.000455052
0.00349378
0.00144032
0.000452776
0.00341263
0.00560293
0.000457149
0.000839153
0.000458254
0.00519144
0.00714762
0.00694522
0.000455548
0.00131747
0.000646182
0.000636515
0.00491977
0.000456446
0.00546618
0.00504107
0.00352044
0.000459294
0.0052322
0.000299975
0.00045993
0.000452104
0.00452818
0.000459554
0.000558086
0.000361405
0.000459863
0.000455625
0.000459975
0.000459011
0.000553398
0.000667115
0.000461813
0.00158347
0.00161492
0.000571769
0.00244593
0.00475405
0.00440764
0.000520719
0.000456319
0.000478464
0.000460606
0.00480716
0.00749553
0.000457672
0.00238848
0.00492762
0.000454279
0.000457403
0.000458668
0.000459832
0.000452206
0.000459729
0.000457947
0.00045761
0.00332854
0.000456862
0.000483508
0.000458511
0.000459262
0.00347649
0.00764613
0.000487062
0.000454617
0.00605339
0.000551585
0.000472591
0.00655439
0.00375168
0.000460956
0.000466069
0.000458396
0.00910828
0.000458822
0.000864752
0.000469123
0.000481048
0.000687311
0.00141964
0.00430398
0.000459806
0.00345753
0.000458548
0.000460869
0.000470229
0.00284381
0.000462287
0.0075289
0.000465781
0.000461938
0.000482097
0.00323457
0.0014136
0.00128501
0.000457188
0.00046017
0.000474502
0.00046583
0.000453218
0.000454066
0.00226846
0.000457684
0.000457134
0.00229174
0.000468455
0.000670679
0.00853008
0.00313989
0.00165059
0.00308472
0.000459446
0.0033534
0.00752429
0.00046409
0.000452279
0.00129348
0.00113703
0.000457843
0.000452251
0.000456637
0.000468116
0.0073871
0.0056465
0.000459761
0.000454486
0.000457569
0.00045931
0.00636219
0.000467251
0.00463434
0.000460798
0.000455509
0.000709521
0.00143904
0.000468448
0.000459206
0.000470489
0.000456669
0.00253574
0.000470571
0.000462785
0.000465319
0.000816213
0.00347723
0.000454665
0.00105069
0.000454749
0.000461597
0.00431828
0.000546217
0.000508267
0.00215033
0.000463158
0.00473906
0.000459639
0.000452821
0.00894029
0.000473319
0.00431437
0.000486626
0.000462178
0.000839057
0.000461269
0.000451411
0.000454568
0.000459661
0.00728362
0.00553793
0.000461331
0.00899357
0.00178257
0.00086052
0.000474261
0.000674552
0.000471746
0.000709562
0.000460825
0.000456467
0.000459776
0.000468784
0.000465346
0.000479948
0.000457495
0.000453523
0.00625039
0.000459832
0.00055088
0.000459413
0.000456856
0.00467859
0.000459815
0.000454742
0.000535573
0.00054771
0.000638855
0.000451963
0.000534492
0.00045989
0.000486425
0.00682561
0.00148197
0.00494322
0.00708832
0.00644016
0.000455214
0.00048162
0.00045834
0.000496552
0.000459249
0.000461056
0.000464245
0.000458113
0.00435646
0.000699655
0.00741765
0.00194773
0.000451195
0.00168043
0.000467674
0.000465782
0.000457915
0.000456887
0.000473481
0.000521161
0.00408671
0.000452174
0.00252772
0.000463432
0.00863219
0.000466472
0.00157951
0.00286621
0.00045784
0.000453389
0.0059687
0.000494409
0.00713054
0.000458028
0.000465603
0.000479923
0.000460583
0.00565502
0.000457806
0.000454681
0.00677547
0.000533169
0.000572638
0.00790686
0.00073025
0.000461228
0.000555738
0.000460681
0.000680062
0.000537717
0.000452035
0.000461722
0.000451584
0.00673782
0.000463557
0.000459601
0.00046235
0.000463534
0.00053685
0.00045887
0.000456294
0.000456229
0.00466648
0.00905001
0.000542956
0.00240775
0.00915622
0.000461583
0.000465842
0.000569997
0.000837848
0.00045496
0.000459957
0.000463732
0.000469239
0.000452291
0.000458638
0.000709788
0.000459938
0.000459748
0.00054213
0.000721455
0.000469346
0.000454812
0.000453129
0.000585966
0.000454563
0.000559598
0.00583906
0.000461455
0.000553054
0.000458669
0.000462182
0.00322802
0.00350932
0.00046189
0.000858366
0.00341731
0.00657079
0.000462809
0.00534209
0.000459967
0.000479868
0.000465483
0.00790102
0.000454804
0.00364012
0.000461054
0.000458726
0.000473827
0.000460018
0.000454621
0.00046922
0.000455055
0.000451562
0.000458174
0.000534985
0.000451646
0.000455344
0.000487288
0.000469735
0.000452293
0.00255672
0.000464562
0.000466533
0.000454709
0.00701295
0.00053814
0.000458744
0.00176074
0.00725762
0.000462552
0.000461184
0.00047046
0.000458724
0.000453993
0.000472014
0.000465064
0.000459779
0.00132344
0.000682403
0.000463652
0.00213828
0.000459398
0.000478114
0.00549416
0.000552548
0.000461833
0.00134686
0.000671682
0.000462256
0.00046613
0.00046828
0.000548075
0.000480105
0.000461499
0.00121001
0.000460116
0.000454575
0.000456726
0.00921689
0.00782505
0.000460035
0.000703754
0.000461897
0.000732532
0.000457249
0.000461358
0.00046935
0.00129137
0.000454633
0.00046011
0.000488571
0.000458243
0.00431977
0.000463473
0.000461874
0.00332937
0.000465203
0.00224478
0.000490745
0.000829199
0.000459649
0.00644995
0.000454255
0.00118808
0.000459901
0.000722484
0.000458278
0.000533465
0.000470648
0.00106692
0.0072445
0.000456614
0.000466017
0.00581745
0.00575876
0.00095034
0.00797619
0.000459562
0.00046665
0.000469342
0.00045607
0.00538614
0.000461925
0.000466416
0.000694434
0.000459243
0.000462704
0.00256101
0.00114752
0.00774827
0.000456001
0.00046514
0.000465738
0.000555834
0.000464768
0.000453517
0.00046617
0.000564526
0.0024593
0.000454581
0.000464643
0.00112562
0.000558645
0.000453263
0.000462546
0.00251227
0.000463185
0.000366595
0.000465274
0.00346246
0.00498699
0.000459304
0.000465965
0.000556056
0.000467737
0.00227584
0.000469419
0.000456081
0.000455329
0.000501692
0.000461851
0.000549343
0.000527843
0.000461972
0.000464328
0.00233242
0.00503469
0.000452053
0.000459633
0.000460557
0.000630592
0.00105309
0.000454053
0.00130585
0.000454716
0.000286033
0.000462052
0.000686899
0.000556985
0.00732919
0.000454698
0.00176654
0.000461842
0.000459082
0.000633107
0.00427519
0.00045732
0.00068682
0.000457994
0.00046287
0.00649858
0.000464348
0.00841085
0.00755766
0.00373387
0.0043818
0.000565503
0.00280838
0.000453594
0.000478262
0.000463291
0.000479996
0.000464662
0.000462901
0.000453545
0.000464042
0.000454448
0.00305522
0.000767434
0.000460422
0.000456402
0.000456482
0.000453877
0.000456807
0.000478261
0.00179412
0.00735079
0.00071469
0.000457645
0.000462764
0.0016279
0.000516191
0.000457529
0.000459503
0.000496969
0.000463089
0.00045308
0.000461116
0.000477272
0.00464208
0.003678
0.00569243
0.00417814
0.00983985
0.000455993
0.000465794
0.00750887
0.000459522
0.000461862
0.000453481
0.000454652
0.00363626
0.000566968
0.00046794
0.00102208
0.000454877
0.000459528
0.00106862
0.000463386
0.000461634
0.000459791
0.00584823
0.000452986
0.00138284
0.00147027
0.00235763
0.000457577
0.00545918
0.00056037
0.000455421
0.000457176
0.0062707
0.000828777
0.000454594
0.00139127
0.000553629
0.000458801
0.000456158
0.000459657
0.00164367
0.000462177
0.000454527
0.000561984
0.000453735
0.000461446
0.000460558
0.00308231
0.000457552
0.000459782
0.00368569
0.000803342
0.000464006
0.000456444
0.000533537
0.000456809
0.000481513
0.000463982
0.000787092
0.000462182
0.00245916
0.000469263
0.000465927
0.00045751
0.000457653
0.00139798
0.00925918
0.00118368
0.00772484
0.000500107
0.00349161
0.00048147
0.000549097
0.000464113
0.000464927
0.0069574
0.00215895
0.000464434
0.000465552
0.000461305
0.00272322
0.000453198
0.000460022
0.00045898
0.00104785
0.00191549
0.000459047
0.000461908
0.000461763
0.0067473
0.00247283
0.000461804
0.000472548
0.000724224
0.000453653
0.000454171
0.000479762
0.00563953
0.000464795
0.00045762
0.000451606
0.000459486
0.000463163
0.00611097
0.00231703
0.00280085
0.000469369
0.00146993
0.00045462
0.000460595
0.00048496
0.000451657
0.00555055
0.00622665
0.00571449
0.000521907
0.00675685
0.000452598
0.000459681
0.000516116
0.000601027
0.00174853
0.000461775
0.000480121
0.00742058
0.000454549
0.00652476
0.00182225
0.000453183
0.000460621
0.000474632
0.000465617
0.000460174
0.00570271
0.00646876
0.00476458
0.000679632
0.000714612
0.000541866
0.00204077
0.000455248
0.000507271
0.000462779
0.000457522
0.00144076
0.000451483
0.00966577
0.000456792
0.000459804
0.00466437
0.00129223
0.000455498
0.000467745
0.000486936
0.000458878
0.00108994
0.00605985
0.000454962
0.000499857
0.00571954
0.000463347
0.000465916
0.000496676
0.0004611
0.00046025
0.000456072
0.0027681
0.00131294
0.000457567
0.000462359
0.000461177
0.00504342
0.000451111
0.000460074
0.000372563
0.000456225
0.000453091
0.00263326
0.00240107
0.00194518
0.000461338
0.000454395
0.00054851
0.000458827
0.000466089
0.00636773
0.000531911
0.000868749
0.00467167
0.000465685
0.00045922
0.000471814
0.000455432
0.000469551
0.000533287
0.0004544
0.000604731
0.000483068
0.000457318
0.00164826
0.000961399
0.0004768
0.000548151
0.000528693
0.000461771
0.000460126
0.000453
0.000454505
0.000458407
0.000453687
0.000480207
0.000465918
0.000452893
0.00775187
0.000492811
0.00572683
0.00390266
0.000475104
0.000954819
0.000465236
0.000463494
0.000453434
0.00198407
0.00745818
0.000454444
0.00045752
0.00822616
0.00046152
0.000455867
0.000457068
0.00224258
0.000454617
0.00684065
0.000458874
0.000461214
0.00637611
0.000454065
0.000461571
0.000452018
0.000464273
0.00431824
0.00474985
0.00662839
0.000460951
0.00400154
0.00525531
0.00910265
0.0021484
0.000475953
0.00259194
0.000460497
0.000470508
0.000461694
0.000560825
0.00199802
0.000458881
0.000461155
0.000461483
0.000641592
0.000461143
0.000454654
0.0081646
0.000457759
0.000456129
0.00474546
0.000457916
0.000519311
0.00904167
0.000457902
0.000458547
0.000458731
0.000455411
0.000507605
0.000471513
0.000465084
0.0026923
0.00804289
0.000712589
0.000455227
0.00210798
0.0056466
0.00047633
0.000456791
0.000451845
0.00153386
0.000460621
0.000460277
0.000455395
0.000452848
0.000460087
0.000469262
0.000466104
0.000700673
0.000461619
0.000456535
0.000716126
0.000893134
0.000457386
0.000456241
0.000463821
0.000457192
0.00046096
0.000457486
0.000453325
0.000454781
0.00798911
0.000530378
0.00142295
0.000466389
0.000453572
0.000464678
0.000454661
0.000476987
0.000464435
0.00817411
0.000329551
0.00643752
0.00046249
0.000457121
0.00128503
0.000575045
0.00057476
0.000458015
0.00045692
0.000457877
0.000460453
0.0015711
0.00558588
0.000459434
0.000460979
0.0064843
0.00320469
0.000541493
0.000636553
0.00854321
0.0042342
0.000462656
0.000467532
0.000520441
0.000514612
0.000855464
0.000454332
0.000455234
0.00181293
0.000498577
0.000453931
0.000463504
0.000453698
0.000463524
0.000457957
0.00906144
0.000477591
0.000453712
0.000458346
0.000459973
0.000460483
0.000453111
0.00647102
0.00249899
0.000455576
0.000454531
0.00257437
0.00045896
0.000452571
0.000455998
0.000455399
0.00195844
0.000453612
0.00046715
0.000458243
0.00646925
0.000459625
0.000457802
0.00907145
0.000470918
0.00146574
0.000454504
0.00179005
0.000466165
0.000461859
0.00776147
0.00045625
0.00658579
0.000460276
0.00228023
0.00720397
0.00050304
0.000713384
0.00735132
0.000642272
0.00385034
0.00046644
0.000462562
0.000460128
0.000517659
0.000462339
0.000561604
0.000455577
0.00922512
0.000559793
0.000459994
0.000454186
0.000461028
0.000466113
0.000468189
0.000456093
0.000463772
0.000455102
0.000461102
0.000454776
0.000460878
0.00235113
0.000455201
0.00055222
0.000455206
0.00085644
0.000454906
0.00810273
0.000907648
0.0070998
0.00053975
0.000454849
0.00240032
0.00912459
0.00047477
0.00495283
0.000462077
0.00331055
0.000738121
0.000455457
0.000541006
0.000454696
0.00845621
0.000474436
0.000454039
0.000463382
0.000513048
0.000457315
0.000852839
0.000465324
0.000709082
0.000454646
0.000465519
0.00476128
0.000459236
0.000458164
0.00285883
0.000489616
0.000459032
0.00759772
0.000476527
0.000459966
0.000721359
0.000458002
0.000451187
0.000599471
0.000458109
0.000455357
0.000473981
0.000462892
0.0005436
0.00919504
0.000463441
0.00266067
0.000453474
0.000465691
0.00045822
0.000455252
0.000455187
0.00120242
0.00352973
0.000470916
0.000465295
0.00179055
0.00336174
0.00913119
0.000456175
0.000463632
0.000465903
0.000452863
0.00046771
0.000455749
0.000454984
0.000459479
0.000453055
0.000460012
0.000454206
0.00046564
0.000465573
0.000460206
0.000455491
0.000605121
0.00610009
0.000702908
0.00907788
0.000504614
0.000539237
0.000465407
0.00861394
0.0016307
0.000479768
0.000463946
0.000557516
0.00868848
0.0031264
0.000462052
0.000483517
0.00394261
0.00636751
0.00146847
0.0004577
0.00108289
0.000475659
0.000462677
0.000461114
0.000531123
0.000460887
0.000477437
0.00045518
0.000477134
0.00307494
0.00174386
0.000458985
0.000452762
0.000466292
0.00046033
0.00109742
0.000455957
0.000562627
0.000455583
0.000457664
0.000457975
0.000456224
0.000458698
0.0013828
0.000466475
0.000595431
0.000459326
0.000461093
0.000508122
0.000568431
0.00511257
0.000467278
0.000459144
0.00620258
0.000458964
0.000459484
0.000456221
0.000466673
0.00892981
0.000452862
0.000560765
0.000995382
0.000455252
0.000562296
0.00690568
0.000461438
0.000464734
0.00047757
0.000453985
0.000565046
0.000451804
0.00536626
0.000506895
0.00046232
0.000456642
0.000729358
0.000464343
0.00511783
0.00993881
0.000455528
0.000636214
0.00553309
0.000554708
0.00568163
0.000464117
0.000495928
0.000545863
0.00367324
0.000461264
0.000458368
0.000457414
0.000454912
0.000454967
0.00473664
0.00165318
0.000460581
0.00169447
0.000469575
0.000457708
0.000459092
0.000470835
0.000451988
0.000457707
0.000467531
0.000464469
0.00590305
0.00560014
0.000455688
0.000455974
0.000454541
0.0057256
0.000631217
0.000458767
0.000565587
0.00641264
0.000478785
0.000458771
0.000461197
0.00122841
0.000459032
0.000461627
0.000459782
0.000465369
0.000457584
0.000462529
0.000457644
0.000461209
0.000460569
0.000454279
0.000530069
0.000475663
0.000577004
0.00056042
0.000457209
0.00770583
0.000452928
0.000464369
0.00708898
0.00790135
0.000478197
0.000453448
0.000458981
0.000459898
0.000458202
0.000453218
0.00856036
0.00804255
0.000456013
0.000457149
0.000482002
0.000461994
0.00641487
0.00144715
0.000458885
0.000469536
0.000478703
0.00673826
0.000459057
0.00398491
0.000699685
0.00265914
0.000474675
0.00117955
0.000483103
0.000452587
0.000466273
0.000454783
0.00183268
0.0075907
0.000461334
0.00046048
0.00045111
0.000929444
0.000942269
0.000461412
0.000457141
0.000451876
0.000463698
0.000478145
0.000751645
0.000460133
0.00207542
0.000461516
0.00367647
0.00045773
0.000479985
0.000456843
0.00045611
0.00472551
0.00468602
0.000503872
0.000457476
0.000454043
0.000457354
0.000583093
0.000461824
0.000456075
0.000464707
0.000452817
0.000457577
0.000456715
0.000465141
0.000743473
0.000480378
0.000456733
0.000565103
0.000763284
0.000461821
0.000463649
0.000468401
0.000456267
0.000454749
0.000463994
0.000461709
0.000454269
0.000471851
0.00635335
0.000496705
0.00045934
0.00130292
0.000541565
0.000478226
0.000451836
0.00045399
0.00402697
0.000479752
0.000454886
0.00110467
0.000468079
0.00093068
0.000459294
0.000459077
0.000589922
0.000459429
0.00119639
0.000550539
0.00102448
0.00395911
0.00376308
0.000819458
0.000483613
0.000460185
0.000462676
0.00077037
0.000468502
0.000459526
0.000464161
0.00253917
0.000456567
0.00635274
0.000479319
0.00706141
0.000463636
0.000547191
0.000461208
0.000456531
0.000451297
0.000479359
0.000459139
0.000455293
0.000468851
0.00115007
0.00433768
0.00102746
0.00742298
0.000881599
0.000454362
0.000509052
0.00045607
0.000453367
0.002156
0.000461168
0.000679947
0.000656899
0.00852908
0.00636122
0.000663339
0.000628184
0.00647038
0.00807904
0.00415273
0.000457982
0.000465615
0.000453405
0.000468446
0.00827646
0.00428874
0.000464294
0.00099851
0.000459454
0.000461725
0.000462102
0.000551811
0.00158145
0.000459661
0.00213938
0.00803909
0.000465193
0.00482272
0.000454191
0.00720988
0.00162677
0.000454129
0.000457666
0.000618708
0.000458251
0.0004603
0.000457573
0.000463929
0.000453187
0.000455398
0.000452473
0.00166047
0.000457707
0.00784434
0.000560802
0.000468305
0.000547853
0.000679562
0.000640346
0.000460361
0.000454709
0.000469817
0.000489491
0.00055867
0.000463011
0.000456274
0.00275188
0.000850482
0.000455347
0.000463322
0.000453858
0.000452942
0.000457473
0.000461856
0.000451303
0.000459143
0.00126252
0.000670614
0.00424099
0.000452049
0.00473879
0.000458944
0.000457663
0.000457886
0.000507485
0.000468766
0.000462045
0.000454101
0.000460005
0.000510868
0.00583157
0.000542338
0.0074422
0.00249448
0.00045692
0.000467946
0.00794761
0.00045375
0.000674588
0.00129128
0.00786069
0.000460595
0.00696163
0.00707205
0.000457941
0.0078721
0.00408388
0.000457558
0.000542063
0.00095385
0.000477376
0.000893069
0.000463453
0.0042571
0.000457475
0.000477208
0.000667951
0.000457977
0.000466064
0.000476173
0.000927172
0.0060563
0.000463288
0.00275451
0.00046646
0.00349903
0.00358488
0.00843545
0.000453237
0.000477179
0.000464595
0.00685978
0.000454615
0.000457493
0.0037734
0.00241049
0.00050541
0.000465608
0.000703866
0.000453149
0.000463672
0.00203687
0.000462663
0.00158789
0.00518683
0.000454753
0.00364969
0.000461613
0.000461211
0.000453844
0.000674248
0.000734183
0.00514103
0.000569523
0.000501543
0.000455942
0.00100545
0.000566648
0.000468925
0.00103447
0.000459947
0.00663206
0.00056719
0.000981906
0.000465166
0.00140969
0.000709618
0.00519824
0.0023901
0.000504735
0.00703853
0.000459962
0.000458081
0.000456022
0.000454612
0.000460785
0.000461302
0.000459287
0.000659525
0.000457897
0.00046548
0.000540256
0.00366011
0.000786675
0.000472057
0.000459655
0.00912063
0.000461626
0.00062869
0.000454658
0.000558063
0.00663701
0.000455549
0.000464312
0.000880297
0.000454187
0.000630319
0.00908589
0.00663565
0.00047855
0.00204759
0.000461801
0.000474505
0.000472389
0.000471556
0.00101857
0.000461117
0.000457535
0.000534006
0.00604545
0.000481383
0.000518851
0.000466229
0.000455454
0.0077846
0.000454951
0.00045725
0.000462156
0.000461971
0.00761534
0.000556005
0.000553354
0.000383652
0.000457932
0.00672182
0.000454704
0.000455789
0.000503914
0.00119356
0.00865711
0.000461906
0.000458028
0.000458944
0.000543842
0.000453008
0.000461768
0.00271819
0.00885936
0.00693201
0.00233878
0.000978489
0.000454493
0.00858743
0.000462095
0.00148296
0.000452614
0.000459248
0.000454797
0.000458869
0.000465814
0.000451254
0.000653369
0.000536049
0.00697469
0.000452951
0.000490492
0.000596793
0.000459037
0.000628546
0.00386612
0.000459632
0.000455518
0.000465717
0.000474502
0.000457509
0.000455401
0.000465181
0.000452102
0.0032261
0.00495189
0.000453138
0.000461361
0.000458886
0.000459234
0.000468393
0.00045819
0.00051797
0.000459046
0.000555548
0.000463739
0.000460558
0.00673716
0.000453237
0.000466565
0.000457549
0.00173162
0.00592745
0.000464833
0.00046497
0.000457398
0.00046363
0.0018151
0.00610043
0.000361678
0.00515278
0.000454654
0.00060101
0.00046142
0.000460386
0.000747254
0.000460119
0.000456445
0.00680148
0.00046171
0.000463652
0.00894442
0.00688742
0.000570829
0.000461328
0.000460976
0.000463811
0.000455719
0.00437369
0.000454224
0.000458215
0.00065332
0.000454786
0.000468917
0.00394181
0.000488085
0.00791287
0.0062406
0.00272057
0.00052224
0.000464641
0.000465501
0.000459567
0.00402993
0.000624389
0.006112
0.000468158
0.000465816
0.00827799
0.000469045
0.000476452
0.000624392
0.000469048
0.000468992
0.00336579
0.00697937
0.000753431
0.000451926
0.00559786
0.000749571
0.000470716
0.000454172
0.000459036
0.00170786
0.00047353
0.000460935
0.000458604
0.000465808
0.000566894
0.000453105
0.000454918
0.00191729
0.000457813
0.000452878
0.000469381
0.00496552
0.00496401
0.00947
0.00708444
0.000458573
0.00167371
0.0034922
0.000456551
0.000458419
0.000458478
0.000459252
0.000520939
0.00046354
0.000453431
0.000455398
0.000462228
0.000461868
0.000454681
0.000479508
0.000455741
0.000457895
0.00046893
0.00768701
0.000464549
0.000808223
0.000456634
0.000456275
0.000458558
0.000548094
0.00683445
0.000599421
0.00045896
0.0065497
0.000454038
0.000463161
0.000458304
0.000461102
0.000683754
0.000454509
0.00045566
0.000460161
0.00146565
0.00130559
0.00358734
0.000468506
0.000932508
0.00662198
0.000464694
0.000470711
0.000459108
0.000460689
0.00046907
0.00456493
0.00726131
0.00655502
0.00114942
0.000455576
0.000712888
0.000456649
0.000557011
0.000454109
0.000459259
0.000455044
0.000467396
0.00924855
0.000716708
0.0070346
0.00145221
0.0010121
0.000462012
0.00265795
0.000461912
0.00628434
0.000464692
0.000776852
0.00923513
0.00112837
0.000460684
0.003255
0.000463741
0.000931277
0.000461658
0.00045906
0.000459449
0.000461933
0.000469319
0.000462303
0.00046725
0.000455515
0.000461917
0.000474681
0.000463346
0.000460978
0.000481648
0.000546089
0.00391819
0.000472035
0.000468566
0.000819139
0.000518835
0.00314709
0.0004521
0.00770199
0.00190571
0.000711418
0.00649541
0.000460283
0.000460213
0.000451539
0.000476158
0.00493732
0.000454232
0.000459492
0.000465814
0.00653549
0.00735401
0.00183653
0.00046382
0.000730556
0.000461986
0.00056655
0.00252862
0.000979505
0.000459427
0.000464204
0.000550309
0.000468979
0.000764733
0.000459236
0.000500751
0.000450965
0.000460656
0.000451963
0.00793893
0.000456457
0.00279838
0.00234246
0.000459004
0.0018426
0.000621895
0.00143213
0.000457161
0.000461967
0.000452273
0.00130645
0.000454273
0.000465296
0.00922452
0.00694095
0.000469453
0.000669875
0.000495836
0.000627159
0.00800045
0.000578667
0.000459967
0.000466286
0.000464103
0.000455361
0.00046017
0.000459551
0.000468898
0.000596404
0.00130981
0.00130715
0.000936327
0.00501913
0.000459329
0.000831725
0.00046455
0.000470617
0.000457967
0.000461749
0.000460092
0.00048131
0.00767362
0.000478638
0.000463726
0.000473678
0.000451572
0.000487633
0.000456439
0.000466548
0.000464512
0.00512283
0.000458284
0.000461507
0.00047331
0.000830653
0.00111837
0.000461951
0.000461974
0.00658435
0.000499312
0.000453455
0.00852574
0.000458868
0.000454045
0.00600447
0.00045956
0.0076325
0.00112335
0.000465205
0.00406392
0.0004644
0.000886159
0.000455442
0.000503738
0.000453703
0.000474137
0.000545673
0.000466471
0.00540002
0.00597658
0.000714489
0.000460721
0.000494532
0.000459226
0.000834113
0.000453436
0.000455978
0.000458891
0.00880439
0.000463966
0.000456558
0.000460249
0.000459482
0.00101602
0.000461372
0.000616245
0.000498118
0.000458965
0.000456635
0.00570311
0.00408662
0.000454469
0.000916871
0.000460221
0.000453712
0.00237562
0.000451294
0.00706737
0.0014298
0.000462883
0.000451823
0.000453363
0.000469768
0.00614826
0.00615938
0.000542898
0.00527229
0.000467759
0.000462965
0.00117218
0.000528322
0.000463806
0.000568319
0.000474089
0.00060237
0.00783768
0.000627662
0.000462013
0.000459057
0.000457964
0.000533088
0.000536362
0.00539951
0.00114912
0.000718135
0.000459007
0.000453847
0.00659198
0.000457405
0.00665328
0.00201769
0.00193356
0.000865112
0.000660215
0.00045517
0.000461974
0.00105743
0.000458106
0.00046169
0.00132243
0.000993799
0.000467345
0.00612293
0.000597822
0.000452651
0.000462463
0.000553391
0.00561498
0.000453917
0.000453328
0.00213676
0.00821816
0.000456378
0.00711523
0.00223754
0.00570472
0.00328069
0.000460859
0.000464019
0.00869717
0.000521597
0.000459028
0.000550176
0.00319312
0.000463919
0.000458283
0.000455871
0.000459023
0.000454887
0.00312961
0.000456007
0.00721972
0.000465692
0.00167184
0.000469712
0.00288177
0.000458989
0.000461101
0.000455133
0.000555291
0.0075222
0.0028566
0.000456499
0.00575153
0.000454083
0.000564284
0.000452788
0.000464068
0.00387445
0.000845666
0.00857089
0.00750175
0.000453326
0.000543901
0.000463259
0.000462388
0.00704547
0.000466995
0.000459671
0.00045946
0.000463652
0.000465818
0.000475133
0.000458112
0.00867952
0.00710115
0.00045214
0.000458343
0.00118434
0.00658968
0.00610902
0.000466865
0.000458828
0.0079832
0.0025575
0.000474995
0.000505066
0.000458204
0.00243394
0.000457283
0.00143657
0.000457023
0.000478218
0.000462866
0.000457267
0.000538128
0.000467198
0.000474151
0.00720435
0.000464899
0.00791576
0.000465519
0.000715597
0.00613924
0.000457377
0.000462309
0.000454943
0.000604848
0.000457832
0.000454393
0.000456906
0.0070386
0.00741389
0.00055027
0.000464038
0.000454251
0.000464242
0.00070274
0.000451111
0.00046155
0.000468537
0.000453257
0.000465791
0.000464229
0.00851169
0.000479906
0.00487574
0.00055847
0.000453607
0.000720807
0.00045484
0.00775482
0.0008104
0.000457505
0.00605962
0.000484344
0.00045288
0.000457102
0.000456459
0.000455153
0.000463456
0.000459765
0.000713541
0.000460892
0.000450985
0.000462834
0.000642339
0.000462032
0.00124861
0.000460192
0.000503359
0.000876423
0.000545631
0.000485689
0.000462687
0.00211609
0.000460665
0.000754547
0.000536158
0.000538379
0.000461626
0.000825266
0.000463406
0.000468495
0.000456705
0.000539579
0.00318582
0.00703303
0.000477169
0.00824654
0.000454962
0.000463502
0.000458567
0.000493134
0.00127835
0.000514436
0.000524973
0.00773414
0.00476892
0.000506529
0.000465153
0.000457952
0.000461184
0.000455147
0.00071913
0.000458612
0.000467026
0.0005797
0.000476015
0.00769545
0.00119076
0.000466417
0.00658895
0.000459901
0.00101821
0.00838809
0.000548591
0.000461635
0.0031725
0.000453272
0.000460038
0.00309587
0.00376433
0.000456035
0.000457366
0.000478872
0.000460935
0.00166435
0.000457627
0.0005321
0.00625814
0.000463679
0.000454704
0.00770202
0.000510919
0.00575152
0.000453405
0.000453608
0.00109751
0.000459433
0.000463384
0.000453922
0.000454431
0.00063023
0.00187646
0.000458151
0.000457569
0.000670402
0.00740332
0.00849826
0.000488599
0.0054065
0.000978393
0.00740684
0.00381404
0.00765254
0.000455821
0.00045355
0.00076111
0.000464195
0.000502212
0.000540814
0.000451713
0.00541972
0.000560522
0.000455983
0.000458212
0.00342889
0.00630054
0.0070031
0.000459732
0.00738315
0.000464479
0.000538339
0.000468427
0.00457244
0.000902983
0.000454211
0.00046031
0.000462523
0.00711574
0.000469813
0.00495886
0.00367079
0.000763353
0.000460879
0.000453387
0.000454579
0.000459414
0.00046442
0.000478145
0.000450968
0.000471981
0.000458519
0.000456692
0.000966706
0.000463592
0.000456222
0.00536537
0.000456482
0.000539423
0.000453541
0.00827935
0.000889867
0.000492192
0.000506668
0.000452142
0.000532164
0.000455634
0.00234255
0.000457642
0.00250906
0.000459234
0.000471249
0.000458875
0.000466251
0.00045764
0.00491584
0.000816033
0.000462038
0.000971061
0.00380855
0.00116174
0.000455038
0.00920701
0.000457995
0.0080979
0.00452939
0.000466185
0.000458688
0.00875721
0.00046906
0.00793258
0.000460875
0.00717671
0.000457653
0.000464223
0.000720029
0.000452081
0.00382161
0.000470354
0.000452174
0.00557504
0.000629041
0.000469413
0.000458323
0.000456224
0.00258096
0.000711085
0.000624647
0.00826791
0.000465619
0.0051213
0.00045962
0.000455329
0.000460343
0.0034326
0.00645568
0.000460963
0.000597951
0.000457054
0.000470597
0.000458279
0.000453233
0.000461294
0.00848469
0.000472363
0.000456941
0.00106588
0.000452725
0.000861532
0.000724007
0.00778305
0.00077196
0.000458
0.000549656
0.000813025
0.000481219
0.000451386
0.000453344
0.000452953
0.000478559
0.000468462
0.000479455
0.000516507
0.000461916
0.000459384
0.00045414
0.00045483
0.000578879
0.000461962
0.000452538
0.000456602
0.000459383
0.000544566
0.000783102
0.00667678
0.000462207
0.0051817
0.00516062
0.00817411
0.0064885
0.00464972
0.000551337
0.000727192
0.00787922
0.000461664
0.000567965
0.000456219
0.00477064
0.000638259
0.000461706
0.000456033
0.00349813
0.000451424
0.00110501
0.00581328
0.00130709
0.00839166
0.00474524
0.000452396
0.000498801
0.000499606
0.000454978
0.000460979
0.000462792
0.000468248
0.000461223
0.000701946
0.000456172
0.000462651
0.000477982
0.000454279
0.00060268
0.000458308
0.000467162
0.00579374
0.000476399
0.000469261
0.00046403
0.0082562
0.000461905
0.000456804
0.000451793
0.00046265
0.000466222
0.00045648
0.000776698
0.000454925
0.000473039
0.000453973
0.000453664
0.000527482
0.000703008
0.000460769
0.000467723
0.00338487
0.0010292
0.000464592
0.000467336
0.000459725
0.00668425
0.00301659
0.000458283
0.000459726
0.000938369
0.00173637
0.000467099
0.00117775
0.000569633
0.000670048
0.000455289
0.000467906
0.00690985
0.000453065
0.000457621
0.00185134
0.000578853
0.00731895
0.00870049
0.00205437
0.00718238
0.00486076
0.000456174
0.00920529
0.000458969
0.000461408
0.000459928
0.000455539
0.00891804
0.000464252
0.000509067
0.00217908
0.00403313
0.00384634
0.000978543
0.000461632
0.000453159
0.00655779
0.000452652
0.00207891
0.000462563
0.000456931
0.000457026
0.000455956
0.000461183
0.000461722
0.000453222
0.000455797
0.000456797
0.0087316
0.000452729
0.000468498
0.000972457
0.000479265
0.000461192
0.000455488
0.000805726
0.00709221
0.000457963
0.000455962
0.000545474
0.00102435
0.000902975
0.00846326
0.000595661
0.000454823
0.000464004
0.000478029
0.000467247
0.0070405
0.000483983