/*--------------------------------*- C++ -*----------------------------------*\
| =========                 |                                                 |
| \\      /  F ield         | OpenFOAM: The Open Source CFD Toolbox           |
|  \\    /   O peration     | Version:  v2012                                 |
|   \\  /    A nd           | Website:  www.openfoam.com                      |
|    \\/     M anipulation  |                                                 |
\*---------------------------------------------------------------------------*/
FoamFile
{
    version     2.0;
    format      ascii;
    class       volScalarField;
    location    "50";
    object      p;
}
// * * * * * * * * * * * * * * * * * * * * * * * * * * * * * * * * * * * * * //

dimensions      [0 2 -2 0 0 0 0];


internalField   nonuniform List<scalar> 
18618
(
0.0258303
-0.0725556
-0.00470669
0.0434849
0.0216456
0.0671188
-0.136597
-0.0711039
-0.072437
-0.0864147
0.0210719
0.0301412
0.00822964
0.0282802
0.0174933
0.0685386
-0.00772211
0.026308
-0.00227771
-0.0763322
0.0170944
-0.105568
0.00219057
0.0296852
-0.194262
-0.0725474
-0.0592524
-0.265972
0.0537975
-0.00418287
0.0310969
0.00975156
-0.0703583
0.0137608
0.0999515
-0.0870973
0.00343055
-0.10104
-0.0747599
0.00241652
-0.0892479
-0.0896159
-0.09212
-0.0940577
-0.038005
0.121514
-0.0770489
0.0353962
-0.0637993
-0.0939343
-0.0571717
-0.00131811
-0.0246729
0.0663011
-0.072846
-0.0999546
0.0119971
-0.0773961
-0.0858722
-0.11067
-0.069067
-0.110983
-0.062938
0.0151505
-0.0961882
-0.0719623
-0.108993
-0.0407652
0.0083413
-0.0887535
-0.0711918
-0.00193583
0.0272162
-0.0742527
-0.0761485
-0.0829173
0.0282402
0.0310849
0.00729115
-0.0730241
-0.0293707
0.0135718
0.0472472
0.0427626
-0.108874
0.00321893
-0.089629
-0.0869652
-0.106437
-0.17715
0.00917169
-0.0699389
-0.0829582
0.00387869
-0.0698925
-0.109007
0.031718
-0.0756896
0.0140195
-0.0821787
-0.093919
-0.174178
0.00994226
-0.0824913
0.0453774
-0.0671289
-0.183952
0.0118283
-0.11264
-0.109917
-0.0781787
-0.0414572
-0.0775142
-0.118457
0.0341368
0.002714
-0.134347
0.0440817
-0.0270904
-0.0788166
0.0866873
-0.00528237
-0.0325659
0.0585079
-0.0626259
-0.0685004
-0.0172287
-0.095904
-0.111628
-0.0815042
-0.099168
-0.0997609
-0.0766793
0.0128948
0.0127662
-0.0551345
0.0227371
-0.0781767
-0.217315
0.0268707
-0.0711046
-0.113806
0.00751518
0.0132617
-0.0403398
0.0338188
0.0044888
0.0465638
0.0140534
0.0416385
-0.072013
0.022426
-0.0718631
0.0611954
-0.0314543
-0.0711537
-0.0803133
-0.0345368
-0.00194845
-0.368261
-0.0621993
0.0303595
-0.137284
-0.0725516
0.0360275
0.0492798
0.0440123
-0.0845739
0.0374087
-0.0762594
0.0261231
-0.0694693
-0.0713354
-0.119498
-0.0919658
0.0435046
-0.0859611
0.0617425
0.01743
-0.0398066
-0.0731116
0.0983845
-0.306671
0.0270554
0.0184783
0.0582249
-0.0735755
0.108575
-0.0882967
0.0276072
0.0229457
0.0976579
0.0508883
-0.00774551
0.00731709
-0.0985317
0.0269917
0.0320078
-0.0826664
-0.0393716
-0.0687872
-0.0744708
-0.0755901
-0.0783404
-0.0678502
0.0526659
-0.0708342
-0.174446
0.0197791
0.00221441
-0.0973091
-0.094405
0.00774977
0.00465297
0.0251379
0.0252721
-0.08797
-0.196628
0.0845246
-0.0100224
0.0406293
-0.0306591
-0.0733417
0.0256037
-0.08405
0.0365033
-0.00458395
-0.0762233
-0.108557
-0.0420089
0.0458724
-0.042474
0.0117207
-0.0706475
-0.0395324
0.0197657
0.0277892
-0.0777397
-0.0761195
-0.0258364
-0.072256
-0.00145597
0.0251705
-0.0809232
-0.0784105
-0.0826016
-0.0990708
0.0196561
-0.0801267
0.0452259
0.00412067
-0.0937744
0.032417
-0.0999249
-0.0584888
-0.0175635
-0.0748645
0.0253998
0.00235927
-0.0102081
0.0338924
-0.0884249
-0.200602
0.0950203
-0.0999369
-0.0994979
-0.0734961
0.0379776
-0.0697003
0.112136
-0.0754923
0.0229062
-0.00177567
0.0335151
0.0261297
0.0891736
-0.0483474
0.0389125
-0.0124766
-0.0746842
0.0185748
-0.074494
0.0389492
0.0228966
-0.0757793
0.0450447
0.00652494
0.0755787
-0.0625777
-0.0717742
-0.00627607
-0.0657892
0.0417247
-0.0733541
-0.278782
-0.124535
-0.0704564
-0.0947222
-0.136175
0.00900131
0.0547805
0.0149469
-0.04501
0.053462
0.0214273
0.0197247
0.0343534
-0.0983133
-0.072464
-0.0809513
-0.074327
0.00217226
0.096624
0.0255589
0.027415
0.0276437
0.0221253
-0.0625858
-0.0751859
-0.100672
0.00457197
-0.0726359
0.0246415
-0.0758449
0.0268317
-0.0969584
-0.0731808
0.0282285
-0.0219448
-0.323971
-0.018589
-0.295197
0.034011
0.0275747
-0.0556707
0.0229108
-0.112805
0.0090925
-0.0249281
-0.0834299
-0.0665814
-0.0628567
-0.210274
-0.0821565
0.0215283
-0.0620028
0.00469226
-0.0705039
-0.0665784
0.00245642
0.0327928
-0.00758121
-0.0952324
0.0227746
0.0334022
0.0183984
0.0244733
-0.0667703
0.0597357
-0.00187412
0.0119122
-0.075169
-0.0869081
-0.0794674
-0.0921813
-0.0983957
0.0254922
0.0272381
-0.0851666
-0.0776675
0.00896218
0.0412075
0.111004
-0.0371905
0.00469487
0.0307667
-0.0765231
0.0850875
0.0185569
-0.0927378
-0.0800817
0.0245689
0.00708268
-0.0211614
0.0737171
0.00849316
-0.0596241
-0.339515
0.0251163
-0.0742458
0.0632436
0.0265361
-0.0723907
-0.0788893
0.0328349
0.138573
-0.0680556
-0.0927464
0.0193862
-0.0984388
0.041451
-0.0676343
-0.0497666
-0.0735072
0.00906763
-0.0731748
0.0227289
0.0433692
-0.0626451
0.0341619
-0.00628838
0.024493
0.00937706
-0.00730571
0.0433547
-0.0734328
0.00278861
-0.02902
-0.0361834
-0.0383831
0.00250939
-0.0686177
-0.0479756
-0.0377214
0.00839029
-0.260418
-0.07343
-0.0398945
-0.113666
-0.0939913
0.0262904
0.0253367
0.118164
0.0156291
0.00482696
0.112933
0.0280115
0.0467192
-0.0805313
-0.0683047
0.0817742
-0.114024
0.0442717
-0.0205546
-0.0764035
-0.0629336
0.0603447
-0.130467
-0.0684945
0.0203682
0.0542136
0.0253945
-0.0931333
0.0319721
0.0206158
-0.0861672
0.0339157
-0.0026292
0.0199369
-0.090816
-0.0741735
-0.0395879
0.218117
0.0202588
-0.0824817
0.0305536
0.020329
0.0242512
-0.0789698
0.00824083
-0.0396
-0.0349891
-0.038734
-0.0718468
-0.0443513
0.00434209
-0.0693846
-0.0507917
-0.0742783
-0.0156946
0.133118
0.0826431
-0.0827193
-0.0281994
0.0272522
0.0459365
-0.0802094
-0.0222154
0.00740069
-0.0439134
-0.0736682
-0.268799
0.0239876
0.0273456
-0.118982
-0.081837
-0.0723753
-0.146956
0.081045
0.0268222
0.0261665
0.0134902
-0.112277
0.0202116
-0.0511362
-0.0715863
0.0496765
0.0624676
-0.0747633
-0.0140818
-0.089143
0.0113041
-0.0514843
-0.050848
-0.0625158
0.0245292
-0.0242565
0.0271943
-0.0379719
-0.0913372
-0.0065626
0.0243784
-0.0942575
-0.0619008
-0.0086281
0.0194895
-0.104586
0.0309196
-0.0830794
0.0215647
-0.0879917
-0.151348
0.0502758
0.0560911
-0.0736806
0.0247351
-0.0673729
0.0261582
0.0119403
0.0095628
-0.0662512
0.0979788
-0.0938913
0.0716072
0.0280086
0.0243205
-0.0735621
-0.101903
0.00167199
0.0388094
0.023485
-0.0731907
0.00102204
0.00305504
-0.105477
0.007179
-0.110647
0.0204967
-0.0661872
-0.0732376
-0.2309
-0.0243232
-0.126033
0.0648331
0.0276434
-0.0951555
-0.0733893
0.0244819
-0.0706578
0.0332534
0.0190362
-0.0753074
0.0291446
-0.0722267
-0.137554
-0.0928102
-0.101686
-0.0553879
-0.0738963
0.00234544
-0.0237794
0.0826027
-0.0475159
0.0242841
0.0317928
0.00234675
0.0233548
0.00793066
-0.176954
0.205866
0.0187098
0.0118274
0.0253787
0.00284511
0.0208173
-0.0251633
-0.115289
-0.0869548
-0.0791042
0.0146666
0.0262422
-0.0985944
0.0175877
0.039282
0.0337835
-0.019396
0.0191893
-0.020685
0.0173659
0.0332026
-0.132543
-0.0726758
-0.0927093
-0.129284
-0.174251
0.0098743
-0.0514663
-0.0830326
0.038523
0.0655887
-0.0237312
0.00783092
-0.0753122
-0.0576967
0.0247097
-0.0748917
0.00102408
0.0373805
-0.0847568
0.0306721
0.056517
0.0296945
-0.145406
-0.0199151
0.0193958
-0.0815628
-0.0762345
0.00488023
-0.150697
-0.0804888
0.0067686
0.0233491
-0.11999
0.117882
0.00810479
-0.0963819
0.166362
0.0581615
-0.00325501
0.0827756
-0.115728
0.0278884
0.00700159
-0.033747
-0.0225333
0.0270714
0.0186828
-0.0886194
0.0146435
0.0225571
-0.122054
-0.0786812
0.0235022
0.0127492
-0.0763403
0.0248663
-0.0529435
0.0208082
0.112597
0.0585606
-0.10636
0.0261311
0.0270749
0.0395253
0.0134363
-0.0798858
-0.0957028
-0.0732245
-0.225002
-0.0702326
-0.083731
-0.0554546
-0.0763161
0.0208689
0.0283717
-0.109058
-0.0725476
0.0289717
-0.0492432
0.0287911
-0.0839325
0.00504674
0.0222644
0.0312846
-0.0712427
0.0155868
0.0499961
0.0222902
0.0222036
-0.0932869
-0.0728715
-0.00336649
0.0275141
-0.0711599
-0.0255713
0.0075124
-0.0550412
-0.0827724
-0.0342131
0.0144204
0.00312388
0.047826
-0.0444269
-0.0817594
-0.17581
-0.07514
-0.0425561
-0.0996646
0.00669761
0.00746095
-0.0717674
0.00260688
-0.166377
-0.119822
-0.078617
-0.0817015
-0.0989181
-0.00633484
0.02934
-0.0540307
-0.0718669
-0.0982449
0.0255209
-0.0224815
-0.0745616
0.00060045
-0.0942521
-0.106904
0.00527624
0.0170191
0.0963546
0.0274542
0.0864897
-0.150673
-0.132354
-0.0703071
-0.0397132
-0.0789691
-0.0784311
-0.095822
0.00989198
-0.0762656
0.026019
0.00617502
-0.0860472
0.00310844
-0.167586
0.0245322
-0.0333481
-0.101707
0.0321049
-0.0028281
0.0208034
-0.0592555
0.0368146
-0.0942669
-0.120503
0.000341301
-0.0693989
-0.16188
0.0200847
0.0842905
-0.0159379
0.0207151
0.0386356
0.0181664
-0.0699762
0.0983838
0.0145792
0.020303
0.0260582
-0.121917
0.00307183
0.0409041
-0.0793871
0.0121163
0.00470233
-0.0879291
-0.0951387
-0.0833951
0.0202694
0.00791303
-0.0942603
0.0571618
0.0248026
-0.088256
-0.0672686
-0.0754428
-0.0719261
0.0445392
0.0492834
0.0233285
0.0105002
-0.0418712
-0.0673674
0.00652104
-0.0729032
-0.0431923
0.00373245
-0.12686
-0.0878107
0.00258366
0.160411
-0.0830136
0.0288081
0.0228541
-0.0155191
0.00809443
0.0596259
-0.0250382
-0.0702032
0.0873089
0.00192119
-0.0747157
0.00365463
-0.0874339
-0.127071
0.0233692
0.00389005
0.0278235
0.0201834
0.000242122
-0.0723685
-0.0873084
-0.00918724
0.0255625
-0.0724827
0.0346548
0.0121814
0.0303966
-0.0727555
-0.00685645
0.0112973
0.0595529
0.00742817
-0.0928861
0.00739475
0.0346694
0.00161123
0.0226659
-0.175651
-0.0745032
-0.0708488
0.0358559
-0.0740382
-0.0868311
-0.094704
-0.0877761
0.0024265
-0.112773
0.0395364
0.122812
0.0757238
-0.062072
-0.0759028
0.0584613
0.0236919
0.030542
0.0441145
0.029977
0.0056866
-0.0721653
0.0144988
0.0114387
-0.072769
0.0379402
0.152671
-0.174154
0.0387915
0.0286927
0.0283637
0.0103649
-0.0816248
0.0448661
0.020144
-0.0982129
-0.0746992
-0.0704259
-0.0262229
-0.115557
-0.144425
-0.0663857
0.0216939
-0.00397452
-0.126759
0.0376236
0.0167435
0.010474
0.0022094
0.0402254
0.0243461
0.0270769
-0.107529
0.0181545
0.00748341
0.230108
-0.0734005
0.0261743
0.0128258
0.0206271
0.0251111
0.026158
0.0388525
0.000200058
0.00754131
-0.0747231
-0.0763418
-0.105591
0.0271089
-0.0220305
-0.0475073
-0.0234168
-0.0677573
0.0870606
-0.0865624
-0.0755516
-0.082708
0.0279679
0.0239404
-0.0736736
-0.0804834
-0.063754
0.0148217
0.0229275
-0.03725
0.0370094
0.0613021
-0.0706416
0.0330727
0.0259322
-0.078856
-0.0699018
-0.0569144
-0.0675049
-0.0714518
-0.17383
0.0314139
-0.0399711
-0.0742038
-0.0533988
-0.0871091
-0.00579503
0.00379549
0.0150842
-0.0154568
0.00358793
0.029125
-0.013922
0.020555
-0.0223816
-0.0919504
-0.03977
0.0033487
-0.038329
0.04351
0.0380462
-0.015378
-0.130161
-0.108772
0.0112385
-0.0220405
-0.0838126
0.0454173
-0.00651887
0.0122986
0.0103241
-0.109518
-0.0121243
-0.0480556
0.057121
-0.128968
0.0378421
0.0321235
-0.0905692
-0.0488691
-0.122161
0.006557
-0.0901996
0.0246726
0.0327426
-0.0721963
0.0132779
-0.0710629
0.0184866
-0.0882585
-0.244311
-0.0599133
-0.0773014
-0.08849
-0.0674299
-0.09889
0.0269683
0.0313606
0.0185135
0.0220993
0.0229795
-0.0440807
-0.00345087
-0.090731
-0.0624416
0.0849851
0.00551049
0.0226312
0.0272588
0.0248356
0.0185219
0.024494
-0.0284722
0.0736315
0.00808228
0.0248679
-0.101968
0.00684321
-0.0839341
0.00962484
-0.0711668
0.00802569
-0.0742699
-0.0728252
-0.109825
-0.063999
0.00747782
-0.0755683
-0.0879344
0.0438132
-0.108211
0.0253107
-0.0752962
-0.0812904
0.0105943
-0.0805946
-0.000960342
-0.0721702
-0.0647133
0.00500299
0.029352
0.0262502
-0.0217992
-0.0713376
0.0276867
-0.0645078
-0.0229536
0.02717
-0.0944589
0.0787068
0.034143
-0.0733495
0.0064069
0.0261484
-0.237425
0.0979064
0.0216854
-0.0696937
0.0148722
0.00285545
-0.0726616
0.0051294
0.010257
0.041338
-0.0433236
-0.0631299
-0.107729
0.0292928
-0.0759622
0.00585559
0.0215692
0.0549672
-0.0161
-0.0244778
-0.100562
-0.136996
-0.0480416
0.0202329
-0.105282
-0.158046
-0.0856603
0.0129744
0.0320923
0.0464257
-0.00725122
0.0253458
-0.0332968
-0.0154647
-0.0131446
0.00450956
0.0381999
-0.00488193
0.0276226
-0.0355026
0.0375064
0.0116597
-0.0711508
-0.0930618
-0.106912
-0.112308
-0.0607073
-0.0646411
0.0214916
-0.0736053
-0.0934898
-0.051943
-0.0410913
0.188608
-0.0714247
-0.104349
0.0205567
-0.0323778
-0.108588
-0.071523
-0.0915218
0.0224196
-0.0947668
-0.0660329
0.105119
0.0296307
-0.052785
0.0053228
-0.0251828
-0.0250413
-0.0298155
-0.175714
-0.115025
0.0333806
0.00118881
0.026944
0.0338916
-0.0966894
0.00835358
-0.0619865
0.0109675
0.00767783
0.0232132
0.00783892
0.0217649
-0.0976689
-0.0469132
-0.0658456
0.0372497
0.0353445
-0.0772637
-0.0599389
-0.0720539
0.0265212
0.0327691
-0.147846
0.0314516
0.0211171
-0.0030931
0.0268125
-0.0764337
0.0021027
-0.0588897
-0.071012
0.00934109
-0.0625602
-0.112235
0.0219201
0.0225557
-0.0147632
0.00378302
-0.0534568
-0.0130005
-0.177577
-0.00776949
0.0281113
0.0247431
-0.080701
0.0227323
-0.17594
-0.159861
0.0117487
-0.0712412
-0.0836577
-0.0804814
-0.202294
0.0262986
-0.049577
-0.0578301
-0.156314
0.0218248
-0.0287055
0.0111401
-0.0256708
0.00898322
-0.0829426
-0.101044
0.00272147
-0.114104
0.0261549
-0.0181982
0.027759
-0.0421467
-0.00579014
0.0319213
0.0207635
0.0211061
-0.0823339
-0.184959
0.00883114
0.0162034
0.0011249
-0.0992956
-0.0717433
0.0384632
-0.0604954
-0.074479
-0.0305995
0.0154415
0.0291011
-0.072962
0.0218386
0.0342193
0.0387339
0.0276946
0.00995342
0.0200441
-0.0186805
0.0351574
0.0404903
-0.00421838
-0.0681043
-0.0303438
-0.0815479
-0.0610472
-0.0285382
-0.0786992
-0.0194405
0.021047
-0.072986
-0.0727018
-0.0613279
-0.0121526
0.0214318
0.0188695
0.0554028
-0.00734137
-0.0715713
-0.0748059
0.0131411
0.0328463
-0.0318983
0.0316011
-0.138326
0.0624352
0.0379026
-0.0340078
-0.0569776
-0.0738728
0.0273397
-0.0738889
0.190613
-0.156002
-0.000933529
-0.102165
-0.0438888
0.002003
0.0260145
0.00863745
-0.176816
-0.136001
0.0935612
0.0233291
0.00288183
-0.0894293
-0.0719596
0.0901438
0.0132756
-0.0132358
-0.00591998
-0.0684278
-0.0780585
0.0390929
-0.0840372
0.0331275
-0.0956037
0.0187675
-0.0625178
0.0121008
0.0101847
-0.114373
-0.119172
-0.0592015
0.00406339
-0.0100315
-0.0209178
-0.0806449
0.034216
0.0180289
-0.0137027
0.00150858
0.0404561
0.0177315
0.0276868
0.0946763
-0.0575971
0.0186078
-0.0626744
-0.0703806
0.0752551
-0.0397324
0.0247905
0.0125852
0.00757992
-0.0417384
0.0929901
0.00596526
0.0476463
-0.0994201
-0.0440789
0.0593141
-0.102377
0.18422
-0.0662132
-0.00441216
0.00429686
-0.0974924
-0.0680131
0.00722342
-0.0712756
0.113173
-0.0717238
0.067043
0.0372062
-0.0875536
0.0376565
0.00993584
-0.0733665
-0.0846711
-0.141163
-0.1727
-0.0785055
-0.0573886
0.0393744
-0.0491081
-0.0703975
0.0234847
0.0426957
0.0261877
-0.102643
0.0169172
-0.0853444
-0.0412448
-0.144828
0.0195602
-0.0573573
-0.000343994
0.0239459
-0.00972511
-0.0680352
0.0770935
0.00332877
-0.0498617
-0.0971005
-0.146651
-0.0850739
-0.0734635
-0.074007
-0.0206474
-0.0810585
-0.00659282
0.0056357
-0.100972
0.0176199
-0.0699212
-0.0361805
-0.09082
-0.147374
-0.0737644
0.0254427
-0.0954375
-0.145119
-0.0829451
-0.0284215
0.0399236
-0.0125163
0.0260307
-0.0914063
-0.113619
-0.0136193
-0.103815
0.0587303
0.0691878
0.0258326
-0.081667
-0.08155
0.0272396
-0.0746352
-0.0736584
0.0275578
-0.127071
0.00522835
-0.0961623
-0.121209
0.00535106
0.0221852
0.0207076
0.0567986
0.0341792
0.0149334
-0.045662
-0.0176327
0.0102353
0.00507421
-0.0882678
-0.0280028
-0.0749964
-0.0396549
0.114573
-0.0633907
-0.0681451
-0.0679668
0.0227146
0.00613667
-0.0442001
-0.0377912
-0.0650664
-0.00467956
0.0187529
-0.0965617
-0.0705584
-0.0242918
0.0210812
0.00454508
0.0055597
-0.0282274
0.00603947
0.00340506
0.0552098
-0.017047
-0.0681785
-0.0742137
0.00292619
-0.0917231
0.0204862
-0.0286833
0.00641935
-0.0820357
0.0234943
0.0323908
0.00517854
-0.0142969
0.150327
-0.214888
-0.0646765
-0.250882
-0.101203
0.0138664
-0.0487229
-0.139049
0.00370683
-0.0680123
-0.0950501
-0.136865
0.0338347
-0.0720517
-0.110998
0.0330064
-0.0791869
-0.0813303
-0.0357299
-0.0653216
-0.071011
-0.0266503
-0.0938998
0.0301386
-0.0730076
0.0387536
-0.031084
-0.0682752
-0.0368226
0.0416871
-0.000646614
-0.0936521
-0.10892
0.0296059
-0.0745498
-0.0516631
-0.0703694
-0.0898925
-0.174991
0.00331366
0.0368864
0.0223807
-0.128583
0.00536113
0.0394821
-0.0984988
-0.0700989
-0.0595644
-0.0364165
-0.0589174
-0.0179333
0.0273298
-0.11516
-0.0487998
-0.115209
-0.0932262
0.00838401
-0.115553
0.0204427
-0.0447133
0.00410159
-0.0692937
-0.110493
-0.133533
0.132142
-0.0655886
0.0151124
-0.0743918
-0.0442009
0.0255261
-0.073225
0.085075
-0.0707154
-0.0852484
-0.100568
0.0277502
-0.0848731
-0.0774517
-0.115898
-0.114358
-0.0727615
-0.0975624
0.0220066
0.0184967
0.0078309
-0.026943
0.0387196
-0.0446091
0.0204146
-0.0962187
0.0288493
0.0276217
-0.0610984
-0.0804106
0.0978586
0.134327
0.01827
-0.0985038
0.00389075
-0.080507
-0.00760456
-0.0624723
-0.0935768
-0.0313369
0.0226155
0.01709
0.00600583
-0.0675322
-0.116796
-0.0882414
-0.0686196
-0.0738051
0.0319752
0.101893
0.0095899
0.0419543
-0.073786
0.0970303
-0.0113441
-0.0533122
-0.08127
-0.0534474
-0.0834231
0.0612963
-0.0303795
-0.0799311
-0.0275069
0.0288711
0.102465
0.0182858
-0.146033
0.172749
0.175752
-0.1083
0.028992
-0.128505
0.00781807
0.011234
-0.00610768
-0.0827273
-0.0741389
0.035515
0.0180388
0.0392381
-0.0580848
3.39425e-05
0.0208563
-0.114324
-0.0795216
-0.0737396
-0.0890202
-0.071555
0.00772532
-0.0712347
0.032094
-0.0843876
0.00349991
0.0564935
0.00677162
-0.0151794
0.0215009
0.00287792
-0.103335
-0.0743615
-0.185818
0.00310649
0.0289245
-0.0935265
0.0338725
-0.0725014
-0.0972352
0.0182795
0.00639624
0.0211759
0.136768
0.0394054
-0.0299772
0.0279028
-0.00496948
-0.0781454
-0.0721147
-0.00849678
0.00137324
0.0388039
0.0375315
0.0208569
0.0528621
0.120539
0.0587144
-0.0600469
-0.0461283
0.0378462
-0.0831489
-0.00808101
0.0205705
0.0389496
-0.076121
-0.127195
0.0213386
0.0214958
-0.0113712
0.0243145
-0.103947
-0.0798757
-0.112559
-0.0719607
0.00862765
0.0598064
0.0483289
0.0341274
0.175198
0.0393642
0.022351
-0.079227
0.072465
0.0272174
-0.0790233
-0.076926
-0.0753056
0.00891859
0.0739121
0.0289112
0.010889
-0.131176
-0.0091782
0.0273446
0.196117
0.00847597
0.0217056
-0.0789519
-0.01542
-0.186603
-0.0853342
-0.0752162
0.12523
0.0222783
0.091893
0.0815654
-0.0721925
-0.0732169
-0.298572
0.120129
0.0204497
-0.0744803
0.0216309
0.0434796
-0.0185466
0.0212976
0.0212495
-0.113236
-0.0710164
-0.111877
-0.00659094
-0.174323
0.19501
-0.035266
0.00705886
0.0684609
-0.0723274
-0.00386209
0.025105
0.0654032
-0.0120229
-0.0628549
6.4228e-05
0.00864778
-0.0725274
-0.0250403
0.00243284
0.0246555
-0.0724164
-0.174393
-0.00193974
-0.0752697
-0.0231292
-0.0826533
-0.0825622
0.0169385
0.0438403
0.0168351
0.0334927
-0.0839654
0.0298172
0.00573254
0.00908016
0.0350903
0.0252688
0.00639585
-0.0168854
0.00967122
0.0229551
0.0259949
-0.0736182
-0.0409034
-0.0788141
0.0164486
0.0131088
0.0170236
-0.0753883
-0.118758
-0.0728427
-0.0141905
-0.0696542
0.00240378
0.021261
-0.0254405
0.0179994
0.199305
-0.0215461
0.0107559
0.0188218
-0.12083
-0.0811589
-0.0822973
0.0238394
-0.0835759
-0.0796018
0.021282
0.0102203
0.0295088
0.0232734
0.02508
-0.0745985
-0.0831238
-0.084438
0.1114
0.00886637
-0.0783017
0.0248112
-0.0618937
-0.00926379
0.0574231
0.00784757
0.0258606
-0.0978283
-0.0710097
-0.0708519
-0.119409
-0.0780862
0.0228962
-0.0676559
0.0320455
-0.308222
0.022114
-0.0700978
-0.0947455
-0.0852547
0.0305001
-0.0685931
0.0229317
-0.0720834
0.0186929
0.0387579
0.0668396
0.0324008
0.122483
-0.021124
0.025773
-0.0318924
0.0275362
-0.0165289
0.0300024
-0.0467678
0.0334982
-0.0763389
-0.152637
0.0218721
0.0237305
-0.0715957
0.101758
-0.137476
0.000608923
-0.0915586
-0.0892146
-0.0702987
-0.0771636
0.0384859
0.0184264
0.000753289
-0.0475118
-0.111332
-0.00771947
0.0375417
-0.0104278
-0.292404
-0.0743487
-0.10163
0.0217915
-0.0782876
0.0273424
-0.0751542
-0.13024
-0.0968398
0.0476812
0.0292006
-0.0827695
0.0254548
0.214725
0.0158252
-0.0685865
0.00306161
-0.0459407
0.000315254
-0.0720468
0.0174882
-0.0811891
-0.127937
0.0378938
-0.0996297
0.0608208
-0.172762
0.0300918
0.0686337
0.00492219
-0.102042
-0.0100695
0.0278685
-0.173382
-0.283508
0.0260887
-0.0739975
-0.0501046
-0.0954026
-0.0795535
0.138272
0.042686
0.0594731
-0.0338405
-0.0194352
0.0184363
0.0328803
0.0251683
-0.0719143
-0.00534642
-0.071955
-0.11224
-0.190385
0.0793803
-0.086017
0.0288995
-0.0446175
0.0467466
0.0995164
0.0298124
-0.0462009
-0.0704543
-0.0420443
0.0285887
0.137453
0.000814628
0.00537256
0.0218449
0.0269228
0.0218505
-0.140596
0.0573196
0.0286964
0.109312
-0.0715155
-0.0713658
0.0719626
-0.00170171
-0.0716892
-0.0517907
0.00490759
-0.190484
0.0156751
0.00692719
-0.111755
0.0497366
-0.0829117
-0.105675
0.0275574
-0.133653
-0.00480536
-0.0759692
0.0105536
-0.0726066
0.00403702
0.0220779
-0.0627966
0.0662197
-0.0739515
-0.0993982
0.174485
0.0413321
0.00543035
0.077948
-0.070981
-0.00494518
0.0121847
0.0289788
-0.19247
0.027541
0.017474
0.0410275
0.0242628
-0.070717
-0.00356824
-0.0973888
0.00305961
0.0297951
0.0225135
-0.206026
-0.073073
-0.00272522
-0.0712486
0.0187926
-0.013419
-0.0782362
-0.00409039
-0.0715251
-0.0828986
0.022778
-0.00646052
-0.0127032
-0.0450322
-0.325272
-0.126619
-0.0564791
0.0409076
-0.0431172
0.0209795
-0.108855
-0.083767
0.0276895
-0.0398558
-0.0636675
0.0229518
-0.210717
-0.0977329
-0.0208018
0.0560258
0.0459907
-0.0543095
-0.0852484
-0.0750018
-0.0839217
-0.0782528
0.0581365
0.00363123
-0.100218
-0.0290267
-0.303249
-0.0776745
-0.0878074
-0.0794956
-0.0675907
0.00994863
0.0313376
-0.104255
0.0568804
-0.018403
-0.107276
-0.0750246
0.0259081
-0.149293
-0.0666383
0.00200902
0.0200927
-0.0610476
-0.0703988
-0.00256505
0.00362374
-0.0831642
-0.0737718
0.0065295
-0.0880863
-0.0780241
-0.0848456
-0.0947541
0.0363554
0.021351
-0.0744277
-0.0671804
0.0548635
-0.0630959
-0.0781217
0.0196384
0.053886
-0.0256238
0.0736866
-0.00072927
-0.0831776
0.0160673
-0.0739616
0.021305
-0.0877593
-0.0516031
-0.0749418
0.056958
0.0249814
0.00718237
-0.0613611
-0.0726971
-0.103005
0.0123442
-0.0936989
0.0050397
-0.064448
0.0042284
0.0218745
-0.105
-0.0886965
-0.0735458
-0.0865893
-0.00607858
0.19778
0.0287726
0.0311438
-0.0975756
0.115909
0.044796
0.0558776
0.0298875
0.0211365
0.0264446
0.0490098
-0.105741
-0.0982513
-0.00300975
0.0585298
-0.113927
-0.0749912
-0.271498
0.0267135
0.0309807
-0.0875478
-0.112372
-0.00376291
-0.0586819
0.044455
-0.174734
0.0208643
-0.109148
0.0118163
0.0691656
0.0229154
-0.0341787
-0.0586938
0.0265431
0.0858383
-0.0727041
0.078409
-0.0787989
0.0276863
-0.0600408
-0.259279
0.0209201
0.0255902
0.00923981
-0.092416
0.0179938
0.00619614
0.0156756
-0.0706847
-0.0725422
-0.0503997
0.0287023
-0.00846033
0.0282981
0.210982
-0.00127079
0.0523394
0.0253188
-0.00562401
0.113888
-0.00319477
-0.195737
-0.0481659
-0.0738288
-0.0645162
-0.0136024
-0.079371
0.00253528
-0.0713311
-0.070754
0.0386046
-0.318311
0.117559
-0.0186956
0.0313194
0.0223702
0.00985439
0.0210563
0.042469
-0.0749265
0.0180416
-0.00148025
0.0279967
-0.067081
0.100803
-0.0752053
0.0318579
-0.0186246
-0.0748048
-0.0637156
-0.0175414
0.0201856
-0.12448
0.0301665
-0.0710986
-0.0385027
-0.0573954
0.0188323
-0.0705273
0.0299573
0.0208604
0.0238424
-0.0794999
-0.120934
-0.0872463
0.100292
-0.073897
0.00813724
0.029674
0.0292641
-0.0436613
-0.083613
0.0310769
0.106112
-0.074183
-0.181019
-0.0574387
0.0278338
0.0150362
0.0188711
0.0100922
-0.0782442
0.0288703
0.0266803
0.0191389
-0.0146855
-0.0900562
-0.10856
0.0800011
-0.0795826
0.00964062
-0.0979082
-0.0699132
0.00653802
0.0344716
-0.0815309
0.00526898
0.0299346
-0.0818843
-0.113155
0.0115333
-0.000487942
-0.062666
0.0188962
-0.0725229
0.0399928
-0.0753028
-0.121215
-0.0513171
0.00683574
-0.258475
-0.0817211
-0.174813
0.00425501
0.0045573
-0.0975259
-0.00921653
0.0300466
0.00468018
0.00669137
-0.0704097
-0.0722904
0.0415355
0.0350108
-0.104862
-0.0852927
-0.0759328
0.119174
-0.100228
-0.0753684
-0.0830209
-0.0910554
-0.0708076
0.0136554
0.00314203
-0.0772124
0.0274979
-0.0748192
-0.0583486
-0.0128656
-0.117708
-0.0642101
0.0133873
0.0272703
-0.0698503
-0.148848
-0.070137
0.0456435
-0.0932609
0.0837615
0.0735315
-0.0442448
-0.177104
-0.0710151
0.00561153
0.0398562
-0.00469943
-0.112583
-0.0481407
-0.144631
-0.166716
-0.0754871
0.0480135
-0.00720184
-0.0033434
0.0501215
0.0259572
0.0656575
-0.00181721
0.135474
0.0431909
-0.0359213
-0.0768083
0.0325409
0.0119145
-0.0969291
0.01226
-0.0585429
-0.0224025
-0.257218
-0.0714584
-0.0645895
-0.0594565
-0.00345508
-0.068206
0.0108597
-0.0934509
-0.0229924
-0.0818676
0.0692332
0.127184
0.0286255
0.0259181
0.035508
-0.0925588
-0.0704657
0.0226441
-0.0837727
-0.0801165
-0.0993497
-0.0262627
-0.0920127
0.0173137
-0.0742311
-0.171549
0.0215004
0.0399109
-0.0760867
0.0213845
-0.0707495
0.00911829
-0.116912
-0.0352574
0.0288127
-0.0741225
-0.00544352
-0.163242
0.133315
0.00364099
-0.0987229
-0.06718
0.0260042
0.034627
0.00688389
-0.0847318
-0.0735036
-0.0695724
-0.0717204
0.0273926
-0.0997406
0.0431486
-0.00683668
-0.0250547
-0.0813207
-0.0898912
0.0307006
-0.0957835
0.0228223
0.132233
0.0511447
0.0038713
0.0232898
-0.0712487
0.0535495
0.0310404
-0.106815
-0.00616177
-0.0760794
-0.0792431
-0.180428
-0.069703
0.0409795
-0.0603338
-0.0709381
-0.0453186
-0.00133754
-0.000837245
0.00538503
-0.0289048
-0.0405655
-0.0421862
-0.0850975
0.0225761
0.0440898
0.00422664
0.00767313
-0.0639946
0.0250879
0.00126005
0.0155996
0.027561
-0.0415155
0.162458
-0.13157
0.0228243
-0.0737712
-0.152908
-0.116904
-0.101472
-0.150748
-0.060188
-0.0802444
-0.0717388
0.0343799
-0.0560604
-0.0065606
-0.0944387
-0.0814198
0.0203775
0.0170487
-0.0770277
-0.00389474
-0.109498
-0.0838518
-0.074959
-0.232529
-0.113058
-0.0105058
-0.0487356
-0.0466117
-0.0144833
0.0857465
0.0312322
-0.0581954
0.0304867
0.101612
0.0178485
0.0281356
-0.01873
0.0074676
-0.0937012
0.0151756
-0.0567361
-0.175347
-0.0484054
-0.0309737
0.0276398
-0.193251
0.0544889
0.0295446
0.0030319
0.0803194
0.0260627
0.0230904
-0.0752566
0.00841152
-0.0145358
-0.00776151
0.00457816
-0.064426
0.181604
0.0370858
0.026429
-0.0697458
0.137867
0.0226746
0.0265106
0.0374134
-0.0747479
-0.161037
0.0149762
0.0189074
-0.0407497
-0.093707
0.0244283
0.0596529
-0.0828351
-0.0682382
-0.0248543
0.115833
-0.103174
0.00314175
0.017164
-0.0748654
-0.0639721
-0.0705669
-0.0830121
-0.119031
-0.107987
-0.149575
0.0127926
-0.114353
0.0405194
0.0324076
-0.0103866
-0.00699064
-0.0911884
0.0217797
0.0350547
-0.170042
-0.0722938
-0.135373
-0.0956536
0.0206949
-0.00186794
-0.139472
-0.000270506
-0.0784874
0.0105575
0.0289759
0.0298297
0.0149169
0.0882961
0.0288289
-0.000481301
-0.0226614
0.0292304
-0.0733492
0.00274759
-0.0428042
-0.0742332
-0.0294937
0.0231808
0.000297362
0.16363
-0.0718345
0.047223
-0.00968025
-0.0500095
-0.0924897
-0.0819635
-0.0733297
0.0177093
0.00895466
0.0284816
-0.0606717
0.024474
-0.0786802
0.00776372
0.00960149
0.027042
0.0664859
-0.0613482
-0.0664948
-0.051488
-0.070797
-0.0706148
-0.0888123
-0.0718194
0.0167107
0.0266147
0.00396922
-0.070324
-0.0746507
-0.106387
-0.301224
0.0179349
0.0209486
0.0190664
-0.0887531
-0.109991
-0.0200939
-0.0740178
-0.050623
-0.0189112
-0.103749
-0.0010823
0.0116373
-0.0897632
0.0127854
-0.0635103
-0.0576283
0.022018
-0.0744454
0.0214173
0.0649556
-0.0910748
-0.0927979
0.00964628
-0.0740871
-0.0558352
0.0211647
-0.0845833
0.0421229
-0.0324202
-0.0846958
0.00819767
0.0245543
0.0146185
-0.082501
-0.0166991
0.0400103
0.0211469
-0.282595
0.035987
0.0023349
-0.0472283
-0.08431
0.00465621
0.0105029
-0.128835
0.0350037
-0.0029099
-0.0870717
-0.0745255
0.00176433
-0.0918428
-0.0536573
0.0472321
-0.112773
-0.000335987
0.0129103
0.0202073
0.0259061
-0.0632991
-0.191318
0.068658
-0.0641179
-0.0827799
-0.093755
-0.073799
-0.0111548
-0.103937
-0.0251681
0.00505268
-0.0178681
-0.0738013
-0.0912023
-0.00682043
0.0641336
0.0314204
0.0258562
0.0266547
-0.0502038
-0.0541345
-0.0253843
0.00204429
-0.0787962
-0.0409759
-0.0580064
-0.0850206
-0.112037
-0.118711
0.0318792
-0.070512
-0.0893136
0.0304856
-0.0262621
-0.188042
0.0287947
0.0246226
-0.000714712
0.0472626
-0.142414
0.00125838
-0.0724123
-0.111439
0.0128946
-0.0482466
-0.159976
0.0492929
-0.0315983
0.00622495
0.00840391
0.00738734
-0.0765024
0.0243117
-0.0589894
-0.000171748
-0.091309
0.0367026
0.0133215
-0.0892613
0.0137159
0.0205097
0.0638924
0.0614307
-0.0926159
-0.0523276
0.0183748
0.008437
-0.0968278
-0.0732743
-0.00357679
0.0040985
-0.0974355
-0.0693864
0.0285367
-0.0789434
-0.0752604
-0.0122103
0.00486484
0.12999
-0.015794
-0.122015
0.0207869
-0.173528
-0.325775
-0.0837533
0.060295
-0.0988787
-0.0649217
-0.0270754
0.0270916
-0.0854511
-0.112168
-0.0708784
0.0664338
0.0410147
0.0300321
0.0103761
-0.0708705
-0.0878208
-0.0887236
-0.10873
-0.073704
-0.100375
0.00926585
0.0573634
-0.0857087
-0.0724987
-0.121283
-0.0812318
-0.109048
0.0216132
0.00384477
0.0762743
-0.0951731
-0.0908228
0.0117555
-0.10236
-0.00452301
-0.0341836
-0.0724547
0.0108943
-0.0630172
-0.142993
-0.114035
-0.175375
0.0374361
-0.0769497
0.0164799
-0.0610274
-0.0918078
-0.110329
-0.156811
-0.101089
-0.0726195
0.0152215
-0.0510643
0.0821036
-0.0913133
-0.133215
-0.0813356
-0.0593502
0.0685589
-0.0919552
0.000636987
-0.0855983
-0.0755764
0.0107312
-0.0755792
0.0080196
-0.00089837
-0.0758516
0.0215253
-0.0906428
0.0369319
-0.0776535
0.0184748
0.01468
-0.0902022
-0.0616741
-0.0767331
-0.0764309
0.0502114
0.0226371
-0.0936015
-0.0114202
-0.00635733
0.0145329
0.0472176
-0.071913
-0.111764
-0.20191
-0.0109989
-0.0760094
0.0303763
-0.0974474
-0.0885644
0.00455533
-0.0849212
-0.107592
-0.0723962
-0.085582
-0.0709776
-0.0732713
-0.0780854
-0.0522473
-0.0729811
-0.0875308
-0.0949426
-0.166906
-0.100191
0.10302
-0.0834155
-0.074515
-0.0569591
-0.361028
-0.0725921
-0.072906
0.00218608
-0.0723408
0.0141938
-0.0806936
-0.0756168
-0.0895068
-0.036091
-0.0727425
-0.0764324
-0.0737939
-0.214804
-0.0319314