/*--------------------------------*- C++ -*----------------------------------*\
| =========                 |                                                 |
| \\      /  F ield         | OpenFOAM: The Open Source CFD Toolbox           |
|  \\    /   O peration     | Version:  v2012                                 |
|   \\  /    A nd           | Website:  www.openfoam.com                      |
|    \\/     M anipulation  |                                                 |
\*---------------------------------------------------------------------------*/
FoamFile
{
    version     2.0;
    format      ascii;
    class       volScalarField;
    location    "50";
    object      ddt0(k);
}
// * * * * * * * * * * * * * * * * * * * * * * * * * * * * * * * * * * * * * //

dimensions      [0 2 -3 0 0 0 0];


internalField   nonuniform List<scalar> 
18540
(
-4.29048e-05
1.44136e-09
5.55348e-09
-0.000204094
-5.66725e-08
-1.33628e-07
-4.52098e-08
-3.19084e-07
8.0154e-05
-3.48617e-09
4.0207e-08
2.72094e-08
-0.000270178
-9.82352e-09
-0.000107542
-0.000120564
-4.93286e-07
1.85423e-08
-0.000292532
-0.000155957
-7.76667e-08
-9.87277e-07
8.07361e-09
0.000130615
-2.92832e-07
-5.05838e-08
-0.000162921
-2.88179e-07
-1.03434e-07
-0.000152924
-5.8477e-10
-4.14165e-08
-2.15484e-06
-0.000132776
2.87811e-08
-0.000211676
-1.07513e-06
2.86932e-08
-2.11739e-08
5.89986e-06
-4.62368e-09
3.67653e-08
0.000170868
-0.000358295
-2.64078e-07
-8.11529e-08
4.75951e-05
-8.66991e-09
-7.36083e-08
-1.1454e-07
-3.04101e-08
-1.04773e-05
-0.000127712
2.87343e-10
-5.83208e-08
-1.53755e-07
-0.000267261
0.000287742
-2.92353e-05
-1.9085e-08
-0.00019954
-6.76893e-08
-6.91204e-08
-2.6061e-06
-3.81583e-05
-2.26717e-08
-3.36625e-06
1.07241e-09
-1.52093e-05
-5.34649e-10
-1.39991e-07
-2.4288e-07
-5.16064e-06
0.000327358
-1.15129e-07
-1.6161e-06
-5.24553e-07
1.66773e-08
-4.79158e-08
-3.0407e-06
-3.85652e-08
-0.00116661
1.91593e-08
-5.16999e-06
-0.000204545
-0.000381869
-1.19647e-08
-8.77522e-09
-2.85838e-08
-0.000393494
-1.93512e-05
-3.52767e-06
-9.22656e-08
-6.78547e-10
-6.66469e-08
-1.39473e-09
-3.54118e-08
-1.48477e-07
-0.000136199
-0.000200684
-1.04563e-08
-7.47772e-08
-1.9942e-06
-0.000136948
-0.000236175
-1.95581e-06
-9.15893e-09
0.000548262
-6.78776e-08
4.33602e-08
-2.00062e-05
-2.47739e-05
-6.66148e-09
-4.88928e-08
0.000266862
-1.00843e-07
-1.97216e-07
-1.47558e-07
-7.42963e-08
-1.39087e-07
-0.000332203
-0.000860931
-0.000174733
-0.000364199
5.32515e-09
-1.00039e-07
-1.38569e-07
1.77779e-07
0.000144273
-1.65811e-06
-9.38808e-05
-9.55269e-08
-1.1947e-07
-0.00044342
-1.47494e-09
-1.14544e-08
2.02202e-08
-3.36431e-08
9.53003e-08
-2.84372e-08
-3.93036e-05
-2.26229e-06
-1.21113e-07
-0.000159683
-1.89028e-08
-1.21133e-08
-1.44729e-07
-0.000466336
-3.11605e-08
-0.000736186
-8.03723e-09
-5.6971e-08
-9.17994e-09
0.000188017
1.26461e-05
1.32599e-05
-0.000841364
-9.67418e-09
-4.07414e-09
0.000619739
-1.18554e-07
-1.4818e-07
-7.56064e-08
-6.78434e-09
-0.00014749
-1.18467e-08
-0.000297569
-1.59786e-08
-9.87416e-05
8.90455e-09
4.33582e-11
-1.33351e-07
-2.82474e-08
-2.00218e-08
-6.78449e-09
-6.97967e-05
-6.98248e-08
-0.000105645
1.6379e-05
-7.57095e-05
-2.18127e-08
2.71249e-09
-1.42739e-07
-3.49348e-06
1.3921e-09
-0.000226041
-4.7948e-09
-1.6968e-08
-0.000156638
2.03156e-09
-1.3081e-07
-4.17721e-08
4.65957e-05
-1.11135e-08
-1.15971e-07
-1.47133e-08
-1.4767e-07
-0.00024007
-6.3545e-06
-5.49324e-08
-8.97192e-08
-3.26594e-06
-6.64711e-08
-1.18567e-07
-0.000352856
-4.22237e-05
6.20533e-08
-0.000211191
8.30604e-05
-9.72322e-08
4.44737e-08
7.24784e-05
-0.000116243
-3.42891e-09
1.8418e-07
-1.24378e-07
-0.000217729
2.00668e-06
0.000113013
-0.00044748
6.39062e-05
-5.84418e-07
4.83784e-06
6.81328e-07
1.30817e-05
-9.07034e-05
-8.02799e-08
-9.84006e-08
-6.72094e-06
-1.6171e-07
-3.93952e-08
-7.56011e-05
-5.87275e-06
-2.3111e-08
-2.77002e-07
-7.76776e-08
4.17283e-08
-1.34062e-07
-1.02844e-07
4.01168e-08
1.7395e-05
-4.43749e-05
-7.79565e-06
-8.55227e-08
-0.000340431
0.000109034
5.2672e-09
-5.08942e-09
-8.68872e-08
3.67914e-09
-5.6498e-07
6.7429e-05
0.00014369
-3.27688e-08
-2.53171e-08
-2.94141e-06
-6.10203e-05
1.28116e-05
-4.69594e-08
-0.0003719
-1.92024e-06
-5.32336e-05
-4.67013e-08
-0.000202163
-0.00020064
-8.48426e-08
-0.000647179
-0.000110762
1.08022e-07
2.1964e-08
0.000102058
-0.00023827
-0.000213059
-2.59391e-08
-4.33667e-06
-0.000121396
-6.91606e-09
-2.04861e-07
-2.19668e-05
1.11e-07
-3.6884e-08
-0.000101413
-1.96991e-09
4.84695e-08
3.26053e-05
1.08799e-08
-4.95948e-05
-1.58119e-07
-0.000191942
-7.2687e-06
0.000280589
-0.000534503
-4.61204e-08
-7.34514e-08
-0.000527557
-9.6547e-08
-0.000168119
-7.03823e-08
-0.00145704
-1.06266e-07
-7.97744e-08
-5.5914e-05
-0.000865188
8.27512e-07
3.47149e-06
1.6659e-08
1.50187e-05
-1.51802e-09
-1.34999e-05
1.75652e-08
-0.000318256
-2.37723e-08
-0.000132393
-1.41371e-07
-0.000336173
-5.77675e-05
-0.000122169
-3.16756e-08
3.05574e-05
0.000235255
-0.000194558
-4.36567e-05
-5.3992e-09
-2.72574e-05
-8.9152e-09
1.2213e-08
-1.56688e-07
-4.53506e-08
-5.4101e-08
1.75604e-08
-2.5476e-09
-1.80043e-06
-1.05734e-05
-5.9025e-08
-9.99628e-05
-9.27727e-07
1.45206e-08
5.63708e-09
-0.00025623
-1.58955e-06
-1.17628e-07
-1.12446e-07
-2.09011e-08
3.17186e-07
-2.48067e-05
-0.000128561
-2.98347e-08
-5.12118e-07
-7.02626e-08
0.000143104
8.2902e-05
6.87867e-08
-0.000825777
1.58199e-08
3.81623e-07
-1.22212e-05
-9.24979e-09
-3.47525e-08
-4.18596e-08
-0.000405628
-8.10252e-08
-1.14011e-08
4.81374e-08
-2.11362e-08
0.00027197
2.08874e-08
5.39016e-09
-3.53627e-08
-3.20285e-09
2.8246e-08
-0.000256778
2.70829e-09
-9.8873e-06
-7.95862e-09
-4.77338e-08
-0.000462439
-4.16661e-08
-0.0016883
4.01406e-09
-8.22514e-05
7.37126e-05
6.46927e-10
-6.31133e-07
-0.000100162
-1.04142e-07
-2.05606e-08
2.36187e-06
-0.000124083
8.61141e-09
-0.00119044
-9.36711e-05
-5.7207e-10
-2.44329e-08
-5.73876e-05
-0.000262292
-1.76219e-08
0.000181663
-0.00020431
3.86424e-09
-5.88402e-05
0.000669241
-0.000332479
-5.94551e-08
1.17311e-07
-1.32723e-07
-4.15212e-08
-0.00111889
-0.000154681
2.04712e-08
-4.32028e-08
9.68921e-05
0.000171297
-2.09746e-06
-1.32296e-08
-1.32643e-07
2.26108e-05
-9.66704e-08
-1.55289e-07
-1.45585e-05
1.78252e-05
-0.000101659
-4.28311e-05
1.47188e-09
-1.80076e-05
2.27439e-08
-1.35016e-07
-3.75526e-09
-8.37835e-05
-1.13467e-07
-1.24472e-07
-2.33628e-08
-6.12671e-05
-1.52476e-07
-6.03715e-05
-1.94855e-08
-0.000187956
-1.31365e-08
1.10532e-08
-0.000442236
-5.44966e-08
-4.84863e-06
5.3581e-08
3.96202e-06
-0.000229854
-3.32363e-09
-2.20354e-08
6.22871e-08
-0.000222268
-7.56706e-11
1.25094e-10
6.20166e-05
0.000176823
-1.16564e-08
2.44344e-08
-2.37548e-08
1.8458e-08
-1.75706e-07
-2.07737e-08
-0.0002058
-3.2998e-06
-7.67555e-08
-9.02427e-09
-1.53719e-07
-2.15132e-08
8.41571e-10
2.72352e-07
2.33964e-05
-1.00538e-07
-0.000108105
-3.38339e-06
0.000218801
-9.13542e-07
0.000180236
0.000553144
-3.54408e-06
2.2338e-09
-5.50389e-05
-4.54265e-08
0.000106099
-1.38402e-08
-2.11417e-07
-3.14118e-08
-0.000489309
2.3205e-08
-9.41742e-08
-3.7087e-08
-1.13287e-07
0.000234759
-6.82718e-08
-2.52852e-08
-5.28321e-05
-1.09764e-07
2.6758e-06
-0.000182437
9.60351e-05
4.97531e-05
-3.26822e-08
-4.32823e-05
-1.62047e-05
-2.43112e-09
-3.69473e-05
-5.85369e-07
6.28057e-09
-1.3358e-06
4.17517e-08
-3.46217e-10
4.22022e-05
-5.53025e-09
4.52386e-06
-9.93305e-05
-7.16395e-08
-1.08369e-07
8.41835e-08
-3.81539e-08
-0.000458325
-9.65772e-09
-3.72249e-08
4.42169e-08
-0.00020408
-3.1412e-09
-0.000248348
-5.60453e-08
-4.63091e-07
-0.00122904
-1.12221e-07
-1.13378e-08
5.80074e-08
-0.000203488
1.76515e-08
-1.48709e-08
0.0002899
-4.95107e-05
-4.11901e-08
-1.69816e-08
-3.17482e-11
-1.90161e-08
-4.61446e-05
-4.77138e-05
-1.0001e-07
3.68387e-08
-2.97783e-08
-2.76486e-09
-1.28456e-05
-4.28134e-07
-1.19781e-07
3.60195e-09
0.000204999
-6.61562e-05
2.59312e-09
-1.04455e-07
-6.91049e-08
-1.14754e-08
-5.18415e-06
-0.000168017
-1.69261e-08
-1.5678e-07
-0.000142096
-0.000392943
-0.000233265
3.77329e-08
-2.16669e-08
-3.24569e-08
-6.08198e-09
-5.21575e-08
-2.13969e-08
-0.00024726
3.47468e-08
-5.0921e-07
-7.98362e-08
-1.11263e-07
-4.30296e-09
-2.81875e-08
-1.56101e-06
-4.29556e-08
-6.67501e-05
0.000489999
-2.32213e-08
-5.1535e-08
-4.99806e-08
-1.93061e-09
-2.19205e-06
-2.04379e-09
0.000248626
-0.000377423
-4.82055e-06
-1.19009e-07
2.61394e-09
4.55159e-08
-8.10116e-08
-8.9633e-05
-1.23119e-07
3.08478e-07
-2.30564e-08
2.28574e-08
0.000119319
-9.10652e-08
-2.42661e-08
2.31944e-05
-2.53505e-08
-2.31822e-08
-0.000833344
-2.27105e-07
-2.0418e-08
4.13715e-07
0.000627425
-7.54992e-08
-1.20222e-07
-9.90337e-08
-4.09174e-07
-2.66306e-07
-1.08497e-07
-0.000186422
0.000681129
2.2606e-05
-3.1479e-08
-0.000125462
-4.68642e-08
1.27457e-08
-0.00156657
-1.07432e-08
-4.92239e-05
-0.000254983
-2.01155e-08
6.32422e-06
-3.5786e-06
5.23188e-05
-4.45764e-07
-6.02592e-08
2.55906e-05
-0.000211164
-7.41808e-08
-0.000304974
0.00011755
0.000118511
-5.35106e-11
-2.70796e-08
-3.17544e-08
-0.000208351
9.98565e-09
-1.2475e-07
-4.71205e-05
-0.000280176
5.20085e-08
-1.46501e-07
0.000534288
5.17827e-06
-5.44857e-08
-8.91793e-08
1.07502e-07
-2.76063e-08
-4.3868e-05
-1.3568e-08
6.25889e-08
-1.24498e-08
-1.70408e-07
-0.000413883
-1.54323e-08
-0.000199578
-2.10442e-08
-0.000197133
3.68833e-08
-0.000107691
7.88468e-07
-6.09262e-08
0.000334618
-3.86777e-07
-2.06778e-08
-0.00136351
-0.0011706
-1.14291e-07
-3.06028e-08
-6.82831e-05
-0.000174033
4.95453e-06
-0.000104363
-1.59089e-08
-0.000272453
-0.000258477
3.44863e-09
1.87918e-09
-7.46392e-09
4.90865e-09
-0.000506869
-7.09567e-08
-1.55591e-08
-7.70888e-08
1.84871e-05
-7.82638e-08
-5.01884e-08
-3.35678e-08
-2.30272e-08
7.04194e-05
-5.6235e-05
0.000373663
-7.55377e-08
-0.00025505
1.94604e-08
-2.5497e-07
-4.57334e-08
0.000110661
-2.84813e-08
-1.56178e-08
-2.9314e-08
-3.12975e-08
1.11607e-08
1.40926e-08
1.48872e-05
-4.35986e-09
-9.28234e-08
-0.000128287
1.59145e-08
-2.26277e-08
-8.48529e-05
-0.000129849
-0.00111416
3.79327e-08
-6.25186e-10
-7.98053e-08
-2.17356e-08
-8.37981e-07
-2.37057e-05
-1.19525e-07
-1.79504e-10
-4.1335e-09
-8.43156e-08
-8.8008e-08
-9.59239e-08
3.32277e-07
-9.94621e-10
-8.87801e-08
-4.08979e-06
1.75919e-08
-7.25354e-08
-4.3835e-07
-0.000196925
3.06752e-09
-1.73373e-08
-0.000136584
-2.83097e-06
-9.41629e-08
3.59413e-08
-8.79509e-07
9.16464e-05
-3.25917e-07
-7.06328e-08
-7.88363e-08
0.000170099
1.52796e-09
9.91141e-05
-1.0652e-05
-0.000249495
2.09471e-08
-2.97421e-09
1.17455e-08
1.02014e-08
-9.50831e-07
-2.51231e-08
-2.38287e-08
-1.58018e-09
-1.50162e-08
-0.00025081
3.69026e-09
7.88808e-09
-1.79339e-08
2.9546e-05
-0.000351945
-3.34292e-08
2.83807e-08
-2.26433e-06
-1.02359e-07
-2.37403e-07
4.34365e-05
-1.78348e-06
-5.56708e-07
-1.41519e-08
-1.91118e-06
-3.89316e-08
-8.05849e-05
5.86257e-08
-6.09517e-08
4.43188e-08
-0.000213315
6.41739e-09
0.000122278
-1.53292e-07
-4.87204e-07
-4.04114e-09
0.000167841
-1.8425e-06
1.14315e-07
4.1906e-08
-1.59649e-07
-0.000282946
-4.64547e-08
-2.6159e-08
2.15185e-05
-7.58242e-08
1.04501e-07
-5.00479e-05
-1.37616e-07
-1.04757e-07
-4.45691e-08
-0.00129058
-1.74158e-08
-2.44025e-08
-0.000164884
-2.23025e-08
1.4957e-08
-1.4218e-05
2.24931e-08
-6.26984e-08
2.45485e-08
-2.53236e-07
0.000144527
-5.64477e-08
-1.93161e-08
0.000371528
1.21353e-08
-0.00012704
-5.73585e-08
-0.000409933
-5.56081e-09
-2.68969e-08
-6.18719e-08
-0.000109048
-7.56012e-08
-9.24796e-08
-9.4935e-08
-1.56762e-07
-1.62788e-08
-2.97287e-08
-0.000131434
-0.000148125
-4.35228e-08
-5.27027e-05
-1.90372e-06
-9.82854e-08
-0.000282662
-1.60833e-08
7.10217e-10
1.52324e-07
0.000363263
-2.18327e-06
-9.78041e-09
-2.85551e-08
-1.54841e-08
7.99677e-05
-3.32832e-08
-2.64505e-08
-4.59077e-06
1.18376e-07
-2.81019e-08
-3.12928e-05
-5.52494e-05
-7.20799e-08
-1.67499e-08
-0.000216424
-1.03249e-10
-7.87963e-08
-3.51684e-05
-2.7981e-06
-0.000279843
-1.46826e-08
3.75319e-05
-2.968e-09
-6.47111e-08
4.97386e-08
-4.69786e-08
-9.61416e-06
-1.31748e-05
-2.41524e-08
0.000124974
1.42063e-08
-1.00044e-07
-7.51557e-05
2.2061e-08
-3.27724e-05
2.25931e-06
-1.14183e-07
-0.00133115
3.18557e-08
-0.00025828
-2.28107e-08
-4.56212e-05
-5.39288e-08
-8.28452e-10
-0.000177142
-6.40684e-08
-5.84674e-08
-0.000436804
1.22636e-08
-3.61003e-08
-0.000192882
-7.34299e-08
0.000219145
1.99347e-08
-2.86711e-09
7.03152e-08
-6.19561e-05
-1.88766e-08
-0.000813863
5.74924e-08
-1.60356e-07
1.48356e-08
-2.52943e-08
2.10978e-05
-0.00141138
8.08022e-09
-0.000433442
-0.00011689
-5.87037e-09
5.16397e-08
-2.56791e-08
-2.87021e-06
-3.1928e-08
-1.24965e-07
0.000151614
1.64613e-08
2.55852e-05
-2.28489e-07
-0.000271949
2.35e-05
-5.28102e-08
0.000190234
-0.000345101
-0.000330816
-0.000285503
-5.8427e-09
-7.43079e-09
-0.00027564
-2.50105e-07
-0.000438942
-0.000314101
-1.27077e-08
-4.44468e-08
-1.80751e-08
-2.55122e-08
-1.70193e-06
-3.10055e-08
-0.000254098
-5.63452e-08
-2.76699e-07
2.79178e-06
-0.000202499
4.1227e-08
2.35212e-09
1.47737e-07
-0.000306879
-3.78898e-08
-5.47167e-07
1.1161e-05
-0.000259505
-2.22625e-08
-5.66089e-05
2.38107e-08
-8.3094e-06
5.75208e-08
-2.28021e-09
0.000614249
-0.000224006
-0.000212296
-0.000212028
-1.85941e-08
-5.23189e-08
-2.72869e-09
-2.17917e-05
2.56081e-08
0.000119148
-7.87869e-08
-5.8802e-08
7.86157e-09
-1.05512e-08
0.000136595
0.000137382
-3.88314e-08
3.62429e-09
1.53977e-08
2.18891e-09
1.96901e-05
-1.5316e-05
-3.03207e-08
-0.000234149
-0.000268388
-4.51897e-08
1.9321e-08
-0.000246995
-5.57149e-06
-0.000283414
3.92778e-07
-2.80257e-07
2.90062e-10
9.3882e-09
-0.000184835
0.000166338
-1.39871e-05
-0.000231804
-1.03918e-07
0.00018429
2.07304e-08
0.000128266
-4.8604e-08
-1.04535e-06
1.53651e-07
-2.1999e-08
0.000114758
-4.71272e-09
0.000242244
-1.68534e-08
-0.000448497
-1.03581e-07
-8.88535e-08
1.33078e-05
-0.000290778
-1.44609e-07
-6.46953e-05
-4.34923e-06
-1.48269e-08
1.80527e-05
-3.20484e-05
-0.000178456
-0.000389072
1.05478e-07
-6.75945e-08
-2.0423e-08
-1.14423e-07
7.12176e-08
-8.489e-09
-0.00143631
-5.37868e-05
-5.69573e-08
-0.000544571
-1.17075e-07
-0.000295028
-3.4121e-08
-2.23562e-08
-3.60418e-08
0.000298364
1.71775e-08
-0.000529091
1.08199e-07
2.37906e-08
-2.81524e-06
-1.99267e-08
0.000111251
-1.8419e-06
-8.41817e-09
-3.0842e-08
-2.8626e-05
-9.14935e-08
-0.000504391
-4.55408e-09
-1.64648e-07
-2.17199e-07
-1.47196e-06
-3.70729e-08
-3.79464e-08
-1.42942e-07
1.642e-08
-0.000104349
1.28841e-08
6.74574e-09
2.33679e-09
-1.39535e-08
7.28708e-05
-0.000103852
-1.51193e-07
-7.24218e-08
-5.55526e-08
-9.19462e-08
-0.00025134
-7.28817e-09
-7.25559e-09
-1.50881e-07
-0.000269727
8.16696e-09
-2.32784e-08
-7.64578e-08
-9.8729e-08
-2.01434e-07
-0.000102243
-3.0492e-05
-2.12903e-08
-6.42885e-08
5.09593e-09
4.37537e-08
-5.57266e-08
-8.02691e-06
-6.83192e-09
1.48338e-05
-0.000372417
-0.000259039
-6.20456e-08
-0.000222688
-0.000214486
-1.49833e-07
-7.98214e-08
-7.76291e-08
-1.88316e-08
2.52251e-05
-2.99563e-08
2.91594e-06
-8.41764e-08
1.66247e-08
-7.0244e-08
0.000234485
-1.48247e-05
1.59439e-07
-1.11663e-08
-0.000202226
0.000262846
2.21092e-05
-4.52497e-09
-0.000179673
-2.85395e-06
-6.50862e-08
-0.000292854
4.46965e-08
7.00183e-08
-0.000958859
0.000670278
2.97699e-06
-2.90776e-08
0.00023945
-0.000312254
-0.000211255
1.45876e-07
-0.000222247
4.37907e-08
-0.000113943
-5.12007e-08
1.56846e-08
-9.3449e-08
-0.000618485
-0.00058337
2.38874e-08
-0.000152796
3.92918e-08
1.02002e-08
-0.000238898
-3.15131e-08
8.60239e-07
-7.71842e-08
-0.00049196
-8.70159e-08
-3.46821e-08
-1.33048e-07
4.34184e-08
-0.000163473
-1.98116e-06
-0.000524998
1.79183e-08
-6.46169e-08
-1.46561e-08
-2.0483e-09
-1.98048e-08
-4.67577e-06
-0.000164673
-2.34154e-08
-4.18973e-06
7.58287e-08
-0.000247806
-3.16707e-09
-0.000727832
-2.15744e-06
-1.23573e-07
5.5608e-10
-0.000105741
-9.57699e-09
-3.34826e-08
-8.83468e-10
-1.54507e-08
-0.000204579
1.51976e-05
-6.07589e-10
-8.4049e-09
0.00024109
-1.20549e-08
-1.49556e-07
4.52677e-08
-3.25211e-08
2.32672e-08
7.32795e-08
-0.000183891
1.45663e-08
-3.26297e-08
-0.000605577
0.000144445
-3.74544e-08
-1.13621e-07
1.27544e-08
0.00021374
-1.44439e-08
3.07209e-08
-7.13474e-05
9.0318e-09
-1.02506e-08
-1.44545e-06
-8.63734e-08
-1.08745e-08
-2.45165e-08
0.000112504
-1.72416e-07
-3.90749e-05
9.0396e-08
-0.00049278
-1.62577e-05
8.16339e-07
6.37555e-05
6.74675e-05
1.6638e-05
-3.46766e-07
0.000198649
-0.00039584
-1.12308e-05
0.000158328
-0.000427742
-3.42901e-08
1.91762e-08
-3.24659e-08
-4.99013e-05
-5.28706e-09
-1.07838e-07
-1.82617e-08
-1.63471e-08
-1.2952e-08
7.79755e-09
-0.000484309
-0.000240962
-2.99979e-08
-5.83645e-05
-1.29432e-05
-1.84037e-06
-0.000490697
-1.45328e-08
-3.39733e-08
0.000341415
-6.00177e-05
1.50795e-08
-0.000225843
-3.43943e-08
-8.60408e-08
-2.53924e-08
-9.23511e-05
-6.64502e-05
0.00028083
8.26081e-05
-4.88433e-08
4.09489e-06
-1.17165e-08
0.000446492
-5.4117e-08
8.02807e-05
0.000106544
-6.51514e-05
5.70418e-09
-1.46633e-07
-1.29177e-08
-0.000151313
-3.5885e-08
-8.56999e-05
1.84015e-06
4.56776e-09
2.15481e-05
0.000190223
-4.06139e-09
-2.37882e-09
-1.35213e-08
-2.72341e-06
-3.02786e-09
-0.000545402
1.36136e-08
-1.01562e-07
-0.000203714
4.3154e-05
-0.00134219
-6.37548e-09
-3.63748e-05
1.49306e-08
-2.71776e-07
-5.05532e-08
1.43092e-08
-2.2439e-06
-5.23425e-06
-3.46291e-08
1.24999e-06
-4.65181e-08
-4.35585e-09
-3.59569e-08
-9.17858e-09
-7.03449e-08
-1.54405e-07
-0.000475126
0.000410104
-1.69103e-08
-0.000248183
-0.000253175
0.000161448
0.000239563
-7.73032e-08
-2.03024e-08
1.78443e-08
-5.40691e-08
-1.41775e-07
-0.00075164
-3.67576e-08
-1.95805e-06
1.4559e-06
-2.58934e-08
1.11765e-10
0.000128809
0.000465305
-0.00017973
-1.39324e-07
-1.47663e-08
-1.49495e-06
-1.22592e-08
3.82248e-05
-2.7203e-08
-1.59668e-08
-8.95008e-09
0.000101882
-4.25361e-08
1.32437e-07
-3.06911e-06
-2.22551e-08
-2.07487e-08
-0.000129753
-2.79017e-08
-1.66728e-08
-2.57957e-08
-3.93964e-09
-0.000283214
0.000217095
-0.000351281
7.1921e-09
-1.95376e-08
8.45706e-05
-0.000237262
0.000682835
-1.28633e-08
-2.8428e-06
-0.00143131
-2.20366e-06
-9.1467e-05
-3.18005e-08
-0.00064057
-9.02152e-09
-2.43456e-08
-0.000373803
-2.82962e-08
7.31898e-09
-0.000213414
-9.0345e-05
-1.28678e-07
-1.94732e-08
-8.69567e-07
-0.000192637
-2.2442e-08
3.53434e-08
6.97254e-06
-5.90059e-08
3.26822e-08
-4.87702e-08
2.42966e-06
-2.72131e-09
0.000197405
-8.01667e-07
-0.000251814
4.49202e-08
0.000170634
6.0066e-09
2.30628e-08
-0.000380056
-2.85342e-08
-0.000519961
-1.34436e-07
2.82451e-08
7.29728e-10
2.01454e-08
7.78731e-05
-0.00117082
-8.29352e-06
5.32201e-05
-4.89007e-08
-1.21146e-08
-0.000104162
2.34071e-09
4.92324e-08
1.13538e-07
-3.52452e-08
-3.16857e-08
-8.73723e-09
-8.71856e-08
-3.92975e-08
-1.50641e-07
-0.000290468
-8.83508e-08
-0.00025337
-1.09412e-07
1.33573e-08
-1.00511e-07
7.45769e-09
-0.000144051
-1.57394e-07
-2.56854e-06
-0.000878034
-1.07627e-05
-4.65891e-08
-1.26163e-07
-9.01476e-09
2.53626e-08
-0.000514467
0.000187232
0.000134866
1.64752e-08
-6.19691e-08
0.000700231
1.23912e-06
3.82304e-07
-3.12772e-10
3.99374e-09
-2.51615e-08
-0.000129174
-0.000303031
-6.0207e-05
-6.0428e-06
-1.21043e-07
-1.3186e-07
-4.22726e-05
-0.000272367
-1.17814e-07
-1.13717e-06
-5.46365e-08
3.91462e-09
2.14241e-08
-6.08161e-07
-0.000713072
8.75306e-05
-0.000367756
-1.7749e-06
3.79306e-10
2.08704e-09
-0.000220298
-1.07872e-05
-0.00026339
0.00041587
-3.02516e-07
-1.05079e-07
0.00017294
-0.000408671
-7.89214e-08
-3.40674e-08
-0.000114034
-3.37291e-09
2.47671e-10
-0.000190988
-7.61723e-08
-6.21568e-08
-1.14701e-06
-0.000216163
8.84688e-05
-5.54342e-08
-1.30927e-08
5.71e-09
-9.65422e-08
-2.03036e-08
-2.13085e-08
-8.25963e-09
-6.65427e-08
1.94527e-05
-7.98077e-07
-1.844e-08
-6.10979e-09
0.000139913
-4.52949e-05
1.67979e-08
-5.58618e-08
2.87893e-08
-2.7123e-08
1.41935e-08
-1.73602e-08
-8.21499e-09
0.000178882
-5.68571e-11
-4.60464e-08
-1.66774e-06
-4.50331e-06
-0.000263455
-0.0005684
-1.99693e-07
1.34617e-05
0.000153631
-0.000264119
-9.99626e-05
-1.85871e-08
-8.22381e-08
-0.000192795
-3.04862e-05
-3.57354e-06
-0.000284696
-1.81703e-07
3.09666e-05
-0.000193518
-0.00021947
7.23242e-08
-1.1347e-07
-0.000462426
-0.00050161
-3.1117e-08
-1.95288e-05
-1.24719e-05
-1.91364e-08
-1.96233e-08
-3.5642e-08
-4.57514e-06
-1.25757e-06
7.71642e-08
9.25448e-06
0.000173462
1.6937e-06
-0.000297081
-2.97705e-07
-7.46924e-08
-7.48779e-05
-0.00050483
-4.13359e-06
-1.54414e-08
0.000183668
-1.10915e-08
-8.6443e-07
3.26014e-08
-0.000447736
-1.0865e-08
4.80972e-08
-1.24162e-08
-0.000215561
-2.66838e-09
-1.06071e-06
2.88363e-08
-0.00117799
-6.6166e-05
-4.78297e-08
-2.19779e-05
-5.41989e-08
-9.69597e-09
-0.000179602
0.000384096
2.96828e-09
-3.6811e-08
-1.61638e-05
-2.87082e-07
-3.36882e-08
5.64685e-09
8.4768e-10
-8.56851e-07
4.01766e-07
-3.27263e-08
5.22393e-08
0.000640782
-0.000207345
0.00036905
-1.25891e-07
0.000290817
-5.96656e-08
2.25489e-08
-1.76801e-08
-0.000700882
-6.53491e-09
3.22122e-08
-0.000125991
-3.89703e-07
-1.48633e-08
-0.000359949
-5.89661e-08
-5.10282e-09
1.87391e-05
-5.34613e-06
-3.36054e-08
-9.76719e-08
-3.54338e-05
-9.72229e-09
-1.45035e-08
-0.000309557
1.88293e-07
-4.51603e-07
-8.54426e-08
3.44383e-08
-8.04433e-08
-0.000228077
-1.32155e-08
1.83185e-07
-0.000136409
6.93454e-09
-4.16984e-09
4.66744e-05
4.29254e-08
-4.15809e-05
-2.87923e-06
-3.48976e-10
-9.89244e-06
-7.163e-08
-8.60903e-09
-3.28121e-07
-0.000264427
-2.29808e-08
-8.50369e-08
-0.000307291
-7.59338e-08
0.000657864
-1.89716e-09
0.000446596
-7.15635e-08
-3.55673e-08
-2.14397e-06
-4.49104e-09
0.000137721
1.24795e-05
1.8313e-09
1.52552e-08
5.2864e-09
-1.3347e-08
1.25756e-07
-8.85463e-07
-9.18883e-08
-1.81609e-05
-6.84204e-08
-6.70249e-08
3.88653e-05
-0.000208708
2.94596e-08
-2.42572e-08
1.16866e-05
-5.5297e-05
0.000261228
-1.28462e-07
-1.6224e-07
-3.13762e-08
6.14097e-06
-7.41703e-05
-8.31002e-08
0.000105332
1.90154e-05
-9.24047e-06
-5.16831e-08
-1.00151e-06
2.09889e-08
-5.33596e-07
0.00010332
-3.69497e-09
1.23085e-08
-2.20821e-07
0.000132504
-2.75068e-06
-0.0002131
-1.39202e-06
-3.19796e-07
1.23273e-08
2.78553e-08
-4.06845e-08
2.20611e-08
-2.99884e-08
-8.53408e-08
9.71209e-08
9.9596e-05
1.68118e-07
-2.02739e-07
-0.000133092
-0.000310769
6.94678e-09
-1.72352e-08
9.71282e-09
-0.000288712
-2.61172e-08
-4.51466e-08
-1.35483e-07
7.19918e-08
-5.11656e-08
-3.41643e-05
-5.326e-08
-5.11042e-08
-0.000213317
-0.000105237
-0.00119246
6.4023e-09
-0.000402397
-7.54401e-08
-3.21238e-08
-2.73845e-08
-0.000232534
1.64013e-06
-1.69553e-09
1.62661e-09
-0.000302102
-5.47424e-08
-5.32827e-08
1.41436e-08
-1.91484e-08
-4.56841e-09
-4.16372e-09
-0.000414689
-3.48282e-08
-0.000309752
-2.04268e-08
-0.000240418
-8.27832e-08
-9.24425e-05
-1.2229e-07
-9.09061e-08
8.49473e-08
6.10751e-08
-2.27134e-08
-0.000507768
-1.28727e-07
-2.74096e-06
2.39792e-08
-2.83705e-06
1.9909e-07
4.08081e-07
-1.84297e-06
2.16981e-05
-0.000228537
3.07553e-09
-5.7705e-05
-2.32143e-07
-1.28486e-08
-0.00023841
-8.78635e-08
1.33497e-07
-0.000296932
6.41854e-08
-1.0769e-07
-4.0101e-09
1.57851e-08
-2.55779e-05
-5.74855e-07
-8.60673e-08
-2.961e-08
-9.44721e-05
6.49711e-05
-1.17901e-06
0.000178179
-4.32102e-07
-8.24646e-08
-0.000253309
-0.000663952
-1.74688e-05
0.000226577
-0.000871915
-2.07972e-06
-6.91114e-08
-3.76717e-08
1.43066e-08
-6.82765e-08
-1.36975e-08
-3.83349e-08
6.07741e-05
-1.43551e-06
3.30199e-08
-8.14368e-05
-2.79925e-08
-0.000518735
3.36369e-06
-7.36492e-05
0.000104814
1.81032e-06
-0.000228242
-8.05158e-08
-1.07688e-07
-0.000122311
-1.64428e-05
-2.49624e-09
-1.22847e-09
-2.88369e-05
-0.000598814
1.38019e-08
-0.000206356
-2.96442e-08
1.11689e-08
-4.79049e-07
0.000163763
-0.000418544
-0.00122795
-2.21068e-08
-3.93108e-08
-1.26184e-08
7.47977e-09
7.28412e-09
-1.00148e-07
-0.000257473
0.00010149
-7.9767e-08
-7.51479e-08
-0.000159614
1.2318e-08
1.48418e-08
-1.46742e-07
-9.2853e-08
-0.000505125
-0.000433312
-1.18313e-07
-0.000220934
-2.99057e-08
-0.000494781
-0.000285822
1.64161e-09
-8.77065e-08
2.74314e-08
-0.000276877
-3.64859e-08
-2.52903e-09
7.7995e-09
-1.26633e-07
-0.000253682
-1.93921e-07
-9.99377e-09
-1.31205e-08
-4.46014e-08
6.25841e-09
-0.000269601
7.79539e-05
4.74662e-05
5.74819e-08
0.000363865
2.84173e-06
-2.60613e-08
-3.17477e-08
-1.97657e-08
-6.21691e-05
1.80522e-06
-4.86794e-08
-0.000252306
-0.000333974
1.32336e-08
-2.48514e-08
3.86169e-05
-4.36253e-08
9.43382e-09
-1.71582e-05
-1.96941e-06
-1.6019e-08
5.59687e-09
8.98934e-05
-0.000256132
-1.70504e-08
-3.23804e-08
-2.12381e-08
-4.67481e-05
5.00693e-08
-0.000350137
-1.47639e-07
-0.000246949
-0.00048452
0.000214454
-8.6532e-06
-3.91022e-08
-1.34454e-08
4.51746e-08
-0.000115895
4.2781e-05
1.2018e-07
-0.000135693
-0.000234551
-4.68967e-05
2.04711e-05
-5.03324e-08
-9.71327e-05
-3.94162e-05
-7.62424e-09
1.30196e-08
-0.000513333
-1.74306e-07
-1.51608e-05
4.32607e-09
0.000321468
6.35376e-08
6.40227e-05
-8.18734e-05
-1.94597e-06
7.12741e-09
-1.9922e-08
3.50588e-05
7.61279e-09
-9.51239e-10
-8.56835e-07
2.62661e-09
-0.000312666
-0.000177747
-3.81757e-06
0.00016658
-8.03023e-07
-1.08189e-06
4.61072e-09
-4.25496e-06
2.38408e-08
5.3222e-08
-9.85285e-09
-1.02961e-05
-0.000323254
1.1452e-08
-0.000231755
-1.57015e-10
-0.000333897
-0.00026818
-5.39641e-06
9.39224e-09
-0.000261779
-0.000110263
-1.64375e-05
-0.00026481
-1.87815e-07
-1.54198e-05
1.85341e-05
1.90086e-08
7.08115e-05
2.41023e-07
-3.00491e-07
-1.33116e-05
1.48462e-07
-0.000161667
4.95198e-06
-6.87557e-08
-1.16129e-07
-0.000250298
-4.23203e-05
-3.02204e-08
-1.18242e-06
-4.69282e-05
2.21108e-05
-4.80268e-05
-0.000176908
-5.20434e-08
8.47009e-09
-4.70966e-09
4.72311e-05
4.25195e-08
1.08251e-07
-6.67255e-08
3.84478e-08
1.73997e-08
-0.000535362
2.88795e-07
-0.000261667
-0.00165709
-5.35232e-08
-1.78494e-06
-0.000173867
-2.14799e-08
-1.90755e-06
-5.63354e-07
1.51715e-08
-6.90802e-05
-9.33711e-05
-1.59822e-08
-5.92846e-06
-1.05884e-06
-8.14927e-08
-2.53883e-08
-1.07152e-07
-4.70882e-09
5.37561e-09
-9.27022e-08
-4.05703e-08
-2.56507e-07
-4.93137e-07
-2.23989e-07
-2.8882e-08
-1.26605e-06
-3.1928e-08
-0.00115023
-0.000388463
-1.73694e-08
-1.11308e-07
-1.01623e-07
0.000122253
0.000208874
4.60451e-06
9.09613e-05
-1.27736e-07
-6.28571e-08
2.12607e-05
-7.22058e-09
-9.40602e-08
-0.000157065
-1.72318e-09
-0.000366089
-1.65021e-08
9.03061e-08
-1.6514e-06
-1.72294e-08
-1.30588e-07
8.08447e-08
-0.000306661
-1.92873e-07
-4.06749e-05
0.000140264
-1.69127e-08
4.66748e-06
7.65628e-08
-2.75169e-08
-1.79901e-08
9.04331e-08
0.000165354
3.90905e-09
8.43773e-09
-1.94576e-06
-8.95714e-05
-2.24644e-08
-6.95174e-08
1.09575e-06
-7.63152e-08
3.81209e-08
4.46101e-09
1.95726e-08
-1.76701e-07
3.58067e-05
6.22795e-08
-0.000240651
-6.75391e-06
9.63786e-09
8.08531e-06
9.28641e-10
-5.33078e-08
-7.13825e-08
-0.000247664
-7.38233e-05
-1.19124e-07
-8.86216e-08
-2.55158e-08
2.71578e-09
-0.000179743
-8.25929e-09
-8.14928e-08
-3.39896e-08
-1.20996e-07
-0.000490108
-0.00023323
-8.61392e-09
-6.45275e-09
-1.62579e-08
-0.00187515
-0.000241884
-5.69478e-08
-1.00754e-09
-8.63677e-08
0.000151472
-0.000102053
-3.86458e-05
-7.2528e-08
2.68994e-08
-3.17851e-08
-2.10756e-07
-1.08503e-07
-3.0416e-06
-8.48776e-06
-2.26846e-05
-5.96389e-08
1.69758e-09
-4.55278e-09
0.000121902
-2.5987e-08
0.000516017
-2.24978e-08
-3.98905e-09
-1.43317e-07
-1.01673e-08
3.15927e-08
-7.27202e-08
1.43703e-08
2.99293e-05
1.41386e-09
-4.99245e-08
4.09259e-08
-0.000137704
-7.96664e-08
9.44941e-06
-5.14991e-09
5.2998e-08
-2.17185e-08
-3.89695e-08
-7.29472e-08
-1.27637e-08
0.000141693
-5.50646e-08
-5.11665e-05
-0.00140364
-1.00643e-07
-0.000640107
-9.0509e-07
-1.11972e-06
-6.31085e-05
-0.000269136
-6.96493e-05
7.73371e-09
1.58401e-08
-1.25711e-07
-0.000274234
-0.000531399
2.28941e-05
-0.000417401
-4.41794e-05
-5.69071e-09
-0.000427584
-9.77481e-06
-0.000283115
0.000262576
-0.00012624
0.000162223
2.31029e-07
-3.44871e-08
-1.69854e-06
-2.42739e-06
-0.000208372
-2.82045e-08
-2.08921e-08
-0.000242722
-7.26101e-08
2.28958e-05
-3.17887e-05
-1.3409e-07
2.30472e-08
1.07387e-09
0.000216428
-2.31175e-08
8.07182e-09
-0.000237164
-4.97434e-08
-0.000146725
-7.67567e-06
-0.000260493
8.30979e-09
-3.62745e-08
2.46994e-06
-3.08803e-06
-0.00019297
-2.07664e-07
-1.75302e-05
-4.28088e-07
-3.0833e-08
2.24796e-05
3.31826e-08
-0.000154742
4.03039e-09
-4.04257e-09
-1.57155e-06
9.15962e-09
4.76207e-09
9.11563e-08
-1.71723e-07
-0.000715738
7.45887e-05
1.7977e-08
-4.88557e-08
0.000154429
-2.07365e-07
1.3825e-05
-0.000274375
0.000283611
-9.28551e-08
-0.000503769
0.000123175
-5.71146e-06
-2.03197e-07
-0.000183697
-6.48478e-05
-0.00104194
6.55708e-06
-2.50473e-09
-0.00133146
-0.000185886
7.71071e-05
-0.000184646
-3.15993e-08
-4.87469e-05
-0.000331261
-3.28364e-08
-1.13398e-08
-8.47014e-08
1.97396e-08
-1.82004e-05
0.000277838
-1.6053e-06
-3.97466e-08
-6.32474e-09
-5.09101e-09
-3.81189e-08
-0.000286176
-0.000445844
-1.59178e-05
-5.40653e-08
-0.000147325
-7.06895e-06
-4.16759e-08
-1.35558e-07
1.44524e-07
1.08447e-06
1.1172e-08
-2.81613e-08
-1.75782e-09
3.43082e-09
-0.000321066
8.91936e-05
-1.64482e-07
-6.93737e-07
-1.33285e-07
-1.30087e-08
-2.33038e-10
-7.36372e-09
-6.67479e-08
2.25831e-05
8.14223e-08
-2.46404e-06
-4.10833e-08
-3.57803e-09
-1.91064e-08
-1.57923e-08
-2.36592e-08
0.000194299
-1.48068e-06
2.51509e-07
1.39773e-07
-1.08049e-05
-1.91606e-07
-1.52568e-07
-2.21582e-06
-1.73319e-08
8.91248e-06
-8.43055e-05
-5.97979e-08
-1.77409e-05
-2.1685e-07
0.000240451
-9.78224e-05
-4.17305e-08
1.85207e-06
-4.45003e-08
-0.000128086
-1.14638e-06
-1.11785e-08
-9.9761e-05
8.61898e-05
-2.61284e-08
-0.000248414
0.000120516
9.96168e-06
-2.56071e-08
-8.75881e-05
0.000112677
0.000180596
0.000103402
0.000234974
0.000269457
-3.54915e-08
1.20921e-07
-0.00116399
-1.7697e-08
0.000273671
0.000178604
1.07442e-08
-1.56881e-08
-8.08893e-09
-0.00159716
-0.000129724
-9.42646e-09
-9.82895e-08
-1.12257e-07
-9.80681e-08
-0.0015598
8.51401e-05
-1.0883e-05
-2.39143e-08
-0.000189543
1.61979e-07
-2.92264e-09
-1.47621e-07
-8.92327e-08
0.000199798
-0.000495482
-6.56119e-05
2.71799e-09
-0.000138349
-1.38777e-07
-0.000200507
5.34783e-09
-9.69826e-08
-5.15414e-09
1.62828e-07
-2.2431e-08
-0.000376893
-7.82719e-05
-6.86396e-07
3.88062e-07
-3.36243e-07
-0.000273072
-0.000377173
1.57487e-08
-5.20636e-08
8.78493e-06
-3.17169e-08
-8.67078e-05
-0.000173275
-0.000729553
0.000189624
-1.77531e-08
-2.38852e-08
1.09254e-07
-3.06373e-08
0.000129844
-0.000546826
-0.0001839
-5.09243e-07
1.05863e-08
5.89496e-08
7.79314e-09
-1.82778e-08