/*--------------------------------*- C++ -*----------------------------------*\
| =========                 |                                                 |
| \\      /  F ield         | OpenFOAM: The Open Source CFD Toolbox           |
|  \\    /   O peration     | Version:  v2012                                 |
|   \\  /    A nd           | Website:  www.openfoam.com                      |
|    \\/     M anipulation  |                                                 |
\*---------------------------------------------------------------------------*/
FoamFile
{
    version     2.0;
    format      ascii;
    class       surfaceScalarField;
    location    "50";
    object      phi;
}
// * * * * * * * * * * * * * * * * * * * * * * * * * * * * * * * * * * * * * //

dimensions      [0 3 -1 0 0 0 0];
oriented        oriented;


internalField   nonuniform List<scalar> 
27506
(
-0.0216994
0.0136937
0.00800573
0.29613
0.206219
-0.50235
-0.249371
-0.126117
0.375488
0.0034404
-0.00533343
0.00189303
0.264445
-0.174864
-0.0895801
-0.24161
0.157997
0.0836125
0.169009
0.0954354
0.0563191
-0.156971
0.100652
-0.0656762
0.0267469
0.0389293
0.155148
0.105681
-0.260829
-0.102421
-0.0690634
0.171485
-0.23201
0.339794
-0.107784
0.00598314
0.000691042
-0.00667418
0.0658763
-0.272216
0.20634
0.00445882
0.0064139
-0.0108727
-0.0332717
0.103752
-0.07048
-0.0422472
0.101644
-0.0593966
-0.0983765
0.11749
-0.0191139
0.00296557
-0.000975429
-0.00199014
-0.015467
-0.00664619
0.0221132
-0.0679178
0.00618247
0.0617353
-0.06037
0.148064
-0.087694
-0.495017
0.228918
0.266098
0.00139806
0.00198474
-0.00338279
0.174973
-0.118654
0.0634915
-0.148437
0.0849457
-0.00395826
0.000183614
0.00377464
-0.0881448
-0.0616567
0.149802
0.0895011
0.120959
-0.21046
0.0584438
-0.029453
-0.0289908
-0.0624187
0.358549
-0.419383
0.227829
0.191554
-0.0643303
-0.0557489
0.120079
0.000534046
-0.000628803
9.47569e-05
-0.0869902
0.162453
-0.0754631
0.00566629
-0.00222589
-0.133735
0.0733647
0.124321
-0.401872
0.277551
0.43418
-0.319139
-0.115041
-0.0210273
0.0605804
-0.0395532
-0.0729541
-0.341114
0.414068
0.403852
-0.131059
-0.272793
0.00973485
-0.000655024
-0.00907982
0.0290267
-0.0443921
0.0153654
0.0775025
-0.165647
0.143968
-0.0804769
0.0574097
-0.0752673
0.0178576
-0.393245
0.143874
0.012893
-0.0808107
0.0847186
0.112475
-0.197194
0.298738
-0.232862
0.00932469
-0.0106531
0.00132839
-0.022949
0.007482
-0.580361
0.436688
0.143673
0.182924
-0.116971
-0.0659536
0.067833
-0.224392
0.156559
4.44606e-05
0.00593868
0.00432445
-0.00629305
0.0019686
-0.0071454
0.0127993
-0.00565392
-0.326203
0.0105785
-0.00620469
-0.00437381
-0.121709
-0.0898546
0.211564
-0.172748
0.1158
0.0569478
-0.126928
0.0756019
0.0513259
-0.0266192
0.0115044
0.0151148
0.323051
-0.106796
-0.216255
0.079941
-0.0630475
-0.0168935
0.58986
-0.426617
-0.163243
0.011557
-0.0121604
0.000603426
0.273585
-0.402071
0.128486
-0.156944
-0.0728451
-0.0268606
0.0997057
0.116845
-0.154923
0.038078
0.00490568
-0.000581226
-0.0740577
0.162641
-0.0885829
-0.122185
0.0740241
0.0481612
-0.116353
0.0741062
-0.450918
0.491225
-0.0403077
-0.152087
0.0537108
-0.0486022
0.116942
-0.0683394
-0.123521
0.201742
-0.0782205
-0.0237921
-0.0356231
0.0594152
0.297027
0.249665
-0.546691
-0.152297
0.0483177
0.103979
0.00770796
0.00287054
0.0117784
-0.00700514
-0.00477326
0.0421155
0.23298
-0.275096
-0.131312
0.473247
-0.341935
0.0565773
0.112621
-0.169198
0.00638858
0.00538982
-0.121805
0.0903573
0.0314481
0.10828
-0.126164
0.0178846
-0.0549561
-0.0627943
0.11775
-0.468083
0.460476
0.00760708
-0.110475
0.249661
-0.139186
0.248846
-0.0936976
0.206197
-0.0977021
-0.108495
-0.199525
0.149755
0.0497699
-0.0169558
0.0152026
0.00175326
-0.00415511
0.000743271
0.00341184
-0.0759707
0.317674
-0.241704
-0.462344
0.478074
-0.0157301
-0.12623
0.0776278
-0.086688
0.0534163
-0.00121338
-0.00677904
0.00799242
0.0564026
-0.120733
-0.283065
0.207094
0.00284844
-0.00267763
-0.000170806
-0.111875
-0.0608729
-0.167333
0.194333
-0.0269996
0.00283416
-0.00283416
-0.000478309
-0.00258361
0.00306192
0.00474081
-0.455659
-0.218507
0.0854936
0.133013
0.00457998
-0.00943791
0.00485793
0.153733
-0.0200564
-0.133676
-0.0799149
0.145028
-0.0651131
-0.0696115
-0.129913
-0.169169
0.0821793
-0.189647
-0.0519625
0.00430214
-0.00133657
0.0534896
-0.0313677
-0.0221219
-0.00498216
0.0102901
-0.00530791
-0.0194307
0.0368548
-0.0174241
-0.401718
0.394371
0.00734699
-0.127563
0.217064
0.254065
-0.0735656
-0.1805
-0.120732
0.0582995
0.0624329
0.0103679
-0.000633102
-0.0766097
-0.0455756
-0.103451
0.0807597
0.0226911
0.10684
0.0468923
-0.16977
0.0957124
0.041286
-0.0520476
0.0107615
-0.275911
-0.117334
-0.463054
0.0694119
0.393642
-0.182774
0.0803531
-0.111684
0.20899
-0.0973064
0.0586846
0.16619
-0.224874
0.229508
0.0935435
-0.0166082
-0.010011
-0.0684811
0.135731
-0.0672503
-0.21016
0.127566
0.0825935
-0.00240841
-0.0596712
0.313591
-0.25392
-0.199551
0.479488
-0.279938
0.163492
0.0905736
0.00395001
0.037336
0.0679183
-0.179602
0.046805
0.00668454
-0.458975
0.297132
0.161843
0.251142
-0.0858997
-0.165243
0.119783
0.227682
-0.347465
-0.00684606
0.00573257
0.00111349
0.0517927
-0.00642238
-0.0453703
-0.0258954
-0.0397808
-0.0458695
0.0220774
0.237256
-0.296927
-0.411857
0.160083
0.251774
-0.00047253
0.00332097
-0.102498
0.164916
-0.0624185
0.153139
0.00277257
-0.155911
-0.544797
0.360096
0.184702
-0.400845
0.124934
0.00778445
-0.00875988
-0.329394
0.0973841
0.0484278
-0.0218601
-0.0265676
-0.0564284
-0.064304
0.0128877
-0.0084289
0.297772
-0.114379
-0.183393
-0.463287
0.331975
-0.118164
-0.0917703
0.209935
-0.133643
-0.0790483
0.212691
0.175872
-0.119295
-0.255707
-0.013859
0.269566
-0.0135168
0.0263531
-0.0128363
0.0982542
-0.219963
0.00274123
-0.00440213
0.0016609
0.0331111
0.0186816
0.0684496
0.00854513
-0.0769947
-0.187124
0.201382
-0.0142572
0.0521291
0.062069
-0.114198
-0.0327087
0.185847
-0.0155949
0.123875
0.127152
0.0147915
-0.141943
0.0055179
-0.000323623
-0.00519427
-0.178244
0.246636
-0.0683918
-0.166732
0.249792
-0.0830596
0.105305
-0.0444418
-0.0608633
0.0566103
-0.136525
-0.208074
0.08991
-0.222877
0.0993555
-0.00378016
0.000977655
0.0028025
-0.378762
-0.0229558
0.0124278
0.0460126
-0.0584405
-0.186137
-0.22572
-0.24037
0.159148
0.0812228
0.0445423
0.0490197
-0.093562
-0.0403433
-0.111953
-0.183711
0.109547
0.0741635
-0.0608285
0.144344
-0.0835157
-0.0931137
0.145934
-0.0528199
-0.0364986
-0.0844368
0.120935
-0.12221
0.206929
-0.0171681
0.0147912
0.00237697
0.00223378
-0.00271208
0.216434
-0.335793
0.119359
0.00552503
0.000141258
-0.00262383
-0.00304011
0.00566394
0.195435
-0.162141
-0.0332941
-0.25263
-0.166753
-0.00753795
0.0126049
-0.00506692
0.004569
-0.00182777
0.305472
0.123047
-0.428518
-0.112279
0.0573225
-0.169477
0.187365
-0.0178871
0.0116975
-0.0311282
-0.0468473
-0.0402768
0.0871241
0.00335406
-0.00195601
0.0432273
0.0271271
-0.0703544
0.00205348
-0.00959143
-0.0594689
0.126523
-0.0670536
-0.0211595
-0.0363632
0.0575227
0.0465746
0.0153665
-0.0619411
-0.01915
0.0765597
0.00778445
0.185915
-0.180505
-0.0054101
0.172089
0.0233456
0.00862834
0.00292868
-0.0885463
-0.0712314
0.159778
0.0822414
0.123956
-0.0463093
-0.0642898
0.110599
0.115885
0.000959873
-0.238105
0.140403
-0.263358
-0.281439
-0.269684
0.141004
0.128679
-0.0726548
0.314492
-0.241838
-0.128712
0.111832
0.0168808
-0.163329
0.0608314
-0.10241
0.0659111
0.0224734
-0.0122421
-0.0102313
0.0590112
0.0290957
-0.0881069
0.0409724
-0.108066
0.0670936
0.180366
0.0055494
-0.0112809
-0.00588723
0.00501361
0.00207396
-0.00708756
0.295463
-0.368417
0.469025
-0.341156
-0.127869
0.21252
-0.164495
-0.0480248
-0.0753609
0.219701
-0.144341
0.121746
-0.0510194
-0.0707266
-0.00615841
0.00353457
-0.00394409
0.0125411
-0.00859701
0.169282
0.0818605
-0.00546951
0.132621
-0.0723729
-0.054555
0.0449222
-0.118692
0.0737701
0.0142123
-0.0312886
0.0170763
-0.209954
-0.119439
-0.00149054
0.000279574
0.00121096
-0.135104
0.0627311
-0.00177475
0.00161215
0.000162605
0.238243
-0.0825179
-0.155725
-0.0308526
-0.0345147
0.00858268
-0.00893009
0.000347408
0.0544693
0.15805
-0.0200764
-0.0227044
0.0427808
-0.00600244
-0.0124512
0.0184536
0.421348
-0.118578
0.42405
0.0120047
-0.0122265
0.000221807
0.00033114
0.00518676
0.0296601
-0.00813964
-0.0215205
0.0930975
0.154792
-0.247889
0.0925582
0.0370126
-0.129571
-0.00231211
0.00687831
-0.0045662
-0.260137
0.37992
-0.0581686
0.169005
-0.110836
-0.0927452
-0.0290602
-0.23754
0.370196
-0.132656
0.184019
0.24428
-0.428299
0.00938428
0.00350344
0.0233357
-0.168611
0.145276
-0.307777
0.235123
-0.0234259
-0.00854159
0.0319675
0.365716
-0.0921308
0.0112435
0.0127204
-0.0239639
-0.158717
0.0701711
-0.00135609
-0.0041133
0.00546939
0.144774
-0.060142
-0.0846319
-0.00226608
-0.0442836
0.0875108
0.126714
-0.0792961
-0.0474178
0.400512
-0.150848
-0.0233003
0.0478994
-0.0245991
-0.193699
0.145979
0.04772
0.103098
-0.0585554
0.0831399
0.0224805
-0.068422
0.0459416
0.0450159
-0.032588
-0.302729
0.133079
0.169651
0.0134728
-0.00715997
-0.00631284
-0.111628
0.0729225
0.0387056
0.0571095
-0.0908483
0.0337387
-0.0875277
0.0723389
0.0151888
-0.382925
0.269445
0.11348
0.0148864
0.00758698
-0.325043
-0.133931
-0.0184404
0.0326527
-0.432176
0.179546
0.000775008
-0.00106914
0.000294135
-0.18576
0.292192
-0.106432
0.00294843
-0.00526055
-0.0768787
0.0715278
0.0218513
-0.0933791
0.0188258
0.00188462
-0.0207104
-0.00324813
0.00966202
0.357684
-0.203598
-0.154086
0.0359055
-0.057065
-0.00991435
0.00355107
0.00636328
-0.0026958
-0.00670976
0.00940556
-0.043733
0.0434576
0.000275339
0.185385
-0.260745
-0.0102061
0.00306073
0.237873
-0.115604
-0.122269
-0.327614
0.237527
0.0900873
-0.22068
0.122562
0.0981184
-0.137658
-0.0808488
-0.376871
0.0390708
0.3378
-0.410795
0.0505228
0.360272
0.269474
-0.145566
0.0770846
-0.0399168
0.0514689
-0.0115521
-0.100389
-0.0283233
-0.070441
-0.0330098
-0.0141557
-0.062454
0.116279
0.181493
0.0973175
0.340872
-0.43819
-0.00444394
0.00795608
-0.00351215
0.0715738
-0.0144642
-0.163349
-0.00612826
-0.0484147
-0.161745
0.157337
0.0676305
-0.224967
0.0631073
0.0168337
-0.137865
0.083377
0.0544885
0.0518186
-0.0366695
-0.0151492
-0.399277
0.161737
-0.124687
0.0652185
-0.123647
0.22415
-0.100503
-0.00436477
-0.0300651
0.0344299
0.00331023
-0.0508192
0.047509
0.323107
0.100441
-0.423548
-0.0516253
0.028325
-0.0687716
-0.185638
0.254409
0.281373
0.179253
-0.460626
0.0111702
-0.0190422
0.007872
-0.317983
-0.106181
0.424164
0.396352
-0.16867
-0.185187
0.313836
-0.128649
-0.000497534
-0.000993002
-0.0736829
-0.120016
-0.27288
-0.127964
-0.100335
-0.28259
-0.181715
-0.00540903
-0.00594307
-0.00349484
0.125595
-0.0667222
-0.0588731
-0.150116
-0.199577
0.0933333
0.310519
0.186123
-0.300502
-0.176512
0.386114
-0.209602
-0.00536816
0.00442784
0.000940315
-0.447452
0.338662
0.108789
-0.0501541
0.122559
-0.0724053
0.102706
0.0799193
-0.182625
0.420424
-0.0601279
-0.0515003
-0.117684
0.0620633
0.042424
-0.104487
0.211398
-0.188062
0.000873484
0.0029701
-0.00384359
0.0308741
-0.0457902
0.0149162
-0.44202
0.116977
0.0937701
0.027976
0.0552106
-0.10152
0.0760931
0.0634863
-0.139579
0.213438
0.26605
0.0370891
-0.0319118
-0.00517732
0.0447152
0.0137286
-0.405286
0.468608
-0.0633213
0.0197988
0.061715
-0.0815137
0.0228677
-0.120711
-0.321309
-0.0720748
-0.112742
0.184817
0.00868754
0.00478528
-5.59847e-05
-0.00531217
0.23537
0.134245
-0.369615
-0.00494731
0.00273049
0.00221683
0.000688801
0.00483623
-0.433531
0.0282443
-0.0157872
0.0270307
0.0135298
0.00182844
-0.0153583
0.0265812
0.0218466
-0.239633
0.115986
0.203636
0.183927
-0.387563
-0.195364
0.169132
0.0262327
-0.285589
-0.0686775
0.354266
-0.0216074
0.0442235
-0.022616
0.00301742
-0.00799958
0.274959
-0.215305
-0.0596548
-0.0390208
0.13379
-0.0947687
0.00388803
-0.00301455
-0.0106879
0.00674385
-0.0610799
-0.402333
0.129453
-0.0457946
-0.14957
-0.00600413
-0.011429
0.0174332
-0.0739761
0.414848
-0.0790771
-0.145315
0.102018
-0.061046
0.00601504
-0.0459318
-0.0603361
0.0357841
0.0245519
-0.010195
0.217859
-0.00281324
0.0121379
0.472792
-0.355294
-0.117498
-0.134558
-0.0386031
0.173161
0.314194
0.158598
0.00575037
-0.0323067
0.0265563
-0.168173
0.11991
0.0482634
0.147485
-0.0908744
-0.31915
-0.0916444
-0.00326924
0.00207052
0.00119872
0.210292
-0.124772
-0.0855204
-0.0130917
0.00708926
0.0891419
0.117347
-0.206489
-0.0169558
-0.342621
-0.152395
0.337575
-0.451071
0.113495
0.0165318
-0.221925
-0.0936011
0.315526
0.00612611
0.030963
-0.174967
0.00763403
0.00256861
0.044006
-0.000641618
-0.00715474
0.00779636
-0.0974447
0.306493
-0.209049
-0.105367
-0.177656
0.283023
0.186704
0.0409639
-0.227668
0.00611699
-0.00675861
-0.34873
0.138776
-0.247642
-0.177126
0.424769
0.00853076
0.0173929
-0.0259237
-0.00218186
-0.00276545
0.00710397
-0.470158
0.47018
-0.339182
-0.130997
-0.399841
0.25935
0.140491
-0.118183
0.238144
-0.200904
0.133342
0.0675622
0.201294
0.00500312
-0.00947521
0.0044721
-0.00395826
0.0945923
-0.254882
0.160289
0.0586191
-0.314326
-0.109853
-0.110827
0.103798
0.484629
-0.163314
-0.321315
-0.0471102
-0.0651685
-0.0191368
0.00561999
-0.268024
0.180624
0.0873997
-0.0512178
0.107921
-0.0567029
-0.0411333
0.133692
-0.0401315
0.0357667
-0.0244204
-0.00444892
-0.00550834
0.00995726
-0.0012609
0.000277937
0.000982964
0.0134266
0.0383921
-0.162465
0.35134
-0.188875
-0.000702488
-0.00256675
-0.424618
-0.0377268
0.0475124
0.0332504
-0.0807628
-0.0738707
-0.394212
-0.141341
0.0831727
0.178101
0.233367
-0.411468
-0.0362846
0.0162082
0.112032
-0.261356
0.149323
-0.181731
-0.0862928
-0.10452
-0.064649
-0.102453
-0.0673169
-0.00399273
-0.00592161
-0.177538
-0.101612
0.27915
0.209736
-0.116639
0.0284974
-0.015777
-0.166771
0.0910596
0.0757115
-0.0574098
0.0363825
0.00926764
-0.00987549
0.000607847
0.00202439
0.000952862
-0.00297725
0.0267727
-0.0283403
0.0015676
-0.216829
0.0791706
-0.0034656
0.00169085
-0.0499375
-0.0696088
0.119546
-0.112785
-0.0699894
0.0461489
-0.0327223
0.0591012
0.0223545
-0.0814557
-0.330805
0.0487336
-0.0955808
0.512358
-0.354956
-0.157402
0.0692617
-0.0576699
0.0609802
-0.257489
0.235905
0.0215835
0.0588024
0.0164352
-0.0752377
0.0028023
-0.00341625
0.00061395
-0.215211
-0.0875184
0.141144
-0.259327
0.229478
-0.360536
-0.139621
0.1006
0.00454537
0.00331488
-0.00786024
0.207634
-0.104928
-0.230955
0.0418871
0.189067
-0.308876
0.380315
-0.0714392
-0.000567711
0.00399009
-0.00342238
0.30526
0.2846
-0.00220388
0.031864
-0.016833
0.29051
-0.273677
0.0821417
-0.0962974
0.0508046
-0.0283242
-0.177962
0.0755086
-0.3696
0.207135
0.159941
-0.379241
0.2193
0.00457298
-0.00592907
0.0572504
-0.366126
0.266451
-0.224336
-0.00235706
0.00939903
-0.00704197
-0.0290704
0.0880816
0.0988703
0.0278436
0.130626
0.521768
-0.297465
-0.224303
0.106496
-0.292256
0.0109612
-0.0121721
0.00121096
-0.00724042
0.07569
-0.0887989
0.15128
-0.0624816
0.33366
-0.113535
-0.220125
0.114316
0.323875
-0.438191
-0.0628663
-0.0337767
0.096643
0.0594415
-0.109596
0.0589021
0.060107
-0.119009
-0.111558
-0.173168
-0.41574
0.0461399
0.00608679
-0.0105357
-0.000148379
0.0111096
-0.123709
-0.067518
0.191227
0.141994
-0.224528
0.0825337
-0.161405
0.0381925
0.123213
-0.282986
-0.119347
0.0759417
0.0688322
0.0129666
-0.0254178
0.385714
-0.207613
-0.231009
0.149532
0.0814773
0.0518799
0.0524593
-0.0215852
0.00583568
-0.00708671
0.00125103
-0.535244
0.0673672
0.467877
0.201077
-0.118836
-0.0753704
-0.141458
0.330393
-0.463406
0.133013
-0.00949348
-0.151912
-0.275269
0.0362915
0.238978
-0.000781302
0.00477975
-0.00399845
-0.405435
0.122448
0.0940735
-0.0349723
0.12555
-0.0537878
0.105917
-0.295748
-0.0794562
0.375204
0.249
-0.0548705
0.08587
-0.0309994
-0.0192911
-0.238197
-0.0348299
-0.0255061
0.00144913
-0.00271003
-0.126591
-0.221724
0.348315
-0.098217
-0.287981
-0.111861
-0.414573
0.317244
0.097329
0.0567035
0.0718542
-0.128558
0.422309
-0.299262
-0.0145998
0.0122428
-0.00113022
0.00240005
-0.00126983
0.00382787
-0.00962604
0.00579816
-0.0981864
0.107285
-0.00909849
-0.349554
0.0757706
0.273783
0.0972373
-0.274775
0.251342
-0.15675
-0.0755612
0.120483
-0.0823175
0.194793
-0.422941
-0.0294455
0.452386
-0.286312
0.269479
0.233321
-0.121289
-0.0126819
0.00577943
0.00690245
0.191799
0.165886
-0.329656
0.120503
0.209153
-0.0102595
-0.000186004
0.0104456
-0.268972
0.198939
0.0700338
0.169889
0.264291
-0.0204227
-0.0312026
-0.0698164
0.165991
-0.0961745
0.312355
0.0148696
-0.327225
-0.0542283
-0.0434904
0.0977187
0.000882908
-0.00135544
-0.0468563
0.122949
-0.116709
0.0695985
-0.180168
0.383805
0.375772
-0.224163
-0.151608
-0.167054
0.0972379
-0.279795
0.198122
0.0816732
-0.00389139
0.00332368
-0.00481985
0.00570276
-0.00181398
-0.00844556
-0.317007
0.13182
-0.00588555
0.0113921
-0.00550657
0.0202106
0.293626
-0.339118
-0.0825501
0.421668
-0.0191997
0.0476408
-0.028441
0.355202
-0.251761
-0.103441
0.00229201
-0.00728736
0.00499535
-0.00354719
0.00862216
-0.00507497
0.590353
-0.139705
-0.450648
0.0102624
-0.00643453
-0.076769
-0.0154034
0.0921724
-0.000617672
0.00264206
0.0977707
-0.115104
0.0173337
0.237893
-0.151334
-0.086559
-0.0243857
0.0121437
0.00340447
0.00527865
-0.00868312
-0.14685
-0.0937143
0.240564
0.00228583
-0.000204192
-0.00208164
0.00257913
0.00802584
-0.010605
0.000322585
0.00469102
-0.216388
-0.363973
-0.210488
0.316984
-0.201915
0.0685195
0.133396
0.0591252
-0.100774
0.0416491
-0.0440931
-0.371647
-0.0871152
0.0108591
-0.00856711
0.00342989
-0.00416241
0.00073252
-0.162555
0.221239
-0.0718615
0.0242957
-0.0107659
0.0147995
-0.139318
-0.0835587
0.104291
0.0786334
0.380204
-0.193623
-0.18658
-0.175907
0.0631218
-0.0014813
-0.0040081
0.0054894
-0.366171
0.356439
0.00973224
0.205843
-0.394704
0.188861
0.17812
-0.304711
-0.103557
0.0307121
0.0329768
-0.0325389
0.344894
0.0139123
-0.0192168
-0.0682644
-0.00891017
0.00821565
0.000694525
0.00371627
-0.369887
0.000663866
0.00167564
-0.0023395
0.0101818
0.0519324
-0.0621142
0.109413
-0.219888
0.00331006
0.00159561
-0.0665895
0.125492
0.280728
-0.0940241
-0.0176768
0.0380256
-0.0203488
-0.0480726
0.0264652
0.0574332
0.028044
-0.0854772
-0.197283
0.143217
0.0540659
-0.00499776
0.0238235
0.00243042
-0.00293116
0.000500739
0.00434194
0.0544605
-0.00390035
0.00408396
-0.240434
0.0621901
-0.00675179
0.00230785
-0.000321787
0.00388149
-0.0035597
0.122697
0.185935
-0.308632
-0.122096
-0.158753
0.28085
0.284679
-0.178998
-0.298616
-0.115957
-0.00253526
0.000625802
0.00190946
-0.116231
-0.0988799
0.215111
-0.22166
0.0880171
0.0617534
-0.208603
0.00601757
-0.00348059
-0.00253698
0.198976
-0.0946849
-0.152774
-0.0868585
-0.12653
-0.0753859
0.344235
0.246118
-0.00367489
-0.000105265
-0.0297659
0.0355163
0.00320277
0.000107296
-0.0799717
-0.11854
0.198512
-0.00540397
0.00462267
-0.219368
0.490312
-0.270943
-0.0581383
0.149086
-0.0909472
-0.25395
0.101176
0.00403381
0.00797085
-0.0501966
-0.0688176
0.119014
-0.342053
0.0229139
-0.0592359
-0.194495
-0.104052
0.298547
-0.0885777
0.426153
-0.431359
0.317174
0.114185
0.00844547
-0.0269482
0.0185027
0.0663505
-0.170871
0.0618362
-0.063421
0.00158483
0.00504402
0.00617825
-0.0112223
0.415017
-0.296664
-0.118352
-0.276715
0.0662267
0.00289764
0.00426364
-0.0101492
0.0272829
0.0281811
-0.0554641
-0.133576
-0.277784
0.41136
0.137423
0.284885
0.119048
-0.0253108
-0.0937368
-0.261473
0.406511
-0.145038
0.0971857
-0.0335664
-0.0636193
-0.117255
0.067318
-0.0761245
-0.0997823
0.331909
-0.442402
0.110492
-0.328358
-0.134929
-0.198445
0.137654
0.0607906
-0.081129
-0.0564026
0.137532
-0.0710685
0.063688
0.00738054
0.297818
0.0779536
-0.356068
-0.00676892
0.362836
-0.110385
-0.0880595
0.0222385
-0.077109
-0.0830842
0.16606
-0.082976
-0.209945
0.132771
-0.0350007
-0.0097859
0.00087573
-0.435233
0.316655
-0.0222194
0.448331
-0.426112
0.00327331
-0.000842892
-0.130537
0.0374236
-0.0567286
-0.0951828
-0.440061
-0.0619335
0.147059
-0.0851253
0.0101761
-0.0101761
-0.119128
-0.0479268
-0.0511502
0.189051
-0.1379
-0.157378
0.106227
0.00353756
0.00443924
-0.00797681
0.351202
-0.196356
-0.154845
0.0125948
-0.046013
0.0334182
-0.139572
0.0794305
-0.00775752
0.00421033
-0.293995
0.412754
-0.118759
0.418358
-0.0507735
-0.367585
0.422813
-0.445032
-0.251585
0.385235
-0.13365
0.0861306
-0.0706204
0.227957
-0.10331
0.0527908
0.0505196
-0.436319
0.0810252
0.119202
-0.224569
-0.00620408
0.00499071
-0.285142
0.422566
-0.303654
-0.143798
0.275589
-0.400085
0.124496
-0.0276535
0.0201079
0.00754553
0.0985717
-0.0394465
-0.461236
0.190006
0.27123
-0.135817
0.0546877
0.133871
-0.0435307
-0.0903404
-0.0477005
0.189695
0.0692302
-0.127962
0.058732
-0.0223916
-0.038598
0.0609896
0.0715352
0.0485559
-0.120091
-0.0395959
0.116585
-0.0769887
-0.141251
0.243443
-0.102192
-0.0715924
0.128296
0.0514423
0.366916
0.0819612
-0.0528656
-0.0824945
0.00131602
0.0811784
0.147049
-0.408522
0.0632718
-0.144824
0.0815522
-0.0140905
0.0172181
-0.00312759
0.131835
-0.253931
0.00870387
0.00147222
0.0548047
-0.113868
0.0590635
-0.116265
0.0766695
0.215908
0.0012681
0.00156605
-0.0563587
-0.0787958
0.135155
-0.0538943
-0.0175416
0.0714358
0.117351
0.076982
-0.0513725
-0.0029772
0.00339751
-0.00042031
-0.404533
0.320382
0.0841502
-0.113791
-0.131335
0.245126
0.00317112
0.00284645
0.172788
0.0768735
-0.152996
0.0641971
0.0121394
0.0340095
-0.0702868
-0.0979549
0.168242
-0.216676
0.0891124
-0.0760109
-0.154944
0.0636243
-0.0363414
-0.17752
0.0538115
0.331816
-0.153546
-0.178271
0.00303969
-0.00167372
-0.0314645
0.209831
-0.178366
-0.430408
0.126754
-0.0270715
0.0107874
0.0162841
0.120846
-0.372431
0.0741815
-0.186057
-0.418707
0.124712
-0.069409
0.167462
-0.0980533
0.00740713
-0.00859055
0.00118342
-0.146138
-0.211561
-0.237353
-0.00583591
0.00250228
0.00333362
-0.129846
0.0103158
3.3582e-05
-0.0103494
-0.345412
0.261442
0.0839697
-0.00223244
0.000774761
0.00145768
0.375549
-0.399433
0.0238847
-0.180742
0.316558
-0.135816
-0.278153
0.232774
0.0453788
-0.00159982
0.0469229
-0.163894
0.0756857
-0.0182524
-0.124285
-0.0438881
-0.00790562
-0.0902807
0.110763
0.121723
0.0806438
-0.202367
0.00363018
0.0417326
0.0635725
0.202144
-0.283229
0.0810848
0.0132036
0.00356857
-0.0167722
0.0528945
0.0791401
-0.132035
0.101622
0.0174251
0.0016988
0.00480172
-0.00650052
-0.29503
0.0731046
0.19002
-0.265539
0.0755186
-0.0185757
0.0311705
0.0775125
-0.368646
0.0414797
0.327166
-0.0888866
-0.286984
0.375871
-0.411952
0.113335
-0.00214288
0.00312053
-0.153149
-0.0441339
0.151075
0.00564348
-0.068691
-0.0279153
0.24435
0.228097
0.0884613
-0.0687843
-0.0690811
-0.0145911
0.0164757
-0.170421
-0.0844605
-0.293801
-0.118151
0.00409058
-0.00526398
0.0011734
0.431718
0.00496978
-0.0968961
-0.0497992
0.0188374
0.0309617
-0.113199
0.0696682
0.00137146
-0.00126242
-0.000109041
-0.109858
-0.228376
0.338234
-0.00200805
-0.000826106
0.261878
-0.14839
-0.113488
0.067472
0.442833
-0.0672842
-0.262063
0.105714
0.156349
-0.00041743
0.00344564
-0.00302821
0.0187265
0.0351917
-0.0539182
-0.331582
-0.00925952
0.0125674
-0.00330793
-0.324814
0.220736
0.104078
0.0463262
-0.100555
0.0117536
0.0145995
-0.0993011
0.328219
0.03992
-0.0211935
-0.0228164
0.0112723
0.0115441
0.254246
-0.163155
-0.091091
0.0608407
-0.0410419
-0.430399
0.112417
0.0134708
0.000441523
0.271604
-0.16142
-0.110183
0.00651115
0.00963014
-0.0161413
-0.0829384
0.15454
-0.0716013
-0.450631
0.459358
-0.00872622
-0.00913326
0.00643745
-0.246776
-0.0313765
0.183729
-0.00202557
-0.000206867
-0.470443
0.0438264
-0.281953
0.0874573
0.00174571
0.00752193
0.162723
0.0419699
-0.0432074
0.0012375
-0.228592
0.412611
-0.0768387
-0.197142
0.273981
0.148591
-0.0853194
-0.000191984
0.00226251
0.167703
-0.0785609
-0.0437238
-0.00214563
-0.161066
0.321006
-0.0515631
0.332936
-0.150602
0.453726
-0.333867
-0.119859
0.00547739
-0.0114815
0.0210517
-0.0402514
0.161511
0.113448
0.0346141
-0.016502
-0.018112
-0.000142293
0.000676339
0.321374
-0.400201
0.0788274
0.216207
0.101757
-0.317963
-0.210381
0.308189
-0.0978076
-0.0521597
0.123695
0.126868
-0.0647992
0.172986
-0.102003
-0.0709833
0.00874487
-0.00520731
0.468401
-0.179922
-0.28848
-0.00522743
0.00995618
-0.00472876
0.0814074
-0.139546
-0.00146258
-0.00144126
0.00290384
-0.013744
-0.0139095
0.185629
-0.268994
0.0833649
0.00752406
0.00927648
-0.0168005
0.0276884
-0.0586982
0.0310099
-0.0178109
-0.000645328
-0.135088
-0.371456
0.077655
0.000905041
0.000466423
-0.0782516
0.1318
-0.0535483
0.00828316
0.00544791
-0.0137311
-0.00170052
-0.00127669
-0.3363
0.242994
0.0933062
0.0847559
0.124235
0.307906
0.0953642
-0.40327
0.114105
0.135687
-0.0788729
0.131767
-0.101289
0.409194
-0.0381223
0.0162622
0.158137
-0.225021
0.0668833
-0.166371
0.0969616
0.00896079
0.0371901
-0.0461509
-0.00203419
0.0172368
-0.38124
0.121103
0.153734
0.18606
-0.0966908
0.0402699
0.0564208
-0.00254591
-0.000648526
0.00319444
-0.0792484
-0.116855
0.196104
-0.0615487
0.00503498
-0.000976131
-0.161707
-0.0497326
0.21144
-0.0103907
0.00464517
0.0057455
-0.129107
-0.219623
-0.0822459
-0.0573266
-0.228383
0.449489
-0.221106
0.397423
-0.231843
-0.16558
0.0041657
-0.00388776
0.000702117
-0.00265541
0.00195329
0.00129815
0.00728454
0.00108071
0.000866327
-0.00194704
-0.475766
0.342044
0.133722
0.0687427
-0.151681
0.0441083
-0.0254709
-0.0243282
-0.290778
0.0112892
0.279489
-0.00334108
-0.0093408
0.0915342
0.159808
0.0677837
0.0580688
-0.125853
-0.465107
0.174328
0.33905
-0.327761
-0.0125111
-0.0290251
0.0415362
-0.00343495
0.000141152
0.0032938
-0.0564885
-0.0727387
-0.36358
-0.100346
0.33209
-0.231744
-0.149232
0.481141
0.0503784
0.0263537
-0.0767321
0.132574
-0.08573
-0.0468444
-0.211618
-0.133795
-0.00860778
0.00145304
0.00521213
0.00192517
-0.0071373
-0.416009
-0.00876942
0.424778
-0.203669
-0.102565
0.306234
0.00285996
-0.00215784
0.0946682
-0.142985
0.048317
0.00468785
-0.00125797
0.00699004
-0.00402989
-0.00296015
0.106124
0.0429615
-0.243475
-0.0928256
-0.231333
-0.0934808
0.000769621
-0.000239895
-0.000529727
0.0116531
-0.00424596
0.0804789
0.0520956
-0.00168348
0.00751916
-0.202604
0.0803939
-0.00241244
-0.00467584
0.00708828
-0.243735
-0.130617
0.374352
-0.00223361
-0.000331721
0.00256533
-0.215543
0.0762252
0.0946344
-0.056128
-0.0385064
0.326914
0.15116
0.169541
0.0794809
-0.249022
0.0999313
-0.0524189
-0.248926
0.0868624
0.162064
-0.00627301
-0.00832682
-0.43103
-0.0285154
0.459546
-0.00269231
0.0262424
-0.02355
-0.0991712
-0.114516
-0.0646245
0.179141
-0.0296378
0.00621192
-0.00471973
0.00641852
0.103515
0.0656167
0.0234996
-0.0249289
-0.0021426
-0.234817
0.121026
-0.0474882
-0.0517538
0.0150364
0.0367174
0.00732337
-0.00232026
0.001666
-0.00279623
0.0462991
0.122022
-0.220902
0.270601
-0.0849718
-0.0995181
0.0726575
-0.182059
0.260561
0.136862
0.0225434
-0.0402202
0.00416359
-0.00435557
0.383315
-0.21279
-0.00532495
0.00987032
-0.259933
-0.0893156
0.349248
0.110548
-0.0390201
0.186922
0.0846816
0.231161
-0.318403
0.0872415
-0.314929
0.104547
0.00202182
0.00583176
-0.00785358
0.423533
0.101861
-0.052998
-0.0488629
-0.193517
-0.200852
0.394369
0.141923
-0.385658
0.148349
-0.0724066
-0.0759427
-0.0763305
0.0029376
-0.0649603
-0.0806054
-0.145939
-0.203615
0.286365
-0.447431
-0.0568739
0.0443628
0.0633162
0.100975
-0.164291
0.000418697
-0.00295396
-0.189769
0.306048
-0.0877381
-0.0709793
-0.160313
0.0841882
-0.0554023
0.0542717
0.00113063
-0.209258
0.13021
0.250164
-0.167267
-0.422431
0.186
0.236431
-0.120003
-0.123041
-0.176415
0.299456
-0.161573
0.0851694
0.228421
-0.111998
-0.136929
-0.000258763
-0.00317618
-0.00534051
0.000832591
0.00450792
-0.161514
0.0737762
-0.0510569
0.118841
0.3922
-0.00608592
0.0885904
-0.0209332
0.0171983
0.00373487
-0.332356
0.232011
-0.308779
0.10511
-0.0749983
-0.0917728
0.0031844
-0.00350619
-0.244077
0.102826
0.0944783
0.125719
-0.220197
-0.0563156
0.19732
-0.109708
0.0934838
0.0162241
-0.00253146
-0.00101561
0.000386804
0.0659381
-0.0731785
0.153883
0.0471942
-0.121779
-0.140285
-0.293441
-0.171666
0.153452
-0.184907
0.0314549
-0.1831
-0.109053
0.292153
0.0505582
-0.0817465
-0.200041
0.281788
0.0034925
0.0135472
-0.0170397
0.00490198
0.00504728
-0.00994925
0.00125245
-0.00464193
-0.135967
-0.0689457
0.204913
-0.00162966
0.00572024
0.000959932
-0.00242251
0.0182841
0.0935475
0.127428
0.0985673
0.0699099
-0.168477
-0.110942
0.329757
-0.218816
0.00821597
0.000545478
-0.00876145
0.317418
-0.232249
-0.0537631
0.0313715
0.078969
-0.193485
-0.315214
-0.115194
0.257395
-0.165861
0.00281049
0.00212342
-0.00493391
0.120402
-0.0314668
-0.0889352
-0.0861319
0.252322
0.132142
-0.0177875
0.003697
-0.0121858
0.00624273
-0.0282164
0.0785948
-0.256252
0.392183
-0.135932
0.00766764
0.00262243
0.0915815
0.0567678
0.0394105
0.0622119
0.000413758
-0.00320151
0.00278775
-0.383616
0.190098
-0.170451
0.211415
0.103227
-0.0415122
0.00252945
-0.00345585
0.0009264
-0.0478307
-0.00757164
0.371584
0.0206158
0.00858277
-0.00656095
-0.00207147
0.00620195
-0.00413048
-0.00556563
0.0089701
0.0217914
-0.00772078
0.000941736
-0.3662
0.106268
-0.000771508
-0.0862798
0.0152113
0.156271
0.161884
-0.0097166
0.0395112
-0.0297946
0.0729867
-0.0511353
-0.360446
0.226871
-0.000936774
-0.00127226
0.00220903
0.00711928
-0.423128
0.0644149
0.0921698
-0.156585
-0.00454903
-0.0163842
-0.315057
0.108182
0.206875
-0.0832473
0.0397569
0.109079
0.00218631
-0.003127
0.000940685
0.119528
-0.204967
0.0854392
0.276059
0.114903
-0.390962
-0.0279652
-0.0817427
-0.125817
-0.18107
0.306887
0.002613
-0.00153229
-0.0757475
-0.0626894
0.138437
0.0646098
0.0372511
-0.339846
0.228905
-0.134117
0.0317077
0.463761
-0.329905
-0.133856
0.179934
-0.431349
0.251414
-0.180802
-0.10115
-0.142967
0.0607215
0.000631281
-0.312122
0.213435
0.0986874
0.0883185
-0.0127166
-0.105957
0.0234623
-0.0149147
0.111311
-0.330896
-0.0165864
0.0895089
0.0115495
-0.0722694
-0.493855
0.15274
-0.0773385
0.0943923
-0.0170538
-0.448456
-0.396497
0.140245
-0.508237
0.169119
-0.100967
0.0102321
-0.00495345
-0.00599213
0.00125371
0.00473842
-0.493556
0.137488
-0.332873
-0.145202
0.478075
0.012382
0.114745
-0.291334
0.176589
-0.0442091
0.189315
-0.145106
0.232507
0.13769
-0.247798
-0.0613754
-0.31008
0.296963
-0.194164
-0.102799
0.00105469
-0.30616
0.183119
0.287875
-0.131477
-0.156398
0.0209767
-0.0602896
0.0393129
0.0473634
-0.0209994
-0.026364
-0.152225
-0.0457625
0.197988
0.320445
-0.0850745
-0.215079
0.395013
0.0429429
-0.000972985
-0.430926
0.202543
0.186701
-0.312518
0.0213568
-0.00815317