/*--------------------------------*- C++ -*----------------------------------*\
| =========                 |                                                 |
| \\      /  F ield         | OpenFOAM: The Open Source CFD Toolbox           |
|  \\    /   O peration     | Version:  v2012                                 |
|   \\  /    A nd           | Website:  www.openfoam.com                      |
|    \\/     M anipulation  |                                                 |
\*---------------------------------------------------------------------------*/
FoamFile
{
    version     2.0;
    format      ascii;
    class       volScalarField;
    location    "350";
    object      k;
}
// * * * * * * * * * * * * * * * * * * * * * * * * * * * * * * * * * * * * * //

dimensions      [0 2 -2 0 0 0 0];


internalField   nonuniform List<scalar> 
18166
(
0.000158136
0.000147294
0.000149796
0.000189121
0.000559663
0.000160522
0.000146594
0.00653469
0.0451835
0.000378138
0.000148228
0.000147944
0.0126373
0.000220793
0.0849829
0.000220488
0.000148726
0.000393228
0.000147999
0.0225973
0.000188834
0.000148733
0.000188335
0.000148382
0.000147181
0.000146615
0.00015708
0.000159048
0.000148328
0.000190563
0.00933096
0.000144658
0.000147979
0.000147757
0.000144247
0.000148173
0.0476495
0.000148212
0.00014674
0.000356291
0.000149709
0.0176565
0.000148055
0.000148388
0.000158416
0.000148817
0.000191512
0.00537862
0.000223643
0.000156525
0.000172838
0.000171239
0.000193447
0.000149529
0.000148271
0.0301326
0.0182717
0.00264818
0.000151256
0.000155425
0.00017194
0.000157303
0.0303857
0.000160007
0.000225323
0.000148461
0.0413888
0.0546914
0.0536097
0.000161208
0.000144263
0.000149592
0.000158115
0.000153261
0.000601802
0.000212152
0.000191932
0.0442661
0.000154904
0.000148395
0.00014968
0.0619032
0.000148423
0.000148222
0.000145172
0.000152359
0.000155852
0.000147416
0.000171316
0.000146625
0.016274
0.000160368
0.0072278
0.000149833
0.000149658
0.000152597
0.000145019
0.000165625
0.000152532
0.000158764
0.000147861
0.000148846
0.0816675
0.000159572
0.000161118
0.000148906
0.00266415
0.000422155
0.000152586
0.000148404
0.00532077
0.0513266
0.0555335
0.037705
0.000148924
0.000147083
0.000166454
0.0128973
0.000149113
0.0381688
0.000377034
0.000148399
0.000248009
0.0772729
0.000197508
0.000147976
0.000148951
0.0114524
0.000156239
0.000160985
0.000203147
0.0232245
0.000154926
0.0441643
0.000155496
0.000191005
0.000148248
0.000147058
0.000155169
0.0162131
0.0395359
0.000221841
0.000160342
0.0432096
0.000152501
0.0616399
0.0104066
0.0723113
0.000148493
0.000157002
0.000144993
0.0418843
0.00114363
0.000197038
0.000149643
0.000148443
0.000149908
0.0250784
0.000148292
0.0111425
0.000145508
0.0526579
0.000154924
0.000146546
0.000171846
0.000202878
0.000148926
0.0421223
0.0652795
0.0030436
0.000209846
0.0320994
0.000160606
0.0545454
0.0172992
0.000147917
0.000183615
0.0524995
0.000147167
0.000147451
0.00014893
0.000160372
0.000174096
0.000181816
0.055936
0.000146923
0.000164971
0.000188009
0.000148137
0.000146882
0.000173128
0.000148004
0.000170851
0.000148241
0.000160042
0.0138395
0.000160065
0.000159849
0.0144605
0.00042499
0.000208844
0.0493357
0.000148047
0.0711447
0.000148596
0.00017186
0.0653686
0.025662
0.000486844
0.00523893
0.000502436
0.0415431
0.000147234
0.000148604
0.000172659
0.000159941
0.000277169
0.000166069
0.0688004
0.0587398
0.000154531
0.000147674
0.000146954
0.000161283
0.0110004
0.000146644
0.000165166
0.000146798
0.000151349
0.000147983
0.0190739
0.0561996
0.000152892
0.0279656
0.00014795
0.000152015
0.000171874
0.000169766
0.0481296
0.0498887
0.000170742
0.0572274
0.0253013
0.00015513
0.0483368
0.000148784
0.000189429
0.0558317
0.0456071
0.000151088
0.000158436
0.000148924
0.000148543
0.000156046
0.0397711
0.00607838
0.000148644
0.0620378
0.00352446
0.000146502
0.000148526
0.0269714
0.000171364
0.00022291
0.00145662
0.0628751
0.0476506
0.000153122
0.00014974
0.000159293
0.000156806
0.000148619
0.000147251
0.0784168
0.000172038
0.0312869
0.0490407
0.000146705
0.000203884
0.000144806
0.000189117
0.0444685
0.000152805
0.000150064
0.000154084
0.000173528
0.000157444
0.00015028
0.0501251
0.000149008
0.000158845
0.000189435
0.000153617
0.000148623
0.00015267
0.0153764
0.00014654
0.000148695
0.000146593
0.0397286
0.0426618
0.000148406
0.000149205
0.000147216
0.0725788
0.000148081
0.0296375
0.00020318
0.000148434
0.000146959
0.000154565
0.00021226
0.0275572
0.000155122
0.000149004
0.000487381
0.000165798
0.000153808
0.000148539
0.000292891
0.000147556
0.000152352
0.0527152
0.000170654
0.00015971
0.000156102
0.000150265
0.000148067
0.000145863
0.054835
0.000147036
0.0428537
0.000150163
0.000148156
0.0010873
0.0458507
0.000221025
0.0643923
0.0192489
0.0599438
0.000148627
0.0412224
0.000294933
0.0238091
0.000151837
0.000148324
0.000146643
0.000155317
0.000149772
0.000168846
0.0001516
0.000188598
0.000148706
0.000147051
0.000164959
0.00015591
0.000165244
0.000170487
0.000148302
0.000145828
0.000147519
0.0610001
0.010412
0.000148666
0.000146577
0.000148105
0.00014978
0.000172179
0.000149798
0.0507544
0.000411933
0.000147293
0.00014756
0.00215491
0.0530167
0.000375623
0.0227085
0.000149615
0.000170971
0.000223187
0.000148149
0.018109
0.00010833
0.000156986
0.000152847
0.000148055
0.000148472
0.000149821
0.0497673
0.000148034
0.000144348
0.000156864
0.000146315
0.048983
0.000230785
0.000149572
0.000148786
0.00599734
0.000146724
0.000146785
0.000149109
0.000217109
0.047387
0.000149792
0.0649273
0.000151725
0.000147953
0.0303438
0.0357264
0.000149616
0.0643441
0.00630859
0.00016083
0.0513746
0.000154507
0.000158215
0.000172899
0.000179034
0.000143954
0.000148576
0.000150337
0.000147986
0.000231693
0.00015271
0.000209862
0.000149775
0.000224201
0.000147761
0.0112738
0.00813133
0.000153844
0.000194994
0.000160126
0.000150338
0.000171488
0.0468788
0.0580582
0.000149272
0.0455275
0.00016611
0.000146056
0.0775944
0.0486026
0.000147656
0.0518743
0.0436769
0.000148507
0.00768791
0.000172848
0.000147877
0.000160844
0.0769451
0.009554
0.000173292
0.044038
0.000488209
0.000259708
0.000180632
0.000146214
0.00991243
0.000147995
0.000148429
0.000201574
0.0482063
0.000150856
0.000149496
0.000165877
0.000154145
0.000148748
0.00014664
0.000145202
0.000165429
0.0336012
0.000147556
0.00018864
0.000149845
0.0348014
0.000148606
0.00014796
0.00023489
0.0869023
0.000164394
0.0642127
0.000147821
0.000147901
0.0581749
0.0517077
0.000170148
0.000150465
0.000177279
0.000175001
0.000149245
0.000148958
0.000149552
0.000150973
0.0555466
0.058495
0.000148379
0.000150219
0.000168024
0.0143275
0.0074866
0.000144341
0.000150675
0.00053585
0.000148524
0.000148927
0.000148465
0.000146071
0.000174465
0.000190022
0.000268066
0.00018154
0.000148336
0.000204557
0.000147185
0.000149827
0.0450222
0.000188842
0.000164532
0.0607614
0.0571472
0.0842081
0.0563546
0.000193477
0.0583386
0.024046
0.000192694
0.0223853
0.000147956
0.000165517
0.000151116
0.000152535
0.00016718
0.00011856
0.000151084
0.000250901
0.0673008
0.000169889
0.000149666
0.000148273
0.000298176
0.0493824
0.0667725
0.000144783
0.000247476
0.0110066
0.000149581
0.000151695
0.000148096
0.000153204
0.0304161
0.00639367
0.000149515
0.0681392
0.000148707
0.0458252
0.000155465
0.000148815
0.000156974
0.0121266
0.000147134
0.000148196
0.0362947
0.0621286
0.000175882
0.0773574
0.00015034
0.000148471
0.00014918
0.0288193
0.000168199
0.0146084
0.000159749
0.00026921
0.0687172
0.000172037
0.00208576
0.000150581
0.0130273
0.000145927
0.000174596
0.0597865
0.000167539
0.00015481
0.0585036
0.0103675
0.000148208
0.0496198
0.000147994
0.000149605
0.00518571
0.0544633
0.00014954
0.000148544
0.000145194
0.000540313
0.0489761
0.000148152
0.000213217
0.000153248
0.000149772
0.000147848
0.000176371
0.000207336
0.000155215
0.057845
0.00014865
0.00014703
0.0476152
0.00971672
0.000273801
0.0207269
0.000343593
0.000149084
0.0126693
0.058566
0.000152365
0.000561914
0.000168047
0.000154528
0.000164301
0.04668
0.000154273
0.000179299
0.000150905
0.000160549
0.0109321
0.000148227
0.0613418
0.00017476
0.000163671
0.000160692
0.000146161
0.000150893
0.0315192
0.000148266
0.00014874
0.000189397
0.000146044
0.000171592
0.000149971
0.000202812
0.000148947
0.000160276
0.000145873
0.00691088
0.0206717
0.000508056
0.000150828
0.017119
0.0569366
0.000173352
0.000148173
0.0523946
0.00014925
0.00967072
0.00014828
0.000166849
0.0466235
0.0120365
0.00963356
0.00239681
0.0538292
0.00014415
0.0205988
0.000147404
0.000155499
0.000152254
0.000148026
0.000148263
0.0372539
0.000186114
0.000150383
0.0713972
0.0336453
0.000162709
0.000144205
0.000154434
0.000149738
0.000146692
0.000146025
0.000147941
0.000191201
0.00015672
0.0856998
0.025889
0.0281309
0.0218162
0.000178084
0.000154069
0.000149023
0.0574496
0.000147052
0.036762
0.0431468
0.000146025
0.000161308
0.0504808
0.0746096
0.0596265
0.00016083
0.00015385
0.000147122
0.0407462
0.025461
0.0751142
0.000167775
0.00247622
0.010927
0.000167145
0.0303905
0.0283987
0.000176616
0.000147847
0.0218044
0.000190018
0.000184578
0.0555889
0.000146938
0.000202566
0.000167097
0.000146936
0.000232967
0.0632739
0.0326195
0.0512009
0.0001573
0.000158995
0.000148321
0.000175172
0.000273493
0.00015511
0.0430798
0.000147598
0.0724403
0.0545017
0.000156651
0.000152592
0.000149781
0.000159265
0.000149695
0.0442972
0.000198367
0.00051421
0.000146549
0.000146878
0.000147119
0.0484513
0.000504411
0.000157887
0.0393677
0.000186307
0.0366075
0.000148318
0.000148901
0.000232572
0.000151007
0.000125681
0.000562794
0.000165758
0.000296669
0.000149515
0.036377
0.0672997
0.000178395
0.000152901
0.000146143
0.000150688
0.000148969
0.000222361
0.000152643
0.000146507
0.000247936
0.000150888
0.0277242
0.000177239
0.00016042
0.000147343
0.0483235
0.000147238
0.000156655
0.0271674
0.00016759
0.000147915
0.000178337
0.0721313
0.000147425
0.000148524
0.000147926
0.000162846
0.0108981
0.000148183
0.0268134
0.000149728
0.00935915
0.0436263
0.0142487
0.0157334
0.000164908
0.000159259
0.000208624
0.000147449
0.0647575
0.000147407
0.000146651
0.000144982
0.00014864
0.0444973
0.000147787
0.000148314
0.000149063
0.000146484
0.000206167
0.000150822
0.0105482
0.000147827
0.000149036
0.000148154
0.0671555
0.0126007
0.0150675
0.00020988
0.000146689
0.054871
0.0532442
0.00015107
0.000147938
0.0306273
0.0394847
0.000154027
0.000203082
0.0738899
0.000165608
0.000148201
0.000178616
0.000160426
0.000178725
0.0753577
0.0356264
0.000145728
0.0291781
0.000146889
0.000294027
0.000183854
0.0001683
0.000148049
0.0179216
0.0310596
0.0505175
0.000149139
0.000187165
0.000146137
0.0238127
0.000148273
0.000169868
0.000150596
0.000147118
0.000166244
0.000152259
0.000148479
0.000247536
0.000148569
0.0566567
0.00015891
0.000215789
0.000147922
0.000228733
0.000167211
0.000148402
0.00872983
0.000247374
0.0766797
0.000149056
0.000152804
0.000192218
0.0897167
0.000147915
0.000149853
0.000153635
0.0632108
0.00014516
0.000184635
0.000233249
0.000150809
0.000144563
0.000148972
0.000147274
0.000166528
0.000146071
0.000199976
0.000163508
0.000145655
0.000152071
0.0201147
0.000147474
0.000153615
0.000146768
0.00014831
0.000173124
0.000222933
0.000570484
0.000320058
0.000151827
0.000149572
0.0112378
0.00037854
0.0847196
0.015609
0.000168898
0.000295366
0.000147866
0.000160842
0.00817515
0.0222376
0.0510772
0.000148632
0.000167364
0.000165497
0.0150879
0.0273525
0.000148201
0.000166613
0.000153391
0.000391482
0.0243341
0.000428534
0.000146574
0.00595155
0.000149785
0.000148249
0.0454577
0.000149955
0.000151172
0.00149596
0.0189786
0.000147252
0.0326141
0.000168661
0.000146736
0.000199757
0.000144575
0.0043258
0.0273941
0.000190488
0.0324328
0.000263283
0.000548113
0.000144845
0.000150528
0.000147698
0.00014506
0.000145009
0.000153627
0.0526425
0.0630898
0.000147785
0.0136973
0.000163018
0.000159763
0.000147933
0.000152098
0.0390809
0.0131014
0.0237174
0.0390582
0.00014851
0.000171716
0.021027
0.000154928
0.00021266
0.0002421
0.0196024
0.049664
0.000147834
0.000147474
0.000153783
0.000148338
0.000163293
0.0002557
0.000150713
0.00524018
0.000148681
0.000149867
0.000147046
0.00501764
0.000192231
0.000147845
0.000149377
0.00988813
0.000147777
0.0189833
0.000445188
0.000147924
0.000220987
0.000148094
0.03088
0.000487385
0.0502599
0.000200188
0.000148632
0.000187675
0.000218744
0.000151183
0.0110867
0.0205178
0.044223
0.00015001
0.000171153
0.000152317
0.000149966
0.0725292
0.000347115
0.000168559
0.000194178
0.000145004
0.000203979
0.000164848
0.000149519
0.000165811
0.0121909
0.029886
0.000333492
0.000159574
0.000192206
0.019206
0.000145109
0.000151535
0.000149768
0.000168575
0.00016868
0.000152342
0.000162818
0.000162295
0.000156399
0.000188581
0.000148291
0.000167297
0.0607949
0.0517778
0.0501412
0.00643646
0.000146625
0.000149653
0.0388976
0.000165554
0.00014657
0.000147876
0.0128254
0.000157342
0.000198718
0.000148871
0.000152265
0.0234914
0.028549
0.00510096
0.000148217
0.0670195
0.000151267
0.000235154
0.0677561
0.000149119
0.000173487
0.00016706
0.023569
0.0309336
0.000153368
0.000584591
0.0482805
0.000621983
0.000170189
0.0551045
0.000157278
0.0011765
0.000149787
0.000149698
0.00014788
0.000147867
0.000153074
0.000172859
0.000147619
0.000192544
0.000147367
0.000150812
0.0365462
0.000148302
0.000193975
0.0249889
0.0173868
0.00408543
0.000148784
0.000148442
0.000146829
0.000149842
0.0505446
0.00025482
0.000202417
0.0153727
0.0249188
0.000149202
0.000159965
0.000152426
0.000149787
0.000160238
0.000149404
0.00015757
0.000144653
0.000148603
0.000150084
0.00014865
0.0002036
0.000190946
0.000155021
0.000494317
0.000147912
0.000148922
0.0541415
0.000159971
0.0415531
0.000198424
0.000194043
0.000209965
0.00675502
0.0184841
0.000148679
0.0492474
0.00015408
0.000477521
0.000166131
0.068527
0.0431356
0.0378606
0.000159701
0.0358322
0.000148309
0.000149301
0.000147449
0.0477287
0.000172947
0.0551657
0.0592779
0.0367939
0.000146575
0.000547177
0.0392019
0.000147227
0.000151439
0.000164422
0.000150621
0.0890137
0.000159331
0.000157164
0.000420768
0.000148448
0.0157623
0.000151019
0.000149766
0.000623846
0.000152031
0.0154335
0.000149921
0.0733465
0.000148408
0.020168
0.000149699
0.000149413
0.000530338
0.000225279
0.000145956
0.000146881
0.000295501
0.000144708
0.000147227
0.0318726
0.000149684
0.0332363
0.000305304
0.000149381
0.0211458
0.0677387
0.000180297
0.000192777
0.000149425
0.025927
0.000148517
0.000202725
0.000145474
0.000161607
0.000149944
0.000148521
0.000234995
0.00014885
0.0169046
0.0334026
0.0585394
0.000151844
0.000147619
0.000149427
0.000145237
0.000174827
0.000148299
0.0166089
0.00233411
0.0347804
0.0714189
0.000262723
0.0360431
0.000215845
0.000145631
0.000163824
0.000154474
0.000200261
0.000167022
0.000151963
0.0270051
0.000148493
0.000296025
0.000154825
0.00971708
0.0522926
0.000145137
0.0382467
0.0316746
0.000179005
0.000171075
0.000166363
0.0191475
0.000241432
0.0129658
0.000148752
0.020064
0.000165104
0.0412507
0.0144488
0.0002553
0.000194457
0.0012887
0.000198041
0.00974179
0.000146879
0.0608489
0.000145225
0.000151608
0.000151283
0.000148255
0.000147826
0.00014492
0.000146844
0.000148717
0.0328912
0.0512473
0.000188143
0.00135674
0.000145616
0.000149729
0.000153486
0.000169907
0.000251165
0.000147125
0.000197289
0.000147703
0.000147427
0.000182421
0.0566831
0.000155483
0.0551832
0.000152344
0.0282265
0.000147791
0.000181877
0.000154536
0.000278872
0.000148801
0.000148703
0.000162246
0.000482007
0.000147787
0.000147256
0.000161194
0.0453718
0.000169709
0.000149469
0.000175759
0.0564831
0.000160759
0.00018034
0.00015579
0.000163681
0.0684562
0.000146186
0.0107618
0.00014788
0.0265673
0.000150146
0.000326628
0.00014928
0.000403294
0.00014797
0.000146452
0.000155508
0.000148697
0.000164877
0.000147259
0.000149845
0.00025172
0.000148042
0.000149214
0.0267574
0.000156701
0.00770708
0.000177489
0.05472
0.00960664
0.0624739
0.000147679
0.000114034
0.00324197
0.000146229
0.0199183
0.000157816
0.000148167
0.000219857
0.00014744
0.0440216
0.000145892
0.00019727
0.0450205
0.000215295
0.000151783
0.0560078
0.000149527
0.000205885
0.000165569
0.000149345
0.0168587
0.0176404
0.00023736
0.0358877
0.0295405
0.000171611
0.00359956
0.0002235
0.000186067
0.000145305
0.0241699
0.000155695
0.0216769
0.0265638
0.000202485
0.000167404
0.000160608
0.000145578
0.0503927
0.000146999
0.00040934
0.016901
0.0357234
0.000146469
0.000166467
0.0584675
0.000147301
0.000201947
0.0284745
0.000149479
0.0436498
0.000148752
0.000132075
0.000148424
0.00820281
0.000188105
0.0571368
0.0702294
0.0118002
0.0198192
0.000190109
0.000148133
0.0290734
0.000220399
0.000148292
0.000150432
0.000145837
0.000175559
0.0125583
0.0479379
0.00017832
0.00809058
0.000172691
0.000149669
0.000154575
0.000153825
0.0170873
0.00772728
0.0762784
0.00027796
0.000166082
0.000152708
0.0477222
0.000147579
0.000153341
0.000151991
0.0417493
0.000148987
0.000148568
0.0371954
0.0541475
0.030516
0.000153608
0.046922
0.000147334
0.000148132
0.0426639
0.000279193
0.000149585
0.0253683
0.0109167
0.00020666
0.000147484
0.0293639
0.00014991
0.0348039
0.000165565
0.081953
0.0543173
0.000185942
0.0640847
0.0612572
0.000152599
0.0273868
0.000156082
0.0327903
0.000146647
0.0465911
0.0384712
0.000810303
0.00017393
0.0157404
0.000584586
0.0426503
0.000161223
0.000149681
0.00020597
0.0127003
0.000156545
0.000166191
0.000214814
0.000148132
0.0278095
0.000147461
0.000170822
0.0451471
0.00016494
0.000149128
0.0513325
0.00014927
0.000150052
0.0440766
0.000145142
0.000175065
0.000171359
0.000146443
0.077583
0.000184683
0.000146621
0.0707638
0.0001464
0.000324001
0.0701229
0.000148447
0.000147781
0.000149141
0.0260601
0.0226003
0.000188242
0.0356873
0.0146152
0.0106884
0.047757
0.0205959
0.00014661
0.000164538
0.000252652
0.000260404
0.000147978
0.039647
0.00015364
0.000199425
0.0323327
0.000149728
0.000148569
0.000154342
0.000148557
0.000148418
0.0183493
0.0449702
0.000178557
0.0316841
0.000152006
0.0654688
0.0300601
0.0261669
0.000178117
0.076635
0.00014832
0.000148092
0.0501692
0.0319067
0.000179576
0.000147521
0.00015413
0.000148004
0.0615044
0.0693646
0.000148864
0.000176328
0.000223174
0.000148164
0.0571528
0.0770954
0.000163629
0.000165582
0.000147356
0.000147922
0.0306897
0.000147795
0.000149844
0.000156868
0.000147641
0.000152665
0.000145884
0.00016996
0.0757215
0.00468259
0.0333109
0.000148584
0.000148823
0.000147284
0.0379338
0.000148636
0.0609001
0.000147901
0.000182061
0.0276384
0.000148906
0.000146649
0.000148457
0.000146524
0.000150038
0.000235204
0.000575822
0.000161989
0.0271144
0.000183194
0.000184702
0.00014805
0.00015586
0.000152276
0.00673348
0.00015224
0.0661786
0.000159254
0.0500041
0.000165922
0.00016302
0.0393803
0.0404261
0.000153446
0.000169741
0.000164948
0.000145547
0.000148032
0.000149193
0.000148945
0.0193769
0.000146994
0.0217538
0.000148491
0.074357
0.000106776
0.000148961
0.000233913
0.00172517
0.000155299
0.000146791
0.059627
0.000231504
0.000144984
0.000148468
0.000204362
0.000154217
0.000147925
0.000149144
0.000147405
0.000183042
0.000159573
0.0210444
0.000147514
0.000172492
0.000148095
0.000207087
0.0436615
0.000155762
0.000313358
0.000159622
0.000151505
0.000166598
0.000221541
0.000148351
0.000147956
0.0353588
0.000169344
0.000146774
0.000191264
0.060256
0.000146029
0.0193907
0.000147884
0.0487718
0.000192357
0.000155432
0.000295963
0.00016587
0.000186065
0.000183116
0.0660714
0.000149963
0.000149712
0.0495376
0.0010898
0.00014852
0.000246116
0.000150103
0.0019854
0.000147348
0.000145122
0.000147264
0.0738557
0.000149117
0.000164179
0.0411131
0.000164843
0.00016406
0.00021918
0.000150317
0.000160662
0.00030661
0.00996977
0.000146651
0.000147765
0.000147189
0.000236699
0.000150749
0.0173
0.00021835
0.0144517
0.000149736
0.000194762
0.0188662
0.000201686
0.00915108
0.00015011
0.000151883
0.000165889
0.0544714
0.000151561
0.000148583
0.000149782
0.000319241
0.0323741
0.0354958
0.0521827
0.0484154
0.000153085
0.0422651
0.000146274
0.000149803
0.000148076
0.000159776
0.000149999
0.0758483
0.0265221
0.000148585
0.0533899
0.0246493
0.000285759
0.049249
0.000147046
0.046636
0.0167418
0.000156736
0.000145407
0.000147371
0.0464721
0.000162971
0.000149925
0.000185976
0.0666885
0.0246368
0.0596149
0.0233389
0.000151418
0.000150389
0.0375287
0.000148234
0.000144921
0.0545674
0.000152166
0.000151938
0.000173813
0.000161015
0.000149256
0.000171795
0.0112823
0.0579935
0.000161398
0.0512513
0.000637763
0.0508382
0.0454627
0.000148875
0.000147353
0.00103354
0.0135893
0.000175078
0.061213
0.00115441
0.000153644
0.000147745
0.0180996
0.000265986
0.000193756
0.000146365
0.000255333
0.000179593
0.000148308
0.000232808
0.000166732
0.000148856
0.000148416
0.000146396
0.0307353
0.000225081
0.000166812
0.000153512
0.000158186
0.000147868
0.000149084
0.0425486
0.0540268
0.000149688
0.0160109
0.000148104
0.0684227
0.000214502
0.0237428
0.000186154
0.000145861
0.0106681
0.00014729
0.0255126
0.0695192
0.0393006
0.0182589
0.000148394
0.00014927
0.00014715
0.000147696
0.000172533
0.00014594
0.000153757
0.000151849
0.00022288
0.000148063
0.000147871
0.0699375
0.000148771
0.000165522
0.000146262
0.00014862
0.000476567
0.000148061
0.000155121
0.000148771
0.000268595
0.00610203
0.000147211
0.000147374
0.000153966
0.000292179
0.000152414
0.0383634
0.0420559
0.0445196
0.000150022
0.0201635
0.000146011
0.000234328
0.000146491
0.0254767
0.000192044
0.000181714
0.000168855
0.000147685
0.000147486
0.000146621
0.0243832
0.00018097
0.0610794
0.000299634
0.000147844
0.0193145
0.000145298
0.000159558
0.000149508
0.0246454
0.000145419
0.000152693
0.000192798
0.000149793
0.012783
0.000149763
0.000154649
0.000147203
0.000145664
0.000147624
0.000149552
0.00631644
0.000168166
0.071668
0.000148112
0.000152345
0.0894138
0.000279551
0.000156078
0.070182
0.000160214
0.000144678
0.000148249
0.000166568
0.000149807
0.0719903
0.000196522
0.01788
0.000148062
0.000214282
0.000148816
0.000147946
0.0591377
0.000145049
0.000148346
0.0168185
0.000149402
0.000151984
0.000149378
0.000170437
0.0230497
0.000273218
0.0325973
0.000161923
0.000148395
0.000150862
0.00413341
0.000149777
0.000147425
0.000147002
0.000154949
0.0062661
0.000149033
0.00014863
0.00017165
0.000148066
0.000281094
0.0233751
0.000153397
0.0462611
0.000247886
0.000170086
0.000147681
0.000186392
0.000163849
0.00113965
0.000187646
0.000145591
0.00014849
0.000148883
0.000150406
0.000148601
0.000146399
0.000149541
0.0109784
0.000164376
0.000146193
0.000148945
0.0575163
0.0176135
0.000155631
0.000185354
0.000148001
0.000150785
0.000180925
0.000222199
0.000174329
0.00241973
0.0672486
0.000151245
0.000150255
0.00391162
0.000148024
0.00014793
0.000149282
0.00015278
0.000178528
0.0307599
0.000164437
0.0212742
0.0198132
0.000147769
0.000160714
0.000160255
0.0519535
0.0451602
0.000148414
0.00020004
0.000245285
0.0432908
0.000179898
0.000146721
0.000149463
0.00867382
0.000151568
0.000168077
0.0633571
0.0413619
0.000201246
0.000148362
0.0590906
0.000147995
0.000149688
0.0750211
0.0508383
0.000208743
0.00926238
0.0370103
0.000186278
0.00014531
0.000149197
0.000147453
0.000148233
0.0422823
0.0282176
0.000147678
0.000144655
0.000149478
0.000152555
0.0410466
0.000161503
0.000145909
0.000118767
0.0340569
0.000169308
0.0122697
0.000144768
0.000153511
0.00015293
0.000145747
0.000146567
0.000160051
0.000168647
0.000199178
0.061759
0.000195551
0.051376
0.000190892
0.049697
0.000182789
0.000181348
0.000285287
0.000147278
0.000147427
0.0239818
0.0443523
0.000311712
0.0547688
0.0358523
0.00751883
0.0316046
0.0158052
0.000148476
0.000147977
0.000212179
0.000151624
0.000147523
0.000201629
0.000169369
0.0420087
0.000207742
0.0897974
0.0245108
0.000149995
0.000206782
0.000159344
0.000147333
0.000148072
0.000181542
0.0344767
0.0140672
0.018916
0.0001466
0.000149863
0.000162976
0.000148278
0.0843563
0.000218781
0.00395387
0.000202992
0.000147685
0.000153034
0.000163738
0.0147257
0.00015102
0.00326896
0.000150385
0.000158596
0.000206696
0.0576002
0.000169299
0.000174338
0.0319075
0.000173229
0.000145854
0.0203286
0.000148276
0.0321926
0.00014742
0.000163486
0.000164037
0.000193087
0.000167801
0.000148398
0.0549754
0.000166591
0.0287639
0.0439029
0.000627429
0.00014865
0.000169208
0.00183085
0.00015158
0.000150859
0.056731
0.0111273
0.000148573
0.000149128
0.000149362
0.0219229
0.000148703
0.0414083
0.000224058
0.0104376
0.000168541
0.000201861
0.000149835
0.000167655
0.000146057
0.062115
0.000163187
0.000149498
0.000148501
0.0361658
0.0654836
0.000148874
0.0180865
0.000148709
0.000148767
0.000164149
0.0780996
0.0001549
0.000164255
0.000153213
0.000154427
0.000287183
0.0291892
0.0269372
0.000177708
0.000150598
0.000187258
0.000121985
0.0317741
0.0758443
0.000180918
0.000174234
0.000148654
0.000178822
0.0128484
0.000148515
0.000132698
0.000196722
0.00014887
0.000148368
0.000204758
0.00016281
0.000148345
0.000154577
0.000152754
0.0136644
0.00014701
0.000144989
0.000160273
0.000228323
0.000229185
0.000152003
0.0067282
0.000148066
0.000147858
0.0512221
0.031206
0.0129401
0.000185153
0.000218156
0.0124488
0.000164372
0.000149239
0.00014853
0.000182714
0.000163793
0.000149186
0.000156565
0.000148333
0.00015395
0.0598625
0.073194
0.000298931
0.0532666
0.000149546
0.000168759
0.0127158
0.000146594
0.000379366
0.000148605
0.000145499
0.000164691
0.000146085
0.000149491
0.000153831
0.00014885
0.00016373
0.000220875
0.000147779
0.000190026
0.00283704
0.0304717
0.0199793
0.000148143
0.000149153
0.045769
0.0300771
0.000191523
0.000173858
0.0604025
0.000204071
0.0762005
0.000148014
0.000159105
0.0339936
0.000148372
0.00017498
0.000186186
0.0001888
0.000164231
0.00014742
0.000145777
0.000148521
0.000154433
0.0281223
0.0320452
0.000150454
0.0572755
0.00792507
0.000147334
0.00015669
0.0427012
0.0565649
0.000148579
0.0600801
0.000168421
0.0469504
0.000152582
0.00010001
0.0296374
0.000159985
0.0264524
0.000196653
0.000187753
0.000225154
0.0773623
0.000220695
0.000148194
0.0757921
0.0614789
0.000150378
0.000160579
0.000151266
0.000212417
0.000149733
0.000147321
0.000148739
0.000160706
0.000156246
0.0001662
0.000161069
0.0133395
0.00551779
0.0646078
0.0574621
0.000147725
0.000159789
0.000148036
0.000163352
0.00014683
0.000148957
0.0475129
0.0167952
0.000147339
0.000148376
0.000227131
0.0284583
0.000149536
0.000182221
0.000148276
0.000153085
0.000148019
0.0435581
0.000151291
0.000147115
0.000147676
0.0705865
0.0229321
0.00018003
0.000161596
0.000149476
0.0347724
0.000155025
0.0710192
0.0472472
0.00628165
0.000175488
0.000147405
0.0337059
0.000161088
0.000150079
0.000146701
0.000148992
0.0220353
0.000146525
0.000148028
0.00014978
0.000164134
0.000147631
0.0288719
0.00015881
0.0409837
0.000173802
0.0380671
0.0272322
0.0891299
0.000148369
0.000151326
0.0198668
0.0699884
0.000218304
0.0113996
0.000170299
0.000155177
0.000152583
0.0155939
0.00014655
0.000201319
0.0218217
0.000147969
0.0657817
0.000484131
0.0143646
0.000149846
0.000159358
0.000170706
0.000147351
0.000161298
0.000145948
0.00014788
0.0460248
0.0289475
0.0198382
0.000149953
0.000146044
0.000147967
0.0575225
0.000144859
0.0368928
0.0346473
0.0228103
0.000146954
0.000159167
0.00014888
0.000147967
0.000146046
0.0365663
0.000147347
0.0398127
0.000182452
0.0266187
0.000146482
0.000162395
0.000252008
0.000155405
0.0633994
0.0008576
0.0483988
0.000148011
0.0353198
0.0248011
0.00014758
0.0456514
0.00848496
0.000147861
0.0284473
0.0389577
0.0657785
0.000183713
0.000148129
0.000166721
0.0115275
0.000195014
0.000148074
0.0251331
0.000179926
0.000164607
0.0330805
0.00021443
0.0347498
0.000149841
0.00015418
0.000212679
0.0450895
0.03126
0.0359274
0.000167592
0.0364762
0.000214557
0.000204808
0.000152408
0.000146845
0.000151542
0.0272354
4.54322e-05
0.0278827
0.0094342
0.00016446
0.000158558
0.049546
0.000208677
0.00014702
0.00280315
0.000146239
0.000163401
0.000147835
0.000163316
0.000329745
0.000150795
0.000612263
0.000177697
0.000149885
0.000151724
0.000189424
0.00014958
0.00014725
0.073672
0.000148312
0.000218886
0.0265929
0.000169478
0.000147397
0.0564348
0.000146724
0.0332369
0.000201323
0.000148215
0.000149852
0.000149239
0.000149048
0.000148368
0.000149871
0.000150643
0.000149243
0.0300544
0.000151916
0.000146883
0.000149007
0.000146039
0.0560349
0.0713163
0.000197034
0.000148422
0.000151641
0.0133245
0.000192324
0.000159729
0.000148185
0.000149066
0.000145976
0.070799
0.0357181
0.000162504
0.0352377
0.0330174
0.000295882
0.0561068
0.0322891
0.000147321
0.0191419
0.028478
0.000166105
0.00014781
0.0231704
0.000148486
0.00934896
0.000163752
0.000176778
0.000157572
0.0339824
0.0450923
0.000170207
0.0364114
0.000181644
0.000147917
0.000193316
0.000187689
0.000201975
0.000149356
0.000165832
0.000153358
0.0164252
0.000293779
0.000147504
0.000145665
0.00022593
0.000144411
0.000160346
0.000421303
0.000200943
0.0721937
0.042213
0.000147977
0.0597498
0.00015288
0.056127
0.000153116
0.000177476
0.000152201
0.000147355
0.000148446
0.000176063
0.000255411
0.000146891
0.000254195
0.00015077
0.0855084
0.0409087
0.000196741
0.0517984
0.0196191
0.0754827
0.0174535
0.000167294
0.00016231
0.00015996
0.000148539
0.000144851
0.0614672
0.0709508
0.000148532
0.000145861
0.000147098
0.000148438
0.000183536
0.0245898
0.000148659
0.000172187
0.000239663
0.000157903
0.0169196
0.0250193
0.000329135
0.000153902
0.000160824
0.000149769
0.000145051
0.000148163
0.000166407
0.000147665
0.000154891
0.000152913
0.000220677
0.00014855
0.000149069
0.000152181
0.000146792
0.000147663
0.000186976
0.000169996
0.000168953
0.0466576
0.000146718
0.000188767
0.000202579
0.00014642
0.000215014
0.0698272
0.000149177
0.0131764
0.0413874
0.000146375
0.000194585
0.000190852
0.000164243
0.000148366
0.000330966
0.000146793
0.0660144
0.000206045
0.0889866
0.0159384
0.00022584
0.000168285
0.00014747
0.0332625
0.000216201
0.0563908
0.0384058
0.0574649
0.0207751
0.0464119
0.000149816
0.00017239
0.0146063
0.0665564
0.000168174
0.000157656
0.0312961
0.000146025
0.058881
0.0141935
0.000189676
0.000148136
0.000170532
0.00181581
0.0776228
0.00014604
0.0343594
0.000151532
0.000145309
0.0645852
0.0544062
0.00016169
0.000148022
0.000154484
0.000346223
0.000155672
0.00373876
0.0682263
0.0449101
0.000148686
0.000148605
0.00557283
0.0220897
0.000168715
0.000159388
0.000163039
0.0276425