/*--------------------------------*- C++ -*----------------------------------*\
| =========                 |                                                 |
| \\      /  F ield         | OpenFOAM: The Open Source CFD Toolbox           |
|  \\    /   O peration     | Version:  v2012                                 |
|   \\  /    A nd           | Website:  www.openfoam.com                      |
|    \\/     M anipulation  |                                                 |
\*---------------------------------------------------------------------------*/
FoamFile
{
    version     2.0;
    format      ascii;
    class       volVectorField;
    location    "350";
    object      U;
}
// * * * * * * * * * * * * * * * * * * * * * * * * * * * * * * * * * * * * * //

dimensions      [0 1 -1 0 0 0 0];


internalField   nonuniform List<vector> 
18166
(
(0.838741 0.00132993 -2.96211e-20)
(1.00553 -0.00150183 5.97751e-22)
(0.999932 -0.000831722 1.1091e-20)
(1.20981 0.0204773 -4.32108e-20)
(0.106059 -0.383536 -1.44258e-19)
(0.829412 -0.125493 -4.52939e-20)
(1.01356 -0.0105943 3.21238e-21)
(-0.338679 -0.00971241 -4.98006e-21)
(-0.130335 -0.0192822 9.04456e-20)
(0.143372 -0.139269 -5.6694e-20)
(0.998957 -0.00947298 0)
(0.995358 -0.0159423 0)
(-0.109594 -0.0266655 -1.5518e-19)
(1.28403 -0.0876145 0)
(0.604761 0.0666 -5.83795e-20)
(1.2875 -0.0820118 6.09813e-22)
(1.0007 -0.0050803 1.23196e-21)
(0.0300486 -0.926489 6.47764e-21)
(0.991066 -0.0171815 2.6232e-21)
(-0.318322 -0.0126496 1.40973e-19)
(1.23523 -0.128603 1.33051e-19)
(1.00057 -0.00531168 -4.34416e-21)
(1.23329 -0.119108 -1.13168e-19)
(0.996116 -0.00085255 2.23411e-21)
(1.00775 -0.0115808 -4.94053e-22)
(1.01313 -0.0102106 -5.10187e-21)
(0.857297 -0.017564 -3.52676e-20)
(1.09709 -0.0480215 3.1989e-20)
(0.986731 -0.0277647 8.0089e-21)
(1.21601 0.0206591 -4.65292e-20)
(-0.00153415 -0.0396882 0)
(1.01682 -0.00062748 2.97316e-21)
(0.999778 -0.0299324 2.79526e-21)
(0.996302 -0.0197536 0)
(1.01981 3.04825e-05 0)
(1.00171 -0.00793014 1.34612e-22)
(-0.11065 -0.0203101 0)
(1.00159 -0.00790843 -1.12047e-22)
(1.02775 -0.00915577 0)
(0.174764 -0.181169 1.17274e-19)
(1.00006 -0.000694571 -1.77607e-21)
(1.1528 -0.242116 2.97294e-20)
(0.999238 -0.0314235 7.12453e-22)
(0.980678 -0.0172511 0)
(0.835368 -0.0250814 -1.21988e-20)
(0.99828 -0.00147863 -1.05862e-20)
(1.09237 0.0943036 -3.63842e-20)
(-0.00613879 -0.0520509 0)
(1.11654 0.156149 2.55147e-20)
(0.868298 -0.0191224 3.21884e-20)
(1.09873 0.0454613 2.36282e-20)
(1.12749 0.0177175 -3.68073e-20)
(1.24877 -0.0920419 -4.02869e-20)
(1.00017 -0.000621213 6.81673e-22)
(0.999028 -0.00896732 0)
(-0.244738 0.00374817 1.1021e-20)
(1.14874 -0.237104 -8.7154e-20)
(-0.189191 -0.011011 -8.06901e-20)
(0.987285 -0.0648756 -1.27161e-20)
(1.08095 -0.0396574 1.13952e-20)
(1.15907 -0.136232 0)
(1.07937 0.00474905 -9.88536e-21)
(-0.292248 -0.00287862 -1.46957e-19)
(1.08412 -0.0993716 0)
(1.2909 -0.0678149 -4.67915e-22)
(0.996799 -0.00291758 0)
(-0.238531 -0.0123369 -2.30615e-20)
(0.39303 0.182375 0)
(0.394406 -0.116784 -1.26791e-23)
(1.10253 -0.00784619 0)
(1.01963 -0.000144183 0)
(1.02467 -0.0483522 0)
(0.840111 -0.0464284 0)
(1.03087 -0.080312 2.14604e-22)
(0.0508013 -0.391948 -7.26165e-20)
(0.355735 0.358226 9.43352e-20)
(1.24173 -0.110002 1.72307e-20)
(0.229651 -0.0794514 0)
(1.06935 -0.0599447 0)
(1.00118 -0.00673299 -9.99018e-22)
(1.00002 -0.00163113 1.84771e-21)
(-0.027355 -0.0227725 3.71452e-20)
(0.996473 -0.00109793 -1.65332e-20)
(0.994842 -0.00306915 9.01479e-21)
(1.01667 -0.00141418 0)
(1.0533 0.0073891 0)
(1.0837 -0.0325625 5.00829e-21)
(1.00553 -0.00632158 8.44716e-23)
(1.12377 0.0231032 -1.73083e-20)
(1.02724 -0.00863897 3.66886e-21)
(-0.28251 -0.0134907 1.75815e-19)
(0.864211 -0.144748 -2.09947e-20)
(-0.18284 -0.015229 0)
(1.00003 -0.000669322 0)
(1.00016 -0.000913773 1.84322e-21)
(1.05374 0.00960326 0)
(1.01705 -0.0011871 3.1505e-21)
(0.989398 -0.249184 1.31673e-22)
(0.923777 -0.00731822 -1.47639e-20)
(1.09607 -0.0341874 2.39476e-20)
(1.00492 -0.000777768 8.99782e-22)
(0.99894 -0.00394181 -2.70187e-21)
(0.67437 0.0704527 -9.74553e-20)
(1.08095 -0.0988124 0)
(1.10135 -0.008998 0)
(0.999001 -0.00356931 -5.19155e-21)
(-0.0854892 -0.375221 2.6299e-20)
(0.0889626 0.00329985 -1.51233e-19)
(0.980083 -0.078258 1.09206e-20)
(0.999529 -0.00766396 2.01886e-21)
(-0.17535 -0.0145173 -1.72706e-19)
(-0.0645443 -0.0177265 0)
(-0.0812985 0.0505056 0)
(0.889182 0.236997 1.00081e-19)
(1.00051 -0.00438078 2.35947e-21)
(1.03186 -0.00115598 -7.58078e-21)
(1.00721 -0.258595 0)
(0.0442496 0.0194414 -1.72696e-20)
(0.974246 -0.028796 3.46201e-21)
(0.654573 0.23112 0)
(0.602855 0.804262 -6.59335e-21)
(0.986083 -0.0264312 -5.15009e-21)
(1.26818 -0.237382 9.65896e-20)
(0.390196 -0.0140138 0)
(1.23478 0.0286259 -3.29208e-20)
(0.993818 -0.0142627 -4.7531e-21)
(0.998691 -0.00164388 -3.47279e-21)
(-0.136479 -0.0214681 9.78832e-20)
(0.942538 -0.10453 7.87247e-21)
(0.93734 -0.176145 2.03838e-20)
(1.24047 0.0477305 3.85133e-20)
(0.81223 -0.420124 2.81883e-20)
(1.07616 -0.00818453 5.06289e-22)
(0.146751 0.162131 -2.20095e-20)
(0.934177 -0.0863948 2.19259e-20)
(1.08765 0.0946199 2.98303e-20)
(1.00142 -0.00785692 0)
(1.00827 -0.00933355 0)
(1.07736 -0.00576994 0)
(-0.0158725 0.0384024 -2.53048e-20)
(-0.135738 -0.0142571 0)
(1.29312 -0.0751271 -4.50391e-20)
(1.14585 0.234497 0)
(0.113304 0.165769 0)
(0.983023 -0.0757224 -1.41812e-20)
(0.847173 -0.0597589 1.51114e-19)
(-0.349236 -0.0147126 0)
(0.814426 0.083724 0)
(1.04005 -0.00754964 4.28672e-21)
(1.08527 -0.00875805 -2.25505e-20)
(1.01689 -0.000990669 5.28344e-21)
(0.119888 0.0859657 -3.06046e-20)
(0.521395 -0.726777 8.64392e-21)
(1.23635 0.0261429 0)
(0.999859 -0.00102512 -2.33813e-21)
(0.999721 -0.00715646 2.05944e-22)
(1.00679 -0.053233 0)
(-0.304823 -0.00553503 1.06645e-19)
(1.00131 -0.00741961 -1.1288e-21)
(-0.130779 -0.0230554 8.78172e-20)
(1.01443 -0.00132576 0)
(0.291994 0.164675 0)
(1.07717 -0.044105 1.4479e-20)
(1.00954 -0.00134249 -2.31426e-21)
(1.12684 0.0211721 3.95867e-20)
(0.332074 0.0189532 -3.90585e-20)
(0.998737 -0.0022656 -8.64081e-21)
(0.0948349 0.16193 2.20259e-20)
(-0.0442665 -0.013686 3.80881e-20)
(-0.134309 -0.0192725 1.75662e-19)
(1.28285 -0.0094524 0)
(0.944642 0.242004 -3.04513e-20)
(0.939142 -0.179682 -1.48287e-20)
(0.371446 0.180069 0)
(1.23106 -0.0675492 0)
(0.994167 -0.0195955 0)
(0.60125 0.408929 1.47309e-19)
(0.51559 0.201463 8.26869e-20)
(1.00589 -0.00115549 0)
(1.00533 -0.00586881 0)
(1.00042 -0.00452269 -2.87983e-21)
(0.955336 -0.171519 1.2813e-20)
(0.519919 -0.0585181 -1.38089e-19)
(0.60597 0.363358 -3.83477e-20)
(1.0171 0.00494563 9.5109e-20)
(1.00785 -0.00470897 -1.2856e-21)
(1.03612 -0.215526 1.05014e-20)
(1.20059 0.0266736 4.45088e-20)
(1.00243 -0.00565383 0)
(1.03118 -0.00079692 4.17734e-21)
(1.16684 -0.129697 1.78479e-20)
(0.990581 -0.0182845 -3.09336e-21)
(1.11184 0.0312668 0)
(0.995163 -0.00312693 0)
(1.027 -0.155134 0)
(-0.00853003 -0.0149378 0)
(0.837815 -0.112313 7.60512e-20)
(1.02118 -0.148064 -2.43721e-21)
(0.0498779 0.0250277 -6.7137e-21)
(0.103593 0.000670668 -2.69795e-19)
(1.27953 -0.0189249 2.52462e-20)
(-0.0235733 0.0541696 0)
(1.0369 -0.00190008 -6.65095e-21)
(0.833827 0.0796538 -2.8182e-20)
(0.99662 -0.0387441 2.94026e-21)
(1.13137 0.0161695 3.94045e-20)
(0.0108602 -0.0231242 6.43526e-20)
(-0.260441 -0.000150728 -1.40242e-20)
(0.141816 -0.460676 1.85578e-19)
(-0.283241 -0.0116184 4.63691e-21)
(0.120321 -0.339271 -9.32247e-20)
(-0.123158 -0.0148665 4.93761e-20)
(1.00583 -0.00140282 0)
(0.997522 -0.00207789 -3.18579e-21)
(1.10744 0.0412558 1.25346e-22)
(0.864299 -0.140557 0)
(1.30133 -0.0570813 1.12978e-19)
(1.0049 -0.246927 -1.5764e-21)
(-0.00577661 -0.0134481 -3.35228e-20)
(-0.0551334 -0.0243888 -6.49857e-20)
(1.07495 -0.0316376 2.44655e-20)
(1.00195 -0.0163863 -2.32351e-21)
(1.00771 -0.0047473 1.11359e-21)
(0.758126 -0.00816186 -3.87317e-21)
(-0.240662 -0.0103975 0)
(1.01675 -0.0129112 2.24702e-21)
(0.985492 -0.245675 1.58263e-21)
(1.00786 -0.00139278 -5.24212e-22)
(0.976695 -0.0642042 0)
(1.03646 -0.00263695 1.3563e-20)
(-0.317906 -0.0136161 -9.2926e-21)
(-0.0928665 0.0489049 4.91774e-20)
(1.06018 0.00273285 5.49945e-21)
(-0.0266864 0.0774668 2.0914e-20)
(1.00312 -0.000597449 -2.11903e-22)
(1.05356 0.00564904 -1.52442e-20)
(1.10761 0.0388291 0)
(1.14719 -0.132553 -2.51498e-20)
(-0.171708 0.0270113 -4.54871e-20)
(0.970464 -0.0783572 -2.69745e-20)
(1.11147 0.0344228 0)
(-0.105729 -0.0174669 0)
(-0.315853 -0.0110738 0)
(1.07837 -0.0361529 -2.45347e-20)
(0.934756 0.187947 9.54133e-20)
(0.970812 -0.000585474 -1.84778e-20)
(1.20675 0.0259054 9.33867e-22)
(-0.120589 -0.0170401 0)
(0.182312 0.159899 4.73086e-20)
(1.03768 -0.0524623 0)
(0.828911 0.0187461 -2.2429e-20)
(0.998583 -0.00151807 9.70728e-21)
(0.997676 -0.0371401 -2.03773e-21)
(0.942435 -0.100127 1.38306e-20)
(0.102594 0.0738557 1.63983e-20)
(-0.158928 0.0207286 1.18228e-19)
(0.999881 -0.00591683 0)
(-0.0922096 -0.00786841 7.58443e-20)
(-0.123319 -0.022075 -2.25245e-19)
(1.00922 -0.00115746 2.76973e-21)
(0.997165 -0.00247804 0)
(-0.0261324 0.0683567 -2.46255e-20)
(1.1548 -0.149141 8.97383e-20)
(1.10836 0.161702 3.39625e-20)
(0.0274326 0.034245 0)
(0.0304125 0.08211 0)
(0.00856674 -0.00730198 -2.12318e-19)
(1.02875 -0.0797185 -1.45739e-21)
(1.00004 -0.0012038 0)
(1.1 -0.0357109 -2.79353e-20)
(0.859555 -0.0205095 3.86948e-20)
(0.997576 -0.00193463 -2.34375e-23)
(1.00666 -0.00767446 2.36717e-22)
(0.421548 0.133618 -4.50779e-20)
(1.12422 0.0252848 -1.27214e-20)
(-0.0816996 0.0179562 0)
(0.576127 0.211206 0)
(1.00829 -0.0011909 5.69861e-22)
(0.382011 0.32621 0)
(1.017 -0.000752133 1.01656e-22)
(1.11991 0.086654 -1.54072e-20)
(-0.222777 -0.0115127 0)
(1.02625 -0.0771139 0)
(1.0434 0.00538311 2.38733e-21)
(1.0723 -0.033739 -1.63992e-20)
(1.15077 -0.199095 0)
(1.07919 0.00590491 0)
(1.04944 -0.0273426 0)
(-0.0925275 -0.0209216 0)
(1.0003 -0.00395865 2.47416e-21)
(1.09669 -0.0471385 3.05288e-20)
(1.08958 0.0858774 3.60489e-20)
(1.0384 -0.0799942 6.88416e-21)
(0.999987 -0.00614977 0)
(1.02433 -0.0766823 0)
(-0.0115791 -0.00706076 0)
(1.01438 -0.0107208 -8.19985e-22)
(0.997865 -0.00171057 9.4997e-21)
(1.01645 -0.0128491 -2.19422e-21)
(1.0125 0.194779 7.16078e-20)
(0.672313 0.225681 -9.17304e-20)
(1.00104 -0.00703752 2.24844e-21)
(1.01396 -0.0457231 0)
(1.00692 -0.00786393 0)
(0.789369 -0.0267434 0)
(1.00185 -0.0326483 0)
(-0.254559 0.00291796 -1.30425e-20)
(1.22672 0.0667799 -3.54794e-20)
(0.980067 -0.0186247 0)
(1.03131 0.000387616 6.13086e-21)
(1.07484 -0.0112827 -2.00555e-20)
(0.317046 -0.128987 -1.08707e-19)
(-0.300885 -0.0125883 -4.53605e-20)
(0.904317 -0.052931 -3.28165e-20)
(1.00025 -0.00420274 0)
(0.114742 0.357175 7.30038e-22)
(0.656509 0.0394521 9.55269e-23)
(1.04228 -0.0803673 3.26737e-21)
(0.997203 -0.00225945 -3.95978e-21)
(1.25189 0.141918 -7.53227e-21)
(1.00337 -0.0172391 2.32519e-21)
(0.928669 -0.0102537 6.09531e-20)
(-0.000909735 0.0635958 0)
(1.14814 -0.149299 -7.21616e-20)
(0.929407 -0.159976 0)
(0.868632 -0.00465852 -8.28966e-20)
(1.0504 -0.0262712 9.76673e-21)
(1.00114 -0.0324008 0)
(1.02491 -0.00456028 3.03614e-21)
(0.179316 0.112538 -2.28603e-21)
(1.00831 -0.00947619 -5.25592e-22)
(0.123014 0.15812 1.3526e-21)
(1.04358 0.00654355 0)
(1.03653 -0.000939836 0)
(0.432595 1.11866 7.30078e-20)
(-0.0521985 -0.00793174 0)
(1.28627 0.0182301 -1.03085e-19)
(-0.0729397 -0.00597758 6.18293e-20)
(-0.270785 -0.0134972 -1.33345e-19)
(0.21207 0.125658 0)
(1.04082 -0.00647471 -4.67511e-21)
(-0.0321257 -0.00878357 0)
(1.25216 0.138858 0)
(-0.0130978 0.068438 -1.66751e-20)
(1.05217 0.00633435 1.43496e-20)
(0.999413 -0.00824671 4.774e-21)
(1.01428 -0.0121769 -2.95835e-21)
(0.900023 -0.0360292 1.89111e-20)
(1.0238 -0.0486357 -5.03544e-21)
(1.13886 -0.131909 1.21596e-20)
(0.986099 -0.0665019 1.11664e-20)
(1.086 0.0853953 -1.72195e-20)
(0.99791 -0.00168248 -7.04122e-21)
(1.00716 -0.00448258 -1.33415e-21)
(0.684355 0.0798526 2.2956e-20)
(1.08329 -0.0342773 9.74356e-21)
(0.671124 0.0474062 0)
(1.11539 0.0279256 -2.83433e-20)
(0.999179 -0.00846604 0)
(1.02435 -0.00521801 -5.99245e-21)
(1.00502 -0.00590834 0)
(0.00508264 0.0741173 -1.63317e-20)
(0.000327735 0.0479258 -6.77483e-21)
(1.00007 -0.0056579 1.59975e-21)
(1.0126 -0.00925693 0)
(0.993051 -0.00482876 5.37851e-21)
(0.9999 -0.000477608 0)
(1.05093 -0.307934 -2.01845e-20)
(1.00007 -0.000712044 0)
(0.157979 -0.0328119 0)
(0.530851 -0.672193 1.62325e-20)
(1.00629 -0.00598873 0)
(1.00289 -0.0172715 -1.61863e-21)
(1.3332 0.0669282 7.6836e-20)
(-0.119593 -0.0212888 0)
(0.601982 0.905491 4.18247e-21)
(-0.0122787 0.063987 3.29394e-20)
(1.00004 -0.00170739 3.82024e-21)
(1.11498 0.0289259 3.00067e-20)
(1.28588 0.0235541 1.78789e-19)
(1.03678 -0.00152736 8.88799e-22)
(-0.0190544 0.0409154 4.1754e-20)
(1.16909 0.241238 4.194e-20)
(1.08517 -0.0106936 1.65866e-20)
(1.03919 -0.0715277 7.43965e-21)
(0.986797 -0.0106749 4.89153e-21)
(0.996852 -0.00263291 0)
(1.00002 -0.000149734 5.22099e-22)
(-0.159213 0.0302164 0)
(0.987632 -0.0109076 -3.64845e-21)
(1.01946 -0.000373051 0)
(1.08598 -0.0169352 6.12102e-21)
(1.02366 -0.0092402 -1.66093e-21)
(0.0879962 0.0761916 0)
(1.23349 0.137065 1.41853e-19)
(0.999952 -0.00194446 -3.21355e-21)
(0.998025 -0.00140688 7.16046e-21)
(-0.194556 -0.0134896 -4.64343e-20)
(1.0118 -0.0110702 0)
(1.01102 -0.0106743 0)
(1.01928 -0.0421502 1.905e-21)
(1.28598 -0.0578431 1.28019e-19)
(-0.0395563 -0.0085062 -1.93718e-20)
(1.00009 -0.00101406 0)
(0.933575 0.00625491 0)
(1.05347 0.00364738 -7.85421e-21)
(1.03644 -0.00308802 -1.83446e-20)
(-0.100965 0.0157101 7.24997e-20)
(-0.0871367 0.0232354 0)
(0.978559 -0.0418299 3.92961e-21)
(0.884351 -0.0329917 9.58984e-20)
(-0.141529 0.0283452 -1.69349e-19)
(0.91824 -0.175952 0)
(1.03073 0.0842965 1.31015e-19)
(1.0751 -0.0168754 9.86439e-21)
(1.09369 -0.0395389 3.9283e-21)
(1.14308 -0.207691 0)
(0.963448 -0.430571 -5.09245e-21)
(1.01825 0.000163402 3.20038e-21)
(0.998691 -0.00586489 -7.21048e-21)
(1.04885 -0.0296433 2.16322e-22)
(0.994095 -0.0139295 0)
(0.294038 -0.000234033 0)
(1.00417 -0.0812813 1.5362e-21)
(0.416172 -0.430666 4.36995e-20)
(0.999933 -0.000879351 -3.65366e-21)
(1.25852 -0.23381 0)
(0.99631 -0.0194644 0)
(-0.00262537 0.0482394 6.5643e-21)
(-0.350869 -0.00956655 -4.73101e-21)
(0.909705 0.000663226 1.92158e-20)
(0.374795 0.0530746 8.62817e-20)
(0.926872 -0.169155 0)
(1.04991 -0.0288798 0)
(1.0976 0.0409236 -3.14881e-20)
(0.0833951 0.0712669 0)
(0.93264 0.127325 -1.46036e-19)
(1.00038 -0.000180342 -4.44926e-22)
(0.104867 -0.0311033 5.14646e-20)
(1.11153 0.0102412 0)
(1.02248 -0.00736356 0)
(0.431238 -0.0168491 0)
(-0.195557 -0.011857 -8.3248e-20)
(1.00167 -0.0169731 -3.34397e-21)
(0.290036 0.165301 0)
(-0.010296 -0.00826558 4.42581e-20)
(0.999635 -0.00700619 -2.10545e-22)
(-0.311551 -0.00662535 -4.17021e-21)
(1.05121 -0.324829 -1.1395e-20)
(1.03592 -0.00374165 1.56796e-20)
(0.771713 -0.0194708 3.33012e-21)
(0.487041 0.142836 -4.78755e-20)
(1.26903 -0.0667756 -2.35864e-20)
(1.10218 0.0434202 -1.63408e-20)
(0.155295 0.154668 6.02084e-20)
(0.0698943 0.358998 2.29335e-20)
(1.23501 0.151704 7.82621e-20)
(1.20221 -0.0372316 4.34002e-20)
(1.02319 -0.00869042 4.46299e-21)
(-0.155007 -0.0190031 -8.02794e-20)
(0.991956 -0.0174397 -5.01489e-21)
(0.995195 -0.0361643 0)
(0.341201 0.0773327 -1.18142e-19)
(1.05232 0.0828559 -4.90076e-20)
(0.997853 -0.0621404 5.35221e-21)
(0.978298 -0.0420035 -3.60296e-21)
(1.10894 0.0121458 2.7304e-21)
(1.07329 -0.0141878 -9.15348e-21)
(0.971561 -0.00137319 1.44418e-20)
(1.01481 -0.0122074 3.00914e-21)
(1.01637 -0.0015114 0)
(1.02232 -0.226229 7.19754e-21)
(-0.121618 -0.00824285 0)
(1.0048 -0.00544898 7.5545e-23)
(1.11537 0.0852434 2.24247e-20)
(0.999943 -0.000478829 -2.2409e-21)
(-0.280892 -0.00283883 -6.02306e-20)
(0.998797 -0.00550039 2.26628e-21)
(1.003 -0.000279768 2.57013e-22)
(1.15121 0.22095 -3.19609e-20)
(0.581394 0.0126637 -6.71473e-20)
(0.97123 -0.240294 0)
(-0.0211218 0.0651512 0)
(1.00335 -0.00970552 0)
(1.0029 -0.00936967 7.04435e-22)
(-0.0556113 -0.023208 -7.14913e-20)
(0.719185 -0.180526 -1.22708e-19)
(1.14818 -0.14183 2.70764e-20)
(1.04994 -8.82111e-05 -1.42932e-20)
(0.597695 -0.336264 0)
(0.502559 -0.0495968 1.25013e-19)
(1.00017 -0.00330351 1.27625e-21)
(0.998784 -0.0020049 5.8497e-24)
(1.00001 -0.00218345 -5.54375e-21)
(1.03449 -0.056735 1.60099e-21)
(0.203381 0.121909 -3.30514e-20)
(-0.0391823 -0.0222903 -1.92945e-20)
(0.993629 -0.034411 2.73244e-21)
(1.00395 -0.0571044 0)
(0.626604 0.142329 -1.16121e-21)
(-0.152808 -0.0171168 0)
(-0.2899 -0.011593 -6.67456e-20)
(1.01962 -0.000244986 2.48632e-21)
(0.964938 -0.0443814 -3.70099e-21)
(0.593937 0.821032 5.79669e-21)
(0.995696 -0.0360571 -3.06551e-21)
(0.998607 -0.00125515 0)
(1.00069 -0.00692915 0)
(1.01765 -0.00762594 -3.68011e-21)
(1.17596 -0.0700396 0)
(0.459367 -0.266744 1.15471e-19)
(0.682047 -0.727645 0)
(0.989187 -0.438037 1.72916e-20)
(1.00129 -0.0073103 3.194e-21)
(1.27058 -0.0327535 4.20224e-20)
(1.0077 -0.0118317 -2.62926e-22)
(1.00003 -0.000361941 -9.85615e-23)
(0.0245057 -0.0128854 8.0226e-20)
(0.921326 -0.728179 1.93033e-20)
(1.02539 -0.223848 5.12384e-21)
(0.511925 0.191382 5.57673e-21)
(-0.0743216 0.0532308 -1.88493e-20)
(0.656109 0.0159849 1.13628e-19)
(-0.0616651 -0.0208391 5.07408e-21)
(1.2444 -0.116766 -4.41691e-20)
(0.00923029 -0.016808 -1.3823e-19)
(-0.321746 -0.00976671 -7.13921e-20)
(1.09248 0.0972209 2.33919e-20)
(-0.306143 -0.0140707 6.8544e-20)
(0.994646 -0.016573 1.95196e-21)
(0.672038 0.0574748 0)
(1.03958 -0.0516819 6.57685e-21)
(1.0561 0.00642834 -2.2867e-20)
(0.646562 0.112966 1.01477e-21)
(1.15598 0.248076 0)
(0.985776 -0.0625885 8.77829e-21)
(1.28349 -0.176386 0)
(0.89361 0.0565097 2.82025e-20)
(1.12977 0.00999531 -3.41673e-20)
(0.999839 -0.000962695 1.19714e-20)
(0.980535 -0.0086445 -8.90754e-23)
(0.894195 -0.670038 -6.6689e-21)
(-0.028483 -0.00837826 0)
(0.00821753 0.0726148 -1.0484e-19)
(1.02098 -0.00121799 2.41808e-21)
(1.28124 -0.170413 0)
(-0.101697 -0.0287418 1.35631e-23)
(0.960361 -0.00846301 0)
(1.05412 0.00321416 1.67518e-20)
(0.992713 -0.00477665 -3.0008e-21)
(0.919768 -0.0254543 -2.08391e-20)
(0.682791 -0.34364 -6.11877e-20)
(-0.163659 -0.0167078 1.6744e-19)
(1.0002 -0.000709389 -6.4165e-22)
(0.0380339 -0.0228301 0)
(0.998791 -0.00474363 0)
(0.188405 0.153938 -5.5044e-20)
(1.07124 -0.0626709 -9.86824e-21)
(1.01502 -0.0427446 -8.02328e-22)
(1.07144 -0.0779198 -1.44338e-20)
(-0.17226 -0.0154821 -1.27359e-19)
(1.03175 0.000982139 -3.20575e-21)
(1.00234 -0.004864 0)
(-0.0996033 -0.00801622 8.75162e-20)
(-0.00237344 -0.0217405 1.63796e-20)
(1.16191 -0.200973 -6.62599e-20)
(0.742663 0.080431 1.09282e-19)
(1.04938 -0.00119419 1.51344e-20)
(1.00093 -0.00639554 0)
(0.999231 -0.000969803 -1.4394e-21)
(-0.0169651 0.0793371 -5.96527e-21)
(0.715299 -0.247641 1.31738e-20)
(-0.0145557 0.0277325 0)
(1.09527 -0.0706259 -2.39705e-20)
(0.656904 -0.729639 0)
(-0.0440938 0.00792285 -3.98067e-20)
(1.10915 0.0383513 -4.0526e-20)
(-0.1853 -0.010351 5.96949e-23)
(0.964003 -0.0437803 3.72105e-21)
(-0.23031 -0.0107126 1.82971e-20)
(1.01759 -0.00657655 0)
(0.506336 -0.0115774 0)
(0.0521689 -0.0110882 3.40745e-20)
(0.686754 -0.205657 1.35219e-19)
(1.07608 -0.00907794 2.00177e-20)
(0.198932 0.120878 0)
(-0.211546 -0.0113915 1.74087e-19)
(1.00216 -0.00583611 0)
(0.399943 -0.139532 -8.91881e-20)
(0.990748 -0.018348 4.02384e-22)
(1.00011 -0.000584276 -7.9667e-22)
(-0.292207 -0.0126821 -3.80073e-20)
(-0.115347 -0.0198923 0)
(0.99996 -0.00213149 6.52016e-21)
(0.999758 -0.0065543 0)
(1.01443 -0.0011242 -2.53558e-21)
(0.114121 -0.441036 -7.11756e-20)
(-0.00960329 -0.00640708 7.52382e-20)
(1.00243 -0.00525146 0)
(1.29583 0.0064748 -6.9405e-20)
(1.03954 -0.0749883 -1.02651e-20)
(1.04333 0.00395707 0)
(1.00324 -0.00903657 -5.22403e-22)
(1.18378 -0.128213 4.22502e-20)
(1.27441 -0.0245541 -2.99543e-20)
(1.0803 -0.0430936 -2.44806e-20)
(0.47639 -0.123528 -4.50914e-20)
(1.00013 -0.00595009 -3.16274e-21)
(1.00733 -0.00459022 1.2681e-21)
(0.608495 0.214706 0)
(-0.339119 -0.00986444 0)
(1.26037 0.130679 -1.50719e-20)
(-0.330186 -0.00999777 -1.84523e-20)
(0.152429 -0.0734759 -6.69733e-20)
(0.968005 -0.00681695 -2.37265e-20)
(-0.100745 -0.0279926 5.1025e-20)
(0.473433 -0.112461 -4.45417e-20)
(0.937814 -0.0411555 2.47516e-20)
(0.319234 -0.614412 -4.1286e-20)
(1.04436 -0.273515 0)
(1.06577 -0.06352 0)
(1.07805 -0.169785 -1.27989e-20)
(0.092399 0.0737066 0)
(0.902992 0.00951155 0)
(1.1955 -0.038091 -4.23225e-20)
(1.03071 -0.0558192 1.29579e-21)
(1.08842 -0.0951934 -1.10319e-21)
(-0.113122 -0.0265204 -5.23387e-20)
(1.00221 -0.00553608 -9.60724e-22)
(0.424125 0.179774 7.99021e-20)
(1.17822 -0.0757116 -1.83873e-20)
(0.890939 -0.234898 -2.87344e-20)
(0.949871 -0.177207 -1.58636e-20)
(1.02325 -0.00858757 0)
(1.05191 0.000682429 -3.73811e-21)
(-0.0299503 0.0217694 3.38902e-20)
(1.00214 -0.00476433 -7.83874e-22)
(0.998845 -0.00460406 -2.35211e-21)
(1.21824 0.0100369 -5.40889e-20)
(1.02093 -0.00785085 -2.57566e-21)
(1.15597 -0.136369 -3.05539e-20)
(1.04372 0.00471096 -2.70391e-21)
(1.23578 0.0568315 1.95017e-20)
(0.976092 -0.0284378 6.05785e-21)
(1.09925 -0.0672331 -4.1742e-20)
(1.02422 -0.00538209 0)
(0.250345 -0.246775 -1.25899e-19)
(-0.328689 -0.0117892 0)
(0.0928548 0.507615 -1.69491e-19)
(1.03211 -0.0562734 0)
(-0.296962 -0.0144832 0)
(-0.0599756 -0.021969 4.14223e-20)
(0.521722 -0.00889342 0)
(1.03618 0.000800691 0)
(0.00160095 -0.00782103 -6.93379e-20)
(0.963108 -0.00103483 2.44627e-20)
(-0.150129 0.202117 -1.06846e-21)
(0.995387 -0.00328894 0)
(0.653283 -0.0918788 -9.95282e-20)
(1.05981 -0.0415166 0)
(0.00262547 0.0487998 1.20904e-20)
(-0.334679 -0.00912851 -7.28856e-20)
(1.29783 -0.0933174 -1.15548e-19)
(-0.132945 0.0367365 4.06359e-20)
(1.01971 0.000252876 -7.00162e-21)
(-0.307377 -0.0052987 0)
(1.00532 -0.000542853 0)
(0.905268 -0.0661772 -1.00696e-20)
(0.940839 -0.0461424 0)
(0.988504 -0.00945428 7.57213e-21)
(1.00224 -0.000594527 0)
(-0.266358 0.00064594 -2.90003e-20)
(1.11791 0.0782346 2.13645e-20)
(1.04835 -0.0322793 9.44965e-21)
(0.0793821 -0.0224436 6.94702e-20)
(0.130526 -0.0698248 0)
(0.771085 -0.136572 -2.3201e-20)
(1.01981 0.000121126 4.18712e-21)
(0.943599 -0.079804 2.33666e-20)
(1.00011 -0.00113739 0)
(1.01207 -0.0115089 1.19553e-21)
(1.01748 -0.00723353 0)
(0.993251 -0.0201694 3.30775e-21)
(0.45059 -0.287337 -1.06039e-19)
(1.06838 -0.0799985 1.05945e-20)
(0.510056 -0.0148756 -1.31326e-19)
(-0.198835 -0.0102103 4.80784e-20)
(-0.295515 -0.00303459 -3.77925e-20)
(-0.219783 -0.0104171 -1.15981e-19)
(0.742274 -0.42856 -3.65532e-21)
(0.904759 0.0136517 -1.16986e-20)
(0.998876 -0.00155692 4.15203e-21)
(0.96328 -0.0328992 -5.42348e-20)
(1.00838 -0.00907873 -6.40408e-22)
(-0.263533 0.00222808 -1.26609e-19)
(0.0172132 0.0475947 2.913e-20)
(1.02178 -0.00759008 0)
(1.09108 -0.106465 -1.38412e-21)
(0.148916 0.0994413 0)
(0.0280703 0.0451096 -5.34628e-20)
(0.522402 0.195391 -5.36385e-20)
(1.10371 -0.064436 1.19033e-20)
(0.910236 0.0191015 0)
(1.02049 -0.0178519 -3.52453e-21)
(0.119369 0.0891321 3.15491e-20)
(-0.297369 -0.00404812 0)
(0.813573 0.0119571 4.61541e-20)
(1.0417 -0.255094 1.06539e-20)
(1.31044 -0.0732739 -1.40174e-19)
(-0.346974 -0.0103447 0)
(1.02766 -0.26686 -1.28473e-20)
(0.0619438 0.0617599 4.36152e-20)
(0.909587 -0.353839 1.21362e-21)
(0.773852 -0.43149 -2.30822e-20)
(1.00316 -0.00979497 6.8615e-22)
(-0.311575 -0.0144404 -8.7867e-20)
(1.12149 0.0898261 8.03244e-21)
(1.11734 0.0709651 -6.39042e-20)
(-0.116293 0.040937 0)
(1.01473 -0.0167316 -2.15104e-21)
(1.12365 0.122807 0)
(0.706957 -0.205311 0)
(1.01538 -0.0166223 2.56438e-21)
(1.20175 0.168946 3.97158e-20)
(0.886088 0.119863 1.10078e-19)
(0.0746109 0.0672012 -4.34543e-21)
(0.0491344 -0.00776021 1.11342e-19)
(0.85827 0.0174565 -2.53887e-20)
(1.09521 -0.0575574 0)
(1.00202 -0.000722648 0)
(0.610842 -0.311049 0)
(1.03493 -0.596132 2.47634e-20)
(0.935458 -0.0828399 -7.19107e-21)
(-0.0220019 -0.00770523 -1.00419e-19)
(1.0021 -0.0224018 2.18951e-21)
(-0.0035548 0.0101108 7.54811e-20)
(-0.0349817 -0.0182988 0)
(1.08235 -0.0052011 2.5118e-21)
(0.977582 -0.0755843 0)
(0.999936 -0.00110051 0)
(0.866152 -0.125374 1.86929e-20)
(1.00013 -0.00146636 -6.28043e-22)
(0.241641 -0.0830534 9.33311e-20)
(1.15954 0.102959 0)
(0.0709744 0.00769932 1.87291e-19)
(1.01395 -0.0103369 1.36173e-21)
(1.01545 -0.016068 0)
(1.01991 -0.0181771 -3.45761e-21)
(0.56 -0.19399 -5.09662e-20)
(0.0758779 0.0340074 1.218e-19)
(0.844786 0.0206345 -2.26928e-20)
(0.195191 -0.0835711 9.77984e-20)
(1.10803 0.0798987 0)
(1.11114 -0.0506933 9.78334e-20)
(0.995681 -0.00304582 0)
(1.00086 -0.000455787 1.23756e-23)
(1.23673 -0.299146 -4.38047e-20)
(0.997432 -0.0648301 -2.34343e-21)
(1.19775 0.207646 0)
(0.056819 -0.398405 0)
(0.78216 -0.226611 1.55621e-21)
(1.3022 -0.0561923 0)
(1.03996 -0.0319277 -2.60298e-21)
(-0.275656 -0.00619861 -1.45262e-20)
(0.408001 0.167802 5.91344e-21)
(0.59929 0.353109 -5.48551e-21)
(1.05964 0.00320832 -1.69015e-20)
(1.0115 -0.00141896 -2.66484e-23)
(1.04969 -0.0346146 -8.95288e-21)
(0.999263 -0.00371308 0)
(1.2879 0.0469531 1.17232e-19)
(0.984206 -0.0797914 0)
(1.02329 -0.0110178 1.01851e-20)
(1.19822 0.167114 0)
(0.950202 -0.0275817 1.62011e-20)
(-0.019338 0.0716226 -1.67564e-20)
(1.00618 -0.380226 -2.38777e-20)
(0.920372 -0.166537 -2.303e-20)
(1.00594 -0.0060438 -5.42914e-22)
(0.11033 0.0825922 -2.48623e-21)
(1.03237 -0.000648377 1.22553e-20)
(1.08366 -0.00803203 -1.07446e-22)
(0.133415 0.0796745 -4.53834e-21)
(0.626826 -0.128708 0)
(1.00276 -0.00967349 0)
(0.993 -0.41298 -2.07152e-21)
(-0.00172541 0.0392022 -2.02398e-20)
(1.02913 -0.0147641 -6.08008e-21)
(1.0006 -0.00639057 0)
(0.995867 -0.0165024 0)
(0.758448 -0.11788 -3.19574e-20)
(0.00429504 0.0466776 -2.39093e-20)
(1.00237 -0.0052192 1.9724e-22)
(-0.0617471 0.0143798 -8.18519e-20)
(1.00007 -0.000854329 0)
(-0.145733 -0.021354 0)
(0.181863 -0.0511954 -1.30529e-19)
(-0.0134505 0.0311806 0)
(0.0437281 0.035166 -7.76596e-21)
(0.973385 -0.245008 0)
(1.0981 -0.0533896 2.01572e-20)
(0.352568 -0.0883931 -5.84846e-20)
(1.0048 -0.000614114 -1.38703e-21)
(0.907336 0.0842309 1.01832e-19)
(1.02859 -0.0154707 0)
(1.00943 -0.00401213 -3.21708e-22)
(1.02165 -0.00205081 0)
(1.03925 -0.0181015 -1.7555e-20)
(0.168686 0.134893 -6.05074e-21)
(1.02456 -0.0235215 -2.48814e-21)
(1.00203 -0.00441068 7.4627e-22)
(1.01296 -0.0446067 -4.43725e-22)
(1.02363 -0.0106926 -3.84832e-21)
(0.925426 -0.573395 1.85102e-20)
(0.966559 -0.0500938 8.78549e-22)
(-0.180522 -0.014778 7.17676e-20)
(1.0034 -0.00905656 5.15322e-22)
(0.999395 -0.00342496 4.4123e-21)
(1.00234 -0.00593262 0)
(0.38697 0.165355 0)
(-0.3497 -0.013636 1.50809e-19)
(-0.397795 -0.143582 7.88154e-20)
(0.445223 -0.409529 -1.08249e-19)
(1.00913 -0.00358156 -3.87873e-22)
(-0.0970354 0.0471602 -7.23456e-20)
(-0.128477 -0.0192537 -2.20284e-20)
(1.03443 -0.0540107 2.08394e-21)
(0.999646 -0.0133736 -4.09848e-21)
(-0.1634 0.0125591 0)
(-0.261151 -0.000748845 4.77016e-20)
(1.06159 -0.0649343 8.10196e-21)
(1.20119 0.0959169 2.96578e-20)
(0.588758 0.15448 6.00145e-20)
(1.03389 -0.233616 0)
(1.03676 0.00029413 -1.21003e-21)
(1.14985 0.0368221 3.98116e-21)
(1.08766 -0.0947644 2.67189e-21)
(1.14752 0.0350866 -3.22917e-21)
(0.0438167 0.0505317 9.65169e-21)
(0.0889092 -0.0390242 -4.6486e-20)
(1.02474 -0.00402258 -5.44003e-23)
(-0.263059 0.00166871 2.36601e-22)
(1.0162 -0.0160231 -2.25153e-21)
(1.28949 -0.19462 0)
(1.11357 0.0716753 -3.89045e-21)
(1.13802 -0.123951 0)
(0.987692 -0.00997031 4.22515e-21)
(-0.334167 -0.0112535 0)
(-0.046858 0.0203408 4.96015e-20)
(1.01207 0.111187 7.93824e-20)
(0.999077 -0.00087863 7.30611e-21)
(1.08654 0.0798875 3.24999e-20)
(1.0235 -0.00815265 0)
(-0.304766 -0.00459342 8.00491e-20)
(1.00202 -0.00540129 -1.30319e-21)
(1.09788 0.0354463 2.11415e-20)
(1.05334 -0.023017 -1.10457e-20)
(1.00814 -0.0112244 -3.846e-22)
(0.771397 -0.254505 -1.61016e-21)
(1.00326 -0.0778787 -4.5274e-21)
(0.997428 -0.00452895 8.86817e-21)
(0.252748 0.128036 1.81454e-19)
(1.00119 -0.00512792 1.16091e-21)
(0.0235102 -0.0121314 -1.71982e-20)
(1.0959 -0.0424704 -4.03179e-20)
(1.12429 -0.45226 -6.66332e-20)
(0.997728 -0.0283979 8.15177e-21)
(1.2232 0.140213 -1.47497e-19)
(0.931254 -0.296149 0)
(0.993997 -0.0344892 -2.92816e-21)
(-0.145527 -0.0209908 0)
(1.28048 -0.160991 -7.73011e-20)
(0.518415 0.143537 -1.47121e-20)
(0.998942 -0.00174539 0)
(0.920821 -0.00949051 0)
(1.24383 -0.106991 -2.02845e-20)
(0.386568 0.029535 1.76166e-20)
(0.999458 -0.0137991 4.66278e-21)
(1.0047 -0.0536229 7.39916e-22)
(1.06453 0.0014311 1.30036e-20)
(0.377562 0.169695 -1.08302e-19)
(1.01963 -0.00285396 -6.27175e-21)
(1.20679 -0.00446419 4.57523e-20)
(1.28697 0.0466598 7.56825e-20)
(0.967651 -0.0507491 3.38972e-21)
(1.01964 -0.000813505 0)
(1.00072 -0.0003581 2.85516e-23)
(1.00648 -0.00685968 -3.73818e-23)
(1.1113 -0.154491 3.21556e-20)
(1.02155 -0.0078859 5.37166e-21)
(0.912027 -0.548535 -1.08691e-20)
(1.11893 -0.0341431 2.98431e-23)
(1.02428 -0.0039246 -5.0063e-23)
(1.01963 -0.0750431 6.53668e-21)
(-0.285576 -0.0144373 0)
(1.00417 -0.0173856 0)
(1.06616 -0.0465806 -1.59435e-20)
(1.01131 -0.0110234 -8.03687e-22)
(1.00184 -0.00557495 1.20254e-21)
(1.17172 -0.0856513 -6.53594e-20)
(1.21549 0.144517 6.17109e-20)
(0.0612839 -0.464449 7.12671e-20)
(1.14642 0.218212 -5.29579e-20)
(1.05988 -0.00775852 -1.06281e-20)
(1.04109 -0.0307146 7.82827e-21)
(-0.183833 -0.0143944 1.45802e-19)
(0.124057 -0.089588 9.12838e-20)
(0.567611 -0.0190315 1.73061e-19)
(-0.315603 -0.0149721 0)
(0.69039 -0.245636 -1.37097e-19)
(1.2601 0.129493 -8.76673e-21)
(1.00327 -0.00847936 0)
(1.08738 -0.104228 -1.90416e-20)
(-0.197423 -0.0131328 0)
(-0.320713 -0.0117184 0)
(-0.180518 -0.0107088 -4.76088e-20)
(1.00104 -0.00484856 -1.61282e-21)
(0.936638 -0.31434 8.94718e-21)
(1.0363 -0.231219 0)
(-0.26952 -0.00281653 1.61871e-19)
(-0.20685 -0.0121521 5.09857e-20)
(0.997431 -0.00960747 -3.04905e-21)
(0.668168 0.127821 0)
(0.916489 -0.01418 -2.0481e-20)
(0.113108 0.206751 6.14064e-22)
(-0.264697 -0.0152517 0)
(0.165594 0.527282 2.25213e-19)
(1.01305 -0.00979646 1.22291e-21)
(1.29044 -0.104102 2.58605e-20)
(1.00002 -0.000188578 5.82303e-24)
(1.03619 0.0018922 0)
(-0.000417723 -0.0077987 9.6911e-20)
(0.999998 -2.59107e-05 0)
(1.05334 0.00018319 -1.79984e-20)
(-0.00396013 -0.0307791 8.52886e-20)