/*--------------------------------*- C++ -*----------------------------------*\
| =========                 |                                                 |
| \\      /  F ield         | OpenFOAM: The Open Source CFD Toolbox           |
|  \\    /   O peration     | Version:  v2012                                 |
|   \\  /    A nd           | Website:  www.openfoam.com                      |
|    \\/     M anipulation  |                                                 |
\*---------------------------------------------------------------------------*/
FoamFile
{
    version     2.0;
    format      ascii;
    class       surfaceScalarField;
    location    "400";
    object      ddtCorrDdt0(phi);
}
// * * * * * * * * * * * * * * * * * * * * * * * * * * * * * * * * * * * * * //

dimensions      [0 3 -2 0 0 0 0];
oriented        oriented;


internalField   nonuniform List<scalar> 
27688
(
-3.11042e-06
2.98078e-06
1.2992e-07
-8.38709e-06
4.40276e-06
3.98375e-06
-3.17714e-06
3.45367e-06
-2.7622e-07
1.40573e-06
6.27899e-07
-2.03361e-06
2.42032e-06
3.30258e-07
-2.75074e-06
-3.22982e-06
4.69027e-06
-1.46079e-06
2.2527e-06
-7.43125e-06
5.1621e-06
1.01391e-05
-1.197e-05
1.83062e-06
2.00538e-06
-1.14488e-06
-8.6202e-07
1.09771e-05
1.81211e-06
-1.27905e-05
2.86712e-06
-4.4678e-07
7.25522e-07
2.09995e-06
-2.82557e-06
9.27745e-08
6.01708e-07
-6.94418e-07
3.04061e-06
-3.29779e-06
2.56903e-07
1.68063e-06
-1.0887e-06
-5.91729e-07
-4.97926e-06
1.74935e-06
3.63132e-06
-3.57201e-06
-5.95082e-08
-3.14039e-06
2.99699e-08
8.49693e-07
-3.47546e-08
-8.1544e-07
1.10522e-05
-1.14472e-06
-9.90798e-06
1.37794e-06
3.02723e-07
2.15513e-06
-3.15466e-06
9.89919e-07
1.6418e-07
6.6375e-08
-2.31223e-07
-2.2171e-06
2.94243e-06
1.38848e-06
1.35268e-06
-2.74839e-06
1.82284e-06
1.83038e-07
-5.41861e-06
5.59029e-06
-1.72539e-07
8.65089e-06
-9.91578e-07
-7.6627e-06
5.57473e-06
-3.49366e-06
-2.07976e-06
-3.95358e-07
-2.78169e-06
-3.88661e-06
3.03412e-06
8.52929e-07
-3.3292e-06
4.38487e-06
-1.05674e-06
7.27493e-06
1.71308e-05
-2.44052e-05
1.20209e-06
1.70168e-07
-1.37207e-06
-2.18294e-06
-2.27026e-06
4.45341e-06
7.40197e-06
-8.95828e-07
-6.50818e-06
4.35467e-07
2.29912e-06
-2.73448e-06
1.74804e-05
-1.57669e-05
-1.71459e-06
-3.67203e-06
1.38109e-05
3.39577e-07
-1.75827e-07
7.41002e-06
-7.3506e-06
-6.29484e-08
5.03906e-07
2.47192e-06
-2.97568e-06
-2.13736e-06
9.51483e-06
-7.37783e-06
-1.70534e-05
4.21418e-07
1.66315e-05
5.80364e-06
1.80835e-07
-5.98471e-06
5.27944e-06
-5.33131e-06
5.20908e-08
-1.20557e-06
-8.59996e-06
9.80556e-06
5.06023e-06
-3.24023e-06
-1.81947e-06
-7.46425e-06
5.54489e-06
1.91916e-06
1.32791e-05
-4.42778e-06
-8.85118e-06
-5.60118e-06
1.81838e-07
-2.70317e-06
-1.8477e-06
4.55065e-06
-3.03508e-07
-3.87468e-06
4.18051e-06
-6.02897e-06
4.09144e-06
1.94045e-06
-1.63823e-05
1.18127e-05
4.56929e-06
1.36465e-05
3.8334e-06
7.32717e-07
4.13063e-06
-4.85431e-06
4.89395e-06
4.75761e-06
-9.65178e-06
6.91582e-06
4.88527e-07
1.04046e-05
1.89628e-06
-1.23001e-05
5.57422e-06
-6.21688e-06
6.42165e-07
8.71827e-06
-3.6926e-06
-5.01941e-06
-4.49815e-06
-2.96609e-06
7.69147e-07
-7.18122e-07
-5.10166e-08
-8.90344e-06
1.07455e-05
-1.84499e-06
-4.57845e-06
7.9997e-06
-3.41875e-06
-3.66923e-06
1.40743e-05
6.32397e-06
-6.60271e-06
2.78776e-07
-4.31677e-07
5.24437e-07
7.37406e-06
-4.60618e-07
5.77147e-07
-1.46239e-06
8.86615e-07
1.70854e-07
6.78953e-07
2.86208e-06
-3.68636e-07
-2.49283e-06
-4.06217e-07
-2.93102e-06
3.3373e-06
-9.78677e-06
9.78704e-06
7.16549e-06
2.36813e-07
5.74386e-08
3.31819e-06
-3.37557e-06
2.97303e-06
-1.01585e-06
-1.95711e-06
-1.50249e-06
9.43727e-07
5.58577e-07
2.71005e-06
-7.28585e-06
7.82283e-06
-3.19883e-06
-4.62445e-06
-9.00784e-08
1.29214e-06
-1.41306e-06
-4.9396e-07
1.90725e-06
-3.89921e-06
8.48942e-07
3.05041e-06
-9.88139e-07
3.13621e-06
-1.83213e-06
-1.28191e-06
3.11421e-06
-2.02781e-06
-7.44114e-06
9.46913e-06
-6.99073e-06
-3.63137e-07
4.35568e-06
4.35921e-06
-6.83388e-06
1.1968e-05
-5.13393e-06
-6.00424e-07
-1.55697e-06
2.15747e-06
-7.84126e-07
6.35779e-06
7.23685e-06
-2.02849e-06
-5.20875e-06
-1.31104e-06
4.1167e-07
8.99669e-07
-8.49856e-07
8.88904e-06
-8.03963e-06
-7.73701e-06
1.70722e-06
6.0368e-06
1.51773e-06
2.64987e-06
-4.16776e-06
-3.05587e-06
7.18128e-07
2.33727e-06
-6.91203e-10
6.83175e-07
-6.82601e-07
-1.67921e-06
1.25463e-05
-1.08672e-05
6.5881e-06
6.69101e-06
4.26127e-06
-7.76791e-06
3.50716e-06
-3.70053e-06
3.70775e-07
8.06447e-07
6.43015e-06
3.53064e-06
2.04491e-06
3.29064e-06
6.27831e-07
-3.91785e-06
2.23085e-06
-8.47863e-07
6.02242e-07
-1.05459e-06
4.52299e-07
-1.8103e-06
-5.92642e-06
-1.05749e-05
8.75829e-06
3.65082e-06
-4.61627e-06
9.67041e-07
-1.67746e-05
7.83519e-06
8.93944e-06
1.08876e-05
-1.20929e-05
-1.70534e-05
-1.45375e-06
1.75134e-06
-2.97624e-07
-1.31589e-07
4.57372e-07
-3.26168e-07
6.06474e-06
-3.81312e-06
-5.43169e-07
1.94883e-06
3.93492e-06
-4.23872e-06
1.09723e-05
-1.09725e-05
5.63431e-06
-2.14218e-06
-3.49077e-06
-6.09958e-06
1.25875e-06
4.84179e-06
-7.72328e-06
7.11696e-06
6.06324e-07
-2.55633e-06
4.18875e-06
-1.63212e-06
6.7938e-07
3.6205e-06
-4.30042e-06
7.69988e-06
-3.15442e-06
-4.54654e-06
5.8338e-07
4.81746e-06
-5.40043e-06
8.78608e-07
-9.78396e-06
2.00823e-06
-7.75633e-06
5.74026e-06
7.36263e-06
-1.19017e-05
4.53938e-06
-5.25433e-06
1.50727e-06
3.74676e-06
1.37014e-05
-7.29937e-06
-6.40071e-06
1.07461e-05
3.05851e-07
-4.2705e-06
5.00238e-06
-5.18128e-07
1.52556e-06
-1.00765e-06
-2.17162e-06
7.0544e-06
-4.8827e-06
-1.28525e-06
1.07889e-06
2.06378e-07
4.7397e-06
-1.08674e-06
3.74082e-06
-5.03931e-06
1.3002e-06
-1.95531e-06
3.04025e-06
-1.08504e-06
9.56023e-06
-1.12856e-05
1.72527e-06
-2.39278e-06
-8.18594e-06
-6.70554e-07
-8.32044e-07
-6.75045e-07
-1.69859e-08
6.91984e-07
-7.75058e-06
-9.02395e-06
-1.42381e-06
-2.96976e-08
-2.27989e-07
6.77251e-09
2.21129e-07
7.93203e-07
-2.20622e-06
4.94886e-07
-4.95625e-07
4.60168e-06
-3.93272e-06
-6.68837e-07
-9.85973e-07
-5.93694e-06
6.92233e-06
2.78033e-06
-3.00414e-06
2.23513e-07
2.25928e-05
-2.77839e-05
5.1924e-06
3.06821e-06
2.16165e-06
-5.22982e-06
-6.63654e-06
-1.08672e-06
1.10085e-05
-1.44838e-06
2.1304e-06
1.08179e-05
-1.29483e-05
5.90666e-06
-2.83541e-06
-3.07045e-06
4.94894e-06
-3.09457e-06
-1.85484e-06
8.50275e-06
4.22815e-06
-3.5491e-06
-3.1428e-06
5.22407e-06
-2.08051e-06
6.99542e-06
-1.89306e-05
1.19351e-05
-1.71407e-06
-8.44252e-06
1.01558e-05
8.47797e-07
-1.05807e-06
2.10343e-07
-4.95694e-06
4.61249e-06
3.45198e-07
-6.37078e-07
-3.26217e-06
-2.75647e-06
-1.25693e-07
2.88264e-06
8.9735e-07
-2.78362e-06
1.88637e-06
-1.35802e-06
-1.698e-06
-9.60273e-09
-4.65938e-08
5.63244e-08
-1.8232e-05
2.55076e-05
-4.70652e-06
8.1482e-06
-3.43981e-06
-2.90222e-06
1.52617e-06
1.37259e-06
6.65317e-06
-8.79024e-06
5.05227e-07
-1.58254e-06
1.07741e-06
-1.09784e-05
5.38517e-06
5.5954e-06
-1.34977e-06
4.41846e-06
5.1315e-07
-9.77765e-07
4.64623e-07
-4.65205e-06
-1.18869e-06
5.84051e-06
-5.5269e-06
4.54046e-06
2.75785e-06
-4.94093e-06
1.69058e-05
-8.25287e-06
-3.16212e-06
8.47025e-07
2.31435e-06
6.44228e-07
-9.65776e-07
3.2153e-07
5.48206e-06
-3.90231e-06
-1.58002e-06
-1.02137e-05
8.49895e-06
1.76776e-06
3.2002e-06
-4.96757e-06
7.24925e-06
-9.27739e-06
-7.77418e-08
3.11837e-06
1.61407e-06
-6.44179e-07
-9.70033e-07
4.66969e-06
-5.29348e-06
6.23883e-07
-4.10426e-06
-8.51798e-07
3.66666e-06
-3.53114e-08
-1.37146e-06
7.00754e-07
8.65548e-06
-1.36818e-05
5.02431e-06
-2.93215e-06
9.76865e-07
-2.3689e-06
-8.00436e-06
-2.86089e-06
1.08653e-05
7.19207e-06
-1.38894e-06
3.74259e-06
3.95693e-06
-5.96019e-06
1.15647e-05
-5.60569e-06
6.10363e-06
-4.48791e-06
-1.61586e-06
2.68056e-06
-1.06849e-05
-4.26599e-06
-6.71182e-06
-3.98103e-06
3.82186e-06
1.59567e-07
-1.07593e-05
1.15342e-05
-7.74963e-07
1.10436e-05
-6.78211e-06
5.22749e-07
-5.87172e-07
6.44324e-08
-5.2099e-07
7.72371e-07
-2.51296e-07
1.93941e-06
6.64837e-06
-8.58321e-06
-6.67822e-06
8.6223e-06
-3.46991e-06
-6.23372e-07
4.09384e-06
-1.77096e-07
-5.09e-08
2.43952e-06
8.45314e-07
-3.28428e-06
4.38529e-07
-1.12664e-07
-3.2571e-07
-7.64056e-06
-3.56966e-06
1.12101e-05
-7.81984e-06
1.22295e-06
6.59907e-06
5.28454e-06
-4.29543e-06
-9.89578e-07
4.41991e-06
-5.96859e-06
1.54873e-06
3.75693e-06
8.44578e-07
1.18611e-06
1.49381e-05
-8.77974e-06
-6.15845e-06
2.75754e-07
8.01015e-07
-1.0772e-06
7.28079e-06
-9.08803e-07
-6.3794e-06
9.8918e-07
-1.41287e-07
-3.97073e-06
-2.12937e-06
-8.11091e-06
1.76242e-06
6.34845e-06
6.5307e-06
-4.53102e-06
1.31177e-07
6.19298e-06
-1.18681e-06
-2.90613e-06
4.09314e-06
-6.1021e-07
-5.09439e-06
5.70435e-06
-2.75807e-07
8.77915e-07
2.49254e-07
-6.04607e-06
1.39393e-06
8.5361e-07
5.93636e-08
-9.13187e-07
3.36227e-06
-3.71627e-07
-2.99046e-06
-2.09737e-06
-1.76139e-06
3.85983e-06
4.95883e-06
-8.7393e-06
8.48012e-06
2.58716e-07
-5.35098e-06
-3.03642e-06
-5.41027e-06
2.70681e-06
-7.88991e-07
1.48437e-06
-6.95391e-07
-8.514e-06
6.8348e-06
1.04074e-05
-5.51396e-06
-3.01106e-05
3.03487e-05
-2.38161e-07
1.31724e-05
-4.51712e-06
8.85415e-07
-3.19446e-08
-4.11856e-06
5.40603e-06
-1.28204e-06
-2.71191e-06
1.99483e-06
7.171e-07
-4.02182e-07
-9.08749e-07
2.73351e-06
-1.196e-06
-1.54314e-06
1.91776e-06
6.65646e-06
7.04646e-06
6.45186e-06
-2.49123e-06
-3.96108e-06
-3.88361e-06
4.46725e-06
-2.15361e-06
6.88088e-07
1.46378e-06
-7.54816e-07
1.34357e-06
-5.8881e-07
-1.11915e-07
1.30927e-07
-1.89918e-08
5.23428e-06
-8.14948e-07
1.67497e-06
7.64216e-08
-1.18265e-05
4.18578e-06
-6.46761e-06
-2.74993e-06
4.92674e-06
-2.17671e-06
2.14453e-06
-2.43001e-06
2.79509e-07
-4.32176e-06
1.64864e-05
-1.21639e-05
1.29199e-06
-1.51631e-06
2.23757e-07
-4.70855e-06
1.46878e-06
-3.61684e-06
7.86416e-06
-4.2472e-06
3.60156e-06
1.69528e-06
-5.29646e-06
-6.27991e-06
-1.83064e-06
-1.01368e-06
-2.71602e-07
-1.74726e-06
4.35787e-06
-2.6108e-06
1.6513e-06
2.39171e-08
4.80241e-08
-5.76167e-08
4.00303e-06
1.14646e-07
-4.11807e-06
-6.37669e-06
3.3948e-06
2.98291e-06
-4.15e-06
1.0386e-06
3.11202e-06
4.95877e-07
-4.64881e-06
4.15317e-06
4.73132e-06
1.02066e-05
-8.26759e-07
-1.67291e-07
9.94026e-07
-7.32117e-06
3.52534e-06
3.79532e-06
-1.84404e-06
1.97354e-06
-1.29611e-07
1.46381e-06
2.16808e-06
-3.63231e-06
-1.49762e-05
9.56551e-06
5.41034e-06
-1.911e-06
-8.00925e-07
-2.57088e-06
-2.15086e-07
2.78627e-06
2.94983e-06
2.00178e-06
-4.95272e-06
-9.49746e-07
4.12226e-06
-3.17267e-06
-2.84156e-07
1.08011e-06
-7.95378e-07
-6.46613e-07
-1.406e-06
2.0525e-06
2.46477e-06
-4.92702e-07
-1.9731e-06
-1.41154e-06
-3.87488e-07
1.79895e-06
3.19437e-05
-9.3508e-06
-7.24786e-06
1.09044e-05
-3.66068e-06
-6.8372e-07
-2.22159e-06
-9.23483e-06
8.38478e-06
-1.09545e-05
5.71215e-06
5.24237e-06
1.25658e-05
-5.57031e-06
3.5326e-07
-3.41941e-06
3.06575e-06
2.41425e-06
3.068e-06
7.29145e-08
6.96202e-07
-6.2376e-06
7.14927e-07
5.52187e-06
-3.83381e-06
-1.4723e-07
-1.28653e-06
8.8301e-07
4.03477e-07
5.94781e-07
-7.20658e-08
2.94265e-06
-6.21256e-07
-2.3214e-06
2.34177e-06
4.07337e-06
-6.41529e-06
3.29363e-06
-1.04559e-05
1.25864e-05
5.46491e-06
-4.07422e-06
-1.39043e-06
-1.71789e-07
5.98719e-08
3.83187e-06
-2.0666e-06
-5.77203e-07
8.53057e-07
1.48565e-07
-2.68316e-06
2.53523e-06
-2.81318e-06
-1.19008e-07
3.88709e-06
-2.4236e-06
-1.39289e-05
-3.69733e-06
1.76263e-05
-3.75898e-06
-6.68675e-06
1.04443e-05
1.03781e-06
7.09687e-06
-8.1357e-06
-1.79332e-07
2.23888e-09
-4.35536e-06
-1.17166e-06
9.52264e-07
-2.0998e-06
1.14739e-06
4.227e-06
-1.01878e-05
-2.08306e-06
3.43169e-07
1.73998e-06
-8.85061e-06
1.75188e-05
-8.66829e-06
-4.02446e-06
-6.19005e-06
-2.91911e-06
1.05945e-07
-4.42659e-06
8.65719e-06
-4.23054e-06
-5.31539e-07
-2.07896e-05
2.13218e-05
-3.08676e-06
-2.07232e-06
5.15894e-06
-9.9413e-06
2.69755e-06
3.24992e-06
-3.0738e-07
2.9837e-06
-2.83456e-06
-5.79555e-06
3.62391e-06
1.27881e-06
-1.99977e-07
1.19466e-05
-1.19335e-05
-1.2956e-08
7.7866e-09
-3.47731e-06
-1.14146e-06
-7.5979e-06
1.27611e-05
-1.22394e-05
-5.219e-07
-1.88904e-06
2.84931e-06
-9.61913e-07
6.79979e-06
-2.60899e-06
-4.19106e-06
3.02148e-06
7.24216e-07
-4.8084e-06
5.24818e-06
-4.37871e-07
-6.25544e-07
-6.61067e-07
6.38485e-06
-2.2497e-06
-4.13564e-06
-1.4097e-06
4.8888e-06
-3.47928e-06
-4.02523e-06
7.95725e-06
-3.93048e-06
2.49933e-06
-3.52621e-08
2.0777e-07
-1.23813e-06
4.44552e-07
7.9352e-07
-1.53473e-06
-4.44368e-07
1.97922e-06
7.76696e-06
-1.17025e-06
-6.59657e-06
9.15888e-07
-1.9923e-06
1.07647e-06
-1.81652e-06
1.69394e-06
1.22951e-07
8.74712e-07
-2.305e-07
-1.18857e-06
2.14079e-06
6.10031e-07
-4.48502e-06
1.92867e-06
3.23347e-06
-4.98097e-06
4.41322e-07
-1.04561e-06
6.04276e-07
-8.28183e-06
-6.69455e-06
-2.08072e-06
2.58756e-06
-5.56244e-06
-6.14923e-06
1.17094e-05
1.22064e-06
-7.63022e-06
6.40977e-06
-1.0135e-06
-1.38778e-06
5.98983e-07
2.7603e-06
1.0231e-07
1.64155e-05
-5.43826e-06
9.95562e-07
-3.09241e-06
1.50752e-06
-2.10788e-06
-1.74967e-06
3.38059e-07
4.86797e-06
4.9156e-06
9.10402e-07
-5.82561e-06
-5.19233e-08
-1.2746e-07
1.0859e-06
1.88708e-06
7.57372e-06
-1.85302e-06
-5.72091e-06
4.61116e-06
6.72911e-07
1.50119e-07
-9.76938e-07
-3.90829e-05
-1.88876e-05
-4.99812e-06
1.90666e-07
-5.70951e-08
6.59562e-08
-8.78214e-09
1.91603e-07
-2.76228e-06
-7.77877e-06
3.35156e-06
-4.03874e-06
-1.99009e-06
-7.7091e-07
-6.80862e-07
1.45181e-06
-4.5933e-06
-1.69957e-06
6.29341e-06
-1.42648e-05
1.37364e-05
7.29551e-07
-2.76187e-06
-4.55999e-06
-4.03855e-06
2.68916e-06
7.2355e-07
-1.4267e-06
7.03043e-07
-6.18689e-06
2.50181e-07
6.2128e-07
-8.729e-07
-3.65386e-07
2.8322e-06
3.20088e-06
-6.03381e-06
-3.92946e-06
-2.28818e-06
4.3905e-06
7.29089e-06
-1.16815e-05
-7.36658e-07
-1.37333e-07
8.73766e-07
6.76564e-06
-4.42444e-06
-1.21092e-06
-5.38645e-07
-1.91092e-05
2.49739e-05
-5.86459e-06
1.16089e-05
-1.00673e-05
-1.54187e-06
-1.07163e-05
1.35891e-05
-2.87281e-06
-7.94966e-07
1.22615e-06
-4.31119e-07
1.84735e-06
-1.02906e-05
-1.28771e-06
2.74007e-07
-2.83066e-06
3.67968e-06
-1.73445e-05
3.41556e-06
-1.44851e-06
2.49259e-08
-2.10546e-06
5.20183e-06
-3.09724e-06
-5.70548e-08
-1.12527e-06
3.30261e-07
6.48066e-07
-2.18303e-06
-3.72042e-06
3.08336e-06
-7.64151e-06
4.92089e-06
2.72128e-06
-1.28758e-08
9.41547e-08
-8.10299e-08
-8.85289e-06
9.49125e-06
-6.37755e-07
4.66876e-06
1.23803e-06
-1.1305e-06
-6.04194e-07
8.32083e-08
-1.02844e-05
-1.00146e-06
1.04316e-05
-9.17517e-06
-1.25661e-06
-6.23842e-06
6.41922e-06
4.611e-07
-1.23183e-06
-9.32504e-06
9.08626e-06
2.49683e-07
-4.11664e-06
-1.5096e-05
7.34516e-06
-2.23391e-05
-4.6171e-08
2.23855e-05
-4.36634e-06
-9.40143e-07
1.6636e-06
3.91906e-07
9.51668e-07
1.03844e-06
4.24129e-06
-6.45801e-07
9.93449e-08
5.46377e-07
1.56871e-06
-2.996e-06
1.42732e-06
3.99282e-06
-3.91079e-07
3.50514e-06
-3.44762e-06
4.1665e-07
-1.81814e-06
1.40146e-06
-1.73587e-06
8.3663e-06
-6.63053e-06
-2.7376e-06
-1.95886e-06
4.69679e-06
-3.34252e-06
-7.78565e-07
4.12088e-06
-1.97393e-05
-2.59992e-06
-9.47562e-07
1.45281e-06
3.85792e-06
-5.51809e-06
1.65998e-06
-3.38026e-06
1.29456e-05
3.27833e-06
-3.85841e-06
4.18995e-06
-3.31283e-07
-1.38422e-05
1.26261e-05
1.2167e-06
-3.21336e-06
-6.73487e-07
3.8875e-06
1.01683e-06
-2.62625e-07
-7.54256e-07
-4.91167e-06
8.08236e-07
9.53857e-09
4.29137e-07
3.29364e-05
4.70282e-06
-3.76395e-05
-2.24738e-06
-2.34493e-06
4.59314e-06
4.32485e-07
7.13102e-07
-1.14569e-06
-1.98021e-06
9.22909e-06
-1.24295e-06
-2.05462e-07
1.92013e-06
3.02849e-06
-1.42682e-06
3.86709e-06
-2.44069e-06
2.72586e-06
-4.1804e-06
1.45561e-06
-1.38971e-05
3.18076e-06
-1.12102e-06
-6.62306e-06
7.74285e-06
-6.91148e-06
7.54564e-06
-6.32602e-07
-4.6236e-07
-5.60179e-07
1.0224e-06
-4.66551e-06
5.8119e-06
-1.14121e-06
-1.66311e-06
4.31292e-06
-7.51624e-07
1.18387e-06
4.55306e-08
-4.54685e-08
-2.31771e-06
-6.36947e-06
8.68571e-06
-6.30165e-07
-9.46141e-07
1.57632e-06
5.802e-06
-6.92222e-06
3.03162e-06
-5.86695e-06
-6.11105e-06
-8.98494e-06
-1.30108e-05
1.14376e-05
1.57235e-06
6.96973e-06
-9.67216e-06
2.70328e-06
-5.02397e-06
1.56455e-06
3.45942e-06
-8.85915e-06
-1.42547e-06
1.45871e-05
-2.5762e-06
-1.20106e-05
2.03605e-06
3.42911e-06
2.06116e-06
-5.14751e-06
5.72064e-06
-2.88825e-06
-2.63445e-06
-2.41587e-06
5.05052e-06
2.42665e-06
1.03343e-05
1.21364e-05
-1.79224e-06
-4.57725e-06
7.61271e-06
-3.03606e-06
-1.49435e-06
5.82542e-07
-9.85742e-08
5.08458e-06
-4.98698e-06
-2.3762e-07
4.36278e-06
-6.40649e-06
6.83625e-06
-4.30055e-07
1.95491e-06
-2.22378e-06
2.69336e-07
1.57823e-06
-1.21781e-06
3.65707e-06
5.09793e-08
-2.73401e-06
6.04965e-06
2.91578e-07
-6.341e-06
-1.62948e-05
1.31538e-05
3.14e-06
1.61493e-07
1.66201e-06
2.07376e-06
5.70257e-08
-2.15436e-06
2.36409e-06
-4.99821e-06
-2.36705e-07
-1.84659e-06
6.24865e-08
-7.15323e-08
9.05166e-09
9.59173e-07
5.6895e-07
-1.52808e-06
1.38428e-05
5.54442e-07
1.25614e-05
-9.52785e-07
4.12308e-06
-3.82299e-06
4.16721e-06
-3.43466e-07
-4.48424e-06
6.26131e-07
1.62979e-06
-4.9123e-06
-2.4648e-06
7.37187e-06
-5.00827e-06
4.1128e-06
-5.69522e-07
1.06543e-06
-4.95787e-07
5.27976e-06
9.30717e-06
1.2967e-05
-2.30266e-06
-1.06642e-05
3.00993e-06
3.37452e-06
3.17266e-06
-1.69783e-06
-1.4748e-06
4.3776e-08
8.09189e-06
-8.13538e-06
-2.40399e-06
2.4548e-06
-4.07372e-06
4.7369e-06
-6.67111e-07
-7.90738e-06
9.37197e-07
6.96981e-06
-5.59607e-06
3.49045e-06
1.87075e-06
1.30196e-06
1.18357e-05
-1.49116e-05
3.07568e-06
6.2907e-06
-2.26353e-06
-4.02759e-06
-3.57826e-06
3.27617e-09
3.57515e-06
1.48621e-07
7.94798e-07
-2.34312e-06
1.54847e-06
-1.49089e-06
2.31046e-06
-8.19638e-07
4.15847e-06
6.81361e-06
9.36946e-07
3.18749e-07
-1.25575e-06
1.17894e-05
-4.42678e-06
-7.36258e-06
5.90223e-06
-2.3367e-05
1.74655e-05
-1.09909e-09
-3.91916e-06
-9.92032e-07
-4.29265e-06
5.55973e-06
-1.26857e-06
9.5307e-08
4.16565e-07
-5.11806e-07
-5.25524e-06
1.32509e-06
6.23247e-08
-4.88829e-07
-6.42908e-07
1.13172e-06
3.46827e-06
-3.11509e-06
-7.05874e-06
3.13088e-06
3.92697e-06
2.15204e-06
-4.9019e-06
-4.26163e-05
3.53328e-06
-2.82304e-06
5.77242e-06
-1.36866e-06
1.45654e-06
-8.78804e-08
-3.38372e-08
-2.16124e-06
2.19535e-06
3.35876e-06
-5.2414e-06
1.88244e-06
1.78981e-06
5.29439e-06
-7.09477e-06
6.36148e-07
-3.15555e-07
-3.20341e-07
-5.53231e-07
-1.29088e-06
1.49334e-06
-1.14905e-06
-3.44228e-07
-1.94582e-07
2.17931e-06
-1.9857e-06
2.1386e-06
-7.05127e-06
-3.289e-06
1.45686e-06
5.3962e-06
1.12088e-06
-1.23136e-06
2.07758e-06
-8.46292e-07
2.5601e-06
-2.56027e-06
4.89291e-07
-1.04947e-06
-2.82035e-07
4.35011e-06
-4.06773e-06
-3.67101e-06
-6.23383e-07
5.82338e-06
-6.1876e-06
3.79216e-07
-8.64305e-06
7.5013e-06
-6.81643e-06
-7.02609e-06
-3.94073e-06
-5.42788e-07
-1.85157e-06
3.76018e-07
1.47559e-06
-1.81192e-05
2.29352e-05
-4.81656e-06
-2.85521e-06
-3.05386e-06
2.85814e-06
1.95615e-07
4.3406e-06
2.59387e-06
6.56049e-07
-9.24787e-07
6.59981e-07
2.64755e-07
1.1478e-05
-1.48586e-05
2.15706e-06
-3.41246e-06
1.25544e-06
-7.57768e-06
1.30803e-05
-5.50346e-06
-2.94151e-07
2.30471e-06
7.87397e-06
6.91472e-06
-5.87694e-06
6.04841e-06
-5.34208e-06
-7.0849e-07
-2.5278e-06
-4.0301e-07
-2.14024e-06
-7.88777e-08
2.21903e-06
6.19168e-06
-1.60092e-06
-4.58951e-06
7.26275e-07
-4.06908e-06
-4.39288e-06
-1.98356e-06
1.83691e-06
2.13696e-06
-1.96574e-06
-1.71218e-07
-2.20902e-06
6.8801e-08
-2.40365e-06
8.47952e-07
1.5558e-06
-9.60982e-07
1.42207e-06
-1.0237e-05
3.40287e-06
5.58813e-06
-7.3629e-06
1.77603e-06
-8.3396e-07
9.88702e-07
-1.54916e-07
1.0311e-06
-5.89773e-07
-2.17735e-06
3.0225e-06
2.31525e-06
-1.87963e-06
2.46007e-06
2.75428e-06
3.43843e-06
-1.45968e-06
-6.28794e-06
8.88509e-06
-1.23465e-05
3.46124e-06
-4.88078e-06
5.74423e-06
-8.60357e-07
9.19507e-07
1.14956e-07
-1.03447e-06
9.84969e-07
-1.92507e-06
-4.90144e-06
6.35626e-07
-3.74272e-06
3.47456e-06
2.67818e-07
-1.65332e-07
-5.51085e-06
3.43638e-06
-3.9659e-07
-5.28252e-07
-3.61054e-06
-4.1683e-06
7.92473e-07
-2.79318e-07
-5.53113e-06
3.28448e-06
-3.32068e-05
6.68374e-06
2.65231e-05
-9.99657e-06
1.18517e-05
-1.85506e-06
2.40665e-06
7.10843e-06
2.18801e-06
3.88125e-06
-1.67678e-05
9.11943e-06
7.64879e-06
-1.05824e-06
6.30368e-07
4.27963e-07
1.03907e-05
1.0733e-06
-1.1118e-05
1.00449e-05
2.6333e-07
1.71029e-06
-4.17604e-06
2.35568e-07
-6.01383e-06
6.05775e-06
3.99336e-07
-1.36033e-06
-7.04504e-06
2.55694e-06
4.47191e-07
-1.72163e-07
2.6748e-07
2.52844e-06
-1.70998e-06
-8.18844e-07
-1.2732e-06
4.43948e-06
-3.16615e-06
-1.88052e-06
1.48232e-06
3.98421e-07
-8.69471e-06
6.71564e-06
1.2811e-06
-2.7717e-06
-3.88728e-06
4.13964e-06
-2.5294e-07
6.39365e-07
-1.27695e-06
6.37472e-07
9.8349e-06
1.28787e-05
-2.27137e-05
-7.15255e-06
3.5419e-06
-7.0344e-07
5.12856e-06
-4.42367e-06
-7.84151e-06
6.10674e-06
1.50923e-07
1.3959e-06
-1.5472e-06
-5.42105e-06
2.94418e-06
2.47764e-06
-1.49393e-05
2.08418e-05
1.13607e-05
-3.99912e-06
4.22141e-06
-4.71979e-07
-3.7491e-06
-2.63353e-06
2.64813e-06
-1.47565e-08
6.11561e-06
-1.26269e-05
6.51129e-06
2.99068e-06
2.73063e-06
8.94115e-07
-1.52414e-06
6.89639e-06
1.06225e-05
3.47667e-06
-5.39502e-06
1.91973e-06
-5.17724e-07
2.98577e-06
-2.46896e-06
1.20078e-06
-4.4907e-06
3.28961e-06
-2.48089e-06
-2.31915e-06
4.80013e-06
5.28171e-06
-9.37284e-07
-4.34456e-06
-1.60953e-06
2.40871e-07
-1.84626e-06
6.14771e-07
-4.21242e-06
1.3671e-07
-8.45746e-06
4.31652e-06
4.14091e-06
5.49644e-07
-3.20954e-06
2.66053e-06
1.39555e-07
-9.73539e-07
9.87725e-06
1.9124e-06
7.97378e-07
-1.37499e-06
5.77181e-07
1.24061e-07
-9.02345e-07
7.78243e-07
-2.59145e-06
4.27283e-06
4.37423e-06
-2.2362e-06
-2.13837e-06
-1.8687e-06
-5.34905e-07
9.30004e-07
-1.3495e-06
4.19463e-07
1.03712e-05
-5.61554e-06
2.94352e-06
3.72719e-08
-4.83961e-06
6.52356e-06
-1.68531e-06
-6.20508e-07
1.15649e-06
-5.36008e-07
5.85474e-06
-2.86357e-06
3.02179e-07
-1.17771e-07
-1.48387e-06
1.60175e-06
-5.49193e-08
5.45044e-08
-4.018e-07
-1.94793e-07
-3.95508e-06
-7.4608e-07
7.09685e-08
6.04835e-06
3.82988e-06
-4.1629e-06
3.1883e-07
5.60396e-06
3.3196e-06
-8.92437e-06
7.86053e-07
-7.1457e-06
-2.2154e-06
9.36059e-06
2.84286e-07
7.2467e-07
-4.42556e-06
3.70068e-06
-4.19604e-06
8.5495e-06
-4.35237e-06
-1.18583e-06
5.6531e-07
3.94447e-06
-6.26286e-07
7.06479e-06
-3.63227e-06
-3.43261e-06
-4.55455e-06
1.98947e-07
-1.02959e-06
3.18667e-06
3.6425e-07
7.02184e-07
-1.42034e-06
7.18271e-07
5.10803e-06
-7.28945e-06
2.18178e-06
-1.27684e-06
4.95413e-07
7.81503e-07
1.12092e-06
-9.96814e-07
1.56932e-06
6.47973e-07
-2.21712e-06
-4.74684e-06
4.79698e-06
-5.08485e-08
8.28835e-06
-1.00497e-06
-7.28669e-06
1.42414e-06
-2.54464e-06
1.12062e-06
1.32337e-06
-8.70748e-07
-4.52694e-07
7.47977e-07
5.75355e-07
1.01026e-05
-8.31549e-06
4.29037e-06
-5.22627e-06
6.62223e-07
4.56524e-06
2.09535e-06
3.12952e-06
-8.20547e-06
3.27794e-06
4.92674e-06
-1.60833e-06
-7.07462e-06
8.68332e-06
-8.13891e-07
-5.57525e-07
-5.07101e-06
6.94533e-07
1.18518e-05
6.00986e-06
-3.51485e-07
-5.65776e-06
-5.32829e-08
9.72827e-07
-4.06662e-08
-2.60754e-08
6.67758e-08
1.21598e-06
-1.70987e-06
9.86487e-06
-2.89513e-06
-4.6501e-06
-1.16441e-05
1.41161e-05
-4.048e-07
-1.37111e-05
-1.17877e-06
-4.37313e-07
-6.27543e-06
2.33449e-06
1.41522e-05
-1.22232e-06
-1.46616e-06
2.68845e-06
7.21741e-08
-3.9956e-07
3.27534e-07
-8.36479e-06
2.54958e-05
1.18038e-07
4.71817e-05
5.28528e-06
6.19859e-06
-1.48641e-07
1.09346e-07
1.07781e-05
2.58582e-06
-1.78502e-05
1.52642e-05
-3.12489e-06
1.08916e-05
3.07968e-06
-1.77881e-06
-1.3004e-06
1.29618e-06
-6.56856e-07
3.5762e-06
-6.75409e-06
3.17779e-06
-1.36991e-06
1.94586e-06
-4.74988e-07
-4.77954e-06
-4.44218e-07
-9.4348e-07
5.65674e-06
-1.7988e-06
2.3105e-06
-1.47174e-05
1.24067e-05
-4.73751e-06
3.46413e-06
8.93238e-06
5.69157e-07
-6.86711e-07
-4.05771e-07
-8.71032e-07
9.33813e-07
-5.87474e-07
-3.46358e-07
1.58464e-06
3.08526e-06
-1.50627e-07
3.31008e-06
-3.15938e-06
1.34008e-06
1.72223e-05
-3.21611e-05
1.06332e-05
-3.53816e-08
-1.05978e-05
1.5967e-06
-2.51169e-06
9.14299e-07
6.65759e-07
3.47386e-06
-4.13756e-06
-5.60968e-06
5.99234e-06
-3.81712e-07
4.84465e-06
-5.52392e-06
-4.09321e-07
5.93293e-06
-1.36111e-06
1.95484e-06
-5.93701e-07
1.343e-05
3.17053e-07
-1.37471e-05
-8.06544e-07
1.79158e-06
-2.91083e-06
-2.51021e-06
8.1886e-06
-8.96067e-06
7.72002e-07
-5.4943e-08
1.41448e-08
-2.33943e-06
4.74972e-06
-2.41172e-06
2.71192e-06
2.31588e-07
3.59737e-06
3.51983e-06
8.7007e-06
-5.27952e-06
5.07773e-06
-1.37792e-06
-3.7002e-06
6.49536e-09
2.05221e-08
-2.70769e-08
5.19418e-06
1.25741e-06
2.50904e-06
-1.61177e-06
-7.12054e-06
4.42081e-07
-8.24392e-06
1.43597e-05
3.55551e-06
8.83854e-07
-6.92532e-06
-2.20814e-07
-1.99654e-05
-9.36056e-07
1.0904e-06
-1.54443e-07
-4.50483e-06
1.02868e-06
3.4756e-06
-2.67694e-06
-2.83608e-06
-3.71476e-07
1.08457e-06
1.10818e-07
9.98377e-07
-1.1092e-06
-2.774e-06
2.62615e-06
1.47543e-07
1.53762e-06
-2.61863e-06
5.82019e-06
9.12272e-07
7.50494e-07
-1.01317e-06
3.518e-06
-2.96769e-06
-5.08848e-06
2.41148e-06
2.84557e-08
-3.69638e-08
8.05033e-09
-1.53526e-06
3.24363e-07
-5.35455e-06
5.34949e-06
6.27172e-07
-1.11594e-06
1.24581e-06
-7.50297e-07
7.49971e-06
2.37749e-06
-6.26308e-06
7.3897e-07
-2.72826e-06
5.15088e-06
-2.4225e-06
-1.07486e-06
3.23225e-07
-1.34306e-06
5.29198e-07
-9.68005e-06
-2.92849e-06
2.40994e-06
1.79373e-06
-1.62013e-06
-1.73554e-07
-3.08615e-06
1.19029e-05
-8.81675e-06
-3.10851e-06
3.01531e-06
9.23625e-08
-1.43584e-06
-8.04953e-06
-8.33403e-06
-2.81093e-06
4.31406e-06
-1.50283e-06
2.14257e-06
-7.18306e-07
3.73099e-06
1.56818e-06
-5.29733e-06
2.294e-06
-2.26385e-06
-3.00947e-08
-6.88583e-06
-2.59396e-07
1.2818e-06
-2.50397e-06
-9.59952e-07
-8.82671e-06
5.67483e-06
-4.76216e-06
-9.12691e-07
6.55971e-07
-4.68641e-06
4.03102e-06
9.87855e-06
-8.7632e-06
-1.11527e-06
1.03967e-05
-6.01897e-06
-4.37768e-06
1.88919e-06
2.81778e-06
-4.70479e-06
-1.98869e-06
5.46674e-06
1.83717e-05
-1.57859e-05
-4.59131e-06
1.38179e-06
7.11686e-07
3.45322e-06
-5.03686e-06
1.58386e-06
-9.21463e-07
-4.21619e-07
4.25297e-06
-2.09112e-06
6.48352e-06
-3.57067e-05
3.31045e-06
-5.02002e-07
-1.55892e-06
1.72841e-07
1.38602e-06
-1.02273e-05
1.25376e-05
-2.29276e-06
-3.11491e-06
5.41001e-06
6.76886e-06
-9.85493e-06
5.82679e-06
-3.63899e-06
3.20918e-06
-5.31291e-06
2.10507e-06
-4.29797e-06
6.44003e-06
3.19728e-06
1.65166e-07
-9.98285e-07
6.21794e-08
-2.4504e-06
2.77531e-06
-3.24291e-07
-5.71175e-06
1.15751e-06
-2.94143e-06
-3.15484e-06
-2.81367e-06
-2.96172e-06
2.74631e-06
2.15429e-07
-1.39538e-05
1.20502e-05
1.90316e-06
-1.13094e-06
3.34784e-07
7.96022e-07
-9.00058e-07
-6.27428e-07
1.52736e-06
-4.02405e-06
2.36078e-06
-5.90798e-06
-2.40815e-06
3.90433e-06
1.29683e-06
-1.07561e-05
4.81073e-06
5.94657e-06
9.05513e-08
2.77368e-06
-2.864e-06
3.68292e-06
-4.29271e-06
6.10024e-07
9.32655e-06
-6.92006e-06
1.34301e-06
-7.8437e-07
-3.4646e-07
3.52419e-07
2.83973e-07
-9.62717e-07
1.87859e-06
3.84037e-06
-1.14466e-05
7.60681e-06
1.2724e-05
-9.11487e-07
1.66754e-06
2.11028e-06
-3.77838e-06
-3.28279e-07
-7.29772e-07
-4.72259e-07
-2.57285e-07
7.302e-07
-3.54657e-06
1.03155e-05
8.66123e-07
1.86481e-06
8.27173e-06
-8.28494e-08
4.85131e-06
-2.9615e-06
-3.06554e-06
1.17082e-06
1.89445e-06
5.44104e-07
-1.11593e-06
5.71709e-07
-1.81759e-06
-3.51374e-06
9.52623e-07
3.42197e-06
-4.37451e-06
6.3345e-06
-2.33667e-06
-3.99758e-06
-4.92683e-06
5.07748e-06
3.07624e-06
1.61871e-06
1.89975e-06
-1.67237e-06
-2.91856e-06
-2.1934e-07
3.75353e-06
-1.17711e-07
1.04019e-06
-9.22335e-07
3.5401e-06
-2.30669e-06
-1.23367e-06
-1.03898e-05
-3.56403e-06
-9.34368e-07
8.81129e-07
4.61591e-07
2.502e-06
8.93522e-06
-3.30466e-06
2.59419e-06
7.10819e-07
-1.36999e-06
5.08488e-06
-3.71428e-06
-5.72394e-06
-7.15721e-07
-2.58866e-06
3.07494e-06
1.24373e-06
-4.3182e-06
4.01882e-06
-9.43594e-07
-1.84462e-06
4.83397e-07
-6.3642e-06
-2.37465e-05
-3.32951e-06
4.63931e-06
-1.31018e-06
-3.86571e-07
4.47385e-07
-6.08377e-08
-1.61207e-06
-1.20708e-05
-1.44973e-05
1.27016e-05
1.79599e-06
-3.91321e-06
3.63198e-06
-7.21916e-06
4.75976e-07
6.74249e-06
3.46107e-06
1.82053e-06
1.53341e-05
-5.49917e-06
3.01278e-05
-2.72051e-05
-2.92057e-06
3.11083e-06
6.90075e-08
-1.16828e-06
1.0995e-06
1.2222e-06
-3.75244e-06
2.52509e-06
9.87602e-07
-2.1143e-08
-9.66434e-07
4.01639e-07
5.32143e-07
3.00426e-06
-3.07367e-06
6.98136e-08
-1.24159e-06
-3.17236e-07
1.17947e-06
-6.35204e-07
-1.15024e-08
2.19476e-06
-2.56311e-06
-3.3936e-05
-7.7343e-06
4.16694e-05
-5.93427e-07
9.82821e-07
-3.89437e-07
4.73519e-07
-4.01307e-07
7.79772e-08
1.21388e-06
7.85011e-08
-1.19511e-06
6.76894e-07
6.73262e-07
4.83191e-07
-3.0761e-07
-1.10015e-06
-2.97924e-12
1.10032e-06
-3.55827e-06
3.36351e-06
-2.78023e-06
3.29672e-07
-1.5445e-06
2.5098e-06
-9.65167e-07
-2.61718e-06
-1.18802e-05
6.61187e-06
7.38586e-06
-1.99618e-06
2.14178e-08
-2.42545e-06
-4.14813e-06
-4.30962e-06
-9.91457e-06
7.39314e-07
-1.7659e-06
-6.87716e-06
3.39854e-05
-3.85589e-06
3.79501e-06
-3.68044e-06
4.23557e-06
2.92945e-06
4.24418e-06
5.54285e-06
1.17339e-05
-1.10395e-05
1.18132e-06
-1.8217e-06
6.40449e-07
2.24504e-07
-1.48364e-06
7.08712e-06
5.6257e-06
-1.03358e-05
4.71042e-06
2.30176e-06
-9.81658e-08
-8.36186e-07
-2.7848e-07
-2.72589e-06
1.30539e-05
-5.6502e-06
-7.40393e-06
-2.18014e-07
-9.09139e-07
1.12716e-06
3.63404e-06
-5.38427e-06
1.7476e-06
-1.49529e-06
-7.73987e-06
-1.86422e-06
1.64737e-06
2.17274e-07
-1.44878e-06
3.48612e-07
1.19615e-05
-1.18521e-05
2.02483e-06
-4.28282e-07
-4.18116e-06
6.61763e-06
-2.43717e-06
4.64374e-06
-1.35266e-06
-1.24746e-05
4.89619e-06
-2.14984e-05
1.24122e-05
9.08658e-06
2.30108e-06
-1.29131e-06
-1.00967e-06
-3.06245e-07
-6.29654e-06
-9.50017e-06
2.81161e-06
-2.22791e-06
5.80375e-06
3.21929e-06
7.17706e-06
-3.04744e-06
-2.54864e-06
4.03457e-06
-5.98386e-07
-3.43634e-06
7.58845e-06
7.01347e-07
1.62562e-06
-4.30337e-06
-9.89665e-07
-1.96688e-06
-7.21241e-07
2.68805e-06
-2.46259e-07
-4.46273e-06
4.70944e-06
-4.15799e-07
1.08903e-06
5.04312e-06
-5.14229e-06
2.34949e-06
1.23637e-07
5.63152e-06
-6.0192e-06
3.87397e-07
-2.54099e-06
9.14766e-08
2.44943e-06
6.94264e-06
-5.63862e-07
1.73903e-06
-1.17501e-06
1.09845e-06
-9.07098e-07
4.36041e-06
1.30862e-05
-2.45293e-06
-9.72314e-07
1.54154e-06
3.22725e-06
2.26335e-08
-3.25056e-06
7.55466e-06
-1.57215e-06
-5.98249e-06
5.19483e-06
-8.68074e-08
-4.0174e-06
1.38337e-06
1.69636e-06
6.25436e-07
2.30524e-06
-1.13471e-08
-8.04917e-07
-1.67551e-07
-3.10531e-06
3.60121e-06
-7.97162e-06
5.19516e-08
7.91956e-06
-2.44144e-06
-1.75665e-06
4.19819e-06
-1.05024e-06
-2.95389e-06
4.0493e-06
-1.61717e-06
2.46405e-06
-3.09465e-06
6.30475e-07