/*--------------------------------*- C++ -*----------------------------------*\
| =========                 |                                                 |
| \\      /  F ield         | OpenFOAM: The Open Source CFD Toolbox           |
|  \\    /   O peration     | Version:  v2012                                 |
|   \\  /    A nd           | Website:  www.openfoam.com                      |
|    \\/     M anipulation  |                                                 |
\*---------------------------------------------------------------------------*/
FoamFile
{
    version     2.0;
    format      ascii;
    class       volScalarField;
    location    "400";
    object      epsilon_0;
}
// * * * * * * * * * * * * * * * * * * * * * * * * * * * * * * * * * * * * * //

dimensions      [0 2 -3 0 0 0 0];


internalField   nonuniform List<scalar> 
18618
(
2.21573e-06
2.124e-05
1.80584e-06
2.56539e-06
2.21095e-06
2.34797e-06
0.00673884
0.0162042
1.00938e-05
3.39864e-06
2.1969e-06
2.25603e-06
1.97599e-06
2.21713e-06
2.31155e-06
2.33889e-06
1.76494e-06
2.22387e-06
1.64227e-06
0.00354344
2.30425e-06
0.0486437
1.70054e-06
2.26824e-06
0.00583509
1.09612e-05
3.36497e-06
0.0380717
4.83167e-06
1.8098e-06
2.11978e-06
1.99567e-06
1.94949e-06
2.23162e-06
2.22135e-06
0.0251995
1.89878e-06
0.000131716
0.0144999
1.7125e-06
0.0320834
0.0388312
0.00889735
0.0164262
1.94268e-06
2.26562e-06
0.0117411
2.19204e-06
3.3918e-06
0.00882331
3.32789e-06
1.90249e-06
3.04363e-06
3.75564e-06
0.00588876
5.0144e-05
2.90018e-06
2.77021e-06
0.0321275
0.00480662
0.0190837
0.0136598
3.37554e-06
2.46141e-06
6.88521e-05
5.55596e-06
0.00446361
1.93139e-06
1.93885e-06
0.0316856
3.65685e-06
1.6493e-06
3.57786e-06
0.00127825
0.0385366
0.0263506
3.40653e-06
2.43598e-06
1.93158e-06
5.72239e-06
1.8377e-06
2.23027e-06
2.5451e-06
2.12151e-06
0.0505353
1.90553e-06
4.97203e-05
0.0306199
0.0127781
0.00219075
2.01483e-06
0.0179286
0.000106963
1.79253e-06
0.0163732
0.0138388
2.1315e-06
8.37591e-06
2.35406e-06
0.0104393
0.00845751
0.00248404
2.00531e-06
3.75912e-05
4.81822e-06
4.33012e-06
0.00381962
2.1782e-06
0.0141705
0.00812676
0.0272733
1.73606e-06
0.0114066
0.0271942
2.61213e-06
1.73074e-06
0.00458553
2.55039e-06
3.267e-06
0.0355815
2.26507e-06
1.89055e-06
1.83489e-06
2.38286e-06
3.00446e-06
4.96773e-06
1.95082e-06
4.82712e-05
6.85978e-05
3.14942e-06
0.00985071
0.00369039
0.00395782
2.76692e-06
2.14816e-06
2.00305e-06
2.70965e-06
0.0263722
0.0936204
2.3063e-06
0.0169984
0.00856182
1.94574e-06
2.28796e-06
1.73536e-06
2.61818e-06
1.74036e-06
2.55969e-06
2.33814e-06
2.24543e-06
0.00166001
2.20759e-06
1.94824e-06
2.28321e-06
1.83452e-06
0.0156075
0.0113607
2.23526e-06
1.89593e-06
0.143274
2.98072e-06
2.17826e-06
0.00629166
0.00247695
2.74249e-06
2.14777e-06
2.12771e-06
0.0367002
2.45371e-06
9.03447e-06
4.24084e-06
1.93181e-06
5.47218e-06
3.56966e-05
0.00909077
2.61279e-06
0.000216856
2.27577e-06
2.73216e-06
1.97934e-06
0.00126174
2.22283e-06
0.057921
3.55037e-06
2.9262e-06
2.31603e-06
0.0018271
3.42676e-05
2.58046e-05
2.22102e-06
2.64481e-06
2.27315e-06
2.14692e-06
1.76951e-06
1.93241e-06
0.000637492
2.31044e-06
2.12731e-06
0.0130181
1.9524e-06
5.02406e-06
0.0226908
0.00179316
0.0147663
0.000248439
2.1418e-06
0.0153421
0.00258196
3.27925e-06
1.73782e-06
2.60916e-05
1.8295e-05
1.99056e-06
1.75135e-06
2.1363e-06
3.98328e-06
0.00936749
0.00865053
2.26628e-06
1.82856e-06
2.24869e-06
1.83768e-06
0.0136082
3.87084e-06
0.0294053
2.72706e-06
1.89692e-06
5.88833e-06
3.62836e-05
1.93772e-06
2.12272e-06
1.96809e-06
2.17657e-06
0.0163794
1.98476e-06
3.06355e-06
3.46649e-06
7.82945e-06
0.00207425
1.72135e-06
1.48091e-05
1.90132e-06
2.85148e-06
0.0106115
2.77352e-06
2.22968e-06
0.000531558
3.07608e-06
0.0271686
2.53572e-06
1.80027e-06
0.0421179
2.19053e-06
0.00309529
2.08924e-06
1.95604e-06
8.42658e-06
2.8099e-06
1.66684e-06
1.83005e-06
2.58584e-06
0.00928707
0.00902006
2.22752e-06
0.0463143
0.000221198
9.23846e-06
2.20618e-06
5.14902e-06
2.26398e-06
5.90801e-06
2.73938e-06
1.93311e-06
2.58506e-06
4.18747e-06
2.19949e-06
2.07036e-06
2.19036e-06
1.781e-06
0.013389
2.59175e-06
2.86215e-06
2.5436e-06
2.064e-06
0.0124943
2.54576e-06
1.96429e-06
3.01077e-06
2.93167e-06
4.30008e-06
1.69451e-06
2.70121e-06
2.58585e-06
1.97551e-06
0.110914
3.90097e-05
0.0154887
0.00822348
0.00634437
1.99802e-06
2.30474e-06
2.43266e-06
2.32287e-06
2.14423e-06
2.79683e-06
3.25584e-06
2.35848e-06
0.00838727
5.60086e-06
0.0107348
0.00032152
1.65121e-06
5.66307e-05
3.90407e-06
3.55406e-06
2.326e-06
2.06604e-06
1.86396e-06
2.46064e-06
0.00324402
1.73762e-06
0.000601703
3.12809e-06
0.0234078
3.68384e-06
0.000123619
0.000976268
2.32349e-06
1.6709e-06
0.0773076
2.36666e-06
0.133438
2.34767e-06
3.5211e-06
2.01856e-06
2.69799e-06
0.00469122
1.99923e-06
1.72138e-06
0.00890085
2.66774e-06
3.39141e-06
0.099299
6.45637e-06
2.8211e-06
3.04742e-06
2.00778e-06
5.28899e-06
2.7384e-06
1.71846e-06
2.88506e-06
1.65635e-06
0.00737106
3.20597e-06
2.55612e-06
2.91487e-06
3.15955e-06
2.7257e-06
2.37399e-06
1.9327e-06
2.15891e-06
0.0127369
0.0387993
2.72667e-06
0.0106734
0.0482882
2.86804e-06
3.54985e-06
3.09313e-06
8.28006e-06
2.01036e-06
2.59884e-06
2.24176e-06
1.97444e-06
1.74804e-06
2.42886e-06
5.94827e-06
2.26009e-06
2.60993e-06
2.63124e-06
6.28321e-06
4.23947e-06
1.97506e-06
1.67276e-06
3.78697e-06
1.98264e-06
3.21328e-06
0.116671
2.83002e-06
2.89135e-06
2.26686e-06
2.95093e-06
0.00177964
0.0278677
2.89045e-06
9.861e-06
0.0185486
0.00728998
3.01947e-06
0.00823204
2.60645e-06
1.93181e-06
1.82993e-06
0.0130593
2.00704e-06
0.00258139
2.75134e-06
2.1194e-06
1.87143e-06
2.63689e-06
1.85859e-06
4.27175e-06
2.0273e-06
1.65127e-06
2.13028e-06
2.65842e-06
1.68518e-06
1.71327e-06
2.23712e-06
1.98024e-06
1.74958e-06
0.0173681
1.82672e-06
1.93116e-06
1.98281e-06
0.107108
2.69172e-06
1.73908e-06
0.000334551
0.00860189
2.98831e-06
2.7885e-06
2.25826e-06
2.49183e-06
1.91062e-06
2.26511e-06
3.43359e-06
2.5319e-06
3.58427e-05
5.17677e-06
2.1847e-06
0.000488606
2.5999e-06
2.15992e-06
0.0123538
2.97889e-06
2.1481e-06
0.0104009
4.9322e-06
2.95435e-06
2.15565e-06
4.01769e-06
2.72269e-06
2.25832e-06
2.82441e-06
2.36777e-05
2.6483e-06
1.88978e-06
2.05465e-06
0.0412493
0.0129617
1.7872e-06
6.08121e-06
2.90435e-06
6.51145e-06
2.13296e-06
2.80851e-06
4.28143e-06
3.22623e-05
1.98802e-06
1.78937e-06
2.25744e-06
1.73813e-06
0.00450732
1.83068e-06
2.02103e-06
0.016051
1.81151e-06
0.000374454
2.32828e-06
9.19772e-06
2.27647e-06
0.00807313
1.64849e-06
2.32155e-05
2.54057e-06
6.27433e-06
1.86105e-06
2.94723e-06
1.96175e-06
1.52801e-05
0.121772
2.13167e-06
3.57988e-06
0.00688341
0.00674288
1.17528e-05
0.0579897
2.28104e-06
3.70919e-06
4.23634e-06
2.15871e-06
0.00440708
2.92279e-06
1.8368e-06
5.49596e-06
2.13285e-06
2.14997e-06
0.000962132
2.06755e-05
0.0288188
2.12235e-06
1.80998e-06
1.82377e-06
3.04492e-06
3.37123e-06
1.64852e-06
3.61527e-06
3.36077e-06
0.0108215
1.85408e-06
3.34542e-06
2.10391e-05
3.11454e-06
1.7716e-06
3.02157e-06
0.00921722
3.08727e-06
0.031474
3.45342e-06
0.00194542
0.00589804
2.13398e-06
2.15462e-06
2.94178e-06
3.93057e-06
0.020386
4.2804e-06
2.14679e-06
2.00264e-06
2.24015e-06
2.22786e-06
2.73533e-06
2.8998e-06
2.92616e-06
3.29724e-06
0.000421114
0.00820247
1.71826e-06
2.56292e-06
2.69597e-06
4.12643e-06
1.57397e-05
1.89952e-06
2.8874e-05
1.96062e-06
0.0242515
2.9238e-06
5.48454e-06
2.96598e-06
0.097455
1.73e-06
0.00911407
2.15444e-06
2.49447e-06
4.04345e-06
0.00451527
2.26443e-06
5.33754e-06
2.33845e-06
3.05606e-06
0.0125805
3.28349e-06
0.0210229
0.0492256
0.0092008
0.00468781
3.33428e-06
0.00127388
1.85376e-06
2.15471e-06
2.18608e-06
2.07233e-06
3.34748e-06
3.03532e-06
1.85363e-06
3.24447e-06
1.95886e-06
0.00215521
7.55531e-06
2.67241e-06
2.15231e-06
2.12545e-06
1.89043e-06
2.05636e-06
2.15255e-06
8.51837e-05
0.00957335
6.18507e-06
2.31684e-06
3.02546e-06
0.000241838
2.70391e-06
2.23428e-06
2.55967e-06
2.4047e-06
3.08604e-06
1.6689e-06
2.74124e-06
2.23385e-06
0.00290257
0.0146059
0.00880722
0.00358497
0.00236581
2.06348e-06
1.8222e-06
0.0104884
2.54659e-06
2.15591e-06
1.6508e-06
1.95677e-06
0.00239101
3.34001e-06
3.96657e-06
1.36348e-05
1.91925e-06
2.55622e-06
1.58003e-05
3.1065e-06
2.14003e-06
2.5941e-06
0.00605428
1.6715e-06
3.27757e-05
4.39348e-05
0.000576777
1.98236e-06
0.00584837
2.97313e-06
1.97657e-06
2.24465e-06
0.00546825
8.84919e-06
1.97814e-06
6.53709e-05
3.30108e-06
2.40519e-06
1.92107e-06
2.24668e-06
0.00998913
2.95025e-06
1.95345e-06
3.31487e-06
1.68431e-06
2.07395e-06
2.68848e-06
0.00154051
2.30921e-06
2.60079e-06
0.0433825
7.59395e-06
3.23766e-06
2.18294e-06
2.61704e-06
2.20353e-06
2.06115e-06
3.24223e-06
7.98326e-06
2.14333e-06
0.00915514
4.28491e-06
3.5764e-06
2.20021e-06
2.30391e-06
3.64722e-05
0.0448412
2.29811e-05
0.104456
2.19825e-06
0.0307303
2.04279e-06
2.82054e-06
3.26904e-06
3.37469e-06
0.00766948
0.000448625
3.30032e-06
1.83411e-06
2.81045e-06
0.00104073
1.83693e-06
2.61502e-06
2.47721e-06
1.4878e-05
7.31256e-05
2.50909e-06
2.90046e-06
2.87908e-06
0.0075362
0.000745804
1.99716e-06
2.17756e-06
6.11017e-06
1.65087e-06
1.93952e-06
2.02307e-06
0.0103235
1.91994e-06
2.30233e-06
1.6818e-06
2.53679e-06
1.82411e-06
0.00755251
0.00244433
0.000887138
1.95028e-06
0.000147767
1.95936e-06
2.04181e-06
1.97499e-06
1.68486e-06
0.0542048
0.00692351
0.0112846
2.4388e-06
0.00738344
1.73772e-06
2.5829e-06
2.5521e-06
3.66006e-06
0.0112751
2.89152e-06
2.18189e-06
0.013013
1.91478e-06
0.00708523
0.0100609
1.84344e-06
2.6869e-06
2.27372e-06
3.51892e-06
2.26171e-06
0.00576056
0.00645352
0.0205063
5.39098e-06
6.16573e-06
2.72478e-06
0.0109673
2.03162e-06
2.25361e-06
3.04064e-06
1.98375e-06
0.0142037
1.67447e-06
0.026612
2.19787e-06
1.83311e-06
0.00596831
2.79209e-05
1.90688e-06
3.91944e-06
2.09493e-06
2.4634e-06
1.70082e-05
0.00514597
1.91793e-06
2.19641e-06
0.0531006
3.13067e-06
2.1938e-06
2.40413e-06
2.78476e-06
2.68142e-06
2.11065e-06
0.015573
2.87061e-05
2.30287e-06
2.97276e-06
2.07152e-06
0.0424607
1.63292e-06
2.62183e-06
0.0579504
2.16076e-06
1.82173e-06
0.000876166
0.0101775
0.000362047
2.82416e-06
1.9575e-06
2.72201e-06
2.41268e-06
3.60594e-06
0.00968645
2.64391e-06
9.12211e-06
0.00533438
2.13638e-06
2.51678e-06
2.16344e-06
2.0391e-06
1.95703e-06
2.66685e-06
1.95152e-06
0.0263795
2.14453e-06
1.9728e-06
0.00937863
1.06883e-05
2.19075e-06
3.22393e-06
2.51863e-06
2.08119e-06
2.63947e-06
1.70775e-06
1.96283e-06
2.29152e-06
1.65317e-06
1.89385e-06
2.19967e-06
1.7955e-06
0.0140191
2.38515e-06
0.00957015
0.00236704
2.19832e-06
1.26491e-05
3.43866e-06
3.15853e-06
1.84259e-06
0.000206601
0.0097315
1.82984e-06
2.28772e-06
0.0163893
2.84047e-06
2.12346e-06
2.14128e-06
0.000363153
1.8494e-06
0.00240164
2.38816e-06
2.02244e-06
0.0089388
1.9363e-06
2.84575e-06
1.725e-06
3.22975e-06
0.00217871
0.00534471
0.020988
2.75308e-06
0.0219549
0.00953954
0.0440272
0.0119836
2.17608e-06
0.00858077
2.70666e-06
2.26652e-06
2.17814e-06
3.16046e-06
0.000253886
2.39187e-06
2.06561e-06
2.08265e-06
4.74322e-06
2.76888e-06
1.95627e-06
0.0163575
2.31547e-06
2.13009e-06
0.00594853
2.31403e-06
2.81942e-06
0.00228777
2.31921e-06
2.0717e-06
2.06946e-06
2.04894e-06
2.22494e-06
2.18399e-06
3.42916e-06
0.0009576
0.0142937
6.16728e-06
1.73405e-06
0.00905584
0.00610938
1.86199e-06
2.20294e-06
1.68723e-06
5.23227e-05
2.71249e-06
2.6431e-06
2.01542e-06
1.80314e-06
2.68889e-06
4.23934e-06
3.6144e-06
5.27314e-06
2.84079e-06
1.95008e-06
6.28662e-06
9.70305e-06
2.2848e-06
2.1542e-06
3.21545e-06
2.26544e-06
2.76659e-06
2.2072e-06
1.83723e-06
1.97768e-06
0.0142746
2.58241e-06
3.51084e-05
3.64363e-06
1.68046e-06
1.83168e-06
1.73059e-06
1.8684e-06
2.19536e-06
0.0307763
0.0344322
0.0105358
2.99203e-06
2.24701e-06
2.69557e-05
3.20589e-06
3.40924e-06
2.33682e-06
2.22182e-06
1.74141e-06
2.66952e-06
4.50436e-05
0.0156795
2.52978e-06
2.77994e-06
0.011501
0.0214718
2.93791e-06
4.32058e-06
0.0218254
0.00408598
3.0303e-06
1.9347e-06
2.45966e-06
2.54347e-06
8.47089e-06
1.85536e-06
1.95004e-06
6.85937e-05
2.42932e-06
1.90332e-06
3.15187e-06
1.77126e-06
3.18431e-06
1.85724e-06
0.0402466
2.08578e-06
1.87394e-06
1.74292e-06
2.61654e-06
2.69691e-06
1.71626e-06
0.00651526
0.00893762
2.01963e-06
1.73863e-06
0.000910518
2.12532e-06
1.73971e-06
2.12966e-06
2.03285e-06
0.00958578
1.78737e-06
1.87372e-06
2.29343e-06
0.0458311
2.56637e-06
2.31861e-06
0.042008
1.93749e-06
3.27348e-05
1.87596e-06
0.0122797
3.62886e-06
2.86126e-06
0.0235529
2.15966e-06
0.0160782
2.64603e-06
0.00065098
0.102977
2.3021e-06
5.99114e-06
0.0260865
4.42928e-06
0.00847155
3.68127e-06
3.01507e-06
2.63066e-06
2.73161e-06
2.98795e-06
3.31076e-06
1.905e-06
0.0424255
3.12229e-06
2.26958e-06
1.92344e-06
2.06215e-06
3.55571e-06
4.01358e-06
2.11457e-06
3.18918e-06
1.7082e-06
2.17742e-06
1.98972e-06
2.75366e-06
0.000633395
1.90428e-06
2.83877e-06
2.0289e-06
9.18672e-06
1.99282e-06
0.0152878
1.00453e-05
0.00767599
2.79166e-06
1.98358e-06
0.000676778
0.0361594
2.21846e-06
0.0385826
2.93548e-06
0.00207908
6.52207e-06
2.07069e-06
2.69725e-06
1.90343e-06
0.0218693
1.85031e-06
1.91525e-06
3.12732e-06
2.66735e-06
1.8479e-06
9.04259e-06
3.49816e-06
6.05097e-06
1.73808e-06
3.51796e-06
0.0339907
2.28906e-06
2.36802e-06
0.000678459
2.34612e-06
2.06202e-06
0.111028
2.29102e-06
2.5775e-06
6.35993e-06
2.3496e-06
1.65304e-06
3.63436e-06
1.98441e-06
2.06314e-06
2.20491e-06
1.82738e-06
2.85901e-06
0.0544016
3.23193e-06
0.000753011
1.86797e-06
3.52751e-06
2.3194e-06
1.80881e-06
1.74889e-06
4.11827e-05
0.00130146
1.93858e-06
3.46373e-06
0.0103356
0.00679129
0.0376513
2.15017e-06
3.01749e-06
2.14132e-06
1.76199e-06
3.9452e-06
1.66114e-06
1.81201e-06
1.93314e-06
1.81656e-06
2.61401e-06
1.86448e-06
3.49397e-06
1.92834e-06
2.65807e-06
2.07594e-06
3.72385e-06
0.00636813
5.32792e-06
0.0546539
2.32073e-06
2.77679e-06
3.48254e-06
0.0247662
6.60956e-05
2.04498e-06
1.86386e-06
3.37345e-06
0.0247378
0.00137884
2.90657e-06
2.19866e-06
0.0399131
0.022057
5.69243e-05
2.32434e-06
1.95887e-05
1.86073e-06
2.24178e-06
2.77317e-06
2.80722e-06
2.01221e-06
2.13693e-06
1.74776e-06
2.12157e-06
0.00230979
0.000305823
2.47687e-06
1.78302e-06
3.64406e-06
2.68091e-06
1.75992e-05
1.98589e-06
3.20147e-06
2.01701e-06
1.99165e-06
2.35561e-06
1.97336e-06
2.44386e-06
3.66278e-05
1.86643e-06
3.76547e-06
2.53083e-06
2.77531e-06
2.26634e-06
3.33639e-06
0.0215928
3.82489e-06
2.48414e-06
0.00578396
2.46407e-06
2.54619e-06
1.92297e-06
3.71562e-06
0.0333221
1.79531e-06
3.23916e-06
1.30715e-05
2.00119e-06
3.16939e-06
0.00746851
2.86011e-06
3.35658e-06
2.16653e-06
1.91527e-06
3.33424e-06
1.6434e-06
0.0102962
2.56705e-06
2.96681e-06
2.15524e-06
6.32893e-06
3.26532e-06
0.00210912
0.0211871
2.08869e-06
4.28548e-06
0.00597947
2.90536e-06
0.00425972
3.29249e-06
2.28273e-06
2.99623e-06
0.00627967
2.83828e-06
1.8314e-06
2.00601e-06
1.73185e-06
2.01122e-06
0.028445
0.000176138
2.00255e-06
0.0100985
4.24128e-06
1.87383e-06
2.50889e-06
1.97639e-06
1.69949e-06
2.30843e-06
3.87647e-06
3.32653e-06
0.00678472
0.0121505
1.99572e-06
2.06861e-06
1.91662e-06
0.00815926
4.20098e-06
2.10254e-06
3.28047e-06
0.00986972
2.14026e-06
2.481e-06
2.79941e-06
2.32033e-05
2.45314e-06
2.86381e-06
2.60692e-06
3.45629e-06
2.00197e-06
2.96943e-06
1.87176e-06
2.7853e-06
2.64476e-06
1.86669e-06
2.61874e-06
2.09938e-06
3.21111e-06
3.19137e-06
1.79636e-06
0.0120068
1.66576e-06
3.29696e-06
0.0146405
0.0147181
1.95746e-06
1.77634e-06
2.55474e-06
2.60535e-06
2.31001e-06
1.78058e-06
0.0210597
0.014769
2.15048e-06
2.14215e-06
2.17869e-06
2.8948e-06
0.00621355
3.63585e-05
2.46036e-06
1.99971e-06
1.99496e-06
0.0109882
2.52141e-06
0.0224748
5.89911e-06
0.00798788
2.15786e-06
3.71105e-05
2.14298e-06
1.77295e-06
3.64674e-06
2.00085e-06
0.00224861
0.0473545
2.22287e-06
2.67864e-06
1.62003e-06
1.11583e-05
1.13559e-05
2.21514e-06
2.27761e-06
1.6401e-06
2.01248e-06
1.87266e-06
6.43917e-06
2.66583e-06
0.000367056
2.84784e-06
0.00251284
2.03825e-06
1.97527e-06
2.20617e-06
2.08875e-06
0.00511208
0.00700284
2.31773e-06
1.97425e-06
1.81595e-06
1.85335e-06
3.30268e-06
2.87381e-06
2.09383e-06
2.00575e-06
1.78712e-06
2.23467e-06
2.04286e-06
3.43113e-06
6.89362e-06
2.014e-06
2.04806e-06
3.22276e-06
6.80963e-06
2.17482e-06
1.87104e-06
4.05524e-06
2.17581e-06
1.98366e-06
1.86026e-06
2.21407e-06
1.93985e-06
2.19324e-06
0.00826793
2.33011e-06
2.16447e-06
2.79571e-05
3.13557e-06
1.91622e-06
1.68509e-06
1.90417e-06
0.00310319
1.92834e-06
1.97048e-06
1.68111e-05
2.24174e-06
1.11569e-05
2.34231e-06
2.49204e-06
3.39585e-06
2.54199e-06
2.18434e-05
2.86418e-06
1.39305e-05
0.00254921
0.00562505
7.80536e-06
2.06172e-06
2.71611e-06
1.75923e-06
6.96726e-06
4.0987e-06
2.57749e-06
3.26681e-06
0.00933946
2.1708e-06
0.0302084
2.10127e-06
0.0524667
3.17453e-06
3.0199e-06
1.99964e-06
2.1374e-06
1.62386e-06
1.91353e-06
2.29454e-06
1.94523e-06
1.89203e-06
1.86871e-05
0.00317784
1.53796e-05
0.0161008
9.42959e-06
1.74659e-06
2.25064e-06
1.90151e-06
1.85905e-06
0.000622932
2.77529e-06
5.19762e-06
4.98312e-06
0.0373196
0.00571897
0.0229152
4.49543e-06
0.034843
0.0578206
0.00413118
1.81842e-06
2.12743e-06
1.76352e-06
4.09629e-06
0.0360444
0.00381913
1.99955e-06
1.42547e-05
2.16009e-06
2.16365e-06
2.93248e-06
2.85768e-06
0.000111407
2.06327e-06
0.00033044
0.0245176
3.4491e-06
0.0440818
1.92075e-06
0.00834969
0.00970335
1.92128e-06
2.3201e-06
4.30843e-06
2.30276e-06
2.66636e-06
2.317e-06
1.83024e-06
1.71122e-06
2.01216e-06
1.77593e-06
0.000222892
1.81551e-06
0.0141925
3.30809e-06
2.2426e-06
2.90622e-06
5.16704e-06
4.44462e-06
2.67019e-06
1.9647e-06
1.945e-06
2.255e-06
3.05285e-06
2.01023e-06
2.08962e-06
0.00950696
9.02066e-06
1.76053e-06
3.15835e-06
1.89552e-06
1.79326e-06
1.80572e-06
2.02613e-06
1.66115e-06
2.38981e-06
2.64621e-05
4.95545e-06
0.00435591
1.64038e-06
0.0328893
2.51329e-06
1.8092e-06
1.99092e-06
2.21604e-06
4.1483e-06
2.94265e-06
1.91525e-06
1.93471e-06
2.70617e-06
0.00631487
2.8185e-06
0.116799
0.00958408
2.23908e-06
1.88393e-06
0.0580128
1.88455e-06
5.06681e-06
4.3626e-05
0.0523729
2.71242e-06
0.0222607
0.00749031
2.32677e-06
0.0132674
0.00387813
1.74496e-06
2.80968e-06
1.18041e-05
2.13469e-06
9.92921e-06
3.15906e-06
0.00413647
2.22498e-06
2.11671e-06
4.92936e-06
1.74642e-06
2.13316e-06
2.17449e-06
1.04241e-05
0.0188587
3.2075e-06
0.0138351
1.83434e-06
0.0206934
0.03344
0.00196611
1.83385e-06
2.23279e-06
3.32915e-06
0.00657963
1.94727e-06
2.18555e-06
0.00254358
0.0176411
2.33629e-06
1.92248e-06
5.95658e-06
1.70673e-06
3.18896e-06
0.000424098
1.76339e-06
0.0103684
0.00462743
1.99597e-06
0.00199473
2.8577e-06
1.77182e-06
1.88717e-06
5.08747e-06
5.80522e-06
0.00347547
3.53947e-06
2.2438e-06
2.0526e-06
1.36926e-05
3.36074e-06
4.16125e-06
1.52744e-05
2.24333e-06
0.0165178
3.04946e-06
1.40928e-05
3.43322e-06
3.82465e-05
5.96485e-06
0.0415343
0.0087347
2.24424e-06
0.00789518
2.57948e-06
2.0331e-06
1.98296e-06
1.70476e-06
2.73216e-06
1.7748e-06
2.53017e-06
4.4434e-06
2.34861e-06
3.49574e-06
2.82433e-06
0.028513
7.8282e-06
2.28573e-06
2.60636e-06
0.0461008
2.01504e-06
4.12649e-06
1.84919e-06
3.0904e-06
0.00893595
1.70852e-06
3.29331e-06
1.05496e-05
1.93464e-06
4.14738e-06
0.0576953
0.00966851
1.88294e-06
0.000363291
2.88203e-06
2.27741e-06
2.14613e-06
2.18288e-06
1.44648e-05
2.24638e-06
1.90447e-06
2.83778e-06
0.00723708
2.05821e-06
2.37336e-06
2.16201e-06
1.70894e-06
0.0120728
1.70743e-06
2.23192e-06
2.24221e-06
2.87679e-06
0.0552733
3.33804e-06
3.30482e-06
0.0204815
2.35295e-06
0.00660024
1.98738e-06
2.09481e-06
2.51592e-06
3.25338e-05
0.0257956
2.84766e-06
2.36169e-06
2.47311e-06
2.96087e-06
1.80879e-06
2.90683e-06
0.00109665
0.0302476
0.0140158
0.0112544
1.30247e-05
1.96513e-06
0.0226129
2.94819e-06
4.75336e-05
1.78119e-06
2.15476e-06
1.97273e-06
1.91483e-06
3.55401e-06
1.6612e-06
4.367e-06
2.66045e-06
0.0653271
1.81261e-06
2.3853e-06
3.49943e-06
2.48378e-06
4.13284e-06
0.00862514
2.58997e-06
1.97029e-06
3.52641e-06
2.30656e-06
2.21653e-06
1.71314e-06
3.45884e-06
1.71092e-06
0.00180088
0.00623896
1.76771e-06
2.00492e-06
2.46609e-06
2.51847e-06
4.06239e-06
2.19751e-06
2.79277e-06
2.36093e-06
3.13012e-06
1.82415e-06
2.75922e-06
0.0105479
1.78005e-06
3.70575e-06
2.25526e-06
0.00020285
0.00474408
3.38843e-06
3.42076e-06
1.90145e-06
3.20088e-06
0.0104255
0.00769359
0.0209285
0.0209888
1.98813e-06
4.02463e-06
2.12223e-06
2.69618e-06
6.92776e-06
2.64117e-06
2.09642e-06
0.0115185
2.17078e-06
3.17315e-06
0.0312467
0.0126245
3.173e-06
2.02834e-06
2.18146e-06
3.19799e-06
2.10114e-06
0.00260888
1.82796e-06
2.06877e-06
4.8909e-06
1.98211e-06
4.19975e-06
0.0259262
2.29489e-06
0.0716429
0.00732193
0.000926753
2.84641e-06
3.35791e-06
2.20225e-06
2.25326e-06
0.00334405
4.09289e-06
0.0799451
2.25108e-06
3.56997e-06
0.0181399
4.16444e-06
2.23408e-06
4.39924e-06
4.20921e-06
4.1729e-06
0.00169019
0.0161313
6.25467e-06
1.68894e-06
0.00289644
7.26142e-06
2.00944e-06
1.94257e-06
2.32954e-06
0.000164902
2.13941e-06
2.73607e-06
2.22915e-06
2.02894e-06
3.25774e-06
1.80495e-06
2.00305e-06
0.000284515
1.84161e-06
1.79953e-06
4.24819e-06
0.00649744
0.00256094
0.00436221
0.0115549
1.8604e-06
0.000132467
0.00190267
2.18307e-06
2.39434e-06
2.43594e-06
2.53344e-06
2.40487e-06
3.16138e-06
1.85654e-06
1.9994e-06
2.85511e-06
2.90589e-06
1.96544e-06
2.18745e-06
2.00003e-06
2.344e-06
4.14654e-06
0.016324
1.87827e-06
0.0424346
2.03621e-06
2.15884e-06
2.44428e-06
2.82098e-06
0.00702642
3.64277e-06
1.91918e-06
0.0178006
1.88244e-06
3.18199e-06
1.84586e-06
2.76701e-06
5.66673e-06
1.74587e-06
2.09104e-06
2.63463e-06
3.86751e-05
4.30065e-05
0.0296507
4.05313e-06
1.16836e-05
0.00892253
3.35698e-06
2.13368e-06
2.4855e-06
2.71376e-06
4.20643e-06
0.0054943
0.0099041
0.00806498
2.1131e-05
1.99412e-06
6.08394e-06
2.15007e-06
3.07915e-06
1.82024e-06
2.36862e-06
1.98778e-06
3.83558e-06
0.0463211
6.07005e-06
0.020463
4.02587e-05
1.38842e-05
2.96377e-06
0.0201687
2.89571e-06
0.117054
3.33072e-06
7.10772e-06
0.0443544
2.60979e-05
2.73321e-06
0.0197492
3.21793e-06
1.12951e-05
2.86231e-06
2.10085e-06
2.2217e-06
2.88437e-06
2.25881e-06
1.94349e-06
3.83415e-06
1.67725e-06
2.91718e-06
2.12715e-06
3.16386e-06
1.72081e-06
2.28276e-06
2.79391e-06
0.00625372
2.15973e-06
4.09228e-06
8.09998e-06
2.79504e-06
0.00100628
1.7296e-06
0.0307724
0.00028668
5.96297e-06
0.0260272
2.74195e-06
2.68889e-06
1.68945e-06
2.01724e-06
0.0397614
1.82771e-06
2.09561e-06
2.0293e-06
0.119369
0.0124969
0.0105358
3.23783e-06
6.14619e-06
2.92937e-06
3.10731e-06
0.00777717
1.36932e-05
2.12484e-06
3.25124e-06
2.82984e-06
4.19544e-06
7.51679e-06
2.52682e-06
2.21252e-06
1.63574e-06
1.71566e-06
1.72394e-06
0.0174732
2.20279e-06
0.000825061
0.00793474
2.48181e-06
0.0107607
4.36198e-06
0.016047
2.11566e-06
2.16189e-06
1.75953e-06
4.5613e-05
1.82e-06
3.46433e-06
0.00270684
0.129753
4.28585e-06
5.05277e-06
2.27956e-06
3.99964e-06
0.0136999
3.66511e-06
2.6334e-06
2.16293e-06
1.91231e-06
1.79448e-06
2.67089e-06
2.56855e-06
4.16647e-06
3.57666e-06
2.97223e-05
3.60953e-05
1.11668e-05
0.00310033
2.258e-06
8.02321e-06
3.27909e-06
1.95835e-06
2.28817e-06
2.24371e-06
2.63008e-06
2.10304e-06
0.0187401
2.08869e-06
3.17518e-06
2.30184e-06
1.68223e-06
2.31637e-06
2.09468e-06
3.68354e-06
3.33309e-06
0.0084672
2.2297e-06
2.83615e-06
2.27203e-06
8.37716e-06
1.74075e-05
2.1681e-06
2.00221e-06
0.0203157
2.31784e-06
1.85248e-06
0.0990332
2.49949e-06
1.93158e-06
0.0192956
2.51296e-06
0.0108989
1.92855e-05
3.51974e-06
0.00262119
2.0274e-06
1.01943e-05
2.01435e-06
2.23138e-06
1.88388e-06
2.18478e-06
2.89568e-06
2.16909e-06
0.00861257
0.00576028
6.30969e-06
2.66206e-06
2.40888e-06
2.26406e-06
8.56881e-06
1.80956e-06
2.15592e-06
2.48109e-06
0.0868945
3.22055e-06
2.19334e-06
2.62791e-06
2.54681e-06
1.50317e-05
1.99099e-06
3.78718e-06
2.45886e-06
2.47776e-06
2.16297e-06
0.0127107
0.00382259
1.87586e-06
1.08111e-05
2.65339e-06
1.77696e-06
0.00051229
1.6475e-06
0.0211054
3.45933e-05
3.06079e-06
1.67984e-06
1.76883e-06
1.94387e-06
0.0617408
0.00508525
2.96595e-06
0.00061216
1.92026e-06
3.12832e-06
2.03541e-05
2.50893e-06
3.19358e-06
3.39246e-06
1.85893e-06
4.04224e-06
0.0954327
3.94031e-06
1.93808e-06
2.42929e-06
2.28379e-06
2.81831e-06
2.61004e-06
0.00893949
2.81914e-05
6.25112e-06
2.37787e-06
1.8849e-06
0.00825265
1.80026e-06
0.0411736
0.0150451
0.000301212
0.0426284
4.69426e-06
2.04385e-06
2.91821e-06
1.68517e-05
2.23357e-06
1.94551e-06
2.91999e-05
1.31978e-05
3.86276e-06
0.00563257
3.78852e-06
1.77854e-06
2.95112e-06
3.04762e-06
0.0160802
1.84875e-06
1.83773e-06
0.000410352
0.0214552
1.97018e-06
0.00990586
0.0139356
0.00613446
0.0014499
2.71404e-06
3.21436e-06
0.026767
2.5103e-06
2.38336e-06
2.94127e-06
0.00174014
3.2129e-06
2.19308e-06
1.77761e-06
2.30861e-06
1.91048e-06
0.00147698
2.06087e-06
0.012557
3.54916e-06
0.0129327
1.89538e-06
0.0139565
2.42112e-06
2.77387e-06
1.91641e-06
3.09059e-06
0.0140292
0.00123118
2.18616e-06
0.00567362
1.92274e-06
3.14549e-06
1.79844e-06
3.27024e-06
0.00803686
8.11589e-06
0.0207484
0.01001
1.79031e-06
3.17842e-06
3.14473e-06
2.95634e-06
0.0078555
2.24348e-06
2.5402e-06
2.15077e-06
3.14277e-06
3.55088e-06
2.19941e-06
2.28432e-06
0.0483045
0.00816103
1.7161e-06
2.28709e-06
2.0944e-05
0.0100415
0.0672621
3.7503e-06
2.45481e-06
0.0337874
0.000828241
2.15545e-06
2.33707e-06
2.1373e-06
0.00287919
2.28719e-06
3.67257e-05
2.18357e-06
2.28476e-06
3.03752e-06
1.74884e-06
2.85638e-06
3.8225e-06
2.26114e-06
0.0144096
2.18036e-06
0.0286082
3.49597e-06
6.18788e-06
0.0420464
2.27896e-06
2.94851e-06
2.01807e-06
3.58735e-06
2.36999e-06
1.94251e-06
2.2503e-06
0.0170227
0.0165561
3.0869e-06
3.23165e-06
1.82658e-06
3.27941e-06
6.02389e-06
1.63835e-06
2.13092e-06
4.07227e-06
1.79652e-06
2.238e-06
2.02807e-06
0.101857
2.06629e-06
0.0130468
3.05455e-06
1.76572e-06
6.29588e-06
1.92799e-06
0.0215621
7.86464e-06
2.2457e-06
0.0616962
2.3846e-06
1.66732e-06
2.14879e-06
2.13917e-06
2.03055e-06
3.10452e-06
2.57106e-06
5.65929e-06
2.7839e-06
1.62954e-06
3.03534e-06
4.43699e-06
2.23672e-06
2.43044e-05
3.022e-06
2.49762e-06
9.8973e-06
2.87235e-06
2.26275e-06
3.00282e-06
0.00853851
2.73989e-06
6.55705e-06
2.90797e-06
2.87891e-06
2.87027e-06
8.32682e-06
3.13243e-06
4.11228e-06
2.15384e-06
2.69015e-06
0.000963378
0.0315402
2.29747e-06
0.0178888
1.99213e-06
3.18755e-06
2.42658e-06
2.28248e-06
3.40189e-05
2.69432e-06
2.88009e-06
0.0242602
0.00206513
2.37047e-06
3.45985e-06
2.38146e-06
2.73283e-06
2.03669e-06
6.10742e-06
2.43526e-06
3.7533e-06
3.64999e-06
2.14832e-06
0.0296072
2.00566e-05
2.18763e-06
0.00893897
2.10939e-06
1.60024e-05
0.0193269
3.16286e-06
2.09287e-06
0.00164754
1.831e-06
2.62408e-06
0.00157687
0.0426174
2.13329e-06
1.95402e-06
1.95339e-06
2.71576e-06
0.000146016
2.26066e-06
2.61129e-06
0.00537178
1.75457e-06
1.97046e-06
0.0983666
2.27575e-06
0.00244064
1.85185e-06
1.87354e-06
1.79344e-05
1.94751e-06
3.11692e-06
1.90214e-06
1.95465e-06
4.32343e-06
0.000253819
2.12625e-06
2.28337e-06
4.7362e-06
0.00985697
0.0266158
2.42947e-06
0.0120061
1.28459e-05
0.0241448
0.00935304
0.0177556
2.10992e-06
1.85918e-06
6.67507e-06
3.27031e-06
2.198e-06
2.90737e-06
1.63107e-06
0.00693189
3.09788e-06
2.12688e-06
2.0675e-06
0.0171852
0.00556049
0.0178853
2.57107e-06
0.0285827
2.18882e-06
3.04791e-06
1.9247e-06
0.00310637
1.04649e-05
1.93302e-06
2.65689e-06
2.00028e-06
0.00734992
1.91898e-06
0.00787808
0.000890412
6.79599e-06
2.1203e-06
1.77888e-06
1.87453e-06
2.50502e-06
3.28571e-06
2.27988e-06
1.62331e-06
2.28859e-06
2.38968e-06
1.68832e-06
1.3159e-05
2.99593e-06
2.1498e-06
0.011492
2.18025e-06
2.88144e-06
1.67465e-06
0.113529
1.05312e-05
2.1288e-06
2.35747e-06
1.7139e-06
2.64266e-06
2.08478e-06
0.0105889
1.84759e-06
0.000732686
2.24143e-06
2.27545e-06
2.49212e-06
3.6456e-06
2.27781e-06
0.00423249
8.13004e-06
2.94505e-06
1.30024e-05
0.0109552
1.90779e-05
1.72477e-06
0.0407692
2.33002e-06
0.0254143
0.00286236
3.6261e-06
2.10825e-06
0.0278872
4.20408e-06
0.019407
2.13504e-06
0.0432423
1.7501e-06
3.29929e-06
5.80069e-06
1.70796e-06
0.00145039
2.27785e-06
1.74235e-06
0.00509474
4.18343e-06
4.284e-06
2.38902e-06
1.9767e-06
0.000883592
5.74101e-06
4.28771e-06
0.0223927
3.51262e-06
0.00429349
2.62257e-06
1.87885e-06
1.88989e-06
0.00187959
0.0324598
2.78366e-06
3.46089e-06
2.22889e-06
2.27717e-06
2.33965e-06
1.83732e-06
2.81674e-06
0.0209979
2.20263e-06
2.15288e-06
1.76304e-05
1.75134e-06
9.97597e-06
6.213e-06
0.0801497
7.11738e-06
2.12908e-06
2.99612e-06
8.38639e-06
2.10387e-06
1.65685e-06
1.82541e-06
1.78374e-06
2.14281e-06
1.94758e-06
2.09987e-06
2.32364e-06
2.92172e-06
2.11623e-06
1.91676e-06
1.98617e-06
3.40127e-06
2.95151e-06
1.76249e-06
2.03076e-06
2.53693e-06
3.0447e-06
7.87484e-06
0.00642304
3.00964e-06
0.0131631
0.00862064
0.0473322
0.0372925
0.00491818
3.03379e-06
6.28262e-06
0.0185959
2.88971e-06
3.35824e-06
1.90452e-06
0.00744654
4.18872e-06
2.87232e-06
2.07674e-06
0.0122569
1.65568e-06
1.91149e-05
0.00647638
2.9456e-05
0.026327
0.00339191
1.70122e-06
2.33329e-06
2.35996e-06
1.82161e-06
2.21256e-06
3.01749e-06
1.77508e-06
2.8028e-06
5.88575e-06
2.08049e-06
3.00887e-06
2.16398e-06
1.95504e-06
3.54527e-06
2.37087e-06
1.76989e-06
0.00204489
2.01759e-06
2.00952e-06
3.24276e-06
0.0775011
2.13513e-06
2.15165e-06
1.70172e-06
2.18326e-06
3.61858e-06
2.14079e-06
7.07145e-06
2.00187e-06
2.10972e-06
1.8223e-06
1.75711e-06
2.61537e-06
5.97311e-06
2.72833e-06
3.90074e-06
0.016856
1.51237e-05
3.3306e-06
3.85426e-06
2.58005e-06
0.0105729
0.00762635
2.36889e-06
2.58874e-06
1.26392e-05
0.0117901
3.81965e-06
2.13523e-05
3.10698e-06
5.02306e-06
1.7575e-06
2.24613e-06
0.00726997
1.81774e-06
2.32974e-06
0.000264458
3.4811e-06
0.0152554
0.0319556
0.00886606
0.00771366
0.00601132
2.12641e-06
0.057347
2.46411e-06
2.82101e-06
1.94866e-06
1.87629e-06
0.0402778
3.29924e-06
2.61933e-06
0.0198734
0.00349858
0.0024552
1.3382e-05
2.87481e-06
1.81041e-06
0.00615204
1.77626e-06
0.000372994
2.04816e-06
2.13741e-06
2.14808e-06
2.0454e-06
2.2117e-06
2.87681e-06
1.82039e-06
1.79361e-06
2.13362e-06
0.0257844
1.79818e-06
1.93421e-06
1.36084e-05
2.15107e-06
2.79233e-06
1.92837e-06
8.40335e-06
0.0149094
2.25495e-06
1.88282e-06
3.03022e-06
1.55275e-05
9.53381e-06
0.0203644
3.92388e-06
2.01169e-06
3.24608e-06
1.96005e-06
3.80607e-06
0.0269302
2.27785e-06
2.0821e-06
3.61919e-06
2.2531e-06
2.26808e-06
1.15237e-05
1.73028e-06
6.76751e-06
0.0203277
1.37426e-05
4.54541e-06
2.63325e-06
3.78061e-06
1.79076e-06
0.0193684
9.25648e-06
0.000246721