/*--------------------------------*- C++ -*----------------------------------*\
| =========                 |                                                 |
| \\      /  F ield         | OpenFOAM: The Open Source CFD Toolbox           |
|  \\    /   O peration     | Version:  v2012                                 |
|   \\  /    A nd           | Website:  www.openfoam.com                      |
|    \\/     M anipulation  |                                                 |
\*---------------------------------------------------------------------------*/
FoamFile
{
    version     2.0;
    format      ascii;
    class       volScalarField;
    location    "400";
    object      nut;
}
// * * * * * * * * * * * * * * * * * * * * * * * * * * * * * * * * * * * * * //

dimensions      [0 2 -1 0 0 0 0];


internalField   nonuniform List<scalar> 
18618
(
0.000457074
0.00122979
0.000453491
0.000459791
0.000456851
0.00045884
0.00490406
0.00216658
0.000952793
0.000606659
0.000456827
0.000457405
0.000456072
0.000457138
0.000457703
0.000459245
0.000453352
0.00045714
0.000451401
0.00461966
0.000457693
0.00947145
0.000451815
0.000457545
0.00552539
0.000997781
0.000574871
0.00880317
0.000650583
0.000453491
0.000457193
0.000455655
0.000484554
0.000456787
0.000462538
0.00772098
0.000453756
0.00171584
0.00313689
0.000452049
0.00348114
0.00931253
0.00561408
0.000585977
0.000468189
0.000471354
0.00440119
0.000474138
0.000581348
0.00792745
0.000571144
0.000455104
0.000547599
0.000587901
0.00543331
0.00155965
0.000533989
0.000554489
0.00395354
0.0064192
0.00283193
0.00575689
0.000579468
0.000458599
0.0016756
0.000707509
0.006127
0.000468503
0.000454329
0.00489351
0.000614794
0.000451491
0.000465951
0.00337901
0.000348443
0.00799247
0.000464815
0.000458593
0.000454141
0.000722265
0.000459345
0.000457116
0.000459521
0.000458774
0.00954451
0.000454401
0.00151177
0.00478439
0.00568445
0.00203115
0.000455199
0.00364744
0.00162627
0.000453004
0.00356853
0.00578239
0.000457132
0.000890874
0.000458294
0.00549914
0.00779634
0.00628897
0.000455606
0.00149445
0.000650462
0.000652454
0.0050039
0.000456488
0.00564798
0.00518124
0.00362954
0.000459586
0.00551718
0.000301486
0.000460007
0.000452089
0.00463247
0.000459638
0.000561684
0.000365052
0.000459924
0.000455867
0.000460359
0.000458843
0.000561706
0.000683701
0.000462323
0.00168108
0.00169167
0.000585584
0.00262477
0.00545809
0.00494042
0.000523168
0.000456069
0.000480267
0.000460555
0.0049611
0.00766803
0.000457602
0.00250477
0.00506511
0.000454365
0.000457377
0.000458973
0.000459924
0.000452248
0.000459547
0.000458018
0.00045778
0.00368023
0.000456704
0.000485683
0.000458721
0.00045965
0.00364875
0.00824162
0.00048875
0.00045486
0.00592824
0.000558957
0.000473332
0.00707003
0.00404902
0.000460833
0.0004665
0.000458756
0.0094533
0.000458535
0.000922411
0.000469397
0.000483006
0.000703713
0.00147169
0.00458477
0.000460046
0.003521
0.000458733
0.000460916
0.00047126
0.00313998
0.000462301
0.00741643
0.000465756
0.000461971
0.000482784
0.00351256
0.00143124
0.00135585
0.000457236
0.000460131
0.000475046
0.000466305
0.000453471
0.000454197
0.00270599
0.000457614
0.000457202
0.00247747
0.000469297
0.000688006
0.0090271
0.003547
0.00176408
0.00315613
0.000459583
0.00353463
0.00677096
0.000464108
0.000452338
0.00135103
0.00118928
0.000458138
0.00045226
0.000456683
0.000468075
0.00801177
0.00568142
0.00045961
0.000454905
0.000457762
0.000459715
0.0066853
0.000467516
0.00478328
0.000460787
0.000455694
0.000725753
0.00150591
0.000469416
0.000459366
0.000471573
0.000456715
0.0026567
0.000471585
0.000462771
0.000465427
0.00086552
0.00391369
0.000454941
0.00111478
0.000455043
0.000461473
0.00457428
0.000556554
0.00051343
0.00255542
0.0004631
0.00488211
0.000459707
0.000453047
0.00933116
0.000474064
0.00498868
0.000489223
0.000462678
0.000889244
0.000461206
0.000451566
0.000454839
0.000459629
0.00791629
0.00557396
0.000461603
0.00939425
0.00217748
0.00091072
0.000474999
0.000690868
0.000472251
0.000725608
0.000460932
0.000456743
0.00045987
0.000469078
0.000465632
0.00048167
0.000457556
0.000454008
0.00655996
0.000459653
0.000561039
0.00045947
0.00045722
0.0049118
0.00045977
0.000454575
0.000537785
0.00055535
0.000658292
0.000452132
0.000541224
0.000459716
0.000488949
0.00693214
0.0015371
0.00516576
0.00774264
0.00692989
0.000455378
0.000482296
0.000458348
0.000498916
0.000459526
0.000461129
0.000464278
0.000458219
0.00465823
0.000717034
0.00802791
0.00213699
0.000451326
0.001702
0.000467743
0.000465872
0.000457651
0.000457267
0.000474747
0.000528052
0.00423976
0.000452146
0.00277794
0.0004632
0.00909234
0.000466542
0.00187988
0.00310279
0.000457902
0.000453659
0.00590435
0.000496152
0.00724199
0.000458117
0.000465653
0.000481912
0.000460446
0.00640088
0.000458146
0.000454949
0.00741651
0.000539834
0.000579804
0.008087
0.000744618
0.000461418
0.000563672
0.000461026
0.000696409
0.000544787
0.000451802
0.000461859
0.000451757
0.00741454
0.000463684
0.000459538
0.00046237
0.000463599
0.000543884
0.000458838
0.00045654
0.000456432
0.00491501
0.00941356
0.000552923
0.00258462
0.00950872
0.000461677
0.000465826
0.000584001
0.000892842
0.000455163
0.000459805
0.000463853
0.000470127
0.000452326
0.000458915
0.000725344
0.000459849
0.000459795
0.000553099
0.000734931
0.000469303
0.000454533
0.000453421
0.000589122
0.000454597
0.000565796
0.00583761
0.000461332
0.000563934
0.000458944
0.000462198
0.00355847
0.00362042
0.000461916
0.000864311
0.00357549
0.0072506
0.000462805
0.00569614
0.000459967
0.000481801
0.00046628
0.00845272
0.00045472
0.00394018
0.000460901
0.000459006
0.000475133
0.000460105
0.000454682
0.000469311
0.000454921
0.000451703
0.00045853
0.00054308
0.000451694
0.000455645
0.000489063
0.000470683
0.000452305
0.00268617
0.000465291
0.000467285
0.00045471
0.00713461
0.000546863
0.000459126
0.00217635
0.00789396
0.000462566
0.000461015
0.000471099
0.000458807
0.00045425
0.000472502
0.000465045
0.000459891
0.00139902
0.00070209
0.000464036
0.00259942
0.000459899
0.000479351
0.0057753
0.00056066
0.000462175
0.00145386
0.000691147
0.000462291
0.000466583
0.000468279
0.000560033
0.000480947
0.00046139
0.00126999
0.000460173
0.000454748
0.000457114
0.00955844
0.00839739
0.000460572
0.000706291
0.000461974
0.000747339
0.000457118
0.000461315
0.000469293
0.00136375
0.000454806
0.000460649
0.000490318
0.000458574
0.0046745
0.000464017
0.000462371
0.00349555
0.000465893
0.00249288
0.000492336
0.000835117
0.000459437
0.00710135
0.000454498
0.00120359
0.000459754
0.000736448
0.000458654
0.000535999
0.000471701
0.00116137
0.00736582
0.000456605
0.000465968
0.00621667
0.00639712
0.00100959
0.00824939
0.000459349
0.000466689
0.000469349
0.000456605
0.00613006
0.000461901
0.000467237
0.000711912
0.000459337
0.000463053
0.00288339
0.00116541
0.00815039
0.000456131
0.000465776
0.000466496
0.000563971
0.000464759
0.000453783
0.000466165
0.000568504
0.00263739
0.000454614
0.000464617
0.0012904
0.000566165
0.000453199
0.000462377
0.00269101
0.000463541
0.000372446
0.000465268
0.00401443
0.00530199
0.00045951
0.000466468
0.000566748
0.000467751
0.00238136
0.000469273
0.000455718
0.000455596
0.000505666
0.00046199
0.000561559
0.000529838
0.000462052
0.000464288
0.00258816
0.00522211
0.000452068
0.000459602
0.000460487
0.000649544
0.00106853
0.000454081
0.0013601
0.000454492
0.000287955
0.00046184
0.000697116
0.000567511
0.00748216
0.000454904
0.00188785
0.000462121
0.000458952
0.000658938
0.00462862
0.00045737
0.000704284
0.000458037
0.000462861
0.00683425
0.000464616
0.00890021
0.00782632
0.00398405
0.00454206
0.00057084
0.00310564
0.000453475
0.000479499
0.000463704
0.000481717
0.00046469
0.000462593
0.000453538
0.000464031
0.000454232
0.00280449
0.000770679
0.000460417
0.000456359
0.000456532
0.000454444
0.000457207
0.00047947
0.00189086
0.00797726
0.000728785
0.000457704
0.000462718
0.0019825
0.000518501
0.000457639
0.000459441
0.000498803
0.000463069
0.000453322
0.000461178
0.000478051
0.00543327
0.00386495
0.00606284
0.00430001
0.00875553
0.000456036
0.000466554
0.00811766
0.000459401
0.000462104
0.000453695
0.000454622
0.0040745
0.000572735
0.000467953
0.00110879
0.000455038
0.000459664
0.00112016
0.000463234
0.000462087
0.000459739
0.00628243
0.00045319
0.00140172
0.00157507
0.00261845
0.00045781
0.00584452
0.000572614
0.00045559
0.000457186
0.00699711
0.000834591
0.000454475
0.00164837
0.000555522
0.000458672
0.00045635
0.000459644
0.00175783
0.000462285
0.000454557
0.000565845
0.000454016
0.000461831
0.000460916
0.00361303
0.000457395
0.00045983
0.00378494
0.000850714
0.000463994
0.000456629
0.000542155
0.000456872
0.000483552
0.000464017
0.000792552
0.000462723
0.00263577
0.000469335
0.000465882
0.000457547
0.0004576
0.00149421
0.00958958
0.00126229
0.0078902
0.000504163
0.00360175
0.000483617
0.000559553
0.000464124
0.000464646
0.00747232
0.00238961
0.000464264
0.000466318
0.00046118
0.00314708
0.000453298
0.000459711
0.000458977
0.00112407
0.00194945
0.000459289
0.000461851
0.000461752
0.00742095
0.00270228
0.000462233
0.000473285
0.000745354
0.000454005
0.000454173
0.000481691
0.00597651
0.000465443
0.000457715
0.000451639
0.000459632
0.000463717
0.00674638
0.00212084
0.00313484
0.000470356
0.00175557
0.000454705
0.000461636
0.000487408
0.000451735
0.00569399
0.00666873
0.00602342
0.000528994
0.00743424
0.000452925
0.000459613
0.000519674
0.000616055
0.00186742
0.000461844
0.000481421
0.00799856
0.000454822
0.0072109
0.0019445
0.000453236
0.000460631
0.000475235
0.000465614
0.000460275
0.00610704
0.00695628
0.0049563
0.000686768
0.000729109
0.000551541
0.002181
0.000455037
0.000512257
0.000462718
0.000457752
0.00153899
0.000451588
0.00956844
0.000457025
0.000460193
0.00483305
0.00130858
0.000455658
0.000467728
0.000489586
0.000458857
0.00113475
0.00679851
0.000455121
0.000503881
0.00585959
0.000463354
0.000466069
0.000498407
0.000461086
0.000460396
0.000456106
0.00289606
0.00133007
0.000457722
0.00046241
0.000461564
0.00517722
0.000451272
0.000460058
0.000374198
0.00045607
0.000453101
0.00305402
0.00258543
0.00220276
0.00046136
0.000454321
0.000560589
0.000458704
0.000466029
0.00677044
0.000538376
0.000926145
0.00513277
0.000466254
0.000459374
0.000472562
0.000455327
0.000470524
0.000540188
0.000454655
0.000629708
0.00048498
0.000457514
0.00176908
0.00104547
0.000477691
0.000549985
0.000536615
0.00046215
0.000460099
0.000453096
0.000454613
0.000458642
0.000454009
0.000481795
0.00046616
0.00045282
0.00831895
0.000494215
0.00607882
0.00403112
0.000475887
0.000968149
0.000465213
0.00046349
0.000453559
0.00215484
0.00807095
0.000454985
0.00045754
0.00874023
0.000461499
0.000456314
0.000457033
0.00240865
0.000454781
0.00682517
0.000458659
0.000461708
0.00679724
0.00045462
0.000461598
0.000452094
0.000464258
0.00398611
0.00522533
0.00689055
0.000460911
0.00414071
0.00557452
0.0094435
0.0023106
0.000477004
0.00277208
0.000460511
0.000471125
0.000462109
0.000568223
0.00224808
0.000458614
0.000461555
0.00046191
0.000645821
0.000461099
0.000454556
0.00869937
0.000457843
0.000456302
0.00517578
0.000458052
0.00052044
0.00810929
0.000458139
0.00045863
0.000458728
0.000455236
0.000512608
0.000472201
0.000465089
0.00318376
0.00858236
0.000723672
0.000455486
0.00227119
0.00605118
0.000477628
0.000456754
0.000451833
0.00159049
0.000460612
0.000460276
0.000455455
0.000452838
0.00046006
0.000469362
0.000466152
0.00074109
0.000461601
0.000456757
0.000718702
0.000951397
0.000457543
0.000456052
0.000463816
0.000457486
0.000461039
0.000457612
0.000453656
0.000454602
0.00854649
0.000538469
0.00149183
0.000466291
0.000453881
0.000465365
0.000454891
0.000478336
0.000464781
0.00859166
0.000335664
0.00682143
0.000462534
0.000457209
0.00138252
0.000589205
0.000582176
0.000458171
0.000456989
0.000458233
0.000460461
0.00159568
0.00583794
0.000459387
0.000461037
0.0068426
0.00335478
0.00054691
0.000652607
0.00900462
0.00386043
0.000462906
0.000468403
0.000527118
0.000518051
0.000921448
0.000454486
0.000455483
0.00184495
0.000500442
0.000453935
0.000463398
0.000454087
0.000463469
0.000458354
0.00942682
0.000479086
0.000453704
0.000458745
0.000459814
0.000460542
0.000453134
0.00696588
0.00267803
0.000455547
0.000454771
0.00297204
0.00045914
0.00045284
0.000456096
0.000455226
0.0020903
0.000454031
0.000467901
0.000458351
0.00661698
0.000459598
0.000457948
0.00941891
0.000471901
0.00151488
0.000454695
0.00191779
0.000466209
0.00046195
0.00807496
0.000456376
0.0068903
0.000460217
0.00268129
0.0073432
0.000506922
0.000729201
0.0077472
0.000658504
0.004113
0.000466465
0.000462634
0.0004605
0.000519895
0.000462559
0.000565812
0.00045575
0.00953703
0.000567512
0.000459858
0.000453993
0.000461413
0.000466083
0.000468162
0.000456181
0.000463797
0.000455444
0.000461404
0.000454861
0.00046078
0.00281941
0.000455432
0.000563523
0.000455269
0.000900584
0.000454795
0.00864119
0.000967264
0.00766311
0.000546869
0.000454705
0.00267276
0.00948293
0.000475512
0.005077
0.000462025
0.00372881
0.000753309
0.000455634
0.000550727
0.000454937
0.00896511
0.0004756
0.000454214
0.000463413
0.000515082
0.000457767
0.000898488
0.000465406
0.000719117
0.00045489
0.00046553
0.00489214
0.000459209
0.000458304
0.00315869
0.000490863
0.000459147
0.00774803
0.000477341
0.000459802
0.000732083
0.000458096
0.00045143
0.000614646
0.000458349
0.000455608
0.000474743
0.000463385
0.000551035
0.00949147
0.000463845
0.00298855
0.000453396
0.000465673
0.000458528
0.000455517
0.000455452
0.00135472
0.00366333
0.000471909
0.000465281
0.00191143
0.00358605
0.00948688
0.000456381
0.000463316
0.000466472
0.000453202
0.000467698
0.000455999
0.000455136
0.000459904
0.000453173
0.000459844
0.000454463
0.000465619
0.000466232
0.000460531
0.000455653
0.000620408
0.00678699
0.000744447
0.00939997
0.000508628
0.000546318
0.000465342
0.00907947
0.00173524
0.000481593
0.000464574
0.000559261
0.00913137
0.00370907
0.000462077
0.000484989
0.00404235
0.0066048
0.00154106
0.000457725
0.0011994
0.000477005
0.000462701
0.000461195
0.000535555
0.000461284
0.000478637
0.000455438
0.000478315
0.0028318
0.00215137
0.000458955
0.000452705
0.00046632
0.000460606
0.00114035
0.000456304
0.00056991
0.000455593
0.000457921
0.000458009
0.00045605
0.000458891
0.00144854
0.000467157
0.000603808
0.000459463
0.000461174
0.000513247
0.000574739
0.00529711
0.000467346
0.000458974
0.00668043
0.000458999
0.000459603
0.000456484
0.000466524
0.00934234
0.000452785
0.00056685
0.00105716
0.000455449
0.000569848
0.00742014
0.000461564
0.000464708
0.000478769
0.000454302
0.000570144
0.000452057
0.00540175
0.00050888
0.000462403
0.000456856
0.000744551
0.000464074
0.00471815
0.00986259
0.000455837
0.000654527
0.00618113
0.000566287
0.00574575
0.000464204
0.000498375
0.000551603
0.00391673
0.000461372
0.000458761
0.000457652
0.000455163
0.000455206
0.00488074
0.00203973
0.000460932
0.0018063
0.000469417
0.000458026
0.000459153
0.000471909
0.000452197
0.000457856
0.000467485
0.000464486
0.00655118
0.00562117
0.000455749
0.000456054
0.000454829
0.00610848
0.000648904
0.000458836
0.000572075
0.00699647
0.000480005
0.000458786
0.000461344
0.00132296
0.000458533
0.000461626
0.000459839
0.000465283
0.000457785
0.000462464
0.000457966
0.000461295
0.000460139
0.000454383
0.000536354
0.000476796
0.00059172
0.00056698
0.000457546
0.00828931
0.000453167
0.000464363
0.00762514
0.00845723
0.000479938
0.000453935
0.000460082
0.000459413
0.000458403
0.000453422
0.00900851
0.00859395
0.000456454
0.000457207
0.000483555
0.000461792
0.00690639
0.00146933
0.000458684
0.000470438
0.000480557
0.00731913
0.000459229
0.00413857
0.000702513
0.00279424
0.000475692
0.00133106
0.000484994
0.000452472
0.000465967
0.00045514
0.00166275
0.00787102
0.000461467
0.00046039
0.000451363
0.00100821
0.00101187
0.000461212
0.00045718
0.000452031
0.000464159
0.00047948
0.000787846
0.000460289
0.00239508
0.000461671
0.00384449
0.000457942
0.000481936
0.000456842
0.000456104
0.00485594
0.00502253
0.000507757
0.000457693
0.000454241
0.000457767
0.000598543
0.000461813
0.000456216
0.000465292
0.000452782
0.000457682
0.000456956
0.000465125
0.000748286
0.000482418
0.000457072
0.000572525
0.000794634
0.00046233
0.000464377
0.000468373
0.000456327
0.00045502
0.000464597
0.000461736
0.000454347
0.000472536
0.00678469
0.000499063
0.000459426
0.00135827
0.000543082
0.000479997
0.000451959
0.000454137
0.00418812
0.00048166
0.000454699
0.00118261
0.000468336
0.00098138
0.000458758
0.000459021
0.00060696
0.00045952
0.00121244
0.000560406
0.0011334
0.00408553
0.0034214
0.000870677
0.000485977
0.000460136
0.000462912
0.000801911
0.000468517
0.000459957
0.000464219
0.00271847
0.000456179
0.00654818
0.000481053
0.00721073
0.000463626
0.000552898
0.00046159
0.000456586
0.000451573
0.000481165
0.000459242
0.000455579
0.000469732
0.00120153
0.00444404
0.00107189
0.00795299
0.000938917
0.000454601
0.000514275
0.00045628
0.000453377
0.00254297
0.000461164
0.000697356
0.000663636
0.00892219
0.006866
0.000692705
0.00063263
0.00664427
0.00824638
0.00438399
0.000458319
0.00046621
0.000453913
0.000468433
0.00867697
0.00441991
0.000464831
0.00102639
0.000459482
0.000461985
0.000462177
0.000563059
0.00179531
0.000459736
0.00238651
0.00836849
0.000465232
0.004941
0.000454202
0.0078528
0.00174282
0.000454275
0.000457702
0.000622085
0.000458471
0.000460299
0.000457308
0.000464521
0.000453384
0.00045548
0.000452489
0.00194173
0.000458043
0.00840839
0.000564796
0.000468624
0.000555751
0.000698822
0.000656734
0.000460284
0.00045495
0.000470878
0.000491255
0.000567742
0.000463423
0.000456412
0.00296045
0.000891654
0.000455641
0.000463451
0.000454093
0.000453027
0.000457825
0.000462371
0.000451265
0.000459288
0.00128148
0.000689739
0.0046086
0.000452771
0.00487236
0.000459569
0.000457991
0.000458168
0.000512476
0.000468762
0.000462128
0.00045417
0.00046044
0.00051165
0.00588646
0.000549827
0.0075786
0.00267267
0.000456809
0.000468766
0.00821545
0.000453835
0.000693676
0.00146403
0.0081433
0.000460832
0.00723394
0.0076431
0.000457907
0.00843791
0.00431507
0.000457867
0.000549519
0.0010102
0.000478603
0.00097053
0.000463355
0.00464024
0.000457625
0.000478377
0.000686903
0.000458348
0.000466557
0.000477149
0.00101891
0.00629719
0.000463637
0.0029054
0.000467292
0.00365267
0.00369124
0.00777
0.000453479
0.000478
0.000464582
0.00741554
0.000454551
0.000457505
0.0039376
0.00252202
0.000509415
0.000466271
0.000713439
0.000453342
0.000463641
0.00248163
0.00046291
0.00169297
0.00587082
0.000455056
0.00436699
0.000461578
0.000461562
0.00045392
0.000691519
0.000783016
0.00592951
0.000571961
0.000505462
0.000455983
0.00108133
0.00057105
0.000468958
0.00111166
0.000459996
0.00693359
0.000580849
0.00100727
0.00046514
0.00150477
0.000724663
0.00532625
0.00256411
0.000509323
0.00769956
0.000459375
0.000458296
0.000456328
0.000454943
0.00046067
0.00046169
0.000459336
0.000688867
0.000458158
0.000465603
0.000546699
0.00376841
0.00079222
0.0004727
0.000460031
0.00946419
0.000462058
0.00064944
0.000454803
0.000566004
0.00708109
0.000455901
0.000464286
0.000889733
0.00045414
0.000646101
0.00941333
0.00706524
0.000480046
0.00225973
0.000462185
0.00047498
0.000473167
0.000472244
0.00109536
0.000461388
0.000457754
0.000538721
0.00668818
0.000483444
0.000525563
0.000466657
0.000455824
0.00835925
0.000455271
0.000457219
0.000462229
0.000461948
0.00787328
0.00055788
0.000555153
0.000401442
0.000458171
0.00722948
0.000455001
0.000455845
0.00050576
0.00131223
0.00911007
0.00046186
0.000458139
0.000459063
0.00054948
0.000453126
0.00046182
0.00334428
0.00928794
0.00728659
0.00251382
0.00105319
0.000454345
0.009048
0.000462185
0.00158187
0.000452835
0.000459475
0.000454919
0.000459253
0.000465738
0.000451482
0.000684219
0.000544693
0.00705647
0.000453278
0.000491523
0.00061594
0.000459108
0.000646343
0.00412682
0.000459938
0.000455713
0.000465778
0.000474945
0.000457618
0.000455736
0.000465229
0.00045222
0.00366062
0.00539149
0.000453142
0.000461729
0.000458997
0.000459319
0.000468387
0.000458205
0.000519385
0.000458943
0.000561785
0.000464391
0.000460975
0.00715154
0.00045335
0.000466563
0.00045759
0.00192813
0.00667668
0.000464841
0.000465001
0.000457576
0.000463712
0.00193858
0.00672912
0.000373754
0.00536297
0.00045465
0.000604488
0.000461872
0.000460786
0.000750956
0.000460131
0.000456509
0.0071953
0.000462048
0.000463616
0.00935269
0.00726331
0.000583322
0.000461876
0.000461332
0.000463738
0.000456056
0.00516789
0.000454405
0.000458288
0.000655869
0.000454712
0.000468986
0.00408096
0.000489709
0.00801525
0.00690402
0.00293947
0.000523757
0.000464605
0.00046575
0.000459501
0.00443406
0.000642423
0.0061055
0.0004682
0.000465827
0.00878938
0.000469006
0.000477295
0.000629899
0.000469118
0.000468956
0.0040368
0.00731537
0.000812401
0.000452066
0.00509981
0.000752701
0.00047176
0.000454021
0.000458932
0.00184535
0.000474415
0.000460716
0.000458667
0.000466328
0.000574142
0.00045316
0.000455165
0.00207671
0.000458247
0.000453068
0.000469407
0.00541054
0.00456103
0.00938756
0.00767914
0.000458934
0.0019162
0.00369925
0.000456466
0.00045853
0.000458459
0.000459361
0.000527903
0.000462865
0.000453553
0.000455567
0.000462173
0.000462015
0.000454636
0.000480774
0.000455827
0.000457951
0.000468824
0.00822447
0.000465287
0.000849598
0.000456838
0.000456154
0.000458362
0.000558003
0.00735774
0.000614466
0.000459353
0.00683683
0.000454292
0.000463491
0.000458708
0.000461121
0.00068642
0.000454786
0.000455924
0.000459975
0.00152495
0.00150477
0.00369316
0.000468479
0.000968741
0.00726092
0.000464685
0.000471376
0.000459085
0.000460551
0.000469115
0.00494109
0.00788883
0.00721023
0.00115942
0.000455664
0.000727682
0.000456803
0.000564724
0.000453984
0.00045909
0.000454957
0.000467411
0.00957403
0.000736752
0.00733069
0.00150725
0.00106245
0.000461957
0.00277287
0.000461869
0.00633839
0.000464714
0.00080838
0.0095613
0.00125056
0.000460818
0.00341321
0.000463722
0.00097748
0.000461504
0.000459156
0.000459642
0.000461672
0.00046963
0.000462782
0.000467361
0.000455855
0.000461928
0.000475777
0.00046349
0.00046134
0.000482504
0.000556064
0.0042367
0.000472788
0.000468491
0.000860633
0.000520436
0.00329731
0.000452254
0.00809003
0.0022198
0.000731429
0.00670725
0.00046035
0.000460482
0.000451809
0.000477532
0.00506271
0.000454267
0.000459537
0.000466342
0.0066221
0.0079399
0.00196223
0.000463726
0.000764496
0.000462038
0.000578608
0.00271933
0.00100238
0.000459514
0.000464191
0.000561383
0.000468983
0.0007679
0.000459282
0.000504801
0.00045104
0.000460989
0.000452168
0.00846491
0.000456792
0.00297626
0.00250436
0.000458913
0.0019676
0.000625619
0.00131817
0.000457146
0.000462233
0.00045234
0.0015214
0.000454583
0.000465213
0.00816292
0.00704132
0.000469442
0.00068315
0.000498328
0.000651524
0.00854764
0.00058101
0.000460269
0.000466641
0.000464684
0.000455638
0.000460724
0.000459649
0.000468971
0.000610677
0.00132867
0.0014149
0.00105796
0.00510103
0.000459337
0.000891899
0.000464475
0.000471644
0.000457962
0.000461911
0.000459983
0.000483163
0.0080296
0.000480286
0.000463664
0.000474081
0.000451704
0.000488951
0.000456507
0.000466517
0.000464522
0.00520197
0.00045832
0.000461632
0.000473634
0.000873432
0.00120597
0.000462341
0.000462373
0.00686076
0.000501918
0.000453326
0.00872952
0.000458898
0.000454276
0.0062237
0.000459655
0.00822599
0.00115336
0.000465518
0.00418505
0.000464906
0.000922808
0.000455624
0.000508252
0.000453874
0.00047493
0.000553247
0.00046675
0.00580788
0.00668817
0.000717982
0.000460768
0.000495928
0.000459246
0.000868198
0.000453512
0.00045571
0.000459156
0.00893649
0.000463908
0.00045656
0.000460174
0.000459348
0.00103539
0.000461828
0.000639432
0.00049971
0.000459043
0.000456684
0.00571204
0.00449762
0.000454541
0.000969626
0.000460255
0.000454119
0.00267473
0.000451552
0.00735981
0.00153402
0.000463036
0.00045193
0.000453952
0.000470781
0.00603482
0.00689374
0.000548296
0.00529061
0.000468666
0.000462786
0.00120937
0.000536161
0.000463755
0.000572528
0.000475332
0.000606122
0.00802505
0.000653137
0.000462453
0.000458811
0.000458029
0.000537872
0.000545476
0.00581171
0.00126681
0.000730789
0.000458921
0.000453877
0.00704789
0.000457739
0.006545
0.00217213
0.00224383
0.000909962
0.000677838
0.000455291
0.000462066
0.00108416
0.000458184
0.000462182
0.00135651
0.00107165
0.00046738
0.00659425
0.000606425
0.000452879
0.000462534
0.000559849
0.00586577
0.000454006
0.000453194
0.00247002
0.00871679
0.000456552
0.00758944
0.00240523
0.00636224
0.00344482
0.000460556
0.000464315
0.00915181
0.000527353
0.000458913
0.000558164
0.00362704
0.000463935
0.000458302
0.000456174
0.000459253
0.000455086
0.0035992
0.000456065
0.00779998
0.000465693
0.00179134
0.000470696
0.00307514
0.000458822
0.00046089
0.00045532
0.000561709
0.00808776
0.00342522
0.000456535
0.00644977
0.000454437
0.000573738
0.000453023
0.000464168
0.00413696
0.000911842
0.00901325
0.00811024
0.000453451
0.000545415
0.000463571
0.000462376
0.00770426
0.00046689
0.000459728
0.000459588
0.000463625
0.00046564
0.000475922
0.000458045
0.00902666
0.00775286
0.000452106
0.000458502
0.00122472
0.00718376
0.00612241
0.000466927
0.000459063
0.00823685
0.00307622
0.00047602
0.000508946
0.000458544
0.00225714
0.000457469
0.0014736
0.000457058
0.000478922
0.000463175
0.000457527
0.000543284
0.00046721
0.000474797
0.00774873
0.000465118
0.00818809
0.000465422
0.000725208
0.00609625
0.000457455
0.000462276
0.000455327
0.000625266
0.000458086
0.000454233
0.000457341
0.00736838
0.00793788
0.000554964
0.000463951
0.000454102
0.000464264
0.000705376
0.000451258
0.000462018
0.00046855
0.000453411
0.000465583
0.000464785
0.00870903
0.000481602
0.00509853
0.000567485
0.000454055
0.000733938
0.000455008
0.00809016
0.000847907
0.000457598
0.0059627
0.000484799
0.000453126
0.000457132
0.000456631
0.000455506
0.000463286
0.000459708
0.000743911
0.000460889
0.000451086
0.000462856
0.000658421
0.00046212
0.00133406
0.000460268
0.000505283
0.000912858
0.000553389
0.000487182
0.000462547
0.00227505
0.000460928
0.000785767
0.000539477
0.000543637
0.000461479
0.000858897
0.000463446
0.000468498
0.000456662
0.000548945
0.00331411
0.00724907
0.000477942
0.00875802
0.000455067
0.000463539
0.000458561
0.000495317
0.00145088
0.000516408
0.000526804
0.00804192
0.00487456
0.000510238
0.000465116
0.00045795
0.000461151
0.00045555
0.000734854
0.00045862
0.000466989
0.000583375
0.000477147
0.00809185
0.00123466
0.000466582
0.00722296
0.000460566
0.00113374
0.00888074
0.000551464
0.000462139
0.00336326
0.0004532
0.00045997
0.00355592
0.00387189
0.000456097
0.000457672
0.000480681
0.000460793
0.00180594
0.000457717
0.000540253
0.00698565
0.000463991
0.000454732
0.00775294
0.000516488
0.00526256
0.000453452
0.000453597
0.00124743
0.000459842
0.000463441
0.000453989
0.000454481
0.000641163
0.00203272
0.000458439
0.000457679
0.000703782
0.00802379
0.00895559
0.000489126
0.00562871
0.00102678
0.00782403
0.00406623
0.00802423
0.000456048
0.000453502
0.000798373
0.000464162
0.000506585
0.000546231
0.000451915
0.00579062
0.000569678
0.000456123
0.000458344
0.00358235
0.00681145
0.00732111
0.000459307
0.00775876
0.000464768
0.000540652
0.000469361
0.00467871
0.000947207
0.000454572
0.000460175
0.000462966
0.00769817
0.000470715
0.00503648
0.00378463
0.000800704
0.000461223
0.000453279
0.000454818
0.00045923
0.000464231
0.00047881
0.000451111
0.000472149
0.00045851
0.000457027
0.00101145
0.000463303
0.000456167
0.00558859
0.000456637
0.000544704
0.000453795
0.00836035
0.000930031
0.000495393
0.000510704
0.000452279
0.000539036
0.000455805
0.00251828
0.000458079
0.00268692
0.000459269
0.000471577
0.000459237
0.000466354
0.000457719
0.00559561
0.000852898
0.000461956
0.00104847
0.00404357
0.00121215
0.000455301
0.00953954
0.000457233
0.00841982
0.00463842
0.000466156
0.000458879
0.00920536
0.000469053
0.0083032
0.000461667
0.00735318
0.000457961
0.000464311
0.000750577
0.000452266
0.00394771
0.000470761
0.000452275
0.00628603
0.000644479
0.000469465
0.000458324
0.000456385
0.00298186
0.000739186
0.000634321
0.00875467
0.000465562
0.00584293
0.000460106
0.000455499
0.000460706
0.00392977
0.00664413
0.000461109
0.000618043
0.000456893
0.000471074
0.000458306
0.000453257
0.000461593
0.00895449
0.000473057
0.000457034
0.00109281
0.000452706
0.000893921
0.000739685
0.00798855
0.000801816
0.000458158
0.000555765
0.000844366
0.000483042
0.000451515
0.000453748
0.000452884
0.000479796
0.000469354
0.000481148
0.000522916
0.000461832
0.000459473
0.000454328
0.000454909
0.000588007
0.000462258
0.000452619
0.000456723
0.000459402
0.000548105
0.000787244
0.00718132
0.000462508
0.00542955
0.00522879
0.0083767
0.00665631
0.00474089
0.000557499
0.000742651
0.00840268
0.00046165
0.000573501
0.000456451
0.00497738
0.00066084
0.000461839
0.000456126
0.00370183
0.000451697
0.00113355
0.00646588
0.00140395
0.00832321
0.00548829
0.000452681
0.000501383
0.000502175
0.000455206
0.000460893
0.000462646
0.000468705
0.000461388
0.000705973
0.000456401
0.000462559
0.000479207
0.000454113
0.000623041
0.00045823
0.000467616
0.00536804
0.000477774
0.000470184
0.000464011
0.00836384
0.000462455
0.000456936
0.000451823
0.000463065
0.000466218
0.000456588
0.000816214
0.00045504
0.000474057
0.000454132
0.000453952
0.00053357
0.000705895
0.000460742
0.000467731
0.0035391
0.00103742
0.000464539
0.000467314
0.000459723
0.00727093
0.00323707
0.000458029
0.00045967
0.000953114
0.00185323
0.000467097
0.0011896
0.000583299
0.000687231
0.000455584
0.000468079
0.00758076
0.000453135
0.000457688
0.00204794
0.000586304
0.00785731
0.00912213
0.00220975
0.00776176
0.00494181
0.000456168
0.0095017
0.000459019
0.000461002
0.000460367
0.000455803
0.00928242
0.000464274
0.000510776
0.00199004
0.0044572
0.00397494
0.00101095
0.000461511
0.000453533
0.00707873
0.000452933
0.0023661
0.000463067
0.000456894
0.000457051
0.000456043
0.00046123
0.000461892
0.000453415
0.000456102
0.00045685
0.00916765
0.000453017
0.000469451
0.000990731
0.000480572
0.000461119
0.000455686
0.000810117
0.00762095
0.000457955
0.000456199
0.000549802
0.00104696
0.000974485
0.00893791
0.000599816
0.000454783
0.000464033
0.00047977
0.00046725
0.00727522
0.000485162
0.000457346
0.000466241
0.000459
0.00050515