/*--------------------------------*- C++ -*----------------------------------*\
| =========                 |                                                 |
| \\      /  F ield         | OpenFOAM: The Open Source CFD Toolbox           |
|  \\    /   O peration     | Version:  v2012                                 |
|   \\  /    A nd           | Website:  www.openfoam.com                      |
|    \\/     M anipulation  |                                                 |
\*---------------------------------------------------------------------------*/
FoamFile
{
    version     2.0;
    format      ascii;
    class       volVectorField;
    location    "400";
    object      U;
}
// * * * * * * * * * * * * * * * * * * * * * * * * * * * * * * * * * * * * * //

dimensions      [0 1 -1 0 0 0 0];


internalField   nonuniform List<vector> 
18618
(
(1.0002 0.0282992 -1.2836e-22)
(1.0946 0.0725654 0)
(1.03055 0.0230065 -2.26967e-21)
(0.982199 0.00447235 6.08597e-21)
(1.00412 0.024512 5.86266e-21)
(0.956815 -0.00196892 -6.90088e-21)
(1.14681 0.102126 -3.4034e-20)
(0.551126 0.047215 0)
(1.09243 0.0664528 0)
(1.10331 0.0449078 -1.57456e-20)
(1.00469 0.0242601 0)
(0.995923 0.0265898 -2.93614e-21)
(1.01495 0.000625609 -9.69946e-22)
(0.99771 0.0288755 -1.12034e-20)
(1.00678 0.0135112 -1.85131e-21)
(0.955151 -0.00286048 9.9215e-22)
(1.03376 0.0218907 -4.15671e-22)
(0.99973 0.0276747 7.74978e-21)
(1.02749 0.00853349 0)
(1.05744 0.0635731 1.11777e-20)
(1.00715 0.0134303 0)
(0.685079 0.0163606 4.6485e-20)
(1.02155 0.00605513 0)
(0.996403 0.0260321 6.59019e-21)
(1.20093 0.2056 0)
(1.09275 0.0668219 -1.04482e-20)
(1.07819 0.116409 0)
(1.11091 0.533848 -4.5985e-20)
(0.94499 0.230934 8.12033e-21)
(1.02998 0.0229073 2.10329e-21)
(0.994577 0.0460277 8.23481e-21)
(1.01619 0.037225 -1.82555e-21)
(1.08924 0.0264779 -6.52461e-21)
(1.00931 0.0090831 -1.58198e-21)
(0.92181 0.0331589 -1.9598e-20)
(0.907745 0.0412258 0)
(1.02188 0.0201626 -2.70003e-22)
(1.11873 0.0540557 2.36842e-20)
(0.573944 0.045698 1.31298e-21)
(1.02128 0.00614005 -1.62485e-22)
(0.321714 0.0191822 3.23881e-20)
(0.714719 0.0207866 -1.18417e-21)
(0.706678 0.0506007 -1.7787e-20)
(0.668008 0.0685984 8.37755e-21)
(1.06134 0.06027 -5.20146e-21)
(0.896802 0.0522777 1.57271e-20)
(0.622875 0.045846 0)
(0.985559 0.109431 -1.27234e-20)
(1.08452 0.088839 3.30663e-21)
(0.889571 0.0511888 3.19098e-20)
(1.07609 0.117495 9.53519e-21)
(1.0272 0.0374382 0)
(1.04013 0.15495 6.90314e-21)
(0.937627 0.204911 0)
(1.03071 0.0604814 -2.80476e-21)
(1.11756 0.0533103 0)
(1.00166 0.165902 0)
(1.09581 0.0487498 5.59673e-21)
(0.317618 0.0168212 -3.15302e-20)
(1.01069 0.0504478 0)
(0.479691 0.0367558 -2.37325e-20)
(1.06054 0.0665915 -2.1041e-20)
(1.08379 0.0896864 2.60526e-21)
(1.00633 0.00192744 0)
(1.11898 0.0938337 0)
(1.0926 0.0884467 -6.31852e-21)
(1.02267 0.0515441 0)
(1.06392 0.0572561 5.39451e-21)
(1.01448 0.0010711 -1.92928e-21)
(0.330256 0.0163314 2.36031e-20)
(1.09066 0.0610771 6.01413e-21)
(1.02703 0.00856386 -2.02489e-22)
(0.998937 0.00074075 -6.89063e-21)
(1.0891 0.0672393 0)
(0.348017 0.0290051 0)
(0.887241 0.0388046 0)
(0.997661 -0.000734372 0)
(0.994913 0.0172342 -8.2117e-21)
(1.01591 0.00793431 3.06637e-21)
(1.09372 0.0892023 3.86e-21)
(1.05381 0.0458168 3.42628e-21)
(1.00945 0.00883387 3.23126e-21)
(0.977568 -0.00339205 7.74656e-21)
(0.982206 0.0573205 9.10404e-21)
(0.648115 0.013839 -4.56737e-20)
(1.02223 0.02187 0)
(1.11231 0.0883811 -6.28838e-21)
(0.346276 0.0167643 -1.88464e-20)
(1.0629 0.0663227 1.98984e-20)
(-0.0106561 0.0783379 -2.30422e-20)
(1.01563 0.0178689 0)
(0.497811 0.0367721 2.06319e-20)
(1.10441 0.0638662 0)
(1.01981 0.00797227 -5.04784e-22)
(0.52308 0.0384542 -2.06352e-20)
(1.06228 0.0675596 0)
(0.993989 0.0438326 0)
(1.09478 0.0636811 -1.65961e-20)
(1.00792 0.000743269 0)
(0.66231 0.0476165 0)
(0.906322 0.051432 -2.84533e-20)
(9.71729e-05 0.0471072 0)
(1.016 0.0362143 0)
(1.10264 0.063237 9.40058e-21)
(0.953628 0.231107 4.59976e-21)
(1.08768 0.0698038 1.21233e-20)
(1.19541 0.205979 2.73817e-20)
(1.00998 0.00145038 1.17788e-24)
(1.06547 0.067852 -2.01038e-20)
(1.10303 0.0778567 1.83596e-20)
(0.385709 0.0212067 1.15727e-20)
(1.06523 0.0259611 0)
(0.640806 0.0456179 0)
(0.47121 0.0433601 -1.07387e-20)
(0.992034 0.0106248 3.85299e-21)
(1.02098 0.00658534 -5.47527e-23)
(1.15568 0.107101 2.31221e-20)
(0.981648 0.00511068 0)
(1.04175 0.159098 2.96026e-21)
(0.366723 0.0311778 0)
(0.935876 0.000944933 -2.31211e-20)
(1.03099 0.0432098 -9.11534e-22)
(1.05684 0.0456224 4.70503e-21)
(0.966403 0.00610799 0)
(1.08375 0.0715647 -1.68055e-20)
(1.08942 0.0787854 3.28197e-21)
(1.04154 0.0673065 0)
(1.11775 0.0950817 0)
(1.13103 0.118742 -1.14703e-22)
(1.09929 0.0484531 -2.53483e-20)
(0.677418 0.0539187 0)
(1.04468 0.0569851 8.64817e-21)
(1.04768 0.0625025 -2.96459e-21)
(1.00194 0.160202 1.77582e-21)
(1.0112 0.0130715 1.52729e-21)
(1.07683 0.0519122 1.05779e-20)
(1.00154 0.00851999 2.8503e-21)
(0.402031 0.0215169 -5.36871e-21)
(0.815038 0.054045 1.44908e-21)
(0.999066 0.0222855 0)
(0.515876 0.041912 -4.73758e-21)
(1.10669 0.078788 1.51293e-20)
(1.01556 0.00758183 -1.6046e-21)
(1.00847 0.00129463 -5.10744e-23)
(1.06421 0.0260334 3.87936e-21)
(0.992328 0.010333 -7.57767e-21)
(1.01815 0.00222198 2.00137e-22)
(0.978285 -0.00386837 -2.46575e-22)
(1.00771 0.000960659 -2.48002e-21)
(0.984089 0.0312345 -8.64961e-21)
(1.08655 0.0673506 -3.67361e-23)
(1.00341 0.0255732 1.5579e-21)
(1.09026 0.0225174 -6.28633e-21)
(0.963794 0.0226003 0)
(1.05578 0.0452857 -1.41477e-21)
(0.540831 0.0410576 -4.62188e-21)
(0.859315 0.0490835 0)
(1.05643 0.094068 -3.99793e-21)
(1.02785 0.0346245 0)
(1.02736 0.567829 -3.74545e-20)
(1.08335 0.070898 2.15748e-20)
(0.990953 0.107909 -2.41628e-21)
(0.869819 0.0457336 2.29621e-20)
(1.08379 0.0669659 -1.18138e-20)
(0.990081 0.00406573 0)
(0.972756 0.0915783 -3.4039e-21)
(0.980953 0.0558407 -1.89532e-21)
(0.614364 0.0180313 -1.86758e-20)
(0.988718 0.0162088 0)
(1.09532 0.0636493 2.04603e-20)
(0.999987 5.9835e-05 -1.37784e-20)
(1.08845 0.0255168 -1.29813e-20)
(1.09199 0.0860879 -2.42777e-20)
(1.12967 0.170309 3.17687e-20)
(0.68696 0.0513731 -2.80188e-21)
(0.981463 -0.00324368 1.56086e-21)
(1.03356 0.410531 -1.54707e-20)
(0.963297 0.024343 7.33906e-21)
(1.00391 0.000586286 -1.52873e-21)
(1.06293 0.0639556 7.27815e-21)
(1.09342 0.0686395 2.67879e-20)
(0.923481 0.030447 0)
(1.12018 0.52424 0)
(0.999023 0.00118579 -6.70819e-21)
(1.00269 0.000473097 -4.07946e-21)
(0.959864 0.123365 6.0989e-21)
(1.09229 0.0685778 -1.10402e-20)
(0.836583 0.367587 0)
(1.10983 0.0896703 6.1702e-21)
(0.99846 0.0286805 4.793e-21)
(1.00152 0.00937309 6.04897e-21)
(0.920902 0.0894289 -2.75684e-20)
(0.971179 0.0899104 2.9818e-21)
(1.03374 0.022468 6.32698e-22)
(1.01571 0.00725143 0)
(1.10932 0.0580527 1.5023e-20)
(0.998932 0.0218133 3.32315e-21)
(0.993696 0.0452044 5.31115e-22)
(0.610727 0.0498067 0)
(1.06262 0.0606156 1.03069e-20)
(1.08967 0.0779205 4.10868e-22)
(0.772915 0.0351652 0)
(1.08283 0.0662036 0)
(0.584583 0.0500382 0)
(1.01518 0.412453 -8.67774e-21)
(0.971731 0.0587687 1.36306e-21)
(0.54506 0.0415437 1.86965e-20)
(-0.0001074 0.045492 2.87822e-20)
(1.00122 0.00031338 -6.9627e-21)
(1.02176 0.00788883 -4.84743e-24)
(1.11745 0.102541 0)
(1.1139 0.1033 1.12307e-20)
(1.01752 0.0601156 1.54595e-21)
(1.01792 0.00208577 0)
(1.00088 0.0360026 9.43358e-21)
(0.999772 -0.000850076 -2.53358e-21)
(0.88067 0.0499409 0)
(1.19695 0.19001 8.16552e-21)
(0.938239 0.00590149 1.45607e-21)
(1.03595 0.0334085 -2.16382e-21)
(0.985206 0.0313732 0)
(1.05496 0.046096 1.70545e-21)
(0.624595 0.0403916 0)
(0.999531 -0.00112767 0)
(0.355876 0.0191754 -2.4628e-20)
(0.989609 0.00435352 -7.88726e-23)
(1.0303 0.0425904 0)
(1.09597 0.0966361 0)
(1.12641 0.120302 1.98295e-20)
(1.06507 0.0574088 -4.15814e-22)
(0.978796 0.0613048 -1.50767e-20)
(1.06544 0.0608657 -3.41714e-21)
(1.01034 0.00114601 -2.0569e-21)
(0.525453 0.0410487 -2.35958e-20)
(1.06258 0.0647843 0)
(1.00177 0.00212959 4.44965e-21)
(0.998373 0.000600945 -7.06858e-21)
(1.09641 0.0620291 -1.71844e-20)
(1.07691 0.0654581 2.09447e-20)
(1.05132 0.0257518 -7.4179e-21)
(1.09382 0.0729598 -1.02918e-20)
(1.02736 0.0365188 0)
(0.999731 0.0073789 -2.811e-21)
(0.643932 0.0477541 -1.15499e-22)
(1.09668 0.048181 0)
(1.09939 0.0258546 -2.17003e-21)
(1.11148 0.0576818 -7.06088e-21)
(1.00183 0.00204705 0)
(0.391294 0.0216685 0)
(0.980231 0.00419856 -8.78551e-22)
(1.01948 0.00770204 -1.16116e-21)
(0.711392 0.0204562 0)
(0.988609 0.11041 -5.58419e-21)
(1.06046 0.056566 2.47867e-20)
(1.07971 0.0538032 6.6146e-21)
(1.04182 0.0686797 0)
(1.09413 0.0642565 0)
(0.999601 0.00793359 5.28281e-23)
(1.02113 0.00448497 -5.02642e-23)
(1.03608 0.0343368 -2.68087e-21)
(0.992148 0.0114653 1.42041e-22)
(0.892239 0.0509373 0)
(1.19826 0.197507 -8.06813e-21)
(0.927224 0.0250382 -1.85554e-20)
(0.698744 0.0187679 0)
(1.11602 0.0563598 0)
(1.09311 0.0653961 0)
(0.982804 0.111471 3.38208e-21)
(1.09054 0.0822243 1.47522e-20)
(0.906479 0.0677768 -1.64985e-20)
(1.09536 0.0982459 1.47979e-20)
(1.00137 0.0081721 3.92798e-21)
(1.02733 0.050371 0)
(0.992571 0.0116527 8.30743e-21)
(0.999975 0.000123229 6.02184e-21)
(0.932454 0.06623 1.52884e-20)
(1.07065 0.064694 -1.02879e-20)
(0.986894 0.0382877 -4.46254e-21)
(1.03845 0.0277694 1.50094e-21)
(0.623721 0.0414355 1.71053e-20)
(1.0043 0.00685774 0)
(1.0934 0.052948 1.09448e-20)
(0.98713 0.0103992 0)
(1.00271 0.050902 0)
(0.606497 0.0461112 0)
(0.980473 0.00367213 2.0877e-22)
(1.01868 0.0207853 -1.28759e-21)
(0.933185 0.174965 -1.11146e-20)
(1.08361 0.0695578 5.272e-21)
(1.09125 0.062731 3.01011e-20)
(1.03223 0.0143551 -1.10557e-21)
(1.08616 0.0608248 1.23544e-21)
(0.984157 0.0058077 1.6442e-20)
(1.09149 0.0223438 0)
(0.870542 0.0945488 2.59563e-20)
(1.13369 0.174598 -3.14279e-20)
(0.549784 0.0378175 0)
(0.911077 0.0512188 0)
(0.85871 0.0472921 -2.91709e-20)
(1.01692 0.0338306 3.14404e-21)
(0.963597 0.123654 -6.44358e-21)
(1.00659 0.00208722 1.26507e-21)
(1.06662 0.0883817 -1.09702e-20)
(0.970975 0.057166 -1.17596e-21)
(1.00208 0.00660599 0)
(1.00132 0.000248636 6.27921e-21)
(0.991715 0.0213146 6.47342e-21)
(0.7086 0.0526052 0)
(1.09312 0.0868718 2.93915e-20)
(0.888145 0.050278 0)
(1.09941 0.0680924 1.43063e-23)
(1.02142 0.00466955 -1.22807e-23)
(0.841706 0.390452 -1.01587e-20)
(0.999617 -0.00100066 0)
(0.998741 0.000331983 -4.58354e-22)
(0.99832 0.0214945 -1.75836e-21)
(1.00361 0.049979 2.65175e-21)
(1.08307 0.0276275 -8.94263e-23)
(1.09384 0.0465357 1.02353e-20)
(1.12545 0.0810401 -8.80945e-21)
(1.01809 0.00172633 -1.24648e-21)
(1.09847 0.0692196 -4.4815e-23)
(0.999907 0.00469988 0)
(0.749344 0.0339246 1.81292e-21)
(0.999301 0.000679603 6.62716e-21)
(1.11563 0.0570412 3.64048e-20)
(1.09923 0.0698123 9.86306e-21)
(0.99768 0.0215708 9.52086e-21)
(1.04817 0.0181682 8.46559e-22)
(1.08062 0.245906 3.59497e-20)
(1.03879 0.118501 0)
(0.787741 0.0828546 -1.50967e-20)
(0.992033 0.0220423 -8.6609e-23)
(0.998577 0.000369439 4.58658e-22)
(1.07733 0.0526057 -6.07585e-21)
(1.00146 0.00875272 -1.12842e-20)
(1.012 0.0492173 3.18767e-20)
(1.01614 0.0604836 -9.73552e-22)
(1.05046 0.0257868 7.61497e-21)
(0.937782 0.0534328 -2.1239e-20)
(1.08679 0.0593268 -2.97761e-22)
(1.08356 0.0923797 -6.12097e-21)
(0.748919 0.0381335 2.32288e-20)
(1.0984 0.13118 0)
(1.00195 0.00638009 0)
(1.08319 0.0744752 -4.81553e-21)
(1.01985 0.0729405 -1.08473e-21)
(1.09125 0.084075 -7.55567e-21)
(1.08681 0.0606113 0)
(1.0213 0.00654028 1.33979e-22)
(0.993349 0.0034921 7.35877e-21)
(1.0338 0.0124261 -5.17885e-23)
(0.94051 0.0521372 0)
(1.00064 0.00382218 -4.0417e-21)
(0.99273 0.0126491 -7.61233e-21)
(1.00283 0.000374764 0)
(0.999992 0.00453291 -6.92289e-22)
(1.08707 0.0599532 1.07755e-20)
(0.964977 0.00585648 -9.39056e-21)
(1.0275 0.0492515 2.13367e-22)
(1.01077 0.0072501 5.1873e-21)
(0.606047 0.0450408 -1.12003e-20)
(0.686559 0.0206323 -4.88804e-21)
(1.09754 0.0463917 0)
(0.65808 0.051912 -2.65344e-20)
(0.654914 0.0154368 -1.87132e-22)
(0.999508 0.00729219 4.0187e-21)
(0.998898 0.000940721 4.35445e-21)
(1.1023 0.0442578 -2.34616e-20)
(1.09646 0.0625453 2.21916e-20)
(1.0158 0.0173404 -1.88875e-21)
(0.984658 0.00522021 -1.05309e-20)
(0.909583 0.00642781 9.77282e-21)
(1.06042 0.0648404 1.67655e-20)
(1.01797 0.0015779 1.27879e-21)
(0.995201 0.0175886 9.47189e-21)
(1.09605 0.101746 0)
(0.937535 0.00724214 1.21999e-22)
(1.00423 0.00656811 0)
(1.10721 0.0163908 -1.33434e-22)
(1.0962 0.133225 0)
(0.999973 0.000195466 0)
(1.01808 0.0206498 6.93108e-22)
(1.0474 0.0182722 5.59187e-21)
(0.929208 0.205841 0)
(1.01477 0.00900923 0)
(1.07977 0.103569 0)
(0.97486 0.20464 8.41494e-22)
(0.99979 0.00770668 2.84683e-21)
(1.0933 0.0537496 0)
(0.961607 0.0249033 -1.76546e-20)
(0.998779 0.00600039 8.906e-21)
(1.0873 0.0673452 1.23134e-20)
(0.375068 0.022894 1.57969e-20)
(0.993297 0.00306778 -1.61064e-20)
(0.834437 0.281064 2.73333e-20)
(0.488419 0.0361763 -1.01597e-20)
(0.952126 0.0532288 0)
(1.00207 0.00203432 0)
(0.729197 0.0518954 1.12661e-20)
(0.984357 0.00444605 -2.79229e-21)
(1.08712 0.029175 -1.0733e-20)
(1.07221 0.0373986 0)
(0.82296 0.0454688 0)
(1.01409 0.00873085 0)
(1.08525 0.067089 2.57194e-20)
(1.00146 0.00792017 -3.28845e-21)
(0.981519 0.059077 6.28448e-21)
(1.08305 0.0286372 1.25768e-20)
(0.992008 0.00969889 8.50683e-21)
(1.03214 0.0343118 -3.77931e-22)
(0.999988 9.58369e-05 0)
(1.01376 0.00880035 0)
(1.03351 0.0120421 0)
(0.981751 0.0542185 1.90949e-21)
(1.09242 0.0515243 0)
(1.02056 0.0043864 -1.90409e-22)
(1.05427 0.0246064 1.06412e-20)
(1.05796 0.0926667 -4.53773e-21)
(1.06156 0.0651445 -8.068e-21)
(1.02137 0.00777 0)
(0.514244 0.0397829 0)
(1.07065 0.0384329 -1.37613e-20)
(1.0611 0.0590256 5.57765e-21)
(1.01483 0.00866627 -1.05143e-21)
(0.853056 0.0822332 -5.05999e-20)
(1.09249 0.0524651 -1.0552e-20)
(1.06382 0.0271754 -4.1804e-21)
(1.12553 0.044666 0)
(0.893345 0.051265 0)
(0.99895 0.0059039 -7.4465e-21)
(0.99967 0.00826636 0)
(0.901054 0.0538817 3.23715e-20)
(1.00579 0.00156915 0)
(1.02013 0.0176742 3.29696e-22)
(0.905682 0.0706737 2.17048e-20)
(0.997891 -0.000717572 -6.70095e-21)
(0.978731 0.00291354 1.37093e-20)
(1.10339 0.0800136 -3.14189e-20)
(1.08897 0.070746 6.90499e-21)
(0.940529 0.0632908 -9.87412e-21)
(1.12223 0.0460073 -7.76837e-21)
(0.980677 -0.00312923 -2.14534e-21)
(1.04263 0.0976116 5.58598e-22)
(0.627008 0.0444031 9.91519e-21)
(1.084 0.0702126 0)
(0.96312 0.0692842 -1.61061e-20)
(0.723388 0.0549946 0)
(1.08893 0.0689145 1.70957e-20)
(1.00202 0.00403673 0)
(0.967764 0.0907811 7.88833e-21)
(0.999807 -0.000727812 5.15342e-21)
(1.10788 0.0200925 -1.15857e-20)
(0.988049 0.120631 1.21477e-21)
(1.00236 0.0056319 5.03465e-21)
(1.10757 0.0886974 1.17248e-20)
(0.992253 0.00933803 -1.00242e-22)
(1.02854 0.0353047 0)
(1.00583 0.0496392 -1.48778e-21)
(0.595408 0.0141898 0)
(0.83952 0.0473944 -3.7107e-21)
(1.06349 0.0358297 -1.1047e-20)
(0.762735 0.180011 -3.7037e-20)
(1.00223 0.00441482 4.81999e-21)
(1.09927 0.125318 0)
(0.995319 0.0432179 -5.84369e-21)
(1.00255 0.00559485 0)
(0.999995 8.30046e-05 -4.4153e-21)
(1.10173 0.0786225 2.07818e-20)
(1.01533 0.0104951 -1.17001e-21)
(1.0634 0.0364593 8.7477e-21)
(1.05669 0.095852 3.61933e-21)
(1.06281 0.0271625 0)
(1.06174 0.0638714 3.57116e-21)
(1.06741 0.0414142 0)
(1.01983 0.0778234 7.65756e-22)
(0.527733 0.0394265 9.02806e-21)
(1.07313 0.0337518 1.47084e-20)
(1.0988 0.0682681 -1.71507e-20)
(1.03606 0.117186 -1.99928e-21)
(0.844477 0.271614 -2.57843e-20)
(0.940287 0.00125315 2.13103e-20)
(0.957033 0.0541527 7.42104e-21)
(1.05415 0.015076 -5.08488e-21)
(0.941266 0.337827 4.89573e-21)
(0.979603 0.00282158 0)
(1.09712 0.126995 -4.02173e-21)
(1.04707 0.0491972 9.58781e-21)
(1.00628 0.167035 0)
(1.06677 0.0587095 6.67807e-21)
(1.09404 0.066462 -4.57298e-21)
(0.793603 0.0720022 5.45831e-20)
(1.00199 0.0357055 -4.47883e-21)
(0.998787 0.000165446 0)
(0.79625 0.0520039 0)
(0.993605 0.0575679 2.94866e-21)
(1.0926 0.067014 3.69718e-23)
(0.826875 0.033019 -2.66398e-20)
(0.942183 6.59696e-05 -2.91701e-20)
(0.999328 0.000546668 -6.74414e-21)
(0.999993 2.7856e-05 -1.0024e-20)
(1.01082 0.014816 -2.56584e-21)
(1.02441 0.0504449 -3.23617e-20)
(1.00219 0.00419505 0)
(1.07338 0.0374581 3.45089e-21)
(1.09228 0.0847936 1.55628e-20)
(0.974729 0.0604912 0)
(0.960554 0.0698968 1.79979e-20)
(1.0944 0.0678252 4.89046e-21)
(0.992097 0.316656 -4.994e-21)
(0.874943 0.0380693 0)
(1.01158 0.00798727 -2.10148e-21)
(1.07366 0.0332047 -2.13605e-20)
(1.07316 0.0356111 3.84084e-21)
(1.08361 0.0738221 -9.75547e-21)
(0.999909 0.00316389 6.19426e-21)
(1.05051 0.0154143 -4.82849e-22)
(0.998943 0.000145858 0)
(1.0531 0.153949 9.33115e-22)
(0.653812 0.0522183 0)
(1.03242 0.033432 0)
(0.999975 0.00318035 0)
(1.1115 0.055661 -1.17776e-20)
(1.08312 0.0778172 -2.10008e-20)
(1.03464 0.0234828 1.9338e-21)
(1.00201 0.00214421 -4.63203e-21)
(0.69293 0.0545875 -1.47358e-20)
(0.995156 0.000625783 0)
(0.521331 0.0436437 6.30924e-21)
(1.00058 0.00197224 0)
(1.0787 0.0621923 -3.05913e-21)
(0.834252 0.0426009 0)
(0.974134 0.0591334 0)
(0.965941 0.0888115 -2.22615e-20)
(1.09274 0.0550544 0)
(0.99995 0.00102867 -4.36155e-21)
(0.462303 0.0366437 0)
(1 7.54503e-06 1.06389e-20)
(1.0111 0.00888778 3.07972e-21)
(1.01635 0.0345427 -1.6466e-21)
(1.08638 0.0511798 1.49055e-20)
(0.92398 0.0244975 2.82791e-20)
(1.10849 0.0172127 -6.23165e-21)
(0.938505 0.170396 9.3369e-21)
(0.997696 0.00627401 2.03674e-21)
(1 0.00350395 -2.97572e-21)
(1.09866 0.0686051 0)
(1.08704 0.0702652 -2.07706e-20)
(1.02249 0.00791809 -6.11513e-23)
(0.987312 0.0097965 0)
(1.00107 0.00895046 0)
(1.09237 0.0610508 -1.35636e-20)
(0.978827 0.308063 0)
(1.02236 0.0211442 0)
(1.1233 0.117924 -4.8792e-20)
(1.01708 0.0138273 -1.29752e-21)
(0.439159 0.0373128 2.15246e-20)
(1.00208 0.00446029 -4.25853e-21)
(1.07798 0.168111 -6.57463e-21)
(1.0923 0.0554884 -1.40605e-20)
(0.829538 0.062781 1.17543e-20)
(1.04992 0.0267685 6.82839e-21)
(0.73534 0.0524851 0)
(0.958253 0.0674118 5.4499e-22)
(0.998083 0.0147993 -1.61917e-21)
(1.1107 0.0395837 -1.21739e-20)
(1.06355 0.0636156 1.01203e-20)
(1.00139 0.023316 0)
(1.0915 0.0829491 -1.51739e-20)
(0.992852 0.022276 -4.51506e-21)
(1.00206 0.000673094 0)
(0.650104 0.0434098 0)
(0.996713 -0.000774528 -1.22551e-20)
(0.784853 0.0371928 1.47011e-20)
(0.879271 0.0382364 3.13364e-20)
(0.679069 0.0516896 0)
(1.11666 0.078421 3.42732e-20)
(1.07396 0.122191 -4.24884e-21)
(1.09066 0.0673969 1.28929e-20)
(1.02273 0.0168944 0)
(1.04596 0.0949589 2.3432e-21)
(0.939823 0.0600903 -1.99498e-20)
(1.06987 0.0653335 0)
(1.00001 0.00330155 3.44221e-21)
(0.993522 -0.00288337 6.51071e-21)
(1.02269 0.016397 0)
(1.00038 0.00367065 3.22751e-21)
(1.01531 0.00865888 0)
(-0.00786107 0.072938 2.21874e-20)
(0.76872 0.220424 -4.41792e-20)
(1.00379 0.00552414 0)
(1.01094 0.00758463 -3.99842e-21)
(1.00066 0.0369471 -4.30994e-21)
(1.02243 0.0200119 -1.8259e-22)
(1.00492 0.0505215 -9.59771e-21)
(1.04743 0.0942345 6.61742e-21)
(1.13532 0.121266 0)
(0.887178 0.0507261 3.69966e-21)
(1.09707 0.119638 1.95877e-21)
(1.00803 0.0074728 -3.63123e-21)
(0.998986 0.00549915 0)
(1.11528 0.0568507 -2.1099e-20)
(0.997424 0.157567 -1.91624e-21)
(0.986657 0.0326629 -8.75421e-21)
(0.992312 0.0123249 0)
(1.03903 0.121725 4.93009e-21)
(1.0019 0.000641299 0)
(1.047 0.0176688 -7.53774e-21)
(1.00402 0.000439752 1.76959e-21)
(0.986835 0.117008 -2.7003e-21)
(1.06733 0.0302525 1.484e-20)
(0.555117 0.0431896 -9.70047e-21)
(0.719705 0.0504209 2.11949e-20)
(1.15555 0.106007 -3.51338e-20)
(-0.0119904 0.0436984 -2.95882e-20)
(1.01282 0.000752127 0)
(1.07366 0.0349796 1.28241e-20)
(0.871357 0.050089 -8.74604e-21)
(0.987613 0.0108577 0)
(0.957654 0.0655976 -1.3024e-20)
(1.04998 0.0156771 0)
(1.01537 0.00831823 8.79789e-22)
(1.07346 0.0655065 2.95274e-24)
(1.07631 0.120944 -1.02068e-20)
(0.999959 0.000892183 0)
(1.09478 0.0655453 0)
(1.02489 0.0350762 -3.20524e-23)
(0.98878 0.0113623 0)
(1.10556 0.0896507 -3.29549e-20)
(0.9954 0.000507059 0)
(0.967132 0.0714678 -1.2131e-20)
(0.996147 0.0119888 7.97639e-21)
(0.849382 0.0444394 2.57664e-20)
(1.04624 0.0177185 0)
(0.941249 0.360307 -7.31814e-21)
(1.10547 0.0800847 1.8248e-20)
(1.09844 0.0673054 0)
(1.02037 0.0585462 -4.50595e-22)
(0.847468 0.0405257 0)
(1.09837 0.0480326 0)
(1.01911 0.0383111 -1.11842e-21)
(1.00248 0.0237088 -3.38558e-21)
(0.98266 0.0471931 -4.23287e-21)
(0.860956 0.27703 0)
(1.0154 0.0100874 1.11781e-21)
(1.11486 0.0563641 0)
(0.834792 0.147137 -8.87604e-20)
(0.966412 0.00113341 0)
(1.02886 0.0479062 5.49259e-22)
(0.940556 0.0184461 7.14688e-21)
(0.705886 0.0558472 -4.52118e-20)
(0.9978 0.00597669 -2.00004e-21)
(1.0172 0.0134719 2.708e-21)
(1.04901 0.15417 -2.50205e-21)
(1.0486 0.0198963 0)
(0.996978 0.0798328 8.1777e-21)
(1.00373 0.0052521 -2.84149e-22)
(1.08731 0.0624942 -1.15378e-20)
(1.00822 0.00811874 -2.09661e-21)
(1.00189 0.00992687 -4.25444e-21)
(0.192243 0.00735896 0)
(1.09715 0.0612694 -4.33686e-21)
(1.00032 0.00369353 6.73434e-21)
(1.01037 0.00936171 -1.78876e-21)
(1.09489 0.0482026 -5.33168e-21)
(1.00109 0.0282645 -3.94679e-21)
(1.07472 0.0587249 6.09847e-21)
(1.00115 0.00242044 6.56738e-21)
(0.870137 0.267462 1.98759e-20)
(0.964801 0.0720171 1.44104e-20)
(0.697075 0.05506 -1.11747e-20)
(0.999998 -2.9118e-06 5.01597e-21)
(0.999033 0.00103601 0)
(0.986278 0.0372369 0)
(1.0083 0.00110976 2.93545e-21)
(1.10331 0.0789253 -1.76814e-20)
(0.57709 0.0120499 -2.15753e-20)
(1.09547 0.0732588 7.73353e-21)
(0.762896 0.0464334 -3.38984e-20)
(1.08974 0.0451194 2.0671e-20)
(0.330278 0.019084 2.72594e-20)
(1.07714 0.0541922 -2.56171e-20)
(1.09495 0.0511528 0)
(1.00106 0.00230748 2.21631e-21)
(0.99755 -0.000560737 4.45044e-21)
(0.827601 0.0510157 0)
(1.09932 0.0691957 -5.5568e-21)
(0.99693 -0.000717247 1.21517e-20)
(1.07176 0.0384313 1.41468e-20)
(0.997016 0.00771011 0)
(1.0944 0.0647563 -6.86508e-21)
(1.01836 0.00760047 2.05725e-21)
(1.00212 0.00985557 1.64438e-21)
(0.994725 0.0156209 0)
(1.09228 0.0690323 2.79785e-20)
(0.927186 0.405441 0)
(0.974495 -0.00447018 -2.40126e-20)
(1.00136 0.00593097 5.21109e-21)
(1.00147 0.00614691 8.06218e-22)
(0.940028 0.0524099 0)
(1.10064 0.0700968 1.12472e-20)
(1.02759 0.0747214 6.47835e-22)
(0.993786 0.10859 2.84703e-21)
(1.09201 0.0797759 0)
(1.05172 0.0156693 0)
(1.01544 0.00692427 -4.2044e-22)
(1.07671 0.0535786 1.46747e-22)
(0.675412 0.0474296 0)
(1.05786 0.05945 -1.95529e-23)
(1.00822 0.00722685 3.93997e-21)
(1.02 0.00344433 1.62167e-22)
(0.97686 -0.00363 1.09413e-20)
(1.06762 0.0404756 5.71099e-21)
(0.977375 0.0564977 1.8082e-22)
(-0.0101479 0.0797568 -6.83648e-21)
(1.09355 0.0673377 2.12125e-20)
(1.06556 0.0585903 -1.36587e-20)
(1.11741 0.0556876 -1.34418e-20)
(1.01825 0.0184003 1.62301e-22)
(1.01356 0.000289042 1.31634e-21)
(1.09042 0.0263084 1.4039e-20)
(1.02082 0.00458475 0)
(0.151298 -0.0117592 0)
(0.812044 0.0515724 2.57463e-20)
(0.654775 0.0456182 -2.63478e-21)
(1.09905 0.0370938 -4.86696e-21)
(0.942259 0.0524702 9.01672e-21)
(1.0323 0.0178311 0)
(0.996507 0.0120576 0)
(1.07541 0.0847118 -7.32587e-21)
(1.09124 0.0608497 0)
(0.657402 0.0536702 3.62118e-21)
(0.999471 0.00696905 0)
(1.04445 0.0987337 -5.08624e-21)
(0.891629 0.0485667 0)
(1.0253 0.0342275 0)
(0.955548 0.0535657 0)
(0.683935 0.055876 1.58079e-20)
(1.01805 0.00731467 9.86088e-24)
(1.00441 0.000540911 3.50632e-22)
(0.922354 0.0922554 1.84475e-20)
(0.998294 -0.00106345 1.58245e-20)
(0.935805 0.00390941 2.02147e-20)
(0.855196 0.0376623 0)
(0.85072 0.0484223 -2.02169e-20)
(0.462398 0.0299941 0)
(1.04672 0.201384 6.16406e-21)
(1.09727 0.114531 7.6964e-21)
(1.09664 0.0469797 1.02173e-20)
(0.653179 0.0511352 -7.10942e-21)
(1.01481 0.0173246 1.91571e-21)
(1.09469 0.0385323 -9.14503e-21)
(0.999135 0.00540778 0)
(1.01906 0.0581779 0)
(0.615376 0.0504577 -1.92041e-20)
(1.01999 0.00318771 2.86954e-23)
(0.990208 0.622703 4.27581e-21)
(1.00146 0.0287163 -5.0443e-21)
(1.05755 0.0452925 6.80419e-23)
(1.10547 0.073859 0)
(0.933625 0.348206 2.93015e-21)
(1.02859 0.0422796 5.49485e-22)
(1.00013 0.000160529 0)
(1.08037 0.0534337 4.00023e-21)
(0.989377 0.0158342 0)
(1.11316 0.106281 -3.08625e-20)
(0.995999 0.0467896 0)
(1.02551 0.0360237 3.93732e-23)
(1.08903 0.0454279 -2.89697e-20)
(0.152727 -0.00758692 2.94401e-20)
(1.00159 0.00234316 4.25844e-21)
(0.937238 0.0711735 2.2137e-20)
(1.03569 0.123419 -3.72411e-21)
(1.00236 0.00587074 -5.49638e-21)
(0.987263 0.00352743 -8.1588e-21)
(1.00776 0.0311897 -1.71447e-21)
(0.532248 0.0435016 1.75237e-20)
(0.853996 0.356471 8.62934e-21)
(1.00823 0.00772873 -2.18781e-21)
(1.002 0.00382229 -4.65874e-21)
(0.998091 0.078495 -3.74131e-21)
(0.223848 0.00382857 -1.93958e-20)
(1.02024 0.000952911 0)
(0.984901 0.00394931 2.74178e-21)
(0.212715 0.016106 0)
(1.01084 0.00852781 3.26299e-21)
(1.01875 0.00750932 0)
(1.09807 0.0629979 1.18161e-20)
(0.666762 0.0523115 6.13455e-21)
(1.10402 0.0645133 2.11034e-20)
(1.00251 0.00530147 4.99016e-21)
(1.015 0.00695616 3.98624e-22)
(1.10869 0.0192653 7.43257e-21)
(0.96749 0.000739219 -8.47161e-23)
(0.999864 0.00211315 0)
(0.718334 0.048526 -1.03418e-20)
(1.08735 0.0580829 0)
(1.09468 0.0642485 0)
(1.04093 0.0616851 0)
(0.978 0.0910584 0)
(0.975346 -0.00420711 2.30395e-20)
(0.998158 0.106844 1.64232e-21)
(1.01484 0.0225714 -2.78101e-21)
(1.06489 0.0597217 6.42437e-21)
(1.08747 0.0588143 -4.99288e-21)
(1.01839 0.0178411 -1.29997e-21)
(0.509075 0.0459936 5.20273e-21)
(1.06555 0.0766019 -1.03578e-20)
(1.02172 0.0568474 0)
(0.723757 0.0562258 -1.77116e-20)
(1.10508 0.0577471 6.19248e-22)
(1.01874 0.110444 -1.7797e-23)
(0.842683 0.144392 6.71271e-20)
(1.10033 0.0370156 0)
(0.994928 0.0801426 0)
(1.00163 0.00960312 -5.9547e-23)
(1.04176 0.0210775 2.11409e-21)
(1.01474 0.00661795 0)
(0.965537 0.0223478 -6.99372e-21)
(1.05118 0.0159699 0)
(1.08838 0.0160686 0)
(0.933964 0.0701065 -1.19567e-20)
(1.02269 0.0121543 -2.23331e-23)
(0.859594 0.0470571 -7.75168e-21)
(1.01527 0.130897 8.89977e-22)
(0.697165 0.0493195 -3.39051e-20)
(1.15708 0.108969 1.26314e-20)
(0.997567 0.112807 -4.41215e-21)
(0.980398 0.294389 9.76326e-22)
(0.998331 0.000787355 7.05067e-21)
(1.00148 0.00223366 -4.80245e-21)
(1.02517 0.0194555 1.16147e-23)
(1.09862 0.069263 2.64589e-20)
(0.873413 0.050205 -3.91464e-21)
(1.03503 0.0330462 2.28404e-21)
(1.0003 0.0227511 -6.86999e-21)
(0.790639 0.0417479 -2.33929e-20)
(0.991305 0.00185515 -4.22376e-21)
(1.0119 0.0136868 4.91769e-22)
(0.995511 0.041732 6.512e-21)
(1.10096 0.0705696 -3.29461e-20)
(1.03273 0.034738 0)
(0.877877 0.539956 0)
(0.965135 0.00326036 0)
(1.01688 0.0764847 0)
(0.741045 0.0499306 2.09599e-20)
(1.01584 0.00831118 -1.75669e-21)
(0.991276 0.00141655 -8.59525e-21)
(1.0226 0.00829356 6.83089e-23)
(1.00066 0.00364113 4.96212e-21)
(-0.00527431 0.062383 9.65251e-21)
(1.04088 0.06188 -5.85937e-21)
(0.512332 0.0285195 -4.74289e-21)
(0.990192 0.00366601 1.5028e-21)
(0.434104 0.0269613 1.20071e-20)
(0.687241 0.0490029 2.89479e-20)
(0.675904 0.0174323 -1.01087e-20)
(0.640678 0.0518627 1.84212e-20)
(1.01934 0.107734 0)
(0.715152 0.0550627 -1.90702e-21)
(0.985694 -0.00223788 -1.13475e-20)
(0.895533 0.0471463 -1.52347e-20)
(0.94743 0.0552661 -1.52666e-20)
(1.08323 0.0796596 0)
(1.10028 0.0673505 0)
(0.966274 0.00297347 0)
(1.00041 0.0790925 -7.27634e-21)
(0.993271 0.0793479 -7.3786e-21)
(0.957481 0.227196 1.73459e-20)
(0.99597 0.00811913 -3.20773e-21)
(1.01979 0.0238692 2.35e-21)
(0.805522 0.0425223 1.52386e-20)
(1.00806 0.00687627 0)
(1.01135 0.00763742 -2.07284e-21)
(1.04441 0.0607669 0)
(0.988157 0.0250256 4.18706e-21)
(0.854827 0.120894 -1.92339e-20)
(-0.00965431 0.0460878 3.28725e-20)
(0.987315 0.0247506 8.85647e-21)
(0.996383 0.0628462 1.25805e-21)
(0.99668 0.0642023 1.46489e-21)
(1.01431 0.0173633 0)
(1.09863 0.0269854 0)
(0.976304 0.104912 4.13608e-21)
(1.00085 0.000417068 0)
(1.10303 0.0583519 -3.28941e-20)
(0.809393 0.0443353 0)
(1.08223 0.170326 -4.7933e-22)
(1.05159 0.0279356 0)
(0.72131 0.0556704 3.04545e-20)
(0.839519 0.0467111 -3.37127e-20)
(1.08564 0.0189955 1.04638e-20)
(1.0041 0.0252863 -5.54006e-21)
(1.02962 0.0122164 1.59881e-21)
(1.13719 0.162676 5.08845e-21)
(0.988313 0.00331637 -2.49794e-21)
(1.00474 0.000585854 -3.56151e-22)
(1.01539 0.0319492 2.36775e-21)
(1.02232 0.0118829 -1.04373e-22)
(0.985014 -0.00202816 -5.96008e-21)
(0.999991 0.000196802 1.23241e-21)
(0.999078 0.000678798 6.60521e-21)
(1.12091 0.024954 0)
(1.00311 0.000474563 0)
(1.01549 0.00044605 1.36521e-21)
(0.747611 0.178029 0)
(1.09317 0.0658188 0)
(0.999696 0.0229129 0)
(1.01105 0.0126148 2.50138e-21)
(1.00124 0.00238916 -6.6694e-21)
(1.00076 0.0234836 -3.51356e-21)
(0.999077 0.00862515 1.47905e-21)
(0.987026 0.0359101 0)
(1.02524 0.0189374 -1.25505e-23)
(1.01731 0.0178882 0)
(0.822495 0.0448888 -1.07653e-20)
(1.0948 0.0470929 -1.00133e-20)
(1.12431 0.114483 2.10816e-20)
(0.998998 -7.78109e-06 -8.08941e-21)
(1.04816 0.0193765 3.73454e-21)
(1.07023 0.039385 5.53368e-23)
(1.04902 0.0266821 -3.45416e-21)
(1.08675 0.0188166 -1.17827e-20)
(0.934801 0.063563 4.86975e-21)
(0.828797 0.0317001 0)
(0.483211 0.0387434 7.38743e-21)
(0.698256 0.0467855 0)
(0.997769 0.00541983 0)
(1.00191 0.0239319 -3.67946e-21)
(1.09658 0.0733356 0)
(1.09844 0.0499796 -1.39025e-20)
(1.08441 0.0913889 -3.36172e-21)
(1.00771 0.00676259 0)
(1.00289 0.0249542 8.30221e-21)
(1.06148 0.0282497 -7.76707e-21)
(0.989104 0.00635786 1.09844e-20)
(0.887597 0.387218 2.43134e-20)
(0.560268 0.0372577 2.37319e-21)
(0.993026 0.0136323 0)
(0.999239 0.00841705 0)
(0.675836 0.0448467 3.01331e-20)
(0.436561 0.0310617 0)
(1.0774 0.0978565 -4.6563e-21)
(1.08802 0.0692575 -1.13617e-20)
(0.759598 0.035639 -3.87956e-21)
(0.0246626 0.0403109 -3.53235e-20)
(0.994615 0.000908651 4.32872e-21)
(1.06318 0.0582514 1.18114e-20)
(1.09301 0.0471399 -3.10178e-20)
(1.07498 0.0833627 7.53936e-21)
(1.10426 0.057075 -1.84566e-20)
(1.03168 0.0327121 0)
(1.02211 0.0384014 -8.20304e-22)
(0.934737 0.394269 -3.58113e-21)
(1.03504 0.125978 4.69965e-21)
(1.02176 0.0206383 0)
(0.997016 0.00272254 4.8664e-21)
(1.03986 0.0274226 3.5909e-21)
(1.00134 0.00251192 2.10985e-21)
(1.04715 0.0483542 -6.9911e-21)
(0.687388 0.0190937 0)
(1.06243 0.0747133 -6.82153e-21)
(1.02161 0.0163095 -1.00083e-22)
(1.06243 0.0282379 0)
(0.981117 -0.00563569 6.06944e-23)
(0.987897 0.00374559 1.30658e-20)
(1.04154 0.0216107 -2.33425e-21)
(0.848871 0.0487381 -3.14772e-20)
(0.702978 0.0557464 0)