/*--------------------------------*- C++ -*----------------------------------*\
| =========                 |                                                 |
| \\      /  F ield         | OpenFOAM: The Open Source CFD Toolbox           |
|  \\    /   O peration     | Version:  v2012                                 |
|   \\  /    A nd           | Website:  www.openfoam.com                      |
|    \\/     M anipulation  |                                                 |
\*---------------------------------------------------------------------------*/
FoamFile
{
    version     2.0;
    format      ascii;
    class       volVectorField;
    location    "400";
    object      U_0;
}
// * * * * * * * * * * * * * * * * * * * * * * * * * * * * * * * * * * * * * //

dimensions      [0 1 -1 0 0 0 0];


internalField   nonuniform List<vector> 
18618
(
(1.0002 0.0282991 -1.28361e-22)
(1.0946 0.0725666 0)
(1.03055 0.0230067 -2.26969e-21)
(0.982199 0.00447228 6.08607e-21)
(1.00412 0.0245119 5.86273e-21)
(0.956815 -0.00196914 -6.90096e-21)
(1.14681 0.102125 -3.40344e-20)
(0.551123 0.0472147 0)
(1.09243 0.066453 0)
(1.10331 0.0449064 -1.57461e-20)
(1.00469 0.02426 0)
(0.995923 0.0265898 -2.93617e-21)
(1.01495 0.000625612 -9.70003e-22)
(0.997709 0.0288755 -1.12035e-20)
(1.00678 0.0135112 -1.85135e-21)
(0.955151 -0.00286071 9.92161e-22)
(1.03376 0.0218908 -4.15676e-22)
(0.999729 0.0276746 7.74987e-21)
(1.02749 0.00853348 0)
(1.05743 0.063573 1.11782e-20)
(1.00715 0.0134302 0)
(0.685079 0.0163605 4.64845e-20)
(1.02155 0.00605514 0)
(0.996403 0.026032 6.59027e-21)
(1.20092 0.205599 0)
(1.09275 0.0668221 -1.04485e-20)
(1.07819 0.116409 0)
(1.11091 0.533848 -4.59848e-20)
(0.94499 0.230934 8.1204e-21)
(1.02998 0.0229074 2.1033e-21)
(0.994577 0.0460277 8.23486e-21)
(1.01619 0.0372251 -1.82556e-21)
(1.08924 0.0264787 -6.52464e-21)
(1.00931 0.00908309 -1.58203e-21)
(0.92181 0.0331585 -1.95981e-20)
(0.907744 0.0412269 0)
(1.02188 0.0201627 -2.70018e-22)
(1.11873 0.0540531 2.36853e-20)
(0.57394 0.0456978 1.31304e-21)
(1.02128 0.00614005 -1.62584e-22)
(0.321716 0.0191824 3.2388e-20)
(0.714719 0.0207873 -1.18416e-21)
(0.706675 0.0506 -1.77879e-20)
(0.668012 0.0685984 8.37815e-21)
(1.06134 0.0602702 -5.20157e-21)
(0.896802 0.0522773 1.57272e-20)
(0.622872 0.0458456 0)
(0.985558 0.10943 -1.27235e-20)
(1.08452 0.0888392 3.30667e-21)
(0.889569 0.0511875 3.19113e-20)
(1.07609 0.117495 9.53527e-21)
(1.0272 0.0374383 0)
(1.04013 0.154949 6.90317e-21)
(0.937627 0.20491 0)
(1.03071 0.060482 -2.80485e-21)
(1.11756 0.0533078 0)
(1.00166 0.165902 0)
(1.0958 0.048749 5.5969e-21)
(0.317621 0.0168214 -3.15301e-20)
(1.01069 0.0504454 0)
(0.479689 0.0367558 -2.37334e-20)
(1.06054 0.0665911 -2.1041e-20)
(1.08379 0.0896866 2.60529e-21)
(1.00633 0.00192744 0)
(1.11897 0.0938335 0)
(1.0926 0.088447 -6.31859e-21)
(1.02267 0.0515416 0)
(1.06392 0.0572564 5.39463e-21)
(1.01448 0.00107111 -1.92939e-21)
(0.330258 0.0163316 2.3603e-20)
(1.09066 0.061077 6.01433e-21)
(1.02703 0.00856385 -2.02475e-22)
(0.998937 0.000740669 -6.8908e-21)
(1.0891 0.0672397 0)
(0.348015 0.0290049 0)
(0.88724 0.0388057 0)
(0.997661 -0.000734486 0)
(0.994913 0.0172341 -8.21182e-21)
(1.01591 0.00793434 3.06654e-21)
(1.09372 0.0892026 3.86004e-21)
(1.05381 0.0458172 3.42635e-21)
(1.00945 0.00883386 3.23135e-21)
(0.977568 -0.00339215 7.74669e-21)
(0.982205 0.0573203 9.10409e-21)
(0.648116 0.0138388 -4.56732e-20)
(1.02223 0.0218702 0)
(1.1123 0.0883812 -6.28843e-21)
(0.346277 0.0167646 -1.88464e-20)
(1.0629 0.0663224 1.98983e-20)
(-0.0106551 0.0783406 -2.30435e-20)
(1.01563 0.017869 0)
(0.497809 0.0367722 2.06327e-20)
(1.10441 0.0638652 0)
(1.01981 0.0079723 -5.04868e-22)
(0.523078 0.0384542 -2.0636e-20)
(1.06228 0.067559 0)
(0.993989 0.0438325 0)
(1.09478 0.0636808 -1.65967e-20)
(1.00792 0.000743269 0)
(0.662306 0.047616 0)
(0.90632 0.0514306 -2.84546e-20)
(9.72026e-05 0.0471094 0)
(1.016 0.0362144 0)
(1.10264 0.0632361 9.40097e-21)
(0.953628 0.231107 4.59981e-21)
(1.08768 0.0698044 1.21236e-20)
(1.19541 0.205979 2.73818e-20)
(1.00998 0.00145038 1.17801e-24)
(1.06547 0.0678514 -2.01038e-20)
(1.10303 0.077856 1.83596e-20)
(0.38571 0.021207 1.15728e-20)
(1.06523 0.025962 0)
(0.640802 0.0456176 0)
(0.471213 0.0433601 -1.07394e-20)
(0.992034 0.0106248 3.85305e-21)
(1.02098 0.00658535 -5.47819e-23)
(1.15568 0.1071 2.31223e-20)
(0.981648 0.00511061 0)
(1.04175 0.159098 2.96027e-21)
(0.366721 0.0311776 0)
(0.935876 0.000944639 -2.31213e-20)
(1.03099 0.04321 -9.11565e-22)
(1.05684 0.0456228 4.70512e-21)
(0.966403 0.0061078 0)
(1.08375 0.0715651 -1.68059e-20)
(1.08942 0.078786 3.28203e-21)
(1.04154 0.0673067 0)
(1.11775 0.0950814 0)
(1.13103 0.118742 -1.14704e-22)
(1.09929 0.048452 -2.53491e-20)
(0.677417 0.0539183 0)
(1.04468 0.0569829 8.64859e-21)
(1.04768 0.0625024 -2.9647e-21)
(1.00194 0.160201 1.77583e-21)
(1.0112 0.0130715 1.52732e-21)
(1.07682 0.0519124 1.05782e-20)
(1.00154 0.00852 2.85036e-21)
(0.402032 0.0215173 -5.36876e-21)
(0.815037 0.0540448 1.44904e-21)
(0.999066 0.0222854 0)
(0.515874 0.0419119 -4.73779e-21)
(1.10669 0.0787871 1.51293e-20)
(1.01556 0.00758186 -1.60469e-21)
(1.00847 0.00129462 -5.10746e-23)
(1.06421 0.0260344 3.8794e-21)
(0.992327 0.010333 -7.5778e-21)
(1.01815 0.00222198 2.00171e-22)
(0.978285 -0.00386846 -2.46575e-22)
(1.00771 0.000960659 -2.4801e-21)
(0.984088 0.0312343 -8.64969e-21)
(1.08655 0.0673515 -3.67346e-23)
(1.00341 0.0255731 1.55792e-21)
(1.09026 0.0225185 -6.28633e-21)
(0.963794 0.0226001 0)
(1.05578 0.0452861 -1.41479e-21)
(0.540828 0.0410575 -4.62208e-21)
(0.859312 0.0490829 0)
(1.05643 0.0940681 -3.99798e-21)
(1.02785 0.0346247 0)
(1.02736 0.567827 -3.74544e-20)
(1.08335 0.0708984 2.15753e-20)
(0.990952 0.107909 -2.41629e-21)
(0.869822 0.0457314 2.29635e-20)
(1.08379 0.0669673 -1.18141e-20)
(0.990081 0.0040657 0)
(0.972756 0.0915781 -3.40391e-21)
(0.980953 0.0558406 -1.89533e-21)
(0.614365 0.0180321 -1.86758e-20)
(0.988718 0.0162087 0)
(1.09532 0.063649 2.04611e-20)
(0.999987 5.98371e-05 -1.37787e-20)
(1.08845 0.0255177 -1.29814e-20)
(1.09199 0.0860883 -2.4278e-20)
(1.12967 0.170309 3.17688e-20)
(0.686958 0.0513725 -2.80202e-21)
(0.981463 -0.00324374 1.56089e-21)
(1.03356 0.410531 -1.54706e-20)
(0.963297 0.0243428 7.33913e-21)
(1.00391 0.000586287 -1.52877e-21)
(1.06293 0.0639558 7.2783e-21)
(1.09342 0.0686404 2.67888e-20)
(0.923481 0.0304467 0)
(1.12018 0.524239 0)
(0.999023 0.00118571 -6.70836e-21)
(1.00269 0.000473096 -4.07956e-21)
(0.959864 0.123365 6.09892e-21)
(1.09229 0.0685793 -1.10405e-20)
(0.836583 0.367586 0)
(1.10983 0.0896703 6.17024e-21)
(0.99846 0.0286805 4.79306e-21)
(1.00152 0.00937309 6.04909e-21)
(0.920901 0.0894286 -2.75685e-20)
(0.971179 0.0899102 2.98182e-21)
(1.03374 0.0224681 6.32706e-22)
(1.01571 0.00725146 0)
(1.10932 0.0580503 1.50237e-20)
(0.998931 0.0218132 3.32319e-21)
(0.993696 0.0452043 5.31118e-22)
(0.610724 0.0498063 0)
(1.06262 0.0606158 1.03071e-20)
(1.08967 0.077921 4.10886e-22)
(0.772913 0.0351661 0)
(1.08283 0.0662037 0)
(0.58458 0.0500379 0)
(1.01517 0.412452 -8.67766e-21)
(0.971731 0.0587685 1.36307e-21)
(0.545057 0.0415435 1.86973e-20)
(-0.000107865 0.0454942 2.87842e-20)
(1.00122 0.000313376 -6.96286e-21)
(1.02176 0.00788885 -4.85344e-24)
(1.11745 0.10254 0)
(1.1139 0.103299 1.12308e-20)
(1.01752 0.0601157 1.54594e-21)
(1.01792 0.00208578 0)
(1.00088 0.0360025 9.43367e-21)
(0.999772 -0.000850087 -2.53366e-21)
(0.880667 0.0499398 0)
(1.19695 0.190009 8.16554e-21)
(0.938239 0.0059012 1.45609e-21)
(1.03595 0.0334088 -2.16387e-21)
(0.985206 0.031373 0)
(1.05496 0.0460964 1.70549e-21)
(0.624591 0.0403915 0)
(0.999531 -0.0011277 0)
(0.355878 0.0191757 -2.4628e-20)
(0.989609 0.0043535 -7.88744e-23)
(1.0303 0.0425906 0)
(1.09597 0.0966362 0)
(1.12641 0.120301 1.98296e-20)
(1.06507 0.0574091 -4.15824e-22)
(0.978796 0.0613047 -1.50768e-20)
(1.06544 0.0608659 -3.41722e-21)
(1.01034 0.00114601 -2.05698e-21)
(0.52545 0.0410486 -2.35969e-20)
(1.06258 0.0647845 0)
(1.00177 0.00212958 4.44976e-21)
(0.998373 0.000600844 -7.06875e-21)
(1.09641 0.0620286 -1.71851e-20)
(1.0769 0.0654581 2.09455e-20)
(1.05132 0.0257523 -7.41802e-21)
(1.09382 0.072961 -1.0292e-20)
(1.02736 0.036519 0)
(0.999731 0.00737889 -2.81106e-21)
(0.643928 0.0477537 -1.15505e-22)
(1.09668 0.0481801 0)
(1.09939 0.0258544 -2.17004e-21)
(1.11148 0.0576793 -7.0612e-21)
(1.00183 0.00204704 0)
(0.391296 0.0216688 0)
(0.980231 0.00419847 -8.78564e-22)
(1.01948 0.00770207 -1.16133e-21)
(0.711392 0.0204566 0)
(0.988608 0.110409 -5.58421e-21)
(1.06046 0.0565638 2.47879e-20)
(1.07971 0.0538033 6.61477e-21)
(1.04182 0.0686799 0)
(1.09413 0.0642563 0)
(0.999601 0.00793359 5.28286e-23)
(1.02113 0.00448497 -5.03691e-23)
(1.03608 0.0343371 -2.68092e-21)
(0.992148 0.0114652 1.42041e-22)
(0.892237 0.0509361 0)
(1.19826 0.197507 -8.06815e-21)
(0.927223 0.0250378 -1.85556e-20)
(0.698745 0.0187679 0)
(1.11602 0.0563573 0)
(1.09311 0.0653961 0)
(0.982804 0.111471 3.38209e-21)
(1.09054 0.0822247 1.47524e-20)
(0.906479 0.0677765 -1.64986e-20)
(1.09536 0.098246 1.4798e-20)
(1.00137 0.00817211 3.92806e-21)
(1.02733 0.0503712 0)
(0.992571 0.0116527 8.30756e-21)
(0.999975 0.000123231 6.022e-21)
(0.932454 0.0662297 1.52885e-20)
(1.07065 0.0646942 -1.02881e-20)
(0.986893 0.0382876 -4.46258e-21)
(1.03845 0.0277696 1.50097e-21)
(0.623718 0.0414354 1.7106e-20)
(1.0043 0.00685775 0)
(1.09339 0.0529474 1.09452e-20)
(0.987129 0.0103992 0)
(1.00271 0.050902 0)
(0.606493 0.0461109 0)
(0.980473 0.00367204 2.08773e-22)
(1.01868 0.0207853 -1.28762e-21)
(0.933184 0.174965 -1.11147e-20)
(1.08361 0.0695582 5.27213e-21)
(1.09125 0.0627309 3.01021e-20)
(1.03223 0.0143552 -1.10557e-21)
(1.08616 0.0608249 1.23548e-21)
(0.984157 0.00580764 1.64422e-20)
(1.09149 0.0223448 0)
(0.870539 0.0945487 2.59563e-20)
(1.13369 0.174598 -3.1428e-20)
(0.549782 0.0378175 0)
(0.911076 0.0512173 0)
(0.858713 0.0472902 -2.91727e-20)
(1.01692 0.0338307 3.14406e-21)
(0.963596 0.123654 -6.44361e-21)
(1.00659 0.00208722 1.2651e-21)
(1.06662 0.0883819 -1.09704e-20)
(0.970975 0.0571659 -1.17596e-21)
(1.00208 0.00660599 0)
(1.00132 0.000248634 6.27936e-21)
(0.991715 0.0213145 6.4735e-21)
(0.708599 0.0526046 0)
(1.09312 0.0868722 2.93918e-20)
(0.888142 0.0502773 0)
(1.09941 0.0680928 1.43103e-23)
(1.02142 0.00466955 -1.22206e-23)
(0.841705 0.390452 -1.01588e-20)
(0.999617 -0.00100068 0)
(0.998741 0.000331895 -4.58366e-22)
(0.99832 0.0214944 -1.75839e-21)
(1.00361 0.049979 2.65177e-21)
(1.08307 0.0276285 -8.9436e-23)
(1.09384 0.0465351 1.02356e-20)
(1.12545 0.08104 -8.80944e-21)
(1.01809 0.00172633 -1.2467e-21)
(1.09847 0.0692205 -4.48229e-23)
(0.999907 0.00469983 0)
(0.749341 0.0339254 1.81297e-21)
(0.999301 0.000679543 6.62732e-21)
(1.11563 0.0570388 3.64065e-20)
(1.09923 0.0698138 9.8633e-21)
(0.99768 0.0215708 9.52098e-21)
(1.04817 0.0181686 8.46574e-22)
(1.08061 0.245905 3.59494e-20)
(1.03879 0.118501 0)
(0.787739 0.0828547 -1.50967e-20)
(0.992033 0.0220422 -8.66103e-23)
(0.998577 0.000369344 4.5867e-22)
(1.07733 0.0526059 -6.076e-21)
(1.00146 0.00875273 -1.12844e-20)
(1.012 0.0492148 3.18784e-20)
(1.01614 0.0604836 -9.7354e-22)
(1.05046 0.0257873 7.61509e-21)
(0.937779 0.0534319 -2.124e-20)
(1.08679 0.0593267 -2.9777e-22)
(1.08356 0.09238 -6.12104e-21)
(0.748918 0.0381335 2.32289e-20)
(1.09839 0.13118 0)
(1.00195 0.0063801 0)
(1.08319 0.0744755 -4.81563e-21)
(1.01985 0.0729405 -1.08469e-21)
(1.09125 0.0840753 -7.55578e-21)
(1.08681 0.0606113 0)
(1.0213 0.00654029 1.34073e-22)
(0.993349 0.00349206 7.35892e-21)
(1.0338 0.0124261 -5.17885e-23)
(0.940508 0.0521355 0)
(1.00064 0.00382214 -4.04179e-21)
(0.99273 0.0126491 -7.61245e-21)
(1.00283 0.000374763 0)
(0.999992 0.00453286 -6.92304e-22)
(1.08707 0.0599532 1.07758e-20)
(0.964977 0.00585628 -9.39067e-21)
(1.0275 0.0492516 2.13381e-22)
(1.01077 0.0072501 5.18747e-21)
(0.606044 0.0450406 -1.12008e-20)
(0.686559 0.020633 -4.88804e-21)
(1.09754 0.0463908 0)
(0.658077 0.0519115 -2.65357e-20)
(0.654915 0.0154367 -1.87131e-22)
(0.999508 0.00729218 4.01878e-21)
(0.998898 0.000940637 4.35455e-21)
(1.1023 0.0442565 -2.34623e-20)
(1.09646 0.0625447 2.21925e-20)
(1.0158 0.0173405 -1.8888e-21)
(0.984658 0.00522015 -1.0531e-20)
(0.909583 0.00642747 9.77289e-21)
(1.06042 0.0648406 1.67658e-20)
(1.01797 0.00157791 1.27901e-21)
(0.995201 0.0175885 9.47202e-21)
(1.09605 0.101746 0)
(0.937535 0.00724184 1.22e-22)
(1.00423 0.00656812 0)
(1.10721 0.01639 -1.33433e-22)
(1.0962 0.133225 0)
(0.999973 0.000195468 0)
(1.01808 0.0206499 6.93125e-22)
(1.0474 0.0182726 5.59197e-21)
(0.929207 0.20584 0)
(1.01477 0.00900926 0)
(1.07977 0.10357 0)
(0.974855 0.204639 8.41485e-22)
(0.99979 0.00770668 2.84688e-21)
(1.0933 0.053749 0)
(0.961606 0.0249031 -1.76548e-20)
(0.998779 0.00600036 8.90619e-21)
(1.0873 0.0673461 1.23137e-20)
(0.37507 0.0228943 1.57971e-20)
(0.993297 0.00306774 -1.61067e-20)
(0.834436 0.281063 2.73335e-20)
(0.488417 0.0361763 -1.01601e-20)
(0.952125 0.0532272 0)
(1.00207 0.00203432 0)
(0.729195 0.0518947 1.12667e-20)
(0.984357 0.004446 -2.79234e-21)
(1.08712 0.0291757 -1.07331e-20)
(1.07221 0.0373991 0)
(0.822957 0.0454685 0)
(1.01409 0.00873088 0)
(1.08525 0.0670905 2.57199e-20)
(1.00145 0.00792018 -3.28852e-21)
(0.981519 0.0590769 6.28451e-21)
(1.08305 0.0286381 1.25769e-20)
(0.992008 0.00969887 8.50697e-21)
(1.03214 0.034312 -3.7794e-22)
(0.999988 9.58376e-05 0)
(1.01376 0.00880037 0)
(1.03351 0.0120421 0)
(0.981751 0.0542184 1.9095e-21)
(1.09242 0.0515238 0)
(1.02056 0.0043864 -1.9053e-22)
(1.05427 0.024607 1.06414e-20)
(1.05796 0.0926668 -4.5378e-21)
(1.06156 0.0651447 -8.06818e-21)
(1.02137 0.00777002 0)
(0.514241 0.0397828 0)
(1.07065 0.0384334 -1.37615e-20)
(1.0611 0.0590259 5.57777e-21)
(1.01483 0.0086663 -1.05148e-21)
(0.853054 0.082233 -5.05998e-20)
(1.09249 0.0524646 -1.05524e-20)
(1.06382 0.0271763 -4.18045e-21)
(1.12553 0.0446623 0)
(0.893343 0.0512636 0)
(0.99895 0.00590387 -7.44665e-21)
(0.999669 0.00826636 0)
(0.901054 0.0538814 3.23717e-20)
(1.00579 0.00156915 0)
(1.02013 0.0176742 3.29711e-22)
(0.905681 0.0706733 2.17049e-20)
(0.997891 -0.000717682 -6.70113e-21)
(0.978731 0.00291344 1.37095e-20)
(1.10339 0.0800142 -3.14192e-20)
(1.08897 0.0707467 6.90516e-21)
(0.940528 0.0632905 -9.87417e-21)
(1.12223 0.0460037 -7.76874e-21)
(0.980677 -0.0031293 -2.14538e-21)
(1.04263 0.0976116 5.58608e-22)
(0.627005 0.0444029 9.91565e-21)
(1.084 0.0702129 0)
(0.963119 0.069284 -1.61062e-20)
(0.723391 0.0549943 0)
(1.08893 0.068915 1.70962e-20)
(1.00202 0.00403672 0)
(0.967763 0.0907809 7.88837e-21)
(0.999807 -0.000727821 5.15358e-21)
(1.10788 0.0200913 -1.15857e-20)
(0.988048 0.12063 1.21477e-21)
(1.00236 0.0056319 5.03476e-21)
(1.10757 0.0886974 1.17249e-20)
(0.992253 0.00933801 -1.00244e-22)
(1.02854 0.0353049 0)
(1.00583 0.0496392 -1.48779e-21)
(0.595409 0.0141902 0)
(0.839517 0.0473941 -3.71086e-21)
(1.06349 0.0358303 -1.10472e-20)
(0.762735 0.180011 -3.70372e-20)
(1.00223 0.00441482 4.8201e-21)
(1.09927 0.125318 0)
(0.995319 0.0432178 -5.84373e-21)
(1.00255 0.00559485 0)
(0.999995 8.30052e-05 -4.4154e-21)
(1.10173 0.0786233 2.0782e-20)
(1.01533 0.0104952 -1.17006e-21)
(1.0634 0.0364599 8.74784e-21)
(1.05669 0.0958521 3.61939e-21)
(1.06281 0.0271633 0)
(1.06174 0.0638727 3.57125e-21)
(1.06741 0.0414147 0)
(1.01983 0.0778235 7.65715e-22)
(0.52773 0.0394264 9.02844e-21)
(1.07312 0.0337525 1.47086e-20)
(1.0988 0.0682686 -1.71514e-20)
(1.03606 0.117186 -1.99931e-21)
(0.844477 0.271614 -2.57844e-20)
(0.940287 0.00125286 2.13105e-20)
(0.957031 0.0541517 7.42137e-21)
(1.05415 0.0150766 -5.08498e-21)
(0.941265 0.337826 4.89582e-21)
(0.979603 0.00282149 0)
(1.09712 0.126995 -4.02176e-21)
(1.04707 0.0491975 9.58802e-21)
(1.00628 0.167034 0)
(1.06677 0.0587097 6.67822e-21)
(1.09404 0.0664621 -4.57315e-21)
(0.793601 0.0720022 5.45831e-20)
(1.00199 0.0357055 -4.47887e-21)
(0.998787 0.000165361 0)
(0.796251 0.0520029 0)
(0.993602 0.057567 2.94879e-21)
(1.0926 0.0670143 3.69787e-23)
(0.826875 0.0330185 -2.664e-20)
(0.942183 6.56896e-05 -2.91704e-20)
(0.999328 0.000546611 -6.74431e-21)
(0.999993 2.78578e-05 -1.00243e-20)
(1.01082 0.014816 -2.5659e-21)
(1.02441 0.0504423 -3.23634e-20)
(1.00219 0.00419504 0)
(1.07338 0.0374587 3.45095e-21)
(1.09228 0.0847939 1.5563e-20)
(0.974728 0.060491 0)
(0.960554 0.0698966 1.7998e-20)
(1.0944 0.0678256 4.89064e-21)
(0.992096 0.316656 -4.99391e-21)
(0.874942 0.0380703 0)
(1.01158 0.00798727 -2.10155e-21)
(1.07366 0.0332054 -2.13608e-20)
(1.07316 0.0356117 3.8409e-21)
(1.08361 0.0738225 -9.75568e-21)
(0.999909 0.00316383 6.1944e-21)
(1.05051 0.0154147 -4.82858e-22)
(0.998943 0.000145781 0)
(1.0531 0.153948 9.3312e-22)
(0.653809 0.0522179 0)
(1.03242 0.0334322 0)
(0.999975 0.00318028 0)
(1.1115 0.0556589 -1.17781e-20)
(1.08312 0.0778175 -2.10012e-20)
(1.03464 0.023483 1.93383e-21)
(1.00201 0.0021442 -4.63214e-21)
(0.692929 0.0545871 -1.47366e-20)
(0.995156 0.000625703 0)
(0.521328 0.0436434 6.30951e-21)
(1.00058 0.00197221 0)
(1.0787 0.0621907 -3.05927e-21)
(0.834256 0.0425984 0)
(0.974134 0.0591333 0)
(0.96594 0.0888113 -2.22616e-20)
(1.09274 0.0550539 0)
(0.99995 0.00102866 -4.36165e-21)
(0.462302 0.0366437 0)
(1 7.54586e-06 1.06392e-20)
(1.0111 0.00888777 3.07981e-21)
(1.01635 0.0345427 -1.64661e-21)
(1.08638 0.0511796 1.49059e-20)
(0.92398 0.0244972 2.82792e-20)
(1.10848 0.0172116 -6.23163e-21)
(0.938504 0.170396 9.33694e-21)
(0.997695 0.00627398 2.03678e-21)
(1 0.00350388 -2.97579e-21)
(1.09866 0.0686056 0)
(1.08704 0.0702651 -2.07705e-20)
(1.02249 0.00791811 -6.1099e-23)
(0.987312 0.00979644 0)
(1.00107 0.00895047 0)
(1.09237 0.0610505 -1.3564e-20)
(0.978826 0.308063 0)
(1.02236 0.0211443 0)
(1.12329 0.117924 -4.87924e-20)
(1.01708 0.0138274 -1.29757e-21)
(0.439159 0.0373128 2.15258e-20)
(1.00208 0.00446029 -4.25863e-21)
(1.07798 0.168111 -6.57466e-21)
(1.0923 0.055488 -1.40609e-20)
(0.829537 0.0627808 1.17543e-20)
(1.04992 0.026769 6.82851e-21)
(0.735344 0.0524847 0)
(0.958252 0.0674115 5.44993e-22)
(0.998083 0.0147993 -1.6192e-21)
(1.1107 0.0395815 -1.21743e-20)
(1.06355 0.063617 1.01205e-20)
(1.00139 0.0233159 0)
(1.09149 0.0829495 -1.51741e-20)
(0.992852 0.0222759 -4.51512e-21)
(1.00206 0.000673091 0)
(0.6501 0.0434095 0)
(0.996713 -0.000774643 -1.22554e-20)
(0.78485 0.0371936 1.47016e-20)
(0.879271 0.0382358 3.13367e-20)
(0.679067 0.0516891 0)
(1.11666 0.0784208 3.42731e-20)
(1.07396 0.122191 -4.24887e-21)
(1.09066 0.0673973 1.28933e-20)
(1.02273 0.0168945 0)
(1.04596 0.094959 2.34324e-21)
(0.939823 0.06009 -1.99499e-20)
(1.06987 0.0653337 0)
(1.00001 0.00330148 3.44229e-21)
(0.993522 -0.00288345 6.51087e-21)
(1.02269 0.0163971 0)
(1.00038 0.0036706 3.22759e-21)
(1.01531 0.00865891 0)
(-0.00785961 0.0729405 2.21886e-20)
(0.76872 0.220423 -4.41794e-20)
(1.00379 0.00552415 0)
(1.01094 0.00758463 -3.99855e-21)
(1.00066 0.036947 -4.30998e-21)
(1.02243 0.020012 -1.82606e-22)
(1.00492 0.0505215 -9.59776e-21)
(1.04743 0.0942345 6.61754e-21)
(1.13532 0.121266 0)
(0.887176 0.050725 3.69983e-21)
(1.09707 0.119638 1.95879e-21)
(1.00803 0.00747278 -3.63133e-21)
(0.998986 0.00549911 0)
(1.11528 0.0568482 -2.10999e-20)
(0.997424 0.157567 -1.91625e-21)
(0.986657 0.0326628 -8.75429e-21)
(0.992312 0.0123249 0)
(1.03903 0.121725 4.93015e-21)
(1.0019 0.000641295 0)
(1.047 0.0176692 -7.53787e-21)
(1.00402 0.000439753 1.76963e-21)
(0.986835 0.117008 -2.70031e-21)
(1.06733 0.0302467 1.48409e-20)
(0.555114 0.0431895 -9.70091e-21)
(0.719703 0.0504202 2.1196e-20)
(1.15555 0.106007 -3.51341e-20)
(-0.0119936 0.0436997 -2.95902e-20)
(1.01282 0.000752127 0)
(1.07366 0.0349802 1.28243e-20)
(0.871354 0.0500882 -8.74645e-21)
(0.987613 0.0108576 0)
(0.957654 0.0655973 -1.30241e-20)
(1.04998 0.0156775 0)
(1.01537 0.00831826 8.79833e-22)
(1.07346 0.0655066 2.95697e-24)
(1.07631 0.120944 -1.02069e-20)
(0.999959 0.000892176 0)
(1.09478 0.0655453 0)
(1.02489 0.0350764 -3.20365e-23)
(0.98878 0.0113622 0)
(1.10556 0.0896507 -3.29552e-20)
(0.9954 0.000506974 0)
(0.967132 0.0714676 -1.2131e-20)
(0.996147 0.0119888 7.97652e-21)
(0.849386 0.0444371 2.5768e-20)
(1.04624 0.0177188 0)
(0.941248 0.360306 -7.31832e-21)
(1.10547 0.0800853 1.82482e-20)
(1.09844 0.0673055 0)
(1.02037 0.0585463 -4.50582e-22)
(0.847473 0.0405229 0)
(1.09837 0.0480317 0)
(1.01911 0.0383113 -1.11842e-21)
(1.00248 0.0237088 -3.38562e-21)
(0.982661 0.0471905 -4.23311e-21)
(0.860955 0.277029 0)
(1.0154 0.0100875 1.11786e-21)
(1.11486 0.0563618 0)
(0.834792 0.147136 -8.87607e-20)
(0.966412 0.00113323 0)
(1.02886 0.0479064 5.49291e-22)
(0.940556 0.0184459 7.14694e-21)
(0.705887 0.055847 -4.52143e-20)
(0.9978 0.00597666 -2.00008e-21)
(1.0172 0.013472 2.70812e-21)
(1.04901 0.15417 -2.50206e-21)
(1.0486 0.0198967 0)
(0.996978 0.0798328 8.17772e-21)
(1.00373 0.00525211 -2.84156e-22)
(1.0873 0.0624925 -1.15383e-20)
(1.00822 0.00811873 -2.09667e-21)
(1.00189 0.00992687 -4.25453e-21)
(0.192244 0.00735897 0)
(1.09715 0.0612687 -4.33703e-21)
(1.00032 0.00369348 6.73449e-21)
(1.01037 0.0093617 -1.78881e-21)
(1.09489 0.048202 -5.33184e-21)
(1.00109 0.0282644 -3.94684e-21)
(1.07472 0.0587251 6.09861e-21)
(1.00115 0.00242041 6.56754e-21)
(0.870137 0.267461 1.9876e-20)
(0.9648 0.0720169 1.44104e-20)
(0.697074 0.0550596 -1.11752e-20)
(0.999998 -2.91107e-06 5.01611e-21)
(0.999033 0.00103593 0)
(0.986278 0.0372367 0)
(1.0083 0.00110976 2.93555e-21)
(1.10331 0.078926 -1.76816e-20)
(0.577091 0.0120501 -2.15751e-20)
(1.09547 0.0732601 7.73367e-21)
(0.762895 0.0464333 -3.38986e-20)
(1.08974 0.0451191 2.06715e-20)
(0.33028 0.0190843 2.72594e-20)
(1.07714 0.0541924 -2.56177e-20)
(1.09495 0.0511521 0)
(1.00106 0.00230745 2.21636e-21)
(0.99755 -0.000560851 4.45055e-21)
(0.827601 0.0510144 0)
(1.09932 0.0691966 -5.55698e-21)
(0.99693 -0.000717363 1.2152e-20)
(1.07175 0.0384318 1.4147e-20)
(0.997016 0.0077101 0)
(1.0944 0.0647552 -6.86538e-21)
(1.01836 0.0076005 2.05745e-21)
(1.00212 0.00985557 1.64441e-21)
(0.994725 0.0156208 0)
(1.09228 0.0690331 2.79793e-20)
(0.927186 0.40544 0)
(0.974495 -0.00447029 -2.4013e-20)
(1.00136 0.00593097 5.2112e-21)
(1.00147 0.00614691 8.06236e-22)
(0.940027 0.0524083 0)
(1.10064 0.0700983 1.12475e-20)
(1.02759 0.0747215 6.47867e-22)
(0.993786 0.10859 2.84704e-21)
(1.09201 0.0797765 0)
(1.05172 0.0156698 0)
(1.01544 0.0069243 -4.20464e-22)
(1.0767 0.0535787 1.46754e-22)
(0.675409 0.0474291 0)
(1.05786 0.0594503 -1.95533e-23)
(1.00822 0.00722684 3.94008e-21)
(1.02 0.00344433 1.62243e-22)
(0.97686 -0.0036301 1.09414e-20)
(1.06762 0.0404761 5.71109e-21)
(0.977372 0.0564969 1.80828e-22)
(-0.0101484 0.0797604 -6.83684e-21)
(1.09355 0.0673379 2.12133e-20)
(1.06556 0.0585905 -1.3659e-20)
(1.11741 0.0556851 -1.34424e-20)
(1.01825 0.0184004 1.62306e-22)
(1.01356 0.000289043 1.31643e-21)
(1.09042 0.026309 1.40391e-20)
(1.02082 0.00458475 0)
(0.1513 -0.0117587 0)
(0.812046 0.0515713 2.57477e-20)
(0.654772 0.0456178 -2.6349e-21)
(1.09904 0.037093 -4.86707e-21)
(0.942257 0.0524685 9.01716e-21)
(1.0323 0.0178312 0)
(0.996507 0.0120576 0)
(1.07541 0.0847121 -7.326e-21)
(1.09124 0.0608494 0)
(0.657401 0.0536699 3.62136e-21)
(0.999471 0.00696904 0)
(1.04445 0.0987337 -5.08633e-21)
(0.891625 0.0485668 0)
(1.0253 0.0342276 0)
(0.955547 0.053564 0)
(0.683935 0.0558757 1.58088e-20)
(1.01805 0.0073147 9.86281e-24)
(1.00441 0.000540912 3.50641e-22)
(0.922354 0.0922551 1.84476e-20)
(0.998294 -0.00106355 1.5825e-20)
(0.935805 0.00390912 2.02148e-20)
(0.855201 0.0376592 0)
(0.850723 0.0484205 -2.02182e-20)
(0.462398 0.0299944 0)
(1.04672 0.201384 6.16405e-21)
(1.09727 0.114531 7.69646e-21)
(1.09664 0.0469788 1.02176e-20)
(0.653177 0.0511348 -7.10978e-21)
(1.01481 0.0173247 1.91576e-21)
(1.09469 0.0385318 -9.14522e-21)
(0.999135 0.00540774 0)
(1.01906 0.058178 0)
(0.615373 0.0504574 -1.92051e-20)
(1.01999 0.00318771 2.87109e-23)
(0.990207 0.622703 4.27581e-21)
(1.00146 0.0287163 -5.04436e-21)
(1.05755 0.0452929 6.80425e-23)
(1.10546 0.0738588 0)
(0.933624 0.348205 2.93023e-21)
(1.02859 0.0422798 5.49511e-22)
(1.00013 0.000160528 0)
(1.08037 0.0534338 4.00033e-21)
(0.989377 0.0158341 0)
(1.11316 0.106281 -3.08627e-20)
(0.996001 0.0467869 0)
(1.02551 0.0360239 3.93438e-23)
(1.08903 0.0454277 -2.89704e-20)
(0.152729 -0.00758764 2.94469e-20)
(1.00159 0.00234315 4.25854e-21)
(0.937238 0.0711732 2.21371e-20)
(1.03569 0.123419 -3.72416e-21)
(1.00236 0.00587074 -5.4965e-21)
(0.987263 0.00352739 -8.15894e-21)
(1.00776 0.0311897 -1.71448e-21)
(0.532245 0.0435014 1.75245e-20)
(0.853995 0.35647 8.62944e-21)
(1.00823 0.00772871 -2.18787e-21)
(1.002 0.00382228 -4.65885e-21)
(0.998091 0.0784949 -3.74133e-21)
(0.22385 0.00382853 -1.9395e-20)
(1.02024 0.000952911 0)
(0.984901 0.00394926 2.74182e-21)
(0.212717 0.0161061 0)
(1.01084 0.00852781 3.26309e-21)
(1.01875 0.00750935 0)
(1.09807 0.0629963 1.18166e-20)
(0.66676 0.052311 6.13486e-21)
(1.10402 0.0645122 2.11043e-20)
(1.00251 0.00530147 4.99028e-21)
(1.015 0.00695618 3.98646e-22)
(1.10869 0.0192641 7.43255e-21)
(0.96749 0.000739044 -8.47184e-23)
(0.999864 0.0021131 0)
(0.718332 0.0485254 -1.03423e-20)
(1.08735 0.0580828 0)
(1.09468 0.0642483 0)
(1.04092 0.0616857 0)
(0.978 0.0910582 0)
(0.975346 -0.00420722 2.30399e-20)
(0.998158 0.106844 1.64232e-21)
(1.01484 0.0225715 -2.78106e-21)
(1.06489 0.059722 6.42451e-21)
(1.08747 0.0588142 -4.99304e-21)
(1.01839 0.0178412 -1.30001e-21)
(0.509072 0.0459934 5.20296e-21)
(1.06555 0.0766021 -1.0358e-20)
(1.02172 0.0568475 0)
(0.72376 0.0562256 -1.77127e-20)
(1.10508 0.0577456 6.19273e-22)
(1.01874 0.110444 -1.77718e-23)
(0.842683 0.144391 6.71273e-20)
(1.10033 0.0370146 0)
(0.994927 0.0801426 0)
(1.00163 0.00960313 -5.95477e-23)
(1.04176 0.0210778 2.11413e-21)
(1.01474 0.00661797 0)
(0.965537 0.0223476 -6.99379e-21)
(1.05118 0.0159703 0)
(1.08838 0.0160708 0)
(0.933964 0.0701063 -1.19567e-20)
(1.02269 0.0121543 -2.2358e-23)
(0.859591 0.0470572 -7.752e-21)
(1.01527 0.130897 8.89967e-22)
(0.697162 0.0493189 -3.39067e-20)
(1.15708 0.108968 1.26315e-20)
(0.997567 0.112807 -4.41216e-21)
(0.980397 0.294388 9.76371e-22)
(0.998331 0.000787252 7.05085e-21)
(1.00148 0.00223364 -4.80257e-21)
(1.02517 0.0194556 1.16131e-23)
(1.09862 0.0692638 2.64597e-20)
(0.87341 0.050204 -3.91483e-21)
(1.03503 0.0330464 2.28409e-21)
(1.0003 0.0227511 -6.87008e-21)
(0.790636 0.0417482 -2.33939e-20)
(0.991305 0.00185512 -4.22384e-21)
(1.0119 0.0136868 4.91781e-22)
(0.99551 0.0417319 6.51204e-21)
(1.10096 0.070571 -3.29469e-20)
(1.03273 0.0347382 0)
(0.877877 0.539954 0)
(0.965135 0.00326017 0)
(1.01688 0.0764847 0)
(0.741042 0.0499298 2.09609e-20)
(1.01584 0.00831121 -1.75679e-21)
(0.991276 0.00141652 -8.59542e-21)
(1.0226 0.00829357 6.81969e-23)
(1.00066 0.00364108 4.96223e-21)
(-0.00527284 0.0623854 9.65308e-21)
(1.04088 0.0618806 -5.85958e-21)
(0.512331 0.0285198 -4.74302e-21)
(0.990192 0.00366599 1.50283e-21)
(0.434104 0.0269616 1.20073e-20)
(0.687238 0.0490023 2.89493e-20)
(0.675904 0.0174326 -1.01086e-20)
(0.640676 0.0518623 1.84221e-20)
(1.01934 0.107734 0)
(0.715153 0.0550624 -1.90712e-21)
(0.985694 -0.00223792 -1.13477e-20)
(0.895532 0.0471459 -1.52348e-20)
(0.94743 0.0552658 -1.52667e-20)
(1.08323 0.07966 0)
(1.10028 0.0673507 0)
(0.966274 0.00297329 0)
(1.00041 0.0790925 -7.27636e-21)
(0.993271 0.0793478 -7.37863e-21)
(0.95748 0.227195 1.73461e-20)
(0.99597 0.00811912 -3.20779e-21)
(1.01979 0.0238693 2.35005e-21)
(0.805518 0.0425226 1.52392e-20)
(1.00806 0.00687626 0)
(1.01135 0.00763742 -2.07291e-21)
(1.04441 0.0607681 0)
(0.988157 0.0250255 4.18711e-21)
(0.854827 0.120894 -1.9234e-20)
(-0.00965652 0.0460894 3.28747e-20)
(0.987315 0.0247504 8.85657e-21)
(0.996383 0.0628461 1.25805e-21)
(0.99668 0.0642022 1.46489e-21)
(1.01431 0.0173633 0)
(1.09863 0.0269853 0)
(0.976304 0.104912 4.13609e-21)
(1.00085 0.000417062 0)
(1.10303 0.0583495 -3.28957e-20)
(0.809389 0.0443352 0)
(1.08223 0.170325 -4.79332e-22)
(1.05159 0.0279361 0)
(0.721311 0.05567 3.04562e-20)
(0.839523 0.0467091 -3.37149e-20)
(1.08564 0.0189973 1.04638e-20)
(1.0041 0.0252863 -5.54013e-21)
(1.02962 0.0122164 1.59878e-21)
(1.13719 0.162675 5.08848e-21)
(0.988313 0.00331634 -2.49798e-21)
(1.00474 0.000585854 -3.56161e-22)
(1.01539 0.0319493 2.36777e-21)
(1.02232 0.011883 -1.04399e-22)
(0.985013 -0.0020282 -5.96019e-21)
(0.999991 0.000196803 1.23244e-21)
(0.999078 0.000678723 6.60538e-21)
(1.1209 0.0249502 0)
(1.00311 0.000474563 0)
(1.01549 0.000446052 1.36531e-21)
(0.747611 0.178028 0)
(1.09317 0.0658189 0)
(0.999696 0.0229128 0)
(1.01105 0.0126148 2.50145e-21)
(1.00124 0.00238914 -6.66956e-21)
(1.00076 0.0234835 -3.5136e-21)
(0.999077 0.00862515 1.47908e-21)
(0.987026 0.03591 0)
(1.02524 0.0189375 -1.25498e-23)
(1.01731 0.0178882 0)
(0.822492 0.0448888 -1.07658e-20)
(1.0948 0.0470923 -1.00136e-20)
(1.12431 0.114483 2.10818e-20)
(0.998998 -7.85381e-06 -8.08962e-21)
(1.04816 0.0193768 3.73461e-21)
(1.07023 0.0393855 5.53377e-23)
(1.04902 0.0266825 -3.45421e-21)
(1.08674 0.0188184 -1.17827e-20)
(0.934801 0.0635627 4.86978e-21)
(0.828796 0.0317011 0)
(0.483208 0.0387431 7.38778e-21)
(0.698253 0.046785 0)
(0.997769 0.00541979 0)
(1.00191 0.0239318 -3.67951e-21)
(1.09657 0.0733368 0)
(1.09844 0.0499786 -1.39029e-20)
(1.08441 0.0913892 -3.36176e-21)
(1.00771 0.00676258 0)
(1.00289 0.0249541 8.30231e-21)
(1.06148 0.0282505 -7.76717e-21)
(0.989104 0.00635783 1.09846e-20)
(0.887596 0.387217 2.43137e-20)
(0.560265 0.0372578 2.37328e-21)
(0.993026 0.0136323 0)
(0.999239 0.00841705 0)
(0.675833 0.0448464 3.01345e-20)
(0.436561 0.0310618 0)
(1.07739 0.0978566 -4.65636e-21)
(1.08802 0.0692581 -1.1362e-20)
(0.759596 0.0356397 -3.87968e-21)
(0.0246656 0.040313 -3.53259e-20)
(0.994615 0.000908584 4.32881e-21)
(1.06318 0.0582516 1.18117e-20)
(1.09301 0.0471393 -3.10186e-20)
(1.07498 0.0833629 7.53948e-21)
(1.10426 0.0570735 -1.84574e-20)
(1.03168 0.0327124 0)
(1.02211 0.0384016 -8.2029e-22)
(0.934736 0.394267 -3.58123e-21)
(1.03504 0.125978 4.69972e-21)
(1.02176 0.0206384 0)
(0.997016 0.00272246 4.8665e-21)
(1.03986 0.0274228 3.59096e-21)
(1.00134 0.0025119 2.1099e-21)
(1.04715 0.0483545 -6.99125e-21)
(0.687389 0.0190943 0)
(1.06243 0.0747135 -6.82166e-21)
(1.02161 0.0163095 -1.00092e-22)
(1.06243 0.0282387 0)
(0.981117 -0.00563576 6.0697e-23)
(0.987897 0.00374555 1.3066e-20)
(1.04154 0.0216109 -2.33428e-21)
(0.848874 0.0487364 -3.14791e-20)