/*--------------------------------*- C++ -*----------------------------------*\
| =========                 |                                                 |
| \\      /  F ield         | OpenFOAM: The Open Source CFD Toolbox           |
|  \\    /   O peration     | Version:  v2012                                 |
|   \\  /    A nd           | Website:  www.openfoam.com                      |
|    \\/     M anipulation  |                                                 |
\*---------------------------------------------------------------------------*/
FoamFile
{
    version     2.0;
    format      ascii;
    class       volScalarField;
    location    "400";
    object      ddt0(omega);
}
// * * * * * * * * * * * * * * * * * * * * * * * * * * * * * * * * * * * * * //

dimensions      [0 0 -2 0 0 0 0];


internalField   nonuniform List<scalar> 
18598
(
-0.017994
0.219878
-1.63949e-08
-0.0264195
-1.11727e-07
0.00598109
0.0157959
-1.41489e-08
-0.0640952
0.0175539
-6.081e-08
0.0443378
-1.49607e-06
0.0367435
6.64139e-07
0.0288867
0.0850588
0.00248406
-4.42714e-05
-0.296244
-2.02694e-06
-1.18663e-06
0.0899951
-3.67881e-06
6.77477e-08
0.103371
0.0342635
-2.25518e-07
0.0221276
-0.0158455
0.531952
3.21476e-07
2.60348e-05
0.0446876
0.00496649
-0.0185331
4.45459e-07
-5.49034e-06
1.3844e-06
0.182415
-0.0423775
0.631061
-0.158893
0.0218027
0.000442072
3.88456e-05
4.21912e-07
0.35897
-1.4887e-06
1.62821e-07
-5.41758e-07
48.2666
-0.107181
-0.0179754
1.54348e-06
-1.84116e-07
-2.39705e-07
-3.0559e-08
-2.4389e-06
0.00264934
-0.216965
0.188978
8.09723e-07
5.55602e-06
-0.0657475
-0.963851
-2.51818e-06
-5.56276e-06
-3.75164
-1.95351e-07
-0.000442701
-0.00951041
-1.6999
-0.104954
5.99254e-07
-0.0329684
5.28138e-07
-1.82403e-07
0.0124304
-0.000241778
-0.331082
9.1077e-05
-1.22032e-06
0.107743
1.88465e-05
0.431755
-1.98859e-07
-0.0772517
-3.03694e-06
0.00855796
-0.00182161
-0.00932674
0.000639266
0.0387335
-6.75773
2.7299e-06
0.154356
-1.71283e-08
-0.241156
0.052667
-6.06096e-07
-2.84674e-08
-0.00393717
0.00176098
-0.0503884
-3.53214e-05
0.011744
-0.20828
-1.14459e-06
-0.0605661
-0.00248363
-0.21274
8.89949e-07
-0.0102636
0.0155794
-3.56029e-05
-0.256964
-0.00254968
0.000168372
4.35592e-07
0.141996
1.81302e-06
1.00807e-06
4.34842e-05
0.326755
-0.000170573
0.000159201
-0.00723226
-0.0382206
-1.67055e-06
-2.98102e-05
-0.016938
0.416995
0.000936649
-2.86373
-1.23856e-07
0.0265406
-1.1435e-06
3.33733e-07
-0.0116723
-0.0775919
5.20488e-06
-1.63861e-06
0.232065
1.40536e-06
-0.000311644
1.77593
0.0040898
-8.92881e-06
0.00022021
3.393e-05
-0.000286002
-1.12616e-06
0.155469
6.73509e-07
-2.22961e-06
0.246467
-3.91469e-05
-1.4425e-06
0.00098335
0.00819172
0.0564196
-3.81744e-06
-1.6981e-06
-1.39884e-06
0.151388
-0.108967
-4.45597e-09
-0.05739
-0.0454923
5.76597e-07
0.0160844
0.179277
0.11789
0.000248653
-4.55235e-06
0.027192
8.83978e-05
0.00143525
0.271715
0.00701066
-0.52752
-0.0190382
2.17254e-05
-0.172047
0.000847689
-0.062988
0.325889
-1.48211e-07
0.133598
-9.27104e-06
-8.03345e-06
0.0431813
-0.180114
0.000205195
-3.97354e-08
0.377149
-0.287302
0.00766867
-0.12806
-0.343143
-3.23875e-07
-0.00992191
-9.56529e-08
-0.000698191
-0.584758
0.149364
-3.41072e-07
-0.0002712
0.000235681
-0.017161
0.0237374
6.81931e-07
0.0332792
0.0625733
-0.00434076
0.0643601
-1.27798e-05
3.81446e-07
-0.0568655
-8.31885e-07
-2.902e-06
-0.000220007
4.62547e-07
-0.00400444
1.94422e-05
4.10881e-07
-1.76823e-06
0.140084
-1.79704e-06
0.267253
0.0947579
-7.54931e-06
-8.72927e-06
-0.0899003
-0.442612
-2.74725e-05
0.00134459
3.85163e-06
-0.00175738
0.000139801
0.00754647
-0.175148
-3.74247e-07
-0.000178303
1.62608e-05
-0.00563437
5.4235e-06
-0.00736177
-1.98389e-06
0.171767
-0.188153
-0.0777322
0.489456
0.00243066
0.19637
6.67888e-05
0.646761
-3.97903e-06
0.0828536
7.03549e-05
-0.00280374
-0.0818935
-12.4376
2.23122
0.000192211
-9.58988e-07
0.270885
-0.0196985
-0.000264009
7.08167e-07
6.89899e-07
-0.000831039
1.06687e-05
-0.379468
-0.646054
0.316366
0.120873
0.0239633
-0.0155682
0.0044496
-0.158754
4.60738e-05
-0.886677
0.373243
0.00252926
-0.000678404
-0.0235521
2.0394e-06
-0.0622743
-0.0365709
-1.40562
-0.197118
-0.00730864
-10.4036
-0.00428612
3.49627e-07
-0.101836
-0.00167039
-0.0128932
-0.389311
0.0314258
-0.0132514
0.272766
0.000463779
0.0102122
0.338174
-4.18789e-05
-0.18695
-0.0448701
-1.23808
-8.00483e-06
-0.157009
-0.212924
-0.0101502
-0.00355628
-0.0388819
0.000173966
-1.43083e-06
1.52593
3.20499e-06
0.449113
-1.85121e-05
-0.000568007
0.000346637
0.350185
5.47287e-07
-0.0115628
-0.00730487
0.000298459
0.000226961
6.1408e-05
1.17949
0.221153
8.56314e-07
-0.0102444
-4.53182e-05
-0.191805
0.0226558
5.97892e-06
-0.00218919
-0.0118605
0.0416958
-0.168992
6.42969e-06
-0.149723
0.170868
-0.337293
-0.549136
0.243273
-0.00110541
-0.000183394
0.00172356
-0.0484181
0.00797725
-5.65624e-06
0.00703586
0.209246
-0.0100575
3.44711e-07
-2.92809e-06
-0.11988
4.38211e-07
7.75798e-07
8.95636e-06
-4.33616e-06
1.43029
-0.414016
-0.017421
0.0158779
-0.0179817
1.14038
-3.36432e-05
0.346182
6.96262e-07
-1.73043
-0.0213542
0.000335911
-7.72933e-07
0.245485
-0.228424
4.6344e-07
-0.0111609
0.00230023
0.000418524
-0.46908
-2.58804e-06
1.09237e-08
-7.75194e-07
0.000612354
-0.0149301
-0.000682074
-3.36468e-07
-3.74186e-05
-6.80269
4.72147e-05
-0.000386105
-3.97654e-06
0.0470756
-0.000109603
0.000279345
-5.47154e-09
-1.04827e-06
-3.2141e-08
0.458633
0.0832347
1.7655
0.40405
-0.0229004
0.0268171
6.56117e-08
-0.169397
-2.53478e-07
-0.00146307
0.0204137
-0.00472755
0.0087993
0.00793807
-25.6847
0.0074092
-9.61977e-05
-4.37782e-06
-1.49426e-07
-2.26969
0.000131312
-0.000214944
0.000147741
9.15682e-05
-0.00393942
1.06987
-4.06906e-07
-0.0769544
-3.43894e-05
0.0365879
-0.0123495
0.225227
-9.39046e-08
7.35087e-07
-0.108654
-4.853e-07
2.89193
-1.03934
9.513e-08
-6.6287e-06
1.05722e-05
-0.169442
-0.081675
0.204857
0.00186324
-0.0785367
2.13595e-07
0.17721
-1.15211
-4.46794e-08
-23.2802
-0.00216708
-0.000199827
-1.21978e-07
0.000273001
-4.17116e-07
0.00433813
3.35511e-07
-5.17159e-08
-0.0327733
0.0156117
-3.7816e-06
-0.0235466
-9.49491e-09
-0.065602
0.000203739
-3.95686e-06
2.39219e-05
1.97177e-06
-0.639876
-4.70877e-06
-4.42451e-07
-0.0312214
-0.000719604
-0.108777
-0.0185709
-3.44768e-07
-0.253636
0.0562644
-0.00187615
4.07454e-07
-4.92705e-05
5.48596e-07
7.43623e-07
0.0102523
-6.16659e-06
0.000676468
0.00935083
0.00255814
0.0781827
0.524737
0.00018394
-0.0261044
-0.0157805
-0.260609
5.68262e-07
0.518353
-0.055966
8.30207e-06
-0.348003
-6.34225e-06
2.85937e-05
0.195693
1.47892e-05
8.82657e-06
-0.19118
2.5702e-05
-0.000287829
-0.000113456
6.47764e-07
0.0041414
7.71561e-06
-3.99921e-05
0.0330793
-0.156589
-9.03682e-05
-0.000151051
0.0325326
0.000363043
-1.51175e-05
0.000122894
-9.78597
6.40164e-05
-2.71871e-06
-4.63602
0.219529
2.55995e-06
0.0285028
5.0983e-06
-6.20852e-05
0.0424357
0.435559
-0.454883
-1.62143e-06
-1.34864e-07
-4.38385
2.80776e-05
0.246462
-3.99686e-05
-3.2962e-06
5.94336e-06
0.19096
8.82904e-06
-0.00948933
-7.41766e-07
-0.0940809
-0.111479
-0.630651
-0.105446
-2.84712e-06
5.89592
1.48555e-05
0.114077
-0.237571
6.35291e-07
-5.12134e-08
-0.215507
-0.02961
-0.00431587
0.000409747
1.1217e-06
-0.05167
3.87561e-06
-1.55643
-9.35079e-06
0.000222252
1.33879e-06
0.133
-1.94461e-06
-0.00248739
0.228465
-0.0472775
-3.39241e-06
-0.0331964
-7.23673e-06
0.00028978
0.145643
0.00760526
0.237047
8.65016e-08
-1.29879
0.223478
-5.78097e-06
0.0128574
-6.23298e-07
-2.21754
-0.133938
0.000126902
-0.0428748
-6.16392e-07
0.0384999
-0.19953
-0.0508288
8.33625e-07
2.1388e-07
1.50095e-05
6.98113e-05
-1.9485e-06
-7.54199e-05
-3.66392e-05
3.20786e-06
-0.112971
7.2729e-06
-0.0125915
-2.12917e-08
-9.74099e-08
-0.122294
0.27915
-1.03584
4.04613e-06
-0.0568638
8.06068e-06
-0.000197573
1.56165e-06
1.07874e-05
0.138835
-0.0845938
5.37467e-06
7.27374e-07
-0.0378612
-2.26298e-06
-3.85381e-06
-0.0763588
-2.84758e-06
-4.24718e-08
-2.60537e-06
-4.05665e-06
-2.81184e-05
-2.06462e-06
-0.037546
0.000105405
-6.31288e-06
0.012103
-1.10759e-05
-0.16957
0.174042
-0.000108666
7.17666e-07
-0.000224526
-0.0458093
-2.23749e-06
0.000379917
-9.1334e-07
-1.48486e-08
-0.190389
0.310052
-2.5923e-07
7.9232e-07
5.37445e-05
7.15329e-07
-6.90561e-06
-0.081661
-0.137019
-3.69372e-05
-0.00207185
0.117339
6.85154e-06
0.00242565
-0.00446022
0.0355643
0.00439268
-0.0505041
-2.89753e-06
6.01772e-07
-0.132671
2.15357e-06
-8.57225e-07
0.153601
1.98589e-06
-0.0652434
0.000297362
-1.1191e-07
-1.08746e-06
-8.41952e-07
0.0244001
-0.632443
-0.00137861
-3.56651e-06
-3.25568e-05
1.74047e-09
-0.00592736
-0.141949
2.20672e-05
-1.3371
1.07185e-07
1.00914e-06
-2.31111e-06
5.45451e-05
7.82285e-07
0.0200546
-1.62736e-05
0.00781723
0.932323
-0.0112516
3.81812e-05
-7.28891e-07
-4.68234e-09
0.0201403
-1.81357e-06
-0.0158677
-0.00600255
1.00525e-05
0.010482
0.00762181
0.566982
8.07454e-07
0.182211
5.88808e-07
0.302155
-0.00151063
-0.0332019
0.0153172
0.186568
0.00912662
-2.88303e-08
-0.0103019
0.00323075
7.35478e-07
-0.145419
0.437433
0.000151105
-0.000291848
8.06122e-07
-0.0564554
1.95407e-05
8.87709e-07
0.633312
-6.02176e-05
-0.0576238
0.156642
8.21262e-07
0.0270403
1.25706e-07
4.24156e-07
0.525906
0.0189739
-3.8422e-08
-0.111746
5.63669e-07
0.00673707
-2.43744
0.166791
-0.176266
-0.111435
0.34357
0.0010232
-0.121693
2.03046e-07
-0.0045626
9.64188
-0.492528
0.00178065
0.0067892
-0.198429
0.212442
-0.639457
-1.21736
-0.346528
4.95249e-06
-1.61992e-06
-0.0146156
-4.76934e-07
0.289192
-0.00422283
-4.94839e-05
-1.05311
0.00113503
3.04969e-05
0.000670399
7.92073e-07
-8.43293e-08
-5.03088e-06
0.0165653
0.00115724
-4.00059e-07
0.0270725
-1.96364e-07
0.0221684
-0.0258917
-0.0917957
-8.2584e-06
-0.0408726
-5.41534e-06
2.19523e-06
-0.000136037
0.163665
-0.00450176
-3.07285e-07
3.01024e-07
-3.49707e-08
-0.00475876
-4.31019e-07
-0.520058
0.0225299
-0.340996
0.283879
5.06323e-06
0.0853219
0.0603158
-1.76915e-06
7.11174e-05
-2.3594e-06
7.90578e-06
-0.53941
8.17292e-07
-3.24617e-07
0.000357616
0.00903714
2.72911e-06
-0.0508127
-0.184004
-0.00617307
-0.000416362
1.81329e-06
-2.50815e-08
2.99388
-3.87955e-09
2.12461e-05
2.07262e-05
-1.26479e-06
-2.76079e-06
-2.54875e-07
-0.506434
0.0492574
1.59305e-05
0.000140831
-0.0605838
1.26682
-4.39689e-07
-1.62384e-06
-3.19798e-07
0.00429028
-0.34014
-0.0738946
0.0288547
0.2518
2.15305e-05
0.02786
-1.48522e-07
-0.000220414
-0.000890687
1.92859
0.166944
5.69553e-05
-0.208094
-2.4199e-06
0.000242266
0.000492199
3.16128e-08
-3.87532e-07
0.0511857
0.0114008
-9.21154e-07
-0.0126362
0.392734
0.028371
0.00901729
-0.0214212
2.97508e-07
-3.31258e-05
-4.73283e-07
1.62213e-07
0.334897
-0.219148
-0.0361756
-0.0012591
-1.87307e-06
-0.0473743
5.29992e-09
-0.0412066
-1.26944e-07
1.83504e-06
-0.0339557
-1.81903e-07
0.000763063
-0.215196
2.31224e-06
-8.3393e-08
-1.30008e-06
-0.00020318
-0.0537616
-0.301859
-0.341551
1.51673e-06
0.00028669
7.30809e-07
-2.47397
-0.24958
4.07217e-07
-6.31598e-05
-3.28798e-06
-0.000731282
0.0168206
-4.45402e-06
0.537248
0.0424526
3.04475e-08
-0.160616
0.0382941
-2.98395e-06
0.400673
9.09455e-09
-2.5494e-06
-0.0730295
-29.4448
3.2707e-05
0.132831
-2.3665e-06
0.0580203
2.09064e-07
-7.46612e-07
-5.16435e-07
-9.95096e-07
0.000519437
-2.28991e-07
0.00791348
-9.89076e-07
-4.06189
-0.17477
0.0209157
-1.09106e-06
0.452013
0.010303
0.0217486
6.40604e-07
-7.93599e-05
-2.29757
8.18738e-06
1.08314e-06
0.0116728
0.0171515
-1.19467e-06
-8.24258e-06
-1.76041e-06
0.0112631
0.274786
1.24774e-07
-3.95688e-07
1.38625e-07
0.0232755
-3.87438e-07
-1.29321e-07
-2.15538e-07
-0.0361461
-1.68576e-06
-7.71438e-06
-1.99126e-07
0.00173145
3.15921e-05
1.28913e-06
-0.0446585
3.07378e-06
0.318333
8.69218e-05
-1.82289e-06
0.403225
-1.55473
-0.0147461
-0.067908
-2.08661e-06
-0.0785157
6.89941e-07
0.185351
0.0292504
7.05879e-07
1.87016e-05
-1.34852
-3.13267
0.0415008
3.23758e-06
-0.0494219
-3.47935e-05
0.00411861
-0.298676
-0.0531802
-2.56842e-06
-7.25383e-07
0.00013392
-3.43972e-09
-4.16362e-07
-0.000108504
0.105555
0.0110447
0.0300583
-2.30016
0.00136879
-0.328465
-0.212401
1.33464e-07
-0.528776
-0.0353928
0.000297049
-0.127172
0.320129
-0.504033
-0.187624
0.00572394
9.11569e-05
2.96045e-07
-0.00889112
-5.76039e-08
-0.00360282
-0.0965577
-0.000124417
4.71576e-06
0.00833005
3.87643e-05
-0.0110179
2.15028e-07
1.86051e-06
9.44342e-06
-7.5751e-06
-0.0288714
0.3918
-0.195669
2.67787e-05
-2.37262e-05
0.00617052
4.20661e-07
-2.3726e-10
3.4468e-05
-3.13672e-07
-0.138861
-0.000990752
7.01464e-07
-0.265603
-6.80123e-05
-0.107465
0.53486
2.36168e-07
0.0372753
-0.00111582
-0.000240073
-2.11716e-07
0.000739782
-4.83544e-08
-0.175997
-0.588517
-1.35605e-05
0.456017
0.00159971
0.00279825
0.19794
1.75976e-06
7.86322e-07
3.26608e-07
0.0041113
0.0109019
3.75616e-05
-0.229143
0.00081097
2.64004e-06
-2.14111
-0.000187729
0.0801235
2.5847e-05
7.29666e-05
-0.374472
-0.0541842
0.000749353
0.0403597
-0.0201812
0.000372803
0.221476
-1.66329e-06
0.00574892
3.6344e-06
0.135465
1.96556e-06
-0.165037
-0.000293528
-0.181327
-4.09823e-06
-0.327813
-4.11036e-06
-0.109479
-2.88441e-05
-3.70842e-06
0.00527765
-1.98015e-06
-0.0170134
0.951734
-1.59616e-06
0.24835
0.00307047
-0.146291
2.75217e-05
0.00291832
3.97728e-06
-0.00629351
-0.222204
-3.28943e-06
0.39552
0.49317
0.153258
3.02183e-07
0.25323
-6.29059e-05
-2.30292e-06
-3.91693e-06
-0.225554
-0.00171496
-3.15449e-07
0.161375
1.35329
1.70648e-07
-0.354118
0.267572
-0.000886101
2.50347e-05
0.00212703
-0.202883
-0.112349
0.00853514
-0.00179847
-4.33076e-05
-8.30227e-06
-2.40241e-05
-0.0779749
-1.62452e-09
-2.37552e-08
-3.90608e-06
-2.89698e-07
-1.36881e-06
1.93529e-05
0.420309
-0.537036
-3.32842e-07
0.256085
-0.00890271
0.800033
-6.11763e-06
-0.000898829
-0.00477388
0.00173983
-0.00169217
1.05922
-4.01434e-08
-1.34909e-05
-0.000301807
-2.20493e-08
3.10544e-06
4.60275e-06
-0.840316
-0.065326
0.00277811
1.25461e-06
-5.29062e-05
7.53057e-07
-4.18421e-08
4.9073e-06
0.294874
0.0590662
-0.164723
1.54293e-07
-8.13104e-07
-7.9881e-05
0.0613671
-0.000220413
0.358398
-2.9394e-06
-0.138304
0.109549
-4.18686e-05
-2.18451e-06
1.71793e-05
-2.24647e-08
0.0218756
0.0016909
-0.000244569
0.00067675
0.327205
1.15199
-0.115913
-0.00160106
-0.00255566
0.00463391
-3.43031e-06
1.53329
-0.292717
0.000795851
-0.0172197
-0.000448122
-1.94669e-05
0.000198544
0.00345746
-3.76625e-06
-0.000450118
-1.18382e-05
-0.0901534
-2.38018e-06
0.000857408
-0.00147399
-0.201974
0.0174172
1.76554
6.97567e-06
-3.09645e-07
-2.30832e-05
0.0862053
4.94271e-07
6.72367e-07
-0.00755393
-0.000852029
-0.014694
-0.00622519
0.00656281
0.0384176
-2.32402e-06
9.07625e-08
-8.43061e-06
0.00831051
-8.67661e-06
0.00284633
-1.6996e-08
-1.2693e-06
-0.0182918
-0.0159866
1.55303e-06
-0.0148571
-0.0240859
-4.71834
9.77121e-07
-0.332187
3.30845e-07
-0.780534
-0.000105837
0.443139
-0.0309775
0.0580922
-1.62616e-07
0.00177016
-0.628068
0.0085911
-7.23379e-06
0.0195725
-4.05137
-0.051558
3.58508e-07
-0.13898
-0.00573925
-1.66527
0.00968817
0.226838
0.220504
-1.17907e-06
-4.55088e-09
-4.79675e-08
7.4111e-07
-1.44544e-05
-1.45898e-06
1.82601e-05
-7.21645e-06
-2.53971e-06
-0.178946
0.101923
1.80051e-07
-0.0846104
-4.10021e-06
0.128285
4.79749e-08
-1.42932
-3.53144e-08
-4.36917e-08
-0.00225211
9.41223e-06
0.770891
-2.8748e-06
4.1373e-07
-1.95347e-06
0.677687
-4.43749e-09
3.08008e-08
-0.00859888
-0.364639
-0.593304
7.55073e-06
-0.000301591
0.0169197
1.41619e-05
2.4167e-07
-0.000221779
-1.55829e-06
2.55832e-07
0.235678
1.28316
-0.0088653
4.67587e-07
-2.6849e-05
8.36315e-05
-2.36991e-08
0.499264
-0.00606867
1.37939e-06
-1.41283e-05
0.61817
0.0058891
1.55114e-07
-0.0502034
0.000722512
-0.0537817
-0.000133468
-0.00379974
-0.0160687
-0.0171398
0.245284
-6.59676e-07
-0.0244597
0.00156651
-3.14451e-06
-4.68992e-07
-1.8589e-06
-0.000184436
5.62177e-05
-0.0186336
-0.000442073
-0.00506499
-0.289899
-2.19932
-0.0402469
1.71987e-05
6.83419e-06
-5.97005e-08
7.86064e-07
-2.34414e-05
0.000217662
0.00202915
-1.91878e-08
2.02762e-08
-7.18094e-08
0.312535
0.290764
0.000883772
0.0192867
-1.18751e-06
-7.26339e-05
0.485733
-7.87642e-05
0.00131193
0.485008
-0.0256574
-4.59775
-0.000951303
-5.14757e-07
-7.41617e-07
-0.0290428
5.60086e-05
-2.99622e-07
0.000168849
0.00798197
9.00513e-06
-0.768406
-0.0350882
9.74928e-06
0.241813
0.000393041
0.35333
0.339398
-0.00667438
5.87755e-05
-0.000605664
-0.0503803
-2.09009e-06
2.60224e-06
4.74212e-05
-2.12902e-06
-0.00400961
-0.00415021
0.211432
2.82234e-07
0.0155578
-2.53899e-08
0.000296586
0.237961
-3.9352e-05
0.322298
0.0235607
-2.35566e-07
1.67161e-05
-0.0411912
5.66614e-05
2.02855e-06
0.0316745
-1.62465e-06
2.37662e-07
-0.24764
-0.00813416
0.00136569
0.000586142
9.89211e-07
-0.0158474
-0.0406838
0.00414602
0.0160457
-1.56759e-06
0.0308647
-0.0573121
0.0716933
-0.000447808
0.369841
-1.9337e-07
0.728507
-0.196267
1.27865
4.01227e-05
3.45299e-05
2.89368e-07
-1.77467e-06
-0.0162242
-0.0297731
-6.82153e-05
1.73661e-06
0.0361994
-1.63807e-06
4.57077e-06
0.245823
-0.193949
-0.0483299
9.77786e-06
-0.114706
-1.38454e-07
-0.0183458
1.70255e-06
-0.047139
2.85798e-07
-2.19323e-06
-0.25207
-0.0170248
1.60664e-05
-0.914898
0.0300525
0.0925043
-1.6494e-05
0.0840693
0.0494011
3.70694e-05
-3.01602e-06
0.0683236
0.000222818
1.20626e-06
0.000623918
-0.000929604
-0.0035066
27.9798
2.13004e-06
0.0201901
0.925776
-2.83459e-07
1.88254e-06
0.0138382
2.50318e-06
0.000385281
0.210027
0.0144248
-1.61041e-06
-0.0393868
-1.56516e-06
-7.93871e-08
1.0904
7.25247e-08
0.00250959
0.00211511
5.86092e-06
2.46547e-06
3.75274e-06
0.0124967
-0.105772
-4.81863e-08
-1.46204e-07
-3.21261e-08
0.00685381
-5.30446e-05
0.188339
-4.74582e-05
4.5295e-06
-0.0194127
0.00618836
-0.00240965
0.00582009
-4.96163e-05
0.00916341
7.21252e-05
-0.00699947
-5.23485e-06
-0.0107349
1.55845
-2.30605e-05
-3.66614e-08
3.90818e-08
1.86195e-07
-0.361334
-0.135421
7.01452e-05
-4.45192e-07
-7.98304e-06
0.000108127
-0.000213187
-0.465233
2.70406
-3.25132e-07
-0.0126341
2.47395e-05
-0.0122842
-1.33921e-07
8.72242e-08
0.0290316
-0.102387
-0.0131206
2.75115e-07
-9.7542e-09
0.00497176
1.38983e-06
0.443721
8.21598e-07
0.0179626
-0.0458818
-0.000354
-0.0224756
-4.05295e-06
0.210798
-2.00313e-06
0.00678496
2.00929e-07
3.02308e-05
0.000510367
-2.30851e-08
0.00173564
-0.00152024
-0.488915
-0.571289
-0.555369
-2.79442e-06
-1.04976e-06
2.94889e-05
0.000828801
-0.000813969
-3.3171e-05
-1.74827e-06
8.82323e-07
-0.0507833
-4.11099e-06
-0.00582972
-0.00125494
-0.472316
-0.210213
-7.17471e-05
0.00261364
0.299964
-7.62308
-3.57636e-06
-0.0606607
-0.058802
-8.5477e-05
-0.0322793
2.52837e-05
-2.29814e-05
0.0552733
0.00293516
-1.83641e-06
-0.531049
-0.00086346
0.0226021
-2.21244e-07
-0.0466018
-0.0102263
-0.0403311
-0.178388
-0.0630435
0.297049
2.16472e-05
-9.35741e-05
-0.00619485
5.76299e-07
-0.00590436
9.92297e-07
1.6246e-06
0.420589
2.35932e-06
0.477144
0.121024
1.29562e-07
2.76203e-06
-0.00148206
0.0361509
0.000706874
-1.27738e-06
2.34523e-05
0.000352009
-0.00327981
-0.210725
-0.000211551
3.82487e-05
0.274717
-1.02119
0.0512935
-0.00490956
-0.00324994
-0.0944694
0.245546
3.613e-07
-0.299527
-0.335106
0.0875134
-0.000203451
1.86728e-07
-7.99627e-08
5.83847e-08
-1.10107e-06
0.721732
-2.415e-06
-0.115483
-9.33926e-07
-3.02728e-06
-0.000236188
2.96625e-08
0.131801
0.013007
-0.000236535
2.36731e-08
7.46178e-07
-0.00527281
0.0087858
4.30462e-05
0.00043055
-3.18858e-07
8.84351e-06
0.00263286
-9.37901
5.72519e-06
0.455872
0.000187051
-0.167059
0.00036337
-0.263572
3.69708e-06
8.77646e-06
0.00033614
5.28767e-09
-0.187021
1.73904e-07
0.00560927
-1.64681e-07
-0.0152511
-0.0161315
-0.00795669
-0.000335113
-1.02001e-07
0.00583156
4.5486e-08
9.50488e-07
-1.39322e-05
9.51433e-08
-2.51925e-07
0.002482
0.00839571
-1.79272e-06
4.21776e-06
0.0120164
-0.209474
2.72447e-06
-0.00061838
-0.144801
-1.37588
0.00779823
0.00012546
-0.00970309
-3.82484e-08
8.08407e-06
-0.0345541
-7.00333e-08
0.218753
0.0012506
8.29462e-07
1.70821e-06
-0.00713817
0.175214
6.56538e-05
-1.42834e-07
1.16988e-07
2.51769e-05
-0.13814
0.0580087
1.30859e-05
0.0109516
-0.34222
-0.105345
-0.000120031
-0.0314327
-0.038941
-0.196089
0.393003
-0.0705694
2.95746e-08
-2.44853e-08
0.251913
0.187194
-1.21585e-06
-0.0117725
-0.00131633
-0.192154
8.61442e-06
0.0332361
-2.15841e-09
-1.14797
-8.11703e-08
0.00415018
-5.51436e-08
-0.000346956
-0.0842009
6.98864e-06
0.000306126
-3.81791
-2.60242e-06
0.00717726
-3.89812e-06
-0.0102364
6.66027e-07
0.396822
1.33423e-06
-0.00127875
-5.47484e-05
-0.460157
0.496386
-9.6276e-08
-7.16266e-05
-0.95055
4.28062e-07
6.09788e-05
0.204611
-2.39824e-05
2.63058e-06
1.04366e-07
1.32196e-05
0.0312572
-0.000535836
2.59982e-06
-6.74473e-06
0.0237894
3.12414e-08
0.117444
0.000372382
3.40254e-05
0.00520477
-7.8185e-09
-3.66471e-06
-4.55667e-07
-0.000310476
1.00121e-07
6.72946e-07
0.0205575
0.0328818
-0.304029
1.30408e-06
0.369373
0.000229916
-8.16397
0.134604
-0.535967
7.73971e-08
-2.50668e-07
1.17441e-06
2.03387e-06
-0.182901
-9.37747e-06
-0.00206113
2.40312e-05
-0.0435158
7.78675e-07
3.29341e-06
-0.222152
6.86161e-06
0.0159152
0.781308
0.339572
3.84657e-05
0.000249399
-0.000590042
-0.00474751
4.30943e-05
0.00298458
-0.75785
-8.61571e-06
0.41744
5.8379e-07
0.00783518
-6.10216e-06
-0.0933399
0.000114125
-0.0483337
0.00979394
0.000422254
-1.10028e-05
0.00186417
4.17262e-08
-4.48341e-05
-0.107303
7.53678e-05
7.79645e-06
-8.49961e-09
1.60339e-05
-0.00397861
0.21103
-0.000133091
-0.117916
1.18542
0.00677241
-0.117316
-3.1822e-09
1.73359e-05
-9.41722e-08
4.11739e-08
-0.00017305
-0.0312634
-1.75017e-06
0.180587
-0.00551671
-0.0131167
0.279316
0.717431
-0.0191467
0.810637
-1.62178e-08
-0.0261256
0.137208
-0.00591547
0.000268417
-2.37656
0.52246
0.359644
0.075315
0.294034
0.0128435
1.15791e-07
0.294512
0.0214504
3.09476e-06
-0.0080921
0.00160014
0.0109429
0.511701
0.00699941
0.000197408
-5.62174e-06
0.016603
-0.00897382
3.25919e-06
2.95612e-08
-0.0051071
-1.03749
5.50594e-06
-3.74522
-2.7875e-06
-2.57919e-06
-0.0121259
9.19709e-06
7.35096e-07
4.05327e-07
0.392981
5.12146e-07
-0.322691
-0.00610456
1.40809e-07
0.0265548
-1.49877e-07
-5.23178e-07
0.51821
-0.0466034
6.92362e-07
5.68873e-08
-0.065239
0.0344955
4.80092e-06
1.67804e-08
0.00478599
-0.0213314
-31.1418
0.0013405
2.56804e-05
5.17987e-07
-0.0815295
-0.675575
-2.94748e-06
0.0196452
-0.0372461
-0.000274032
0.370402
-0.0601133
0.196795
7.64581e-07
-0.0229533
0.000112969
-1.84986e-07
-0.0435438
-1.52693
-0.035347
5.40646e-07
-0.166958
-1.36653e-07
-6.38935e-07
0.0760444
8.21092e-06
-0.0505929
-6.1157e-06
-1.32997e-08
-0.274747
-0.0384935
-5.44788e-07
6.42016e-06
-8.17564e-06
-0.0611138
-0.170247
-0.0488001
0.356982
6.39218e-06
-0.000129212
5.62162e-06
3.14423e-06
-0.319353
0.452566
-0.0409338
-0.0257848
-0.352012
1.88436e-06
-0.00397474
0.00142824
0.000149476
3.89142e-07
-0.0035605
-3.76658e-06
6.30515e-05
3.20208e-06
7.58962e-06
1.38468e-06
-0.150256
4.20874e-06
-2.46437e-06
0.0240933
0.00620865
0.0088832
-1.68385e-07
0.0323582
-3.84933e-06
-2.29945e-05
-8.38525e-09
-2.24846e-06
0.206828
-1.13732
0.000226592
0.127145
-0.133436
-5.5036e-07
0.0015412
-7.76513e-08
-0.000135712
-0.00228723
1.79754e-05
-4.04521e-06
-0.00209212
-0.882894
0.167164
0.0363495
-4.1481e-07
6.75034e-06
-0.00335537
0.00137764
-0.0262378
-0.000600609
-0.330844
0.0433021
-8.57724e-06
-0.000274585
-0.0837616
1.12344e-06
-0.0134773
0.0441529
-0.245837
-0.000651079
-0.548697
-0.194861
-0.0858704
-6.56153e-07
7.74577e-07
-1.0277e-06
9.12106e-07
-0.152617
0.204026
0.13846
-0.0143345
-2.92671e-06
3.59009e-06
4.56133e-08
-0.0401975
-7.88607e-07
3.60925e-06
0.0874619
-0.336937
-0.000113746
-4.57671e-07
1.47537e-07
-0.0573284
1.34957e-06
9.57321e-05
-1.33288e-05
3.96865e-06
-1.5304e-06
0.0355977
3.34594e-07
-1.10765e-06
1.20389e-07
0.231553
0.000465872
-0.0443643
0.0110083
2.62513e-06
-0.609529
-3.12021e-07
0.00800458
2.48237e-08
-2.32311
4.15627e-06
-1.41405e-05
1.37537e-05
-0.000258998
-0.011163
-6.17497e-07
-5.97118e-07
2.25356e-07
0.419654
-5.90925e-05
-0.979625
0.00307103
-3.74256e-07
-0.185654
8.19676e-05
3.15354e-07
8.99076e-07
-0.0543
-1.12141e-07
-0.345925
-1.10055e-05
-5.48115e-08
-0.0242109
-0.171869
0.00815923
0.000189521
-0.00409172
2.20083e-05
3.38782e-05
0.0179436
-1.00752e-06
0.00241005
1.75004e-06
0.0605742
-0.320908
0.0214862
-4.59832e-07
-1.06713e-06
-0.512859
5.28383e-06
0.00182833
0.00109425
-1.76153
-0.0682455
0.00869918
0.0412356
-1.13448e-06
-1.61704e-07
-0.500863
0.201016
-1.30824e-06
0.110804
5.0056e-06
-1.77625e-05
-7.09073e-08
0.227094
-3.4981e-06
0.00373311
-0.0576039
0.405864
1.75645e-07
0.00547095
-1.87365
3.24949e-05
-0.000131153
0.000596984
-2.33783e-09
0.0895482
-0.0134019
0.000115568
0.0115164
-1.31405e-05
-0.962027
-0.166045
2.80741e-06
6.80915e-07
-0.00404742
0.000123125
-29.7489
0.027402
6.35262e-05
-0.000248639
-6.9564e-05
0.00107613
2.26006e-05
0.224329
0.029559
0.151824
1.01259e-06
0.000674224
-0.274184
1.84411e-05
-0.11033
-1.63164e-07
1.15072e-07
-0.023086
2.99823e-05
0.00100949
0.221913
-0.266679
0.144871
0.00918714
-3.6719e-08
-1.06827e-06
4.23769e-08
0.00376175
-0.0892687
-0.0229449
-0.520649
-0.177577
-1.59406e-08
-0.00463923
0.0880616
4.64678e-07
-0.000113618
2.52479e-05
0.485399
0.000718648
0.00296225
-4.29064e-07
-0.0567869
-6.74442e-07
-0.084956
-0.0084745
8.80066e-05
0.00495474
-0.328298
-0.0204956
0.055882
-0.0383066
0.00502359
4.76915e-07
0.510123
0.128556
-7.50124e-06
-0.0118297
1.28532e-07
-1.69671e-07
-4.58503e-08
0.0180862
-0.00721587
1.15774e-05
-0.00719556
0.000485791
1.32208e-06
-8.00365e-07
-0.541538
-6.30063e-05
-0.00278705
0.101612
3.83612e-05
-5.17687e-05
-8.12849e-06
2.33091e-06
1.07926
-3.69332e-07
2.47657e-06
-0.0707569
4.79538e-07
-0.00500175
-0.047353
0.00864796
-0.457151
0.102199
-0.000159493
1.17638
4.677e-06
-0.0107673
0.00634804
0.00406886
2.69751e-05
7.26124e-07
0.00544697
0.24367
4.71617e-06
2.3176e-07
-1.06589
-2.67138e-06
0.00517082
-0.0288884
2.61094e-06
-0.0008646
-6.47791e-07
1.8094e-07
0.347606
4.48777e-06
2.60128e-05
-1.04797
-4.5362e-08
-0.00771998
0.0472485
2.9077e-07
-0.0192163
-0.0425222
-0.116737
-1.51707e-06
9.47308e-07
-0.504097
7.13523e-07
-0.011881
0.0107272
-0.432578
1.05627e-07
-0.0271175
-2.87772e-07
-4.65431e-07
3.60815e-07
-1.70335e-07
1.8786e-06
0.237235
9.34079e-07
-0.419099
1.58975e-07
0.36968
-1.53254e-06
0.0657175
-0.363638
-0.00546423
8.75431e-08
2.88703e-05
-0.0144657
8.82538e-05
0.0671554
-0.00993729
-0.0745957
-0.00013407
0.000100516
5.60856e-05
0.000239157
0.0134604
-9.13225e-05
7.37575e-05
6.95492e-09
-0.419071
-0.129167
-0.00269677
-0.0435303
-0.000291984
3.31597e-08
9.47312e-07
-0.000118806
-1.2396e-06
0.0181362
-8.54752e-09
0.001313
0.0984389
6.30134e-07
-0.105609
9.2451e-07
0.071208
-0.00109754
-0.216979
-3.031e-09
-0.369089
-0.00164049
6.11343e-07
0.00264841
-0.0256259
4.69259e-05
-0.173521
2.17944e-08
-8.74855e-06
-1.09285e-06
0.224533
0.0484975
0.435817
-0.00517649
0.0129853
-0.000535519
0.537405
-0.0460013
-9.95972e-05
0.0130105
-0.000503293
-0.003039
0.0641871
0.00628882
-0.216303
-0.000356753
-0.00632913
0.000900947
-3.43776e-08
-0.0100608
-9.36846e-07
-1.5427
-0.000326402
-5.05545e-09
-1.31091e-05
-2.43139e-06
1.46256e-07
-1.23163e-06
-1.28217e-06
-1.14262e-07
0.140764
0.0340283
5.91137e-07
-2.64546
-0.0838608
0.00127756
-0.000116397
-0.00629036
1.04149e-05
8.23863e-07
-2.51775e-07
-0.00420645
-0.208489
-0.0175786
-0.0195672
-2.09432e-07
-0.112014
-3.38893e-06
3.89916e-05
-4.92401e-05
0.000963746
7.33069e-07
0.00194292
0.00120099
0.0608073
-1.51534e-06
0.00135379
-0.0106593
-0.0224364
0.00922138
-0.195419
-0.0472135
-0.115624
-5.78246e-07
0.00023898
3.77838e-05
7.62046e-07
-0.0261063
0.186694
-0.208591
-1.64033
0.00371596
-1.14038
7.30022e-06
3.57374e-06
1.09008e-05
-6.27597e-07
9.79481e-06
-0.157555
0.27094
-0.137589
-5.09063e-07
0.242605
-0.00270675
0.00024885
0.00122349
0.00850209
6.42317e-07
-0.000106868
-0.00602114
4.41843e-06
0.0352019
-0.453528
-0.477404
-0.0112672
1.85203e-06
4.27818e-08
-0.0541608
-0.146706
0.0816834
0.204116
-1.04849e-06
-0.016208
0.00630433
4.79205e-07
6.55968e-06
-0.0244136
-2.64863e-06
0.235933
-0.1083
-0.0248413
0.0150671
-0.247911
-0.230304
0.000156762
-0.000855527
0.00644201
0.473374
-0.00249913
4.3943e-07
-2.13394e-07
0.0560405
-0.951345
0.00772688
0.269571
-9.20445e-07
-0.00105964
0.244054
-3.1326e-05
-0.00140405
-1.03114e-07
0.10075
-0.664948
-0.0894013
6.36726e-07
-1.50729e-08
-0.0143981
0.0436704
1.28607e-07
0.795544
-1.21302e-06
-6.01565e-07
2.19914e-08
-0.0584347
7.51785e-07
-0.0501588
0.0898992
0.676512
4.00407e-07
3.28133e-07
-0.585109
0.000903155
-0.71552
0.0187339
-5.60497e-07
-0.868259
-0.00199108
0.00225157
-3.62188e-06
3.8801e-06
0.166805
-0.0419088
0.035782
0.34187
0.23832
3.97137e-06
0.029978
-0.0510886
0.0117401
-0.0424062
-5.87589e-05
0.256895
-1.27699e-06
0.284516
0.000129071
-8.15407e-07
-1.67348e-07
-0.00148287
0.0733713
-1.17603
-0.347272
0.200465
-0.107546
-3.70454e-06
-1.65055e-07
0.0846469
0.000146947
-1.03044e-06
-0.183018
0.0141048
-2.32385e-06
-0.0472302
0.0464547
7.66273e-07
-1.04148e-06
3.00275e-08
0.0640348
0.0923171
-1.92843e-07
0.249094
-1.41336e-06
2.07941e-05
-3.15542e-07
7.80857e-07
-0.00538904
-3.04361e-06
0.000543832
-7.73374e-08
0.00338972
0.654165
0.00546123
-0.226938
0.283929
0.451336
-0.000131514
0.00612665
-0.147288
-0.0903957
-0.00606619
0.0528825
1.53182e-07
-2.86302e-06
0.0251806
0.240795
-0.713337
-0.0995037
0.208474
9.75319e-06
-0.000223319
0.135806
0.468788
-2.35856e-06
0.181994
1.2994
-0.548808
0.156309
0.2414
-2.66445e-09
3.96595
-1.15676e-06
-7.12062e-08
-0.0262399
-0.00250051
0.0687619
0.0159461
-2.05303e-06
0.235144
5.63107e-10
0.00650027
-1.17864e-05
0.0813421
-0.00266122
0.256776
1.20138e-07
0.00506206
2.89813e-06
-5.31485e-06
0.334484
0.27221
-3.95367e-08
0.530487
6.92368e-07
0.0183343
0.33832
0.248471
0.0627553
-0.0357666
-0.0620374
-0.0360972
-1.03493e-06
0.0314395
1.13032
-0.00182861
-2.52752e-07
0.104426
0.0487612
0.516509
-5.27774e-07
1.18985e-06
-0.132073
0.0305324
0.189943
-0.00181611
0.00737421
-1.6734e-06
0.00639748
-0.00205905
0.38918
-0.000285833
-0.130716
-0.00860923
1.69461e-07
0.0341232
0.292634
0.0144632
0.284964
-0.0128376
-1.0972e-07
0.0917826
1.85895e-05
-1.28822e-08
0.119604
-3.24205e-09
-0.0338039
-5.088e-07
7.05869e-07
-4.01348e-07
0.000184532
-5.75438e-05
0.315459
-0.00283519
3.08268e-06