/*--------------------------------*- C++ -*----------------------------------*\
| =========                 |                                                 |
| \\      /  F ield         | OpenFOAM: The Open Source CFD Toolbox           |
|  \\    /   O peration     | Version:  v2012                                 |
|   \\  /    A nd           | Website:  www.openfoam.com                      |
|    \\/     M anipulation  |                                                 |
\*---------------------------------------------------------------------------*/
FoamFile
{
    version     2.0;
    format      ascii;
    class       volScalarField;
    location    "400";
    object      ddt0(k);
}
// * * * * * * * * * * * * * * * * * * * * * * * * * * * * * * * * * * * * * //

dimensions      [0 2 -3 0 0 0 0];


internalField   nonuniform List<scalar> 
18598
(
-5.94169e-06
6.53218e-05
-2.53926e-10
-3.47439e-06
-2.12956e-09
2.71851e-06
6.939e-07
5.21448e-11
4.4457e-05
0.00642771
-2.19453e-08
-0.000189971
-2.09139e-08
-0.000217726
1.01002e-08
3.36954e-06
-0.00375591
1.89237e-06
-2.8719e-07
0.00095564
6.60683e-08
-2.84467e-08
-0.00032753
-3.44234e-08
6.99621e-10
-0.00443744
-0.000168478
-1.11313e-08
-3.19537e-06
-5.261e-06
0.00273867
4.79162e-09
-7.06268e-09
9.9704e-06
-1.18313e-06
-1.15801e-05
7.16948e-09
-3.26811e-08
1.3626e-08
0.00146623
-1.05272e-05
4.22037e-06
-1.01483e-05
-0.000201825
1.2444e-07
2.05819e-08
6.27664e-09
0.014408
-1.51675e-08
2.2038e-09
-8.36683e-09
-0.0504836
-1.16667e-05
-1.70813e-05
3.58293e-09
-2.85282e-09
-5.17763e-09
-4.66539e-10
-2.57569e-08
-2.91306e-07
-0.0023009
-8.89445e-06
-6.54171e-09
1.09578e-08
-2.06687e-05
-0.000574051
-2.65711e-08
6.9324e-08
-0.000131969
-2.68263e-09
-3.57175e-07
-1.2568e-06
-0.00625165
-1.43239e-05
9.041e-09
-9.95209e-06
8.06447e-09
-2.7881e-09
-2.87482e-06
-1.26199e-07
0.000866088
1.23801e-07
-1.24598e-08
-0.00474669
-3.19688e-08
0.0048256
-3.29731e-09
-0.000451201
-4.27996e-08
-7.2564e-07
-1.15645e-06
-3.83051e-06
-3.46254e-08
2.32767e-06
-0.00602163
1.35364e-08
-0.00173512
-9.97676e-09
0.00189955
1.5829e-05
-6.04294e-09
-4.00797e-10
-3.90569e-06
1.98334e-06
-5.38241e-06
-1.40205e-07
1.48656e-06
-0.00270416
-1.30034e-08
-2.69309e-05
-8.34128e-07
-0.00266089
1.35145e-08
-6.58227e-06
-1.29573e-06
-4.07513e-08
0.00185352
-5.98076e-07
3.61694e-08
8.5768e-09
-0.000192582
-9.11536e-08
-2.58872e-09
-3.93324e-07
-0.00269325
-7.81636e-08
3.14112e-07
-1.68291e-06
-3.50886e-05
-2.60541e-08
-8.79119e-09
-1.6818e-06
-0.00123777
5.6298e-07
-0.000494458
-2.91668e-09
4.18243e-06
-9.19085e-09
4.81067e-09
-1.87201e-07
0.000326601
9.36701e-08
-2.56495e-08
-0.000125028
4.96427e-08
-2.73584e-07
0.000964599
-5.74859e-06
-1.25369e-07
-2.80698e-07
4.8801e-08
-5.54203e-07
-2.83447e-09
0.00179119
6.87149e-09
-4.43034e-08
0.00177531
7.24348e-08
-1.93252e-08
6.78856e-07
2.14375e-06
2.63953e-06
-4.65317e-08
-2.8278e-08
-2.24587e-08
0.00159125
-8.61892e-05
-4.86064e-11
-4.41673e-06
-1.09079e-05
8.68931e-09
-4.83878e-08
2.20105e-05
8.01139e-06
1.03491e-07
-5.73169e-08
-0.000223491
1.30091e-07
8.03752e-07
0.00214756
1.13673e-06
0.000661978
-3.57097e-06
-1.98792e-08
-0.00177886
9.18549e-07
-0.00120979
0.000716314
6.93557e-09
1.39323e-05
5.36991e-08
-1.09971e-07
-5.63603e-07
-0.00371264
3.78021e-07
-1.37879e-09
0.00216825
-0.00234808
2.23386e-06
-9.97166e-06
-0.00354595
-4.8726e-09
-8.81515e-07
-1.45837e-09
-4.87103e-07
-0.00159915
0.000252465
4.93627e-09
-3.14731e-07
2.29986e-08
-6.71404e-06
-0.00305292
1.0427e-08
3.83635e-06
1.0161e-05
-1.43013e-06
1.03923e-05
2.22069e-08
5.90664e-09
-3.24706e-06
-1.24385e-08
-4.04694e-08
-5.10694e-08
1.65228e-08
2.95946e-07
1.09869e-07
-1.6678e-09
-2.6978e-08
-0.000194544
-2.93767e-08
-0.00281702
1.26987e-05
-6.01e-08
2.17839e-08
4.63066e-06
-0.000321373
-1.26493e-07
8.49307e-07
7.02727e-09
-1.21069e-06
1.64175e-07
1.53261e-06
-0.00231586
-9.61915e-09
2.12286e-07
3.18713e-08
3.14786e-07
8.73443e-08
-3.19308e-06
-1.7303e-08
0.0012922
3.29359e-05
-0.000476961
0.000390425
-1.19998e-06
0.000605839
1.69023e-07
0.00879113
-5.32293e-08
-0.00479153
3.32636e-07
-3.09598e-06
-0.00224621
-0.00616985
-0.000870251
3.82411e-07
-1.42126e-08
0.00656274
-3.01027e-07
-2.21238e-07
1.07206e-08
8.24475e-09
1.04362e-06
1.71071e-07
-0.000354567
-0.00162845
0.00111243
-0.0039149
-3.7329e-07
-4.2766e-06
4.28318e-07
0.000264608
-1.38203e-07
0.00015543
-0.00258851
1.08295e-06
-1.85356e-06
-4.0472e-06
2.09945e-08
-0.00144095
-4.53314e-06
-0.00102202
-0.00198862
-3.31983e-06
0.00452905
-5.92315e-06
-3.98269e-09
-2.5217e-05
1.77781e-07
-4.04459e-06
0.000335435
0.00610202
-9.26379e-07
-0.00219031
4.23112e-07
3.19687e-06
0.00240442
3.56441e-08
-0.00245723
-9.28878e-06
0.00145167
-1.1697e-07
-4.49591e-05
-0.00282528
-3.73169e-06
-4.24983e-06
-1.03267e-05
2.11272e-07
-1.82108e-08
-0.00711905
8.25585e-08
-4.35649e-05
-7.21981e-08
-5.24776e-07
5.59587e-07
-0.00526596
8.40444e-09
-5.55392e-07
-3.46566e-06
3.56924e-07
2.49345e-07
2.20785e-07
0.000921744
0.00199004
1.21719e-08
1.74626e-06
6.64413e-08
-0.00260221
-1.60917e-06
4.33583e-08
7.14135e-07
-3.45089e-05
8.35636e-06
-0.00361914
5.17899e-08
0.000613898
-8.01251e-05
-0.00353776
2.01669e-05
0.00219999
-5.28317e-07
-4.23747e-07
1.0592e-06
8.75071e-07
-3.63511e-06
-8.41483e-09
-2.12522e-08
0.00150662
-2.64656e-06
-1.75562e-09
-3.51786e-08
-0.00413936
1.24347e-09
1.17783e-08
-8.81452e-09
-4.00925e-08
0.0009596
-0.00159498
-5.32168e-06
-0.000253181
-5.9249e-06
0.000103113
-1.94254e-08
0.00124704
1.05679e-08
0.00161469
-0.00789012
6.13037e-07
-1.14762e-08
0.00137968
0.00143807
6.95839e-09
-6.56551e-06
6.81721e-09
5.8736e-07
-0.00964292
-3.86699e-08
1.35455e-10
-1.17863e-08
6.26874e-07
1.80732e-05
-6.7258e-07
-5.21378e-09
-5.61291e-08
-0.00202542
1.31494e-07
-2.28198e-07
-4.5131e-08
-2.03336e-05
-1.56972e-07
2.99778e-07
-5.84259e-10
-6.56093e-09
-3.89329e-10
0.00141985
-0.00453207
0.00336149
0.000635397
-0.0028173
-2.2272e-06
9.72124e-10
0.000899678
-7.77382e-09
-4.85887e-07
4.88059e-06
-1.89113e-07
2.79636e-06
1.38715e-06
0.00766808
4.11185e-06
-4.59103e-08
-6.54702e-08
-2.65423e-09
-0.0218201
2.75282e-07
-2.5031e-07
2.94642e-07
2.44467e-07
-3.68897e-06
0.00577633
-2.39819e-08
0.000976749
-1.11108e-07
-1.56972e-05
-2.73161e-06
0.00307159
-1.58907e-09
1.10609e-08
-3.04638e-06
-7.43095e-09
0.00369539
-0.00169723
1.54635e-09
-2.93558e-08
6.0494e-08
-0.0052232
-0.00874184
0.00176339
8.0083e-07
0.000262658
-2.90035e-10
-0.00151506
-0.00140705
-6.62886e-10
-0.0282384
-5.22795e-07
-1.92212e-07
-2.04028e-09
1.61063e-07
-6.28256e-09
-6.56221e-05
5.06001e-09
-7.84371e-10
-0.000357681
3.66276e-06
-5.45095e-08
0.000737142
-4.41302e-10
0.000377546
3.79231e-07
-5.19723e-09
1.89081e-07
2.31357e-08
-0.00281627
-7.15664e-08
2.02091e-09
-7.86621e-06
-7.20202e-07
-0.00880285
-5.23254e-06
-7.63095e-09
-0.000551191
1.62894e-05
-1.91168e-06
6.08807e-09
-2.81576e-07
8.37569e-09
1.12249e-08
5.69432e-06
-7.14308e-08
6.8272e-07
-3.1214e-06
-1.15939e-06
9.83905e-06
0.00374961
1.00465e-08
-2.77516e-06
-8.5758e-08
0.00154612
-2.19272e-09
0.000465745
-2.71309e-06
5.61622e-08
-0.00196941
4.31406e-08
2.02509e-07
0.000657971
8.39657e-08
5.51605e-08
-0.00271278
-1.44348e-06
-2.70705e-07
-2.45151e-07
9.96659e-09
-6.66093e-07
1.13499e-07
-1.33091e-07
0.000147972
-0.000387081
-1.51698e-07
-2.14861e-07
-0.00332355
2.61233e-07
-6.87713e-08
1.5303e-07
0.000453426
2.85952e-08
-3.92058e-08
-0.0320375
0.00199213
2.99814e-08
3.39738e-06
3.91972e-08
-1.06968e-07
-6.78563e-05
-0.000408979
-0.000224771
9.01753e-09
4.27986e-08
-0.000941322
6.84195e-09
0.000812565
1.35325e-07
-3.81378e-08
4.99119e-08
0.00114442
2.49031e-08
-1.17653e-06
-1.21345e-08
2.40924e-05
0.00459006
-0.00155548
-1.74202e-05
-1.70376e-08
2.40725e-05
9.37413e-08
-0.00166818
-0.00242845
2.73704e-09
-7.52446e-10
-0.00819794
-9.39385e-06
-2.61073e-06
4.14407e-07
1.56948e-08
0.00494846
1.22739e-08
-0.00505299
-2.50326e-08
2.24091e-07
1.78226e-08
8.62605e-06
-2.82442e-08
-2.03192e-06
0.00106537
0.00463836
-5.35282e-08
-7.5457e-06
-1.01222e-07
5.52875e-07
1.11919e-05
7.90531e-06
0.000272585
-1.1674e-09
0.00240601
0.000559379
-8.72384e-08
3.30892e-06
-1.23615e-08
0.0409446
-5.12028e-05
2.2043e-07
0.00415526
-9.2265e-09
2.60655e-06
-0.00381273
-1.14902e-05
1.26507e-08
3.30602e-09
7.28443e-08
6.81142e-08
9.78693e-09
-1.29688e-07
-1.23921e-07
2.7584e-08
-0.000564547
7.99929e-08
-4.63465e-06
-3.27726e-10
-1.43195e-08
-0.000216638
0.00239598
-0.00865036
4.76618e-08
0.00409857
1.19729e-07
-3.75543e-07
2.32047e-08
1.19712e-07
-0.00306914
-0.00930543
5.59854e-08
1.10459e-08
-1.18188e-05
-3.37452e-08
6.65062e-08
-2.48895e-05
-3.87756e-08
-6.34363e-10
-3.71819e-08
-5.11945e-08
2.83234e-08
-3.2722e-08
4.58228e-05
1.22937e-07
-6.71057e-08
-2.2362e-07
-2.95163e-10
-0.00112063
0.000275946
-3.83766e-07
1.36746e-08
-3.66428e-07
-3.53755e-06
-3.17592e-08
-2.36341e-07
-1.39561e-08
-2.31655e-10
-0.00358367
-0.00109886
8.71887e-09
1.20439e-08
4.18942e-08
1.09203e-08
1.72152e-08
-0.000207624
-0.00425824
1.4125e-05
-4.70504e-07
2.9869e-05
-1.75604e-08
6.35435e-07
-1.6604e-06
8.4749e-06
8.46586e-07
-0.00272867
-4.13535e-08
1.70794e-08
-0.00118245
3.17649e-08
-1.31155e-08
0.0012932
3.65532e-08
-0.000901358
1.51912e-08
-1.59055e-09
-1.68062e-08
-1.24378e-08
1.98556e-06
-0.00141444
-3.12364e-06
-2.07391e-08
1.90089e-08
-1.92746e-11
-2.48572e-06
-0.000616194
1.31532e-07
-0.000280563
1.65302e-09
9.22632e-09
6.37323e-08
1.12195e-07
1.18951e-08
2.73191e-06
-5.28366e-08
-4.9401e-05
0.0039878
1.5888e-06
6.28756e-08
-1.09413e-08
-8.56898e-11
2.19895e-06
-2.65528e-08
0.000414755
-6.66913e-07
7.30742e-08
1.04432e-06
2.82283e-06
0.000806191
1.21521e-08
0.00101308
8.97476e-09
0.00157188
-8.61618e-07
-0.0032053
4.15264e-06
0.00741769
5.5975e-06
-4.65262e-10
-5.23767e-06
1.58553e-06
1.09776e-08
-0.00398044
0.00245602
-4.44948e-09
-4.79168e-07
1.22589e-08
-2.00248e-05
7.98913e-08
1.33119e-08
2.48284e-05
-2.67036e-08
-3.67137e-06
0.0060234
1.22787e-08
-0.000131827
1.95148e-09
6.24971e-09
0.000410067
4.74933e-07
-5.79808e-10
-9.96489e-06
8.65996e-09
3.21477e-06
0.000259022
0.000809878
-0.00270055
-0.000353504
-0.00240684
2.02861e-06
-1.03684e-05
2.64045e-09
-2.08115e-06
0.000394701
0.00105404
6.02148e-07
1.53912e-06
-0.00362362
-0.00413134
0.00209866
-0.000304791
-4.52101e-05
2.70411e-08
-3.94384e-08
-9.64718e-07
-7.74802e-09
0.00137843
-1.28765e-06
-1.57927e-07
-3.28111e-05
7.8327e-07
1.4884e-07
6.80308e-07
1.19456e-08
-1.27217e-09
-1.23477e-07
7.20711e-05
7.21944e-07
-6.03878e-09
0.00023011
-3.21209e-09
2.2917e-06
-7.5245e-06
-0.00516973
-6.74205e-08
-0.00298019
4.12812e-08
3.71462e-09
-2.41941e-07
-0.00277902
-1.75942e-06
-5.39909e-09
4.47569e-09
-5.26737e-10
-3.68749e-06
-1.68885e-09
-0.00195945
4.12608e-06
-0.00356907
-6.08963e-05
1.03022e-07
1.33177e-05
-8.42483e-06
-2.57204e-08
1.92187e-07
-5.26211e-08
6.72668e-08
-0.00222223
1.24227e-08
-4.6521e-09
4.9706e-08
3.34547e-07
-7.23712e-08
-0.000966414
-0.00831247
-3.33854e-07
-1.38751e-07
2.7442e-08
-4.25256e-10
-0.00160536
-6.5235e-11
-2.7935e-08
9.49945e-08
-1.80784e-08
-3.94379e-08
-4.01457e-09
-0.00248134
0.000516934
4.85134e-08
1.48015e-07
-4.77658e-06
0.0145338
-8.1979e-09
-2.99209e-08
8.31213e-09
3.50679e-06
-0.00352391
-0.000108492
1.45859e-06
0.00087795
1.31067e-07
1.58861e-06
-2.01369e-09
3.81605e-07
-7.70582e-07
-0.000542774
0.00314293
2.50284e-07
-0.00322024
-6.94309e-09
3.20179e-07
1.61142e-07
1.53498e-08
-5.77372e-09
2.89186e-06
5.27646e-06
-1.24631e-08
-6.65807e-06
-0.00404604
-5.20361e-05
-1.20369e-05
-4.2999e-06
4.49367e-09
-8.38686e-08
-6.51169e-09
2.46926e-09
-0.000468648
-0.00242705
-6.19075e-06
-4.36323e-07
-1.21011e-08
-0.000105155
1.21435e-10
-0.000310912
-1.60643e-09
2.78446e-08
1.71823e-05
-1.57229e-09
8.43021e-07
-1.64424e-05
-1.01357e-08
-1.30926e-09
-4.09523e-09
-1.8882e-07
-1.75774e-05
0.00109047
-0.00320842
1.37261e-08
8.55301e-08
4.28574e-09
0.012016
-1.92423e-05
1.3237e-08
-4.18476e-08
2.24654e-08
-1.40364e-07
3.74512e-06
-2.15535e-08
0.00113063
1.4353e-05
4.64602e-10
-0.00259457
7.63424e-06
-3.8813e-08
-0.00332305
1.79336e-10
-3.80592e-08
-0.00044342
0.0202249
1.14866e-07
-5.55006e-05
-4.04122e-08
0.000195413
3.213e-09
-2.61207e-09
8.53809e-08
-1.19586e-08
-4.8788e-07
-3.39773e-09
3.64708e-06
1.05046e-09
-0.00199326
0.000285333
4.23412e-06
-1.83339e-08
0.00455078
7.68727e-07
-4.48255e-07
9.74296e-09
-1.29864e-07
-0.000342047
1.19264e-07
1.80555e-08
2.56261e-06
2.49804e-06
-1.83671e-08
-9.93395e-08
-2.80124e-08
5.7489e-06
0.00177453
1.84183e-09
-9.05997e-09
4.48295e-09
1.78492e-06
-6.21503e-09
-2.04186e-09
-3.30554e-09
-6.91458e-06
-2.36428e-08
-6.17184e-08
-3.01566e-09
5.92678e-07
1.78042e-07
-2.09232e-09
0.000101996
2.32107e-08
5.76108e-05
9.54575e-09
-2.72849e-08
0.00135328
-0.00640753
-5.79394e-06
0.00337867
-2.52885e-08
-0.000391256
1.47625e-08
0.00607178
3.22654e-06
9.81422e-09
-5.59408e-08
-0.0067883
-0.000298254
5.6602e-06
5.58176e-08
0.0039767
-3.83862e-08
1.54773e-06
-1.10405e-05
-5.04864e-06
-3.62142e-08
-1.13047e-08
2.97688e-07
-6.04387e-11
6.25258e-08
-2.98231e-07
7.48828e-06
3.57511e-06
1.31972e-06
-0.0019243
-2.16011e-07
-0.00366005
0.00251034
2.0128e-09
-0.00043294
-4.10122e-06
1.81627e-07
6.7657e-06
0.00151151
-0.00225243
-0.00164014
6.33631e-07
-1.40007e-08
1.83192e-09
-5.51203e-06
-1.05978e-09
-6.1741e-06
-0.000250575
-1.44075e-07
4.93771e-08
3.59949e-06
-1.4366e-08
1.1355e-06
3.26831e-09
2.70154e-08
1.19005e-07
-9.80417e-08
2.36441e-06
0.00113528
-0.00303279
1.20115e-07
-9.79706e-08
9.07818e-07
5.05105e-09
-7.25394e-09
3.48974e-08
-4.99915e-09
-0.00907029
-1.4059e-06
1.10599e-08
-1.66373e-05
-1.05687e-07
0.000989762
0.000945429
-8.83138e-10
-3.1524e-06
4.43558e-07
-3.4238e-07
-7.7637e-09
-4.77209e-07
-7.22167e-10
-0.00354604
-0.00253585
-1.21255e-07
0.00198578
-1.17513e-06
7.98504e-07
0.000979683
1.12816e-08
1.20304e-08
-3.78443e-10
9.70197e-07
2.22462e-06
1.12166e-07
-0.00730458
3.2504e-07
-1.81473e-08
0.0014318
-3.9705e-07
0.000222629
1.61108e-07
1.0541e-07
-0.00299937
-4.72415e-06
3.74857e-07
-0.000401071
-1.07072e-05
2.35111e-07
0.00192669
-2.30519e-08
-0.00869868
3.41411e-08
-0.00148594
2.89003e-08
-0.00265558
-2.09319e-07
0.00308632
1.87285e-08
0.000843572
-4.63983e-08
-0.000301731
-9.73047e-08
-5.64483e-08
1.40026e-07
-3.00427e-08
-3.56974e-06
-5.58339e-06
-2.47325e-08
0.00138318
-3.53246e-08
-0.0038361
1.64459e-07
1.99101e-06
5.38135e-08
-2.38146e-06
-0.00182478
-3.84904e-08
-0.000247593
7.18794e-06
-0.00402843
9.26795e-09
-0.00674536
-2.23528e-07
-3.63352e-08
-6.11481e-08
-0.00410854
1.7952e-07
-3.24766e-09
4.04196e-05
-0.000189241
2.98256e-09
-0.0013575
0.0016389
-1.16207e-06
1.18737e-07
2.55909e-06
-0.00239027
-5.00787e-06
4.16418e-06
-8.1e-07
-3.53493e-08
-2.1161e-09
-2.72697e-08
-1.34227e-05
-2.41975e-11
-2.49331e-10
-5.91704e-08
-4.15664e-09
-2.09944e-08
1.55464e-07
-0.00308747
-0.00114715
-4.62953e-09
0.0020305
-6.22828e-06
0.00131304
-7.16951e-08
-8.14367e-07
-2.53688e-06
5.676e-07
3.53437e-07
-0.000602077
-6.11835e-10
-6.82973e-08
-6.14245e-07
-3.43466e-10
1.32627e-08
3.94031e-08
0.000245044
-0.00091156
-5.60451e-06
3.15466e-08
-1.60771e-07
1.14879e-08
-6.08086e-10
9.77569e-09
3.94571e-06
-0.000362811
-0.00223296
2.42005e-09
-6.17553e-09
-1.25761e-07
-0.000176262
-3.73004e-07
-0.00288272
-4.31949e-08
6.64887e-05
0.000941592
-4.05694e-08
-3.3392e-08
9.38564e-08
-3.29513e-10
2.09357e-06
5.36245e-07
-1.35041e-07
-7.24505e-07
-2.14242e-05
0.000990609
7.59816e-06
-6.06624e-07
-1.10107e-06
-0.000122057
-5.21415e-08
-4.42182e-06
0.00103407
1.19091e-06
-4.8317e-06
-5.7573e-07
-1.34093e-07
4.2986e-07
6.82999e-07
2.44249e-08
-8.90854e-07
-6.10463e-08
0.00321754
-2.78423e-08
4.03865e-07
-1.58947e-06
-0.00419291
4.54408e-06
-0.00104435
8.17974e-08
-4.34603e-09
-5.76967e-09
0.000404804
7.20747e-09
-2.40989e-08
-4.55599e-06
-5.31741e-07
-7.55224e-06
2.41126e-06
-2.17584e-06
-0.004724
-3.12571e-08
1.40138e-09
-7.70326e-08
1.49625e-06
1.04706e-08
-8.7623e-06
-2.6152e-10
-1.63862e-08
-2.05085e-05
-8.14628e-06
2.38327e-08
-2.39776e-06
-9.29954e-08
-0.000352821
1.09644e-08
-0.00127056
6.06613e-09
-0.00417084
-2.62948e-07
0.000136679
-1.12845e-05
2.67855e-06
-2.66019e-09
2.03348e-06
-2.23437e-05
1.71937e-06
3.49996e-08
1.82906e-05
0.00103724
-0.00401765
6.90682e-09
-0.00419549
1.13108e-06
-0.00612174
3.37903e-06
1.78441e-05
-0.00207759
2.83189e-08
-2.42522e-10
-8.4638e-10
1.54094e-08
-6.75199e-08
-2.197e-08
6.79315e-08
-9.72891e-08
-4.60934e-08
-0.00904173
-6.76704e-07
-4.87596e-09
0.000159633
-1.89634e-08
-0.000288405
6.16609e-10
0.000592648
-5.69351e-10
-8.49804e-10
9.41266e-07
7.30149e-08
0.00285104
1.69321e-08
1.07577e-08
-2.91228e-08
7.15626e-05
-6.75555e-11
3.78916e-10
3.71344e-05
-0.00171518
-0.00110881
6.83727e-08
-9.89261e-08
4.91401e-06
1.4259e-07
2.21445e-09
-3.76549e-07
-2.22245e-08
3.7867e-09
0.00229786
0.000478535
-5.95869e-06
4.68989e-09
-3.49762e-08
2.69988e-07
-3.62487e-10
0.000527219
-3.20111e-06
2.14439e-08
-9.21096e-08
0.00127384
2.68893e-07
2.36123e-09
-1.39145e-05
8.80827e-07
-0.00054131
-2.41364e-07
-2.51736e-06
-4.9122e-06
-7.31786e-06
-0.00415552
-1.01265e-08
-5.90415e-06
2.14363e-06
-4.8671e-08
-7.35833e-09
-2.71536e-08
-2.45766e-07
2.23159e-07
-0.000341188
-5.80503e-07
-1.30426e-06
-0.000236378
-0.00376052
0.000369102
4.68611e-08
-1.95381e-08
-8.9461e-10
1.19661e-08
1.2667e-08
2.5485e-07
3.52431e-07
-2.97481e-10
3.0719e-10
-1.07535e-09
0.00180412
0.0025204
-1.12913e-06
-3.05035e-06
-1.64351e-08
-4.72799e-08
-0.000343765
4.74519e-08
5.66003e-07
-0.00247439
0.000452973
0.000862288
-8.36668e-07
-9.65112e-09
-1.59028e-08
-0.00026893
1.14876e-07
-7.00516e-09
-1.24251e-06
-6.51705e-06
-1.0384e-08
-0.00930743
-0.00010176
1.39042e-07
0.00165863
2.60325e-07
0.000652584
0.000635331
-3.90238e-06
1.34979e-07
-2.04543e-07
-4.17456e-06
-3.19133e-08
2.83889e-08
4.62959e-08
5.5767e-08
3.36526e-06
1.0291e-06
0.00160007
-5.34258e-09
4.14115e-06
-3.67224e-10
1.75779e-07
-0.000425863
-9.49024e-08
0.00268145
3.53891e-06
-1.07356e-09
1.10741e-07
-2.39888e-05
1.37709e-07
7.72632e-08
4.82252e-06
-1.28091e-08
5.79149e-09
-0.00370005
-3.57679e-06
1.02875e-06
-4.92822e-08
8.61877e-09
-1.71785e-05
-1.11976e-05
2.47903e-06
-5.21043e-07
-2.37871e-08
1.03826e-05
-0.00455545
-0.000182447
-5.08914e-07
0.000938455
-2.93051e-09
-0.00137367
0.000998136
-0.00867541
1.32422e-07
1.20554e-07
3.85082e-09
-2.62803e-08
-8.34668e-05
-8.50355e-06
-3.21202e-06
2.60716e-08
9.67786e-06
-2.4766e-08
4.3916e-08
-0.00184347
-0.00121568
0.00060314
4.57711e-08
-0.00424101
-2.27033e-09
-2.60783e-06
3.68962e-08
-5.60956e-07
5.2678e-09
5.62902e-09
0.0011765
-1.49212e-06
8.03042e-08
0.00188888
-8.92763e-07
7.81068e-05
-6.78974e-09
0.00495725
5.08708e-06
1.88834e-07
-4.39293e-08
-0.00021307
1.56899e-07
7.06365e-09
6.62719e-05
-8.47268e-07
-3.1257e-06
0.0062011
3.04853e-08
1.07965e-06
0.00111086
-6.23132e-09
2.42539e-08
4.2684e-05
4.29645e-08
4.21343e-07
0.00177033
9.42668e-06
-3.1003e-08
0.00377269
-1.02148e-08
-1.17326e-09
-0.0329432
9.93219e-10
-1.7444e-07
-8.22898e-07
8.60038e-08
3.77549e-08
7.57032e-08
2.60568e-05
-2.96237e-05
2.98359e-09
-2.10038e-09
-4.72852e-10
3.64569e-06
-1.08178e-07
-0.00383365
-1.88097e-07
3.98656e-08
6.81243e-06
1.16024e-06
1.87287e-07
1.6936e-06
-1.79554e-07
2.33798e-06
1.45739e-07
-1.29854e-06
-2.10489e-08
-4.66486e-07
5.5002e-05
-6.65842e-08
-5.322e-10
5.10216e-10
2.53964e-09
0.000430067
-0.0080622
7.03635e-08
7.29723e-09
-2.22032e-08
1.25354e-07
-1.00193e-07
-0.0014564
0.00531966
-5.70483e-09
-2.92393e-06
1.39056e-07
-7.69393e-06
-1.97612e-09
1.29056e-09
3.49913e-06
-0.000146285
-3.92216e-07
4.09026e-09
-1.49197e-10
3.07658e-06
2.14437e-08
0.000323556
4.96995e-09
6.44243e-06
-7.61736e-06
3.20641e-07
-2.73402e-05
-5.36074e-08
0.000422055
-3.03427e-08
-9.25414e-08
3.03019e-09
1.79904e-07
1.21117e-06
-3.47946e-10
7.13422e-07
1.41665e-07
0.00159902
-0.00112587
-0.00142268
-2.73551e-08
-2.48961e-08
6.70942e-09
-9.40013e-08
1.19527e-07
-2.69062e-08
-2.6524e-08
2.10523e-08
0.000197739
-5.70835e-08
-1.64576e-06
-1.23253e-06
-0.00174156
0.00217474
-1.25278e-07
9.03924e-07
0.00257852
0.000123087
-4.4838e-08
0.000479704
0.00298521
-4.70301e-08
0.00310848
1.77019e-07
-8.99882e-08
9.43406e-06
1.99361e-07
-3.03524e-08
-0.00323347
-5.98533e-08
6.72227e-06
-5.19648e-09
-0.003867
-8.21761e-07
8.19123e-07
-0.00231986
-1.6313e-05
-5.15175e-05
9.43717e-08
-2.39267e-07
-1.02155e-06
1.30574e-08
4.89348e-06
1.26142e-08
3.25268e-08
0.000740135
2.83589e-08
-0.00170639
-0.00162212
1.74424e-09
6.73791e-09
-2.124e-06
0.00380417
1.10375e-06
-5.62277e-09
7.74584e-08
1.05717e-06
-1.63646e-06
-0.0017188
-3.08182e-07
1.21933e-07
0.00156021
0.0030055
3.28118e-06
-6.021e-07
-1.67772e-06
-0.000238156
0.00207451
3.65757e-09
0.0017445
0.000290688
-0.000177915
-3.67133e-07
2.64383e-09
-1.01774e-09
6.40621e-10
-2.96496e-08
0.00012367
-3.47953e-08
-1.67084e-05
-1.80732e-08
-3.97848e-08
-6.15923e-08
4.82863e-10
0.00143738
4.32821e-06
-3.59966e-07
2.34906e-10
1.13121e-08
-2.8331e-06
-1.35843e-07
1.33989e-08
5.33177e-07
-4.90417e-09
6.41361e-08
1.85266e-06
-0.0180071
8.93523e-08
-0.00273047
5.29973e-08
-0.0039227
3.45509e-07
-0.00231322
4.30285e-08
5.26923e-08
7.71993e-07
-9.61008e-11
-0.00282259
4.12951e-09
-4.37221e-08
-2.49899e-09
-5.35805e-06
-9.92973e-06
2.15676e-05
-5.12341e-07
-1.52761e-09
1.91044e-06
8.34859e-10
1.54862e-08
-2.87666e-08
3.67241e-08
2.5338e-08
1.87703e-06
3.64256e-06
-2.58893e-08
-4.40569e-08
1.09409e-06
-1.85219e-05
4.63645e-08
-4.93884e-07
-0.00801039
-0.0131022
2.30272e-06
1.71959e-07
-9.30019e-06
-5.88373e-10
1.25326e-07
-4.79679e-06
1.90016e-09
-0.00394827
-1.02865e-06
1.25905e-08
2.84633e-08
-8.20336e-06
0.00130865
-7.62045e-09
-2.31087e-09
1.80199e-09
1.74791e-08
-0.00153531
5.68228e-06
4.70991e-08
3.07196e-06
-0.000725319
-3.98072e-05
-1.17238e-07
-1.11013e-05
0.000312363
-0.00398211
0.00118967
1.09452e-05
4.27317e-10
-3.48085e-10
0.00222495
0.00162799
-1.74617e-08
-1.81125e-06
-0.00023497
0.00263041
8.57278e-08
-0.00344956
5.46861e-11
-0.00275458
-2.46388e-09
2.02429e-05
-8.1393e-10
-5.04325e-07
0.00158351
8.77344e-08
5.81493e-07
0.00488956
-3.83637e-08
5.00031e-07
-7.81844e-08
-2.71662e-06
8.47044e-09
0.00256762
1.76297e-08
-8.64151e-08
-1.74777e-07
-0.000755408
-0.00226261
-1.46879e-09
1.41305e-06
-0.00418831
6.63112e-09
-2.17033e-08
-0.000279971
4.16259e-08
7.92297e-09
-1.10047e-08
9.57259e-09
3.8568e-05
-3.58647e-07
4.03751e-08
-2.83564e-08
4.49174e-06
3.73778e-10
-0.00839477
2.62113e-07
8.09707e-08
2.0033e-06
-1.18836e-10
-4.2803e-08
5.2576e-09
-4.62065e-07
1.45944e-09
1.01864e-08
-0.00545139
-0.00491602
0.00107341
1.9265e-08
0.00292944
6.03544e-07
-0.0215453
-0.00202107
-0.000411481
1.03682e-09
-3.42964e-09
-6.18499e-10
3.74089e-09
-0.00252553
-9.41099e-08
4.72828e-06
-5.22436e-09
-5.58627e-06
1.178e-08
2.99493e-08
-0.000374083
8.43489e-08
6.62799e-06
0.000575197
0.000250343
2.2182e-07
1.50158e-07
-2.67799e-07
5.88866e-06
7.78796e-08
3.47559e-06
-0.00508881
-1.70009e-09
-0.00123317
8.92203e-09
2.08071e-06
-8.11719e-08
-0.000465555
2.50876e-07
-4.84039e-06
-0.00436607
4.85391e-07
-3.53516e-08
1.23657e-06
6.38997e-10
-1.03518e-07
-0.00434121
2.19885e-07
2.01793e-08
-1.27479e-10
1.11247e-07
-1.21693e-06
-0.000150766
-4.43018e-07
0.000568823
0.00207852
3.66752e-06
-0.00196851
-4.87573e-11
9.15295e-08
-1.48021e-09
6.19835e-09
-2.52325e-07
-1.258e-05
-2.52643e-08
0.00148959
-1.0974e-07
-3.56382e-05
-0.00635696
0.0001138
-1.23228e-05
0.000770047
-2.52942e-10
-1.05974e-05
0.000566892
-1.06561e-06
0.000516389
0.000753254
0.000581523
-0.00026436
0.00200213
2.1293e-05
5.40657e-06
1.78473e-09
-0.000313847
-2.9514e-06
-9.7505e-09
-3.86874e-06
-1.17484e-07
-6.38917e-07
-2.29693e-06
1.29962e-06
3.93689e-07
-3.41339e-08
-5.41602e-06
0.000132395
7.39711e-08
4.41161e-10
-2.70879e-07
-0.00705917
7.32715e-08
-0.00289669
-3.87109e-08
1.94579e-08
-4.23286e-06
6.10168e-08
9.53535e-09
6.1989e-09
0.00195921
2.78437e-08
-0.000718295
-2.62288e-06
2.14188e-09
1.04742e-05
-2.27148e-09
-1.54855e-08
-0.000509803
-0.000363259
9.51111e-09
1.02391e-09
0.00152101
1.85624e-05
-3.36381e-08
2.20075e-09
3.19156e-06
-4.92164e-07
-0.0489722
3.53557e-07
-2.30036e-07
-4.62372e-09
-0.00441465
0.000141863
-2.98025e-08
-1.20382e-05
-0.000999417
-4.50461e-07
0.00257914
-0.00384935
0.00113407
1.14994e-08
8.557e-07
1.95279e-07
8.59886e-10
-1.75636e-05
0.000806203
-2.64053e-06
7.82945e-09
-0.00206724
-2.38362e-09
-9.5909e-09
-0.000399203
3.41627e-08
3.41138e-07
-9.72252e-08
-1.99759e-10
0.00139956
-3.79512e-05
-8.16094e-09
2.20582e-08
-3.14637e-08
1.85794e-06
-0.00224018
-0.000112267
3.49489e-05
9.47524e-09
-2.74263e-07
9.37573e-08
6.291e-08
-0.00126237
0.00150764
-7.76831e-05
-2.17641e-06
-0.00535997
5.36168e-09
-2.77633e-06
1.85414e-06
3.21107e-07
5.9315e-09
-2.15851e-06
-4.19685e-08
1.3352e-07
-4.55741e-09
-7.27103e-09
1.05242e-09
-0.000351365
7.63186e-08
4.32809e-08
-4.20843e-06
2.30756e-06
2.36577e-06
-2.81124e-09
3.79251e-06
-3.60437e-08
-8.85985e-09
-1.1813e-10
-2.77213e-08
-2.4837e-05
-0.00299439
7.99673e-07
-0.000197615
6.56347e-05
-8.47759e-09
1.25269e-06
-1.48101e-09
-2.68122e-07
-5.80363e-08
8.7618e-08
-3.94113e-08
2.96581e-07
-0.00427593
0.00170833
9.96099e-06
-6.17815e-09
9.95781e-08
-1.69515e-06
-2.03373e-07
-1.64582e-06
-9.10107e-07
-0.00367213
-0.000445915
-6.74862e-08
-2.79637e-07
-0.00180179
1.71059e-08
6.4301e-05
-0.000626688
0.00178336
-5.99085e-07
0.00725055
-0.000635091
-0.000748607
-1.00945e-08
1.18484e-08
-1.09862e-08
1.08766e-08
-0.00230312
0.00155788
1.2009e-05
-4.88167e-06
-3.96812e-08
4.25003e-08
3.92387e-10
-0.000267667
-8.32603e-09
4.24436e-08
0.000150548
0.000731179
-2.81176e-07
-1.15043e-08
2.1016e-09
4.01802e-05
2.3545e-08
5.08078e-07
-1.05045e-07
4.49459e-08
-2.38196e-08
7.26085e-05
4.90725e-09
-1.82843e-08
1.81507e-09
0.00207721
7.07538e-07
-3.07549e-06
6.67972e-06
3.84949e-08
-0.00104928
-4.69732e-09
0.0058614
3.44902e-10
0.00128976
3.53979e-08
-1.05619e-07
1.20849e-07
-3.10482e-07
-3.61684e-06
-5.15572e-09
-8.91136e-09
3.4975e-09
0.000902861
1.76358e-09
-0.00568322
2.83228e-06
-4.90518e-09
1.28184e-05
6.05011e-10
4.57645e-09
1.35835e-08
-2.28444e-05
-1.65978e-09
-0.00968184
-3.55674e-08
-8.40852e-10
-2.70837e-05
0.0033373
2.41392e-06
-3.984e-07
-2.41675e-06
4.19604e-08
1.51435e-07
1.73809e-06
-1.58148e-08
2.84583e-06
3.22469e-08
9.46253e-05
-0.00338483
1.07049e-05
-8.16302e-09
-1.6272e-08
-0.000540494
1.0461e-07
7.71088e-07
-1.45061e-07
0.00133381
0.000570497
3.57844e-06
0.00119277
-1.71985e-08
-2.55135e-09
-0.00113511
0.000174333
-6.45563e-09
1.10845e-05
1.12574e-08
-9.0264e-08
-1.08359e-09
1.69849e-05
-5.43008e-08
4.37738e-08
-3.50721e-06
0.00311411
4.23995e-09
2.60983e-06
-0.0009617
1.29519e-07
-5.51545e-08
1.20212e-07
-3.47493e-11
-0.000184993
8.76404e-06
3.71543e-07
-1.06571e-05
-1.18839e-07
0.00411772
-4.06921e-05
4.21214e-08
-5.35415e-09
3.341e-08
2.60415e-07
0.00157356
-0.000226286
2.18698e-07
-3.77555e-07
-1.04998e-07
2.67719e-06
1.14788e-08
-0.00502421
4.0094e-06
-0.000776938
1.13105e-08
7.09376e-07
-0.00135922
-2.44021e-08
-0.000337083
-2.3059e-09
1.74393e-09
-3.94776e-06
1.03658e-08
-6.04132e-07
2.80825e-05
-0.00391323
4.33863e-05
4.84942e-06
-5.19325e-10
-1.60286e-08
3.51105e-11
2.97357e-06
-2.59608e-05
-8.93643e-06
0.000149546
-0.00412766
-2.32864e-10
-2.17275e-06
-0.00389575
6.98863e-09
-2.80134e-07
1.97305e-07
-0.00600357
2.84377e-07
-0.000194586
-5.42753e-09
7.93079e-06
-1.04112e-08
-0.00195369
-4.39933e-06
-8.36495e-07
1.21715e-06
0.00113233
-1.58261e-05
-6.55582e-07
-1.38406e-06
3.36329e-06
7.27687e-09
0.000368447
-0.00254848
-5.03518e-08
-6.69701e-06
4.33692e-10
-3.43565e-09
-1.30888e-08
0.000553833
-2.08121e-06
9.78766e-08
-3.38745e-06
4.04614e-06
1.41946e-08
-1.23101e-08
-0.00233561
-1.09877e-08
2.95538e-07
8.27188e-07
6.72403e-08
-1.36907e-07
-1.11745e-07
2.75907e-08
-0.0015939
-6.29389e-09
2.45052e-08
-1.51661e-06
7.30638e-09
-2.00637e-06
-6.90708e-05
1.04524e-06
-0.00276183
0.000672043
-1.19079e-10
0.00832398
-2.52256e-08
-3.11142e-06
3.62151e-06
8.2898e-07
7.69701e-08
1.10278e-08
4.20741e-06
0.00222797
7.10574e-08
4.66687e-09
0.00269199
-2.98016e-08
1.41165e-06
2.39039e-05
3.81007e-08
2.15542e-07
-9.29605e-09
2.39523e-09
-5.14637e-05
5.99427e-08
-8.59862e-09
-0.00706739
-9.58887e-10
-5.30673e-06
0.000357242
5.79998e-09
-6.64514e-06
-0.000165113
0.000169577
-2.20836e-08
1.43214e-08
-0.000917826
1.08066e-08
-0.00124194
1.10143e-05
-0.00142239
3.11749e-09
-2.5462e-06
-2.33794e-09
-7.05498e-09
5.46361e-09
-2.64826e-09
2.74432e-08
0.00188279
7.33071e-10
-0.00447461
2.42166e-09
0.000490624
-2.32801e-08
9.94247e-06
0.000224847
-1.58339e-06
9.31329e-10
-1.54827e-08
-4.12139e-06
1.21031e-07
8.79114e-05
-2.68279e-06
0.00179234
-2.10073e-07
8.17163e-08
1.09983e-07
4.70645e-07
3.36928e-06
-2.47124e-08
-2.52159e-07
1.05084e-10
0.00358786
6.98913e-05
-2.48289e-07
9.91988e-05
-4.13271e-07
4.10772e-10
1.14098e-08
-2.02292e-07
-2.76664e-08
1.4285e-06
-7.31508e-11
4.20465e-07
0.000616529
-5.76874e-10
-0.000130234
6.8891e-09
-0.000193215
-6.98255e-07
-0.00130673
-4.62567e-11
-0.00319229
-7.12912e-07
-9.45614e-09
1.15785e-06
-0.000381579
8.80756e-08
0.00321895
2.57033e-10
-2.17842e-08
-1.37881e-08
1.51322e-05
0.000173091
0.000760632
1.90203e-05
4.42364e-06
-6.56118e-07
-0.00361098
-1.17025e-05
-1.51601e-07
-4.66525e-06
7.53222e-08
4.67864e-07
0.00148992
4.249e-06
0.00242856
-4.6817e-08
-8.63953e-06
1.43204e-06
-5.45559e-10
1.08059e-07
-1.41072e-08
-0.0131273
-6.63239e-07
-7.6608e-11
-1.06939e-07
-3.59406e-08
9.6227e-10
-1.76171e-08
-2.01972e-08
-1.8085e-09
1.16535e-05
0.000278004
8.9761e-09
0.00218649
-0.000445069
2.74179e-07
-1.71685e-07
3.78926e-06
1.13451e-07
1.24801e-08
-3.75142e-10
-3.63092e-06
-0.00308817
-5.213e-06
4.55279e-05
-3.0812e-09
-5.49602e-05
-4.99891e-08
1.52344e-07
-8.65158e-08
-7.81636e-07
5.03845e-09
1.14178e-06
8.32122e-07
8.24695e-06
-2.31877e-08
-6.83813e-08
-4.572e-06
-1.07494e-05
2.54382e-06
-0.00303495
-0.00359631
-6.36396e-06
-8.66581e-09
3.74097e-07
-2.51246e-06
1.15485e-08
-1.01091e-05
0.00153112
-0.0018196
0.0032046
1.90976e-06
-0.000355721
1.85453e-08
3.21747e-08
-1.84034e-08
-9.35871e-09
-9.86817e-09
-0.00259735
-0.00401472
4.15775e-05
-7.87736e-09
0.00137208
-1.53709e-07
-4.48386e-08
9.89001e-07
-6.51918e-05
6.62758e-09
-2.01699e-07
-3.44241e-06
5.48928e-08