/*--------------------------------*- C++ -*----------------------------------*\
| =========                 |                                                 |
| \\      /  F ield         | OpenFOAM: The Open Source CFD Toolbox           |
|  \\    /   O peration     | Version:  v2012                                 |
|   \\  /    A nd           | Website:  www.openfoam.com                      |
|    \\/     M anipulation  |                                                 |
\*---------------------------------------------------------------------------*/
FoamFile
{
    version     2.0;
    format      ascii;
    class       volScalarField;
    location    "50";
    object      k;
}
// * * * * * * * * * * * * * * * * * * * * * * * * * * * * * * * * * * * * * //

dimensions      [0 2 -2 0 0 0 0];


internalField   nonuniform List<scalar> 
18355
(
0.000162087
0.038901
0.000147386
0.000145642
0.000150245
0.000185406
0.000147587
0.00017427
0.000151195
0.0404867
0.00014507
0.0322078
0.000182835
0.00014801
0.000148611
0.000151922
0.016078
0.000146229
0.000148293
0.0425254
0.000154167
0.00014951
0.0719799
0.000150258
0.000155511
0.000148876
0.00014838
0.000150894
0.0120819
0.00014796
0.000148979
0.000152122
0.00014619
0.000147059
0.000168397
0.000162913
0.000149944
0.000183917
0.000150778
0.000145222
0.000148036
0.000168557
0.000147391
0.0314386
0.000147672
0.000186084
0.00016953
0.000151925
0.000168011
0.00014634
0.000145059
0.00014722
0.000149838
0.0672866
0.000148457
0.000148318
0.000200464
0.0001487
0.000677732
0.000189452
0.000146371
0.000179442
0.000146133
0.000163124
0.0357528
0.000161397
0.006074
0.000157697
0.000148424
0.000149305
0.00017196
0.000149676
0.000187489
0.000146557
0.000174127
0.000147541
0.0619104
0.000151914
0.000158965
0.000147001
0.00014765
0.000222376
0.000153858
0.000164266
0.000148826
0.000183117
0.033359
0.0417317
0.0125862
0.0739553
0.000170884
0.000147673
0.000148615
0.00014448
0.00540278
0.0684088
0.000147181
0.000155952
0.0648717
0.0113192
0.00997227
0.0125656
0.000164798
0.0216994
0.000150898
0.000189967
0.0214829
0.000179213
0.000162113
0.000182794
0.000147725
0.000150472
0.000148892
0.000150551
0.0585403
0.00014782
0.000747074
0.0613253
0.000736485
0.000164557
0.0434871
6.50739e-05
0.000151881
0.000171714
0.000147158
0.000179802
0.000147224
0.000149728
0.00132065
0.000144492
0.000145103
0.0271122
0.000171155
0.000155731
0.000161819
0.00014969
0.000147862
0.000145041
0.000147872
0.00017281
0.0114193
0.0154987
0.000149407
0.000147682
0.000184758
0.000149204
0.000153642
0.0247796
0.000152641
0.0221976
0.000149658
0.000149188
0.000167771
0.00067174
0.000187988
0.000149778
0.0242752
0.000752004
0.000149756
0.000180595
0.000155621
0.000153475
0.00015682
0.000156147
0.000231243
0.000384084
0.0694243
0.000166152
0.00019899
0.000146388
0.0212536
0.0640491
0.00014496
0.000145062
0.000151739
0.0294753
0.000180888
0.000148567
4.34247e-05
0.0496913
0.000166823
0.000193873
0.00015795
0.000147259
0.000237855
0.0308459
0.076926
0.000200568
0.000151263
0.0130023
0.000198494
0.00014745
0.000155984
0.0254767
0.000162964
0.000149286
0.00745543
0.000157617
0.000167073
0.00014506
0.000150995
0.000152227
0.0536794
0.0740732
0.0120243
0.000156829
0.000758838
0.0579989
0.062596
0.000167105
0.000147962
0.000149421
0.0421655
0.000149265
0.000146408
0.00021561
0.00583456
0.0428417
0.000148944
0.000152388
0.000256136
0.000147813
0.000163785
0.000147853
0.0617982
0.000148834
0.0503089
0.0299367
0.000170965
0.000148029
0.000149804
0.00015831
0.000155381
0.0538574
0.000150349
0.00014883
0.000148622
0.000182695
0.000158219
0.0100899
0.000161153
0.000204251
0.000149157
0.00014648
0.000149047
0.024732
0.00799246
0.000773137
0.000188379
0.000155397
0.00015099
0.00091064
0.000158031
0.0660825
0.000148573
0.0331345
0.0171704
0.000180126
0.000147845
0.00014787
0.000160454
0.000174277
0.0627022
0.00017193
0.000146685
0.000146387
0.00014977
0.000204231
0.000171081
0.000170012
0.000150415
0.00981157
0.000212692
0.000190364
0.000149405
0.0078633
0.000147084
0.000147928
0.00186836
0.000146287
0.000147533
0.00019169
0.000147369
0.0122687
0.000157997
0.000152714
0.000147097
0.000165869
0.0352995
0.000152143
0.000145653
0.000147983
0.000203442
0.0537525
0.000149762
0.000149836
0.00948663
0.000165461
0.000188095
0.000179967
0.000147954
0.000172884
0.000149834
0.000149772
0.00017698
0.000229714
0.000229192
0.000209628
0.000144566
0.000167887
0.000150577
0.000148281
0.00145176
0.000147553
0.000211878
0.000168047
0.00014856
0.000145149
0.000198308
0.00963999
0.0624771
0.000148883
0.000156405
0.0281246
0.00014688
0.00095183
0.000158369
0.00015896
0.000228071
0.000144561
0.000468244
0.000148104
0.000162286
0.000148653
0.000188063
0.0355446
0.000149778
0.0466959
0.000165164
0.000148194
0.00016898
0.000179691
0.0321042
0.0652911
0.0180926
0.000148581
0.000146088
0.0692847
0.0001636
0.000148674
0.000149887
0.000171313
0.000241694
0.000638282
0.0731061
0.00014852
0.000152185
0.000823842
0.000147717
0.000150236
0.000260956
0.00016792
0.000153482
0.00942377
0.000149826
0.000161621
0.00020773
0.00725992
0.000145602
0.00014818
0.000147866
0.000147168
0.000165128
0.000147201
0.000164786
0.00014789
0.000152935
0.000148554
0.000151219
0.000147652
0.000148326
0.000147512
0.000147483
0.0001513
0.000170207
0.0151503
0.000147844
0.0460483
0.000159672
0.0159339
0.000162592
0.000176058
0.000149214
0.0407669
0.000149816
0.000147839
0.000148782
0.000145482
0.0637648
0.000153203
0.000146213
0.000168593
0.000164462
0.00014772
0.000146876
0.0571673
0.000149198
0.000147133
0.000906292
0.00014736
0.000827882
0.01109
0.000262692
0.000153395
0.000150864
0.0405272
0.000149598
0.000147589
0.000802483
0.000149776
0.000144957
0.0143295
0.000146523
0.0382213
0.000171619
0.00018247
0.0140084
0.000149623
0.000147586
0.0533725
0.000184937
0.0212309
0.0226761
0.000147894
0.000147314
0.000149141
0.0118807
0.000161791
0.000148337
0.000149814
0.000149186
0.00016206
0.000746986
0.000155725
0.000149056
0.000149819
0.00016181
0.000122823
0.0554939
0.0341663
0.0547415
0.000162804
0.000162204
0.0373644
0.000148863
0.000146771
0.00014796
0.000147836
0.00016477
0.000148057
0.000145776
0.00915785
0.000162418
0.000168193
0.0752925
0.000163171
0.0256913
0.000147487
0.00014756
0.000147784
0.000147693
0.000149869
0.000149858
0.000147979
0.0160847
0.000148987
0.000144825
0.000259847
0.000185701
0.000146822
0.000151341
0.000164854
0.00265777
0.000151371
0.000147221
0.032669
0.000151788
0.00729567
0.0001589
0.000147243
0.0096641
0.000183003
0.000146101
0.0697748
0.0136467
0.0542058
0.000147213
0.000147097
0.000154946
0.000193716
0.000149363
0.00953931
0.0081136
0.0403278
0.0002505
0.000145432
0.000171567
0.0414129
0.068262
0.0552105
0.000148685
0.000155256
0.000155445
0.0500635
0.0121172
0.000126294
0.000148822
0.000147832
0.000148723
0.000162101
0.000148002
0.0460002
0.000155804
0.0596559
0.000148051
0.000149025
0.000147372
0.000157451
0.000159048
0.000128593
0.000147454
0.000191199
0.000841968
0.000160997
0.000147825
0.000151963
0.000162422
0.0001498
0.00016222
0.000167982
0.00016081
0.000187727
0.000150267
0.000146071
0.000147971
0.000149842
0.000165155
0.000153475
0.000179741
0.000147348
0.000150351
0.019106
0.00014462
0.000157782
0.000149711
0.000182951
0.000152451
0.0636216
0.000150049
0.0108059
0.000153873
0.000151978
0.0180178
0.0195925
0.0456549
0.000161062
0.000152775
0.000147294
0.000147858
0.00019621
0.000168661
0.000159105
0.000171096
0.0155648
0.000219551
0.000147383
0.067947
0.0388414
0.000151576
0.000147854
0.000157485
0.0713082
0.000160319
0.000149425
0.000164042
0.000179593
0.000168573
0.000156943
0.000431622
0.000155606
0.000186221
0.0285983
0.000215009
0.0028928
0.000163712
0.000180003
0.000157716
0.000148302
0.000151711
0.000147867
0.000188022
0.000181524
0.0344095
0.000170333
0.0435227
0.00861067
0.000163393
0.000152208
0.031124
0.0798425
0.000145185
0.000172055
0.00814124
0.0390752
0.00015601
0.000145278
0.000155361
0.0001563
0.000162129
0.0001824
0.000147542
0.010343
0.00015141
0.000153347
0.0525871
0.000147455
0.00015951
0.0533745
0.000147625
0.000150937
0.0655098
0.000146165
0.000191768
0.000144634
0.0114581
0.000161417
0.000170331
0.000159313
0.000154381
0.000196438
0.000152749
0.020034
0.000185839
0.000148592
0.027002
0.000170789
0.000489837
0.0198876
0.000170797
0.000186188
0.000147668
0.000145571
0.0131828
0.00015199
0.000162443
0.000149572
0.000157904
0.0508091
0.0828688
0.000165135
0.0164624
0.000164387
0.000151929
0.000145329
0.000149489
0.00016941
0.000170491
0.000146675
0.0281872
0.000157179
0.000165526
0.000149731
0.0662204
0.0535965
0.000147965
0.000145192
0.000186693
0.000149618
0.00014611
0.00993236
0.000171432
0.000149506
0.000147827
0.000204709
0.000167999
0.000159285
0.000163317
0.000148227
0.0444833
0.00017464
0.000148802
0.00018456
0.0627164
0.000147569
0.0807917
0.000145616
0.000147639
0.000149453
0.000158406
0.0534419
0.000164614
0.0312289
0.000159364
0.0467252
0.000625023
0.000157775
0.0407388
0.000148261
0.0865665
0.000151508
0.0285394
0.0385822
0.000148799
0.000764548
0.000153762
0.000154249
0.0610203
0.000165655
0.0442969
0.000146615
0.0650993
0.000147977
0.0256659
0.00014915
0.000155776
0.000161883
0.000146651
0.000144946
0.000175722
0.0289233
0.0308143
0.00014736
0.000460442
0.000157269
0.000146702
0.000148672
0.00015611
0.000197657
0.0745638
0.00016364
0.000149657
0.000155819
0.0560371
0.000155652
0.000147583
0.000146657
0.000156055
0.000160106
0.0175558
0.000147309
0.000231469
0.000163079
0.0286689
0.0523989
0.00644615
0.000145077
0.000180125
0.00014743
0.000149375
0.000158746
0.00930586
0.000146711
0.000147257
0.000147351
0.082555
0.000151276
0.000148728
0.000160139
0.000159782
0.0785603
0.0253344
0.000147447
0.000148008
0.0763865
0.00014876
0.0651351
0.0432299
0.0564597
0.000174813
0.000178805
0.0159872
0.000162031
0.000149008
0.000146526
0.000148182
0.000149227
0.000148614
0.000149337
0.0638302
0.0082039
0.000149281
0.000166831
0.000146255
0.00015197
0.000164131
0.000148461
0.000153436
0.000151233
0.000196036
0.000604408
0.000171894
0.0486435
0.000162615
0.00656206
0.000171057
0.0418847
0.0693934
0.00017516
0.000627927
0.000236263
0.0198761
0.000147812
0.000147874
0.000147695
0.000156404
0.0339738
0.000146385
0.000149825
0.000179579
0.000146685
0.000163425
0.000162641
0.000149399
0.0113735
0.000148421
0.000148023
0.000214092
0.000145881
0.000182545
0.000184876
0.000148575
0.000151417
0.000146681
0.000166191
0.000146677
0.000152212
0.000161742
0.000148004
0.0705203
0.000149069
0.0733487
0.000154593
0.000198856
0.000147717
0.000186958
0.000163587
0.000149064
0.000148623
0.0738202
0.000147873
0.0199809
0.0223426
0.000150397
0.000148579
0.000148404
0.000145164
0.0105065
0.000147803
0.0768681
0.00727694
0.000165467
0.0437135
0.000147287
0.000147364
0.0633435
0.0653361
0.000152737
0.000147917
0.000147759
0.000146441
0.000152155
0.000161832
0.000239446
0.000154128
0.00818253
0.000617367
0.00245899
0.000157923
0.000148018
0.0254491
0.0217078
0.000160117
0.000147749
0.000148684
0.0747404
0.000148031
0.01143
0.000164785
0.000149658
0.000156116
0.00014577
0.000163472
0.000156143
0.000146711
0.000144638
0.000151828
0.0329571
0.000149439
0.000181753
0.0356095
0.000148543
0.000147363
0.000161243
0.0069271
0.000161429
0.0613528
0.000149714
0.000145106
0.000151249
0.0262014
0.000188912
0.000359186
0.000148465
0.000157276
0.000148087
0.0572252
0.000146119
0.0114931
0.000162301
0.0118515
0.00014921
0.000147293
0.000179219
0.000147667
0.0283873
0.000148678
0.000589197
0.000149699
0.000146427
0.00015205
0.000232641
0.0249997
0.000155575
0.000150151
0.000149744
0.000148519
0.000146658
0.00014987
0.000190502
0.000149418
0.0492972
0.000152073
0.0608744
0.000148062
0.000145288
0.00015162
0.0654201
0.0778979
0.000149794
0.0352554
0.000148218
0.00611244
0.000149764
0.000195223
0.000146955
0.056854
0.00014723
0.000156276
0.000148229
0.000147497
0.000149727
0.0614495
0.0115286
0.0403827
0.000158149
0.000156707
0.000153679
0.000147782
0.000145625
0.00014618
0.000151152
0.000200799
0.000149025
0.0150092
0.000180538
0.000147897
0.000149947
0.00591175
0.00019639
0.000151397
0.000153568
0.000158891
0.0252112
0.000176656
0.084726
0.000180995
0.000185325
0.00017354
0.000147995
0.000147203
0.000180578
0.000161515
0.000147934
0.0320494
0.00015649
0.0203953
0.000149366
0.000178254
0.000158154
0.000173584
0.000155666
0.00014829
0.000122926
0.00014841
0.015681
0.000148314
0.000148254
0.0613151
0.000161843
0.000157733
0.0626293
0.000147324
0.000169845
0.0273337
0.000147828
0.000168438
0.0315315
0.000150753
0.000147229
0.000148413
0.000153619
0.00015319
0.000186912
0.0216395
0.000152218
0.00015508
0.0318293
0.000145258
0.0099839
0.000154438
0.000152018
0.000127098
0.0132764
0.000146095
0.000147341
0.000152985
0.000146168
0.000145727
0.0788734
0.000149787
0.00015796
0.00014521
0.000163508
0.00014608
0.000171898
0.000198482
0.000151436
0.0510714
0.000147417
0.000152374
0.000147492
0.0463941
0.000156667
0.000146915
0.00014791
0.000149051
0.000147321
0.000187276
0.0585604
0.0241912
0.0501975
0.00014918
0.000149606
0.000187946
0.000148804
0.000146152
0.000291079
0.0456246
0.000152232
0.000148279
0.0293857
0.000149468
0.000149175
0.0434187
0.000186264
0.0053721
0.00015115
0.000147923
0.0431195
0.000148898
0.000157453
0.000149447
0.000161164
0.000148037
0.000176326
0.000193909
0.000170591
0.000148555
0.0518212
0.000150166
0.000146956
0.000149365
0.000148363
0.000147686
0.000148806
0.0555335
0.000149583
0.0421324
0.00014963
0.000158702
0.0687504
0.000146487
0.000199823
0.000151208
0.000146463
0.000152108
0.000187099
0.000148152
0.00014732
0.00014875
0.000148042
0.000177764
0.000145807
0.000149652
0.000156266
0.000148503
0.000159065
0.0151292
0.0449477
0.0159633
0.0722586
0.000192696
0.000173061
0.0782193
0.0398896
0.000147921
0.000149242
0.000145485
0.000169572
0.0283271
0.000161532
0.000154498
0.000145279
0.000147571
0.000148978
0.000152156
0.0406577
0.0608058
0.0116514
0.000177752
0.00014858
0.000149523
0.000148961
0.0311769
0.000539815
0.0001478
0.000579711
0.000145684
0.000162344
0.000151943
0.000163039
0.000161503
0.000153977
0.000151293
0.000170999
0.000145843
0.000147166
0.000173584
0.000147475
0.000148206
0.000177436
0.000227983
0.000148763
0.000166666
0.000147463
0.000148047
0.000146548
0.000147905
0.0561225
0.000157878
0.000151003
0.000148782
0.0484143
0.000172129
0.000148393
0.000157242
0.000160996
0.0228341
0.000211042
0.0637491
0.000189842
0.00018335
0.000192157
0.000190605
0.000170082
0.0357891
0.000145103
0.000147394
0.000147564
0.000172097
0.000148893
0.0234812
0.000147453
0.000148757
0.0630509
0.000171899
0.000149551
0.00016686
0.000147542
0.000150668
0.000231634
0.000186381
0.000147672
0.00023504
0.000182985
0.0133113
0.0613705
0.000148009
0.0342242
0.000147387
0.000167829
0.000146964
0.000146779
0.0398463
0.000162523
0.000152379
0.000147646
0.0458832
0.000153701
0.0435039
0.0623285
0.000149775
0.000145908
0.000152967
0.0549307
0.000183242
0.000169511
0.000159069
0.000235583
0.000148013
0.000150011
0.000147845
0.000148175
0.00015115
0.00016233
0.0728976
0.000178773
0.000194398
0.0313134
0.000147768
0.0125922
0.000182914
0.000162397
0.000149226
0.000147947
0.00014742
0.00014727
0.000147437
0.0114921
0.000183151
0.0675286
0.000178877
0.000185962
0.000148974
0.000184989
0.0628278
0.000159534
0.000154998
0.000146745
0.0746964
0.0414499
0.000175829
0.000196268
0.000148074
0.0102339
0.000150713
0.000152839
0.000168619
0.000169361
0.000146059
0.000185777
0.0519762
0.00014984
0.0131071
0.0640462
0.0711265
0.0113574
0.000162253
0.000102446
0.000163679
0.000163026
0.0416773
0.000147349
0.000159427
0.000147071
0.000149639
0.0534645
0.000151788
0.0741531
0.000145898
0.000147927
0.0336392
0.000147731
0.0741295
0.000150871
0.000185118
0.000152033
0.00014916
0.0756572
0.000154823
0.000183237
0.000147005
0.000147376
0.000227864
0.000176816
0.000148293
0.000155842
0.000259452
0.000181545
0.000503947
0.000149719
0.000147675
0.000144759
0.000147644
0.000156778
0.000164382
0.000145451
0.0633869
0.000147224
0.00014819
0.000171176
0.0351283
0.000178829
0.000159224
0.000146248
0.000150766
0.000179677
0.000398629
0.000189501
0.0280597
0.000157013
0.000162696
0.000242991
0.000148354
0.000168373
0.048474
0.000147418
0.000197906
0.023844
0.00012728
0.000115715
0.0686513
0.000184949
0.000148663
0.0182671
0.000155027
0.000170774
0.000179899
0.000147483
0.000190211
0.000147536
0.000148139
0.00017347
0.0138732
0.000159338
0.00014746
0.000164486
0.0307503
0.000166416
0.0136978
0.000147633
0.0343273
0.000146169
0.000169657
0.000182578
0.000147621
0.0287992
0.000147799
0.000146756
0.000148566
0.000148226
0.0695186
0.000188481
0.000149661
0.0616027
0.000148434
0.0188484
0.000146094
0.00831641
0.000162162
0.000189854
0.000152777
0.000147564
0.000145763
0.000148482
0.000240723
0.000176411
0.000148701
0.000170214
0.0124958
0.0728745
0.000170831
0.0412233
0.0698415
0.000147632
0.0273272
0.000146423
0.000241241
0.000147944
0.000148661
0.000149034
0.000174991
0.0249903
0.000228313
0.000183552
0.0499775
0.000196419
0.00018388
0.0447458
0.000147027
0.000171883
0.0179579
0.000144827
0.000172824
0.0533796
0.00021629
0.000147389
0.0479485
0.000165462
0.00741414
0.00292581
0.000157195
0.000182928
0.00015483
0.000147512
0.000145115
0.0289989
0.000195231
0.000182497
0.000192258
0.000147219
0.0143948
0.00015957
0.000144469
0.00014967
0.000176926
0.000153255
0.000149386
0.000149794
0.000235316
0.000147174
0.000163247
0.022356
0.000145708
0.000147136
0.0017496
0.000146628
0.000161264
0.000158202
0.000176123
0.000544997
0.00014769
0.000182456
0.000159296
0.00016972
0.000157575
0.000154387
0.000168418
0.000237747
0.000169339
0.0383706
0.000167271
0.000148931
0.000231097
0.0381831
0.000185497
0.000146361
0.00014824
0.000170333
0.00015211
0.0810646
0.000206189
0.000158436
0.0215032
0.000152268
0.000191897
0.0217648
0.000148
0.000148751
0.000148353
0.000147751
0.0134333
0.000168832
0.000155078
0.000194747
0.00026229
0.000168647
0.000149037
0.000153409
0.000170925
0.0001474
0.000146997
0.0131988
0.000151148
0.000702613
0.000146667
0.00014784
0.000149793
0.000167723
0.000161368
0.000165877
0.000148654
0.000151571
0.0735086
0.0164057
0.000665978
0.000637798
0.000153492
0.000150257
0.077485
0.000181094
0.00977319
0.000162472
0.00014726
0.000172116
0.000155315
0.000149889
0.000146425
0.00016694
0.00018563
0.0455175
0.000180687
7.10907e-05
0.000149061
0.000150902
0.000148521
0.0001996
0.0206921
0.000221936
0.000763158
0.000147138
0.0521804
0.000151337
0.000147662
0.000153006
0.000148824
0.000217664
0.000147941
0.000189274
0.000145687
0.000642214
0.000158006
0.0117745
0.000150114
0.000148795
0.000154845
0.000146019
0.000186475
0.000690429
0.0769501
0.000172115
0.00014552
0.0801787
0.000163905
0.000147721
0.000167724
0.00014701
0.000153325
0.000144697
0.000238517
0.000154052
0.000178489
0.000171576
0.000146698
0.0778702
0.000145514
0.000155275
0.000149564
0.000152568
0.000146101
0.000148199
0.000161481
0.000149867
0.000154358
0.000145853
0.000152656
0.000497477
0.0113071
0.000149632
0.000171129
0.0728379
0.000147245
0.00014897
0.000158523
0.000198597
0.000148258
0.000174432
0.0130446
0.00015098
0.072444
0.0127079
0.00014785
0.000150306
0.000166565
0.000144322
0.0191012
0.0341596
0.0428343
0.000151605
0.000159467
0.000144887
0.00049835
0.00015648
0.000191099
0.000149627
0.000177837
0.0151967
0.000187541
0.000152832
0.0042341
0.0177836
0.0490577
0.000149611
0.000146641
0.0616623
0.000589592
0.000146593
0.000148586
0.000184723
0.000150214
0.000208959
0.000469083
0.000146139
0.000150372
0.0145209
0.00018302
0.000150858
0.000144413
0.000164869
0.000149353
0.000218774
0.000147199
0.000149103
0.000147935
0.000152096
0.000148323
0.000184189
0.000147091
0.000154488
0.0489838
0.0340916
0.0293042
0.000147052
0.000168687
0.000187078
0.000148622
0.000153129
0.000168831
0.000147201
0.00015232
0.0531572
0.000164408
0.000147873
0.00014823
0.000147746
0.0168581
0.0698823
0.000146907
0.000149727
0.000147756
0.000179775
0.0329361
0.000152059
0.000174623
0.000148859
0.000165731
0.00015847
0.00011939
0.0105076
0.000149356
0.000239838
0.0696582
0.000163148
0.000147752
0.000163311
0.000159122
0.000161917
0.000155515
0.000147893
0.000197088
0.000155588
0.000296122
0.000161498
0.000148974
0.000149728
0.0394848
0.000148694
0.000157698
0.000238702
0.000160689
0.083812
0.0066228
0.00014771
0.000184604
0.000264829
0.000184704
0.000162136
0.000152151
0.000148333
0.0116956
0.000161901
0.000147993
0.000168019
0.000180618
0.000441481
0.0514752
0.000148312
0.000155938
0.000149113
0.000227891
0.000187282
0.000149157
0.000171823
0.000154568
0.000151218
0.000149176
0.0181418
0.000178459
0.000147876
0.00015296
0.061968
0.000149715
0.00014792
0.000156514
0.000165125
0.000147994
0.00014899
0.000152741
0.00460415
0.000159859
0.000147672
0.000146821
0.000148443
0.000170886
0.000147909
0.000147574
9.14164e-05
0.080734
0.000147318
0.000149737
0.000178748
0.000161393
0.000169282
0.000149137
0.0149482
0.000147175
0.000150551
0.000159436
0.0783174
0.0235733
0.000194406
0.000169842
0.060033
0.0160608
0.0158369
0.056069
0.000153313
0.00014784
0.000146108
0.000161561
0.000147333
0.000147877
0.000147926
0.000177521
0.000147468
0.0314183
0.000162081
0.0745145
0.000148348
0.0619908
0.000148078
0.000157402
0.0001459
0.000151002
0.000160765
0.000228145
0.000149146
0.000146858
0.000153922
0.0694378
0.000147255
0.000169025
0.000149224
0.000162371
0.0117836
0.00017927
0.000788732
0.000158428
0.000198313
0.000149142
0.0481295
0.0140694
0.000147015
0.0717149
0.0206312
0.000147493
0.000145005
0.000167886
0.000160411
0.000166991
0.000145789
0.0325684
0.000157765
0.000172248
0.000145722
0.000147522
0.000157226
0.0209935
0.00787966
0.0148229
0.000167878
0.0228748
0.000160895
0.0164273
0.000148556
0.000586592
0.000147662
0.000155954
0.000394973
0.000151177
0.000197137
0.000147475
0.000153618
0.057038
0.0142875
0.000147595
0.000590976
0.000147863
0.0750501
0.00014656
0.0779414
0.0260502
0.000147895
0.0361006
0.000157249
0.0407457
0.000148004
0.000155519
0.000150534
0.000172433
0.000148001
0.000192366
0.000146526
0.0686919
0.000185832
0.0754976
0.000149173
0.000145909
6.3874e-05
0.000151952
0.000156926
0.000147352
0.000167625
0.0001537
0.000147972
0.0147287
0.000148304
0.000147532
0.000149701
0.000148656
0.0461657
0.000162639
0.000147509
0.0398988
0.000578302
0.000188763
0.000147355
0.000179525
0.000779088
0.000147776
0.000156096
0.00014996
0.000148207
0.000147516
0.000148199
0.000157237
0.000159147
0.0606448
0.000186124
0.000181596
0.000149832
0.000147639
0.0371802
0.000166602
0.000147451
0.000149882
0.0183622
0.0683678
0.00014808
0.0725689
0.000160993
0.000200568
0.000149845
0.0588813
0.000146153
0.00015167
0.000148552
0.000147045
0.00015145
0.0359267
0.000146132
0.0601612
0.000197612
0.000275634
0.0337509
0.000148561
0.000148227
0.0334153
0.00016731
0.000169664
0.000147936
0.000202516
0.000149189
0.068429
0.0404427
0.0402208
0.000148508
0.0691358
0.0565482
0.0644682
0.000184998
0.000153821
0.000183198
0.000147403
8.81421e-05
0.0732264
0.00016082
0.0475915
0.000146587
0.000148195
0.000167719
0.028689
0.000162084
0.000142451
0.000147758
0.0513246
0.000169122
0.000163022
0.000146525
0.000164356
0.0001812
0.000148183
0.000168694
0.00016664
0.000240913
0.000146034
0.000147203
0.0533604
0.0428646
0.000152325
0.0366517
0.000161063
0.000147894
0.068663
0.0271852
0.000148537
0.000251353
0.000145979
0.00014865
0.000172816
0.0500465
0.000149232
0.0283859
0.000152162
0.000147723
0.0183516
0.000149393
0.000184672
0.000146852
0.000493308
0.000148118
0.0194205
0.000146874
0.000162598
0.000148238
0.000155684
0.000179236
0.0696053
0.000161876
0.0352941
0.000159858
0.0649795
0.0699959
0.0430258
0.000147035
0.0255716
0.072246
0.0131372
0.000127176
0.00014957
0.000146887
0.000148548
0.000216411
0.000147842
0.000148918
3.57266e-05
0.000149563
0.0301813
0.000151307
0.0570943
0.000147835
0.000149515
0.000196194
0.000144998
0.000178264
0.000147183
0.000168208
0.000182936
0.017104
0.00014658
0.000147445
0.0723558
0.0688749
0.000149601
0.000159614
0.000165123
0.000150327
0.0104073
0.0436171
0.0717343
0.000188401
0.0303201
0.00888307
0.000233884
0.000147126
0.000146438
0.000150587
0.000147463
0.000158574
0.0270992
0.0689883
0.000148468
0.000152775
0.000151128
0.00356304
0.0817469
0.00123787
0.0002234
0.000148456
0.000185854
0.0599003
0.000154752
0.0497622
0.000173527
0.00014909
0.0761724
0.0355805
0.00718248
0.000149315
0.000151081
0.000167215
0.000132977
0.000147013
0.000148318
0.000149577
0.00014649
0.000148197
0.0689713
0.000152451
0.000145768
0.0229236
0.000148582
0.0385053
0.000167209
0.0393884
0.00012896
0.000147697
0.0767071
0.00017087
0.000227826
0.000150228
0.000159664
0.000147981
0.000150761
0.0196757
0.00019909
0.000175155
0.000150354
0.000147427
0.000171208
0.000152005
0.000148323
0.000154743
0.000147511
0.053965
0.000147843
0.0337743
0.0270161
0.000151277
0.000147719
0.0287165
0.000147012
0.000147045
0.000249273
0.000153935
0.000152495
0.000178587
0.000347622
0.072792
0.000159719
0.000151748
0.000149371
0.0480771
0.0166326
0.00015873
0.00016672
0.000147264
0.000147877
0.000152812
0.00014679
0.000185318
0.00016149
0.0001482
0.000149603
0.000148522
0.000147454
0.000148003
0.000147405
0.000506259
0.0328853
0.060743
0.000217382
0.0042602
0.000194115
0.000154173
0.0269564
0.0240033
0.00782232
0.000148532
0.000147201
0.000769094
0.00273094
0.000192745
0.000199873
0.0761575
0.000148517
0.000147679
0.052412
0.00014679
0.00020526
0.000185571
0.00015055
0.015526
0.0369011
0.000149707
0.017797
0.0313223
0.000174172
0.000238791
0.000148923
0.00365078
0.00026964
0.0795782
0.000146829
0.000164236
0.0157875
0.000147126
0.000169561
0.000147645
0.000171314
0.00014855
0.0300116
0.000147533
0.000148291
0.000152239
0.000149539
0.0384677
0.000169185
0.000148733
0.000149071
0.023085
0.000147589
0.000152246
0.000176464
0.00018464
0.000149938
0.000165861
0.000161785
0.000147593
0.000215673
0.000148119
0.000147855
0.000158031
0.000147779
0.000162543
0.0642469
0.000236972
0.000148022
0.067312
0.0127363
0.000188815
0.016434
0.000170428
0.000152781
0.0408594
0.000157414
0.000152246
0.000166797
0.000171083
0.000148387
0.000146198
0.000148625
0.00019415
0.0413169
0.0740612
0.0681333
0.000146624
0.000153941
0.000176388
0.000177322
0.0441058
0.00014882
0.0411504
0.000149568
0.0217915
0.000145882
0.0417658
0.000150305
0.0717199
0.0320159
0.000183802
0.0522122
0.000163982
0.00014674
0.000166722
0.0141053
0.0609313
0.00015647
0.000149525
0.00014757
0.000148616
0.000159711
0.000149907
0.00015181
0.000146715
0.000176315
0.000148051
0.0727225
0.000149449
0.0470314
0.000146027
0.000200333
0.0702348
0.000150745
0.0133685
0.000148004
0.000157364
0.000149247
0.000149267
0.000147686
0.000182896
0.000184776
0.000146897
0.000152577
0.000148015
0.0490583
0.000161836
0.000173725
0.000198469
0.000148056
0.000174415
0.000151088
0.000150583
0.000161495
0.000148608
0.0001671
0.0767218
0.000148094
0.0644796
0.000155747
0.000147353
0.000146163
0.0264075
0.000147994
0.0711668
0.000178007
0.000149775
0.0126185
0.000189415
0.0434204
0.000156876
0.000153924
0.000148562
0.000174071
0.0263013
0.000148811
0.000166234
0.000148546
0.000197913
0.000543032
0.0165615
0.0729127
0.0464936
0.000157624
0.0154298
0.000149188
0.0487438
0.000185666
0.000157096
0.000234015
0.000181722
0.000145226
0.000162864
0.000148034
0.000146789
0.000152789
0.00014789
2.68366e-05
0.000295948
0.000213622
0.00712009
0.000148377
0.000804804
0.000148283
0.000147779
0.000169067
0.0557079
0.000147
0.0370195
0.00016828
0.000199073
0.025659
0.000149508
0.000168059
0.0321622
0.000162061
0.000148274
0.000184505
0.000148
0.000148768
0.000149584
0.000304519
0.0669516
0.000155459
0.00014857
0.0393312
0.0770498
0.000149286
0.000149565
0.0024377
0.0831925
0.000149032
0.000188122
0.000182755
0.000147206
0.000162242
0.000145973
0.0281833
0.000147749
0.086499
0.0752498
0.0701711
0.000154241
0.000157559
0.000147711
0.00014654
0.013833
0.000146871
0.0287802
0.0606043
0.0001751
0.000146816
0.000146215
0.00021686
0.000185092
0.000162805
0.0872065
0.000179252
0.0211046
0.000151676
0.0549476
0.000404816
0.00015819
0.000188366
0.0773208
0.00830431
0.00014837
0.00783135
0.000146232
0.00763646
0.000239823
0.000309503
0.00014531
0.000166531
0.0001486
0.000319689
0.0401182
0.000151118
0.00015077
0.0811541
0.044291
0.00014808
0.0464285
0.0129711
0.0145166
0.000149395
0.0747778
0.000148927
0.0107947
0.000148643
0.000151087
0.000149286
0.000148117
0.0292239
0.000221964
0.00014634
0.0440216
0.0214921
0.000144729
0.000146174
0.000161431
0.000165639
0.000196399
0.000167347
0.0335435
0.0526476
0.0514793
0.0771876
0.000196916
0.000151003
0.00020586
0.000182303
0.021714
0.00851172
0.0367522
0.00019526
0.000177751
0.000153782
0.0204871
0.000169406
0.000173222
0.000149165
0.000154505
0.0435434
0.000148517
0.000157426
0.000204456
0.000153274
0.000168749
0.000148154
0.000151795
0.0770968
0.000188412
0.000146069
0.000154165
0.0263338
0.000252263
0.000162706
0.000424695
0.0137371
0.000167549
0.000214815
0.0430426
0.000150102
0.0438807
0.000196083
0.0144439
0.000148886
0.000144339
0.0161528
0.0300252
0.0331745
0.0802527
0.0358712
0.000161706
0.000185853
0.000152239
0.0371951
0.000148114
0.000148045
0.000172433
0.000178764
0.000177386
0.0309864
0.00015047
0.000686268
0.0416737
0.000150224
0.000187654
0.000157041
0.000178456
0.000189527
0.000167993
0.0380452
0.0398633
0.0397304
0.000487046
0.000161968
0.000147993
0.000150813
0.000158541
0.000171231
0.0303335
0.0362135
0.0278381
0.000163466
0.000146698
0.000230153
0.000167833
0.0554718
0.000148534
0.0174454
0.000169142
0.0357363
0.000148498
0.00517339
0.000174223
0.000185247
0.00293341
0.00014689
0.0133117
0.0351573
0.000146735
0.000179623
0.0484263
0.000150142
7.28976e-05
0.000152469
0.000151684
0.000149696
0.055838
0.000169851
0.000313106
0.000160746
0.0765089
0.000146648
0.000144587
0.000147237
0.000148294
0.000147559
0.083497
0.000194678
0.0411482
0.000149347
0.000146885
0.0783319
0.000159745
0.0347162
0.000194448
0.000149196
0.000234591
0.000156517
0.000168729
0.0377974
0.000157896
0.0244385
0.000215128
0.000155081
0.000145382
0.000180258
0.000144738
0.000210332
0.0248659
0.000228362