/*--------------------------------*- C++ -*----------------------------------*\
| =========                 |                                                 |
| \\      /  F ield         | OpenFOAM: The Open Source CFD Toolbox           |
|  \\    /   O peration     | Version:  v2012                                 |
|   \\  /    A nd           | Website:  www.openfoam.com                      |
|    \\/     M anipulation  |                                                 |
\*---------------------------------------------------------------------------*/
FoamFile
{
    version     2.0;
    format      ascii;
    class       volScalarField;
    location    "50";
    object      omega;
}
// * * * * * * * * * * * * * * * * * * * * * * * * * * * * * * * * * * * * * //

dimensions      [0 0 -1 0 0 0 0];


internalField   nonuniform List<scalar> 
18355
(
0.0347627
5.3577
0.0218856
0.0216655
0.0223441
0.0797022
0.0219603
0.0572514
0.023243
5.46274
0.0215299
5.87913
0.0939159
0.0219761
0.0220396
0.023726
6.70935
0.0217352
0.0220109
4.88967
0.0257983
0.0224362
5.07028
0.0223476
0.0246168
0.0221453
0.0220723
0.0231045
4.47058
0.0219589
0.0219828
0.0230188
0.0217334
0.0218137
0.0518254
0.0357203
0.0225711
0.189668
0.0230646
0.0215462
0.0219782
0.0851693
0.0218822
7.83384
0.0218054
0.203603
0.0489139
0.0239968
0.0454038
0.0217535
0.0215601
0.0218267
0.0222775
5.43795
0.0220856
0.0220656
0.120598
0.0220665
3.51109
0.163312
0.0217582
0.0642921
0.0217182
0.0452747
5.42106
0.0333599
5.8285
0.0335945
0.0220788
0.0223409
0.0604475
0.0222556
0.17237
0.0217968
0.0575135
0.0219538
5.83678
0.0229682
0.02699
0.0218051
0.0219696
0.899969
0.0254514
0.0442396
0.0221381
0.0915834
5.45024
4.86027
3.92089
5.53307
0.2577
0.0218339
0.0221087
0.0214881
20.6487
4.95522
0.0217781
0.0253685
5.27199
6.26232
6.05288
6.47384
0.043959
5.05935
0.022523
0.106616
9.3821
0.163341
0.032207
0.351257
0.0219263
0.0229012
0.0221474
0.0229934
5.11076
0.0219998
4.69117
5.81742
4.46844
0.0447242
5.19742
1.60606
0.0229437
0.0601676
0.0217768
0.174578
0.0218245
0.0222623
4.6847
0.021492
0.0215664
6.01702
0.0450253
0.0251948
0.0435011
0.022257
0.0218826
0.0215257
0.0219631
0.0756453
3.65408
2.38661
0.0223505
0.0219192
0.355086
0.0222809
0.0258729
9.40003
0.0234493
10.1348
0.0222047
0.0222646
0.0496261
3.88723
0.0819289
0.0222694
5.88425
3.57718
0.0222664
0.0690877
0.0267803
0.0243955
0.0303822
0.0254406
0.237215
2.89596
11.128
0.0422847
0.153047
0.0217662
1.98996
4.85486
0.0215308
0.0215364
0.0235716
7.04814
0.058718
0.0221017
2.76582
25.8153
0.0914387
0.1491
0.0269812
0.0219139
0.278463
6.60829
5.47963
0.183825
0.0232528
8.47274
0.111413
0.021885
0.0252987
5.13358
0.049128
0.0223104
4.69982
0.0266512
0.0376011
0.0215386
0.0227613
0.0241468
14.2901
5.33059
21.7812
0.0284916
3.29077
5.04268
4.92056
0.0375754
0.021912
0.0221441
4.71608
0.0222948
0.0217704
0.765937
2.95527
4.7464
0.0221548
0.023336
0.515763
0.0219507
0.0417644
0.0218959
9.64083
0.0221544
4.92003
6.85307
0.113381
0.0219375
0.0222726
0.0264823
0.0265575
5.19448
0.0226402
0.0221386
0.0221094
0.176103
1.04185
30.6377
0.0309984
0.233768
0.022013
0.0217807
0.0222317
9.17536
5.83215
3.14926
0.0817137
0.0264904
0.0227686
6.11453
0.0270093
5.12668
0.0220858
4.7159
3.95588
0.0691281
0.0219374
0.021937
0.0318686
0.0688602
17.5015
0.0466671
0.0218304
0.0217707
0.022268
0.195477
0.0823522
0.126428
0.0228152
13.2708
0.224019
0.10395
0.0222792
4.50326
0.0218111
0.0219936
9.82261
0.0217686
0.0219523
0.105181
0.0219083
3.40678
0.0269895
0.0249017
0.0218411
0.0417356
5.27531
0.0230418
0.0216694
0.0219868
0.14462
4.84132
0.0222669
0.0222776
3.41761
0.0446218
0.0796714
0.289935
0.0219986
0.0633262
0.022541
0.0222689
0.240057
0.233883
0.265103
0.153015
0.0215019
0.102422
0.0224065
0.0220127
3.70139
0.0219101
0.257894
0.0824841
0.0221009
0.0215917
0.216942
25.9066
5.36828
0.0221558
0.0292573
9.11489
0.0216678
1.15572
0.0264964
0.033025
0.42774
0.021504
4.00569
0.0219747
0.0455086
0.0221146
0.0799934
4.99094
0.0222696
20.5525
0.0365187
0.0220422
0.0474354
0.0646521
5.54577
5.47884
4.77618
0.0220945
0.0217136
4.92792
0.0594622
0.0221169
0.0224798
0.244564
0.276671
2.62579
5.05177
0.0220939
0.0232881
2.49409
0.0219246
0.022641
0.326163
0.038645
0.0237636
24.3016
0.0222757
0.0464975
0.670523
31.1608
0.0216641
0.0219879
0.0219695
0.0217881
0.0660286
0.0217894
0.0399184
0.0219734
0.0241017
0.0220986
0.0233304
0.0218
0.0220268
0.0217897
0.0217826
0.0232507
0.12241
1.73784
0.0218829
5.80386
0.0348441
1.72101
0.0317678
0.0685243
0.0223067
5.85018
0.0225197
0.0220031
0.0221318
0.0216349
5.32267
0.0240758
0.0216401
0.0421102
0.0396561
0.0219231
0.0216639
5.60874
0.0222795
0.021817
5.39064
0.021912
4.13842
8.94013
0.334379
0.0259145
0.0225028
4.86151
0.0222449
0.0219353
4.04511
0.0222689
0.0215331
8.41613
0.0217907
4.80556
0.0425044
0.0632307
7.03088
0.022424
0.0219367
5.64192
0.0781101
1.9282
5.0502
0.0219793
0.021922
0.0222582
3.78901
0.0435386
0.0220146
0.0222744
0.022277
0.0486242
3.37146
0.0272068
0.0222313
0.0222748
0.0309525
0.239368
4.87406
4.70894
6.41622
0.0524965
0.0477689
6.23385
0.021999
0.0218382
0.021986
0.0218848
0.064212
0.0220182
0.0215251
7.37711
0.0513354
0.0452602
5.66188
0.0556445
8.65615
0.0218719
0.0217895
0.0219336
0.0219765
0.022282
0.0222802
0.0220032
2.47624
0.0221905
0.0215395
1.08829
0.133382
0.0218459
0.0227639
0.0604569
13.2489
0.0232905
0.0217751
5.58715
0.0237004
10.2822
0.0268457
0.0217975
6.65706
0.122614
0.0217278
5.45213
2.85666
6.74615
0.0217977
0.0217612
0.0261173
0.116961
0.0223584
12.9728
3.41666
5.71214
0.835434
0.0216272
0.0424153
4.88607
4.94734
5.36804
0.0221
0.0266635
0.0264378
5.0131
6.05221
0.234098
0.0221531
0.0219614
0.0221235
0.0432507
0.0220082
5.47051
0.0269336
5.22973
0.0219655
0.0222152
0.0219005
0.032542
0.0318061
0.184337
0.0219272
0.103651
3.70879
0.0288707
0.0219336
0.0240705
0.0301928
0.0222723
0.0326937
0.0388872
0.0287408
0.123714
0.0226871
0.0217242
0.0219908
0.0222784
0.0398596
0.0237433
0.0658627
0.0218471
0.0223711
1.94687
0.0215148
0.0330465
0.0224819
0.154246
0.0248479
5.26841
0.0224402
33.6847
0.0258745
0.0238991
3.99304
1.91192
10.7017
0.0289231
0.0237882
0.0218064
0.0219622
0.111971
0.0488413
0.0337488
0.103823
2.46434
0.228305
0.0219225
5.83099
6.56987
0.0228429
0.0219587
0.0341751
5.38409
0.0317673
0.0222206
0.068304
0.120204
0.0518435
0.0314953
4.02028
0.0251549
0.0936928
8.06993
0.616906
3.66586
0.0568952
0.161233
0.0269829
0.0220647
0.0228892
0.0219427
0.363837
0.300805
5.76705
0.129281
4.80706
4.17364
0.062366
0.0239016
6.77974
11.4826
0.0215405
0.149993
4.71652
7.682
0.0275093
0.0216127
0.0249941
0.0254632
0.0298109
0.0867182
0.0219065
33.7429
0.0233329
0.0248562
4.93404
0.0218785
0.0326925
5.39964
0.0219438
0.0228582
4.78943
0.0217575
0.106639
0.0215137
3.23856
0.0292568
0.0410442
0.0339307
0.0252225
0.124036
0.0248907
10.1938
0.0760596
0.0219123
9.74354
0.0416538
4.91283
6.99127
0.453396
0.269293
0.0219206
0.0216406
3.06611
0.0239984
0.0329057
0.0222406
0.0269993
6.40631
6.26321
0.0402836
18.7899
0.0599488
0.0236686
0.0216168
0.0222292
0.0436361
0.0769689
0.0216911
10.0506
0.0292582
0.044917
0.0221302
5.16086
5.22544
0.0219603
0.0215466
0.0827851
0.0222469
0.0217256
2.62473
0.136515
0.0224051
0.0219576
0.145748
0.0462206
0.0271777
0.0584903
0.0219967
4.72914
0.0506632
0.02215
0.342762
4.8265
0.0219579
6.29521
0.0216611
0.0219466
0.0224217
0.0346553
5.53435
0.0359648
7.00873
0.0318211
4.65774
0.923352
0.0271212
4.98167
0.02201
10.5463
0.0228253
6.88669
5.28096
0.0221366
4.26686
0.0247614
0.026553
11.3206
0.0836332
4.69822
0.021813
5.35172
0.0219678
7.51888
0.0220717
0.0271474
0.0296799
0.0218022
0.0215471
0.0511325
5.3376
7.15237
0.0219293
2.574
0.0266939
0.0218104
0.022116
0.0282839
0.134396
11.3664
0.034501
0.0220635
0.0268436
4.97059
0.0268364
0.0219131
0.0218006
0.0270339
0.0296712
16.9455
0.0218602
0.708821
0.0482538
6.25603
6.68446
5.77989
0.0215882
0.0575382
0.0218854
0.0222942
0.0276713
3.63508
0.0218344
0.0218047
0.0218018
10.9052
0.0233597
0.021941
0.0333215
0.0308313
5.63101
7.11028
0.0219343
0.0219772
5.48315
0.022138
4.94549
4.95818
5.25084
0.181897
0.23859
4.22185
0.0298618
0.0221636
0.0217881
0.0219865
0.0222879
0.0221083
0.0223281
9.13558
9.46848
0.0222318
0.086223
0.0217702
0.0237018
0.039403
0.0220862
0.024783
0.0230309
0.518744
3.00018
0.0598713
4.62875
0.0508441
4.94132
0.0745049
4.56356
4.96353
0.0524886
5.95317
0.261284
6.46777
0.0217936
0.021975
0.0219778
0.0255496
4.43379
0.0217674
0.022276
0.0758657
0.0218341
0.045075
0.0436561
0.0222177
3.79951
0.0218818
0.0219772
0.169583
0.0216909
0.152494
0.332367
0.0220849
0.0227342
0.0218111
0.0670167
0.0218289
0.0235561
0.670576
0.0219837
4.97208
0.0221558
5.06138
0.0242168
0.114493
0.0219632
0.0757771
0.0381209
0.0221714
0.022094
5.0712
0.0219576
8.27046
7.05553
0.0228274
0.0221055
0.0220782
0.0215776
2.30957
0.0219578
5.20882
10.3358
0.0440826
8.50375
0.0218442
0.021889
5.40413
4.80566
0.025013
0.0220034
0.021929
0.0217768
0.0230031
0.0459346
1.1414
0.0250204
10.3276
3.01049
2.16809
0.0342305
0.021882
10.1321
2.07042
0.033058
0.0219676
0.0221136
5.15826
0.0220129
3.079
0.0630928
0.022253
0.0283528
0.0215923
0.0341355
0.0265759
0.0218382
0.0215221
0.0228754
7.32506
0.022223
0.0602561
6.27166
0.0220593
0.0219108
0.0447822
5.47005
0.0306093
4.74623
0.0224526
0.02157
0.0233773
8.80122
0.394093
1.95531
0.0219424
0.0317989
0.0219707
4.75278
0.0216631
3.82753
0.0473786
1.98738
0.0221915
0.0219231
0.247015
0.0219228
9.28186
0.0219589
3.74873
0.0222585
0.0217775
0.0241528
0.755135
4.85894
0.0269049
0.022452
0.0225295
0.0219006
0.0216867
0.0222821
0.119178
0.022362
4.87642
0.023569
4.77657
0.0218351
0.021595
0.516554
4.82863
6.3252
0.0224653
4.90451
0.0218631
16.7724
0.022484
0.171665
0.0218007
7.88985
0.0218758
0.0267565
0.0220481
0.0218945
0.0222622
5.40758
4.21528
4.70841
0.0348718
0.025721
0.0245497
0.0219904
0.0216693
0.0217591
0.0231079
0.152911
0.022042
25.592
0.089462
0.0220007
0.0226824
11.1523
0.113891
0.0235046
0.024435
0.0332397
4.99599
0.0533758
11.0974
0.0594004
0.0743051
0.154955
0.0219841
0.0218518
0.0808354
0.0431696
0.0218124
5.6824
0.028787
5.10976
0.022309
0.204138
0.035539
0.0659366
0.0272706
0.0220583
0.434704
0.0219457
16.5948
0.0220087
0.022052
4.83033
0.0310178
0.0262427
11.2226
0.0218477
0.130128
8.67924
0.0219544
0.0714201
7.17149
0.0229645
0.0218518
0.0219466
0.0238972
0.0238962
0.0791843
4.12858
0.0230371
0.0265372
5.87143
0.0215755
8.05692
0.0241173
0.023468
0.223317
6.88714
0.0217477
0.0219079
0.0237799
0.0216989
0.0216783
7.09208
0.0222702
0.0262929
0.0216003
0.0614313
0.0217279
0.148223
0.632316
0.0227544
4.87398
0.0219374
0.0235033
0.0218717
5.1274
0.0286299
0.0218674
0.0219994
0.0221782
0.0218753
0.101325
6.14042
7.4588
10.2138
0.0221869
0.0224918
0.0798262
0.0221465
0.0216688
1.76676
5.24653
0.0237821
0.0219167
7.89672
0.0222271
0.0221863
4.59828
0.0821739
2.77504
0.0233281
0.0218649
4.6533
0.0221623
0.0337558
0.0222241
0.0292768
0.0219801
0.0704356
0.167447
0.0412335
0.0220998
11.656
0.0227027
0.0218734
0.0221652
0.0220197
0.0219273
0.0220761
5.67566
0.0223815
5.86686
0.0223265
0.027662
4.9742
0.0218058
0.228177
0.0232822
0.0218015
0.0241822
0.081976
0.0220374
0.0218149
0.0221274
0.0219682
0.0550552
0.0216894
0.0224968
0.0291396
0.0220923
0.0320934
11.6297
4.5716
4.25815
7.07038
0.108464
0.0641837
8.41071
4.59112
0.0218565
0.0222995
0.0216405
0.112039
4.60305
0.0368796
0.0256661
0.0215967
0.0218856
0.0221598
0.0232534
28.541
18.5508
9.6139
0.0636159
0.0221034
0.0222348
0.0221567
5.83125
1.52225
0.0218142
2.75391
0.0216715
0.0331816
0.0229428
0.0400332
0.0321102
0.243779
0.0233268
0.139584
0.0216293
0.0219047
0.081067
0.0219313
0.0220506
0.0546464
0.251649
0.0221293
0.0758772
0.021932
0.0219802
0.0218011
0.0219635
5.87471
0.0298805
0.0230445
0.0221305
4.94998
0.155963
0.0220744
0.0322055
0.0306687
5.25559
1.09922
5.78607
0.17581
0.0639946
0.108244
0.144174
0.0669652
4.75856
0.0215876
0.021918
0.021913
0.168172
0.02217
9.28223
0.0217838
0.0221243
4.89361
0.0522523
0.0223968
0.0867883
0.0219533
0.0231788
0.596074
0.310598
0.0219535
0.587467
0.108899
16.928
5.50483
0.0220014
5.72156
0.0219264
0.0697582
0.0218715
0.0218447
5.28253
0.0469856
0.0238836
0.0219051
4.64962
0.0247018
6.04463
6.39827
0.0222686
0.0216497
0.0249808
5.68794
0.242647
0.0400641
0.0334206
0.269595
0.02198
0.0224342
0.0218027
0.0218931
0.0234889
0.0521413
9.03288
0.0676606
0.113256
4.87485
0.0219894
1.9045
0.112768
0.05041
0.0221938
0.0219886
0.0219212
0.02192
0.0219436
20.695
0.159503
5.36005
0.0681803
0.0921641
0.02221
0.0958804
6.89224
0.0238369
0.0247771
0.0218459
13.2829
4.59889
0.0944869
0.122133
0.0219782
3.82499
0.0227468
0.0247323
0.0390721
0.0791041
0.0216519
0.0788283
4.95257
0.0222778
25.0006
21.9129
4.98471
19.8245
0.0351916
0.72591
0.0543204
0.0581611
5.52601
0.021816
0.0344306
0.0216887
0.0222506
7.47816
0.0228506
5.07735
0.0217011
0.0218453
4.82048
0.021922
16.6601
0.0228094
0.374191
0.0232272
0.0221846
5.2105
0.0243005
0.0705893
0.0218774
0.021775
0.249631
0.213377
0.022059
0.0282815
0.772226
0.0609497
2.3173
0.0222609
0.0219558
0.0215306
0.0219282
0.0257893
0.0565339
0.0216373
6.21487
0.0218741
0.022043
0.0587476
6.75834
0.18245
0.027721
0.0217691
0.0224774
0.0770213
2.13398
0.992812
11.0755
0.0257686
0.0360339
0.243092
0.0218775
0.0521927
4.90447
0.0219411
0.219294
6.27448
0.280321
0.339323
5.16437
0.0778626
0.0221065
4.72279
0.0263098
0.0412977
0.165069
0.0218672
0.119292
0.0218698
0.0219894
0.0500078
7.38735
0.0346512
0.021944
0.0412054
7.77942
0.0843877
2.66241
0.0219239
5.08312
0.0216604
0.0682676
0.0961718
0.0219034
5.07406
0.0218165
0.0218416
0.0220711
0.0220049
4.88879
0.0863556
0.0222529
4.73991
0.0220811
5.8075
0.0216677
4.68697
0.0478181
0.298756
0.0248604
0.0218916
0.0216822
0.0220624
0.311615
0.148392
0.0221209
0.0419756
3.08435
5.16284
0.0411996
4.51889
6.48512
0.0218993
7.38285
0.02179
0.237237
0.0220015
0.0221082
0.0220403
0.0641368
6.46856
0.247585
0.109116
5.13976
0.578702
0.253093
5.07603
0.0218747
0.0712253
7.91949
0.0215424
0.048559
6.24406
0.189116
0.0218891
4.73963
0.0677485
6.15811
4.01566
0.0273366
0.209134
0.0247213
0.0218662
0.0215919
4.77418
0.177636
0.354114
0.160216
0.021908
5.31183
0.0349828
0.0215134
0.0224458
0.0607086
0.0239457
0.0222158
0.0222714
0.465425
0.0218991
0.0396167
9.83324
0.0216832
0.0218936
2.39142
0.0218327
0.0448024
0.026545
0.111379
2.61776
0.0219157
0.0628909
0.0280274
0.0900819
0.0276887
0.0251441
0.102775
1.04311
0.0484372
5.81049
0.101912
0.022148
0.265406
4.88449
0.078892
0.021786
0.0220508
0.125209
0.0229542
6.31582
0.70611
0.027911
2.66145
0.0234668
0.176545
4.14385
0.0219553
0.0221283
0.02207
0.0219903
4.60064
0.211998
0.0248548
0.157439
0.293914
0.0479812
0.022126
0.0237874
0.0592161
0.0219282
0.0218707
4.28332
0.0227119
2.30967
0.0218207
0.0219989
0.0222715
0.0632826
0.0382983
0.0389812
0.0220528
0.0230002
5.02828
1.83339
3.3395
2.16254
0.0255608
0.0224836
5.21204
0.0823031
3.43857
0.0621714
0.0218758
0.0539988
0.0268065
0.0223527
0.0217953
0.0927212
0.0756616
5.25568
0.0803888
0.192986
0.0221938
0.0230191
0.0219235
0.125394
9.39581
0.219294
3.73878
0.0218454
4.65272
0.0227778
0.0219724
0.0241981
0.0221477
0.54336
0.0219629
0.0879386
0.0216783
3.3122
0.0344185
14.5168
0.022428
0.02201
0.0242973
0.0217129
0.0938821
3.78271
5.21437
0.0542816
0.0216357
5.38139
0.0618361
0.0219255
0.0691471
0.0217477
0.0239879
0.0215276
0.71966
0.0248685
0.0743486
0.0510478
0.021766
14.8309
0.0216382
0.0249588
0.0223899
0.0236139
0.021748
0.0219906
0.0307779
0.0222815
0.0252057
0.0216937
0.0238135
2.39493
3.47353
0.0224928
0.0417448
5.85321
0.021916
0.022158
0.0307688
0.124606
0.0220015
0.0564665
5.63941
0.0230831
5.70715
9.04781
0.0219432
0.0226658
0.0598429
0.0214702
4.64892
4.39489
5.39386
0.0230262
0.0282976
0.0214992
2.15325
0.0288245
0.553474
0.0222488
0.124222
8.8898
0.0788265
0.0235267
4.01668
7.02192
5.02732
0.0224625
0.0217607
7.88209
2.78799
0.0218084
0.022103
0.379719
0.0226141
0.251404
2.20743
0.0217393
0.0226981
5.56218
0.0706795
0.0226225
0.0215066
0.0418236
0.0222952
0.28734
0.0218748
0.0221217
0.0219415
0.0229651
0.0220657
0.112702
0.0217567
0.0257891
4.95248
4.80981
8.45664
0.0218176
0.0714103
0.0769276
0.0220847
0.0246475
0.0392055
0.02191
0.0239775
6.19893
0.0580072
0.021945
0.0219983
0.0217887
5.37003
5.52495
0.0217337
0.0222915
0.0219867
0.0566772
5.35608
0.023989
0.0814764
0.0221426
0.0671639
0.0267572
0.233122
12.1541
0.0222678
0.775124
4.8932
0.0393276
0.0218614
0.0403449
0.0286992
0.0423496
0.0267486
0.0218185
0.108462
0.0275472
1.49161
0.0422531
0.0221963
0.0223436
4.55004
0.0221172
0.0234823
0.251964
0.0415857
5.59005
7.6137
0.0218039
0.346555
0.508774
0.336045
0.0433145
0.02378
0.0220642
5.35934
0.0470169
0.0218347
0.0760149
0.0676775
2.4848
5.9039
0.0220642
0.0285604
0.0222519
0.240853
0.744767
0.0221842
0.0597063
0.0262047
0.0232769
0.0221872
9.17197
0.0736692
0.0219458
0.0238023
6.35209
0.0222609
0.0220104
0.026056
0.0744051
0.021962
0.0221614
0.0237043
5.63315
0.0301309
0.0218184
0.0218318
0.021893
0.129309
0.0220008
0.0219487
0.317761
5.3797
0.0218441
0.0222636
0.0563325
0.0294041
0.0999875
0.0221306
2.47912
0.0219068
0.0228362
0.029002
5.37164
10.8349
0.558424
0.0411201
5.62667
2.62896
7.83187
5.8539
0.0244737
0.0219401
0.0216936
0.0420122
0.0218858
0.0219488
0.0218731
0.201141
0.0218735
7.65634
0.0323288
5.63865
0.0218889
4.9236
0.0219753
0.027862
0.0216954
0.023137
0.0410854
0.556691
0.0222235
0.0218469
0.0247546
5.29109
0.0219106
0.0398401
0.0221935
0.0365569
3.9515
0.27587
4.31189
0.0307358
0.210542
0.0221911
5.02991
10.7936
0.0218824
5.07348
2.52336
0.021892
0.0215278
0.0468909
0.0307389
0.0444468
0.0216966
5.72122
0.0342375
0.0606273
0.0216061
0.0219558
0.0259574
5.99185
4.89067
5.39586
0.0418992
5.34313
0.0403498
8.82639
0.0219702
2.997
0.0219739
0.0272026
0.786958
0.0232981
0.195406
0.0218809
0.0246959
6.76681
5.96622
0.021966
1.52891
0.0220021
5.21185
0.0218
5.62613
4.85489
0.0218234
5.8449
0.0277955
5.73082
0.0219763
0.0268632
0.0228666
0.0800733
0.0220221
0.409065
0.021806
6.35572
0.0902899
5.78623
0.0221581
0.0216935
0.25281
0.0230747
0.032953
0.0218784
0.099195
0.0248396
0.021958
2.20172
0.0220205
0.0219419
0.0223349
0.0221093
4.65314
0.036997
0.0219538
5.87899
5.18932
0.53117
0.0216954
0.0953785
3.8134
0.0218377
0.0257084
0.0224193
0.0220455
0.0219522
0.0219908
0.0278813
0.0275537
5.3472
0.373954
0.239501
0.0222767
0.0219584
4.54168
0.0347728
0.0219284
0.022353
8.19313
4.85546
0.0219779
5.81457
0.0387781
0.524292
0.0222787
5.63
0.0217548
0.0228229
0.0221005
0.021887
0.0235168
6.55946
0.0217359
4.81097
0.166481
3.23186
5.73953
0.0221016
0.0219952
4.76532
0.0750603
0.134462
0.0219843
0.124215
0.0222303
4.98466
5.75011
4.41992
0.0220561
5.47259
13.2701
5.45254
0.433361
0.0262217
0.158349
0.0218643
0.235737
5.26496
0.0290971
4.72038
0.0218192
0.0220423
0.065439
6.10207
0.0396658
0.265749
0.0219887
8.96079
0.0397842
0.0540873
0.0218107
0.0421028
0.277163
0.0220393
0.0396866
0.0398584
0.279734
0.0215882
0.0219034
4.88181
5.09286
0.0239283
5.05267
0.0406061
0.0219986
9.20068
8.669
0.0220965
0.647825
0.0217063
0.0220634
0.0467253
4.99161
0.0222798
4.71077
0.0237415
0.0219256
5.35493
0.0221761
0.0744202
0.0218567
2.46531
0.0220286
5.45084
0.0217752
0.055274
0.0218624
0.0284047
0.256392
4.90843
0.0496009
8.30483
0.0282393
5.57305
8.43249
4.68126
0.0218727
9.22373
11.5486
3.0745
0.191528
0.0224502
0.0218502
0.0219726
9.30121
0.0219407
0.0220383
0.445202
0.0222401
8.24439
0.023173
5.75306
0.0219327
0.0222335
0.11752
0.0215202
0.0559609
0.0218535
0.0798201
0.109979
2.14431
0.0218141
0.0218897
5.0017
14.5988
0.0222447
0.0305901
0.0361476
0.022673
7.22697
5.18115
5.17953
0.139957
4.75856
3.37644
0.259994
0.0218984
0.0217921
0.0228685
0.0219419
0.0328988
6.25232
7.95197
0.0220887
0.0238692
0.022716
3.70935
7.32287
7.90244
1.81355
0.0220581
1.56388
5.37382
0.0271222
4.89013
0.0479634
0.0221255
5.3536
4.49765
6.4748
0.0222059
0.0230323
0.0446118
0.163332
0.0218171
0.0220261
0.0222421
0.0218097
0.022042
7.02319
0.0240082
0.0216919
7.67561
0.0221045
5.67018
0.0407759
5.39381
0.241551
0.02198
5.41676
0.132393
0.940779
0.0227039
0.0282445
0.0220157
0.0232008
6.13652
0.138062
0.0873019
0.0225158
0.0219371
0.144812
0.023319
0.0220632
0.0267527
0.0219392
4.88737
0.0220008
4.90012
8.05958
0.0234216
0.0219823
8.17474
0.0218702
0.0216827
1.47501
0.0251802
0.0237747
0.0940159
1.81802
5.46014
0.0332079
0.0238665
0.0223067
4.88542
2.14929
0.0236821
0.0351278
0.0218723
0.0218129
0.0239536
0.0217197
0.282752
0.0296988
0.0219963
0.0223308
0.022094
0.0218841
0.0218398
0.0219116
2.94819
4.9964
8.31175
0.402905
2.7496
0.540154
0.0251627
4.92556
5.75723
3.29399
0.022095
0.0216797
3.31275
3.51386
0.315464
0.226449
7.40479
0.0220956
0.0219316
4.87683
0.0218457
0.143355
0.1292
0.0225225
10.672
4.49216
0.0222598
11.3117
7.207
0.17144
0.985853
0.0221783
2.33386
0.595338
5.77864
0.0218537
0.0750391
1.83488
0.0218977
0.0402722
0.02174
0.049951
0.0220799
5.64085
0.323446
0.0220127
0.0232073
0.0224005
4.66077
0.0437588
0.0221345
0.022238
4.36741
0.0219163
0.0232282
0.108525
0.359355
0.0225332
0.0893432
0.0504793
0.0219513
0.166529
0.0219538
0.0219664
0.0264445
0.0219741
0.0299283
4.86395
0.261237
0.0220058
15.0258
2.42834
0.326003
6.80715
0.0413948
0.0234283
5.16478
0.0260301
0.0241578
0.0480613
0.095107
0.0218898
0.0216836
0.0221104
0.29993
5.25229
5.84629
5.47062
0.021825
0.0260737
0.0853043
0.171654
4.92375
0.0221382
4.94433
0.0223836
6.87497
0.0215766
5.66305
0.0228062
17.1083
6.838
0.088291
4.87243
0.057245
0.0218385
0.0925188
5.39668
16.7102
0.0260125
0.0223814
0.0219622
0.0221002
0.0293561
0.0222873
0.0236419
0.0218198
0.0583968
0.0220134
5.20034
0.0222247
5.09706
0.0216825
0.142218
10.8129
0.0230225
4.25046
0.0220186
0.0279048
0.0222224
0.0221995
0.0219177
0.338295
0.216539
0.0217989
0.0245395
0.0219764
5.07867
0.031135
0.520842
0.197932
0.0219786
0.0514
0.0226448
0.0229404
0.0479016
0.0221064
0.0534041
10.4699
0.0220317
4.97757
0.0278542
0.0218822
0.0217243
8.27229
0.0219983
4.96735
0.203719
0.022269
2.33791
0.123687
6.00892
0.0257642
0.0252133
0.022101
0.0619033
4.25923
0.0221358
0.0461025
0.022067
0.108068
2.86232
2.36529
7.05951
23.8617
0.0291681
2.1093
0.0222014
5.00072
0.395943
0.0265579
0.480533
0.0671543
0.0215794
0.0484441
0.0220086
0.021763
0.0243299
0.0219488
1.22104
2.14146
0.162244
4.03226
0.0220761
1.93088
0.0220598
0.0219766
0.0438629
4.76286
0.0217418
4.96654
0.125184
0.116804
7.39989
0.0222108
0.0443885
7.026
0.0441496
0.0219741
0.370142
0.0219691
0.0221307
0.0222429
2.08067
12.0494
0.0259837
0.0221013
5.11324
12.3049
0.022274
0.0222397
2.47274
5.56338
0.0221879
0.425551
0.122422
0.0218795
0.0297226
0.0217021
4.58864
0.0219848
10.2261
7.03798
5.86116
0.025151
0.0331595
0.0218063
0.0218016
2.5091
0.0218433
9.33275
5.46693
0.0907211
0.0218504
0.0216942
0.826084
0.278962
0.0559248
8.02935
0.0835705
5.08171
0.0229607
4.73367
3.02247
0.0267294
0.435759
5.81518
7.24747
0.0220379
8.20768
0.0217407
3.34035
0.292246
2.05943
0.0215893
0.0426634
0.0221064
0.925456
4.34619
0.0226442
0.0229764
10.5125
4.9335
0.0219682
5.14279
3.19227
4.57499
0.0222164
5.45337
0.022152
4.43
0.0221123
0.0226669
0.0222021
0.0219775
8.76698
0.262703
0.0217212
4.55861
5.24397
0.0215465
0.0216934
0.0412011
0.0684983
0.106527
0.049625
26.6298
4.84434
4.64425
6.34516
0.107708
0.0231816
0.153076
0.135185
5.26006
3.42404
5.75153
0.107492
0.053955
0.0247648
5.37067
0.0938373
0.378455
0.0221853
0.0260702
11.1173
0.0220943
0.0286539
0.736542
0.0243041
0.0421436
0.0219897
0.0232253
5.82718
0.439757
0.0216444
0.0252917
10.2536
0.287944
0.0301358
2.01348
2.8459
0.0430519
0.20403
4.62527
0.0227058
5.36789
0.108609
2.61375
0.0221461
0.021475
1.75138
4.80478
4.7862
7.85484
3.98629
0.039642
0.0894283
0.0239379
4.63738
0.021882
0.0220283
0.0467688
0.0721596
0.103309
5.51546
0.0228277
4.59729
5.61462
0.0223245
0.0940452
0.0233314
0.24124
0.154991
0.040934
6.06293
4.76772
4.6431
2.25856
0.0320974
0.0219681
0.0226165
0.0271118
0.691577
6.40852
5.00301
8.79483
0.0520945
0.0218
0.2868
0.0417127
4.68517
0.0220969
11.077
0.0565008
5.79362
0.0220931
2.7478
0.098472
0.0734235
2.71551
0.0217279
4.62138
5.66775
0.0218191
0.086161
5.04759
0.0224288
0.225075
0.023145
0.0230713
0.0222577
5.38131
0.0486683
2.07748
0.0290845
9.10513
0.0217487
0.0215255
0.0218838
0.0220653
0.0219586
8.20512
0.571163
5.5948
0.0222105
0.0217739
7.95418
0.0281295
3.90399
0.10402
0.0219855
0.981381
0.0314942
0.0387683
5.7128
0.0264423
41.772
0.738554
0.0275821
0.0216247
0.296122
0.0215396
0.821107
8.01361
0.244465
0.0217862
6.50229
0.383417
0.0219873
3.30791
0.0221313
5.51803
5.43757
0.0282802
0.0250194
0.0728189
0.040447
0.0222775
0.0216481
0.0219782
19.078
0.0252506
2.36123
0.920962
10.0268
0.527497
0.125583
0.0219727
0.219219
9.10588
0.0254151
0.0218699
0.0238798
0.0222289
9.17731
0.094336
5.23581
0.0220032
1.85707
3.60871
4.77303
7.46824
0.0219894
3.60766
1.80743
0.0219472
0.0222853
1.90733
4.99979
0.026783
0.281589
3.20581
7.98697
0.0296998
0.0229405
0.416401
0.0427929
0.023344
0.0275356
0.0221216
0.0898664
5.61428
0.0574991
0.0228905
12.1339
0.164222
0.0216513
0.220688
0.2002
0.0774916
0.0550811
0.0216618
0.0217944
2.1929
3.80243
0.0432213
0.0218361
4.49338
0.550999
1.09487
1.68764
0.0235216
0.0216574
0.0220979
0.0221991
0.030205
4.85044
0.0998552
0.0223566
0.131164
0.0220696
5.13427
0.0231448
4.70531
0.0229306
1.03656
0.0524828
5.02273
0.0219328
0.0221176
0.0218032
4.07441
0.0258865
4.80274
3.02488
0.0564185
0.0221767
0.0277726
0.030639
0.022227
6.35686
0.0216044
4.89146
4.77433
2.0469
0.0283927
0.0219787
0.0222777
0.0220225
0.0222074
0.0980027
7.88808
5.38412
22.217
0.854874
2.65596
0.0237463
0.361379
0.0735176
0.0528274
0.0219775
0.0216603
0.24593
0.02306
0.0216496
5.37402
1.28859
0.468844
5.37184
4.48645
0.0220994
0.0221274
0.0227469
0.042653
4.40631
0.0220594
0.0448374
0.518256
1.07536
0.0457277
0.0221635
0.406992
0.0278232
5.36748
0.0220743
0.0217296
0.0219964
0.0219785
0.0226801
5.56555
0.506427
0.0938603
0.144328
0.0966087
0.0218762
0.0506277
0.0226976
0.0221029
0.0272506
7.00258
5.62953
0.0218087
0.329518
0.02186
0.0591847
0.023192
0.0278355
0.0221038
0.087612
0.0626272
5.37758
10.8423
8.34115
8.24207
25.3429
4.72875
2.22553
0.0217183
5.19779
0.0217176
7.87966
0.0255012
4.05262
0.0220927
0.0855979
0.0220451
0.0217641
0.0242294
0.021953
1.67966
0.0216629
0.0218883
0.0216386
0.0217053
0.0218019
0.0301256
0.0221267
4.79695
0.0476209
0.021966
3.50528
0.0220388
0.0218562
0.0668879
5.63324
0.038093
0.0289253
0.0217652
0.0216068
4.6633
0.0222792
0.0253662
0.172672
5.8864
8.25299
4.77885
5.20915
4.98758
19.7726
5.66485
8.34478
0.0780696
2.19467
0.0222281
0.0219998
0.0783897
0.0260009
2.48514
0.0222083
0.045902
0.0501799
0.376521
0.0838791
0.0389833
0.0234777
0.0219842
0.0481923
0.0220631
0.0217213
0.377969
0.0222526
4.6786
5.46201
0.110872
0.0217936
5.3693
0.0231068
5.0756
0.58708
0.0218382
7.67384
5.32617
0.0662714
0.0688604
0.0304965
2.75121
4.69693
0.0237473
20.2134
0.0559831
0.0402298
5.03262
0.0221295
4.02627
0.0220383
0.0222188
0.0218299
2.30695
0.295033
0.389696
4.8699
0.0252734
0.047792
3.21531
0.021787
5.58432
0.0216876
1.91986
4.4021
10.0491
0.140254
10.361
0.02194
0.0221945
0.0239273
5.89075
0.0475633
0.0224339
0.0219489
0.0214686
0.021892
0.0693338
0.190918
0.0811033
0.188612
0.0578578
0.0220292
4.84751
0.0296535
2.14716
0.0226067
0.021747
0.0225571
0.0222306
0.0391048
0.230019
4.73628
0.661623
5.36774
0.416624
0.0218156
1.78576
0.0215202
0.0220087
0.0229537
0.0217606
0.0318649
0.0219901
0.0767723
0.0218256
4.31077
0.0222772
0.0224409
0.0217526
4.73922
0.370646
0.0840842
0.0215579
4.85359
0.148172
0.0816451
5.27194
0.056515
2.65437
0.0220625
2.14314
0.19056
0.0294538
0.934476
0.0325396
0.0423672
0.73076
0.0280633
18.3818
0.119723
5.70866
4.1675
0.0441949
0.0292191
0.0219699
4.75294
0.0220277
3.12121
0.0219258
0.0218968
0.0215318
0.0316249
5.76365
0.0239523
0.0219204
0.0221141
0.0434798
4.9145
0.111891
3.31716
0.190189
0.0635654
0.0219984
0.0647529
0.0221923
0.0228748
6.08974
0.0329681
0.0383109
0.136769
3.6609
0.145654
0.0439605
0.0725422
0.0688021
0.0247501
5.07327
0.0222291
6.62699
0.025198
5.71286
0.0982441
8.4353
5.79623
0.103342
4.67281
3.76057
0.129106
0.314529
0.11062
0.424193
0.0220293
0.0846439
0.0673007
9.78652
0.0230615
5.39281
6.92597
0.0215091
0.02176
5.74423
0.0223279
0.0218818
0.0216238
15.6395
2.25475
8.43674
0.0276125
2.09325
0.322292
5.75658
1.67523
0.0812561
0.0220319
24.7499
3.35131
1.02418
0.437964
0.0219632
0.0218361
0.0220133
0.0221127
1.30668
0.15224
2.86011
0.0821372
0.0221428
0.0219725
0.0222886
0.0315446
10.9466
0.0238637
3.90575
4.72874
0.0600509
0.0221209
4.99733
0.175155
3.12248
0.0219394
22.3054
0.108685
0.0221548
5.83595
3.81103
0.0231476
0.0217647
0.0221035
0.0222562
0.0219899
0.170066
0.0613367
0.259734
0.0415929
0.0225808
0.0302108
0.0220852
0.0256968
0.021952
7.3305
17.2049
0.0356781
0.0220174
5.22184
0.0216884
0.187481
0.595407
10.1719
4.90992
5.58363
0.0220577
0.0223045
0.0221236
0.236667
0.0226421
2.28584
0.0256645
0.0218897
0.0219927
0.137445
0.184061
0.0220733
4.76863
0.0830676
3.90693
11.6616
0.0221167
0.658481
4.65477
0.215759
0.0222876
0.0219826
0.143932
1.24745
19.4273
0.023272
7.90947
0.0217428
0.099941
2.34215
0.200474
0.0217239
7.58647
8.1322
5.66367
8.95736
0.0222771
0.0222003
0.101663
0.142522
0.0420471
0.0229808
3.845
0.0234547
7.74646
4.81148
0.0218884
7.89568
0.0218511
0.0789512
7.92663
0.0820023
0.0574844
2.1929
0.0242967
4.25288
0.0219772
0.551397
5.66996
2.91764
14.0935
0.0246712
0.057686
0.021705
5.78358
0.0230724
0.0217357
0.0463721
0.0534212
0.047203
24.5628
4.8285
4.69453
0.241143
0.0312499
0.0386779
0.0267803
0.0343547
31.362
0.0236546
0.375557
0.0227905
5.03332
0.695399
0.0222569
0.0221641
0.0454614
31.067
0.0448471
0.0216239
0.0218866
0.030169
0.0260619
0.0285699
0.0256713
4.89882
0.0238899
5.32586
0.0728088
0.0219375
0.0731374
0.0781525
0.0406722
0.0218479
0.0220546
5.2002
4.68511
5.37877
0.0405604
0.0466676
0.0521762
0.0499393
0.0219214
0.0235983
4.34019
0.047256
0.0238156
4.67239
6.3088
0.258183
3.23374
0.0838896
0.0226465
6.23211
0.0657882
5.05878
0.0219143
4.75331
0.0519114
0.031679
7.01406
0.0403366
0.231857
0.0217813