/*--------------------------------*- C++ -*----------------------------------*\
| =========                 |                                                 |
| \\      /  F ield         | OpenFOAM: The Open Source CFD Toolbox           |
|  \\    /   O peration     | Version:  v2012                                 |
|   \\  /    A nd           | Website:  www.openfoam.com                      |
|    \\/     M anipulation  |                                                 |
\*---------------------------------------------------------------------------*/
FoamFile
{
    version     2.0;
    format      ascii;
    class       volScalarField;
    location    "100";
    object      ddt0(omega);
}
// * * * * * * * * * * * * * * * * * * * * * * * * * * * * * * * * * * * * * //

dimensions      [0 0 -2 0 0 0 0];


internalField   nonuniform List<scalar> 
18618
(
-1.43235e-05
0.0200718
-2.59766e-05
7.5706e-07
-5.67792e-06
0.000139817
1.0497
-0.121431
-0.0313396
-0.00451337
-6.40885e-06
4.03851e-06
-4.89258e-06
-2.82048e-05
-3.76212e-06
0.000117228
-1.73059e-05
-2.05977e-05
-6.31526e-07
-0.148349
-3.63956e-06
0.379264
4.48519e-07
6.51652e-09
0.401233
-0.03308
-0.00523457
-2.83518
-0.0748092
-2.56512e-05
3.3039e-05
9.19203e-05
0.00119136
-1.79571e-06
0.000779838
-0.62502
5.89974e-06
0.0215542
-0.14831
7.31983e-07
-0.7617
0.157709
0.199105
0.650104
-0.000975239
0.000444247
0.103659
-0.00225405
0.0367451
0.440512
-0.010033
9.91475e-05
-0.020373
0.0409319
-0.317604
0.0320034
0.017915
0.00727625
-1.16537
-0.1504
-0.100236
-1.9902
-0.012299
3.76475e-07
0.153761
-0.0214947
-0.117466
0.00141928
7.92833e-07
-0.651791
-0.0223453
-2.2002e-07
4.16374e-07
-0.13942
0.0851885
-0.392106
1.4944e-06
-2.82108e-06
1.02797e-06
0.0776593
6.00144e-05
-1.40441e-06
4.19032e-06
-0.000483067
0.492241
3.56004e-06
-0.126822
-0.500324
1.45605
2.30508
2.53965e-06
-0.226764
0.0406491
1.59224e-06
-0.157939
-5.63416
1.00834e-05
-0.00541679
-9.91147e-07
0.137273
0.671098
0.097787
-7.57529e-05
0.00563151
-0.063336
0.0260761
1.06941
-7.81126e-07
-2.32814
0.0897421
-0.763638
-0.000338036
0.0625467
1.60841
1.67021e-06
9.8283e-07
0.933342
1.55284e-06
0.00792397
1.19807
-0.00011856
-0.000243682
0.000919482
1.99526e-05
-0.0106327
-0.0316817
-2.71217e-05
0.105896
-0.121209
-0.00176417
0.0598574
-0.17113
-0.103112
0.0111851
-3.77164e-06
0.00320948
1.55074e-06
-0.609745
0.107444
-9.07591e-06
-0.0944647
4.76407
1.31589e-06
1.56449e-07
-0.000184199
7.31106e-07
9.96427e-07
1.00339e-06
9.26685e-08
-2.17122e-05
-5.36085e-05
-9.0244e-06
-0.000537643
-5.07772e-05
0.000310363
-0.113977
1.19579
0.000828874
7.22593e-05
-23.2182
-0.00257688
0.00208512
0.0397494
0.511439
1.36533e-06
-0.0024081
-0.000428909
0.0841787
-2.79059e-06
0.0099715
-2.9163e-09
-6.3563e-05
-0.107898
0.0152846
0.158691
-3.02129e-06
-0.407182
-5.34042e-05
-5.05129e-07
0.000108449
-0.272526
0.000352879
-3.21279
1.91092e-07
-4.15871e-07
0.000475545
-0.335962
0.185291
-0.0765871
-2.31529e-05
1.67072e-06
0.000718424
-0.000380779
-1.44774e-05
1.2605e-06
-0.0356273
-4.42492e-06
-3.7837e-05
-0.0642099
0.000175649
-0.0263326
-0.126959
0.136498
-0.040035
-0.242621
-0.000521834
-0.116654
-0.288004
-3.38563e-08
7.21013e-07
0.0257176
-0.0105736
-0.000323023
9.44211e-07
-8.34933e-06
-5.44358e-07
0.94728
0.59255
0.00016752
-8.76337e-05
-2.71395e-05
9.02548e-05
-0.332648
-9.0876e-07
-0.725803
9.51714e-07
-0.000334061
0.0217614
-0.0808139
0.000990702
0.000139232
0.00305171
-7.60301e-07
-0.0989912
-0.00229372
-2.65996e-07
8.17628e-07
-0.0312333
0.226986
0.000162099
0.0268644
9.16538e-05
1.18285e-06
0.132266
0.00680506
-0.000429807
0.00736833
-2.23141e-07
-0.674177
-7.195e-06
1.50885e-06
0.21229
0.00492294
-0.190468
0.00182538
-0.000385013
-0.0328269
1.93013e-06
4.13312e-08
-7.79197e-05
2.72538e-06
2.06137
1.47373
0.000574119
0.295092
0.0473648
0.0480754
-0.00114416
0.0448741
-0.00056204
-0.145616
1.72563e-06
0.00014145
1.02045e-06
-3.01833e-08
-0.000508654
-0.0020234
-0.000157107
4.18405e-05
-0.309595
5.53245e-07
-0.00407776
3.20857e-07
6.26779e-05
-0.0434754
-2.39911e-06
2.3593e-06
-0.00330255
-0.000179325
-0.0760464
-8.75129e-07
-0.00340114
-9.47468e-07
-0.000516048
0.893311
-0.118544
-0.355045
0.224127
0.0804592
-3.78615e-05
0.00273397
2.78454e-07
0.00177104
8.50392e-05
8.74565e-07
7.36483e-09
-6.69008e-06
0.163698
-0.10621
1.74701
-0.119037
7.24032e-08
0.594852
-7.36621e-07
5.07583e-07
-8.39887e-06
6.75195e-05
0.00163547
0.00690222
0.569861
6.96316e-07
-0.186777
-5.26625e-09
-0.237724
-1.50922e-07
-0.0214401
0.14479
-8.42724e-06
-0.000140087
2.30879
0.00182575
2.0274
-9.65244e-06
7.12648e-07
0.00293407
1.43972e-06
0.0766989
-0.00160347
-7.29512e-05
1.43568
-0.00420723
-0.0312199
0.44531
0.128588
1.04982e-06
0.00202065
0.000830942
-0.0498484
-0.00422688
1.15964e-06
1.97228e-06
-4.25921e-06
0.308225
-5.44787e-07
-1.05912e-07
-9.35551e-08
-5.51071e-07
-0.00446441
-3.06292e-05
1.97021e-06
-9.01068e-07
-0.0835364
0.193808
0.00339489
0.0499982
0.379422
2.20279e-06
4.48903e-07
-0.00458316
-0.00662001
3.26247e-06
-6.88112e-08
-0.00103566
-0.000907895
7.55177e-07
-7.74637e-07
-0.0202703
0.000122494
4.47453e-07
0.00616718
0.00161915
5.62013e-08
2.39052e-06
-7.52166e-05
0.0243692
1.08181e-06
-0.0046014
4.23777
7.65082e-07
-0.00633365
-6.57928e-05
6.23057e-07
0.202113
-0.829694
1.13922e-06
0.0172023
-0.231894
-0.511562
-2.00901e-07
0.196282
1.47071e-06
0.0012623
0.000277872
0.688803
5.07442e-07
0.482701
1.91466e-06
0.000458696
0.000428656
2.67566e-06
-4.6521e-05
1.19035e-08
1.00059e-07
-3.73754e-06
0.000475632
-0.00552313
5.50884e-07
-0.000187246
-0.00233872
-0.00216675
5.91006e-08
-0.147225
-0.000710482
-0.00244437
1.15376e-06
0.487759
-0.00533486
5.66429e-05
-0.0531729
0.455651
3.65402e-07
2.38881e-06
0.000281634
5.01294e-07
4.41958e-06
-0.00530478
1.46793e-06
-8.68824e-06
0.0814696
0.050421
-5.81281e-05
0.00509396
-9.69594e-07
0.00989925
-0.0697158
0.000341913
0.00168842
0.214455
-0.0148419
-1.41035e-08
-0.00080159
-4.20721e-07
-0.00394485
0.00264427
7.64209e-07
-0.122433
3.39915e-06
8.32186e-05
-9.31289e-05
0.264569
0.689539
-0.000982402
-0.0344196
9.87391e-08
0.113754
6.64434e-05
7.2376e-07
1.62501e-08
-0.0619282
9.88206e-07
-0.00124189
0.00309759
0.000172976
5.53995
-0.00064651
-0.000851328
-0.165156
-0.000791026
-0.188033
-0.00394993
-0.04576
4.25373e-05
1.09566
-9.42067e-05
0.00515182
-7.69742e-06
0.133876
0.000708261
0.018829
-0.0011464
0.0341542
0.572614
-2.17278e-05
4.39188e-07
0.167998
0.120515
-0.0450833
0.201555
0.000560095
-2.48719e-07
-4.51482e-08
-3.94916e-06
-0.0604003
1.21315e-07
0.000995286
-0.0925218
0.000395848
0.00194223
-0.18666
0.0693338
-0.218301
-5.29332e-07
-0.00117119
0.000793465
-0.00282808
-3.81109e-07
2.9231e-05
2.01209e-07
-0.00838748
0.0475599
-2.76456e-05
-3.79865e-07
-0.0702173
0.0160029
-2.59281e-05
-2.413e-07
0.0597247
-5.75895e-07
0.488751
-2.01578e-08
-0.139451
-0.205068
-0.000210419
-0.000468653
-0.00879785
6.10806e-10
-0.0336077
-7.32184e-09
-6.44456e-07
-3.79499e-05
-4.94114e-05
-0.000128174
0.00289102
-0.00536912
1.08212e-06
-3.40101e-07
-0.0336872
-2.88931
1.47527e-06
4.02153e-06
1.55604e-06
0.0481041
0.0712477
3.58816e-06
-0.0719685
2.07001e-06
1.4958
3.76027e-08
-0.0952499
-0.00746296
0.208547
-0.000250284
-0.0428971
0.00324765
6.80838e-08
0.0062827
-1.13306
-1.08099e-05
0.0123683
-7.29118e-06
-1.27517e-07
-0.133371
1.23211e-06
0.0888264
-0.15194
0.125137
1.16306
-0.00844252
-0.090222
2.55003e-06
0.00207382
0.00114289
-0.000320132
-3.57898e-07
8.06084e-08
4.03567e-06
-3.14464e-07
1.08451e-06
2.16906
-0.00250131
7.26614e-07
-6.64443e-07
-2.6463e-05
4.04935e-06
-0.000128511
-0.00154008
0.210196
0.658084
-0.0395038
5.7274e-08
3.44392e-08
0.0267105
-0.00991908
-4.37416e-05
-1.6117e-07
-0.000688721
-1.43236e-07
-8.33642e-05
-6.37417e-07
0.00317918
-0.0105669
-0.0620885
0.216518
1.40552
-0.839862
-2.39859e-06
0.000412298
0.80944
-4.1482e-07
-2.96026e-07
6.57068e-05
1.15389e-06
-0.0251626
-0.00767623
2.12571e-08
-0.0320992
-6.02987e-05
-9.72159e-07
-0.0876122
-2.10438e-07
-0.000126654
1.85881e-06
0.0911774
-4.45046e-05
-0.0379511
0.115967
0.00666773
0.000735787
0.0979726
0.000637617
-0.000134893
-7.38178e-06
0.166139
-0.052835
9.55609e-07
-0.0252353
-0.00931011
-2.89375e-05
-0.0003979
0.000112777
0.182696
9.15369e-07
1.9653e-06
0.0150331
-4.18334e-05
0.00252046
5.36059e-07
-0.114555
-3.5785e-07
1.21008e-06
-0.73711
-0.0389049
-7.70781e-07
-1.28927e-06
0.00754693
-1.21059e-05
0.0071943
-1.10952e-07
-0.0534899
-0.000893714
0.0686563
1.13153e-08
2.00706e-07
-0.000132146
1.79496e-07
-0.00870174
0.326594
0.0882263
0.383661
0.000960217
-1.06496
-0.00153774
0.0042674
-1.18673e-07
1.12749e-06
0.115158
-0.2164
1.06377e-06
-0.000438021
2.48074e-06
0.177674
1.56786e-06
1.18888e-06
-2.23825e-07
-0.0637363
-0.988512
-4.10581e-05
1.11589e-06
1.39938e-06
0.191188
-0.204938
0.00573526
0.0106465
0.0476182
-1.48597e-05
1.37161e-06
0.00222272
0.143029
0.00249941
7.64116e-09
3.99574e-07
1.84492e-05
0.00011035
-0.0318872
2.93549
0.107252
0.000590351
0.0476722
2.34945e-06
-1.22812e-05
0.00116122
3.72034e-07
-0.154421
0.143214
0.0712911
0.00598329
-0.799882
-1.67439e-06
1.72597e-06
-0.00513824
0.023098
0.133852
1.7482e-06
0.0089211
1.43465
-5.51439e-05
0.506676
0.169025
1.69375e-06
-7.91812e-07
0.000974369
1.33672e-06
-0.000538133
0.109306
0.0793616
-0.424194
-0.0107487
-0.13122
0.00642345
0.124438
2.66771e-06
0.00216016
3.19806e-08
-8.382e-05
0.121532
3.82659e-07
-2.96707
-6.46419e-06
0.000626374
0.0469285
-0.0150781
-6.25773e-05
8.2313e-09
0.00292692
-2.45368e-06
-0.0471383
-0.154352
-2.99264e-05
0.00240204
-0.17629
-1.50618e-07
0.000101844
-0.00408337
7.12625e-07
-1.5674e-06
-1.56713e-05
-0.0238933
0.290098
-1.34362e-07
-2.99726e-09
0.00280775
-0.370642
-9.50145e-08
1.22657e-06
-1.67659
-8.73431e-07
1.46412e-06
-0.0832831
0.0625737
0.0572578
6.40857e-07
1.16548e-06
0.00114147
-5.76376e-06
-1.38631e-08
0.211684
-0.000105739
-0.0342066
-0.0975585
-0.000244847
-4.85077e-05
0.0105315
3.09493e-06
0.00107192
-0.00172093
2.45567e-06
-0.212623
0.000887947
0.000954125
0.116671
0.0500644
0.000623763
-0.0128916
0.00450237
0.00186607
1.48128e-06
-4.52654e-05
5.18538e-07
-2.07183e-05
4.86313e-05
0.0001767
0.000739748
2.5303e-06
1.41419
0.00215105
0.195525
1.54812
-0.000763289
0.0387435
7.52112e-07
-1.47073e-07
3.93187e-06
-0.263847
-0.038183
1.43521e-05
-1.65569e-05
0.559167
6.66891e-09
-2.05065e-06
4.49766e-05
-0.398577
-3.08822e-06
0.498561
-9.02849e-05
0.000515814
0.228788
1.04843e-06
5.52656e-08
1.60057e-06
-3.97436e-07
1.77845
-0.704613
-0.626324
1.37004e-06
-0.462609
0.189001
0.273744
0.0705489
0.00058802
0.0324789
-2.51204e-06
0.000428219
0.000877951
-0.00509496
-0.0365231
4.41289e-05
0.000700524
-0.000924406
-0.00732363
2.49338e-06
9.61222e-06
0.61537
-3.46164e-07
-5.17766e-07
-6.24427
-6.77702e-06
0.0063602
-0.520984
3.06303e-05
0.000507788
-0.000346733
2.60138e-06
-0.00108827
0.00158181
1.49406e-08
-0.0213407
0.621496
-0.0414751
-0.000265128
0.0792958
0.0755295
0.00131142
-6.89811e-06
-1.3488e-06
0.271022
6.6554e-07
-9.30692e-07
3.49484e-05
2.14435e-06
-1.90328e-06
4.14776e-08
1.69658e-07
-0.0122069
-4.62345e-07
-6.94167e-06
0.0132191
0.0551137
-1.70539e-05
-2.4276e-06
-1.35192e-07
-1.30935e-05
2.75066e-06
1.93212e-05
3.52918e-06
3.90873e-06
0.585542
0.00910211
-0.0761788
3.40621e-08
-6.72907e-05
-0.000201439
-0.000252006
0.00150409
-0.000449705
-0.0236315
-0.426395
0.158212
8.19203e-07
-9.59828e-06
0.0591775
-0.00656158
-0.017013
-4.80971e-07
-6.75838e-06
0.000277494
6.35299e-07
-0.118596
-0.458223
8.52479e-07
2.70594e-06
0.0576898
-0.239338
-0.00157226
-0.000157786
-0.100945
0.0883464
3.72369e-08
0.000911651
0.00496432
-0.00870234
0.0188473
-6.25975e-05
0.000108644
-0.548949
-0.00352192
5.84155e-06
1.71398e-07
-6.50359e-05
-2.30421e-07
0.00061537
0.195012
0.0039065
1.37391e-06
0.000257633
-1.3964e-06
4.44073e-07
-2.20951e-05
0.0563133
0.0780778
4.69971e-05
4.29595e-05
0.146605
0.000513951
4.69335e-07
-2.85333e-06
1.76303e-05
0.124364
5.38068e-05
0.00203939
5.55604e-05
-0.20417
4.43344e-07
-1.62263e-05
0.215542
-0.00292345
-0.00220361
-2.92969e-07
0.0779032
-5.9219e-08
1.0083e-06
-0.741296
-3.4389e-06
-0.59838
6.87216e-07
-0.077149
0.434421
0.00809507
-0.0916041
-0.37625
0.0415346
0.135968
-2.84032e-07
1.62305e-07
4.47366e-07
-0.0141122
-6.06005e-07
0.000869221
-0.000386205
0.290034
0.0203282
-0.000248697
2.14975e-06
-0.00108566
9.82522e-07
1.99213e-08
-5.01636e-05
-8.02038e-07
-0.000228889
-4.86718e-05
4.04997e-06
1.98509e-06
0.0544781
-2.81766e-06
-0.00220313
2.20857e-06
0.0378403
5.54478e-06
0.632276
0.00958229
0.0204488
0.00401609
3.6249e-06
0.0217657
0.0670991
-0.000711811
-0.452469
8.42117e-07
-0.207236
0.0551651
4.5566e-07
-0.00260173
4.94369e-05
0.0124583
-0.000603576
3.65592e-06
-8.48753e-08
-0.00473672
0.000503574
0.051447
1.03761e-06
0.00646164
-0.000146337
3.86591e-07
-0.603132
0.000171916
-1.10252e-05
-0.217607
0.00224603
-0.000654833
0.395395
0.00031426
1.24391e-06
-0.0427616
-4.03988e-07
-8.68719e-08
0.0327696
0.001088
6.92098e-07
-0.00302168
-0.00150637
0.00106986
0.731027
1.69828e-06
-0.0318412
1.19598e-06
-3.17988e-08
-1.15206e-05
-0.000350171
-0.000102727
0.0200913
-1.27236
-0.00221047
1.7501e-08
0.178998
-0.173846
0.166088
-3.65363e-06
-1.94426e-07
-0.000479555
3.35303e-07
-9.14294e-07
-8.13779e-05
-7.50694e-06
-6.35557e-06
1.58861e-06
2.46369e-06
-7.60007e-05
1.2348e-06
0.000710481
8.11598e-07
-8.56293e-07
-0.0397029
-0.267088
-0.00504374
0.68803
0.00324387
0.00129606
-5.63461e-08
-0.170252
0.0769493
0.00748004
0.00195397
-0.00176713
-0.252842
0.030038
1.14651e-07
-0.000307544
-0.69462
-0.599682
-0.00437429
-6.80421e-06
-0.0627333
0.0005156
-0.000314661
2.58348e-06
0.0036079
0.00122199
-0.000771578
-0.000357563
0.000173421
2.40858
-0.0605346
-3.96017e-06
2.08846e-06
1.87732e-10
2.41221e-06
-0.0639219
-0.000154818
-0.0297679
-0.000136103
-0.000359183
-5.95998e-06
-6.9405e-06
-1.15611e-06
-0.0223213
3.15744e-05
0.00962765
-1.34449e-06
1.77232e-06
0.0024798
0.0158328
-0.511764
-3.05919e-07
-1.88052e-06
-0.025612
-7.5497e-07
5.9481e-07
-0.000335485
-3.07898e-07
0.0255123
3.22953e-06
0.013652
0.0648864
2.73711e-05
0.0137978
0.0368306
1.36463e-06
-1.7561e-07
-0.0113491
7.0041e-06
-0.00150679
-2.58549e-05
-0.270867
0.00644768
1.05302e-06
2.84389e-06
-0.120574
-4.75553e-07
1.30517
-4.51726
-7.78926e-07
-0.0624567
0.0876661
0.000705357
1.22249
-4.8079e-07
0.00580505
-0.00315328
-0.0849149
1.16169e-06
0.000127745
0.000501332
-6.18233e-05
8.36523e-06
-0.727262
0.0352999
-0.000500971
0.194753
-6.00795e-08
-0.00102331
1.75786e-06
0.00355763
-9.73235e-07
-1.22602e-05
1.05062e-08
-1.90819e-07
0.100287
0.447368
0.000121927
-3.95102e-05
-4.30297e-05
0.200556
-0.0518652
-4.85864e-05
0.00433572
0.7056
0.00261723
4.02543e-07
2.5471e-06
0.0714429
-8.74471e-07
1.23542e-06
5.12778e-07
6.5936e-07
0.000103748
-7.93605e-08
-0.000919725
2.28886e-06
5.56884e-06
-9.83466e-06
0.00506371
0.00229634
-0.00537908
-0.00695869
0.000103074
0.958225
-5.31482e-05
-1.33571e-07
3.11774
0.542315
-0.00360368
1.28354e-05
9.42266e-07
3.41949e-07
8.85546e-06
1.90646e-06
-0.455094
0.878584
-3.61587e-06
-8.29082e-05
0.00110977
1.31907e-06
0.0292256
0.00581963
-2.67239e-06
-0.0009605
-0.0034234
2.84342
-1.51091e-07
-0.457462
0.0317706
-0.250032
-0.00557025
-0.0210713
-0.000829715
2.43584e-06
-2.05451e-07
8.40418e-07
2.52554
0.173609
-0.000107519
1.84106e-06
2.09651e-07
0.0435514
0.00150016
-0.000150769
-1.24881e-07
-2.47364e-05
-0.00621893
0.000856252
-0.0441498
-3.36861e-06
0.0350696
1.76002e-06
-1.16338
0.000467302
-0.00511646
-2.11718e-07
-3.41909e-06
-0.344028
0.14674
0.0118918
0.00134077
-4.83787e-05
0.000218764
-0.00744197
1.51942e-07
-1.57406e-05
0.0038108
1.87677e-06
-3.90212e-05
-0.000378509
5.82815e-07
-0.0853344
-0.000618832
-0.000237307
-0.0182319
0.0587907
0.000738922
-0.00274635
2.76649e-08
-1.25953e-06
7.77679e-06
0.00335686
0.000116115
3.12362e-06
0.000165781
0.205658
0.00242811
-0.000742071
-0.0623284
0.00435279
0.000730902
-2.00894e-06
4.58201e-06
-0.754986
0.00204716
2.76447e-06
0.101224
0.000152217
0.0219157
8.05483e-05
-1.66594e-06
-0.00588593
-1.54007e-06
-0.0679416
-0.00986886
-0.0279141
-0.513964
-0.677603
-0.0409831
0.00219026
-3.14089e-06
0.00117357
0.0366628
4.18357e-08
-1.83387e-07
-7.06634e-07
0.055502
-4.92845e-06
-0.471697
0.00148786
-0.0274678
-9.57664e-08
0.00266969
-0.0021124
-1.17558e-05
-8.83469e-06
0.000309011
1.50865e-05
1.09311e-06
0.00227793
-0.0855295
0.0278809
-0.0281246
0.885137
0.0198552
8.47245e-05
-0.00215713
0.000449634
1.60266e-06
0.0681736
-5.66137e-07
0.0601493
-0.0426453
0.0930788
-0.135723
-0.00978274
0.00913802
-0.368711
0.192058
-0.424961
0.000569716
0.00195459
-2.50546e-05
-2.32095e-07
0.10442
-1.55884
-0.000155527
0.0988656
0.000478296
-0.00168233
6.23917e-07
-0.00244854
-0.0149779
-0.000138232
-0.0669139
-0.761163
4.80343e-07
-0.427755
3.75537e-06
-0.275602
0.150274
3.22354e-06
-6.55572e-06
0.0356913
1.02233e-05
3.08541e-06
-2.79651e-07
0.00112841
-1.06406e-05
7.77298e-05
1.25682e-06
-0.0486298
0.00040508
1.37317
-0.0210723
0.000266186
-0.000174801
0.01604
-0.0353151
1.48924e-06
-8.04956e-06
-0.000149154
-0.00623542
-0.00416724
0.00176356
6.49059e-05
0.0903009
-0.0730434
0.000303852
-3.33597e-07
2.75682e-06
2.30719e-06
0.000222971
0.00206414
-1.63175e-07
-3.41986e-05
0.135665
0.00421343
-5.24048
3.65948e-06
-0.588842
1.35741e-07
0.000211658
0.000715235
-4.84242e-05
5.35151e-08
1.26333e-06
2.98358e-06
-0.00100916
0.00199334
2.665
0.00232119
0.401748
0.0556687
-1.62523e-06
0.00232053
0.0247924
2.3852e-06
0.057385
-0.0751177
0.00606896
2.74547e-06
-0.649928
0.0405343
-1.5899e-05
0.710521
-0.242343
-0.00029442
-0.000996557
-0.0473951
-0.00600252
-0.0443659
9.79598e-07
0.829042
1.45221e-05
0.00175804
-0.0437244
3.67896e-05
0.00119412
-0.00536969
-0.0602009
-1.59075
1.46137e-06
-0.0924969
0.000942294
-0.263013
-0.905803
0.316104
1.85585e-06
0.00174007
-2.36954e-07
-0.0880284
3.90173e-06
3.84268e-05
0.340717
-0.125354
0.010061
-0.00171942
0.0433376
1.25023e-05
-9.92637e-07
-0.0536649
0.00104414
0.22096
0.0325093
4.2611e-06
-0.0240205
3.36596e-07
8.73733e-05
3.85631e-06
-0.0149282
0.0138822
0.186046
-0.0299398
0.00111243
0.000143044
0.0137617
-0.0128627
2.62626e-08
0.0230103
-0.000155061
-0.628488
-0.00505636
0.0514897
6.45434e-07
-0.0520293
0.0693451
-0.459055
0.040367
-0.000895249
-0.122007
1.26958e-06
-0.000404512
-0.000369192
-0.000115394
-3.67167e-06
0.000414783
2.46217e-07
0.00843015
-8.70587e-06
7.76072e-07
-9.30074e-05
-0.8712
-0.0591504
-0.000219842
2.79724e-07
0.312696
-0.00223817
0.0236399
5.80317e-05
0.00339806
0.227127
-1.05977e-05
-5.3654e-07
-0.0572932
1.64419e-06
-0.0240391
0.801829
0.21539
0.00151431
-0.122263
9.78888e-07
-0.000732126
0.0032919
-0.00194831
0.0562767
0.000515994
-0.00116462
0.00236368
0.0504996
0.00648686
-0.00448177
0.00333102
-0.000138941
0.637566
-6.54324e-05
-3.37612e-05
0.000191214
-9.38736e-07
-0.0200923
-0.0105548
0.00204319
0.755898
-1.07129e-05
0.00228044
-1.93037e-06
-5.7053e-07
0.00301156
0.0238845
-0.235738
3.05648e-07
-1.13706e-06
-3.83122e-06
-0.000923146
2.72253e-06
1.43291e-07
0.0809379
-0.0596247
-0.351112
0.0483736
0.0258865
9.02935e-07
-0.18545
1.00977e-06
0.0608728
1.34578e-06
0.00109267
-7.12203e-06
0.00046158
-1.31976e-08
1.39463e-07
0.0119635
-0.00343178
-0.0474241
8.75981e-07
0.00253331
-0.00470483
-1.1969e-06
0.0390304
0.137697
4.75203e-07
-5.75929e-06
-1.33287e-08
-0.000927777
6.37607e-05
-0.000245927
1.18661e-06
-2.10722e-06
-0.0941828
2.0058
-2.91287e-05
-0.00361049
-4.83633e-06
3.79511e-07
1.66492e-09
-0.000463177
0.0051775
4.40942e-05
0.00139401
0.000917208
-2.83837e-06
0.17689
-1.48446e-05
1.6522e-08
-2.39925e-05
0.0193311
-0.144186
-1.39148e-07
-7.82399e-08
-0.00112023
-3.7352e-07
0.163748
-1.68346
1.01487
-0.46581
-3.48223e-07
0.0120167
-0.00136922
2.92553e-06
-0.0111755
-3.90181e-07
1.17116e-05
0.0847587
2.73838e-06
-9.47728e-07
-0.0975622
-0.15045
-0.0131321
-0.00134089
-0.000734763
-2.90325e-07
-7.093e-07
-0.0268315
-1.76008e-05
-0.000127084
-0.0171611
-8.36592e-08
1.52874e-08
-0.680148
-0.00380113
0.12711
-0.0608768
-0.515096
-0.010902
-1.11356e-07
-0.000482801
0.000425965
-0.260088
0.0558355
0.805015
0.00105075
1.69458e-08
0.280645
1.20532e-08
-0.00182833
0.0358274
9.58696e-09
1.04835e-08
-0.0406073
-0.622049
0.00982051
-2.18333e-06
0.269453
0.016356
0.000760507
1.3106e-06
0.000156261
-0.130436
-0.00112652
1.73148e-06
0.000109714
0.0064618
-0.029564
2.47654e-06
4.53788e-06
-0.297559
-0.000534293
2.99249e-06
6.4358e-08
-4.51947
1.11047
0.914425
1.84538
0.000522327
0.0262715
-0.684666
-5.21969e-06
-3.53216e-06
-1.51729e-07
5.57949e-07
-0.00279324
1.39748e-06
1.24733e-06
-4.10664e-05
3.05773e-07
1.79734e-06
8.74197e-06
-0.00609621
0.000162199
-6.60056e-06
-1.5918e-07
1.38487
-0.00121466
-2.79246
-9.08442e-06
-3.28847e-06
2.57473e-08
0.00161334
0.0313669
0.0457191
0.000258026
-0.641186
1.89111e-06
-3.42838e-07
-0.000476155
-8.07904e-09
-0.00441063
0.000141238
-8.4105e-07
3.96722e-07
0.04778
-0.0224735
-1.08318
4.08508e-08
-0.0152602
1.2609
-2.16607e-07
-0.00623572
3.00601e-08
1.49925e-06
5.04774e-08
0.0903331
0.709878
1.22431
0.0847888
0.000172074
-0.00425253
-1.97272e-07
0.0134264
7.63875e-06
-7.9279e-06
8.39344e-06
-1.61179e-07
0.364121
0.102979
-0.698663
-0.142492
0.0621386
1.60387e-07
-0.0949603
1.53764e-06
-2.89975
-1.04607e-07
-0.0573383
0.330852
-0.042734
2.2652e-06
-0.197682
-7.76987e-07
0.0972821
-7.67089e-08
-0.000712486
-0.000653715
2.51388e-06
0.00147836
0.00145119
-1.14566e-06
-0.000240267
1.05795e-06
-0.00800745
1.15697e-06
-0.000343577
0.00327935
0.00600385
0.952573
0.0132281
5.30768e-08
-0.0393707
-0.00775447
-0.329308
7.0218e-07
0.111729
-0.0187927
-0.0249691
-0.53589
-3.36863e-06
2.70774e-07
-5.92452e-07
-0.00440981
-0.478698
5.27959e-05
0.00126417
0.0043562
2.12577
2.70766
0.139857
-4.19978e-07
-0.0389718
9.31454e-07
-0.0056676
-0.0674966
0.0400747
8.64345e-05
1.41233e-06
-0.00477794
2.55774e-08
0.00821238
5.44449e-07
0.00278747
-7.07114e-07
-0.00027852
-4.33252e-07
0.388694
-3.47229e-06
-0.0756507
-0.0923644
-7.74357e-07
0.133842
-0.026189
1.66214
-4.05501e-05
-0.00130595
1.29563e-06
-0.00460667
-5.82364e-05
9.49201e-07
-1.24238
2.53215
-2.13009e-09
-0.0383848
0.00528441
-0.000767331
0.671222
-0.0216615
-2.23966e-06
0.00195601
0.00139763
0.000316648
5.05532e-07
6.64757e-07
5.08864e-08
0.0386555
0.00492923
-0.109459
0.00859406
-0.0961775
0.000208141
-0.0324372
1.46921e-06
-0.000872743
-1.66593e-05
0.000545762
1.85232e-06
0.00301782
-0.797256
-0.00296745
-1.95374e-07
-0.00207147
-3.03821e-07
0.00321446
-3.23521e-05
-2.50798e-07
8.81058e-08
0.682011
0.000216715
2.41172e-06
-0.000680509
-0.0167646
-0.0415939
-0.00215141
0.00366008
-0.629864
-0.00149191
2.12375e-06
0.66523
4.41523e-07
1.10616e-06
-7.54098
8.33224e-06
0.496529
0.0137481
1.01351e-06
-0.432915
-0.00239664
-0.0257646
2.74821e-05
-0.00249093
2.84686e-06
-0.00219837
-2.86177e-05
-0.0014883
-0.591011
-0.840348
0.0112799
-9.71188e-06
0.00162963
-0.000296605
0.0757122
-7.97501e-06
-8.79144e-07
-3.73174e-06
0.45759
-7.63382e-07
-2.44378e-06
5.35712e-07
3.21476e-07
0.0676312
0.00394728
-0.00375212
0.0018675
-3.10061e-06
1.59996e-06
3.06953
-0.0731247
4.41272e-05
0.0287102
6.54573e-07
-3.13468e-05
0.0475371
-1.75936e-06
-0.692538
0.144799
-3.46393e-07
-3.61911e-06
-2.24927e-05
-0.000271481
-9.55774
-0.140845
-0.00127157
-0.876155
-0.000711538
-3.12925e-07
0.0178709
0.0044851
-1.0479e-06
-0.012451
0.000727893
-0.00305762
0.616548
-0.0105881
0.000247386
-4.75473e-05
1.68031e-06
0.00149689
0.00459796
0.282307
0.0151256
-0.0703222
3.7332e-05
2.86367e-06
0.180384
2.71414e-05
-4.19139
-0.0570162
-0.06691
-2.77923
-0.0016194
6.00658e-07
1.41337e-06
0.012278
-5.28365e-05
0.0017422
-0.107949
-0.069716
-1.91384e-07
-0.0837104
0.000825129
2.29209e-06
3.76009e-08
-0.00659862
-0.482171
2.09846e-06
9.56896e-07
0.0872399
0.20269
0.000741297
0.221444
-0.0361273
-0.234345
-1.07329
1.09657e-06
-4.52544e-07
-0.176182
0.00248959
-6.36099e-06
0.00240311
0.0822875
-5.35207e-08
0.000132587
0.00039583
-0.000128847
1.97439e-05
0.23424
3.74668e-05
0.561447
-1.06518e-08
0.0926724
-0.0018405
-0.136161
-3.17781e-05
2.27973e-06
-3.01337e-06
-0.000583469
1.93319
0.0632283
-1.2847e-06
-0.0852017
4.70801e-06
0.0125837
1.47111e-06
-4.33555e-07
0.139919
0.0561208
-0.314335
0.232787
1.45215e-05
0.0033681
-8.50383e-08
1.5829e-06
0.43813
-6.52827e-05
-3.42544e-06
0.000651732
1.50091e-06
-1.27066e-10
0.00524028
-3.31364e-05
0.337985
-0.226013
-2.55206e-07
-3.72257e-05
-0.0952763
2.40172
-3.95243
-3.23529e-07
-3.60687e-06
-0.239548
0.0108963
-0.0012255
-0.00619282
0.000399013
3.06358
-5.1615e-06
-0.0914971
-5.42342e-07
0.00189706
-6.13663e-07
-0.000519082
-0.00171866
-5.01966e-07
0.00274393
0.73849
0.00082445
-0.500103
7.74228e-07
0.00387567
-9.85719
-5.1774e-06
5.41273e-07
4.8541e-06
0.0108721
-1.17113e-06
1.90015e-06
-1.73133e-06
-0.690505
0.920799
0.00089108
-2.79361e-07
5.8869e-05
-1.91245e-07
0.0206768
-5.99812e-08
-0.000327378
-4.99206e-07
5.58771e-06
-0.000179499
0.0034359
0.693824
-0.00361166
-0.153202
-0.00182264
-6.00317e-05
-0.106355
3.23335e-05
-0.802278
0.0335295
-5.24852e-05
-0.36862
-0.000286316
-3.33418e-05
-0.000135977
-5.80258e-06
2.73693e-06
-3.85634e-07
-1.64382e-06
0.025879
-5.79923e-08
-6.52302e-07
4.74762e-07
0.0227442
0.000489711
-0.0336502
3.01648e-07
0.000384028
-0.016466
0.00230736
0.0063671
-1.33352e-07
-0.00951035
2.29881e-06
-0.00844531
0.00632224
-0.00182375
-4.33806e-08
-0.0153098
3.1647e-07
1.50807e-09
8.54402e-06
0.0012852
0.96412
-0.360864
0.00373621
0.342468
4.24711e-06
1.28016e-06
-5.0261e-06
0.0014219
0.0270979
-0.00172817
-0.000489424
-0.719963
0.730689
-0.00153415
1.50873e-06
-5.72538e-08
4.30671e-07
1.68133e-06
0.0260847
9.52962e-08
-4.77603e-07
0.00143421
-0.00960622
-0.0175201
0.0556426
0.00143389
1.33834
-1.37325e-05
0.0408692
0.115046
0.0117858
0.000750248
-0.640243
1.65192e-06
1.53516e-06
0.0697108
-0.655679
-5.46938e-07
-0.000799289
-0.000958234
3.91542e-07
0.126478
-1.05737e-05
0.00469598
-0.0899395
-0.000939396
8.48851e-06
0.167935
-0.00124908
0.771381
1.481e-06
1.37534e-06
0.0277623
0.000418154
5.85937e-07
2.94212e-06
1.88235e-06
-0.0343556
-0.159827
0.00026705
-1.77817e-06
0.00951171
0.45584
-0.0261814
0.00134463
-3.99466
-0.0891044
-0.298986
0.124003
-0.75204
-1.0811e-06
3.05435e-06
-0.0210462
-2.65656e-07
0.00251699
-0.00294794
-1.01868e-05
0.177753
0.00895858
-1.82614e-06
0.000448871
-0.201737
-0.189555
-0.707693
-1.41108e-05
-0.224531
-0.000970152
-0.00251077
-0.000462116
0.927327
-0.0933235
3.8519e-06
-4.04326e-07
0.000754777
-0.136941
-0.000190419
0.836183
-0.299878
0.0185963
-0.000363779
2.31035e-07
3.49852e-05
5.06471e-05
-8.5934e-07
0.00266155
-1.05328e-06
-0.000284391
-1.00212e-07
0.000130303
-2.53566e-05
-1.88915e-07
-6.67702e-07
-1.34069
-1.2483e-06
-0.00602068
-0.000125544
0.330815
0.064494
0.000817658
-0.000240129
2.4505e-07
0.00291468
2.15047e-07
0.0603851
0.000388427
-0.19021
3.41657e-05
0.000539946
-1.03026e-06
-6.95871e-08
5.43555e-06
-0.0463883
-0.0516597
4.94151e-07
-0.00118198
0.104801
-0.0327327
0.000100902
0.275213
-3.24974e-06
-0.729241
0.227571
1.64814e-08
0.000356284
-0.15981
1.12822e-08
-0.82363
-1.12079e-05
-0.158539
-0.000525656
1.36427e-06
0.00588878
-1.71242e-06
-1.35091
1.90717e-05
1.29814e-06
0.0814483
-0.0123486
1.53112e-09
-7.99694e-07
0.000381491
0.00487374
-0.000947973
-0.0192312
0.0608536
5.56391e-07
0.108616
-3.77049e-06
0.000191573
0.000482743
0.0503958
-0.401581
2.55862e-06
-0.00735093
-6.25786e-06
0.000988145
5.38285e-07
7.98544e-07
5.91551e-07
-0.0351042
0.000708347
-2.01506e-05
-0.0117925
5.54419e-06
-0.00571767
0.0647627
0.441665
-0.0401547
0.000459627
0.00675027
0.0986501
0.000632323
4.84169e-07
5.12575e-06
1.72677e-06
0.000618034
0.00054667
-7.29955e-07
0.00171965
8.60647e-07
-0.000812397
1.00862e-05
-1.68344e-07
0.0147631
3.16476e-08
1.79683e-06
2.66838e-05
-3.20355e-07
0.00284824
-0.0219224
0.0176367
-8.68719e-07
-0.257815
-0.180622
0.0432055
-0.345798
-0.803895
0.00849396
-0.0813158
0.109886
4.5716e-07
-0.00375435
0.00027752
-1.37437
0.00881725
8.09204e-08
-5.48905e-07
0.0761572
-2.18722e-06
-0.0441444
-0.105189
0.0117208
7.26708
0.0272343
-1.8301e-06
-0.00443077
0.0048638
0.000230905
0.000171634
7.86904e-08
0.000505938
2.58028e-06
-0.0420237
3.27413e-05
8.89717e-07
0.00381394
1.26152e-06
-0.00151546
-2.16248e-07
-0.000161041
1.04743
-0.00212854
0.00459804
-1.52228e-07
0.22172
-0.000599255
-6.92258e-06
7.9464e-07
0.000730009
-4.60787e-08
-4.61595e-06
0.00907002
7.03171e-06
-0.00747817
3.69248e-05
5.9336e-06
0.000458424
0.0119145
1.33599e-06
-3.88711e-07
-0.189175
-0.0698086
-3.11207e-07
-3.50328e-07
1.23789e-06
1.77105
0.115218
-1.45803e-07
5.4085e-07
-0.0752135
0.131189
-3.32119e-08
0.0445486
0.00242208
-0.022352
-4.07439e-06
0.000393933
-0.54984
1.09355e-06
-2.23826e-06
-0.0567101
0.00270477
1.2017
0.0179917
0.0541903
-0.140668
-0.683802
-1.4721e-06
0.891109
-4.57965e-06
1.45938e-06
0.000745969
0.000517177
0.156475
-1.02403e-07
0.00137103
1.82238
-0.164385
-1.50633
-0.0431512
2.83735e-07
3.14306e-06
-0.0597512
2.42277e-06
0.00547526
0.00362807
-8.22087e-05
-3.90243e-05
0.000106105
-0.000260061
1.93813e-06
3.8514e-06
-0.000524189
3.70688e-06
-0.304196
1.57756e-06
0.000245115
0.0796955
-0.00198749
1.58911e-06
0.000230259
-0.00396888
-1.3782
-2.62156e-06
-0.000141366
0.000852133
-0.0267024
0.0406841
0.0278706
0.059309
9.45353e-07
-3.22456e-07
-0.0009417
-4.77416e-08
-0.518866
0.00275938
-5.97898e-06
2.79883e-07
-0.000125801
-0.00453254
0.0634954
-4.69474e-05
0.0446222
-0.511571
0.0707442
-0.0593084
-3.14658e-08
-3.0608e-07
1.33554e-06
0.138751
-0.0350033
-0.801347
-4.68144
-4.41656e-07
-3.38387e-07
3.39535e-07
1.14529
-0.0103437
-0.0439342
-0.793254
0.00383556
0.000301621
0.689427
7.42175e-07
-8.09025e-07
-0.0172262
-9.23067e-07
0.0289916
-0.00381367
-3.95212e-08
-0.000509434
1.25177e-08
-0.00246606
0.0468298
-0.0467089
6.12711e-07
-0.0190723
0.00172117
1.06249e-08
1.2933
-8.42722e-06
0.00041891
-0.709005
-0.000117942
-4.59281e-07
-4.39499e-07
0.0389102
-0.00476904
7.11882e-07
1.15254e-06
7.13974
0.00155209
0.0137765
-0.00269306
0.870228
2.39935e-06
-1.04049e-05
-0.0626023
-5.94782e-06
4.4293e-06
-0.198875
-0.012197
7.31622e-05
-0.396004
0.00306071
-0.00151632
-0.0225224
1.64817e-06
-2.95751e-06