/*--------------------------------*- C++ -*----------------------------------*\
| =========                 |                                                 |
| \\      /  F ield         | OpenFOAM: The Open Source CFD Toolbox           |
|  \\    /   O peration     | Version:  v2012                                 |
|   \\  /    A nd           | Website:  www.openfoam.com                      |
|    \\/     M anipulation  |                                                 |
\*---------------------------------------------------------------------------*/
FoamFile
{
    version     2.0;
    format      ascii;
    class       surfaceScalarField;
    location    "100";
    object      ddtCorrDdt0(phi);
}
// * * * * * * * * * * * * * * * * * * * * * * * * * * * * * * * * * * * * * //

dimensions      [0 3 -2 0 0 0 0];
oriented        oriented;


internalField   nonuniform List<scalar> 
27704
(
-0.0476726
0.0262394
0.0214332
2.18252e-05
1.834e-05
-4.01621e-05
-0.0144819
-0.0331907
-0.00342895
-0.00118193
0.00461093
-5.51317e-06
1.0161e-05
-4.64822e-06
0.0382379
0.03767
-0.0759079
-1.0529e-05
7.26729e-05
-6.2144e-05
-3.11128e-05
9.95631e-05
-6.84506e-05
-0.0728782
0.0255036
0.0473746
0.126678
-0.0120244
7.56906e-05
-7.29756e-05
-2.71427e-06
-3.87709e-05
3.40915e-05
4.67976e-06
3.3505e-06
-8.86487e-06
0.000117362
-0.000369316
0.000251962
-0.00433112
0.00442805
-9.68881e-05
1.83228e-06
-2.12218e-06
2.88235e-07
0.00130928
-0.000498736
-0.000810535
-6.49018e-05
5.43718e-05
-0.109301
0.00346489
0.105836
-2.49693e-05
4.67958e-05
-1.86835e-06
-3.69022e-05
-0.0028511
-0.00153435
0.00438545
-0.0183336
0.0188493
-0.000515652
0.00458322
-0.00309396
-0.00148923
0.107204
0.0194742
-0.0177021
-0.000631568
0.044236
-0.0187626
-0.0254733
0.00421007
-0.00118585
-0.00302423
-0.000434721
-0.000107565
0.000542284
0.00104712
0.00032211
-0.00136925
-0.00224721
0.00047831
0.00176891
-0.00065229
-0.00159492
0.00106465
0.000244635
-0.00142476
0.00171247
-0.000287717
3.01321e-05
-2.9513e-05
-6.18417e-07
0.00408407
-0.00451516
0.000431086
0.000376391
-0.023512
0.0231355
0.00797827
-0.00349256
-0.00448568
5.54206e-05
2.02719e-05
-0.000248693
0.00036606
-0.0345211
-0.00909259
0.0436135
0.000281635
0.000180055
-0.000461688
0.00630021
-0.00430212
-0.00199806
0.0128671
-0.00240471
-0.0104624
-0.0122524
-5.70253e-05
0.0123094
0.00246971
-0.00140203
-0.00106771
-0.00571391
0.0187858
-0.0130719
-0.000725091
0.00120386
-0.000478756
6.66682e-05
-5.51486e-05
-1.15184e-05
-0.00645517
0.00149128
0.00496391
0.000822582
-0.00425153
-0.0248886
0.0210892
0.0037994
0.00040522
-4.45292e-05
-0.000360686
0.00538372
-0.0399049
-0.000352393
-6.36936e-05
0.000416086
-0.00909776
0.00868651
0.000411267
0.0215061
0.0098308
-0.0313367
5.88517e-05
7.81697e-06
-0.000616773
-5.97512e-06
0.000622748
0.0294693
0.0243704
-0.0538397
-0.000112904
8.76187e-06
0.000104144
-4.31445e-05
3.51534e-05
-7.75182e-05
0.0375066
-0.0105531
-0.0269534
0.000120312
0.000926824
-0.0187214
0.0109859
0.00773544
-0.0123566
0.0418259
-0.000192723
-0.000457955
0.000650679
-0.0145044
0.00225203
-0.00406204
0.00121094
0.0245701
0.0196658
-0.00159866
0.000173909
9.69515e-07
-6.58726e-05
-3.38603e-05
6.90141e-05
-0.000849507
0.00355183
-0.00270232
-0.0133934
0.0262604
0.00614837
0.0131696
-0.0193179
3.03017e-05
-1.69171e-07
0.00102085
-0.000636806
-0.000384042
-0.00390068
0.00294191
0.000958766
-0.00262068
0.00177118
0.00287169
0.0051066
-0.0138892
0.0699475
-0.0560584
0.0122748
8.61781e-05
-4.73509e-05
-3.88273e-05
-0.00483303
-0.00426475
-0.000740163
-0.00153673
0.00227688
-0.00359399
0.00158043
0.00201356
-0.00113597
-0.00276471
-0.00856655
0.0261926
-0.017626
0.00593821
-0.0102692
0.00200018
0.00157265
-0.0035728
0.0033209
0.00126235
-0.0173061
0.0115765
0.00572961
0.000135856
0.000323143
-0.000458999
0.000279745
0.000125475
0.000883185
0.00320088
-0.00956204
-0.00213223
0.0116943
-0.0115944
-0.00712694
-5.51652e-05
-5.77378e-05
-0.0286117
0.112473
-0.0838615
7.76358e-08
1.75388e-06
0.00105927
-0.0117955
0.0107362
-8.50569e-05
5.39441e-05
-0.0214457
-0.0514325
-0.071723
0.0502774
-0.0832174
0.0693281
0.0206266
-0.00149513
-0.0191316
-0.00218829
0.0108746
5.74754e-05
-5.65067e-05
-1.43727e-05
3.04218e-05
-1.60476e-05
0.00153916
-0.000412303
-0.00112685
-0.00212783
0.00467255
-0.00254473
1.904e-05
-1.98112e-05
7.71396e-07
-0.00026515
0.000401007
8.28942e-05
-0.00964494
-0.000635291
0.000442568
0.00123942
0.00029974
-6.38165e-06
-1.13063e-05
1.7688e-05
0.00199776
-0.00273792
0.000140984
-0.000103148
-3.7835e-05
-0.00145591
-0.000910392
0.00236631
-0.029838
0.0102797
0.0195584
1.43891e-05
4.65144e-06
7.73919e-06
6.26051e-05
-7.03441e-05
-0.000299213
-0.00018519
0.000484411
0.0599549
-0.02934
-0.0306149
-0.000288173
0.000629005
-0.000340834
0.000140136
-0.000574852
0.000373083
-0.000122922
-0.000250161
0.000164077
-0.000104265
-5.98095e-05
0.0357743
0.00173238
-0.000606863
-0.00131164
0.00191851
-0.000517857
-0.00179719
0.00231508
-3.0528e-05
4.9831e-06
2.55454e-05
0.000304052
0.00217566
-0.0184489
0.0162733
-0.00132954
0.0219561
0.0324714
-0.0302958
-0.00879565
0.0234495
-0.0146539
-0.00103461
0.000565067
0.000469549
1.06946e-05
3.1117e-07
-1.10068e-05
2.89757e-05
9.31648e-05
-0.00012214
0.000344955
-0.000440701
9.5748e-05
0.0116303
-0.0377799
0.0261495
-0.000108932
3.15015e-05
7.74291e-05
-0.000270345
0.000130724
-0.000500524
0.00196541
-0.00146488
-0.0496119
-0.0221111
-0.000107991
-3.99842e-05
0.000147978
0.0168249
-0.0134566
-0.00336824
-0.0157636
0.00205744
0.0137062
1.11382e-05
-4.44053e-07
1.94488e-06
5.35422e-05
-5.54885e-05
0.000724099
-0.00222438
0.00150026
0.0115329
-0.00878721
-0.00274573
-0.000240571
0.000132582
-0.000447621
0.000339108
0.000108516
-2.02855e-05
4.09955e-06
1.61871e-05
-0.0193322
0.0283357
-0.00900357
-0.0313499
0.106555
-0.0752049
0.00419467
-0.0405045
0.0363098
-0.000184334
0.000144351
0.0422119
0.00236002
-0.0445719
-0.0188536
0.0193845
-0.000530977
1.63736e-05
-1.42415e-05
-2.13177e-06
0.00672721
-0.00320289
-0.00352431
0.0737158
-0.024783
-0.0489328
-1.63709e-05
1.14241e-05
4.94743e-06
7.49498e-05
-7.93947e-05
4.44241e-06
0.00112619
-0.00266292
9.79405e-06
5.127e-06
-1.49211e-05
-9.27992e-05
4.96023e-05
4.31981e-05
-0.000812171
0.000479434
0.000332739
-0.00119366
-0.0052615
0.0196895
-0.00283343
-0.0168561
0.0177715
0.00418163
-0.0219532
-0.000101808
-0.000138761
0.0241038
-0.100187
0.068837
-4.62788e-05
3.39102e-05
1.237e-05
0.00944243
-0.0182381
-0.00106347
0.00106467
-1.2038e-06
-0.000109144
-0.000338474
5.9656e-05
0.000354147
-0.0004138
-0.000993915
-6.95502e-05
-2.73138e-05
-0.00032508
0.00236839
-0.00164429
0.000113028
-4.22189e-05
-7.08094e-05
0.000482988
-0.000310984
-0.000172005
-0.00109732
0.000623427
0.000473898
0.0124327
0.00439222
-0.00158662
-0.0141771
-0.00219946
0.00332965
-0.00113019
-0.00643369
0.00532491
0.00110877
-4.63526e-05
-4.64448e-05
-0.00128281
0.000383299
0.000899511
-0.000218142
-0.015934
-0.00291936
-0.00113546
0.000410376
4.14476e-05
0.000441541
-4.24174e-06
1.5788e-05
-1.15484e-05
-0.0320927
0.0127605
5.94201e-05
0.000653794
-0.000308835
1.62352e-05
-6.44068e-06
-0.00255111
0.00203329
-0.0386606
0.0591505
-0.0204899
-0.000374359
-5.21676e-05
0.000426524
0.000347576
-6.78292e-05
2.9974e-05
8.30541e-05
0.00037551
-0.00144959
0.00107409
2.25412e-05
1.24568e-05
-3.49991e-05
-0.000372962
-0.00251594
0.0028889
-0.00254807
-0.00483902
0.00738711
-0.00315452
0.00346759
-0.000313071
-5.44686e-05
1.52187e-05
3.92507e-05
-0.000625131
-0.000472194
0.000511227
-0.000172117
-0.0118072
0.00609332
-0.0119425
0.0100281
0.00191443
-0.00237192
0.00176468
0.000607236
0.00127
0.00111868
0.0128754
-0.000425849
-0.0124496
0.0624871
-0.0582925
0.00218184
0.00454536
-0.0178085
0.0100786
0.00772999
-0.0471338
0.0401757
0.00695822
-2.86094e-05
2.86097e-05
-0.0118326
-0.000109861
-0.000451394
0.00014041
-0.00211678
0.0034093
-0.00129252
0.000931041
0.00027282
1.1595e-05
-2.24868e-05
1.08922e-05
-0.0551458
0.0427435
0.0124023
-2.88267e-05
-1.74521e-05
-0.00068217
0.000260913
0.000421257
-0.000385459
0.000445118
-1.44589e-05
-3.94529e-05
5.39108e-05
-3.79067e-05
9.65838e-05
-5.86771e-05
0.00598512
-0.005433
-0.000552114
-0.00132778
-0.0317942
0.033122
0.0221543
-0.0190096
-0.00314466
0.000906801
0.000114051
0.00476867
-0.0761346
0.071366
0.000740263
0.00171785
-0.00245811
0.000402528
-0.00260198
3.24009e-06
-3.37679e-05
0.00789353
-0.00817583
0.000282305
0.000912469
0.00297161
-0.00223133
-0.0472911
0.000157358
-0.0006317
0.000133462
0.000498246
0.00143505
-0.00113615
0.00102916
0.000106989
1.06885e-05
5.68472e-06
0.000152539
0.000195037
9.94816e-05
-3.03042e-05
-6.91776e-05
-0.0147554
0.00292282
-1.0989e-05
-5.38131e-06
-0.0146966
0.015073
-6.22536e-06
6.18461e-05
-5.5621e-05
0.000173658
-0.000127338
-4.63191e-05
0.00430794
-0.000531218
-0.00377672
-5.11881e-05
-1.38969e-06
5.25781e-05
-0.00757131
-0.0102373
0.000102081
-5.21125e-05
-4.99691e-05
0.000257057
0.00664961
-0.00690665
2.12595e-05
-8.2145e-08
-2.11776e-05
0.000471069
-0.000165785
-0.000305286
-0.0283473
0.00952723
0.01882
0.00289388
0.00340151
-0.00629531
0.00154571
-0.00191867
0.00037984
9.12279e-05
-0.00699923
0.0129375
-0.00228237
0.00137198
4.32677e-05
0.00039344
-0.000436715
-0.000448658
-0.000165265
0.000613923
0.000497388
0.00548773
-0.00147803
0.00143489
-0.00546542
-0.0056891
0.0111545
-0.000224541
-0.000355902
0.000580445
0.0185867
-0.0572472
-2.64512e-05
-2.8017e-05
-3.00096e-05
0.000403093
0.00231105
-0.00714408
-0.00831566
0.00566554
0.00265011
-2.39919e-05
2.89753e-05
-0.0142389
7.46905e-05
-6.69516e-05
4.66806e-05
-1.15377e-05
-3.51422e-05
-0.0619491
-0.000144795
0.000166476
-2.16787e-05
-0.000452553
0.000502119
-4.95595e-05
0.0664984
-0.0359016
-0.0305968
0.00864019
-0.000746655
0.0284844
-0.00697825
-0.00128803
0.00544127
-0.00415323
-0.000702446
-0.000332158
0.000249175
0.000262053
0.000224183
-0.000489333
-0.0234267
0.0656387
0.00346709
0.00940831
-0.0109585
-0.0173888
0.00802068
-0.000803335
-0.00721731
0.00491659
-0.00273476
0.00870904
-0.00845198
0.00089256
-0.00221697
0.0013244
-0.000570395
-0.00592085
-0.000155957
0.006077
4.63338e-05
3.46524e-07
-0.00501578
-0.011449
0.0164648
0.000151828
-0.000768601
-0.000866031
0.000516658
0.000349372
0.000602667
-0.000506264
-9.64072e-05
-0.00252458
-9.61027e-05
-0.000942888
7.32881e-05
0.000869599
-0.00204471
0.00277879
-0.0343561
-0.000443142
-0.000422891
-0.00108841
0.00163851
-0.000550099
-0.000269266
4.39722e-05
0.000225292
9.87659e-05
2.61112e-05
-2.27977e-05
-3.31211e-06
0.00268752
-0.00397555
-0.00192699
0.000550913
0.00137609
-0.00619777
-0.0258949
-0.000532323
-0.000279847
-4.69243e-05
7.21337e-05
-2.52093e-05
-0.000211303
0.000402339
-0.000191034
0.0104076
0.02255
-0.0329577
0.00171638
-0.00104596
-0.000670419
1.64584e-05
4.80027e-06
-0.00587431
-0.0239637
5.0598e-05
-3.91085e-05
-1.14866e-05
0.00979151
-0.0148073
0.00171611
0.00320048
0.000986092
-0.0034568
0.00247069
-0.00229771
0.0024243
0.00233848
-0.00476276
-0.0444612
0.0321046
-0.00143075
-0.000613972
-0.0178122
-0.0486893
0.0665014
0.00919386
-0.116378
0.107184
0.0036878
-0.0048697
-0.0013522
0.00147252
-0.000120319
-6.17416e-05
2.88389e-05
3.29048e-05
0.00175201
0.00368926
0.0885649
-0.0851
-0.000500953
-0.000181217
-0.023639
0.00590451
0.0177346
-5.39774e-05
4.77514e-05
-0.000122132
0.00176404
-0.0016419
-0.000108646
-0.00102751
0.00455439
0.00232519
-0.00687957
-0.000600759
-0.00132622
0.0292866
-0.0706083
0.0413217
-0.000640334
-0.00170517
0.00234551
-4.32995e-05
0.000286788
-0.00024349
-0.0025712
-0.00102279
0.0280327
-0.0341475
0.00611479
-0.012032
0.00955659
0.00247538
-0.000209489
0.000587418
-0.000377929
0.0178668
-0.0182249
0.000358118
0.0448531
-0.0204827
0.000360744
-0.00013656
5.15929e-05
3.45855e-05
-0.000126915
-0.0443343
-2.4369e-05
4.69101e-05
0.000812715
0.00115594
-0.00196866
0.0437148
0.0294513
-0.0731662
-0.000427666
-0.00194425
6.94393e-06
4.95279e-08
-6.99322e-06
-0.0216959
0.000118005
-0.000185953
6.79505e-05
-0.00665526
-0.0169837
-0.045618
0.045491
0.0586686
-0.0293821
0.000484389
0.00123199
-0.000794156
0.000351014
-0.00162772
0.00150559
-0.00526979
0.00816373
0.0347744
0.0238942
0.00102419
-0.00126018
0.000235985
0.00578335
-0.00335905
-8.22752e-05
5.11583e-05
3.11181e-05
-0.000359675
0.000148373
2.14449e-05
4.66705e-06
-0.00211287
0.00106692
0.00124789
0.00216141
0.00362925
-0.00191315
0.00126892
-0.000244734
0.0348314
-0.0103897
0.00118467
0.00172212
-0.00290679
-0.000612917
-4.76112e-06
0.000617679
1.92432e-05
-1.17315e-05
-7.51103e-06
-0.000243257
-6.51468e-05
0.000308406
0.000351852
0.00766882
-0.129829
0.0275998
0.102229
-0.000426545
0.00356753
-0.0111389
0.00373705
0.00732539
-0.0110624
7.01373e-05
3.1944e-05
-5.07884e-05
-3.14881e-05
0.0130994
-0.0127115
-0.000387855
-0.000282401
-0.000511755
-0.00133938
-1.28268e-05
6.92541e-07
-8.78475e-06
8.09174e-06
-0.00625706
0.00982456
0.00411985
-0.00211966
7.98566e-05
6.15038e-05
-0.000141358
-0.00940197
0.00393647
0.000314839
0.000534813
-0.00084965
-0.0311252
0.0177318
-0.00221227
0.00335012
-0.00113785
-0.000567074
0.000223955
0.000343137
0.000553937
-0.000272297
-0.00190045
0.0019442
-4.37508e-05
0.00105586
0.00257339
-0.0044295
-0.0269219
0.0741794
-0.0472576
0.0173324
0.0110033
4.73798e-05
-0.0071585
-0.00487348
-0.0140384
0.00512183
0.00891661
0.000237428
-0.000686084
0.00947985
-0.00777206
-0.0017078
-0.0945486
0.103742
-1.73166e-05
-9.1615e-05
-0.0023748
0.000740094
0.0016347
-0.00146657
-0.000908223
-0.0132881
0.0290535
-0.0157654
6.853e-05
-8.51963e-05
1.66675e-05
8.49013e-05
-0.000170117
8.52181e-05
0.0508285
-0.00490521
-0.0459232
-8.92925e-06
-5.28119e-05
-0.00126762
-0.000395931
0.00166356
-0.000116056
9.8739e-05
-5.06983e-05
3.82732e-05
1.24248e-05
-0.000183223
3.84286e-05
0.00335022
-0.00253109
-0.000819143
7.73828e-05
-0.000171359
9.39797e-05
-0.000291163
-0.000340533
-0.000424486
-0.000142586
-0.00219989
-0.00261981
0.00481975
0.0682547
-0.0305847
6.61357e-05
-0.00135466
0.00128853
-4.09428e-05
0.000176791
-0.000135846
0.0240534
0.000125281
-0.000166223
0.00263872
0.0170508
-0.000187986
-1.10263e-05
1.17192e-05
1.99966e-05
-8.40086e-06
0.000138184
-3.59993e-05
-0.000102187
0.0211136
-0.00172942
-0.00995387
0.000377591
-0.000475306
9.77181e-05
-0.0105107
0.0299182
-0.0194077
-2.29228e-06
7.08245e-05
-0.00192041
0.0196919
0.00102392
-0.0234909
0.022467
-0.000742537
0.000742745
-2.08297e-07
-3.49148e-05
-1.57835e-05
0.000674004
-0.000973604
0.0002996
0.00021887
-0.000507041
0.000319611
-0.00119464
0.000875037
0.00148271
0.00293063
-0.0044133
6.26242e-05
0.000111035
-0.00249869
-1.72506e-05
0.0116158
-0.00861901
-0.00128375
0.00990272
0.00122147
-0.00230141
0.00107993
-2.36255e-05
8.69959e-05
-6.33703e-05
0.000337846
-0.00326342
0.00287957
0.000383829
0.0239261
-0.00281281
-0.00242297
0.00239536
2.76231e-05
-0.000778542
0.000141733
0.00213653
-0.000138774
4.43164e-05
0.00141903
-0.000737694
-0.000681337
0.00559143
-0.0326316
0.0270401
8.21257e-05
-6.21412e-05
-1.99792e-05
0.0073914
0.0185183
-0.0259097
-0.00183102
0.00280709
-0.000976083
-3.10893e-05
1.87387e-06
2.92159e-05
0.00345247
-0.00196975
0.00368276
0.0471457
-0.00169567
0.000591029
0.00110464
-0.0228231
0.00953113
0.013292
-1.21004e-05
-8.18426e-06
-0.00702726
-0.0157958
0.0143808
-0.0177105
0.00332975
-6.41392e-06
6.90049e-06
-4.87188e-07
2.68835e-06
4.49387e-05
-4.76278e-05
0.000237941
-0.000661479
0.00042354
0.00428925
-0.0129083
0.000505019
-0.000324962
0.000630673
-9.69463e-05
-0.000533737
0.000758912
-0.00135966
-0.00603932
0.00298946
-0.0145838
0.023843
0.00418965
-0.000255085
-0.00019631
-2.41897e-05
7.53503e-05
0.0937652
-0.0814903
-4.38094e-05
-0.00164127
0.00168508
-0.000151288
-3.91788e-06
0.000155207
3.09898e-07
-5.74124e-05
5.71021e-05
0.00331968
0.00298055
0.00170823
-0.00416779
0.00203995
0.00379451
-0.00619923
-4.45775e-05
4.27098e-05
-0.0106571
0.0076022
0.00305488
-6.62295e-05
4.20404e-05
2.41649e-06
-3.14349e-06
7.26438e-07
-0.00160231
0.00275456
-0.00115226
3.04788e-05
-5.07938e-05
2.0317e-05
0.0027436
-0.00148403
-0.00125959
6.80375e-06
-4.38881e-06
0.0291554
-0.0241699
-0.0049855
0.00172442
0.00265734
-0.00438175
0.0145498
-0.016045
0.00808366
0.00768341
-0.0157671
-0.00486298
0.00140377
0.00345919
1.59738e-05
-5.08584e-06
-1.0887e-05
0.00172097
0.00130456
-0.00302546
7.92218e-06
-0.000123977
6.6437e-06
9.33042e-06
0.00684963
-0.00903786
-0.000427175
0.000470439
-0.000140348
0.000169324
-0.00632889
0.00299377
0.00333513
0.000576414
-0.006637
3.47397e-05
5.18773e-06
-3.99266e-05
-0.0238595
0.0144766
0.00938291
-0.00278037
0.00212808
0.00658278
-0.00483076
7.64952e-05
-1.33398e-05
-6.31517e-05
0.00386985
-0.00131663
-0.00255321
0.0342274
-0.0259891
-0.00823844
0.0187538
0.0672207
-0.0859746
0.00153252
-0.000773604
-0.0100005
0.0064536
0.00354688
-2.53692e-05
0.00156055
-0.00108224
0.0390723
-0.0128329
0.00250489
-0.00314522
-0.00467369
-0.00598338
-1.411e-05
-0.000137179
-0.0146552
0.0301888
-0.0155337
0.00777315
-0.0040361
0.00578802
-0.0318377
0.0260496
6.0485e-05
1.60114e-05
0.000240617
0.000166293
-0.000406903
-0.0264667
0.0274906
-0.0138707
-0.00088469
0.00241575
-0.00772433
0.00530862
-0.00191247
-0.00135096
-0.000139577
-0.000129689
1.21933e-05
-0.00075473
-0.0308089
0.0175206
-0.00577418
0.00561829
-0.00257956
-0.000574959
0.000746541
0.000618024
0.0009021
-0.00210529
0.00120319
0.000775896
-0.00033512
-0.00136055
-6.52028e-05
-2.81886e-05
9.33887e-05
0.00467843
0.0640096
-0.068688
7.36831e-05
2.54001e-05
-9.90836e-05
0.00260866
0.00100215
-0.000682542
-0.0898702
-6.31509e-05
6.94973e-05
-6.34568e-06
-0.000266178
0.00050412
1.61826e-05
-4.50091e-05
-0.0343376
0.0238268
0.0026117
-0.00155585
3.61647e-05
-3.60465e-05
-1.1865e-07
0.000254726
1.40609e-05
-6.0984e-05
-0.00951836
0.00987019
-0.000242021
0.00176887
-0.00152686
-3.60252e-05
-8.55215e-06
-6.40598e-05
2.89876e-05
3.50694e-05
0.000482307
-0.000483052
7.44932e-07
-0.00149075
0.00321172
0.00078608
0.000173139
-0.000959219
-0.0117926
0.019184
-4.17634e-06
-2.14533e-05
2.56297e-05
5.68551e-05
-2.21146e-05
-0.000795903
-0.00872245
-2.22389e-06
1.02104e-07
0.0423334
-0.058772
0.0164386
-0.000134683
-0.00034797
0.000482654
0.00675742
0.00272253
-8.95502e-05
-8.72784e-05
0.000176828
-9.08375e-05
0.00020123
-0.000110392
-1.03152e-05
-1.70522e-05
2.73694e-05
-0.00522211
-0.0120841
0.000105937
-5.21666e-05
-5.37714e-05
0.0207774
-3.63694e-05
4.15568e-05
-0.0496922
0.0613225
8.25964e-05
8.14825e-05
-0.0018517
2.06745e-05
0.0019892
0.000622504
-1.26359e-05
4.65467e-05
-0.00401214
0.00642791
-0.000440724
0.00030779
0.000132932
-7.88157e-05
1.36114e-05
-1.11706e-06
-2.7538e-06
3.86904e-06
0.0204057
-0.0189849
-0.00142074
-0.00920171
0.00791794
-3.28938e-06
1.45957e-07
-0.00208594
0.00873555
-0.0139256
0.0120011
0.00192496
0.00045949
-0.00608507
-0.000415815
0.00650089
-0.00135567
-0.000242986
0.0404351
0.0278196
0.0021012
0.000642368
0.0309406
-0.00709758
-0.00636133
0.0069377
-3.1786e-05
6.64568e-05
-3.467e-05
0.0672558
0.020774
0.0235317
-0.0443058
2.77554e-05
-6.93829e-06
-2.08161e-05
0.0111507
-0.103504
0.00210135
0.023269
4.68345e-07
2.72874e-05
-0.10472
0.0350773
0.0696426
-7.07469e-05
7.59621e-06
-0.00917644
0.0237258
-0.0047092
0.0236512
-0.018942
0.000180002
-9.51024e-05
-0.0149616
-0.00201326
0.0169749
-2.54842e-06
1.4323e-06
-0.00172021
0.00330063
-0.000101014
0.000108937
-0.000819137
-0.0058332
0.0666328
-0.0607996
-0.000339463
0.000204781
-0.0168041
0.00184249
0.0431518
0.0205396
-0.00152218
-0.0118296
0.0133518
-4.67848e-05
-4.08656e-05
8.76519e-05
-1.77975e-06
4.37003e-05
-4.19385e-05
0.00328213
-0.00677469
0.000654796
-0.000480598
-0.0001742
0.0599626
-0.0195275
-0.000319088
-6.9552e-06
6.23398e-06
7.21707e-07
-0.0207176
9.69973e-05
-3.43923e-05
-0.00446465
-0.000398331
-0.0116896
0.0101674
1.50349e-05
-7.855e-06
-7.17847e-06
-0.00271155
0.00100638
-0.0059363
-4.70092e-05
0.000148561
-0.000101336
-4.72264e-05
0.0152182
0.00693607
-0.00125779
-9.78884e-05
-5.23644e-05
2.1863e-05
3.05011e-05
-6.02226e-05
-2.89976e-05
8.92219e-05
0.00670926
-0.0125572
0.00584791
0.0717156
0.0147499
-0.0864655
-0.0105231
0.00132134
-0.00337177
0.0102214
0.0734567
-0.0792899
0.0529253
-0.0105919
8.54189e-05
7.37033e-07
-8.6153e-05
0.0589996
-0.0316354
-0.0273641
-0.0357609
-0.0263893
0.0621501
-2.14759e-05
-5.63153e-05
7.77908e-05
0.00232857
-0.00143601
1.32466e-05
-7.34703e-05
-0.00252125
0.00254822
-2.69695e-05
4.52769e-05
-9.20603e-05
-1.74084e-05
6.87862e-05
-3.57563e-05
-4.30602e-05
-4.03157e-05
-1.80766e-05
5.83927e-05
0.077943
-0.00922129
-0.00774525
0.0169665
-0.00959265
0.0813083
-0.00314132
0.000642629
-0.000207836
-0.0195409
0.0253469
-0.00580612
-8.36256e-06
4.13488e-05
-3.29857e-05
-0.00785966
-0.0161262
0.0239859
0.000787747
0.00525421
-0.00604193
-0.0123677
-0.0113646
0.0237323
0.000722552
5.62885e-05
-0.00077884
-0.0255845
0.00604351
-0.000155867
0.000221446
-6.55773e-05
-0.0928294
-0.0118906
-0.00152688
0.0170781
-0.0249378
0.000258751
0.000243373
-0.000629927
0.00862954
-0.00799946
0.112376
-0.0772982
-0.00259681
0.019946
-0.0235247
0.00357858
7.54815e-06
1.16959e-05
-0.0016592
-0.000924021
0.00258325
6.24179e-05
3.30517e-05
-0.00471942
-0.00201221
0.00673162
-0.0217473
0.0422594
-0.020512
4.46462e-05
-0.000517291
0.000676137
-0.000158847
3.20054e-07
-3.60847e-06
3.15071e-05
2.56701e-05
-5.71771e-05
-0.00830482
-0.0056207
-0.00428472
-0.0269122
0.0311968
-1.65203e-06
7.72157e-06
-6.06908e-06
0.00550073
0.00452733
0.0100388
-0.0578986
0.0478598
0.00736552
0.0863997
2.78687e-05
-6.36258e-05
0.00836521
-0.0159214
0.00755611
-4.9421e-05
6.46418e-06
-8.11607e-06
0.00940956
0.00376004
0.00745902
-0.0032774
-0.00209706
-0.00032592
0.00928463
-0.00186413
-0.00742055
-0.00103917
9.62855e-05
-0.00404699
-2.26192e-05
1.14474e-05
1.11719e-05
0.000225844
0.000333415
-0.000559261
0.0208563
-0.00588994
0.00158786
-0.000201845
-0.000113764
0.00031561
-0.00340964
-0.00490601
0.000920451
-0.00325661
0.00233617
1.91774e-05
-5.94929e-05
-5.54136e-05
0.000433008
-8.9178e-05
0.000201892
-0.000112714
0.00690606
-0.0154726
-0.00141166
-1.27667e-05
-3.84216e-05
0.000455025
0.000144631
-0.000599661
-0.00910331
0.0129734
-0.0038701
0.0103921
-0.00368283
0.00365342
0.00563121
0.0211116
-0.000705963
8.72617e-05
-0.0509801
-0.00854152
0.0595217
0.000178181
-3.90871e-05
-2.96444e-05
6.87307e-05
7.53171e-05
-0.00010174
2.64233e-05
0.00379175
0.000516183
0.00151534
-0.00408408
0.00256879
2.51075e-05
3.17479e-05
4.29031e-05
-0.000143917
4.90201e-05
-0.00013857
0.0168219
-0.0129987
-0.00382321
-0.000576573
0.000802417
0.0789125
-0.0715469
-0.0783192
0.00416082
0.0741584
8.02049e-06
7.73989e-05
-0.0063831
0.00166366
0.0386273
0.0737482
1.74308e-05
-0.000144039
0.000126609
5.72461e-06
3.83097e-05
-4.40347e-05
3.3814e-05
2.35113e-06
-0.000113125
9.49685e-05
1.81566e-05
0.013082
-0.0120445
-0.00103754
3.13733e-05
-6.80416e-07
-3.06928e-05
0.000253914
-0.0019131
-0.00146378
0.00550509
-0.00404129
-0.00541659
0.00620435
4.48849e-05
5.11967e-05
-0.00064773
0.000531939
0.000115791
5.23679e-05
-2.08606e-05
0.00345914
-0.00554508
0.00205149
-0.0034297
0.00137821
0.0900972
0.0223758
-0.00340465
0.0263
-0.0228954
0.000501888
-0.000120604
-0.000381281
-0.0334888
0.0188336
8.05726e-06
-1.93649e-05
3.78864e-05
2.36804e-05
-6.15663e-05
0.101378
-0.00479776
-0.0965805
-0.00100513
0.00216106
0.00217748
-0.000173993
-0.00200348
-0.00105807
0.00220596
-0.00114791
0.00520317
-0.0336925
-0.00408737
-0.011804
0.0242367
-0.036677
0.0621805
0.00871852
-0.00321781
-5.44997e-05
4.17334e-05
-6.29601e-06
5.65405e-06
6.4329e-07
-0.000650661
0.00155276
-2.4699e-05
4.39581e-05
-1.92571e-05
0.0208427
-0.0115366
-0.00930607
0.0241006
-0.0145734
0.000344215
0.000149471
-0.000493686
-4.32046e-05
0.000123061
-0.00204847
-4.85905e-05
0.000993656
-0.00707871
0.0285755
0.0166512
-0.0452267
0.000559428
0.00899717
0.00413877
-0.01336
7.62057e-06
-2.19925e-05
0.0261569
-0.0219742
-0.00418277
7.81839e-06
1.46648e-05
-2.24818e-05
-0.000161576
0.000259414
-9.7838e-05
0.000277196
-0.000813885
0.000536689
-4.14187e-05
-0.000571499
0.000186239
0.000394542
-0.000580779
-0.0362455
0.0349178
5.47907e-05
-3.42316e-05
-2.05582e-05
0.0017962
-0.00116254
-0.000633635
-0.003096
-0.00141917
7.62446e-06
0.000142964
-0.000510693
0.000367729
0.000420091
0.000998936
-0.0020173
0.0231065
-0.00514598
0.012052
-0.00261593
-0.00119619
0.00381212
0.0124035
0.018537
-0.000590034
0.000359666
0.000230371
0.00289885
-0.000570281
0.00498316
0.0082958
-0.013279
0.00270936
-0.00490923
-0.0007186
0.000509111
-0.0003837
0.000198511
2.33778e-05
7.32063e-05
-0.0152
0.0101546
0.00504537
0.000335499
0.000419435
-0.000754933
-1.56619e-05
-6.95856e-06
-1.06823e-05
-0.000215734
0.000226417
0.000405816
-6.16007e-05
-5.67906e-05
-5.63344e-05
-0.0586551
0.0228942
-0.000491853
0.00581675
0.00124525
-0.00386119
0.00703176
0.00541486
-0.0124466
1.29717e-07
1.01266e-05
-1.02584e-05
-0.00522801
0.00376424
0.00372608
-0.00158833
-0.00213774
0.0308008
0.00137449
-0.0321753
-7.78947e-05
-2.73771e-05
0.000105271
-0.000350145
-3.69908e-05
-2.77484e-05
6.47439e-05
-0.000304077
-0.000115735
0.00041981
6.41354e-06
-1.06563e-05
0.0172554
0.00732882
-0.0245841
-0.00214227
0.0010842
0.013059
-0.000369577
0.000305883
0.00121267
0.00211698
6.93304e-06
1.09992e-05
0.00214609
0.00157999
-0.000165373
7.61948e-05
1.9872e-05
-0.00032395
0.000878356
0.000917851
0.0351541
0.0050216
-0.0668181
-0.012705
0.0795231
-0.0029853
-0.00107673
-0.000104277
2.70659e-05
-8.20999e-05
4.2046e-06
0.000348061
0.000153845
0.000140941
-0.000120433
-2.05074e-05
-0.0135909
-0.116238
0.0104329
0.0136677
0.00372674
-0.0338746
0.0301479
-3.56406e-05
-1.88589e-05
0.0594963
-0.0157815
-0.00555553
-0.107057
0.112612
5.20856e-05
-0.000156349
0.00269058
-0.00259426
-9.63182e-05
-0.000819258
-0.00128167
0.000193261
3.96759e-06
2.46425e-05
-0.000125892
-4.70633e-05
3.89947e-05
8.07042e-06
0.00379496
0.0223976
-0.000390039
-0.00256005
0.00295013
0.000498976
-0.000727655
0.000228679
-0.0303525
-0.00045639
-0.000191334
-1.59645e-06
1.67384e-06
-0.000552139
0.000738378
1.04379e-05
-3.49265e-06
0.000657563
-0.000202537
6.88017e-05
-0.000139405
7.06026e-05
0.0371189
-0.000678837
-0.0364401
0.002688
0.0344309
-2.15912e-06
-8.65466e-06
1.08135e-05
-1.42897e-05
3.29578e-06
1.09949e-05
1.97891e-05
-5.67799e-05
-0.00156158
1.55322e-05
1.1119e-05
-2.66516e-05
0.00338677
0.0290883
-0.0324932
0.00273659
-0.00181615
0.000118716
8.3177e-05
0.000349558
-0.000187714
-0.000161844
9.61013e-05
-2.93644e-06
0.000360694
0.00407379
0.00266555
-0.00781152
0.00102706
-0.00621385
0.00518686
-0.017955
0.000166533
5.67257e-05
-0.000223259
-0.0288338
0.0987812
-0.0633534
-0.0401504
0.0219766
-0.0262614
-0.000203035
6.87842e-05
0.00013425
7.73677e-05
-0.000293102
0.00320292
-0.018936
0.015733
0.00156358
-0.000150123
-0.00141346
0.00115672
-0.002137
0.000980302
-5.92052e-05
2.41188e-05
3.50863e-05
2.30657e-05
8.30742e-06
-9.71036e-06
1.17019e-06
8.54075e-06
-0.00226398
0.00325005
0.00783654
-0.00013769
4.68522e-05
0.000423906
0.0010164
-0.0014403
0.00162902
-0.00575816
0.00412914
9.22332e-06
9.38885e-07
0.00934946
-0.00968271
0.000333255
-0.0214532
0.0360087
-0.0145555
0.0392615
-0.0759384
-0.000995485
-0.0744752
-5.09556e-05
-1.9791e-05
-0.00131327
0.000203279
0.00111001
0.000414546
-0.0073201
0.00690556
3.76671e-05
-3.73576e-05
1.64777e-05
-1.79609e-05
1.48587e-06
-0.0489063
0.0310942
0.0344376
-0.036358
0.00117593
-1.9197e-05
0.0415575
-0.00421685
-0.0373408
0.000348762
0.000533502
-0.000882265
-0.000135009
0.000212376
0.00495651
-0.000313212
0.000648712
0.0364776
-0.0264388
0.0115998
-2.02738e-06
-3.40191e-05
2.19362e-05
-6.92874e-05
-0.0165944
-0.00899033
0.000115901
0.00012874
-0.000244638
-0.00410366
-0.00976706
0.000520412
0.00013715
0.0403163
-0.0302103
-0.010106
0.00142983
-0.00192114
0.000609497
0.00748949
-0.0207909
0.0133014
-0.00153248
0.00232766
0.00656796
-0.00889561
-0.000467961
7.74087e-05
0.000390553
-0.0332749
0.00228562
0.0309892
-0.00240256
-0.00393249
-0.0224468
-0.00843893
0.0308858
-0.013479
9.36215e-06
4.12377e-05
-3.43171e-05
4.00421e-05
1.55012e-05
0.0390983
-0.0171218
0.0137155
0.00354005
0.0493495
6.70796e-05
1.90206e-06
-6.89823e-05
0.00995459
-0.0153151
-0.0128205
0.0281356
1.3078e-05
3.40077e-06
-2.86746e-05
-6.24073e-06
-8.02062e-06
-0.0449802
-0.0256281
-6.23723e-05
0.00105616
0.00535999
-0.00641615
0.013845
0.00699763
-0.000122375
-4.32073e-05
3.1886e-05
1.1322e-05
0.00238124
0.0107182
0.000179573
-0.000316211
0.000136642
-0.0140528
0.0394674
-0.0254147
-7.86442e-05
4.05569e-05
3.80872e-05
-0.0141877
0.0100841
0.0386916
0.021271
-0.025609
-0.037491
0.0631
-0.104132
0.0407783
-0.000113555
-2.98503e-05
0.000143404
5.81066e-05
-8.17319e-05
0.000359511
-0.00334479
-1.10098e-05
-2.2758e-05
-0.000217248
-0.000250712
0.00695837
-0.000629001
-0.00632938
-0.0188606
-0.0216845
0.0405451
-2.08181e-06
-4.21475e-06
9.8766e-05
-0.000193965
9.5195e-05
0.00024761
-0.000177339
-7.02709e-05
0.011137
-0.077955
-0.0209257
-0.0342201
-0.0351543
0.012787
0.0223673
0.0133483
-0.00173559
-2.74112e-05
0.001763
0.00812592
0.000280481
0.00364105
0.0265478
0.000962349
0.0019365
-0.00859079
0.0169374
0.0115928
-0.00793938
0.000829079
0.00186152
0.00166618
-0.00205618
-0.00910733
0.0438817
-0.00825299
-0.0103812
0.0186342
-0.00523112
0.00478906
0.000442108
0.013404
-3.7178e-06
3.7532e-05
-0.00112489
0.0015488
0.00346758
-0.00310686
-0.00168397
0.00832586
-0.0059982
-0.000571795
0.000215894
0.000170092
0.00275731
0.0302008
-0.00159876
0.00178076
-0.000182005
0.046672
-0.00798046
-8.94256e-05
0.000404723
-0.000315296
0.0117086
-6.00515e-06
8.82612e-06
-2.82048e-06
0.0521808
-0.0656011
0.0134203
-1.96924e-05
0.00158505
0.0411584
0.00548212
0.0075999
-0.000287701
-0.000302332
-0.0304887
0.0344482
-0.00395956
-0.00222213
-0.00151645
0.00373861
-3.88287e-05
-0.101618
0.0393654
0.0622522
0.00625787
0.00229846
0.00116912
0.000790885
-0.000270475
-0.0629903
0.00170295
-0.00174676
0.0487927
-0.025261
-1.58155e-05
2.36346e-05
-0.0225192
0.0268722
-0.00435294
0.00238885
-0.00155978
0.000239928
-0.00036285
2.18715e-05
1.44892e-05
-3.63603e-05
0.0554876
-0.00330676
-7.25091e-05
0.000115414
4.09982e-05
-1.11677e-05
0.000149351
0.0545474
-0.0814693
-0.0322234