/*--------------------------------*- C++ -*----------------------------------*\
| =========                 |                                                 |
| \\      /  F ield         | OpenFOAM: The Open Source CFD Toolbox           |
|  \\    /   O peration     | Version:  v2012                                 |
|   \\  /    A nd           | Website:  www.openfoam.com                      |
|    \\/     M anipulation  |                                                 |
\*---------------------------------------------------------------------------*/
FoamFile
{
    version     2.0;
    format      ascii;
    class       volScalarField;
    location    "100";
    object      epsilon_0;
}
// * * * * * * * * * * * * * * * * * * * * * * * * * * * * * * * * * * * * * //

dimensions      [0 2 -3 0 0 0 0];


internalField   nonuniform List<scalar> 
18649
(
0.000472522
1.35458e-06
0.00048453
2.7275e-06
8.31811e-07
0.000650652
1.48223e-06
4.44128e-07
0.000433548
0.00365465
1.29071e-06
1.20007e-06
9.28645e-07
1.48811e-06
0.00923884
9.1189e-07
1.23907e-06
1.47945e-06
0.00170986
1.35739e-06
1.19372e-06
0.00949278
0.000156411
2.36967e-06
0.00411949
0.000106673
0.000299555
0.00036956
1.27655e-06
0.0193022
8.89719e-07
8.82952e-07
1.23501e-06
1.69601e-06
1.24498e-06
1.48082e-06
0.0132441
1.36408e-06
1.2894e-06
1.49747e-06
0.00113763
1.57218e-06
6.00892e-06
0.000443184
0.00016036
0.00844474
0.000191685
1.75615e-06
1.53634e-06
2.36025e-06
2.6546e-06
0.000186979
9.74697e-07
0.00114426
5.89149e-07
7.36752e-06
0.0198638
1.54064e-06
4.2204e-07
0.000689737
6.78134e-07
3.58022e-06
1.6055e-06
0.0203608
0.0160951
2.63302e-05
0.000721434
1.60842e-06
0.000163304
0.00949577
0.000301199
1.69856e-06
1.46632e-06
1.58964e-06
8.76554e-07
0.000473831
0.000337818
1.26002e-06
0.00947151
5.36407e-07
8.66388e-07
1.40951e-06
0.00164161
0.00153334
4.94405e-07
6.50471e-06
1.41508e-06
1.38897e-06
5.75951e-07
7.8563e-06
0.00752611
3.82966e-06
2.41049e-06
1.84275e-06
8.33883e-07
9.70344e-07
1.4864e-06
1.59815e-06
2.88475e-05
6.74698e-07
0.00215803
8.44828e-07
9.3452e-07
4.44596e-07
0.00042716
0.000353638
0.00125099
4.89003e-05
6.99292e-06
1.46281e-06
1.24547e-06
1.77224e-06
1.4165e-06
9.82641e-07
8.37679e-07
1.6164e-06
1.60384e-06
1.77495e-06
9.03122e-07
1.40819e-06
6.59212e-07
2.13426e-06
2.71134e-05
9.86244e-07
4.82317e-07
1.59224e-06
0.00680744
1.09916e-06
1.27985e-06
5.00447e-07
1.51386e-06
0.0203648
5.01653e-06
6.20059e-06
1.19813e-06
0.00804772
0.000333901
9.64258e-05
0.000328706
0.000187104
1.74562e-06
9.69049e-07
4.22086e-07
1.1447e-06
0.000268141
6.45186e-07
1.62143e-06
7.03692e-06
0.000340945
1.55109e-06
0.000317594
4.06107e-06
1.01251e-06
1.46619e-06
2.00344e-06
1.70123e-06
1.54965e-06
9.38874e-07
9.22789e-07
0.000372967
0.00158012
0.000411444
1.56189e-06
0.000357025
2.24216e-05
8.98726e-07
2.71153e-06
0.000422014
7.36176e-07
6.63248e-07
1.42077e-06
1.02465e-06
8.92296e-07
9.29699e-07
2.25578e-06
9.49905e-05
0.000235694
1.53829e-06
0.000423748
0.00124719
1.14315e-06
0.000168769
6.08507e-07
9.43242e-07
1.18659e-06
6.0838e-07
5.89037e-07
2.04939e-06
6.60001e-07
4.642e-07
1.56302e-06
0.00044942
3.84493e-06
1.42254e-06
1.45375e-06
8.93911e-07
6.04159e-07
6.03924e-07
1.82443e-05
1.75954e-06
4.66556e-07
8.29865e-07
0.000425447
1.47119e-06
1.13995e-06
1.02882e-06
6.06372e-06
0.000669
1.63634e-06
9.64209e-07
6.62285e-07
1.4296e-06
5.94703e-07
1.5409e-06
0.0404985
1.55768e-06
1.47537e-06
1.56021e-06
9.33317e-07
0.000129502
1.16232e-06
5.19826e-07
0.00806816
1.72475e-06
0.000535528
7.56609e-07
3.17132e-06
1.75903e-05
2.03878e-06
1.15848e-06
4.6303e-07
8.74994e-07
1.75649e-06
1.22626e-06
0.0105541
1.13474e-06
1.54356e-06
1.18096e-06
5.98487e-07
4.18822e-07
1.45531e-06
0.000634671
3.01521e-05
0.00982602
0.000923067
1.11497e-06
1.4207e-06
1.23656e-06
0.0114047
2.07941e-06
1.11844e-06
2.52272e-05
1.11816e-06
8.85709e-07
1.66184e-06
9.0142e-07
9.60977e-07
6.69004e-07
1.30405e-06
6.8793e-07
0.014102
5.56317e-07
5.34646e-07
1.40437e-06
5.85696e-07
3.01709e-06
6.28409e-07
1.55735e-05
8.74902e-07
7.68657e-07
9.0486e-06
0.000266905
1.53832e-06
7.66808e-07
0.0111601
2.15205e-06
1.45408e-06
1.67682e-06
1.43886e-06
3.6746e-06
1.02322e-05
1.57181e-06
0.000666554
1.46432e-06
4.98358e-07
6.19387e-06
1.53557e-06
1.18088e-06
0.000340013
4.67591e-07
1.15906e-06
0.000941622
1.48426e-06
1.13028e-06
0.00613445
0.0117251
0.0199596
0.0112494
1.74356e-06
9.28678e-07
8.3037e-07
0.000398077
1.67892e-06
7.44352e-06
8.55897e-06
4.29082e-07
2.71956e-05
2.68182e-06
1.76009e-06
2.63589e-06
1.16728e-06
4.00215e-06
4.2493e-07
5.85764e-07
1.47108e-06
8.58784e-07
1.56199e-06
0.000252804
0.000347549
5.89547e-07
0.00906994
7.48904e-07
6.61807e-07
1.26588e-06
0.0111782
1.19845e-06
0.00649939
0.000433762
9.31707e-07
1.53063e-06
1.52047e-06
0.000540027
0.0002372
8.06206e-07
2.11046e-05
1.14343e-06
3.1544e-07
2.91874e-07
1.94047e-06
6.37113e-06
1.22011e-06
0.000750326
2.08283e-05
0.000548289
0.00430659
2.92822e-06
2.11911e-06
1.26649e-06
0.0117411
0.00169946
1.54082e-06
2.66367e-06
5.58043e-07
1.09687e-06
1.65266e-06
1.43599e-06
1.19813e-06
0.000859179
8.49957e-07
5.84234e-07
1.39568e-06
0.000730358
2.00399e-05
9.56693e-07
0.000118402
0.000662564
8.30299e-07
5.11157e-07
0.000753739
5.95722e-07
1.94066e-06
0.0147592
5.18601e-07
9.83061e-07
0.0092841
1.50505e-06
2.84874e-06
0.00078194
0.000862098
6.53013e-05
9.56683e-05
5.9378e-07
1.09776e-06
0.000219215
0.00086618
1.43921e-06
1.24229e-06
9.19223e-07
1.51947e-06
1.27772e-06
0.000208607
8.83025e-07
4.55257e-07
1.44896e-06
0.000329446
3.60328e-07
8.42341e-07
4.7367e-07
7.1326e-07
7.59963e-07
8.97181e-06
0.00171018
1.64111e-06
2.57597e-06
1.1391e-05
6.91357e-07
9.25134e-07
6.77096e-06
5.94859e-07
2.09604e-06
1.67074e-06
2.56784e-06
4.08437e-06
1.53657e-06
1.13386e-05
1.66416e-06
0.000508768
1.37943e-06
1.48843e-06
1.58126e-06
1.71598e-06
4.86834e-07
2.425e-06
0.000839875
0.000362732
4.16538e-07
6.15308e-05
6.34524e-05
1.67085e-06
0.0158527
0.00368595
6.43293e-07
1.34536e-06
1.35256e-06
0.0133936
1.31223e-06
1.1048e-06
0.000955753
1.27474e-06
8.27164e-07
6.39522e-07
4.2084e-07
1.47819e-06
1.91833e-06
1.53423e-06
1.11129e-06
1.48245e-06
4.18106e-06
0.000445273
1.08762e-06
1.58381e-06
0.00656368
1.5897e-06
8.08888e-05
1.71709e-06
1.01989e-06
1.21538e-06
7.46326e-07
3.06691e-05
7.47225e-06
8.89544e-07
0.0148867
1.30358e-06
0.000226005
0.00718971
9.48133e-07
4.19766e-07
4.26154e-07
1.09739e-06
1.42727e-06
1.14032e-06
5.36011e-07
1.53504e-06
1.69196e-06
1.98939e-06
2.64904e-06
1.45635e-06
1.10701e-06
1.70699e-06
3.53845e-05
1.77712e-06
0.00931955
1.40115e-06
6.72181e-07
5.54704e-07
0.000394345
1.13527e-06
0.000249167
0.00903593
1.17098e-06
1.1344e-06
0.000883395
4.34581e-07
7.77971e-06
9.21174e-07
5.63628e-05
4.28545e-06
9.40171e-07
5.53017e-07
1.00264e-06
2.02745e-06
1.57064e-06
1.45962e-06
1.18996e-06
0.000127356
1.8283e-05
0.00120827
4.61207e-07
9.16257e-07
0.00141451
8.16683e-07
1.45226e-06
8.49352e-07
5.60367e-06
5.16159e-06
1.42242e-06
0.000399934
1.18721e-06
3.15677e-06
9.11385e-07
9.48232e-07
1.36839e-06
1.54418e-06
0.00827607
9.42005e-07
0.000291227
0.00134198
3.06652e-05
0.000286445
1.38217e-06
7.11952e-07
0.000256853
6.37653e-07
7.09411e-07
6.06706e-06
1.45522e-06
4.20795e-07
1.19837e-06
0.0202978
1.57021e-06
2.889e-06
8.84628e-07
0.0118387
1.14536e-06
2.34707e-06
0.00071312
0.000783694
1.18718e-06
1.56876e-06
1.71618e-06
8.90116e-07
0.000500499
8.6337e-07
2.93883e-06
1.44648e-06
0.00202391
5.13332e-06
0.000436034
1.1535e-06
1.09868e-06
0.00696273
1.87697e-06
6.22016e-06
1.68678e-06
7.52551e-07
9.4993e-07
0.0136731
2.74533e-06
1.55272e-06
2.12037e-06
1.52981e-06
2.38785e-06
4.37317e-07
8.60698e-07
0.00221316
4.4218e-07
0.000408501
1.42567e-06
0.00293143
1.58957e-06
1.00474e-06
1.13197e-06
0.0219167
5.47526e-07
5.65629e-07
1.58481e-06
1.52141e-06
1.05111e-05
0.00861575
1.18073e-06
1.0549e-06
8.09342e-07
0.000209286
6.13693e-07
0.000156609
1.10847e-06
1.58786e-06
1.1043e-05
8.99816e-07
0.000617251
5.51529e-07
0.0166287
7.01461e-07
4.93786e-07
9.08925e-07
1.95871e-06
6.86814e-07
3.34071e-05
1.55131e-06
0.000285538
1.5215e-06
0.00889205
5.65193e-07
1.14508e-06
5.216e-06
1.37649e-06
8.6034e-07
7.61726e-07
3.4018e-06
1.88331e-06
9.50788e-07
4.74355e-06
5.06759e-06
1.1021e-06
1.50027e-06
1.68306e-06
0.000731428
0.0083466
0.00164694
0.0210677
1.55481e-06
0.000684382
0.0116683
1.33562e-06
1.77209e-06
0.00281535
1.40531e-06
0.000230276
1.37058e-06
0.00193988
1.58357e-06
3.25278e-05
0.000317607
1.10706e-06
2.7366e-06
7.93429e-07
1.3811e-06
6.33743e-07
1.42709e-06
0.00147271
5.51433e-07
2.47204e-06
0.00057202
2.09688e-06
1.46626e-06
0.0129572
1.38539e-06
1.11756e-06
0.000432098
1.12491e-06
9.98644e-07
0.000508037
5.36617e-07
1.3928e-06
1.97384e-06
9.23099e-07
8.43077e-07
1.46629e-06
1.63544e-06
7.36267e-07
8.57576e-06
1.67431e-06
1.05793e-06
8.84003e-07
1.36291e-06
0.00119787
1.83615e-06
5.5808e-06
0.00159248
0.000593855
1.3311e-06
6.09795e-05
0.00444294
1.49749e-06
2.71519e-06
8.7877e-07
1.81305e-06
1.462e-06
9.72872e-07
1.14192e-06
8.53336e-07
1.56706e-06
0.00187986
0.0182117
0.00130075
1.52558e-06
6.13627e-07
0.000143675
5.56616e-07
0.000324761
1.35304e-06
0.000308465
1.59547e-06
8.99104e-05
7.59727e-07
0.00181774
8.49933e-07
0.000259793
1.13428e-06
0.000562325
0.00214338
1.53675e-06
0.0303886
7.21802e-07
0.0214229
7.2242e-07
1.70326e-06
0.00223243
6.66408e-07
4.6677e-07
9.57809e-07
5.71197e-07
4.46578e-06
0.000802835
1.24744e-06
1.18992e-06
0.00653003
0.00156196
8.52553e-07
2.80567e-06
6.60503e-07
1.25266e-06
0.000338152
0.000266673
1.77216e-06
2.00918e-06
1.55331e-06
0.000323882
7.82558e-07
8.72946e-07
0.000118493
6.70974e-06
4.94093e-07
1.55818e-06
3.44873e-06
1.56146e-06
8.82155e-07
4.52664e-07
1.89355e-05
1.96903e-06
5.84497e-07
1.25516e-06
0.0147399
1.2726e-06
2.08608e-06
3.22067e-06
1.59326e-06
0.00116497
1.47757e-06
5.94074e-07
4.93247e-07
1.38949e-06
3.27123e-06
1.59398e-06
6.32131e-07
7.04037e-07
2.03177e-06
8.71959e-07
0.00136152
0.00291685
1.33662e-06
1.6712e-06
0.00229751
1.0847e-06
5.54062e-07
5.65554e-07
4.38992e-07
1.7188e-06
8.45739e-07
0.0192744
1.26842e-06
1.33958e-06
5.55522e-07
1.49481e-06
1.60158e-06
6.26355e-07
2.51081e-06
0.0479615
0.00238277
0.0119106
0.0135872
0.00222681
8.69202e-07
1.51447e-06
0.00966455
1.91905e-06
0.00264611
1.45209e-06
3.18933e-06
0.000263233
0.000559577
0.000496974
1.30805e-06
5.8149e-07
6.44647e-07
1.53115e-06
1.04401e-06
0.000696066
2.72874e-06
5.14157e-07
1.54262e-06
1.73992e-06
1.5106e-06
0.0093949
2.80629e-05
0.0182336
1.26429e-06
0.000233489
1.29863e-06
1.6035e-06
1.62034e-06
4.70312e-07
9.38216e-07
0.000592346
1.04096e-06
2.56787e-06
1.48554e-06
1.25619e-06
1.36483e-06
5.54458e-07
0.000151819
0.000154243
1.51757e-06
0.00195177
1.55174e-06
2.75383e-06
2.34322e-06
4.60079e-06
9.59156e-07
1.59451e-06
4.20797e-07
1.74978e-06
1.53306e-06
7.52622e-07
5.47304e-07
5.13339e-07
4.37548e-07
0.00388822
1.43061e-06
1.51002e-06
1.22781e-06
9.32857e-07
1.25321e-06
8.34987e-07
0.00229828
7.2332e-07
5.47255e-07
1.16981e-06
5.6907e-07
8.66605e-07
0.0133516
1.44891e-06
0.000660981
5.93833e-07
1.41706e-06
9.38703e-07
9.12605e-07
8.23883e-07
4.51519e-07
5.65737e-07
2.51612e-06
1.73521e-05
0.000516543
0.00924097
1.74049e-06
1.55142e-06
7.21203e-07
0.0129635
4.44064e-07
0.00162237
2.98032e-06
0.0180895
5.80123e-07
0.0150402
0.00620201
1.50707e-06
1.05095e-06
2.10635e-06
0.00894866
1.70147e-06
1.81102e-06
1.42838e-06
0.000265565
0.0125989
5.14514e-07
0.000268584
1.59822e-06
7.68817e-07
9.40576e-07
9.93327e-07
1.25276e-06
4.4876e-07
0.00217711
0.00225199
5.03079e-07
1.28118e-06
1.17531e-06
1.08902e-06
8.95049e-07
0.014382
0.0114068
3.31323e-06
4.54478e-07
4.58059e-07
4.20323e-07
0.00940889
0.000142606
3.54259e-05
3.07815e-06
5.89641e-07
0.0016843
0.00263578
0.00057773
4.57589e-07
5.42893e-07
6.24028e-06
1.44565e-06
0.0161704
1.03343e-06
7.70174e-07
6.00887e-07
1.91851e-06
1.41776e-06
4.9294e-07
1.29605e-06
4.55732e-07
8.58866e-07
1.75577e-06
0.00214635
0.000568716
2.67181e-06
0.000351309
1.57159e-06
2.60063e-06
1.35268e-06
5.9006e-07
1.00583e-06
0.000545641
0.000223047
0.0173957
0.00369852
1.00284e-06
5.43074e-07
1.41964e-06
1.526e-06
0.00667855
1.89244e-06
5.62014e-07
6.0278e-07
6.23333e-05
1.40601e-06
8.33764e-06
1.24433e-06
0.000820455
0.0190747
5.10439e-06
0.00030325
8.77488e-07
1.57822e-06
5.59864e-07
0.000642166
1.44373e-06
1.38721e-06
0.000413815
5.1076e-05
1.15079e-06
5.55194e-07
1.56798e-06
0.000589616
0.00324707
0.00944852
7.22439e-07
1.3274e-06
0.000117837
9.23876e-07
4.20341e-07
1.60148e-06
0.000840096
4.94243e-07
9.41576e-07
0.000653113
0.0125976
1.0605e-06
7.37378e-06
1.10007e-06
0.000176096
4.32606e-07
4.82851e-06
0.000693234
0.00551107
0.00276603
4.4609e-07
1.45227e-06
0.00925559
1.21743e-06
5.56337e-07
0.0328335
0.0179454
6.34276e-07
7.3261e-07
1.59243e-06
0.000492382
0.00996819
0.0010223
2.63782e-06
1.46258e-06
1.39342e-06
1.57488e-06
0.00176502
2.70674e-06
0.0175428
2.22111e-06
1.04746e-06
0.0128102
0.000802047
0.000136652
9.00098e-06
0.000901492
5.6942e-07
1.29469e-06
0.00913712
3.62038e-06
1.5836e-06
1.56566e-06
1.51139e-06
0.000407455
1.39363e-06
0.000414272
1.30182e-06
3.48241e-05
1.26672e-06
0.000767386
8.69881e-07
0.0118864
1.65942e-06
1.54941e-06
0.00120695
2.20324e-06
5.99608e-07
0.00242781
0.0171989
1.56654e-06
1.23692e-06
0.00236572
8.22068e-07
0.0117162
1.29626e-06
5.81101e-05
1.03878e-06
5.01786e-07
1.14715e-06
0.000758023
6.28229e-07
5.54114e-07
7.42636e-07
0.000821658
0.0022427
1.50033e-06
1.14054e-06
1.42945e-06
1.40207e-05
1.61769e-06
1.59447e-06
0.00632508
0.000228941
0.0310737
1.17808e-06
5.61781e-07
0.0160735
4.58363e-07
0.000289123
0.00218738
1.06363e-06
4.31254e-07
1.52651e-06
0.00130558
0.0197005
0.00269566
4.49662e-07
1.08707e-06
0.00025112
1.91312e-06
1.02572e-05
0.00935722
0.00110566
8.31425e-07
1.54935e-06
0.0314312
1.46587e-06
4.46628e-07
4.57303e-07
1.40857e-06
0.00127456
1.03556e-06
0.000854673
8.08189e-07
0.00829453
4.55776e-05
4.19443e-07
1.60749e-06
8.31007e-06
0.00969016
1.54041e-06
1.38836e-06
1.19198e-06
8.09192e-07
0.0430573
2.23048e-06
0.00871242
3.77221e-05
0.000605233
0.000622094
1.6055e-06
1.53004e-06
8.21459e-07
8.33267e-07
1.37283e-06
9.53478e-07
0.000288264
1.72229e-06
0.000639825
2.14754e-05
7.62341e-07
4.87869e-05
0.000465162
1.84891e-06
1.80824e-06
0.0203711
1.37268e-06
0.000238549
6.86883e-05
1.53542e-06
6.26728e-07
0.000726332
0.000852335
0.000955755
9.76519e-07
1.29965e-06
9.33771e-07
1.36955e-06
1.05291e-06
0.0101577
1.35523e-06
4.77715e-06
0.00311137
1.68368e-06
7.51819e-07
4.57433e-07
0.000857244
4.93279e-07
0.00495365
1.66396e-06
0.00230964
1.26104e-06
1.25571e-06
1.1209e-06
0.000290877
4.24372e-07
0.00225587
1.16496e-06
1.46677e-06
9.01471e-07
1.36775e-06
4.43557e-07
6.54104e-07
8.41239e-07
1.52047e-06
0.000874956
0.0118834
9.29285e-07
0.000552215
4.28235e-07
9.50312e-07
5.49222e-05
1.05453e-06
4.44568e-07
0.000570637
9.35517e-07
2.18558e-06
0.000803414
1.13068e-06
1.2269e-05
0.00230289
1.114e-06
0.00076006
4.70216e-07
3.11983e-06
0.012698
1.43879e-06
4.67943e-07
1.77594e-06
5.87309e-07
5.80751e-07
6.5089e-07
0.000286187
4.9657e-07
3.46149e-06
0.000550874
8.99569e-07
1.94708e-06
0.0195761
1.59054e-06
1.51478e-06
1.40014e-06
1.54091e-06
1.55829e-06
1.09033e-06
1.28012e-06
5.89258e-07
0.000681576
1.06168e-06
1.13786e-06
9.31321e-07
1.20796e-06
1.50509e-06
0.000328677
0.00169499
4.26415e-07
0.00015856
4.94327e-06
0.000101612
0.000188429
0.0430516
9.11489e-07
6.56294e-07
1.5403e-06
1.65926e-06
0.000305377
6.03085e-07
0.000138069
1.05637e-06
1.79115e-06
9.49907e-07
5.73107e-07
0.000373261
1.1665e-06
8.44584e-07
0.0201983
1.74547e-05
1.5259e-06
9.03231e-07
2.3083e-06
0.000296337
1.56291e-06
0.000713884
0.0127493
5.58814e-07
1.10343e-06
9.48173e-07
0.00636385
1.27798e-06
1.48082e-06
2.08164e-06
1.09325e-06
0.000291336
0.000453455
0.00088313
0.00865902
0.0188808
0.000900802
2.63494e-06
3.89346e-06
0.00827938
0.000311261
1.05081e-06
1.0518e-06
8.16456e-07
0.00135115
1.45393e-06
1.51947e-06
0.000465146
0.000254892
1.53886e-06
5.34621e-07
7.45285e-07
0.000230693
1.2201e-06
1.45573e-06
1.49248e-06
0.000345931
1.7335e-06
0.000856446
1.49729e-06
8.10269e-06
2.1368e-06
1.60156e-06
0.000318054
1.34756e-06
1.29033e-06
1.20376e-06
8.73795e-07
7.44687e-07
1.15794e-05
0.0204856
1.06777e-06
4.2558e-07
1.10156e-06
9.23984e-07
0.000448495
1.45448e-06
1.1127e-06
7.90661e-07
1.40558e-06
9.06575e-07
1.04754e-06
1.3391e-06
5.80188e-07
0.00167116
0.000136935
1.22698e-06
1.59775e-06
4.5555e-07
1.51389e-06
3.64455e-06
0.000178987
8.7916e-07
1.67045e-06
7.63577e-07
0.0148786
1.60239e-06
0.000567235
4.43079e-07
0.026164
1.16334e-06
1.36023e-06
0.00224208
7.78479e-07
0.0181853
1.26714e-06
0.014116
1.41386e-06
0.000886155
5.38543e-07
0.013168
0.00919563
7.33118e-07
0.00772784
7.39977e-07
4.41047e-07
0.000788452
7.61869e-07
1.10834e-06
5.47002e-06
1.88536e-06
1.06502e-06
7.38696e-07
4.21657e-07
9.15692e-07
7.19963e-05
1.15432e-06
5.38902e-07
0.0366055
1.56154e-06
0.000145511
7.94145e-07
1.46591e-06
7.62322e-07
1.30926e-06
0.00528587
2.13118e-06
0.000801555
3.82577e-06
2.19926e-06
1.13633e-06
7.46763e-07
8.85806e-07
0.018963
1.14958e-06
1.11996e-06
7.38425e-07
1.48049e-06
1.86971e-05
0.00871187
7.46049e-07
0.00246379
1.02001e-06
1.58084e-06
4.66597e-07
1.4744e-06
1.29964e-06
0.000250679
1.06624e-06
8.05008e-07
0.000676954
1.18397e-06
8.40085e-07
0.000204961
0.014523
4.23301e-07
0.0208908
5.95905e-07
0.00116816
1.60585e-06
0.000368823
0.00300343
1.8921e-06
8.22272e-07
2.616e-06
9.35457e-07
1.33062e-06
1.67164e-06
1.55388e-06
1.46508e-06
0.000567791
0.000108094
1.61343e-06
1.19488e-06
1.14534e-06
8.55243e-07
2.58249e-06
1.21537e-06
1.01431e-06
1.40415e-06
7.55694e-07
1.66355e-06
9.46888e-06
1.41171e-06
1.27035e-06
1.75546e-06
0.0174157
0.0143891
1.60474e-06
0.000242995
0.00196633
2.33148e-06
0.0185103
8.21249e-07
1.57169e-06
1.12493e-06
9.01134e-07
1.25825e-06
0.0146742
1.23677e-06
1.60289e-06
9.42634e-07
1.49184e-06
0.000558414
5.13887e-07
0.00122927
1.62538e-06
0.0116889
1.58041e-06
0.0026516
5.97809e-07
1.97501e-06
1.44415e-06
8.78041e-07
1.43388e-06
1.20271e-06
0.004743
1.52096e-06
1.56891e-06
4.35637e-07
0.000186654
0.00892919
1.13417e-06
7.95535e-07
0.000848455
0.000191654
0.00231522
7.24075e-07
1.06946e-06
0.0208715
1.57437e-06
0.000548058
0.0097403
5.0412e-07
1.46779e-06
0.000691118
1.27619e-06
1.60613e-06
6.90708e-07
0.000173806
1.6787e-06
4.85707e-06
8.50888e-07
0.00799175
0.00551943
0.0212292
0.0405405
1.28287e-06
1.04573e-06
1.00429e-06
1.27543e-06
4.60017e-07
0.02132
8.86056e-07
0.00113892
1.42657e-06
0.000385342
8.9105e-05
8.47139e-07
7.29004e-07
1.50095e-06
0.000400675
7.55561e-07
9.44896e-07
9.43716e-07
6.70921e-06
0.00865908
7.73241e-07
1.3403e-06
1.27182e-06
1.48355e-06
8.10829e-07
7.59915e-07
0.000972223
1.44678e-06
0.00226892
2.15259e-06
8.2459e-07
0.000305705
8.372e-07
0.000315688
7.66742e-07
1.15974e-05
5.847e-07
9.12352e-07
5.55235e-07
1.02984e-06
8.58209e-06
6.48893e-07
1.77894e-06
1.4028e-06
0.00193948
1.51426e-06
1.80367e-06
7.7306e-07
2.16856e-06
0.000564588
4.51438e-05
1.5311e-06
1.09653e-06
1.04454e-06
1.45601e-06
8.77914e-07
0.00140488
1.47109e-06
1.24243e-06
0.0120117
1.42391e-06
1.31493e-06
1.27312e-06
0.00379681
0.0140023
0.000935555
7.53313e-07
8.78859e-07
0.00657944
1.0826e-05
1.45902e-06
1.01375e-06
5.51641e-06
0.000175929
4.9284e-07
0.00230531
3.50516e-06
7.35862e-07
2.3366e-06
5.31658e-07
8.80015e-07
9.1876e-07
1.59882e-06
8.12374e-07
1.83799e-06
1.53628e-06
1.45926e-06
5.60327e-07
4.45364e-07
1.62296e-06
1.51326e-06
1.58141e-06
4.34739e-07
1.18904e-06
1.11574e-06
1.53391e-06
1.50987e-06
1.65783e-06
3.0967e-06
4.42071e-07
0.0303424
1.54392e-06
0.00865337
1.59901e-06
0.00039265
7.52534e-07
1.00884e-06
1.19789e-06
5.93439e-07
3.0111e-06
1.68269e-06
1.98872e-06
5.9156e-07
1.58868e-06
5.26954e-07
1.43203e-06
0.00147048
5.17292e-07
0.000630127
0.0464661
2.25648e-06
9.93767e-07
5.30922e-07
1.62698e-06
1.48292e-06
1.52146e-06
6.16552e-07
5.866e-07
0.00237619
0.000225594
1.51535e-06
1.6063e-06
8.57118e-07
0.000579372
5.52478e-07
1.04846e-06
7.64945e-07
6.21195e-07
4.56854e-07
0.000263912
9.23476e-07
0.000630796
1.34672e-06
1.23959e-06
0.00039136
2.55114e-06
1.48965e-06
0.00143343
0.010443
0.000144205
0.000847231
7.26064e-07
8.03937e-07
6.66591e-07
8.36997e-07
1.47021e-06
2.59979e-06
4.7e-07
0.000143907
4.71357e-07
1.82624e-06
4.21795e-07
1.44336e-06
0.000296143
1.76751e-06
0.0194039
1.50894e-06
4.20549e-07
0.000843867
0.0193177
1.32445e-06
2.47997e-05
4.56026e-07
1.66337e-06
1.46224e-06
1.52181e-06
0.0161795
9.4467e-06
1.81852e-06
1.4664e-06
0.000407209
1.33149e-06
1.40866e-06
1.25967e-06
1.50977e-06
0.000419319
8.84858e-07
1.11793e-06
1.30935e-06
5.78831e-07
0.00530555
0.00802176
1.05825e-06
6.30008e-07
1.50238e-06
4.5604e-07
9.63348e-05
1.0647e-06
0.000369554
1.68516e-06
0.00867537
2.81442e-05
1.39951e-06
0.01378
7.19217e-05
5.27763e-07
8.61945e-07
0.016495
2.10698e-06
9.31045e-05
1.10607e-06
9.00565e-07
1.79093e-06
1.4273e-06
0.000816833
2.96029e-06
5.83048e-07
0.000280536
0.000537937
1.47556e-06
7.08889e-07
0.0146261
1.2064e-06
0.000387167
1.08543e-05
1.86867e-06
0.000244909
1.49853e-06
1.58001e-06
1.26043e-05
3.87656e-06
6.13441e-07
0.00766334
5.73958e-07
7.94057e-06
0.00817916
1.7119e-06
0.000353723
1.52878e-06
1.15521e-06
0.00101398
1.17117e-06
1.67229e-06
1.55215e-06
0.00021581
0.0087207
5.70607e-07
1.54807e-06
1.68797e-06
0.00393534
0.00813054
0.00856469
1.9242e-06
0.00416101
1.4912e-06
8.01952e-07
3.74344e-05
0.0121939
7.3787e-07
0.011952
1.185e-05
0.0171366
1.52861e-06
1.41187e-06
0.000603998
0.000429796
3.48549e-06
1.34458e-06
0.000195324
0.0121537
0.000319165
6.18136e-07
5.60573e-07
1.59165e-06
5.35118e-07
7.2624e-07
9.62647e-07
5.26927e-07
1.29345e-06
4.16469e-05
1.88625e-06
5.63533e-07
1.23398e-06
0.000248254
6.32158e-06
1.16881e-06
0.0202381
1.19037e-06
1.20278e-06
0.00936347
7.5091e-07
1.54996e-06
0.000279678
1.3004e-06
0.000132583
4.59645e-07
3.63012e-05
1.1444e-06
0.0160396
1.16921e-06
1.38862e-06
1.30295e-06
0.000851152
0.00817128
2.39709e-06
6.98866e-07
1.14421e-05
0.0362568
0.00078533
0.00365738
1.4199e-05
2.7805e-06
1.32953e-06
1.61118e-06
1.52217e-06
1.46892e-06
1.58351e-06
6.92203e-07
1.62038e-06
4.2947e-07
1.19196e-06
0.00953359
2.29168e-06
0.0205884
0.0213985
0.00973685
0.00863179
8.61596e-07
0.000228493
8.15927e-07
4.96494e-07
1.39337e-06
7.49077e-07
1.0896e-06
0.021364
9.94173e-07
0.034205
1.50221e-06
4.44391e-05
7.88272e-05
4.92594e-07
0.00438421
1.41511e-06
1.42381e-06
1.01658e-06
5.88984e-07
0.000403993
0.00100455
6.65969e-07
0.00197327
1.28515e-06
5.8212e-07
5.03132e-05
1.1963e-06
4.53943e-07
8.65524e-07
2.57159e-06
1.49446e-06
1.80849e-06
0.00121621
4.56446e-07
0.00064227
1.29926e-06
1.25398e-06
0.0099797
0.000642338
0.0131336
1.4417e-06
4.58152e-07
7.21546e-07
8.5043e-05
2.52224e-06
1.64134e-06
1.50944e-06
7.96346e-07
1.51489e-06
1.1294e-06
1.02672e-06
1.06722e-06
0.0143726
9.12375e-07
8.46161e-07
5.14966e-07
0.000311377
8.41229e-07
4.69126e-05
1.45755e-06
1.67659e-06
3.04585e-06
1.07344e-06
1.23717e-06
0.00222048
0.00898247
1.27675e-06
1.51691e-06
4.65439e-07
1.21948e-06
0.012397
0.0218519
0.0206246
0.000522788
8.51984e-07
5.56849e-07
0.000105162
6.97294e-07
0.0284583
1.70508e-06
7.14939e-07
2.53363e-06
0.00439059
1.24793e-06
5.62178e-07
8.10946e-07
1.37261e-06
1.18579e-06
6.85881e-07
1.18422e-06
8.91519e-07
0.00162486
4.78708e-07
1.02449e-06
0.00234225
0.00508853
7.38275e-07
1.52508e-06
0.0106063
1.79178e-06
0.0116971
0.0146653
1.58167e-06
1.55972e-06
1.18924e-06
0.000110425
0.000350288
1.09823e-06
0.00234668
0.0106492
0.00010481
8.8703e-07
1.0089e-06
5.05559e-07
1.16934e-06
0.0384683
2.79716e-06
4.59637e-06
0.00887738
9.92681e-07
4.28752e-07
0.00461299
1.58545e-06
0.0112453
0.0119269
3.88946e-06
8.71247e-05
0.00102377
1.41564e-06
8.91664e-07
1.16416e-06
0.0254544
0.00189346
0.0165337
4.46199e-07
1.74934e-06
0.0115504
1.40766e-05
9.72576e-07
4.67198e-07
1.42579e-06
1.74057e-06
3.99711e-06
3.04921e-06
1.65945e-06
2.01345e-06
0.0105793
1.43598e-06
2.509e-06
2.51698e-06
3.37833e-06
3.8647e-05
6.31293e-07
0.0081556
1.21267e-06
0.00144191
1.15336e-06
7.81472e-07
0.00935926
1.49185e-06
9.1295e-07
1.2898e-06
2.97077e-05
0.00980037
7.24906e-07
1.42428e-06
0.000503466
1.13936e-06
1.66441e-06
0.000292617
1.23511e-06
0.000782405
0.00141179
0.0157621
1.1859e-06
0.0279764
1.52024e-06
1.01605e-06
7.31278e-07
5.76523e-07
9.13082e-07
0.0163384
1.29967e-06
0.000360444
1.56259e-06
2.24716e-06
1.10626e-06
1.98597e-06
1.59093e-06
1.51797e-06
0.000358759
1.50529e-06
0.000660637
1.23403e-06
6.23454e-05
1.98199e-06
0.000186393
1.53708e-06
8.1343e-07
7.99569e-07
1.63612e-06
8.70089e-06
0.000618995
4.60659e-06
9.57429e-06
0.000347701
1.40165e-06
1.45021e-06
7.49849e-07
0.00768077
0.0423812
0.000514047
2.19633e-06
5.00682e-06
7.46004e-07
0.0155411
3.38432e-05
0.0084425
1.62618e-06
7.28969e-07
2.22965e-06
0.0095666
7.94273e-07
8.06044e-06
0.000821093
1.30404e-06
1.4367e-05
1.41366e-06
0.0109651
0.00226852
0.0125297
1.80992e-06
7.78967e-07
7.22743e-07
0.021105
4.21521e-07
1.58323e-06
0.00198078
1.84122e-06
7.34677e-07
4.17564e-06
0.000347139
1.76175e-06
8.07781e-07
9.3066e-06
5.49018e-06
1.29976e-06
1.62901e-06
0.000752315
1.1334e-05
3.22996e-06
0.000281227
2.70168e-06
1.50138e-06
1.57031e-06
0.000300895
1.01068e-06
7.45085e-07
0.000343235
5.36106e-06
1.4417e-06
1.11628e-06
1.15757e-06
7.61952e-06
0.0274831
7.25465e-07
0.00845723
1.59535e-06
0.000309912
9.89652e-07
0.000497355
0.00971074
8.58023e-07
0.0150217
0.000826217
1.39398e-06
1.05669e-06
0.00230226
1.63004e-06
0.000465298
4.73939e-07
1.43782e-06
1.65188e-06
1.58983e-06
1.46808e-06
0.00172833
8.91949e-07
2.16831e-06
0.020916
4.22344e-07
0.00729109
1.74249e-06
4.01647e-06
0.00220109
1.16827e-06
0.000745722
1.08393e-06
3.22132e-05
1.49172e-06
8.67097e-07
2.15367e-06
1.14547e-06
1.49493e-06
2.39566e-06
1.22912e-06
1.5836e-06
1.16301e-06
0.000529792
0.000376001
1.86211e-05
8.07059e-06
9.99753e-07
5.87304e-06
1.20103e-06
1.71573e-06
7.12085e-05
1.07069e-06
1.2172e-06
0.000589567
1.30258e-06
7.91635e-07
0.00134981
1.97207e-06
0.00212302
0.00458996
7.59879e-07
1.33114e-06
1.77617e-06
1.5526e-06
2.06909e-06
0.0203892
4.54931e-07
1.15418e-06
0.0125042
1.01556e-05
0.000372321
0.0127229
0.00439744
6.27183e-07
0.000371232
0.00178276
9.3918e-07
5.07581e-07
1.5523e-06
0.000823999
0.00126365
1.62593e-06
1.47155e-06
0.000356515
1.7873e-06
8.16697e-07
1.58902e-06
8.84138e-07
4.57327e-07
0.00172092
1.35873e-06
0.000587438
2.376e-05
4.63955e-07
0.00957331
1.01568e-06
1.62784e-06
0.000143319
0.0115319
0.000654449
7.52132e-07
1.50862e-06
0.000784927
1.61515e-06
1.62465e-06
0.00414433
0.000293259
0.0170316
0.000478563
1.60833e-06
1.36244e-06
7.08496e-07
8.0565e-07
0.0182017
0.0131364
2.04043e-06
1.58604e-06
7.21707e-07
0.000374937
0.00751776
1.31758e-06
0.000135151
2.46424e-06
0.00995214
1.85094e-06
7.08639e-07
0.000509362
4.19605e-07
1.75834e-06
0.00296762
1.54491e-06
1.43887e-06
0.000290614
1.65844e-06
1.29538e-06
1.65444e-06
0.00040771
1.6141e-06
3.43688e-06
8.20342e-07
0.000792787
0.000766584
0.000514786
1.19131e-06
6.31618e-07
2.04232e-06
1.64379e-05
9.14847e-05
1.58157e-06
1.16643e-06
1.86744e-06
5.06789e-07
3.22084e-05
4.50022e-06
1.43581e-06
1.44708e-06
1.16822e-06
9.17497e-07
7.37179e-07
1.15456e-06
1.61056e-06
1.6585e-06
6.95558e-05
0.00228455
0.00199679
1.73818e-06
3.30003e-06
7.7341e-06
1.30029e-06
1.67486e-06
5.4882e-05
1.06634e-06
1.19956e-06
1.06819e-06
1.70582e-06
1.0461e-06
3.80881e-06
1.89661e-06
0.000287
1.55412e-06
0.0303846
0.00875371
0.0177441
8.14423e-07
0.000841749
1.61825e-06
1.51677e-06
0.0155804
9.96019e-07
1.51517e-06
4.56887e-07
4.73889e-07
1.26742e-06
1.38075e-06
1.93401e-06
5.57348e-07
2.41783e-06
0.00935385
1.45041e-06
0.000180089
9.90507e-07
2.36199e-06
2.00868e-06
7.17734e-07
1.45876e-06
0.000171953
3.72522e-06
1.33878e-06
1.12405e-06
0.000131148
8.20886e-07
0.000391373
0.0154162
0.000192756
5.60484e-05
1.63956e-06
6.56366e-06
0.051775
0.000108877
1.50891e-06
3.8873e-06
0.0141798
1.30389e-05
1.47421e-06
0.0101852
1.50612e-06
1.51736e-06
0.0195533
8.41279e-05
1.53751e-06
7.59062e-07
3.111e-06
8.8221e-07
0.000391538
7.66489e-07
0.0018211
7.59364e-07
1.50076e-06
1.58995e-06
1.03958e-06
1.56086e-06
1.1405e-06
8.25797e-07
0.0192501
1.44157e-06
0.000617793
0.000322064
0.00184563
1.56019e-06
0.0144296
9.67309e-07
1.58182e-06
0.00109599
0.0177665
8.27587e-07
2.26996e-06
4.54706e-07
1.51037e-06
1.85688e-06
0.000594877
0.000499232
1.28788e-06
0.000370543
0.00974306
2.20623e-06
1.58755e-06
5.38182e-07
1.47121e-06
1.6114e-06
6.90988e-07
0.0474946
1.52794e-06
0.0162961
4.74309e-07
0.000495353
0.000143073
0.0137124
0.0100729
1.55605e-06
1.22438e-06
1.43348e-06
9.68528e-07
1.15157e-06
1.7343e-06
1.19147e-06
1.01946e-06
1.24636e-06
0.0103944
0.0146932
0.0001836
0.0410277
7.39521e-07
5.91622e-07
1.26171e-06
1.07728e-06
0.000114009
0.001745
1.84409e-06
1.88662e-06
1.3091e-06
0.00602117
7.08186e-07
5.53554e-07
0.000175033
0.0200745
0.0102252
9.0174e-07
1.51057e-06
1.5503e-06
0.00857316
0.0127682
9.11302e-07
0.0184686
7.85906e-07
1.4972e-06
8.01715e-07
4.59127e-07
0.000550459
0.000143326
1.58255e-06
8.71005e-07
0.00960032
1.47621e-06
0.00738134
1.53682e-06
2.20814e-06
1.59764e-06
1.51767e-06
1.32129e-06
8.21733e-07
0.00519352
7.67999e-07
0.000122939
1.4453e-06
4.55963e-07
0.011443
2.42324e-06
0.00954182
1.47704e-06
1.07188e-06
1.70932e-06
0.0439433
8.61974e-07
1.5701e-06
1.51547e-06
0.0191219
1.41409e-06
0.000456765
0.00951363
1.8511e-06
6.55592e-07
1.81213e-06
1.4673e-06
5.25912e-05
1.65132e-06
7.43614e-07
1.08643e-06
0.0193016
0.00958561
0.0218524
0.000354235
8.70261e-07
0.017719
9.62634e-07
0.0158236
1.79134e-06
1.2898e-06
1.19252e-06
6.49502e-06
0.000295092
0.000597698
1.49194e-06
0.0016805
1.3836e-06
1.18817e-06
6.27579e-07
8.96485e-06
7.82466e-07
0.00339842
7.33227e-07
1.29265e-06
0.01316
1.11427e-06
0.0207564
0.0142143
1.15909e-06
6.72281e-07
0.0119824
0.0150089
1.37367e-06
3.99202e-06
1.74101e-06
1.38692e-06
1.47883e-06
0.0347465
4.45309e-07
1.47097e-06
0.00236429
1.44195e-06
4.38901e-06
0.0229072
1.94962e-06
0.00183176
0.0104428
8.07798e-07
1.52763e-06
1.26451e-06
1.54644e-06
6.90725e-07
1.45861e-06
0.0013774
7.55161e-07
1.43379e-06
1.55815e-06
1.60117e-06
0.0109715
1.36859e-06
6.6817e-07