/*--------------------------------*- C++ -*----------------------------------*\
| =========                 |                                                 |
| \\      /  F ield         | OpenFOAM: The Open Source CFD Toolbox           |
|  \\    /   O peration     | Version:  v2012                                 |
|   \\  /    A nd           | Website:  www.openfoam.com                      |
|    \\/     M anipulation  |                                                 |
\*---------------------------------------------------------------------------*/
FoamFile
{
    version     2.0;
    format      ascii;
    class       surfaceScalarField;
    location    "100";
    object      phi;
}
// * * * * * * * * * * * * * * * * * * * * * * * * * * * * * * * * * * * * * //

dimensions      [0 3 -1 0 0 0 0];
oriented        oriented;


internalField   nonuniform List<scalar> 
27704
(
0.464946
-0.337523
-0.127423
0.108198
-0.394984
0.286786
0.152161
0.312785
-0.0591283
-0.0817174
0.140846
0.403758
-0.492786
0.0890277
-0.300798
0.103823
0.196975
0.154896
-0.403253
0.248358
0.08843
-0.459544
0.371114
0.185075
-0.417299
0.232224
0.062433
-0.109444
0.163573
-0.42839
0.264817
0.52938
-0.134641
-0.39474
-0.0952115
0.49897
-0.143749
0.270446
-0.126697
-0.0575528
0.0677512
-0.0101984
-0.522515
0.557954
-0.0354395
0.461729
-0.244745
-0.216985
0.400061
-0.245165
0.212098
-0.298552
0.0864542
0.442402
-0.334204
0.353533
0.175847
-0.0173156
0.0127074
0.00460827
0.186211
-0.451416
0.265205
0.151543
-0.154701
0.00315823
-0.0868929
0.149326
0.45234
-0.266129
-0.331208
0.461211
-0.130004
-0.471239
0.198328
0.272911
-0.13101
-0.201965
0.332975
-0.0173415
0.000867145
0.0164744
0.442416
-0.417017
-0.0253989
0.348794
0.0936221
0.207511
0.254219
-0.250113
0.0641801
0.185933
-0.516458
0.473831
0.042627
-0.305756
0.201891
0.103865
0.0238
-0.0774735
0.0536735
0.253293
-0.357284
0.103991
0.415352
-0.251779
0.152116
-0.295865
0.161408
-0.233883
0.0724757
-0.286175
0.191945
0.0942301
0.12418
0.00163183
-0.125812
0.411381
-0.175027
-0.236354
-0.0264606
-0.327744
0.354204
-0.00440239
-0.00775414
0.0121565
0.11293
-0.464429
0.351499
-0.17776
0.144933
0.0328272
-0.467185
0.325496
0.141689
0.00599416
-0.169354
0.16336
0.0829948
-0.142123
0.19761
-0.473555
0.275945
0.521272
-0.255879
-0.265393
0.271238
-0.10983
0.167074
-0.47503
0.307956
-0.141508
0.135239
0.0062693
-0.121056
0.0858147
0.0352415
-0.318243
-0.148941
-0.330757
-0.163897
0.494654
0.238808
-0.500619
0.261811
0.570862
-0.195412
-0.375451
0.127564
0.126802
0.188807
-0.0697929
0.106497
-0.0367045
-0.00653953
-0.010802
0.172227
-0.434008
0.261781
0.555781
-0.316973
0.245489
-0.198153
-0.0473362
-0.418724
0.392263
0.000335092
-0.0176507
0.031219
-0.362427
-0.102642
-0.147471
0.158878
0.241183
0.300307
-0.173505
0.190791
-0.491736
0.300945
0.180294
0.231087
-0.410902
0.147476
0.263426
-0.512064
-0.00439408
0.00146058
0.00470751
-0.00616809
-0.460338
0.496293
-0.0359555
0.468406
-0.277615
0.365681
-0.112388
0.268248
-0.190427
-0.0778211
0.274219
-0.556373
0.264453
0.291921
-0.0874822
-0.0540261
0.311409
-0.12734
-0.184069
-0.128041
0.323973
-0.195932
0.0438355
-0.504173
-0.0422631
0.240122
-0.197859
0.0201915
-0.0777443
0.140109
-0.0356275
-0.104481
0.151988
-0.000444726
0.233945
-0.00132237
-0.232623
0.0900976
-0.353789
0.263692
0.26393
0.257341
-0.137527
-0.168228
-0.395773
0.166028
0.229746
0.422375
-0.250148
0.283029
0.287833
0.284283
-0.157837
-0.126446
-0.0870222
-0.435493
0.450973
-0.339715
-0.111257
0.388232
-0.299802
0.421092
-0.236017
0.233808
0.187284
0.194781
0.0734675
0.126049
0.011336
-0.137385
-0.0108031
0.146042
-0.245553
0.404431
0.246266
-0.552225
0.305959
0.128944
0.0489199
-0.177863
-0.344982
0.143399
0.201583
-0.241346
-0.184426
0.425772
0.40364
-0.313543
-0.169607
-0.226166
0.0790665
0.166423
0.175223
-0.0462794
0.160491
0.286304
-0.446795
0.127197
0.184212
-0.365148
0.538247
-0.173099
-0.0313206
-0.0949281
0.126249
-0.319404
-0.00496908
0.324373
0.200758
-0.442104
-0.00686676
-0.370134
0.377
0.303918
-0.223359
-0.0805594
-0.0183232
0.0600042
-0.041681
0.169182
-0.421044
0.251862
0.200269
-0.331279
0.632236
-0.325115
-0.307122
-0.386685
0.260512
0.126173
0.01738
-0.0871729
0.133791
-0.125678
-0.00811309
0.134381
-0.0997092
-0.0346714
0.46327
-0.0410447
-0.422226
-0.0122747
-0.504349
0.330401
0.173949
-0.0186957
0.144744
-0.341953
-0.162396
0.350255
0.0713369
-0.421592
-0.194685
0.0171363
0.177549
-0.485494
0.0916458
0.393848
0.383533
0.0908617
-0.474395
0.197105
0.17555
-0.372655
-0.465685
0.304092
0.161594
0.311436
-0.496723
0.185287
0.207374
0.156415
0.1423
-0.0666646
-0.0756352
-0.212838
0.446646
0.263161
-0.143893
-0.119268
0.397894
-0.161337
-0.236557
0.180142
-0.188871
0.00872813
-0.47757
-0.00792397
-0.137845
-0.255598
0.393443
-0.0195855
-0.128511
0.148096
0.361603
-0.172197
-0.189406
0.316286
-0.0531256
-0.347595
0.468272
-0.120677
0.226109
-0.519042
0.292933
0.326213
-0.521098
0.194885
0.308344
-0.190118
-0.118226
-0.469222
0.318771
0.150451
0.161441
-0.305334
-0.362198
0.40908
-0.0468826
-0.00226036
0.0990031
-0.0967428
-0.457912
0.460442
-0.00253006
-0.413572
0.476352
-0.0627802
-0.189874
0.419654
-0.22978
0.558947
-0.40817
-0.150778
-0.554968
0.359965
0.195003
-0.282462
0.155122
-0.459173
-0.00147418
0.460647
0.116007
0.266744
-0.382752
-0.272894
0.421794
-0.1489
0.157745
-0.151751
0.461311
0.0304711
-0.491782
-0.307529
0.492257
-0.184728
0.248061
0.0682248
-0.402712
0.210279
0.0980652
0.4381
-0.162743
-0.275357
0.402446
-0.0521908
-0.268587
0.417601
-0.149014
0.0678381
-0.415433
0.372554
-0.166045
-0.206509
-0.435024
0.166437
0.447721
-0.280647
0.135282
-0.154867
-0.392496
-0.108651
0.501148
-0.535442
0.197788
0.337654
0.148516
0.0634837
-0.212
0.144212
0.253682
0.158708
0.0214342
0.275806
-0.136654
-0.139152
-0.324607
0.112028
0.212579
-0.32791
0.443917
-0.244452
-0.186809
0.431261
0.173149
-0.119585
0.117324
-0.171751
-0.00600865
-0.314923
-0.220519
0.24718
-0.532687
0.285507
0.59633
-0.270118
-0.383398
-0.160223
0.357327
-0.427211
-0.0319616
0.0244431
0.109938
-0.241104
-0.23279
0.473893
-0.2266
0.236653
-0.0100532
0.476338
-0.212407
0.0967216
-0.489218
0.121221
0.188718
-0.309939
-0.191261
0.483914
-0.292654
-0.113225
0.225049
-0.111823
0.0482091
0.0182964
-0.0665054
0.239321
-0.139182
-0.100139
0.557498
-0.197027
-0.360471
0.273512
-0.124995
0.28957
0.178703
0.36186
-0.24893
0.209585
-0.334348
0.124763
-0.394258
0.461328
-0.0670694
0.00520968
-0.00584351
-0.0292472
-0.201612
0.230859
-0.309434
-0.159788
0.0547082
-0.46828
0.111727
0.0608135
-0.172541
-0.310138
0.266104
0.0440346
0.473857
-0.473857
0.36978
-0.160196
0.575323
-0.377535
0.340341
-0.516057
0.175716
0.173673
-0.0287398
0.273735
0.135116
-0.408851
0.119568
0.0484177
-0.167985
0.18689
0.25121
0.0944098
0.138262
-0.232672
0.184749
0.187805
0.116056
-0.475067
0.359011
0.329091
-0.558361
0.229269
0.326968
-0.0242813
-0.302687
-0.262273
0.476928
-0.214655
0.127426
-0.406168
0.278742
0.00747703
-0.00601645
0.402019
-0.10477
-0.297249
-0.0481112
-0.260383
0.308495
0.246761
0.0290455
-0.0516595
0.51493
-0.0152118
-0.00489654
0.0201083
0.103961
-0.290045
0.241934
-0.301724
-0.00841375
0.478467
-0.337448
-0.141019
-0.151395
0.0316895
0.151844
-0.183534
-0.408157
-0.0497547
0.205986
0.270352
-0.58621
0.293538
0.292672
0.136823
0.232958
0.26132
0.297627
-0.039518
0.063318
-0.321573
-0.141464
0.463037
-0.327229
-0.138682
0.465911
0.108956
0.232782
-0.341738
0.188069
-0.484204
0.296135
-0.0759116
0.187639
-0.563077
0.320278
0.2428
-0.0720831
-0.318886
0.390969
-0.463695
-0.0198569
0.483552
0.34825
0.0473786
-0.395628
0.248365
-0.0408883
-0.207477
0.165372
-0.0855978
-0.0797742
-0.211019
0.0977939
0.412786
-0.0645359
-0.0427498
0.0629413
-0.13939
0.0444616
-0.109348
-0.185677
0.295024
0.0540909
-0.198241
0.14415
0.24067
0.0862982
0.0295484
0.0980159
-0.0491462
-0.092923
0.142069
-0.190291
0.271313
-0.0810228
-0.453257
0.212153
0.282478
0.275021
0.26773
0.364506
0.0402275
-0.12771
0.190569
-0.294739
0.10417
0.367935
-0.40898
-0.140838
-0.365946
0.35908
-0.521747
0.355125
0.166622
-0.0905187
0.245058
-0.362111
0.117053
0.463694
-0.216555
-0.247139
-0.0480669
-0.0350912
0.0831581
0.00975471
-0.0249665
-0.0281934
-0.0928628
0.0187162
-0.00313969
-0.0155765
-0.0717989
-0.122886
-0.13474
0.424309
0.125506
0.278134
-0.233998
-0.1282
0.163964
-0.193211
0.0179099
0.230455
0.17608
-0.0948355
-0.0812441
-0.450646
0.505354
-0.353858
0.281775
0.124114
-0.130086
0.00597121
-0.154615
-0.00499135
-0.153864
0.158856
-0.245618
-0.276129
0.436474
-0.294365
-0.142109
0.231214
-0.561971
-0.197304
-0.226512
0.423815
-0.325129
0.231683
0.0934463
0.289114
0.179292
0.238724
-0.227144
-0.0115804
-0.222044
0.170099
-0.0921315
-0.438709
0.241406
-0.00788175
0.00143123
0.00645052
-0.543456
0.234475
0.308982
-0.4738
-0.500505
0.419551
0.0809541
0.0114249
0.00729126
-0.0318865
-0.225789
0.257676
0.310551
0.285779
-0.412402
0.139508
0.359544
-0.490462
0.130917
0.00717801
-0.211975
0.204797
-0.178681
0.405857
-0.227176
-0.0608718
0.130434
-0.0695621
-0.390644
-0.073051
-0.0126389
-0.306765
-0.437095
0.168667
0.268428
0.28926
0.147214
0.00631283
-0.456959
0.184516
-0.173844
-0.010672
0.0425906
0.215451
-0.355125
0.139674
0.357567
0.198214
-0.047546
-0.174498
-0.390493
0.186379
0.204114
0.162122
-0.0214744
-0.140648
0.0846601
-0.166377
-0.137386
0.120137
0.0172488
-0.407949
0.135898
0.272051
-0.0169376
0.0137979
-0.172805
-0.125747
0.200635
-0.106225
-0.298135
0.242045
0.0560908
0.141776
-0.463349
0.0580564
-0.284688
0.226632
0.171441
-0.139752
0.349145
-0.15453
-0.194615
0.253312
-0.285198
0.454042
-0.153671
-0.30037
-0.174322
0.486437
-0.312116
0.477828
-0.146396
-0.331433
0.169043
-0.297085
0.224373
-0.242739
0.0183661
0.300367
-0.526687
0.22632
-0.143476
0.409511
-0.266035
-0.444982
0.217306
0.227675
-0.214855
-0.285764
-0.270025
0.395531
-0.382495
-0.173878
0.533168
-0.175601
-0.465495
0.274234
-0.00741674
0.144727
-0.13731
-0.276987
0.151761
0.125226
0.0438718
-0.43813
-0.526052
0.236074
0.289978
-0.0822678
-0.26115
0.3701
-0.10895
-0.297836
-0.000299823
0.3268
0.206368
0.138986
0.315056
-0.134209
0.0733372
-0.264863
-0.173847
0.336682
-0.278626
0.0665942
0.0987778
0.481422
-0.342436
-0.30643
0.21867
0.08776
-0.136723
0.352174
-0.134388
0.370665
-0.236277
0.209439
-0.202261
-0.389308
-0.111197
0.0423784
0.0880555
-0.32809
-0.187968
-0.459956
0.466269
-0.27751
-0.0289202
0.0671268
0.156608
-0.478167
0.201696
0.276471
0.529545
-0.408868
-0.120677
-0.576698
0.234515
0.342183
-0.290646
-0.217061
0.507707
0.0866055
0.0894741
-0.186689
0.29352
-0.106831
0.0622255
-0.231585
0.155673
0.113591
0.378289
-0.491879
-0.405558
-0.157519
-0.382958
0.24857
-0.19297
0.438823
-0.245853
0.169384
-0.434247
-0.114909
-0.0224764
-0.0154679
0.38393
-0.368463
-0.0913383
-0.140246
0.118257
0.0218518
-0.303995
-0.0431475
0.347142
-0.116776
0.0676301
0.216809
-0.0972071
-0.119602
-0.202954
0.383248
-0.317299
0.115473
0.201827
0.319225
-0.0896546
-0.22957
-0.116205
-0.16997
-0.233937
0.0582466
0.175691
0.0135912
-0.473547
-0.174345
-0.448562
0.133205
0.315357
-0.212567
-0.308532
-0.164891
0.491764
-0.191397
0.531053
-0.266069
-0.264984
0.218275
-0.164184
0.0112727
-0.0160577
0.00478494
0.178864
-0.016742
0.501389
-0.189954
-0.118872
-0.198489
0.317361
-0.307302
0.18843
-0.0196356
-0.00502678
0.0246623
0.450452
-0.110029
-0.340423
-0.142633
0.419121
-0.276488
-0.0355916
0.281893
-0.246302
-0.260578
-0.147371
-0.202147
0.474414
-0.272267
0.312887
0.188502
0.45522
-0.0522538
-0.402966
0.378897
-0.133838
0.167875
-0.0165114
-0.151363
-0.278632
0.384765
-0.106134
0.316601
0.161866
0.235729
0.0834962
0.0144278
-0.139995
0.125567
-0.168356
0.272179
-0.120033
0.35095
-0.230917
-0.187695
-0.101037
0.288732
-0.0534144
-0.292777
0.105082
-0.0434721
0.504783
-0.169757
0.302881
-0.318349
-0.153044
0.426779
0.491593
-0.228989
-0.262605
-0.0213029
0.120306
-0.146949
0.213123
0.203207
-0.41633
-0.079081
-0.0424569
0.121538
0.328026
0.122426
-0.434492
0.126963
0.0664593
-0.144573
0.078114
-0.27074
0.399965
-0.129225
-0.0799308
0.535151
0.248116
-0.498607
0.250491
-0.224789
0.39397
0.126453
0.174244
-0.300696
-0.155009
-0.18696
0.341969
0.151984
-0.479213
0.113788
0.11126
0.191996
0.244008
-0.0831739
-0.160834
0.150805
-0.154151
0.00334622
-0.0723529
-0.308812
0.381165
-0.104443
0.0471688
0.136728
-0.183897
0.0850859
-0.106389
-0.204824
0.0285955
0.176228
-0.00339593
0.00810345
-0.176448
0.303645
-0.303181
-0.376539
0.457982
-0.0814431
0.324029
-0.102393
-0.221636
-0.440594
0.158249
0.282345
-0.391297
-0.119336
0.510633
0.0105477
0.00119418
-0.0117419
0.446158
-0.0343571
-0.411801
-0.331727
0.176718
-0.298635
0.263044
-0.488175
0.23467
0.253505
0.0982808
-0.330011
0.23173
-0.25166
0.477768
0.332265
-0.233984
0.10287
-0.373161
0.27029
0.47641
-0.478646
0.00223589
-0.347909
-0.137386
0.485295
-0.305195
-0.0546171
0.359812
0.0255186
0.21849
-0.0789881
0.270933
-0.32278
0.129135
0.193646
0.429822
-0.17651
-0.253806
0.273711
0.148663
0.225724
-0.00135051
0.247509
0.327813
0.467977
-0.0973119
0.0538722
0.220346
-0.485496
0.325083
0.160413
0.400461
-0.126458
-0.274003
0.0285592
0.407746
-0.436305
-0.0061195
0.1303
0.0991197
-0.0775392
-0.267442
0.242481
-0.417508
0.468841
-0.115308
0.0174289
0.122226
-0.139655
0.0977369
0.37024
0.54579
-0.366066
-0.179725
0.184732
0.118601
-0.303333
-0.338175
0.490601
-0.152426
0.00120432
-0.0104437
0.0092394
0.375414
0.170376
-0.215221
-0.254626
0.469846
0.103362
-0.129449
0.0260862
0.132928
-0.121592
0.267762
-0.456974
0.189212
-0.327715
0.214037
0.113678
-0.40876
-0.00967101
0.418431
0.10466
-0.104163
-0.000496909
0.486335
-0.173448
-0.369001
-0.0397598
0.133273
-0.144076
0.177764
-0.287112
-0.177561
0.561094
0.347806
0.0483459
-0.396152
-0.0483693
0.0117035
-0.365434
0.127828
0.237606
-0.3065
0.0625049
0.243995
0.488133
-0.139339
-0.00234588
-0.0145918
-0.423796
0.31165
0.112146
0.157612
-0.0240348
-0.133577
-0.224722
0.240998
-0.0162761
0.458968
-0.315746
-0.143222
0.16821
0.261612
0.0441748
0.19681
-0.240985
0.422198
-0.300558
-0.116459
-0.301129
-0.0363944
-0.468134
0.293812
0.153362
-0.135934
0.186594
0.213867
0.0993379
-0.344301
0.244963
0.465105
-0.351514
-0.310989
0.502946
-0.191958
-0.0828503
-0.340946
-0.176084
-0.225256
0.40134
-0.0933579
0.159817
0.3438
-0.206977
-0.0163002
-0.14496
0.161261
-0.154779
0.201948
-0.290633
-0.252823
0.135986
-0.406726
0.00853691
-0.0281725
-0.174628
0.0207643
0.108657
0.130664
0.126787
0.00464667
-0.228873
0.22912
-0.000246672
0.00291061
-0.263029
-0.225146
0.137152
0.279524
-0.416676
-0.158826
-0.0332975
0.192123
-0.327427
-0.159885
0.487313
0.440809
-0.173692
0.300144
0.0200384
0.109881
-0.380958
0.271077
-0.383709
0.0785137
-0.247806
0.434696
0.0349069
-0.113988
-0.46244
0.476032
-0.223516
0.541163
-0.317647
0.187713
-0.0453978
0.404942
-0.0522223
0.138828
-0.0131785
0.00762792
0.00555056
0.11122
0.357621
0.265024
0.16459
-0.429614
0.176942
0.263161
-0.440103
0.117072
-0.0124114
0.314412
0.151033
-0.465445
0.0105451
-0.401842
-0.00543695
0.413051
-0.407614
-0.395032
0.0295972
0.0816069
-0.133829
0.336416
0.221538
-0.39181
0.0402295
0.35158
0.157561
0.310963
-0.468524
0.0158739
-0.00460114
-0.354962
0.450972
-0.0960103
0.283813
0.217418
-0.501231
0.489193
-0.321812
-0.167381
0.259596
-0.0256503
-0.530327
0.239339
0.290988
-0.144748
0.361066
-0.233238
-0.211774
-0.253912
-0.135815
-0.25087
0.00128141
0.00926631
-0.483394
0.0209539
0.277335
-0.440078
-0.140982
0.124682
0.203366
0.113858
-0.317224
0.410641
-0.273489
-0.308602
0.515242
-0.20664
0.295135
-0.24667
-0.0484647
0.0934742
-0.176648
-0.470759
0.104694
0.158741
-0.477626
0.0481507
0.0763476
-0.124498
-0.400873
0.234253
-0.285144
0.050891
0.0744145
-0.177056
0.118114
-0.286471
-0.00753947
0.00874379
0.220126
0.00559812
-0.0470845
-0.00128483
0.0437119
-0.35459
0.310878
0.092585
0.0448068
-0.0758301
0.0310233
-0.449648
0.090624
0.359024
-0.202934
0.0652264
0.312442
-0.206812
0.00438557
-0.454034
-0.161002
0.371415
-0.210413
0.355579
-0.245698
-0.0294968
0.162425
-0.237251
-0.25019
0.487441
-0.39346
0.250827
-0.23052
-0.0465153
0.277036
0.153172
-0.461774
0.204618
0.119356
0.294813
0.191522
0.295464
0.382352
-0.170141
-0.21221
0.440933
-0.283372
-0.269171
0.0386505
-0.191951
0.367142
0.0598078
0.153828
-0.213636
0.30827
0.018708
-0.326978
-0.00968953
0.0141248
-0.00443526
-0.132772
-0.224512
-0.347553
0.100697
0.246856
-0.160921
0.279035
0.126246
0.523889
-0.337272
-0.186617
-0.381635
-0.535914
0.165781
-0.112554
-0.215161
0.23059
-0.170782
-0.195931
0.474639
-0.278708
0.290011
0.196426
-0.083937
0.225885
0.314877
-0.500333
0.185456
0.374187
-0.246761
-0.123681
0.198096
0.283929
0.157074
-0.441004
0.456356
-0.254655
-0.201701
0.0861552
-0.349167
0.263012
0.244348
-0.280924
0.0365761
0.225931
-0.132456
-0.0103409
0.143614
0.185891
0.196461
-0.0473148
-0.344495
-0.282039
0.398352
-0.116313
0.330408
-0.103653
-0.226755
0.0961709
-0.0392242
-0.0569467
0.155521
0.233978
-0.389499
0.136382
-0.0122676
0.280914
0.175442
-0.172559
0.0129244
0.159634
-0.0496076
0.357877
0.463372
-0.128943
0.140118
0.270523
0.143835
0.254365
-0.3982
0.0941647
-0.0321794
0.0424044
-0.010225
0.29451
-0.0501621
0.256394
-0.142605
-0.120611
-0.136616
0.0353778
0.101238
0.365548
-0.522183
0.156634
0.0182421
-0.367665
0.349423
0.342384
-0.129873
-0.212512
0.203884
0.246869
-0.450753
0.158802
-0.274689
0.115887
-0.057817
-0.0787986
-0.224598
0.495897
-0.2713
0.226018
-0.38702
-0.188156
0.393264
-0.375022
-0.390915
0.17436
-0.151227
0.108009
0.0432178
0.117729
0.253686
0.219917
-0.0908174
0.0228075
0.0680099
-0.368058
-0.20864
-0.0249259
0.0260392
-0.00111336
-0.309086
-0.185097
0.0412477
0.154461
-0.195708
0.325948
-0.161512
-0.164436
-0.26143
0.188346
-0.513012
0.324665
-0.422863
-0.0478963
-0.269861
-0.171951
0.441812
-0.12005
0.168201
0.0241602
-0.110263
0.0861031
-0.254819
-0.142179
0.396998
-0.137221
-0.197127
-0.183754
0.0555174
0.128236
0.292684
-0.238811
-0.268013
0.408131
-0.182523
0.190555
-0.00803223
0.456686
-0.403322
0.148503
-0.222323
0.3698
0.274367
0.21789
-0.0426299
-0.162194
-0.0401631
-0.145893
0.186057
0.0561126
0.182612
-0.383661
0.522873
-0.324186
-0.198688
0.217167
-0.366956
0.149789
-0.171271
-0.115254
0.116886
-0.554233
0.273594
0.280639
0.269867
-0.0792979
-0.043648
-0.0929998
0.136648
-0.277287
0.421122
0.338571
-0.125449
0.230522
-0.591531
0.361009
0.148394
-0.190657
-0.135928
0.476733
-0.288664
0.225638
0.0977165
-0.323354
0.0162514
0.00776578
-0.0240172
0.350115
-0.263959
0.118781
-0.158944
0.25306
0.0420752
0.237868
0.307707
-0.299487
-0.0082203
-0.0894005
-0.521454
0.217648
0.303807
-0.252153
-0.241256
0.493409
0.315304
-0.206348
0.0716719
-0.117149
0.0454774
-0.0338323
-0.361199
0.468777
-0.173964
-0.445355
0.0903937
-0.221198
-0.0618256
0.283023
0.375475
-0.158308
0.0187922
0.273891
0.0261209
0.196229
-0.22235
-0.360859
0.0788194
0.197494
-0.156246
0.363778
-0.246048
-0.153846
0.408635
-0.25479
-0.368957
-0.105197
0.474155
-0.562347
0.338831
0.347824
-0.528426
0.180602
-0.182006
-0.0911638
0.273169
-0.422039
-0.0179168
0.439956
-0.0166231
-0.00830276
0.347064
-0.126177
-0.220886
0.136593
0.205791
-0.215637
-0.247733
0.0873588
0.125669
-0.213028
-0.38903
0.119169
-0.264043
0.422784
-0.0258782
0.0357966
-0.00991838
0.0843279
-0.242165
0.0353642
0.00480445
-0.0401687
-0.0137788
-0.000131215
0.01391
0.330414
-0.231076
-0.195577
0.481881
-0.246904
-0.113018
0.359921
-0.205904
0.26609
-0.0601859
0.00555859
0.139168
-0.0951366
0.0661523
0.0289842
0.257068
-0.235611
-0.021457
0.156332
-0.0146095
0.318701
-0.223392
0.367604
-0.286958
-0.130341
-0.316425
0.179204
0.179237
0.297495
0.541297
-0.364837
-0.176461
-0.0658271
-0.163046
-0.162251
-0.284104
0.446355
0.117721
0.0266173
-0.144338
-0.2579
0.217011
0.111578
0.294678
-0.406256
0.0112247
-0.315219
-0.214294
0.171664
0.258849
-0.0245958
-0.0950476
0.0386257
0.0564219
-0.238414
-0.288273
-0.0460522
0.0138729
-0.143018
0.389284
0.156759
-0.149461
-0.007298
0.161142
-0.43968
0.278538
0.261972
-0.0898488
-0.172123
0.230137
-0.137579
-0.0925576
0.358658
0.170887
-0.112346
0.417336
-0.30499
0.165538
-0.427811
-0.280522
-0.16071
0.441232
0.0919695
-0.123619
0.031649
0.257977
-0.0560865
-0.132674
-0.297481
0.1329
0.164581
0.0740984
-0.450637
-0.323781
-0.149773
-0.0787504
0.227144
0.163789
0.0609062
-0.224695
0.211841
0.00828514
0.205993
-0.298882
0.0928888
0.109666
0.0267157
0.0197231
-0.207005
0.187282
0.13446
-0.120033
-0.40975
0.266274
-0.0187531
-0.204605
-0.226751
-0.33161
-0.360595
0.0974943
0.263101
0.0856887
-0.216656
0.130967
0.327384
0.195489
-0.126537
0.431905
-0.305369
0.360491
-0.248913
0.523455
-0.175632
0.0576861
0.0384848
-0.206527
0.318554
-0.0683852
0.232174
-0.417821
0.170563
0.247258
-0.537654
0.359088
0.178566
0.130522
0.216542
0.165456
-0.448691
0.283235
-0.413178
0.186137
0.227041
0.266006
-0.421253
0.155247
0.314396
-0.288621
0.413356
-0.124735
0.475652
-0.292862
-0.182789
-0.14822
0.395401
0.00342057
-0.131327
0.127906
0.21982
0.0372487
0.262074
-0.437488
-0.0375416
-0.304902
0.168247
-0.16224
-0.316511
0.483314
-0.317857
0.561209
-0.330687
0.310514
0.165137
0.108556
-0.0165862
0.2854
-0.0192969
0.232299
-0.373649
0.14135
-0.0126204
0.0129555
-0.156047
-0.274532
-0.185541
0.451547
-0.00403169
-0.00974712
-0.358289
0.513534
-0.155246
-0.227011
0.0403219
-0.0895848
-0.168315
-0.0783146
0.047239
0.0310756
-0.286126
0.465364
-0.141855
-0.135132
-0.187593
0.158437
0.0291566
-0.0936344
0.354146
0.0943953
0.260176
-0.354571
-0.257725
0.00127768
-0.00915943
-0.0516049
-0.422252
-0.143963
0.523623
-0.391536
-0.132087
0.0320732
0.208049
0.0103718
-0.00799247
-0.00237937
0.153256
-0.440496
0.28724
-0.210666
-0.150528
0.237887
-0.448831
0.361809
-0.414368
0.302022
-0.370633
-0.155419
0.322041
-0.0964038
-0.216945
0.539981
-0.323036
-0.261547
-0.130314
0.39186
0.082764
-0.344311
-0.195924
-0.257417
0.453341
0.270707
0.143812
-0.414519
-0.382169
0.0935477
0.21665
-0.470676
0.281905
0.188771
0.0218483
0.0546788
-0.0193146
0.0676158
-0.111264
-0.252297
-0.339234
-0.513836
0.305708
0.208128
0.418461
-0.3276
0.0147747
-0.0067921
0.113321
-0.192071
-0.107184
-0.00542677
0.11261
-0.0644555
-0.227135
0.523038
-0.295903
-0.147677
-0.04275
-0.226241
0.291468
0.102569
-0.0784089
0.520395
-0.314307
-0.206088
0.138072
0.293834
-0.168225
0.167523
0.000701964
-0.171157
-0.1116
0.282756
0.00943936
-0.0161617
0.00672238
0.271431
-0.43395
0.162519
-0.371345
-0.0506941
0.513509
-0.335507
-0.178002
0.0449296
0.139587
0.216373
-0.162524
0.446337
0.189584
0.102433
-0.292017
0.181224
0.274193
-0.455417
-0.323308
-0.169478
-0.216549
0.172283
0.0442661
0.312185
-0.169953
-0.142232
-0.378966
0.0920082
0.020719
0.20788
0.106546
0.249034
-0.118422
0.109086
0.00933601
-0.2694
0.34151
-0.0721106
-0.337386
0.365945
-0.44577
0.508837
-0.0630665
-0.239736
-0.150757
-0.269942
-0.16455
0.0208363
-0.0113969
0.0980047
-0.00380628
-0.0941984
-0.329001
0.415776
-0.0867751
0.432157
-0.294085
0.31908
0.195323
-0.109634
-0.0493175
-0.134436
0.0383979
0.317159
0.224004
-0.154367
0.418819
-0.152112
0.0942952
-0.348091
0.0932082
0.254883
0.412775
-0.0689747
0.163857
0.158184
0.146874
-0.121822
-0.0250517
0.00421318
-0.0353803
-0.0902977
0.40813
-0.0285842
-0.379546
0.160043
-0.285133
0.0978783
0.187255
0.483847
-0.301925
-0.181922
-0.44089
0.372705
0.0681849
-0.251673
-0.112682
0.217332
0.240209
-0.457541
0.292639
-0.304603
-0.132492
0.120799
-0.489756
-0.248045
0.119084
-0.0165149
0.128024
-0.124604
-0.0502408
-0.229748
0.441101
-0.211353
-0.184863
-0.37947
0.0641573
0.315312
-0.403891
-0.0418792
0.413843
-0.493774
-0.192152
0.306104
-0.459775
-0.414677
-0.317067
0.472315
-0.155248
0.148959
-0.0312383
-0.00982074
0.300138
-0.468185
0.168048
0.192126
-0.385096
-0.16267
0.396137
-0.233467
0.0541388
0.33861
-0.392749
0.333618
-0.505629
0.172011
0.264743
0.148032
0.115977
-0.276898
-0.0432346
0.0804496
-0.037215
-0.00800451
-0.218237
0.36722
0.152458
-0.519678
-0.344213
0.27186
-0.0129833
0.000362892
0.181052
0.333878
0.314306
0.169541
-0.0251095
-0.0228092
0.0479187
-0.0782112
0.0953044
-0.0170931
0.280621
0.260677
0.480463
-0.311057
-0.169405
-0.109666
0.288362
-0.178696
0.34347
-0.111171
0.19183
-0.0722628
0.375068
-0.232231
-0.142838
-0.162799
0.167125
0.0843447
-0.251469
0.235808
-0.269279
-0.0357651
-0.308536
-0.00872215
0.118388
0.0277929
-0.000240056
-0.0725667
0.191347
0.323335
-0.22894
0.0109107
-0.000538842
0.380476
0.100946
-0.313207
0.082451
0.230756
0.00321344
0.109073
-0.112286
0.0366104
-0.348072
-0.214275
-0.0952182
0.284802
0.0104307
0.00434398
-0.128627
-0.171223
-0.11391
0.117908
0.153405
-0.354784
-0.222719
0.32754
-0.118882
-0.178637
0.297519
-0.177849
0.293826
0.212209
0.125728
-0.337936
0.0286832
0.263433
-0.410128
0.146695
-0.323428
-0.143484
0.466912
-0.17902
0.156228
-0.107811
-0.276297
0.0942917
0.223754
-0.0177612
0.38618
-0.192256
-0.193924
-0.0541739
-0.115032
0.169206
-0.349439
-0.08671
0.363187
-0.276477
0.0239309
-0.188008
0.0488255
0.325983
-0.162126
0.277068
-0.305012
-0.180484
-0.0282084
-0.0476217
0.429074
-0.267931
-0.388126
0.313788
0.0743389
0.0817666
0.241569
0.13897
-0.464085
-0.314131
-0.172797
0.486928
0.156369
-0.479797
0.284928
0.18385
-0.453107
0.20626
0.285334
-0.330198
-0.118363
0.16436
0.147825
-0.415815
0.141671
0.274144
0.446002
-0.0979611
0.286679
0.252606
0.0327946
0.058036
0.172101
0.152306
0.0167696
0.250752
0.0732767
0.0797054
-0.0314964
0.00695917
0.439199
0.170705
0.291149
-0.461854
-0.0966982
-0.0346284
0.202081
0.291735
-0.493816
-0.459699
0.244478
0.207783
0.00405771
-0.263341
-0.146097
0.409438
0.518478
-0.18486
-0.343118
0.245524
0.0975935
0.168389
0.217792
0.13182
-0.0460049
-0.161293
0.031454
0.129839
0.344264
-0.414703
0.260857
-0.0859636
0.382516
-0.296553
-0.160926
-0.0129176
-0.151688
0.140857
0.0108304
-0.0060832
0.00751443
0.118322
-0.0149594
0.254673
-0.456821
0.0999661
-0.438141
-0.0410724
-0.049745
-0.0910974
0.361359
0.178622
-0.286258
0.488339
0.326595
-0.0732641
-0.0561846
0.362483
-0.280716
0.439309
0.40252
-0.225578
0.00411448
0.00790155
-0.012016
0.289787
0.201977
0.0078056
0.406038
-0.00232699
0.400496
-0.398169
-0.0284131
-0.123275
-0.0420532
0.068556
-0.0265028
-0.324349
0.335574
-0.324431
0.111886
0.212544
-0.0227949
0.370601
-0.280388
0.49938
-0.218992
-0.0290164
0.00313813
-0.181486
0.231932
-0.277645
0.0457128
-0.302401
-0.188633
0.491034
-0.345174
-0.0337927
0.0922017
0.0268823
-0.20053
0.110681
0.259324
-0.152387
-0.106938
0.169402
0.456369
-0.094115
0.253069
0.148121
-0.401191
0.457942
-0.19018
-0.0144039
0.182211
-0.167808
-0.518554
-0.10397
0.0573329
-0.347979
-0.302557
0.384317
-0.0817597
0.248959
0.0945107
0.60141
-0.231343
-0.370067
0.346677
0.254733
-0.0590553
-0.0192593
0.304087
0.138063
0.102337
0.0352758
-0.137613
-0.0950565
-0.188763
0.473691
0.391109
-0.26782
-0.123289
0.0313284
0.276379
0.272671
-0.232053
-0.0406179
0.306135
0.217755
-0.100364
-0.425288
0.0423297
-0.190653
0.306126
0.440901
-0.156971
0.035039
-0.240943
0.284115
-0.151215
-0.396799
0.094242
0.452309
-0.174387
-0.277922
-0.525639
0.194175
0.331464
-0.231129
0.377959
-0.14683
-0.532091
0.210912
0.321179
0.0412253
0.146248
0.0720265
0.0412468
0.32194
-0.139889
-0.0108289
-0.361522
0.37235
0.461289
-0.168415
-0.292875
0.203316
0.479331
-0.377494
0.1319
0.245593
-0.456563
0.147751
0.129868
-0.438954
-0.365207
-0.0297778
0.169669
-0.497096
0.533103
-0.2511
-0.282003
0.0701005
-0.42389
0.0869642
-0.333868
-0.187979
-0.0475362
0.235516
-0.153757
0.201188
-0.047431
-0.159954
0.16612
-0.268076
-0.230531
0.278382
0.131128
-0.0670264
0.445531
-0.288456
-0.128958
0.496178
0.0773937
-0.114018
0.0366239
-0.0582025
-0.367085
0.151858
0.00588735
0.12877
0.049415
-0.33946
-0.187081
0.56537
0.154641
0.302454
0.158835
0.118632
0.272476
0.517029
-0.20494
-0.312088
-0.073571
0.141187
-0.00693398
-0.0655618
0.0724958
-0.0912686
0.202106
0.066878
-0.458337
0.391459
-0.404805
-0.0285134
0.433319
0.315601
0.162227
0.204867
0.328236
0.294438
0.0160332
-0.310471
-0.286503
-0.0604551
-0.216137
0.276592
-0.0846326
0.456455
-0.307529
-0.148927
0.00694841
0.0518401
0.0799795
0.215906
0.0219626
-0.291853
-0.123962
-0.29533
-0.27615
-0.214312
-0.1188
0.328856
-0.210056
-0.155857
0.407264
-0.251407
0.154774
-0.414631
0.00982567
-0.280242
0.345201
-0.350638
0.182442
-0.430248
0.282596
0.231964
-0.388059
0.156095
0.265288
-0.0838992
-0.181389
0.00202164
0.406109
0.0377146
-0.346701
0.308987
0.33431
-0.513537
0.179227
0.0809275
-0.383987
0.303059
0.130991
-0.141332
-0.113659
0.108232
-0.377535
0.0385089
0.339026
-0.0366656
0.0549619
0.417945
-0.161807
-0.256138
0.287147
-0.321779
0.0634179
0.153391
-0.473734
0.236483
-0.419693
-0.0553746
0.372497
-0.29157
0.449747
-0.149609
-0.041589
-0.17496
0.382135
-0.129065
-0.524959
0.332939
0.19202
-0.430325
-0.258351
-0.119143
-0.298332
-0.150359
-0.0339184
0.0698209
-0.0359025
0.187836
-0.490236
0.24895
0.187297
0.301896
-0.163905
-0.182081
0.467599
-0.285519
-0.16366
0.399027
-0.283429
-0.115598
0.156493
-0.0471309
-0.109362
0.336746
-0.517439
0.180692
-0.387926
-0.397867
0.117478
-0.133087
-0.0545058
-0.333098
0.131133
-0.139703
0.421526
-0.281823
0.154697
0.0094006
-0.164097
0.240279
-0.255814
0.29038
0.220134
-0.387299
0.167165
-0.00524548
-0.007933
0.0587389
-0.0213959
-0.037343
0.212483
0.0935002
-0.305983
-0.181889
-0.115946
-0.238995
0.490116
-0.251121
-0.00753462
-0.273717
-0.167238
0.440955
-0.160544
0.425568
0.438892
-0.274302
0.327596
0.155718
-0.315762
0.353477
-0.111407
0.308111
-0.196704
0.266725
-0.170947
-0.0957788
-0.0119014
-0.355763
0.0913918
0.281105
-0.154917
-0.139821
-0.432649
0.293967
0.174307
0.278002
0.383506
-0.292114
0.255772
-0.380814
0.125042
-0.297084
-0.128656
-0.233455
-0.471435
0.221245
0.163145
-0.161977
-0.188491
0.350467
0.241445
0.0104803
0.122935
-0.133415
0.00547526
0.149222
-0.256535
0.186217
0.0703182
-0.226865
0.315353
0.127048
-0.298684
-0.139619
0.371583
-0.427817
-0.0181962
0.446013
0.452262
-0.277955
-0.386135
0.0242333
0.361902
-0.0173705
0.150425
-0.413766
0.508198
-0.173888
-0.465317
0.28963
0.175687
-0.447591
-0.368159
0.306899
-0.287269
-0.155856
0.443125
0.0485304
-0.4567
-0.263434
0.394978
-0.131544
0.172077
0.245869
0.28328
-0.109397