/*--------------------------------*- C++ -*----------------------------------*\
| =========                 |                                                 |
| \\      /  F ield         | OpenFOAM: The Open Source CFD Toolbox           |
|  \\    /   O peration     | Version:  v2012                                 |
|   \\  /    A nd           | Website:  www.openfoam.com                      |
|    \\/     M anipulation  |                                                 |
\*---------------------------------------------------------------------------*/
FoamFile
{
    version     2.0;
    format      ascii;
    class       volScalarField;
    location    "350";
    object      nut;
}
// * * * * * * * * * * * * * * * * * * * * * * * * * * * * * * * * * * * * * //

dimensions      [0 2 -1 0 0 0 0];


internalField   nonuniform List<scalar> 
18540
(
0.000465886
0.000437128
0.000448584
0.000507058
0.000452341
0.00042682
0.000449413
0.0114526
0.000433713
0.000455398
0.000454933
0.00071093
0.000607898
0.0152509
0.000452218
0.00043364
0.000442254
0.000447586
0.000436469
0.000449267
0.000520149
0.000439617
0.000429863
0.000455352
0.0004394
0.000452519
0.000452214
0.0193756
0.000515273
0.0180356
0.0080257
0.000444271
0.000449524
0.000435559
0.000452331
0.000440558
0.000544035
0.000450151
0.000436339
0.000476248
0.000521163
0.00043782
0.000449291
0.000448007
0.000439803
0.000436148
0.0254246
0.000441494
0.000438394
0.000523019
0.00053661
0.000454064
0.000442365
0.000520085
0.000487602
0.00665579
0.000477769
0.00045157
0.000466677
0.000515159
0.000453667
0.000445116
0.000442459
0.000437723
0.000436595
0.000432624
0.00044132
0.000490681
0.000664395
0.000437704
0.000448745
0.000514894
0.000437982
0.000437802
0.000438353
0.00454337
0.000584506
0.000452253
0.000448935
0.00758374
0.00043976
0.000449051
0.000444519
0.000439435
0.0004552
0.000448713
0.000612857
0.000445427
0.000446101
0.000527764
0.00056544
0.00937761
0.000565814
0.000450739
0.000432448
0.000438195
0.000620138
0.000447831
0.0166012
0.000449216
0.000432271
0.000454997
0.000449351
0.000431976
0.000432597
0.000432296
0.000449478
0.000497226
0.000450459
0.000449541
0.00046045
0.000437688
0.000445892
0.000449139
0.000432139
0.000432123
0.000439674
0.000447354
0.000448068
0.000448686
0.000447866
0.0107663
0.00375294
0.000445425
0.000454719
0.000453878
0.000449326
0.000550379
0.000436556
0.000454498
0.00606595
0.000447993
0.000442599
0.00365527
0.000430762
0.000452484
0.000446192
0.000460625
0.000442498
0.000431999
0.000426825
0.00044796
0.000449422
0.000453515
0.000519451
0.00046408
0.000518592
0.00579561
0.000435356
0.000443318
0.00520684
0.000449081
0.000439112
0.000450107
0.000439467
0.000447597
0.000524914
0.000441515
0.000445002
0.0185196
0.000653049
0.00662905
0.00046447
0.00571716
0.000471043
0.000441457
0.000451811
0.000445266
0.000444811
0.000454674
0.00045625
0.000448553
0.000451286
0.00548899
0.000478228
0.000550145
0.000448742
0.00818427
0.000451544
0.000444936
0.00647196
0.000450246
0.000447657
0.000441593
0.000449304
0.000452018
0.00868414
0.0015143
0.000610099
0.000537096
0.000455516
0.00493972
0.000450117
0.0134974
0.000451868
0.00044529
0.00059583
0.00665292
0.000448801
0.000469093
0.000448406
0.00976963
0.000439475
0.000453992
0.000431448
0.000447887
0.000488386
0.000447647
0.000502317
0.00497117
0.000447907
0.000449185
0.000450186
0.000442614
0.000715378
0.00840968
0.000436545
0.000441635
0.000765379
0.0171518
0.000476121
0.000427447
0.00422124
0.00045696
0.000453801
0.000447415
0.000497759
0.000533426
0.00050763
0.000448784
0.00043514
0.00045248
0.0263598
0.000768631
0.000569873
0.000521473
0.000548364
0.000455697
0.000427486
0.0004507
0.000442479
0.000478819
0.000456202
0.00044659
0.000432571
0.000442467
0.000462374
0.000452335
0.000456042
0.000444595
0.000447981
0.00107575
0.000439543
0.000447435
0.000744665
0.000477185
0.000653009
0.011331
0.000537397
0.0155286
0.000475829
0.0193131
0.00247284
0.000440284
0.00044203
0.0228929
0.000443388
0.0004495
0.00681191
0.000449476
0.000430988
0.000446698
0.000432688
0.000432641
0.000437684
0.000443414
0.00044939
0.000546574
0.000327007
0.000442077
0.00043468
0.000448494
0.00430247
0.000447524
0.000460279
0.00918407
0.000447602
0.000448858
0.000456421
0.0116535
0.000441937
0.000450239
0.000542058
0.000452268
0.000450098
0.000449195
0.000439099
0.000458167
0.000455547
0.000502721
0.000433973
0.000444057
0.000447499
0.00702173
0.000548817
0.000447312
0.000492756
0.000448887
0.000491972
0.000433989
0.000449
0.000453911
0.000480613
0.000449979
0.000519368
0.000450792
0.000440066
0.000450976
0.000440198
0.000494386
0.000449879
0.000451966
0.000441056
0.000431078
0.00695998
0.000448087
0.000439287
0.000468821
0.000448159
0.000440562
0.000452025
0.000430973
0.000443691
0.000447816
0.000451455
0.00045481
0.000471843
0.000438033
0.000465216
0.000448695
0.00045109
0.000445953
0.000451648
0.000445625
0.000449498
0.00068526
0.000451535
0.00327412
0.000504711
0.00044892
0.000445612
0.000429775
0.000455174
0.0004911
0.000449297
0.0106065
0.00045024
0.000437949
8.56501e-05
0.000449099
0.000445649
0.000455042
0.000471567
0.000561029
0.000464297
0.000445323
0.000451037
0.000447626
0.000432176
0.000486892
0.000443637
0.00068344
0.000438502
0.021722
0.000637965
0.00141949
0.000452555
0.000460858
0.000454239
0.000445146
0.0255186
0.000451476
0.000456637
0.000447297
0.000459882
0.00045539
0.000442383
0.000450987
0.000629787
0.000741918
0.000442317
0.000773637
0.000438838
0.00391445
0.0226608
0.000608622
0.000432488
0.000448011
0.000718746
0.000447714
0.000430467
0.0238365
0.000458746
0.000455689
0.000440185
0.000451784
0.000444938
0.000567475
0.000449852
0.00043838
0.00488603
0.000437338
0.000445006
0.000450093
0.000454254
0.000371666
0.000437823
0.000459813
0.000444784
0.00152964
0.0158848
0.000447358
0.000430375
0.000441233
0.000470061
0.000449929
0.000441736
0.000438165
0.000490334
0.000445293
0.000454155
0.00045332
0.000430212
0.00045039
0.00044106
0.000430268
0.000436709
0.000521694
0.00043906
0.000457311
0.0136309
0.000864489
0.00850515
0.000438588
0.000440158
0.000442289
0.000447189
0.00072733
0.000430158
0.000436869
0.000744068
0.000438906
0.000430816
0.000440839
0.000433226
0.00044106
0.010651
0.000439087
0.000454517
0.000450527
0.000447281
0.000450299
0.00709492
0.000431479
0.00691879
0.000452569
0.000442199
0.000408015
0.000437387
0.00621956
0.000441526
0.00572128
0.000445643
0.000450728
0.000448582
0.000442494
0.0171959
0.000427729
0.000442028
0.000448469
0.00058469
0.000449462
0.000514826
0.00041658
0.000445504
0.000492707
0.000767927
0.00045551
0.00076027
0.000450474
0.000598939
0.000433734
0.000564376
0.00047402
0.00143482
0.000449795
0.000492741
0.000433685
0.000448162
0.000426262
0.000803313
0.00044925
0.00136146
0.000433398
0.00702567
0.000434749
0.000437572
0.000444893
0.000448147
0.000450552
0.000441196
0.00189442
0.000472643
0.013184
0.000439571
0.000681803
0.00043817
0.000445181
0.000450692
0.000432875
0.000445558
0.000450377
0.000437672
0.0060211
0.000497025
0.0200434
0.000445844
0.000438266
0.00044841
0.000470666
0.000433276
0.0100143
0.000455526
0.000426244
0.00043158
0.000433865
0.000445058
0.00043823
0.000448377
0.000472676
0.000456696
0.000440089
0.0140642
0.00044913
0.000441488
0.00105187
0.000481683
0.000447629
0.00137132
0.000528307
0.000452268
0.00043123
0.00715203
0.000448971
0.000429581
0.000454917
0.000459628
0.000433961
0.0237921
0.000439744
0.000451669
0.00373766
0.000956823
0.000430723
0.0171655
0.00043254
0.000448635
0.000451103
0.000448231
0.000524822
0.000451108
0.00266938
0.00947245
0.000448423
0.000570237
0.000823664
0.000669084
0.000455468
0.00043129
0.0217379
0.000464807
0.000447212
0.000450516
0.00467276
0.000438538
0.00045589
0.000445208
0.000448741
0.000450912
0.00045083
0.000451806
0.000453314
0.000448511
0.000448067
0.000437007
0.000485746
0.000439501
0.000445807
0.000457059
0.000438736
0.000447962
0.000462381
0.000449749
0.00042948
0.000429572
0.0006155
0.000434853
0.00045151
0.000462064
0.000434796
0.000426193
0.000448093
0.0013725
0.000512257
0.000441391
0.000442851
0.000445231
0.000454481
0.000448087
0.000449089
0.000451915
0.000440523
0.000442142
0.000440504
0.000455124
0.000435924
0.000449557
0.0171587
0.00045038
0.000448788
0.000448643
0.000430022
0.00044486
0.0004505
0.00045579
0.000451077
0.000439658
0.000517781
0.0202745
0.000445287
0.0043386
0.000449203
0.000444788
0.000522201
0.0106953
0.000509123
0.00043533
0.00563888
0.000448183
0.000442484
0.000452689
0.012901
0.000441021
0.000454899
0.000447515
0.000453372
0.000451865
0.000452887
0.000455244
0.000451058
0.000436918
0.00686042
0.000444945
0.00043347
0.000455624
0.000445124
0.0004262
0.000450984
0.000789349
0.000444801
0.000453149
0.00044145
0.000444645
0.000479027
0.000443436
0.00043088
0.000441881
0.0206812
0.00047495
0.000451013
0.000452765
0.000451672
0.000443573
0.000465562
0.000445592
0.000528536
0.00188943
0.000438727
0.000431405
0.000441012
0.000588928
0.000433674
0.000433638
0.000439172
0.00937551
0.00642777
0.0173819
0.000522362
0.000429953
0.000449555
0.000521743
0.000439399
0.000463594
0.000455858
0.000513632
0.00938557
0.000444623
0.000528203
0.00048299
0.000439031
0.000449738
0.0004518
0.000444668
0.000466467
0.000455882
0.000439202
0.000453095
0.000450445
0.000430918
0.000507497
0.000508435
0.000444708
0.0213423
0.000445773
0.0173121
0.000442622
0.00147572
0.0144542
0.000431446
0.000460504
0.000462365
0.000440499
0.00643835
0.000457916
0.000449379
0.0102063
0.000450541
0.000426487
0.000432939
0.000444853
0.000514808
0.000749044
0.00043977
0.000432012
0.000459905
0.000449397
0.000442439
0.000463083
0.000451074
0.000450708
0.000458054
0.000450522
0.000474865
0.000437174
0.000431159
0.000374069
0.00536861
0.000515123
0.000600718
0.000441679
0.00473653
0.000441374
0.00361518
0.000449648
0.000436942
0.000488992
0.000512978
0.000523495
0.000440272
0.000438835
0.000426669
0.000754369
0.000442893
0.000826628
0.000455934
0.000523705
0.00153682
0.000439161
0.000449635
0.0168934
0.00044008
0.000920633
0.000445241
0.000442343
0.000469737
0.000444532
0.000450228
0.00046159
0.000445872
0.000442843
0.000446996
0.000437421
0.000439886
0.000438458
0.000451701
0.000438805
0.00524966
0.000448928
0.000442674
0.000440532
0.000294434
0.000455627
0.000441584
0.000467759
0.00712732
0.00043675
0.000447472
0.00697395
0.000508135
0.015137
0.000433874
0.000654257
0.000451879
0.000439839
0.000436228
0.000440673
0.00044592
0.00533235
0.00043376
0.000449756
0.0128264
0.000471749
0.000447847
0.000457648
0.000440232
0.000498467
0.000441153
0.000473999
0.000483394
0.0230509
0.000447159
0.0216444
0.000440084
0.00124085
0.00044774
0.000441459
0.000437706
0.00045199
0.000433438
0.000561108
0.000503333
0.00046119
0.000441112
0.000442004
0.000454719
0.000442705
0.0209289
0.000600679
0.000435709
0.000432268
0.000604414
0.000439882
0.000479438
0.000460215
0.000441838
0.000442555
0.000432045
0.00045057
0.000439547
0.000449424
0.000454204
0.000458523
0.00046917
0.00042995
0.000435804
0.000445645
0.00044757
0.00222394
0.000969841
0.000449201
0.000437918
0.000440819
0.000455956
0.000453747
0.000442642
0.000454238
0.000445131
0.000453584
0.000440325
0.000442757
0.000439753
0.000439545
0.000444826
0.000427026
0.00721885
0.000414066
0.000448896
0.0220617
0.000447063
0.0061137
0.000452079
0.000431845
0.000448886
0.000451153
0.000450072
0.000146824
0.000454064
0.000444071
0.000437828
0.000576339
0.00689974
0.000431555
0.000453344
0.000455953
0.000450523
0.000440129
0.000636035
0.000450016
0.000449773
0.000444894
0.000448298
0.000446142
0.000443179
0.000443227
0.000436455
0.000452211
0.000447634
0.000450808
0.000449714
0.000441641
0.000470149
0.000776662
0.000476756
0.000450254
0.000430975
0.0210323
0.000445791
0.000459147
0.000449453
0.000448901
0.000431643
0.000456669
0.0169829
0.00687544
0.0127916
0.00918006
0.00044753
0.0205935
0.000449774
0.000437107
0.000450439
0.00497673
0.000447054
0.000515366
0.000514638
0.019756
0.000450981
0.000427345
0.0126916
0.000449167
0.000444007
0.000496071
0.00209754
0.00542662
0.000449986
0.00176403
0.000446966
0.000608009
0.000445802
0.000526661
0.000450762
0.000442212
0.00046929
0.000452671
0.0167624
0.000447067
0.00129879
0.000449077
0.000454078
0.000467032
0.00047654
0.000434453
0.00044555
0.000440388
0.000536568
0.000426356
0.000546111
0.00890917
0.0117954
0.00172883
0.000454143
0.00431064
0.000451237
4.38485e-05
0.000433379
0.000462375
0.000537688
0.000447216
0.00044235
0.000446118
0.00044549
0.000450657
0.000450919
0.000436811
0.000436124
0.000447878
0.000430083
0.00043336
0.000441014
0.000844616
0.00153165
0.000489408
0.00043841
0.00058897
0.000455539
0.000453346
0.000444769
0.00671824
0.000448455
0.000440504
0.000444976
0.00651697
0.000445567
0.00697446
0.000474762
0.000451536
0.0299557
0.000456399
0.000453233
0.000432657
0.000431699
0.000440342
0.000456328
0.00045409
0.000567664
0.000448323
0.000440351
0.000450395
0.000434923
0.000484962
0.000448387
0.000656016
0.000449284
0.000449228
0.000450843
0.00043389
0.000472678
0.000439499
0.0173061
0.000449149
0.000449724
0.000446063
0.000454146
0.000453064
0.000449495
0.000442425
0.000467978
0.00043241
0.000432724
0.000461422
0.000448529
0.00645103
0.000444634
0.000447315
0.000439932
0.000493407
0.000583956
0.00043179
0.00044911
0.000451646
0.000430822
0.0191094
0.000449155
0.000427344
0.000479016
0.000528217
0.000439282
0.000450535
0.000441788
0.00647177
0.000426919
0.000444239
0.000439678
0.00046978
0.000446558
0.000463134
0.000448341
0.000451437
0.000444705
0.000433747
0.000434859
0.000447898
0.000447904
0.000440857
0.00044008
0.000447231
0.00044731
0.000447779
0.000475894
0.000492851
0.000443039
0.0275927
0.000445054
0.000455505
0.0284644
0.000429714
0.000447514
1.15401e-05
0.000443258
0.000433743
0.000450701
0.00046911
0.000488711
0.000433839
0.000444914
0.0004508
0.0159189
0.000461617
0.000443197
0.000828621
0.000462783
0.000456501
0.000208645
0.000451766
0.0105832
0.000431584
0.00045205
0.000521563
0.000455003
0.000451618
0.0129808
0.000490479
0.0152457
0.00045495
0.000448787
0.000441975
0.00044906
0.000450351
0.000446364
0.000427267
0.000444646
0.000451909
0.000437468
0.000432693
0.000440446
0.000464737
0.000444199
0.00045056
0.000439698
0.0227702
0.000435477
0.000440084
0.000447435
0.000450797
0.000488588
0.000448076
0.000490138
0.000438998
0.000611521
0.000450591
0.000448955
0.000472385
0.000448738
0.000451833
0.000428971
0.000490259
0.000451876
3.50221e-06
0.000454751
0.000469673
0.000428961
0.00044344
0.000449231
0.000429918
0.00043284
0.000427599
0.000440067
0.000560918
0.000471814
0.000442066
0.000435964
0.000452939
0.00043248
0.000453866
0.000442689
0.000469085
0.009273
0.000234096
0.00044263
0.000501076
0.000453076
0.000434136
0.000445825
0.00044428
0.00044805
0.000439261
0.000477126
0.000427931
0.000462543
0.000445358
0.000444457
0.000430578
0.000438729
0.000448296
0.000454266
0.000450774
0.00045133
0.000517004
0.000444662
0.000696362
0.000763069
0.0223434
0.000431481
0.000442557
0.000451059
0.000450036
0.000450596
0.000450363
0.000269547
0.000446181
0.000450157
0.00047242
0.000432359
0.00620886
0.000433738
0.000514312
0.000448075
0.000433567
0.000451503
0.000439185
0.000438409
0.000432671
0.000518568
0.000430572
0.000436762
0.000465189
0.00059013
0.000437178
0.000444699
0.000446449
0.000436257
0.000451789
0.000442764
0.000453462
0.000437243
0.000430093
0.0004384
0.000484633
0.000450659
0.000450665
0.000440134
0.000489885
0.000457197
0.000441666
0.00108677
0.00044474
0.000460799
0.000463596
0.000445745
0.00528964
0.000431377
0.000485685
0.000448384
0.000442924
0.000448512
0.0004805
0.000444978
0.000439253
0.000432136
0.000431194
0.000440485
0.000488982
0.000469649
0.000599714
0.000639983
0.000544034
0.000429762
0.000440743
0.00148964
0.000636813
0.000453397
0.00043014
0.000487426
0.00379856
0.000426243
0.000457019
0.000445046
0.00980403
0.000435018
0.000432194
0.000442736
0.000486551
0.000457305
0.00043427
0.000442425
0.000444532
0.000567776
0.000463941
0.000437341
0.00044877
0.000457498
0.000680311
0.000972072
0.000456428
0.000493397
0.000446123
0.000445005
0.0229803
0.000766015
0.00045108
0.000469698
0.00052136
0.000446845
0.00043803
0.000464897
0.000429367
0.000482416
0.000442219
0.000448011
0.00647365
0.00907468
0.000452313
0.000448695
0.0046987
0.000434947
0.000444444
0.000444657
0.000495273
0.000538816
0.00656574
0.000429301
0.000431516
0.0066383
0.000429693
0.000445535
0.00044815
0.000429635
0.000455369
0.000441439
0.000426344
0.0131741
0.000455552
0.000449429
0.000438529
0.000673856
0.000450468
0.000426181
0.000438995
0.000454404
0.00044715
0.000433795
0.000457163
0.000429388
0.000456697
0.000429112
0.000453258
0.000428903
0.000429177
0.000432415
0.000693523
0.00929103
0.000445854
0.000452455
0.000445252
0.000448698
0.000463546
0.000429326
0.000494758
0.000450751
0.000676515
0.000865407
0.000428781
0.000444096
0.000459396
0.000501421
0.000440326
0.000457578
0.000429281
0.0152911
0.000474131
0.000429578
0.000429281
0.000450324
0.000487493
0.000459091
0.000437587
0.00042918
0.000433859
0.000448165
0.000461078
0.000438562
0.000464191
0.00210218
0.000443573
0.000457176
0.000432446
0.000430683
0.000426176
0.000445957
0.00223628
0.000451649
0.000431868
0.000492611
0.00046173
0.000450174
0.000718144
0.000576505
0.000445015
0.000434477
0.000442499
0.0147412
0.000446326
0.000449286
0.000450567
0.0246088
0.00175579
0.000448703
0.00138727
0.000608197
0.000508474
0.000451762
0.000445483
0.000453438
0.0004373
0.000438794
0.000462346
0.00641234
0.000431563
0.000437116
0.000429837
0.000479436
0.000450073
0.0245259
0.000432667
0.000450884
0.000453098
0.00249998
0.000450841
0.0211214
0.000444071
0.000454778
0.000441081
0.000446472
0.000451934
0.000441817
0.000478316
0.000433165
0.000561505
0.000434074
0.000449672
0.000454355
0.000450468
0.000451673
0.000432356
0.000445076
0.000514727
0.000440249
0.000497025
0.000581881
0.000426172
0.000452965
0.000442884
0.0300551
0.0004425
0.00044904
0.0135745
0.000433125
0.000444512
0.000439128
0.000447996
0.000437219
0.000446221
0.000437719
0.000432674
0.00043804
0.00684214
0.000446197
0.0121408
1.10639e-06
0.000436691
0.000437954
0.00046793
0.000426507
0.000468167
0.000466923
0.000451273
0.000446973
0.000436403
0.000446411
0.000437004
0.000436807
0.000448511
0.000440995
0.000439753
0.00045047
0.000449353
0.000447071
0.000498416
0.000446764
0.000451583
0.00046195
0.000452996
0.000485411
0.000461446
0.000446994
0.000436968
0.0129141
0.000470516
0.00220727
0.000436935
0.000470348
0.000431961
0.00042711
0.000439919
0.000446259
0.000443729
0.000429073
0.00887095
0.000435046
0.000444616
0.00340203
0.000446159
0.000447668
0.00043685
0.000441651
0.000437677
0.000430778
1.63187e-05
3.68833e-05
0.000439707
0.000457582
0.000455999
0.0180032
0.000450636
0.000448679
0.000452164
0.000473845
0.00437569
0.000466929
0.000449933
0.000513904
0.0004343
0.000443955
0.0024791
0.00689945
0.00859747
0.000433675
0.000450114
0.00672022
0.000431293
0.0114368
0.000437573
0.000443107
0.000444716
0.000438644
0.000439703
0.000442919
0.000614673
0.00630622
0.000449452
0.000605316
0.000447177
0.000437154
0.000490037
0.00547193
0.000450405
0.000448584
0.000441013
0.000432386
0.000200184
0.00500589
0.00045571
0.000569971
0.000437043
0.0004444
0.0160827
0.000447848
0.000502004
0.00063645
0.00074325
0.00181391
0.000451074
0.000429864
0.000441671
0.000433038
0.000444029
0.00046629
0.000451278
0.000651094
0.000449172
0.000428795
0.000438686
1.04328e-05
0.000438823
0.000451755
0.00045339
0.000449502
0.000441531
0.0172323
0.000596338
0.000521877
0.000438467
0.000429796
0.000437741
0.000438189
0.000438057
0.000438898
0.000630416
0.000682839
0.000433038
0.000457272
0.000440986
0.0036265
0.000453422
0.000484444
0.000450726
0.000451535
0.000434925
0.00044864
0.00043845
0.000467367
0.000463312
0.000430064
0.000438769
0.000451172
0.000448114
0.000450963
0.00043274
0.0178241
0.000448055
0.000435002
0.000441707
0.000443934
0.000488776
0.000444316
0.000462124
0.000460936
0.000488974
0.000458808
0.000452969
0.0170906
0.00043841
0.000397987
0.0180042
0.000431569
0.0006264
0.000445412
0.000450599
0.000575398
0.000494822
0.000448536
0.000448715
0.000448619
0.00235542
0.000439336
0.000436507
0.000479012
0.000443698
0.000440491
0.000442161
0.000597779
0.000438968
0.000450958
0.000447482
0.0004318
0.000450385
0.00624762
0.000446556
0.00044096
0.0197704
0.000515199
0.000444438
0.000516507
0.000430924
0.000464184
0.000443188
0.000451232
0.000435141
0.00831458
0.000520918
0.00043615
0.00946506
0.00045159
4.83973e-05
0.000451588
0.00044469
0.000484997
0.000432639
0.000754744
0.00664195
0.00658274
0.000560026
0.000435507
0.000447682
0.000463284
0.00043393
0.000457464
0.00057914
0.00810586
0.00136801
0.000371098
0.000458908
0.00047316
0.00044487
0.000442312
0.00044425
0.000435609
0.000488325
0.000443084
0.000489263
0.000445284
0.000474966
0.000465241
0.000446887
0.000439663
0.000430964
0.000458463
0.000447663
0.000436738
0.00520738
0.000442302
0.0113033
0.000436345
0.000440515
0.000440768
0.000430661
0.000462527
0.000430805
0.000547861
0.000462158
0.00045313
0.000442637
0.000441586
0.0014849
0.000432529
0.000443819
0.00046138
0.000449197
0.000430789
0.000443765
0.000439686
0.000458027
0.000450458
0.000446688
0.000489313
0.000458302
0.02262
0.000451074
0.000432815
0.000446995
0.00586406
0.000432703
0.00044048
0.000447199
0.000430992
0.000432474
0.000461123
0.000508018
0.000468227
0.0004728
0.000441011
0.00590168
0.000439522
0.000435415
0.00013331
0.000460531
0.000456818
0.000478186
0.000432639
0.000465486
0.00170176
0.000456562
0.000439059
0.000439407
0.000751326
0.000426189
0.000447458
0.000435042
0.000458397
0.000448544
0.000450626
0.000446005
0.000448258
0.00046821
0.000449362
0.000447442
0.000475933
0.000549828
0.000447262
0.00044909
0.000449784
0.000372627
0.000464695
0.00111447
0.000451079
0.00114615
0.000632852
0.00043534
0.0012053
0.000449463
0.00428385
0.000436686
0.000460495
0.0160621
0.000438155
0.000438211
0.00125489
0.00575367
0.000458847
0.000463267
0.000553617
0.00108485
0.000427831
0.000441048
0.000446624
0.000448464
0.000448328
0.000437246
0.000431116
0.000435483
0.000440658
0.00355848
0.00915392
0.00044452
2.93028e-06
0.000437699
0.000437122
0.000446103
0.000444984
0.000456513
0.000466837
0.000448337
0.000439834
0.00114399
0.0148458
0.000455946
0.000444439
0.000451489
0.000445305
0.000530289
0.000429929
0.000450542
0.000477014
0.00825831
0.00349157
0.000465376
0.000443671
0.000451813
0.000493321
0.00045116
0.00044466
0.000615144
0.000501833
0.00118025
0.000447133
0.000582782
0.000482325
0.000444348
7.0066e-06
0.000429765
0.000451225
0.000444725
0.000448787
0.000437923
0.0004505
0.000505571
0.000450271
0.000441324
0.017275
0.00481215
0.00044965
0.000428915
0.000450177
0.000478779
0.000449805
0.00267891
0.00181543
0.000454372
0.000464597
0.0141708
0.000452948
0.000451523
0.0177134
0.000446298
0.000434044
0.000707715
0.000438601
0.00852008
0.000457834
0.000449824
0.000444309
0.00043384
0.000444667
0.000442301
0.000448924
0.000445621
0.000445995
0.000487998
0.000476781
0.000429711
0.000492687
0.000488827
0.000449414
0.000449257
0.000436317
0.000446458
0.000440945
0.00589468
0.000439181
0.000428546
0.000462774
0.00958218
0.000449151
0.000560274
0.000381623
0.000450096
0.000429717
0.0004266
0.00043416
0.000439156
0.0252678
0.000434465
0.000472241
0.000434061
0.000200047
0.000724253
0.00061123
0.000463688
0.000444406
0.000457825
0.000454392
0.000433927
0.00768719
0.000429114
0.000445499
0.000436172
0.000433458
0.000445329
0.000437294
0.000447921
0.000480643
0.000440846
0.000446483
0.000448471
0.000458583
0.000450955
0.000441214
0.000429015
0.000449398
0.000444413
0.0115338
0.000896888
0.000432485
0.000444325
0.000436933
0.000431239
0.000497402
0.000438359
0.000435105
0.000447729
0.000429808
0.000442761
0.000444881
0.000442542
0.000970821
0.000902367
0.000441856
0.000452592
0.000429612
0.000443089
0.00044435
0.000408868
0.000448667
0.000444398
0.000485418
0.000451446
0.000435155
0.000505216
0.000438881
0.000441303
0.000441806
0.000447357
0.000463444
0.000475629
0.000563017
0.000458741
0.000435993
0.000574626
0.000485323
0.000493374
0.000449966
0.0227915
0.000431532
0.000468711
0.00045168
0.000426228
0.000438051
0.000448217
0.000440694
0.000446553
0.000453113
0.000465602
0.00370925
0.000456702
0.000471579
0.00762008
0.000449245
0.000430286
0.000433941
0.00837893
0.000439114
0.00066767
0.000523167
0.000435222
0.00103847
0.0121307
0.000449928
0.000442276
0.000431766
0.00043651
0.000447867
0.000435694
0.000434789
0.000468523
0.000404491
0.000444577
0.000450665
1.81608e-05
0.00869499
0.000456948
0.000430043
0.000450032
0.000447722
0.000435182
0.0176505
0.000442386
0.000479666
0.000434952
0.000482118
0.000475355
0.00063524
0.000458224
0.000461929
0.000439364
0.000437473
0.000452182
0.00044736
0.000448572
0.000469901
0.000471647
0.000436013
0.000432588
0.000510288
0.000611217
0.015594
0.000441746
0.000437438
0.000430455
0.000432431
0.000436367
0.000455579
0.000460589
0.000442914
0.000431243
0.000462858
0.000435914
0.000451852
0.000472852
0.000443605
0.00042968
0.000451559
0.00043196
0.000475213
0.000431459
0.0004454
0.000444176
0.000446636
0.000552641
0.000440994
7.30425e-05
0.00043184
0.00044758
0.000459352
0.00336936
0.000430875
0.000444183
0.000550234
0.00043175
0.00043864
0.000478862
0.000443313
0.000431221
0.00547468
0.000435009
0.000399484
0.000444311
0.000432394
0.000831346
0.00360452
0.000346613
0.000472316
0.000647067
0.000505054
0.000715727
0.000429884
0.000447912
0.000436366
0.0172001
0.000397914
0.000453508
0.000484689
0.016786
0.000439176
0.00114522
0.000149499
0.00725831
0.000434576
0.000482918
0.000460869
0.000443987
0.000554626
0.000436681
0.000451411
0.000445008
0.000447155
0.000453777
0.000447494
0.000590966
0.00534835
0.000450615
0.000438512
0.000452673
0.0111953
0.000442667
0.000454135
0.000430989
0.000439073
0.000453862
0.0174383
0.000487045
0.000169778
0.00672594
0.000446921
0.000439172
0.000434175
0.000436534
0.000432603
0.000455905
0.000450052
0.000451559
0.000575568
0.000437191
0.000432442
0.000449619
0.000443229
0.000452911
0.00740705
0.000452918
0.000436461
0.000450778
0.000448757
0.000441272
0.000444152
0.000451241
0.0131324
0.000436936
0.000435249
0.000449188
0.000479939
0.000445109
0.000437654
0.00550899
0.000435351
0.000435838
0.000504774
0.000452295
0.000560378
0.000436855
0.000447954
0.000544177
0.000463942
0.000442851
0.000438915
0.00217827
0.000431342
0.000441724
0.000437209
0.000448676
0.000449134
0.000454504
0.000463373
0.000486368
0.00150586
0.00612204
0.000539477
0.000460754
0.000460709
0.000454045
0.000438962
0.000494222
0.000906955
0.000463788
0.00050799
0.000993076
0.000436488
0.00043629
0.000449391
0.000442241
0.000477073
0.000440702
0.000434109
0.0070214
0.000438806
0.000441839
0.000442851
0.0167735
0.000509242
0.000488707
0.000429829
0.000447485
0.000449303
0.000606966
0.000457217
0.000498346
0.00044724
0.000441092
0.000482126
0.000445858
0.00045239
0.000453074
0.000494664
0.000454014
0.000435148
0.000449565
0.00109832
0.000450149
0.000482703
0.000446828
0.000612056
0.000449027
0.000445581
0.000429814
0.000486156
0.000432424
0.000443265
0.000447859
0.000450651
0.000461639
0.000461624
0.000454417
0.000529807
0.000447057
0.000446974
0.000436837
0.000443365
0.000485871
0.00045001
0.000483298
0.000442416
0.000445678
0.0283208
0.000443815
0.000461052
0.000445118
0.00409537
0.000453296
0.00043792
0.00823458
0.000529383
0.000435215
0.000473629
0.000431072
0.00394941
0.000452848
0.000431641
0.000439874
0.000443762
0.00622468
0.00842834
0.000487322
0.000450796
0.000498709
0.000446245
0.000452631
0.00045953
0.00405107
0.00043858
0.000584914
0.000436241
0.00141929
0.000478525
0.000449351
0.000440862
0.000431082
0.000464703
0.000507171
0.000452236
0.000610464
0.000438195
0.000459723
0.000439797
0.000450599
0.000443027
0.00045438
0.00200263
0.000445893
0.000449794
0.0230378
0.000436977
0.000446194
0.000452759
0.000450571
0.000445345
0.000429858
0.00133182
0.000457136
0.000444511
0.00643436
0.000447042
0.00044931
0.000461355
0.000458875
0.000438239
0.0207732
0.000476695
0.000481136
0.000448494
0.000439125
0.000445024
0.0110614
0.000429208
0.000443286
0.000444223
0.000431564
0.000474368
0.0128582
0.00044566
0.000431279
0.000479505
0.000443292
0.0117114
0.000449804
0.000460141
0.000447346
0.000609292
0.0004912
0.000450635
0.000441405
0.000450742
0.0036096
0.000444993
0.000431219
0.000449257
0.000455191
0.000458201
0.00051579
0.000448152
0.000451662
0.000474338
0.000396512
0.000436244
0.000466715
0.00105482
0.000432645
0.000445458
0.000453183
0.000447349
0.000446421
0.000434133
0.000429389
0.000434029
0.000443777
0.000452098
0.00805531
0.000657335
0.000466103
0.000446418
0.000458356
0.000431405
0.00047701
0.000441407
0.00266099
0.000450661
0.000438631
0.000453379
0.00678003
0.000441192
0.000447376
0.0004477
0.000450399
0.000452709
0.000438353
0.000438161
0.00045016
0.000273153
0.000469852
0.000453624
0.0004472
0.000447769
0.000473809
0.000461674
0.000442235
0.000441028
0.0209327
0.000448138
0.000436952
0.000445867
0.000450079
0.000447316
0.00169896
0.000452822
0.0004535
0.000435826
0.000450086
0.0247014
0.000498362
0.000440923
0.0165911
0.000439214
0.000445945
0.000438975
0.000451596
0.000449987
0.00044721
0.000445298
0.00256739
0.000443767
0.000449263
0.000440085
0.000444131
0.000468402
0.000443844
0.00132988
0.000524212
0.000463321
0.000444433
0.000439793
0.000648587
0.000433608
0.000183858
0.000450013
0.000451806
0.00754755
0.000468685
0.000444151
0.00158984
0.000430723
0.00465262
0.0185201
0.000977352
0.000677475
0.000449578
0.000505303
0.000450011
0.000449203
0.000644242
0.000452703
0.000453381
0.000450259
0.000436817
0.0129032
0.000445166
0.000432563
0.000446222
0.000438123
0.000447911
0.000439387
0.00045328
0.000454893
0.00189763
0.000430609
0.000465061
0.0004599
0.000470987
0.000453185
0.000446915
0.000493359
0.000439248
0.000447612
0.000559599
0.000445519
0.000458338
0.000439233
0.000429657
0.000456049
0.000471639
0.000442012
0.000450739
0.000442199
0.000454979
0.000450686
0.000381795
0.000436117
0.000439063
0.000447856
0.0004588
0.00203692