/*--------------------------------*- C++ -*----------------------------------*\
| =========                 |                                                 |
| \\      /  F ield         | OpenFOAM: The Open Source CFD Toolbox           |
|  \\    /   O peration     | Version:  v2012                                 |
|   \\  /    A nd           | Website:  www.openfoam.com                      |
|    \\/     M anipulation  |                                                 |
\*---------------------------------------------------------------------------*/
FoamFile
{
    version     2.0;
    format      ascii;
    class       volVectorField;
    location    "350";
    object      U;
}
// * * * * * * * * * * * * * * * * * * * * * * * * * * * * * * * * * * * * * //

dimensions      [0 1 -1 0 0 0 0];


internalField   nonuniform List<vector> 
18540
(
(1.0729 9.07868e-05 1.07737e-20)
(1.02233 -0.00223658 0)
(1.02379 0.00131774 -6.20332e-22)
(1.0445 -0.0333599 -3.31722e-21)
(1.04606 -0.00165775 0)
(1.02342 0.000590059 0)
(1.03576 -0.00569445 -4.34689e-23)
(0.940246 -0.0847621 4.58456e-21)
(1.02209 -5.61941e-05 0)
(1.05036 -0.00748444 3.3476e-21)
(1.05465 0.0010016 0)
(1.03108 -0.0465129 -5.42682e-21)
(1.08191 -0.0459617 -2.57735e-20)
(0.773677 -0.0685357 4.24289e-21)
(1.04555 -0.00266784 0)
(1.02201 -5.05621e-05 8.58051e-23)
(1.02708 -0.00434707 2.08665e-22)
(1.03143 -0.0033417 0)
(1.02138 -0.000383824 0)
(1.03546 -0.0058087 5.54861e-24)
(1.09844 -0.00647318 -6.58868e-21)
(1.0204 -2.92984e-06 4.77671e-23)
(1.02181 0.000217908 -4.05704e-23)
(1.05732 0.00673736 0)
(1.02158 -0.000187533 -5.83139e-23)
(1.04622 -0.00272683 0)
(1.04497 0.00961403 -1.06382e-21)
(0.264256 -0.0575708 2.81379e-20)
(1.05495 -0.0375667 1.62055e-22)
(0.75903 -0.0637484 4.14694e-21)
(0.840544 -0.0909455 0)
(1.01877 -2.15289e-05 2.90035e-22)
(1.03473 -0.00751574 6.18935e-22)
(1.02659 -0.00420477 -7.32091e-23)
(1.04642 -0.0012215 4.50374e-21)
(1.02416 -0.00301075 0)
(1.04081 0.0256269 3.33522e-22)
(1.03954 -0.00212283 6.72013e-21)
(1.02404 -0.00183162 0)
(1.08231 -0.00069636 1.63969e-20)
(1.102 0.0062186 0)
(1.02191 -0.00258367 8.28729e-24)
(1.03359 0.00173647 0)
(1.03088 -0.00661973 0)
(1.02443 -0.00175094 0)
(1.02123 -8.13616e-05 2.88023e-22)
(0.93739 0.0736928 -2.29797e-23)
(1.02477 -0.00433098 0)
(1.02497 0.0013565 0)
(1.03895 -0.0347544 -1.37213e-21)
(1.04373 0.020749 0)
(1.01946 -5.99102e-05 -8.08151e-23)
(1.0202 -9.26378e-05 0)
(1.10236 0.0125824 -1.56777e-20)
(1.04168 -0.0252227 -2.82499e-21)
(0.901387 -0.0885255 2.35997e-21)
(1.0836 -0.00031329 -2.14905e-20)
(1.04115 -0.006679 -2.60302e-21)
(1.07395 0.000364562 -8.61039e-21)
(1.09671 -0.00693873 0)
(1.05137 0.0100767 -3.40645e-21)
(1.02597 -0.00204304 -4.08333e-22)
(1.02319 -0.00145794 -4.87277e-22)
(1.02043 -0.000290017 0)
(1.02138 -0.000392994 0)
(1.02158 -4.30746e-05 1.85457e-22)
(1.02566 -0.00336683 0)
(1.04074 -0.0261361 0)
(1.03318 -0.0453145 0)
(1.02049 -0.000309977 0)
(1.0226 0.00103475 2.24839e-22)
(1.0532 -0.0378031 1.09745e-20)
(1.02492 -0.00576788 8.64118e-23)
(1.02172 -0.000619375 0)
(1.02532 0.00126995 5.11293e-22)
(0.879362 -0.122514 -4.64154e-22)
(1.07895 -0.0472446 -1.18147e-20)
(1.04526 -0.00310046 0)
(1.02252 0.000920201 3.4237e-22)
(0.879573 -0.0816048 -2.54959e-21)
(1.02433 -0.0016705 0)
(1.03543 -0.00343863 2.89924e-21)
(1.0191 2.91817e-05 0)
(1.02285 -0.00109685 -4.2164e-23)
(1.05523 0.000646595 -4.96753e-21)
(1.0226 0.000750343 0)
(1.10372 -0.0243755 5.4688e-21)
(1.02025 -2.56909e-05 -1.38152e-22)
(1.02707 -0.00474375 3.47205e-22)
(1.03897 -0.0371531 0)
(1.02749 -0.0392164 8.05172e-23)
(0.0033587 0.0178238 2.92326e-20)
(1.07966 -0.0416596 0)
(1.03756 0.0064166 1.10705e-21)
(1.02104 -4.15606e-05 7.86273e-23)
(1.02439 0.0009599 0)
(1.10584 -0.0247503 4.238e-23)
(1.03052 -0.000833636 1.30488e-21)
(0.998014 -0.0217168 -9.19622e-22)
(1.03564 -0.00524779 1.75827e-22)
(1.02098 -3.63877e-05 1.23106e-22)
(1.03011 0.000547139 0)
(1.03592 -0.00512433 -1.88124e-22)
(1.02085 -2.27318e-05 0)
(1.02191 -4.55796e-05 3.24381e-22)
(1.02107 -3.90441e-05 0)
(1.03555 -0.00625357 2.75179e-21)
(1.04127 -0.0132541 -5.47574e-22)
(1.02455 -0.00484213 6.93688e-23)
(1.02551 0.00355483 1.59705e-22)
(1.06614 0.00113701 8.05349e-21)
(1.02173 -0.00060664 -6.24239e-23)
(1.02704 -0.00460525 -3.24063e-22)
(1.03362 0.00142708 0)
(1.02101 -3.33256e-05 -1.27251e-22)
(1.02091 -2.99783e-05 0)
(1.02404 -0.00146289 9.70819e-23)
(1.03066 -0.00294524 1.00988e-21)
(1.03053 -0.00693791 -1.2273e-21)
(1.02375 0.00141967 -5.45734e-22)
(1.03027 -0.000670165 -3.96431e-23)
(-0.0173291 0.0205271 0)
(1.09133 -0.0315875 9.32517e-21)
(1.02605 -0.00169816 1.16781e-22)
(1.04442 -0.0104693 -3.69101e-21)
(1.03107 -0.000191482 0)
(1.03524 -0.00636042 0)
(1.02349 -0.0373071 -3.98196e-24)
(1.02127 -0.000386141 -6.81088e-23)
(1.05419 0.0141143 0)
(0.966258 -0.063894 0)
(1.03085 -0.00694159 1.39145e-21)
(1.02305 -0.00130158 0)
(1.08741 -0.0298927 -1.00186e-20)
(1.0211 7.2682e-05 -1.36538e-22)
(1.04652 -0.00225233 0)
(1.02338 -0.000341746 0)
(1.06563 0.000382182 -6.9207e-21)
(1.02297 -0.00128682 2.56326e-22)
(1.02094 -2.63738e-05 0)
(1.02361 0.00058141 0)
(1.02302 -0.00039502 0)
(1.02545 0.00337457 1.25322e-22)
(1.05078 0.00960153 0)
(1.04094 -0.0336802 0)
(1.0414 -0.0162751 -2.72176e-21)
(1.04297 -0.0349817 1.05594e-20)
(0.878962 -0.10565 0)
(1.02061 -7.32686e-05 2.64599e-22)
(1.02101 -0.000170765 0)
(1.06903 -0.00109701 3.14251e-20)
(1.02953 -0.00617708 0)
(1.02293 -0.00108863 0)
(1.03933 -0.00165958 -4.01395e-21)
(1.02294 -0.00112916 0)
(1.01895 2.58954e-05 0)
(1.02702 -0.00777547 0)
(1.02404 -0.00158883 1.00051e-22)
(1.02554 -0.00195638 -4.88789e-22)
(0.940257 0.023235 2.80767e-21)
(1.01937 -0.0163838 4.5419e-22)
(0.932745 -0.0229168 1.64655e-20)
(1.04098 -0.0160976 2.87458e-21)
(0.84965 -0.10889 -3.58257e-22)
(1.03938 -0.015581 -3.33063e-21)
(1.02403 -0.00155167 8.8047e-23)
(1.03508 -0.0111943 -1.08638e-21)
(1.02589 -0.00165536 1.36408e-21)
(1.02622 -0.00274744 0)
(1.04387 -0.010497 3.47194e-21)
(1.03336 -0.000511093 1.95441e-22)
(1.02264 0.000863771 0)
(1.02975 -0.011381 -4.60971e-22)
(1.00526 -0.0557901 1.7401e-20)
(1.00477 -0.025373 -8.28184e-22)
(1.0277 -0.00838148 3.91059e-23)
(1.01857 -4.82586e-05 -3.66326e-23)
(0.0804978 0.0050441 -7.46531e-21)
(1.02274 -0.00014859 -6.32912e-22)
(1.02571 -0.00202307 3.9333e-22)
(0.929618 -0.0213911 7.39594e-23)
(1.02471 -0.00432363 -1.46643e-22)
(1.03168 -0.00425937 -1.51659e-21)
(1.02046 -3.32446e-05 1.4658e-22)
(1.03607 -0.0045176 -1.4994e-21)
(1.03461 -0.0113679 -2.11922e-21)
(0.0888042 0.000743018 4.89812e-20)
(1.05254 0.001331 -1.41978e-22)
(1.03327 -0.0422789 -1.54632e-22)
(1.10429 0.0008844 -1.63141e-20)
(1.03046 -0.0154413 -5.92301e-22)
(0.850914 -0.108227 8.9181e-24)
(1.03888 0.00055166 -3.93e-21)
(0.942634 -0.0591366 2.89877e-21)
(1.04246 -0.00624969 -1.81774e-21)
(1.02604 -0.00199611 -5.24511e-22)
(1.02354 -0.0115713 1.17807e-21)
(0.92535 -0.00488541 9.82451e-21)
(1.02362 0.000179169 2.44105e-22)
(1.03956 -0.0155482 3.98655e-21)
(1.03359 -0.00330912 2.21234e-21)
(0.0597975 0.00360741 -4.61705e-20)
(1.02404 -0.00162128 8.96191e-23)
(1.05209 0.00983626 0)
(1.02165 5.60837e-05 1.73961e-23)
(1.0222 -0.000246378 -3.38997e-24)
(0.994315 -0.0237163 -8.28847e-22)
(1.03125 0.00159389 -1.73064e-22)
(0.987124 -0.0261813 0)
(0.885795 -0.0441414 -5.8577e-21)
(1.02584 0.000748829 -6.10245e-22)
(1.03577 -0.00468013 2.76797e-21)
(1.03865 0.00173207 4.21261e-21)
(1.02407 -0.00252157 0)
(1.12 0.00241832 -2.35255e-22)
(0.824558 -0.0920372 -7.35816e-21)
(1.0241 -0.00211289 7.32993e-24)
(1.02533 -0.00418212 0)
(1.0322 -0.0498237 5.43444e-21)
(0.943727 -0.00434819 0)
(1.05028 -0.0240378 0)
(1.02489 0.000117292 0)
(0.864403 -0.10846 1.71181e-22)
(1.02035 -0.00232828 3.75252e-22)
(1.04775 -0.00595935 6.8243e-21)
(1.03095 -0.00302171 0)
(0.99911 -0.0280444 -6.06798e-22)
(1.08249 -0.0325313 -1.84558e-21)
(1.03233 -0.0165393 1.71174e-21)
(1.02578 -0.00439317 -2.26524e-23)
(1.02575 -0.00449187 2.6015e-22)
(1.04591 0.00859063 4.56008e-21)
(0.578146 0.0304108 0)
(1.12145 0.000928107 1.06122e-20)
(1.08051 -0.0395454 0)
(1.10216 0.00787605 -3.24523e-22)
(1.10549 -0.00184746 -7.89531e-21)
(1.05746 0.00479917 5.63342e-21)
(1.02515 0.000119841 0)
(1.03725 0.00669031 1.19227e-21)
(1.02755 -0.00375331 1.76512e-22)
(1.06434 -0.0229608 0)
(1.05959 0.0137762 0)
(1.02073 -7.21073e-05 2.0659e-22)
(1.02148 -4.2316e-05 -2.76973e-22)
(1.02315 -0.00142039 3.11746e-22)
(1.01619 -0.00343303 -8.05677e-22)
(1.04195 -0.00787737 -2.92037e-21)
(1.05956 0.0129969 6.37347e-21)
(1.02986 0.000192964 -1.32281e-22)
(1.03117 -0.00659639 0)
(0.937549 -0.0350828 9.4498e-21)
(1.02306 -0.00117704 -2.45825e-23)
(1.02413 0.000443203 -1.21309e-21)
(0.953265 0.00766294 -6.27685e-21)
(1.05009 -0.0249118 0)
(1.02469 -0.0112911 -4.44224e-22)
(1.05543 -0.00779072 7.77333e-22)
(1.03646 -0.0383768 6.61643e-22)
(0.921042 -0.00642849 0)
(0.972107 -0.0144201 0)
(0.998217 0.00516368 -1.81161e-22)
(0.937586 0.00521024 0)
(1.02332 -0.00240857 1.34378e-22)
(1.024 -0.00197002 -1.60445e-22)
(0.964242 0.067999 -6.02942e-23)
(1.02348 -0.00133178 -2.02449e-22)
(1.03531 -0.00680282 0)
(0.955088 -0.00440781 1.0495e-20)
(1.0318 0.00309583 0)
(1.02123 4.9026e-05 -2.48798e-22)
(1.03126 0.000546281 0)
(1.02135 -1.84001e-05 1.36371e-22)
(1.022 -4.23285e-05 -3.49566e-22)
(1.02056 -0.000326455 0)
(1.02356 -0.00141254 2.12431e-22)
(1.03501 -0.00693565 -2.26872e-21)
(1.10649 0.00520949 -1.70285e-20)
(0.977656 -0.007097 0)
(1.02732 -0.00265415 2.04877e-22)
(1.02066 -5.81577e-05 -2.61274e-22)
(1.03382 -0.00309852 2.35751e-21)
(1.09253 -0.00623959 0)
(1.0257 0.00053063 5.41071e-22)
(1.01736 -0.00456641 0)
(0.299699 -0.0251458 -3.08267e-20)
(1.03162 -0.00353266 0)
(1.03397 -0.00667763 -5.10162e-22)
(1.03234 0.000599322 2.91484e-22)
(0.894195 0.00994432 2.26122e-21)
(1.024 -0.00189833 1.16696e-22)
(1.02958 -0.00995039 1.18326e-21)
(1.08468 -0.0330427 0)
(1.03549 -0.0114365 -1.00514e-21)
(1.02602 0.00475193 -1.44308e-21)
(1.03323 0.00130235 0)
(1.026 -0.00568603 -2.76436e-22)
(1.02281 0.000286996 0)
(1.05765 0.00545222 -6.1543e-21)
(1.06421 -0.033161 -8.05898e-21)
(1.02129 -0.000159076 0)
(1.0297 -0.000612648 0)
(1.02573 0.000446485 6.93073e-22)
(0.95702 0.00898995 -6.03211e-22)
(1.1058 -1.07475e-05 2.51754e-20)
(1.02399 0.000417363 0)
(1.04031 -0.0129994 -2.00248e-21)
(1.02254 0.00111915 -1.97521e-22)
(1.02647 -0.0303974 -4.19643e-23)
(1.02121 -0.000148062 0)
(1.03501 -0.00337841 -2.57343e-21)
(1.04822 -0.00549448 -1.32399e-21)
(1.02085 -7.82509e-05 -2.05369e-22)
(1.02178 -0.000292098 1.09676e-23)
(1.10219 0.0110181 0)
(1.02028 0.00126599 -2.26904e-22)
(1.02921 -0.00167797 3.84785e-23)
(1.03056 -0.0108969 1.09923e-21)
(1.0214 -0.000255872 2.5225e-23)
(1.03299 -0.0155845 0)
(1.02464 0.00342453 0)
(1.04452 0.00923969 -2.94372e-21)
(1.02139 -0.000137196 -1.10781e-22)
(1.02156 4.95713e-05 -1.72949e-22)
(0.9658 0.0112215 3.28375e-22)
(1.02047 -7.17093e-05 0)
(1.02386 -0.00151856 -2.09024e-22)
(1.04154 -0.0180959 1.93131e-21)
(1.03265 -0.00284219 -2.26656e-21)
(1.0238 -0.00295883 -2.75133e-22)
(1.04563 0.00214813 0)
(1.02159 6.87211e-05 0)
(1.02545 -0.00342551 0)
(1.02589 0.000634571 -6.56988e-22)
(1.02216 -0.000244682 1.18623e-22)
(1.04366 -0.0111858 0)
(0.988999 0.00407934 3.64434e-22)
(1.022 -0.000697444 -7.82946e-23)
(1.04205 -0.016998 4.45835e-21)
(1.03476 -0.00364788 0)
(1.03107 -0.0109848 0)
(1.02644 -0.00166767 -1.26011e-21)
(1.04511 0.00244928 0)
(1.02593 -0.00147591 2.41313e-22)
(1.03506 -0.00736838 7.22508e-22)
(1.05299 -0.0666007 2.21653e-21)
(1.03422 -0.0110247 1.75782e-21)
(0.879313 -0.126763 1.66631e-21)
(1.01376 -1.27124e-05 0)
(1.03367 -0.00685178 2.50038e-21)
(1.02051 -0.000217031 0)
(1.02171 0.00020775 0)
(1.04975 -0.00722096 -3.35467e-21)
(1.02395 -0.0289592 5.09919e-23)
(1.03003 -0.0058857 0)
(0.871724 0.0280205 5.03534e-22)
(1.03903 0.000955143 0)
(1.02192 -0.000667724 1.81222e-22)
(1.04537 0.0302503 -1.40694e-22)
(1.03323 0.000999262 2.25585e-21)
(1.02375 -0.000217895 -7.5173e-22)
(1.04381 -0.0114566 0)
(1.03969 -0.0155086 -2.58321e-21)
(1.10695 -0.00285665 -1.69138e-20)
(1.04259 -0.0167501 -4.75427e-21)
(1.02697 -0.00392505 0)
(1.04222 0.0013739 -1.84907e-21)
(1.03145 -0.00289629 7.39298e-22)
(1.02154 1.30056e-06 0)
(1.03903 -0.0137834 0)
(1.02536 -0.00339125 0)
(1.04933 0.00329933 1.21132e-22)
(1.02425 0.0011679 0)
(0.838507 0.0369256 0)
(1.03712 -0.0561912 7.60569e-21)
(1.06686 -0.0124007 6.67661e-22)
(1.0456 0.00948553 1.42096e-21)
(1.04101 -0.01496 -1.57235e-21)
(1.0535 0.013619 -1.03086e-21)
(1.02686 -0.00344279 0)
(0.58784 0.0280898 0)
(1.02291 -0.000280275 -9.76229e-23)
(1.05961 0.00362008 -8.8953e-21)
(1.03053 -0.00268208 6.39693e-22)
(1.03482 -0.0177048 0)
(1.05495 -0.000128507 9.34302e-21)
(1.02425 -0.000612617 0)
(1.042 0.000984571 1.4962e-21)
(1.02161 -0.0154247 -5.17383e-22)
(1.10938 -0.0272574 -1.59119e-20)
(1.02426 -0.000818169 -2.5442e-22)
(1.12355 0.016557 -5.51612e-20)
(1.02281 -0.00103499 6.51111e-23)
(1.0071 0.0109125 -4.02898e-22)
(0.96584 0.0588221 0)
(1.10258 -0.0266396 -1.80009e-20)
(1.02113 -4.32524e-05 0)
(1.03149 -0.00626298 3.06195e-21)
(1.04684 -0.0722876 -2.31737e-21)
(1.03192 -0.00415992 0)
(1.02141 0.000132943 -1.99481e-22)
(0.831389 0.0430048 1.5631e-22)
(1.03591 -0.0161978 -1.09807e-21)
(1.02791 -0.0153854 7.51044e-22)
(1.02156 -0.000211353 1.62053e-23)
(1.04124 -0.00725806 2.34141e-21)
(1.02645 -0.00321133 0)
(1.08209 -0.0434237 1.46809e-20)
(1.01904 -0.00011249 -3.32359e-22)
(1.02721 0.000317672 2.04485e-22)
(1.05889 -0.043141 -5.28346e-22)
(1.02153 -0.000513844 0)
(1.02659 -0.00332179 -1.06648e-22)
(1.02636 0.00483132 -8.16419e-22)
(1.02605 -0.0129423 -7.40974e-22)
(1.04467 0.000305579 -5.95535e-23)
(1.02135 -0.000553433 1.90498e-22)
(1.03543 -0.0172942 -2.83382e-21)
(1.02605 -0.0026602 3.09743e-22)
(1.05761 -0.00748561 -5.57085e-22)
(0.896932 0.039225 0)
(1.02725 -0.0002585 0)
(1.02132 0.000130931 -7.4973e-26)
(1.02274 -0.00353598 -1.58535e-22)
(1.03977 -0.0155865 3.7583e-21)
(1.03854 -0.00130375 0)
(1.02115 -4.6489e-05 -1.57842e-22)
(1.0247 0.000977611 0)
(1.0008 -0.0278105 -6.38958e-22)
(1.02594 -0.00185657 0)
(1.04796 -0.00660203 0)
(1.05011 0.00993867 0)
(1.02127 0.000141252 1.67194e-22)
(1.04012 -0.00123314 2.61451e-21)
(1.02159 -0.000135108 1.51138e-22)
(1.02136 0.00014333 -8.2107e-23)
(1.02127 -0.000399361 -6.62744e-23)
(0.996163 0.0109448 0)
(1.02345 -0.00125524 0)
(1.05564 -0.00579397 1.05677e-20)
(0.897038 0.0336607 0)
(0.990843 0.0135363 7.2403e-22)
(0.352249 -0.0269072 4.32977e-20)
(1.02691 0.000821442 4.29775e-22)
(1.02164 -0.000771484 -4.91752e-23)
(1.02401 -0.00222933 1.57395e-22)
(1.02716 -0.000361361 -7.88643e-22)
(0.955498 -0.0232867 2.09896e-22)
(1.02166 0.000190643 8.10474e-23)
(1.02107 -0.000393026 -1.84866e-22)
(1.12186 0.0162769 0)
(1.02271 -0.000999325 5.41976e-23)
(1.02118 6.94733e-05 -8.31953e-23)
(1.02227 -0.00254533 0)
(1.02139 -2.97121e-05 0)
(1.02222 -0.00315877 4.96175e-22)
(0.811214 -0.0758712 0)
(1.02282 -0.00105239 6.31652e-23)
(1.02534 -0.012878 7.40878e-22)
(1.02482 0.00554553 -4.84643e-22)
(1.03024 -0.00261991 -9.65453e-22)
(1.03909 0.00187621 0)
(0.958123 0.00998124 -8.69386e-22)
(1.02161 -4.75052e-06 -2.38168e-22)
(0.88266 -0.0891601 0)
(1.01467 -0.00533614 2.11233e-22)
(1.02402 -0.00213163 -1.11331e-22)
(0.988857 -0.0416421 3.28717e-22)
(1.02161 -0.000537883 -3.58236e-23)
(1.05394 -0.0167944 -2.46971e-22)
(1.02618 -0.00354332 -1.11834e-22)
(0.968039 0.015814 3.92749e-22)
(1.02546 -0.00115295 -8.57696e-22)
(1.02809 0.00693819 9.8001e-22)
(1.02439 -8.26516e-05 -3.55796e-23)
(1.02406 -0.00240663 0)
(1.00934 -0.0121816 -5.72237e-22)
(1.02547 0.000400269 2.68887e-23)
(1.02641 -0.00418117 -1.05858e-22)
(1.02213 -0.000235014 -3.79545e-23)
(1.09709 -0.0279581 0)
(1.02415 -0.000117828 3.36294e-23)
(1.08711 -0.0224166 1.68247e-20)
(1.04018 0.00168062 6.11042e-23)
(1.02606 -0.00182228 4.78041e-22)
(1.01349 -0.000121505 -1.71764e-22)
(1.11072 -0.0254062 -1.85744e-20)
(1.05697 0.00601484 1.2799e-22)
(0.968384 -0.0647124 0)
(1.02013 -0.000136467 3.98206e-22)
(1.10044 -0.0264206 0)
(1.02184 -8.74139e-05 6.28967e-25)
(1.03122 -0.0371807 2.26311e-21)
(1.07418 -0.0115137 -3.07229e-21)
(1.00372 0.0435542 -6.68033e-22)
(1.01719 -0.00406565 -8.61359e-22)
(1.0856 -0.0125017 0)
(1.02172 -9.81252e-05 1.00829e-22)
(1.03279 -0.00231186 2.32226e-21)
(1.02188 0.000457325 -1.96044e-23)
(1.08409 -0.0553802 -1.40586e-20)
(1.02283 0.000383125 -3.33825e-22)
(1.06435 -0.0715968 -4.77179e-21)
(1.02118 3.46434e-05 -2.75244e-23)
(1.05397 -0.00909565 -2.61531e-22)
(1.02082 -3.2848e-05 1.58164e-22)
(1.02153 -0.000567756 -1.28451e-22)
(1.0265 -0.00361627 3.85358e-22)
(1.03248 -0.0023417 -1.91827e-21)
(1.02804 0.0063626 -1.06621e-21)
(1.02528 -0.0035481 0)
(1.06213 -0.0729595 -1.47911e-20)
(1.07299 -0.0112816 0)
(1.04212 0.0279383 1.18546e-21)
(1.02256 0.000406086 1.54962e-22)
(1.11813 0.00230384 -1.43903e-20)
(1.02635 0.000678462 -2.10999e-22)
(1.02686 -0.00388687 -3.43319e-22)
(1.01619 -0.00558913 0)
(1.0214 -2.06052e-05 -8.76969e-23)
(1.02585 -0.00150677 2.8011e-22)
(1.04036 -0.000765204 -6.77268e-22)
(1.02144 -0.000556982 0)
(0.968614 -0.0613978 0)
(1.03856 -0.01224 -5.96059e-22)
(1.01956 0.0338522 0)
(1.02776 -0.00384689 -6.60534e-22)
(1.0225 -0.000867827 0)
(1.03064 -0.00784754 0)
(0.997808 -0.0488364 2.12071e-22)
(1.02091 -1.18807e-05 -1.57123e-22)
(0.919032 -0.0935325 -2.43167e-21)
(1.05544 -0.000683173 0)
(1.02113 0.000339825 1.36891e-23)
(1.0216 -1.67835e-05 -3.44118e-22)
(1.02143 -0.000142922 0)
(1.02665 -0.00382365 -1.47561e-22)
(1.02244 -0.000837191 -7.34972e-23)
(1.03371 -0.00363464 -2.17967e-21)
(1.06068 -0.0206166 -1.21553e-22)
(1.02398 -0.0190254 0)
(1.02224 0.000753329 0)
(0.920539 -0.0359042 -3.25212e-23)
(1.0228 0.000394989 8.11103e-22)
(1.02317 -0.0015894 3.43803e-23)
(1.0773 -0.0679577 -1.17968e-20)
(1.08916 0.0152729 0)
(1.02415 -0.000295872 -8.59629e-22)
(1.05335 -0.0673105 -2.05518e-21)
(1.10379 0.0102316 0)
(1.04597 0.00911179 0)
(1.02189 2.88216e-05 1.91223e-22)
(1.06405 -0.00668021 0)
(1.01825 -0.00436268 7.03536e-22)
(1.02151 0.00019283 0)
(1.03011 -0.0148411 -7.26683e-23)
(1.00447 -0.0413396 -2.25779e-22)
(1.02154 -0.00013922 -9.58827e-23)
(0.967774 0.0670571 5.53668e-23)
(1.0242 -0.00149575 -1.01887e-22)
(1.04472 0.00337108 -8.16166e-21)
(0.865471 -0.119587 2.93712e-22)
(1.08081 -0.0567805 -2.47408e-20)
(1.02176 8.89882e-05 -1.05827e-23)
(0.117596 -0.00881157 -9.65021e-21)
(1.02135 -4.35743e-05 0)
(1.02592 -0.00407769 -2.31796e-23)
(1.04241 -0.000721116 0)
(1.03178 -0.00685248 -7.23582e-22)
(1.09982 -0.00717774 2.48151e-20)
(1.04261 -0.000319956 3.85006e-21)
(1.05241 -0.0752563 0)
(0.836862 -0.0606093 -4.25094e-21)
(1.0262 -0.0040592 4.49537e-23)
(1.08297 -0.0392133 9.40999e-21)
(1.12421 0.0180504 4.85383e-20)
(1.0792 -0.0504432 0)
(1.02104 -0.00325517 -7.43417e-23)
(1.02151 1.97233e-05 0)
(0.932628 0.0468451 -2.61812e-22)
(1.02552 -0.0243359 -7.96234e-24)
(1.02405 -1.38284e-05 2.35506e-22)
(1.02826 0.00618229 0)
(1.07747 -0.00871408 0)
(1.02102 -8.82084e-05 -3.41457e-22)
(1.01771 -2.21016e-05 1.75535e-22)
(1.02686 -0.00414063 2.92779e-22)
(1.03125 0.000827087 -4.40779e-22)
(1.04022 0.00590979 -3.32171e-21)
(1.0403 0.00498324 -3.87876e-22)
(1.04521 0.00315132 -1.15073e-22)
(1.02404 -0.00130046 0)
(1.0329 -0.00607224 0)
(1.03223 -0.00559475 1.37697e-21)
(1.02107 -0.000405092 6.26008e-23)
(1.00115 -0.0319242 6.03905e-22)
(1.02399 -0.00148306 -8.67258e-23)
(1.02626 -0.00164965 1.00348e-21)
(1.0224 -0.0175002 -1.05599e-22)
(1.02269 -0.000980414 -6.4042e-23)
(1.0229 0.000459522 0)
(1.02328 -0.0227007 0)
(1.02455 0.00324316 6.03864e-23)
(1.02182 0.000214265 1.5706e-22)
(1.02193 0.000222537 -2.37512e-22)
(1.0322 -0.00299142 -4.94511e-22)
(1.02116 -5.51324e-05 0)
(1.0303 -0.0114329 -1.13801e-21)
(1.02029 7.64119e-05 5.45115e-23)
(1.02138 -5.03755e-05 0)
(1.02181 0.000448092 2.46656e-23)
(1.01906 -0.00323449 0)
(1.13226 0.0162159 0)
(0.99012 -0.00240524 -3.61596e-22)
(1.02328 -0.00163165 1.73803e-23)
(1.02462 -0.00277771 -2.01135e-25)
(1.02671 -0.00307894 0)
(1.04906 -0.00627791 -5.68187e-21)
(1.03244 -0.00257367 0)
(1.02351 0.00166736 -1.67694e-23)
(1.04473 0.00740819 -3.53203e-21)
(1.02297 -0.00131694 1.88314e-23)
(1.0247 -0.000507598 1.62101e-22)
(1.02173 -0.00079691 0)
(1.02765 -0.0146879 -7.48145e-22)
(1.02303 -0.00125319 -4.38198e-22)
(1.03153 0.00321568 -6.16431e-22)
(1.02228 0.039841 -3.03147e-21)
(1.02399 -2.88705e-05 0)
(1.03068 0.00146632 0)
(1.03434 -0.00354042 6.30622e-23)
(1.02159 0.000190561 -2.08904e-24)
(1.0233 -0.000241264 -2.71854e-22)
(1.02826 -0.0100724 0)
(1.05877 0.0143193 -7.47486e-23)
(1.03113 -0.00719085 0)
(1.02294 -0.00114401 0)
(1.03181 -0.0140384 0)
(1.01231 0.0444198 -1.20386e-21)
(1.02683 -0.00307672 -6.11796e-22)
(1.09313 -0.000656791 1.89695e-20)
(1.03439 -0.00729479 1.27685e-21)
(1.02349 -0.000684959 -8.4707e-22)
(1.09155 -0.0198472 -1.8621e-20)
(0.979727 0.0510717 -1.05116e-21)
(1.08892 -0.0178051 -2.7748e-20)
(1.02065 -8.09078e-05 0)
(1.01214 -0.058325 5.68394e-21)
(1.03251 -0.00550622 1.78522e-21)
(1.02476 -0.000604111 1.461e-22)
(1.02477 -0.00143818 0)
(0.982949 0.0547996 5.14087e-22)
(1.02411 -0.00137472 -2.35194e-23)
(1.05455 0.00182607 -5.49243e-21)
(1.0199 -0.00348499 0)
(1.05001 0.0106473 3.77859e-21)
(1.02352 -5.49543e-05 0)
(1.02467 -0.0105466 -3.10257e-22)
(1.0569 0.00728098 0)
(1.04019 0.006358 0)
(1.02113 -2.74063e-05 -4.5568e-24)
(1.0516 -0.0502416 -5.80173e-22)
(1.02663 -0.00372185 1.54823e-22)
(1.02142 3.48883e-05 8.32765e-23)
(1.0551 -0.00143778 -5.20455e-21)
(1.02676 -0.0039322 6.95791e-23)
(1.02123 0.000355154 -7.6986e-24)
(1.03073 -0.00784644 -9.52893e-23)
(1.05869 -0.0662916 1.76154e-21)
(1.0264 -0.00359543 -6.72272e-22)
(1.04934 0.0108678 3.58467e-21)
(1.02182 -0.00069081 -3.63515e-22)
(1.02628 -0.00348746 5.81592e-22)
(1.06567 -0.0223083 7.95767e-21)
(1.02531 -0.00341886 0)
(1.02151 7.78665e-05 1.77502e-22)
(1.02233 -0.000989481 9.22202e-23)
(0.994022 0.024935 0)
(1.06057 -0.0220824 6.64351e-21)
(1.02364 -0.000185371 6.44877e-22)
(1.04641 -0.00423264 -4.98027e-21)
(1.04156 -0.00642437 -2.87757e-21)
(1.02538 -0.00348356 8.59594e-23)
(1.01325 -0.000659111 0)
(1.02554 -0.00132971 -4.53476e-22)
(1.10343 0.00523404 0)
(0.962558 0.00220503 -9.05674e-22)
(1.02259 -0.000940105 -3.31947e-23)
(1.0215 6.95655e-06 1.71637e-22)
(1.02406 -0.00136771 -2.38657e-23)
(1.06852 -0.0414864 3.27072e-21)
(1.02239 1.75924e-06 2.08357e-25)
(1.02228 -1.63857e-05 2.16283e-22)
(1.0213 -0.0006219 1.03101e-23)
(1.05004 0.0252473 1.97755e-22)
(0.87981 -0.0388499 1.88394e-20)
(0.131413 -0.00931094 2.79688e-20)
(1.08212 -0.0304234 1.41275e-20)
(1.02162 0.000196268 -1.76147e-22)
(1.03617 0.000921983 2.82224e-21)
(1.08793 -0.0243882 -1.764e-20)
(1.02068 0.000273555 7.79852e-23)
(1.07153 0.00318053 -5.64155e-21)
(1.05552 -0.00200876 -1.07351e-20)
(1.06297 -0.0370814 0)
(0.965951 0.0233446 -1.08906e-21)
(1.0257 -0.00260339 -1.02452e-21)
(1.10377 0.00866126 -3.35505e-22)
(1.04194 -0.0121712 2.23638e-21)
(1.02357 -0.00133218 0)
(1.03018 0.00400366 2.27756e-22)
(1.04351 0.00851276 0)
(1.02341 -0.000626298 0)
(1.05205 -0.0186829 6.23476e-21)
(1.05885 0.00641872 5.77241e-21)
(1.02123 -0.000599052 5.16107e-24)
(1.02407 -0.0102526 3.35541e-22)
(1.02982 -0.0103815 -1.01883e-21)
(1.02114 5.41729e-05 1.70453e-22)
(1.06572 -0.0342741 8.97622e-21)
(1.09551 -0.00554908 2.95721e-21)
(1.0262 -0.0031067 -8.50218e-23)
(0.998202 0.0511378 3.81314e-21)
(1.02556 -0.00109832 -5.49972e-22)
(0.948684 0.0336702 0)
(1.02245 -0.000796134 -4.84428e-22)
(1.1334 0.0125644 0)
(0.950629 0.0251725 1.47384e-21)
(1.02124 -2.41797e-06 0)
(1.06846 0.0122652 -2.16725e-22)
(1.0658 -0.00492143 7.84713e-21)
(1.02304 -0.00133045 -6.78338e-23)
(0.806602 -0.0379966 -2.75014e-21)
(1.05995 -0.00119869 6.80106e-21)
(1.03579 0.00100237 -2.59754e-21)
(0.899088 -0.0731248 2.48294e-21)
(1.0205 0.00106952 2.04543e-22)
(1.02312 0.000541991 0)
(1.02145 3.40345e-05 -1.91221e-23)
(1.02337 -0.000536369 -5.43699e-22)
(1.04865 -0.0362989 0)
(1.08256 -0.0520279 3.46846e-21)
(1.02897 -0.000363059 -9.01716e-23)
(1.02157 8.66607e-05 5.52238e-23)
(1.06764 0.0127606 -1.08663e-20)
(1.03084 0.00306496 1.45811e-21)
(1.02343 -0.00164947 -6.36853e-23)
(1.0706 0.00274915 1.22819e-20)
(1.02951 -0.0108553 0)
(1.02255 -0.00018334 5.39168e-23)
(1.06037 -0.000501343 0)
(1.02541 0.00540174 -7.83873e-22)
(1.05923 -0.0224935 -6.12937e-21)
(1.02055 -0.000310422 2.46085e-23)
(1.02166 3.8299e-05 8.66018e-23)
(0.97511 -0.0428938 -7.91625e-22)
(0.993871 0.0466631 0)
(1.04669 -0.0361038 5.43098e-23)
(1.03542 -0.00144979 0)
(1.02204 -0.000781562 1.87216e-22)
(1.07607 -0.0129009 9.0639e-21)
(1.02306 -0.0015259 -3.87711e-23)
(0.893889 -0.0748748 -3.1019e-21)
(1.02993 0.00382173 2.15522e-22)
(1.02137 -0.000434613 1.91879e-22)
(1.06529 -0.0276622 0)
(1.03262 -0.0130152 1.02576e-21)
(1.06234 -0.0389388 -9.59812e-21)
(1.02361 -0.00259307 1.34981e-22)
(1.02316 -0.00111051 -1.96025e-22)
(1.02328 0.00057247 5.57052e-24)
(1.12094 -0.000998957 -3.03371e-20)
(1.02471 -0.0028242 -9.3442e-23)
(1.12241 -0.00471229 -4.54762e-22)
(1.04339 -0.0119328 -3.92738e-21)
(1.04161 -0.00927874 9.7601e-22)
(1.06864 -0.0705092 0)
(1.0279 0.00036447 -5.39208e-24)
(1.02397 0.00286399 8.71225e-22)
(1.02909 0.026582 0)
(1.02466 -0.00183241 2.79458e-22)
(1.06041 -0.0425342 -2.9758e-21)
(1.02698 -0.00345022 0)
(1.02781 -0.00245679 2.46412e-22)
(1.03985 -0.0158882 0)
(1.02505 -0.00189595 3.49357e-22)
(1.03831 -0.00568017 0)
(1.03418 -0.0190484 -2.45168e-21)
(1.02684 -0.00445982 2.60853e-22)
(1.03944 0.000785073 -2.99096e-25)
(1.0236 0.000136344 6.53851e-22)
(1.02057 -0.000317887 -2.39678e-23)
(1.02159 -0.000754171 -3.2789e-23)
(1.02389 0.00097883 2.85007e-22)
(1.04229 -0.00577175 0)
(1.02322 -0.00114349 2.01315e-22)
(1.04584 -0.0611416 -2.49615e-22)
(1.03248 0.00113791 0)
(1.0238 -0.00126929 1.63253e-22)
(1.02305 -0.00265814 2.93753e-22)
(1.05235 0.0131454 0)
(1.04286 -0.012043 0)
(1.02209 -0.00088737 -1.69061e-22)
(1.04057 -0.0168063 0)
(0.235225 -0.0136241 2.16435e-20)
(1.02088 -9.97685e-05 1.35292e-22)
(1.02315 0.00038018 0)
(0.156013 -0.00471679 7.98815e-21)
(1.04612 -0.0340654 1.9263e-22)
(1.02032 -0.0246087 0)
(1.02519 0.000210944 0)
(1.08169 -0.0603846 1.54982e-20)
(1.0421 -0.00657265 -1.6685e-21)
(1.02157 -0.000745269 0)
(1.02089 -7.94348e-05 0)
(1.02191 -0.00208501 0)
(1.02691 -0.00454315 0)
(1.06203 0.000571807 -1.70516e-20)
(1.0253 7.002e-05 3.35353e-23)
(1.02375 0.00286168 -1.06994e-21)
(1.04848 0.01403 -1.17621e-22)
(1.04754 0.00452388 1.68951e-22)
(1.02295 0.000538369 -4.8804e-22)
(1.0558 -0.00655045 -9.17133e-21)
(1.02316 -0.00129248 8.36356e-23)
(0.997116 -0.0174505 0)
(1.02303 -0.00149836 0)
(1.04428 -0.021821 -2.83334e-21)
(1.04779 0.000310285 1.30732e-22)
(0.891116 0.0529429 -3.76522e-22)
(1.02369 0.000237793 5.83945e-22)
(0.971706 0.0439245 0)
(1.02477 -0.00178261 -2.73396e-22)
(1.06033 -0.0723937 4.54618e-21)
(1.02121 -0.000111651 1.04131e-22)
(1.02338 -0.00170109 0)
(1.02098 -6.49892e-05 -7.98346e-23)
(1.02303 -0.0120574 0)
(1.02123 -3.66662e-05 1.0514e-22)
(1.04648 -0.0381486 3.20871e-21)
(1.09486 -0.0028283 -3.24714e-21)
(1.04065 -0.0149608 -2.80188e-21)
(1.02292 -0.00143633 0)
(1.02713 -0.00316263 -3.58411e-22)
(1.04965 -0.00644847 1.24076e-20)
(1.02392 -0.00103405 3.32033e-22)
(0.993058 0.0584553 0)
(1.09911 -0.0283938 0)
(1.02084 -6.90051e-05 -1.98691e-22)
(1.02272 -0.00019122 0)
(1.03057 -0.039958 -6.33697e-21)
(1.02148 -0.000145599 -3.67193e-24)
(1.0436 -0.0236274 6.18071e-21)
(1.05616 -0.0108576 0)
(1.02223 -0.00093834 -4.84778e-24)
(1.02447 -0.00278813 -3.51907e-23)
(1.02257 -0.000152056 4.72775e-23)
(1.02827 0.00671966 1.15879e-21)
(1.02329 0.00164908 -1.58875e-22)
(1.02837 -0.00879264 -1.30996e-21)
(1.05345 0.00545444 -5.30684e-21)
(1.0353 -0.0164923 9.25228e-22)
(1.07974 0.0128267 -8.01313e-21)
(1.02177 0.000214435 4.2812e-23)
(1.02104 1.61746e-05 -1.13531e-22)
(1.02559 -0.00126541 0)
(1.02312 0.0002134 1.17432e-22)
(1.04317 -0.0728196 1.02766e-21)
(1.03117 -0.0582919 -6.88713e-22)
(1.03147 0.00238946 0)
(1.02559 0.000752481 -1.27246e-22)
(1.02189 -0.000208119 -2.27154e-23)
(1.05566 -0.00336617 -3.29951e-21)
(1.04501 -0.00853501 4.03551e-21)
(1.02449 -0.00284086 0)
(1.03295 -0.013926 0)
(1.02635 -0.0027314 0)
(1.048 -0.00489887 0)
(1.02319 -0.00131321 -7.38453e-23)
(1.02897 -0.000877625 -6.74921e-23)
(1.02996 -0.00169594 7.05828e-23)
(1.02413 -0.00160608 8.37429e-23)
(1.02634 -0.00320967 0)
(1.02421 0.000411365 0)
(0.721827 -0.0399025 0)
(1.05884 0.0109813 0)
(1.03149 0.00157545 0)
(0.711964 0.0435223 -3.65469e-21)
(1.02391 -5.456e-05 2.0377e-24)
(1.03522 -0.0703269 5.24728e-22)
(1.04184 -0.00741759 2.65305e-21)
(1.02086 -1.96273e-05 -9.07977e-25)
(1.03135 0.00173644 1.10146e-21)
(1.04086 -0.00583884 3.09634e-21)
(1.02908 -0.00983656 -2.33362e-22)
(1.05763 -0.00141967 -3.06807e-22)
(1.05345 0.005047 3.00218e-21)
(1.02541 -0.00391618 0)
(1.02143 -0.000568465 0)
(1.08509 -0.0396707 0)
(0.939066 0.00667642 1.34037e-20)
(1.0211 -8.69338e-06 1.71826e-22)
(1.02322 -6.86304e-05 9.93829e-22)
(1.0552 -0.00294525 -7.34885e-21)
(1.03953 0.00172972 0)
(1.02171 -0.000808181 0)
(0.975501 -0.0193056 7.50675e-23)
(1.03882 -0.00166514 5.76536e-22)
(1.02424 0.00314159 0)
(1.02546 -0.00199545 4.68726e-22)
(1.02636 -0.00384183 3.8851e-23)
(1.0282 -0.00375171 8.25942e-22)
(1.02473 -0.00262538 6.77014e-23)
(1.02478 -0.00269734 -1.15643e-22)
(1.02144 -0.000375362 0)
(1.04157 -0.00807745 0)
(1.0316 -0.00309525 -2.56614e-21)
(1.02237 -0.0109625 1.31622e-22)
(1.03567 0.00210782 -2.18493e-21)
(1.02219 -0.000937849 7.91128e-23)
(1.03977 -0.0166267 -1.45047e-21)
(1.12017 -0.00536374 -2.29856e-20)
(1.06309 -0.0221572 -7.9479e-21)
(1.0226 -0.000416527 1.1963e-22)
(1.02135 5.36006e-05 2.51403e-22)
(0.746276 0.0269823 3.91337e-21)
(1.02659 -0.00173405 -7.95585e-22)
(1.06602 0.0137142 0)
(1.03176 0.00285126 9.56468e-22)
(1.03216 0.00104573 -8.20589e-22)
(1.0211 -1.3835e-05 0)
(1.04865 -0.0106327 6.65502e-21)
(0.954404 0.0379431 -3.28428e-21)
(0.856955 -0.0641095 1.78601e-21)
(0.924876 0.0342305 5.63452e-21)
(0.0512051 0.00599525 -7.12617e-21)
(1.03109 -0.00329483 0)
(0.932833 0.036903 2.65659e-22)