/*--------------------------------*- C++ -*----------------------------------*\
| =========                 |                                                 |
| \\      /  F ield         | OpenFOAM: The Open Source CFD Toolbox           |
|  \\    /   O peration     | Version:  v2012                                 |
|   \\  /    A nd           | Website:  www.openfoam.com                      |
|    \\/     M anipulation  |                                                 |
\*---------------------------------------------------------------------------*/
FoamFile
{
    version     2.0;
    format      ascii;
    class       surfaceScalarField;
    location    "150";
    object      ddtCorrDdt0(phi);
}
// * * * * * * * * * * * * * * * * * * * * * * * * * * * * * * * * * * * * * //

dimensions      [0 3 -2 0 0 0 0];
oriented        oriented;


internalField   nonuniform List<scalar> 
27688
(
-0.000321871
0.000143459
0.000178367
0.000936703
-0.00108676
0.000150038
-0.000198804
0.000237167
-3.83847e-05
0.000189743
0.000187333
-0.000377087
-6.48037e-06
0.000235045
-0.000228575
-0.000339026
0.000528475
-0.000189455
-1.74577e-05
0.000771359
-0.000753869
-0.00136391
0.00173407
-0.000370157
-0.00134654
0.00187408
-0.000527565
-0.00214774
0.00239814
-0.000250362
0.000167288
-0.000173767
-8.16801e-05
0.000233635
-0.000151956
1.51597e-05
4.92355e-06
-2.00834e-05
5.563e-05
-0.000219928
0.000164311
0.000103008
-0.000121584
1.8597e-05
-0.000470156
0.000131179
0.000260244
-0.000215928
-4.4288e-05
-0.000131473
-0.000190409
-3.34408e-05
0.000121205
-8.77688e-05
0.00260027
-0.000218353
-0.00238192
0.00016917
-6.61676e-05
-0.00272331
0.00252989
0.000193402
3.84794e-05
3.85679e-05
-7.70521e-05
-0.000240968
0.000159304
-0.00600173
0.00483286
0.00116887
-0.00206412
0.000717569
0.00104471
3.65022e-05
-0.00108124
0.0147379
-0.0107205
-0.00401747
-0.00136365
-0.000831843
0.00219537
-3.02765e-05
-0.000168531
-0.000434051
0.000393841
4.01943e-05
-0.00024075
0.000125913
0.000114849
-0.00196566
0.00236384
-0.000398184
-4.31569e-05
0.000131907
-8.87383e-05
-0.000151984
-0.000292167
0.000444225
0.00210821
-0.00183325
-0.000274992
2.47661e-05
0.000128587
-0.000153359
-0.00181383
5.03401e-05
0.00176344
0.0006686
-0.00203252
5.89008e-05
-2.04256e-05
-0.00168779
0.00159058
9.71763e-05
0.00167337
-0.00143633
-0.000237067
0.000429496
-0.000363391
-6.61099e-05
0.00289152
0.000246691
-0.00313824
0.000434776
0.000183131
-0.000617913
0.00047846
-0.000586726
0.00010826
7.41133e-06
0.00133171
-0.00133912
0.00161762
-0.00129399
-0.000323617
-9.33214e-06
0.000373688
-0.000364393
-0.000491262
0.00125401
-0.000762756
0.000889482
0.00015524
-0.000254376
-2.50441e-05
0.000279417
-0.00370521
0.00157197
0.00213332
-0.00269742
0.000856039
0.00184136
-0.00163188
0.00277985
-0.00114797
0.000387247
-0.00220108
-0.000329232
0.00506849
-0.00473932
0.00217198
-0.00168074
-0.000491248
-0.00175064
6.28537e-05
-0.00160013
0.000762651
0.000837457
0.000914743
-0.000771605
-0.000143142
-0.000211027
-0.00042227
0.000633302
-0.000399428
0.000390061
9.05589e-05
-8.91445e-05
-1.41927e-06
0.00138201
-0.000501683
-0.000880389
-0.000749194
-0.000205994
0.000955194
-0.000857665
-0.000742477
0.0010722
-0.000786599
-0.000285623
-6.19775e-07
1.57787e-05
-0.00149466
-0.00025601
0.00154648
-0.00103587
-0.00051062
-0.000100288
6.68397e-05
0.000314715
-5.36875e-05
-0.000261053
0.000874908
-0.00192415
0.00104923
0.00160968
-0.00160968
0.000862512
0.00124565
1.51866e-06
0.000191347
-0.000192889
0.000304753
-0.000103161
-0.000201638
-7.76458e-05
6.19347e-05
1.57133e-05
-0.00106461
0.000315433
0.000748021
-0.000398262
-0.000349747
-0.000112961
6.98098e-05
-0.000214107
-4.21039e-05
0.000256162
-0.000306245
0.000169946
0.000136304
7.45742e-05
-0.00279789
-9.99447e-05
-7.64199e-05
0.000176361
-0.000974937
0.000144683
0.000830221
0.0018333
-0.000242738
-7.67685e-05
-0.000134253
0.000258928
-0.00114114
0.000882146
-9.3877e-05
-8.97238e-05
0.000183595
0.000451471
0.000463271
-0.00168143
-0.000192265
0.00187369
-1.85281e-05
9.11146e-08
1.84304e-05
0.000474964
-0.00042119
-5.37772e-05
0.000684872
-7.73035e-05
-0.00060761
0.000461862
-7.63562e-05
-0.000385442
0.00224969
-0.001092
-0.00115771
-4.66156e-06
7.7317e-05
-7.26611e-05
0.000465965
-0.00158824
0.00112227
0.00107424
-0.0015655
0.0061198
-0.00174851
-0.0043713
-0.000469032
0.000228273
0.000642228
-0.00232365
0.000116505
-0.00148021
0.000995128
-0.00105747
6.23415e-05
-0.00183805
-0.00416362
2.20412e-05
-7.97252e-05
5.76753e-05
0.000688847
-3.99933e-06
0.00201995
-0.00133114
-0.00249704
0.00270773
-0.000210726
-0.00114335
0.00117456
-3.11999e-05
-0.00169131
0.00169872
0.00289157
-6.77776e-05
0.000219751
-0.000151921
-1.91237e-05
3.21314e-05
-1.3013e-05
-0.000788316
0.000770871
-0.00016335
0.000353087
-0.000605557
-0.00309965
-0.00222337
0.00222337
0.000679305
-0.000251974
-0.000427295
-0.000631878
0.000347951
0.000283911
-0.000955263
0.000734089
0.000221173
-0.000276714
0.000456825
-0.000180042
0.00127864
-0.000255781
-0.00102288
4.22074e-05
-0.000802785
0.000760513
0.000157886
0.000372604
-0.000530485
0.000986507
0.000395451
-0.00165322
0.000868364
0.00078483
-0.00228657
0.000380972
0.00190559
-0.000127799
-0.0003692
0.000496999
-0.000701696
0.00164469
-0.000942981
0.00247347
0.000126801
-0.00142597
0.00109675
-0.000186366
0.00013009
5.62772e-05
0.000596279
0.000731559
-0.00132787
-0.000101835
-9.48997e-06
0.000111344
-0.00224321
-0.000253852
0.00173838
-0.00177199
3.36425e-05
-0.000251402
0.000191814
5.96165e-05
-0.000410276
0.000696997
-0.000286725
0.000971369
0.00104859
-4.96453e-05
-2.80055e-05
-8.39332e-05
1.89e-05
6.50371e-05
7.87869e-05
-0.00122215
-0.000212683
0.000144893
-5.36578e-06
-1.7799e-06
7.13454e-06
0.00022854
-0.000442651
5.92827e-05
-6.39444e-05
0.0002287
-0.000226372
-2.32885e-06
0.00183027
-0.00187613
4.58477e-05
3.01775e-05
-0.000244526
0.000214365
0.00292138
-0.000494885
-0.00242649
0.000308286
-9.08812e-05
-0.000217383
-0.000417861
-0.000537403
-0.000918878
0.000508599
-0.00182084
0.000549619
0.00127122
0.000676094
-0.000906325
0.000230236
0.000336677
-0.00019666
-0.000140014
-0.00456765
0.000953099
0.000325526
-0.00205482
0.00201367
4.115e-05
-0.0029004
0.00375177
-0.000851391
0.00218291
-0.000489109
-0.00169381
6.01426e-05
-0.000160408
0.000100261
-0.000564146
0.000609676
-4.5487e-05
-0.000373714
6.74798e-05
0.00125466
-0.00162027
0.000365588
0.000154591
-0.000338132
0.000183575
0.00128533
0.000964366
1.06939e-05
4.07366e-05
-5.14883e-05
-0.00240536
0.000439686
-0.0010216
0.000395408
0.000626183
0.00101189
-0.000418634
-0.000593256
-3.30223e-05
0.000462519
8.00132e-05
-0.000391159
0.000311196
-0.00383069
-0.00251885
0.00634948
-0.000157328
0.000465624
3.12696e-05
-6.35551e-05
3.22809e-05
-0.000733857
-1.26702e-05
0.000746544
0.000777097
0.00105317
-0.000455628
0.000303691
0.00713218
0.00760576
-0.000372306
0.000134321
0.000237982
4.23627e-05
-7.1281e-05
2.89179e-05
0.00152944
-0.000608387
-0.00092102
0.00242626
-0.000243349
-0.00731524
0.00577085
0.00154447
-0.000234833
-0.000740128
-0.00017892
0.000234532
0.00010272
-0.000153833
5.11636e-05
0.000274049
0.000223602
-0.000497632
-0.000745348
0.000181166
0.000245262
1.49814e-05
-6.9779e-05
2.01327e-05
0.00070615
0.0012196
-0.00192575
-0.000244191
-7.21106e-06
2.78161e-05
0.00109719
0.000189325
-0.00128651
0.000571265
-0.000136506
0.000784975
-0.000742801
-8.50048e-05
-0.00148504
0.00157004
0.00234903
-0.00166017
-0.000688879
-0.000331591
0.00142878
-0.00354602
-0.000284696
-0.000414354
0.000448927
-3.46064e-05
0.00073453
-0.00119259
0.000458055
-7.2552e-05
0.00619238
5.28268e-05
-7.99678e-05
2.71393e-05
-1.4941e-05
4.2139e-05
-2.72039e-05
-0.00129376
0.000927948
0.000365799
-0.000581811
-0.000711952
6.6435e-05
-0.000467317
0.000400892
-1.03909e-05
5.02314e-06
8.67866e-05
0.000248229
-0.000335033
0.000246491
-4.08019e-05
-0.00020563
-0.00140738
0.00121582
0.000191567
-0.00249825
0.00540172
-0.00290347
0.000583065
-0.000459107
-0.000123918
0.000302028
-0.000331252
2.92064e-05
0.000344615
-0.000115927
0.000330156
-0.00216607
0.0015496
0.000616468
8.62059e-05
0.000213107
-0.000299228
-0.00174393
-0.00018245
0.00192637
0.000191899
-0.000131748
-0.000164477
-0.000467377
0.000334711
-0.000515355
0.000180623
-0.000697718
-0.000955552
0.00021925
0.000852944
-0.000189895
-6.08189e-05
0.000250705
-0.000168413
-0.000418615
0.000587001
-4.27559e-05
6.47839e-05
-0.00018435
-0.000705398
-2.84625e-05
6.36509e-06
5.3656e-05
-6.00076e-05
0.000260423
-5.84766e-05
-0.000201983
-0.000805301
0.00187691
-0.0010716
0.00213068
-0.000606249
0.000820584
-0.000214338
-0.000322264
0.00125896
-0.00046706
0.000212691
-5.36133e-05
0.000139513
-8.58506e-05
0.00113156
-0.000665597
0.000155193
0.00201679
-0.00182506
-0.00110335
0.00292841
-0.000970076
0.00167621
6.42823e-05
-5.79128e-05
0.00224089
-0.00212771
-0.000113209
-0.000395333
0.000326203
6.90694e-05
-1.59174e-06
-1.69396e-05
-0.0018525
0.00198168
-0.000129201
-0.000437198
0.000705841
-0.00140753
0.00153034
-0.00147742
-5.29173e-05
-0.000783002
0.000940893
0.00190258
-0.0015242
-0.000378382
-5.53405e-05
9.67628e-05
-4.14221e-05
5.38346e-05
1.44305e-05
-6.82707e-05
0.000311588
-9.57968e-06
0.000324589
-0.000104795
0.000292411
-0.0016998
0.00233461
-0.000431318
0.00110843
-0.000677079
-0.0021416
0.0021801
-3.85306e-05
-0.000818863
-0.000163012
0.000981851
-0.00143888
0.00180596
-0.000367083
-0.00106359
-0.000230391
-0.000519072
0.000233404
0.000285649
0.000739318
0.00027504
-0.0010144
7.84235e-06
0.000326873
-2.45559e-05
-7.72773e-05
0.000179498
0.000232737
-0.000412253
0.000151153
0.000173452
-7.01429e-05
8.08571e-05
0.000346607
-0.000345625
-9.69403e-07
-0.000794666
0.000644587
0.00015006
-0.000309555
0.000229369
8.01158e-05
4.98685e-05
-0.000242208
0.000192329
-0.000925706
-0.00124037
2.5084e-05
-0.000122612
9.75292e-05
-0.000216113
-0.00145397
0.00167007
-0.000220869
0.000340439
-0.000119543
0.000190235
0.000128408
-0.000318541
0.00231941
-0.00145069
-0.000868719
-0.000319235
-7.61243e-05
-0.000180112
-2.50248e-05
0.000205128
0.000169929
0.000533117
-0.000702898
-0.000844698
0.000999917
-0.000155234
-0.00163209
0.0011192
0.000512877
-0.000130888
-5.76373e-05
0.000188522
0.00127325
-0.000388779
-0.000884484
-0.000151248
-0.000182789
0.000334074
0.000977864
0.00194351
-0.000222731
0.00234203
-0.00211936
-0.000808842
0.00182075
0.000472585
2.37681e-06
-0.000242212
-0.00105873
0.00130095
-0.00274553
-0.000154906
-0.000209821
-0.000201971
0.000411812
0.000738377
0.000791069
-1.07248e-05
0.000101266
-0.00042543
0.000275995
0.000149413
-0.000283301
-0.000131047
-0.000105184
4.38487e-05
6.13283e-05
7.10193e-05
-1.81901e-05
0.000275213
-0.000109337
-0.000165893
-0.000460302
0.000535304
-7.50069e-05
-0.00122759
-0.00133123
-0.000489613
-0.0011376
0.00221809
-0.0010805
1.03033e-05
4.35263e-05
0.000108542
-0.00742358
-0.00021168
0.00029797
4.59486e-05
-0.000306558
0.000260636
-0.000149137
-9.50319e-05
0.000518962
-0.000328718
0.000770604
-0.00191149
0.00114087
0.00143788
-0.00149762
5.97198e-05
0.000754668
-0.00073941
-1.52665e-05
-1.39125e-05
3.51982e-06
0.00182733
-0.00105025
-6.52885e-05
-1.85073e-05
8.37841e-05
-0.0010592
0.000974191
-0.000332716
5.96212e-05
0.000273125
0.00178894
-0.00170888
-8.00986e-05
0.00204264
0.000383616
-0.000251407
0.000102267
-0.000279696
0.00068988
-0.000410178
0.00400147
-0.00203668
-0.00196471
-0.000262867
-0.000412999
0.000675966
-0.00073514
0.000512428
0.000256473
1.8726e-05
0.000279754
-0.000233842
-0.000595405
0.00119168
8.08007e-05
-9.02746e-05
-0.00315052
0.00255699
0.000593531
0.000481958
-0.000415537
0.000137846
-0.000744114
0.000775578
-0.00208078
0.0013052
-0.000395106
0.00106199
-0.000666894
-0.000170454
0.00040389
-0.000233444
0.00214626
-0.000407907
-0.00101058
0.000349914
0.000660692
-4.57207e-05
-5.94607e-05
0.000124341
-0.000310226
0.000185853
0.000287163
0.000248632
-0.000535764
-0.000465636
0.000949506
-0.000483866
0.00114209
0.000131151
3.97767e-05
-7.62284e-05
3.21796e-05
4.40588e-05
-0.000242481
7.95878e-05
0.000162883
0.00113889
-0.00170811
0.000569229
-4.93995e-05
-3.33448e-05
8.27869e-05
-0.000332967
0.000186012
0.000146955
6.19655e-05
-1.95963e-05
-0.000108149
4.28483e-05
0.000746985
-0.00037733
0.000100661
0.000300587
-0.000121088
0.000142902
-0.000101931
-4.09833e-05
0.00135683
0.000962568
0.00113849
0.000534857
-0.0019615
0.00184931
0.000112184
-0.00026172
0.000338254
-7.65413e-05
0.000388299
-8.95397e-05
3.59404e-05
0.000300202
1.45307e-05
-0.000225137
-0.00192258
-0.00138792
0.000582619
9.96047e-05
-0.000193483
-0.000289628
0.000138362
0.000233291
0.000291717
0.000201636
-0.000493347
-7.81949e-06
-6.09378e-06
8.35303e-05
0.000221232
-0.000850976
0.000143623
0.000707333
0.000469218
0.000113826
0.000118331
-9.32422e-05
0.00412267
-0.00439874
-0.000895303
-0.000115235
3.72177e-05
-4.80499e-05
1.08289e-05
4.45718e-05
-0.000224691
-0.000590996
0.000311325
0.00239472
-0.00509222
-9.5452e-05
-1.69522e-05
0.0001124
-0.000152719
-0.00014521
0.000297984
0.000908197
0.00309329
8.41723e-05
-0.0016292
0.00141307
-0.000577622
0.000420295
-7.00715e-05
-2.98936e-05
9.99938e-05
-0.00067446
-0.00120168
-2.31806e-06
-8.4884e-05
8.6815e-06
-0.00278195
0.00234972
0.000431916
-0.000928463
0.000156854
0.00160417
-0.00139509
-0.000209065
-1.2792e-05
-5.2538e-05
6.53334e-05
0.000157369
-0.000617679
-0.000113051
-0.000176543
-0.00228694
0.000389202
0.00189773
0.00113426
-0.000401795
-0.000732463
0.000715655
-0.00140992
0.000694271
-2.15637e-05
0.000104327
-8.27601e-05
-0.00178323
0.00129412
-0.000102686
7.81388e-05
-0.000395387
0.00056532
-0.000893057
0.00166363
-6.52433e-05
-0.000147473
-0.000206893
0.00038246
-0.000175578
3.7198e-05
-9.30255e-05
7.1463e-05
-6.62554e-05
-0.000176223
-0.000326243
-4.74508e-05
-0.000391135
0.00156071
-0.00116959
3.38062e-05
7.4717e-06
-4.12757e-05
-0.000839411
0.000539808
0.000299563
0.000302
0.000374079
-0.000413684
-3.08542e-05
1.59198e-05
0.000791524
-9.45309e-05
0.00128793
-0.000326579
-0.000961358
-0.000432961
0.000616084
4.48763e-06
-9.99439e-05
-0.00170124
0.00231286
-0.000611727
-0.00184512
-0.000972918
0.00105172
0.000470467
0.000852953
-0.00132341
0.000832029
-8.97334e-05
1.96809e-05
7.94517e-05
1.72974e-05
-0.00037671
0.00085514
-6.51936e-05
-2.24232e-05
8.76031e-05
8.20659e-05
-0.000167541
8.54639e-05
0.00061369
0.000125636
0.000245267
-0.000243811
9.36303e-05
-0.000312246
0.000218575
-3.96986e-05
-6.47263e-05
0.000104394
-0.00119106
0.000805339
0.000385713
-0.000571034
7.97121e-05
0.000491349
0.00205366
-0.00158319
-0.000153097
0.000233096
8.27275e-05
-0.000689627
0.000606922
0.000580068
-0.00203076
0.000108397
-0.000906004
0.00059798
0.000308042
0.00299553
-0.00257434
-0.000421261
-0.000500155
0.00116221
-0.000662082
8.16592e-05
-7.85414e-05
-3.1567e-06
-0.000562118
-0.000183259
7.65149e-06
0.00023896
0.00292533
-0.00429435
0.00136908
0.0013161
-0.00246732
0.00115123
2.62001e-05
6.01816e-05
-8.63639e-05
-0.000722914
0.00048807
-0.000200831
0.000135574
0.000111566
0.000225119
-0.000157766
0.000202504
-4.46821e-05
-0.00170496
0.00128817
0.000416774
0.00121855
-0.000502895
0.000568908
-0.000993959
0.000425053
0.00090001
0.00112042
-0.00202035
-7.96638e-05
5.73631e-06
7.39116e-05
-0.00202042
0.00038344
0.00163694
-0.000319899
0.000243503
-6.03731e-05
8.65717e-05
-3.19997e-05
3.19671e-05
-0.000129094
0.00040378
-0.000274712
-7.35965e-05
-4.08051e-05
0.000114425
0.000959235
-0.000390321
-0.00024087
-0.000665419
9.94735e-05
-0.00107239
-0.000427124
-0.00177731
0.00220442
0.000178981
-0.000836198
0.000657201
0.000247073
-0.000178781
-6.82191e-05
0.000245337
0.000546184
0.000688502
0.000704802
-0.00139331
0.00128551
-0.00242311
0.000488424
-0.000751304
-0.00138768
-0.00139406
-0.000269088
0.000153281
0.000115856
-0.001244
0.00201958
0.000757636
0.000115134
-0.00126505
0.00244619
-0.00118117
-0.000225619
-0.00167048
-0.000119838
0.000429225
-0.000309389
0.00935749
-0.00428898
-0.000927268
0.00103457
-0.000107325
-0.00212736
0.00136283
0.000764522
0.000640818
-0.000180177
0.000266975
-1.91905e-05
-0.000287429
-0.000984071
-0.000933594
0.00191765
-0.00118649
0.00281671
-0.00163021
-0.00112087
-0.000943246
0.000363623
-0.00242128
0.00205761
0.000235123
-0.000504234
-4.06537e-05
-0.000292069
-5.1244e-05
7.4595e-05
-2.33568e-05
-6.98611e-05
0.000197049
-0.000127186
-0.00238789
1.99508e-06
0.000571415
0.000562848
-7.02215e-05
-0.00053951
0.000410811
0.000128622
-0.00159523
0.00068925
0.00216041
0.000186403
0.000754401
-0.000940564
-0.00201521
0.000181942
-0.000156441
8.36664e-05
7.27797e-05
-0.00055672
0.00124523
0.000467468
0.000751323
-0.0012188
-2.3127e-05
0.000147455
0.000167401
-0.00012486
-4.25288e-05
0.000153042
0.000443473
-0.000596521
-0.000334755
0.000315626
-0.00308013
0.00131261
0.00176761
0.00043653
-0.000239533
-0.000197008
-0.000433751
0.00022686
0.000142121
2.52828e-05
0.000224557
0.00153006
-0.00175463
0.000445209
-0.00101655
0.000571331
-0.000285467
4.54409e-05
0.000240043
5.14916e-05
0.000930498
-0.0006415
-0.000289031
-5.59772e-05
1.86878e-05
3.71502e-05
-0.00066458
-0.0015588
5.44677e-05
6.62586e-05
-0.000120709
0.000182284
-0.00185986
0.00167757
0.0016366
0.00176036
-0.00339695
-9.05858e-05
0.000474374
-0.00103651
-0.00152227
-8.17372e-05
0.00160398
4.41183e-05
0.000161462
-0.000205585
-0.00100843
7.9963e-05
-5.12246e-05
-0.000143885
6.33765e-05
8.05097e-05
0.000178622
-0.00038847
-0.00121409
0.00168907
-0.00047495
-0.000145663
-0.000285637
0.0002022
0.00392053
0.000603044
-0.000433068
-0.000118349
6.1402e-05
5.69372e-05
-6.85252e-05
-2.33545e-05
9.18697e-05
-0.000754129
0.00216202
-0.00140792
4.44276e-06
-0.000242402
0.000237964
4.2816e-05
-2.72934e-05
-1.55227e-05
8.72719e-05
-0.000308114
0.000133445
-1.18616e-05
-0.000121577
-0.0018086
0.00121874
0.000589867
0.00267941
-0.0024931
-0.000192621
9.26658e-05
-0.000327598
-0.000370177
-9.4263e-05
0.000143162
-4.89012e-05
-0.00154054
0.00154053
9.35745e-05
-8.78694e-05
-0.00223548
0.00127562
0.000959895
0.000249773
-0.00177205
0.00192107
-0.0015509
-0.000370255
-0.000556592
0.000694422
0.00178777
0.00120779
-0.00035392
-0.00124131
-0.000223183
-4.51853e-05
0.000268367
0.00233175
0.000346922
-0.00267871
-0.00212093
-7.85144e-05
0.000213011
-0.000134491
0.000430443
0.000251964
4.50915e-06
-8.61964e-05
4.74043e-05
3.8788e-05
-0.00179904
0.00237911
4.49155e-05
-9.92214e-05
5.42777e-05
0.000650654
-0.00216387
0.00151322
0.00350813
-0.00314452
-0.000294748
0.000242933
0.00051173
0.000370214
0.00010441
-0.000474578
-0.000824519
-0.00109964
-8.91149e-05
-2.6423e-06
9.1762e-05
0.000972905
0.00038152
-0.00135439
-3.55959e-05
-0.000535474
-0.000437068
-0.000357602
7.35996e-05
2.11254e-05
-3.06273e-06
-1.80675e-05
-8.87503e-05
-3.65472e-07
-0.000116367
-1.56347e-05
0.000132029
-8.62142e-05
9.07049e-05
0.000647756
-0.000388878
-0.000475283
-0.00100968
0.00148515
1.08566e-05
7.05825e-05
-8.14381e-05
9.40866e-05
4.88118e-05
-0.000213032
0.00046124
0.000113943
-8.91821e-05
0.000361223
0.000557222
0.000415681
0.00101569
-0.000147311
0.00101814
0.000488137
-0.00150627
-7.53117e-05
-0.000134202
0.00020943
3.42898e-05
6.75994e-05
-0.000101907
-7.28682e-05
-1.68383e-05
0.000830736
-0.00225674
-0.000252751
0.000301158
-4.83969e-05
-0.000181801
-0.000435614
2.26104e-05
-5.42422e-05
-3.19511e-05
-0.000230691
-0.000360304
5.52194e-05
-2.39542e-05
0.000749607
0.000566507
-0.00174953
0.00306751
-0.00131799
0.000877661
-0.00143367
0.000556
-0.000524564
0.000161166
-0.00346647
0.00267819
-0.00630804
0.00795497
-0.00164695
-5.02567e-05
2.1488e-05
2.87811e-05
0.00117227
-0.00113585
0.000662686
0.000473156
0.000141073
0.000199354
0.000542679
-0.000896596
-0.000341722
0.000494772
3.48265e-06
-8.97024e-05
-0.0024553
0.000795126
0.00125969
-0.000123372
0.000167505
-0.00167239
0.00168886
-1.64684e-05
2.66158e-06
0.000286329
-0.000289024
-0.000343772
0.000164204
0.00017954
-0.000131918
-0.000591007
-9.25246e-06
-4.67582e-05
-0.000252985
0.000303818
-5.08426e-05
0.000255044
-0.000196869
-5.81413e-05
-0.00327044
-0.000535208
0.00380567
-0.000544366
0.000313674
0.00106833
-0.00349121
0.00242289
0.000645157
-0.000684868
-0.000100407
-0.00180112
0.00190153
-0.000307505
0.000284039
2.34414e-05
0.00438026
-0.00274362
-0.000137447
-0.00214913
0.000330044
0.00025583
-0.000585913
-6.36128e-05
0.000213804
-0.000150186
0.000643363
0.00132349
-0.00196684
-0.00149152
0.000103795
3.97592e-05
-0.00011335
-0.00197265
0.00026375
-0.0030344
0.00370231
-0.000667949
-0.000111151
0.000342316
-0.000231086
0.000292897
-0.000541255
0.00024835
-0.000214075
-0.000474375
0.000688479
-0.00193546
0.000170658
0.00176482
-4.49756e-05
-7.33866e-05
-0.000126272
3.20125e-05
0.00143526
-0.00451537
-0.000650111
0.000435913
0.000214201
-0.00105612
-0.000271303
0.00132736
9.31081e-05
-8.22513e-05
-0.00172936
0.00191161
2.36077e-05
-0.000125822
0.000102214
0.000159919
-0.000129134
-3.07587e-05
0.000429062
-0.000806307
-0.00103051
-0.000990995
0.0020215
-0.000117019
6.77324e-07
-3.97834e-05
-8.62557e-05
0.000126041
0.000270905
-0.00195165
0.000373731
-0.000230283
-0.00106188
0.00113677
-7.48942e-05
-9.71408e-05
6.7819e-05
2.93135e-05
0.000554164
-0.00204573
0.00034504
0.00110892
-0.000807331
-0.000301602
3.48078e-05
-3.47765e-05
-7.20936e-05
-2.84003e-05
-0.000281168
-8.78984e-05
3.96358e-06
-0.000193827
-0.00166142
0.00137438
0.000287072
-0.00115992
0.000276906
0.000882977
0.00014908
-0.00182658
0.00122257
0.000603996
8.93913e-05
-0.000692606
-0.000440834
0.00113342
-0.00165025
0.000448697
0.00120153
-7.17469e-05
-2.53992e-05
0.000198696
-7.32453e-06
-0.000828264
0.00197182
-0.00114356
0.00105292
0.000774416
-6.57915e-05
0.000110708
0.00088614
2.06856e-05
-0.000117517
9.68062e-05
0.00121851
0.000178379
-0.00139691
-2.58163e-05
3.17177e-06
2.26505e-05
0.00012985
3.00749e-05
0.000142524
0.00014208
-0.000284644
0.000858188
-0.00189572
0.00103753
0.00503954
-0.00499149
-4.77508e-05
0.000190283
-0.000439568
0.000249283
0.000107863
-1.75122e-05
-9.03511e-05
3.55471e-05
7.23151e-05
0.000545436
0.00176224
0.000280405
-0.000117933
-0.00113235
0.00125024
0.000873364
0.00114033
0.000252387
0.000709889
-0.0009623
4.63302e-05
-0.000599166
0.000552814
-2.60178e-05
-4.37659e-05
-0.00128802
-0.000454169
-0.00113408
0.000277598
0.000303869
-0.000581517
-6.73495e-05
0.000101632
-3.57874e-05
2.74958e-05
8.29253e-06
0.000223727
-0.00026586
0.00110973
-0.000930762
0.00129858
-0.00248508
-0.00166223
-0.000879725
0.00254206
0.0015925
-0.00228139
-0.000708028
0.00151696
-0.00167999
-0.000105754
-8.828e-05
0.000194019
3.42861e-06
-7.60763e-06
4.18418e-06
0.00188646
0.000477367
4.82352e-05
-0.000247786
-1.58329e-05
-0.00227223
0.00128816
-0.000271011
-0.0014203
0.00259381
-0.00122453
-0.00136926
0.00119514
-5.6234e-05
0.00022805
-0.00012003
-0.000108046
0.000238121
1.69421e-05
0.00034153
-0.000431531
9.00228e-05
0.000333483
0.00121299
0.000131636
-0.000259446
-5.01474e-05
-3.93694e-05
0.000720692
-0.00063797
-0.000880398
0.000410663
0.000469728
-0.000262643
0.00026531
-0.00116268
0.000962897
0.000146007
-5.75236e-06
-2.00585e-05
7.29817e-05
-3.87464e-05
-3.42401e-05
5.46896e-05
0.000219369
-1.72815e-05
0.000292357
-0.000275226
0.000220217
0.000222984
0.00415726
-0.00321589
0.00163052
0.0015853
0.000216978
-0.00162449
0.0014075
-0.00389114
0.00143193
0.00245916
-0.00071275
0.00031377
0.000398961
-0.00180632
-0.000244373
0.000119097
0.000125267
-4.29005e-05
0.000194332
-0.000151441
0.00176792
-0.00226209
0.000494161
-8.6063e-05
1.32001e-05
0.000154562
-0.000462058
-0.000663378
0.000655896
7.47429e-06
-1.49731e-05
-2.08125e-05
0.00501216
-0.00840442
0.00339271
0.000285298
8.84115e-05
0.000215292
0.00051879
0.000247369
-0.000196685
0.000516188
-6.21335e-05
-0.000454018
1.95167e-05
4.23187e-06
-2.37469e-05
0.000584968
0.000945382
0.000331382
-0.000176765
0.000496771
-0.0010786
0.00164387
-0.00100053
0.000238476
4.78502e-05
-0.00019286
-0.00163373
-0.000312303
-9.61943e-05
5.33891e-05
4.2809e-05
-0.000788852
4.71259e-05
0.000741811
-0.000110746
-0.00032487
-3.29519e-05
9.31401e-05
0.000137856
0.000126962
-0.000264794
-0.000267243
3.73971e-05
0.00022983
-0.00031493
0.00433844
0.00143258
9.12022e-05
1.07702e-05
-8.93315e-05
-6.32577e-05
-0.000992828
0.000934535
-0.000505499
-3.25172e-05
2.5357e-05
7.15583e-06
-0.000281375
0.000168329
0.0023426
-0.0023426
-6.07622e-05
-8.31374e-05
1.42879e-05
-1.1118e-05
0.00032882
-0.00205818
5.71941e-05
-0.000301575
0.00184305
-0.00102715
-0.000815904
-6.889e-05
8.52099e-06
-8.2444e-05
5.64105e-05
0.00312756
-0.000348104
0.000236978
0.000218131
-0.000222463
4.34374e-06
0.000625774
-0.000844666
0.000218881
-0.000500701
0.00148767
-0.000986978
0.000810588
0.00047723
-0.00210912
-0.000306277
0.000378413
-7.20953e-05
0.000237073
-4.68113e-05
-0.00117493
0.00164888
-0.000473981
0.000251132
-0.000184166
-6.69621e-05
-0.000876444
0.000561287
7.50008e-05
-0.000180776
0.00031645
0.00129322
0.000676556
-0.000375065
-0.000301516
0.000222083
-0.000538656
0.000316576
-0.00249938
0.00241146
8.79241e-05
-0.0014779
0.00213286
-0.000654968
0.000788189
-0.0007235
-6.46975e-05
-0.000955252
-0.00207916
0.00122286
0.00137094
-0.000168441
-0.00010291
-2.64052e-05
0.000347335
-0.000418416
7.10696e-05
-3.75251e-05
-4.49291e-05
0.000233704
-0.00032462
0.000489808
-0.00141213
0.00282898
-0.000442237
-4.03061e-05
-4.19724e-06
4.45001e-05
0.000466421
-0.00134682
-0.00019489
-0.000275685
0.000470639
-0.000165023
0.000790788
-0.00221358
-0.00125289
-0.000682916
0.000441148
0.000241773
-0.000937134
0.00361671
0.000215043
4.53827e-05
-3.49451e-05
-6.12405e-05
-9.98223e-05
9.91116e-05
6.9567e-07
0.00167981
-0.000626899
0.00131054
-0.000116554
-0.00021471
-6.04889e-05
0.000196949
-0.00013646
0.00296927
-0.0018491
-0.00112017
-0.000101631
1.6874e-05
8.47369e-05
-0.000212721
9.25991e-05
0.000120122
-0.000424259
0.000104308
0.00219683
-0.000434591
0.000265307
0.000117152
-0.0065335
0.00238081
0.00415264
1.24066e-05
0.0002609
-0.000273229
0.000820245
-0.00097823
0.000158035
-0.000178433
-0.000346139
6.54185e-05
-7.19386e-05
-2.96702e-05
2.50229e-05
1.77895e-05
-8.80093e-05
3.85673e-05
0.000458157
0.000996789
-0.00145522
0.000708117
0.00207173
0.00133777
-0.00015839
-0.00117939
9.55415e-06
-0.000169964
0.00140364
-0.0023687
0.000965046
0.000466782
-0.000631807
0.000185561
-0.00203807
-0.000479785
-0.000183595
0.00132717
-0.000538972
0.00151655
-0.00124156
-0.000275
7.09619e-05
-0.000227957
0.000157104
-0.000135856
-0.000450856
0.000198396
0.000249239
-0.000447668
0.000526452
-0.00099578
0.000469365
0.00145663
-0.00155704
0.000354722
0.000600027
-0.000663305
6.77806e-05
-0.000236232
-0.00323099
0.00334748
6.80714e-05
7.3386e-05
-0.000141491
0.000244847
-0.000152239
-9.25923e-05
0.00148548
0.00148379
-0.000104257
3.69023e-05
-6.23531e-05
-0.00231897
0.000541654
-0.000150716
0.00025995
-0.00010925
0.000139337
0.00177512
-0.00191445
-0.00638062
6.63679e-08
-0.000150773
0.000168757
0.00035929
-0.000528064
3.55919e-05
0.000133166
-0.000191447
0.00014856
-0.0030723
0.00124723
-4.02224e-05
0.000413142
-0.000372902
-7.82301e-05
6.08604e-05
1.73676e-05
-0.000925897
0.0021455
0.00204561
-0.00143122
-0.000614389
-0.00202362
-0.000211847
-0.000726801
0.000323116
0.000403688
-0.00172934
-0.000206107
-0.00292604
-0.000344422
0.00300611
-0.000325889
-0.00268028
0.000265206
8.41087e-05
-0.000157444
7.33395e-05
-0.000694862
0.000442819
0.000252
9.9829e-05
0.000108887
-0.000208686
2.65684e-05
4.64099e-05
0.000518579
-0.000155893
-0.000362738
-1.42853e-05
-2.60301e-05
0.000274065
-0.000203111
5.18965e-06
0.000286444
-0.000340135
-0.00305984
0.00371271
-0.000652798
-4.17794e-05
6.51394e-05
-2.33562e-05
7.744e-06
-4.31322e-06
0.000403715
-0.00184261
0.000131339
-0.000130244
-5.61188e-05
9.72632e-05
-2.94467e-05
0.000118448
-3.57163e-05
-6.44977e-05
0.000100161
-0.000246024
0.000217633
-0.000128536
2.87157e-05
-9.28122e-05
0.000197767
-0.000104963
0.000644068
0.00140154
0.00170877
-0.000491018
0.000163379
-1.44968e-05
-0.000320265
-0.000422478
-0.000227616
-0.00122726
0.000900672
9.80332e-05
-0.000654627
0.000955232
0.00205085
-0.00033984
-5.77464e-06
0.00169339
-0.00083092
-0.000487412
-0.00112227
-0.00145465
0.00100047
0.00010259
-4.51241e-05
-5.74984e-05
0.00014941
-0.000204311
-0.000955623
0.00115473
0.000387588
-0.00154231
-0.00056988
-5.07037e-05
-5.35654e-05
-0.000156295
-8.82101e-05
0.000994529
5.70758e-05
-0.00105158
-0.000154323
-7.02272e-05
0.000224568
-0.00664765
0.00677674
-0.000128796
0.00071044
-0.000237858
-0.000316089
0.000171517
0.000144541
-0.000129219
9.34727e-05
-0.00187078
0.00159976
0.001563
-0.00134603
-0.000609925
0.000397541
0.000212415
-0.000462825
0.00145794
0.00186958
-0.00121893
0.00309894
-0.00176442
-0.00133449
4.26303e-06
-2.25973e-05
1.82625e-05
0.00030518
-0.0010918
-0.000180523
-0.0013171
-0.000240233
0.000581709
-0.00199248
0.000514588
-0.000196956
-0.000236834
0.000231953
-8.56642e-05
-0.000146286
0.00729073
-0.00225119
0.000264982
-0.000375669
-6.40353e-05
4.26062e-05
-8.56772e-05
4.30584e-05
0.000117223
-0.000436077
0.000318822
5.13068e-05
4.5954e-05
0.000344078
-0.000463914
0.000196837
-0.00163316
0.000565729
-0.000481758
-8.39622e-05
-0.000124869
1.83728e-05
0.000106484
0.00109401
-0.000147618
0.000326785
-0.000179189
0.000237689
5.44153e-06
0.000341885
-0.00254828
-0.000667659
0.00132556
-0.000362668
0.000124206
6.18005e-05
-0.000186011
0.000400904
0.000107867
-0.000508782
-0.000686337
0.00190484
-0.000585271
0.000116119
0.000111927
-8.262e-05
0.000171861
7.92776e-05
0.00029911
0.00102645
-0.000229348
0.000279212
-0.00112109
0.000565304
0.000555804
-0.00024137
-7.10505e-05
0.000312403
0.000299734
0.000543828
-0.000843639
-0.000202706
0.000220673
-0.000179275
-4.14019e-05
0.000497132
0.00148455
-0.000895939
0.000501247
0.00039468
-0.0011135
-4.48639e-06
1.5502e-07
4.33549e-06
0.000344021
9.25043e-05
0.000229245
-1.1124e-05
4.9854e-06
-7.59932e-05
7.10229e-05
-0.00119921
-0.000187356
0.00138654
-5.63117e-05
0.000167558
-0.000111255
1.97208e-05
0.000690718
1.0636e-05
5.99526e-05
-0.00159208
0.00192089
0.0018249
-0.0020757
0.000250787
0.00126355
-0.000921773
-0.000341803
-0.000843146
-0.00186904
-0.000146153
-0.000152934
-0.000904541
0.000166104
-0.00034413
0.00032965
4.33209e-05
-3.9083e-05
9.26591e-05
-8.20213e-05