/*--------------------------------*- C++ -*----------------------------------*\
| =========                 |                                                 |
| \\      /  F ield         | OpenFOAM: The Open Source CFD Toolbox           |
|  \\    /   O peration     | Version:  v2012                                 |
|   \\  /    A nd           | Website:  www.openfoam.com                      |
|    \\/     M anipulation  |                                                 |
\*---------------------------------------------------------------------------*/
FoamFile
{
    version     2.0;
    format      ascii;
    class       volVectorField;
    location    "250";
    object      ddtCorrDdt0(U);
}
// * * * * * * * * * * * * * * * * * * * * * * * * * * * * * * * * * * * * * //

dimensions      [0 1 -2 0 0 0 0];


internalField   nonuniform List<vector> 
18166
(
(6.58296e-05 1.12905e-05 7.97444e-23)
(-1.12314e-06 2.62372e-07 -1.56201e-23)
(-8.73611e-08 3.2464e-06 1.9123e-23)
(-2.78643e-05 9.22741e-05 9.17387e-23)
(0.00213533 -0.00215301 6.14961e-24)
(3.05248e-05 8.77405e-05 4.03575e-23)
(-1.48435e-06 -8.39841e-07 -3.03306e-23)
(-0.0123043 -0.000952515 -1.26621e-22)
(0.000319504 -0.000734518 -1.76628e-22)
(0.00303444 -0.00128543 -1.13882e-21)
(-1.17375e-06 4.47281e-06 0)
(-1.69392e-06 6.47171e-06 0)
(0.00619423 -0.00693769 3.07284e-21)
(0.00267139 -0.00351401 0)
(-0.00151395 0.00160548 6.00441e-23)
(-0.00100834 0.000668979 6.23968e-24)
(-8.97943e-07 5.10191e-07 9.18584e-24)
(-0.00426477 -0.00892905 -1.34036e-22)
(-1.21063e-06 5.48397e-06 2.57739e-24)
(-0.00178969 -3.02788e-05 2.63082e-23)
(-0.00120533 -0.000357657 -5.17455e-22)
(-6.81631e-07 4.87851e-07 -3.04895e-23)
(-0.00116495 -0.000536373 4.35663e-22)
(1.06663e-07 3.82706e-07 -4.79315e-25)
(-1.93254e-06 -1.10269e-06 2.22323e-23)
(-1.58566e-06 -6.31973e-07 4.72863e-23)
(4.32772e-05 2.5933e-05 7.99523e-23)
(7.5184e-06 -2.46664e-05 -1.17724e-22)
(-3.3172e-06 4.96706e-06 4.49569e-24)
(-5.02072e-05 0.000126265 9.30558e-23)
(6.83437e-05 0.000593151 0)
(-3.29699e-07 -2.26682e-07 -4.72313e-24)
(-4.79401e-06 3.37333e-06 1.51108e-23)
(-2.10336e-06 4.23237e-06 0)
(1.77916e-07 -3.55746e-07 0)
(-1.3468e-06 2.42425e-06 1.23817e-24)
(0.000286211 -0.000735406 0)
(-1.20161e-06 2.43049e-06 -1.04849e-24)
(-1.7622e-07 -2.17954e-06 0)
(0.00335733 -0.00167837 2.86814e-21)
(-1.72065e-07 1.12801e-06 -2.97802e-23)
(0.00395882 0.00628038 2.4888e-22)
(-5.19119e-06 3.90278e-06 3.76191e-24)
(1.15912e-08 3.59418e-06 0)
(5.82521e-05 3.84852e-05 2.5564e-23)
(4.15877e-07 -1.2121e-06 -4.04746e-24)
(-9.22683e-05 8.03923e-05 6.72865e-23)
(0.000115624 0.000539332 0)
(-3.24636e-05 -0.00265379 -5.46494e-23)
(3.97485e-05 1.89915e-05 -7.77446e-23)
(1.05844e-05 1.89418e-05 -3.87268e-23)
(3.67267e-05 4.01739e-06 9.11574e-23)
(-9.0006e-05 -0.00203957 1.72777e-22)
(-2.97809e-07 3.7738e-07 1.58758e-23)
(-1.47617e-06 3.86841e-06 0)
(0.000225811 4.87658e-05 -3.91308e-23)
(0.0024572 0.0050162 -3.97246e-22)
(0.0135289 -0.000873732 1.54731e-21)
(-1.47069e-05 6.95297e-06 -3.81832e-23)
(5.63667e-06 -1.6333e-05 -4.30235e-23)
(-4.82173e-05 8.70291e-05 0)
(1.08204e-05 -3.44745e-06 2.06475e-23)
(-0.00048955 0.000185914 2.63673e-22)
(-1.14655e-05 -3.18369e-05 0)
(-0.0101722 0.00927717 -1.54089e-24)
(-1.43782e-07 1.22783e-06 0)
(-0.0017162 -6.5028e-07 4.7102e-25)
(-0.000584904 9.70801e-05 0)
(-0.0019123 -0.0199588 5.55756e-22)
(1.95651e-05 -9.15433e-06 0)
(2.20062e-07 -3.33071e-07 0)
(-8.04786e-06 -7.51303e-06 0)
(4.83843e-05 4.06864e-05 0)
(-1.84428e-05 -3.88684e-06 -1.93757e-24)
(0.000506038 -0.00186493 2.04778e-22)
(0.00538866 -0.0273963 5.18893e-21)
(-0.00150539 -0.00115161 -7.30607e-23)
(-0.00160209 -0.0183924 0)
(-4.66605e-06 -1.79925e-05 0)
(-1.1133e-06 8.78294e-07 -8.29142e-24)
(1.39235e-09 2.01792e-06 1.21886e-23)
(-0.000192524 -0.000959954 -3.30122e-23)
(1.59353e-07 4.19841e-07 3.09131e-24)
(1.18307e-07 5.52667e-06 -2.95667e-25)
(-4.33317e-07 -4.024e-07 0)
(3.75617e-06 2.49738e-07 0)
(6.85674e-06 -1.50337e-05 -1.79918e-23)
(-1.36767e-06 1.31944e-06 -4.03735e-24)
(3.46483e-05 7.48372e-06 4.29935e-23)
(-7.56263e-08 -2.17837e-06 -8.44014e-24)
(0.000107776 -0.000202354 -3.89643e-22)
(9.47214e-06 9.06741e-05 2.15733e-24)
(0.00576908 -0.00322736 0)
(-1.14053e-07 2.27762e-06 0)
(-3.24505e-07 8.52369e-07 3.13105e-23)
(3.46246e-06 2.86125e-07 0)
(-2.13656e-07 -3.3406e-07 -4.96263e-24)
(-0.000253009 0.000279959 2.63719e-23)
(1.57141e-05 9.33328e-06 3.73634e-23)
(1.11041e-05 -1.9272e-05 -8.02467e-23)
(-9.98791e-07 1.68516e-07 -2.7666e-23)
(-1.93174e-07 -1.61608e-06 -5.41874e-24)
(-0.00241046 0.0017376 8.49952e-23)
(-1.19142e-05 -3.37778e-05 0)
(2.00272e-05 -8.05544e-06 0)
(2.09291e-08 -1.31197e-06 -1.01927e-23)
(-0.00329257 0.00415602 4.90372e-22)
(0.00146575 0.00355049 -1.05265e-22)
(-1.73041e-05 1.21408e-05 2.87242e-23)
(-7.91989e-07 1.07151e-06 7.88696e-24)
(0.0116192 -0.00188955 2.36363e-21)
(0.000225261 -0.000754029 0)
(0.000391787 -3.02066e-05 0)
(0.000761534 -0.000427032 -2.65387e-22)
(-8.09868e-07 -5.24509e-07 1.62207e-23)
(1.06706e-06 -1.53017e-06 -2.57602e-24)
(-0.000343544 0.000226468 0)
(-0.000453018 5.15677e-05 -3.66139e-22)
(-3.09546e-06 9.61612e-06 -2.04361e-24)
(-0.000481259 -7.75902e-05 0)
(0.0127054 0.0348801 6.09837e-23)
(-3.03553e-06 4.75994e-06 -2.55029e-24)
(0.00092553 0.0190328 4.5285e-21)
(-0.00081555 -0.00123416 0)
(-0.000340997 0.000228473 5.47621e-23)
(-1.36526e-06 6.26191e-06 -5.53789e-24)
(7.25685e-08 7.06718e-07 -1.78472e-24)
(0.00488955 -0.00633501 -1.13744e-21)
(-2.11398e-05 3.65863e-05 3.91045e-24)
(-5.14414e-05 9.85896e-05 4.74193e-23)
(-0.000675678 -0.000189866 -5.95537e-23)
(0.00211359 0.016038 -4.60459e-22)
(8.35886e-06 -5.9416e-06 -1.19891e-24)
(0.000280001 -0.00103972 7.33759e-23)
(-8.70659e-06 3.35477e-05 -7.07479e-24)
(-9.72129e-05 6.24399e-05 -5.5342e-23)
(-1.25868e-06 2.27438e-06 0)
(-1.31575e-06 -1.15386e-06 0)
(8.51756e-06 -5.71506e-06 0)
(-9.7904e-05 0.000514088 -1.3662e-22)
(0.000883001 -0.000560263 0)
(-0.0121602 0.00977513 -1.14435e-21)
(0.00176713 4.28506e-05 0)
(0.000214407 -0.00125109 0)
(-1.90772e-05 8.76912e-06 -3.72074e-23)
(-0.00276484 -0.00209016 -6.57592e-22)
(-0.00125585 -1.03484e-05 0)
(-0.00413413 0.00203593 0)
(1.34315e-06 -2.29362e-06 -5.74173e-24)
(1.23578e-05 -7.14741e-06 5.93949e-23)
(-3.94639e-07 -2.96658e-07 -9.51691e-24)
(-0.0001978 0.000301003 4.50452e-23)
(-0.00942637 -0.00173647 5.51832e-23)
(-0.000298168 0.000333906 0)
(1.17747e-07 3.45048e-06 -2.53715e-24)
(-1.0296e-06 1.22634e-06 8.51059e-25)
(-1.16147e-05 -4.74953e-07 0)
(-0.000519604 0.00012917 -1.79372e-22)
(-1.13458e-06 1.77836e-06 -9.83123e-24)
(0.00675105 -0.00568165 -1.57143e-21)
(-1.98107e-07 1.9802e-07 0)
(-0.000326401 -6.51583e-05 0)
(3.31605e-06 -1.68841e-05 -5.52514e-23)
(-9.30836e-07 2.0621e-07 2.35458e-23)
(3.68182e-05 6.38825e-06 -9.59526e-23)
(0.00128398 8.33899e-05 7.82705e-22)
(-1.1786e-07 1.49909e-07 -8.01721e-24)
(0.000136498 -0.00127154 -8.51122e-23)
(-0.000531459 -0.00054854 -2.64429e-24)
(0.0092273 0.00537222 -1.3005e-21)
(0.00217101 0.000996408 0)
(0.00103813 -0.000445364 7.22783e-23)
(-5.56885e-05 9.26261e-05 -3.49142e-23)
(-0.000481821 4.67946e-05 0)
(0.00506868 0.00224999 0)
(-2.59165e-06 4.28073e-06 0)
(-0.00226244 0.00078581 -5.47313e-22)
(-0.00115629 0.000165853 -1.21906e-22)
(-1.14997e-06 -3.42855e-08 0)
(-1.21104e-06 1.39176e-06 0)
(-8.23297e-07 -3.09541e-07 -1.83993e-23)
(-6.88229e-05 8.04786e-05 4.13688e-23)
(-0.000989141 -0.000153712 7.54406e-22)
(0.00135771 -0.00281553 2.44073e-22)
(0.00108129 -0.000332135 -1.85006e-22)
(-1.02427e-06 -9.20897e-07 2.13682e-23)
(-0.000258387 -3.13345e-05 -6.5082e-23)
(-1.70325e-05 3.06529e-05 -9.46057e-23)
(-9.42228e-07 1.56902e-06 0)
(7.7369e-07 -1.17007e-06 6.57132e-25)
(-9.02534e-05 0.00010592 -7.31729e-23)
(-1.43439e-06 4.65427e-06 -2.16481e-24)
(2.50373e-05 1.30029e-05 0)
(-2.18778e-07 4.95757e-06 0)
(-8.42027e-05 -1.59868e-05 0)
(3.05099e-05 0.000387371 0)
(2.89337e-05 8.39358e-05 -7.16048e-23)
(-8.16948e-05 -9.36906e-06 3.91873e-23)
(-0.000576033 0.000298559 -1.45591e-22)
(0.00163834 0.0017252 -3.21385e-21)
(0.00244431 0.000409898 -7.06135e-23)
(0.0001113 -0.000107784 0)
(1.19549e-06 -2.45236e-06 1.98123e-24)
(-0.00426045 0.00160804 1.3845e-23)
(-6.52225e-06 4.85082e-06 1.23419e-23)
(3.88419e-05 3.48113e-06 -9.63622e-23)
(-0.000251307 -0.000977056 -5.00214e-23)
(0.000205848 4.29264e-05 4.72707e-23)
(0.00333015 -0.00547601 2.65674e-22)
(0.00132518 -1.2544e-05 -2.58089e-23)
(0.00219287 -0.00229791 -3.30233e-23)
(0.000784367 -0.000601204 -1.54305e-22)
(-1.20005e-06 1.76642e-07 0)
(4.35756e-08 4.66202e-06 -1.34701e-24)
(1.90831e-05 2.14139e-05 -2.45283e-25)
(7.75577e-06 8.70381e-05 0)
(-0.00849148 -0.00265919 1.21028e-21)
(-0.000301197 0.000221191 2.03942e-23)
(-0.000414305 -0.000592838 -2.05605e-24)
(-0.000142177 -0.000943158 5.76019e-23)
(4.58874e-06 -1.34017e-05 -8.60337e-23)
(-2.43176e-06 3.99806e-06 -1.81679e-23)
(-1.07408e-06 -7.48478e-07 -1.86276e-23)
(0.000112306 6.89781e-05 1.51181e-23)
(-0.00060108 0.000501731 0)
(-1.40899e-06 -3.1076e-06 -1.66555e-23)
(-0.000225978 0.000222708 -4.64185e-23)
(-8.81959e-07 -2.89438e-07 6.76151e-24)
(-1.19055e-05 1.1898e-05 0)
(1.26919e-06 -2.65696e-06 -4.57777e-24)
(-0.00173191 -0.000101957 -3.94535e-24)
(0.000361176 6.32798e-05 -1.93698e-22)
(5.893e-06 -2.02918e-06 -5.24797e-24)
(-0.000315477 -0.000177347 -1.02577e-23)
(-8.30557e-07 -3.02823e-08 2.82867e-23)
(3.82607e-06 -1.61748e-07 3.32575e-25)
(2.04835e-05 1.86965e-05 0)
(-5.02092e-06 3.98418e-05 1.11677e-22)
(0.000138966 0.000159515 1.66824e-22)
(-0.00159887 -0.00247668 9.48652e-23)
(2.37554e-05 1.55927e-05 0)
(-0.000608396 -0.000641107 0)
(-0.00164202 7.13863e-05 0)
(5.46885e-06 -1.6538e-05 9.25298e-23)
(0.00343432 0.000643283 -5.67759e-22)
(3.09647e-06 4.05321e-06 4.45402e-23)
(-3.7783e-05 5.17805e-05 -1.22502e-24)
(-0.000728512 -0.00056896 0)
(0.000212501 -0.00082092 -1.31533e-22)
(-9.55316e-06 -3.52967e-06 0)
(7.31176e-05 1.45442e-05 5.74354e-23)
(1.76277e-07 -8.51825e-07 5.38314e-24)
(-6.24297e-06 4.50282e-06 -9.12651e-24)
(-1.92309e-05 3.6657e-05 1.246e-24)
(-0.000158735 0.000371892 -2.84467e-23)
(0.0104184 -0.00815461 2.5369e-21)
(-8.4926e-07 2.8453e-06 0)
(-0.00105151 -7.01917e-05 -4.03143e-24)
(0.00754683 0.00803814 1.67771e-21)
(-9.62987e-07 1.06122e-07 -2.74425e-23)
(-7.88743e-09 3.10802e-06 0)
(-0.000252709 -8.28758e-05 2.13423e-23)
(5.87293e-05 0.000117979 -4.00698e-22)
(0.000912757 -0.00213153 -4.38788e-23)
(-0.00592803 -0.00703722 0)
(0.000502275 -0.000211436 0)
(0.00275369 0.000580253 2.0511e-21)
(-1.91307e-05 -4.47444e-06 1.54365e-23)
(-1.52862e-07 2.38418e-06 0)
(1.21498e-05 -2.07277e-05 9.62498e-23)
(4.25879e-05 2.37761e-05 -8.77895e-23)
(2.27302e-08 4.48447e-06 3.99151e-25)
(-1.56489e-06 1.16965e-07 -8.6818e-24)
(0.000385839 0.000737344 1.6499e-22)
(3.46488e-05 1.03922e-05 3.03817e-23)
(-6.50602e-05 -3.50405e-05 0)
(-0.00138335 0.000139136 0)
(-8.98906e-07 -1.32459e-07 -7.37033e-24)
(0.00247316 -0.0190095 0)
(-3.32921e-07 -2.33119e-07 -1.4711e-25)
(-8.40353e-06 9.48757e-05 3.22923e-23)
(-0.00168573 1.79684e-05 0)
(-1.96007e-05 -3.4412e-06 0)
(2.29766e-06 -7.77535e-07 2.13307e-24)
(3.91018e-06 -1.26746e-05 5.76773e-23)
(0.000589719 -0.000271536 0)
(1.08753e-05 -2.08745e-06 0)
(1.37902e-08 -7.08477e-06 0)
(0.000212349 -0.000770009 0)
(-7.09011e-07 1.32799e-06 1.60497e-23)
(8.76102e-06 -2.57009e-05 -1.14435e-22)
(-8.30021e-05 4.73137e-05 -6.11119e-23)
(-1.73064e-05 -6.75921e-06 -5.65666e-23)
(-8.98715e-07 2.94461e-06 0)
(-2.09704e-05 -4.18814e-06 0)
(2.40674e-05 0.000351943 0)
(-1.38963e-06 -1.40563e-06 6.1665e-24)
(-1.038e-07 3.51645e-06 3.95884e-24)
(-1.41285e-06 -2.66698e-06 1.6451e-23)
(0.00180867 0.00126071 -4.09488e-22)
(-0.00148472 -0.000162689 7.43882e-23)
(-1.06946e-06 1.00559e-06 1.71863e-23)
(-8.84256e-06 -3.47163e-06 0)
(-1.4682e-06 5.1434e-08 0)
(0.00134888 -0.000882096 0)
(-5.8919e-06 3.5094e-06 0)
(0.000177519 6.57235e-05 4.23869e-23)
(-0.000271308 -0.00062036 6.00473e-23)
(-4.0311e-07 3.69697e-06 0)
(1.31328e-06 -6.37735e-07 7.1704e-24)
(8.28726e-06 -5.31808e-06 4.6329e-23)
(0.000500844 -0.000908551 6.50647e-22)
(-0.00180065 -1.967e-05 -9.09566e-24)
(1.49855e-05 2.60258e-05 5.67432e-23)
(-9.41608e-07 1.84906e-06 0)
(0.00318471 0.0189418 9.55693e-25)
(-5.52758e-05 -0.000759922 -5.50893e-24)
(-1.83324e-05 -8.50269e-06 -2.38761e-23)
(3.56333e-08 3.71875e-06 -1.76789e-24)
(-0.00221383 -0.00565512 -8.59199e-23)
(-2.72212e-06 2.16142e-06 2.49533e-23)
(1.3603e-05 1.03706e-05 -1.58026e-22)
(0.000141907 -0.000125528 0)
(7.01125e-05 8.55341e-05 3.25919e-22)
(-3.85166e-05 8.12627e-05 0)
(3.94874e-05 1.44778e-05 2.02756e-22)
(-2.62444e-07 -6.72849e-06 -3.46362e-23)
(-5.62236e-06 3.9015e-06 0)
(-3.10972e-08 -1.00736e-06 -4.2143e-24)
(-0.000174802 0.000195974 4.02202e-24)
(-1.41435e-06 -1.35522e-06 1.22507e-23)
(0.000209727 -0.00109897 -4.61008e-24)
(1.98966e-06 -7.99106e-07 0)
(1.5995e-06 -1.40544e-06 0)
(-0.0149301 0.0314589 4.43212e-21)
(0.00181161 -0.000607716 0)
(-0.000642525 0.00314354 1.64553e-23)
(-0.000975767 -2.93058e-05 -4.85405e-24)
(0.000226683 -0.000250974 2.89943e-22)
(-0.000236638 4.31176e-05 0)
(1.41541e-06 -2.52655e-06 6.63693e-24)
(0.00263272 0.00154929 0)
(-0.000698007 -0.00611061 0)
(0.000279933 -8.49152e-05 -1.54084e-22)
(3.60035e-06 -1.86764e-07 2.07968e-24)
(-8.57258e-07 2.72797e-06 1.85465e-23)
(-1.78397e-06 -1.11854e-06 2.63148e-23)
(2.00604e-05 2.62034e-05 -3.48635e-23)
(-9.23859e-06 -7.756e-06 5.4571e-23)
(5.56167e-06 2.16026e-05 -5.75552e-23)
(-1.43642e-05 7.81026e-06 3.4124e-23)
(-8.38195e-05 2.87752e-05 3.0537e-23)
(-1.43522e-07 2.75779e-06 -2.90289e-24)
(-1.18612e-06 -5.8186e-07 2.52503e-23)
(0.00029253 9.76047e-05 -7.94348e-23)
(8.41623e-06 -1.46891e-05 -3.39722e-23)
(0.000336569 0.000141276 0)
(2.78406e-05 9.92703e-06 6.26935e-23)
(-9.34597e-07 3.08106e-06 0)
(6.48534e-09 -1.05097e-06 8.56065e-24)
(-1.21171e-06 1.41536e-06 0)
(0.000471392 -0.000188078 6.20234e-23)
(-0.000110074 0.000576392 -9.30284e-23)
(-8.52411e-07 2.30245e-06 7.67062e-24)
(-1.389e-06 -5.85204e-07 0)
(-8.15093e-08 2.8199e-06 -3.9727e-25)
(2.66431e-07 2.98814e-06 0)
(-0.00147472 0.000497542 -4.50155e-23)
(-2.21504e-07 1.64377e-06 0)
(-0.00295022 0.00608743 0)
(0.000192191 -0.014634 -2.12209e-22)
(-1.47262e-06 3.67877e-07 0)
(-2.36029e-06 2.50686e-06 -1.49213e-23)
(-0.000988072 -0.000712388 -1.21729e-21)
(-0.00033789 -0.00080061 0)
(-0.000806331 0.037449 1.67595e-21)
(0.00022955 -2.7235e-05 3.11419e-22)
(-2.4454e-07 2.06762e-06 1.81537e-23)
(2.75382e-05 1.24956e-05 -6.62965e-23)
(-0.000721466 0.00307426 -1.50582e-22)
(1.51514e-06 -1.82408e-06 -1.67598e-25)
(-0.000110607 0.000473389 2.34619e-22)
(-0.00344895 0.00190383 -5.66547e-22)
(1.25931e-05 -6.18815e-06 -4.01168e-23)
(-1.52019e-05 -6.28287e-06 -5.57702e-23)
(6.38795e-07 6.0547e-06 -2.19005e-24)
(-6.78909e-08 1.74616e-06 0)
(-7.08681e-08 4.42268e-07 1.37461e-23)
(0.000171526 0.00015418 0)
(4.53947e-07 7.28209e-06 1.65888e-24)
(1.39036e-07 -3.30459e-07 0)
(1.18742e-05 -7.75757e-06 -1.70836e-23)
(-4.03972e-07 -2.75997e-07 5.41473e-24)
(-4.3482e-05 0.000161214 0)
(0.00289108 -0.00382042 -2.30612e-22)
(-2.58376e-07 2.50457e-06 -1.12761e-23)
(5.92323e-07 5.5747e-08 2.41735e-24)
(0.0051802 -0.00240067 2.79737e-22)
(-1.52711e-06 1.16423e-07 0)
(-1.61668e-06 2.45542e-07 0)
(-8.03192e-06 -7.24187e-06 -2.24934e-23)
(-0.00393332 0.00424079 -2.34461e-22)
(0.00190923 -0.000652638 1.39356e-22)
(-2.09395e-07 2.36099e-06 0)
(0.00148267 -0.000899572 0)
(3.93236e-06 -4.52583e-07 1.79679e-24)
(1.23894e-06 -2.88355e-06 1.05919e-23)
(-3.29095e-05 -3.83747e-05 -3.37961e-22)
(1.75099e-06 -5.42317e-05 0)
(-5.31605e-06 7.54028e-06 1.55247e-24)
(0.000350844 0.000103717 -6.25287e-22)
(0.00809722 -0.0108161 -5.08075e-21)
(-3.59187e-05 0.000100351 0)
(-0.00174327 4.44472e-05 4.64316e-22)
(8.22329e-06 -6.70798e-06 -2.5985e-23)
(1.02854e-05 -1.85523e-05 -1.37072e-23)
(0.000504782 -0.000378711 0)
(0.00696674 -0.00323861 -5.92065e-22)
(1.12095e-07 -1.1255e-07 6.20439e-24)
(-7.40148e-07 3.34496e-06 -1.81734e-23)
(-4.19655e-07 -6.76771e-06 -1.05457e-24)
(-1.23296e-06 5.80822e-06 0)
(0.00161258 -0.00104019 0)
(-2.21045e-05 1.145e-08 3.80131e-23)
(-0.00200895 0.0133541 -2.29072e-21)
(8.13262e-08 3.32003e-06 -6.5179e-24)
(-0.00522793 0.0192203 0)
(-2.71576e-06 3.21859e-06 0)
(-6.80332e-05 0.000569476 8.87953e-23)
(-0.00783882 -0.00150924 -5.36279e-23)
(2.30351e-05 2.83264e-06 -5.61925e-23)
(-0.00202431 -0.00216035 2.11453e-21)
(-4.05229e-05 8.94538e-05 0)
(-2.55614e-07 -6.93104e-06 0)
(1.15063e-05 1.71612e-05 5.03866e-23)
(-5.07161e-05 0.000196983 0)
(-0.00505115 0.00367286 4.63442e-22)
(-3.65267e-07 1.1774e-07 -1.50306e-23)
(-0.00340042 0.0054925 2.87457e-22)
(2.5261e-05 -6.21085e-09 0)
(-5.07002e-07 -7.28755e-07 0)
(-0.00134273 -0.00117151 0)
(-0.00156542 -2.29917e-05 -4.45737e-25)
(-2.43568e-06 4.12959e-06 -2.34224e-23)
(-0.000287452 -0.000146616 0)
(0.0027898 0.0014045 -4.38186e-22)
(-1.02521e-06 1.64017e-06 -8.7111e-25)
(-0.0128177 -0.000320774 -1.20097e-22)
(-0.00183451 0.000844552 -3.69405e-23)
(1.18102e-06 -2.84382e-06 -9.17294e-24)
(0.000102542 5.48856e-05 4.92235e-26)
(0.000498679 0.000724341 1.68129e-22)
(0.00607076 -0.000433961 -9.1801e-23)
(1.18803e-05 2.16919e-05 2.77097e-23)
(0.000241228 -0.000897067 -1.66248e-22)
(0.00347705 0.0149956 3.15735e-22)
(-0.000618136 -0.00357552 5.29945e-22)
(0.000193054 -5.6853e-05 -1.36403e-22)
(-3.83285e-07 -1.91972e-07 -1.41682e-23)
(0.00590791 -0.00512226 1.00069e-21)
(-1.61639e-06 5.75008e-06 -4.09064e-24)
(-5.68154e-06 5.50519e-06 0)
(0.000488774 -0.000317619 3.00734e-21)
(-0.000415844 -0.000620517 -1.5073e-22)
(-1.35331e-05 2.53203e-06 4.23223e-23)
(-6.26534e-06 8.37397e-06 -1.42835e-24)
(2.57124e-05 -3.10131e-09 -6.61205e-24)
(7.83707e-06 -6.33128e-06 2.49785e-23)
(3.04451e-06 3.64447e-06 -3.48849e-23)
(-1.60615e-06 -1.53467e-06 -2.67515e-23)
(-4.2284e-07 -2.94055e-07 0)
(-0.00032138 7.90615e-05 -5.8019e-23)
(0.00207073 0.00066835 0)
(-1.1205e-06 1.13e-06 -9.07649e-24)
(-1.46493e-05 8.7897e-05 -4.67341e-23)
(1.62909e-07 2.68294e-06 -1.71897e-24)
(-0.00101914 0.000275186 6.59435e-23)
(-9.18962e-07 4.12085e-06 5.84539e-24)
(-7.85341e-07 1.10881e-08 -3.45829e-23)
(-0.00117271 0.00524929 4.66246e-22)
(-0.00141714 -0.000664818 3.87623e-23)
(-0.000144735 0.000192202 0)
(0.000472208 0.000132553 0)
(-1.40732e-06 3.18442e-07 0)
(-1.34005e-06 6.38891e-08 1.00861e-23)
(-0.00011684 -0.000943323 7.738e-23)
(-0.00361611 -0.0150062 9.71102e-23)
(1.08816e-05 6.3302e-05 -1.25206e-22)
(3.21974e-06 -2.33353e-06 9.55737e-24)
(9.9186e-05 0.00116322 0)
(0.00137454 -0.00389864 -4.51318e-23)
(-3.21267e-07 2.89593e-06 7.17826e-24)
(-1.14775e-07 1.01739e-06 -1.12295e-25)
(-1.47521e-07 2.01081e-06 -2.68508e-23)
(-9.98653e-06 -4.11161e-06 -1.22064e-23)
(-0.000226016 0.000198762 5.96421e-23)
(-7.11015e-05 -0.000923017 2.37238e-23)
(-5.43004e-06 6.13725e-06 7.5015e-24)
(-1.26886e-05 1.37473e-07 0)
(0.000518888 0.000154202 6.14717e-24)
(-0.00140352 -0.00361288 0)
(0.00125901 -4.01283e-05 2.88212e-22)
(1.55396e-07 -3.4196e-07 2.68013e-24)
(-4.41814e-06 1.18943e-05 1.91297e-24)
(0.0157653 0.0298833 -3.80771e-21)
(-6.43188e-06 4.63255e-06 -1.05786e-23)
(1.93105e-07 -1.89915e-07 0)
(-1.14117e-06 1.17365e-06 0)
(-5.16886e-07 2.65583e-07 1.69291e-23)
(8.73131e-06 -0.000141712 0)
(0.00338352 0.0034607 -8.36016e-22)
(0.00894883 -0.0185624 0)
(0.00407863 0.00818681 2.39257e-22)
(-1.12625e-06 1.28987e-06 2.65479e-23)
(0.000672299 -0.000131119 -1.01362e-22)
(-1.92842e-06 -1.08452e-06 1.50718e-23)
(-7.0436e-08 1.01839e-06 -1.93817e-24)
(0.00216213 0.00285082 -6.47579e-22)
(0.0104298 -0.0225772 6.12879e-22)
(-0.000238619 -1.08162e-05 -4.54191e-23)
(0.000558359 -0.000956447 -1.45029e-23)
(0.000410474 8.10386e-07 7.41197e-23)
(-0.00131425 -0.000814944 -5.78899e-23)
(-3.44525e-05 -0.00091738 -5.89184e-24)
(-0.00171259 -0.000974757 1.69535e-22)
(5.1273e-05 -0.000876461 3.4782e-22)
(-0.00135241 0.00010265 3.44318e-23)
(-9.62439e-05 9.32729e-05 -4.59367e-23)
(-0.0016435 -0.000149139 2.05959e-23)
(-1.34488e-06 6.31761e-06 3.23406e-24)
(0.00030918 5.07869e-06 0)
(-8.84191e-06 -2.96677e-06 -4.26895e-23)
(4.24944e-06 8.28944e-08 6.30516e-24)
(0.000129256 -1.15967e-05 -4.95007e-24)
(0.000238964 -0.000157628 0)
(-1.41171e-05 8.47319e-06 2.14638e-23)
(-0.00683015 -0.0125531 0)
(-0.0020553 -0.000697644 3.85908e-23)
(3.60919e-05 -1.63912e-06 9.02066e-23)
(1.01174e-07 3.31106e-06 1.23534e-23)
(3.51665e-07 4.54052e-06 1.06131e-24)
(0.014911 -0.0290981 -2.41408e-22)
(0.00164868 -0.000857608 0)
(0.000510719 0.000161903 3.85189e-22)
(9.96903e-08 -8.42016e-07 5.2367e-25)
(-0.0020383 -0.00946148 0)
(0.010063 -0.00422213 1.53883e-22)
(3.68544e-06 7.73635e-06 0)
(3.96488e-06 -8.25781e-07 -8.32647e-24)
(2.29215e-07 2.73568e-06 6.83539e-25)
(1.47811e-05 1.32899e-05 4.55521e-23)
(0.00562833 0.0182967 6.01899e-22)
(0.0117313 -0.00242801 -1.93202e-21)
(-2.55183e-07 3.38852e-07 -1.6036e-23)
(-0.000325196 -0.000983702 0)
(-2.74464e-07 2.47918e-06 0)
(0.000121866 -0.000667725 1.38564e-22)
(-4.30178e-06 -1.87565e-05 4.75988e-23)
(-7.7361e-06 -3.35732e-06 1.97327e-23)
(-8.95027e-06 -2.31617e-05 7.57458e-23)
(-0.000775012 -0.00297212 2.68993e-22)
(1.25912e-06 -5.99163e-07 -3.49817e-24)
(-9.33038e-07 1.1234e-06 0)
(0.00222826 0.0006978 -7.36189e-22)
(-0.000162138 -0.000944894 -3.03157e-23)
(0.000879683 -0.000170523 3.74579e-22)
(-0.00313418 0.00208202 -1.22579e-22)
(3.16491e-06 -2.83837e-06 -1.01723e-23)
(-1.02798e-06 1.14709e-06 0)
(7.45552e-08 5.38155e-06 -2.30877e-25)
(-7.1914e-05 -0.000285577 1.55703e-23)
(-1.25119e-05 0.000109035 3.48656e-24)
(-8.29586e-05 0.000530689 0)
(-7.45827e-07 -2.92116e-05 1.07242e-22)
(0.00841137 -0.0227486 0)
(-0.00106284 0.000504748 7.58576e-24)
(2.30385e-05 1.79345e-05 8.19449e-23)
(0.0110536 -0.00114362 9.60143e-23)
(-3.48182e-06 1.25385e-05 -2.49994e-24)
(-0.000706092 0.000633898 -5.85977e-23)
(-2.86931e-07 1.20019e-06 0)
(0.00365388 0.00271477 0)
(0.000846469 -0.001303 -1.46281e-22)
(1.97737e-05 0.000168427 -8.36199e-23)
(8.25756e-06 -5.76175e-06 -4.78028e-23)
(-0.000207487 8.09417e-05 0)
(-0.00292199 -0.000435156 -1.62277e-22)
(-8.79845e-07 1.30903e-06 0)
(-0.000814054 -0.0136494 3.52264e-21)
(-1.96891e-06 4.24e-06 3.35501e-25)
(-2.40883e-07 4.24529e-07 -1.85978e-23)
(0.000807534 -2.99944e-05 1.51861e-22)
(-0.000431751 -0.000762838 0)
(-2.59135e-07 2.44177e-06 2.38953e-23)
(-1.04964e-06 2.29744e-06 0)
(-1.61641e-07 3.03674e-07 9.05823e-24)
(0.00216672 -0.00381111 -5.51582e-23)
(0.00221602 -0.000404557 -6.08306e-22)
(-1.01031e-06 1.40085e-06 0)
(0.000589516 0.00369753 -1.00307e-22)
(-1.59996e-05 -6.33882e-06 7.66847e-23)
(2.28992e-06 -7.44451e-07 0)
(-1.37122e-06 -8.24439e-08 -9.78134e-24)
(-0.000269407 1.67962e-05 -1.66366e-22)
(0.00116283 -0.000313723 7.45948e-23)
(3.58805e-06 -1.81894e-05 9.30851e-23)
(-0.0019124 -0.0197061 7.84243e-22)
(-9.10195e-07 2.59673e-06 -1.5457e-23)
(-1.21196e-06 -7.52513e-07 -2.36643e-23)
(-0.00140997 -1.8231e-05 0)
(-0.0182043 -0.00140824 0)
(-0.000527382 -0.00539454 1.1009e-22)
(-0.00136439 7.22792e-05 6.16807e-24)
(0.00255202 -0.00141444 -1.75478e-21)
(2.77607e-06 6.55029e-06 4.91571e-23)
(0.00666596 -0.00738889 -1.2184e-21)
(-0.00145537 -0.0162558 8.46049e-24)
(3.75833e-06 1.67844e-05 -3.66824e-23)
(0.000551126 -0.0085293 3.15823e-22)
(-0.000554492 2.1793e-05 0)
(-4.83133e-06 -1.64454e-05 0)
(-4.31542e-05 -0.000112963 7.80269e-23)
(-6.46778e-05 0.000240056 0)
(2.49383e-05 2.28182e-06 0)
(0.000172301 -7.07915e-05 1.35855e-22)
(-1.16558e-05 -5.84019e-06 -1.15745e-23)
(-6.50697e-06 -3.0035e-05 5.48765e-24)
(0.00889588 -0.00515396 1.3665e-21)
(-8.75224e-07 1.39294e-06 -1.93261e-23)
(-0.000398164 -0.000397917 -1.52018e-22)
(-7.59649e-06 -0.000156469 7.30187e-23)
(-6.45116e-06 0.000154983 -6.02873e-23)
(-6.39565e-05 9.07256e-05 -5.11657e-23)
(-5.6538e-07 -6.54096e-07 0)
(3.61805e-06 -2.13778e-06 2.17373e-24)
(-0.000101222 3.11211e-05 -1.4368e-22)
(-9.03647e-07 8.54739e-07 -1.8761e-23)
(-9.11961e-08 1.17901e-06 -5.06633e-24)
(3.67339e-05 0.000177346 1.14451e-22)
(-5.86405e-07 7.9927e-07 8.36465e-24)
(-1.5707e-05 9.83439e-05 1.34513e-22)
(2.30651e-06 -7.0943e-07 -2.408e-24)
(-0.0005766 -0.000285989 -3.14074e-23)
(-3.29449e-06 1.09418e-05 -2.31853e-24)
(1.01995e-06 -3.03252e-05 1.76481e-22)
(-4.70026e-08 -1.25796e-06 0)
(-0.0100034 0.0148568 -4.61295e-21)
(-0.00163565 4.53538e-05 0)
(0.00179137 0.0193417 -4.56364e-22)
(-1.11014e-05 -4.16787e-06 0)
(-0.000757981 -0.00019388 0)
(-6.00758e-05 -0.000929582 -4.27742e-23)
(0.00186537 0.00193448 0)
(1.62238e-06 -7.24216e-07 0)
(0.00174239 -0.000959485 4.67279e-22)
(4.6e-06 6.42146e-06 -6.7899e-23)
(0.0139829 0.00101997 8.44338e-24)
(-2.60791e-07 3.83366e-06 0)
(0.000302148 0.000139736 1.88738e-22)
(0.000552998 -0.00321718 0)
(-0.000153948 0.000481114 1.84e-22)
(-0.0199813 -0.00125319 -2.06179e-21)
(0.00070291 0.00116815 -1.84522e-21)
(0.000177172 0.000205303 -1.44376e-22)
(2.37305e-07 -1.87636e-07 -1.32077e-23)
(-0.000202357 6.43662e-05 0)
(-1.12504e-06 3.6402e-08 0)
(1.12502e-05 3.357e-05 1.44405e-23)
(1.99988e-06 1.97481e-05 0)
(-6.04255e-07 7.74207e-06 -2.02591e-24)
(-7.05906e-07 1.06397e-07 0)
(-0.000703065 0.000301296 4.85752e-23)
(7.81476e-07 7.75778e-05 -4.57258e-23)
(-8.67827e-07 -6.91579e-06 -4.0834e-23)
(-0.00042778 -0.000997209 -4.71575e-23)
(0.00362925 -0.0179516 0)
(5.04036e-05 0.000113304 2.31216e-23)
(1.52832e-07 -2.36539e-07 7.73644e-24)
(-9.23102e-06 2.58949e-05 -8.79537e-24)
(-1.85039e-07 2.42346e-06 0)
(-1.57469e-06 9.77487e-08 -1.48173e-23)
(-3.2567e-07 3.79989e-07 0)
(-1.70968e-06 4.29582e-06 4.83011e-24)
(0.00286974 0.00574069 -9.52811e-22)
(-1.02453e-05 -2.15742e-05 -5.56174e-23)
(-7.49149e-05 -0.00160052 2.123e-22)
(0.00173389 -0.000104429 -2.42275e-22)
(-0.00041314 0.000170677 7.83393e-23)
(0.00179117 -6.71856e-05 5.58008e-22)
(0.00233228 0.000691893 9.08232e-23)
(2.77451e-05 -4.34682e-06 3.60155e-23)
(1.66975e-07 3.24209e-06 2.57069e-24)
(0.000875852 -0.00298138 5.04406e-22)
(-1.56727e-06 -1.27537e-06 1.35188e-23)
(-0.000467949 0.000260243 2.64846e-22)
(-3.67094e-05 5.4652e-05 -9.43535e-23)
(-5.87523e-07 -1.81061e-07 0)
(-8.45221e-06 -3.66935e-05 6.93733e-24)
(-0.000152948 0.000275166 0)
(-0.00070298 0.00109166 8.38099e-23)
(0.00044403 -0.00097414 1.24812e-22)
(1.06536e-06 -3.13418e-05 -4.91914e-23)
(2.45418e-05 -2.17253e-06 0)
(-1.80708e-06 -5.14911e-06 2.46109e-23)
(-0.000156805 0.000191072 -4.67944e-23)
(-0.000262656 0.000107906 0)
(0.000528196 -0.0012607 5.11017e-24)
(-0.000550017 0.000109042 -2.76478e-23)
(0.00615242 0.000415778 -1.42458e-21)
(-0.0128913 -0.00181187 0)
(-0.000454841 0.000139496 4.64856e-23)
(-0.00045255 0.000254946 -1.12267e-22)
(-0.0184903 0.00730779 -1.212e-22)
(-0.00117517 0.00556714 2.44546e-22)
(-1.39786e-06 3.37217e-07 1.05444e-23)
(-0.00172287 -0.000112443 -4.09806e-23)
(-1.1115e-05 0.000106378 -1.68214e-23)
(3.82163e-06 6.80683e-05 1.29449e-22)
(0.000224578 0.000197475 0)
(-2.35294e-06 -1.34927e-06 2.57145e-23)
(-0.000126215 9.00088e-05 0)
(2.96736e-05 0.000170598 0)
(-2.36893e-06 -1.59204e-06 -2.82167e-23)
(0.00158073 0.00637559 -5.8783e-23)
(-0.00413747 0.00334872 -3.81914e-22)
(-0.00012281 0.000296429 9.98993e-24)
(0.00278707 0.000566212 -1.11658e-21)
(5.26386e-05 -1.23521e-06 7.7553e-23)
(4.60821e-06 -2.51737e-05 0)
(-6.58933e-07 6.39528e-08 0)
(-0.000454154 0.000466917 0)
(0.0178715 -0.0232943 1.44397e-21)
(-8.2863e-06 3.00436e-05 2.26031e-24)
(0.00276268 0.00111028 9.73626e-22)
(-3.53863e-06 -1.46225e-07 1.55739e-23)
(-0.000828362 0.000467002 -2.18497e-23)
(0.000113333 -0.000785872 0)
(1.18547e-05 -6.00832e-06 -5.80826e-24)
(-1.64914e-05 1.08232e-05 0)
(1.226e-07 3.37732e-06 0)
(1.12462e-05 7.76575e-05 -9.57956e-24)
(-4.52934e-07 1.9751e-06 -4.66106e-24)
(0.00221403 -0.0201445 -2.3126e-21)
(0.000169853 0.000298537 0)
(0.00122564 0.0059814 -4.79622e-22)
(-1.40728e-06 -1.17739e-06 -1.18277e-23)
(-2.14718e-06 -1.78878e-06 0)
(-1.90629e-06 -4.86925e-06 2.56743e-23)
(-0.00723254 0.004258 2.61098e-21)
(0.0017057 0.00579301 -2.57989e-22)
(6.07003e-05 7.61728e-06 6.88589e-23)
(0.0055235 -0.0150668 -4.80577e-21)
(-2.64958e-05 7.07525e-05 0)
(0.00158702 0.00180459 -1.20585e-22)
(-2.32443e-08 3.19529e-06 0)
(-6.17394e-07 5.87418e-08 5.09101e-25)
(0.0148784 -0.00203912 4.10212e-21)
(-1.4591e-05 1.63067e-06 -2.20888e-23)
(-0.00439555 0.00129368 0)
(0.00125875 -0.00189943 0)
(2.64474e-05 0.000128284 3.94919e-25)
(-0.00850738 -0.000678795 0)
(-2.24859e-06 -2.16076e-06 1.23178e-23)
(-0.00148523 0.000248996 6.69608e-24)
(0.000809215 -0.0008074 -1.95098e-23)
(-7.69073e-05 -0.000287281 8.96884e-23)
(5.53804e-06 -1.2051e-06 1.46866e-23)
(-7.12169e-07 -3.13067e-07 -1.24334e-25)
(-5.55724e-07 -7.28004e-06 3.85328e-23)
(-2.6985e-07 1.02913e-06 0)
(0.00034396 0.000556573 -4.0448e-22)
(-2.05146e-05 7.28975e-06 0)
(-5.85528e-07 1.60129e-06 -3.86338e-23)
(0.00149811 0.00692881 0)
(3.92052e-06 1.2118e-05 -2.73559e-23)
(-7.56786e-05 -0.00018718 3.43272e-23)
(0.0043874 0.00437197 -3.25348e-22)
(-3.51561e-05 9.43669e-05 -2.39167e-23)
(-1.47225e-06 8.20436e-07 2.20267e-23)
(-8.43604e-05 0.000249898 4.61592e-24)
(1.29308e-06 -1.18614e-06 4.72065e-24)
(1.1855e-05 -6.06162e-06 1.93929e-25)
(-0.00746643 0.00417955 -2.26174e-22)
(0.000302846 0.0010913 0)
(-1.24577e-06 3.37839e-07 0)
(0.0068705 0.00394053 -1.97981e-22)
(-0.000793293 0.00104726 2.99611e-23)
(-1.13356e-06 -2.60081e-07 2.22988e-23)
(-1.07522e-06 1.74213e-06 0)
(-2.15457e-06 6.54459e-06 0)
(4.74956e-05 0.000118903 3.70373e-23)
(-0.000207955 0.000562123 -4.14699e-22)
(-9.96968e-07 1.2737e-06 4.46257e-24)
(-0.000100727 1.21831e-05 3.61855e-22)
(-1.71978e-07 1.30291e-06 0)
(0.00884234 -0.00516507 0)
(-0.00859761 -0.00722202 -1.99847e-21)
(-8.20687e-05 0.000550879 0)
(-0.00186802 0.000451035 -1.2486e-22)
(-0.000168378 0.000247073 0)
(6.01153e-06 -2.55207e-05 -8.07211e-23)
(0.000157228 -0.000951008 -3.08105e-22)
(-9.01586e-07 2.10675e-07 4.44831e-23)
(-0.00432215 0.00135177 7.15164e-23)
(-9.48712e-07 2.69031e-07 0)
(-1.00934e-06 3.65727e-07 3.40953e-24)
(4.92224e-08 -8.77585e-07 0)
(-1.42756e-07 -4.31841e-06 5.65101e-23)
(-2.22842e-06 -0.000422423 1.29865e-23)
(-2.73559e-06 -5.07824e-06 1.68979e-23)
(-8.61782e-07 5.88437e-07 1.78538e-23)