/*--------------------------------*- C++ -*----------------------------------*\
| =========                 |                                                 |
| \\      /  F ield         | OpenFOAM: The Open Source CFD Toolbox           |
|  \\    /   O peration     | Version:  v2012                                 |
|   \\  /    A nd           | Website:  www.openfoam.com                      |
|    \\/     M anipulation  |                                                 |
\*---------------------------------------------------------------------------*/
FoamFile
{
    version     2.0;
    format      ascii;
    class       volScalarField;
    location    "250";
    object      epsilon;
}
// * * * * * * * * * * * * * * * * * * * * * * * * * * * * * * * * * * * * * //

dimensions      [0 2 -3 0 0 0 0];


internalField   nonuniform List<scalar> 
18166
(
2.44032e-06
2.69965e-06
4.12722e-06
3.65329e-06
0.0240477
2.79489e-06
2.27069e-06
0.099466
0.0303279
0.0118488
3.06541e-06
2.74791e-06
0.05624
2.96381e-05
0.0289568
3.8649e-05
3.41331e-06
0.0542021
2.64659e-06
0.0193157
8.4606e-06
3.42596e-06
8.02662e-06
3.20796e-06
2.56985e-06
2.29256e-06
2.34455e-06
1.95794e-06
2.45762e-06
3.87478e-06
0.00375707
1.82472e-06
2.41756e-06
2.64128e-06
1.63931e-06
3.08712e-06
0.0324109
3.10464e-06
1.86233e-06
0.0111265
4.0894e-06
0.0401283
2.40505e-06
2.51626e-06
2.46477e-06
3.46081e-06
2.79682e-06
0.00548204
7.80476e-06
2.30281e-06
1.98167e-06
2.06517e-06
9.05238e-06
3.9243e-06
3.10498e-06
0.0157277
0.0418184
0.0419476
2.20219e-06
1.91321e-06
3.04903e-06
1.7755e-06
0.0166475
2.10083e-06
5.63513e-05
3.25076e-06
0.019576
0.0154072
0.15607
1.88622e-06
1.64738e-06
2.11682e-06
2.45659e-06
2.08508e-06
0.0853649
0.00366093
9.43206e-06
0.152684
1.97965e-06
3.2147e-06
4.06477e-06
0.0365142
3.23442e-06
3.07995e-06
1.88672e-06
1.66716e-06
1.89743e-06
2.72609e-06
2.0544e-06
1.86981e-06
0.024491
2.70786e-06
0.0307617
4.17858e-06
4.06578e-06
1.65759e-06
1.84661e-06
3.8478e-06
2.24229e-06
1.92326e-06
2.74491e-06
3.50599e-06
0.0264563
2.10155e-06
1.88269e-06
3.53915e-06
0.341521
0.0169162
2.19105e-06
3.18975e-06
0.0317277
0.037969
0.0161123
0.0170909
3.54007e-06
1.68727e-06
4.00025e-06
0.00458295
2.37958e-06
0.0156503
0.0747709
2.45141e-06
0.000803717
0.0619072
5.33079e-06
2.77563e-06
3.57913e-06
0.0428358
2.2312e-06
2.59208e-06
6.32918e-06
0.193457
1.80001e-06
0.00896191
2.22631e-06
2.77219e-06
3.12605e-06
2.53607e-06
1.79315e-06
0.0023784
0.0316477
6.53519e-05
0.000683518
0.00820545
2.18431e-06
0.0329438
0.0500005
0.0199743
1.77427e-06
1.83196e-06
1.85822e-06
0.0108152
0.430767
5.42691e-06
4.03985e-06
3.23755e-06
2.19464e-06
0.0180885
3.14981e-06
0.0450531
2.01641e-06
0.0133086
1.9249e-06
2.33773e-06
2.06505e-06
0.000586316
3.53001e-06
0.00776775
0.0317604
0.0317916
1.39002e-05
0.0152748
2.5555e-06
0.0148791
0.00396783
2.63584e-06
0.000143641
0.0172746
2.64333e-06
2.74631e-06
3.54228e-06
2.48558e-06
2.8914e-05
0.000136048
0.00866089
2.50061e-06
3.05255e-06
3.40661e-06
3.0869e-06
1.6821e-06
3.18027e-06
2.63726e-06
1.98941e-06
3.0983e-06
2.30452e-06
0.00271344
2.67103e-06
2.29326e-06
0.00479574
0.0145331
1.28211e-05
0.0133402
1.70804e-06
0.0188895
2.32713e-06
2.07793e-06
0.0390231
0.0172387
0.0262217
0.0661366
0.022405
0.0329911
2.67598e-06
3.35063e-06
2.01709e-06
2.6174e-06
0.00013042
3.88016e-06
0.0338575
0.034714
1.8922e-06
2.71488e-06
2.52975e-06
3.20439e-06
0.0289469
2.16504e-06
3.61602e-06
2.47458e-06
2.2197e-06
1.71388e-06
0.0215088
0.0166335
1.72123e-06
0.00237545
2.97473e-06
1.67868e-06
2.00102e-06
2.80137e-06
0.0155389
0.0232672
1.98611e-06
0.0289233
0.0181809
1.90949e-06
0.0154284
2.44599e-06
3.57352e-06
0.0277736
0.00980354
2.04606e-06
2.48694e-06
3.55336e-06
2.34084e-06
2.22735e-06
0.0108908
0.0903987
3.3661e-06
0.0274294
0.03376
2.37186e-06
3.296e-06
0.00226656
3.16772e-06
7.56421e-06
0.0270836
0.0173512
0.0634508
2.08934e-06
4.11329e-06
1.92235e-06
2.33384e-06
3.34944e-06
2.64248e-06
0.025348
2.0543e-06
0.014163
0.017526
2.45344e-06
0.00143063
1.83118e-06
2.71298e-06
0.0203397
2.09777e-06
1.63745e-06
1.89414e-06
4.47073e-06
1.7718e-06
1.90872e-06
0.0340485
3.59226e-06
1.96314e-06
2.62407e-06
2.0658e-06
3.35581e-06
2.10135e-06
0.00252045
2.23382e-06
3.41041e-06
2.19189e-06
0.012128
0.0179033
3.22165e-06
2.19403e-06
2.62899e-06
0.0265318
2.37518e-06
0.0160222
5.90453e-06
2.50324e-06
1.65508e-06
1.80787e-06
0.000804915
0.0184468
2.24627e-06
3.55824e-06
0.0353887
6.8616e-06
2.06407e-06
3.30864e-06
2.70187e-05
2.65773e-06
2.2481e-06
0.0139177
3.0896e-06
2.44735e-06
2.30705e-06
1.90531e-06
2.38414e-06
1.79814e-06
0.0136699
2.52755e-06
0.0084773
1.6315e-06
1.69228e-06
0.304584
0.046225
1.46482e-05
0.0282201
0.0228742
0.015522
1.76529e-06
0.0601883
2.18429e-05
0.0023541
1.675e-06
3.15792e-06
2.26529e-06
2.25116e-06
2.12145e-06
2.70897e-06
2.19673e-06
2.58022e-06
3.38657e-06
2.57183e-06
5.968e-06
1.89262e-06
6.5417e-06
1.99625e-06
3.13367e-06
1.81312e-06
2.77882e-06
0.0168286
0.00248351
3.38136e-06
2.29316e-06
2.95726e-06
4.14164e-06
8.69197e-06
4.16477e-06
0.1004
0.0416113
2.66966e-06
2.66786e-06
0.000438438
0.029031
0.238358
0.0022886
4.0202e-06
1.99896e-06
1.49308e-05
1.69866e-06
0.00224155
0.000807436
1.82974e-06
2.05882e-06
2.67893e-06
3.26589e-06
4.17354e-06
0.0157482
2.68686e-06
1.67001e-06
1.84809e-06
1.92077e-06
0.0123628
1.43601e-05
3.98457e-06
3.45246e-06
0.0304198
2.35079e-06
2.38735e-06
2.15649e-06
2.45845e-05
0.049023
4.15622e-06
0.0130916
1.69193e-06
1.72714e-06
0.014372
0.0131239
2.30291e-06
0.019348
0.107235
2.63586e-06
0.00862799
1.82886e-06
1.92461e-06
4.49235e-06
4.60977e-05
1.61498e-06
3.3191e-06
1.92407e-06
2.79141e-06
0.000905469
2.14561e-06
0.00154979
4.13419e-06
0.000239035
2.63436e-06
0.00250536
0.0930051
2.23576e-06
0.000281729
2.50626e-06
1.9177e-06
1.9453e-06
0.0120405
0.0144288
3.78158e-06
0.0959736
1.92509e-06
1.90889e-06
0.061311
0.0218907
2.70363e-06
0.0129623
0.0635987
3.26672e-06
0.102978
1.03757e-05
1.73112e-06
3.00851e-06
0.0252159
0.00291545
2.00361e-06
0.00923532
0.0273063
2.12378e-05
3.19199e-06
1.92618e-06
0.0359351
2.66953e-06
2.35641e-06
0.000469615
0.00772689
2.19618e-06
2.31272e-06
1.91634e-06
1.8241e-06
2.45558e-06
2.25159e-06
1.90589e-06
3.36504e-06
0.0397369
2.79936e-06
2.67594e-06
4.20293e-06
0.0165156
3.33245e-06
3.01608e-06
0.000215013
0.0330469
3.39191e-06
0.0189154
2.88578e-06
2.9295e-06
0.0348633
0.122144
2.88409e-06
1.71132e-06
6.69556e-05
3.14298e-05
3.72537e-06
3.57533e-06
3.96839e-06
2.06098e-06
0.0139207
0.0371753
2.38739e-06
2.19678e-06
1.23571e-05
0.0384014
0.0414209
1.6638e-06
2.2707e-06
0.102604
2.35205e-06
3.54256e-06
3.25448e-06
2.04174e-06
2.74114e-06
0.000160866
0.0219104
7.68695e-05
3.18312e-06
1.02913e-05
2.54722e-06
4.18121e-06
0.0737291
0.0358294
2.99454e-06
0.02044
0.0166396
0.029562
0.0350776
1.02605e-05
0.0459063
0.0183387
2.9307e-06
0.0201848
2.73219e-06
6.35003e-06
2.03264e-06
1.68562e-06
9.50518e-06
0.00105508
2.21061e-06
0.000599667
0.0153113
2.04356e-06
4.01065e-06
2.56522e-06
0.0246903
0.0487782
0.0196788
1.71422e-06
0.000433036
0.0614976
2.35091e-06
1.69918e-06
2.94048e-06
2.23754e-06
0.212498
0.0327109
3.95333e-06
0.0402187
3.41465e-06
0.0101202
1.97983e-06
2.19764e-06
2.03313e-06
0.0331613
1.65016e-06
3.12941e-06
0.0440307
0.0398057
5.14486e-06
0.0234823
1.7145e-06
3.26004e-06
3.71701e-06
0.00255356
1.04024e-05
0.00264292
2.02669e-06
0.0319863
0.0273761
2.00898e-06
0.0588246
2.27662e-06
0.0276924
2.02528e-06
3.05292e-05
0.0536334
8.98928e-06
1.80682e-06
0.014962
0.0294467
3.10301e-06
0.174673
2.60996e-06
3.99992e-06
0.0655008
0.0290206
3.95884e-06
3.30007e-06
1.9979e-06
0.0291466
0.0551657
3.10115e-06
2.05144e-05
2.05648e-06
1.65139e-06
2.91152e-06
3.64777e-06
1.13122e-05
1.9241e-06
0.150327
3.37447e-06
2.55571e-06
0.0179176
0.0646238
2.51476e-05
0.019904
0.0109114
2.41836e-06
0.0625612
0.14302
2.23869e-06
0.0370406
4.2783e-06
1.98184e-06
2.53595e-06
0.0119307
2.23669e-06
3.07735e-06
2.08336e-06
2.08574e-06
0.0539059
3.13843e-06
0.0188708
2.80803e-06
3.64552e-06
2.54309e-06
1.91852e-06
1.71156e-06
0.0138209
3.16717e-06
3.4278e-06
3.85948e-06
1.95807e-06
3.06134e-06
1.64812e-06
6.21021e-06
2.39546e-06
2.0237e-06
1.82682e-06
0.425032
0.0195838
0.0441293
2.07695e-06
0.0234292
0.0349465
2.78551e-05
1.66281e-06
0.0529833
2.382e-06
0.25096
3.12413e-06
8.11929e-06
0.00839018
0.00222824
0.0656542
0.00234613
0.0166795
1.61741e-06
0.0189941
2.72543e-06
2.2539e-06
2.24082e-06
2.7248e-06
3.17723e-06
0.0161401
2.53934e-06
1.93495e-06
0.0423781
0.150703
3.69734e-06
1.62579e-06
2.21247e-06
4.10986e-06
2.33563e-06
2.04902e-06
2.60647e-06
0.000197709
2.03204e-06
0.0422871
0.0264199
0.0167907
0.0251672
6.00874e-05
2.23779e-06
3.62172e-06
0.0134522
2.52522e-06
0.0157584
0.0121227
1.93119e-06
2.15395e-06
0.0124742
0.0255261
0.0202377
2.02978e-06
2.23619e-06
2.13858e-06
0.0104612
0.0173975
0.0204538
4.36324e-06
0.00139167
0.0584373
4.11077e-06
0.00850984
0.138125
5.26324e-05
2.89441e-06
0.0204109
2.80994e-06
2.44089e-06
0.0170011
2.27645e-06
4.08771e-06
9.08182e-06
2.26236e-06
1.56174e-05
0.0166536
0.0098608
0.0692833
2.34157e-06
1.98449e-06
3.20815e-06
4.54177e-05
0.0122251
2.21977e-06
0.0604738
2.54068e-06
0.0290354
0.0410582
1.80947e-06
2.1899e-06
4.14077e-06
2.52182e-06
4.07947e-06
0.160259
3.85434e-06
0.0191042
2.2515e-06
2.24476e-06
2.15194e-06
0.184447
0.0191105
2.40292e-06
0.169223
2.53075e-06
0.00787198
3.14476e-06
3.53316e-06
0.000514676
2.18715e-06
0.000134791
0.0498784
5.98747e-06
0.000164966
1.98299e-06
0.017121
0.0210105
7.40477e-05
1.71178e-06
2.20835e-06
1.9351e-06
3.58049e-06
1.6437e-05
2.17858e-06
1.97647e-06
1.73671e-05
2.28165e-06
0.00238107
2.81145e-05
2.55738e-06
2.69229e-06
0.0121334
1.68106e-06
1.81775e-06
0.0142623
1.02993e-05
2.93534e-06
3.36327e-05
0.024811
1.95594e-06
3.29072e-06
2.72547e-06
3.88921e-06
0.00222991
3.11897e-06
0.0158089
4.11954e-06
0.0380197
0.129301
0.00264442
0.00345449
3.68608e-06
1.98367e-06
0.000357393
2.77995e-06
0.0149001
1.96093e-06
2.4054e-06
1.73892e-06
1.89577e-06
0.0101057
2.09711e-06
3.19583e-06
2.20307e-06
1.96487e-06
0.00250325
2.26329e-06
0.0316017
2.90174e-06
3.62398e-06
3.10116e-06
0.0206264
0.0276863
0.354299
0.00089339
2.41615e-06
0.0161639
0.0278854
2.05934e-06
2.86357e-06
0.0150738
0.0167344
1.99286e-06
5.19412e-06
0.0246776
3.34135e-06
1.67191e-06
2.35615e-06
2.09043e-06
2.34789e-06
0.0253165
0.116964
1.76809e-06
0.0164343
2.23914e-06
0.00155301
2.41089e-06
2.63014e-06
2.71052e-06
0.020478
0.0140073
0.00987345
3.69836e-06
2.4704e-06
1.91259e-06
0.0190216
3.16731e-06
1.92149e-06
1.86864e-06
2.54036e-06
6.70548e-06
2.15061e-06
3.26538e-06
0.00447946
3.33119e-06
0.0513314
1.94821e-06
0.00110122
2.45623e-06
1.36936e-05
6.02616e-06
2.37329e-06
0.0372645
0.000343239
0.0253273
3.64327e-06
2.24092e-06
9.12348e-06
0.0354584
2.84365e-06
2.20415e-06
1.7354e-06
0.0187385
1.81967e-06
3.31029e-06
1.6752e-05
2.25728e-06
1.70445e-06
3.59557e-06
2.65422e-06
2.64025e-06
1.94234e-06
0.000705713
1.99474e-06
1.77859e-06
2.11095e-06
0.0218798
2.6237e-06
1.9416e-06
2.37205e-06
3.17909e-06
2.77342e-06
1.28965e-05
0.0602176
7.33253e-05
1.7721e-06
1.9693e-06
0.0310289
0.0135279
0.0397542
0.0238218
1.21522e-05
2.66699e-05
2.92781e-06
2.13252e-06
0.030505
0.0191215
0.0225995
3.37347e-06
6.10293e-06
3.23693e-06
0.0627833
0.0249768
3.03946e-06
8.76376e-06
2.23536e-06
0.0205757
0.0212362
0.0419552
2.28004e-06
0.00406905
4.1281e-06
1.64767e-06
0.0636437
4.27847e-06
1.71617e-06
0.0348429
0.00216621
2.64212e-06
0.0162808
1.33955e-05
1.68844e-06
0.000445972
1.71281e-06
0.133865
0.0452756
4.01484e-06
0.0163738
0.00113652
0.0332958
1.71207e-06
1.87663e-06
2.57949e-06
1.78929e-06
1.75298e-06
1.8901e-06
0.0377662
0.0172357
2.11383e-06
0.00221157
2.0728e-06
2.63895e-06
2.881e-06
1.76306e-06
0.0173161
0.0491252
0.0240641
0.0183857
3.28205e-06
2.04485e-06
0.00411578
1.82783e-06
2.34606e-05
0.000101023
0.034365
0.0118345
2.10047e-06
2.6429e-06
1.82509e-06
3.21233e-06
3.51069e-06
0.00591491
1.71554e-06
0.00323439
3.4002e-06
4.19785e-06
2.32353e-06
0.0326884
0.000257903
2.91807e-06
1.97729e-06
0.0287955
2.6693e-06
0.0224756
0.017537
2.43554e-06
0.000266632
2.3908e-06
0.0147721
0.026615
0.0277714
7.61031e-05
3.35991e-06
2.64603e-06
0.00173194
2.229e-06
0.0269871
0.0277661
0.00979894
2.26582e-06
2.30294e-06
1.95236e-06
2.26291e-06
0.0220921
0.0133606
1.29472e-05
4.44176e-06
1.77229e-06
1.39618e-05
2.54992e-06
1.8079e-06
6.54111e-06
0.0317357
0.0157547
0.009594
2.45023e-06
0.000296131
0.0214232
1.79701e-06
1.78351e-06
4.12108e-06
1.12233e-05
2.00261e-06
2.10894e-06
1.98754e-06
3.65006e-06
1.86774e-06
7.9436e-06
3.18394e-06
8.03107e-06
0.0473301
0.0278206
0.011864
0.0444002
2.31457e-06
2.28931e-06
0.149263
6.89489e-06
2.22708e-06
2.09761e-06
0.00272792
2.38113e-06
5.6438e-06
3.51162e-06
1.69035e-06
0.0184328
0.0159037
0.251312
3.03746e-06
0.0243217
2.21978e-06
1.97925e-05
0.0198777
2.37623e-06
2.76514e-06
2.72751e-06
0.00203288
0.014264
1.87745e-06
0.0226151
0.0187059
0.00110434
2.04072e-06
0.0243821
2.34453e-06
0.0878303
4.15406e-06
4.10242e-06
2.91615e-06
2.86149e-06
1.72471e-06
2.00376e-06
2.83092e-06
0.000210126
2.7018e-06
2.04822e-06
0.012977
3.13143e-06
3.04428e-06
0.0177087
0.00365146
0.062317
1.8825e-06
2.48729e-06
2.40931e-06
4.17858e-06
0.0121683
1.80004e-05
5.93761e-06
0.02606
0.0397476
2.1405e-06
2.43001e-06
1.94253e-06
4.1558e-06
2.03277e-06
1.81076e-06
2.38068e-06
1.6957e-06
3.33852e-06
2.317e-06
3.37432e-06
5.49659e-06
8.20659e-06
1.89314e-06
0.0300643
2.8898e-06
2.1949e-06
0.0114014
2.12013e-06
0.0164732
7.20322e-05
3.02797e-06
4.94053e-05
0.0399143
0.00222682
1.87214e-06
0.0803667
2.13877e-06
0.0241851
1.90587e-06
0.0302784
0.0180979
0.00482153
2.59324e-06
0.0159565
2.55786e-06
3.78299e-06
2.37937e-06
0.0119214
2.01429e-06
0.0426331
0.0174884
0.00884202
2.17276e-06
0.0203619
0.0122355
2.59581e-06
1.71126e-06
2.5719e-06
2.29768e-06
0.0359367
2.12116e-06
1.84693e-06
0.0152967
3.24132e-06
0.0263402
2.27643e-06
2.19774e-06
0.0155942
2.12245e-06
0.00241222
1.96347e-06
0.0247854
3.25168e-06
0.00216933
4.07714e-06
1.67951e-06
0.0295192
1.2442e-05
2.02694e-06
2.16967e-06
0.0197877
1.69582e-06
2.60629e-06
0.0169741
2.3521e-06
0.0201852
3.57374e-05
3.82882e-06
0.0208182
0.0240434
7.59505e-06
3.46696e-06
2.18504e-06
0.0152248
2.47583e-06
4.09988e-06
1.99806e-06
3.37313e-06
2.31458e-06
1.8819e-06
1.02726e-05
3.50933e-06
0.0353389
0.00667121
0.0592055
2.12352e-06
2.5258e-06
3.8683e-06
1.8463e-06
5.13382e-06
1.65671e-06
0.392024
0.184662
0.00886009
0.0224037
0.000419647
0.0103816
5.0226e-05
1.83992e-06
2.90414e-06
1.99045e-06
4.05679e-06
4.26165e-06
1.68726e-06
0.00232361
3.27034e-06
2.41564e-05
2.21555e-06
0.116435
0.0597667
1.88034e-06
0.0175148
0.0166132
2.31768e-06
1.94842e-06
2.60786e-06
0.0547404
1.98405e-05
0.0803171
3.4441e-06
0.00215016
5.88004e-06
0.016122
0.0257773
0.0154768
3.6501e-06
0.0363861
1.06839e-05
0.0341484
2.18536e-06
0.0158216
1.83789e-06
1.66161e-06
1.67429e-06
3.09282e-06
2.73311e-06
1.71432e-06
2.49412e-06
3.41395e-06
0.0155229
0.0360386
9.47193e-05
0.000435802
1.84694e-06
2.28607e-06
2.07808e-06
0.00115672
0.00065304
2.54848e-06
0.106516
2.87238e-06
2.69586e-06
2.31948e-06
0.0776569
2.20707e-06
0.0552343
2.07735e-06
0.0153837
1.74835e-06
2.54049e-05
2.22195e-06
0.000159294
3.47253e-06
3.40531e-06
3.61152e-06
0.0255016
2.88911e-06
2.55405e-06
1.93765e-06
0.0158535
2.02757e-06
2.06325e-06
3.2934e-06
0.0903974
2.81494e-06
7.66286e-06
2.25746e-06
3.22781e-06
0.0151914
2.19669e-06
0.0767021
1.74453e-06
0.0161066
1.71254e-06
0.000372056
2.0793e-06
0.0318544
2.97169e-06
2.32141e-06
2.23429e-06
3.40331e-06
2.55506e-06
2.6528e-06
4.19595e-06
0.0103663
2.88155e-06
3.75403e-06
0.0407051
1.86767e-06
0.0301101
3.0272e-06
0.0279209
0.0734473
0.0304993
2.57459e-06
0.00130516
0.0344454
2.21604e-06
0.00325887
1.96865e-06
2.57359e-06
7.79742e-06
2.3814e-06
0.108806
2.04561e-06
3.30875e-06
0.012276
1.96371e-05
1.77896e-06
0.0290724
1.66524e-06
1.15619e-05
2.57409e-06
3.84462e-06
0.0240977
0.0268667
0.00281911
0.0206268
0.049074
1.89854e-06
0.0418122
0.00145606
0.000139782
1.87119e-06
0.0181151
2.23263e-06
0.00233423
0.0168248
5.74655e-06
8.09132e-06
2.98929e-06
1.77161e-06
0.0364055
2.30105e-06
0.0147103
0.00229853
0.010638
2.3309e-06
1.91581e-06
0.0104739
2.63924e-06
6.27116e-06
0.0166739
2.36023e-06
0.0192061
3.44503e-06
0.000180719
2.28883e-06
0.0324263
0.00028136
0.0672357
0.0307085
0.0787662
0.0355784
0.000291939
2.635e-06
0.0152078
0.00119605
2.5502e-06
2.30491e-06
1.83593e-06
4.03078e-05
0.0287798
0.011098
3.13894e-06
0.0741869
1.9318e-06
1.79294e-06
2.23679e-06
2.14065e-06
0.022895
0.100832
0.0253011
0.0117521
1.9548e-06
1.94118e-06
0.0178176
1.78394e-06
2.07946e-06
1.70994e-06
0.0199107
2.41164e-06
3.31609e-06
0.0047591
0.114275
0.0153421
1.88045e-06
0.0185151
2.61075e-06
2.98143e-06
0.0328854
0.00531212
1.79627e-06
0.0180008
0.00315713
2.31635e-05
2.40022e-06
0.00273104
4.24657e-06
0.0153834
1.93382e-06
0.0272135
0.0141645
3.88009e-06
0.0503634
0.0162599
2.0718e-06
0.0160219
2.0325e-06
0.0107648
1.70668e-06
0.0178914
0.0159393
0.0234157
3.36955e-06
0.0251011
0.0388903
0.0144681
1.93085e-06
4.06505e-06
7.06374e-05
0.0278276
2.24188e-06
1.89599e-06
6.13794e-06
2.9933e-06
0.0154099
2.63318e-06
2.00779e-06
0.0603586
5.36699e-06
3.68886e-06
0.0126505
1.98491e-06
2.20431e-06
0.0593456
1.81145e-06
1.98189e-05
2.29287e-06
2.13609e-06
0.0227037
0.000130741
1.83393e-06
0.020941
1.95522e-06
0.0104631
0.017184
3.23566e-06
2.72206e-06
2.35879e-06
0.0199927
0.00246958
3.67709e-06
0.0144222
0.0316854
0.0298649
0.00614841
0.00398382
1.99557e-06
5.56328e-06
1.71583e-05
0.0178941
2.97214e-06
0.111931
2.17876e-06
4.77928e-06
0.0568562
1.69536e-06
3.32268e-06
2.21634e-06
3.31999e-06
3.21711e-06
0.0207989
0.0111939
2.29565e-06
0.0138837
1.70265e-06
0.0234734
0.0170017
0.00223777
1.34325e-05
0.0222548
2.53115e-06
2.64628e-06
0.0182906
0.0165262
1.79747e-05
2.41475e-06
2.22074e-06
2.66079e-06
0.016808
0.0216138
2.20576e-06
3.68724e-06
8.09041e-06
2.97731e-06
0.11784
0.0554553
1.92421e-06
2.20605e-06
2.71342e-06
2.85755e-06
0.00305927
2.95545e-06
2.3479e-06
1.76891e-06
2.83956e-06
1.71888e-06
2.03264e-06
1.91032e-06
0.025156
0.00894116
0.014566
3.33106e-06
3.48865e-06
2.5734e-06
0.0102853
3.35536e-06
0.0909765
2.62412e-06
2.61915e-06
0.0206813
2.16088e-06
2.30941e-06
3.28106e-06
2.15954e-06
1.71613e-06
0.0019497
0.0387507
3.47164e-06
0.0169042
3.14559e-06
2.36216e-06
2.86235e-06
1.99047e-06
1.96469e-06
0.0301545
2.01246e-06
0.0232286
2.36371e-06
0.0107669
2.16762e-06
2.073e-06
0.0154023
0.0132378
1.83495e-06
2.17953e-06
5.7323e-06
1.76786e-06
2.86534e-06
2.2087e-06
1.73294e-06
0.0436272
2.28523e-06
0.00209491
1.62688e-06
0.0242624
0.000198674
3.57129e-06
0.00444859
0.0312611
2.24552e-06
1.70047e-06
0.0153287
6.57732e-05
1.89237e-06
3.24514e-06
0.000699572
1.69559e-06
2.94038e-06
1.72938e-06
2.61476e-06
2.9866e-05
2.49097e-06
0.013209
2.63182e-06
2.76782e-06
2.65935e-06
0.000148407
0.0140949
2.23739e-06
0.00986961
2.40004e-06
1.67869e-06
1.90533e-06
1.29003e-05
3.18745e-06
2.44002e-06
0.0519805
1.89544e-06
1.88267e-06
0.000240919
0.0687596
2.18529e-06
0.0203055
2.38088e-06
0.0955742
4.12815e-06
1.91879e-06
0.0104232
6.92292e-06
3.76453e-06
3.52739e-06
0.0265861
2.01746e-06
1.66226e-06
0.128447
0.113765
3.29838e-06
0.00454878
2.32189e-06
0.0374012
2.66181e-06
1.90459e-06
2.65939e-06
0.0429926
3.67039e-06
3.46832e-06
0.0151765
3.09953e-06
3.08089e-06
1.36761e-05
2.28094e-06
2.11948e-06
0.00958929
0.0315768
1.84643e-06
2.87757e-06
2.67198e-06
0.00690074
1.74056e-06
0.0375798
1.29298e-05
0.0303567
4.1078e-06
3.53748e-05
0.0230897
4.56733e-06
0.00520902
2.01442e-06
2.25454e-06
2.20796e-06
0.0136202
1.65297e-06
3.34014e-06
4.10515e-06
0.0316346
0.00689845
0.00745434
0.0724675
0.0126139
2.20619e-06
0.0084858
2.25052e-06
2.27693e-06
2.92282e-06
2.48391e-06
2.32817e-06
0.0531937
0.0144633
2.41605e-06
0.0984422
0.0372364
7.55179e-05
0.0191591
2.30757e-06
0.0186836
0.0268802
1.85414e-06
1.82593e-06
2.67294e-06
0.0113514
3.28213e-06
4.25561e-06
2.52472e-06
0.0513985
0.0021023
0.020686
0.0301352
1.70395e-06
1.76655e-06
0.0139373
2.14726e-06
1.7319e-06
0.00894572
2.25119e-06
2.07516e-06
2.79196e-05
2.80263e-06
1.67626e-06
1.92688e-05
0.00213948
0.134612
2.15652e-06
0.0465242
0.00117266
0.0196765
0.0179608
2.43413e-06
2.61616e-06
0.0644171
0.0299606
3.28902e-06
0.0184168
0.00231778
1.73153e-06
2.89419e-06
0.0221581
2.9648e-05
4.61202e-06
2.28253e-06
0.0144072
8.64711e-05
2.54108e-06
1.03123e-05
0.000650928
1.73004e-06
3.22299e-06
1.95054e-06
0.0203568
1.03651e-05
2.60716e-06
2.07276e-06
1.97011e-06
2.46994e-06
3.65275e-06
0.0104813
0.0323567
4.08668e-06
0.0422878
2.94403e-06
0.0202935
5.92882e-06
0.0204023
3.24243e-06
2.06526e-06
0.192568
2.68687e-06
0.0023886
0.0198057
0.0139608
0.0220627
3.18814e-06
2.03948e-06
2.56131e-06
2.66785e-06
2.02131e-05
2.04214e-06
1.83382e-06
1.66555e-06
0.000246385
2.54285e-06
2.8966e-06
0.020092
3.45688e-06
5.5298e-06
2.22844e-06
3.36136e-06
0.0211873
2.87621e-06
2.24235e-06
3.44841e-06
0.007032
0.0344937
2.63394e-06
2.59078e-06
2.1779e-06
0.00861894
2.24026e-06
0.0267682
0.016953
0.0186285
2.24891e-06
0.00201539
2.14268e-06
1.74039e-05
2.14288e-06
0.00701924
3.52739e-06
2.07025e-05
2.16537e-06
1.76608e-06
2.52549e-06
2.38493e-06
0.0023235
0.000109893
0.0164703
0.00848119
2.84234e-06
0.00214234
1.86366e-06
1.81605e-06
3.92275e-06
0.0172011
1.66796e-06
2.06291e-06
0.000344635
4.12124e-06
0.0290415
4.13166e-06
2.21956e-06
2.58551e-06
1.8256e-06
2.79997e-06
3.94688e-06
0.0506025
1.87104e-06
0.0348371
2.95541e-06
1.67382e-06
0.0342855
6.22144e-05
1.8029e-06
0.020098
2.80933e-06
1.73873e-06
2.58776e-06
2.54709e-06
4.15789e-06
0.0212947
0.000306423
0.044861
2.90654e-06
2.34147e-05
3.48113e-06
2.92432e-06
0.018527
1.62225e-06
3.20773e-06
0.0634433
2.05424e-06
2.24876e-06
2.19957e-06
1.39749e-05
0.0189197
0.0228572
0.0160139
3.28292e-06
3.23106e-06
2.19404e-06
0.0321078
1.78338e-06
2.64563e-06
2.50005e-06
2.24346e-06
0.0428855
3.6314e-06
3.33903e-06
2.16837e-06
3.04793e-06
3.15103e-05
0.00246063
2.06749e-06
0.0135929
0.00587929
7.27958e-06
2.74982e-06
7.42347e-06
2.60476e-06
0.000925319
0.000174087
1.92253e-06
3.30242e-06
3.5233e-06
1.77298e-06
3.34435e-06
2.29243e-06
1.67618e-06
0.0771264
2.45774e-06
2.2161e-06
3.56913e-06
0.0252201
0.00286141
2.26029e-06
6.57202e-06
2.64517e-06
1.74735e-06
8.73959e-05
1.35757e-05
2.01258e-06
0.0693576
0.0190245
2.01907e-06
1.89432e-06
0.0814837
2.90049e-06
2.9106e-06
2.3491e-06
2.18845e-06
6.07554e-05
0.0247263
2.98826e-06
0.0021548
0.00866175
2.90988e-06
1.75311e-06
2.51482e-06
0.0226468
0.0162222
3.26404e-06
0.000898742
0.00110124
0.0168428
5.85927e-06
2.41102e-06
2.36935e-06
0.0314494
2.25956e-06
6.35163e-06
0.0417098
0.00630727
1.42148e-05
3.17976e-06
0.051785
2.82801e-06
4.08579e-06
0.0297121
0.0129705
1.60067e-05
0.0430458
0.00839095
2.45639e-06
1.66569e-06
1.87083e-06
2.70682e-06
2.30994e-06
0.0133194
0.0274231
2.82544e-06
1.72983e-06
1.8353e-06
1.67915e-06
0.0156395
3.26986e-06
2.08929e-06
0.00013796
0.0112286
7.39124e-06
0.0271761
1.76392e-06
2.20449e-06
2.14149e-06
2.0352e-06
1.81122e-06
2.2527e-06
2.14309e-06
9.28688e-06
0.0533713
3.18618e-06
0.00749033
3.50148e-05
0.131453
3.51843e-06
2.57709e-06
0.0100433
2.62806e-06
2.62093e-06
0.00255293
0.0181248
6.90893e-05
0.0312312
0.0254616
0.0721354
0.0175485
0.0396636
1.80495e-06
3.00433e-06
2.25088e-05
1.96154e-06
2.51264e-06
0.000281154
1.90723e-06
0.00743144
2.19681e-05
0.0338079
0.00247655
1.9558e-06
1.06028e-05
2.54112e-06
2.6206e-06
1.94433e-06
3.30506e-06
0.0334407
0.0201889
0.0260795
2.1181e-06
2.2581e-06
3.73091e-06
2.57276e-06
0.0476051
4.20629e-05
0.00243373
1.06856e-05
2.66316e-06
1.87828e-06
2.40028e-06
0.0608438
2.09755e-06
0.184088
2.19058e-06
2.21057e-06
1.17847e-05
0.0148198
7.93513e-06
2.82171e-06
0.0349128
4.34606e-06
1.85903e-06
0.00213463
2.54272e-06
0.0258053
1.96688e-06
2.9116e-06
5.04271e-06
3.38729e-06
1.84819e-06
1.87649e-06
0.148372
2.19331e-06
0.0425513
0.00894813
0.0590301
3.39342e-06
2.90735e-06
0.00190113
2.07997e-06
2.20084e-06
0.0314577
0.088993
2.46179e-06
1.68142e-06
3.84564e-06
0.207491
3.42548e-06
0.0171449
0.000160388
0.0104871
2.13962e-06
1.13191e-05
4.18804e-06
1.86018e-06
1.98384e-06
0.0381944
4.21615e-06
2.21592e-06
3.27566e-06
0.00707454
0.0243787
2.20811e-06
0.0248631
3.42956e-06
3.46294e-06
2.19106e-06
0.0600504
1.93093e-06
2.71187e-06
2.07003e-06
2.01473e-06
2.90838e-05
0.0155809
0.0352748
2.23437e-06
2.27148e-06
0.00023498
0.000832686
0.0193439
0.0245324
7.72824e-05
2.2924e-06
2.41202e-06
4.94431e-06
0.00208329
3.30069e-06
0.000223866
3.59389e-06
3.51646e-06
1.64189e-06
9.31188e-06
2.81876e-06
3.17021e-06
2.01303e-06
2.23946e-06
0.00250912
2.33759e-06
1.72608e-06
1.82522e-06
0.00666929
0.00240962
1.95594e-06
0.037253
2.88501e-06
2.39648e-06
0.00863488
0.0149409
0.0276149
3.38019e-06
0.00163688
0.0825929
2.19501e-06
1.99609e-06
3.30878e-06
3.10236e-06
2.11058e-06
2.04944e-06
1.82029e-06
1.63248e-06
2.22345e-06
0.0128474
0.034466
9.35484e-05
0.0492732
1.73037e-06
2.62772e-06
0.0302282
2.18667e-06
0.013041
1.79773e-06
1.66181e-06
4.59153e-06
1.97192e-06
3.94647e-06
1.73525e-06
2.42234e-06
2.0977e-06
0.00589217
1.76155e-06
5.00251e-05
0.0577489
0.0170081
0.30079
2.62403e-06
1.86569e-06
0.0359535
0.0280299
3.24061e-06
1.64583e-05
0.0789397
5.17992e-06
0.0246922
2.37237e-06
2.237e-06
0.00527043
2.3002e-06
3.7231e-05
6.24063e-06
2.70241e-06
5.04153e-06
2.6104e-06
2.03375e-06
3.28141e-06
2.0246e-06
0.00242883
0.0208036
2.29764e-06
0.0164268
0.0410851
2.16144e-06
2.0392e-06
0.00509175
0.122864
3.35179e-06
0.0159626
2.55769e-06
0.107672
1.88886e-06
0.0199807
0.00261223
2.08409e-06
0.0175952
0.00095349
7.44903e-06
1.02718e-05
0.0247054
8.2137e-06
2.32488e-06
0.0280786
0.0180481
1.92812e-06
2.66822e-06
1.79558e-06
0.000187607
4.10013e-06
2.70108e-06
3.43762e-06
1.88523e-06
2.28883e-06
0.0798558
2.65007e-06
0.091601
0.132059
0.0409003
0.106014
2.88677e-06
1.78616e-06
2.86527e-06
2.20078e-06
1.62861e-06
3.57319e-06
0.0107713
0.0715553
2.6794e-06
3.18639e-06
1.10261e-05
0.0256284
1.72786e-06
0.000147294
2.49663e-06
1.93863e-06
2.80614e-06
0.015302
1.64884e-06
2.63167e-06
1.77849e-06
0.0170936
0.00380921
2.37063e-06
2.30696e-06
2.12306e-06
0.0175731
1.68171e-06
0.0230587
0.0130168
0.0665194
3.35248e-06
2.60287e-06
0.0136557
1.72966e-06
1.86988e-06
1.81309e-06
3.59388e-06
0.0192385
1.88659e-06
2.87137e-06
4.14074e-06
3.26554e-06
2.69358e-06
0.0209504
2.53374e-06
0.0135988
2.87419e-06
0.0191359
0.0255339
0.0366979
2.11894e-06
1.66552e-06
0.0264157
0.021451
0.00103833
0.0487185
3.08843e-06
2.20318e-06
2.04754e-06
0.112661
2.00581e-06
7.73489e-05
0.28133
2.75944e-06
0.0184021
0.0233698
0.0276082
4.19021e-06
2.23403e-06
1.9855e-06
2.34362e-06
3.15076e-06
2.06303e-06
2.96859e-06
0.0142202
0.0148119
0.0531286
2.26609e-06
2.1488e-06
2.8767e-06
0.0149864
1.7896e-06
0.0125039
0.0185408
0.00210423
2.37927e-06
2.01592e-06
3.52277e-06
2.36719e-06
2.10098e-06
0.0178563
2.58524e-06
0.0518028
9.83017e-05
0.0391476
1.74452e-06
3.64971e-06
0.00533598
1.67113e-06
0.0570097
0.00980266
0.0197666
2.79428e-06
0.0277405
0.00277454
2.76332e-06
0.0167444
0.0296604
2.95884e-06
0.0193159
0.0135281
0.0182217
3.16448e-06
2.50416e-06
2.49011e-06
0.0482132
0.000159759
2.90607e-06
0.0181937
5.65923e-06
5.39927e-06
0.0346549
0.000348884
0.061341
4.19149e-06
2.13054e-06
5.36571e-06
0.193652
0.0165796
0.0218822
3.48287e-06
0.0191923
2.48247e-05
6.61751e-05
2.24642e-06
2.43965e-06
2.13836e-06
0.0265949
0.000956977
0.115865
0.0525652
1.93357e-06
2.50648e-06
0.0121761
1.55829e-05
2.35526e-06
0.0334741
2.14199e-06
3.47279e-06
2.94396e-06
2.96017e-06
0.014368
2.10138e-06
0.052861
2.85943e-06
1.77345e-06
2.19279e-06
3.30633e-06
1.83912e-06
2.17208e-06
0.0300307
1.86258e-06
7.07227e-06
0.021846
3.94579e-06
2.63949e-06
0.141181
1.71599e-06
0.00304161
6.36887e-05
3.08204e-06
4.20342e-06
1.82536e-06
3.62556e-06
3.18797e-06
1.87516e-06
2.20924e-06
2.22711e-06
0.0218331
2.25526e-06
2.48689e-06
2.00329e-06
2.08879e-06
0.0217484
0.0227563
4.34894e-06
3.20419e-06
2.01853e-06
0.0635143
4.38767e-06
2.65838e-06
3.08764e-06
3.64001e-06
1.95156e-06
0.0204115
0.0160328
3.07115e-06
0.0192947
0.0218382
0.000669743
0.0962302
0.0171008
2.34039e-06
0.00230755
0.00245103
2.62398e-06
2.92903e-06
0.028172
1.78391e-06
0.0585544
2.91296e-06
2.4013e-06
2.19217e-06
0.025535
0.0138298
2.02653e-06
0.0202297
5.73407e-06
2.90234e-06
3.01957e-06
8.27666e-06
3.9674e-06
2.04123e-06
4.83069e-06
2.19802e-06
0.0495635
0.0169921
2.72955e-06
2.01306e-06
1.46014e-05
1.70929e-06
1.99173e-06
0.0144114
4.0764e-06
0.0266526
0.0143268
2.8786e-06
0.0162425
2.41855e-06
0.0822235
2.08326e-06
1.25884e-05
2.24903e-06
2.62858e-06
3.21952e-06
2.95658e-06
0.00834864
2.45156e-06
0.00252656
2.03511e-06
0.03682
0.00658745
1.08666e-05
0.0795621
0.0049903
0.0423269
0.00232856
6.48706e-06
1.88329e-06
1.98077e-06
3.30967e-06
1.7077e-06
0.0172547
0.0212878
3.30812e-06
1.93158e-06
2.10867e-06
3.27153e-06
0.000118862
0.0165556
2.44955e-06
8.30194e-06
0.000432997
2.39933e-06
0.0127491
0.00255042
0.0315986
2.23517e-06
1.75079e-06
4.09037e-06
1.75e-06
1.81198e-06
6.36567e-06
2.20482e-06
2.15902e-06
1.88789e-06
3.18642e-05
3.31797e-06
3.64219e-06
2.14118e-06
2.03314e-06
2.7356e-06
2.55122e-06
1.87426e-06
3.87481e-06
0.0118263
2.04449e-06
0.000224441
9.46408e-06
1.87771e-06
1.05337e-05
0.0350649
3.72214e-06
0.0267344
0.0161881
2.11489e-06
3.42221e-06
3.46548e-06
2.48969e-06
3.17567e-06
0.000121445
1.62594e-06
0.0245176
4.34589e-06
0.0352497
0.0285428
1.07288e-05
1.84785e-06
2.52413e-06
0.030572
5.99469e-06
0.0144207
0.0464612
0.0619304
0.00207075
0.0411108
1.96865e-06
2.2311e-05
0.0415205
0.0441594
1.85978e-06
2.38705e-06
0.00523776
2.12991e-06
0.0193648
0.00214198
3.08074e-05
2.47049e-06
1.36544e-05
0.051467
0.0247901
2.15857e-06
0.00498956
2.26468e-06
1.64705e-06
0.0190744
0.0596919
2.32047e-06
2.91159e-06
1.75285e-06
0.0104471
1.86671e-06
0.0317846
0.0435966
0.131788
3.39841e-06
3.34481e-06
0.00236305
0.002006
9.14192e-06
1.97888e-06
1.90885e-06
0.00234437
0.00303331
0.0236337
0.0164151
0.0439404
3.3991e-05
2.45663e-06
0.00356936
6.77701e-06
2.04792e-06
0.0480976
0.00217659
1.73483e-06
0.00985713
0.0181678
0.0179187
1.92923e-06
3.68667e-06