/*--------------------------------*- C++ -*----------------------------------*\
| =========                 |                                                 |
| \\      /  F ield         | OpenFOAM: The Open Source CFD Toolbox           |
|  \\    /   O peration     | Version:  v2012                                 |
|   \\  /    A nd           | Website:  www.openfoam.com                      |
|    \\/     M anipulation  |                                                 |
\*---------------------------------------------------------------------------*/
FoamFile
{
    version     2.0;
    format      ascii;
    class       volScalarField;
    location    "200";
    object      ddt0(k);
}
// * * * * * * * * * * * * * * * * * * * * * * * * * * * * * * * * * * * * * //

dimensions      [0 2 -3 0 0 0 0];


internalField   nonuniform List<scalar> 
18618
(
0.00115757
-0.0671596
2.21366e-08
-0.00384577
-3.09609e-09
-0.00063518
1.04464e-06
-0.0519888
-2.67199e-06
2.01354e-08
2.99173e-07
1.93214e-08
-0.00556374
1.6203e-08
-1.02727e-08
2.1822e-08
1.48475e-08
0.00952547
-4.67126e-08
-1.12128e-06
0.000434808
-5.55465e-09
2.01909e-08
3.36293e-06
2.57718e-08
-9.91558e-06
0.000722499
-7.09201e-08
1.98325e-08
-5.48644e-08
3.92164e-08
-6.89718e-07
2.93277e-08
7.31561e-06
0.000465745
-2.14756e-08
3.62309e-10
-0.0025507
-6.10303e-07
-6.05637e-08
-6.89447e-05
0.000491404
8.72459e-08
0.000167096
-3.06857e-06
1.38605e-07
-0.0541836
-3.3663e-08
-0.000565617
0.0185
-7.05025e-08
1.87206e-07
0.00854011
-9.13196e-05
4.55072e-08
-0.0263632
-7.72474e-08
-4.60497e-07
3.52718e-05
-1.88844e-06
-7.64737e-08
-5.07575e-08
-2.02019e-06
-4.41403e-08
-5.79134e-06
0.00605514
7.46267e-09
-1.47292e-06
-2.52201e-08
-0.00986466
1.36416e-06
-0.00126986
-1.48451e-06
-0.0122701
2.00747e-07
3.07014e-06
-1.82655e-05
0.000347991
-2.14943e-08
0.0345852
0.00775797
0.0116606
-0.0116788
-5.68344e-08
1.78404e-08
9.12603e-08
9.97695e-06
1.78223e-08
-1.41462e-06
0.00866743
-2.34531e-06
-0.000220783
0.00432583
-1.38857e-05
0.00266483
1.66843e-06
1.65399e-08
-0.00245391
5.60994e-08
2.26606e-08
0.00242354
-1.68522e-08
-3.06803e-05
-5.14941e-07
-3.42111e-09
0.00959464
3.72489e-08
1.94719e-08
1.0458e-05
-3.06555e-08
-0.011306
6.18197e-09
-3.32647e-08
7.75124e-08
-4.52706e-08
2.09408e-08
-6.11755e-10
0.00637672
2.13302e-08
-2.77982e-05
-0.00191006
-6.26193e-08
-0.0286772
0.00982644
0.00151231
0.000191333
2.43891e-05
-0.00494642
7.52902e-07
4.92465e-07
1.25005e-06
4.3176e-09
0.0199106
-1.98108e-05
-5.48147e-08
-7.62546e-08
-4.5264e-08
1.79996e-08
-0.0853514
-3.85267e-08
-2.99621e-07
-1.12734e-08
-3.82099e-08
1.34591e-08
7.92416e-08
-6.00538e-06
3.3978e-08
-6.35058e-08
0.00834489
1.62222e-07
4.64604e-08
0.0105914
-0.0862699
2.11922e-08
9.77585e-09
-0.0044404
-0.000171084
-0.00854182
2.10957e-06
-5.86525e-08
-8.84599e-09
0.00236171
1.6384e-08
-1.09818e-05
-1.20206e-09
-0.00204868
9.89276e-09
-4.70629e-08
0.0067893
7.9805e-08
1.85249e-07
-7.32641e-09
3.64209e-06
4.94599e-06
-0.00886994
7.93068e-07
8.78761e-05
-0.00368797
-3.0304e-09
-3.00427e-08
7.1017e-07
5.91587e-06
6.4932e-09
5.89524e-08
-0.000186471
-1.6069e-08
-7.72661e-07
1.34452e-06
0.000154076
-0.00099502
1.86515e-07
-4.56151e-06
-0.00353115
-4.49305e-08
5.39124e-05
3.68964e-06
3.18893e-06
-0.00890493
-1.04012e-07
0.040932
0.000253326
-6.80562e-05
-1.49174e-06
3.96269e-08
0.000492126
0.00681769
0.0332097
0.00938357
-1.3524e-07
0.0486537
7.85361e-05
-2.74207e-09
0.0106759
-5.35738e-05
7.68526e-08
1.27722e-08
-6.76005e-05
0.000626679
4.54913e-08
0.0229821
9.89929e-08
1.64502e-08
-3.02389e-08
-3.82122e-05
-3.56073e-06
-1.66743e-06
5.3877e-08
-9.02749e-09
-0.000272914
8.46563e-06
0.0390107
-6.07308e-05
-1.83523e-07
-9.42848e-07
5.65359e-08
2.20713e-06
-2.10553e-06
-2.83637e-05
4.04559e-08
0.00203638
3.1049e-06
3.84204e-07
-2.59633e-08
-6.57436e-07
0.00194468
2.30428e-07
7.46948e-06
-0.0439225
5.37977e-09
6.06913e-07
0.00939934
0.000119073
-4.8445e-07
0.0322288
9.22683e-08
3.58556e-08
2.71306e-07
1.26558e-05
4.07895e-08
3.5586e-06
-3.99013e-05
2.08741e-07
-3.23709e-05
-0.0750216
-4.96341e-05
-7.30974e-08
3.01095e-06
-2.74561e-05
2.54387e-07
1.46378e-06
2.45756e-06
-4.10719e-08
-7.02417e-08
-7.14971e-08
-4.81728e-08
0.00557809
4.32612e-06
-4.23239e-08
-0.00237268
-7.23356e-08
1.05801e-07
-3.52498e-08
0.0286641
-0.0342497
-3.37974e-06
0.00418258
-4.58592e-07
-5.32759e-06
-1.88391e-08
-0.000190141
-7.64132e-08
2.39951e-08
-8.15534e-08
-2.96724e-07
8.79952e-05
1.57012e-08
2.22235e-08
-1.04667e-08
-0.00132381
0.00544741
-0.00808413
0.0110751
-0.048987
-3.29448e-06
2.10827e-06
0.0382497
0.000280359
2.94908e-07
-5.22926e-08
1.69586e-06
-1.41043e-08
9.45931e-09
-4.60077e-07
-7.56805e-08
-1.31778e-06
0.000476745
0.0442627
0.000190398
-8.54972e-08
1.37404e-08
-6.79709e-08
5.49262e-05
9.40986e-07
-0.000242851
-2.5399e-07
4.21133e-05
-0.0125309
-5.57227e-08
7.29945e-06
4.70185e-07
-4.28386e-08
7.33346e-08
-1.11313e-05
-1.32894e-08
1.11513e-06
-1.36444e-07
-2.86723e-05
-1.70157e-05
0.0276592
0.0196081
-3.86135e-08
-0.00470198
-2.40933e-06
-1.4961e-08
-3.34095e-08
-5.11294e-09
-3.00626e-05
-3.62998e-08
0.0014482
-2.86511e-08
-0.0040112
1.66511e-05
-2.83772e-07
3.26632e-08
-0.00945823
7.73423e-06
3.50059e-08
-3.22249e-06
-5.24256e-08
3.21462e-06
0.000470067
-0.0938651
-3.61984e-05
-1.7642e-05
-0.0959162
-0.0120005
1.88629e-07
1.3688e-06
9.58944e-05
7.89083e-08
-4.49205e-08
2.50792e-08
-0.000101014
-0.00401362
-2.5191e-08
3.54206e-07
0.000873617
-6.98785e-08
-8.01241e-05
2.74548e-05
-8.10157e-08
5.3114e-07
0.018241
0.0026574
-3.74414e-08
1.22511e-07
-1.16788e-09
1.70336e-05
-2.69858e-09
2.52991e-08
-8.34135e-08
6.54917e-05
1.62088e-07
-8.0317e-08
-0.00373524
-0.000602085
-3.37243e-05
0.0355232
-1.27007e-08
-3.92877e-08
4.38724e-08
0.00661165
-0.00023669
0.00353914
-5.84693e-09
0.0172876
1.16113e-07
6.68223e-07
1.23667e-08
-2.03804e-06
-3.36472e-08
0.0199788
-0.000227483
-0.0026592
-6.11688e-07
-2.26128e-05
6.70979e-08
-2.84043e-07
-1.59722e-08
0.00902062
2.66552e-08
-1.07011e-07
4.27543e-06
-0.00026905
-0.000727522
-2.56303e-08
-6.9104e-08
0.000202442
2.98218e-09
-1.01645e-06
-7.25382e-08
-6.14623e-08
9.90455e-08
-0.000161483
-2.01376e-06
-2.43233e-08
-3.12842e-06
-3.94129e-08
0.000320984
2.15013e-07
-0.00152972
-5.4153e-05
4.98255e-06
4.62345e-06
-0.00603951
-5.4523e-07
0.013674
0.0055301
-6.71051e-08
2.5599e-06
6.73185e-08
0.0181034
-0.030059
-9.81671e-09
1.15593e-05
0.029299
-2.93126e-08
0.00301256
2.96933e-08
0.0153984
-0.0246872
5.59454e-07
0.0585673
4.44407e-08
0.000453561
2.31155e-06
-3.71686e-05
9.96437e-08
-0.00142701
3.31479e-07
8.7347e-09
-5.59939e-08
-0.00119091
1.91035e-07
-2.45238e-08
-2.09175e-08
-1.89331e-08
0.0766319
0.0110011
-6.72589e-07
0.0125097
0.000130831
6.95623e-07
1.07788e-08
-3.3031e-08
0.00202002
8.50128e-09
3.57926e-07
-0.000268045
-0.0274831
-9.80938e-05
-2.08906e-09
-6.43414e-05
1.3967e-06
0.00288429
2.7856e-08
0.00921044
1.80014e-08
-2.66759e-07
3.24545e-07
0.0363627
5.55902e-08
-0.00101117
-4.71771e-08
3.35316e-08
-3.45511e-06
1.37739e-08
-2.35041e-08
1.99912e-08
0.00141189
-0.00466425
-4.93742e-05
-2.54942e-05
1.63016e-07
-2.51484e-08
-2.81797e-07
-0.0213492
-5.65967e-08
-0.00436854
1.18541e-07
0.00479868
-1.91233e-06
-1.75331e-09
1.15114e-05
0.0337746
-5.14984e-06
9.87555e-09
-8.45602e-06
-0.00239329
0.000392721
7.53562e-08
-7.30967e-06
-3.20826e-08
4.62092e-07
8.36055e-09
0.0365958
-2.06557e-07
-5.29795e-08
0.015161
0.0201732
-0.0246567
-0.00184931
8.26379e-07
-9.50068e-05
5.02097e-06
-2.60014e-07
-0.00922288
-0.0297736
0.000289377
-6.85371e-07
-1.19199e-05
3.79918e-07
9.21775e-08
1.25475e-05
6.64001e-06
-1.19416e-07
6.30024e-07
1.6514e-05
1.42597e-06
2.24992e-06
-3.88456e-09
-0.00208006
-5.23154e-08
-0.00364783
-1.28112e-07
6.92204e-09
-1.74527e-06
-4.97778e-08
1.77788e-08
0.0403601
3.2153e-08
0.0178581
-1.33826e-05
0.000519132
8.91484e-06
1.18775e-06
0.000766329
2.33512e-07
-6.238e-08
2.62044e-06
-5.15946e-05
5.54702e-08
0.00758871
0.0009073
7.67198e-08
4.24673e-07
5.44313e-08
-3.19824e-05
3.54188e-08
1.9079e-06
7.10218e-07
0.020909
-2.73699e-06
0.000329209
2.97574e-06
0.0136274
3.3137e-08
-1.40865e-05
-0.00517192
-1.77654e-06
0.001973
-1.28458e-08
-1.88005e-05
-2.6896e-06
-7.08357e-08
1.44531e-07
0.0024698
-6.92465e-09
-7.77527e-08
-3.93618e-08
4.45338e-07
0.0121178
-8.38178e-05
5.45822e-08
0.00588208
-6.96505e-05
3.33495e-06
0.00501154
-1.2347e-07
4.51215e-08
-2.11836e-07
1.04958e-07
-3.86847e-07
0.0256711
-1.08076e-07
-0.000164404
9.73548e-07
0.00460657
-2.41688e-05
6.20193e-08
-2.48032e-08
1.32305e-08
-0.00652843
1.94656e-06
0.0196705
1.76634e-07
2.52771e-08
4.145e-09
3.89454e-08
4.66975e-08
3.52121e-08
-9.43929e-08
-2.68017e-05
-0.000698823
2.36187e-08
3.36451e-06
0.00121385
-2.05269e-07
-1.68952e-09
-0.00441324
3.74237e-06
1.28007e-06
1.18885e-08
4.70338e-08
0.000280447
1.51914e-07
0.00376982
5.95383e-07
5.3754e-08
-6.48411e-07
-5.61041e-05
1.27096e-07
0.0139045
-0.00441253
0.0167678
-1.1292e-05
4.54231e-08
-3.04545e-06
0.00936125
-5.91418e-08
-7.09171e-07
-2.36353e-08
-2.43539e-06
-3.79016e-05
0.0305056
-2.64096e-08
0.0101582
-6.60023e-08
-0.00138639
-7.23493e-08
1.39683e-06
-4.32879e-06
8.13146e-07
0.011777
-0.000592624
5.45651e-09
-0.0919631
1.06065e-07
-0.00593475
-1.55154e-07
1.45931e-05
7.45336e-08
-1.88621e-08
7.47274e-07
4.83797e-06
1.7069e-07
1.18273e-09
5.02638e-08
-1.14587e-07
-3.72557e-08
2.00498e-07
-4.44967e-06
7.55161e-09
-1.82495e-08
0.000487585
-4.49781e-09
0.00158172
-4.44617e-08
-3.55203e-07
7.56123e-08
-1.29585e-05
1.58149e-08
-0.000188934
-8.80189e-07
-0.0298742
-1.35221e-05
4.93477e-08
-3.99145e-08
1.78876e-08
-1.31976e-07
1.03972e-07
4.296e-08
3.52946e-08
0.0135203
3.4032e-08
0.0205943
0.00436823
-2.98683e-06
1.86791e-08
1.55145e-08
-0.000302691
-0.00460623
-0.00804183
-5.39979e-06
0.000307503
0.0234314
0.00452873
2.24309e-06
0.0230132
4.77593e-08
-3.7163e-08
1.33507e-08
-3.55293e-05
-1.92574e-07
1.56142e-07
6.29882e-06
-5.7964e-07
-0.00823132
-8.33646e-08
-0.00146646
-1.55221e-05
-0.023215
4.8428e-05
2.48058e-06
0.0018828
-4.93624e-06
4.5824e-08
-1.56283e-08
7.00182e-06
0.0171656
0.000792516
1.61948e-08
6.44217e-08
0.0039006
3.27855e-06
-0.000717268
2.16941e-07
0.000161728
4.49944e-07
0.0114265
5.76635e-08
-5.40711e-08
-9.035e-08
2.72353e-08
2.97211e-07
4.73858e-08
4.71524e-08
-0.00628311
0.0153062
-4.35037e-08
0.0120845
6.39356e-07
0.000545776
-5.63836e-06
-0.0135586
-9.0851e-08
1.59935e-05
-0.0889698
-5.87919e-08
-0.036786
2.43435e-08
-2.32002e-07
1.37479e-07
1.27924e-08
2.52633e-05
-5.03221e-08
-3.86539e-08
-2.93136e-05
3.18585e-08
5.86381e-07
3.9745e-08
0.00118764
3.02782e-08
2.18628e-07
4.36892e-06
9.85868e-08
-3.32778e-07
-4.29598e-07
4.42711e-07
-8.24011e-09
0.000719919
1.62143e-06
6.4377e-09
-2.74014e-08
5.97679e-08
-1.02321e-07
1.86019e-05
-1.30393e-06
0.0156362
-5.53228e-08
5.4954e-08
-0.00338083
1.65716e-08
0.00996789
1.09831e-07
4.29651e-09
1.82318e-07
-3.00567e-05
1.09999e-06
1.81115e-07
7.42476e-09
8.98251e-08
-2.30596e-08
3.40187e-07
-0.000644778
-2.02902e-08
1.90358e-07
2.14165e-07
0.0309818
-1.96496e-05
0.000160075
3.48229e-08
-6.41679e-06
5.12675e-06
-0.0210679
3.22528e-08
-4.91801e-08
-4.84586e-05
1.21739e-08
0.0215821
2.53145e-06
0.0210861
-8.52908e-08
3.73436e-08
3.72004e-08
4.73012e-07
-5.56467e-09
4.76203e-08
-0.00699302
-0.0106366
1.93831e-09
-0.000958221
0.00852844
-0.0801375
-0.0097285
-3.04452e-06
0.000350642
5.44793e-08
-0.011857
-2.21414e-07
-3.18971e-06
3.69898e-07
-0.0357517
-6.28881e-08
-1.41593e-07
-2.68004e-08
1.03533e-07
-0.000426387
8.61019e-07
0.0325455
-1.97025e-08
3.19937e-06
0.00261322
2.05944e-07
-7.39516e-08
-7.67806e-07
-0.00560999
0.00649429
-0.00198578
4.73438e-06
2.9606e-08
0.000700966
1.96018e-07
0.000126953
0.000414177
-4.4304e-06
2.51615e-06
-3.40392e-05
0.000716625
-0.00401608
-1.09749e-08
5.47924e-06
0.0157237
0.049901
-0.0606308
-0.00532209
-0.00912316
-2.49011e-05
-0.00438369
-0.0175663
2.36193e-07
-1.42136e-06
9.45576e-08
-0.004685
-0.00401193
0.0349698
2.87008e-07
-4.37159e-05
5.49187e-08
1.65485e-07
1.08333e-07
-3.81684e-07
-7.95648e-08
-1.96738e-05
1.39589e-08
0.0129514
2.14507e-08
-3.65748e-08
2.27281e-07
0.0183294
0.0018369
9.75969e-08
0.0468351
8.52579e-08
-0.0048442
-1.31115e-07
-4.21434e-05
3.96712e-07
7.54683e-08
7.34854e-09
-1.20038e-07
0.0113308
6.26183e-08
1.42109e-06
0.0380065
0.0261751
-6.06083e-05
1.5641e-07
-2.44534e-09
0.0495192
5.26391e-08
1.40935e-07
-0.00442864
1.4078e-07
-0.0450316
6.41175e-08
1.06943e-07
0.000106118
-0.0822369
-1.18947e-07
-1.94511e-07
0.000279418
-0.0120577
-2.15062e-08
6.49478e-08
-2.03457e-07
2.45541e-08
0.0119829
3.48135e-10
0.0127327
7.89454e-08
0.000270272
-0.00281472
-1.27045e-06
1.26593e-06
3.66281e-08
-9.60106e-09
-4.34173e-06
0.0171752
0.0246323
-2.81394e-05
-2.32191e-06
3.7058e-08
5.76507e-07
-5.71462e-08
8.07292e-08
5.24267e-06
2.8052e-08
0.00210101
2.80325e-08
3.78454e-08
-0.00421307
6.79761e-08
4.3258e-08
-0.00730982
2.40509e-09
-7.22513e-06
-5.52836e-07
-7.56189e-08
-7.30099e-05
2.11799e-06
4.57272e-07
-1.6676e-05
7.71978e-09
3.88214e-05
0.00107249
-0.0072509
-8.88222e-08
-0.00239817
-8.19463e-06
1.56224e-08
-1.93713e-05
0.000368356
-4.62983e-05
-3.35838e-06
4.68254e-07
-2.36275e-07
-4.03442e-06
-1.80063e-08
-1.48955e-07
-7.63704e-08
2.17306e-07
-1.133e-06
0.00502111
5.47513e-06
2.61514e-09
-4.75548e-06
9.32428e-06
2.52e-08
0.0209614
1.25605e-06
5.52775e-05
3.83508e-08
-7.83617e-08
-1.71657e-06
-3.77649e-06
2.40869e-06
-1.14226e-08
-2.35995e-08
-7.83751e-08
0.00495004
2.54114e-09
-5.37911e-07
8.71677e-07
1.17978e-06
-2.43572e-05
3.23509e-07
-5.28983e-08
-2.78657e-07
-1.03165e-08
0.0353371
-2.65966e-05
1.35767e-07
0.000260544
2.35792e-07
8.86252e-06
7.56353e-06
1.0342e-07
2.3866e-08
0.000588529
-2.63895e-08
-2.3257e-08
-1.52889e-06
1.49738e-07
0.000121601
1.18539e-08
-1.50349e-05
1.27871e-07
4.67759e-07
3.14161e-08
0.0172996
-0.0103553
-2.82422e-09
0.0103939
-3.3015e-07
-3.24779e-05
0.0395522
0.000403456
0.0187462
0.00226238
-0.00721647
5.21945e-08
-0.001642
-0.00222048
0.0335216
8.32827e-07
-0.00911039
0.000726
-6.3545e-08
1.20547e-06
-0.000627338
-6.29767e-08
0.0267824
2.00556e-06
-0.000600649
0.000243164
-0.00850359
-7.74944e-08
9.49791e-05
6.06517e-07
7.28682e-08
-0.00414206
4.30041e-07
-5.72288e-07
1.76486e-06
-9.8692e-07
0.000499841
-0.000457168
-2.6399e-08
-5.89319e-08
-3.16179e-08
0.000238573
8.67597e-05
1.61305e-05
-3.09907e-08
-9.46748e-06
-8.76584e-07
-2.26078e-08
-1.7327e-07
-2.81745e-07
6.92388e-08
-2.2484e-08
0.00561335
0.0296689
-1.01843e-08
-1.10225e-06
2.25045e-05
-0.0013136
7.27053e-08
4.61207e-08
-2.50244e-06
-0.000229454
1.68618e-07
0.00853488
5.30019e-06
-0.00339902
-8.00856e-08
-4.28123e-08
6.27936e-08
-1.24742e-06
-3.91677e-06
-2.22177e-07
-3.43381e-08
7.97978e-08
-0.000142058
-2.74412e-05
1.74482e-08
1.49686e-07
-2.81008e-07
-6.78867e-06
7.01393e-05
2.80631e-08
9.05739e-07
0.00342832
4.01631e-06
0.031365
0.00699291
-1.72317e-06
0.00488999
0.0175557
0.00552998
-3.027e-05
-0.00039759
-1.83442e-07
-2.05272e-07
5.73966e-08
9.60173e-08
0.000783635
-1.81064e-06
-1.21261e-07
-4.48238e-08
-3.77612e-08
-3.53209e-06
2.16115e-08
0.0103155
1.24534e-07
2.34146e-06
2.39213e-08
-7.28173e-08
2.86722e-07
-5.32995e-06
-1.83061e-07
-6.19429e-08
-7.43474e-07
2.24675e-08
0.000738672
-2.09751e-06
1.3231e-07
-6.60414e-07
-1.99756e-07
-2.01338e-09
-0.00276116
0.026676
-1.91168e-05
-1.44983e-07
-1.18654e-08
1.65276e-05
-0.0133719
6.33709e-05
4.17465e-06
5.67288e-06
-0.000822248
-3.13655e-06
-1.66321e-07
1.04834e-07
-0.000340446
6.1811e-08
-0.0385009
4.80627e-08
1.64584e-07
2.15266e-06
-1.8516e-07
6.10366e-08
2.0787e-08
0.00161079
0.000204511
0.0148307
4.39273e-08
-0.00320481
-1.13585e-06
8.44828e-08
3.43893e-08
0.000343461
-9.92004e-08
0.0242975
1.01518e-06
0.000131277
8.90378e-06
5.25093e-06
-9.79369e-07
-1.21462e-07
-0.0084907
-1.86358e-06
-0.00613684
-0.00151044
8.76985e-08
-0.00171998
-2.81895e-05
0.00134461
-0.00876789
2.48006e-08
0.00999717
-7.75563e-08
0.0251254
5.14284e-06
-0.0385853
0.00160658
4.93755e-08
-1.61543e-08
-0.000243858
-3.11409e-06
0.0204114
-0.00224506
1.90398e-08
-6.29258e-08
-1.5366e-06
1.27354e-06
-9.73849e-10
0.00561842
2.70715e-08
-0.00938728
4.62921e-08
1.13487e-05
-4.53264e-07
-7.89084e-06
-1.98298e-08
-0.00286747
-2.47363e-08
6.42433e-06
-8.3676e-09
-7.32113e-06
2.97112e-08
-5.40094e-06
2.60146e-07
3.71174e-08
-0.0077309
-5.37288e-08
4.5869e-08
0.00400215
3.82997e-08
-2.6978e-07
0.0108045
0.00300903
1.1609e-08
-5.10986e-09
-1.24703e-05
0.000506504
1.89851e-07
8.16968e-07
1.59389e-05
-0.00278091
4.04183e-08
0.00150436
-3.95695e-09
0.0169384
-1.69958e-06
-9.5757e-08
2.30461e-06
8.09839e-08
0.00496621
-3.22819e-06
0.00054169
-8.05148e-07
-9.45458e-05
-0.0115653
0.0305575
-1.95027e-08
2.66371e-07
5.69079e-09
1.91214e-08
3.92277e-08
-2.25786e-08
-6.14123e-08
-9.55668e-07
-7.07467e-08
-3.09735e-08
1.92291e-08
-2.30322e-08
-2.51584e-07
2.01335e-06
-1.17072e-07
-0.00978489
1.42626e-09
4.9039e-08
0.000134481
-1.9851e-06
0.00291323
0.00056715
-6.64591e-07
-0.0527332
1.53964e-07
2.24234e-05
2.17196e-07
0.00359987
1.36102e-08
5.39185e-05
-3.2793e-05
0.03107
1.19517e-07
1.99437e-07
-0.00158413
-1.1242e-05
-3.23875e-06
-5.30622e-08
-5.70826e-08
0.0052968
1.91229e-05
3.80489e-07
9.52312e-09
-1.87137e-08
0.0046001
7.04782e-08
1.33145e-06
-0.00354007
-8.77172e-05
0.0314141
6.77844e-08
6.67588e-08
-1.34126e-07
2.77085e-08
-1.26129e-05
-0.0233567
-0.00225458
-1.63447e-08
7.46282e-08
-0.00288844
-2.46611e-08
2.36077e-07
-6.27573e-08
-1.73486e-06
-6.5502e-08
-3.40013e-09
5.49965e-09
-2.93865e-08
7.22825e-07
-6.99419e-07
-0.000809383
-0.00125555
1.49549e-05
7.60534e-06
1.1371e-07
-0.0695464
-8.26559e-06
-1.58314e-06
3.84514e-07
4.14328e-06
0.000183393
1.47947e-07
1.29348e-07
4.6633e-08
-4.03395e-07
6.62704e-06
0.045486
0.00649219
-0.0108662
-4.65872e-08
8.12042e-06
-0.0106879
0.0256455
0.0113875
0.000861398
5.97189e-08
2.78608e-05
2.13759e-06
-2.28748e-05
4.75837e-08
0.00205336
-1.78812e-08
-4.69268e-07
3.43484e-08
0.00390155
-6.30246e-08
-0.0623102
5.30705e-05
6.46373e-08
-1.76363e-08
-3.26397e-07
-1.1472e-07
5.49455e-08
4.69096e-07
-0.00509266
-6.29672e-09
-5.67737e-07
3.78566e-07
-0.0604365
3.55103e-07
-1.00959e-06
9.0319e-08
6.70249e-08
1.95536e-07
0.018168
8.94314e-06
-1.09608e-07
-2.98366e-06
-0.0084999
-1.98438e-08
-0.00511578
4.22747e-08
2.42682e-07
0.00394565
1.95616e-07
-1.26495e-08
-4.13022e-08
3.33806e-07
4.44009e-07
-1.00631e-06
-1.562e-06
0.0168544
3.9081e-07
5.14029e-09
6.70852e-06
0.00307634
5.53079e-08
-2.11569e-05
-3.48044e-08
0.00157769
-1.13306e-08
-4.3796e-07
-0.000226245
-7.53566e-09
4.78135e-07
4.12815e-08
-0.0671192
-0.0262966
-6.73713e-08
-0.000118776
2.66291e-08
-4.09156e-08
0.0237475
3.16743e-08
8.02586e-06
-2.07066e-06
6.5235e-06
5.47757e-06
7.7228e-06
1.99595e-08
2.59593e-07
-3.72927e-08
-8.44496e-06
-0.000662361
4.249e-07
-9.6526e-07
-2.46047e-07
0.00604635
3.68619e-08
-0.00219697
0.0364973
-7.56447e-08
-9.15142e-08
5.38234e-05
-1.29707e-05
3.31226e-05
-1.40123e-07
-3.50356e-08
-8.0233e-06
-1.35157e-07
6.01906e-08
4.03356e-08
0.0298614
-3.14863e-07
0.0474116
-9.47398e-09
0.00573694
1.99558e-08
-1.66526e-07
1.29035e-06
0.00162866
0.00659908
1.08166e-07
-1.95339e-08
2.35767e-05
3.04915e-08
-7.88154e-09
-7.47257e-06
-0.00191214
2.27303e-06
4.19882e-07
-0.0126438
-0.0108042
-0.0241467
3.72251e-07
6.69318e-08
4.28285e-08
4.45771e-07
-0.00391389
8.32962e-06
9.20298e-08
0.0130509
-0.00195373
0.00980282
4.61575e-06
1.4036e-07
-1.1425e-05
0.0570922
0.0141089
-0.000298146
1.9908e-08
-4.44541e-07
1.55115e-06
0.0045655
-0.00291649
0.00219265
-5.09376e-06
0.0267981
8.55233e-08
-6.0106e-08
3.50023e-08
-0.08291
-1.56267e-08
-9.59094e-07
0.00346928
-2.12694e-06
8.95135e-08
6.64376e-08
-2.42339e-07
-4.27488e-06
0.00401322
-2.72373e-05
5.39454e-08
-5.19919e-08
-8.05555e-07
-3.17778e-06
2.1844e-08
-1.46006e-06
-0.000355372
2.86098e-09
0.00499449
-0.00754051
-0.00260053
2.72411e-08
-2.16481e-06
0.0205894
0.00702539
-1.40735e-08
-0.0102926
0.022295
-1.34972e-07
0.0537878
-7.10272e-08
8.2193e-07
-4.76122e-06
4.67322e-08
0.00524542
0.00020973
1.29008e-07
-1.20634e-07
2.49313e-05
0.0158648
-8.01603e-08
4.66164e-07
0.00108053
0.0278817
2.17484e-09
0.00497894
0.00129679
-4.81732e-08
-7.2945e-08
-4.61806e-07
-6.19219e-06
4.03157e-07
-6.7356e-06
4.12259e-05
6.31952e-08
5.29438e-06
0.00953368
-2.86923e-05
-0.0117251
1.42721e-09
3.62705e-07
-0.0845894
0.0198301
-7.20716e-07
-2.12326e-07
-0.00250067
-0.0163286
-2.89173e-06
-7.14046e-11
-0.00114229
-9.67258e-06
1.65042e-06
-6.15178e-08
-0.00296161
8.13885e-08
3.1765e-08
-0.000136224
0.000271242
-1.11911e-05
0.0013096
-4.00513e-05
2.02574e-07
1.73717e-08
-0.000100881
1.3977e-08
0.000117837
0.00460624
0.000371697
1.00271e-06
4.41564e-08
-0.00297869
2.91245e-09
-8.88718e-09
-0.00192021
-1.66665e-08
-5.42758e-08
0.00469278
-6.33545e-08
5.28059e-08
-1.25977e-05
6.75177e-06
-4.63052e-07
0.000854033
-0.000279285
-0.000990841
1.76015e-05
-0.00393098
2.92893e-05
0.000951367
-1.4847e-06
-7.23165e-07
6.45397e-05
0.0215006
0.00457158
-3.77827e-07
1.09208e-10
-0.000563445
7.62698e-07
-0.00110138
-4.99436e-07
-3.89957e-06
3.74608e-07
1.25132e-06
-1.9761e-05
-5.13849e-08
-1.27518e-06
1.44567e-07
9.19883e-08
0.00575775
1.31556e-06
3.26771e-06
-5.73286e-08
-0.0049062
-0.00319899
-6.29828e-07
6.051e-05
-2.15949e-06
8.4946e-06
0.0244203
4.14899e-06
3.52315e-08
2.47658e-07
0.00846276
9.1171e-08
3.27193e-07
-0.00680331
1.0596e-06
-1.21346e-06
0.0160303
1.56002e-08
-4.04699e-08
0.00321676
0.000519348
1.58489e-07
-0.00095925
0.000392722
3.83487e-08
-8.22875e-08
0.0216661
-5.66372e-07
-2.0414e-06
-9.02337e-09
-7.51415e-08
1.35923e-05
2.76955e-06
4.11842e-06
-2.29147e-08
5.38828e-07
3.06546e-08
-2.06094e-08
-0.00549185
-1.35801e-06
8.22674e-05
-1.1428e-05
-5.93234e-08
-3.04764e-07
0.00960657
-0.00420707
-2.07907e-09
1.66935e-08
0.0386349
-5.21355e-06
-0.0594828
0.0422434
5.31433e-07
0.000737491
0.0160484
-7.52726e-05
4.54025e-08
5.26331e-07
-4.09348e-05
-1.42299e-07
0.0276236
3.4941e-06
-4.92605e-08
-0.00233356
-0.000167036
2.44995e-06
-3.64595e-07
-0.00111658
-0.0305799
-5.56121e-08
3.37774e-07
5.36128e-06
-6.13505e-07
-2.22806e-07
-4.96742e-08
0.00286249
-0.00916534
0.0247931
0.00347372
6.23146e-06
6.31041e-07
-1.33161e-05
1.69268e-08
-2.35974e-08
0.00268948
-2.80592e-08
4.47282e-09
-7.65796e-07
-1.25531e-07
-0.0561102
2.64724e-08
-0.0557667
-0.0360561
1.7859e-06
0.000236135
0.000354241
-9.85918e-08
-4.01017e-07
0.00278294
-7.33465e-09
-1.83662e-06
0.0056286
-1.43415e-05
0.000150329
-2.07529e-07
-0.00167965
0.00242169
0.00269864
0.00146245
1.3823e-08
0.00276783
-0.00236595
-2.64407e-05
0.00540263
2.66875e-08
0.0756439
0.00117744
-0.00111706
0.00285135
-6.63466e-08
-0.00693937
-0.0102103
-0.0513787
-0.000245799
-0.00303696
-0.00356024
0.00409528
-3.33391e-07
8.79103e-07
-0.0539627
-5.05395e-08
6.19426e-08
7.03506e-09
0.0209761
1.91205e-06
2.58323e-06
0.0270946
2.32096e-08
0.00102712
-0.00119208
1.26077e-06
-4.40772e-08
1.39546e-08
0.00286911
0.0185136
1.82201e-08
-7.21243e-10
3.21978e-06
-0.000447191
2.16674e-06
-1.92108e-08
9.0797e-08
-1.16755e-07
-6.45408e-08
0.0212829
-1.33834e-06
0.0010087
0.00248498
8.15017e-07
0.0188412
-4.92891e-08
2.81434e-08
-4.15254e-08
1.74419e-09
8.72314e-06
2.51517e-07
-7.80632e-07
0.00627918
1.81511e-07
-1.34886e-06
4.54519e-08
2.01793e-08
3.26977e-06
4.97471e-08
1.36484e-08
8.76282e-08
1.94843e-07
3.17519e-06
2.51442e-07
5.75383e-08
6.53335e-06
-0.0473437
-5.02262e-06
-1.3752e-08
5.15242e-08
-3.02516e-08
0.0534383
-2.44238e-07
0.00384981
2.36657e-08
-5.78957e-05
9.5395e-08
-1.62443e-06
-3.70322e-09
1.59454e-06
-0.00535049
0.0125448
0.0220518
-2.69917e-06
0.00621522
-8.88269e-07
-0.00585731
4.61786e-08
2.57491e-05
0.00671193
4.97785e-08
0.00504584
0.00380686
0.0247641
-5.06218e-06
4.13801e-08
1.79803e-06
4.37216e-05
-3.41919e-08
-0.0685941
0.000293273
-7.34379e-08
0.00262417
-1.73641e-07
-6.5643e-06
-3.96839e-05
-2.14367e-07
-2.23537e-07
0.0211849
-0.0204943
-0.000122708
-8.61513e-07
5.56823e-08
0.00489667
-6.07385e-08
-0.000246461
-8.87297e-06
-3.95994e-08
-4.40753e-06
-8.39555e-09
0.00657416
0.00222293
6.34241e-07
-2.44435e-05
-1.74843e-08
-0.000873401
-0.00033978
7.1514e-06
0.00773777
1.37815e-07
0.0316075
6.18086e-07
-1.07556e-06
-1.53175e-07
5.71313e-05
0.000528565
5.27405e-08
1.26852e-06
3.78033e-07
0.00821299
-1.85739e-05
-0.0378242
0.00043247
-9.44199e-08
3.25167e-08
0.0288119
0.00618518
-2.935e-08
8.7649e-05
0.0122615
-1.26709e-05
0.00361303
-0.000751428
7.1419e-06
6.91707e-06
3.12186e-05
-0.0823804
-0.054266
-5.09501e-05
-5.52098e-07
-6.04808e-09
0.0100793
3.35788e-08
-1.28963e-08
5.00775e-05
0.0165132
3.34901e-06
-9.66095e-07
0.000204924
0.0016111
5.05093e-08
-8.33231e-08
5.15119e-09
-0.0283687
-1.24112e-06
9.86836e-07
5.92377e-09
0.00190878
0.0115396
-1.96401e-05
-0.0344742
2.36798e-06
-1.11588e-07
-8.41733e-07
-0.00585478
-1.24288e-05
1.6268e-07
0.00167286
-0.000177705
2.76891e-08
-1.20021e-08
1.81685e-08
0.000192256
3.04738e-05
0.00756012
-1.02984e-07
6.82798e-07
3.84138e-06
-0.00289833
-3.66664e-05
-0.0237875
4.83062e-05
-2.55292e-05
0.00174283
-2.65669e-07
0.0142335
1.3349e-06
1.73104e-06
0.0175269
-1.61761e-06
0.000123956
-1.88303e-08
1.40526e-08
-6.62888e-08
0.00113248
0.0237179
-2.12026e-05
-0.00172861
-1.37656e-08
-0.000952906
-2.07255e-07
0.00164339
-7.11957e-07
-4.13884e-09
3.09633e-08
-7.54586e-07
0.00536775
2.93543e-06
2.37339e-07
-0.00738695
-0.0614924
-0.00116649
-2.9062e-08
1.38089e-08
1.01428e-06
-1.79901e-06
7.18328e-06
2.11995e-07
-4.00914e-08
0.00163848
0.0299003
0.0215979
-0.00274144
8.94831e-06
-5.47601e-05
0.000747505
-6.00617e-08
4.54524e-08
0.00112132
-3.62377e-06
-0.0017681
-5.93838e-08
0.0134786
-7.72432e-07
1.92297e-08
-1.85133e-05
-0.0150338
-1.03428e-07
0.0329947
-3.53803e-06
1.18324e-08
0.0197735
2.08092e-08
-1.15001e-06
3.05388e-08
-4.52861e-08
9.55287e-06
0.000546274
0.0417894
-5.39682e-08
6.20056e-07
0.007886
-0.00926798
-0.00480626
-1.27243e-06
0.00153408
1.87519e-07
-1.14402e-05
-0.000981603
0.000806782
-1.58824e-06
-0.00829527
-2.24062e-05
4.09529e-08
-0.00596275
3.5447e-06
-5.20993e-08
-1.87314e-05
-1.29578e-05
-0.000315667
1.93721e-07
9.45241e-08
0.000672201
3.28948e-08
1.63807e-08
2.64625e-08
-1.63506e-06
-0.0620014
-3.13646e-07
1.52929e-05
1.1301e-07
-0.0056691
1.32705e-07
-2.21456e-05
0.00420148
-2.319e-08
0.00290657
0.0145844
-0.00476025
0.00689742
1.09858e-07
4.91942e-08
-1.64574e-05
-0.000100608
2.27036e-08
3.43123e-07
0.000607764
-0.000209957
0.022268
-4.13999e-09
1.41835e-06
0.00169096
4.109e-08
7.58528e-05
-2.04352e-08
2.41388e-07
7.2562e-07
-9.94137e-08
0.00132158
4.04147e-09
6.13094e-08
7.25651e-09
5.91409e-06
8.32471e-08
-1.13053e-05
-1.88461e-08
5.16253e-08
-0.00316363
-1.04726e-05
-7.13508e-06
3.08549e-08
1.29882e-06
1.91916e-06
1.679e-06
0.0349041
-5.17765e-08
0.00292212
9.82866e-08
-0.00998852
1.79419e-07
1.01041e-07
6.89531e-08
-1.29591e-06
-1.59904e-05
1.50024e-07
2.83122e-06
-9.28642e-08
-0.000212695
1.7922e-08
-9.00812e-08
1.33573e-09
1.27614e-06
-0.100022
-0.0190669
0.0433963
0.0455775
8.96078e-08
-2.20014e-06
5.95948e-08
0.260828
-0.00168062
1.211e-07
0.00128025
-0.00118944
0.0164666
-0.00101593
5.74282e-08
0.000333088
3.35676e-08
-1.72382e-07
-0.000574493
9.13146e-09
5.7966e-10
0.00645075
0.0406809
1.26861e-06
-6.37637e-07
-2.87286e-06
1.87602e-06
0.00182898
0.000207441
3.02464e-08
0.0180714
0.0066593
-0.000808446
0.0167405
-0.0419993
-2.19344e-06
0.00169469
-0.00772749
-0.0124998
-2.29521e-07
0.00130634
1.55284e-08
1.89635e-07
-0.00324656
-1.65786e-05
0.00242379
-1.20388e-07
0.000656877
0.00479299
2.25895e-08
-4.34437e-09
-1.79414e-07
1.25125e-05
-1.61518e-07
-1.88638e-05
0.00730943
0.00327504
-0.00105521
0.0351636
1.39961e-06
-7.9578e-08
0.0156941
0.00406656
-1.75896e-08
3.4823e-07
1.12934e-08
-5.27725e-05
-1.91525e-07
-6.31168e-08
0.00266586
0.0126491
-0.0120721
-3.69251e-08
-0.00139396
-4.60985e-08
-6.62251e-08
-2.51053e-06
0.00388144
-2.65024e-06
3.07846e-05
-2.60592e-08
-0.00112032
-5.75095e-08
3.81161e-08
0.000352266
-0.0039508
-1.13654e-07
-8.42341e-07
8.78752e-07
1.74334e-06
2.3682e-06
1.68381e-06
3.1696e-08
0.00296757
1.66686e-07
-1.37958e-07
9.38137e-07
5.91569e-05
-2.31737e-07
-0.000255171
0.00467865
-4.56368e-07
0.000641738
-0.000100755
-0.00922427
0.0194764
-2.0104e-07
0.00040265
4.13849e-08
3.50654e-06
0.0398976
0.0232466
8.1931e-08
0.00758581
-0.00138764
0.0111356
-0.0190541
0.00763791
0.014889
-5.34799e-07
-0.000436744
1.04011e-06
-0.00689321
-4.75612e-08
1.02214e-06
1.01025e-05
0.00151498
-3.08369e-08
-3.83371e-07
-6.45572e-06
9.573e-08
0.0179982
2.37749e-07
-5.45481e-05
-2.81908e-07
5.92889e-08
0.0105694
5.98269e-08
-0.0500202
2.53195e-07
3.48158e-06
-0.000164619
-2.26868e-07
0.0436406
1.83037e-08
0.000707218
0.0172538
0.030787
5.94961e-08
-3.67902e-05
-1.20313e-06
1.28496e-06
-4.6828e-08
-2.13526e-08
0.00138023
-3.71031e-05
0.000219205
-1.44111e-05
-3.34589e-06
-4.30545e-08
0.00162314
-0.00522413
-0.00733529
-0.0104543
4.11799e-06
0.000594159
0.00112286
-5.73284e-07
0.0338545
-1.35207e-06
0.0019108
1.1894e-06
2.16645e-07
0.016031
-1.91417e-08
1.90125e-06
1.47849e-06
0.0338499
-2.40196e-08
4.28256e-08
-1.97392e-08
5.36816e-07
3.92326e-08
0.00746537
0.0231152
-5.00903e-06
-0.00402008
-4.74163e-05
0.00132354
-5.87245e-07
-3.70198e-05
0.00727711
-0.00989333
-4.10599e-08
-1.24218e-08
0.0414913
-2.34431e-08
0.00158949
5.92111e-09
-1.1659e-07
-1.3315e-09
-0.000196595
0.00298301
7.07399e-07
0.00170309
0.00351237
1.86928e-07
-3.34396e-07
9.47644e-08
-3.52561e-09
0.0479373
0.0143145
-0.0390082
-0.013857
6.70458e-06
4.09698e-06
-1.70942e-07
-0.0685524
-0.00063581
-8.03804e-08
5.19499e-08
-0.00550009
6.72796e-07
-5.2401e-07
2.68847e-06
0.00273495
0.0429561
-6.12225e-05
2.74352e-08
7.8871e-06
-0.00760475
-1.52937e-07
-4.80701e-08
0.000138623
-1.21927e-07
-0.000224197
-1.61508e-06
1.37272e-07
2.13526e-08
0.000241524
0.000253251
-9.08285e-07
3.03616e-05
-0.00170341
0.023016
5.92875e-07
-0.035563
1.41925e-07
6.71045e-09
1.58205e-05
1.12762e-07
-5.36842e-09
-1.78065e-05
6.88957e-08
-2.90065e-06
4.19976e-06
7.14737e-06
-1.48868e-06
-1.14909e-07
-2.23813e-08
-0.00534775
-2.6657e-06
-7.37978e-08
1.12197e-07
-0.0396646
-7.27181e-06
1.48741e-07
-8.02587e-07
-7.99054e-07
-0.00415526
3.41758e-06
0.0243789
-3.63992e-05
2.25858e-05
0.0168696