/*--------------------------------*- C++ -*----------------------------------*\
| =========                 |                                                 |
| \\      /  F ield         | OpenFOAM: The Open Source CFD Toolbox           |
|  \\    /   O peration     | Version:  v2012                                 |
|   \\  /    A nd           | Website:  www.openfoam.com                      |
|    \\/     M anipulation  |                                                 |
\*---------------------------------------------------------------------------*/
FoamFile
{
    version     2.0;
    format      ascii;
    class       volScalarField;
    location    "200";
    object      k;
}
// * * * * * * * * * * * * * * * * * * * * * * * * * * * * * * * * * * * * * //

dimensions      [0 2 -2 0 0 0 0];


internalField   nonuniform List<scalar> 
18618
(
0.00135922
0.0338905
0.000131952
0.0246721
0.000143951
0.00023144
0.000162758
0.038543
0.000157879
0.000144177
0.000157596
0.00013206
0.0238375
0.000142955
0.000143787
0.000134523
0.000143604
0.057853
0.000141167
0.000158097
8.60847e-05
0.000135718
0.000134344
0.000191741
0.000146411
0.00020279
0.00100262
0.00014197
0.000137091
0.000141815
0.00014298
0.000160849
0.000145758
0.000220047
0.00766622
0.000149898
0.00014699
0.000748195
0.00015768
0.000141669
0.000339899
0.000698499
0.00013736
0.000495524
0.000167112
0.000151636
0.0374985
0.000134251
0.000158715
0.0472894
0.000142306
0.000149482
0.00819325
0.000343526
0.000144432
0.036676
0.000143314
0.00015756
0.000214293
0.000157355
0.000142065
0.000144037
0.000156572
0.000144168
0.000258768
0.0246658
0.000139359
0.000163048
0.000135096
0.00889296
0.000157338
0.000280139
0.000180842
0.0712825
0.000144332
0.000161764
0.000252113
0.0490892
0.000134929
0.0157577
0.103091
0.0508723
0.0660938
0.000148347
0.000145709
0.000137275
0.000202118
0.000144142
0.000178607
0.0556067
0.000180494
0.000340952
0.000652821
0.000250463
0.0038575
0.000162232
0.000148162
0.00713494
0.000143093
0.000132586
0.00323733
0.000144046
0.000273736
0.000161301
0.000165145
0.00267992
0.000143811
0.000133561
0.000254911
0.000135642
0.00910769
0.000139892
0.000150191
0.000141298
0.000146311
0.000132855
0.000140503
0.00170139
0.000142799
0.000224859
0.00747159
0.000150142
0.0345779
0.0522298
0.00184238
0.000323664
0.000401449
0.0702693
0.000159919
0.00018765
0.000195718
0.00013975
0.0518109
0.000303449
0.000145994
0.000141153
0.000152431
0.000144881
0.0264663
0.000142468
0.000151428
0.000143275
0.000143954
0.000147768
0.00013618
0.000197582
0.000147255
0.000142228
0.00209124
0.000164316
0.000142995
0.00331077
0.0298903
0.000133854
0.000137427
0.00498589
0.000354504
0.041489
0.000198863
0.000134502
0.000135889
0.00887724
0.000144773
0.00031559
0.000136201
0.00664922
0.000137408
0.000142639
0.101778
0.000149957
0.000144808
0.000133484
0.000197544
0.000182065
0.0394974
0.000161975
0.000384011
0.0664357
0.000133263
0.000135352
0.000174634
0.000183038
0.000149826
0.00014884
0.000379011
0.000148126
0.000153286
0.000173054
0.000417749
0.000126264
0.000152049
0.000180603
0.0394215
0.000142522
0.000256436
0.000242335
0.000175574
0.00660709
0.000150937
0.0458142
0.000276642
0.000427287
0.000157847
0.000155
0.097819
0.0606429
0.0181624
0.00327616
0.000151653
0.0170379
0.000288961
0.000148876
0.00268169
0.000435428
0.000148798
0.000149338
0.000282168
0.0991518
0.000150049
0.0074549
0.000152512
0.000153935
0.000148279
0.000223519
0.000169946
0.000166693
0.000152076
0.000136158
0.00748691
0.00019488
0.00928463
0.000315913
0.000154964
0.000162968
0.000142391
0.000186183
0.000157528
0.00019392
0.000149296
0.00310538
0.000171062
0.000159867
0.000147398
0.000178147
0.00268783
0.000149865
0.000194549
0.0530575
0.000149769
0.000159513
0.00667816
0.000371071
0.000154963
0.0116632
0.00015191
0.000137237
0.000152188
0.000203887
0.000143738
0.000189025
0.000225199
0.000152035
0.000284007
0.0435167
0.000376653
0.000151409
0.000168771
0.000260373
0.000152092
0.000156567
0.00016234
0.000134151
0.000142029
0.000142058
0.000134341
0.00578007
0.00016097
0.000134432
0.0928267
0.000141867
0.000153802
0.000133937
0.00853227
0.0573443
0.000166635
0.0113113
0.000149683
0.000192855
0.000135292
0.000209049
0.000141533
0.000158322
0.000145076
0.000149859
0.000341229
0.000136125
0.000143507
0.000150322
0.00563024
0.00163205
0.0110123
0.0128527
0.0503688
0.000188378
0.000198964
0.0514249
0.0076066
0.000149827
0.000150369
0.000182179
0.000145189
0.000163402
0.000154075
0.000142208
0.000163567
0.00766564
0.0200804
0.000181539
0.000151123
0.000152288
0.000162955
0.00027464
0.000171944
0.00764152
0.000151198
0.000276697
0.00938188
0.000134511
0.000188176
0.000146668
0.000143853
0.000141215
0.000177408
0.000144917
0.000174829
0.000151238
0.000313224
0.000177476
0.0182582
0.0404085
0.000141484
0.0870486
0.000166654
0.000131295
0.000135477
0.000162738
0.000261694
0.000154686
0.0134611
0.000151875
0.00888504
0.000202055
0.000154124
0.000143818
0.0405435
0.00022924
0.000138669
0.000287418
0.000134274
0.000184812
0.00758824
0.0211365
0.000239534
0.000262372
0.0235397
0.0139159
0.000145752
0.000156806
0.000135505
0.000136116
0.000145672
0.000144684
0.0137397
0.00889267
0.000135993
0.000150129
0.0135173
0.000142614
0.000295641
0.000134701
0.000176132
0.000160365
0.0917589
0.00355814
0.00014111
0.000150623
0.00013725
0.000276503
0.000136564
0.000143738
0.000135513
0.000288337
0.000151442
0.00013546
0.0941125
0.0163632
0.00021868
0.0181459
0.000135924
0.000158893
0.000150405
0.0159741
0.000312507
0.00108124
0.000137019
0.094565
0.000151907
0.000165665
0.000143756
0.000180543
0.000145752
0.0876385
0.000735563
0.000813815
0.000151564
0.000245646
0.000140884
0.000162802
0.000145568
0.013526
0.000144586
0.000152321
0.00016337
0.00755868
0.000465558
0.000134479
0.00015889
0.000140969
0.00014359
0.000157497
0.000142317
0.00014193
0.00015157
0.000291764
0.000178513
0.00014571
0.000195043
0.000145436
0.000433552
0.000152582
0.000469396
0.000637127
0.000156983
0.000155302
0.0755164
0.000162705
0.0104735
0.00122326
0.000150785
0.000170601
0.00015315
0.00404323
0.0378033
0.000152561
0.000228706
0.0160942
0.000144984
0.00960529
0.000137112
0.0514389
0.0414282
0.000154678
0.0440232
0.000140106
0.000135291
0.000188462
0.000455926
0.000151387
0.0135053
0.000149889
0.000135041
0.00014151
0.000460452
0.000186403
0.000143186
0.000135634
0.000135891
0.035069
0.00174789
0.000153284
0.0592274
0.000161882
0.000154834
0.000142422
0.000140584
0.00922127
0.00014661
0.000163225
0.000283787
0.0383346
0.000258266
0.000134952
0.000212386
0.000171227
0.0173657
0.000144331
0.0600916
0.000142207
0.000141801
0.000169295
0.00611658
0.000155793
0.00690572
0.000144898
0.000144413
0.000169305
0.000143442
0.000153952
0.000143094
0.00846424
0.0106961
0.000263618
0.000292303
0.00015069
0.000135604
0.000172045
0.0430861
0.00016137
0.0115197
0.000145031
0.0345456
0.000163016
0.000145941
0.000206721
0.023249
0.000188445
0.000134195
0.000169447
0.0101738
0.00914414
0.000141174
0.000188222
0.000149153
0.000140207
0.00014256
0.0184807
0.00024867
0.000147396
0.0713106
0.0880524
0.0412869
0.00780478
0.000165485
0.000416307
0.000177914
0.000152278
0.0421047
0.0362215
0.00020083
0.000192978
0.000179821
0.000150213
0.000149982
0.000215095
0.000213264
0.000145258
0.000144244
0.000245596
0.000166595
0.000171844
0.00015478
0.00782384
0.000150163
0.00689731
0.000154022
0.000146427
0.00025212
0.000144786
0.000151599
0.00645333
0.000144492
0.0915678
0.000314807
0.0150441
0.000189249
0.000171986
0.0575625
0.000152421
0.000147337
0.000198257
0.00020438
0.000135724
0.000810725
0.00445127
0.000151604
0.000153085
0.000152304
0.00018493
0.000136613
0.00019034
0.00016444
0.0514161
0.000166028
0.00753286
0.000161078
0.0697311
0.000143716
0.000152158
0.015101
0.000164101
0.00895716
0.000139746
0.000280263
0.000175919
0.000152597
0.000154434
0.00413068
0.000143645
0.000146478
0.00013573
0.000140137
0.039289
0.000215178
0.000140375
0.00211424
0.000433061
0.000162977
0.00135799
0.000154352
0.000147621
0.000187073
0.000151278
0.00015958
0.00709209
0.000151802
0.000222631
0.000156761
0.00123646
0.000457808
0.000135752
0.000135366
0.000142558
0.00389185
0.000164545
0.0414621
0.000151386
0.000137021
0.000144131
0.000142877
0.000138927
0.000142661
0.000160706
0.000267613
0.0183826
0.000141464
0.000162932
0.0216934
0.000151123
0.000144614
0.00108553
0.000183767
0.000156107
0.000142655
0.000145739
0.00557697
0.000150471
0.0105728
0.000166239
0.000147049
0.000171082
0.000313647
0.000150119
0.0381075
0.0109744
0.0941578
0.000230025
0.00014384
0.000184708
0.0023179
0.00014231
0.000192141
0.000133823
0.000169642
0.000375101
0.0114724
0.000135305
0.0521514
0.000151059
0.0123157
0.000145432
0.000186048
0.00018917
0.000343502
0.0580137
0.000531278
0.000133118
0.0142722
0.000141246
0.0882829
0.000150609
0.000200588
0.000150879
0.000151846
0.00015581
0.000163993
0.000151055
0.000164004
0.000144538
0.000138683
0.000140564
0.000151985
0.0001679
0.000132915
0.000133608
0.00564463
0.000143069
0.00272273
0.000151912
0.000158004
0.000141018
0.000208268
0.000132339
0.00517011
0.000210165
0.00798361
0.000159377
0.000147296
0.000140983
0.000142552
0.000138335
0.000150906
0.000143751
0.000145182
0.00182249
0.000143833
0.0445132
0.0185162
0.000280466
0.000132302
0.000142397
0.000367444
0.0183601
0.00868597
0.000322866
0.00743444
0.0638909
0.0155491
0.000170519
0.0441002
0.000142897
0.000153391
0.000134349
0.00027847
0.00015143
0.000150661
0.000186637
0.000152455
0.00551394
0.000146829
0.000490497
0.000213087
0.00530565
0.000273706
0.000241473
0.00826381
0.000168207
0.000142814
0.000143503
0.000177942
0.0834906
0.000527169
0.000146619
0.000140786
0.0102171
0.000179783
0.00781127
0.000149331
5.10433e-05
0.000155928
0.00695878
0.000149972
0.000142331
0.000135914
0.000142493
0.000150051
0.000143485
0.000149831
0.0711953
0.0855942
0.000142167
0.0577444
0.000143857
0.0583441
0.000276701
0.0107196
0.000136074
0.000187219
0.0121864
0.000134428
0.0131927
0.000144055
0.000141264
0.000161905
0.000146382
0.000509038
0.000146145
0.000141079
0.000273041
0.000143969
0.000169579
0.000143416
0.0522129
0.00013612
0.000152185
0.00016964
0.000150538
0.000164958
0.000157124
0.000154622
0.000153221
0.0120831
0.000161147
0.000131754
0.00015192
0.000140743
0.000147107
0.000235606
0.000181092
0.0977536
0.000147098
0.000149931
0.0111821
0.000142327
0.0528259
0.000205518
0.000131885
0.000150062
0.000401817
0.000154119
0.000159058
0.000143704
0.000145465
0.000150425
0.00015687
0.000429801
0.000163417
0.00017571
0.000150878
0.00475865
0.000219011
0.000211794
0.000146112
0.00805665
0.000164757
0.00394674
0.000144846
0.000147199
0.0118668
0.000150381
0.00252848
0.000176962
0.00427316
0.000146844
0.000140264
0.000143284
0.000159985
0.000149565
0.000146728
0.0150302
0.0520298
0.000152526
0.000336802
0.00270362
0.016444
0.0205369
0.000187815
0.00245644
0.000133582
0.0168368
0.000141777
0.000236225
0.000177092
0.0115714
0.000134542
0.000147346
0.000143081
0.000144379
0.00835103
0.000165402
0.0162115
0.000139054
0.000178323
0.000846001
0.000158307
0.000142515
0.000156811
0.011798
0.0087919
0.0195328
0.000225855
0.000146474
0.00100601
0.000150547
3.98159e-05
0.000207096
0.000287129
0.000210507
0.000288862
0.00815233
0.00361465
0.00014437
0.000209628
0.0887639
0.0255815
0.0422097
0.0296381
0.0220144
0.000277181
0.00189756
0.00298743
0.000157536
0.000156482
0.000152562
0.0162483
0.0143918
0.0137673
0.000152609
0.00179954
0.000142979
0.000151894
0.000144467
0.000160999
0.000146637
0.000264086
0.000152606
0.00461739
0.000144917
0.000145478
0.00015225
0.00352997
0.00259168
0.000156342
0.0108099
0.000152391
0.0103807
0.000147717
0.000100435
0.000156822
0.000145812
0.000140677
0.000161708
0.00490637
0.000133764
0.000140607
0.0477682
0.0562521
0.000132005
0.000150666
0.000152316
0.0453545
0.000140265
0.000151465
0.0385479
0.000152066
0.0220032
0.000138729
0.000153425
0.000231799
0.0284254
0.000150606
0.000149505
0.000179617
0.0303582
0.000150652
0.000139077
0.000162446
0.000146944
0.00702866
0.000140452
0.0679053
0.000146196
0.000249667
0.000160201
0.000159854
0.000147397
0.000142423
0.000142124
0.000169615
0.00644264
0.0617835
0.000227976
0.000177943
0.000142898
0.000163252
0.000146879
0.000152158
0.000225886
0.000138281
0.0617851
0.000144489
0.000138299
0.00202719
0.000140484
0.000144655
0.00106755
0.000144275
0.000148156
0.00015165
0.000142409
0.000141363
0.000148065
0.000156253
0.000234866
0.000143987
0.000271282
0.00791149
0.00922551
0.0001485
0.0162658
0.000167705
0.000143638
0.000321052
0.00878419
0.000188319
0.0001843
0.000147198
0.000141224
0.000165406
0.000131078
0.000145956
0.00015259
0.000155234
0.000242379
0.00714613
0.000156014
0.000136797
0.00016591
0.000272431
0.000143752
0.00638809
0.000163494
0.000243939
0.000144285
0.000147058
0.000218896
0.000259105
0.00015317
0.000140203
0.000141944
0.000149262
0.00165336
0.00014331
0.000156721
0.000162681
0.000140981
0.000218844
0.000150789
0.000141825
0.000155898
0.000137532
0.0528953
0.000230035
0.000141088
0.00781447
0.000149653
0.000230205
0.000214778
0.000151615
0.000152285
0.00636428
0.000139422
0.000139269
0.000168752
0.000153718
0.000774037
0.00014133
0.000272098
0.000152321
0.000155594
0.000146899
0.0867984
0.0103023
0.000136616
0.0010577
0.000155526
0.000240508
0.0078441
0.000688149
0.0422962
0.0178772
0.082149
0.000141512
0.0128976
0.00219709
0.0154753
0.000156687
0.0155923
0.00815195
0.000143682
0.000161081
0.0146731
0.000142343
0.0456816
0.000160998
0.000634604
0.0170911
0.0120349
0.000153074
0.000320334
0.000249959
0.000152388
0.0119748
0.000157125
0.000152379
0.000171287
0.000157343
0.00376748
0.0129716
0.000149663
0.000141418
0.000142756
0.000411524
0.000448
0.000220105
0.000142431
0.00036104
0.000161029
0.000135859
0.000142633
0.00014152
0.000152175
0.000139196
0.00192024
0.00477952
0.000134714
0.000181107
0.00010501
0.00355285
0.000146999
0.000143571
0.000162877
0.00642262
0.000159544
0.0515489
0.000170652
0.00826647
0.000152049
0.00013587
0.000143184
0.000141367
0.00019107
0.000140159
0.000135514
0.000146197
0.00774707
0.000267311
0.000135367
0.000156466
0.000155722
0.000168321
0.000528104
0.000145063
0.000160062
0.00994449
0.000160459
0.0156582
0.00387628
0.000169489
0.0114901
0.0345725
0.0117021
0.000275974
0.00618227
0.000146559
0.000151055
0.000146959
0.000143905
0.000633395
0.000160408
0.000150016
0.000148014
0.000148118
0.000215981
0.000145287
0.0566639
0.000151081
0.000170553
0.000145047
0.000141917
0.000152896
0.000193876
0.000151371
0.000146953
0.000152256
0.000139419
0.000398987
0.000162504
0.000140292
0.000155525
0.000168034
0.00013648
0.00469531
0.0171996
0.000259614
0.000150438
0.000142618
0.000230981
0.073262
0.000375303
0.000175958
0.000166652
0.000685583
0.000182346
0.000151463
0.000150683
0.00618966
0.000141015
0.016499
0.000145125
0.000150836
0.000173914
0.0001401
0.000141413
0.000132122
0.00363175
0.000320325
0.0992597
0.000154179
0.00130136
0.000190621
0.000143381
0.000141326
0.000261093
0.000145174
0.00893656
0.000189558
0.000378981
0.000181557
0.000203637
0.000183183
0.000147504
0.0139886
0.000153499
0.00924587
0.00125699
0.000143824
0.000600244
0.000271042
0.000914615
0.0432147
0.000151195
0.00191683
0.000141626
0.054899
0.0001779
0.023556
0.000405714
0.000141925
0.000142779
0.00512163
0.000224743
0.0420267
0.00109453
0.000131985
0.000140708
0.000164958
0.000160493
0.000145484
0.00568055
0.000147388
0.0728151
0.000146061
0.000196128
0.00015553
0.000224616
0.000134535
0.00191919
0.000134364
0.000179376
0.000131926
0.000166986
0.000145648
0.000172336
0.000149656
0.000144243
0.0105694
0.000141749
0.000138887
0.00475318
0.000144145
0.000200422
0.057078
0.00386806
0.000143526
0.000137745
0.000224853
0.0121085
0.00015852
0.000189071
0.000213355
0.00796377
0.000134133
0.00203997
0.000158626
0.00239575
0.000177881
0.000145333
0.000163191
0.000151709
0.00431396
0.000476945
0.00331553
0.000163774
0.000503746
0.0183001
0.0180941
0.000141962
0.000149483
0.000161676
0.000140215
0.000141995
0.000135015
0.000145111
0.000154331
0.000140465
0.000135382
0.000140173
0.00013526
0.000140661
0.000162003
0.000147189
0.0777668
0.000151832
0.000134003
0.0131696
0.000160991
0.0124153
0.0130884
0.000226424
0.0503842
0.000146118
0.000361899
0.000149316
0.0108382
0.000145523
0.000366529
0.000206632
0.0460603
0.00014493
0.000150392
0.000226369
0.000196
0.000194268
0.000138199
0.000144028
0.00922134
0.000183825
0.00016776
0.000146828
0.000145902
0.0592976
0.00014518
0.000155194
0.00335979
0.00563015
0.0486268
0.000153264
0.000138789
0.000150768
0.00013543
0.0001637
0.0050743
0.0144764
0.000131296
0.000143278
0.0135582
0.000158231
0.000151466
0.000145554
0.000176828
0.000141748
0.000131806
0.000140741
0.000157807
0.000147931
0.000159489
0.00257191
0.0176267
0.00017679
0.000171372
0.000143914
0.0332867
0.000246749
0.000171527
0.000146475
0.000231038
0.000255461
0.000145824
0.000140271
0.000140474
0.00023604
0.000174222
0.0126792
0.00469194
0.01061
0.000142374
0.000200944
0.00576749
0.0224544
0.0090049
0.000512282
0.000145377
0.000606808
0.000162558
0.000206006
0.000143846
0.00776504
0.000146188
0.000162351
0.000149826
0.00828308
0.000145367
0.00597767
2.01558e-05
0.00015171
0.000135187
0.00016476
0.000150229
0.000147506
0.000161583
0.00232232
0.000144944
0.000155568
0.00014349
0.00424796
0.000155171
0.000153226
0.000149228
0.000145446
0.000155345
0.0927068
0.000183878
0.000149135
0.000324823
0.0155343
0.000139645
0.00430197
0.000140128
0.00014417
0.00862677
0.000147271
0.000148448
0.000144809
0.00014288
0.000164293
0.000154088
0.000171525
0.0457869
0.000155991
0.000140799
0.000180363
0.0047826
0.000141893
0.000223348
0.000136008
0.00685343
0.000144274
0.000155786
0.00920416
0.000139199
0.000154106
0.00014511
0.00555151
0.0335161
0.000141388
0.00926613
0.000132219
0.000135817
0.046602
0.000142591
0.000177272
0.000170421
0.000179036
0.000189142
0.000207805
0.000140452
0.000158605
0.000135691
0.000225142
0.00960046
0.000154663
0.000172142
0.000140694
0.00393586
0.000145469
0.00350599
0.0156151
0.000149647
0.000139516
0.000202366
0.000219363
0.000277162
0.000139609
0.000132399
0.000190509
0.000147112
0.000138479
0.000161802
0.0382325
0.000159848
0.0359419
0.000142749
0.011043
0.000132112
0.000164308
0.000276295
0.000402163
0.00460239
0.00014663
0.00013951
0.00021893
0.000144429
0.000144728
0.000360719
0.00961934
0.000189679
0.000143958
0.00190118
0.010359
0.00513826
0.000154939
0.0001461
0.000143969
0.000158343
0.0132988
0.00017409
0.00013891
0.0620615
0.0139766
0.00418727
0.00016948
0.000147453
0.000213728
0.0266154
0.0741071
0.0096526
0.000140523
0.000191672
0.000169201
0.00244766
0.0137448
0.0614111
0.000176611
0.0232648
0.000137717
0.000141276
0.000144327
0.0352379
0.000142081
0.000153348
0.00441161
0.000161898
0.000165664
0.000140924
0.000149514
0.000168134
0.00229192
0.00023201
0.00014253
0.000143883
0.000159481
0.000201655
0.000144025
0.000164706
0.000528884
0.000144078
0.00610809
0.0174882
0.0122547
0.000144407
0.00016132
0.037868
0.00981734
0.000144465
0.0643916
0.0709421
0.00015003
0.0196349
0.000152891
0.000161504
0.000172878
0.000151283
0.0529336
0.000423144
0.000145438
0.00015011
0.000603325
0.00215695
0.000152307
0.000161245
0.000566494
0.0478336
0.000145655
0.00885613
0.00836953
0.000138669
0.000141046
0.000160139
0.000308452
0.000154027
0.00019322
0.0897709
0.000140213
0.000196525
0.0062547
0.000258198
0.0397393
0.000138805
0.000194593
0.0363415
0.00366262
0.000161419
0.000158496
0.0737731
0.00184032
0.000160203
0.000142778
0.0133765
0.000188217
0.000171114
0.00015519
0.00777314
0.000139111
0.000145245
0.000389638
0.000499552
0.000183557
0.0058374
0.000299284
0.000153257
0.000146614
0.000334757
0.000145115
0.000264002
0.0165802
0.0141874
0.000152753
0.000149602
0.00912936
0.000144701
0.0001347
0.0032074
0.000141954
0.000147749
0.05954
0.000153495
0.000145089
0.000195175
0.000180435
0.000160467
0.000351462
0.0126437
0.0024834
0.000228556
0.0212084
0.000306353
0.000543513
0.000155349
0.000156307
0.000180805
0.0152142
0.011266
0.000157735
0.00013895
7.05646e-05
0.000166633
0.00241171
0.000196921
0.000161082
0.000154299
0.000158282
0.000248713
0.000136283
0.000156106
0.000152807
0.000167256
0.053651
0.000155804
0.000195006
0.000144155
0.00331982
0.0075907
0.000160444
0.000151575
0.000159176
0.000250392
0.0679244
0.000188763
0.000142817
0.000150411
0.00349149
0.000143312
0.0001556
0.0234921
0.000156825
0.000158721
0.0910937
0.000143572
0.00014091
0.00700632
0.000375472
0.00015488
0.00753996
0.00603657
0.000140935
0.000162331
0.0749451
0.000160891
0.000160611
0.00014473
0.000152449
0.00036334
0.000172722
0.0001842
0.000131562
0.000155537
0.000161124
0.000134593
0.0199295
0.000156187
0.00641172
0.000219827
0.000141173
0.00015255
0.0104605
0.00261862
0.000143667
0.000151463
0.0422484
0.000166928
0.0573047
0.0402903
0.0001608
0.00928986
0.0861711
0.000306386
0.000145238
0.000158047
0.000287428
0.000152207
0.0106669
0.000171943
0.000140804
0.00524489
0.000151705
0.00017733
0.000159487
0.000403833
0.0480236
0.000145096
0.000150593
0.000174867
0.000183145
0.000155554
0.000141597
0.00501235
0.00450491
0.00862097
0.00872753
0.00021718
0.000155667
0.000229003
0.000138133
0.000131094
0.011799
0.000150271
0.000159489
0.000170257
0.000154799
0.0274351
0.000150859
0.0380107
0.0217108
0.000173449
0.000319201
0.000445382
0.000147589
0.000156187
0.000920551
0.00013766
0.000199485
0.00251535
0.000232458
0.000311907
0.000142358
0.00263873
0.0079834
0.004136
0.00290507
0.000132735
0.0058387
0.0143314
0.000283058
0.0032903
0.000151391
0.0344198
0.0062425
0.00321205
0.00734514
0.000145296
0.00359446
0.0072053
0.0616679
0.000457657
0.00327167
0.0589336
0.0615447
0.00015352
0.000156427
0.06219
0.000140463
0.000145533
0.000135056
0.027251
0.00018213
0.000160199
0.0111022
0.000142816
0.014622
0.00508215
0.000169436
0.000139148
0.000137532
0.00582004
0.0761591
0.00014442
0.000148808
0.000297318
0.000482015
0.00016439
0.000144057
0.000150448
0.000147135
0.00013993
0.0116952
0.00017199
0.00893788
0.00339388
0.000152602
0.0657377
0.000142529
0.000144407
0.000145966
0.000144585
0.000195447
0.000147416
0.000153429
0.00312647
0.000149609
0.000163506
0.000148582
0.000142911
0.00024964
0.000146009
0.000132542
0.000144278
0.000152767
0.00017804
0.000150246
0.000138206
0.000196463
0.0420187
0.00018706
0.000154018
0.000146422
0.000144206
0.0214122
0.000151672
0.00827939
0.000143613
0.00030589
0.000137445
0.000157377
0.000139058
0.00016134
0.00797697
0.101547
0.011671
0.000160723
0.00769992
0.00021713
0.00647768
0.000142046
0.0057923
0.0017382
0.000137722
0.00103143
0.0560771
0.0411884
0.000187293
0.000146037
0.000186887
0.000257284
0.000147503
0.0350227
6.59353e-05
0.000149079
0.0103472
0.000150438
0.000146688
0.000378381
0.000152568
0.000152003
0.0786448
0.00413984
0.000197939
0.000155094
0.000148071
0.001851
0.000146911
0.00587538
0.000221999
0.000138932
0.000186118
0.000145784
0.00571945
0.00256704
0.000159666
0.000320392
0.000158716
0.000504107
0.000515799
0.000229432
0.0113352
0.000152321
0.0346579
0.000155151
0.000158202
0.000159795
0.000241413
0.00962657
0.000144883
0.000194855
0.000148589
0.00214483
0.00028515
0.0177061
0.000181666
0.000149838
0.000151113
0.047731
0.015092
0.000147113
0.000391363
0.0578029
0.00021615
0.00136278
0.00631446
0.00019375
0.000211322
0.000214577
0.0291644
0.0437795
0.000222985
0.000150981
0.000149153
0.0540267
0.00015043
0.0001436
0.000668298
0.00819074
0.000175613
0.000156782
0.000202377
0.00202185
0.000138012
0.000150171
0.000140025
0.0085227
0.000161406
0.000192917
0.000148684
0.00524877
0.0707546
0.000218016
0.012588
0.00015944
0.000154025
0.000207217
0.00346533
0.00023238
0.000181531
0.00740722
0.00955527
0.000139664
0.000173464
0.000150919
0.000333703
0.000207246
0.00349584
0.000154405
0.000165891
0.000177681
0.000359794
0.000222705
0.0322272
0.000320847
0.000277657
0.00688617
0.00014984
0.0369789
0.000169556
0.000168522
0.0924001
0.000175048
0.000315591
0.00013677
0.000144989
0.000150721
0.00139488
0.0720162
0.000241284
0.0688567
0.000141371
0.0156386
0.00014154
0.00606309
0.000154154
0.000143351
0.000145227
0.000155564
0.00712313
0.000170358
0.000160464
0.0763326
0.0390824
0.00124271
0.000139014
0.000143672
0.000162209
0.000194653
0.000238895
0.000145839
0.000151185
0.0065314
0.0460227
0.0630143
0.0118597
0.000174125
0.000410193
0.00112697
0.000148365
0.000145295
0.00878075
0.000181813
0.0119458
0.000140015
0.00147883
0.000154376
0.000145416
0.000230762
0.0250529
0.000154448
0.0404783
0.000191099
0.000144708
0.0377664
0.000154751
0.000167696
0.00014294
0.000143994
0.000189802
5.68461e-05
0.0419632
0.000159859
0.000155357
0.0685936
0.000714248
0.00154075
0.000156337
0.0108446
0.000147644
0.000176572
0.00714708
0.053766
0.0001621
0.00468609
0.00951487
0.000145046
0.0811221
0.000181828
0.000139402
0.000230564
0.000247645
0.00040418
0.000184475
0.000143652
0.000776588
0.000144599
0.000137962
0.000142937
0.000168754
0.00564041
0.000179416
0.000238815
0.000158929
0.00260399
0.000157768
0.000251373
0.0110899
0.000143475
0.00663811
0.0574881
0.00345043
0.0985639
0.000153476
0.000145953
0.000242633
0.000303332
0.000143675
0.000149906
0.000336708
0.000218772
0.0365913
0.000145323
0.000158894
0.000399883
0.000145508
0.000858414
0.000144959
0.000147186
0.000158813
0.000146824
0.00588766
0.000152373
0.000144795
0.000138437
0.000196122
0.00013652
0.000214516
0.00015108
0.000145353
0.0197
0.00025777
0.000183437
0.000150781
0.000156161
0.00018657
0.000173613
0.0216567
0.00013855
0.00314123
0.000152879
0.00906224
0.000157393
0.000146962
0.000145192
0.000178077
0.000277925
0.00014679
0.000193353
0.000151813
0.000106202
0.000145331
0.000145312
0.000145987
0.000171456
0.027204
0.00290751
0.0345621
0.0329834
0.000153142
0.000175624
0.000152453
0.00264866
0.00107905
0.000169304
0.0058314
0.000517226
0.027184
0.00628636
0.000139558
0.000485163
0.000148578
0.000162239
0.00714875
0.000138244
0.000143223
0.0264357
0.0374071
0.000155262
0.000163715
0.000177319
0.00015503
0.00577806
0.00025458
0.000142596
0.0690744
0.0183026
0.0153686
0.00784845
0.00314534
0.000166657
0.0116416
0.00723096
0.0435678
0.000150353
0.0882222
0.000145588
0.000152568
0.00419426
0.00022112
0.000396118
0.000144956
0.00063591
0.00988286
0.000144918
0.000138469
0.000154454
0.000193767
0.000167485
0.000217688
0.0129795
0.00986709
0.009095
0.0362636
0.000154782
0.000149086
0.00387
0.0124522
0.000151573
0.000161968
0.000192601
0.000294846
0.000159232
0.00013958
0.0150543
0.075214
0.0407249
0.00013924
0.000736839
0.000146411
0.000134999
0.000161938
0.0097896
0.000256982
0.000197141
0.000132458
0.00942098
0.000134805
0.000144871
0.0764025
0.00386102
0.00015057
0.000160772
0.000155813
0.000160064
0.000177532
0.000155702
0.000139954
0.0110561
0.000151049
0.000149755
0.000155443
0.000127617
0.000149395
0.00066528
0.00354084
0.000153638
0.000706886
0.00022508
0.00093527
0.0642132
0.000153466
0.000578386
0.000140231
0.000161203
0.0422572
0.0338724
0.000153179
0.0621899
0.000526389
0.00985702
0.0178106
0.0969866
0.0925824
0.000151766
0.00989805
0.000153693
0.00334417
0.000136107
0.000157626
0.000194677
0.000812168
0.000142843
0.00015517
0.000199589
0.000150059
0.087775
0.000160265
0.0569457
0.00015634
0.000139216
0.0047437
0.00014464
0.0318925
0.000147483
0.000240593
0.000470224
0.00014955
0.035946
0.00014483
0.0085513
0.0845272
0.051101
0.000142679
0.000324957
0.000155651
0.000164336
0.00013853
0.000150038
0.00973736
0.000281687
0.00976683
0.000267764
0.000165303
0.000147522
0.00521946
0.0188588
0.00600375
0.00100219
0.000162164
0.00064595
0.000355782
0.000161863
0.037151
0.0001648
0.00738087
0.00015825
0.000149106
0.0115535
0.000147259
0.000177143
0.000159291
0.04263
0.000131297
0.000146248
0.00013104
0.000155292
0.000146303
0.00688765
0.0666762
0.000179576
0.0100308
0.000191475
0.00115768
0.000156784
0.000189391
0.0560774
0.00563345
0.000143663
0.00014053
0.0181321
0.000138087
0.000548343
0.000143336
0.000142633
0.000143639
0.0829807
0.0085687
0.000153537
0.0103991
0.0930241
0.000152377
0.000157357
0.000144694
0.000167882
0.0149508
0.0791922
0.0248402
0.0787552
0.000191954
0.000190337
0.000154335
0.0464297
0.0729972
0.000151462
0.00014415
0.00886838
0.000160382
0.000159855
0.000174196
0.00650439
0.0364636
0.000883377
0.000149854
0.000185072
0.00589512
0.000154872
0.000136198
0.0683221
0.00015331
6.69775e-05
0.000156122
0.000148159
0.000143737
0.00960446
0.000276277
0.000154935
0.000223693
0.084364
0.0245784
0.000154918
0.0689693
0.000150787
0.000144298
0.000277578
0.000155753
0.000143758
0.000347232
0.000146084
0.000164478
0.000181801
0.000197086
0.000165008
0.00014667
0.000147669
0.00459484
0.000167541
0.000143624
0.000149838
0.0631093
0.000192199
0.000150245
0.000170817
0.000155634
0.0034022
0.000173306
0.00837915
0.000241551
0.000262547
0.078456
0.00015982
0.000200669
0.000153171
0.00940897
0.000183526
0.000522397
0.0372373
0.00365763
0.000166544
0.00014276
0.000139838
0.0281056
0.067817
0.0240114
0.000147349
0.000186578
0.000146526
0.0415539
0.0146837
0.0191851
0.000142379
0.0737585
0.00714505
0.000144992
0.0945989
0.035487
0.0195062
0.000144317
0.000178529
0.000223565
0.000137594
0.000239367
0.00490918
0.00921763
0.000174437
0.00842937
0.0565438
0.000303576
0.000157893
0.059025
0.000176683
0.000153601
0.0416942
0.000317931
0.000163985
0.0584818
0.00829554
0.00809023
0.000287511
0.0436728
0.000153147
0.000276279
0.000150852
0.000140206
0.0725663
0.00017077
0.000139613
0.000195777
0.000148526
0.000153442
0.000169652
0.0146009
0.000156677
0.00019661
0.0338819
0.000145487
0.000182601
0.00015666
0.000162126
0.0518179
0.0117583
0.000153908
0.000183461
0.000144129
0.000223713
0.0108512
0.00033077
0.000160365
0.000143393
0.0550271
0.000137056
0.00817624
0.000143982
0.00019605
0.000230288
0.000212781
0.000151541
0.000682271
0.000215651
0.000153978
0.00696433
0.000134612
0.000149023
0.000146348
0.00950869
0.000154149
0.000199784
0.000149854
0.00771663
0.000143761
0.000239183
0.000322588
0.0884825
0.0374064
0.000173581
0.000156044
0.000153494
0.000167873
0.000996879
0.000146569
0.00017842
0.0349049
0.000149504
0.000154668
0.00088201
0.0403285