/*--------------------------------*- C++ -*----------------------------------*\
| =========                 |                                                 |
| \\      /  F ield         | OpenFOAM: The Open Source CFD Toolbox           |
|  \\    /   O peration     | Version:  v2012                                 |
|   \\  /    A nd           | Website:  www.openfoam.com                      |
|    \\/     M anipulation  |                                                 |
\*---------------------------------------------------------------------------*/
FoamFile
{
    version     2.0;
    format      ascii;
    class       volScalarField;
    location    "200";
    object      nut;
}
// * * * * * * * * * * * * * * * * * * * * * * * * * * * * * * * * * * * * * //

dimensions      [0 2 -1 0 0 0 0];


internalField   nonuniform List<scalar> 
18618
(
0.00558021
0.0144801
0.00671032
0.0261029
0.00684368
0.00307351
0.00117411
0.0161532
0.00652038
0.00673123
0.00232891
0.00671093
0.0250686
0.00677205
0.00684052
0.00671364
0.00685358
0.014468
0.00679162
0.00643939
0.00485038
0.00681763
0.00671388
0.000803583
0.00670804
0.00249244
0.00500866
0.00680959
0.00669943
0.00684029
0.0067417
0.00613378
0.00678425
0.00124665
0.0258302
0.00686397
0.00684811
0.0032646
0.00628593
0.00683863
0.0024635
0.00463803
0.00680403
0.00138807
0.00672867
0.00379385
0.0159005
0.00673756
0.001811
0.0189787
0.00681909
0.00685382
0.0166017
0.00257863
0.00667632
0.0240649
0.00673644
0.00645709
0.00122915
0.00635371
0.00684958
0.00668465
0.00645727
0.00675913
0.0014528
0.013087
0.00667902
0.00181476
0.00672148
0.0169785
0.00299543
0.00232058
0.000644669
0.0195594
0.00675767
0.00127982
0.0022275
0.0195073
0.00671852
0.00638738
0.0218953
0.0128279
0.018753
0.00674948
0.0067841
0.00680348
0.000847797
0.00672753
0.00371616
0.0157391
0.000731514
0.00464963
0.00104395
0.00216097
0.0104394
0.00116175
0.00687117
0.0104126
0.00675933
0.00671043
0.00910217
0.00675582
0.00313005
0.00607878
0.00202923
0.00178298
0.00668111
0.00671598
0.00148024
0.00670074
0.00956981
0.00673722
0.0051419
0.00681522
0.00686883
0.00671081
0.0066744
0.00137291
0.00675477
0.000542683
0.0105614
0.00531456
0.0230618
0.014614
0.00638867
0.00513836
0.00279857
0.0153235
0.00189091
0.000549881
0.000414034
0.00673327
0.0160969
0.0045687
0.00686312
0.00683346
0.00664771
0.00674258
0.0116957
0.00667235
0.00662996
0.00666797
0.00668507
0.00686388
0.00677532
0.0020199
0.00685486
0.00681859
0.00145622
0.000921749
0.00674582
0.00206586
0.0128632
0.00671662
0.0067262
0.0161421
0.000773638
0.0200772
0.00104892
0.00675679
0.00668547
0.0221176
0.00674007
0.00314643
0.00673801
0.00989066
0.00672667
0.00667449
0.0218203
0.00603627
0.00674418
0.00673281
0.000623559
0.000597858
0.020045
0.00147505
0.00621296
0.0167835
0.00672738
0.00672498
0.00078546
0.000657815
0.00686467
0.0068774
0.00258414
0.00665168
0.00660889
0.000743107
0.00576584
0.00123206
0.00682029
0.000709853
0.0194146
0.00666943
0.00118219
0.00731451
0.000806865
0.010708
0.00668604
0.0146432
0.00471382
0.00155347
0.00628439
0.00355637
0.0218948
0.0211387
0.00728428
0.00206
0.00476861
0.0117368
0.00456765
0.00664772
0.00179905
0.00102045
0.00687759
0.00687265
0.0069926
0.0208384
0.00678704
0.0032918
0.00683558
0.00462123
0.0066474
0.000387276
0.00518593
0.00529595
0.00684747
0.00673817
0.0254311
0.00101752
0.00765559
0.0032045
0.00656569
0.00119486
0.0067443
0.000590665
0.00636211
0.00694463
0.00687284
0.00871474
0.000798507
0.00627077
0.00680319
0.0033094
0.0078968
0.00684101
0.000889072
0.0122839
0.00664301
0.00157502
0.0142494
0.007883
0.00312628
0.00534619
0.00473421
0.00670131
0.0038828
0.000913372
0.00685814
0.000737323
0.000335719
0.00473956
0.00315502
0.0171992
0.00731084
0.00686277
0.000941092
0.00455901
0.00417602
0.00223996
0.00138113
0.00674869
0.00684609
0.00681038
0.00674285
0.00927701
0.00658534
0.00674383
0.0204724
0.00684436
0.00548847
0.00674237
0.00400766
0.0142509
0.00533647
0.0220065
0.00673003
0.00233653
0.00680895
0.0013749
0.00684135
0.00623181
0.00672774
0.00673133
0.000632477
0.00670426
0.00685324
0.00642922
0.00935212
0.00133827
0.0200379
0.0109053
0.0192572
0.000474859
0.00086271
0.0161901
0.0195518
0.00682934
0.00627386
0.000587747
0.00684979
0.00637461
0.00616868
0.00685062
0.00109755
0.0200555
0.0136993
0.0076081
0.00686826
0.00664199
0.0020441
0.00121733
0.00108633
0.0193759
0.00686185
0.00785911
0.0142882
0.00674875
0.000654625
0.00677261
0.0066764
0.00681443
0.000648176
0.00684383
0.0069749
0.00685755
0.00298096
0.0067329
0.00715397
0.0142712
0.00684505
0.0191626
0.00670676
0.00670809
0.00672914
0.00638924
0.00688503
0.00660912
0.0245704
0.00418375
0.0181479
0.00107896
0.00672939
0.00672946
0.0208811
0.000460102
0.0066912
0.000562316
0.00675042
0.00101302
0.0163907
0.00975412
0.000424421
0.00688526
0.0105593
0.0196048
0.00679008
0.00263404
0.00454666
0.00677465
0.0066924
0.00673938
0.0244926
0.0179384
0.00682316
0.00681518
0.0196414
0.00682266
0.00422716
0.00280025
0.00382843
0.00621011
0.0243823
0.00873241
0.00679124
0.00627572
0.00676751
0.000444093
0.0066831
0.00672558
0.00677992
0.00488357
0.00391659
0.00677724
0.0203164
0.0245352
0.000539765
0.00723603
0.00673228
0.00652203
0.00638862
0.0177979
0.00424981
0.00101604
0.00676188
0.0228047
0.00685097
0.00173864
0.00667017
0.00197701
0.00686009
0.0239103
0.001768
0.00353214
0.00670972
0.000428421
0.0068016
0.00266534
0.00675822
0.0150855
0.00673734
0.00490828
0.00660745
0.0253453
0.00264382
0.00670696
0.00652945
0.00241452
0.00668447
0.00222511
0.00685492
0.00680457
0.00685912
0.00457748
0.00255715
0.00676151
0.000443521
0.0068533
0.000659372
0.00663451
0.00319194
0.00164425
0.00681797
0.00679575
0.0170042
0.00299918
0.00939677
0.001171
0.0068743
0.00175506
0.00663342
0.00223938
0.0248919
0.00559417
0.000558659
0.00647922
0.00672997
0.0200003
0.00668303
0.0113631
0.0267208
0.00275748
0.0161969
0.00682269
0.000214957
0.000774847
0.000993767
0.00430213
0.019561
0.00681722
0.00675468
0.00679999
0.002922
0.000634815
0.00674586
0.00672682
0.00673241
0.0131231
0.00139209
0.00661451
0.0155936
0.000171704
0.00253484
0.00674731
0.00667493
0.0197479
0.00683935
0.000991148
0.00308527
0.0251331
0.000454146
0.00675362
0.00659938
0.00224245
0.0195439
0.00666894
0.0189473
0.00674333
0.00680839
0.00568467
0.00564148
0.00662578
0.0099632
0.00677468
0.00673478
0.00529441
0.00668566
0.00662859
0.00667498
0.022261
0.0105733
0.000521394
0.00702563
0.0068658
0.00672669
0.00664965
0.0274606
0.006419
0.0171766
0.00686685
0.0170447
0.00631866
0.00665513
0.00142182
0.00895818
0.00219862
0.00671715
0.00572989
0.010243
0.0225832
0.00680987
0.000504283
0.00687828
0.0068028
0.00675071
0.00730869
0.000898984
0.00668068
0.0201644
0.0239282
0.026479
0.0165769
0.00610555
0.0014527
0.000676554
0.00515129
0.0237877
0.0240462
0.00344269
0.000542482
0.000636501
0.00680123
0.00550452
0.000464074
0.000533606
0.00670381
0.00672949
0.00113193
0.00179771
0.00178151
0.0066207
0.0163957
0.00687058
0.0209787
0.00290188
0.006741
0.000662731
0.00677253
0.00437133
0.00552014
0.00673681
0.021786
0.0024431
0.0216705
0.00071799
0.00200371
0.0189453
0.00680882
0.00686787
0.00076404
0.0068558
0.00676827
0.000877416
0.0130852
0.00414548
0.00661019
0.00572551
0.00672601
0.00668536
0.000617883
0.00616307
0.0116546
0.00632547
0.0255693
0.00616667
0.0190155
0.00666291
0.00654227
0.0170337
0.00626265
0.0225527
0.00667509
0.000940265
0.00207849
0.00521592
0.00297112
0.0107971
0.00684063
0.00687433
0.00673821
0.00679526
0.0104536
0.00376241
0.00682933
0.00158929
0.000851958
0.00602541
0.00120646
0.00292958
0.00686247
0.000809663
0.00380793
0.0035209
0.00315425
0.0057283
0.00144126
0.00254458
0.00109942
0.00153052
0.00676799
0.00672294
0.0067425
0.0057739
0.00594461
0.0110875
0.0068618
0.00670009
0.00683172
0.00667889
0.00669256
0.00667956
0.00643356
0.00314175
0.0266892
0.00668012
0.0060941
0.0118828
0.00683562
0.00666212
0.000936706
0.00100072
0.00654455
0.00675146
0.00670072
0.00858021
0.00678128
0.0214262
0.0051071
0.00680243
0.000754707
0.00254139
0.00569312
0.0101656
0.0231383
0.0223137
0.00054816
0.00677534
0.000683522
0.00165133
0.00667631
0.000667557
0.00674072
0.00410781
0.00486347
0.00443037
0.00672225
0.0226306
0.00687098
0.0180658
0.00673397
0.000575219
0.000955247
0.00297745
0.019783
0.00248385
0.00672512
0.00720724
0.00684265
0.019765
0.00650948
0.00101482
0.00432529
0.00396468
0.00322018
0.00652096
0.0068684
0.00213347
0.00666159
0.00682811
0.00667183
0.00681364
0.00522783
0.00672105
0.00673471
0.00876983
0.00667069
0.00800544
0.00664922
0.00292469
0.00680743
0.00204679
0.00671357
0.00819096
0.00724272
0.00711103
0.00309339
0.00680886
0.00668032
0.00671017
0.00683246
0.00686224
0.00677221
0.00676899
0.00130206
0.00685843
0.0155647
0.016735
0.000928066
0.00671324
0.00671213
0.00075823
0.0206876
0.0105991
0.00222447
0.016086
0.0176236
0.0174751
0.00225229
0.0154356
0.00675368
0.00664071
0.00671933
0.0023463
0.00682418
0.00474668
0.000722386
0.00665668
0.00755224
0.00687368
0.00310157
0.000575776
0.00529916
0.000412614
0.000880806
0.021043
0.00525932
0.0067527
0.0068428
0.00661648
0.0234011
0.000657444
0.00668924
0.00680448
0.0126903
0.00111589
0.0196325
0.00686373
0.00104457
0.00351908
0.014302
0.00573812
0.00667567
0.00679077
0.00683404
0.00682795
0.00676572
0.0058383
0.0179695
0.0236148
0.00667754
0.0205853
0.00674401
0.0191756
0.000390805
0.01573
0.00679412
0.00495971
0.0063584
0.00674802
0.0102466
0.00673124
0.00682396
0.0059937
0.00668446
0.000617082
0.00680611
0.00683727
0.00247916
0.00672955
0.000873711
0.00676311
0.0192926
0.00670657
0.00680785
0.00662876
0.00602007
0.0012603
0.00199768
0.00342143
0.00493759
0.0109174
0.00198311
0.0067115
0.00679447
0.00680426
0.00683846
0.00152407
0.000856184
0.0216558
0.0068447
0.0067098
0.0239334
0.0067465
0.0226422
0.000591701
0.00671445
0.0068799
0.000957798
0.00659032
0.00156
0.00681501
0.00672196
0.00686893
0.00663675
0.000772086
0.00380971
0.00407377
0.00687003
0.00472441
0.000496902
0.0095727
0.00682884
0.020157
0.00657539
0.00429246
0.00680614
0.00684594
0.0108323
0.00671715
0.00334417
0.000822711
0.00227805
0.00673063
0.00668102
0.00685038
0.00169587
0.00664256
0.0067958
0.0219139
0.0192085
0.00684052
0.00303527
0.00506838
0.00833877
0.0222584
0.000508781
0.00873778
0.00674682
0.0184533
0.00681548
0.000595454
0.0008805
0.00918044
0.0067528
0.0068447
0.00684865
0.00686574
0.0208736
0.0053759
0.0108988
0.00673156
0.00144571
0.00211962
0.00657189
0.00682176
0.0065196
0.0141465
0.00861053
0.0219081
0.000655397
0.00683755
0.002107
0.00687524
0.00159212
0.00475351
0.00446113
0.000482445
0.00330039
0.0261515
0.0130794
0.006675
0.000646916
0.0239641
0.0166974
0.00862137
0.0126815
0.0235844
0.00339491
0.00419645
0.00366802
0.00660357
0.00194292
0.00683757
0.0238529
0.0164297
0.00562983
0.00314687
0.0071771
0.00666877
0.00682383
0.00686545
0.00283344
0.00671158
0.00101121
0.00683942
0.00258749
0.006741
0.00670339
0.00679661
0.00184515
0.00776625
0.00247332
0.00826053
0.0068423
0.0221338
0.00668106
0.00352245
0.00663784
0.00686916
0.0068088
0.00625267
0.00645146
0.0067531
0.0067713
0.0156457
0.0144246
0.00412011
0.00604887
0.00677337
0.016559
0.00668465
0.00382549
0.0195135
0.00680242
0.00352228
0.0067924
0.00298546
0.00785244
0.0125559
0.00684988
0.00686939
0.00935632
0.0129002
0.00667625
0.00680102
0.00618249
0.0068149
0.00752501
0.00680376
0.019808
0.00686709
0.00568473
0.000664389
0.00650827
0.0067554
0.00683394
0.00682093
0.00453952
0.00325249
0.0174482
0.00142962
0.00177428
0.00675587
0.00314267
0.00683773
0.0068496
0.000677859
0.00679235
0.0154351
0.00678725
0.00679192
0.00438635
0.00683352
0.00679241
0.00363761
0.00677722
0.00656706
0.00670167
0.00685495
0.00400511
0.00675088
0.00666285
0.000586702
0.00682254
0.000557954
0.0207803
0.00961782
0.00664454
0.0241775
0.00650188
0.00672467
0.00340293
0.0216651
0.00652329
0.00077279
0.00677096
0.00682842
0.00658205
0.00670737
0.00680046
0.00506284
0.00642242
0.000907234
0.00766182
0.00667225
0.00675486
0.00628897
0.000631937
0.00672574
0.00322609
0.00381076
0.00450856
0.00678713
0.00684073
0.000400783
0.000420826
0.0066767
0.00667591
0.00666804
0.00687817
0.00388863
0.00684812
0.0018815
0.00360433
0.00675988
0.000535585
0.00681297
0.00680914
0.00233834
0.0067766
0.0170634
0.000581745
0.00684623
0.0255498
0.00684231
0.000705456
0.0073343
0.00382765
0.00597986
0.00955874
0.00673916
0.00673501
0.0054249
0.00300118
0.0056377
0.00668171
0.000861516
0.00678452
0.00669408
0.00681275
0.0233656
0.0102875
0.00675043
0.00215036
0.00336058
0.0015641
0.0067582
0.00645888
0.0139858
0.0263836
0.0190823
0.00681418
0.0258662
0.0053438
0.00633534
0.00187474
0.021954
0.0261882
0.00666681
0.00638079
0.0266811
0.0068151
0.0158382
0.00633138
0.00159152
0.0254982
0.0141413
0.00663286
0.00452473
0.00515965
0.00684317
0.0143238
0.00187315
0.00666444
0.00224036
0.00193412
0.0114449
0.0262285
0.00592223
0.00685551
0.0067711
0.00155847
0.00123743
0.00163917
0.00668699
0.000763438
0.0028849
0.00668474
0.00677467
0.00666906
0.0067895
0.00673455
0.00148777
0.0050316
0.00669227
0.000711355
0.00024775
0.0086338
0.00667323
0.00666176
0.00634429
0.00987066
0.00652577
0.018957
0.000801508
0.0240507
0.00582877
0.00674342
0.0067445
0.00659697
0.000471694
0.00684367
0.00673272
0.00684171
0.0253476
0.000511387
0.00676314
0.00652929
0.00668325
0.00618227
0.00291498
0.00686102
0.00630721
0.00992402
0.00631534
0.00640483
0.00836946
0.00098676
0.0177167
0.00959525
0.0192478
0.002737
0.00952392
0.00672666
0.00683272
0.00680151
0.00686168
0.00748282
0.00621351
0.00688498
0.00686685
0.00686745
0.000571207
0.00677257
0.0177269
0.00381349
0.00100724
0.00686116
0.00684857
0.00289441
0.00052568
0.00681944
0.00687191
0.00668428
0.00667631
0.00896166
0.00597609
0.00685171
0.00327802
0.0049015
0.00683121
0.00815469
0.00681224
0.000698256
0.00685583
0.00683264
0.000661327
0.0220802
0.00269879
0.00211851
0.00656568
0.00153321
0.00170726
0.00685881
0.00463118
0.00963492
0.00680353
0.0119037
0.00676529
0.00424359
0.00310152
0.00684597
0.00681315
0.0067115
0.0118285
0.0020925
0.0223502
0.00663764
0.00272929
0.00070923
0.0068563
0.00684623
0.00540718
0.00678255
0.00422761
0.000549285
0.00607147
0.00177751
0.00083383
0.000793873
0.00686394
0.0161892
0.00662723
0.0205247
0.00294264
0.00686187
0.00334614
0.00284116
0.00246308
0.0244807
0.00685518
0.00325243
0.00684153
0.0155655
0.00181467
0.0158024
0.00049497
0.00682393
0.00673687
0.00825615
0.00155503
0.0148174
0.00596654
0.00671057
0.0068536
0.00608899
0.00197781
0.00675753
0.00671109
0.00682645
0.0198014
0.00684401
0.000950564
0.00666893
0.000432023
0.00669277
0.00880071
0.00673913
0.00175956
0.00671685
0.00647331
0.00685189
0.000750086
0.00686577
0.00673156
0.0125855
0.00679893
0.00669238
0.0146019
0.00678276
0.000725806
0.0165127
0.0124807
0.00672347
0.00678211
0.00557257
0.023601
0.00234447
0.00652751
0.00475517
0.0110118
0.00675916
0.00666714
0.0018717
0.00360903
0.000695613
0.00678607
0.00601711
0.00663864
0.00600314
0.00123233
0.010542
0.00639675
0.0013122
0.0198048
0.0072175
0.00681612
0.00682015
0.00641084
0.00673758
0.0068242
0.00671932
0.0068391
0.00655624
0.0068517
0.00672801
0.00673725
0.00673041
0.00683851
0.00630876
0.00686816
0.0183984
0.00661864
0.00675704
0.0191137
0.00613968
0.0183337
0.0251667
0.000591277
0.0110909
0.00685817
0.000733077
0.0068224
0.0218485
0.00685396
0.000934979
0.000420194
0.0158271
0.0068672
0.00687634
0.00171682
0.00048793
0.000486071
0.00684432
0.00676151
0.0119155
0.00543833
0.00511639
0.00669171
0.00669388
0.0151383
0.00676303
0.00655545
0.00606483
0.0086447
0.0162101
0.0045436
0.00680051
0.00684549
0.00676353
0.00686306
0.0051443
0.0261995
0.00670798
0.00685599
0.024092
0.0018689
0.00667852
0.00667178
0.00369694
0.00680144
0.00671363
0.00673729
0.00647684
0.00673543
0.00175071
0.0065861
0.0259345
0.00555243
0.00658709
0.00675371
0.0142117
0.000714637
0.000915891
0.00675849
0.000651193
0.00885802
0.00686075
0.0068514
0.00679903
0.000692198
0.00658756
0.00940547
0.0107337
0.0133885
0.00667154
0.00116442
0.0122042
0.00842122
0.0172297
0.00118704
0.00676752
0.00142777
0.00625963
0.000417051
0.00666562
0.0105327
0.00669697
0.00592319
0.00576627
0.0144672
0.00684591
0.00329241
5.25942e-05
0.0066414
0.0067295
0.00222799
0.00670559
0.00682876
0.00608003
0.0041688
0.00686204
0.0022769
0.00681013
0.00290643
0.00233933
0.00663888
0.00686377
0.00679164
0.00574515
0.0235193
0.00599865
0.00686544
0.00730138
0.0177828
0.00674066
0.0121164
0.0067899
0.00675843
0.0150459
0.0068149
0.006854
0.00681714
0.00682127
0.00180704
0.00661113
0.00592326
0.0123439
0.00358091
0.00673998
0.00171
0.0152344
0.00667328
0.000405993
0.00669817
0.00972017
0.00682907
0.00651339
0.0230767
0.00674328
0.00674925
0.00666576
0.00366187
0.0222087
0.00684029
0.0118741
0.00671813
0.0067391
0.0161418
0.00674648
0.00607474
0.000795161
0.0020315
0.00092217
0.00150119
0.00673781
0.00173379
0.00673424
0.000355768
0.0244895
0.00398121
0.00591523
0.0068355
0.00578576
0.00675289
0.0105872
0.00629881
0.0057904
0.00684993
0.0031697
0.000420089
0.000539768
0.00684849
0.00673237
0.000482078
0.00670453
0.00679304
0.00404412
0.0111511
0.0039004
0.0143997
0.00667805
0.0179753
0.00671654
0.00137558
0.00055151
0.00340092
0.0108126
0.00683124
0.00673702
0.00194593
0.00682117
0.00685873
0.000925434
0.0275795
0.000551731
0.00674139
0.00223945
0.0132371
0.0053139
0.0036913
0.00668022
0.00673883
0.00230922
0.0234402
0.00557782
0.00684103
0.0178195
0.0201633
0.00872759
0.000876446
0.00680321
0.000304659
0.0105712
0.0220506
0.0249353
0.00673878
0.000487985
0.00648433
0.00458229
0.0239244
0.019386
0.000688533
0.00978466
0.00681232
0.00683949
0.0067341
0.0146934
0.00674697
0.00664131
0.0142126
0.00605764
0.00185795
0.00684193
0.00686691
0.00613482
0.0056774
0.000358136
0.00667098
0.00675828
0.00214946
0.000636297
0.0067293
0.00609149
0.00266372
0.00677269
0.0175691
0.0197987
0.0180516
0.00666649
0.00644624
0.0135179
0.00967568
0.00686414
0.0229601
0.0215014
0.00686536
0.012873
0.00517932
0.00635994
0.000860856
0.00683933
0.02258
0.00461887
0.00686645
0.00688387
0.00474105
0.00305435
0.00523132
0.00608629
0.000540586
0.0163953
0.00667694
0.0217505
0.0243359
0.00682351
0.00683279
0.00638527
0.00116493
0.00674955
0.000576731
0.0207113
0.0068273
0.00146642
0.0111052
0.00346023
0.0211348
0.00673431
0.000505181
0.0149645
0.00463262
0.00616535
0.00233891
0.0176202
0.00265624
0.0065717
0.00683692
0.014821
0.0019122
0.0040555
0.00399626
0.0144805
0.0068436
0.00667117
0.00133914
0.00528614
0.00239127
0.0202553
0.00298484
0.00680679
0.00668968
0.00359304
0.00685905
0.00144596
0.0251299
0.0263982
0.00665339
0.00667174
0.0208054
0.00675549
0.00674688
0.00469955
0.0067437
0.00681209
0.0158141
0.00326032
0.00682079
0.000456409
0.00185108
0.00363518
0.000649072
0.0244132
0.00653972
0.00454153
0.00923547
0.00342847
0.00292073
0.00655934
0.00206359
0.00338917
0.0108218
0.00469537
0.0018998
0.00673827
0.000824427
0.00101366
0.00641019
0.000714972
0.00650329
0.00414682
0.00240388
0.00357038
0.00675581
0.00654232
0.00682321
0.00635612
0.0220371
0.00212741
0.00198492
0.00675281
0.00569224
0.0183719
0.00351423
0.00256893
0.00659377
0.00087786
0.0208962
0.000800296
0.00675075
0.00682892
0.00223579
0.00681811
0.00352516
0.0252538
0.00660412
0.0063761
0.0222796
0.00672401
0.00681952
0.00736383
0.00566484
0.00373619
0.0139697
0.00900182
0.00683923
0.00595127
0.0221708
0.00632031
0.0062238
0.006816
0.00661931
0.00259505
0.00279444
0.00121103
0.00671213
0.00210615
0.00398783
0.00674542
0.0163882
0.00655586
0.010309
0.000326895
0.00685633
0.00683076
0.0197871
0.00349924
0.00672846
0.00667651
0.012878
0.00599007
0.0128928
0.0127595
0.00639948
0.0254389
0.0226318
0.0030151
0.00676893
0.00657521
0.000659018
0.0066258
0.00471419
0.00236473
0.00681852
0.00859503
0.000563572
0.000731429
0.00632853
0.0020079
0.0194238
0.00682988
0.00681475
0.00659474
0.00055944
0.0064786
0.00684575
0.0109905
0.00388646
0.0074927
0.0177484
0.000865904
0.00665068
0.00545981
0.00672642
0.00670783
0.0233353
0.00685636
0.00263366
0.0010558
0.00674756
0.00478579
0.00609886
0.00752009
0.0033783
0.000893167
0.00338264
0.00166526
0.00686161
0.00665358
0.000846906
0.00683838
0.000622758
0.00186657
0.00206476
0.00227262
0.00679666
0.00614713
0.00788664
0.00933944
0.00664622
0.00671848
0.0123082
0.0158892
0.00140612
0.00551858
0.00684939
0.0130968
0.0215029
0.00982972
0.0149173
0.00683562
0.00375155
0.012852
0.0143217
0.00133638
0.00976261
0.0195062
0.0209562
0.00662853
0.0066123
0.015207
0.00681034
0.00676316
0.00678089
0.00804781
0.000819121
0.00630031
0.00482553
0.00675768
0.0210942
0.00839749
0.000994017
0.00677659
0.0068376
0.012388
0.0223926
0.00686389
0.00686019
0.00484325
0.00345032
0.00136064
0.0068638
0.00664576
0.00686932
0.00680025
0.00482112
0.000795292
0.0251016
0.00815215
0.00666287
0.0206444
0.00674095
0.00673318
0.00666885
0.00686297
0.00145
0.00682124
0.00666377
0.00711415
0.00685367
0.00166537
0.00686006
0.00675875
0.000913432
0.00679013
0.00671545
0.00686464
0.0066084
0.00650909
0.00670581
0.00677806
0.000568111
0.0170966
0.00274014
0.00408234
0.00678964
0.00675642
0.0139498
0.00680255
0.021914
0.00672468
0.00326301
0.00680988
0.00649088
0.00673959
0.00633073
0.0203102
0.0199106
0.00478616
0.00649271
0.00818365
0.000811291
0.0170065
0.00685641
0.00921876
0.00119547
0.00676466
0.00435922
0.0187931
0.0138905
0.00263158
0.00677933
0.00657548
0.00119499
0.00685781
0.014765
0.000112584
0.00665116
0.0235231
0.00685611
0.00657828
0.000999463
0.00682632
0.00678489
0.0227266
0.00449984
0.00103823
0.00653994
0.0066711
0.00368603
0.00668445
0.00922983
0.00625358
0.00682955
0.00600923
0.00676211
0.00692865
0.00693169
0.00642759
0.000578683
0.00660816
0.00121644
0.0012777
0.000854492
0.0180093
0.00324135
0.0102487
0.0022308
0.00642673
0.00416335
0.00839501
0.0256432
0.00675278
0.00761411
0.00674783
0.0048548
0.000643471
0.0133983
0.00316727
0.00687164
0.00687498
0.0136771
0.0235425
0.00684938
0.00705393
0.0183399
0.000367524
0.00120882
0.0102778
0.000442213
0.00639926
0.0075575
0.0126591
0.00893911
0.00114487
0.00672767
0.00664538
0.0126865
0.00688426
0.00668182
0.00134311
0.00840098
0.000618279
0.00211606
0.00253376
0.0061464
0.00677186
0.00686481
0.006792
0.005925
0.00615102
0.000537159
0.00686038
0.0157886
0.0190113
0.000395881
0.0101692
0.00156096
0.00645466
0.00170386
0.0082491
0.00185212
0.00732077
0.0223653
0.0244885
0.00677929
0.00393243
0.00686178
0.00864636
0.00129613
0.00223269
0.00676739
0.00127959
0.00231448
0.00192025
0.000327985
0.01571
0.0012501
0.00702377
0.0210375
0.00686863
0.0234845
0.00214282
0.00224167
0.0225501
0.00600968
0.0011665
0.0068346
0.0067647
0.00687595
0.00549817
0.0216331
0.00372832
0.0158064
0.00667897
0.0268864
0.00682425
0.0184922
0.00662596
0.00685949
0.00680572
0.00648964
0.0188277
0.00384634
0.00131592
0.0185705
0.0077478
0.00231002
0.00677042
0.00672502
0.00519273
0.000717334
0.0010394
0.00676734
0.00687262
0.0200701
0.015339
0.020072
0.025086
0.00607321
0.00158038
0.00540788
0.00685403
0.00682682
0.0249692
0.00242403
0.0249895
0.00680087
0.00144616
0.0066723
0.00680281
0.000337378
0.0144256
0.00638477
0.0119531
0.000476107
0.00675937
0.0240025
0.00246896
0.00556415
0.00675269
0.00674928
0.00116645
0.00131169
0.013849
0.00130842
0.00665977
0.0205093
0.00099217
0.00354136
0.00644187
0.0167383
0.00679968
0.000683836
0.0111792
0.0213086
0.00146155
0.0093375
0.0239911
0.0067565
0.017987
0.000671425
0.00678433
0.00231218
0.000684321
0.00096723
0.000566057
0.00682628
0.00451188
0.00681939
0.00672543
0.00684352
0.00489975
0.00370597
0.000832293
0.00108801
0.00650391
0.00426253
0.00656152
0.00360466
0.0173275
0.00675635
0.0137633
0.0189298
0.00747976
0.0234215
0.00341922
0.00677848
0.00285959
0.00447531
0.00668306
0.00670898
0.00141435
0.000223489
0.0130958
0.00667218
0.0016696
0.00139459
0.00676035
0.00138786
0.00682259
0.00682455
0.00263847
0.00687189
0.019888
0.00682943
0.00675194
0.00672846
0.000955924
0.00678368
0.000382117
0.00646642
0.00675898
0.017489
0.000437595
0.000657923
0.006882
0.00226858
0.000541777
0.00149455
0.013716
0.00676731
0.0100861
0.00310407
0.0152858
0.00652191
0.00681831
0.00674185
0.00380369
0.00341589
0.00682867
0.000729748
0.00679872
0.00154165
0.00675393
0.00683812
0.00682326
0.00120211
0.0117827
0.0035675
0.0111822
0.010981
0.00358423
0.00205396
0.00676827
0.00313701
0.00108841
0.00649014
0.01944
0.00309724
0.0161622
0.0100915
0.00681126
0.00501298
0.00667458
0.00596051
0.0113432
0.00672684
0.00675194
0.0115167
0.0115991
0.00238619
0.00631849
0.00653317
0.00647972
0.0175313
0.00548072
0.0066803
0.0185507
0.00805025
0.0269284
0.00672667
0.00186072
0.00469905
0.0229596
0.00909933
0.0253868
0.00685746
0.0208181
0.00676105
0.00327564
0.0111612
0.00190776
0.000635142
0.00673538
0.00342968
0.0224904
0.00676417
0.0066759
0.00675638
0.0011527
0.00638541
0.000311037
0.0146213
0.0199013
0.0228023
0.010864
0.00663
0.00676575
0.00450899
0.0233713
0.00626431
0.00632283
0.000601298
0.00267565
0.00364556
0.00679162
0.0220111
0.0221565
0.0219332
0.00677742
0.00157572
0.00669375
0.0067631
0.00133443
0.019956
0.000505508
0.000967715
0.00673277
0.0237047
0.00675655
0.00666729
0.0199162
0.0111409
0.00667844
0.00623855
0.00662816
0.00639366
0.00598012
0.00648005
0.00678676
0.0240758
0.00417632
0.00687372
0.00663571
0.00718146
0.00671253
0.00133075
0.00558277
0.00658751
0.00174376
0.000252982
0.00113324
0.0195182
0.00653251
0.00478475
0.0066819
0.00149103
0.0142038
0.0122079
0.00343009
0.0218917
0.000949902
0.0115167
0.0031385
0.0228482
0.0213141
0.006672
0.025129
0.00652871
0.00797238
0.00674982
0.00656649
0.00129458
0.0070023
0.00667254
0.00457155
0.00338597
0.00684986
0.0232485
0.00440238
0.0193622
0.00655127
0.00680303
0.00260559
0.00674844
0.00585424
0.00681164
0.00145292
0.00127286
0.00670791
0.0121211
0.00686315
0.0222937
0.0227142
0.0148611
0.00684125
0.000663583
0.0065975
0.00618746
0.0067627
0.00663267
0.0234964
0.000673181
0.0252149
0.00352289
0.00575241
0.00686476
0.0187058
0.0167604
0.0144544
0.00235829
0.00656668
0.00189348
0.000593663
0.00298255
0.0225138
0.00634422
0.0220872
0.00651845
0.00674239
0.0102299
0.00687006
0.000807448
0.00646457
0.0150674
0.00670919
0.00678428
0.00670694
0.00346991
0.00668609
0.0114295
0.0207229
0.00236123
0.00748488
0.0053892
0.00594861
0.0065744
0.00478461
0.0177937
0.0120129
0.00667627
0.00675942
0.0123831
0.0068443
0.00240227
0.00667219
0.00677283
0.00673035
0.0198397
0.0172306
0.00662367
0.017761
0.0223615
0.00326913
0.00559402
0.00686797
0.0063329
0.00609502
0.0212673
0.00408068
0.0202713
0.00398126
0.000795331
0.00637649
0.0103278
0.0173579
0.00664713
0.00667727
0.0142154
0.00642539
0.00250428
0.0011659
0.0134411
0.0123727
0.00323091
0.00685987
0.00158947
0.01411
0.00673372
0.006755
0.0168908
0.0066291
0.000431112
0.00654592
0.00686225
0.00672903
0.0253498
0.00728778
0.00663243
0.00154836
0.0197539
0.00735533
0.00652084
0.0158221
0.00685378
0.00686467
0.00127524
0.00665353
0.00674898
0.00107945
0.00683174
0.00585552
0.00121992
0.00128116
0.00557262
0.00687385
0.00687608
0.0129646
0.00508122
0.00675112
0.00685226
0.0144121
0.00279577
0.00662463
0.00359763
0.00402143
0.0101451
0.000852311
0.003858
0.000432245
0.000491824
0.0227073
0.00304856
0.00100606
0.00666806
0.0152011
0.00588187
0.00125678
0.0120628
0.011979
0.00612973
0.00685397
0.00679365
0.0188627
0.016255
0.0250523
0.00678417
0.000950651
0.00686869
0.0129032
0.0115349
0.0172062
0.00685832
0.0188146
0.0033228
0.00686071
0.022264
0.023046
0.0162622
0.00673062
0.00180552
0.000971601
0.00681193
0.00226322
0.0142759
0.0228572
0.00221242
0.0135944
0.0166126
0.00111126
0.00496537
0.0173381
0.0013303
0.00664884
0.0125002
0.00724216
0.00606393
0.0186075
0.0233527
0.0238278
0.000313717
0.0276717
0.00334585
0.000826452
0.00667751
0.00680275
0.018443
0.000939096
0.00668979
0.00637053
0.00685539
0.00675367
0.00393169
0.0164943
0.00203963
0.000656072
0.0138682
0.00682327
0.00780073
0.00196155
0.00687796
0.0148351
0.0175972
0.00386128
0.000592631
0.00686425
0.00617884
0.023209
0.00137011
0.00395268
0.00675572
0.0169531
0.00680055
0.0238572
0.00683038
0.00205921
0.000999098
0.000395516
0.00669663
0.00104323
0.000469124
0.00668856
0.0196569
0.0067582
0.00664824
0.00683197
0.021099
0.00476921
0.00353149
0.00121645
0.022879
0.00686324
0.00407197
0.000806498
0.0237923
0.0113889
0.00108925
0.0065603
0.00653938
0.00209373
0.00250637
0.00687526
0.000915155
0.0065842
0.00687703
0.00666307
0.00463973
0.0171311
0.00428739
0.00039171
0.00175962
0.000384061
0.00425616
0.0114319
0.0186633
0.0102859
0.0105717
0.0129643
0.0216747
0.0192895
0.00990637
0.00679295
0.00687047
0.00500763
0.00678734
0.0166266
0.00182579
0.00667319
0.00228258
0.00665988
0.0257283
0.00682248
0.0199119
0.000512718
0.00680959
0.00295553
0.00659322
0.020487
0.00854995
0.00679842
0.017887
0.00057468
0.000621963
0.0230662
0.00685649
0.0139144
0.000437732
0.00267151
0.0141573
0.0037722
0.0135431
0.00658432
0.0067062
0.00684093
0.017421
0.00929708
0.00666545
0.00685883
0.00326192
0.00595444
0.00263471
0.00305962
0.00663241
0.00677189
0.0268385
0.0241782
0.0198979
0.00387379
0.0175897
0.00216124
0.0025324
0.00655677
0.00371945
0.00254299
0.00456829
0.00881677
0.00490694
0.00674526
0.00681864
0.0190336
0.00687202
0.00918231
0.00673125
0.0157033
0.00667545
0.0232106
0.00675869
0.00675923
0.00395686
0.00015747
0.00109094
0.00675655
0.0065801
0.0068371
0.00482863
0.0245098
0.00673594
0.00315189
0.0265022
0.00560315
0.00678978
0.00417397
0.00313205
0.00653989
0.00613131
0.0144928
0.0192904
0.0268653
0.0191187
0.0176687
0.00303185
0.0125458
0.00685934
0.00258689
0.0175833
0.00654469
0.00683274
0.0063691
0.00061825
0.00684131
0.015124
0.00679471
0.0236331
0.00655702
0.00668568
0.0271733
0.0062652
0.00094584
0.000769865
0.0251389
0.00652659
0.0199163
0.000378111
0.0214673
0.00522787
0.00599934
0.00162946
0.00584654
0.000961551
0.0066888
0.0172154
0.00666634
0.0255829
0.00959201
0.00390949
0.00376099
0.00332655
0.00675183
0.00435088
0.0273531
0.00578101
0.0068734
0.0212551
0.000832917
0.000952376
0.000805326
0.00853538
0.00685261
0.00675567
0.00668389
0.00688037
0.00227346
0.00672788
0.00601448
0.00513701
0.00674635
0.00683891