/*--------------------------------*- C++ -*----------------------------------*\
| =========                 |                                                 |
| \\      /  F ield         | OpenFOAM: The Open Source CFD Toolbox           |
|  \\    /   O peration     | Version:  v2012                                 |
|   \\  /    A nd           | Website:  www.openfoam.com                      |
|    \\/     M anipulation  |                                                 |
\*---------------------------------------------------------------------------*/
FoamFile
{
    version     2.0;
    format      ascii;
    class       volVectorField;
    location    "200";
    object      U_0;
}
// * * * * * * * * * * * * * * * * * * * * * * * * * * * * * * * * * * * * * //

dimensions      [0 1 -1 0 0 0 0];


internalField   nonuniform List<vector> 
18618
(
(1.021 0.0511013 4.37802e-22)
(0.61874 0.644631 5.41235e-21)
(1.00586 -0.000271841 0)
(0.850695 -0.0572027 -1.51514e-20)
(1.00758 0.00228363 -2.19978e-21)
(0.985337 -0.00762198 -1.24508e-21)
(1.08907 0.0382357 1.91581e-20)
(0.640541 0.651077 -2.14544e-20)
(1.01716 -0.00548598 7.96644e-22)
(1.02315 0.00072281 1.14788e-21)
(1.05763 0.0323151 -4.35717e-22)
(1.00579 -0.000269511 7.10673e-23)
(0.817349 -0.0900085 0)
(1.01323 -0.00208299 -1.62518e-22)
(1.0075 0.00213125 1.79544e-21)
(1.00447 -0.000207648 1.10294e-21)
(1.00747 0.000537434 0)
(0.203784 -3.85569e-05 2.96845e-20)
(1.006 0.000707407 0)
(1.01733 0.00558344 -4.78691e-22)
(0.990458 0.00431149 9.52226e-23)
(1.0104 -0.000934693 1.04034e-22)
(1.00447 -0.000196838 -1.08339e-21)
(1.0011 0.064658 -1.25516e-23)
(1.01076 0.00136356 7.86771e-22)
(1.04593 0.0634928 4.38583e-22)
(1.01524 0.0476306 -1.21086e-21)
(1.00646 0.000953035 2.02637e-22)
(1.00365 -0.000159135 2.85079e-22)
(1.00764 -0.000301769 -8.32014e-22)
(1.01278 0.00190174 0)
(1.03114 0.0303045 0)
(1.02575 0.00777281 0)
(0.993341 -0.00419526 0)
(0.824235 0.0531435 0)
(1.01097 0.00629625 -3.32789e-22)
(1.01695 0.00987457 -7.60883e-22)
(0.922125 0.0419608 0)
(1.01891 0.0102875 2.18763e-21)
(1.00759 -0.000321315 8.5646e-22)
(1.05402 0.242325 -7.61375e-22)
(1.01346 0.0387424 6.67465e-22)
(1.0082 -0.000554643 7.0016e-22)
(0.730104 -0.548 3.70511e-20)
(1.01894 -0.0061967 -6.65933e-22)
(1.04951 0.0120993 -7.16194e-21)
(0.658176 0.636774 1.26791e-20)
(1.0065 -0.000619824 0)
(0.973773 0.0121293 0)
(0.464844 0.09034 -7.90133e-21)
(1.00664 0.00085407 2.1849e-21)
(1.01019 0.00488625 1.31465e-21)
(0.859407 0.160186 -6.20221e-21)
(1.03682 0.234949 1.75444e-21)
(1.00136 -9.37726e-05 -1.07034e-21)
(0.842037 -0.116108 0)
(1.01378 -0.00254061 1.6415e-22)
(1.01653 0.00622727 8.2891e-22)
(1.00132 0.000382784 0)
(1.01809 0.0107119 0)
(1.00799 -0.000566808 6.97183e-22)
(1.00156 -8.81564e-05 -6.83718e-22)
(1.01716 0.00473882 0)
(1.01973 0.00646368 0)
(0.940494 0.00568188 8.49089e-21)
(0.65072 -0.172731 1.26597e-20)
(1.00321 -0.000113854 -3.11666e-22)
(1.06606 0.0473163 -3.7785e-21)
(1.00493 -0.000412314 -3.32739e-23)
(0.825582 0.172353 -2.68044e-21)
(1.05768 0.0321994 5.71053e-21)
(0.999201 -0.018164 -3.20407e-22)
(1.0614 0.0892875 4.8014e-21)
(0.0807075 -0.178473 5.81079e-20)
(1.01989 0.00128004 1.66353e-21)
(1.0723 0.041379 8.45497e-21)
(1.06734 0.112472 1.86442e-22)
(0.467895 0.135108 2.67298e-21)
(1.00478 -0.000384827 0)
(0.604136 0.63315 -1.90567e-20)
(0.401956 -0.0347799 -7.51732e-23)
(0.0849455 -0.0744939 5.18562e-20)
(0.0410092 -0.194592 0)
(1.02199 0.000440617 -1.77908e-21)
(1.02539 0.00796387 0)
(1.0082 -0.000544321 -3.45905e-22)
(0.986115 0.0583039 -5.73908e-23)
(1.0234 0.000726257 1.5267e-21)
(1.01507 0.0396724 1.66785e-21)
(0.164844 -0.0193572 0)
(1.06634 0.0928682 -1.96418e-20)
(0.973824 0.066303 0)
(0.744981 -0.558662 2.52042e-21)
(1.07664 0.108761 -3.09586e-22)
(1.03087 0.0736523 1.09728e-21)
(1.07527 0.0404723 -1.09113e-20)
(1.01753 0.0111518 0)
(0.798456 0.0542741 4.31963e-23)
(1.01324 -0.0019739 1.69011e-22)
(1.00546 -0.000222643 -2.9188e-22)
(1.02551 0.0823242 -1.08022e-21)
(1.01954 0.00604899 -1.5255e-21)
(1.00995 0.112883 0)
(1.03125 0.0308419 -2.91698e-22)
(1.017 2.66314e-05 -2.04041e-23)
(0.956747 0.629021 3.065e-20)
(1.00142 -9.53382e-05 1.63803e-21)
(1.00477 -0.000223574 -1.74672e-22)
(0.950563 0.00676624 0)
(1.00435 -0.000211728 -2.33396e-22)
(0.778873 0.138741 -1.04184e-21)
(1.00516 0.00127642 0)
(1.03924 0.0113593 -5.23332e-21)
(1.00672 0.000279234 0)
(1.00963 0.0049726 -4.34395e-22)
(1.0054 -0.000220945 2.77875e-22)
(1.00286 -8.31025e-05 3.43372e-22)
(1.20824 0.461705 0)
(1.01229 0.00524526 -2.5452e-22)
(1.0419 0.18659 -1.98203e-20)
(0.793373 0.0378501 8.55199e-22)
(1.0382 0.011818 0)
(0.851042 -0.153151 1.07599e-22)
(0.104814 -0.0605767 -7.39372e-20)
(1.02569 0.0566422 6.96007e-23)
(0.953545 0.0176584 6.04163e-21)
(0.99965 0.238666 1.3565e-21)
(0.167399 -0.113164 6.02393e-21)
(1.05502 0.0385403 -1.03591e-20)
(1.1508 0.0987596 1.16462e-20)
(1.12215 0.135528 2.69552e-20)
(1.00506 0.00115014 0)
(-0.0123357 -0.165615 1.12218e-19)
(1.02073 0.0834808 2.44469e-21)
(1.00957 0.00487136 1.41228e-21)
(1.0075 -0.000649829 -3.77968e-22)
(1.0017 0.000192862 -1.22239e-21)
(1.02598 0.00173306 -3.27932e-21)
(0.57462 0.63286 -5.47606e-20)
(1.00207 -7.36015e-05 0)
(1.01345 0.000975918 0)
(1.00172 -5.8439e-05 0)
(1.00155 -8.83448e-05 -6.65785e-22)
(1.01738 0.0106771 -7.57176e-22)
(1.00734 -0.000483215 4.58341e-22)
(1.04685 0.0597144 0)
(1.01675 0.01008 0)
(1.00661 0.000846781 -2.39246e-22)
(0.96743 0.629101 -2.47584e-20)
(1.08187 0.0458085 0)
(1.01386 -0.00262078 -1.63997e-22)
(1.22219 0.448607 -4.15215e-20)
(0.570352 0.636356 5.4936e-20)
(1.00463 -0.000213306 -5.73638e-22)
(1.00368 0.00014276 7.28839e-22)
(0.950889 -0.0107978 5.28529e-22)
(1.00064 0.513082 1.75045e-20)
(0.729144 -0.121813 4.65586e-21)
(0.990813 0.0373554 -1.66259e-22)
(1.00735 -0.000798005 0)
(1.00442 -0.000158898 0)
(0.761456 0.0149712 -1.03884e-20)
(1.02561 0.00177296 0)
(0.967346 0.111719 -3.5392e-21)
(1.00533 -0.000385418 5.0544e-22)
(0.821172 0.00516875 1.55969e-21)
(1.00368 0.000156115 -3.50395e-22)
(1.00207 -7.28699e-05 4.83567e-22)
(0.413682 -0.0320094 4.91001e-20)
(1.03911 0.0103167 0)
(1.02008 0.00126291 0)
(1.00678 -0.000587739 0)
(1.12069 0.141731 -2.79279e-20)
(1.11124 0.0928946 1.70181e-20)
(0.775938 -0.15667 0)
(1.06971 0.0442825 -7.86383e-21)
(1.00303 0.03265 0)
(0.122767 -0.131548 -6.55233e-20)
(1.00662 -0.000534777 0)
(1.00506 -0.000442889 -1.63006e-23)
(1.09985 0.0742365 6.71047e-23)
(1.10963 0.0966862 0)
(1.01083 0.00626372 1.91324e-21)
(1.01032 0.00538157 -4.46879e-23)
(1.01354 0.252794 -2.12859e-21)
(1.00028 -5.28039e-05 -1.03767e-22)
(1.01413 0.00438352 1.58515e-21)
(1.09634 0.0678818 4.15314e-21)
(1.00812 0.0361227 0)
(0.980927 0.0014994 0)
(1.01523 0.0128233 3.5337e-22)
(1.11455 0.0851269 1.48977e-20)
(0.717115 -0.143234 -4.14876e-21)
(1.00205 -6.80101e-05 4.53238e-22)
(0.955151 -0.0179703 2.11029e-21)
(1.00541 -0.00102282 4.86396e-22)
(1.0987 0.0738243 -4.67244e-21)
(0.778119 -0.366816 1.59691e-20)
(1.02164 0.000285393 0)
(0.902473 0.428752 8.12318e-20)
(0.948488 0.0645696 0)
(0.835714 -0.501448 -2.35205e-20)
(1.01891 0.0103836 1.34159e-22)
(1.0502 0.026353 0)
(0.366785 -0.0497337 5.10611e-20)
(-0.298101 -0.311183 5.05296e-20)
(0.489485 0.562602 -1.95111e-20)
(1.24705 0.403228 4.25228e-20)
(1.04349 0.015718 0)
(0.894813 0.422098 -2.88996e-20)
(1.01513 0.0935795 0)
(1.00005 -3.95045e-05 -7.15812e-22)
(1.16278 0.508293 3.31734e-20)
(0.950797 0.432904 7.28296e-21)
(1.01022 0.005397 0)
(1.01057 0.00586943 1.30221e-21)
(0.997158 0.00694483 -1.47176e-21)
(0.354077 -0.0559271 0)
(1.0394 0.0108186 -1.11513e-22)
(1.15235 0.520481 3.16501e-20)
(1.01788 0.0154923 0)
(1.03513 0.0235438 1.74075e-21)
(1.00022 -6.28238e-05 1.07812e-22)
(1.23275 0.180181 1.82379e-20)
(1.03345 0.0343609 7.80094e-22)
(1.03311 0.0314021 -7.57062e-22)
(1.0178 0.0149756 0)
(1.00534 -0.000388848 -5.92389e-25)
(0.797519 -0.00893987 -1.56615e-21)
(0.993795 0.0483179 2.30108e-21)
(0.887586 0.463146 0)
(0.962088 0.106487 -1.17047e-22)
(1.01318 0.000925868 0)
(1.06898 0.0457588 4.15619e-21)
(1.01325 0.00194884 0)
(1.1461 0.0951615 2.24465e-20)
(1.01775 0.0108951 1.32401e-21)
(1.01133 -0.00464073 -3.53924e-22)
(1.01051 0.00580779 1.15655e-21)
(1.05259 0.0502237 -1.06787e-21)
(1.10962 0.0580492 -2.37831e-20)
(1.03095 0.0297312 1.09451e-21)
(1.0341 0.00320576 0)
(1.01338 0.0376335 0)
(1.01183 0.078341 1.32937e-22)
(1.01026 0.00472048 -1.36558e-21)
(0.996653 0.0570719 -3.57383e-22)
(-0.287319 -0.420551 3.35727e-20)
(0.999875 -3.82792e-05 0)
(1.05362 0.0383362 1.6644e-20)
(0.862762 0.175316 5.21113e-21)
(0.987945 0.0221062 -4.31076e-22)
(1.04915 0.0263256 0)
(0.575554 -0.593043 0)
(1.04273 0.0171058 9.22064e-21)
(1.00356 -0.000151464 0)
(1.04227 0.0184704 3.54089e-21)
(0.987305 0.032846 0)
(1.0077 0.000444702 1.20459e-23)
(1.02323 0.089482 1.55834e-22)
(1.22818 0.192871 -3.20279e-20)
(1.04285 0.0178636 -1.04914e-20)
(0.9957 0.113515 0)
(0.47673 0.383358 0)
(0.989853 0.0243349 -2.61548e-22)
(1.0281 0.0175187 0)
(1.10472 0.0517056 -1.03516e-20)
(0.979877 0.00296478 0)
(1.04107 0.0188824 -4.48504e-21)
(1.05654 0.0296983 0)
(1.0721 0.0438993 0)
(1.00716 -0.000737436 -2.60846e-24)
(1.00787 -0.000430743 0)
(1.00647 0.000973823 -2.34449e-22)
(1.00673 -0.000674787 0)
(0.767537 -0.38206 1.7996e-20)
(1.01739 0.00495637 -1.03281e-21)
(1.00673 -0.000670465 3.00453e-22)
(0.330652 -0.0609619 -2.64193e-20)
(1.0078 -0.000432809 -8.43486e-22)
(1.03409 0.023606 1.45505e-21)
(1.00698 -0.000668178 2.40731e-22)
(0.583295 -0.579209 4.3021e-22)
(-0.296091 -0.408566 0)
(1.03298 0.0314607 1.14433e-21)
(0.748066 0.00619031 7.09528e-21)
(1.01655 0.000594298 -6.75609e-22)
(1.04102 0.0555137 0)
(1.01007 -0.000948384 4.85202e-23)
(1.11405 0.0403785 0)
(1.00772 -0.000626697 8.39951e-22)
(1.01939 0.00990955 -2.9884e-21)
(1.0119 0.0013227 0)
(1.01643 0.00113041 1.45706e-21)
(1.02809 0.516544 -2.27674e-21)
(1.00388 -0.000174618 3.09698e-22)
(1.00748 0.000535374 -9.3137e-22)
(1.03761 0.0127555 -3.72708e-21)
(0.772387 -0.375332 2.783e-22)
(1.22865 0.435224 -1.41911e-22)
(0.81185 0.172921 4.38437e-21)
(0.600224 -0.216906 1.63107e-20)
(0.450667 0.384939 0)
(1.09311 0.112544 -6.12061e-22)
(0.988268 0.0427789 -2.1169e-21)
(0.876211 0.390561 -6.51266e-20)
(0.740944 -0.0923436 1.32116e-20)
(1.01036 0.00432537 3.17202e-23)
(1.03832 0.012669 3.89157e-21)
(1.11611 0.088075 -7.95718e-21)
(1.00902 0.0042822 0)
(1.01832 0.000240616 -2.14162e-21)
(1.03313 0.0237709 1.47798e-21)
(1.00806 -0.00053895 8.78024e-22)
(1.08171 0.0422642 -1.25179e-20)
(0.74228 -0.0875654 -1.13447e-20)
(0.857797 0.403156 4.87152e-20)
(0.993393 -0.00359716 1.1595e-21)
(1.02771 0.0168081 -3.11534e-21)
(1.00108 0.00013006 0)
(1.01815 3.63632e-05 0)
(0.943561 -0.0104782 -2.2455e-21)
(1.09595 0.0663377 9.07839e-21)
(0.740584 -0.126775 -4.73191e-22)
(1.02903 0.0172537 -1.88921e-21)
(1.00316 0.00244211 -9.39789e-22)
(0.780895 -0.355351 0)
(1.00693 -0.000723805 0)
(1.08625 0.112472 -1.03205e-20)
(1.01373 0.000836582 0)
(1.00174 -3.92228e-05 -4.38046e-22)
(1.0067 0.00029005 0)
(1.11824 0.0783864 0)
(1.00893 0.00412012 0)
(1.0211 -0.00438053 -7.17306e-22)
(1.02973 0.0172825 -1.45155e-21)
(0.942322 0.087246 0)
(1.01241 -0.00508749 7.47409e-22)
(0.390684 0.438331 -5.26323e-21)
(0.201893 0.116023 3.97273e-20)
(1.00804 -0.000796054 1.24708e-21)
(0.290998 -0.0733841 2.70298e-20)
(1.01949 -0.00506301 0)
(1.00612 -0.000319735 0)
(1.00522 -0.000470745 0)
(1.01895 0.000248241 1.38876e-21)
(0.999814 0.000469926 3.3792e-22)
(0.998986 -9.19732e-06 0)
(0.786229 0.144067 -9.29736e-21)
(1.0436 0.0165226 0)
(0.754679 -0.222149 6.15433e-21)
(0.989012 0.0248076 -3.00665e-21)
(1.03384 0.023953 0)
(1.02259 0.00119832 2.09251e-21)
(0.791427 -0.168144 7.27072e-21)
(1.0935 0.214474 3.36252e-20)
(1.00309 -0.000127759 -3.82432e-22)
(1.19601 0.302455 1.35708e-20)
(1.00717 -0.000735491 0)
(1.00902 0.0513759 -9.9462e-23)
(0.733892 -0.184968 -3.18473e-21)
(0.563638 0.616259 -8.76767e-21)
(1.21699 0.221587 -2.74287e-20)
(1.00006 0.00025244 -2.07247e-21)
(0.55669 0.612958 0)
(0.792048 -0.284313 2.07815e-20)
(1.01323 0.000516011 0)
(1.05635 0.0306943 -4.69489e-21)
(0.998457 -0.0153022 -4.61244e-22)
(1.00737 -0.00046947 5.05849e-22)
(1.00239 0.000158145 -2.18053e-21)
(1.02538 0.00191702 2.69364e-21)
(0.784361 0.146476 -3.18776e-21)
(0.763187 -0.22766 -1.27267e-20)
(1.01072 -0.00103505 -7.73595e-23)
(1.01046 0.00405633 -1.03031e-21)
(0.769204 0.029184 -2.36828e-21)
(1.00677 0.00113808 -2.52814e-22)
(1.00358 0.0924787 -4.0486e-22)
(0.946397 0.056962 0)
(1.01264 0.0350585 0)
(1.03108 0.0302473 0)
(0.657292 0.0835123 1.07913e-19)
(0.864276 0.237954 5.37954e-21)
(1.00599 0.000700296 -1.00355e-21)
(1.03641 0.0149533 -6.40678e-23)
(1.00635 -0.000437268 -3.47655e-22)
(1.19374 0.293617 1.38113e-20)
(1.00424 -0.00014985 0)
(1.02265 0.00133632 2.16979e-21)
(1.00797 -0.000888134 -1.60579e-22)
(1.00746 0.068879 2.1799e-21)
(1.04913 0.0109168 7.12693e-21)
(1.00791 -0.000897579 1.60384e-22)
(0.317132 -0.069461 -8.57636e-20)
(0.909056 -0.113546 2.36874e-20)
(1.05083 0.175124 2.39619e-20)
(0.55292 0.603965 -1.07786e-20)
(1.00516 -0.000394867 -4.94946e-25)
(1.01715 0.0209306 0)
(1.03565 0.0140808 0)
(1.09245 0.144962 7.0768e-21)
(0.992806 0.098877 -6.42203e-22)
(1.26403 0.387011 0)
(1.00619 -0.000459522 -3.18324e-25)
(0.666316 0.0643137 -4.91398e-20)
(1.01737 0.0146624 0)
(1.04469 0.0503769 0)
(1.00137 -9.80517e-05 0)
(1.04755 0.0304029 -1.30899e-21)
(1.00933 0.0046091 -1.77398e-21)
(0.672943 0.110925 4.20303e-20)
(0.69204 -0.432478 1.38822e-20)
(0.945341 0.000690066 -6.62493e-21)
(1.01157 0.00294645 7.21599e-22)
(1.22611 0.228485 1.09226e-21)
(1.00629 0.000382821 0)
(1.03808 0.0406889 -7.04445e-21)
(1.02834 0.00220241 -3.40722e-21)
(1.10936 0.118764 -2.49045e-21)
(1.02504 0.00190292 -1.27597e-21)
(1.03863 0.0198048 -2.00603e-21)
(1.0187 0.00473335 9.01685e-22)
(0.780213 -0.0192803 0)
(0.956647 0.290624 5.46826e-21)
(1.00468 -0.000238433 1.09256e-22)
(1.01649 0.0208171 0)
(0.953937 0.015356 -2.14081e-21)
(1.00161 -9.83886e-05 0)
(1.05236 0.0324378 3.7942e-21)
(1.00824 -0.000711327 0)
(1.0064 0.00110985 -9.83015e-22)
(1.01731 0.0141377 0)
(0.981462 0.0606154 3.28437e-22)
(1.04587 0.0306267 2.08944e-21)
(1.02888 0.00199399 3.95014e-21)
(1.12924 0.129534 5.15982e-21)
(1.00925 0.0045375 8.26479e-22)
(0.97415 0.582585 -1.94337e-20)
(1.00565 0.000530065 2.07827e-22)
(0.924025 0.0456077 0)
(0.706838 -0.44195 -2.10856e-20)
(1.01714 0.00205578 0)
(1.01675 0.00228922 0)
(0.212381 -0.0987484 0)
(1.03737 0.0396847 2.45389e-21)
(0.641968 -0.257339 1.45331e-20)
(1.08694 0.546541 2.25176e-20)
(1.02662 0.0160217 -1.55276e-21)
(1.02759 0.0425989 2.72535e-21)
(1.00556 0.000533236 2.09672e-22)
(0.813312 0.679014 -1.48551e-20)
(0.931013 -0.123676 4.44627e-20)
(1.03646 0.0205424 -3.54147e-21)
(1.08608 0.209951 -1.00364e-20)
(0.432629 0.502242 1.29905e-22)
(1.01131 0.00140265 -6.23013e-22)
(0.74006 -0.0591081 1.71117e-20)
(1.004 -0.00013599 0)
(0.0172285 -0.142721 -2.86285e-20)
(0.958733 -0.0797274 -3.89403e-20)
(1.05039 0.025194 0)
(0.40412 0.560977 6.79571e-20)
(1.00761 -0.000582345 3.78014e-22)
(1.32493 0.201497 -7.14791e-20)
(1.08174 0.117652 -9.63703e-21)
(0.873064 0.407341 -1.03128e-20)
(1.04653 0.0128036 1.63362e-21)
(0.773224 0.0691255 1.43165e-21)
(1.01051 0.00392155 -1.27044e-21)
(1.00694 -0.000590056 -8.28996e-22)
(1.00622 0.000784861 0)
(0.930521 0.0197505 -4.53783e-21)
(1.04417 0.100326 -1.2895e-20)
(1.01219 0.00172612 -5.96922e-22)
(1.00501 -0.000397434 0)
(1.00518 -0.0003987 5.45591e-22)
(0.399651 0.566961 -7.42516e-20)
(1.07481 0.567754 -5.86514e-20)
(1.01369 0.00459962 -1.55255e-21)
(0.273226 0.0600613 4.5982e-20)
(1.31127 0.203341 0)
(1.05189 0.0245899 2.08315e-21)
(1.01178 0.00438064 -2.87547e-22)
(1.00259 -0.000116058 2.84277e-22)
(0.740806 -0.0783744 -1.52066e-20)
(1.0167 0.00951059 -4.05482e-22)
(1.0883 0.0405593 -1.25452e-20)
(0.99732 -0.0102108 6.76263e-23)
(0.897846 -0.104596 -5.3907e-21)
(1.13704 0.271745 0)
(1.00693 -0.000598369 0)
(1.00792 0.00225467 8.10225e-22)
(1.02598 0.0348886 4.01665e-23)
(1.08499 0.125865 0)
(1.0014 -6.65863e-05 -2.06758e-22)
(-0.27634 -0.304296 -6.27111e-20)
(1.01127 0.0040417 2.31074e-22)
(1.01292 -0.00203512 -1.56977e-22)
(1.02766 0.0109041 2.80606e-21)
(0.919935 0.457462 4.29171e-20)
(1.00262 0.000329966 -2.77361e-23)
(0.820962 -0.00540723 -5.54328e-21)
(1.02122 0.00761005 0)
(1.02444 0.00199699 1.41146e-21)
(1.0326 0.0344261 -8.15627e-22)
(1.00163 -9.26865e-05 7.58529e-22)
(1.0006 8.72728e-05 1.08509e-21)
(1.00154 -9.72242e-05 0)
(0.791875 0.0191449 -7.29341e-21)
(0.770313 0.123922 1.16954e-21)
(1.12331 0.275326 0)
(0.996631 0.00565113 0)
(1.02961 0.0163115 -4.4899e-21)
(1.00502 -0.000403587 -1.00042e-24)
(1.02181 0.00389033 -9.66494e-22)
(0.995025 -0.0645529 0)
(1.01967 0.000226099 -1.85923e-21)
(0.816341 0.00355196 0)
(1.00877 0.000170043 0)
(0.666725 -0.149271 -4.42941e-21)
(1.01059 0.0103324 4.31304e-21)
(1.0006 -6.26741e-05 5.41814e-22)
(0.988989 0.0191967 0)
(0.458413 0.508498 0)
(1.04148 0.0523914 0)
(1.00509 -0.000306571 0)
(1.02708 0.0111121 1.43166e-21)
(0.780107 0.0739262 -1.22762e-21)
(0.785252 -0.121657 0)
(1.00653 0.000337485 -9.52388e-22)
(1.13838 0.10855 0)
(1.02152 0.0129342 -2.6699e-21)
(1.01411 -0.00183355 -6.76839e-23)
(1.01191 0.0046794 3.04288e-22)
(0.607987 0.628564 0)
(0.936711 0.121982 -1.6761e-21)
(1.00239 0.00017806 1.18418e-21)
(0.443833 0.115142 -5.92854e-20)
(0.69155 0.110817 0)
(0.990913 -0.0961144 1.84674e-20)
(0.742856 -0.218285 5.53451e-21)
(1.01056 0.018704 1.14332e-21)
(0.79268 -0.550276 8.56937e-21)
(1.1302 0.0758582 -3.61713e-20)
(1.04028 0.0196844 4.17474e-21)
(0.981001 -0.172279 0)
(0.902962 -0.139281 0)
(0.948444 0.033958 4.2948e-21)
(1.12831 0.124846 1.95548e-20)
(1.11885 0.0822486 -4.84986e-22)
(1.01068 0.00368818 2.4885e-21)
(1.04091 0.0085379 -1.01422e-22)
(1.12818 0.183489 2.78092e-20)
(1.12801 0.17979 -2.46647e-20)
(1.00744 0.000887921 0)
(1.01333 -0.00155991 -7.09274e-22)
(0.944401 0.0171096 -1.0109e-20)
(1.04459 0.0517053 0)
(1.02635 0.0451336 -9.50454e-22)
(1.00017 8.08105e-05 0)
(0.748036 -0.234074 1.8268e-22)
(1.02917 0.0151254 0)
(0.942406 -0.0217917 4.93203e-22)
(1.05394 0.0214739 0)
(1.0216 0.000793042 1.48058e-22)
(0.99785 0.215642 -7.14323e-21)
(1.02093 0.00748935 -2.02768e-23)
(1.04607 0.0142262 -3.16081e-21)
(1.01408 0.412092 3.08654e-20)
(1.02476 0.00203264 -4.26155e-21)
(0.634869 0.0810657 -1.15257e-19)
(1.0784 0.20409 0)
(0.75591 0.0967924 0)
(1.08539 0.117619 1.07346e-20)
(1.02542 0.0329205 -2.20391e-22)
(-0.341542 -0.264306 2.19206e-20)
(1.01522 0.0130257 -8.96014e-22)
(1.0096 0.00282051 0)
(0.991806 0.0664144 4.37375e-22)
(1.00935 -0.00157582 4.82118e-23)
(1.00727 -0.000497263 2.22602e-22)
(1.04039 0.570304 0)
(1.0536 -0.0167889 0)
(1.04682 0.0138768 0)
(1.01924 0.000636846 2.18508e-21)
(1.04101 0.0195939 2.64681e-21)
(1.01049 -0.00335005 3.21632e-22)
(1.0041 -0.000128863 0)
(1.01972 0.0922338 0)
(1.01186 0.0204053 1.31905e-21)
(-0.00489748 -0.15269 -5.57714e-20)
(1.00851 0.00896809 0)
(0.810908 0.0309725 -1.31021e-21)
(1.01626 0.00742026 1.72506e-21)
(0.40136 0.0958344 -2.07441e-20)
(1.00146 -5.33577e-05 0)
(1.01561 -0.00331536 3.36382e-23)
(0.712871 0.17221 4.3061e-21)
(1.01084 0.0113758 -3.17068e-21)
(0.77931 0.0364568 7.0124e-21)
(1.00302 -0.000104479 -1.83338e-22)
(0.908551 0.15654 5.86333e-21)
(1.04159 0.02646 1.31645e-21)
(1.03923 0.0206259 -6.23645e-21)
(1.05261 0.0230975 -9.97131e-22)
(1.05431 0.0505843 7.36381e-22)
(1.01182 -0.000153245 0)
(1.009 0.00255405 -6.25026e-22)
(1.00556 -0.000534514 6.67365e-23)
(1.01438 -0.00198565 7.58243e-23)
(1.18784 0.160579 4.39412e-20)
(1.03241 -0.00544008 -1.79121e-22)
(1.00788 -0.000572479 7.12026e-22)
(1.2593 0.394218 4.53744e-20)
(0.98024 0.438171 2.43855e-20)
(1.01769 0.0062459 1.63238e-21)
(1.13675 0.519782 0)
(1.05391 0.0218048 -3.6891e-21)
(1.01694 0.0105416 0)
(1.03522 0.097593 -7.97913e-21)
(1.04947 0.00925538 -9.35077e-23)
(1.05859 0.0384482 1.43599e-20)
(0.814743 0.68689 2.19141e-20)
(1.03706 0.0183732 -3.66461e-21)
(1.10613 0.0333711 -6.23149e-22)
(1.05803 0.0284476 1.08376e-20)
(0.570043 0.580467 -1.93936e-21)
(0.777594 -0.512508 -3.1953e-20)
(1.00724 -0.000498879 -7.02415e-22)
(1.0049 -0.000391674 -7.50009e-22)
(1.01261 0.00189796 6.5317e-22)
(0.932776 -0.26871 -7.89361e-21)
(1.01911 0.00472079 -1.68499e-21)
(0.157049 0.055167 -6.9209e-20)
(1.01686 0.0138286 -1.79008e-23)
(1.00361 -0.000159457 -3.02212e-22)
(1.01236 -2.46745e-05 9.25975e-22)
(1.00168 -8.31155e-05 -6.23133e-22)
(1.00303 -0.000118858 0)
(1.00175 -8.4966e-05 -6.86288e-22)
(1.0199 0.000196185 -1.95165e-21)
(1.01363 0.110809 -1.72334e-22)
(0.840064 -0.0932246 -1.67106e-20)
(1.00221 -0.00010179 0)
(1.01578 0.00714852 -2.82375e-21)
(0.666682 -0.191583 0)
(1.01197 0.00753123 -2.04217e-22)
(1.00105 -7.41578e-05 8.66049e-23)
(0.578677 0.573895 0)
(1.0111 0.0578025 -1.99049e-22)
(1.01896 0.000515013 -2.34641e-21)
(1.01226 0.0047769 3.82768e-22)
(1.00623 0.000770089 2.41341e-22)
(0.889491 -0.085679 -2.0167e-21)
(1.03704 0.0138722 0)
(0.745412 -0.0103625 -2.1673e-21)
(1.01 0.0175323 -1.89826e-21)
(1.03173 0.00584713 -2.69781e-21)
(1.10568 0.0616931 0)
(1.06215 0.199088 0)
(1.04122 0.0093972 -2.40327e-22)
(1.1966 0.174445 0)
(0.828708 0.0709046 1.08548e-21)
(0.632476 0.0654228 3.63699e-22)
(1.06539 0.214607 9.73606e-21)
(1.01402 0.00649591 -2.69595e-22)
(1.03988 0.0928929 -1.09985e-21)
(1.12351 0.532117 3.60071e-21)
(1.00187 -0.000117162 -4.11978e-22)
(1.03093 0.102452 8.79356e-22)
(1.00697 -0.000665481 0)
(1.03159 0.0342748 -9.45211e-22)
(0.962032 0.0579349 1.74129e-21)
(1.15672 0.50707 -3.70556e-20)
(1.00491 -0.000401376 6.09719e-22)
(-0.202627 -0.259887 1.85147e-20)
(1.027 0.0166511 1.63512e-21)
(0.818774 -0.0143196 0)
(1.01903 0.00132005 -1.76506e-21)
(1.14194 0.0996843 2.22707e-20)
(1.0358 0.100164 0)
(0.940125 0.109826 0)
(-0.224361 -0.287012 -1.35451e-19)
(0.940004 0.277216 6.17675e-21)
(1.0066 -0.000526154 1.0349e-22)
(0.561806 0.575859 -1.5755e-20)
(1.01194 -0.000495752 0)
(0.281055 -0.0812666 2.81631e-20)
(1.03414 0.0152478 2.92045e-21)
(0.986255 0.0568405 2.51978e-21)
(1.04759 0.00790905 0)
(1.04631 0.0152743 8.13089e-22)
(1.04622 0.0286898 6.53441e-21)
(1.01494 0.0046663 1.03719e-21)
(1.01676 0.0133713 -2.74926e-23)
(1.01763 5.87901e-05 -1.88027e-21)
(1.00126 -4.56863e-05 -6.45489e-22)
(1.01316 -0.001607 0)
(1.0026 -0.000119871 -2.81122e-22)
(1.01473 0.0121176 0)
(1.03374 0.0322281 -2.10421e-22)
(1.00647 -0.000475878 -3.02199e-22)
(1.00679 -0.000599987 0)
(0.876454 -0.0673932 -2.44142e-21)
(1.00181 -6.39203e-05 3.27208e-22)
(0.997782 0.0911597 -6.79232e-22)
(1.0017 0.000165529 0)
(1.0514 0.0337064 -1.97002e-21)
(1.00648 0.000334079 0)
(1.05117 0.0680901 -4.01408e-21)
(1.00624 -0.000398858 -1.84676e-22)
(0.931382 -0.0937339 0)
(1.01013 -0.00935059 1.20119e-21)
(0.794567 -0.374886 -1.99296e-20)
(0.968781 -0.00745408 0)
(1.03229 0.00633063 0)
(1.00295 -4.95733e-05 -5.28839e-24)
(1.00252 9.58171e-05 0)
(1.01288 -0.00157246 1.16514e-23)
(1.03017 0.0168373 7.58685e-21)
(1.01414 0.00640949 -1.61947e-22)
(1.02497 0.00665017 0)
(0.926601 0.645279 2.79757e-20)
(1.00769 0.000447071 0)
(0.306892 0.201196 -5.45131e-21)
(0.798345 0.117598 -3.14968e-20)
(0.904407 0.146575 0)
(1.00629 -0.00036359 1.6423e-22)
(1.00257 0.000101888 -1.14114e-21)
(0.97752 0.524492 -2.05631e-21)
(1.06342 0.031783 1.11836e-20)
(1.02642 -0.185388 0)
(1.07882 0.223953 5.81437e-21)
(0.736108 -0.207701 -4.12296e-21)
(-0.068106 -0.268322 0)
(1.10817 0.105395 -6.36053e-21)
(1.02653 0.0377109 0)
(0.351539 0.251069 0)
(1.01293 0.00523807 2.95511e-22)
(0.999062 1.66033e-05 0)
(1.00522 -0.000323174 -1.24344e-22)
(1.0465 0.141308 -3.69305e-23)
(1.01196 0.00750303 0)
(1.04575 0.00850266 -5.83259e-21)
(1.04856 0.104645 -3.2444e-22)
(1.0129 0.00409833 1.13924e-21)
(0.931679 -0.295933 7.95972e-21)
(1.00921 0.00263804 2.05596e-23)
(0.942627 0.00416885 2.16652e-21)
(1.04649 0.169581 -2.48435e-21)
(0.780735 -0.37888 1.96006e-20)
(1.20097 0.276552 3.00008e-20)
(0.943007 0.104756 1.89722e-21)
(0.748527 -0.031789 9.53927e-22)
(1.03337 0.0324593 -5.10995e-22)
(1.01267 0.0051837 -8.87395e-22)
(1.01166 -0.000177193 5.92736e-22)
(1.01845 0.00842867 0)
(0.575362 0.110021 -4.48337e-20)
(0.995763 0.566837 0)
(1.00086 -2.18547e-05 3.01495e-22)
(1.00646 0.000235277 -4.51351e-22)
(0.761649 -0.0725441 1.47157e-21)
(1.0204 0.0586977 -3.14493e-22)
(0.741577 -0.135627 -7.29124e-21)
(1.02939 0.0134817 -1.15685e-21)
(0.963408 0.00450591 0)
(1.04732 0.0287595 7.7629e-21)
(0.862346 0.169248 0)
(1.04147 0.00798404 9.52287e-21)
(1.00184 -0.000119874 -9.80936e-22)
(1.00834 -0.000983731 0)
(1.00702 0.000455292 0)
(1.01035 0.00441578 0)
(1.01393 0.0060364 7.16464e-22)
(1.04107 0.00725984 -8.98345e-21)
(0.165706 -0.118623 -6.21028e-20)
(0.555408 0.0885904 0)
(1.0019 -0.000120545 0)
(-0.203862 -0.283244 9.44237e-20)
(1.01335 -0.00176341 -9.84725e-22)
(-0.339613 -0.279703 -2.06094e-20)
(1.21321 0.268529 -1.29845e-20)
(0.786423 -0.334335 -7.27925e-21)
(1.00837 -0.00096911 0)
(1.03244 0.00514057 -7.39295e-22)
(0.564242 0.591583 0)
(1.00696 -0.000739767 -5.17314e-22)
(0.82614 -0.330908 1.05488e-21)
(1.02268 0.000985164 -2.60634e-21)
(1.01269 -0.00194218 0)
(1.03185 0.0318871 -1.19391e-21)
(1.0009 -4.12337e-08 8.72388e-22)
(0.646402 0.636976 -3.2484e-20)
(1.02266 0.00945172 0)
(1.00781 -0.000739907 -1.15607e-24)
(1.04071 0.132238 -2.38474e-22)
(1.0229 0.00101551 -4.33876e-24)
(1.09337 0.0612893 8.77017e-21)
(1.01407 0.00586137 -7.15163e-22)
(0.398493 0.421418 -3.02747e-20)
(1.00391 -0.000156071 0)
(1.01486 0.0124758 8.57989e-22)
(1.0205 0.00551559 -1.58625e-21)
(1.03771 0.0136567 0)
(1.08331 0.0484038 9.49599e-21)
(1.06693 0.0286253 0)
(1.05271 0.0236525 4.39156e-21)
(1.03975 0.0220953 2.2846e-21)
(0.722471 0.205377 -7.7708e-22)
(1.05415 0.0419955 -6.42063e-21)
(1.00671 -0.000417478 0)
(1.0143 0.0106089 0)
(1.00646 0.000246505 1.54387e-21)
(1.02083 0.010755 1.88211e-21)
(1.00897 -0.0118495 1.94453e-21)
(1.04404 0.0856601 0)
(0.602887 0.040961 5.2923e-20)
(1.01853 0.0105378 6.3583e-22)
(1.02108 0.000464326 -2.48084e-21)
(0.876749 -0.0133923 -8.33323e-22)
(1.01141 0.00433436 -4.59581e-22)
(-0.200166 -0.262452 1.84776e-20)
(1.01876 0.125062 0)
(1.00686 -0.000451889 -3.76491e-23)
(1.01578 0.0119879 -1.19158e-22)
(0.956772 0.403228 -1.79699e-20)
(1.01317 0.00144654 0)
(1.0578 0.035504 -1.36732e-20)
(1.0083 0.00369789 -4.55661e-22)
(1.01066 0.00129994 -7.15447e-22)
(1.02971 0.0154631 0)
(1.01618 0.0182138 -5.38884e-22)
(0.667828 0.603825 3.57976e-20)
(1.03627 0.0398717 4.4478e-21)
(1.01144 0.0342901 0)
(1.01634 0.0130743 1.6667e-22)
(1.04519 0.378786 1.68475e-20)
(1.18886 0.188566 -2.62407e-20)
(1.00377 -0.0121104 3.722e-22)
(1.01604 0.00900039 1.06026e-21)
(0.745394 -0.118528 2.93902e-21)
(1.01737 0.00576412 1.03664e-21)
(0.763715 -0.425912 1.4128e-20)
(1.01245 0.000125619 0)
(1.01889 0.010653 0)
(0.720042 0.180367 3.92977e-22)
(1.03487 0.0144501 0)
(1.07872 0.334306 -2.17281e-20)
(1.03861 0.0732428 0)
(0.903673 0.655983 0)
(1.01905 0.00123229 -3.08453e-23)
(1.00257 -9.31425e-05 3.72782e-22)
(1.00748 0.000418211 1.25449e-23)
(1.05657 0.0385431 3.39037e-23)
(0.999836 -5.58082e-05 7.78252e-22)
(1.03075 0.00599362 0)
(0.845381 -0.239914 0)
(0.40998 0.460602 3.21913e-20)
(1.02087 0.0170829 -6.62149e-23)
(1.00324 -0.0183142 8.37914e-22)
(0.727942 -0.260985 0)
(0.585031 0.265253 -8.13911e-22)
(0.879568 -0.208747 1.87748e-20)
(1.14321 0.103122 0)
(1.05178 -0.0158641 4.13156e-22)
(1.00755 -0.000550242 0)
(0.873359 -0.278641 2.04062e-21)
(1.01297 -0.00206345 -4.36077e-22)
(1.03382 0.203315 0)
(1.0359 0.0699316 2.93144e-21)
(0.815198 -0.320883 5.88041e-21)
(1.00709 -0.000751659 8.04681e-22)
(1.02071 0.0107814 -2.16163e-21)
(1.01121 -0.000303283 -6.09574e-22)
(1.00857 0.000218402 -1.04565e-21)
(0.7547 -0.1293 0)
(1.01089 0.0202396 4.47093e-22)
(1.17745 0.020855 4.94836e-22)
(1.00448 0.000525893 9.62703e-22)
(1.02106 0.0564141 -2.50615e-21)
(0.678993 -0.352419 -2.33397e-21)
(1.01624 0.0196798 6.71518e-23)
(1.00674 0.0010808 2.60917e-22)
(1.01205 0.0042346 -8.19518e-22)
(0.738815 0.15994 -4.86217e-21)
(0.680576 0.0676464 9.73684e-22)
(1.05159 0.0742195 -2.87453e-20)
(1.00991 0.163342 4.70016e-21)
(1.01626 0.00937009 2.90804e-22)
(0.671878 -0.370094 1.48333e-21)
(1.01624 0.0126489 5.18812e-23)
(0.994991 -0.00829524 0)
(0.975702 0.00616905 0)
(1.00188 0.0772272 -3.46327e-21)
(1.05532 0.164991 6.10186e-21)
(0.974463 0.0920632 4.26478e-21)
(0.774525 -0.0472739 1.62354e-22)
(0.967711 -0.0109759 -8.16789e-22)
(1.00145 -4.55671e-05 -1.00467e-22)
(1.00934 0.131948 0)
(0.578059 0.0790834 6.43493e-20)
(0.967183 0.369833 1.02656e-20)
(-0.270408 -0.443779 0)
(0.716715 -0.135649 0)
(0.865806 -0.148994 -1.70471e-20)
(0.975469 0.0801851 3.4931e-21)
(0.93907 -0.0354821 -4.83385e-21)
(0.762753 -0.421829 -8.02675e-21)
(1.01642 0.0186161 -6.71762e-23)
(1.06268 0.0263997 -3.45417e-21)
(1.01908 0.0160684 -3.51751e-22)
(0.851083 -0.212763 1.57878e-20)
(0.712217 0.133146 -7.04848e-21)
(0.676587 0.669955 5.17072e-20)
(1.0555 0.0128906 -4.69622e-21)
(1.04765 -0.0225406 -4.25316e-22)
(1.00178 -6.49041e-05 2.5492e-22)
(1.01497 0.0126397 -4.83284e-22)
(1.00854 0.000207804 0)
(1.04042 0.0390658 0)
(1.01352 0.00147695 8.38632e-22)
(0.973399 0.21477 -1.21426e-21)
(1.02119 0.0170674 -3.24116e-22)
(0.462352 -0.437511 -3.25895e-20)
(1.02592 0.00120257 4.92817e-23)
(1.00624 0.000727465 0)
(1.01472 0.0119714 5.32992e-22)
(0.87573 0.668059 0)
(1.04695 0.0519075 0)
(1.058 0.0276838 -6.78463e-21)
(1.03813 0.388779 -2.56912e-20)
(1.01862 0.015753 8.0579e-23)
(0.840845 0.0489312 8.04668e-22)
(1.00675 0.000854532 0)
(0.984738 -0.0115815 6.29261e-22)
(1.0157 0.0176312 -2.96752e-23)
(1.00873 0.000345855 3.58841e-22)
(1.00665 2.71655e-05 -1.1592e-21)
(1.02227 0.0272119 -3.51245e-22)
(0.701711 -0.270279 1.06013e-21)
(1.00778 -0.000563636 0)
(1.01485 -0.00234707 0)
(0.776402 0.431721 5.98698e-20)
(-0.0498492 -0.214049 -4.47719e-20)
(0.984988 -0.0213791 9.93159e-22)
(1.0371 0.0145462 1.77012e-21)
(1.01443 0.0108221 0)
(0.386524 0.508523 -5.9701e-21)
(1.00262 -0.000103887 0)
(1.04992 0.0104939 0)
(0.734327 -0.161922 0)
(1.0146 0.0117469 1.12011e-21)
(-0.22985 -0.44468 0)