/*--------------------------------*- C++ -*----------------------------------*\
| =========                 |                                                 |
| \\      /  F ield         | OpenFOAM: The Open Source CFD Toolbox           |
|  \\    /   O peration     | Version:  v2012                                 |
|   \\  /    A nd           | Website:  www.openfoam.com                      |
|    \\/     M anipulation  |                                                 |
\*---------------------------------------------------------------------------*/
FoamFile
{
    version     2.0;
    format      ascii;
    class       volScalarField;
    location    "100";
    object      ddt0(k);
}
// * * * * * * * * * * * * * * * * * * * * * * * * * * * * * * * * * * * * * //

dimensions      [0 2 -3 0 0 0 0];


internalField   nonuniform List<scalar> 
18618
(
0.00136898
-0.0713003
-9.35932e-09
-0.00481397
3.7291e-09
-0.000430528
2.11487e-07
-0.058914
-4.00622e-06
2.28242e-08
1.81771e-06
9.45469e-09
-0.00607007
-3.52795e-07
-5.71941e-09
2.27418e-08
5.99217e-09
0.0090579
-5.4402e-08
-1.39613e-06
0.000489854
-3.34043e-07
2.03474e-08
2.20501e-06
-2.02506e-08
-9.51715e-06
0.000919753
-7.19062e-08
8.74123e-09
-8.15666e-08
5.36543e-08
-1.17666e-06
3.20321e-08
1.09177e-06
-7.10263e-05
1.56211e-08
-2.97741e-08
-0.00247834
-8.14639e-07
-8.99834e-08
1.9386e-05
0.000586208
9.37382e-08
0.00114096
-3.68143e-06
3.15724e-08
-0.0598808
-7.18135e-08
4.33102e-05
0.0186433
-7.20947e-08
1.94176e-07
0.0099928
-9.79508e-05
2.24456e-08
-0.0274845
-1.86959e-06
-6.70453e-07
2.391e-05
-1.93231e-06
-1.21086e-07
-7.3621e-08
-2.21574e-06
-4.65198e-08
2.25193e-05
0.00851945
-3.13821e-07
1.48669e-06
-3.76774e-08
-0.010092
-1.39913e-07
-0.0029289
-2.06914e-06
-0.0122905
2.47578e-07
-1.99987e-06
-1.13643e-05
-3.44811e-05
-3.36281e-08
0.036755
0.00491258
0.0117402
-0.0113568
8.14797e-09
3.66057e-08
9.34302e-08
3.57685e-06
2.58142e-08
-1.50696e-06
0.00805553
-6.99973e-06
-0.000200103
0.0109466
-1.63893e-05
0.00302926
-2.74826e-06
-6.2079e-08
-0.00310747
-5.68935e-07
1.60846e-08
0.00286704
-1.97039e-08
-3.00043e-05
-1.19481e-06
3.02645e-08
0.0123203
1.50272e-08
2.72627e-08
-7.85224e-05
-4.82223e-08
-0.0122923
5.24135e-09
9.4239e-08
7.236e-08
-4.12612e-08
1.50364e-08
-4.05041e-07
0.00721433
4.51984e-08
-2.30716e-05
-0.00236831
1.18601e-07
-0.0291932
0.00979984
0.00181535
0.000195544
-0.00011999
-0.00488463
-6.04841e-07
-4.65035e-06
-7.49304e-06
3.83056e-09
0.0211361
-2.74726e-05
-5.2924e-08
-1.19563e-07
-1.31838e-08
2.72061e-08
-0.0840438
-3.13579e-07
-2.2523e-07
-2.19258e-07
-5.73913e-08
-5.57017e-08
7.99358e-08
-9.49208e-06
-1.72668e-08
-6.80477e-08
0.011266
-2.25725e-06
-1.93164e-06
0.0116526
-0.0872183
2.38528e-08
9.51059e-09
-0.000905177
0.000143698
-0.00724771
7.07504e-06
-1.15916e-07
-2.92118e-07
0.00240831
2.74218e-08
-3.08e-05
-7.28654e-09
-0.00242611
9.11574e-09
-3.88971e-07
0.00569714
2.91638e-08
1.25838e-07
-5.40826e-08
1.59895e-06
8.33055e-06
-0.00792337
2.67601e-06
0.000160888
-0.00332342
-4.68467e-08
-4.22729e-08
2.39778e-06
9.15975e-06
4.35196e-08
6.34213e-08
-0.000138344
-5.69328e-08
-8.51791e-07
2.61131e-06
0.000197299
-0.000762431
1.9155e-07
1.76619e-06
-0.00169361
-3.39548e-07
0.000231795
-1.60631e-05
3.53613e-06
-0.00708511
4.89776e-08
0.0400125
0.000158413
-0.000109131
-1.55287e-06
7.54234e-07
0.00017729
0.00364329
0.035095
0.00968297
1.37481e-07
0.0487302
0.000118773
-3.35305e-08
0.0122289
5.94702e-05
7.20472e-08
4.6435e-08
-5.73183e-05
-0.000165493
7.2696e-08
0.0245741
2.05956e-07
1.42628e-07
-7.77534e-08
-2.79774e-05
-5.17967e-06
-1.87053e-06
2.16138e-07
-1.59167e-08
-0.000249415
6.97623e-06
0.0434081
-1.81886e-05
-4.40322e-08
3.17192e-06
4.4678e-08
-7.14243e-06
-2.12477e-06
-2.76845e-05
5.75617e-08
0.00244874
1.85222e-06
-2.0206e-06
-1.11965e-08
-8.80137e-07
0.00240554
2.55151e-07
2.74999e-06
-0.0499388
-1.66435e-08
-1.13285e-06
0.0108249
0.000175557
1.06615e-06
0.0331346
5.26212e-08
2.81754e-08
-5.57286e-08
1.37347e-05
3.92284e-08
1.25321e-06
-1.16996e-05
1.18942e-09
-3.20466e-05
-0.0778609
-6.06593e-06
-2.18241e-07
-8.07466e-08
5.13823e-05
-5.63401e-08
-8.65908e-07
7.18817e-07
-9.59149e-08
-1.02943e-07
-7.2789e-08
-8.88447e-08
0.00969475
5.22091e-06
-8.13429e-08
-0.0031725
-1.10099e-07
3.41486e-07
-8.72901e-08
0.0311908
-0.0414588
-2.52444e-06
0.00442425
-1.12549e-06
-6.77367e-06
-2.62147e-07
-0.000303745
-1.19718e-07
-2.80412e-07
-4.05033e-08
-9.65955e-07
0.00033212
9.11489e-09
1.548e-08
6.19207e-08
1.30742e-05
0.00570903
-0.00806469
0.0107336
-0.0548817
5.23687e-06
4.11316e-06
0.0372482
0.000831137
3.23039e-07
9.75547e-08
7.26725e-06
-2.70499e-08
4.69037e-08
-5.80527e-07
-1.17814e-07
-3.25291e-07
0.000802171
0.0436718
0.000298978
-1.44671e-07
7.69052e-09
-3.66653e-08
0.000222012
6.91222e-07
0.00024083
2.4029e-08
9.76264e-06
-0.0121523
-9.8684e-08
6.71975e-06
4.13416e-07
-4.39178e-07
6.88013e-08
-9.11939e-06
-2.65051e-08
6.59679e-07
6.27321e-08
-4.80569e-05
-1.73216e-05
0.0293648
0.0197197
-8.20292e-08
-0.00527707
-2.90971e-06
-6.97352e-08
-4.57852e-08
6.24443e-09
-2.37015e-05
-9.5258e-08
0.00190406
1.12714e-07
-0.00449512
1.56563e-05
-1.01822e-07
2.71458e-08
-0.00911499
3.95635e-06
1.08334e-08
1.01865e-05
-1.0678e-07
6.05122e-06
5.4648e-05
-0.0889161
-3.74466e-05
-2.30141e-06
-0.0923964
-0.0131896
9.72646e-08
3.39268e-07
0.000173943
7.7356e-08
-7.88266e-08
2.64181e-08
0.000119694
-0.00478772
-4.5158e-07
3.83829e-07
0.000921779
-7.40263e-08
-4.48956e-05
0.000378212
-5.41345e-07
-1.77007e-06
0.0174215
0.00264419
-4.74199e-08
-3.82632e-08
-7.17226e-09
4.23436e-06
-3.30733e-07
2.42131e-08
-1.44013e-07
7.04089e-05
1.69135e-08
-1.37384e-07
-0.00433118
-0.00101743
-8.75058e-06
0.0376124
-2.02388e-08
7.82067e-09
-3.4497e-09
0.00526375
-0.000239355
0.00365444
-1.34365e-08
0.0163826
1.96152e-07
-7.46279e-07
1.27153e-09
-9.63857e-07
-4.16529e-08
0.0191868
-0.000528348
-0.00266741
-7.18448e-07
-3.71771e-05
6.25086e-08
2.55772e-06
3.6411e-09
0.00787937
2.88521e-08
-1.20032e-07
4.31365e-06
-0.000267925
-0.000604518
-3.22018e-08
-2.08957e-11
0.000207136
-2.62893e-08
9.97123e-07
-1.13871e-07
-6.79944e-08
1.79615e-07
-0.000116997
-1.61941e-06
7.49152e-10
-1.18387e-05
-5.27429e-08
0.000555525
2.71142e-07
-0.00118716
-0.00025472
3.51481e-06
4.24375e-06
-0.00618777
2.10076e-06
0.0133742
0.00558171
-1.19094e-07
1.73971e-06
1.60777e-07
0.0195291
-0.0320188
-1.08424e-08
-1.66374e-06
0.0309096
-5.70705e-08
0.00322089
-2.23162e-07
0.0161575
-0.027894
-7.03621e-08
0.0489414
1.11051e-08
0.000292804
-1.62514e-06
-4.86178e-05
1.20772e-07
-0.00224274
3.61099e-07
-2.90026e-08
-6.13431e-08
-0.00122156
8.1542e-10
-2.13646e-09
-2.98565e-08
-2.76018e-08
0.072328
0.00948168
-7.50989e-07
0.0122734
0.000235222
-5.88563e-07
2.31155e-08
-1.90641e-07
0.00235362
-4.7371e-10
9.17353e-07
-0.00315456
-0.0290438
-2.42834e-05
-4.19446e-08
-6.9845e-05
2.54205e-06
0.00176101
-9.93221e-08
0.00704412
1.82141e-08
-5.2021e-07
9.42851e-07
0.0425484
1.87032e-07
-0.00152218
-6.68862e-08
3.28874e-08
-5.49141e-06
-1.26384e-08
2.26219e-08
8.65623e-09
0.00149821
-0.00708688
-2.058e-05
1.97787e-06
-1.3536e-07
-3.4622e-08
-1.57894e-06
-0.0248627
-4.75314e-08
-0.0045774
1.03937e-07
0.00757986
-1.48393e-06
-2.2779e-08
1.64423e-05
0.0353451
-9.0853e-06
6.94405e-09
-6.97281e-06
-0.00339941
0.000493065
6.98052e-08
4.38758e-07
1.96874e-09
-2.02279e-06
2.8178e-08
0.0387005
6.22671e-06
-1.02723e-07
0.0152473
0.0193229
-0.0283507
-0.00240183
8.46712e-07
8.00525e-05
-2.43612e-07
-1.34162e-07
-0.0138354
-0.0312272
0.00029267
-7.12254e-06
-6.48594e-06
4.1728e-07
8.27263e-09
-2.42908e-06
-1.19947e-05
-1.62052e-07
-2.51457e-07
4.6128e-05
-1.6275e-07
1.4407e-06
1.77158e-08
-0.00266201
7.83588e-08
0.000128345
6.17594e-07
6.98511e-08
4.00811e-06
-5.53496e-08
5.78762e-08
0.0474507
3.17389e-08
0.0170814
8.91701e-05
7.82049e-06
-1.53882e-08
1.71896e-06
-0.00415039
2.42894e-07
-7.0189e-08
-6.91036e-07
-5.6418e-05
4.54554e-08
0.00538047
0.000773547
1.23598e-07
5.8741e-07
-6.9737e-08
-3.31236e-05
-1.59189e-07
-1.56094e-06
4.20024e-07
0.0221577
-3.36229e-06
-0.000121888
2.88096e-06
0.0138586
-7.87416e-08
4.08583e-05
-0.00595696
-1.33652e-06
0.00201939
-3.02474e-07
3.77307e-06
-2.54102e-06
-1.03281e-07
-2.33353e-07
0.00286789
-8.7435e-08
-7.38136e-08
-5.11929e-08
-3.4315e-06
0.0121335
-7.71013e-05
2.64207e-08
0.00616881
-6.41123e-06
3.3911e-06
0.00660533
2.89526e-07
-3.01619e-08
1.33459e-06
-7.37631e-10
1.13889e-06
0.0291511
-6.31039e-08
-0.000265634
-1.57983e-06
0.00490187
-0.000149984
5.28439e-08
-3.4538e-08
4.45751e-08
-0.00604831
2.34616e-06
0.0196867
1.28165e-07
1.58443e-08
-1.15294e-07
1.77447e-08
2.11868e-08
1.77958e-08
-1.12504e-08
-2.97871e-05
-0.00132459
-5.95124e-09
3.31581e-06
0.00355534
-1.99639e-07
-2.03565e-08
0.00248212
6.00784e-06
1.24941e-06
3.65887e-08
-4.99953e-08
0.000273887
2.92393e-08
0.00403534
2.13099e-07
6.60065e-08
7.83533e-10
-3.39431e-05
-3.6747e-08
0.0137906
-0.00480071
0.0159928
-1.41032e-05
3.6567e-08
-6.27616e-07
0.0104615
-7.48362e-08
3.34365e-06
-7.54348e-08
-4.769e-06
-0.000132989
0.0312047
-3.73899e-08
0.0114515
-1.14228e-07
-0.00207045
-5.08078e-08
-4.16695e-06
-6.60723e-07
-0.000109431
0.0115885
-0.000903043
-3.57713e-08
-0.0834323
3.04176e-08
-0.00659291
8.18107e-08
1.02728e-05
-1.69959e-08
7.66243e-08
-1.24738e-06
5.86892e-06
1.05929e-07
-9.67817e-09
-2.68451e-08
-5.87317e-07
-2.19057e-07
2.21034e-07
-2.75237e-06
-2.94591e-08
-6.6748e-08
0.000184944
-1.8603e-07
0.00206668
-4.1115e-09
-9.32484e-07
7.04962e-08
-1.29572e-05
-1.04915e-08
-0.000305608
-7.82789e-06
-0.0263712
-2.12493e-05
4.35315e-08
-1.33284e-06
2.73011e-08
-8.10408e-07
-1.06958e-07
3.7373e-08
2.94963e-08
0.0160995
3.05202e-08
0.0202562
0.00452979
-8.87151e-07
-8.00393e-09
2.702e-08
-7.18002e-05
-0.00513031
-0.00728206
0.00017054
-9.74044e-05
0.0244059
0.00335209
2.82302e-06
0.0228038
2.05183e-08
-7.16639e-08
1.2323e-08
-2.74869e-05
-1.76971e-07
-1.50507e-08
1.56663e-06
-6.80299e-07
-0.00779798
-8.13797e-08
-0.00145666
-7.80716e-07
-0.0197827
2.21817e-05
6.17615e-06
0.00200103
-3.1993e-06
2.38411e-08
-1.00562e-07
9.09837e-06
0.0171138
0.00346156
-1.51708e-07
6.0096e-08
0.00329873
2.39675e-06
-0.000229208
-2.00543e-08
0.000116307
-1.19462e-06
0.0129002
4.8936e-08
-7.30878e-08
-1.58114e-07
2.32634e-08
3.285e-07
3.43095e-08
3.99887e-08
-0.00623381
0.0152154
-6.65366e-08
0.0124427
4.46656e-07
-0.00357584
-2.50815e-05
-0.0139053
-1.58398e-07
1.47165e-05
-0.0780298
-1.04188e-07
-0.0337564
3.51241e-08
-5.13674e-07
-1.06013e-06
-1.91003e-07
-1.96082e-05
-1.15985e-07
-8.11299e-08
-2.7442e-05
3.23551e-08
-1.91995e-07
3.68748e-08
-0.00537299
2.73552e-08
2.37932e-07
3.68537e-06
3.18875e-08
-2.32216e-06
1.57959e-06
-7.85095e-07
1.50302e-07
-0.0013716
-1.63865e-06
-7.91207e-08
-4.98955e-08
5.51193e-08
-1.61225e-07
-2.93717e-05
-9.86226e-07
0.0147617
-1.22385e-07
3.58785e-08
-0.00391652
1.84148e-08
0.0113578
-3.34433e-06
-8.98895e-08
8.92445e-08
5.88806e-05
1.11295e-06
1.13061e-06
-3.82353e-09
3.8361e-08
-1.33093e-08
4.16516e-07
-0.000609084
8.95386e-07
2.13508e-07
8.60659e-08
0.0407918
2.10295e-05
0.000164398
3.58464e-08
0.000273984
6.7704e-06
-0.0190646
-3.71349e-08
-6.15257e-08
-0.00201084
-3.81147e-08
0.0319958
3.04866e-06
0.0253767
-1.49134e-07
-6.00299e-09
3.62851e-08
1.36113e-07
-3.67544e-08
9.29693e-08
-0.00810902
-0.0184722
9.65409e-09
-0.00265249
0.00865253
-0.0769147
-0.00969144
-7.67455e-07
0.000251238
-1.05333e-08
-0.0119937
-3.87843e-07
-1.65851e-05
2.31612e-06
-0.0321794
-1.11326e-07
-2.12246e-07
-9.98643e-08
9.24713e-08
-0.000194708
8.87312e-07
0.0318487
-1.88044e-08
3.34894e-06
0.00201764
1.16393e-07
-7.54341e-08
-7.65108e-07
-0.00672536
0.00630775
-0.00262442
6.44232e-06
1.60345e-08
0.000582594
7.72039e-08
0.00023786
0.000345148
-6.36547e-06
1.77374e-05
-3.01353e-05
2.42553e-05
-0.00158802
-2.46664e-07
3.68081e-07
0.0153335
0.0467711
-0.0596327
-0.0127493
-0.00914083
-2.87257e-05
-0.00383495
-0.0146055
3.53781e-07
1.48921e-06
3.05743e-08
-0.00553553
-0.00466192
0.0374852
3.40605e-07
-0.000130448
-8.03205e-09
1.76313e-07
9.4306e-08
1.76567e-06
-1.07519e-07
-1.30577e-05
7.36087e-08
0.0154887
2.28413e-08
-7.71115e-08
2.41788e-07
0.0242322
0.00216837
-8.63795e-07
0.051057
1.02102e-07
-0.00516937
-1.61606e-07
2.59232e-05
5.14839e-07
7.74752e-08
-7.24611e-09
-9.09537e-07
0.0114766
-1.33371e-08
-9.05467e-06
0.0390825
0.0284483
-0.000155746
-4.26452e-09
-1.3976e-08
0.0421543
1.74007e-08
1.92359e-08
-0.00315699
1.5022e-07
-0.0312524
5.49558e-08
2.20622e-07
9.05814e-05
-0.0821948
1.35102e-08
1.86218e-07
0.000297992
-0.0159127
-5.20085e-08
5.33557e-08
-1.15931e-06
6.1302e-08
0.0118417
-1.44429e-08
0.0113213
8.16113e-08
0.000196249
-0.00178284
-1.44177e-06
1.2285e-06
3.47806e-08
-2.70791e-08
-4.073e-06
0.0194587
0.0261684
1.90853e-05
-2.41153e-06
4.19665e-08
-2.86824e-07
1.09698e-08
-7.28238e-08
1.00363e-05
2.42003e-08
0.00242897
3.07003e-08
3.15471e-08
-0.00371433
5.42033e-08
4.78102e-08
-0.00927673
-3.05506e-08
2.25474e-05
-6.64286e-07
-1.19672e-07
-6.47198e-05
2.0874e-06
4.71715e-07
-4.68752e-05
-1.66669e-09
-2.00412e-05
0.00122337
-0.00852997
-1.37047e-07
-0.00373214
-1.0451e-05
2.10825e-08
-4.01301e-05
0.000615611
-4.57083e-05
-1.28704e-06
5.93828e-08
-4.42748e-07
-3.73481e-06
-8.54244e-08
-1.47827e-07
3.89326e-07
4.64249e-07
2.002e-06
0.00521982
6.63571e-06
-1.47897e-09
-5.17545e-06
-1.40792e-05
2.52428e-08
0.0231825
-2.11236e-07
4.03444e-05
4.05029e-08
-6.28659e-09
6.48319e-06
-4.10598e-05
2.98926e-06
-3.5442e-07
-2.236e-07
4.03455e-09
0.00531268
-1.02519e-08
-1.12009e-06
-2.80215e-07
-1.09094e-05
6.50671e-06
3.60467e-07
-6.05329e-08
1.58967e-06
-2.04703e-08
0.0361283
-5.29599e-06
1.18705e-07
-0.000115985
2.64587e-07
4.26125e-06
1.17726e-06
5.88102e-08
-8.98071e-08
0.000797782
-2.88986e-08
-2.51996e-08
-4.05558e-06
1.70951e-07
0.000135354
-1.96025e-08
-2.37477e-05
1.08055e-07
4.92132e-07
4.36419e-08
0.0169965
-0.01194
-8.52131e-09
0.0199927
-9.34599e-08
9.35644e-05
0.0474331
0.000175486
0.0184904
0.00147171
-0.00759194
4.82845e-08
-0.00134248
-0.00141496
0.0355418
-1.82175e-06
-0.0105704
5.11192e-05
-8.33709e-08
1.29375e-06
-0.000582972
-7.06389e-08
0.0268525
1.99637e-06
-0.000277257
-0.000260745
-0.00759108
-1.12206e-07
0.00013917
1.88633e-05
-3.33372e-08
-0.00481955
1.26373e-06
-7.04398e-07
3.93301e-06
2.00599e-06
0.000360486
-0.00028544
3.55266e-08
-7.30108e-08
-8.78239e-07
0.00013629
0.000100984
4.57337e-05
-1.28916e-06
3.17536e-05
2.02935e-06
-3.0868e-07
-6.4913e-07
-7.36076e-06
4.19383e-08
-2.12005e-08
0.00543745
0.0383083
-2.04132e-07
-9.01895e-07
-6.90453e-05
-0.00234459
6.42997e-08
-4.70671e-08
-2.3285e-06
-8.27871e-05
-8.97737e-09
0.000925457
2.33921e-06
0.000652687
1.82213e-07
-5.45182e-08
3.39264e-08
-8.62221e-06
1.30533e-06
-4.26189e-07
-4.54096e-08
8.18054e-08
-0.00020065
-5.24749e-05
-2.09923e-08
3.08e-07
-5.18034e-07
-6.8764e-06
-1.65091e-05
4.08796e-08
1.39505e-06
0.00182108
4.49245e-06
0.0331883
0.00884347
-2.91306e-07
0.0050568
0.0174108
0.00639023
-3.63118e-05
-0.000493546
-1.34411e-07
-1.95895e-07
9.74123e-08
8.72636e-08
0.000737063
-5.58727e-07
-1.3385e-07
3.787e-10
-1.7892e-08
-2.42895e-06
2.59674e-08
0.0113018
-3.47829e-08
6.6454e-07
3.67762e-08
-1.12977e-07
3.63519e-07
-6.39095e-06
-1.73929e-07
-6.64374e-08
-8.32243e-07
-3.08381e-07
0.00105686
-1.41777e-06
9.01404e-08
7.29165e-07
-8.49364e-07
-4.52094e-07
-0.00310103
0.0281699
-2.92393e-06
-1.44088e-07
-2.87292e-08
-8.16651e-06
-0.0134023
0.000127393
4.26188e-06
7.00398e-06
-0.000605669
-2.19023e-06
-2.01446e-07
-2.74165e-08
-0.000196329
5.76468e-08
-0.0363387
3.15815e-08
3.6373e-09
2.70224e-06
-3.55225e-07
5.65366e-08
-6.0141e-09
0.00307852
0.00166347
0.0139444
1.13553e-07
-0.00296811
2.26283e-06
7.8555e-08
-1.0188e-08
-0.00241611
-6.07917e-08
0.0255594
-3.43817e-06
0.000646233
9.75871e-06
7.11768e-06
8.50195e-08
-1.18158e-07
-0.00758879
-1.51847e-06
-0.00643125
-0.00111522
8.18535e-08
-0.00179339
-3.16083e-05
0.00161464
-0.0125802
-2.17501e-07
0.0153103
-1.22023e-07
0.0273131
5.85673e-06
-0.0384039
0.00156843
4.64463e-08
-4.55564e-10
-0.0002908
-6.64567e-06
0.0201062
-0.0029722
-1.49355e-09
-8.28632e-08
-2.50111e-06
-1.2162e-06
2.38124e-09
0.00537766
7.2955e-08
-0.00930831
4.59214e-08
1.00532e-05
-5.73111e-07
-8.18026e-06
-2.39979e-07
-0.00234504
-6.20994e-08
6.40733e-06
-1.20437e-07
-9.53135e-06
3.41884e-08
-3.02387e-06
-8.63582e-08
3.36133e-08
-0.00689519
-6.29288e-08
2.1822e-08
0.00528729
4.16569e-08
1.54936e-06
0.0117852
0.00352593
1.59188e-08
-1.30121e-08
-1.09576e-05
0.000341813
1.19823e-06
4.15724e-06
1.4342e-05
-0.00344833
-2.98843e-08
0.00190768
1.05464e-06
0.0244303
-5.90791e-06
-7.67113e-08
1.71441e-06
3.9766e-09
0.00502431
-3.62504e-05
0.000982352
-1.27701e-06
-0.000224931
-0.0115928
0.0321818
-3.61855e-08
2.88377e-07
-5.49759e-08
2.52085e-08
3.68419e-08
-3.3913e-08
-6.27814e-08
-1.03735e-06
-9.09184e-08
-4.2442e-08
2.4153e-08
-3.06866e-08
-4.39247e-07
2.10661e-06
-1.31411e-07
-0.00995425
1.3781e-07
-2.11562e-08
0.000148519
-8.43505e-07
0.00259759
0.0004529
-2.13163e-05
-0.0541515
1.41136e-07
1.78291e-05
2.26845e-07
0.00370188
1.61773e-08
1.45467e-06
-8.30791e-06
0.0316289
1.02682e-07
8.7675e-08
-0.000108767
1.12968e-06
2.09933e-06
-2.25921e-07
-5.96409e-08
0.00548086
1.87944e-05
-2.57524e-07
2.57188e-08
-5.4968e-07
0.00492597
5.28435e-08
1.33649e-06
-0.003823
-0.000162788
0.0341311
-2.5865e-07
6.78982e-08
-1.33119e-07
-3.34646e-09
7.92127e-05
-0.0211222
-0.00279367
-6.88075e-08
7.07617e-08
-0.00194492
1.41381e-06
1.82372e-07
-9.06773e-08
-1.69767e-06
-6.89419e-08
-1.04611e-07
8.97517e-09
2.53892e-07
1.02148e-06
1.53903e-06
-0.00187338
-0.00190326
1.53579e-05
9.3814e-06
-1.36668e-06
-0.0733006
-4.71974e-06
1.40113e-06
6.0436e-07
2.43336e-07
0.000194648
1.31999e-07
8.5507e-08
4.04875e-08
-1.19051e-06
8.32973e-06
0.0491188
0.00704126
-0.0117218
-4.04713e-07
3.60618e-06
-0.0113379
0.030401
0.0127698
0.000979499
5.40423e-08
-0.000160727
2.10321e-06
-1.41271e-05
-4.70418e-08
0.00203695
-4.60477e-07
-9.07886e-07
2.68951e-08
0.00412204
-6.22101e-08
-0.0423302
-0.000370642
-1.16535e-08
-2.47433e-08
1.90294e-06
-1.9362e-07
6.04549e-08
2.01237e-07
-0.00466814
2.84479e-09
1.50588e-06
4.21394e-07
-0.0377938
9.90377e-07
-1.15779e-06
-2.05239e-07
-3.39191e-09
2.80024e-07
0.0172635
8.15839e-06
1.42407e-07
-5.45616e-05
-0.0081312
-2.66281e-08
-0.00631193
3.68791e-08
-1.18393e-06
0.00418337
2.35701e-07
-1.37489e-07
-2.15051e-07
3.93666e-07
3.31253e-07
-1.0829e-06
-1.39589e-06
0.0169142
1.12105e-06
1.51483e-08
8.76551e-06
0.00355399
6.64236e-10
-1.3492e-05
-7.2986e-08
0.00167077
-1.37663e-07
-5.74817e-07
-0.000337403
-1.60342e-08
3.92654e-07
-3.7405e-08
-0.033006
-0.0262303
-1.05262e-07
-0.000538858
-5.17544e-08
-5.37977e-08
0.0235351
-6.75551e-09
7.74108e-06
-1.6096e-06
5.9836e-06
4.40849e-06
1.48776e-05
1.75767e-08
5.81645e-07
-4.98719e-08
3.44338e-05
-0.0011538
-9.37116e-07
-6.36692e-07
-5.07211e-07
0.00614461
-1.84357e-08
-0.00216135
0.0388476
7.21508e-08
-2.79909e-07
4.70546e-05
-1.04425e-05
-4.56505e-05
-3.36573e-07
-1.89943e-07
2.00316e-06
-9.49542e-08
6.26265e-08
-1.95476e-07
0.029096
1.15377e-06
0.0481294
-5.38459e-07
0.00657001
-6.34065e-08
1.70419e-06
-5.12453e-05
0.00349598
0.00707035
1.24889e-07
-2.58681e-08
3.56676e-05
-7.83946e-08
8.52962e-10
3.52377e-05
0.00110123
3.55742e-06
1.4219e-07
-0.0156539
-0.0115774
-0.0225468
-1.21068e-07
6.50906e-08
4.57278e-08
4.42209e-07
-0.00353565
9.59619e-06
4.15502e-08
0.0129956
-0.0026496
0.0105694
1.41369e-06
1.51955e-07
7.70889e-06
0.0611256
0.013909
-0.000914158
1.8191e-08
-8.50011e-06
2.88134e-06
0.00503917
-0.00207922
0.00270135
-8.99182e-06
0.0350695
9.28611e-08
-9.72552e-08
3.48894e-08
-0.0838244
-9.81447e-09
-1.01345e-06
0.0047234
-1.21349e-06
1.5561e-06
4.75472e-08
7.61875e-09
-3.86966e-06
0.00637731
-8.92145e-06
-1.3809e-08
-6.06336e-08
2.17867e-06
1.10349e-06
2.70774e-08
-2.59513e-06
-0.00052652
-1.87834e-08
0.00561412
-0.00741698
-0.00283822
8.90141e-09
-2.41178e-06
0.0206967
0.00591031
-2.84261e-08
-0.00978273
0.0229495
-1.45435e-07
0.0522587
2.42748e-07
6.79161e-07
-2.83421e-06
-5.38925e-09
0.00726665
0.000281491
1.15462e-07
-1.56605e-07
0.000227576
0.0234366
2.12803e-07
-1.24516e-06
-0.000526546
0.0281246
-2.66735e-08
0.0041151
0.00121181
-6.86399e-08
-1.13625e-07
-9.34927e-07
-7.37255e-05
4.06501e-07
-4.34106e-06
-0.000478942
4.40684e-08
9.00805e-06
0.009248
-2.19146e-05
-0.0120172
-2.85979e-09
-1.32984e-08
-0.0853963
0.0260316
-1.38326e-06
-6.46802e-07
-0.00267832
-0.0136721
-2.03802e-06
-1.61641e-08
-0.00151889
-1.26354e-05
1.6809e-06
1.3269e-06
-0.00292226
3.27518e-08
2.11915e-09
8.97594e-05
0.000337289
-8.87476e-06
0.0014804
-5.20942e-05
2.15898e-07
3.34732e-08
0.000288959
1.15901e-08
-6.71156e-05
0.0041383
0.000410884
1.11917e-06
4.9609e-08
-0.00330643
6.71383e-08
-4.70737e-08
-0.00592567
-1.36728e-08
-1.30235e-08
0.00524707
-1.3213e-07
3.74672e-08
7.75773e-06
7.2426e-06
1.122e-06
0.00105228
-0.000286172
-0.00129267
1.0977e-05
0.00186589
-9.11707e-05
0.00072834
-1.64818e-06
2.84373e-07
6.25939e-05
0.020904
0.0044366
1.9349e-06
-6.85257e-09
-0.000306112
1.86082e-06
-0.00142869
-1.4724e-06
-5.17123e-06
-7.29393e-07
-1.29681e-06
-1.35056e-05
-6.40575e-08
-1.28075e-06
2.08212e-07
1.3711e-07
0.00735021
-1.09973e-06
9.099e-08
-2.16356e-08
-0.00410327
-0.00339523
1.65165e-06
7.06535e-05
-2.14815e-06
-1.19028e-05
0.0250578
4.31309e-06
1.58452e-08
2.75167e-07
0.00952234
8.29712e-08
9.66687e-07
-0.00712384
8.49922e-07
5.40362e-07
0.0152728
1.91819e-08
-6.41729e-08
0.00302718
0.000250625
7.77159e-07
-0.000576237
0.000430082
-2.59613e-09
1.07158e-06
0.0219036
-1.21529e-06
-5.07674e-07
2.3065e-08
-2.59438e-07
0.000189167
2.8009e-06
4.8853e-06
-1.40497e-07
-1.27842e-06
-2.49161e-07
-5.82576e-08
-0.00591825
-1.30817e-06
8.03491e-05
2.50646e-05
-7.82341e-08
2.03806e-07
0.010985
-0.00420698
1.7449e-08
-4.97496e-08
0.0371948
-6.19061e-06
-0.0665962
0.0409051
6.34375e-07
0.000369084
0.0153435
-5.42846e-05
2.45094e-08
4.4391e-07
6.21852e-06
-2.37481e-07
0.0295843
2.29863e-06
-7.57706e-08
-0.00270276
-0.000212026
-5.08252e-06
-1.74851e-06
-0.000243156
-0.0332418
-6.06918e-08
3.73445e-07
5.42297e-06
-6.33063e-06
-1.81572e-07
-8.94791e-08
0.00343418
-0.00502324
0.0276646
0.00383002
6.22516e-07
6.90671e-07
-4.0977e-06
1.66349e-08
-1.29025e-07
0.0026233
-2.55011e-09
5.22771e-07
-2.65176e-06
-2.02287e-07
-0.0437029
-5.32965e-08
-0.0543249
-0.0297971
1.25286e-06
-3.67792e-05
0.000210177
-9.93326e-08
-4.59186e-07
0.000810245
-1.63084e-07
2.42939e-06
0.00614529
-1.34433e-05
0.000826805
-3.05647e-07
-0.00010081
0.00250487
0.00311525
0.00334456
-2.00434e-08
0.00343368
-0.00311158
1.96566e-05
0.00565856
-1.34189e-07
0.0713339
0.00116476
-0.00129562
0.00337127
-7.99904e-08
-0.0020112
-0.0105018
-0.0614098
-0.000222918
-0.00404665
-0.00287495
0.000173981
-1.05431e-07
8.52237e-07
-0.0621917
-7.83487e-08
2.19928e-08
-7.78878e-08
0.0222106
8.81403e-07
2.54847e-06
0.0278629
3.52955e-08
0.000623514
-0.00162693
-7.13617e-07
-6.97572e-08
-1.34668e-07
0.00360506
0.0188998
1.80176e-08
-1.79721e-07
1.75277e-06
-0.00025715
-1.43906e-06
-3.51079e-08
2.52533e-08
-1.11853e-07
-9.84034e-08
0.0214012
-6.64136e-07
0.000744611
0.00274211
7.97649e-07
0.0192262
-4.40868e-08
3.0384e-08
-7.10362e-08
-8.47874e-09
8.31857e-06
2.41306e-07
-1.02876e-06
0.00813023
1.73121e-07
5.69184e-07
-5.18845e-08
4.47843e-08
7.33989e-06
3.6702e-08
-1.62658e-08
7.93763e-08
1.24705e-07
4.39974e-06
2.09791e-07
4.81411e-08
2.17023e-06
-0.0550962
-2.56539e-06
-7.5885e-07
8.00237e-08
-5.61822e-08
0.0522807
-2.53212e-07
0.00344898
2.96364e-08
-3.42993e-05
8.46561e-08
-1.79379e-06
-1.19517e-08
1.82585e-06
-0.00606033
0.0117103
0.0222669
-4.80424e-06
0.00577567
1.09e-06
-0.00693261
3.98407e-09
0.000138364
0.0104149
4.09488e-08
0.00554619
0.00528431
0.0253254
-2.9951e-06
7.74413e-08
5.38661e-06
8.13103e-06
-3.83484e-08
-0.0732699
0.0006111
-1.0449e-07
0.00278123
-1.80121e-07
1.68798e-05
1.38097e-06
2.21566e-07
-2.41293e-07
0.0211732
-0.0174922
-5.16371e-05
-8.58618e-07
1.65229e-08
0.00525445
-5.28464e-08
-8.69279e-05
-1.19057e-05
-5.93105e-08
-6.57814e-06
4.42974e-09
0.00661307
0.00238586
5.78615e-07
-5.69077e-06
-4.9702e-07
-0.000408106
-0.000262605
1.55231e-06
0.00854434
1.74899e-07
0.0306315
-1.08864e-06
3.19636e-07
3.39823e-07
4.20741e-05
0.000152585
5.01553e-08
4.15373e-06
1.26124e-07
0.00879832
-2.0542e-05
-0.036084
-0.00319344
-1.01321e-07
-1.28704e-07
0.0278334
0.0063584
-3.52828e-08
8.5927e-05
0.0129263
-4.22214e-05
0.00409372
-0.000443093
-2.51312e-06
1.0154e-05
2.50275e-05
-0.0831931
-0.052538
-0.000110455
-5.94656e-07
-4.04555e-08
0.00963409
4.1459e-08
-5.39969e-07
2.70351e-05
0.0163296
2.67441e-06
1.42468e-06
0.00036652
0.00174085
3.87882e-08
-9.51952e-08
-7.49669e-09
-0.0291505
-1.04943e-06
-1.55584e-06
1.31596e-07
0.00188499
0.0094348
-5.13624e-06
-0.0324163
1.08885e-06
3.98321e-08
2.61457e-06
-0.00700345
-1.07684e-05
1.82924e-06
0.00177693
-0.000559996
2.16526e-08
-4.17912e-07
-1.14334e-07
0.000158595
2.8781e-05
0.00852515
-1.34586e-07
2.00962e-06
5.25656e-06
-0.00259662
-4.96604e-05
-0.0233999
3.62263e-05
-5.49085e-05
0.00187418
5.25723e-08
0.00982816
1.98848e-06
2.1135e-06
0.0166307
-1.5768e-06
2.95681e-06
-5.90702e-07
2.38599e-08
-1.54102e-07
0.00127523
0.0240318
-1.1546e-05
-0.00181619
-1.14876e-06
-0.000802816
-5.43848e-07
0.00168492
-6.10284e-07
-2.09279e-08
-1.73852e-07
-7.54311e-07
0.00545132
2.40742e-06
2.35265e-06
-0.00748088
-0.0530022
0.00117453
-4.73881e-08
1.88693e-08
-8.58688e-07
-3.55556e-06
1.8139e-05
1.14117e-07
-1.364e-07
0.00178387
0.0319684
0.0220558
-0.00320451
9.64992e-06
-5.91106e-05
0.000950332
1.45975e-08
3.47818e-08
0.000945496
-3.56368e-06
-0.00199099
-9.0219e-08
0.0217613
-8.02391e-07
-2.09878e-07
2.98553e-05
-0.0132566
-2.25858e-08
0.0316326
1.64767e-06
2.09607e-08
0.0152939
-3.90403e-07
-1.72484e-06
2.53591e-08
-1.17851e-08
1.06563e-05
0.000528165
0.0422998
3.01779e-06
6.55476e-07
0.00568362
-0.0113486
-0.00526787
-1.41711e-06
0.00145888
2.22694e-07
-6.33922e-06
-0.00132942
0.00232355
1.55617e-06
-0.00772047
-0.000241283
5.28563e-08
-0.00629033
4.04627e-06
-7.97217e-08
-1.68531e-05
-5.78626e-06
-0.000142527
-5.03356e-06
8.59188e-08
0.000818987
-1.05961e-07
1.60395e-08
2.2393e-08
-2.42976e-06
-0.0515479
4.97986e-06
1.41423e-05
1.82602e-07
-0.00522831
5.22408e-08
-1.68121e-05
0.00457407
-2.61998e-08
0.00370391
0.0144097
-0.00313906
0.00564046
-1.30527e-07
8.17837e-08
-1.51461e-05
-0.000114721
-7.99876e-07
3.1458e-07
-0.000343684
-4.63071e-05
0.022577
-4.40218e-08
1.56555e-06
0.00816357
-4.13719e-09
-0.000612814
1.5592e-08
2.48565e-07
-1.34876e-06
-1.14396e-07
0.0010432
-4.20015e-07
5.214e-08
7.60721e-09
5.64421e-06
8.6374e-08
-4.46816e-05
-8.94189e-08
3.12709e-08
-0.0025369
-4.96493e-05
-7.96041e-06
4.41303e-08
-1.18337e-06
-1.83042e-06
2.17057e-06
0.0317788
-8.31878e-08
0.0031405
1.70176e-09
-0.0106346
2.73797e-07
1.03258e-07
6.28954e-08
-8.89382e-07
-2.14681e-05
1.82599e-07
6.9832e-06
-1.01408e-07
-0.000328315
1.10036e-08
-1.02845e-07
1.80771e-08
1.19673e-06
-0.0984565
-0.0167992
0.0422771
0.0450692
-1.06221e-07
-1.68539e-06
4.1745e-08
-0.0153737
-0.000987356
1.08578e-07
0.000991506
-0.00142253
0.0126056
-0.000991876
3.57784e-08
0.000421458
1.55057e-08
8.90228e-07
-0.000549518
8.31113e-09
-1.56074e-08
0.00161812
0.0394284
2.40777e-07
3.94878e-07
-5.9104e-07
1.91795e-06
0.00176384
0.000198465
-5.38298e-07
0.0175474
0.00347955
-0.00107157
0.0184304
-0.0183132
-3.72935e-06
0.00158377
-0.00716704
-0.0158829
4.57898e-08
0.000799201
-6.06881e-09
3.01673e-07
-0.00326567
-1.67421e-05
0.00352318
-9.94963e-08
0.000612756
0.00336254
2.49267e-08
-5.17664e-07
-3.61129e-07
1.31594e-05
-1.73316e-07
-3.42027e-05
0.00618871
0.00337196
-0.00122427
0.0334473
1.44096e-06
-1.65718e-08
0.0201738
0.00414989
-1.13298e-07
5.60818e-07
-1.83286e-06
-4.62553e-05
6.54473e-07
-9.63773e-08
0.00218317
0.0126623
-0.0129245
-5.99277e-08
-0.00208697
-7.2268e-08
-1.13628e-07
6.73709e-07
0.00412687
-1.40296e-05
-7.38833e-05
-1.79684e-07
-0.00152216
-1.00247e-07
-8.47933e-08
-0.00218701
-0.0046562
4.10523e-08
-1.32165e-06
8.19544e-07
1.49636e-06
3.47923e-06
1.56342e-06
2.52838e-08
0.00115896
-2.54145e-08
-1.41259e-07
8.94876e-07
8.88096e-05
-1.71441e-07
-4.37046e-05
0.00496817
-6.58561e-08
0.000260525
-0.000172935
-0.00283404
0.0199021
-8.531e-08
0.000509142
-9.82113e-10
-1.36078e-06
0.0409924
0.0236673
-7.45584e-08
0.00434027
0.0031389
0.010338
-0.0157965
0.00646622
0.0142258
-5.64165e-07
-0.00121286
1.10927e-06
-0.00809022
-6.06707e-08
9.37577e-07
8.67947e-06
0.00170522
-7.36939e-08
6.95503e-07
-4.76518e-06
3.95502e-08
0.0171311
-8.53714e-07
0.00108364
-3.02853e-07
4.17833e-08
0.0123308
4.84299e-08
-0.0398966
2.8428e-07
-3.73284e-06
-9.39001e-05
-1.38221e-07
0.0445095
2.10232e-08
0.000578488
0.0164817
0.0297146
5.62867e-08
-8.45944e-06
-1.17102e-06
8.53345e-07
-7.15122e-08
-6.9052e-08
0.00154667
3.97858e-05
-0.00039673
-2.51677e-05
-2.66331e-06
-5.79606e-08
-0.00233167
-0.00417226
-0.00706405
-0.00762968
5.50935e-06
0.000449024
0.00173151
1.45587e-06
0.0250834
-1.33004e-06
0.00204518
1.11907e-06
-1.13378e-07
0.0154989
2.17705e-08
-2.46126e-06
1.3797e-06
0.0369316
-1.41463e-07
7.66118e-08
-1.08111e-07
-2.65881e-07
2.73195e-08
0.00694443
0.0237089
-4.67684e-06
-0.005903
-4.51722e-05
0.00148849
-3.31812e-07
-2.96552e-05
0.00860904
-0.0107023
-3.80796e-07
-1.24609e-08
0.0410877
-1.96199e-07
0.00184651
-3.60165e-09
-1.18388e-06
-1.39644e-08
-0.000504342
0.00319469
1.03368e-06
0.00160553
0.00308951
1.43371e-07
-7.4565e-07
8.68048e-08
-5.01353e-08
0.0475624
0.0145238
-0.0351281
-0.0142007
4.2203e-06
6.78444e-06
5.80743e-08
-0.0702858
-0.000829822
-6.0801e-08
2.84273e-08
-0.00652427
6.13594e-07
1.57764e-06
-3.60646e-07
0.00328617
0.0438227
-0.000171704
-7.87866e-08
8.96346e-06
-0.00730777
-4.05455e-07
-5.95262e-08
-4.93609e-05
-3.59357e-08
-0.00028869
-1.95018e-06
1.57743e-07
3.33288e-08
-0.000169791
0.000239559
-9.29901e-07
2.24562e-05
-0.0020996
0.0244257
5.47718e-07
-0.044532
-1.83326e-07
1.81443e-09
-1.13352e-05
7.45307e-08
-2.11741e-08
-2.27764e-05
6.71028e-08
-2.1675e-06
3.29182e-06
2.27292e-05
-2.01389e-06
-1.11263e-07
1.73829e-08
-0.00648318
-4.2e-06
-8.92151e-08
4.03138e-08
-0.0511343
-6.67102e-06
4.75481e-08
-2.69112e-07
-6.36503e-07
-0.0056932