/*--------------------------------*- C++ -*----------------------------------*\
| =========                 |                                                 |
| \\      /  F ield         | OpenFOAM: The Open Source CFD Toolbox           |
|  \\    /   O peration     | Version:  v2012                                 |
|   \\  /    A nd           | Website:  www.openfoam.com                      |
|    \\/     M anipulation  |                                                 |
\*---------------------------------------------------------------------------*/
FoamFile
{
    version     2.0;
    format      ascii;
    class       volScalarField;
    location    "100";
    object      omega;
}
// * * * * * * * * * * * * * * * * * * * * * * * * * * * * * * * * * * * * * //

dimensions      [0 0 -1 0 0 0 0];


internalField   nonuniform List<scalar> 
18618
(
0.262853
2.28283
0.0196822
0.942451
0.0210464
0.0607755
0.0295001
2.34617
0.0245735
0.0214193
0.0250936
0.0196871
0.947056
0.0212731
0.0210316
0.0200453
0.02097
3.08121
0.0207945
0.0246394
0.0171254
0.0200531
0.0200167
0.0585846
0.021835
0.0551586
0.215024
0.020859
0.0205039
0.020753
0.0212122
0.0264358
0.0214911
0.0841919
0.321208
0.0218665
0.0214773
0.220753
0.0251554
0.0207367
0.15308
0.163173
0.0202215
0.442886
0.0252148
0.0223953
2.31602
0.0199488
0.0713692
2.49086
0.0208801
0.0218418
0.509105
0.133384
0.0216895
1.51203
0.0216954
0.0244868
0.0813989
0.0248432
0.0207665
0.021579
0.0243234
0.0213337
0.125101
1.85001
0.0210659
0.0286372
0.0201109
0.543049
0.0249677
0.278716
0.0496782
3.10833
0.0213623
0.0280946
0.0886319
2.51268
0.0200934
2.46927
4.22202
2.96921
2.88248
0.0219853
0.0214845
0.0202107
0.0712012
0.0214256
0.0357445
3.04185
0.0492194
0.0724015
0.874562
0.0896312
0.386274
0.0281054
0.0215789
0.694942
0.0213854
0.0197672
0.372373
0.0213258
0.0877924
0.0267233
0.026106
1.61872
0.0215763
0.0198841
0.124149
0.0202877
0.911995
0.0207688
0.0219807
0.0207467
0.0213163
0.0198086
0.0212893
1.29718
0.0211462
0.118598
0.722115
0.0219583
1.48789
2.99426
0.308085
0.0619805
0.145566
3.30372
0.0261101
0.0668383
0.0804787
0.0207597
2.9206
0.0671446
0.0212871
0.02068
0.0229247
0.0214896
2.17159
0.0215114
0.0228533
0.0216307
0.0215628
0.0215434
0.0201252
0.0523418
0.0214966
0.0208702
1.61791
0.0300001
0.0216771
1.67366
2.24649
0.0199293
0.0204343
0.333015
0.444081
2.06277
0.0660852
0.019941
0.0205292
0.407367
0.0214816
0.100483
0.0202275
0.682372
0.0204299
0.0215643
4.18057
0.0219389
0.0214748
0.0198605
0.0840776
0.0529325
1.96296
0.0284918
0.0691844
3.17083
0.0198437
0.0201396
0.0421846
0.0543398
0.0218534
0.0216659
0.144197
0.0223041
0.0232477
0.0403264
0.082206
0.0837174
0.0223336
0.0524382
2.0268
0.0215424
0.130974
0.0349713
0.0429143
0.613601
0.022585
3.11738
0.0589415
0.269894
0.0251944
0.0236355
4.11261
2.96955
2.51391
1.64655
0.0223251
1.48177
0.0639818
0.0224268
1.59297
0.376903
0.0216595
0.0217547
0.0412964
4.16345
0.0219566
2.35811
0.0223503
0.0229156
0.0223449
0.170746
0.0327709
0.0316802
0.0222456
0.0202208
0.322493
0.0623237
1.29726
0.0986571
0.0236183
0.0288964
0.021116
0.0642099
0.0248391
0.0286463
0.0217481
0.374665
0.0387989
0.0256124
0.0216712
0.0353226
0.356488
0.0219398
0.0619475
4.42726
0.0225766
0.0258707
0.482244
0.0481842
0.0235352
2.23119
0.0223745
0.0205163
0.0224601
0.0711957
0.0209772
0.057882
0.171358
0.0224086
0.0901806
2.49246
0.054054
0.0220826
0.0349647
0.0473564
0.0224274
0.0244157
0.0288789
0.0199123
0.020769
0.0208695
0.0199488
0.654786
0.0247026
0.0199588
3.98494
0.0207506
0.0228438
0.0198981
2.21152
4.14505
0.0314276
0.526228
0.0224453
0.0488341
0.0200071
0.0800926
0.0207131
0.0254735
0.0215703
0.0224754
0.466486
0.0203332
0.0209571
0.0219772
0.610185
1.27364
0.566912
1.19413
2.58918
0.0627887
0.0672317
3.16362
0.390821
0.0219703
0.0219962
0.0539938
0.0212098
0.025665
0.0228913
0.0207839
0.0291677
0.38474
1.48456
0.0242479
0.0220219
0.0229188
0.0255609
0.132712
0.0390502
0.394223
0.0220507
0.0380879
0.649962
0.0199585
0.0610719
0.0218167
0.021756
0.0207369
0.0492386
0.0211879
0.0253514
0.0220751
0.103544
0.0268265
2.58021
2.86492
0.0207
3.81022
0.025268
0.0195962
0.0201466
0.0255016
0.0387187
0.0233911
0.558647
0.0223741
0.500088
0.0689082
0.0229321
0.0213729
1.93216
0.138829
0.0207823
0.260237
0.0199246
0.0501979
0.47251
2.048
0.182548
0.0387006
2.12027
0.70729
0.0216027
0.0247009
0.0280804
0.0201176
0.0217757
0.0214703
0.573648
0.506987
0.0200924
0.0220625
0.7062
0.0209145
0.0688831
0.0402782
0.0339232
0.0259188
3.76835
0.42106
0.0207876
0.0220246
0.0203004
0.250041
0.0206747
0.0213732
0.0200263
0.0594558
0.022336
0.0200238
4.03182
0.676689
0.112081
2.51659
0.0202028
0.024445
0.0219767
0.899158
0.0719823
1.09683
0.020282
3.84052
0.0222054
0.0303941
0.0216183
0.0445289
0.0212609
3.66819
0.406956
0.228148
0.0226402
0.197049
0.0207253
0.0279018
0.021542
0.899322
0.0214622
0.0224615
0.0250024
0.316067
0.161466
0.0200768
0.0244243
0.0569024
0.021526
0.02452
0.0207908
0.020868
0.022127
0.0629359
0.0426937
0.0215529
0.0786509
0.0212351
0.86714
0.0230071
0.137097
0.376229
0.0230937
0.0228978
3.45117
0.0275718
1.13465
1.14235
0.0219481
0.033978
0.0230886
1.86694
1.50121
0.0224587
0.137396
2.50942
0.0215495
0.491513
0.0207278
2.94779
1.53246
0.023498
2.71305
0.0205651
0.203682
0.0634635
0.369747
0.0223063
0.706353
0.0220199
0.0200161
0.0208201
0.151982
0.057169
0.0212296
0.0201753
0.0201978
2.67659
1.38792
0.023229
3.09013
0.189502
0.0235313
0.0211124
0.0211808
0.478116
0.0214485
0.0299288
0.267202
1.51089
0.199417
0.0200064
0.032675
0.0347114
0.890364
0.0217522
2.86488
0.0210926
0.0209964
0.0298331
1.22058
0.0235028
0.7071
0.0213937
0.0214446
0.0320227
0.0215003
0.023212
0.0214995
0.384367
0.988929
0.199216
0.0424103
0.0219664
0.0201716
0.0261785
1.54911
0.0251672
0.686568
0.0211462
2.02408
0.0258789
0.0220069
0.073994
2.61643
0.0459679
0.0199902
0.0296013
0.976294
0.407812
0.0207439
0.0676913
0.0216981
0.0210699
0.0211226
2.53047
0.132422
0.0220689
3.29442
3.68277
1.53815
0.481812
0.0272435
0.297926
0.0490173
0.0224709
1.75082
1.49129
0.0554209
0.0736427
0.0523378
0.0221218
0.0219486
0.118717
0.113063
0.0216802
0.0216705
0.120906
0.0312038
0.0351012
0.0233609
0.48835
0.0218671
0.327667
0.0231817
0.0217267
0.15911
0.021384
0.0223555
1.3178
0.0214499
3.76334
0.13607
0.706325
0.0634287
0.0353805
3.21707
0.0224285
0.0214764
0.0661482
0.0304747
0.0200781
1.05357
0.340734
0.0223662
0.0231748
0.0224951
0.0280822
0.0206064
0.0598577
0.0268084
2.93828
0.0263342
0.319799
0.0262062
3.27066
0.021691
0.0221447
0.893154
0.026284
0.403071
0.0211265
0.169601
0.0407442
0.0225497
0.0232809
0.397716
0.0210832
0.0213272
0.0201588
0.0212887
3.76392
0.0567664
0.0205871
1.37351
0.384886
0.0271231
1.21438
0.0232452
0.0215273
0.0565616
0.0222926
0.025974
2.29274
0.0222912
0.0719278
0.0243895
1.12948
0.298269
0.0200827
0.0201465
0.0211461
0.665933
0.0277492
2.89083
0.0220898
0.0204895
0.0211906
0.0214505
0.0208149
0.0214162
0.0250056
0.0854861
0.698711
0.021254
0.0268306
1.77862
0.0221405
0.0217802
1.0113
0.0494569
0.0238745
0.0211347
0.0217613
0.664985
0.0219987
0.504901
0.027539
0.0216249
0.0385142
0.124387
0.0219763
3.75445
0.481126
3.83087
0.140372
0.0212367
0.053613
1.50748
0.0213812
0.0633507
0.0198869
0.0321014
0.0777659
2.65958
0.0201397
2.39423
0.0220033
0.698452
0.0216007
0.0645852
0.0601439
0.113192
2.68978
0.205989
0.0198297
1.81615
0.0207274
3.8485
0.021989
0.0695026
0.0221807
0.0224248
0.023811
0.0254076
0.022019
0.0258158
0.0218016
0.020529
0.0211965
0.0223461
0.0322459
0.0198107
0.0198724
0.65745
0.0215786
0.354562
0.0228419
0.0247384
0.0207282
0.0591835
0.0197437
0.643309
0.0294888
1.0556
0.0512183
0.0216409
0.0218196
0.0212576
0.0205059
0.0220098
0.021233
0.0214529
1.5354
0.0209901
2.87511
1.118
0.166429
0.0197402
0.0212282
0.413643
0.887571
0.814607
0.207164
0.472561
3.10677
0.892182
0.0342763
2.86901
0.0211637
0.02309
0.0200078
0.0984084
0.0222236
0.0221212
0.0576395
0.022953
0.723483
0.0213816
0.15545
0.103812
0.924038
0.243539
0.123347
0.397931
0.0320227
0.0211548
0.0210551
0.0273469
3.56713
0.935086
0.0220183
0.0207032
0.827091
0.0448956
0.396857
0.0217673
0.0490697
0.023774
0.507057
0.0219531
0.0213846
0.0200578
0.0208652
0.0220087
0.0212133
0.0219273
3.30462
3.62568
0.0213503
2.67971
0.0215147
3.22059
0.244094
0.673669
0.020072
0.0346626
1.74138
0.0199488
1.22521
0.0214028
0.0208632
0.0271175
0.0220195
0.791558
0.021479
0.0206625
0.0944568
0.021395
0.0359486
0.0212111
2.68922
0.0203219
0.0223958
0.0259072
0.0220174
0.0308749
0.0248834
0.0233655
0.0227683
1.09301
0.0271899
0.0196803
0.0224018
0.0206976
0.0215226
0.0917383
0.0485296
3.92399
0.021501
0.0223558
0.472579
0.0211009
2.42204
0.0836159
0.019695
0.0218393
0.347714
0.0234484
0.0256953
0.0210976
0.0216481
0.0219126
0.0237067
0.546468
0.0280134
0.0335987
0.0219897
1.19492
0.141039
0.0215057
0.0214074
0.400384
0.0253607
0.850919
0.021401
0.0215117
1.08268
0.0219618
0.988658
0.0425239
1.99137
0.0218232
0.0210747
0.0209334
0.0261429
0.0225495
0.0215975
0.691844
2.69053
0.0223199
0.268735
0.558765
1.88888
0.92038
0.0680049
0.278655
0.0198474
0.911164
0.0209519
0.135229
0.042463
1.18283
0.0199545
0.0215389
0.0209686
0.0210534
0.400325
0.0272425
1.5742
0.0206618
0.0430946
0.443991
0.0241692
0.0209027
0.0241473
0.842683
1.02626
0.892042
0.115963
0.0214342
0.493485
0.0219238
0.0204545
0.0370482
0.0600366
0.101727
0.0872778
0.283296
0.32811
0.0217763
0.0898034
3.70764
1.53068
4.99313
2.31685
0.930451
0.0814369
0.398168
0.732494
0.0239365
0.0243009
0.022354
0.688956
0.886044
2.45311
0.0227492
0.246357
0.021537
0.0222981
0.0210668
0.0268775
0.0218559
0.170002
0.0223435
1.89804
0.0215003
0.0217166
0.0224431
2.04187
0.353507
0.0240432
1.38928
0.022314
0.47444
0.0221184
0.0277783
0.0236889
0.0212529
0.0206753
0.0260006
0.788818
0.0198601
0.0220224
3.03694
2.97426
0.0324867
0.0220404
0.022534
2.73335
0.021055
0.0223481
1.96963
0.0223959
6.47122
0.0204485
0.0230181
0.0298564
2.21602
0.0220057
0.0217768
0.021681
2.32462
0.0225754
0.0204754
0.0264148
0.0215699
0.956417
0.0206571
3.20934
0.0213168
0.0446012
0.257601
0.0246324
0.0219299
0.0208553
0.0208489
0.0328167
2.07183
3.04467
0.0907262
0.0425842
0.0211578
0.027877
0.0214903
0.0222473
0.118161
0.0203836
3.1132
0.0212962
0.0203875
0.408284
0.0205928
0.0213048
0.256991
0.0212945
0.0220871
0.0226775
0.0208036
0.0350157
0.0220151
0.0235118
0.148216
0.0211164
0.209836
0.384503
0.926439
0.022401
0.681512
0.0261694
0.021361
0.0938767
0.408008
0.029301
0.0539278
0.0219067
0.0208398
0.0254034
0.0195763
0.0214689
0.0224948
0.0233046
0.139442
0.939102
0.0236829
0.0202686
0.0264613
0.210106
0.0213749
2.08878
0.0283235
0.0551045
0.0212663
0.0215082
0.14956
0.218439
0.0232103
0.0212116
0.0214273
0.0217154
0.446437
0.0209426
0.0243593
0.0278116
0.022121
0.137731
0.0221699
0.0208392
0.0242181
0.0203171
3.08409
0.128355
0.0206887
0.297017
0.0219027
0.126665
0.0298682
0.0223825
0.0223732
0.682669
0.0206935
0.0206834
0.0312601
0.0231407
0.147343
0.0212242
0.177674
0.0224965
0.0233043
0.0215702
3.65218
0.968401
0.0202543
0.716415
0.0235533
0.0939588
1.29895
0.118506
2.87076
0.689828
3.6446
0.0207802
0.506727
0.410329
2.45709
0.0244316
0.713801
0.288233
0.0216271
0.0253386
0.565957
0.0208972
2.88774
0.0255261
0.392656
0.680811
0.84823
0.0230725
0.0828803
0.0556671
0.0223057
0.84877
0.0250371
0.0229167
0.0348943
0.0246739
0.328085
0.502351
0.0219047
0.0206976
0.0213128
0.265154
0.365783
0.0882764
0.0220619
0.306725
0.0266166
0.0205507
0.0212627
0.0227751
0.0224586
0.020674
1.32121
1.14385
0.0202681
0.0487259
0.271199
0.428052
0.0220512
0.0216646
0.0257455
0.665699
0.024523
2.70526
0.0377445
0.328218
0.0223524
0.020165
0.0212343
0.0232086
0.0661129
0.0206378
0.0201424
0.0214096
0.299808
0.230626
0.0200411
0.0240566
0.0233438
0.027313
0.19404
0.0211586
0.0254954
1.00139
0.0255308
2.46285
0.48392
0.036044
0.67139
3.6133
0.617768
0.0926386
0.66319
0.021794
0.0221418
0.021614
0.0209948
0.10007
0.0259988
0.0218088
0.021569
0.0215829
0.120033
0.0214576
2.69631
0.0222343
0.0373961
0.0211556
0.0207503
0.0228572
0.0691525
0.0222339
0.021406
0.0228376
0.0211003
0.0561877
0.027289
0.0205456
0.0236249
0.0288914
0.0201516
0.57785
2.55373
0.169126
0.0219736
0.0208866
0.127947
3.18828
0.141366
0.0414062
0.0256789
0.42666
0.0457331
0.0220995
0.0221285
0.655797
0.0207389
1.3166
0.0214555
0.0221668
0.0395113
0.0206233
0.0207688
0.0197169
0.314621
0.214646
3.96559
0.0232271
0.47563
0.0666286
0.0209332
0.0206796
0.193674
0.0214101
2.18104
0.0662577
0.058348
0.0469498
0.077834
0.0510653
0.0215126
0.861852
0.0233107
0.450001
0.431877
0.0209826
0.178099
0.0890639
0.381343
1.74434
0.0220716
0.710532
0.0207252
2.94247
0.0424356
1.43671
0.836691
0.0208119
0.0211946
0.631551
0.0781614
2.8563
0.309972
0.0196927
0.0205889
0.0271769
0.0266721
0.0215316
0.857716
0.0215986
3.26978
0.0213821
0.0640133
0.0233588
0.13114
0.0202437
0.313728
0.0199605
0.0444638
0.0197001
0.0262007
0.0212938
0.040272
0.0218107
0.0214293
0.837297
0.0208582
0.0208097
0.349472
0.0212591
0.074134
2.74165
0.313106
0.0213476
0.0203335
0.0405244
0.522789
0.0253253
0.0294494
0.0457689
0.735025
0.0198937
0.322424
0.0253104
0.866712
0.0495003
0.0214228
0.0271585
0.0228653
0.731536
0.390495
0.315644
0.0256877
0.365083
0.92209
2.52695
0.0208391
0.0219495
0.0252483
0.0208156
0.0208213
0.0201037
0.0212305
0.0236
0.0205549
0.020136
0.0208102
0.0201117
0.0207322
0.0257803
0.0214568
3.46549
0.0229543
0.0198814
0.705465
0.0264091
0.697406
0.531232
0.119859
4.63821
0.0213383
0.319613
0.0219177
0.505768
0.0212686
0.321938
0.104089
2.90499
0.0211308
0.0218999
0.113296
0.0838204
0.077289
0.020301
0.0213056
0.799092
0.0339033
0.0286876
0.0219499
0.0220621
3.06733
0.0214702
0.0237437
0.512353
0.665946
2.92543
0.0227932
0.0204352
0.0220572
0.0200488
0.0195129
0.918383
0.568759
0.0195979
0.0209192
0.577729
0.0254049
0.02279
0.0218532
0.0347361
0.0208508
0.019688
0.020895
0.0244639
0.0220927
0.0262308
0.405546
0.689247
0.0319305
0.026394
0.0215342
2.2823
0.150387
0.036033
0.0218013
0.123207
0.0322137
0.0212859
0.0205433
0.0206735
0.13253
0.0268354
1.41589
0.455307
0.779777
0.0215486
0.0671267
0.494795
2.67969
0.543269
0.431045
0.021485
0.42065
0.0260736
0.0996419
0.0216879
0.759992
0.0220443
0.0275857
0.0219332
0.585446
0.0212473
1.56122
0.408384
0.022856
0.0201036
0.029934
0.0224129
0.0216088
0.0266152
0.553948
0.0211371
0.024005
0.0211762
1.24061
0.0238973
0.0231452
0.0217565
0.0215485
0.0233539
3.79366
0.0308983
0.0217357
0.0469613
0.871513
0.0207218
0.36446
0.0206494
0.0215133
0.585729
0.021661
0.0216709
0.0213445
0.0210468
0.0300507
0.0233813
0.0290301
3.71448
0.0239948
0.0208953
0.0460897
0.318695
0.0213535
0.130385
0.0203601
0.726443
0.0212197
0.0239902
0.401022
0.0206481
0.0228933
0.0218691
1.30948
1.50189
0.0206969
0.798402
0.0197304
0.020169
2.8939
0.021139
0.0293873
0.0371883
0.0434375
0.055826
0.0679505
0.0208502
0.025771
0.0201638
0.164603
0.394777
0.0233146
0.029174
0.0207448
0.70223
0.0215435
0.332093
2.48662
0.0219116
0.0205172
0.044672
0.124518
0.223784
0.0205338
0.0197413
0.0706102
0.0219499
0.0204105
0.0268021
3.43906
0.025655
2.50218
0.0216581
0.619436
0.0197206
0.0298889
0.22332
0.131305
0.436087
0.0215096
0.0207128
0.0773157
0.0212796
0.0211153
0.301934
0.318148
0.0663313
0.0215859
0.711808
0.768762
0.907792
0.0234982
0.0218936
0.0213662
0.025568
0.582488
0.031285
0.0203596
3.13229
0.70764
0.503707
0.0361276
0.0217293
0.133096
2.53576
3.35614
0.391519
0.0208578
0.0709754
0.0263932
0.558179
0.588543
3.07613
0.0479974
2.3944
0.0202517
0.0206833
0.0214341
2.35462
0.021063
0.0232289
0.326834
0.026805
0.0304667
0.0206347
0.0217921
0.0274969
0.41611
0.168924
0.0214611
0.0212941
0.0260704
0.0793967
0.0214029
0.0271088
0.190147
0.0212794
0.376565
0.882313
0.695716
0.0217319
0.0250952
2.83008
1.01892
0.0210762
2.82477
3.29027
0.0218823
1.53508
0.0226407
0.0254985
0.040712
0.022137
2.41048
0.106228
0.0212087
0.0218259
0.135488
0.855511
0.022436
0.0265946
0.96354
2.91572
0.0218421
0.43186
0.351923
0.0203604
0.020667
0.0251413
0.133342
0.02288
0.0690898
3.86395
0.0205694
0.0578833
0.581522
0.0747116
1.86703
0.0206169
0.076929
2.38183
0.934345
0.0262012
0.0251175
3.42651
0.610297
0.0246236
0.0208977
0.90304
0.0461791
0.0363977
0.0234939
0.55052
0.0203848
0.0218303
0.239677
0.108558
0.0435007
0.288297
0.100603
0.0225595
0.0219243
0.0968278
0.0211901
0.135335
0.673828
0.551464
0.0230933
0.0224277
0.440997
0.0214221
0.0199877
0.734011
0.0210542
0.021695
3.05164
0.022945
0.0212828
0.0848985
0.0452842
0.0260244
0.556749
0.528412
0.415775
0.051259
2.3018
0.0895298
0.143271
0.0237667
0.0240365
0.0517074
1.49746
2.41913
0.0249176
0.0206264
0.129422
0.0324218
0.412097
0.0688495
0.0250494
0.0231875
0.025199
0.0698865
0.0201918
0.0239242
0.0224346
0.0263423
2.45361
0.0241514
0.0561064
0.0213506
0.538722
0.411431
0.0262047
0.0473383
0.0243629
0.129174
3.23961
0.0577846
0.0211603
0.0220616
1.67286
0.0210299
0.0237888
0.928011
0.023818
0.0248674
3.80203
0.0213531
0.0206795
0.949453
0.0696212
0.0234376
0.554804
0.68792
0.0206415
0.0273873
3.37343
0.0255148
0.0258928
0.0212447
0.0230457
0.140958
0.0378928
0.0490291
0.0196619
0.0238399
0.0263968
0.0199766
1.23444
0.0238862
0.634261
0.148983
0.0206544
0.0223564
0.549639
0.828038
0.0213533
0.0226983
3.28454
0.027905
4.30613
3.15545
0.0252322
0.373283
3.75416
0.101746
0.0214612
0.0241077
0.233867
0.0229861
2.26104
0.0356298
0.0206672
0.613845
0.054532
0.0442897
0.0251625
0.162487
2.46157
0.0212551
0.0221338
0.0268144
0.0582244
0.0234186
0.0207138
0.465297
1.00746
1.28852
0.501811
0.0896308
0.0234762
0.0420988
0.0205403
0.0195966
0.515604
0.0219467
0.0258421
0.0359833
0.0229754
5.94513
0.0220271
5.17238
6.6298
0.0399367
0.0963142
0.268342
0.0215332
0.0235204
1.01586
0.0202311
0.0755008
1.43121
0.076646
0.182045
0.0210959
0.430014
1.01134
0.455942
0.442937
0.0197922
0.48429
0.902832
0.146651
0.621497
0.0221274
2.63573
0.289347
0.329371
0.504237
0.0212671
0.819663
0.551494
4.22092
0.34373
0.342327
2.66562
3.08915
0.0231753
0.0237307
4.15172
0.0206412
0.021523
0.0199708
3.40668
0.0509581
0.0255203
2.31005
0.0211391
0.708638
0.610544
0.0349018
0.020546
0.0202155
0.478013
3.39535
0.0210687
0.0217057
0.0619777
0.123679
0.0298584
0.0210155
0.0226546
0.0214407
0.0205933
2.41345
0.03924
0.365042
0.432726
0.0230185
3.17692
0.0211523
0.0214486
0.0219227
0.0210975
0.0608915
0.0216593
0.0231146
0.45627
0.0218618
0.0287688
0.021668
0.0211502
0.135916
0.0215099
0.019771
0.0210393
0.0231346
0.0277474
0.0224995
0.0204115
0.0731461
2.42113
0.0425349
0.0230211
0.0215711
0.0213467
1.54215
0.0223346
0.39987
0.0213574
0.0935883
0.0202194
0.0243487
0.0206384
0.0255829
0.401458
4.06116
2.46517
0.0251034
0.950782
0.0901375
0.38944
0.0207606
0.640608
1.59294
0.0203772
0.28202
2.6325
2.8606
0.0431948
0.0215469
0.0288502
0.129651
0.0215219
2.31594
0.609847
0.0224626
0.448499
0.0219721
0.0217685
0.330727
0.0223863
0.0224444
3.45611
0.840174
0.0679589
0.0237763
0.0222107
0.524209
0.0219862
0.649337
0.036069
0.020384
0.0311615
0.0215623
0.840924
0.392134
0.0249278
0.280712
0.0242368
0.419909
0.396791
0.104407
0.636792
0.0226296
3.40149
0.0236995
0.0245665
0.0255447
0.031281
0.381586
0.021458
0.0262181
0.0222195
0.48551
0.236546
1.29143
0.235546
0.021832
0.0219989
3.49592
0.655488
0.0214911
0.0591743
2.73629
0.14538
1.1563
0.624276
0.0761136
0.0333635
0.0300281
2.22535
4.9889
0.076255
0.0224832
0.0224779
3.0315
0.0218709
0.0217723
0.500591
1.00062
0.042895
0.0245083
0.0880221
0.353409
0.0203998
0.021904
0.0206286
1.44125
0.0262584
0.0732407
0.0216825
0.336294
3.31651
0.130877
1.19887
0.0269418
0.0228707
0.0658567
0.439785
0.078111
0.0248389
0.337892
0.393756
0.0206123
0.0320641
0.0220103
0.0438333
0.0745038
1.67117
0.0228529
0.0319018
0.0435051
0.168989
0.172015
2.04672
0.204199
0.0411058
0.332831
0.0218342
1.57491
0.0330588
0.0321668
3.80015
0.0293134
0.199289
0.020207
0.0214374
0.0219334
0.279579
3.3202
0.0647439
3.31879
0.0217726
0.598526
0.0209443
0.332201
0.0233239
0.0209217
0.0214585
0.0240338
0.407946
0.0342143
0.0275851
3.45685
5.16003
0.530641
0.0205436
0.021365
0.0273467
0.0662781
0.114035
0.0215546
0.0220134
0.330791
2.89311
3.13061
0.479576
0.0288724
0.260608
0.232017
0.0216592
0.021295
0.359787
0.0446676
0.487297
0.0206034
1.32913
0.023189
0.0214962
0.173067
1.69713
0.0230163
3.39789
0.0701301
0.0214118
1.57261
0.0234708
0.0303498
0.0211726
0.0213376
0.054936
0.0404559
3.01592
0.0271322
0.0233956
3.26126
0.731782
0.443158
0.0243386
0.671665
0.0217699
0.0478911
0.650613
2.42279
0.0278247
0.490277
0.399658
0.0214705
3.62468
0.0508091
0.0205612
0.0712128
0.148888
0.416993
0.0601726
0.0210552
0.197288
0.0213107
0.0205173
0.0209024
0.0312105
1.33573
0.0500649
0.112908
0.0245037
0.603813
0.0240592
0.0696907
0.663217
0.0212401
0.492271
3.0436
0.454619
4.06424
0.0229344
0.0215367
0.0758574
0.0670327
0.0218701
0.0224371
0.21946
0.185189
2.8279
0.0218337
0.0265414
0.440037
0.0215266
0.600118
0.0212579
0.0216144
0.0255195
0.0213906
0.292089
0.0223404
0.0214478
0.0205794
0.0618516
0.0201526
0.138126
0.022085
0.0215094
1.13464
0.212975
0.057461
0.0219308
0.0243208
0.0598267
0.0375009
1.62593
0.0204866
0.313999
0.0228082
0.586301
0.0241533
0.0216038
0.0215395
0.0346913
0.0815132
0.0215419
0.063128
0.0223706
0.0794481
0.0215202
0.0212624
0.0214062
0.0362659
2.21422
0.737401
3.09004
3.00015
0.0229042
0.0409884
0.0225733
0.681571
0.984929
0.0260881
0.29444
0.18669
1.70587
0.630003
0.0205171
0.111826
0.0222979
0.0272666
0.64203
0.0205551
0.0212164
2.29572
3.22927
0.0239737
0.0259427
0.0274789
0.0240023
0.333508
0.0462028
0.0217078
3.24124
2.28043
0.588034
1.30719
1.42995
0.0295486
0.516499
0.788089
1.69282
0.0219382
3.81083
0.0215358
0.022719
0.378007
0.0684485
0.658979
0.0215266
0.212
0.460458
0.0214285
0.0211159
0.0228958
0.0593233
0.0262523
0.15903
0.89112
0.505327
0.399356
3.34867
0.023512
0.0218147
1.03331
0.543864
0.0222202
0.0257241
0.0665011
0.11029
0.0256364
0.0205671
0.698019
3.39239
1.84201
0.0205568
0.388535
0.0218851
0.0199924
0.027929
0.500277
0.183608
0.0783278
0.0197463
0.3986
0.0199805
0.0218426
3.46928
0.350882
0.0226533
0.0257808
0.0235784
0.0251299
0.0298839
0.0241074
0.0206331
0.471814
0.0222227
0.0218132
0.0234926
0.021411
0.0223499
0.49987
0.649694
0.0233391
0.415604
0.196342
0.668001
3.0859
0.0235549
0.13907
0.0210645
0.0276062
2.95861
2.80302
0.0228289
2.97579
0.494667
0.861339
5.75155
4.00974
3.83577
0.0228611
0.39798
0.0236068
0.440796
0.0201822
0.0240779
0.0593089
0.127822
0.0214842
0.0233954
0.0449208
0.0219165
3.73789
0.025925
2.6233
0.0238806
0.02049
1.91682
0.021436
5.59587
0.0217037
0.0889158
0.37325
0.0223883
2.95423
0.0211332
0.387359
3.72059
3.44222
0.0208717
0.280663
0.0236513
0.0266836
0.0204957
0.0226595
0.419821
0.219644
0.394167
0.0761938
0.0288083
0.0215141
0.313946
1.13106
0.417602
0.349581
0.0249579
0.362993
0.636666
0.026906
1.63654
0.0260058
0.346075
0.0243547
0.0223219
1.14703
0.0214518
0.0444821
0.0247201
2.88873
0.0196282
0.0215626
0.0195792
0.0236505
0.0218971
0.613334
3.2067
0.0421288
1.41107
0.035994
0.214923
0.0238488
0.0407321
2.66365
0.490875
0.0217059
0.0207962
1.54062
0.0202862
0.134622
0.0215473
0.0213943
0.0213432
3.66903
0.507608
0.0233262
0.588734
3.92845
0.0226744
0.0243437
0.0210912
0.0265294
2.46517
3.47649
6.24855
3.43513
0.0382942
0.0584632
0.0229296
4.51567
3.41819
0.0227868
0.0216452
0.644236
0.025063
0.0257808
0.0392356
0.495458
2.93252
0.247897
0.0218574
0.0496752
0.418653
0.0230365
0.0201815
3.30922
0.0231227
0.158725
0.0239469
0.0216149
0.0213623
0.384483
0.0377304
0.023416
0.0807636
3.71442
3.36536
0.0238244
3.92701
0.0220124
0.021048
0.138879
0.0234696
0.0213041
0.255993
0.0213947
0.0281917
0.0461268
0.0636611
0.0298064
0.0213573
0.0214945
0.369591
0.0302813
0.0212775
0.0218765
4.1829
0.0444603
0.0219506
0.036075
0.0235286
0.349761
0.0396803
2.16694
0.182897
0.197401
3.45098
0.0260234
0.0662871
0.023069
0.621609
0.0314483
0.420787
3.08196
0.309565
0.0272629
0.0208984
0.0205976
1.48908
3.96966
0.95418
0.0217862
0.0544704
0.0213596
3.22072
1.25148
1.12492
0.0208217
3.59014
2.15717
0.0211666
3.98409
1.53192
1.21695
0.0214431
0.0431499
0.0977703
0.0202357
0.0756695
0.360577
0.423105
0.0389197
0.627689
2.69297
0.197964
0.0245851
2.70085
0.0406501
0.0232173
3.34325
0.0449712
0.027217
3.05114
0.362309
0.34912
1.02775
1.56265
0.0228467
0.179069
0.0227
0.0206252
3.60148
0.0353428
0.0209314
0.0311223
0.0216914
0.0227493
0.0338349
0.887817
0.0242473
0.0734773
2.41556
0.0213341
0.0241129
0.0246262
0.0230256
3.49695
0.668521
0.023095
0.059343
0.0210189
0.0367778
0.471983
0.210194
0.0259432
0.0212301
3.012
0.0201871
0.34933
0.0210908
0.0820624
0.103068
0.12705
0.0226733
0.681012
0.142808
0.022835
0.378313
0.0199524
0.0224456
0.0214326
0.452019
0.0229801
0.0454427
0.00790665
0.343292
0.0209718
0.0589102
0.254992
3.72102
3.29269
0.0388091
0.0238877
0.0247181
0.0319512
0.40276
0.0213383
0.0465123
5.35886
0.0217652
0.0236605
0.215789
2.3389
0.0323482
0.128195
0.0367807
0.125346
2.22864
3.16216
2.37259
3.00621
0.349508
2.92385
2.7918
2.40896
0.624575
0.021624
0.0219743
5.49771
0.0217615
3.2187
0.196297
0.0214411
0.113249
0.0233284
1.54567
0.0217075
0.632063
0.232752
0.0206301
0.0273566
0.0253227
0.679196
2.41542
0.0216408
2.42024
0.266428
0.0691423
3.91279
0.0208566
1.31209
0.206751
0.0265015
2.82227
0.0705737
0.3656
0.0235382
0.0231343
0.0219165
1.14839
0.776969
0.021645
0.0207944
0.0702115
3.25543
0.0675221
0.0447989
0.0266448
0.0272175
1.55781
0.410029
0.289384
2.19846
2.46235
0.0314714
0.0709566
0.023036
0.0284368
0.031851
2.25514
3.40182
0.0371216
0.0219076
0.0209853
3.3255
0.0214941
2.91225
0.0210197
1.3538
0.0213352
3.69868
0.0203661
0.0214647
0.0599442
0.156866
0.0612896
0.0213544
0.023457
0.0213978
0.0222824
0.522556
0.0224434
0.659524
0.40202
0.0265252
0.0206279
2.28321
0.0407535
0.0229615
0.0273368
2.83252
3.18013
1.57968
3.57164
2.67663
6.60853
1.28935
0.0209039
0.89078
2.77718
0.0239493
0.0208395
0.0250414
0.261816
0.0220679
0.628333
0.0215712
1.70901
0.0237275
0.0219611
0.412133
0.0347747
0.121112
0.0390904
0.557277
0.0237471
2.73095
0.203154
0.635804
0.0226547
0.0279571
0.572478
0.028634
1.45815
0.782655
3.11171
0.0223384
0.3735
3.44751
0.0231605
0.060124
0.022741
0.0209859
0.272873
1.59957
0.0222915
0.0219217
0.520325
0.268933
0.0410364
0.050295
0.289162
0.0209179
0.0215051
3.30564
0.0217802
0.364092
0.0213345
0.0222278
0.0228632
0.022888
0.0202793
0.18361
0.0268334
3.74694
0.326199
2.9076
0.0240449
0.122698
0.0755177
0.095104
0.02296
0.0208135
0.0212591
0.0219903
0.0246576
0.0216884
0.220026
0.0231817
0.0462716
0.0236678
0.396898
1.42942
1.06448
0.280812
0.259237
2.83096
0.245567
2.43008
0.0218724
2.32574
0.0334172
0.11192
3.53581
0.0296094
0.0214065
0.0254981
0.615463
0.0222044
0.112057
0.0208764
0.352118
0.0203681
2.84044
0.225559
0.0232216
0.0511206
0.0780997
0.806408
0.0215114
0.0213932
0.0457761
0.0217467
3.79111
0.431526
3.82036
0.123337
0.0323713
0.0227899
0.0205147
0.0626656
0.0253899
2.99946
3.01593
0.0253618
0.021131
0.0270126
2.92097
0.0214274
0.0216963
0.0212122
0.0370694
2.91549
0.0239245
0.0218931
0.0218661
0.0536721
0.0212579
0.0273463
0.0217585
0.02594
0.0704241
0.329173
0.0220121
0.26442
0.0218468
0.131217
3.07795
0.187625
0.0252915
3.48846
1.2735
0.0218724
0.093045
2.78653
0.0377032
1.82601
0.315268
2.80107
0.0219062
3.0928
0.204618
0.0306203
0.126238
0.311434
0.0204959
0.475925
0.0401213
0.204189
0.0212327
0.633964
3.60789
4.05749
0.128753
2.22417
0.0483476
0.0211334
0.0262188
0.0264119
3.14231
0.0227691
0.0268759
0.0218467
0.0434908
0.297359
0.0219018
0.0214997
0.0212694
0.35193
0.0214914
0.0219289
0.0557856
0.0715861
0.0268055
0.226713
0.549436
0.0254613
0.210392
0.0214933
0.0216371
0.0214143
0.0251527
0.0379116
0.0486026
0.205643
0.081348
0.141521
0.0214321
0.126706
2.40178
0.0201396
0.0344917
0.0224416
0.0204366
0.561928
5.17579
0.0264978
0.021561
0.0285143
3.18389
0.550611
0.036478
0.0215628
0.18648
0.032701
0.316546
0.136369
0.0336757
0.122078
0.409151
3.49327
0.0282816
1.29849
0.137236
2.82893
1.61003
3.46442
1.91174
3.36454
0.0372517
1.305
0.0705998
0.0333447
0.212439
0.205866
3.68701
0.0328581
0.064282
0.0261296
0.023998
0.0377391
0.050422
0.0250141
0.0703745
0.022392
0.0277337
3.57101
0.0212295
0.0629033
1.40994
0.0775335
0.119194
0.0202044
0.0357393
0.0371354
3.67257
0.100785
0.121258
3.21861
0.0265684
0.0384843
0.122962
0.122905
0.0375936
0.0281778
2.94991
0.0205335
0.144299
0.021734
0.231817
0.0623881
0.0216598
0.0217966
0.0463548
0.0344181
3.20416
0.0262907
3.8358
0.0232947
1.38809
0.108189
0.0405383
0.102193
0.0569764
0.0211349
0.0243194
0.691244
0.0385726
0.0222358
0.629865
0.0514639
3.48996
1.07978
2.44038
0.0744968
3.18212
0.0507936
0.190115
0.253961
0.127983
0.0277028
0.0290468
0.396503
0.0232477
0.0420792
0.0242438
0.723747
0.189909
0.0206194
0.0348095
0.0299275
0.03083
0.653189
0.0226517
0.0427535
0.0479755
0.385742
0.0231829
0.0214124
0.219311
0.0216232
0.0340028
0.508661
1.21037
0.0275347
0.149568
0.0315908
2.33013
0.0253922
0.0577546
0.0539661
0.0228242
0.0368196
0.342278
2.04645
0.130554
1.01614
1.75346
0.60631
1.94539
0.0448068
0.0214259
0.936574
0.0292911
0.0287273
0.0202707
0.0216984
0.0235775
0.0383665
0.356366
0.398062
0.538126
3.37248
0.0362596
1.89262
0.0222205
0.0259305
0.85757
0.0211493
0.612698
0.0219687
0.15381
0.631129
0.049317
0.0263116
0.0332958
3.04014
0.0514829
0.0436451
0.996299
0.0259639
0.120476
0.113751
0.0257988
0.0340517
1.17865
0.0216535
0.584503
0.0527333
0.33134
0.0688295
0.0535467
1.99534
0.0487447
0.0351486
3.54577
0.043919
0.0274968
0.0383338
5.77466
0.426446
0.0261274
0.0470804
0.0213102
1.59582
0.171062
0.66341
0.572979
1.10616
1.60409
0.0625732
0.0370401
0.297268
0.236478
0.0208122
0.584411
0.686857
0.0214935
0.0229947
0.107711
0.0259541
2.29162
0.23551
0.0282339
0.0268081
0.0566783
0.162058
0.0574207
0.023014
0.0522995
0.0347401
0.0258364
1.8406
0.0222207
0.0226374
0.0347616
0.0227861
2.45794
0.0229767
0.0231796
2.35991
1.57322
0.0221778
0.0205287
0.115033
0.0364765
0.0218066
0.676068
0.278335
0.0235648
0.0261937
0.547891
0.0231923
2.80663
0.337792
3.80224
0.0650233
0.226093
0.701379
0.0230507
1.40703
2.7775
1.137
0.0246853
0.0236426
0.0233819
2.32079
0.0385904
2.27882
0.527468
0.0213695
0.0225322
0.559761