/*--------------------------------*- C++ -*----------------------------------*\
| =========                 |                                                 |
| \\      /  F ield         | OpenFOAM: The Open Source CFD Toolbox           |
|  \\    /   O peration     | Version:  v2012                                 |
|   \\  /    A nd           | Website:  www.openfoam.com                      |
|    \\/     M anipulation  |                                                 |
\*---------------------------------------------------------------------------*/
FoamFile
{
    version     2.0;
    format      ascii;
    class       surfaceScalarField;
    location    "100";
    object      phi;
}
// * * * * * * * * * * * * * * * * * * * * * * * * * * * * * * * * * * * * * //

dimensions      [0 3 -1 0 0 0 0];
oriented        oriented;


internalField   nonuniform List<scalar> 
27663
(
0.470833
-0.160787
-0.310045
0.165045
-0.10541
-0.0596349
-0.480735
0.526346
-0.0456114
-0.186486
-0.138686
0.325172
0.379521
-0.418444
0.0389227
-0.277538
-0.161336
0.438874
0.221308
0.0606068
0.0787656
0.0862796
0.257843
0.176978
-0.434821
-0.356137
0.491985
-0.135848
-0.166974
-0.0651599
0.232134
0.000237728
-0.480972
0.0765553
-0.263041
0.315163
-0.526976
0.211812
0.425007
-0.0454856
0.55767
-0.39311
-0.16456
0.551593
-0.364361
-0.187232
-9.45501e-05
0.0166629
-0.0165683
0.505429
-0.245789
-0.25964
0.441329
-0.388894
-0.0524345
0.156348
-0.433886
0.124989
0.34944
-0.474429
0.399338
0.158332
0.156457
0.0442645
-0.200722
-0.473366
0.477135
-0.00376915
-0.257603
-0.0211315
0.278734
0.136403
0.334429
0.308059
-0.550746
0.242687
0.400961
-0.583582
0.18262
0.588462
-0.164073
-0.424389
-0.469168
0.494468
-0.0253004
-0.1787
-0.15987
0.33857
0.452197
-0.214659
-0.237539
0.29729
-0.0921534
-0.205137
0.446805
-0.255987
0.4717
-0.254526
-0.217173
0.255868
0.131977
-0.387845
-0.358901
0.120861
0.23804
0.437517
-0.285675
-0.151841
0.394877
0.193585
0.336408
-0.316245
-0.0201634
0.451714
-0.315311
0.617649
-0.327599
-0.29005
-0.159344
-0.00109969
0.160444
0.460617
-0.202774
-0.221222
0.31597
-0.094748
-0.0902441
0.323078
-0.487373
0.164295
0.159119
-0.448514
0.289395
-0.0858167
0.0693475
0.0164692
0.510794
-0.202735
0.239946
-0.44032
0.200374
0.302438
-0.362832
0.0603936
0.290016
0.0463924
-0.444577
0.463145
-0.0185679
-0.162415
-0.0631471
0.225563
0.512975
-0.197812
0.145092
0.296237
0.173053
0.124237
-0.251581
0.455105
-0.203524
-0.561711
0.36287
0.198841
-0.545267
0.289753
0.255514
-0.0935899
-0.295304
0.0809532
0.273219
-0.354172
0.222284
-0.18737
-0.0349139
-0.0633456
0.143729
-0.0803836
-0.371981
0.543459
-0.171478
-0.289889
0.235023
0.0548658
-0.28885
-0.205634
0.494484
0.272496
-0.384042
0.111545
0.0985046
-0.265479
-0.626603
0.36078
0.265823
-0.245476
0.194492
0.0509841
-0.0144039
0.000282856
0.014121
-0.541726
0.270948
0.270778
-0.272391
0.213293
0.0590979
-0.312979
0.231221
0.081758
-0.0902775
0.00446081
-0.495168
0.206318
0.0577233
-0.129822
0.0720983
0.0399522
-0.016169
0.0025648
-0.012158
0.00959321
-0.00717875
-0.00722511
-0.499095
0.0586625
0.440432
0.256422
0.195776
0.319766
0.297883
-0.156174
0.224482
-0.0683074
0.00367857
-0.359815
0.340937
-0.271685
-0.069252
0.0117806
-0.0118751
-0.188038
-0.0574374
-0.444558
0.339319
0.105239
-0.202591
0.043247
-0.286243
-0.026736
0.443283
0.00170152
-0.444985
-0.203078
-0.0693126
0.119501
-0.37992
0.260419
0.386627
-0.15257
-0.234057
-0.192423
-0.334552
-0.446418
0.446656
0.437161
0.00612182
-0.280893
0.361846
0.28382
-0.302375
0.0185546
-0.276061
0.0973607
0.43079
-0.43079
-0.142691
0.152535
-0.00984318
-0.380913
-0.0636642
0.0591177
0.366037
-0.425155
0.150972
0.0713117
0.189186
-0.480879
0.291693
0.267182
-0.0745824
-0.192599
0.132932
0.279677
-0.412609
0.357595
-0.321131
-0.0364639
0.522386
-0.314103
-0.208283
0.0911457
0.275799
-0.366944
-0.486694
0.0402763
-0.466426
0.0944449
-0.151503
0.0171377
0.134365
0.170063
-0.452618
0.282555
-0.173724
-0.00867852
0.182403
0.139716
0.246911
0.287187
0.0704075
0.0529177
-0.215333
0.00721655
-0.00465174
0.25114
-0.411928
0.383297
-0.139107
-0.24419
-0.277982
0.262285
0.0156971
-0.0138993
-0.00613432
0.0200337
0.126193
-0.273993
0.1478
0.075234
0.127867
0.124546
-0.19264
0.0680947
-0.290349
0.423281
0.0188418
-0.0128982
-0.00594366
0.202281
0.184818
-0.387098
0.338277
-0.247132
-0.206906
0.477669
-0.270763
0.285466
-0.530026
0.24456
0.12983
-0.411449
0.281619
-0.0191703
0.0975356
-0.0783653
0.603044
-0.258201
-0.344843
-0.467988
0.0558834
0.412105
-0.528847
0.234296
0.294552
-0.341703
-0.203564
0.382859
-0.263358
0.511451
-0.247764
-0.263688
0.0644631
-0.322066
-0.131232
0.3871
0.244595
0.266198
-0.0161455
-0.126546
-0.169974
-0.0390757
0.20905
0.175671
0.337304
-0.136204
-0.0152981
-0.118597
0.0994269
-0.333992
-0.452398
0.504418
-0.0520204
0.331723
0.0989425
-0.430666
-0.158103
0.15924
-0.0011371
0.106717
0.0364504
-0.143168
0.133049
-0.223601
0.0905514
0.175976
-0.474766
0.29879
-0.46811
0.0628546
0.405255
-0.140476
0.369031
-0.228555
0.416464
-0.286634
0.299184
-0.0319778
-0.267206
0.612647
-0.314892
-0.297755
0.348444
-0.208728
-0.429549
-0.022849
-0.300576
0.5272
-0.226623
0.0112521
0.0287001
0.17405
0.169865
-0.343914
-0.379238
-0.162488
0.126339
-0.43983
0.313492
0.179717
-0.0551711
0.13442
-0.201215
0.0667955
0.186639
-0.124508
-0.0621307
0.213655
-0.294337
0.0806821
-0.496432
0.177532
0.318901
-0.00242211
-0.0114772
0.412848
-0.286509
0.307476
-0.51311
0.0711955
0.151412
-0.222607
-0.0605665
0.194986
0.227287
0.244413
0.504214
-0.278294
-0.22592
0.0120339
0.537828
-0.312518
-0.22531
0.473576
-0.215838
-0.257739
-0.149297
0.220492
-0.34097
-0.155462
-0.437522
0.276186
-0.229772
0.455169
-0.225397
0.129399
-0.200121
0.0707217
-0.0578331
0.16455
0.300466
0.302578
-0.213467
0.135358
0.0781086
-0.160729
-0.294499
0.455228
0.217356
-0.0659446
-0.279584
0.347872
-0.0682872
-0.0188044
-0.48029
-0.108193
0.0104535
0.0977399
0.367869
-0.289554
-0.0783156
-0.0211629
0.191117
0.185936
0.324533
-0.237794
-0.0867384
-0.0326882
0.00812462
0.0245636
0.015002
-0.0368354
0.0218334
-0.0609366
-0.0344942
0.0954307
0.162164
-0.159258
-0.00290613
0.202899
-0.313945
0.111046
0.225357
-0.00323534
-0.222121
0.348138
-0.145857
-0.488246
0.465607
0.0226385
-0.0104458
0.150683
-0.140237
-0.137541
0.00680973
0.130731
0.226691
0.277524
0.527463
-0.300176
0.499827
-0.230552
-0.269274
-0.0214361
-0.147081
-0.144174
0.133729
0.112386
0.247431
-0.359817
0.330919
-0.302752
-0.0281668
0.318581
0.219247
0.172977
-0.10837
-0.0646069
0.120983
-0.32692
0.205937
0.323462
-0.0798513
-0.24361
0.361196
-0.248809
0.335224
0.277423
0.0719674
0.136319
-0.222998
0.0866794
-0.0320784
0.257435
0.0795135
0.21967
-0.492398
0.0244104
-0.0762342
-0.391891
-0.0772764
0.190066
-0.114832
0.215724
0.239381
0.163536
-0.439844
0.276308
0.249169
-0.213525
0.531228
-0.317703
0.222996
-0.155331
-0.0676642
-0.121678
-0.17589
0.297568
0.325301
0.103268
0.237669
0.201335
0.235826
0.412965
-0.173019
-0.047768
0.204225
0.0236743
-0.0338053
0.0101311
-0.498142
0.00989557
-0.0969056
0.223099
-0.0721837
0.374622
-0.502872
0.246705
0.256167
0.21574
0.108793
0.159471
-0.115126
-0.0443452
0.172577
-0.303826
0.13125
0.241817
0.255817
-0.497634
-0.312307
0.352643
-0.0403361
0.221767
-0.0887171
-0.487536
0.225314
0.262222
0.116793
-0.216629
0.0998355
0.0849142
0.0880628
-0.13973
0.00619076
0.27763
0.133789
-0.0790294
-0.0547597
-0.318872
-0.183999
0.114605
-0.351917
0.237312
0.146009
0.0769292
-0.278403
0.269703
0.0829393
0.204807
-0.280338
0.0755308
-0.0810438
0.140311
-0.426467
0.286156
0.573001
-0.178123
-0.200976
-0.349769
-0.512132
0.31947
0.192663
0.36063
-0.284615
-0.0760145
-0.468834
0.311246
0.157588
-0.189055
-0.0257934
0.00218456
0.0236088
0.398289
0.174711
0.245166
0.0857523
0.43608
-0.295769
0.0568931
0.102578
-0.00938116
0.0330554
0.258002
0.0654601
0.211828
-0.334531
0.122703
0.528953
-0.0985422
-0.43041
-0.221467
0.28593
-0.316677
0.441666
-0.253157
-0.0304959
0.283653
0.23732
-0.444225
-0.30856
0.0228846
-0.0233496
0.418417
-0.395067
0.129543
0.39941
-0.0124869
-0.145616
-0.0781599
0.479121
0.306475
0.245118
-0.398463
0.294233
0.10423
0.0810454
0.0259594
0.391437
-0.11894
0.221593
-0.0499133
-0.17168
0.0784027
0.0553864
0.235818
-0.0530593
-0.182759
-0.0872823
-0.105152
-0.00304098
-0.168945
0.352303
-0.183359
0.278043
-0.438722
0.160679
-0.111276
-0.0718162
0.0704155
-0.343324
0.272908
0.42966
0.00113009
-0.328913
0.0889662
0.239946
-0.163422
0.0804978
-0.250472
-0.366928
0.197983
0.18976
-0.192995
0.448813
-0.292465
0.355072
-0.240467
-0.324407
0.527362
-0.202955
0.487722
-0.487722
-0.0624943
0.0673101
-0.216607
0.195065
0.157238
-0.3542
0.261983
0.0922175
0.286538
-0.447267
0.099458
0.248414
0.478081
-0.158612
0.169092
0.0667259
0.11473
-0.396916
0.282186
-0.421524
0.120948
0.266556
0.25583
0.129562
-0.203631
0.0740691
-0.259089
0.329504
-0.276656
-0.181638
0.458293
-0.287132
-0.0670685
-0.0579861
-0.212334
0.27032
-0.265556
0.429092
-0.0198436
0.0680904
-0.0482469
-0.0129517
-0.0158593
0.0288109
0.189014
-0.474726
0.285712
-0.0214013
-0.00128786
0.0226891
0.183962
-0.173229
0.503878
-0.330649
0.476581
-0.169105
-0.48145
0.05066
0.508511
-0.228486
-0.280026
0.457087
-0.0308029
-0.426285
-0.240154
-0.10629
0.346444
-0.100928
0.116105
-0.314954
0.198848
0.13345
0.088316
-0.0837463
0.163271
-0.416107
0.252836
0.0975452
0.089094
0.162584
-0.123711
-0.0388731
-0.254557
0.496374
-0.0701798
0.133956
-0.0637762
-0.250491
-0.222289
0.239588
-0.0172991
0.123179
-0.31583
0.192651
-0.0425441
-0.0760531
-0.0401053
-0.108586
0.148691
0.219743
0.288768
-0.118532
0.0759876
-0.367727
0.248796
0.118931
0.450231
-0.3355
0.303312
-0.159997
-0.286178
0.446174
0.292491
0.21896
-0.425405
0.424707
0.000698137
0.138629
0.277835
-0.363155
0.123001
-0.208635
0.32474
-0.192065
0.541505
0.419931
-0.141889
-0.319406
0.131918
0.187488
0.495117
-0.330184
-0.164933
0.358347
-0.0102085
0.263007
0.104862
0.334832
-0.231563
-0.281548
0.0482093
-0.0607151
0.0125057
0.371198
-0.0701498
-0.301049
0.162532
0.342897
0.136271
-0.378872
0.242601
0.27054
0.179613
-0.450153
-0.138156
0.0679758
0.0125468
-0.480657
0.409199
-0.245928
-0.468868
0.0844308
0.384437
0.313219
-0.440052
0.126833
-0.315204
0.0939826
-0.47163
0.0027623
-0.0176687
-0.396115
0.228744
0.167371
-0.0126762
-0.161048
0.0977468
-0.0400234
0.604673
-0.269448
0.443266
-0.197452
-0.245814
0.359543
-0.223271
-0.164502
-0.220005
0.384507
0.0254887
0.332858
0.106926
-0.144115
0.037189
-0.182758
0.453299
-0.0282012
0.0591765
-0.0309753
0.125927
0.235269
-0.0717517
-0.161588
0.23334
-0.453978
0.47441
-0.0204319
-0.150068
0.278193
-0.128125
0.0618766
0.276401
-0.0597827
0.067834
-0.00805131
-0.049564
-0.0979201
0.147484
-0.413798
0.182501
0.231297
-0.468276
0.314416
0.15386
0.103029
-0.143134
0.300371
-0.495882
0.195511
0.325088
-0.0766359
-0.248452
-0.11325
0.405067
-0.291817
-0.134534
-0.252807
0.387341
0.423739
-0.28511
-0.107182
0.327855
-0.220673
-0.193454
-0.27538
-0.292308
0.364275
0.261646
-0.269727
0.00808117
-0.26563
0.454816
0.25789
0.185376
0.272271
0.111026
0.520245
-0.331704
-0.188542
0.238018
-0.327319
0.0893004
-0.521444
0.23936
0.282084
-0.0920399
-0.395875
0.487915
0.365475
-0.239548
-0.180362
-0.264196
-0.29101
0.140942
-0.387203
0.273953
-0.125042
-0.0675989
-0.281447
-0.162359
0.146213
-0.519234
0.304892
0.214342
-0.0958939
0.0773262
-0.12689
0.362364
0.0278679
-0.390232
0.412853
-0.0504893
-0.00751748
-0.012063
0.0195805
0.23086
0.0942283
0.172674
0.0489195
0.137897
-0.150346
0.0124486
-0.118672
0.35634
-0.237668
-0.0955163
-0.148586
0.244102
-0.228486
-0.290748
-0.0993859
-0.0427827
0.142169
0.228065
-0.0205679
-0.207497
-0.328872
0.110514
0.218358
0.0483603
0.114224
-0.0856325
0.0657889
-0.401975
-0.071391
0.17091
-0.314807
0.143897
-0.454823
0.457326
-0.00250235
0.00668382
-0.0144052
0.24247
-0.321357
0.0835623
0.133429
-0.0764395
-0.0569898
0.302295
0.133184
-0.435478
0.0397169
-0.120288
0.0805711
-0.225121
0.162705
0.062416
0.139938
-0.0218677
-0.11807
0.20612
0.110265
-0.316385
-0.0949417
-0.224464
0.26112
0.158811
0.495841
-0.221845
-0.273996
0.239759
-0.485548
-0.250084
0.370946
-0.216112
0.0737551
0.142357
-0.357261
0.333911
-0.310678
0.597322
-0.286644
0.293994
0.066226
0.0672034
0.151965
-0.0140676
0.21432
0.259256
-0.0163383
0.0330011
-0.0828874
0.122604
-0.281433
-0.0399238
-0.148034
0.399177
-0.251143
0.531979
-0.34445
-0.187528
-0.14785
0.31876
0.39316
-0.261184
0.0207178
0.20059
-0.29984
-0.326763
-0.178752
0.23167
0.18483
-0.0374858
-0.147344
0.224358
0.271483
0.155139
-0.449638
0.111484
-0.225199
0.113715
-0.362009
0.197508
-0.42958
0.476983
-0.047403
-0.00585419
0.0208562
-0.147067
-0.260239
0.407306
0.534041
-0.203573
-0.330468
0.383418
-0.138573
-0.244844
0.205956
-0.238035
-0.440813
0.450063
-0.00925024
0.152808
0.195636
0.277023
0.145098
-0.422121
-0.145227
0.427018
-0.281791
0.302006
-0.181023
0.321791
0.198455
0.430523
-0.145057
-0.394815
-0.0591631
-0.223861
0.35681
0.0809365
0.186245
0.144279
0.0405504
0.271341
-0.200099
-0.208427
0.408526
0.313185
0.284137
0.546982
-0.384962
-0.16202
-0.24957
0.235165
0.468917
0.372343
-0.140865
-0.231478
0.519282
-0.264049
-0.255234
-0.121179
-0.215418
0.440115
-0.224697
0.0180442
-0.390169
0.372125
-0.0849334
0.218384
0.0264336
-0.0873701
-0.278953
0.0574866
0.267835
0.174821
-0.442656
0.148141
0.235277
-0.253346
0.187718
0.0656287
-0.189921
0.382145
-0.192224
0.491565
-0.191194
-0.191218
0.131812
0.0594058
-0.394177
0.271643
0.122533
0.490838
-0.507835
0.0169973
-0.387554
0.23952
-0.0454629
-0.0843587
0.0252284
-0.147611
0.122382
-0.485203
0.0597981
0.00504091
-0.0356986
0.0306577
-0.0419901
-0.0177926
-0.0208502
-0.22872
0.102712
-0.310831
0.208119
0.126127
-0.293131
0.167005
0.190821
-0.211983
0.201351
-0.346863
0.117076
0.229787
0.243097
-0.150189
-0.0929086
-0.19932
-0.389191
0.0618825
-0.186924
-0.0705587
-0.150857
0.411977
0.206022
-0.325205
0.119183
-0.108026
0.156355
-0.048329
-0.155072
0.047046
0.43482
-0.0186505
-0.416169
0.553866
-0.415951
-0.137915
-0.137084
-0.0502858
-0.225789
0.154037
0.138611
-0.234128
0.106116
-0.212241
-0.136448
-0.216814
0.353262
-0.144703
0.476427
0.181551
0.0902575
-0.271809
-0.170067
-0.203897
0.373965
0.121075
0.0356557
-0.156731
-0.0612222
0.338245
-0.318566
0.201519
0.117047
-0.261849
0.0261221
0.235727
0.278512
0.00621926
0.181819
0.0650288
-0.246847
0.0929926
0.209835
-0.302827
-0.0560292
0.222224
-0.11074
-0.0252265
0.0254088
-0.000182279
-0.324619
0.0948466
0.0870585
0.311431
-0.39849
-0.203942
0.160718
-0.449934
0.289216
-0.519666
0.182815
0.336851
0.139478
-0.35663
-0.11461
0.47124
-0.112446
-0.233007
0.426061
-0.193054
-0.07716
-0.279126
-0.0590198
-0.395803
0.184203
-0.0674095
0.19993
-0.321521
0.121591
-0.0158773
0.00297914
-0.420003
0.154566
0.265437
0.109702
-0.138906
0.333953
-0.195048
0.0297847
-0.0247438
-0.382819
-0.0467618
0.11798
0.3577
-0.47568
0.0522474
-0.233509
0.181262
-0.28633
0.0709123
-0.364337
0.396981
-0.535236
0.138255
0.147579
-0.116753
-0.030826
0.182213
-0.277914
0.0957017
0.225424
-0.332606
-0.273008
0.149363
0.123645
-0.471615
0.25809
-0.196249
0.47707
-0.280821
-0.159868
0.414733
-0.254865
0.295157
0.192318
-0.487475
0.0376763
0.453162
0.117517
-0.349714
0.453944
-0.104229
0.467714
-0.16542
-0.0523315
0.00433242
-0.141873
0.217026
0.110776
-0.327802
0.13533
0.0153531
-0.0914566
0.251628
-0.150227
-0.0656743
0.215901
0.229373
0.0793089
-0.308682
0.0229756
-0.200384
0.177408
0.0409129
-0.140299
0.219821
0.0987513
-0.318573
0.0536796
-0.306836
-0.184483
-0.0958544
0.119549
-0.0561561
-0.063393
0.189721
-0.382609
-0.137057
0.551265
-0.23808
0.137207
0.136141
-0.335895
0.199754
-0.110098
0.327123
0.000570479
-0.0135221
0.122447
0.243029
-0.300679
-0.282903
-0.479573
0.283324
0.514425
-0.197775
-0.316649
-0.361108
0.574194
-0.213086
0.322952
0.191472
-0.0197327
-0.177982
-0.124393
0.362418
-0.212668
-0.14975
-0.524578
0.253603
0.270975
-0.357969
0.219063
0.114739
0.0289903
0.220532
0.124781
-0.345313
-0.330019
0.348064
0.0857043
0.0338447
-0.196
-0.0262895
-0.377342
0.144335
-0.217491
0.531211
-0.356222
-0.174989
-0.4039
0.20196
0.20194
-0.399865
0.280515
0.11935
-0.102979
0.263985
-0.137859
-0.027855
0.311255
-0.2834
0.144853
0.0781428
-0.132352
0.31417
-0.117485
0.323507
0.0542172
0.0633002
0.0766498
0.259029
-0.335678
-0.0321796
-0.0285354
-0.0363591
-0.112593
0.148952
-0.374486
-0.0611248
0.435611
-0.224021
0.073794
-0.0150161
-0.270961
-0.211039
0.482
-0.145649
0.201517
-0.0558673
0.14221
0.29387
0.102805
0.1992
-0.0407209
0.38004
-0.0175432
-0.126631
0.215209
0.336056
-0.0150437
0.0205681
-0.00552441
0.236399
0.220555
0.151788
-0.295152
-0.164554
0.459707
0.123973
0.0660924
-0.211324
-0.274005
0.216018
-0.00493868
0.0228013
-0.0178627
0.0174069
0.244239
0.105318
0.30753
0.0388334
-0.118947
0.0801137
-0.392948
0.476074
-0.0831264
-0.0192167
-0.363574
0.247267
0.116308
0.0821945
0.142287
0.229393
0.126008
-0.108104
0.309624
-0.298806
0.104255
0.194551
-0.499929
0.314811
0.185118
0.364673
-0.242226
-0.48145
0.0882474
-0.449927
0.36168
0.02289
0.339615
-0.362505
0.273778
-0.430013
0.302729
0.127284
0.343251
-0.0852495
0.424914
-0.319596
-0.297621
-0.225807
-0.178093
-0.179828
-0.349019
0.377788
-0.176453
-0.172157
-0.357869
-0.0386839
0.276702
0.177463
0.251788
-0.27292
0.550094
-0.367652
-0.182442
-0.398213
0.238633
0.15958
0.482468
-0.263272
-0.219196
-0.238129
0.0619534
0.176175
-0.175873
-0.188815
0.364688
-0.264548
0.236693
-0.304953
-0.175501
-0.455945
0.11321
0.342735
0.348179
-0.325289
-0.339672
0.139574
0.038123
-0.412609
0.215761
-0.411309
0.195548
0.0467133
0.105821
-0.181061
0.00906881
0.0226309
-0.0316997
0.224202
-0.169086
0.129343
0.0182361
0.353497
0.196597
-0.055859
-0.400086
0.020161
0.139079
0.228437
-0.356517
0.12808
0.177698
-0.349515
0.171817
-0.251216
-0.187652
0.0320251
-0.00685193
-0.0251732
-0.35454
0.151952
0.0769938
-0.228946
-0.031892
0.0409608
0.450995
-0.316237
-0.134758
0.457087
0.454154
-0.186319
-0.0297233
-0.166514
0.196237
-0.108051
0.328582
-0.334447
0.226482
0.107965
-0.0527774
-0.163334
0.482288
-0.267967
0.331688
-0.195547
-0.408664
0.248796
-0.141527
-0.180787
0.16811
-0.0847383
-0.153391
-0.137367
-0.000789056
-0.136246
0.161475
0.231258
0.137773
0.253501
0.0897499
0.294134
0.156861
0.193047
0.284023
-0.333904
0.481884
-0.14798
-0.059218
0.0166733
0.0425447
-0.142198
0.582367
-0.213789
-0.368578
0.525763
-0.259207
0.311116
-0.202745
-0.108371
0.0795108
0.102955
-0.182466
-0.14673
0.341795
-0.130489
0.367528
-0.23704
0.180291
-0.356164
-0.216867
-0.0819385
0.39595
-0.339174
-0.220596
-0.104609
-0.524752
0.262159
0.262593
-0.371308
0.455739
0.482093
-0.227933
-0.25416
-0.246317
-0.192405
-0.339252
0.377375
-0.332141
0.111546
-0.0136518
-0.0324242
-0.0267938
-0.34715
-0.177601
-0.0269623
0.0220236
0.361443
-0.0297159
0.00448944
-0.138257
0.000890687
-0.268269
0.0239481
-0.395257
0.396479
-0.244887
-0.151592
-0.0796983
0.300905
0.177177
-0.152008
0.213962
-0.425465
0.0093575
-0.229532
0.511252
-0.281719
0.183474
0.10204
-0.285515
0.361393
0.220974
-0.0261121
0.11226
-0.086148
-0.311386
0.386838
-0.0754523
0.457592
-0.268578
0.207717
-0.23744
-0.0979574
-0.327508
-0.224502
0.148148
0.0763541
-0.398353
0.0591015
0.0016475
0.0767552
0.465239
-0.209422
-0.300816
-0.129197
0.353528
-0.105632
-0.154762
0.115686
-0.242355
0.0787821
0.163572
-0.13207
-0.313572
0.0992361
0.214336
0.0643352
-0.197863
0.133528
0.0757406
0.168391
-0.244131
0.309536
0.166057
-0.475592
-0.134237
0.383379
-0.249142
0.350696
0.175067
0.248567
0.125669
-0.374236
-0.262569
0.162526
0.100042
-0.211246
0.14462
0.0666261
-0.0504597
0.0222584
-0.417889
0.14742
0.270469
-0.485529
0.315461
-0.269235
-0.105477
0.374712
0.25211
-0.0218614
0.00681778
0.120752
-0.176564
0.0558114
0.462269
-0.152733
-0.136078
0.376326
-0.240248
-0.135203
0.142013
-0.185403
0.398315
-0.212911
0.210623
-0.187647
-0.0348473
-0.310563
0.34541
0.344911
0.132224
-0.344876
-0.258195
0.420771
-0.162576
0.0899781
-0.11609
0.308465
-0.0776047
0.119604
0.215227
0.126361
0.238311
0.0157325
-0.266827
0.251094
0.164059
-0.0946407
-0.0694184
-0.480692
0.241677
0.239016
-0.132154
-0.257453
0.389607
0.224356
-0.371086
-0.162227
0.473473
-0.0426683
-0.146024
0.188692
-0.158451
-0.297996
0.456447
-0.282488
-0.135401
-0.134225
0.19856
0.238139
0.121404
0.0145875
-0.276257
0.261669
0.239103
-0.17204
-0.067063
0.138638
-0.0919246
-0.404363
0.109211
-0.49273
0.238173
-0.260053
0.485367
-0.192135
-0.0818582
0.484927
-0.0193194
-0.106571
-0.234115
0.340686
0.398631
-0.128731
-0.2699
0.0846518
-0.0830043
-0.323313
0.0146529
0.30866
0.464957
-0.104177
-0.197456
0.293064
-0.0956085
0.0938638
-0.0879662
-0.00589762
0.101847
-0.267767
0.16592
-0.0672444
-0.368285
-0.0835105
0.451795
0.308574
0.18398
-0.492554
0.100543
0.166776
-0.267319
0.304509
-0.142258
-0.0286382
0.170896
0.0736653
0.165438
0.0432419
-0.19525
-0.162635
0.46354
0.348811
-0.100244
-0.267339
0.460386
-0.523587
0.245981
0.277607
-0.144329
0.368684
-0.0932014
0.150838
0.108548
-0.259386
-0.176609
-0.236836
0.413446
-0.110787
0.190298
-0.0522152
-0.0650514
0.117267
-0.022212
0.280102
0.29414
0.453992
-0.323725
-0.130267
0.148981
0.131027
-0.280008
0.206214
-0.168754
-0.0374599
-0.114218
0.342655
-0.17578
0.130019
0.0457616
0.261006
0.0678427
-0.120058
0.363942
-0.23758
0.288816
0.176125
-0.36494
0.338708
-0.0614297
-0.119357
0.0816574
0.212436
-0.294094
-0.312315
0.385789
-0.0734738
-0.360271
0.459213
0.375652
-0.141356
-0.0514919
0.172244
0.0512739
-0.0321808
-0.0190931
0.225998
-0.00435995
-0.221638
0.0161652
-0.0406501
0.0244849
-0.0865341
0.143325
-0.0567911
0.281647
-0.1798
-0.201507
0.283165
0.250993
-0.0166783
-0.234314
0.132042
-0.174711
-0.280407
-0.160915
-0.101192
0.262107
0.362562
-0.314831
-0.047731
0.232176
0.166455
0.201228
-0.131706
0.0862434
-0.0762863
0.27968
-0.203394
-0.46591
0.0976254
0.370551
-0.282304
0.154353
-0.244307
-0.27928
0.293708
-0.143237
-0.150471
-0.00429973
-0.438376
0.442675
0.0999618
-0.158853
0.058891
-0.315552
-0.00776097
-0.126761
0.0270568
0.0997039
0.280151
0.145691
0.271661
0.259551
0.431735
-0.129006
0.102668
0.0359697
0.405806
0.125423
-0.286584
0.102101
-0.246117
0.0980457
0.264516
0.347882
-0.271233
0.476201
-0.0413815
0.363338
-0.333354
-0.0299836
0.258888
0.161883
-0.1815
0.399591
-0.218091
0.299777
-0.486276
0.186499
-0.131381
-0.186172
0.317553
-0.260434
0.062978
-0.169913
0.478487
-0.368741
0.406417
-0.0862983
0.00102908
0.0852692
-0.0204245
0.0245171
-0.00409258
0.333222
0.0301164
-0.0983565
-0.383305
0.249068
-0.125073
0.0486335
0.0468763
-0.407984
-0.0858314
0.0400419
0.294463
0.137272
0.0361792
-0.0359614
-0.00021777
-0.15452
-0.25928
0.4138
-0.0970404
-0.181634
0.278675
-0.333055
-0.147637
0.0754874
0.0183765
-0.125436
0.134503
-0.372508
0.238005
-0.448586
0.162408
0.0312754
-0.11781
0.526918
-0.407064
-0.119853
-0.418412
0.263892
-0.315197
0.183816
-0.414579
0.0671956
0.347383
-0.08776
-0.0606106
0.360388
0.0105374
0.0210061
-0.0315435
0.206776
-0.388276
0.386536
-0.210412
0.203515
-0.121804
-0.0817106
0.396721
-0.156396
-0.240325
0.291705
0.115565
-0.407269
0.246566
0.235527
-0.0987423
-0.356095
0.454837
-0.0734191
-0.0485047
-0.0782561
0.0116006
-0.0895155
-0.108797
-0.158484
0.102891
0.205573
-0.378883
0.096395
0.149734
0.177307
-0.32704
-0.0415123
-0.134268
-0.466789
0.139597
0.327192
-0.00668018
-0.00927806
0.0159582
0.244566
0.144592
-0.389158
-0.132561
-0.334229
0.0146841
0.236309
-0.160787
-0.304625
0.465412
-0.122656
0.367222
0.113958
0.0895574
0.194593
-0.395797
0.201204
0.414391
-0.296412
-0.199743
-0.268533
-0.158574
0.0725092
-0.422223
-0.0867617
0.378466
0.0141442
0.244744
-0.158121
0.121762
-0.296717
0.26187
-0.162423
0.124918
0.0375044
-0.13567
-0.17241
0.233219
0.249365
-0.482585
-0.163939
0.508705
-0.291732
-0.216974
-0.486585
0.327324
0.159261
-0.29195
0.0796158
-0.334249
-0.294795
-0.150266
0.0813208
-0.478237
0.211467
0.299785
0.0299279
-0.41489
0.302704
-0.475933
0.0563058
-0.367692
-0.221797
-0.107075
-0.325708
0.224857
0.100851
-0.131533
-0.0349954
0.166529
0.149351
0.0568628
-0.122867
-0.260791
0.383658
0.283133
-0.465891
-0.283104
-0.136899
-0.0181436
-0.0773863
-0.153831
0.105326
0.0856159
-0.271217
0.185601
0.113342
0.193316
-0.306658
-0.313732
0.423633
-0.109901
-0.0354792
-0.343404
0.165961
-0.0688692
-0.0970914
0.0919159
-0.141233
0.0493167
0.272615
-0.395482
-0.0694444
0.124398
-0.468848
-0.287228
-0.106949
0.205968
0.0870967
0.0461647
-0.410525
0.261168
-0.0353267
-0.185947
0.271562
0.153936
-0.522677
0.0975608
0.0664983
-0.283129
0.441161
-0.158033
0.484354
0.100813
-0.261728
-0.338322
0.517935
-0.0057509
-0.0805474
-0.150937
-0.0308092
-0.362139
-0.0472535
0.353774
-0.30652
0.166648
-0.178408
0.136895
0.217553
0.264914
0.0964584
0.219511
0.331221
-0.220707
0.389645
-0.205124
-0.184521
0.132543
0.27289
-0.405433
0.396368
-0.263825
0.295776
-0.192971
0.182744
-0.279785
0.45285
-0.314323
-0.138527
-0.355215
-0.169363
0.154963
-0.0550007
0.411345
-0.116881
-0.289684
0.303828
-0.0819822
-0.332597
0.0188497
-0.208807
-0.148732
0.431864
0.0131498
-0.288755
0.275606
-0.308878
0.0920111
-0.263526
0.156946
0.106581
-0.252239
0.310441
0.142409
0.00945952
-0.0253188
0.149998
0.21242
-0.0181303
0.0168425
0.526845
-0.258677
-0.268168
0.412032
-0.195101
-0.216931
-0.33727
0.0121453
0.325125
0.0632526
0.0825795
0.178589
-0.0755821
0.324378
-0.359569
-0.397043
0.126082
0.247489
-0.385122
0.137633
-0.332025
0.22049
0.111534
-0.422224
-0.0106871
-0.0463328
0.0570199
-0.126348
-0.226827
0.353175
0.065764
-0.163684
-0.134096
0.36284
0.198196
-0.3591
0.160904
0.427824
-0.458627
-0.155337
-0.217424
0.372761
-0.338357
0.183019
-0.165097
-0.0857454
0.216773
-0.165256
-0.0770984
0.282544
-0.0732475
-0.123395
-0.203923
-0.44014
0.178515
0.233516
0.217668
-0.330948
0.113279
-0.354294
0.476464
-0.12217
0.529266
-0.255545
-0.273721
0.186288
0.139578
0.000359745
-0.101
0.12657
-0.431522
0.141572
-0.0238996
-0.117672
0.105509
0.188199
-0.00976931
-0.419373
0.429143
0.194714
-0.344326
0.498262
0.256803
0.154542
0.219759
-0.110261
-0.0338542
-0.263107
0.357913
-0.295059
-0.0765084
-0.134738
-0.0385915
0.136446
-0.0978547
0.308555
0.0626438
0.443606
-0.454377
0.0107706
-0.49941
0.340221
0.159189
0.157011
0.201776
0.187868
0.146091
0.25063
-0.0404212
0.080987
0.294874
-0.439577
-0.106058
0.325879
-0.169981
0.465138
-0.388389
-0.00350176
0.0928318
-0.437158
-0.213035
0.146648
0.0663872
0.542933
-0.231283
-0.31165
-0.301304
0.493622
0.445598
-0.17753
-0.268068
0.00676139
0.347012
-0.0463413
-0.507031
0.285186
0.284159
0.169833
0.208206
0.115459
-0.323665
-0.413793
0.276894
-0.257335
0.233183
0.0241512
0.444766
-0.353709
-0.091057
-0.417297
0.269028
0.148269
-0.0504291
0.238147
-0.135691
-0.281606
0.0316672
0.0637636
0.336423
-0.00707289
-0.32935
-0.0902242
-0.134278
-0.368668
0.186974
0.181694
-0.042897
-0.0700936
0.112991
0.331018
-0.395919
0.0649011
-0.0153209
0.223038
0.41846
-0.216683
-0.133415
-0.161119
-0.208932
0.370051
0.204684
0.51796
-0.271979
0.447896
-0.137454
-0.126003
0.317081
-0.191079
-0.369445
0.106063
0.263382
-0.38326
0.252341
0.130919
-0.277971
-0.105288
0.0808799
0.075475
-0.160465
0.376226
-0.0179791
0.0215171
-0.00353796
0.308702
0.215458
0.11504
0.329726
0.47668
0.197849
-0.191501
0.0564324
0.135068
0.219284
-0.380404
-0.321605
-0.0958426
0.410259
0.288526
0.254932
0.309518
0.138377
0.0966653
0.205283
-0.301949
0.428192
0.0232022
-0.451394
-0.0931381
0.326239
-0.217837
-0.108402
0.299103
-0.491168
-0.134876
0.35383
-0.218953
0.0668312
0.00125928
-0.0377775
-0.163503
-0.231705
0.395209
0.3864
-0.485143
-0.138704
-0.039704
0.0102798
0.00182658
0.260458
0.11097
0.167893
-0.278863
-0.182638
-0.317292
-0.0474643
0.113228
0.269808
0.0083849
-0.0899339
-0.208439
0.212013
0.206447
-0.238987
-0.256895
0.191648
-0.148406
0.269188
0.132977
-0.402166
-0.0833098
0.309792
-0.165615
0.276585
0.22208
0.320853
0.287858
0.0441926
0.309304
-0.39729
0.0961829
0.301108
0.231853
-0.255555
0.0237016
-0.0252083
-0.0252514
-0.351195
-0.0896173
-0.209118
0.320146
-0.111028
-0.0503302
-0.248361
0.49803
-0.249669
0.181878
0.273353
-0.455231
-0.201593
0.487699
-0.286105
-0.297819
0.442916
-0.0969375
-0.184528
0.127396
0.0571312
-0.138996
-0.163227
0.268778
-0.105551
-0.157777
0.205904
-0.048127
0.218414
-0.45756
0.188682
0.268878
0.356926
-0.15873
0.492197
-0.24562
-0.246577
0.112664
-0.381899
-0.307454
0.098336
0.269599
0.362792
-0.193303
-0.101486
0.164951
0.0781459
0.216636
0.125411
-0.342047
0.04031
-0.25745
0.217141
-0.245384
0.00863979
-0.255421
0.181427
0.0739948
0.222971
-0.031323
-0.136016
0.0257554
-0.503812
0.245136
0.164225
-0.455808
0.291582
-0.196253
-0.215135
0.268814
0.0320904
0.432291
-0.357056
-0.0752347
-0.350245
0.394437
-0.336648
-0.0846895
0.421337
-0.420517
0.209865
0.210651
0.22354
0.12527
0.279797
0.224882
-0.0781856
-0.146697
-0.29951
0.366705
0.00813392
-0.0151393
0.00700539
0.177457
0.268142
-0.140803
-0.32202
0.102761
0.219259
-0.157348
0.0336369
-0.40947
0.399701
-0.0268827
0.459173
-0.198546
-0.288828
-0.267192
0.103965
-0.277198
-0.186669
0.463867
0.243971
0.264734
0.445674
-0.268217
0.23492
-0.0900669
-0.36109
0.230601
-0.140962
-0.288637
0.429599
-0.181402
-0.0729534
-0.322922
0.293248
0.280946
0.123032
-0.384308
0.261276
-0.374857
0.0233452
-0.181123
-0.0245013
0.00652214
0.300771
-0.406208
0.105437
-0.468719
0.154576
0.314143
0.0303238
-0.368646
-0.126625
-0.24504
0.371666
-0.207301
0.417624
-0.210322
0.319362
-0.108739
-0.309017
0.458322
-0.149305
-0.135374
0.32784
-0.192466
-0.259448
0.106878
0.483303
-0.172778
-0.310525
0.486966
0.222456
-0.0093002
-0.279455
0.0669323
0.134419
-0.339203
0.0413848
-0.236275
0.324695
-0.08842
-0.286419
0.392569
-0.10615
0.105349
0.119533
0.0841513
-0.106019
0.397673
-0.0969019
-0.250276
0.404842
-0.00923195
-0.118923
0.128155
-0.167223
-0.0539653
-0.369101
0.0130062
0.402516
-0.148364
-0.254152
-0.0125331
-0.468917
0.449784
-0.282934
-0.16685
-0.257246
-0.279958
0.0535397
-0.312578
0.259038
0.312825
-0.528663
-0.456719
0.120071
0.175277
0.342648
0.107136
0.498453
-0.18241
-0.316044
-0.525273
0.29399
0.355214
-0.107726
0.160563
0.241795
-0.402357
-0.0099964
-0.369143
-0.123255
0.177568
0.305735
-0.197554