/*--------------------------------*- C++ -*----------------------------------*\
| =========                 |                                                 |
| \\      /  F ield         | OpenFOAM: The Open Source CFD Toolbox           |
|  \\    /   O peration     | Version:  v2012                                 |
|   \\  /    A nd           | Website:  www.openfoam.com                      |
|    \\/     M anipulation  |                                                 |
\*---------------------------------------------------------------------------*/
FoamFile
{
    version     2.0;
    format      ascii;
    class       volVectorField;
    location    "50";
    object      ddt0(U);
}
// * * * * * * * * * * * * * * * * * * * * * * * * * * * * * * * * * * * * * //

dimensions      [0 1 -2 0 0 0 0];


internalField   nonuniform List<vector> 
18618
(
(0.00206186 0.00218298 5.37823e-23)
(-0.0195438 0.11222 5.56019e-21)
(-0.000755966 0.000200538 0)
(0.0483396 0.166995 6.43549e-22)
(0.00102095 -0.000243866 2.22444e-22)
(0.000910623 -0.00130449 -4.12052e-23)
(-0.00143555 5.53748e-05 2.14721e-21)
(-0.0100954 0.0851503 -1.79269e-20)
(0.00220767 -5.75969e-05 7.94501e-23)
(-0.000106255 -6.09444e-06 4.09399e-22)
(-0.000778928 -0.000476135 -8.71135e-23)
(-0.000796966 0.000182333 6.24017e-24)
(0.0466137 0.162347 0)
(-0.000802069 0.00195053 -1.31865e-23)
(0.00101669 -0.000230788 -1.81886e-22)
(0.000248026 0.000506138 9.07933e-23)
(0.00123422 -3.31667e-05 0)
(0.0221726 0.00319506 2.2923e-21)
(0.00102101 -0.0001194 0)
(0.00229907 0.000231693 -9.59496e-24)
(0.000852359 -0.000739436 4.34934e-25)
(-0.00137145 -0.00017334 2.69989e-24)
(0.000188951 0.000472491 -8.57626e-23)
(-0.000179282 -0.00793082 -9.22048e-22)
(0.000184624 -3.89349e-05 9.15359e-22)
(-0.00746654 0.0156178 -8.95362e-22)
(0.001714 0.00229933 -1.27693e-22)
(0.0010414 -0.000195017 -1.74818e-23)
(9.99162e-05 0.000202335 2.19186e-23)
(0.00136735 8.2345e-06 -2.58502e-23)
(0.000132028 -4.9593e-05 0)
(0.000368758 0.000621643 0)
(-0.000148792 -0.000112563 0)
(0.012863 -0.0103961 0)
(-0.00112401 -0.00312141 0)
(0.000573359 -0.00047399 5.81917e-23)
(1.38218e-05 -0.000337958 -8.66303e-22)
(-0.0294974 -0.0310568 0)
(0.00170937 0.000402675 4.69166e-22)
(0.00131325 -2.33405e-05 2.64934e-23)
(0.0283772 0.0691143 -1.05612e-21)
(0.00165988 0.00202305 6.14668e-23)
(0.000380677 0.000969939 5.76352e-23)
(0.0128211 -0.165629 1.64326e-20)
(0.00219061 6.94766e-06 -7.19994e-23)
(-0.000446645 -8.44828e-05 -1.39812e-21)
(-0.00991336 0.0864363 1.26849e-20)
(-0.000162776 0.000787137 0)
(-0.000242861 -0.000934672 0)
(-0.0855327 -0.0512635 -6.0721e-21)
(0.00106151 -0.000181227 -1.17936e-22)
(0.000736971 -0.000717133 -1.77464e-22)
(-0.0157873 0.0423692 4.9663e-22)
(0.0163906 0.0674468 2.63228e-21)
(0.000742321 3.01914e-05 -3.40934e-23)
(0.0764888 0.108557 0)
(-0.000939882 0.00195872 1.29336e-23)
(0.00215339 0.000233735 1.51335e-23)
(0.0136425 -0.00885959 0)
(0.00125751 0.000432633 0)
(0.0011872 -0.000246886 3.34277e-23)
(0.000798625 -9.75761e-06 -4.01128e-24)
(0.00232614 0.000101028 0)
(-4.70852e-05 -0.000149843 0)
(0.00858034 -0.0216889 -2.33828e-21)
(-0.0630078 -0.093613 -3.64613e-21)
(-0.000399512 -3.77159e-05 -3.01044e-23)
(-0.00135292 -0.000662711 -6.26293e-22)
(0.000266316 0.000547895 -1.87272e-24)
(-0.0182749 -0.0212595 4.06186e-22)
(-0.000759443 -0.000438932 1.11596e-21)
(-0.00170229 -0.000573339 -1.99092e-24)
(-0.00368611 -0.00157428 8.33031e-22)
(0.00498627 -0.00474329 2.71627e-21)
(-6.79026e-05 -1.9996e-05 6.9825e-22)
(-0.00130167 -0.000366023 1.20736e-21)
(-0.0173508 0.0343607 -5.90971e-22)
(-0.0836159 -0.0411139 2.82201e-21)
(0.000284859 0.000641519 0)
(0.0354567 0.0609686 -3.32937e-21)
(0.00889553 -0.000250985 5.44258e-23)
(0.0231668 -0.00106453 3.5974e-21)
(0.00463915 -0.00546925 0)
(-0.000108307 -3.37746e-06 -6.48549e-22)
(-0.000145336 -0.000119744 0)
(0.000284037 0.00106664 -2.72526e-23)
(-0.00018768 -0.0104004 5.86134e-23)
(-0.000106973 -6.31871e-06 5.48254e-22)
(-0.0071673 0.00040498 -1.52374e-21)
(0.0225483 0.00204882 0)
(-0.00379666 -0.00132843 -2.96886e-21)
(-0.0220305 -0.00321801 0)
(0.0144343 -0.159492 4.6697e-20)
(-0.0141823 0.0384769 9.2989e-21)
(0.00300824 0.00155969 -1.32048e-22)
(-0.00133198 -0.000317792 -1.54359e-21)
(-3.06707e-05 -0.000377179 0)
(-0.0596842 -0.0585789 -1.2736e-21)
(-0.000751628 0.00199549 1.32472e-23)
(-0.00081042 0.000230644 -2.43917e-23)
(0.00299879 0.00196202 1.29848e-22)
(-4.23145e-05 -0.000144193 -7.99965e-22)
(-0.0399822 0.0205922 0)
(0.000530707 0.000647182 -5.56127e-22)
(-5.86031e-05 -1.15533e-06 -1.36781e-24)
(0.0150604 0.0394763 2.40292e-21)
(0.000745246 7.36839e-05 5.35736e-23)
(0.000233584 0.000583264 -1.43031e-23)
(0.0106219 -0.0202515 0)
(-0.000405438 0.000257947 -1.96125e-23)
(-0.0887416 -0.0415315 -7.01761e-22)
(0.000761149 -0.000106258 0)
(-0.000305422 -9.76072e-05 -1.31592e-21)
(0.000662293 0.000361084 0)
(0.000604203 -0.000372963 1.33989e-22)
(-0.000793152 0.000146376 2.32141e-23)
(-0.000384499 3.5894e-05 3.36928e-23)
(0.0227348 0.0187778 0)
(0.00020009 -0.000225252 -5.09377e-22)
(-0.0114842 -2.51052e-05 -2.25589e-21)
(-0.0576873 -0.0734177 1.024e-21)
(-0.000296024 -9.94807e-05 0)
(0.0878678 0.0858742 8.73953e-22)
(0.022756 -7.0073e-05 -4.96177e-21)
(0.00230173 0.00218828 5.69612e-23)
(-0.0144474 -0.0185179 -6.19866e-22)
(-0.00665251 0.0702649 1.37875e-21)
(0.0111456 -0.00195318 2.51945e-22)
(-0.00079123 -0.000708039 -2.34145e-21)
(-0.00265581 0.00237459 8.48514e-22)
(-0.00484045 0.00237645 2.48313e-21)
(0.000754398 -9.80413e-05 0)
(0.0205875 -0.00590168 2.76421e-21)
(-0.0223837 0.0176362 -1.36811e-20)
(0.000603934 -0.000360206 -4.49728e-22)
(0.000669304 -0.000662004 -1.54769e-23)
(0.000722045 -1.29567e-05 3.00449e-22)
(-0.000135222 -1.63982e-05 -1.06562e-21)
(-0.0352572 0.117107 -2.66456e-20)
(-0.000133897 8.55914e-05 0)
(6.74711e-05 -2.06602e-05 0)
(3.14048e-05 5.4436e-05 0)
(0.000791548 -5.47302e-05 1.55628e-25)
(-1.46362e-05 -0.000364416 -8.81766e-22)
(0.000364389 0.000764963 3.69616e-23)
(-0.00542187 0.0143441 0)
(2.0666e-05 -0.000358535 0)
(0.00105886 -0.000126224 1.22942e-23)
(0.015011 0.0373564 -3.89174e-21)
(-0.00155855 -0.000230381 0)
(-0.000993923 0.00180003 -1.29176e-23)
(0.0231775 0.0181332 -3.19104e-21)
(-0.0389232 0.102921 2.59395e-20)
(0.000303441 0.000586134 -4.50263e-23)
(0.000929265 0.000725055 -3.03691e-23)
(-0.0019744 -0.00117645 2.46274e-24)
(0.0129698 0.0291253 8.51414e-22)
(-0.0286237 -0.0734491 -1.01949e-21)
(0.00448795 -0.00984957 1.29861e-22)
(-0.000337317 0.000347528 0)
(-0.000633103 -0.000273566 0)
(-0.0198751 -0.037108 1.64373e-21)
(-0.000130916 -1.59377e-05 0)
(-0.0559522 0.000838159 2.01247e-21)
(0.000960459 0.000409669 2.97321e-23)
(-0.0508066 -0.0736617 6.66617e-22)
(0.000854231 0.000859191 1.61762e-23)
(-0.000127146 -2.00202e-05 4.06028e-23)
(0.00932133 1.87735e-05 2.59979e-21)
(-0.000301019 -8.22238e-05 0)
(-7.24065e-05 -1.94746e-05 0)
(-0.000210233 0.000365969 0)
(-0.00514906 0.00257219 -2.52655e-21)
(-0.00328367 0.000868752 1.67745e-21)
(0.018909 -0.0577436 0)
(-0.00133925 -0.000514155 -1.23037e-21)
(0.000179066 -0.00079927 0)
(0.0110765 -0.00267257 -2.65234e-21)
(-0.000255396 0.000305775 0)
(8.44384e-05 0.000353368 -8.13933e-25)
(-0.00258908 0.000254707 6.97255e-24)
(-0.0034785 0.000936816 0)
(0.000583463 -0.000482995 -3.17745e-22)
(0.00063304 -0.000476068 -6.98158e-24)
(0.00630362 0.0786019 -2.19826e-21)
(0.000525182 -0.000213567 1.12835e-24)
(0.00191827 -5.24663e-05 1.58921e-23)
(-0.00251196 0.000124566 4.66866e-22)
(5.1579e-05 -0.000556264 0)
(0.000566203 -0.0014325 0)
(0.000199654 -0.000963309 -3.33278e-22)
(-0.00295691 0.000942246 1.38051e-21)
(-0.036274 -0.0788281 1.20933e-21)
(-0.00014942 4.6641e-05 3.6832e-23)
(0.0150881 -0.0202368 -6.6193e-22)
(0.00167939 0.000166399 2.39638e-23)
(-0.00274001 0.000260865 -5.10182e-22)
(0.036164 -0.0145728 5.9878e-21)
(-0.000107754 -2.3321e-06 0)
(0.0214341 0.0211514 5.23604e-21)
(-0.0338369 -0.0124061 0)
(0.0280984 -0.158338 2.94338e-20)
(0.00151835 0.000586977 2.50618e-23)
(-0.000526423 -0.00035062 0)
(0.00911387 -0.000292677 2.6471e-21)
(0.00424897 -0.013577 3.27796e-22)
(0.0431353 0.063141 -3.86881e-21)
(0.0229059 0.0165876 2.87589e-21)
(-0.000369304 -0.000148801 0)
(-0.123875 0.400757 -1.72841e-20)
(-0.0265805 0.0189075 0)
(2.92045e-05 -0.00021731 1.10142e-23)
(0.0215747 0.022004 2.50129e-21)
(0.00437596 0.0234347 -1.07306e-23)
(0.000645519 -0.000492452 0)
(0.000600557 -0.000472166 -2.47063e-22)
(0.00171303 -0.00033297 -1.25545e-22)
(0.00864808 -0.000597543 0)
(-0.000306515 -8.83371e-05 -2.46482e-24)
(0.0215853 0.0222339 2.14475e-21)
(-0.000282339 -0.000701032 0)
(-0.000199844 -0.000224141 7.57167e-22)
(0.000603879 -0.000166037 -6.52497e-25)
(-0.00149452 0.00800746 1.14726e-21)
(0.000137039 0.00420522 -2.27046e-21)
(0.00179129 0.00255397 4.30768e-21)
(-0.000233846 -0.000672491 0)
(0.000869412 0.000533208 1.79594e-25)
(-0.000934569 -0.00262314 1.95671e-24)
(0.00267771 -0.00926648 -2.10762e-21)
(-0.14194 0.365625 0)
(-0.054074 -0.00730217 9.30275e-23)
(5.23023e-05 -1.48796e-05 0)
(-0.00142577 -0.00059341 6.87551e-22)
(0.000123122 -5.44337e-05 0)
(-0.00271433 0.00217684 1.69527e-21)
(0.00107575 0.000504544 1.65034e-22)
(0.00197161 0.000608007 -2.24907e-23)
(0.000614836 -0.000486046 -2.09024e-22)
(0.00245061 0.00139877 5.9411e-23)
(-0.00209841 0.000532455 -2.1846e-21)
(0.000192282 0.000410384 1.42083e-21)
(-0.000223084 -2.0858e-05 0)
(-0.00706446 -0.000530301 0)
(0.00276506 0.00318818 -4.2568e-23)
(0.000754562 -0.00077895 1.83832e-22)
(0.000222087 -0.00867484 8.31656e-22)
(-0.00258002 -0.017511 2.29926e-22)
(-0.000139063 -5.92121e-05 0)
(-0.000727409 -0.000690913 3.76076e-21)
(-0.0240764 0.043547 -4.26552e-22)
(0.00132347 -0.000788457 -2.92196e-23)
(-0.000490926 -0.000357468 0)
(0.00272023 -0.134576 0)
(-0.000358816 -0.000169732 2.39715e-21)
(0.000356179 0.000446769 0)
(-0.000349753 -0.000195578 9.7152e-22)
(0.00536661 -0.0108801 0)
(0.00141625 8.61585e-05 5.06352e-24)
(-0.00371369 -0.00522635 5.37592e-23)
(-0.00185313 0.00832239 -2.06712e-21)
(-0.000360341 -0.000181199 -2.68493e-21)
(-0.0409091 0.0144878 0)
(-0.065338 0.0125165 0)
(0.00109942 -0.000732094 -4.02073e-23)
(-0.000244594 -0.000216018 0)
(-0.00183949 0.000384036 -9.9707e-22)
(0.000147832 -0.000954622 0)
(-0.000337866 -0.000195153 -1.22121e-21)
(-0.000694477 -0.000378916 0)
(-0.00136142 -0.000440495 0)
(-0.000290388 0.000390253 -1.30788e-24)
(0.00135741 -2.48597e-05 0)
(0.00103399 -0.00022037 1.47242e-23)
(-0.000224898 0.000758655 0)
(0.0266588 -0.131493 3.85992e-21)
(0.00362142 0.000700145 -1.04851e-22)
(-0.000159127 0.000834819 2.48305e-23)
(0.00928072 -0.000536254 -1.37597e-21)
(0.00126322 -0.000112272 -3.43705e-23)
(-0.000201437 -0.000212192 6.75336e-22)
(-0.000232285 0.000429039 2.0428e-23)
(-0.0071961 -0.137794 1.42938e-22)
(-0.000887032 -0.0166499 0)
(0.00133398 0.002686 -5.34864e-21)
(0.00710013 -0.0545222 5.70821e-22)
(0.00139108 3.67285e-05 -6.49273e-23)
(-0.00586377 0.012134 0)
(-0.0011794 -0.000132219 -3.28395e-25)
(0.0138288 0.0314725 0)
(0.000823382 -0.000544839 3.58281e-23)
(0.00196497 0.000479869 -6.38899e-22)
(0.000151931 -4.04926e-05 0)
(0.00141465 0.00021304 1.38409e-22)
(0.0152079 0.0283202 -1.30412e-22)
(5.1955e-05 0.000210306 2.15379e-23)
(0.00131304 -2.19415e-06 1.47953e-23)
(-0.000292658 -0.000115689 -1.00359e-21)
(0.0311898 -0.0584278 8.07911e-23)
(0.0227397 0.0173696 -5.05751e-24)
(-0.0193269 -0.0267223 -5.62341e-22)
(-0.0612889 -0.221394 -1.68289e-21)
(-0.0660157 0.00766419 0)
(-0.00456417 0.000517774 -7.49352e-24)
(0.00330316 -0.0102358 1.96282e-21)
(0.0212288 0.0192621 -4.15323e-21)
(-0.0185185 -0.104344 -1.35785e-21)
(0.000899252 -0.000937635 1.28606e-24)
(-0.000298287 -0.000112278 1.04577e-21)
(-0.00312657 0.00103587 -7.2852e-22)
(0.000636189 -0.000360636 0)
(-8.64108e-05 -1.8646e-06 -8.02346e-22)
(-0.000190586 -0.000190547 7.54128e-22)
(0.00131638 -0.000121397 3.58463e-23)
(-0.00148905 -0.000194511 -1.6185e-21)
(-0.0230137 -0.104416 6.16723e-22)
(-0.1285 0.420369 2.90627e-20)
(0.00117376 -0.000665697 4.11055e-23)
(-0.000240037 -0.000219748 -1.60958e-21)
(0.000713209 -1.33913e-05 0)
(-6.62662e-05 -7.79208e-07 0)
(0.0128771 -0.0219955 7.02071e-22)
(-0.00235714 0.000133937 1.00331e-21)
(-0.0100781 -0.1017 1.30856e-23)
(-0.000237388 -0.000207287 -9.21785e-22)
(0.00150072 3.91227e-06 -4.52022e-23)
(0.0405077 0.0540002 0)
(-0.000181627 0.000751234 0)
(-0.00461601 0.000266035 -1.13859e-21)
(0.00167166 0.000701742 0)
(-0.000114611 1.73401e-06 -3.74775e-23)
(0.000659998 0.000165138 0)
(-0.0026716 0.000978605 0)
(0.000633371 -0.000353773 0)
(0.00213 0.000488235 -8.14434e-23)
(-0.00023784 -0.000203167 -6.57672e-22)
(-0.0494081 -0.0229745 0)
(0.00186895 0.00068907 4.27695e-23)
(0.0438135 0.0655432 -3.4868e-21)
(0.0357402 0.0134073 -6.24608e-22)
(0.00072393 -0.000208938 6.60912e-23)
(0.00947529 -0.00079736 1.40556e-21)
(0.00223407 0.00031652 0)
(-0.000765316 -2.41878e-05 0)
(0.000185395 0.000215195 0)
(-9.21105e-05 -2.17991e-06 5.16939e-22)
(0.00204292 -0.000296588 2.71983e-23)
(0.000569621 -5.54102e-06 0)
(-0.0145223 -0.0650173 5.1366e-23)
(-0.000373266 -0.00016096 0)
(0.0199416 0.0414057 -7.38075e-22)
(0.00671831 -0.0101087 2.00843e-21)
(-0.000185511 -0.000202073 0)
(-9.90974e-05 -1.12564e-05 7.68897e-22)
(0.0345921 -0.0497698 -5.23384e-21)
(-0.00986816 0.00484534 2.90593e-21)
(0.000257398 0.000355281 -2.87919e-23)
(-0.00781386 0.0135517 1.01744e-21)
(-0.000320493 0.00034656 0)
(0.00124992 -0.00650897 8.58089e-22)
(0.0289182 0.0322384 -3.4171e-23)
(-0.0342044 0.105176 -3.51526e-21)
(-0.00357584 0.00966006 -1.84828e-21)
(0.00213837 -0.000416593 -1.67075e-22)
(-0.0369047 0.0953126 0)
(0.0465405 0.0909245 3.10616e-21)
(0.00156875 0.000600778 0)
(-0.00070641 -0.000425367 -9.369e-22)
(0.0018417 -0.00048326 -1.64427e-23)
(0.000274349 0.000834358 3.9834e-23)
(0.000799186 -3.84687e-05 3.60488e-22)
(-0.000128991 -1.79262e-05 8.9878e-22)
(-0.0165415 -0.0548196 2.33707e-22)
(0.0240831 0.0413018 1.52855e-21)
(-0.00142181 -0.000187618 -2.35291e-24)
(0.000943326 -0.0010135 1.19282e-22)
(-0.0307822 -0.0474187 1.36535e-21)
(0.00104557 -0.000252117 1.6009e-23)
(-0.0296118 0.015421 1.14641e-21)
(-0.0300931 -0.0181141 0)
(-0.00620911 -0.000932237 0)
(0.000320504 0.000422335 0)
(0.0143731 0.00443568 6.13634e-21)
(-0.0371572 0.0263771 -3.07793e-22)
(0.00101056 -8.05135e-05 5.72224e-23)
(-0.000278836 -0.000146021 4.31182e-25)
(0.000565504 6.40027e-05 -2.19962e-23)
(-0.00775934 0.0130676 9.9495e-22)
(-0.000640687 -0.000271491 0)
(-9.8439e-05 -1.30623e-05 8.02033e-22)
(-0.000102904 0.000704126 -1.35929e-23)
(-0.0217085 0.00907213 -4.22208e-21)
(-0.00043545 -7.375e-05 1.39084e-21)
(-7.59067e-05 0.000726067 1.35965e-23)
(0.00861173 -0.000886519 -4.39664e-21)
(0.0335646 0.0517979 1.45813e-21)
(-0.0107446 0.000123738 2.71601e-21)
(0.0387956 0.0593863 -2.17962e-21)
(0.000645384 0.000358922 -2.61279e-24)
(-0.00126775 -0.00115278 0)
(-0.000270327 -0.000141059 0)
(0.0153103 0.0595697 6.36666e-21)
(-0.0303154 0.0112678 5.87529e-22)
(0.021661 0.0158878 0)
(0.000703912 0.000239133 -1.44973e-24)
(0.0136256 0.00334577 -2.76642e-21)
(-0.000180562 -0.000700749 0)
(-0.000603171 -0.00169371 0)
(0.00066341 0.000231438 0)
(0.00503995 0.00905459 2.32685e-21)
(0.000621587 -0.000362863 5.25487e-22)
(0.0154547 0.0057118 2.44936e-21)
(-0.00914798 -0.159362 3.20276e-21)
(-0.00321472 -0.0258364 -1.32858e-23)
(0.00161812 -0.000226121 1.03589e-23)
(-0.00317005 0.0100758 6.49195e-23)
(0.000797573 0.000497509 0)
(0.000217022 -0.00123962 -3.64863e-21)
(-0.000160822 -1.71854e-05 -1.03733e-21)
(0.0031848 0.0556178 -5.51009e-20)
(-0.000125156 -1.73817e-05 -4.33333e-22)
(-0.000290146 -0.000211725 -6.50035e-22)
(0.00400727 0.00131225 8.9832e-23)
(-0.00100447 -0.00253098 0)
(-0.0366058 0.0953949 3.66829e-21)
(-0.00046157 0.000308144 9.64177e-24)
(-0.00123122 -0.00129593 0)
(-0.0103829 -0.0198277 1.47187e-22)
(0.00084187 6.2815e-05 0)
(-0.000626608 -0.00052443 8.83558e-22)
(0.00110712 -0.000353638 0)
(0.000999316 -0.000229812 7.91565e-23)
(-0.000144623 -0.000673599 0)
(-0.0226429 0.000832076 6.63098e-23)
(0.00462971 0.00795963 -3.76525e-21)
(-0.000166584 -1.69603e-05 1.16539e-21)
(-0.00451247 0.00256698 4.38561e-22)
(0.000618495 -0.000351419 -2.66853e-22)
(0.0130476 0.0365746 -1.47917e-21)
(0.000431267 -2.73789e-05 -3.47284e-22)
(-0.0357837 -0.0253868 0)
(-0.00392096 -0.162138 -5.83698e-21)
(0.00051891 0.00282833 0)
(0.000352934 0.00273079 0)
(0.0104365 -0.00149322 0)
(0.000308119 -0.00114358 1.10614e-21)
(-0.0581835 -0.236954 9.06754e-23)
(0.0187904 0.0261851 1.60243e-21)
(-0.000234284 -0.000231648 -8.70722e-22)
(0.00162399 -0.00256039 3.39001e-21)
(0.00041627 -2.57729e-05 -4.81436e-22)
(0.0180265 0.054115 -1.89104e-21)
(0.128539 0.0750797 1.43707e-20)
(-0.000259442 -0.000216548 -1.27846e-21)
(-0.0104534 0.00432571 -8.85897e-22)
(0.0460303 0.0719198 7.35203e-23)
(0.000174887 -4.43522e-05 -6.80706e-22)
(0.0227256 -0.0364775 1.90488e-21)
(-0.000748766 0.000377331 0)
(0.0210281 -0.00441597 -1.01367e-21)
(0.134463 0.0835251 -1.2703e-20)
(-0.000521718 -0.000314178 0)
(-0.0518895 0.016294 1.31548e-20)
(0.00100848 0.000138925 2.04114e-23)
(0.00616878 0.0107142 -4.3722e-21)
(-0.00506862 -3.81486e-05 -1.15814e-21)
(-0.00994531 0.0246515 9.10706e-22)
(-0.000407479 -0.000102644 3.42759e-22)
(-0.033922 -0.0364263 -1.57055e-22)
(0.00101607 -0.00102867 1.29185e-22)
(-0.000156208 0.000516622 -7.0577e-23)
(0.00103423 -0.000135089 0)
(-0.0204968 -0.0281944 -5.22182e-23)
(-0.00458461 -0.00294411 -2.69076e-21)
(0.00015219 -4.97344e-05 -5.65043e-22)
(0.000189739 0.000204938 0)
(0.000467003 0.000412753 3.49871e-23)
(-0.0480611 0.00785361 -1.44343e-20)
(0.0179996 0.0282028 -4.22139e-21)
(0.00184962 -5.40438e-05 -2.00652e-23)
(0.0236537 0.00633197 4.41735e-21)
(0.00325877 0.0105909 0)
(-0.00054511 -0.000309232 4.39914e-22)
(0.000224184 -0.000209548 -5.65813e-22)
(-0.000120226 0.000155868 2.31304e-23)
(0.0277204 -0.0261009 -1.74192e-21)
(2.74584e-05 -0.000325664 -4.24052e-22)
(-0.00148398 2.16159e-05 -1.40765e-21)
(-0.00175051 -0.00054937 1.8382e-25)
(0.104996 0.0951729 -1.03004e-21)
(-0.0098855 0.0102781 0)
(-0.000149755 0.000588659 0)
(0.00157182 0.000385087 4.49969e-23)
(0.00321562 -0.00169318 2.23994e-21)
(0.0247045 0.064076 0)
(0.000139655 7.37699e-05 -1.63366e-23)
(0.00516087 -0.0131391 -3.716e-22)
(0.000242675 -0.000201565 5.61321e-22)
(-0.000832454 0.00144547 -1.29739e-23)
(0.00301759 0.00310517 1.4969e-21)
(-0.142507 0.336289 2.93664e-20)
(0.000511633 -1.85016e-05 1.58612e-23)
(-0.0410413 -0.0809288 -1.42109e-21)
(-8.22703e-05 -0.000165522 0)
(-0.000119071 -1.90151e-05 4.77876e-22)
(-0.000240245 0.00372458 2.37879e-21)
(0.000801258 0.000109081 2.14894e-23)
(0.000652613 -1.79589e-05 -2.63396e-22)
(0.000710208 0.000267639 0)
(-0.00657805 -0.0377933 6.5872e-22)
(-0.0942196 -0.0615401 1.18119e-21)
(-0.0106663 0.00989442 0)
(0.00183874 -0.000387844 0)
(-0.000231056 -0.000198027 -1.97536e-21)
(4.72064e-05 0.000253285 -6.61935e-24)
(0.00292311 0.000518201 -9.42531e-23)
(0.147883 0.0699774 0)
(-9.86804e-05 -1.39658e-06 -6.7534e-22)
(-0.0179784 -0.0342923 0)
(0.00104401 0.0009026 0)
(-0.0609442 -0.0880118 1.27797e-21)
(-0.000857711 -0.000750825 -5.31163e-22)
(0.000613714 0.000126155 2.44684e-23)
(0.00798059 -0.0109777 0)
(0.0435219 0.0546209 0)
(-0.00438888 0.0110775 0)
(0.000460285 0.000141787 0)
(0.00232574 0.00324545 6.45058e-22)
(-0.103396 -0.0906378 -1.14402e-21)
(0.00538225 -0.0616268 0)
(0.000776135 0.000524507 6.11568e-24)
(-0.00330101 0.00223599 0)
(-0.000162771 -0.000300853 -1.98637e-21)
(-0.00102766 -0.000131674 -3.45355e-24)
(0.000221093 -0.000219869 5.983e-22)
(0.033973 0.0561271 0)
(-0.0107825 -0.0156364 4.0575e-22)
(0.000789363 -3.59422e-05 -1.98247e-22)
(0.0194514 0.00804736 -3.79281e-21)
(0.0154235 0.00550922 0)
(0.155875 0.0596953 8.30973e-21)
(0.0237448 0.0438169 -2.95641e-22)
(-0.00122396 -0.00346289 -3.80848e-22)
(0.0269025 -0.161721 -2.72099e-21)
(-0.00241971 0.0012999 -2.87262e-21)
(-0.000319011 -0.000211323 1.24224e-21)
(0.0746441 0.0238714 0)
(0.11312 0.0764289 0)
(-0.0186659 -0.0205286 4.94422e-23)
(-0.00424294 0.00234725 1.67315e-21)
(-0.00282256 0.00105946 -4.35893e-23)
(0.00106799 -0.00109666 -2.5192e-22)
(-0.000318355 -6.12287e-05 -1.00592e-23)
(-0.00689206 0.00475804 2.29492e-21)
(-0.00648559 0.00445583 -2.05146e-21)
(0.000394474 -5.18263e-05 0)
(-0.000811472 0.00205864 -5.6356e-23)
(0.00666977 -0.0204044 2.78338e-21)
(-0.000700537 -0.00181738 0)
(0.00160946 -0.0029052 -1.32628e-21)
(0.000655298 -6.54885e-06 0)
(0.0259711 0.0473417 -1.60683e-23)
(-0.000222351 -0.000193123 0)
(-0.00190823 -0.00123516 1.85155e-24)
(-0.000564141 -0.000210767 0)
(-0.000100137 -6.08917e-06 5.95546e-23)
(-0.0171254 -0.001471 -7.27838e-22)
(-7.46892e-05 -0.000162597 -1.01111e-23)
(-0.000405948 -0.000123558 -7.04826e-22)
(-0.0228955 0.209026 1.51436e-20)
(-0.000122589 -1.98258e-05 -1.45708e-21)
(0.0142861 0.0043812 -6.55603e-21)
(0.00496657 0.055704 0)
(-0.0340044 -0.0389913 0)
(-0.00498285 0.000253729 1.25227e-21)
(0.00360615 -0.00173368 4.39375e-23)
(0.00129839 -0.0141478 5.3434e-23)
(0.000172903 -0.00101886 8.15544e-22)
(0.00126401 -0.000423843 0)
(-0.000513165 -0.00940768 -9.72977e-22)
(0.00185868 0.000524626 2.06388e-24)
(-2.44423e-05 0.000783753 2.02257e-23)
(0.0163662 0.0296839 0)
(0.00574798 0.00358208 0)
(-0.000416296 -0.000114733 0)
(-8.07178e-05 -8.36021e-06 8.78982e-22)
(-0.000335635 -0.000210781 7.54137e-22)
(0.00184807 0.000632627 1.9268e-23)
(-0.000687902 0.000482436 0)
(-0.00388117 -0.00569052 0)
(-0.0015958 -0.00287374 -6.54934e-22)
(0.0216341 -0.00544296 -1.20743e-21)
(-0.000788745 -0.00162052 0)
(-0.00108266 -0.0029366 8.23413e-24)
(0.00295662 -0.00172757 2.45916e-22)
(0.019779 0.00723158 -1.33143e-21)
(0.000154442 0.000118059 0)
(-0.00153578 -0.000441222 1.28716e-24)
(-0.03812 -0.0305929 -2.12727e-21)
(-0.00107435 -0.000680074 4.18289e-22)
(-0.00859092 -0.0182413 -6.33114e-22)
(-0.000380779 0.000158175 -1.57704e-23)
(-0.0186177 -0.0159094 2.23992e-22)
(0.00525799 0.00587167 -2.46396e-21)
(-0.000296171 -0.000223535 -1.97494e-21)
(-0.000549783 -0.000256964 -2.01093e-22)
(0.00243123 0.001262 -4.58713e-23)
(0.00106514 0.000321148 0)
(0.00121011 -0.000314619 4.77779e-23)
(0.000419273 -4.76742e-05 4.51794e-24)
(-0.00102694 -0.000112797 3.79096e-24)
(0.0170609 0.00705686 2.44691e-21)
(0.00249339 0.00283598 -2.35689e-23)
(0.00115608 -9.81524e-05 4.08311e-23)
(0.0228387 0.0159791 3.16528e-21)
(0.00736059 0.0237934 6.24139e-22)
(0.00369806 -0.00126698 4.66245e-22)
(0.0206565 0.0231947 0)
(-0.000574632 -0.000232787 -7.1621e-22)
(7.04656e-06 -0.000371818 0)
(-0.00419609 -0.00383167 -2.00639e-21)
(-0.000432498 -5.38008e-05 -1.29075e-24)
(-0.000889863 -0.000586418 2.91558e-21)
(0.0205907 0.0509445 2.0428e-21)
(-0.000279788 -0.000191921 -1.21894e-21)
(0.0146561 0.0275017 2.76157e-21)
(-0.000729905 -0.000353025 2.06374e-21)
(0.00317976 0.158459 1.22541e-22)
(0.0181628 -0.167198 -2.40572e-21)
(4.73171e-05 0.000813608 -6.11903e-23)
(-2.2768e-05 0.000212156 -4.21675e-23)
(0.000140015 -5.5072e-05 6.06066e-22)
(0.0923994 0.063372 -1.13822e-20)
(0.00411739 -0.000911003 -4.81116e-22)
(0.0335448 0.00848204 9.87567e-22)
(-9.19628e-05 -0.000693841 4.55347e-22)
(0.000177636 0.000294626 -2.3898e-23)
(0.00126655 0.000358409 7.54674e-23)
(0.00086518 0.00013851 -2.68013e-23)
(0.000425767 0.000373439 0)
(0.000813305 0.000230649 -2.90153e-23)
(-0.000100294 -1.06115e-06 -7.01456e-22)
(-0.0341822 0.0212956 -1.51912e-22)
(0.0448039 0.0615577 -9.16008e-22)
(0.000574177 -0.000150042 0)
(0.00326055 -0.00204396 -5.63456e-22)
(-0.0557596 -0.0935799 0)
(0.000547938 -0.000470104 3.18584e-23)
(0.000567328 0.00017749 3.81956e-24)
(-0.010729 0.167607 0)
(0.000768227 -0.00607485 -5.15697e-22)
(-7.97919e-05 -4.86871e-06 -9.44395e-22)
(0.000204251 -0.000214286 6.07696e-22)
(0.000459515 -4.17141e-05 -3.11224e-22)
(0.0231593 -0.0419963 1.56439e-22)
(-0.000286885 -0.000131966 0)
(0.013715 -0.057931 -2.25681e-22)
(-0.00117548 -0.00376868 6.64109e-22)
(-0.000206816 -4.78018e-05 -7.69321e-22)
(-0.00216288 0.000443458 0)
(-0.0069172 0.0587321 0)
(-0.000325235 -6.79512e-05 -4.28736e-23)
(0.0175422 0.00764641 0)
(-0.0235927 0.0181587 6.30528e-22)
(0.0137365 0.00367997 2.06378e-23)
(-0.0117101 0.00321129 8.53591e-22)
(0.000134925 -0.000245732 -3.55495e-22)
(-0.00393893 -0.00341949 -2.50054e-22)
(0.0197575 0.0248921 2.71462e-22)
(0.000698721 7.6603e-06 -2.24616e-23)
(-0.00504007 -0.00425401 2.42803e-22)
(-0.000203709 0.000442216 0)
(-0.000853073 0.00371631 2.40534e-21)
(-0.0245736 -0.0072962 -4.16634e-22)
(0.0221505 0.0209368 -2.40581e-21)
(-3.51386e-05 0.000337959 3.09368e-23)
(0.00376251 -0.0115066 6.42048e-23)
(-0.000241253 -0.000228102 9.26192e-22)
(-0.00961319 -0.035221 0)
(-5.35174e-05 -2.2094e-05 -7.63115e-22)
(-0.00291566 0.00212747 1.72094e-21)
(-0.0047319 -0.00380251 0)
(-0.0588375 -0.0219426 0)
(0.00665955 -0.011595 -2.16678e-21)
(-0.0424225 0.0823377 3.97281e-21)
(-0.000306804 0.000215824 8.78481e-24)
(-0.0347836 0.0855137 -1.89403e-21)
(0.000155259 0.00125954 0)
(0.00883621 -0.00118426 1.43265e-21)
(-0.000257392 -0.000160149 9.91559e-22)
(0.00094361 -0.0103892 -2.0056e-21)
(-0.000403753 -4.5244e-05 0)
(-0.000412869 -0.000137314 1.83354e-22)
(-0.000393875 -0.000433197 1.87674e-21)
(0.00198057 -0.000463957 1.03968e-22)
(-6.28592e-05 -0.000663084 -1.34442e-21)
(-6.29619e-05 -1.09494e-06 -6.88868e-22)
(0.000716489 6.2409e-05 -4.51922e-23)
(-0.000974873 -0.000234614 0)
(-0.000149244 0.000126652 -2.28021e-23)
(0.00037685 -0.000985501 0)
(0.00131857 0.00336778 1.21827e-21)
(-0.000365089 0.000166814 -2.59593e-23)
(-0.000182882 0.000441855 0)
(0.011208 -0.0504452 -1.40519e-22)
(5.33772e-05 3.52536e-05 2.5944e-23)
(0.00278954 0.00384715 2.48571e-23)
(0.000701633 -1.47405e-05 0)
(-0.000613052 -0.000582238 -4.69715e-22)
(0.00074222 0.000396294 0)
(-0.00740297 0.0180042 8.98453e-21)
(-0.000486169 0.000136206 -1.52972e-23)
(0.0282752 -0.0244028 0)
(0.00182176 -0.000914474 1.09479e-22)
(0.0672908 -0.0377129 -2.28124e-20)
(-0.00282536 -0.0162337 0)
(-0.000213189 -4.89811e-05 0)
(-0.000393069 -1.30227e-05 -1.3559e-24)
(0.000935658 0.000296481 0)
(-0.00104192 -0.000298067 6.55099e-25)
(-0.000235033 -0.000197021 3.3404e-21)
(0.000127748 -0.000232822 -1.88709e-22)
(-0.000134603 -9.87421e-05 0)
(0.0136967 0.0423667 4.16246e-21)
(0.00135558 -5.04561e-05 0)
(0.0344834 0.0185777 -2.1667e-23)
(0.0761383 -0.0360333 -2.5935e-22)
(-0.0172077 -0.0176845 0)
(-0.000477665 0.000153152 1.35732e-23)
(0.00101874 8.7741e-05 8.83545e-23)
(0.0119972 0.0318056 -7.02412e-23)
(0.0404827 0.0682047 1.73264e-21)
(0.0467515 0.052029 0)
(0.029815 0.0548852 6.8732e-21)
(0.0294932 0.0410873 -7.97039e-23)
(0.015338 -0.0132379 0)
(0.00917393 0.0588952 -3.99714e-21)
(0.00256359 -0.00204739 0)
(0.0350845 0.0225092 0)
(0.000164926 -0.000200933 4.04219e-22)
(0.0003707 -3.5213e-06 0)
(0.00042456 0.000275825 -9.12204e-24)
(-0.0352577 0.0420275 5.24329e-22)
(0.000529473 -0.000459826 0)
(-0.000380748 -5.39528e-05 -1.19737e-21)
(-0.00474669 -0.00253447 7.69899e-24)
(0.00176625 -0.000114487 1.44993e-23)
(0.0887367 0.0770158 1.15319e-20)
(0.00123976 -0.000342426 5.92787e-24)
(-0.00838385 -0.025618 -2.22915e-23)
(-0.0101193 -0.000516774 -2.89022e-22)
(0.0521311 -0.0628955 2.24167e-20)
(-0.00661536 0.0123733 2.03483e-21)
(-0.00923909 -0.0150581 -5.18513e-22)
(-0.0234044 -0.0684742 3.15234e-23)
(0.000850826 0.00345857 1.32376e-21)
(0.000175387 -0.000202647 -1.3284e-21)
(0.00107514 0.000372588 4.71256e-23)
(0.0027032 0.00106599 0)
(0.0159263 0.00653557 -2.66364e-21)
(0.0133646 0.033642 0)
(0.000149342 2.49173e-05 2.24563e-23)
(0.000832578 0.000126358 -3.15433e-25)
(-0.0456944 -0.11756 6.91191e-22)
(2.46519e-05 -0.00496576 -2.68505e-22)
(-0.00198829 -0.0928226 -1.56365e-22)
(-0.000214429 -0.000171026 -4.40847e-22)
(-0.00471001 -0.0181444 0)
(-0.000431217 -0.000435459 2.05761e-21)
(-0.0350692 0.0596352 0)
(-0.000324075 -5.39233e-05 2.15565e-21)
(0.00079539 -2.30039e-05 -5.54459e-23)
(-0.000161887 0.000748253 0)
(0.00136584 0.000321111 0)
(0.000832992 -0.000898455 0)
(0.00013389 -0.000220314 8.15561e-22)
(-0.0003166 -4.81678e-05 -2.03598e-21)
(0.0102298 -0.00226252 -2.7601e-21)
(0.0152628 0.00548905 0)
(0.000827304 -1.74228e-05 0)
(0.00750439 -0.0109315 1.59529e-21)
(-0.000870396 0.00205695 -7.77599e-23)
(0.0015591 -0.0142345 -4.82754e-23)
(-0.0059738 0.0125234 -1.03523e-21)
(0.0396441 0.0822511 -1.42826e-21)
(-0.000190695 0.000779958 0)
(0.00614929 0.00318552 -6.38269e-22)
(-0.031171 0.095042 0)
(-0.000241339 0.000599907 -4.32316e-23)
(0.0634948 -0.0141911 1.41062e-21)
(-0.000101905 -8.68021e-06 -9.53454e-22)
(-0.00104833 0.000938879 0)
(0.000806152 0.000438635 -2.17092e-21)
(0.000156915 1.57792e-05 6.82367e-23)
(0.0119024 0.0884058 -3.66466e-21)
(-0.000116954 -0.000194564 0)
(0.00086674 -2.87596e-05 -2.21531e-24)
(-0.031512 0.0370935 2.00615e-21)
(-0.000102524 -8.85077e-06 -7.60724e-25)
(-0.00214734 4.66321e-05 9.76438e-22)
(0.00012697 -0.000209006 -8.13252e-22)
(-0.0640307 0.0104832 -3.20001e-21)
(0.000350359 0.000485215 0)
(0.000325643 -0.00101409 -6.13897e-22)
(0.00341674 0.00122532 -1.66881e-22)
(-0.000296424 -0.000127477 0)
(-0.00162973 -0.000188473 1.19124e-21)
(-0.000904294 -0.000220562 0)
(-0.000558378 -0.000277896 8.90967e-22)
(-0.000290252 -0.000251017 7.19274e-22)
(-0.0601578 -0.0260894 4.91267e-22)
(-0.00084775 -0.00087894 -1.48837e-21)
(-0.000840461 0.000171416 0)
(0.000690436 -0.000868582 0)
(0.000911957 -1.171e-05 3.01862e-24)
(-0.000102182 -0.000258072 1.22672e-21)
(0.0169119 -0.00721936 -1.42262e-21)
(-0.00331649 -0.00305007 0)
(0.0124679 0.00251657 2.90752e-21)
(-5.34791e-05 -0.00029657 5.75418e-22)
(-0.000102355 -4.34452e-06 -9.18414e-22)
(-0.0120836 -0.00873225 -1.01261e-22)
(0.000240121 -0.00021314 -1.17022e-21)
(0.00411297 -0.0112773 1.84894e-22)
(-0.00778983 -0.0048973 0)
(-0.00090844 0.000159052 -2.74099e-24)
(6.92317e-05 -0.000627102 1.30978e-21)
(0.00222251 0.0201294 -1.71197e-22)
(0.00187829 -0.00153688 0)
(-0.000833965 -0.000593995 -2.77425e-21)
(0.000629924 -0.000331691 1.41673e-22)
(0.000194583 -4.52146e-05 -8.80035e-22)
(-0.000227795 -0.000192584 0)
(-0.000710598 -0.00131448 5.91089e-22)