/*--------------------------------*- C++ -*----------------------------------*\
| =========                 |                                                 |
| \\      /  F ield         | OpenFOAM: The Open Source CFD Toolbox           |
|  \\    /   O peration     | Version:  v2012                                 |
|   \\  /    A nd           | Website:  www.openfoam.com                      |
|    \\/     M anipulation  |                                                 |
\*---------------------------------------------------------------------------*/
FoamFile
{
    version     2.0;
    format      ascii;
    class       volScalarField;
    location    "200";
    object      ddt0(omega);
}
// * * * * * * * * * * * * * * * * * * * * * * * * * * * * * * * * * * * * * //

dimensions      [0 0 -2 0 0 0 0];


internalField   nonuniform List<scalar> 
18232
(
9.30317e-06
-0.415852
0.354396
0.0192198
-0.000102086
0.58473
-0.611656
-1.04831e-05
3.14182e-05
-0.597112
-2.35246e-05
7.32831e-05
-0.0298872
-0.302016
-0.000918562
-0.0742798
0.00310453
-1.27466
9.54953e-06
-0.0263457
-0.839255
-0.552343
-0.025348
2.48239e-05
6.87585e-06
3.10232e-05
1.25057e-05
0.0295468
1.75713e-06
-0.0943372
3.03026e-05
-0.020813
0.0331603
0.000173837
0.0173556
-9.40505e-06
-0.466374
-0.797759
0.0351302
6.49981e-07
-0.0495907
9.72716e-07
0.612451
8.54467e-06
0.0211579
-0.000234955
1.1974
0.0399106
-0.00308216
0.46837
0.00493568
-0.000918773
2.81596e-06
-0.0157523
-2.46547e-06
4.00538e-05
0.141136
1.76974
-3.65417e-05
-0.00432459
0.00990698
-0.00510602
0.056246
-0.456514
0.000105326
7.03129e-05
0.0781257
-0.000166788
-0.000138489
-1.04687e-05
8.57302e-06
9.0652e-07
0.0448489
3.47726e-07
0.00685787
-2.24776e-07
0.000443928
0.264616
0.00264225
0.103585
0.0372078
0.00960788
0.0301413
-0.00622837
3.18932e-06
-0.412744
-7.06643e-05
8.92957e-06
0.00498395
-0.521995
0.000994299
-1.45612e-06
0.0102003
2.09097
0.000325998
-0.0063782
-2.3677e-05
1.08833e-06
-3.20442e-05
5.25132e-05
0.592577
-0.0677208
-9.20855e-07
7.86325e-06
6.57141e-06
0.0385387
7.41011e-05
-0.125797
-1.37086
0.0962201
0.0389683
0.000562959
0.00843336
-0.158734
6.58879e-06
0.000254495
2.02207e-06
0.0400656
-1.53506
6.86207e-05
3.24126e-06
0.0292659
-1.87739e-05
0.0256048
-2.28752e-06
-1.85157e-05
-0.000239234
-0.48507
0.0139212
0.0229251
0.00025577
0.0190147
4.21853e-06
1.59358e-06
-3.11645e-05
1.11837e-06
0.0180705
0.00210528
0.128829
0.467845
1.70459e-06
-0.0125799
0.0519079
0.0271373
1.72512e-05
-2.48207e-05
-0.000100421
0.00993187
-4.10608e-05
6.55237e-05
0.0424538
5.24529e-06
0.573979
-0.000834968
0.72332
0.0305639
-0.123274
0.00160295
0.000187672
2.25315
1.21815e-05
-0.0508771
-0.222571
-0.397315
-0.00223973
2.73827e-06
-0.00882675
0.48552
5.95122e-06
0.0372729
-6.3875e-07
-0.113125
0.0110313
-1.00511e-06
-3.02527e-06
1.33647e-06
-0.0519054
-1.16496e-05
8.58995e-06
1.72313e-06
3.09564e-06
-1.27749
-0.000431312
-0.0497376
-5.28848e-06
2.77345e-06
-4.33275e-06
-0.182509
-0.00359091
0.0154778
0.000132585
0.0518877
-2.33508e-05
1.36426e-05
3.08575e-05
3.85085e-05
-0.00428371
-3.29409e-05
-0.000329475
-2.50585e-06
-0.000132008
-3.92413e-06
1.01439e-05
-1.58934e-06
-6.83639e-06
0.000336497
-0.00316691
0.000149114
-2.16633e-05
-5.64792e-06
8.09625e-07
1.76942e-05
-1.65091e-06
-0.00378259
1.65913e-05
-0.0113606
0.000646256
2.53607e-06
0.0177911
0.0392993
-9.5101e-05
-0.0099956
0.0160596
0.0912194
-0.000146877
-2.65456e-06
0.000219027
0.000155464
-0.00572495
0.0148047
-0.0924941
3.31e-07
-3.49421e-06
4.57005e-06
1.51284e-05
8.62112e-06
0.000524235
0.0240559
-0.000577665
-4.41134e-05
-1.5622
4.76392e-06
0.00016536
-0.000661462
1.53191
-4.42825e-06
0.00285233
-0.00043592
2.02837e-06
-2.08471e-06
-0.974219
-0.00283577
-0.434721
0.00129126
0.0188752
-0.0759802
-5.47053e-05
-0.117308
-2.59638e-05
4.2507e-06
0.0210202
-2.98663e-06
-0.609075
-2.63584e-05
5.04756e-05
0.0298806
-0.0195847
-0.000143843
4.98055e-06
-0.641592
-3.00663e-06
0.00033313
0.0396698
-0.084596
2.54583
-1.62753e-06
0.0186028
5.71699e-05
9.26737e-07
2.20228
0.0932084
1.97503
0.0323736
1.32467e-06
0.00238009
3.04028e-06
-5.60682e-05
-6.76769e-06
-0.836616
0.0282822
-0.966784
2.45731
9.37552e-07
-0.000100741
4.14943e-05
-0.000536841
-4.75922e-07
1.5466e-07
-0.000110705
0.0408106
0.000119413
0.0297335
-1.71643
4.75488e-06
5.07011e-07
1.92854e-07
-0.000188649
-0.00411705
-4.86187e-06
-2.57292e-06
-1.12385e-05
0.00767176
0.004655
1.55245e-07
0.000147161
1.99063
3.24667e-05
0.000821014
-0.00203207
4.67196e-06
-3.77624e-05
-0.118261
0.0119044
1.4556e-06
0.00871989
0.0133872
4.34268e-05
-3.92204e-05
-1.29114e-05
2.20434e-06
-0.00373936
0.000866415
0.758429
-5.40322e-05
-0.00222878
0.0087839
-1.76244e-06
7.3779e-06
0.00237267
-0.0491631
0.0218699
0.0333308
0.000114419
0.0174502
-0.00196064
-0.00348886
-0.123451
1.70389e-07
6.64458e-06
-5.3794e-06
-5.81256e-06
-0.00238215
-0.00156444
-4.6127e-05
-0.000829311
-5.42123e-06
-0.0828401
-4.43523e-06
3.63506e-05
1.5655e-05
1.00548e-05
0.0196316
-0.00386593
-2.9363e-05
-3.77139e-05
-6.89972e-06
2.88302e-06
-8.28129e-05
0.0162321
5.17254e-06
-5.78174e-06
0.000212701
-0.134769
-8.45717e-05
0.000771569
4.11017e-06
-0.903486
4.15363e-06
-4.58608e-05
-0.0319037
-0.00636728
-9.14109e-06
3.75062e-06
0.0030097
2.09453e-06
1.68075e-06
-0.00304045
0.0598335
-0.000316711
-4.80973e-05
-0.000520217
0.0280779
3.50819e-06
5.5453e-06
8.68575e-05
-0.000271126
0.0340706
6.3355e-07
-0.326785
-4.20827e-05
0.0127332
-1.37804e-06
4.33842e-05
-5.47322e-05
-0.738879
-0.00812948
0.000233018
-0.0059925
0.00973495
-0.00376052
0.0121537
-0.000182545
-0.00353437
3.25268e-06
9.66177e-06
-0.000107114
0.000463351
-0.766502
1.54684e-06
0.000127942
0.00175087
-0.0474639
-0.0355586
0.0801037
0.00218845
0.0480278
-0.00592494
-2.45372e-05
2.74942e-05
-0.897752
-0.207885
-0.000171867
-7.51416e-05
-4.80312e-05
-1.13521e-06
9.64292e-06
0.000996062
-0.000244814
-5.2632e-07
-0.00772967
3.80013e-05
4.56533e-05
0.0411797
-1.33511e-05
6.81534e-05
0.000119835
-0.00677837
0.429274
-2.21684e-06
-0.000214973
0.852183
0.000929752
-0.00753598
4.57106e-07
-5.82553e-06
-5.74798e-06
-4.96252e-05
0.452357
0.000540307
2.93116e-07
8.17217e-05
7.51943e-06
0.00125745
1.6598e-05
3.13831e-05
-0.000327835
1.49716e-06
0.0208159
2.93824e-06
2.3317e-06
-0.106337
-0.000191571
-0.717495
-0.194897
0.0193987
1.95724e-06
1.72261e-06
2.0526e-06
-0.0112472
-4.00765e-06
3.25916e-05
6.1068e-06
-0.0192856
1.58686e-07
1.60046e-06
3.51566e-06
-0.000883449
0.440641
-0.0329781
0.00028815
-0.000118929
1.10919
-0.614774
-1.06768e-06
0.0356824
3.86326e-05
-0.312856
-2.64263e-06
0.00109756
-1.01137e-07
0.0106477
-8.65251e-07
9.04897e-06
-7.06691e-05
-0.0563564
-5.00134e-06
0.000333178
2.63058e-05
-0.584383
4.66829e-05
0.00033935
7.77352e-05
0.000811072
4.56655e-06
-3.73482
0.000165396
1.23006e-06
4.78734e-06
5.93881e-06
1.07703e-07
2.36613e-07
5.86707e-07
-7.47379e-05
-5.26819e-06
-1.00898e-05
6.95589e-07
0.00264412
-0.430909
-0.000171593
-0.00686218
-1.02261e-07
0.488529
0.0353953
5.37615e-06
0.00225571
-0.000581395
-0.00902409
4.31769e-06
0.0155723
1.80352e-06
-6.90111e-06
-0.0774893
-0.000106444
-0.00354726
-0.170544
-0.000762691
0.00111786
-9.31445e-07
-0.720558
-3.15228e-06
0.0124859
0.00025394
0.00417142
-3.4596e-06
0.00906322
-0.0016988
-2.33557e-06
-7.83774e-06
-5.69497e-06
-0.000903166
-9.86744e-05
-2.41958e-06
-1.65786e-06
0.0328136
0.113975
0.027393
-0.00259402
0.107208
0.018565
-0.0346389
8.02071e-06
-0.922465
-7.71313e-06
-0.00341185
9.11844e-06
5.21434e-06
-4.08217e-06
4.11804e-05
4.05961e-05
-0.0233637
0.00104067
-1.08148e-05
-0.27331
-2.80882
0.0517297
3.1523e-07
0.0170988
-1.22531e-05
-0.000143435
2.34271e-07
-0.000187214
8.4051e-07
-0.0697184
-0.000361049
-2.41971e-06
-0.510765
-4.46372e-05
0.00426772
-0.0678433
-6.36182e-07
-0.00225633
-0.21163
0.0123302
-6.37251e-05
0.000243244
3.96431e-06
3.73506e-06
-4.75544e-06
-0.235633
-0.00111733
0.305576
-9.71717e-06
-0.000489152
0.343397
4.89666e-06
0.75279
-0.158969
0.00132078
-3.79306e-05
-6.04631e-06
9.96828e-06
-3.18054e-07
-0.00571356
-0.06785
0.00320092
-0.0144779
0.0237761
-0.00647223
-0.00265796
0.000498961
-0.0374085
0.000234933
-3.96838e-05
-0.345576
0.362013
-0.00198988
0.0165493
-5.48958e-06
-5.44946e-05
-0.00544621
-1.21444
-0.0326261
-5.63113e-06
-6.37018e-05
0.383094
0.000891602
-0.138176
-0.000397934
0.00329392
-3.8945e-06
0.00122224
-5.18819e-06
0.00307037
-0.03891
4.25609e-06
-3.57592e-07
-2.46266e-05
-0.0375222
-8.86773e-06
-0.000137028
-0.00551906
-0.00393361
0.000129587
2.49113e-06
0.000456912
0.0173035
-0.00476886
0.000109596
4.47321e-06
-0.0019659
-0.968188
-4.41069e-05
-0.00030156
0.268215
-6.55372e-06
-1.69768e-05
-0.00124073
-0.000192802
9.85221e-06
-7.3068e-05
-0.000379501
2.93132e-06
0.0416348
0.000556642
0.000308874
-0.00010818
0.78223
0.00127034
5.25094e-05
-7.2451e-06
-0.00359551
-3.14594e-06
-7.59595e-06
1.41765
0.00279952
0.001471
-4.86719e-06
-2.46322e-06
0.0307952
-0.00135434
0.471949
0.000137165
1.13708e-05
0.000419476
-0.0270747
-0.000464832
0.00450344
-0.000748896
5.46824e-06
-3.67253e-05
-6.88715e-06
0.000647717
0.000154721
4.03117e-06
0.325305
0.000183173
0.00183892
0.00165403
-1.84717e-06
-0.0937112
-0.000153074
-2.15354
-0.000653241
-0.0033896
8.70294e-05
0.00053077
3.71182e-05
-0.000369555
0.0697294
-2.48588e-07
0.000222234
0.000228439
-5.40797e-05
1.09929e-05
0.0186107
-0.00041247
0.000938212
0.000116901
0.1006
3.58829e-05
0.0132275
0.0287983
0.00144952
0.0103215
1.45443
0.433836
-3.17547e-05
0.0162289
-0.00331462
-0.0163485
-0.000289464
-0.000125332
0.0132642
-1.70537e-06
-0.334177
0.298996
-3.66777e-06
0.0193171
0.000486192
-0.055973
-3.44209e-05
-2.65102e-07
0.0205774
0.498292
-1.28353e-06
0.000109627
-0.00628491
0.000159133
4.17868e-05
-0.00320465
0.00882303
-0.00583297
-0.0245016
-5.58969e-07
-0.00027303
2.38166e-06
0.0681141
0.0196752
0.022534
4.09733e-05
-0.101598
0.000115609
0.00755781
0.000113412
0.000192761
-0.0101615
0.00033273
0.0205111
2.46755e-06
3.7124e-06
0.0110369
0.000751107
6.0225e-06
0.000488451
-0.000380573
-3.68555e-06
-5.87427e-06
0.00052974
-0.00523559
-0.00190181
0.0122099
0.00201914
0.00167221
2.63484e-06
0.00188877
0.00191182
0.0560144
-0.00132056
1.51518e-06
-7.53719e-07
-0.0930754
-7.01565e-05
-0.714839
-0.00960658
6.7754e-05
-0.00116242
-0.000122228
0.195214
3.55474e-06
-4.64141e-06
1.09004e-05
-0.000185165
-1.30445e-05
0.000381702
-4.52024e-06
-0.0251934
3.95672e-06
0.000559159
0.000704037
-3.80033e-07
4.6106e-06
1.07123e-05
2.62283e-06
-0.00380495
3.87638e-06
0.00143161
0.00270598
-0.800608
0.00552828
-4.47563e-06
-0.333617
-0.00063333
-0.000124759
-0.000848084
0.000210063
0.016294
0.0117098
-0.0385798
-0.449706
-3.70564e-06
-9.71298e-05
-0.000270098
2.64642e-06
0.00408274
1.51754e-06
0.32122
-0.017912
0.526958
0.000177855
-9.33234e-05
0.00805597
0.000136872
-0.0354451
6.24806e-05
0.0188992
0.000440777
-6.49759e-06
0.0143736
3.143e-06
-0.0074242
-0.000359964
-0.000815836
0.00496995
2.83087e-05
3.01826e-05
-7.30931e-06
2.72959e-05
0.000190442
-0.0886774
0.013794
0.00591446
-3.71763e-05
2.20135e-06
0.0172865
-0.175934
-2.56021e-05
-0.000626788
0.0292943
-0.000304609
0.0145187
-2.40206e-05
-0.00957731
-0.000132961
0.00233608
-2.58781e-05
6.32557e-06
0.000149039
9.92159e-06
0.0188257
-4.04253e-05
-0.0010437
-0.000139311
-0.000146059
-0.126798
-5.71354e-05
3.34075e-06
-1.33018e-06
2.21939e-06
-1.22546e-06
-3.38372e-06
-0.00285675
7.33013e-06
0.0198317
0.141747
0.0139476
7.46119e-06
-0.865779
0.0285271
0.0220944
-5.13984e-06
-0.0959651
0.0089772
-3.29255e-05
-0.000356128
0.000489732
-0.000668692
0.00975717
-0.00136122
-0.00299217
0.0346699
4.26559e-06
0.000107946
-5.24433e-05
6.20266e-06
7.46266e-06
5.30333e-06
0.00443102
0.00396714
0.0061051
2.76217e-05
-8.26339e-05
-4.66292e-05
-0.0524755
6.78181e-07
-5.80027e-05
0.0253319
2.32119e-06
-0.0566285
0.000245434
8.98079e-06
0.454899
6.17684e-06
0.00236495
-1.03272
-0.000110512
-5.01271e-06
-0.000718214
0.0224356
-0.0695326
-0.149248
0.137242
-0.00428978
-2.14797e-07
3.59654e-06
0.13038
-0.000571101
-2.5112e-06
1.68521e-06
6.3893e-05
4.42932e-06
-0.420702
-0.158196
-0.0600869
-0.000585757
0.0463706
0.00199816
0.0210235
0.000107466
0.00128929
3.46197e-06
-0.0025322
1.90522e-06
3.01324e-05
-0.145088
0.002578
3.3691e-06
0.00442905
-1.00966e-06
-0.003682
-0.000331848
0.000140021
5.91254e-05
6.72176e-06
2.53962e-05
0.209649
2.91159e-06
-0.00651858
-0.00058397
1.4927e-05
-8.21365e-07
2.33461e-06
2.35609e-05
0.0436864
-9.4765e-06
1.14115
-0.000337457
-0.00709958
-1.08964e-05
0.00152109
0.00100795
-3.85989e-06
-3.46459e-07
-7.2969e-06
-0.000424616
-0.00197252
9.05836e-08
0.0131145
-0.0029529
0.0159026
-0.109328
2.25185e-05
7.40454e-05
9.23979e-06
-0.000785579
-0.000165134
-0.000157271
-0.0179376
2.76158e-06
4.37989e-05
-7.42161e-05
-0.457184
-0.143115
-0.0210467
-3.13134e-06
0.000111682
-1.16028e-06
0.0182855
-9.41839e-06
1.60649e-06
-0.0813976
0.0404975
3.89052e-06
0.00570389
-0.0850561
-2.59391e-05
2.37616e-05
0.0589482
0.000187828
-2.01239e-07
0.00713221
0.00756282
4.08245e-07
-0.720784
-4.7283e-05
-6.03774e-06
0.000706597
1.57058e-06
-0.601073
0.000109991
-8.21186e-08
0.090688
-5.16456e-06
-0.000174824
-3.1311e-05
-8.82345e-06
2.17635e-06
0.000696487
-0.000370575
-0.00756233
-2.69881e-07
0.0810917
8.61622e-07
0.0451908
0.103718
-0.0011
0.0130624
3.63023e-06
-0.0928357
-1.88493e-07
-0.104236
3.44532e-06
-1.85429
-0.121284
0.00618645
-0.000197844
2.40395
0.0904118
-0.373976
-0.000106824
0.000124795
-0.0126584
-0.0850518
-0.00268928
0.000460358
0.00221729
0.012405
1.49414e-05
0.0184183
-5.05005e-06
-0.00112495
-0.0217611
2.28321e-06
9.57947e-06
0.000294628
-7.1485e-06
5.35769e-07
-0.533168
9.52849e-06
0.0773533
5.423e-06
-0.642292
0.516842
1.09588e-06
3.04769e-05
-2.22992e-05
-0.000165968
0.000165026
-6.01866e-05
0.0230372
-0.000171163
-0.00817916
-7.30907e-06
2.91124e-05
1.75529e-06
-4.04564e-06
2.99094e-07
-0.87177
-2.51956e-06
1.18667e-05
1.64829e-07
0.00710867
0.000170547
4.3998e-05
0.0141529
0.000181913
4.30652e-07
0.0256849
5.56174e-06
-2.42859e-06
3.60032e-06
0.00552667
-4.4441e-06
0.480307
1.11545e-05
3.19203e-06
-0.025418
4.32002e-07
3.94167e-06
0.0208587
0.0221076
0.0152818
0.0244493
0.000259539
1.59512e-05
9.57021e-06
0.00011803
-0.00638155
-0.00403453
0.115468
-2.13171e-06
0.211672
-0.122181
9.68926e-05
5.11776e-06
-0.000828905
0.020174
-0.150846
4.66565e-05
0.000247871
-1.00553e-05
-0.000167854
4.34053e-05
0.0421683
5.2414e-06
0.0179088
-4.54262e-07
1.22007e-07
-0.103398
0.00137354
-6.77542e-05
0.0237626
-4.55196e-06
-0.184718
1.23071e-05
5.16988e-06
0.0139663
-7.94251e-05
-7.94939e-06
0.0243474
1.28498e-05
0.000111184
-9.80706e-06
-0.000385928
-3.78888e-06
-0.0349128
0.000147388
-0.00051986
0.0159924
1.71869e-05
0.00183243
1.7553e-05
-1.75849e-05
0.000116282
1.56346e-05
0.0170659
-0.00188124
2.30921e-06
5.88082e-06
0.0219348
6.59171e-06
0.0225583
-2.82104e-05
-0.000120713
-1.24098e-06
-5.24115e-06
0.000178934
0.0250094
-0.00528481
0.0248381
-0.0386046
-0.000775427
0.0135405
-0.141847
1.72488e-05
-0.000656794
-3.1734e-06
3.071e-05
1.42529e-06
-7.459e-05
0.229092
1.05075e-06
-0.0754446
-3.08773e-05
-3.83827e-05
-0.000649629
1.33142e-05
-1.69155
-4.99071e-06
0.0168962
-6.3823e-06
-0.00068873
-0.0047095
0.00053377
0.0188964
-2.3904e-05
0.0205303
0.000160289
0.000723833
0.0239754
1.82854e-05
-0.0103742
-4.57404e-06
-0.000129119
7.79792e-06
1.27404e-06
7.30693e-06
-0.902457
5.98174e-06
9.55291e-06
0.00013507
-0.40108
0.0156822
0.000120063
0.0348228
-7.23901e-06
-7.79565e-06
-4.4219e-05
1.34765e-05
8.34662e-07
2.96118e-06
-1.73492e-05
8.12983e-06
0.0288909
-0.00016673
1.17824e-05
1.07296e-05
0.000130111
0.799722
-1.15766
-0.0169451
0.00026737
-0.110406
-0.00407966
-0.259439
9.06512e-06
0.00150282
0.157148
2.29395e-06
-1.29739e-06
-0.000113258
-5.36158e-05
-1.33247
-5.76975e-05
1.39593e-06
-7.05708e-05
-1.74865e-05
0.209349
-1.98112
-4.85076e-05
-0.180382
0.00191442
0.67067
0.0366609
-5.23051e-06
0.00010023
-0.00143015
-0.000190011
-0.00166562
-0.110293
0.00493473
8.55605e-05
0.0268242
-0.00163214
-0.00205077
-0.00462436
5.89173e-06
-0.00412345
-3.78572e-05
-3.02287e-05
-0.230515
-2.23484e-05
1.23502e-05
0.00272916
-0.154488
2.61795e-06
-0.0508741
-3.78897e-06
-0.006263
1.58094e-06
-3.43879e-05
6.04811e-05
-0.000697769
0.000512604
-0.000233829
-1.67924e-05
0.426134
1.46471e-05
0.00633743
-0.000811112
0.00010329
-8.08393e-06
0.337406
9.91484e-07
-8.20958e-06
0.0440314
5.83556e-07
0.0109561
0.00031078
0.0235125
0.000372904
3.00869e-07
-0.0381881
-6.88095e-06
-0.0039837
0.0212877
-2.23964e-06
0.0662702
0.272514
0.000268571
2.12861e-06
-0.00244203
0.0354743
-0.000148613
-0.13482
0.000161685
0.000700562
-0.0191818
-0.0579453
-1.26553e-06
-0.0106269
-0.0211214
1.07196e-05
1.58601e-05
0.0103928
-0.00950246
-5.27362e-05
0.0200133
-0.041218
0.298569
2.59494e-05
0.000171115
0.000514572
6.54774e-05
-7.74817e-07
-0.150624
0.0123049
-3.22239e-05
-1.41743
-9.5886e-06
4.66981e-06
-0.0727221
0.0312661
-2.28328e-06
3.3285e-05
0.0583113
-0.180306
-7.39585e-05
-0.000595596
-4.8461e-06
-0.230575
-0.118964
0.00116128
0.000291458
0.0820817
-1.91637e-05
-0.0928726
9.7624e-05
-2.36513e-05
-3.58566e-05
5.40635e-06
-8.81283e-06
-2.53059e-06
-0.00052363
0.324083
-1.95864
1.65461e-07
1.38887
0.0120748
0.0510572
0.000417227
-0.496151
0.00177589
0.000122529
-1.19263e-05
-1.65991e-06
0.000436126
0.00169024
7.29857e-05
-9.89353e-05
0.249037
0.0274182
0.726902
-0.00222877
0.0140645
4.41047e-05
-0.00262802
-0.832741
-0.0235558
0.000215198
0.000478624
4.32147e-06
0.144356
1.3307e-05
0.00499366
-0.00664971
5.4513e-05
-0.0291623
0.0638499
-1.61768
0.000659287
0.0367021
0.0218425
-0.0587242
3.12268e-06
0.313297
0.0186884
0.00984923
-0.0259019
-7.05998e-06
-0.077429
-1.24039e-06
-3.07576e-05
-0.126266
0.0323125
0.135985
0.297492
0.000866497
0.339992
0.326693
-0.689764
1.71583e-06
3.02335e-06
-7.60071e-06
0.0862686
-0.021632
-0.572303
0.000170556
0.161886
0.017931
-1.12974
0.00284256
-0.0694253
-0.00288857
6.99363e-05
0.00369795
-0.0107039
4.18476e-06
-0.000880979
-0.000241732
0.0366691
8.1403e-05
-6.16983e-05
4.41642e-06
-1.00326
0.696501
-0.00864452
-0.0013228
-0.0563161
5.25916e-05
-0.000391286
-0.000482935
0.0122749
-0.00663341
-0.0107076
3.28582e-05
0.314848
-3.13362e-05
0.000114326
-0.0232802
2.34784e-06
-4.68821e-06
0.000256294
0.065516
3.60808e-06
-0.129901
0.0611134
-0.0212179
-6.44497e-06
-0.663595
-2.08308
0.00209356
0.0151233
-1.47469e-05
0.00167167
0.0740632
0.0015513
0.00108414
0.00141109
-0.00542024
0.00279865
0.00158084
-0.0227425
-0.00132123
-0.0490378
5.77583e-05
0.00155589
0.0143217
0.0237441
0.0379466
-0.000949445
0.289466
4.1622e-05
-0.0778021
0.000550863
5.36458e-06
-0.0123395
-0.0873591
0.00013895
-0.000282013
-0.000104685
-0.591165
-0.000942969
-0.000151594
-0.00188408
-1.89741e-06
-0.0628363
-2.55861
-0.000686463
-1.03851e-05
0.174723
-0.290868
-0.521895
0.0282323
-0.000157216
0.000715697
9.73027e-06
-2.6108e-05
1.66524e-05
0.0179858
0.0343257
-8.22876e-06
1.21598e-06
-2.26927e-05
0.000737686
0.251595
2.07866e-05
0.0156418
-3.65084e-06
7.01436e-05
1.17405e-06
-0.0102071
-1.9148e-06
-2.92122e-06
0.0248871
0.0229138
5.39334e-05
-0.000250109
5.59677
0.308896
0.0174589
-1.24158e-06
-3.09483
-0.0640953
-0.00154921
0.0249678
0.00149266
1.41597e-05
-1.28939
-0.0049097
-0.0397189
2.41886e-06
0.00493381
-0.00120485
-0.0105953
6.09324e-05
1.82055e-05
-0.000497959
-0.00065951
0.00147555
0.0291997
0.000110259
0.000488863
7.6444e-05
-0.00701316
7.79747e-06
0.0159577
-1.43684e-07
-0.00971414
-5.43758e-05
0.00287102
0.00105062
0.000926664
8.95749e-08
-0.000435619
0.060506
0.00930987
1.55936
0.0270279
3.51913e-06
0.821505
-0.000378408
-0.852622
0.00225144
-3.91563e-05
0.0852152
2.80737e-07
0.0207435
0.00068631
2.33566e-06
-0.000103976
-0.000703318
-0.000134686
-8.88661e-06
-0.118773
-2.19037e-06
8.60314e-05
-0.239249
-2.67622e-06
0.0172395
6.75905e-06
0.0139134
6.32742e-06
0.000352432
0.0522911
0.497625
-2.46368e-05
6.07859e-06
-1.76171e-07
3.80723e-05
3.48763e-06
9.34628e-06
-1.09774
-0.0751096
-0.000581112
-4.13028e-05
-0.000869493
-0.00473597
0.0131658
3.32314
-9.0241e-06
-8.3268e-05
-0.0396851
0.0236733
-0.0720436
0.00118469
-0.0710717
-0.605698
0.00151451
-1.20384e-06
0.00129691
-0.14253
-0.000106367
-5.31118e-06
6.5523e-05
-6.19505e-06
-1.21226e-06
0.0063671
-0.0273014
6.02463e-06
-2.65421e-06
-0.14082
2.94946e-05
0.216873
-0.0400399
4.39215e-05
-0.00240496
0.0230847
-9.3715e-05
0.0217336
-2.59035e-06
3.77279e-05
-0.000351243
0.0353376
0.000933909
0.00442616
0.00171225
0.0203004
-0.00863832
0.0102075
0.912667
0.00583431
-0.000102169
0.000870613
0.000156643
0.00025036
5.42327e-06
-0.026881
-4.17233e-06
8.38855e-06
-0.487625
1.92582e-06
-7.93512e-05
0.0276698
-0.000159145
2.34714e-05
-1.45069
-0.014609
1.62673
0.614847
-2.4076e-06
3.97962e-05
0.0741916
-0.106836
0.000492537
0.0593817
0.0347781
0.0627295
-0.742475
0.0165749
-8.83025e-06
-0.195465
5.53654e-05
0.513197
0.0502952
2.55793e-06
0.00652775
2.9658e-05
-0.385659
-8.46041e-06
0.0213164
-0.634965
-1.35914e-05
-0.0120634
2.58616e-06
-0.00383557
-1.37446e-06
0.0153573
0.0443208
0.17097
-0.0316579
-0.0317583
-0.000112425
3.23274e-06
-0.000516857
4.70056e-06
-1.06741e-05
0.00175804
0.0232451
1.16395e-05
2.98481e-06
-8.26575e-06
-0.000191828
-4.50284e-06
-0.299835
0.00544877
2.49031e-06
0.000116373
-0.00598015
0.00101485
-6.1377e-05
2.57258
4.79505e-05
8.89199e-07
-1.62651e-05
0.0146816
-0.00600012
0.0107667
0.0172283
-0.0402513
-0.000192608
0.0151254
-0.057462
0.721452
-4.71648e-05
-0.0071116
1.17931e-06
-0.330723
0.00451469
0.0267602
6.03716e-06
1.28364e-05
-0.000990368
0.0219744
-0.00266359
-0.00119395
-3.80808e-05
2.27735e-06
8.92835e-06
-0.321912
0.169795
6.16006e-06
7.63183e-06
0.00103326
5.44708e-06
-0.217377
0.00815043
0.00513538
0.00010826
0.00366942
0.0113706
1.05521e-06
0.0133824
-6.70993e-05
-4.48429e-06
-0.000149796
-0.0550237
0.317513
0.0104476
-0.0935833
1.32727e-05
5.01277e-06
9.91001e-05
4.05605e-06
3.62816e-05
0.0516288
0.000157902
0.0463102
3.90577e-06
0.00472612
-0.00558664
-9.37852e-06
0.0772002
0.209456
0.00851548
0.019202
-0.000140426
-0.0864554
-0.0013797
-0.00344112
1.68397
-3.8223
2.46748e-05
4.24405e-06
-0.00114751
6.12075e-05
-0.059679
0.0409115
-1.15316e-05
-5.37212e-06
0.00133542
0.104581
-0.00287181
9.41135e-06
-0.000485724
0.043196
-0.000184619
-0.0936644
-0.0552786
-1.03979
-6.56691e-06
-9.81495e-05
3.92671e-05
-0.00326073
-0.00975206
1.55167e-06
0.000145197
0.0131068
-0.00201948
0.000670365
-0.0766438
1.92902
0.00301998
0.0141035
-0.00037661
8.86999e-06
0.00675158
2.6104e-06
-0.0463146
-0.12257
3.84745e-05
-0.59514
-5.46595e-06
-0.101432
-5.65021e-06
-4.70891e-05
-2.36733e-06
-0.4715
0.00174431
-0.563896
-0.0158985
-1.25721e-05
-6.03012e-05
0.0238945
0.0894408
0.246402
1.90183
-9.16007e-07
-0.000107267
-1.55021e-05
-0.0752363
8.18022e-06
1.20948e-05
0.000155674
0.0273123
4.23247e-06
-1.64364e-05
0.000606702
-0.825305
-3.07834e-06
-1.03137
-0.0022751
0.000997166
3.09949e-07
0.0246706
0.0106238
-0.00187803
-0.000379673
4.87969e-05
-1.28395e-06
0.000131526
8.48832e-05
-7.90662e-06
0.330237
-1.88467e-06
0.00420626
-0.0104111
-0.000264548
-1.45186e-06
9.90095e-06
-2.85906e-07
0.000394876
-2.93086e-06
3.27728e-05
1.80271
0.000300066
0.0193712
2.80508e-06
0.00128081
3.16218e-06
-0.00018362
-0.0811232
0.038351
-0.0617873
0.034369
-5.34555e-05
2.19127e-05
-3.23167e-05
0.00542036
0.00014716
3.18524e-06
-0.00637482
0.0234004
1.3207e-05
4.24147e-06
0.0375688
-5.93041e-06
-0.0111409
0.000209529
0.000984617
-0.555102
0.0353191
5.23241e-06
-0.00158263
2.45157e-06
-1.22225e-05
3.7845e-06
-6.46557e-06
1.29851
5.00276e-06
-3.15843e-05
-0.429857
-0.000108127
-0.530194
0.000185611
2.72029e-07
0.450208
-0.00448371
-1.81906e-05
0.0797807
-0.324562
-0.461447
-8.03526e-07
0.0239591
3.07464e-05
-0.378651
-2.90542
2.19874e-06
0.0483983
0.00474154
8.05168e-05
0.000362959
0.128255
3.46908e-06
-6.01535e-06
-0.00143427
-3.35878
-2.61512e-05
0.0135761
-5.18347e-07
4.81192e-06
0.0516226
-9.59414e-07
-0.232361
-0.14338
-6.53622
-9.81591e-06
2.10737e-05
-0.000597339
-6.51683e-06
-8.97475e-05
-0.0446967
0.0523374
5.99867e-05
0.00343279
-0.0196073
-1.8175e-06
4.22922e-06
-0.00104346
0.324432
6.1371e-05
-0.0818592
0.0775636
0.000286828
8.83761e-05
0.00110419
-0.00989119
5.76271e-05
0.440139
-0.0357317
-0.000734618
-0.026246
-4.14537e-06
0.132077
-3.91308e-07
4.90554e-06
2.59448e-05
-7.016e-06
7.68505e-08
0.00016903
-3.76578e-07
7.16425e-06
8.11874e-05
-1.52357e-05
0.000762621
-6.5349e-06
0.0651669
3.31577e-05
-4.8233e-06
0.000295537
0.000822316
4.7347e-05
1.85819e-05
4.34468e-05
0.120708
-0.00635372
0.0170127
-0.00198038
-4.4941e-08
4.39448e-06
0.0100769
2.40081e-05
0.0436132
-0.0333241
0.286239
0.0404071
1.71169e-05
0.573617
-0.486167
-0.431893
1.57045e-05
0.0410331
2.70001
-0.0212525
0.000656876
6.15842e-06
1.96102e-06
-2.54286e-05
0.0353364
0.00250699
0.000137492
0.093619
-2.87487e-05
0.000189022
1.15504e-05
2.85711e-06
-1.45041e-06
0.00366704
0.0239255
0.0391824
0.000608187
0.0224143
-0.0846719
0.590408
0.00126039
2.43668e-06
-0.00349941
4.22595e-05
0.000435173
-1.58312e-06
9.47609e-05
-1.77673e-05
6.51726e-05
0.000112144
-1.02983e-05
0.234603
2.63747e-05
-5.63378e-05
-0.0660328
-0.00125044
-0.00911186
-1.08472e-05
0.000227562
3.85419e-05
0.022184
0.00217579
-0.0059759
4.03525e-06
0.000174778
1.63342e-05
9.52399e-05
0.000666045
-0.0602588
0.0981186
0.000701759
0.00974502
-6.61038e-06
0.00171375
-0.0902888
-0.0270297
-0.0458779
-0.0126166
0.0189489
2.44443e-06
2.49496e-06
4.87839e-05
0.181801
-0.0230824
-0.00485019
0.00650121
1.13557e-06
1.23404
0.278535
0.000604278
1.87351e-05
-0.0669537
0.000168646
0.00150523
-0.000461244
1.78602
9.39332e-06
-0.00944317
-1.86608e-06
1.49933e-05
1.42354e-05
-0.00830953
-0.0138363
-0.163566
0.00402346
-1.87442e-05
0.000337629
9.52342e-05
0.213011
-0.948924
1.85037e-06
-0.0575554
-0.000107587
0.00250865
-2.34665
-5.72436e-06
-5.33552e-06
-2.80636e-06
-1.19987e-05
3.24377e-06
-0.00025821
-0.000469084
1.59523
0.000356771
-0.735659
5.52963e-06
0.0386463
3.48366e-06
-1.14821e-05
4.87009e-07
-1.17838e-07
0.00106905
2.74886e-06
-0.0368336
0.00400152
0.022372
-1.2033e-05
4.01076e-06
0.0224665
8.13783e-05
-0.00166474
-1.75615
6.31422e-06
-3.55811e-06
3.16414e-05
-0.144024
0.00249136
1.01312e-05
0.000757775
1.17112e-05
0.401658
0.00132888
-0.0143486
-0.0471557
0.0276654
0.00024669
0.196568
1.07764e-05
-0.675106
7.81506e-06
-0.00183999
2.00399e-06
0.0535664
1.26782e-06
1.20655e-07
-0.00141145
-6.02872e-06
-6.46125e-06
-3.81123e-06
-1.73726e-05
-0.0742722
2.47247e-06
0.00021596
-7.00855e-06
0.000115141
-0.00154095
-0.00778748
9.2643e-07
0.0234896
0.0110964
-0.0174335
0.00147142
0.483376
-0.905907
0.863881
2.9552e-05
7.26802e-06
-5.92697e-06
-0.118
0.00150923
0.000162411
1.06872e-05
2.88176e-07
-4.18627e-06
-8.14133e-05
0.000809144
-0.0662247
0.894685
8.15172e-06
2.79456e-05
9.03437e-06
-0.692963
-0.00018203
-0.000277819
-1.20572e-05
1.17128e-06
-0.795269
0.00107854
-0.000233162
-0.606396
0.000416529
0.0173688
9.75001e-05
0.0341
-0.000409057
2.77119e-07
-4.3281e-05
-0.0267561
-0.000512932
0.00291259
-0.473933
-0.103134
0.000308124
7.34127e-06
0.102125
-0.0100482
1.01363e-06
0.0298304
0.0232912
1.54467e-05
4.98339e-06
6.75103e-05
-2.44626e-05
0.000268185
-0.086531
0.0882853
-0.129444
9.49682e-07
0.000101295
0.000425525
0.000294611
0.000688011
-0.00733503
0.00239346
0.00135286
-4.19541e-05
1.02974e-05
0.00111095
-0.000133062
0.00681396
6.92636e-06
-0.000982575
6.97254e-06
2.42629e-06
-0.0005399
-0.0180955
0.0232207
7.14375e-05
-1.96626
6.66206e-08
-0.00214324
0.000246967
4.95539e-06
6.50375e-05
-0.000165564
-0.0602263
0.000205392
-1.44338e-06
1.75353e-06
4.40024e-05
5.75281e-06
2.64156
-0.0540025
-6.23978e-07
-0.0146886
0.0871297
4.19008e-05
0.0013652
-1.0199e-05
-0.000328795
-1.323
-0.0030824
7.54167e-06
-0.0486744
0.0819987
0.000152187
0.00118038
4.46056e-05
-0.52637
0.597736
-0.00298346
0.00105124
-8.89745e-05
-0.000255814
-9.15411e-05
0.0135071
0.00310376
-0.0899916
0.00284671
-0.151616
-0.000174106
-6.27293e-05
-3.66088e-06
0.00110841
-0.00136125
0.0041979
-1.50768e-06
-0.00170041
-6.613e-05
-1.40268
-1.64245e-06
-0.000112366
0.00153846
0.000149896
9.50922e-06
-0.0461555
0.000167986
0.00124739
-1.11379e-06
-4.47602e-06
-0.000301966
0.0547023
0.0171954
-0.000214358
0.01478
5.4378e-05
1.78509e-05
9.1901e-07
-0.0632411
7.73696e-05
0.000787158
0.0190773
-2.22885e-05
2.68168e-06
-0.294407
0.373997
0.266412
0.00194396
-7.60031e-06
-0.00110573
0.0177888
-0.0689598
6.27384e-07
0.191006
-0.000349087
-0.0966488
-3.19016e-06
-0.000748567
0.249575
0.0419591
-6.01752e-06
-0.00126641
0.00157114
-0.00266967
3.8016e-06
-0.0609087
-0.00199133
-2.05236e-07
-0.000158306
0.0289295
0.0552817
-0.00295919
-0.0105611
-0.000967093
-1.28932e-05
0.000179105
-0.000735851
0.0185133
-0.596491
-0.0437621
3.78895e-06
1.55329e-06
0.00144173
2.30222e-05
-1.89875e-06
1.76904
0.00010518
0.0330974
-7.96494e-06
-9.66149e-06
-0.0200714
-0.00678675
0.00322539
-0.00739655
-0.315531
0.272103
-0.000304566
3.76641e-06
3.17564e-06
-0.00171444
-1.15141e-05
-0.0221001
-3.38587e-06
-1.36398e-06
0.000115071
-0.0620973
1.1356e-06
3.25413e-06
-0.00375091
-0.0243556
-0.0120753
-1.28307e-06
-0.604374
3.74006e-06
1.49069e-05
-0.0210585
-1.39177e-07
-0.000349478
7.63046e-05
0.000631301
8.86899e-06
1.26327e-05
0.00309804
-1.63694e-05
3.58541e-06
-2.6249e-05
3.83975e-06
-0.00782255
-0.0271406
1.15588e-06
-0.00398859
0.039342
1.11685e-05
5.18222e-05
4.51525e-05
1.78463e-06
4.12804e-06
-5.39702e-05
-0.005107
0.00406604
-0.0815693
-0.0417438
-0.362561
3.93548e-06
-1.83372e-06
-9.51134e-05
-0.00265415
-0.0665211
-0.00504801
9.31807e-06
-3.42525e-06
0.000808423
0.00952518
0.232818
-8.41651e-05
2.90468
1.47735e-06
-0.00350425
0.000635942
-0.601273
8.20321e-06
-3.17038e-06
1.91998e-05
-0.0161705
0.015726
-9.19098e-05
0.00619377
-0.937458
0.0109199
-0.0937377
0.0285429
0.00485111
0.01304
-0.00145524
-0.00325197
-0.0641962
0.068528
-0.0753155
-0.00046502
1.79935e-05
-1.59591e-05
8.13485e-06
-3.49005e-05
5.6783e-05
0.0230508
0.0395697
0.0188302
0.0570598
0.0221556
-7.76475e-05
-0.0100615
0.00029132
-6.96783e-05
0.000470349
-0.0287315
-0.0935389
-3.89974e-06
-0.000874301
-0.179151
0.00201019
-0.0134908
-6.92809e-06