/*--------------------------------*- C++ -*----------------------------------*\
| =========                 |                                                 |
| \\      /  F ield         | OpenFOAM: The Open Source CFD Toolbox           |
|  \\    /   O peration     | Version:  v2012                                 |
|   \\  /    A nd           | Website:  www.openfoam.com                      |
|    \\/     M anipulation  |                                                 |
\*---------------------------------------------------------------------------*/
FoamFile
{
    version     2.0;
    format      ascii;
    class       surfaceScalarField;
    location    "200";
    object      ddtCorrDdt0(phi);
}
// * * * * * * * * * * * * * * * * * * * * * * * * * * * * * * * * * * * * * //

dimensions      [0 3 -2 0 0 0 0];
oriented        oriented;


internalField   nonuniform List<scalar> 
27087
(
0.000121262
-0.000151923
3.06476e-05
-0.00653086
-0.0128284
0.0193593
0.0456966
-0.00260206
-0.0430946
-0.00276296
0.00691932
-0.00415635
-0.00111576
0.000976853
0.000138921
0.000107954
-0.00151489
0.00140694
-0.010525
0.0343042
-0.0237792
3.68851e-05
-3.88597e-05
1.98058e-06
8.92973e-05
-1.91157e-05
-7.01814e-05
-0.036688
0.0261629
0.000349106
-0.00125073
0.00090164
7.48147e-05
6.00964e-05
-0.000134923
-0.0404161
0.030962
0.00945409
-0.0291984
0.047095
-0.0178966
0.00705396
-0.00341944
-0.00363452
-0.0241574
0.0384622
-0.0143048
-0.00310024
0.000425769
0.00267449
0.0237386
0.00354427
-0.0272829
-2.75844e-05
-1.72987e-06
2.93144e-05
0.0204931
-0.0163021
-0.004191
-0.0502003
0.0346617
0.0155385
0.00510573
-0.0330228
-0.00739321
-8.01012e-05
-0.000250548
0.000330671
-5.5968e-05
0.000177228
-0.000325581
0.000349807
-2.42356e-05
0.00135187
8.03113e-05
-0.00143218
0.0110595
0.00356518
-0.0146246
-1.22853e-05
-1.05936e-05
2.28843e-05
0.00543695
-0.0119678
-0.000290217
-3.53696e-05
0.0194639
0.00102928
0.00273306
0.0107797
-0.0135127
-0.000507862
0.000760382
-0.000252538
-0.00623745
0.00347449
5.05686e-06
3.18309e-05
-0.0179997
-0.0322006
-0.0383849
0.0586201
-0.0181041
-0.00837676
0.0264808
-7.18612e-05
-0.000124555
0.000196409
0.00499382
0.00549576
-0.0104896
0.000152729
-0.000226042
7.33205e-05
0.0443974
0.00129927
-0.000396603
0.00031652
-0.00537813
0.010372
0.00102813
-0.00100768
-2.04404e-05
0.0141509
0.0403047
-0.0544556
-0.00308815
0.00582121
0.00287673
0.00417723
-0.00141565
0.00152361
-0.000190747
-0.00290946
0.00153578
-0.00495523
-6.60215e-05
-4.44543e-05
0.000110476
-0.00358087
0.000317729
0.00326313
0.000165369
-0.000196986
3.16123e-05
1.91374e-05
7.01601e-05
-0.0453968
0.0212394
-0.031319
0.0454699
0.000220422
-0.00036338
0.000142989
-0.00426129
0.00579707
0.00496561
-0.0113704
0.00640479
0.012092
-0.0421042
0.0300122
-0.0376996
0.0367092
0.000990363
-0.015577
-0.0211109
-1.14426e-05
-0.00186949
0.00188091
-0.000911645
0.000343427
0.000568189
-0.021312
0.00320791
0.000727216
0.00030088
0.000887701
-0.000494695
-0.000393013
-8.74488e-05
0.0003079
-0.000250833
0.000321163
-7.03299e-05
6.28397e-05
-9.49089e-05
0.0184877
-0.0192468
0.000759065
0.000175513
-2.27547e-05
0.0088473
-0.0038817
-0.000163756
-6.22965e-05
-0.00109387
-0.00108344
0.00217731
-0.0244871
0.0332479
-0.00876074
-0.0312105
-0.00648904
0.00421634
0.0090622
-0.0132785
-0.0139765
-0.0026583
0.0166348
0.00487908
-0.00265975
-0.00221933
0.0088254
-0.0152725
0.00644707
-0.00318334
0.00768029
-0.00449697
6.48992e-05
-1.80069e-05
-4.6891e-05
-0.0857816
0.0169763
0.0688053
-0.000766652
-2.75889e-05
-0.0192498
0.013844
0.00540577
0.0360937
-0.0296486
-0.00644515
-0.00170385
0.00121994
0.000483925
2.47423e-05
0.000167052
-0.000191777
0.00395017
0.00489712
-0.0123935
-0.0178757
0.0302692
-0.00189873
0.00188729
-0.00584114
0.00265781
-0.000554197
3.81027e-05
0.00051608
-0.000213363
0.000238107
0.000190531
-0.00074473
-0.000404565
-0.000778797
0.00118336
-0.00739129
0.00197459
0.00541671
0.0451323
-0.0330403
-0.000201153
0.000116336
8.48169e-05
-1.36936e-05
-3.35077e-05
4.7197e-05
-0.000276
2.51667e-05
-0.00950091
0.0205604
0.000362299
-0.000152547
-0.000209797
0.0305072
0.0165878
-0.00876661
0.0325053
-0.0234292
0.0164411
0.00698805
-0.016397
0.0136844
0.00271256
0.000799728
-0.00189362
0.0075142
-0.00356402
-0.0114501
0.0192212
-0.00777116
1.79935e-05
-3.16911e-05
-0.00120961
-7.56783e-05
0.00128527
0.000903161
-0.00130774
0.0304028
-0.011915
0.0419644
-0.0287619
-0.0132026
-0.000411172
-0.000500478
5.60175e-05
8.88253e-06
0.0070262
0.0183781
-0.0254043
-6.53812e-05
6.58014e-05
-4.21373e-07
0.0305506
-0.0349363
0.00438573
-0.000169867
6.0951e-06
-0.000106167
0.000138301
-3.21348e-05
-0.00164535
0.00154119
0.000104133
0.00148259
0.0346111
-0.000222699
0.0072742
-0.0070515
0.0107502
-0.00874662
-0.00200355
-0.000956765
0.00117347
-0.000216719
-0.00393925
-0.00229821
0.000102188
-0.000172487
7.03001e-05
5.19928e-05
-0.000151892
9.99019e-05
0.00091718
-0.000189969
-2.55513e-05
-4.39998e-06
2.99538e-05
0.00420763
0.00271168
0.00457362
-0.0038318
-0.000741816
0.0403277
-0.0172715
-0.0230563
-3.77114e-06
-0.00151113
-3.78357e-05
-0.0670613
0.0596221
0.00743927
0.0489552
-0.00455782
0.00992971
-0.00110431
0.000135616
-9.03955e-05
-4.52246e-05
0.000695155
-0.000576204
-0.000118954
-0.0016041
-4.12382e-05
0.00775162
0.0102842
-0.0180358
-0.000601144
7.5126e-05
0.000526024
-0.000910643
-0.000340083
-0.0156886
0.00348772
0.0122009
0.000144675
-4.24888e-05
-0.00369556
-0.00369573
0.000657004
0.00118392
-0.0018409
0.0169325
-0.0146135
0.00531074
0.00930274
0.0514996
-0.00254431
-0.00236416
0.00336607
-0.00100191
-0.00108209
0.000125317
-0.0447091
-0.0223523
0.000213368
-0.000177107
-3.62821e-05
-0.0131616
-0.0289426
0.0326207
-0.0156882
-0.0505441
-0.0352375
-0.0114694
-0.0119598
-2.81228e-05
-0.000138673
0.000166786
0.00655043
0.0037696
-0.0103201
0.0166597
-0.0550446
0.000170943
-0.000246522
7.55647e-05
-0.0137443
-0.000869203
-0.000120082
-2.60982e-06
0.000122698
0.0210604
-0.0337803
0.0127199
-0.00663051
0.00640781
0.000167331
8.20453e-06
1.48733e-05
-5.22281e-05
3.73444e-05
2.15578e-05
-1.02289e-05
-1.13242e-05
-0.00202149
0.0287105
-0.026689
0.00062869
-0.000692822
6.41385e-05
-1.45601e-05
-3.46164e-05
4.91845e-05
-6.03553e-06
2.75931e-05
-0.000115466
0.000120573
-5.11156e-06
0.0464459
-0.00448148
-0.00175062
0.000146506
0.0313022
-0.0333237
-2.94781e-05
8.62e-05
-5.67214e-05
-0.000202685
8.93155e-05
0.000113368
1.22183e-05
1.14944e-06
-1.33762e-05
0.022328
-0.00652248
0.00778977
-0.00126729
0.00593697
-0.00129056
-0.00464639
0.000748272
0.000168914
-0.0154096
-0.019037
0.0344466
-2.46686e-05
-6.21472e-05
8.682e-05
-1.40593e-05
-3.88103e-05
5.28737e-05
-7.42364e-05
-4.58436e-05
-0.000145262
2.71275e-05
0.000118132
-0.00477812
0.0113285
0.000555263
0.000139898
-0.00165882
-9.18229e-05
-2.61974e-05
-0.000143678
-0.000246125
-0.000601712
0.000847837
0.000188847
-3.41076e-05
-0.000154743
-9.3081e-05
0.000293972
-0.000200889
-2.00129e-05
-4.51163e-05
6.51317e-05
5.24873e-05
0.00119437
-2.09164e-05
-0.00549706
-0.00102542
-9.23259e-05
7.32062e-05
0.000476098
7.09614e-05
-0.000547052
-5.78364e-05
4.09697e-05
1.68661e-05
1.779e-05
4.95526e-05
-6.73528e-05
-0.000840851
0.000242202
0.00059862
-0.000130903
0.000152279
-2.13756e-05
-0.0111776
0.00812114
0.00305649
-0.000325668
0.000232585
0.00433996
0.0202064
-0.0245463
-1.01211e-05
0.000809844
-6.25137e-05
0.000233462
0.0411905
-0.0163147
-0.0248757
-0.00387541
-0.0101011
0.00198854
-0.00133152
-0.00349736
0.0209054
-0.0211828
0.000277317
-0.00539595
0.0264564
0.000861665
-0.00385439
0.00299273
4.99593e-05
0.000138888
-0.000383715
-0.00113823
0.00152195
-0.000181027
0.000927794
-0.000746771
-0.000598887
-0.00378117
0.00438006
0.00191777
0.00296131
-0.00133766
0.0300482
-4.90989e-05
6.68931e-05
4.96436e-05
-3.47737e-05
-3.06472e-05
-2.51741e-05
5.58115e-05
-0.0022942
0.00331277
-0.00101858
-4.80658e-05
-0.00238398
8.97451e-05
-0.00654599
0.0112739
-0.00472796
-0.00312152
0.0028649
0.000256617
0.00073102
0.000715227
-0.00144625
-0.104059
0.0776354
0.026424
-8.52092e-05
0.000194928
-0.000109715
-0.000861568
0.000680534
0.000373465
-0.0018572
0.00148373
-0.0437124
-3.56024e-05
3.36975e-05
1.90405e-06
0.00233199
-0.00399657
0.00166458
-0.00242576
-0.000695765
8.24224e-05
-0.000148447
4.97223e-05
-6.97395e-05
-0.0444374
-0.00101712
0.00383711
-0.00281999
-0.0120931
0.0274054
-0.0153123
0.000981934
-0.00334609
0.00199772
-0.025675
0.0243373
0.000687025
-0.000943747
0.000256729
0.0233217
-0.0189817
7.45028e-05
-9.91689e-05
-0.000180219
0.000152089
0.0204628
0.0207276
-0.000100434
0.000148188
-4.77598e-05
0.0244481
-0.0170396
-0.00740847
-1.19289e-05
-9.44155e-05
0.000106343
0.000310081
-0.000308012
-2.08571e-06
0.00223233
-0.00877831
-0.0135802
0.00397919
0.009601
0.00161872
-0.000141177
0.0238308
0.00061724
2.51771e-06
1.43138e-05
-1.68329e-05
-0.00222279
-0.00016119
-0.0167709
0.00108232
0.0375669
-0.0180519
-0.0195151
0.0353811
-0.0410956
0.00571445
-0.00018125
6.28185e-05
0.000118482
0.000920825
0.017998
-0.0189189
1.86316e-05
0.00029144
-0.000224004
0.000189898
0.00770097
0.0276801
-0.0229008
-0.00158633
0.00210165
0.00874204
0.0164661
0.00521055
-0.0216766
-6.11687e-05
-3.02841e-05
9.14526e-05
-0.00545905
0.000165924
6.25218e-05
-0.000228445
0.000147873
-9.41162e-05
-5.37578e-05
-0.000143361
0.000197538
-5.41752e-05
0.0289973
-0.0261422
-0.00285511
-0.0200027
0.00641855
0.0135841
0.00273105
0.0122422
-0.0149732
0.00847885
3.83518e-05
-4.27531e-05
0.000809116
-0.00132624
0.000517145
-0.000611214
0.00132644
-3.80665e-05
0.000258386
-0.000220315
-1.99686e-05
-0.000204036
2.74843e-05
-7.65875e-05
6.28902e-05
0.000759633
-0.000822518
0.00600624
0.0243965
0.000974602
-0.000165495
-0.0111593
-0.00411314
0.0108016
-0.0228948
1.93437e-05
-4.99932e-05
3.38896e-05
-9.50651e-05
-8.39746e-05
-9.25185e-05
0.000176483
7.95598e-05
0.000545043
-0.00062461
0.00191757
0.00240725
-0.00432483
-0.000774283
0.000222323
0.000551917
-0.000143169
9.33719e-05
4.9803e-05
-1.48e-05
-5.05838e-05
-0.00012912
-0.00365913
0.00378825
-0.010303
-0.00894676
-2.41577e-05
0.000189525
-0.000321904
0.00151824
-0.00119633
-0.0367338
-0.00436169
0.000165741
4.76377e-05
-0.000891554
-0.000166885
0.00105845
-0.00700245
0.00116132
-5.74713e-05
7.05805e-05
-1.31065e-05
-7.95458e-05
-0.000500328
0.000579873
0.0283013
-0.0300876
0.0017863
-0.0123226
0.000952224
-8.66788e-05
-0.00675963
-0.041646
0.0284844
0.000108527
-3.36861e-05
-0.000680687
-0.000736182
-0.000175055
9.10866e-05
0.000825895
0.00995378
0.0121289
-0.00957541
-0.0025535
-0.0593827
0.0226488
-0.000552253
4.43772e-05
-0.00401893
0.00300183
-0.00231374
-0.0100089
-8.7855e-05
-0.000113297
2.42366e-05
-0.000215517
0.000191269
-0.00452651
0.00703623
-0.00250973
0.00185672
-0.00543758
-0.00636335
0.00865336
-0.00229
-0.00399908
-0.0160036
0.00176703
-0.000415174
-0.00481112
-0.00155225
-0.00277402
-0.00422843
-0.00237482
0.00429238
-0.10438
0.0694001
0.0349796
0.000138122
7.82062e-05
-0.000216322
0.00040109
0.000172532
-0.000573625
1.36427e-05
-5.40368e-05
4.03985e-05
-0.000114465
0.00019291
-7.84516e-05
-0.00821707
0.00413844
0.00407863
0.0119969
-0.00851064
-0.00348629
-0.000499023
0.000366626
0.000132384
-0.000980041
0.000895571
8.44656e-05
-4.41938e-05
-0.0404249
0.0570846
-3.03334e-05
-0.000228659
-0.000285732
0.000255545
3.01871e-05
0.000542151
-3.86028e-05
-0.000503551
-0.000618522
0.0281836
-0.0233747
-0.00480885
0.00241766
0.00302926
-0.0054469
-2.6427e-05
5.31624e-05
-2.67403e-05
-0.000647425
0.000147094
-0.000184435
7.20561e-05
0.000112384
-4.29656e-06
1.28653e-05
-8.5728e-06
0.000561026
-0.000428396
-0.00013268
0.00267285
0.0080773
0.000247919
-8.20003e-05
-3.31938e-05
-2.40748e-06
0.000683582
-0.080319
-0.0240607
0.000560494
-0.0004976
-0.00217142
-5.13699e-05
-9.08302e-05
0.000198185
-0.000107342
0.0152995
-0.0125684
-5.4518e-05
-4.74379e-05
0.000101955
-0.000369774
-0.000210503
0.000580275
-0.0516208
0.035585
0.0160357
-0.0422085
0.0127445
0.029464
-0.00014847
2.21834e-05
0.000126286
-0.000291729
0.00274955
0.00182407
4.25588e-05
-5.84643e-06
-3.67166e-05
4.43016e-05
-1.74414e-06
-0.00243754
-0.000943093
0.00338063
-0.0108194
0.00773125
0.00122638
-0.00103026
-0.00019613
0.000193018
-0.000562791
-0.00104731
-0.000873313
0.00192061
0.0213661
-0.0143399
-9.95019e-05
-0.000103183
1.34782e-05
-1.25554e-06
0.000121538
-0.00073276
-0.00106344
0.00104377
1.96587e-05
0.0157045
0.000995718
-0.0167003
0.00020064
-0.00726002
0.0355613
0.00112013
0.000421041
-0.000950367
0.00984264
-0.00889226
5.8241e-05
-1.31687e-05
-4.50663e-05
0.00112914
0.000313334
-0.00144248
0.0012943
-0.000174183
0.0871464
-0.0668457
-0.0203006
-0.00496652
0.00738419
0.000817455
-0.00137537
0.00055792
0.00573385
0.0224498
-0.00375983
-0.00309842
0.00685826
-0.00302918
0.00198186
0.0249772
0.010252
-0.0352292
0.000582411
0.000643959
0.007529
-0.0013349
-0.0061941
5.49302e-05
0.000487217
-3.85542e-05
-0.000247179
0.000240361
0.0007365
0.00030327
-0.00101397
0.000710684
0.0916205
-5.55809e-05
4.52215e-06
5.10563e-05
0.00104933
-0.00118247
-0.000320893
0.00150336
0.0144976
-0.0299072
-0.00767746
-0.00871954
-0.00660305
0.00119046
-0.00123978
4.93318e-05
0.00389223
0.00331685
-0.00720909
0.00726171
-0.0120398
0.000188488
-0.000226563
-0.000452417
3.9684e-06
0.000448437
-0.00251176
-0.01185
0.0143617
-0.0473889
0.0332849
0.0141041
-0.000320648
0.000522422
-0.000200904
0.000133971
6.69441e-05
4.86148e-05
9.62603e-06
-4.00891e-05
7.33391e-06
3.27589e-05
0.0172304
-0.0130424
-0.00418806
0.00106169
0.00148879
-0.00255047
-5.33808e-05
-2.20048e-06
-0.00486019
0.000818762
-0.000576563
8.79635e-05
4.76499e-05
-0.00104204
-0.0182047
8.39378e-05
-9.58667e-05
0.000320961
-1.11577e-05
-0.000309811
0.000132314
0.000229973
-0.00832478
0.00367428
0.00465049
0.0339665
-0.0270981
-0.00686841
-0.000139567
8.66589e-06
-0.000452472
0.00053201
-0.0428253
0.00240037
0.00229523
-0.000247037
-0.00204815
-0.00480092
0.0120626
-0.000191632
0.000102145
8.94878e-05
0.000208265
-0.000142439
-6.58288e-05
5.87745e-05
0.000149496
-0.000522636
-0.000124786
-0.00139876
0.0316816
-0.0302828
0.000915114
-0.00349662
0.0025815
-4.06797e-05
-0.000150964
0.00013656
-7.64635e-05
5.23135e-06
3.21037e-05
-3.73393e-05
-0.00055568
-0.000665151
0.00122082
-8.02219e-05
0.000129291
-4.90656e-05
0.0017548
-0.00113312
-0.000621683
-0.001429
-0.000164379
-0.015577
0.0360398
-1.46376e-05
7.74797e-05
-3.88915e-05
-0.0493741
0.0969798
-0.0476057
0.000608371
0.00114644
-0.000651223
0.038479
-0.00484589
4.71012e-07
-9.86924e-06
9.39661e-06
-1.22796e-05
1.27546e-05
4.68453e-05
-0.000263659
0.000216818
0.00165208
0.00587692
-6.55597e-05
-7.7609e-05
9.64609e-05
-4.3545e-05
-5.29146e-05
0.000233751
-0.000246392
1.26326e-05
-0.00296766
0.0224315
-5.23114e-05
4.42336e-05
8.0716e-06
-0.000139621
-2.734e-05
-0.000145146
0.0105684
0.00666201
0.0195466
-0.032119
0.0125723
-0.010277
0.0105523
-0.000275263
-0.00124264
3.30087e-05
-0.00109128
0.0011716
-0.0107888
0.0285569
-0.0177681
0.00151111
0.00486085
-0.00637196
6.75612e-05
-5.03277e-05
-1.72373e-05
-0.0213787
0.0115663
0.00981237
0.000198529
2.53323e-05
-0.000223881
-0.0248495
-4.59205e-05
-3.06632e-05
7.65822e-05
-0.00184764
2.9908e-05
-6.58995e-05
3.59839e-05
-0.00166168
0.0155057
3.35977e-05
-3.07333e-05
-2.86448e-06
-7.62031e-05
0.000418239
-0.000717212
0.000298964
0.0202955
-9.50455e-06
-4.45356e-05
0.00336694
-0.00245183
-9.7662e-05
-4.75975e-05
-0.000836523
0.0156696
-0.014833
0.000407587
-0.00132886
-0.00177771
0.00310654
0.000128474
-0.000109337
0.00273907
-0.00477968
0.00204061
-3.15914e-05
1.37527e-05
1.78423e-05
-0.00245371
0.00393101
-0.000113502
2.37576e-05
-2.12427e-05
4.64237e-05
0.000187339
-0.000177041
0.000223884
-0.000113008
0.000140004
-2.69991e-05
-4.04785e-05
-4.55184e-06
4.50253e-05
-0.000101669
8.00029e-05
2.16659e-05
-5.15245e-05
-0.000650604
0.000702127
8.24936e-05
-0.000128422
-0.000153891
5.42358e-06
3.30886e-05
0.000203001
-0.000236091
0.00449144
0.00159387
-0.0060853
-0.0294515
0.0431948
-0.000124084
-7.30962e-05
0.000197182
-0.00544805
-0.000258275
0.000175396
8.28831e-05
-0.0635341
0.0154498
0.0480844
-0.0192914
-0.00208727
7.76776e-05
6.69979e-05
0.00484429
0.00178533
-0.0066296
0.00130334
-0.000128992
-0.00117437
0.0721777
9.32323e-05
0.0229255
-0.0392403
0.000245713
-0.000138802
-0.000106928
-8.15965e-05
8.90124e-05
-7.42209e-06
0.0534289
-0.102803
-0.00169327
0.0024001
-0.000706831
0.000671676
-0.00310921
0.0715086
-0.0545323
0.000183551
-0.000128121
-5.54292e-05
0.00144105
-0.00269852
0.0012575
4.12674e-05
2.62925e-05
-0.0153895
0.0106816
0.0047078
-0.000140157
3.97257e-05
-0.00177463
0.0119869
-0.0102123
0.000461308
-0.000992015
0.000530696
-0.00132283
-0.000858909
0.00218171
7.12449e-07
4.31926e-07
0.00632383
0.00532724
-0.00515541
-0.000171829
-2.06966e-05
-3.95149e-05
6.02099e-05
0.000130498
-0.000273857
9.63693e-05
-0.000210831
-0.000394839
0.000608243
-0.000213416
0.00171294
-0.0018013
8.83622e-05
-0.000120856
-3.76861e-05
0.000158534
2.42967e-05
-9.38275e-06
-1.49113e-05
-0.00091328
0.00313005
-0.00326024
0.000130197
-0.00560844
0.0178898
-0.0122813
0.00632505
-0.000997818
0.00855592
0.000506283
0.0211272
0.00142464
-0.00462941
0.00320477
-0.000133345
9.41197e-05
3.92017e-05
0.0229784
-0.0194341
-8.49039e-05
3.30528e-06
0.00240455
-0.00203109
-9.49932e-05
-3.83539e-05
-9.79629e-07
-3.06112e-05
4.23291e-05
-4.39649e-05
1.62897e-06
5.1126e-05
-0.000218493
0.000167378
7.30515e-05
2.34121e-05
0.0230966
0.0153657
0.000859477
0.00143575
3.0645e-05
2.94222e-06
0.00267433
-0.0141244
0.00263765
-0.0240802
0.0293215
-0.00524131
-0.00020426
0.000124428
7.98362e-05
0.00513546
0.000916945
-0.00605241
0.000209684
-0.000274786
6.50709e-05
0.000557043
-0.00111116
0.000554129
3.58908e-05
-6.23893e-05
9.12238e-05
5.54189e-05
-5.86868e-06
-0.000869433
0.00399948
4.18384e-05
-0.00077384
0.000731986
0.00016908
-0.000121594
-4.74931e-05
0.0213587
-0.0221952
0.000656261
-0.000463236
-0.0034116
-7.61984e-05
0.00348779
-0.0086985
-0.00915236
0.0178508
3.61932e-05
-5.34806e-05
1.7281e-05
0.00298343
-0.00358583
0.00060239
0.0418818
-0.0201543
-0.0217274
-0.018455
-0.0269418
0.000250286
-0.000772925
0.000651792
-0.0011962
0.000544414
-0.000100267
5.58106e-05
6.76565e-05
-3.04364e-05
-3.72204e-05
-0.000117264
3.7446e-05
7.98135e-05
-0.0173399
-0.00399239
0.0213323
-0.00295438
-0.000761546
0.0037159
0.0310258
-0.0349219
0.00389611
-3.76242e-05
0.000247317
0.00090818
0.000395145
0.0161847
0.0170632
2.51402e-05
4.25162e-05
-0.0231786
0.0123898
0.00655565
-0.0238956
-0.00325709
0.0023758
0.000881283
-0.000365186
0.00055572
-1.82069e-05
1.61963e-06
1.96198e-06
4.29389e-05
-4.49e-05
3.11028e-05
-0.000144112
-0.00236573
0.00268345
-0.0213751
-0.00370553
0.0250806
0.00232704
-0.00446457
0.00213752
0.0112886
-0.00976299
-0.00152565
-0.0147226
-0.00702173
0.0217443
-0.00352231
-0.00469475
-0.00465956
-0.000837506
-0.00090741
0.000897282
0.00441388
-0.0036417
-0.000772169
0.000470211
0.000290156
0.000213283
0.00044298
0.0190828
-0.0122835
-0.00679934
0.000532854
-0.0249361
0.0244031
-0.00726349
0.00488865
0.00241634
-0.011163
-5.88217e-05
0.000131644
-7.28205e-05
-0.000413491
0.00036197
0.00221859
0.00179589
-0.00401448
-0.0135965
0.0583473
-0.0447508
0.00103954
0.00337434
3.88372e-05
-6.83167e-05
0.00066852
0.0287329
-0.0282001
-0.00226398
0.00121696
0.00104701
-0.0546216
0.0435812
0.0110404
0.00111966
-0.00107782
0.00308026
1.86395e-05
3.09988e-05
-0.00137516
0.00243685
9.20344e-06
7.69915e-05
-0.000635564
0.00512701
0.00101165
-1.46694e-05
-2.51144e-05
3.97738e-05
1.21807e-05
-4.38872e-05
3.1705e-05
1.25673e-05
-0.000118737
-0.00221706
0.000225506
8.8642e-05
-0.000314163
0.000501375
-0.000747499
0.0100298
-0.00635549
0.00491483
-0.0019314
0.00028381
3.71436e-05
5.14409e-05
-3.92697e-05
-0.00434547
0.0030166
-0.0125811
0.0203327
0.00639191
0.00363786
-0.000423227
-0.000317429
0.000740602
-4.85878e-05
-0.00039424
-6.5523e-05
0.000459775
0.0127877
-0.000575682
-0.0006908
-0.000384498
0.00107529
-0.0100934
-0.002349
0.0124424
-1.6404e-05
-0.000168026
-0.000260179
0.000137818
0.000122386
-0.000665577
-0.00103827
-0.00164143
-0.00181982
0.00346125
-4.23564e-05
-5.26441e-05
-0.000348867
-0.000368343
-0.00067705
0.000533179
0.00014387
-0.000118845
6.00116e-05
0.0171075
-0.0136197
-0.000169429
4.53497e-05
0.000299295
0.000675331
0.000646612
-0.000170515
0.0592501
-0.012338
-0.0469121
0.00302363
-0.00158259
-0.000397479
0.000421901
-0.000563442
0.00014154
-0.00865741
0.00439976
0.00425765
-2.1095e-05
-9.78702e-05
0.000118962
-2.8138e-05
0.00375223
0.00352936
-0.00728159
-0.00210533
-0.00139507
0.00350041
-0.00121245
-3.0108e-05
1.73733e-06
2.8364e-05
-0.000168881
5.95966e-05
0.000109315
0.0157577
-5.61463e-05
-0.00193628
0.00199244
0.0273342
-0.000390641
-0.000470928
-0.000225605
0.000249836
-0.000812142
0.00146394
-0.00655662
-0.00320637
-0.000973894
-0.000352344
-0.00204693
0.000724084
-0.00281423
-0.00444926
4.12301e-05
-5.59044e-05
-0.000999339
0.000923678
-0.000255147
0.00085222
-0.000715437
0.000430996
0.000284417
-0.000188976
9.81484e-05
-0.0272901
-0.00574237
0.0330325
-0.000943406
0.000473347
0.000470072
0.00139035
-0.00349567
0.00365461
-0.0013226
5.5123e-06
-0.000219576
0.000214061
0.018572
-0.00754286
-0.0110292
0.00223653
-0.00387796
-0.025413
-7.72225e-05
0.0254903
0.00181493
-0.00092058
-0.000894336
0.00341159
-0.00161569
8.36559e-05
-0.000506896
0.000581541
0.000509663
-0.00109122
-1.11217e-05
-6.90946e-05
-0.00146464
-0.0104235
-0.0104831
0.0209066
-4.39301e-05
7.1407e-05
-0.000525681
0.00102764
-0.00050196
-0.000908693
0.00272362
-0.000639737
0.000230255
0.000409477
7.7093e-05
-0.000138704
6.16182e-05
0.0198634
-5.56398e-05
-0.000924386
-0.000540963
-0.00172302
0.000587686
0.000137319
-0.000725003
0.000180039
0.0155245
0.000569413
-0.000139404
-0.000430042
0.00405954
0.000229897
-0.00961646
-0.00183904
-0.00902957
0.00345783
0.00557174
0.00673059
-0.00297835
-0.0150225
0.0345692
0.000220864
-0.000149906
-0.00234798
-0.0066816
0.0016655
0.016668
0.00640734
-0.0230754
0.00121431
0.000406463
-0.00162079
0.000157921
-0.0154142
0.00844351
0.00697073
-1.39145e-05
-0.00365436
0.00877273
0.00240528
-0.0296954
-0.000173954
5.07982e-06
0.012098
-0.0128812
0.000783161
-9.08243e-05
0.00282989
0.0112944
0.00792683
1.25044e-05
-3.89283e-05
-6.45872e-05
0.00148553
0.00483248
-0.00631799
0.0534468
-0.0119313
-0.0415155
-1.87379e-05
3.68768e-05
-1.81386e-05
0.00200805
-0.000427114
-0.00158093
0.00106904
-0.00145276
-0.000130485
-6.83962e-05
0.000198896
-0.0114483
0.0140492
-0.00260089
-0.00100024
0.00514305
-0.00414281
-0.00735063
0.00552363
0.001827
-0.0216086
0.000223937
-0.000190854
-0.00143838
-0.000987377
0.000193835
-0.00010214
-9.16976e-05
-0.00789197
0.000541344
0.00239365
-0.00341118
0.0228489
-0.0164303
0.000238715
-4.06728e-05
-0.000198046
0.0431285
-0.0230609
-0.0200676
-0.000954636
0.000563995
-0.00938585
0.00761122
-0.000366952
0.000126331
0.000443081
-0.0117012
0.00132253
-0.000506508
-0.000816019
-0.0138356
-0.00389442
0.01773
1.76575e-05
-4.06963e-05
2.30399e-05
-8.18449e-05
0.00013021
-4.8358e-05
-0.00655846
0.0116939
0.00793984
0.0041891
8.21897e-06
0.000115131
-0.000123343
0.000725323
0.000495053
-0.00122039
0.000145527
0.00097413
-0.00020521
8.4355e-05
7.98078e-05
0.00596316
-0.00885701
0.00289384
0.00521778
0.00030586
0.0197499
-0.00771126
-0.0120387
0.00375437
-0.000377323
0.00106228
-0.000684961
-0.000155472
0.00137543
-0.000262548
9.732e-05
0.000165242
0.00108098
0.000109486
-0.00334791
0.000663955
0.00176961
-0.00182576
3.81341e-05
0.0001557
-4.77891e-05
-0.0194459
0.009416
0.0100299
-0.000156969
-0.000992883
0.00114984
-0.0101676
-0.00522179
-0.000839273
-0.0154629
-0.000464423
2.94237e-05
0.000434989
0.00136339
8.10263e-05
-0.00079003
0.000708995
-0.00516678
0.00151243
1.87004e-06
-6.16892e-06
3.54821e-06
4.9565e-06
-8.51573e-06
-0.000222965
3.10844e-05
0.000191866
-0.000124769
0.000999491
-0.000874717
9.42968e-05
0.00018213
-0.00027642
0.00632983
-0.000147031
0.0237584
0.00783521
-0.0315936
5.59462e-05
0.00217364
-0.000165594
0.000735256
1.96012e-05
4.69849e-06
2.8888e-05
-8.52952e-05
5.64189e-05
0.000154895
-7.77886e-05
3.00298e-05
-1.23731e-05
-0.00432699
-0.00192984
0.00625684
-0.000108977
2.71328e-05
-0.00392886
0.0028167
0.00111216
-0.0013948
-0.00818062
-0.00603669
-0.00413265
0.0101693
-0.00421366
0.00141488
0.00279882
0.000106262
-0.000203225
9.69701e-05
0.00831353
0.0107693
-0.000696745
-0.000319628
0.00101642
0.000419155
0.000227456
0.000258396
-0.000765571
0.000123182
0.000642402
0.0121216
-2.36024e-05
0.0297646
0.0232237
-0.0307515
0.0151745
-9.89501e-05
0.000576863
-0.00015772
-0.000572284
-0.000514243
0.00108654
-0.000103761
-0.000111049
-0.000283793
7.26591e-05
6.5642e-05
0.00668805
0.0272784
0.000542544
0.00369942
-0.00424196
-0.0257287
-0.00313757
0.0288662
-0.000579984
0.00139744
-0.000558704
-0.00633884
0.00773089
-0.00139205
-0.00146014
0.00636622
0.0122058
-8.37451e-05
-0.000380683
0.0313677
-0.0183091
-0.0130586
-0.000582565
0.00130788
-2.82516e-05
-0.00313166
0.00726836
-0.0041367
-0.000142615
-0.000119943
0.00731717
0.00467975
0.000486819
-0.000611572
-0.000932277
0.00227702
-0.00134474
-0.00342728
-0.000786362
2.45334e-05
-0.000114928
0.000127822
0.000110903
-8.80381e-05
-1.25086e-05
0.000100543
-0.000118036
0.000169178
-0.000635879
0.000906191
-0.000270341
0.0345082
0.0125095
-0.0470178
0.00199255
0.00785009
-0.000984498
0.00450462
-0.00352013
0.00050789
-0.000432771
1.94389e-05
0.0113717
-0.0404662
0.0290945
-0.0648134
-0.0209022
0.0857156
-0.000386699
5.41193e-05
-0.00629235
0.0199768
0.00686699
-0.0155655
0.00420199
0.00778492
-7.90247e-05
4.14928e-05
3.75326e-05
-0.00285927
-0.00579815
0.00176246
-0.000548156
-0.00606626
0.00153975
-0.00126323
0.000257582
0.00100566
-0.000109188
-9.50831e-05
1.81903e-05
-0.000654075
0.000261528
-7.20347e-05
-0.000189537
-0.00907371
0.0110663
-1.83207e-05
-6.07041e-05
0.00145134
-0.000360238
-0.00109111
0.000608563
-0.000451891
-0.000156669
0.000405504
0.000203059
0.007756
0.0373763
-0.000244859
-0.000254161
2.70568e-05
-2.59785e-05
-1.08862e-06
3.84217e-05
-1.797e-06
-3.66269e-05
-1.79516e-05
-2.27398e-05
-0.000178969
0.000184478
-7.84094e-05
-0.000179867
-0.00516171
0.00148827
0.00367342
0.000166379
-7.22679e-05
-0.00667648
0.00221425
0.00446223
0.00826301
0.0191424
0.0372416
0.0132351
0.000168069
9.3444e-05
0.0279779
-0.0178376
-0.0101402
-0.00381885
0.00865133
-0.0285582
8.1406e-05
6.64678e-05
0.0138556
-0.0165907
0.00273515
-0.00502656
0.0422682
-0.000236342
0.000449624
-0.00102633
0.000377006
0.000649337
0.00134429
-0.0015913
-0.00150342
-0.00145096
0.00501618
-0.00601643
-0.00610471
-0.000451629
0.00190296
0.0224139
0.0176797
-0.0400936
0.000203566
4.39705e-05
-0.000247537
0.000607596
0.00111554
-0.000654224
-0.000130243
0.000100485
2.97667e-05
5.71885e-05
-0.000126572
-3.67954e-06
0.00546784
-0.0156334
0.0101656
0.0167391
-0.0112712
0.00415854
-0.000139795
-7.57245e-05
-0.000124004
-7.68975e-05
9.01103e-05
0.000276517
-0.00947428
-0.00913522
0.0186095
-7.33447e-05
-1.19962e-05
8.5345e-05
0.000169586
-3.56053e-05
0.00327406
-0.0136443
0.0103702
-7.83345e-05
0.000189599
-0.000111265
0.00337298
-0.0681864
-0.00019216
0.00153646
-4.15493e-05
1.46813e-06
0.010021
-0.00275817
-0.00726276
4.14446e-06
-6.5751e-05
6.16161e-05
0.00201471
0.00308831
-0.00510303
0.00894519
0.00598908
-0.0149342
1.11409e-05
-0.000259846
-2.28503e-05
-7.25491e-06
-0.000659707
0.000228893
0.000430815
0.0148477
-0.0177492
0.00290157
0.00275102
0.00746406
-0.0102151
-0.0177476
-0.00336321
-0.0228442
-0.00123601
-0.00275447
6.24868e-05
-3.25762e-05
-0.000103199
8.6278e-06
9.45674e-05
-0.0175676
2.63237e-05
0.00174329
-5.24309e-05
2.05279e-07
9.39032e-06
0.000265345
-0.000274707
-7.38695e-06
0.00332015
3.10675e-05
-4.91447e-06
-2.61602e-05
0.00762043
0.00976985
-0.0173903
0.0138273
-0.0038064
0.0266831
-0.0117402
-0.0149429
0.000569515
-0.00114181
-0.0191016
0.0415154
-0.00685999
0.0171442
-0.0131871
0.00381231
0.00937484
0.000360653
-0.000651765
0.000291099
0.00622438
-0.00182462
-3.00021e-05
2.58306e-05
4.17636e-06
0.0050856
-0.0279224
0.0228368
2.44384e-06
1.03435e-05
-1.27846e-05
-0.000170826
0.000531469
0.0139049
-0.00748899
-0.00641591
-0.00124702
0.000213658
-1.00916e-05
-0.00901752
-0.000368332
-7.85272e-05
3.34094e-05
-0.00583779
-0.00111716
0.000240061
0.000877098
-0.00110568
6.79057e-05
0.000273669
-0.000341593
2.49479e-05
-0.000939785
0.0012531
0.0293528
-0.0210898
2.50812e-05
-0.000151008
0.000125925
-0.0107182
-0.00243136
0.0131496
5.11096e-06
0.0013883
-0.00139341
-1.39249e-05
1.21947e-05
0.000110124
-8.8723e-05
-2.14032e-05
2.8921e-06
-0.000106092
3.92646e-05
-0.000133385
-0.00855948
0.0132187
-0.00465919
8.56564e-06
7.78449e-05
-8.64112e-05
-0.0147158
-0.045316
-0.00183633
0.000703215
0.0178304
0.00191951
0.00017622
-0.000172769
-3.45726e-06
0.00138478
0.000504869
-0.00188963
-0.00151529
0.00113796
6.09395e-06
-2.4301e-05
3.71799e-05
-8.89648e-05
5.17844e-05
1.82325e-05
-0.000106275
0.00101286
-0.000867332
-0.00179239
-0.000354875
0.00214725
2.14203e-05
1.69989e-05
-0.00746643
0.0113586
0.00552686
-0.000612029
-0.00597768
-0.00202148
0.00799915
-0.109139
0.0288199
5.16514e-05
-4.64209e-05
0.00019592
-8.3172e-05
-0.000112761
3.43241e-05
-6.89342e-05
0.00150804
-0.00166502
-0.000839976
0.000998154
-0.000158177
-0.000860692
7.06664e-05
0.0191402
7.45442e-05
-0.000199097
0.00051549
0.000724159
0.00014689
-0.000871041
-0.0321969
-0.0151921
0.0210654
0.0208164
-0.0123075
-0.000222176
0.0125297
0.000110118
8.59006e-05
-0.000196019
0.000696793
4.58607e-05
-0.000742658
-4.13522e-05
-0.00845836
0.00248069
-5.51242e-05
6.36874e-05
2.15238e-05
-0.000200488
-0.00813692
-0.0170453
0.0251822
0.0122921
0.00296319
-0.0152553
3.5523e-05
-8.47021e-06
-0.000518917
0.00145567
-0.000936744
0.0130314
-0.0211683
-0.000113971
0.000312503
3.91012e-05
-0.00525378
0.0408388
-0.000760185
0.000288598
-0.000279198
0.000908606
-0.00724745
-0.0182326
0.01316
0.00507264
7.69691e-06
-0.000128653
0.00012095
0.0336183
0.000704431
-0.0343227
-0.000141988
0.000860015
-0.000718054
0.000152935
2.32766e-05
0.00192635
-0.000408886
-0.00151746
-2.44539e-05
-5.23751e-06
2.96922e-05
0.00722111
-0.00570999
-0.000304468
-0.000347297