/*--------------------------------*- C++ -*----------------------------------*\
| =========                 |                                                 |
| \\      /  F ield         | OpenFOAM: The Open Source CFD Toolbox           |
|  \\    /   O peration     | Version:  v2012                                 |
|   \\  /    A nd           | Website:  www.openfoam.com                      |
|    \\/     M anipulation  |                                                 |
\*---------------------------------------------------------------------------*/
FoamFile
{
    version     2.0;
    format      ascii;
    class       volScalarField;
    location    "200";
    object      omega_0;
}
// * * * * * * * * * * * * * * * * * * * * * * * * * * * * * * * * * * * * * //

dimensions      [0 0 -1 0 0 0 0];


internalField   nonuniform List<scalar> 
18232
(
0.0217865
0.287208
4.61331
0.100891
0.0252645
3.37871
0.288378
0.0230741
0.0218196
0.323552
0.0252628
0.023041
0.4839
0.557325
0.0597079
2.99887
0.0558259
1.66106
0.0237635
0.128368
0.36096
0.455653
0.444798
0.0239386
0.0218148
0.0227461
0.0302512
0.460687
0.020453
0.11662
0.0227304
0.132997
0.239315
0.0239762
0.0948678
0.0229252
0.594663
0.205231
0.163514
0.0213213
0.118695
0.0215934
4.56596
0.0239039
0.120126
0.0257642
1.71027
0.158796
0.0597841
3.43209
0.0545181
0.0573512
0.0209549
0.0302344
0.0215591
0.0217302
2.77713
1.52766
0.0227
0.0550044
0.0852742
0.210737
0.341257
0.173482
0.0315526
0.023745
0.130098
0.0256434
0.0265793
0.0226322
0.0216803
0.0197695
0.476804
0.0216251
0.0821018
0.0215918
0.031444
0.867608
0.339466
0.269804
0.203486
0.0966683
0.265484
0.0455924
0.0197499
1.47649
0.0254074
0.0233447
0.278192
4.63531
0.0369769
0.0218173
0.079899
1.4019
0.0319647
0.0458343
0.0231019
0.0217653
0.0231509
0.0306587
3.27346
0.21709
0.0214594
0.0207538
0.0216718
0.470517
0.0238228
0.629706
0.93072
0.0877917
0.101178
0.0306281
0.0769239
0.313396
0.0207267
0.0287189
0.030268
0.490467
0.566361
0.0238066
0.0197721
0.416264
0.0239773
0.167378
0.0215657
0.0238946
0.0324933
4.64071
0.170986
0.088186
0.0273318
0.09078
0.0212946
0.0212293
0.0254518
0.0204341
0.105762
0.0543864
0.493905
3.47915
0.020459
4.28803
4.51543
0.271534
0.023603
0.0237204
0.0323869
0.10806
0.023798
0.0257029
0.167016
0.0212449
3.28953
0.0366623
0.678233
0.16145
4.46472
0.0590444
0.0268612
4.12701
0.0224974
0.206282
0.680426
1.42272
0.113993
0.0212562
0.079695
0.200874
0.0214957
0.160858
0.0231462
0.161474
0.171031
0.0216227
0.0204167
0.0207793
0.51562
0.0238986
0.0208364
0.0207855
0.0214384
0.812617
0.0332672
0.52305
0.0205532
0.0211052
0.0232791
0.416392
0.0680193
0.0871609
0.0252647
0.174371
0.0212321
0.021096
0.0230078
0.0214458
0.0794866
0.0236019
0.0332512
0.0215647
0.0249193
0.0217435
0.0223541
0.0204138
0.0238217
0.0273224
0.0643385
0.0219751
0.0256896
0.0205934
0.0204994
0.0233892
0.0209894
0.0544301
0.0223443
0.46994
0.030657
0.0215083
0.489209
0.203413
0.0373683
0.0516
0.44871
0.159362
0.0387886
0.02166
0.0263247
0.0254651
0.0507571
0.101597
0.433587
0.0205018
0.0204499
0.0209331
0.0326211
0.0208197
0.0334344
0.163518
0.0386445
0.0262583
4.48276
0.0217181
0.0255398
0.0312947
1.59492
0.0224225
0.0521155
0.0372247
0.0209815
0.0204448
4.40949
0.0480885
4.12769
0.0581539
0.091223
0.437602
0.0261035
0.603754
0.0212548
0.0212778
0.487057
0.021002
4.4124
0.0246009
0.023676
0.153075
0.059233
0.026805
0.0217061
4.43301
0.0226744
0.0318459
0.157198
0.480907
1.47282
0.0216497
0.312649
0.0237074
0.0217827
0.557504
1.00187
0.852761
0.19094
0.0204413
0.0570906
0.02202
0.0241173
0.0219477
4.53445
0.274645
3.47541
1.49073
0.0204385
0.0257415
0.0264141
0.0275563
0.021899
0.0205298
0.0244135
0.500798
0.0250578
0.251968
4.06987
0.0209599
0.0204809
0.02129
0.02436
0.0486296
0.0232442
0.0212726
0.0238619
0.158394
0.274919
0.021493
0.0271723
2.14442
0.0225847
0.0270859
0.0411041
0.0198282
0.0236459
0.185928
0.0896743
0.0212496
0.157941
0.204476
0.0229227
0.0238281
0.0233026
0.0212773
0.236261
0.0778242
2.55313
0.024101
0.048944
0.0890524
0.021424
0.0235739
0.0471333
0.0918606
0.213661
0.26037
0.0303224
0.200772
0.0389682
0.0489107
2.09303
0.0218356
0.0240481
0.0205129
0.0217784
0.0601541
0.0756557
0.0232933
0.0262966
0.0205562
0.140707
0.0215086
0.0236646
0.0232423
0.0234582
0.129006
0.0560537
0.0236087
0.0236707
0.0217972
0.022248
0.0234772
0.0901582
0.0221211
0.0222076
0.0313557
2.04979
0.0239696
0.0321779
0.0214831
3.44709
0.0199861
0.0228441
0.210398
0.702464
0.0217356
0.0240369
0.0544145
0.0199176
0.0198075
0.0343142
0.1572
0.0291427
0.0228707
0.031263
0.408875
0.0211411
0.023248
0.0258584
0.0274125
0.121749
0.021909
0.21713
0.031794
0.186992
0.0207
0.0302984
0.031516
1.49666
0.0571111
0.0300113
0.123037
0.0732279
0.0295048
0.510375
0.0292262
0.259367
0.0231258
0.0238312
0.0248378
0.0272495
1.62654
0.0208011
0.0259801
0.0296957
0.18908
0.0864732
0.274554
0.0357395
0.052283
0.084073
0.0241586
0.0229335
3.45965
0.158457
0.0261031
0.0233425
0.0219682
0.0207078
0.02065
0.0893907
0.0453164
0.0210567
0.0530236
0.0236161
0.0240882
0.466191
0.0233339
0.0239495
0.0237115
0.0648435
0.277778
0.0210113
0.0244536
0.231902
0.0284184
0.0845053
0.0214726
0.0216052
0.0216057
0.023906
0.377364
0.0424416
0.0214698
0.0230526
0.024186
0.031264
0.0226278
0.0323713
0.0307717
0.0213058
0.477432
0.0198107
0.0197643
1.94638
0.0318615
4.56103
4.54743
0.193672
0.02206
0.0220496
0.0217638
0.249129
0.0212179
0.020697
0.0215127
0.13729
0.0205742
0.0215028
0.0213608
0.0860089
0.757763
0.362833
0.029224
0.0308601
1.30183
4.01912
0.0205949
0.44337
0.0238503
4.60855
0.0220988
0.0310389
0.0204581
0.284367
0.0222882
0.021095
0.0237698
0.471945
0.0204828
0.0425473
0.0213242
3.52499
0.0235502
0.0485659
0.0216648
0.031529
0.0215334
0.982041
0.0297595
0.0220966
0.0215134
0.0217466
0.0209378
0.0204152
0.0215336
0.0237628
0.0221014
0.0217198
0.0218219
0.0613531
0.842303
0.024347
0.0640925
0.0216752
4.60338
0.432927
0.0211904
0.205403
0.0289069
0.618839
0.0213644
0.497127
0.0214196
0.0212427
1.93362
0.0296584
0.0338061
1.38627
0.0227134
0.0296667
0.0206103
3.41206
0.0210221
0.072743
0.027534
0.0693632
0.0236689
0.185088
0.0545021
0.0209855
0.0219115
0.0217407
0.0365181
0.0343734
0.021664
0.0216766
0.426668
3.42455
0.403712
0.056648
0.203337
0.333537
0.14017
0.0211699
2.79343
0.0211902
0.0313023
0.0210667
0.021828
0.0204183
0.0284652
0.0206921
2.95479
0.0285347
0.0223761
0.332055
1.28548
0.458033
0.0213797
0.232545
0.0222708
0.0265083
0.0196832
0.0221333
0.0204713
3.47923
0.02716
0.0213365
3.50469
0.0228249
0.0598828
0.313134
0.0204159
0.0463394
0.43872
2.87853
0.0239377
0.027146
0.0209482
0.0213833
0.0212967
3.37568
0.0318019
0.259118
0.0221963
0.0282959
0.811134
0.021581
0.888043
3.36055
0.0337874
0.0229625
0.022583
0.0208553
0.0209568
0.0372785
0.151248
0.0435374
0.323601
0.367603
0.0621681
0.0600636
0.0299011
0.0740055
0.0239702
0.0226986
0.690971
0.213713
0.0503711
0.0809349
0.0211141
0.023496
0.0368444
1.16039
0.0651407
0.0205519
0.023734
0.310178
0.0329254
0.721714
0.0276841
0.0397363
0.0204509
0.0462654
0.020586
0.0594678
0.346168
0.021484
0.021046
0.0251337
0.126093
0.0222863
0.0252913
0.0694746
0.0490829
0.0241421
0.0211321
0.0503324
0.106808
0.0702159
0.0239369
0.0198031
0.0292437
3.48226
0.0230145
0.0263859
0.345741
0.0217933
0.0214196
0.036897
0.0424477
0.0210482
0.0240236
0.0246433
0.0214784
0.18424
0.0263183
0.0243862
0.0254538
4.24453
0.0308777
0.0230302
0.0237722
0.0386943
0.0210948
0.0224117
2.84764
0.0405889
0.0296807
0.0219482
0.0216025
0.412816
0.0356205
0.269689
0.0250935
0.0237248
0.0271595
0.317089
0.0283502
0.0679638
0.0517977
0.0214527
0.0286484
0.0240757
0.0306748
0.0240552
0.0214991
3.94546
0.0262006
0.0402509
0.0502147
0.021628
0.426193
0.043871
3.92281
0.031571
0.0384564
0.0240326
0.0284535
0.0226299
0.0268869
0.200664
0.0205332
0.0281244
0.0318956
0.0238982
0.02164
0.46376
0.026661
0.0320431
0.0247588
0.0801024
0.0233989
0.182305
0.444256
0.0295507
0.268753
2.65011
0.838364
0.026007
0.295698
0.0601587
3.2798
0.0308746
0.0244908
0.0613273
0.0216532
0.655359
3.87075
0.021586
0.0936305
0.0315716
0.300086
0.0237976
0.0210568
0.202762
4.66889
0.0220669
0.0342172
0.194034
0.0263705
0.0221449
0.0576527
0.0722737
0.0304452
0.200015
0.0217715
0.0360123
0.0212137
0.06622
0.0898017
0.299995
0.0225164
2.86975
0.0251442
0.0669872
0.0247657
0.0234032
0.646574
0.0289385
0.386876
0.0205115
0.021508
0.242861
0.0739831
0.0210772
0.0288587
0.0280723
0.0216036
0.0205928
0.0653659
0.0323884
0.374687
0.0760431
0.0287482
0.0369364
0.0214258
0.0365714
0.0338346
0.089073
0.0353767
0.0211971
0.0206342
1.01434
0.0307025
3.38812
0.12301
0.0233871
0.0403064
0.0242057
0.671145
0.0228359
0.0235938
0.0221989
0.0258112
0.0228378
0.209652
0.021645
0.489013
0.0198243
0.0350857
0.0361652
0.0220505
0.0205257
0.0216197
0.0204976
0.0465264
0.0214819
0.0424625
0.0789112
4.12495
0.127631
0.0215509
0.814462
0.0324049
0.0255205
0.0278757
0.0249954
0.0947666
0.509171
3.35463
0.177034
0.0216092
0.0252271
0.0301184
0.019937
0.0366851
0.0242088
0.312649
0.19622
0.860821
0.0293682
0.0241607
0.0502856
0.0270525
0.412577
0.023381
0.506016
0.0286626
0.021244
0.308864
0.0214197
0.083488
0.0257152
0.0286294
0.121437
0.0252409
0.0224642
0.0213753
0.0252874
0.0257579
0.241338
0.201483
0.0684794
0.0239402
0.0204666
0.366484
1.36356
0.0264744
0.0343545
0.106487
0.306949
0.0727054
0.0218398
0.0380708
0.0301915
0.044117
0.0289915
0.0212831
0.0254544
0.0216102
0.203674
0.0216592
0.0283618
0.0247385
0.0247101
0.234028
0.023516
0.0209523
0.0214573
0.020545
0.0215902
0.0217258
0.0458187
0.0211818
0.118764
4.16255
0.352575
0.021615
3.64717
0.205558
0.384454
0.0241986
0.980314
0.34976
0.0226029
0.0282156
0.0278095
0.0313235
0.0757503
0.0481328
0.0307169
0.653989
0.02172
0.0265279
0.0275013
0.0211206
0.0212725
0.0211286
0.331118
0.31949
0.0715
0.0233849
0.0217695
0.0233583
0.42539
0.0212017
0.0225667
0.364323
0.0212344
1.31879
0.0270945
0.0207054
0.877013
0.0207641
0.0415583
4.13776
0.0274742
0.0217221
0.026761
0.100861
0.381259
0.0722819
0.420099
0.0469196
0.0204643
0.0214664
0.100316
0.0343753
0.0204127
0.0218664
0.0337956
0.0213284
0.864643
0.852586
0.42997
0.0298189
0.657383
0.106045
0.307753
0.0246559
0.0382297
0.0212083
0.406731
0.0220977
0.024498
0.273714
0.0519074
0.0216743
0.0696056
0.020407
0.0782717
0.0281892
0.0286394
0.0252473
0.0221125
0.0305313
4.07507
0.0211188
0.0905352
0.033802
0.0238892
0.0210762
0.0214523
0.0249411
0.354118
0.0211366
4.59281
0.0326922
0.387624
0.0212577
0.0408881
0.0287782
0.0229774
0.020439
0.0214744
0.0285988
0.0435872
0.0212595
0.0400326
0.0503607
0.137572
2.01333
0.0230884
0.0232059
0.0208999
0.0313461
0.025733
0.0245179
0.408642
0.0213392
0.0312011
0.0246166
0.19099
0.511958
0.502651
0.0216587
0.0248514
0.0204446
0.129349
0.0210858
0.0215895
0.399416
0.147591
0.0209564
0.0286028
0.386757
0.0240461
0.0226411
0.201558
0.0274714
0.0218999
0.0542214
0.337321
0.0209186
0.395426
0.0286307
0.0212105
0.0383134
0.0205868
4.05853
0.0247928
0.0211502
0.0934038
0.0219559
0.025146
0.0226442
0.02293
0.0204381
0.0272421
0.025044
0.0901123
0.0215102
0.164133
0.0208975
0.276014
2.62179
0.0423491
0.507789
0.0205473
0.463948
0.0211774
0.399785
0.0204808
3.92016
0.480713
0.397884
0.0311881
4.27115
0.350831
1.44715
0.0296577
0.0251039
0.0329948
0.506499
0.430894
0.028211
0.0527178
0.138298
0.0252514
0.461432
0.0210243
0.0307587
0.460316
0.0204862
0.0209501
0.0262008
0.0213836
0.0204454
0.752096
0.0209426
0.239098
0.0214974
4.02961
0.324971
0.0213187
0.0225729
0.0230318
0.0247675
0.389025
0.0305956
0.360685
0.0252605
0.141994
0.0219152
0.0235384
0.0206045
0.0216209
0.0204095
3.42002
0.0204468
0.0217042
0.0211729
1.01792
0.0267071
0.0290145
0.269881
0.0292149
0.0208921
0.140907
0.0206914
0.0216307
0.0215526
0.131699
0.0210154
4.37961
0.0206438
0.0209859
0.101089
0.0208911
0.0206994
0.290854
0.11195
0.29575
0.401791
0.0284022
0.022141
0.0222481
0.0249933
0.0589756
0.347389
0.223123
0.0213716
0.315566
2.17801
0.0239389
0.0207683
0.0269353
0.293038
0.960076
0.0237931
0.0240913
0.0210867
0.0298749
0.0235867
0.159405
0.0218273
0.113394
0.0204834
0.0214607
0.441095
0.0498043
0.024061
0.301759
0.0204475
0.981156
0.0207136
0.0207953
0.51601
0.0230415
0.0235732
0.306558
0.0207207
0.0256364
0.0210418
0.043507
0.0204168
0.3899
0.0218034
0.0338292
0.104234
0.0214969
0.0590745
0.0217348
0.0225699
0.0237383
0.028897
0.445388
0.0417078
0.0218288
0.0219293
0.486754
0.0217026
0.101508
0.0243041
0.024771
0.0273517
0.0213014
0.0269391
0.0561555
0.0230329
0.480375
0.077568
0.0312613
0.0864013
0.294574
0.0217311
0.0302586
0.0213334
0.0236945
0.0197115
0.0215043
0.318755
0.0196821
2.91277
0.0284628
0.0217757
0.0319901
0.0225702
4.16072
0.0228774
0.471331
0.0221929
0.0272972
0.0455557
0.0290371
0.436428
0.0243042
0.374334
0.0250077
0.036276
0.111273
0.0244941
0.321459
0.020796
0.024756
0.0208508
0.0216738
0.0207975
4.0889
0.0198814
0.0216813
0.0281902
0.569992
0.332196
0.023555
0.127367
0.0208812
0.0209196
0.0241388
0.0229737
0.0223704
0.0218002
0.0225599
0.0231548
0.195351
0.0289939
0.0207873
0.0222662
0.0263615
4.53662
3.57633
0.107205
0.0258875
0.40696
0.0382829
0.807417
0.0224719
0.0539745
4.09235
0.0212349
0.020462
0.023305
0.0305708
1.13292
0.0226327
0.0214254
0.023694
0.0210613
0.391528
4.07897
0.0225455
0.646764
0.0419086
4.43048
3.13264
0.0256712
0.0284289
0.0534925
0.0223129
0.0276329
0.170729
0.0288786
0.0234248
0.364343
0.0518882
0.0300715
0.0481716
0.0231991
0.0421558
0.0243541
0.0231324
0.643728
0.0219215
0.0219881
0.0361963
0.938125
0.0216355
0.373828
0.0228575
0.0961454
0.021676
0.0239033
0.0285822
0.0290307
0.0322546
0.0344136
0.0220899
0.222499
0.0214292
0.0632897
0.0438947
0.0353796
0.0222843
0.996844
0.0211798
0.0214046
3.22591
0.0214059
1.25115
0.0241126
0.149541
0.0279475
0.0212453
0.0657505
0.0221373
0.0471229
0.456074
0.0211174
2.94009
0.229277
0.0284786
0.0197209
0.0730176
0.244275
0.0297018
0.517545
0.0262922
0.0280156
0.379618
0.749139
0.0217539
0.155629
0.0521511
0.0214106
0.0220736
0.148813
0.0973285
0.0238699
0.209213
0.464105
0.340362
0.0285352
0.03538
0.0276898
0.0252741
0.0205603
0.409745
0.505519
0.0214772
3.80637
0.0210098
0.0211876
0.386282
0.468714
0.0213491
0.0225023
0.182645
0.121191
0.0285075
0.0331617
0.0215017
0.91641
1.98077
0.0373327
0.025196
0.446736
0.0229743
0.549145
0.0305466
0.0226562
0.0253411
0.02172
0.0222154
0.021587
0.0263135
0.314659
4.02872
0.0209365
1.686
0.0893179
0.28641
0.0401975
3.87306
0.0467062
0.0256374
0.0219857
0.0209951
0.0254122
0.0451932
0.0243603
0.0217895
0.400188
0.101749
4.54938
0.0529295
0.30392
0.0253649
0.0518713
3.42431
0.0583467
0.029646
0.0284177
0.0223319
0.842796
0.0224173
0.0650405
0.0758423
0.0216765
0.472487
4.37251
1.62901
0.0285581
1.22318
0.31192
0.373448
0.0213299
0.273673
0.373554
0.495015
0.389099
0.0213405
0.0743328
0.0209973
0.0231756
0.943089
0.303235
0.137837
0.384702
0.0509403
0.346353
3.76212
4.31765
0.0218948
0.0213255
0.0217336
0.586531
0.10254
1.29847
0.0281241
3.42943
0.175572
0.761642
0.0443533
2.18501
0.0307398
0.0245692
0.033303
0.335956
0.022629
0.0261104
0.0247974
0.271057
0.0289599
0.053365
0.0229772
0.662458
1.21254
0.101393
0.0583333
0.615932
0.0234168
0.0269702
0.270374
0.231065
1.30342
0.513312
0.0233339
0.294006
0.0271716
0.0283727
0.202002
0.0208178
0.0215548
0.0679783
0.112804
0.0205302
0.0946217
0.363443
0.107794
0.0276733
0.312018
3.86568
0.0332242
0.431474
0.0230721
0.0359987
0.226515
0.0300961
0.0249198
0.034504
0.0749111
0.0312789
0.0246403
0.186024
0.0484543
0.0574299
0.0234293
0.0427077
0.502854
0.395353
0.245747
0.0281945
4.04737
0.0211977
0.548493
0.0289154
0.0219779
1.05546
0.418033
0.029928
0.027044
0.024108
2.37012
0.0255148
0.030589
0.0305065
0.0212732
0.52236
1.3928
0.0387813
0.0217713
1.01208
1.86001
1.07505
0.12704
0.0244613
0.0240935
0.0220249
0.0225809
0.0222071
0.37647
0.134508
0.0218382
0.0204688
0.0224648
0.0243224
0.238201
0.031046
0.243835
0.0215251
0.0401307
0.0212811
0.105241
0.0215883
0.0222059
0.193449
0.300654
0.0255604
0.0261909
2.25067
4.47073
0.0898675
0.0214125
1.23647
4.73747
0.040615
0.369861
0.0502348
0.0223129
4.40449
0.0393322
0.159721
0.0211563
0.0677654
0.0250239
0.0598661
0.0233626
0.022331
0.0308287
0.0247832
0.0383144
0.11945
0.023443
0.0259093
0.0243416
0.110059
0.0213832
2.93208
0.0208754
0.0823291
0.0235517
0.0432037
0.0360102
0.0411832
0.0211349
0.0274952
0.227678
0.2269
1.71751
0.0476274
0.0212358
4.56722
0.0271942
3.63404
0.0333504
0.027789
3.05306
0.0212874
0.515988
0.0377559
0.0211873
0.031092
0.0283466
0.0242027
0.0211987
0.924429
0.020983
0.0242942
0.901551
0.0221939
0.420074
0.0224575
0.0825877
0.0215125
0.0280213
0.15599
2.6526
0.0231582
0.0231127
0.0210936
0.0230877
0.0209883
0.0237072
3.71727
0.207188
0.0431296
0.022902
0.0311512
0.0519494
0.0931987
3.03136
0.0212012
0.0238657
0.0741072
0.271917
0.102591
0.0292356
0.167543
4.37167
0.0432573
0.0217425
0.0519601
0.356566
0.0256775
0.0229321
0.0230785
0.0213413
0.0229235
0.0303948
0.516788
0.0215877
0.0209284
0.744739
0.0237203
0.845234
0.413637
0.0258608
0.0415
0.473707
0.0250048
0.45851
0.0231261
0.0234723
0.0290643
0.0592787
0.024475
0.0289342
0.0311175
0.458992
0.0897267
0.513169
4.36562
0.060802
0.027139
0.0289686
0.0218368
0.0268108
0.0199962
0.625689
0.0215703
0.0252151
2.44773
0.0210999
0.0232247
0.523379
0.0241669
0.0246753
3.78192
0.176341
1.48203
0.207805
0.0217457
0.0233161
0.27199
2.06876
0.0297828
0.298043
0.248824
0.598585
4.25052
0.235823
0.0211391
0.79187
0.0215166
0.419171
0.162095
0.0286552
0.417462
0.0286342
0.451642
0.0211892
0.0794627
0.341241
0.0228552
0.076082
0.0217352
0.0524604
0.0213872
0.49995
1.00015
0.901779
0.426097
0.110648
0.0282313
0.0212224
0.0260777
0.0211402
0.0253041
0.0555206
0.387128
0.0202549
0.02149
0.0210561
0.0254361
0.020484
0.302247
0.0573253
0.0211727
0.024096
0.0232216
0.0365947
0.0255583
0.963155
0.0235849
0.0208833
0.0222103
0.0933881
0.320417
0.210645
0.297807
1.16292
0.0248325
0.28956
0.567218
3.0223
0.024601
0.376395
0.0203999
0.655632
0.0261944
0.438062
0.021817
0.0226165
0.0229947
0.451881
0.271925
0.0371271
0.0236301
0.0212231
0.0219211
4.50164
0.350883
0.0218914
0.0223093
0.0246803
0.0216308
0.928539
0.711696
0.0276753
0.0268923
0.056171
0.0980044
0.0213232
0.0874768
0.0239446
0.0228242
0.0246501
0.144329
2.58789
0.0965778
0.431781
0.0223871
0.021879
0.027412
0.0210175
0.0237985
0.502367
0.0249948
0.502951
0.021248
0.0322289
0.0233392
0.0227156
0.124456
2.9845
0.142869
0.064173
0.0254028
0.108805
0.0449662
0.033536
2.4483
0.949603
0.023399
0.0213393
0.0407213
0.0249843
0.173135
0.193029
0.0213828
0.0217717
0.0438372
0.191986
0.0227442
0.0219881
0.0277824
0.273437
0.0270608
0.360416
1.10378
3.54487
0.0214258
0.0257969
0.0239278
0.0731228
0.338076
0.0208949
0.0335874
0.0430658
0.0317004
0.0270864
0.454463
2.46199
0.0541233
0.0478101
0.02797
0.0209829
0.082381
0.021571
1.07105
0.0795828
0.0239826
4.00461
0.0207384
0.510968
0.0207757
0.0280592
0.0224784
3.49686
0.0359296
4.02268
0.0851206
0.0211899
0.0295066
0.0643292
0.0835483
0.430744
1.6786
0.0210795
0.0253583
0.0225729
0.949923
0.0236939
0.0234534
0.0229619
0.407042
0.0215498
0.0230536
0.0362798
0.243965
0.0229883
4.2055
0.0275633
0.0289578
0.0230081
0.0701246
0.0929622
0.0382857
0.0273606
0.023625
0.0210607
0.0238413
0.0285156
0.0210778
0.206777
0.0214222
0.0756793
2.82037
0.0278823
0.0211305
0.0210778
0.0214994
0.361226
0.0214673
0.0234517
1.45162
0.0291862
0.0929915
0.022707
0.0246528
0.0207978
0.0311458
0.487843
0.138588
0.0643422
0.235291
0.0228225
0.0223523
0.0243563
0.0644007
0.0259084
0.0217638
4.71727
0.939072
0.0233984
0.0215381
0.0863987
0.0208067
0.490883
0.0310342
0.0329295
0.779747
0.0938967
0.0229242
0.0397801
0.0212959
0.0239317
0.0202709
0.0214369
1.21453
0.0215144
0.0235395
4.68733
0.0258366
4.47572
0.0233446
0.0221694
3.58729
0.0723153
0.0225573
0.0826071
3.38672
2.27105
0.0211253
0.399659
0.0242364
0.907454
4.15848
0.0208082
0.101319
0.027082
0.0273716
0.0289461
0.105554
0.0215492
0.0214424
0.0281804
4.06968
0.0225061
0.0847313
0.0205572
0.0198578
0.111242
0.0222516
0.122355
0.406461
2.29338
0.0215406
0.0232861
0.0282612
0.0210824
0.0426304
0.398276
0.0813553
0.0216264
0.192154
0.165355
0.021524
0.0220483
0.0255743
4.41212
0.0252801
0.526874
2.80955
0.116827
0.0237852
0.0532601
0.0878398
0.0234429
4.12872
0.319795
0.0303073
0.378055
0.0214801
0.934606
0.0208915
0.0206957
0.0222462
0.0211867
0.0207026
0.0256538
0.0205423
0.0207693
0.0496059
0.0224006
0.0318868
0.0208427
0.077132
0.022191
0.0207974
0.0280236
0.0679327
0.0222224
0.021996
0.0231726
0.440794
0.18618
0.0563946
0.0284048
0.0204819
0.0215024
0.0811796
0.0222639
0.126824
0.503447
2.38504
0.119719
0.0220747
0.23333
0.768695
0.69473
0.0218749
0.149879
1.17347
0.510588
0.0249488
0.0226653
0.0202821
0.0222093
0.220907
0.0395525
0.0246937
0.245432
0.0335831
0.0256176
0.0218457
0.0214579
0.0202878
0.0541158
0.186717
0.1879
0.0355141
0.161217
1.31001
1.42613
0.0352054
0.0201198
0.0361109
0.0236356
0.028364
0.0214406
0.0242173
0.0222827
0.0233274
0.0254781
0.0217709
0.470053
0.0241216
0.0233842
0.620769
0.0307575
0.080818
0.0215419
0.0280398
0.0224185
0.0483999
0.043676
0.0231035
0.0201614
0.0252745
0.0254198
0.0247002
0.0301477
0.0793643
4.74944
0.0283145
0.314709
0.0214991
0.0492976
2.20575
0.123695
0.287809
0.614636
0.026576
0.0202068
0.0210197
0.022848
1.00821
0.611321
0.0330038
0.304828
0.0208024
1.6339
1.04637
0.0248035
0.0234498
0.45333
0.0263839
0.621432
0.0274957
1.61428
0.02162
0.345814
0.0210369
0.0225072
0.0220217
0.116945
0.363981
0.18133
0.0245388
0.02269
0.0317479
0.024193
0.172211
3.65512
0.0209815
0.435506
0.0249916
0.0419414
1.33491
0.0207372
0.021379
0.0238203
0.0288587
0.0217683
0.0321585
0.028844
1.74114
0.0299427
3.5707
0.0211473
0.217799
0.0215637
0.0218398
0.021516
0.0215901
0.0276962
0.0200682
0.0823936
0.0524425
0.102673
0.0228839
0.0214742
0.117937
0.0253222
0.0263403
4.29914
0.02228
0.021354
0.0239369
2.52135
0.0278478
0.0216152
0.0255173
0.0216433
3.71633
2.43697
0.149577
2.83937
0.0451274
0.0278299
1.27297
0.0219484
0.653288
0.020792
0.0373044
0.0221857
0.175673
0.0211212
0.0225541
0.0369031
0.0208064
0.0208412
0.0215736
0.024027
0.453374
0.0212262
0.0253447
0.0228878
0.0244959
0.299647
0.352435
0.0215397
0.110582
0.0789678
0.176743
0.0624777
0.620938
0.31165
2.36864
0.0275841
0.0207482
0.0213395
0.591976
0.0381788
0.0256444
0.0220903
0.0208892
0.0218198
0.0224734
0.0324701
0.141676
1.286
0.0226299
0.0227993
0.02098
3.3681
0.0258859
0.0329168
0.0211431
0.0207843
0.51098
0.0502892
0.0339265
2.18574
0.0244215
0.361473
0.0242556
0.125723
0.0435767
0.0214837
0.0219525
4.75155
0.0300698
0.0427403
0.387894
0.210774
0.0299516
0.0232478
0.901238
0.331353
0.0208362
0.127567
0.221493
0.0224077
0.0223686
0.0268151
0.0227231
0.0310159
1.02661
0.52664
0.0922966
0.0207571
0.0239895
0.0271405
0.0271652
0.0529202
0.0881802
0.0357309
0.0822558
0.0233359
0.0224484
0.024278
0.0333577
0.0566853
0.0226891
0.0489309
0.0216808
0.0202556
0.0506907
0.0643043
0.455365
0.0236615
1.756
0.0214625
0.360599
0.0371512
0.02148
0.0231799
0.0315835
3.24544
0.0286466
0.0203334
0.0212548
0.0225596
0.0223201
1.01554
0.301409
0.0215226
0.362501
0.486412
0.0233129
0.0299741
0.0224247
0.0382463
3.65379
0.0634684
0.0223183
0.154304
0.296627
0.0283993
0.0293546
0.0228148
3.85215
0.333349
0.0453986
0.0728148
0.0216993
0.0229928
0.0227481
0.0888751
0.0564539
0.293573
0.0781627
0.27548
0.0272476
0.0304131
0.0246606
0.0470619
0.044243
0.0791449
0.0210547
0.0699615
0.0219276
1.34232
0.0215541
0.0249342
0.0342139
0.0273289
0.0220596
0.325937
0.0256258
0.0425098
0.0215209
0.0213018
0.0273186
0.580034
0.0971908
0.0311212
0.0856309
0.0240067
0.0225496
0.0206318
0.327737
0.0240604
0.0334029
0.399276
0.0244074
0.0214806
3.40355
0.175063
0.492944
0.297504
0.0218882
0.0660965
0.154552
0.506277
0.0203134
0.257538
0.0374732
0.193086
0.0216009
0.0395704
0.574163
0.452078
0.0214832
0.0218171
0.0342045
0.599856
0.0212146
0.458677
0.03531
0.02261
0.0238433
0.179962
0.229008
0.192496
0.132827
0.0322363
0.0286806
0.0252734
0.0456159
0.100502
4.35587
0.52943
0.0214491
0.0196922
0.0519177
0.0229465
0.0213927
0.945486
0.026823
0.441591
0.0224969
0.0224533
0.109483
0.0845871
0.105391
0.0568993
2.24491
1.24123
0.0228789
0.0201926
0.0204892
0.0416622
0.0221455
1.46519
0.0216008
0.0215866
0.023079
0.95877
0.0219115
0.0210595
0.332959
0.11292
0.0730037
0.0203303
4.12538
0.0215783
0.0217925
0.371432
0.0209101
0.0533809
0.0231775
0.0306249
0.02152
0.0220868
0.0524799
0.0232764
0.0211321
0.0214107
0.020219
0.140793
0.368699
0.0209459
1.84541
1.0181
0.0217421
0.0246557
0.0231178
0.0214461
0.0201877
0.029375
0.0580663
0.0615781
0.38514
0.617791
2.2075
0.0224439
0.0215532
0.0256289
0.283473
0.31995
0.0560761
0.0219684
0.0214746
0.0370896
0.0374272
0.189303
0.0248532
0.899248
0.0205694
0.0394021
0.0279339
3.5775
0.0219705
0.0225266
0.0235189
0.988956
0.192622
0.0310531
0.342973
3.07987
0.25944
0.0842729
0.125287
0.0258233
0.054573
0.0600972
0.0427613
0.501755
0.140212
0.513176
0.0278527
0.0223436
0.0221429
0.0213317
0.0231921
0.0235203
0.315788
0.069302
0.0811437
0.28347
0.163209
0.0228231
0.0784434
0.0631824
0.0364656
0.0239614
0.310392
0.228761
0.0212618
0.191539
0.115032
0.035451
0.0936238
0.0216898
0.0247761
0.0296514
0.0251013
0.0209576
0.236535
0.0219492
0.0237538
0.991148
0.0284907
0.0403642
0.342809
0.0222504
0.0498391
0.0253653
0.0232214
0.0216415
0.0206099
3.24615
0.0317852
0.0716182
0.815817
0.0216054
0.3243
2.44181
0.2473
0.0206812
0.0213802
0.0247808
0.0227387
0.0210704
0.0336606
0.0233424
0.0214868
0.0246276
0.762749
0.031288
0.024434
0.0256487
0.021656
0.0214734
0.0277431
1.97754
0.0309396
0.0211491
0.134403
0.0238102
0.0236668
0.138914
0.234136
2.52578
0.674308
0.0212525
0.485716
0.0908662
0.107124
0.020696
0.0412084
0.0293129
0.442999
0.021876
0.0207182
0.0285733
0.0245795
0.0229909
0.0233724
0.0215063
0.0196899
3.56628
0.0217962
0.0232055
0.0212628
0.180861
0.0233017
1.99779
0.0213931
0.225987
4.01209
0.044023
4.65251
0.296334
0.0231761
0.0215156
0.0219078
0.171092
0.0254648
0.0214069
0.0234232
0.836293
0.0949123
0.0222206
0.0219709
0.0210943
0.0222276
0.37043
0.0210484
1.03731
0.152506
0.0376201
4.53558
0.3152
0.02093
0.0202328
0.558251
3.63953
0.0244737
0.0218864
0.0306383
0.168274
0.0229621
0.0213852
0.0289759
0.022254
0.0235669
0.0393907
0.027692
0.151668
2.78851
0.983146
0.0210429
0.0424339
3.21724
0.0238484
3.48488
0.0542662
0.14138
0.152714
0.0201432
4.5143
0.0249269
0.0229606
0.0243758
0.0845839
0.0606563
0.0213676
0.0767044
3.9183
0.247283
2.7637
0.193959
2.52535
0.0226794
0.174567
0.0749575
0.0209063
0.031923
0.218805
0.0215856
0.236125
2.12848
0.0782331
0.0214516
4.52207
0.945712
0.0215471
0.0255933
0.0388474
0.0235448
0.0203486
0.355271
1.63734
0.032719
0.0213749
0.0209966
0.0221986
0.0230698
0.330421
0.0649981
0.0252255
0.657905
0.0211508
0.218873
0.0356937
0.0216319
0.0599431
0.0255662
3.31303
0.212423
2.13857
0.409484
0.0388102
0.0248691
3.25239
0.0210207
0.0819042
0.0222667
0.0423187
0.0219232
0.0485097
2.36579
4.15733
0.820893
0.147366
0.0219584
0.0209059
0.0229762
4.31029
4.48135
0.0569962
0.0993602
3.92961
1.08963
0.0224917
0.216544
0.431305
0.0217348
4.7349
0.0239088
0.0822022
3.35939
0.0200669
0.057222
4.25435
0.0755834
0.022367
2.75836
0.0231784
1.75668
4.14164
0.0456048
0.173297
0.463978
0.0887509
0.208052
0.0252936
0.844192
0.323171
0.0213725
4.66672
0.0228406
0.0215094
2.8107
0.0980673
3.54479
0.0494109
3.60705
0.0201396
0.020094
0.0214413
2.48231
0.0204245
0.276036
0.47346
0.300963
0.0200941
0.030856
0.0286311
3.21824
2.35171
0.191662
0.0716652
1.08292
0.461394
4.67202
0.0367419
0.0223642
0.047473
0.387179
1.83006
0.933409
0.0214886
3.42184
0.0227631
0.0233586
0.0380129
0.0246476
0.0282522
0.0289063
0.0281651
0.0202022
0.0211611
0.180686
0.023546
0.021996
0.0235175
0.116638
3.89889
0.0261938
0.02821
0.0509772
2.16975
2.66427
0.0277242
0.0614056
0.106386
0.0611827
0.0206895
0.0314401
0.0226118
0.0219075
1.22061
3.0462
2.97272
0.17056
0.0221844
0.680569
0.749286
0.724888
0.0215576
0.0606955
0.0216024
0.0209062
0.0207453
0.0353845
0.0276948
4.67858
0.0396249
2.06318
0.0246462
0.285233
0.0237578
0.0240386
4.72793
0.0353758
0.022801
3.3745
0.021074
0.0338848
2.20747
0.0289138
0.023388
0.0242907
0.024867
4.53609
0.0284281
2.71895
0.0212977
0.0207101
0.0273588
0.0215836
0.233641
3.81395
0.0214709
0.0272396
0.0256982
2.50206
0.0289051
1.86579
0.0321363
0.48379
0.210582
2.82127
2.56965
0.140635
0.0332979
0.336664
0.0214168
0.020155
0.517537
0.0421372
4.57704
1.15203
0.0229753
0.263814
0.470908
3.54874
0.0232016
0.0216537
3.89756
0.0220162
0.0238863
0.0993179
3.61137
0.0209439
0.0211138
0.0227866
0.039336
0.0226947
0.0447752
0.180402
0.0252951
4.01308
0.292366
0.404776
4.47289
0.0411049
0.0603091
0.170998
0.302772
4.27977
0.454944
0.0229864
0.19628
0.0228481
0.901329
1.05606
0.315255
0.252509
0.021585
0.0256795
0.0280457
0.022618
4.35821
0.0214821
0.0216697
0.0292608
0.435948
0.230315
0.42067
0.0201822
0.0325222
3.49802
0.0689813
0.0214881
0.0672997
0.0209981
0.179926
0.617559
0.0244326
1.87832
0.348778
0.17722
0.282479
0.021439
0.0209525
0.0216579
0.464553
0.491034
0.0233561
3.98983
0.0319808
0.0210775
0.024667
0.142166
0.0252269
0.0371063
0.110615
2.6903
0.0231065
0.0229503
2.51141
0.0222857
0.0208883
0.0227583
0.0215495
0.0303735
0.0214001
0.0229078
0.999401
4.57562
0.0234981
0.0949054
1.03015
0.0847434
2.36361
0.2677
0.273737
0.0211685
0.0997006
2.37505
0.0276775
0.180356
0.022984
0.0225428
2.35121
0.0243613
2.4605
0.0236506
0.0244249
0.0233436
0.0632579
0.0222484
0.0206226
0.127579
0.142837
0.0220634
0.12258
0.0253215
0.235404
0.0926995
0.0311837
0.0208961
0.0228066
1.95234
0.44644
0.0200872
0.022214
0.0356577
0.0402888
0.025139
1.84691
0.0221382
0.514223
0.0215481
0.0267512
0.060816
2.1473
2.30473
0.0227665
0.0214909
0.166396
0.052072
0.022689
0.432976
0.021977
2.78323
0.267288
0.022406
0.0383449
0.267185
0.305994
0.233257
0.0378512
3.88559
0.0213706
0.0899759
0.180593
0.0230021
0.0201936
0.0327389
0.364757
0.216626
0.0247929
0.221397
0.0223838
0.0228921
0.0222698
0.0227763
0.0223184
0.0514956
0.0330933
0.445618
0.108062
0.483118
0.0630435
0.0354503
4.69265
0.0969119
0.0310036
0.0220313
0.0221763
0.0351046