/*--------------------------------*- C++ -*----------------------------------*\
| =========                 |                                                 |
| \\      /  F ield         | OpenFOAM: The Open Source CFD Toolbox           |
|  \\    /   O peration     | Version:  v2012                                 |
|   \\  /    A nd           | Website:  www.openfoam.com                      |
|    \\/     M anipulation  |                                                 |
\*---------------------------------------------------------------------------*/
FoamFile
{
    version     2.0;
    format      ascii;
    class       surfaceScalarField;
    location    "200";
    object      phi;
}
// * * * * * * * * * * * * * * * * * * * * * * * * * * * * * * * * * * * * * //

dimensions      [0 3 -1 0 0 0 0];
oriented        oriented;


internalField   nonuniform List<scalar> 
27087
(
0.520891
-0.135113
-0.385778
-0.188836
0.309459
-0.120623
-0.0482987
0.0797193
-0.0314206
-0.0351707
-0.13655
0.171721
-0.404615
0.0640051
0.34061
-0.140489
0.103765
0.0367239
0.16775
0.164032
-0.331782
-0.477065
0.477538
-0.000473166
0.24796
-0.529605
0.281646
-0.170238
0.337988
0.458787
-0.337708
-0.121079
-0.188114
0.375574
-0.187461
0.335349
-0.436676
0.101326
-0.316417
0.148061
0.168356
0.28854
-0.184795
-0.103745
0.143207
-0.153782
0.0105748
0.153065
0.0390986
-0.192163
-0.130695
0.0223518
0.108344
0.500723
-0.0848125
-0.41591
0.254876
-0.179818
-0.0750581
-0.0268706
-0.035935
0.0628056
-0.152385
0.481611
-0.146262
0.362181
-0.268937
-0.0932441
0.383631
0.13726
0.414988
-0.225755
-0.189233
0.343577
-0.222155
-0.121422
-0.327539
-0.0735662
0.401106
-0.524633
0.243344
0.281289
-0.263678
0.0748415
0.214989
0.199998
0.13818
0.116696
0.343802
-0.548001
0.2042
0.167282
-0.329551
0.162269
0.142352
-0.177523
-0.0954266
-0.381638
-0.0774868
0.0506161
-0.224913
0.191125
0.239261
-0.218431
-0.0208296
0.327068
0.110303
-0.437371
0.190501
-0.300613
0.110112
-0.316813
0.493836
-0.177023
0.0381484
-0.0864471
0.101088
0.261093
0.263117
-0.0726162
-0.0359342
0.22426
-0.188326
0.296364
-0.227691
-0.0686731
0.477312
-0.133511
0.155879
0.132661
-0.0381736
-0.102315
-0.0453588
0.198423
-0.0238423
-0.160953
-0.412339
0.551863
-0.139524
0.118797
0.346707
-0.465505
0.311885
0.124023
-0.435908
-0.252743
0.500702
0.161696
-0.0184896
0.209319
0.0870452
0.177764
0.150279
-0.328043
-0.221338
0.197495
0.0292145
0.127517
-0.156732
0.153856
-0.263367
0.109511
0.292612
-0.160738
-0.131873
0.161976
-0.332214
0.431493
-0.0726774
-0.358815
0.501416
-0.133736
-0.36768
-0.0234846
0.262745
-0.220397
0.184463
0.445001
-0.317013
-0.127988
0.349439
-0.171675
0.383529
-0.409718
0.026189
-0.164313
-0.321063
-0.449627
0.37915
0.0704771
-0.472322
0.155509
-0.127876
0.157091
0.324325
0.169511
0.201226
-0.318168
0.116941
-0.0575011
-0.172752
0.230253
0.182058
0.110553
-0.497617
0.356447
0.14117
0.151596
-0.0468021
-0.104794
-0.122056
0.171566
-0.0495103
0.108147
-0.0317285
-0.0764182
0.450303
-0.0858135
-0.364489
0.244559
0.259447
-0.504006
-0.188549
0.0484836
0.140065
0.0541717
0.500723
-0.175989
-0.222116
0.398106
0.0894896
-0.0208379
-0.0686516
0.191713
-0.212645
0.0209314
0.239151
-0.387695
0.148544
0.002279
-0.130155
-0.279145
0.195215
0.0839296
0.34381
0.0876825
0.0756549
0.374648
0.483023
-0.352424
-0.130599
0.415415
-0.176264
0.328885
0.154138
0.157587
0.0548405
-0.212427
-0.11625
0.0241471
0.0921027
0.277105
-0.12325
0.371272
-0.501709
0.130438
-0.309035
-0.179005
0.48804
0.34549
0.038039
0.0604832
-0.388023
-0.142925
-0.14985
0.292775
0.292572
-0.144511
-0.00334207
-0.127353
-0.175202
-0.17109
0.346292
-0.136717
-0.243741
0.380457
0.31128
-0.110054
-0.145787
0.148066
-0.0769485
0.153347
-0.0763981
0.188678
-0.497712
0.116293
-0.277569
0.161276
-0.0806322
0.238219
-0.460007
0.01038
0.23778
-0.0821848
-0.155595
0.36756
0.133856
0.560618
-0.316059
0.392411
-0.502042
0.109631
0.455824
-0.471992
0.0161679
0.260904
-0.068489
-0.192415
0.443168
-0.118843
0.363456
-0.513958
0.150502
0.303404
-0.198715
-0.104689
0.0627742
0.0267154
-0.201765
0.0856341
0.116131
-0.348366
0.247358
0.101009
0.254033
-0.38934
0.135308
0.172734
-0.0303823
0.329763
0.117874
-0.447636
-0.295097
0.448752
-0.153655
-0.0735671
-0.14683
0.200523
-0.530571
0.330049
0.0211858
-0.157736
-0.222925
0.113444
0.109481
0.0368768
-0.0875898
0.050713
0.0822863
0.0214785
-0.32411
-0.0592987
-0.0134151
0.0727138
-0.0468592
0.0850075
-0.00912927
0.117276
-0.509255
0.365474
0.143781
-0.0847496
0.237961
-0.153212
0.170458
0.132946
-0.226009
0.19778
0.0282286
0.420037
-0.314224
-0.105812
0.138547
-0.476255
0.154641
-0.00970975
-0.144932
-0.112746
0.442509
-0.00799849
-0.108251
-0.129685
-0.0769556
0.20664
0.107893
0.181211
-0.107032
-0.074179
0.0410013
-0.0878605
0.112582
-0.172336
0.0597532
0.336388
-0.0823557
0.0167106
-0.0760093
-0.215657
0.356396
-0.140739
-0.150958
-0.112409
0.0229502
0.0849431
-0.122201
-0.066348
-0.359479
0.184277
-0.298402
0.44976
-0.151358
0.262673
-0.185994
-0.0766789
0.0170685
-0.241982
-0.313924
0.434587
-0.120663
0.10836
0.0728502
-0.058787
-0.245816
0.304603
-0.0370403
-0.172183
0.209224
-0.097762
-0.104003
-0.331766
-0.140556
-0.33771
0.524249
-0.186539
-0.477117
0.348176
0.128941
-0.465345
0.0357406
0.429605
-0.0394866
0.238681
-0.199194
-0.281777
-0.127461
0.409238
-0.12792
-0.349197
-0.318073
-0.128125
0.446198
0.105233
0.132546
0.302646
-0.132188
-0.414029
-0.0513165
0.554076
-0.398427
-0.155648
0.166755
-0.438051
0.271296
0.522463
-0.25297
-0.269493
-0.04061
0.0244513
0.181173
-0.205624
-0.137333
-0.0393085
0.176642
-0.233485
0.159918
-0.126516
-0.106992
0.233508
0.53194
-0.203408
-0.328532
0.497671
-0.186742
-0.31093
-0.294197
0.23541
0.362183
-0.509925
0.147743
0.16845
0.0942234
-0.261607
0.176858
0.134202
0.168444
0.104576
0.338591
-0.269663
-0.171763
0.441427
-0.101481
0.383184
-0.281703
0.354209
-0.283755
-0.0704549
-0.367688
0.533925
-0.166236
0.198475
-0.291618
-0.0977227
-0.195798
0.220249
-0.145273
-0.384332
0.231127
0.049203
-0.28033
0.353051
-0.502817
0.149766
-0.511739
0.357946
0.153793
0.501716
-0.378323
-0.123393
0.12501
-0.427808
0.302798
-0.280213
-0.0947514
0.374964
0.203552
0.150657
-0.0286651
-0.110718
0.139383
0.194912
0.116368
0.0853952
-0.399319
-0.0696276
-0.372862
0.442489
0.0716349
0.0799614
-0.213458
0.0837734
-0.366026
-0.395917
0.499839
-0.103922
-0.197077
0.160037
0.490781
-0.34526
-0.145522
-0.41778
0.316299
-0.469646
0.202797
0.26685
0.463055
-0.333473
-0.129582
0.0931701
-0.232127
0.138956
-0.164791
0.0427355
0.457059
-0.421319
-0.331513
-0.180226
-0.503037
0.165327
-0.294163
0.467343
-0.173179
0.427798
-0.37596
-0.0518378
-0.460782
0.366218
0.0615801
-0.0200249
-0.110947
0.130971
0.00491056
0.207633
-0.212544
-0.328773
0.45034
-0.121567
-0.0637464
-0.0110058
0.0747522
-0.536738
0.11924
0.417498
0.318101
0.144954
0.159552
-0.455884
0.296332
-0.0698259
0.418423
-0.399334
-0.019089
-0.100839
0.204919
-0.10408
-0.218593
0.223504
-0.453675
0.0413359
-0.533738
0.16605
-0.0771615
-0.162189
-0.0601501
0.222339
-0.0713458
0.0341254
0.0372204
-0.046267
0.158849
0.0354009
0.460708
-0.00364901
-0.344841
0.169296
0.175545
-0.113667
0.0850015
0.173726
0.358214
0.149667
-0.448069
0.370915
-0.440542
0.134647
-0.434259
0.299613
0.0272917
0.0373107
-0.0646024
-0.0106924
0.402413
-0.391721
-0.374462
0.159496
0.214966
-0.133353
0.113328
-0.288097
0.406447
-0.118351
0.116229
-0.153108
-0.0398617
0.0671534
0.00736211
-0.389918
0.382556
0.490429
-0.124212
0.173682
-0.0190403
0.0411189
-0.0964407
0.0553217
0.0270545
0.128721
-0.155775
0.460636
-0.240698
-0.219938
0.000583156
-0.121694
0.121111
-0.260853
-0.113608
0.0312654
0.351919
0.177484
-0.150429
0.171108
-0.22861
0.0272557
0.103995
-0.178379
0.232806
-0.0544273
-0.344524
0.508957
-0.164434
-0.382848
-0.3045
-0.124727
0.429226
-0.522499
0.344729
0.17777
0.327932
-0.32696
-0.000971999
0.0728891
-0.0197376
-0.0531515
0.115139
0.0118078
-0.126947
-0.0596212
0.0209971
0.0386241
0.112642
-0.17919
-0.351381
0.31709
0.137544
-0.454634
0.327295
0.123045
0.0599665
-0.486299
0.426333
0.362066
-0.3308
-0.501239
0.169726
-0.187764
0.456415
-0.268651
-0.301354
-0.158653
-0.138491
0.455581
0.0951924
-0.126921
-0.0226406
-0.0487052
-0.427697
0.133533
-0.528748
0.184224
0.353394
0.0501608
-0.403555
-0.16587
-0.098057
0.263927
0.288741
-0.195947
-0.0927935
0.505572
-0.370416
-0.135156
0.329274
0.142321
-0.471596
0.0702937
0.38553
0.200383
-0.109518
-0.0908653
0.21456
-0.39055
0.427586
-0.115701
-0.462569
0.3192
0.143369
-0.0710646
0.199786
-0.36343
0.147773
0.139305
-0.44423
0.304924
-0.290802
0.366457
-0.150813
0.488128
-0.337314
-0.260819
0.402835
-0.142016
0.192932
-0.18747
-0.00546183
0.232508
-0.10499
0.154663
0.102621
-0.247416
0.0964586
0.139579
-0.327693
0.159218
0.153148
0.399654
-0.04626
-0.301457
-0.246544
-0.0451291
0.200992
-0.155863
0.105703
-0.176768
0.247809
-0.0805277
0.0192456
-0.181435
0.12799
0.104517
-0.0885696
0.459841
-0.202223
-0.11376
0.315983
0.250944
-0.354839
0.103896
-0.31402
0.432817
-0.0277723
0.139171
-0.111398
-0.0154035
0.130543
0.151961
0.191616
-0.14442
0.116648
-0.399031
0.108229
0.185247
0.103494
0.00141571
-0.165848
0.164432
-0.30452
-0.118399
0.422918
-0.342799
0.13166
0.211139
0.125598
0.388039
-0.513638
0.307343
-0.412018
0.104675
-0.140277
0.243631
-0.103354
-0.272913
0.366752
-0.0938397
-0.309406
0.453203
-0.143797
0.107414
-0.25903
0.151616
0.478649
-0.186984
0.204052
0.0606559
0.400109
-0.277752
0.35738
-0.0796283
-0.142616
-0.149888
0.292504
0.1313
-0.00667905
-0.172807
0.179486
0.252053
-0.119685
-0.132368
0.35309
-0.490362
0.137272
0.149685
0.25315
0.404212
-0.265411
-0.138801
-0.138321
-0.314233
0.452554
-0.114113
0.262925
-0.148812
-0.13299
-0.215376
-0.47896
0.174461
0.400123
0.0183
-0.166207
0.147959
-0.146544
0.316581
-0.504346
0.342343
0.148086
0.155466
-0.399592
0.244126
-0.0320703
-0.027551
0.246242
-0.510049
0.263808
0.477349
-0.327356
-0.149994
-0.276627
0.209244
0.0673831
-0.104733
-0.178843
0.283576
0.315363
-0.0265457
-0.288818
-0.104118
-0.0848346
-0.13809
0.0268787
0.333677
-0.360556
0.349455
-0.322576
-0.291705
0.141625
0.15008
0.165616
0.311697
0.282094
-0.152739
-0.129355
0.406276
0.0710733
0.131196
-0.435207
0.304011
-0.0759803
0.468391
-0.294056
0.46081
0.376569
0.145894
0.47493
-0.147635
0.267318
-0.114475
-0.152843
0.155291
0.1881
-0.343391
-0.429246
0.0181169
0.174815
-0.0459929
-0.152722
-0.184837
0.070222
0.114615
-0.468122
0.366869
0.101253
-0.0992948
0.24076
-0.141466
-0.190206
0.144213
0.218449
-0.127383
-0.0910663
0.103038
0.149014
0.177233
-0.296644
0.119412
-0.170413
0.163734
0.0224476
0.13646
-0.158907
-0.310613
0.441808
-0.426292
0.33665
0.0896422
0.134672
0.147422
-0.440926
0.5144
-0.0734744
0.143701
-0.286317
0.0757709
-0.353523
-0.270875
0.33488
-0.178912
0.239946
-0.0610336
0.140036
0.405562
0.028925
-0.434487
0.141456
0.137186
-0.435233
0.298047
0.0901419
-0.216658
-0.353608
0.216892
-0.332001
-0.155821
0.215707
-0.0598859
0.429719
-0.147717
-0.282002
0.291808
-0.123358
-0.382203
0.44217
0.139956
0.161275
-0.301231
0.0585335
-0.0358386
-0.0226949
0.264815
-0.288743
0.0239279
-0.120581
-0.264001
0.502072
-0.258827
-0.243245
-0.131436
-0.336686
-0.37273
0.525257
-0.152527
0.0312558
0.137342
-0.168598
-0.124521
-0.0772636
0.201785
0.46874
-0.0631777
-0.128168
-0.492001
0.113678
-0.30047
-0.208785
-0.0620225
0.441172
-0.418682
0.40799
0.104242
0.200107
-0.304349
0.14665
-0.289575
-0.297793
0.159076
0.138717
-0.248186
0.285887
-0.0377014
0.416341
-0.29133
0.0913854
-0.257255
-0.177746
-0.00923718
-0.438616
0.299438
0.139178
0.16314
0.128668
0.436074
-0.207831
-0.228242
-0.519417
0.34462
0.174797
-0.184567
-0.33485
0.396793
-0.247108
0.210476
0.17961
-0.390087
0.295646
-0.128856
-0.166789
0.15307
0.283003
0.262286
0.113288
0.052431
-0.429813
0.377382
0.129151
-0.435014
0.305863
0.350735
-0.140242
-0.210494
-0.0683592
0.207828
-0.139469
-0.306056
0.377229
0.467541
-0.0966258
-0.409438
0.245125
0.239556
0.231914
-0.122791
-0.109122
0.149063
-0.217422
0.0520512
-0.0473316
-0.201864
0.556654
-0.312621
-0.244033
0.253675
0.302979
0.0150289
0.261714
-0.276743
-0.481016
0.0400901
0.442994
-0.11372
0.484615
-0.172898
-0.311717
-0.34475
0.457106
-0.112356
-0.0931555
0.231336
0.392054
-0.470274
0.07822
0.109513
0.446872
-0.328999
-0.138139
0.169395
-0.223547
0.0826432
0.140904
-0.147726
0.0722519
0.0754746
-0.144113
0.260405
-0.2796
0.0574453
0.0315451
0.0514539
-0.082999
0.0270748
-0.0648528
0.037778
-0.459373
0.471699
-0.0123251
0.539632
-0.174735
-0.364897
0.113347
0.198724
-0.31207
-0.088829
0.357196
-0.160787
-0.196409
-0.297827
-0.486793
0.206439
0.280354
-0.44764
0.225524
-0.525041
0.180193
0.344848
0.294263
-0.412771
0.140883
0.271889
-0.0464709
-0.0991668
0.487206
0.128566
0.16708
-0.170036
0.532218
0.00246797
0.0638712
-0.0663392
-0.12444
0.0865839
-0.232763
0.146179
0.310626
-0.563368
0.480065
-0.334466
-0.1456
-0.457153
0.0591237
0.398029
0.126868
-0.00158072
-0.243407
-0.386506
0.393868
0.0104215
-0.355171
0.284647
-0.269618
-0.0968273
-0.258275
0.355102
-0.349007
0.504396
-0.15539
0.44433
-0.474558
0.0302274
0.300664
-0.453319
0.152654
0.143225
0.21397
0.362905
-0.047542
0.254165
-0.393956
0.139792
-0.0293725
-0.13079
0.160163
0.287683
0.0531917
0.269572
0.166462
-0.436034
-0.141914
0.145287
-0.402428
0.257141
0.034947
-0.0645172
0.0295702
0.174114
0.365519
-0.437289
0.324542
0.150961
-0.11553
-0.0354317
-0.102064
0.267682
-0.165618
-0.186162
0.318747
-0.402803
0.0299414
-0.487206
0.315412
0.171793
0.273621
-0.430901
0.15728
0.154735
0.0771787
-0.323101
0.47192
-0.148819
-0.179279
-0.112426
0.16701
-0.118526
-0.274257
-0.205773
0.480029
-0.358157
0.493722
-0.135565
-0.115412
-0.343961
0.0111421
0.0361365
-0.0472785
0.418356
-0.283709
0.239181
-0.367492
0.12831
-0.285459
0.126656
0.158803
-0.0966866
0.152944
-0.0562571
-0.41642
0.16345
-0.0992024
0.0510456
-0.236748
0.185703
-0.350459
0.516738
-0.166278
-0.112968
0.440899
-0.112043
0.419386
-0.268424
0.133778
0.134646
-0.256766
0.126361
0.130405
0.316603
0.112842
-0.429444
0.334567
0.150121
-0.484688
-0.327928
0.0258984
-0.0840084
0.0581099
-0.412786
-0.0620799
0.474865
0.217177
-0.166132
-0.0693433
0.42579
-0.110134
-0.545705
0.205082
0.340623
-0.0559769
0.422689
-0.366712
-0.0803174
0.102669
0.42721
-0.153589
0.452135
-0.292583
-0.422909
0.366933
0.0323142
-0.489467
-0.350323
0.500711
-0.150388
-0.0892651
0.460023
-0.370758
0.181767
0.302848
-0.0695202
-0.0842613
-0.303662
-0.134954
-0.251453
-0.273587
0.0729512
-0.1499
0.135872
0.277382
-0.243056
-0.0343256
-0.123277
-0.282157
0.405434
-0.0392985
0.131177
-0.0918787
-0.127868
0.32346
-0.195592
-0.295404
0.127788
0.167616
-0.238729
-0.246228
-0.41953
-0.161771
0.519717
-0.0558928
0.0817912
0.0885238
-0.330307
0.241783
-0.345662
0.483047
-0.137384
0.0754468
-0.0729789
0.179281
0.226995
0.162318
0.0342894
-0.196608
-0.134212
0.0292251
0.104987
-0.510226
0.191962
0.318264
0.089796
-0.251329
0.161533
0.125532
0.223025
-0.348557
0.000350468
0.161346
0.242764
0.154029
0.460415
-0.166804
-0.293611
0.240414
0.311449
-0.411821
0.365449
0.0463723
0.302974
0.120627
-0.423601
0.10422
-0.0256497
-0.0785707
-0.459107
0.303296
0.15581
-0.263702
0.241402
0.0223003
0.219296
-0.347164
0.166407
-0.268471
-0.235096
0.0623436
0.0204598
-0.432281
-0.0497378
0.0812829
0.00890968
0.0953108
-0.468348
0.314873
0.153474
0.453747
-0.124862
-0.307796
-0.173957
-0.523128
0.36848
0.154648
-0.348463
0.251636
0.512534
-0.165827
-0.145037
-0.0875484
0.232585
-0.208229
0.342269
-0.134039
0.0829068
-0.176179
0.093272
-0.377998
0.524208
-0.146209
-0.24526
0.104983
-0.319883
0.124085
-0.10383
0.298742
-0.52452
0.209935
0.314584
-0.213238
-0.116313
0.398831
-0.21955
-0.203479
0.289117
-0.0856387
-0.226417
-0.165144
0.39156
0.00548619
0.179761
-0.0925952
0.339953
0.315456
-0.476093
0.160636
-0.158197
0.458862
-0.212322
0.518079
-0.305757
-0.0479084
0.182225
-0.134316
-0.316314
-0.208206
0.216313
0.337762
-0.170007
0.173709
-0.400126
0.269663
0.0267413
-0.296404
-0.171518
0.308272
-0.136754
0.322845
-0.234321
0.27846
-0.155894
-0.347143
0.0574696
-0.181991
-0.444726
0.0462986
0.145362
-0.174735
-0.0648196
0.0157731
0.26744
-0.283213
-0.331561
0.495198
-0.163637
-0.0840537
0.44751
-0.33577
-0.450357
0.281944
0.168414
0.14771
-0.417373
0.298675
-0.139599
0.242564
-0.152768
0.296858
-0.192616
-0.492443
0.160882
-0.146372
0.232955
-0.165359
-0.0606499
0.145913
0.152761
-0.104706
0.260061
-0.155355
-0.466873
0.52563
-0.392044
-0.133586
0.0264632
0.126392
0.10585
-0.342106
0.236257
-0.449559
0.172056
0.277503
0.166212
0.238
0.499139
-0.230085
-0.269054
0.043846
0.147867
-0.160529
-0.0956858
0.256215
-0.478417
0.0555078
0.382574
-0.241691
-0.130538
-0.308459
0.438997
0.456533
-0.141076
-0.141384
0.131674
0.385233
-0.11566
-0.447063
0.308572
0.338338
-0.10721
-0.0621261
0.0570228
0.00510331
-0.47379
0.115633
0.283657
-0.329525
-0.125755
0.45528
-0.321148
-0.116681
0.437829
0.135439
0.289865
-0.425304
0.304696
0.110746
0.00178536
-0.112531
0.461939
-0.079319
-0.38262
-0.295928
0.448983
0.000547463
-0.449531
0.366231
-0.0723153
-0.293916
-0.488766
-0.271852
0.108087
0.163766
0.384186
0.433074
-0.114973
-0.315041
0.112818
0.340991
0.119424
-0.084523
-0.0916558
-0.30034
0.437884
0.0878292
-0.184516
0.174292
-0.168805
-0.27859
0.294363
-0.169248
-0.108321
-0.460063
-0.131446
0.307439
-0.119962
-0.187477
0.409319
-0.253853
0.0226749
-0.0313284
0.00865352
0.263057
-0.106507
-0.156549
0.100311
0.361628
-0.223731
0.122892
0.286039
0.12193
-0.407969
0.0517308
-0.107536
0.0558056
0.0980429
-0.258572
-0.0382922
-0.0293743
0.0676665
0.443297
-0.28375
-0.159547
0.310132
0.207947
-0.21807
0.113364
-0.216526
0.330247
-0.113721
0.235533
0.115203
-0.224457
0.150278
0.00517685
-0.155455
-0.337625
-0.163614
-0.191046
0.307609
-0.116563
0.306531
0.136766
0.150325
-0.397305
0.24698
-0.0198505
0.29341
-0.27356
-0.457939
-0.142196
0.24961
-0.0540764
0.32374
-0.438687
0.104922
0.333765
-0.177605
0.332896
-0.267153
0.0308437
0.236309
0.042792
0.108444
0.325104
0.19006
-0.312607
0.501737
-0.18913
0.0912301
0.0195158
-0.127465
-0.0960825
0.222805
-0.173602
-0.50215
0.189544
-0.102706
-0.0876938
0.00105924
0.0866345
-0.126418
0.267526
-0.141108
0.284652
0.128041
0.21057
-0.338611
0.12887
0.110984
-0.039139
0.0299767
-0.00730182
0.447464
-0.0812333
-0.210836
0.0884931
0.122343
0.172726
0.307339
0.0509071
0.102439
-0.0768005
0.42989
0.144739
-0.107429
0.148246
-0.0408167
0.0550606
-0.0593964
0.00433579
0.360583
-0.476062
0.115479
0.00847016
0.209415
-0.217885
-0.313731
-0.155916
0.356415
0.1204
-0.476814
-0.418793
0.373045
0.0457476
0.0152989
-0.155367
0.140068
0.0287752
0.392435
-0.42121
-0.167116
-0.144942
0.399107
-0.34038
0.121787
-0.157273
-0.279573
0.436846
-0.386858
0.415633
0.141992
-0.00709236
-0.110922
0.12273
0.0502276
-0.257045
0.206817
-0.138838
0.145826
-0.00698884
0.295804
0.13727
0.352396
-0.113215
-0.142883
-0.0317263
-0.235427
0.187839
-0.118432
0.265316
-0.146884
0.481842
-0.373915
-0.107927
-0.267719
-0.199878
0.467597
-0.423722
-0.0265133
0.450235
-0.135662
0.0963636
-0.21107
0.165941
-0.477347
0.155917
0.32143
-0.311234
-0.0156991
0.326933
0.0384426
0.284402
0.445205
-0.128602
-0.286504
-0.241814
0.346889
-0.105075
-0.0540754
0.44651
-0.362895
-0.100847
0.463742
-0.12334
0.150268
-0.446847
0.296579
-0.0589156
-0.153729
0.524697
-0.258805
-0.265892
-0.209556
0.0537349
-0.295621
-0.456202
-0.140621
-0.131231
0.302633
-0.459905
0.420979
0.210396
-0.280413
0.0700173
0.147015
-0.307594
0.160579
-0.0326066
0.0437487
-0.000689831
-0.179128
0.446967
-0.190976
-0.255991
-0.399335
-0.384946
0.148107
0.236839
0.0448011
0.0661831
-0.460872
0.322552
0.345256
-0.485237
0.139981
0.362251
0.0552552
-0.417506
-0.286039
0.169683
0.116355
-0.326297
0.49166
-0.165363
0.0435322
-0.293757
0.0518194
-0.354072
0.302253
0.0786897
0.22066
-0.21219
-0.11972
0.424688
-0.0901209
-0.523442
0.210148
0.313294
-0.263317
0.243466
0.199301
-0.467021
0.0977344
-0.238145
0.14041
0.046267
-0.469989
-0.260003
0.147447
0.112557
0.194685
0.00630667
-0.057328
0.0693928
-0.0120647
-0.0216348
0.126797
-0.105162
-0.306804
0.446282
-0.139478
0.0793825
-0.282861
0.155335
0.0381668
-0.193502
0.188269
0.150068
-0.486299
0.0913758
0.158813
-0.250189
-0.113032
-0.0978039
-0.249534
-0.0787841
-0.174547
0.336524
0.138401
0.313405
-0.125135
0.170639
0.0357732
-0.206413
-0.239951
-0.124793
-0.143631
-0.293619
-0.220338
0.0183127
-0.266499
-0.500804
0.310886
0.189918
0.05924
-0.0868802
0.0276402
-0.115763
0.292996
-0.234621
0.103514
0.219267
-0.32278
-0.259773
0.100906
-0.049175
0.198467
0.2485
-0.451854
0.320163
0.131691
0.00878266
-0.320016
-0.127927
0.458282
-0.149502
-0.308779
0.229687
0.29501
-0.00165744
-0.271255
-0.130377
-0.155662
-0.274624
-0.212503
0.487127
0.111122
-0.132757
-0.0901865
0.45566
-0.210499
0.260727
-0.347314
0.497472
-0.150159
0.281635
-0.3709
0.225502
-0.326846
0.101344
0.113201
0.127679
-0.24088
0.15538
-0.0851581
0.0235595
-0.155388
0.131829
-0.331123
0.0168985
0.442645
-0.430258
0.170717
0.259541
-0.169075
0.0733585
0.095716
-0.126108
-0.122564
-0.405953
0.162213
-0.0467955
-0.0874162
-0.116237
-0.251254
0.336823
-0.497167
0.160343
-0.467882
0.146734
0.163381
-0.289799
0.33806
-0.0871162
-0.296689
0.180207
0.116481
-0.415622
0.292345
-0.0924021
0.317904
-0.33342
0.0248158
0.308604
0.0970336
0.0583465
0.509935
-0.173111
0.164756
-0.454392
0.289636
0.438216
-0.27176
-0.166456
0.26751
0.170706
0.100544
0.176561
0.123106
-0.432512
-0.488329
0.163165
0.325164
-0.479816
-0.0136866
0.493503
0.287377
-0.487255
0.422458
-0.136419
-0.255338
0.400625
0.0496815
-0.208616
0.158935
0.125101
0.297588
0.12136
-0.152211
0.0308513
0.0488766
-0.0147512
0.229771
-0.401696
-0.304898
-0.0285224
0.0695804
-0.0381252
-0.0314553
0.108521
0.039725
0.103844
-0.292169
-0.230329
-0.292144
0.22227
0.0698738
0.408919
-0.179148
0.443313
-0.0444822
0.250383
-0.107989
-0.142394
0.0297236
0.269715
-0.160504
-0.298603
-0.14279
0.158089
-0.135028
0.462937
-0.298181
0.28719
-0.179405
-0.107785
-0.135673
-0.274664
0.410337
0.457747
-0.131296
-0.154163
-0.462568
0.164426
0.298143
-0.290521
-0.164873
-0.297695
0.281215
-0.475325
0.19411
0.489263
-0.208048
-0.131808
-0.322156
0.208396
0.353936
0.148136
0.136737
0.316466
0.0614272
0.307528
-0.368955
0.314627
0.123599
-0.438226
-0.422036
0.163209
-0.506553
0.200345
0.306208
0.437369
-0.139319
-0.298049
-0.0534855
-0.115589
0.305568
-0.275844
0.108377
-0.481107
-0.103815
0.0253458
0.0784687
-0.566378
0.221915
0.344463
-0.226547
-0.102174
0.328721
-0.0626879
0.0725144
-0.00982643
-0.0135284
0.456766
0.388711
0.0602726
-0.346301
0.49816
-0.151859
-0.233565
0.0801267
0.153438
0.16135
0.192211
-0.353562
-0.166771
-0.165443
0.21214
0.0652416
-0.146266
-0.189306
-0.297487
0.444279
-0.340367
-0.103912
-0.344376
-0.266674
0.126053
0.204444
0.319805
-0.229081
-0.146732
0.375813
-0.21075
-0.16521
-0.0478662
-0.370101
0.417967
-0.268136
0.100802
0.167333
-0.0715432
-0.0322714
0.0550078
0.0609693
-0.115977
-0.055996
0.226635
0.193854
0.0933355
0.155195
0.0425856
-0.50395
0.202631
0.301319
-0.204855
-0.0228405
0.227695
0.315932
-0.432614
0.306418
-0.486815
0.180397
-0.182875
-0.261386
0.444261
-0.473982
0.315065
0.158917
-0.320165
0.11531
-0.3061
-0.108329
0.414429
0.120084
-0.398399
0.262726
0.115098
0.237298
0.237765
0.296159
0.233762
0.250114
-0.169671
-0.0804428
-0.306809
0.106198
0.184702
-0.2909
-0.116709
0.0517639
0.188997
0.0214186
0.027458
0.134207
0.305474
-0.439681
-0.280209
0.154356
0.125854
0.25691
-0.178641
-0.0782687
0.300711
-0.385524
-0.305605
0.449951
-0.144346
0.335841
0.108438
-0.106092
0.450821
-0.151437
0.0717341
0.0797024
0.246124
-0.423729
0.177605
0.0703804
-0.0618182
0.0330459
0.174782
-0.00769493
-0.3552
0.275672
0.116937
-0.392608
-0.132879
-0.0548428
0.187722
0.459296
-0.309027
0.126767
-0.434563
-0.559328
0.217381
0.341947
-0.510484
0.16317
0.248266
-0.209824
0.0978559
-0.241869
0.144013
-0.332551
-0.147265
0.148587
0.281132
0.0786668
0.163898
-0.0264428
0.135264
-0.108821
-0.0276075
0.175567
-0.358999
0.41143
0.120872
0.201754
-0.322626
0.263333
-0.390793
0.268729
-0.121714
0.119629
0.241788
-0.361417
-0.237582
0.385689
-0.0525286
-0.275157
0.38546
-0.135366
-0.374417
0.214251
0.160166
0.286767
-0.0219524
0.318367
-0.192834
0.445595
-0.317407
-0.128188
-0.131971
-0.267597
0.399568
-0.224901
-0.10639
0.331291
-0.321563
0.118305
-0.144748
0.400429
-0.154305
0.280557
0.141902
0.239745
-0.421006
0.18126
-0.135211
-0.0255618
0.160773
-0.186975
-0.301354
-0.502324
0.352849
0.149475
0.434809
-0.195063
-0.191927
0.305274
-0.0656217
-0.00644812
0.215692
0.088406
-0.361795
0.132714
0.299355
-0.195841
-0.473153
0.190644
0.282509
0.282519
0.164586
-0.447105
-0.27622
-0.0176618
0.293882
-0.142857
-0.0885028
0.23136
-0.0924886
0.36816
0.149073
-0.254857
0.105784
0.507486
-0.32489
-0.182596
-0.0269849
0.0540598
0.194664
-0.217505
-0.312301
-0.13155
0.44385
-0.340703
0.169613
0.0505029
0.211784
-0.262287
-0.136404
-0.232856
0.36926
0.381446
0.0618674
0.0630903
0.414448
0.178653
0.330304
0.223079
0.0168673
-0.431884
0.123425
-0.11707
0.402138
0.0638267
-0.147013
0.429532
0.155314
-0.0765388
-0.0787752
-0.235783
0.189262
0.0465205
0.0779287
-0.216385
0.138457
-0.418555
0.35609
0.0624651
-0.078131
0.365508
0.448986
-0.319215
-0.12977
0.448222
-0.133595
0.320226
-0.513068
0.212658
0.300409
0.0696575
-0.0299774
-0.0396801
0.306528
0.142458
0.280045
-0.46292
0.0410974
0.16508
-0.206178
-0.0448822
0.0107444
0.0341378
-0.0710032
-0.0804333
0.113524
-0.225044
0.144412
-0.317303
0.259935
-0.407652
0.470298
-0.163771
-0.217587
-0.0254696
0.175597
0.0745165
0.186024
-0.283272
0.0972476
-0.00998693
0.120781
-0.110795
0.406793
0.00848022
-0.415274
-0.339703
-0.139585
0.479288
-0.47832
0.162009
0.31631
0.461855
-0.158558
0.164968
0.316643
-0.334415
0.501778
-0.238445
0.170678
0.119523
-0.290201
0.305822
0.132712
-0.438534
-0.510778
-0.143586
-0.12455
0.287735
0.214043
-0.142372
-0.00901686
0.151389
0.143181
-0.404342
0.261161
-0.0117076
-0.0531452
-0.186514
0.366124
-0.432733
0.284123
0.14861
0.0259407
0.209592
-0.451068
0.124771
-0.373986
0.115879
-0.00594418
-0.109935
0.132625
-0.455725
-0.142021
0.154759
0.299936
-0.454696
-0.238192
-0.213573
0.264076
-0.276699
-0.118458
0.395157
0.127133
0.380353
0.259144
-0.391115
0.325207
-0.00352988
-0.329294
0.0485751
0.214005
-0.26258
0.135921
0.219453
-0.327048
-0.283314
0.0864118
0.196902
0.0806166
0.147734
-0.228351
0.173153
0.328584
0.194403
-0.322392
0.127989
0.413181
-0.118079
-0.295101
0.0206422
0.114621
-0.546496
0.24388
0.302616
-0.313014
0.423808
-0.143251
0.11681
-0.301261
-0.177059
0.218453
0.306804
-0.475082
0.323211
0.151871
0.273835
-0.108782
-0.165052
0.337972
0.0752087
-0.311285
-0.23521
-0.502594
0.190165
0.312429
-0.230222
0.0562471
0.173975
-0.328724
-0.173426
-0.435995
0.148141
-0.266573
0.126301
0.218429
-0.34473
-0.263835
0.438295
-0.307204
0.133334
0.17387
-0.208712
0.336753
0.183237
0.225682
-0.170113
0.198806
-0.0286932
-0.434232
-0.0721427
-0.19156
0.16262
0.00287216
-0.165492
0.110211
-0.322498
-0.256672
-0.329441
0.289778
0.510934
-0.229299
0.0942004
0.266757
0.133672
0.311416
0.0870571
-0.266255
0.179198
0.038471
-0.334625
0.485344
-0.150719
0.142545
-0.311367
-0.208837
-0.292872
0.242673
0.288479
-0.102455
0.244884
0.13769
-0.507544
0.21524
0.292304
-0.44949
-0.179611
-0.555779
0.22298
0.332798
-0.48521
0.295825
0.189385
-0.112327
-0.313964
0.140543
0.308507
-0.44905
-0.0711642
-0.317379
-0.337325
-0.209405
0.399878
-0.13312
0.210136
-0.132208
0.344817
0.0565263
-0.132525
0.0759991
-0.492906
0.186134
0.306771
0.175315
0.0815949
0.332338
-0.215432
-0.116906
-0.17101
0.481636
-0.0100171
0.398475
-0.174838
-0.223638
-0.508006
0.210812
0.297193
-0.176224
0.263281
-0.114893
-0.181796
0.284453
0.176858
-0.46131
0.0991585
-0.241127
0.141968
0.226646
-0.373377
0.221332
0.13671
-0.358042
0.229545
-0.363204
0.151418
0.247548
-0.145072
-0.42942
0.181214
0.248207
-0.437678
0.169027
-0.190575
0.30571
-0.115136
-0.306895
0.440804
-0.133909
0.0530745
0.346486
-0.231388
0.23791
0.364619
-0.135074
-0.118615
-0.234994
0.316637
0.145217
-0.0657905
-0.0952062
0.160997
0.0883146
-0.394415
0.24349
0.154986
0.482708
-0.16607
0.185126
0.297921
-0.116317
-0.484339
0.24561
-0.531148
0.183372
0.347776
0.166179
-0.460753
0.294574
-0.471063
0.224835
-0.138487
-0.123691
0.303898
-0.00534682
-0.390444
0.395791
0.196432
0.427142
0.0381085
-0.46525
-0.069252
0.0532441
0.0160079
0.533552
-0.285023
-0.248529
0.127838
0.218178
-0.410307
0.192129
0.448837
-0.29677
-0.152067
-0.140289
-0.320357
0.465154
-0.180701
-0.172989
-0.256431
-0.15122
-0.279038
-0.11254
-0.251171
0.141913
0.109258
-0.150095
-0.212084
-0.108081
0.212839
0.276424
-0.49835
0.309507
0.188843
-0.358466
-0.0792118
-0.301213
-0.276469
-0.26223
-0.0494063
-0.00792174
0.351749
-0.481285
0.129535
-0.231
0.279576
0.192716
0.112537
-0.28073
-0.194594
0.160435
-0.270059
0.109624
0.132871
0.0246645
-0.157536
-0.300403
-0.129206
0.429608
-0.43584
0.135437
-0.420049
-0.0069902
0.427039
-0.205275
0.332687
-0.127412
-0.0349587
0.395542
-0.146103
0.372749
-0.208128
-0.299878
0.00295926
-0.396807
0.393848
0.0470064
-0.148443
0.101437
-0.22142
0.0785635
0.476857
0.0819598
-0.336946
0.254986
-0.194073
0.280485
0.0593746
-0.0617538
0.0386655
0.0230883
0.191169
0.0826654
0.286059
-0.11538
-0.122648
0.0566323
0.0660158
0.270771
-0.159637
-0.111134
0.0712308
0.217887
0.183642
-0.307538
0.123896
0.183008
-0.286278
0.10327
-0.0546279
0.00974564
0.157452
-0.437026
-0.219059
-0.291167
0.236585
-0.493441
0.256857
0.329105
0.153602
-0.178238
0.13033
0.205462
0.139095
-0.344557
-0.257519
-0.339871
-0.137476
-0.28338
0.0444335
0.025224
0.34569
-0.140228
0.305759
-0.222213
-0.0835457
0.0409285
-0.173808
0.0456913
-0.0741482
-0.0153613
0.0895096
0.384249
-0.147665
0.429059
-0.429059
-0.26072
0.141036
-0.481533
0.0993296
0.146737
0.302099
-0.184234
0.115745
0.494128
-0.176787
-0.317341
-0.116147
0.276582
0.185222
0.338986
-0.227957
0.139462
0.0884959
0.208016
0.317614
0.319455
0.0287689
-0.348224
-0.405041
0.399694
-0.147175
-0.112829
-0.00141906
-0.428394
0.462451
-0.182209
-0.280242
-0.316028
-0.336444
0.490853
-0.154408
-0.504077
0.169451
-0.109685
0.425617
-0.350378
0.245648