/*--------------------------------*- C++ -*----------------------------------*\
| =========                 |                                                 |
| \\      /  F ield         | OpenFOAM: The Open Source CFD Toolbox           |
|  \\    /   O peration     | Version:  v2012                                 |
|   \\  /    A nd           | Website:  www.openfoam.com                      |
|    \\/     M anipulation  |                                                 |
\*---------------------------------------------------------------------------*/
FoamFile
{
    version     2.0;
    format      ascii;
    class       volScalarField;
    location    "100";
    object      nut;
}
// * * * * * * * * * * * * * * * * * * * * * * * * * * * * * * * * * * * * * //

dimensions      [0 2 -1 0 0 0 0];


internalField   nonuniform List<scalar> 
18166
(
0.000211119
0.00671878
0.00672596
0.000343025
4.72991e-05
0.000201163
0.00672693
0.000112593
0.0126593
5.69703e-05
0.00672253
0.00618988
0.00355159
0.000472826
0.0112058
0.00070252
0.00672303
1.66013e-05
0.00456797
0.00281034
0.000233235
0.00672293
0.000295003
0.00672244
0.00672392
0.00672632
0.000225019
0.000878842
0.00300116
0.000415428
0.000562301
0.0067244
0.00373742
0.00673615
0.00672141
0.00672191
0.0133134
0.00672193
0.0067598
3.83005e-05
0.0067255
0.00128102
0.00394237
0.00342435
0.00019545
0.00672279
0.000379418
0.000182537
0.000355171
0.00021227
0.000543233
0.000602342
0.000436728
0.00672483
0.00672254
0.00428149
0.00145426
0.00023675
0.00119919
0.000929935
0.000358451
0.00100852
0.00456178
0.000763332
0.000680014
0.00672234
0.00961159
0.0134651
0.00332622
0.000935879
0.00672108
0.00234172
0.000182253
0.000843097
9.93891e-06
3.66754e-05
0.000341749
0.00333547
0.000986183
0.00672198
0.00672577
0.0151261
0.00672239
0.00672297
0.00671945
0.00257005
0.00174464
0.00672053
0.00069722
0.00675694
0.00202561
0.000200843
0.00150985
0.00672602
0.00672533
0.00255071
0.00671894
0.000108158
0.000724843
0.000631163
0.0067298
0.00672302
0.0121759
0.000571152
0.000980823
0.00672323
1.38579e-05
6.54102e-05
0.000884583
0.00672213
0.000896143
0.0140163
0.0141787
0.011269
0.00672349
0.00678731
0.000100586
0.000987697
0.00182985
0.010643
4.12654e-05
0.00259782
0.000321095
0.00938583
0.000402161
0.00673221
0.00672312
0.0033114
0.000498322
0.000198209
0.000503729
0.000860095
0.0012643
0.0135734
0.000377323
0.000395713
0.00672204
0.00672251
0.0017638
0.00519125
0.0114218
0.00062014
0.00104487
0.0138983
0.00077533
0.00491906
0.000244107
0.0118991
0.00430435
0.00136473
0.00671894
0.00946529
5.00334e-06
0.000670643
0.00672549
0.00672226
0.00157719
0.002265
0.00672198
0.00321547
0.00671833
0.0137078
0.000843092
0.00672196
0.000606529
3.85097e-05
0.00672308
0.0139897
0.0164821
0.00048566
0.00055966
0.0119715
0.000289218
0.0113155
0.000485217
0.00385537
2.35402e-05
0.0111971
0.00671863
0.00672031
0.00672356
0.00024492
4.54761e-05
3.3643e-05
0.00466556
0.00672009
0.00019615
0.000439092
0.00672122
0.00678322
0.000288238
0.00570554
0.000482474
0.00672274
0.000281143
0.00185923
0.000146658
0.00026165
0.00116736
5.12047e-05
0.000451106
0.0122449
0.00578683
0.0118318
0.00257248
0.00056132
0.0160687
0.00242072
4.99259e-05
0.000121266
4.30233e-05
0.0119746
0.00671867
0.00672235
0.000677101
0.000166802
0.00064157
0.000172161
0.0168917
0.0154407
0.000845113
0.00672898
0.0067199
0.000164922
0.00154698
0.00673309
0.000174717
0.00671941
0.000934863
0.00583978
0.00210944
0.0143428
0.00183076
0.013083
0.0067215
0.00253997
0.000591554
0.000287518
0.0116262
0.00333312
0.00073638
0.0150629
0.00302225
0.0011497
0.0126416
0.00312925
0.000454904
0.0147043
0.0134407
0.00112236
0.000201372
0.00672306
0.00217582
0.000371756
0.00744806
0.000651126
0.00672259
0.0159094
0.000708442
0.00671905
0.00672227
0.0123449
0.000229992
0.000236563
0.000162163
0.015892
0.0104356
0.00103862
0.00672588
0.000682374
0.00037285
0.00672239
0.00672108
0.0151705
0.000593807
0.00444064
0.011388
0.00671873
2.39868e-05
0.00671966
0.000415438
0.0108008
0.00105908
0.00365072
0.00146013
0.000201303
0.00203249
0.00201249
0.0138734
0.00672383
0.000862523
0.000428023
0.000761919
0.00672257
0.000750248
0.00282578
0.0067279
0.00672249
0.00673134
0.0113729
0.011324
0.00672209
0.00239365
0.00672126
0.00681916
0.00288991
0.00386664
0.000441177
0.00277843
0.00678752
0.00141268
3.75914e-05
0.004302
0.000381551
0.00672386
3.81066e-05
4.07547e-05
0.000641229
0.00672235
0.000667859
0.00672951
0.000531343
0.0134269
0.000254502
0.000189358
0.000864142
0.00273995
0.00397351
0.00674491
0.0129864
0.0067226
0.0136056
0.00423864
0.00679702
3.39313e-05
0.0123773
0.000511235
0.0163222
0.00318961
0.0122265
0.00437241
0.00995312
0.000643435
0.0110161
0.00257386
0.00672213
0.0067285
0.00037255
0.00213534
0.000298139
0.000919553
0.000439831
0.00672263
0.00671982
6.95343e-05
0.000889652
8.07524e-05
0.000709807
0.00672215
0.00674312
0.00672034
0.0155222
0.00312697
0.00672257
0.00672497
0.00672549
0.00672577
0.000139172
0.00672583
0.00515675
1.35567e-05
0.0067204
0.00672883
0.000225975
0.0142506
4.28087e-05
0.0103714
0.00672559
0.000929646
0.000659802
0.00541188
0.0066312
0.00142745
0.00173928
0.00117825
0.00392624
0.00672229
0.00672582
0.0122438
0.00434997
0.00672088
0.00121735
0.00674423
0.0119127
0.000284364
0.00672546
0.00672275
0.000932963
0.0067252
0.00672446
0.00171121
0.000638127
0.0123477
0.0067259
0.00644791
0.00292739
0.00595068
0.00394784
0.00613364
0.00158843
0.00515224
0.000793065
0.000280721
0.00775288
0.00142277
0.000842058
0.000189453
6.04207e-05
0.00672603
0.00672229
0.00229838
0.00673115
3.26707e-05
0.000915474
3.11062e-05
0.0067259
0.000233296
0.00673659
0.00347911
0.000144699
0.000513593
3.23423e-05
0.000202971
0.00218047
0.000690912
0.0112428
0.0116038
0.00672396
0.00565361
0.000782
0.00673908
0.00835428
0.0123107
0.0067288
0.0136431
0.00992159
0.00672239
0.000178216
7.77714e-05
0.00555272
0.000102163
0.0146336
0.000555308
0.000639672
0.0133808
5.71517e-05
0.000435775
0.000352284
0.0067417
0.00270972
0.00438087
0.0036301
3.92015e-05
0.00696061
0.00121173
0.00165219
0.000787987
0.00142301
0.00235594
0.00672949
0.00671899
0.000100024
0.00984639
0.00672022
0.000403942
0.00672598
0.00622493
0.00672247
0.0067194
0.000580402
0.00961159
0.000181851
0.0145534
0.00672246
0.00672227
0.0153451
0.00293623
0.000351655
0.00320753
3.47125e-05
3.72769e-05
0.00672445
0.00672321
0.00672535
0.00157857
0.0116602
0.0152887
0.00340551
0.00137758
7.23657e-05
0.00402387
0.000476886
0.00672132
0.00103048
3.02837e-05
0.00275511
0.00672298
0.00672228
0.00672862
0.000447811
4.10296e-05
3.56477e-05
4.05979e-05
0.00672192
0.000431518
0.0067244
0.00672588
0.00808567
3.34285e-05
0.000136051
0.0158873
0.014622
0.0105717
0.0150443
0.000224601
0.0143068
0.00282664
0.000352366
0.00323372
0.00673459
7.07021e-05
0.00155446
0.00254478
5.24077e-05
0.00139546
0.00099181
0.000458411
0.0095649
0.000744062
0.00672547
0.00487645
3.54966e-05
0.0126714
0.0166044
0.00672735
0.000413891
0.00301528
0.00118322
0.00274939
0.00672583
0.000671653
0.00111096
0.00130695
0.00672478
0.0161927
0.00672263
0.0133408
0.0008379
0.00244044
0.000844094
0.00309453
0.00679169
0.00672106
0.0103792
0.0155803
0.00018592
0.0114616
0.00317713
0.00672222
0.00672376
0.0127053
5.99059e-05
0.00372412
0.000671831
2.4651e-05
0.0169692
0.00049081
7.01739e-05
0.00122762
0.00250483
0.00672701
4.23884e-05
0.0125114
5.46511e-05
0.00134067
0.0148484
0.00199901
0.00672129
0.00264942
0.00515945
0.00672508
0.000115401
0.0145426
0.0067254
0.00672257
0.00671892
4.41672e-05
0.0117875
0.00672098
0.000477914
0.00108306
0.00414217
0.00672183
0.000233301
0.000634295
0.000769995
0.00343739
0.00672252
0.00672005
0.0114631
0.000455643
0.000675554
0.00184457
5.38292e-05
0.00178634
0.00344365
0.00371236
0.000740004
1.39839e-05
0.000138804
0.000846547
0.000285217
0.0100558
0.000450299
0.000381498
0.00150155
0.00047021
0.00309124
0.00672136
0.0135018
0.000356462
9.84503e-05
0.000185789
0.00674118
0.00284322
0.00448606
0.00672123
0.00672277
0.000387774
0.00673508
0.000401618
0.00416272
0.000354558
0.00186714
0.000655215
0.00674272
0.000129859
0.00190262
2.9081e-05
0.00153214
0.00202399
0.0151434
5.00308e-05
0.00504358
0.0125361
0.00257355
0.000219104
0.00672268
6.2309e-05
0.00237363
0.00336438
0.000471415
0.000264734
0.0136248
0.0067212
0.0015881
0.00672041
0.000454507
0.000683272
0.00608479
0.00672081
0.00719859
0.000425672
0.00192332
0.0160415
0.00256141
0.00010499
0.00672159
0.000574976
0.00672579
0.00672479
0.00672765
0.00418762
2.74033e-05
0.000650857
0.00838218
0.00673516
0.00370185
0.00491262
3.41974e-05
0.00025819
0.0067233
0.00413506
0.00672286
0.00694646
0.00982816
0.00673696
0.000479787
0.0114371
0.0166548
0.0128879
0.000552205
0.000363431
0.00674653
0.0100579
0.00273299
0.00903462
0.000175599
0.000548108
0.000490999
0.000169931
0.00760133
0.00135508
3.09267e-05
0.00672274
0.00288589
0.000465673
0.000496667
0.0141545
0.00673442
0.000472807
6.8478e-05
0.00673524
0.000321576
0.012238
0.00794158
0.00995946
0.000307996
0.000788302
0.00672096
4.82481e-05
0.00010291
0.000537283
0.0102307
0.00615489
0.017422
0.0143513
0.00106068
0.000864382
0.00672597
0.000346896
0.0067257
0.00290789
0.000297532
6.38045e-05
0.00672713
0.0067345
0.00674519
0.00210026
5.88229e-05
0.000174396
0.00263489
0.000454156
0.00171974
0.00672256
0.00672261
0.000179663
0.00138035
0.00059983
5.70996e-05
7.55372e-05
0.000583343
0.00292308
0.00715386
0.0148986
3.66286e-05
0.00241986
0.00672092
0.0015997
0.00672347
0.000597616
0.00126779
0.0067447
0.000671394
0.0011869
0.0121527
7.21399e-05
0.000208792
0.00672047
0.0102178
0.00679117
0.00135123
0.0044033
6.48776e-05
0.00672237
3.8541e-05
0.0168806
0.00569086
0.00672247
0.00590928
7.9417e-05
0.00295929
0.00672112
0.00282431
0.00672562
0.00248753
0.00418487
0.00343632
0.00188765
0.00010727
0.000760501
3.51529e-05
0.00671915
0.0104518
0.00607502
0.00672017
0.00673002
0.00289249
0.0129079
0.0049867
0.00672131
0.0017661
0.00674509
3.01807e-05
0.00133938
0.00251694
0.00672177
0.00672369
0.0067213
0.0147686
0.000702102
0.000220053
2.36834e-05
0.00672013
0.0139648
0.0141993
0.00125634
0.00672578
0.00432122
0.00820732
0.000926449
0.000357417
0.0149395
0.000177001
0.00582247
0.000598055
0.000773593
0.000474851
0.0170037
0.00359077
0.00674438
0.00377282
0.0067353
0.000366168
0.000512653
0.00040828
0.00526695
0.00155483
0.00436057
0.00910871
0.00672362
0.000424558
0.00674131
0.00241071
0.00672143
0.000718092
0.00202153
0.00672386
7.76732e-05
0.000978679
0.00672234
3.04204e-05
0.00672227
0.0132581
0.000771428
0.000108539
0.00427775
0.000380733
8.50979e-05
0.00298466
0.00230686
0.000480005
0.0148591
0.00672343
0.000699309
0.000321759
0.0136634
0.0067264
0.00132974
0.00156036
0.0130147
0.00672574
0.000385217
0.000591121
0.00112127
0.0067226
0.00672285
0.00672079
0.000606337
0.00673673
2.51727e-05
0.000564992
0.00674222
0.00153264
0.0031221
0.00672976
0.000885166
0.00672483
0.00672154
0.000458917
0.000364307
5.33387e-05
0.000116588
0.0020989
0.00225403
0.00264437
4.71289e-05
0.0094462
0.00138956
6.3492e-05
0.00061689
0.00672148
0.000402021
0.00158834
0.00259365
0.0130884
0.00672255
0.000122119
0.000260713
0.00132613
0.00694811
0.00672345
4.36104e-05
0.000694577
3.0042e-05
0.00458074
2.09362e-05
0.00672584
0.000613445
0.0067257
0.0058216
0.0101598
0.00672629
0.00278606
0.00011366
0.00784459
0.0067213
0.00495107
5.49303e-05
0.006779
2.96379e-05
0.00672209
5.9567e-05
0.00800192
0.000474512
0.00503961
0.00037426
4.85132e-05
0.00672859
0.00260962
0.0058914
0.00672642
0.00672773
0.00142386
0.014267
0.0159235
0.00571551
0.00161612
0.000516618
0.000197673
0.00672485
0.00252797
0.00823758
0.00380623
0.00540358
0.0123104
0.00672238
0.000568596
0.00391694
0.00147887
0.000526454
0.000176567
0.005574
0.0135272
0.00434642
0.00672851
0.00158679
0.0067213
0.000171517
4.4777e-05
0.00295301
0.000626605
0.00672261
0.00672614
0.00673453
0.00102059
0.000561418
0.00672147
0.0026698
0.00154971
0.00510904
0.00279224
4.2687e-05
0.00425298
0.000173259
0.00345717
0.00419307
4.01072e-05
0.0135509
0.00015607
0.00672257
0.000410754
2.83737e-05
0.0010308
0.000464213
0.00560138
0.01306
0.00163232
0.000573078
0.00144531
0.00137084
0.0122072
6.47169e-05
5.54119e-05
0.000437717
0.00672688
0.000487477
0.000509589
0.00288253
7.95414e-05
0.00298626
0.00390638
5.94119e-05
0.000235905
3.32788e-05
0.00249305
0.00672671
0.00205227
0.00672585
5.65478e-05
0.00063368
0.00093958
0.000515941
0.000101181
0.00114762
0.000328108
0.00672123
7.34665e-05
0.0143369
0.0138848
0.0132418
0.000375125
0.0067249
0.00216966
0.00315164
9.41176e-05
0.00672835
0.00483119
0.00328813
0.000266235
0.00033537
0.00672286
0.00255284
0.00280579
0.00334659
8.78869e-05
0.00672361
0.0167213
0.000925703
0.000426942
0.0167583
0.00226627
0.000419783
0.000304877
0.00909619
0.00445822
0.00148595
0.000115749
0.0130457
0.000268182
0.000650115
0.0142876
0.000231402
7.21174e-05
0.00672588
0.00672562
0.00672225
0.00672478
0.00173581
0.00108284
0.00672024
0.000828373
0.00672054
0.00173488
0.00668936
0.00672271
0.000436871
0.00234194
0.00216791
0.000391368
0.0030013
0.00336916
0.0067242
0.00672602
0.012162
0.000520281
0.000494571
0.00256679
0.00736989
0.00209411
0.000259699
0.00142248
0.00672573
0.00059606
0.00353317
0.000336287
0.00672575
0.00672252
0.00130534
0.00672261
0.000346562
0.000274243
0.000957852
3.96105e-05
0.00672422
0.00308307
0.00998394
0.00041839
0.00908216
0.000166434
0.000352594
0.0006869
0.000460583
0.00677616
0.00335144
0.00809221
0.00067922
6.08034e-05
0.000723747
0.0169424
0.00990538
0.0156714
0.000227432
0.0111044
0.00343103
0.00672476
0.00674035
0.00896514
0.000862097
0.0142925
0.0151317
0.0107551
0.00673249
6.71447e-05
0.0079547
0.00672369
0.00269533
0.000354627
0.00125345
0.0138492
0.000662852
0.00104078
5.03433e-05
0.0067221
0.0020989
0.00101247
0.00211108
0.000230135
0.00109513
0.00489839
0.00201797
0.0175475
0.00672146
0.00885175
0.00672577
0.0041264
4.63655e-05
0.000340639
0.00672762
0.00673885
2.23043e-05
0.00672694
0.00672283
0.00535987
0.00122505
0.00727393
0.000356847
0.00672495
0.00296115
0.0168316
0.000261718
0.000391422
0.00231087
0.0034874
0.00261265
0.000335771
0.00671866
0.00013626
0.00122695
0.00371332
0.00032159
0.00672282
0.00473676
0.0106963
0.0120382
0.00134563
0.00572828
0.00672509
0.00672496
0.000225173
0.00579262
0.00020649
0.000128337
0.00980608
0.0165719
0.000482705
0.0105343
0.000695996
0.00673594
0.000191726
0.00120906
0.000481491
0.000102794
0.00272485
0.0132444
0.00672228
0.00065857
0.000445822
0.000579854
0.0114939
0.00671933
0.0113809
0.00500863
0.000577392
0.000662064
0.000359068
0.00177778
0.000425186
0.00282875
0.00672281
0.00800414
7.56551e-05
0.0100631
0.0016219
8.82774e-05
0.000340067
0.000133087
0.000368526
0.00255369
0.00673793
0.0136691
0.00672563
0.00294895
0.00304834
0.00672275
0.00673149
0.00673103
0.00671962
0.00672276
0.005151
0.0140816
0.000270437
0.000417059
0.00673461
0.00196764
0.00112682
0.00174643
0.000412673
0.00672392
4.30725e-05
0.00672033
0.00672262
0.00048701
0.00844718
0.000461746
0.0124784
0.00112441
0.00305187
0.00669732
9.12593e-05
0.00061471
0.000356976
0.00672285
0.00672277
0.000102644
0.000172386
0.00672163
0.00672723
0.00112832
0.0105569
0.000618046
0.00161197
0.000350627
0.0066091
0.000195769
0.000301281
0.000431365
0.000223025
0.00743934
0.00672113
0.00115183
0.00580825
0.00271905
0.00333116
0.000431212
0.00272683
2.43791e-05
0.00672181
0.00672047
0.000438828
0.00672291
0.000321775
0.00672071
0.00672606
2.80767e-05
0.00672809
0.00672367
0.00794638
0.00083132
0.000893241
0.00032472
0.0145016
0.000596652
0.0160526
0.00585051
0.000384949
0.000308037
0.00672122
0.00379492
0.000783069
0.00398912
0.000339874
0.00673894
0.00246302
0.0067245
0.000347554
0.0106721
0.000796884
0.0020676
0.0148438
0.00425098
0.0005586
0.000270793
0.0067241
0.00244283
0.00412148
2.87272e-05
0.00832912
0.00843286
0.000595154
0.000263043
0.000105239
3.39124e-05
0.00672425
0.00273832
0.000422491
0.00912773
0.00273357
0.00034398
7.94361e-05
0.000204066
0.00674138
0.0139032
0.00673463
8.41341e-05
0.00309707
0.00795996
0.00672023
0.00078965
0.00771304
0.00672285
0.000495958
0.00354765
0.00220116
0.0110942
0.0067228
0.000453076
0.00272848
0.00106248
2.56595e-05
0.01059
0.0171377
0.00021173
0.00572062
2.94489e-05
0.00449179
0.00356355
2.94998e-05
0.00283675
0.00139248
0.00674109
4.61192e-05
0.00266576
0.0134286
0.000320903
0.000388863
0.000812457
0.00251614
0.000507504
0.0007095
0.0017604
0.000458797
0.0155385
2.32634e-05
0.000690167
0.00138482
0.0115496
0.00645819
0.00110521
0.00273239
0.00982644
0.00307225
0.00672253
0.0153284
0.00514963
0.00426485
0.00142366
0.0113009
0.0067262
0.00672523
0.0122351
0.000277556
0.00298992
0.00243475
0.0019813
0.000434438
0.00602028
0.0124963
0.00672614
0.00599729
0.000635159
0.0101601
0.0139271
0.000309539
0.0139997
0.0129363
0.00129184
0.00290475
0.000807001
0.00724127
0.00677522
0.011099
0.00774312
0.0010025
0.000277667
0.0019192
2.22829e-05
0.0113995
0.00071352
0.00672579
0.000194519
0.00160055
0.000442201
0.000882368
0.00039347
0.00672442
0.00293357
0.0067286
0.000645742
0.0105727
7.05557e-05
0.00672379
0.0107817
0.00269323
0.00148349
0.00290154
0.0067262
7.52463e-05
0.000520488
0.00673138
0.00993269
4.22811e-05
0.00676043
0.0171585
0.00674384
4.65082e-05
0.0104344
0.00672226
0.00662933
0.00186652
0.00477166
0.00914732
0.000359897
0.00621736
0.00372671
0.0017816
0.00361286
0.00323081
0.0067459
7.2508e-05
0.000491505
8.38122e-05
0.00672192
0.00213708
0.000774595
0.00055072
0.00857019
0.00674763
0.00672248
0.00059218
0.0067223
0.00672246
0.00170896
0.00980565
0.000515193
0.00453135
0.00258609
0.0164554
0.0046022
0.0126171
0.000104286
0.00896556
0.00293039
0.00486653
0.0124373
0.00502584
0.000101096
0.00533156
0.000633416
0.00527338
0.0156295
0.0170489
0.00236486
0.000349951
0.000326326
0.00672526
0.00495078
0.00851224
0.000773296
0.000407402
0.00671943
0.00672559
0.0129749
0.00671937
0.00143332
0.00114512
0.0067203
0.00674546
0.00672528
0.000649483
0.0146232
0.000194582
0.00528476
0.00672243
0.00672288
0.00672701
0.00926432
0.00672251
0.00612706
0.00535114
0.000393576
0.00560374
0.00235888
0.00672588
0.00672158
0.00673183
0.00309227
9.98316e-05
0.000136792
0.000162151
0.00310338
0.000437826
0.000451567
0.00672874
0.00128844
0.00142975
0.0011289
0.0011817
0.0165691
0.000264724
0.0101551
0.000423239
0.000687734
0.00797059
0.0083818
0.00153475
0.000403032
6.08981e-05
0.0067412
0.00672853
0.00193785
0.00483767
0.00564424
0.00673539
0.00915116
0.00577522
0.0176505
0.00044183
0.00672311
3.29761e-05
0.00018562
0.000547999
0.00677915
0.0150577
0.000514964
0.00672229
0.00672238
3.73943e-05
0.00228459
0.00672213
0.00677065
0.0067279
9.99694e-05
0.000229367
0.0110008
0.00673051
0.000351632
0.00508779
0.000176665
0.00980376
0.000324724
3.48914e-05
0.000270189
0.00288429
0.000799597
0.000314042
0.00672249
0.00386524
0.00235402
0.00082135
0.00675915
3.92235e-05
0.00928259
0.0067192
0.00163946
0.00452234
0.0063646
0.000419021
0.00118939
4.82689e-05
8.54998e-05
0.000324928
0.000364102
0.0165691
0.00148965
0.00416301
0.00267288
9.00026e-05
0.00672222
4.40317e-05
0.00165706
0.00017193
0.00672263
0.00671916
0.00672031
0.0153764
0.00672409
0.000116843
0.00870986
0.00017979
0.00017643
0.000329623
0.00115256
0.000675188
2.70505e-05
0.00136766
0.00676004
0.00672155
0.0067183
7.78411e-05
0.00279415
0.00495236
0.000725428
0.00354193
0.00672553
0.000166913
0.00294291
0.000286589
0.000475995
0.00148568
0.000735311
0.000518379
0.011441
0.00335805
0.00672229
0.00672591
2.00947e-05
0.00988947
0.0113376
0.00876699
0.0120757
0.000679268
0.00917365
0.00672055
0.00134357
0.00672663
0.000241354
0.00186219
0.00799988
0.0111896
0.00253429
0.00553251
0.00728978
0.000172714
0.0143489
0.00673548
0.00282426
0.00375132
0.00127674
0.00673159
0.0067227
0.0115233
0.000164788
0.00672627
0.000460234
0.0131942
0.0097506
0.0130375
0.0067238
0.00281651
0.00262961
0.00707582
0.00308573
0.00672891
0.00666601
0.000934825
0.00135943
5.15675e-05
0.000153616
0.00418525
4.75772e-05
0.00321977
0.00428278
0.000583747
0.0132458
0.000818376
0.012708
0.0107091
0.00222518
0.00672647
0.000151705
0.00321932
0.000299377
0.0130566
0.000327392
0.00153423
0.00672026
0.00183986
0.000645532
0.000400856
0.00672077
3.07316e-05
4.92947e-05
0.00373873
0.000368022
0.000779894
0.00399772
0.00672235
0.00674441
0.00652914
0.000392734
0.000283336
0.00098611
0.00076414
0.00415347
0.00672391
0.0112506
0.0146129
0.00672536
0.00461563
0.00672602
0.0134359
0.000283765
0.00396589
0.00051091
0.00672194
0.000370249
0.00671941
0.0123354
0.0169053
0.00790263
0.00225867
0.0067224
0.00278935
0.00672358
0.00673237
4.22232e-05
0.0067261
0.00152893
0.00282022
0.000289928
0.00415003
0.00672374
0.0169915
0.00672281
7.60231e-05
0.00672097
0.00672252
7.12475e-05
0.00672775
0.000479426
0.00672301
0.000249489
0.000489192
0.00672035
0.00672821
0.000564579
4.09176e-05
0.000764678
0.010569
0.00926915
0.0105001
0.00144383
0.0056449
0.00672103
0.000399951
0.00673226
0.00875123
0.000364835
0.000117732
0.000448858
0.00554423
0.00673549
0.0067207
0.011609
3.09564e-05
0.013473
7.82711e-05
0.00672521
0.0062119
0.00672496
0.00105357
0.00672521
0.00233755
0.00674805
0.000847339
3.06806e-05
0.00672577
0.00273154
0.00672562
0.000557508
0.00672337
0.0067356
0.00672178
0.00672539
0.00181075
0.000771736
0.0167532
0.00672562
0.00288069
0.0129174
0.000391036
0.000990599
0.0160015
0.00010718
0.00672197
0.00393444
0.000311047
0.0067259
0.0169295
3.4057e-05
0.00517723
0.00672768
0.000795228
0.00672312
0.00672328
0.012797
0.00674404
0.00672164
0.00182845
0.00365762
0.000970711
0.00216555
4.72901e-05
0.00216052
3.44335e-05
0.00523986
0.00012481
0.00672168
0.0011554
0.000611022
0.00253557
0.00672627
0.00672272
0.00049379
0.000363842
0.00672336
0.00672263
0.000538454
0.00672231
0.000401799
0.00704283
0.000858061
0.0109516
4.00871e-05
0.000133735
0.00672672
0.000229739
0.000185233
0.000892134
3.69336e-05
0.00673213
0.00672164
0.00672292
0.00276078
0.00672257
0.00672065
0.00413307
0.00250951
0.000402456
0.006721
0.00672338
0.0149059
0.00289905
0.000549161
0.00024044
0.00566131
0.00289057
4.62771e-05
0.000325401
0.000761798
0.000735822
0.0166384
0.00180595
0.00225987
0.000964018
0.00672656
0.00672363
0.00196388
0.00102945
3.36471e-05
0.0080951
0.000275292
0.00607596
0.000459411
0.00672017
0.00151686
0.000184686
0.00344454
0.0104686
0.00672124
3.20408e-05
0.000306161
0.00981558
0.000205922
0.00672242
0.0016196
0.00104224
0.00087118
9.16985e-05
0.0154995
0.00665262
0.000434617
0.00672258
0.0134039
0.00672994
0.00672542
0.0170563
0.0129663
0.000545643
0.00255822
0.0113592
0.000494965
0.00674559
0.00309363
0.00672277
0.00337835
0.00923298
0.00775264
0.00672174
0.00672244
0.00306397
0.00275461
0.00873187
8.51687e-05
0.00672184
0.000423901
0.0109195
9.01426e-05
0.00178249
0.00672167
0.000770701
0.000756529
0.00672193
0.00676149
0.000472823
0.00065138
0.000395229
0.0127578
0.000297144
0.00384951
7.43242e-05
0.00428038
0.000611961
0.000414318
2.8439e-05
0.00672274
0.00672818
0.0101258
0.0130597
0.000227811
0.0147301
0.00964504
0.00187576
0.00531655
0.00449425
0.00428016
0.00672081
0.000585997
0.00150408
0.00585524
3.37398e-05
0.000761027
0.0142327
0.000382583
0.012
0.0110349
0.00206649
0.000544422
0.000206556
0.00672541
0.00677107
0.000481528
0.00250228
0.00101113
0.00433924
0.00673628
0.00147193
0.000124284
0.00403371
0.0108712
0.000471882
0.000743492
0.000459162
0.00673263
0.0014943
0.00032084
0.00398443
0.00113666
0.000506768
0.00136648
0.000492372
0.000355605
0.00410096
8.5915e-05
0.000316284
0.00939889
0.000260265
0.00673932
0.00803739
0.00337209
0.00873206
0.00630588
0.000199243
7.88319e-05
0.000443654
0.000837583
0.0040259
0.00368595
0.000495995
0.00849115
0.00225781
4.02726e-05
0.00672217
0.000365267
0.000793931
0.00119298
0.00132401
0.0150974
0.00219617
0.00249152
0.00439195
0.006725
0.000449087
0.00672231
0.00905475
0.000393285
0.00895376
0.000700523
0.000429889
0.00672594
0.000828711
0.00673325
0.0050565
7.8829e-05
0.00171508
0.00672238
0.0120569
0.00537238
0.00249995
0.00310113
0.00672218
0.00672234
0.000440012
0.00892298
0.00156874
0.000213634
0.000821453
0.000838931
0.000636478
0.00365372
0.00804653
0.000529168
0.00104081
3.44925e-05
0.000984655
0.00647451
0.0145734
3.92488e-05
0.000414704
0.00301658
0.000253864
0.00383871
0.00672212
0.000406727
0.000366407
0.00672308
0.00574494
0.000580144
0.00019638
0.00672247
0.000965544
0.00055384
0.00190211
0.00673295
0.00673136
0.00105507
2.15976e-05
0.00010632
0.00133869
0.00172543
0.00672816
0.00381419
0.00807972
0.0045371
0.00236292
0.000512782
3.39816e-05
0.00163312
0.000482666
0.00275694
0.00672231
0.000516222
0.000725798
0.00250269
0.001323
0.00595814
0.000509352
0.0102124
0.0166555
0.00060901
0.0131869
0.00399815
0.000337056
0.00296928
0.00673201
4.93371e-05
0.00411882
0.00675085
8.55092e-05
0.00673473
0.00672478
0.00223148
0.00209847
0.000569242
2.19871e-05
0.00544358
0.000109133
0.000701163
0.0115975
0.000582096
0.00442123
0.00282671
0.0129678
0.00841306
0.000409416
5.47806e-05
0.00727646
0.000386654
0.0171437
0.00367984
0.00032589
0.00667391
0.00300549
2.64147e-05
0.000318401
0.0004162
8.38591e-05
0.00672912
0.00672222
0.0067224
0.000976018
0.0138348
0.00713575
0.00149138
0.0146515
0.00216635
0.00595718
0.000783436
0.00448779
0.00486028
0.00672193
0.0128218
0.000349694
0.00481452
0.00152082
0.000118073
0.0143285
0.000474885
0.00323904
2.15813e-05
0.000338069
0.000372945
0.0157923
0.000330354
0.00321007
0.0177924
0.0156532
0.00212309
0.000206388
0.00234579
0.000238962
0.00672574
0.00671938
0.00672285
0.000773293
0.000367388
5.52165e-05
0.000130874
0.0024808
0.000748031
0.0157422
0.00599294
0.0067202
0.00122529
0.00672847
0.000402957
0.00678675
0.00672344
0.0134493
0.00123329
0.00672117
0.00672249
0.000381206
0.00749969
0.00389953
3.37015e-05
0.00392873
0.00129477
0.00673095
0.00976569
0.00327207
0.00671851
0.0061096
0.00749358
0.00537347
0.000514576
0.000360156
0.00214092
0.00684665
0.00220295
0.0172782
0.0114718
0.000608306
0.000252241
0.00672884
0.011979
0.00139432
0.00262413
0.00676453
0.0067235
0.00199559
0.0067531
0.00672774
0.00672582
0.000170777
0.00672902
0.00618118
0.00023841
0.00868321
0.000314797
0.0083392
0.00705606
0.0117693
0.00373207
0.0030793
0.00483003
0.0124541
0.00190414
0.000576039
0.00033344
0.000801961
0.00116619
0.000850281
0.00674388
0.000156671
0.000679909
0.00621372
0.0164099
0.000145311
0.00177576
0.00672618
0.000470529
0.000576681
0.00621258
0.000169782
0.00672448
0.00672025
0.010819
0.00347803
0.00555157
0.00140175
0.00672145
0.00672596
0.0147488
0.00672141
0.0068709
0.00695178
0.010182
0.00672965
0.000774382
0.00672333
0.00357089
0.00672423
0.0118084
0.00672794
0.0105828
4.04594e-05
0.00791528
0.00676709
0.000113937
0.000262361
0.00195335
0.0125763
0.000400945
0.0119555
0.00656272
0.0099431
0.00992783
0.00672247
0.0107123
0.00145858
0.00672018
0.00524624
0.00781536
0.0163802
0.000353629
0.00453074
0.000283482
0.000427161
3.36529e-05
0.00672695
0.00238911
0.000253783
8.87424e-05
0.00975305
3.04429e-05
0.0086804
0.00672606
0.0013009
0.000293878
0.00180261
0.0118128
0.00869387
0.000235213
0.00789271
0.000403328
0.00022248
0.000705472
0.00672315
0.000981686
0.00726555
0.000346422
0.00138291
0.00266703
0.000738578
0.000202856
0.0108422
0.000572943
0.00673231
0.000548108
0.00672625
0.000119099
0.00672023
0.000192104
0.000150484
0.00113338
1.82358e-05
0.000479147
0.00265378
0.00087292
0.000460824
0.00284452
0.0064196
0.0173206
0.00418648
0.000354192
0.00573397
0.000174304
0.00672604
0.0039771
0.00674772
0.00167176
0.000200832
0.00672261
0.00672609
0.00302867
0.00672364
0.00672217
0.00271801
0.00133173
0.00156374
0.00689834
0.000673487
0.00672079
0.00306197
0.00672497
0.0143256
0.0173106
0.000366534
0.00672207
0.00174482
0.00108031
0.000412524
0.000165834
0.00672284
0.0067239
0.00673398
0.0161679
0.00660905
0.000158848
0.00752588
0.00782518
0.000414473
0.00558625
0.0107396
0.00589075
0.00451218
0.0138324
0.000295391
0.00672031
0.00621983
0.00423966
0.00261462
0.000175983
0.000645917
0.000651789
0.00244164
0.0104575
0.000708398
0.00828761
0.000266189
0.00672381
0.000387642
0.000334003
0.000331255
0.00530838
0.000120877
0.000826269
0.00467544
3.24425e-05
0.00672256
0.0067216
0.000498323
0.00672972
0.000750498
5.42904e-05
0.000373885
0.0174417
0.00911281
0.00672582
0.0122635
0.00682551
0.0068645
0.000858709
0.000115331
0.000691241
0.00672563
0.00672256
0.000377848
2.20443e-05
0.00672324
0.000356685
0.00201391
0.00974533
0.00750154
0.000427661
0.00857302
0.00236431
0.015294
0.00469542
0.000103754
0.000784778
0.0007099
0.00672248
0.0067298
0.012569
0.0172
0.00672208
0.00673299
0.00674876
0.00672151
3.46777e-05
0.00205376
0.00200678
9.14339e-05
0.000437482
0.000288292
0.0103978
0.00827408
2.53218e-05
0.000597233
0.00163751
0.00672578
0.00673039
0.00675733
8.8641e-05
0.00441505
0.00051588
0.00153251
0.000492188
0.00672226
0.00672401
0.00115298
0.00674752
0.00672735
0.000556018
0.0007613
0.000236982
0.00939687
0.00674492
3.39478e-05
0.000474134
0.00675117
0.000376884
0.0169312
0.00672395
0.00228869
0.0129466
0.00673123
0.000450142
0.000497238
0.000216337
0.0067228
0.000211851
0.00678684
0.0165516
0.000428251
0.012512
0.00381632
0.000389724
0.000851654
0.00618465
0.00962903
0.0003539
0.0118628
0.0107365
0.0112062
0.00769163
0.0128764
0.00192379
6.77616e-05
0.00417903
0.015398
0.000759654
0.000231695
0.00725858
0.0067215
0.0136205
0.0044362
0.000128189
0.00381118
7.33233e-05
0.000363142
0.0103871
0.00672071
0.00156491
0.000778706
0.00674786
0.0128984
0.0117018
0.000622213
0.00672596
0.00140238
4.28767e-05
0.00134502
0.000698268
0.0156152
0.00231971
0.00672264
0.00672251
0.00200368
0.0074861
5.58894e-05
0.000798243
0.00080567
0.0132259
3.60816e-05
0.00679858
0.0096413
0.00234654
0.000160094
0.00353554
0.00180109
0.000282615
0.00093496
0.00614055
0.00792577
0.00159244
0.00973241
0.00857195
0.0118075
0.00673998
0.000108689
0.000602603
0.000341658
0.000172996
0.000619396
0.00769712
0.00672703
0.000134962
0.000348346
0.00631684
0.00133193
2.97801e-05
0.0175763
0.00768367
0.0130922
0.00207325
0.00185104
2.00049e-05
0.0013417
0.00847501
0.00673255
0.0116696
0.016872
0.000310848
0.00124718
0.000737398
0.0138139