/*--------------------------------*- C++ -*----------------------------------*\
| =========                 |                                                 |
| \\      /  F ield         | OpenFOAM: The Open Source CFD Toolbox           |
|  \\    /   O peration     | Version:  v2012                                 |
|   \\  /    A nd           | Website:  www.openfoam.com                      |
|    \\/     M anipulation  |                                                 |
\*---------------------------------------------------------------------------*/
FoamFile
{
    version     2.0;
    format      ascii;
    class       volScalarField;
    location    "100";
    object      omega_0;
}
// * * * * * * * * * * * * * * * * * * * * * * * * * * * * * * * * * * * * * //

dimensions      [0 0 -1 0 0 0 0];


internalField   nonuniform List<scalar> 
18166
(
0.0341446
0.0219218
0.022272
0.0929811
3.7373
0.0403599
0.0217938
28.5652
3.48199
2.66971
0.0220398
0.0219799
3.65951
0.281815
5.57393
0.313321
0.022123
4.97023
0.021981
7.3221
0.141755
0.0221238
0.138691
0.0220725
0.0218946
0.0217992
0.0316608
0.0287146
0.0220262
0.0977521
11.9472
0.0215108
0.0219544
0.0219611
0.021465
0.0220405
3.4947
0.0220463
0.0217011
2.6279
0.02226
12.429
0.0219611
0.022025
0.0351558
0.0221366
0.0912971
22.3174
0.187068
0.029935
0.0453165
0.0448845
0.150456
0.0222355
0.0220458
6.41995
11.9763
11.4607
0.0231489
0.0257482
0.0607814
0.0260738
6.04743
0.0311398
0.311172
0.0220824
4.05017
4.91069
16.6179
0.0303832
0.0214684
0.0222719
0.0345782
0.0241392
7.98847
0.960948
0.157946
13.4307
0.0255627
0.0220727
0.0222557
3.75358
0.0220788
0.022043
0.0216027
0.0229213
0.0256414
0.0219346
0.0442188
0.0216927
7.97527
0.0385236
4.89116
0.0222767
0.0222529
0.0230143
0.0215822
0.0590383
0.0246991
0.0284848
0.0219709
0.0221406
5.70129
0.0310085
0.0302756
0.0221492
14.4952
3.02312
0.024243
0.0220719
6.06949
3.60636
3.93864
4.85031
0.0221507
0.0216722
0.0610572
9.57179
0.0222012
4.48813
4.56297
0.0220424
0.514287
7.98195
0.122082
0.0219836
0.0221557
3.55241
0.0283421
0.0394144
0.136614
29.3505
0.0248478
2.96946
0.0271313
0.0893252
0.022051
0.0218783
0.0250011
2.73729
3.43738
0.367642
1.99129
2.6393
0.0241779
9.93957
26.9197
5.82725
0.0218939
0.0262843
0.0215792
4.08488
10.3911
0.122506
0.0222513
0.022078
0.0224716
9.85552
0.0220578
3.55988
0.0216528
4.60265
0.0252114
0.0218032
0.0454676
0.542185
0.0221525
2.4736
3.74003
6.42698
0.211582
4.82868
0.0382969
4.8845
3.44931
0.0219726
0.307797
4.93295
0.0219035
0.02194
0.0221517
0.0368243
0.177289
0.31855
7.0297
0.0218645
0.0516326
0.0864289
0.0220381
0.0216575
0.0661941
0.0219805
0.042917
0.0220477
0.0344102
5.89766
0.0390437
0.0336534
8.80962
2.87312
0.202263
4.07963
0.0217873
5.91137
0.0220606
0.0460883
3.90461
9.47057
3.63422
25.0953
4.0001
3.4419
0.0219135
0.0221056
0.0462446
0.0371989
0.367151
0.0591377
3.83993
3.65634
0.0248564
0.0219539
0.0218694
0.047458
7.40644
0.0217746
0.0563463
0.0218482
0.0233178
0.0217802
8.35313
3.92247
0.0233328
1.70821
0.0220114
0.0228064
0.0447688
0.0543425
4.03076
9.9169
0.0433647
3.60607
7.56761
0.0253436
5.17909
0.0221153
0.091476
3.60381
3.36358
0.0229289
0.0354568
0.0221518
0.0220581
0.0281847
4.27058
9.01434
0.0221093
3.69093
5.09894
0.0218063
0.0220932
1.74169
0.0591794
0.187556
10.4025
4.13655
4.75281
0.0240581
0.0222639
0.029033
0.0308443
0.0221078
0.0219097
4.90979
0.0450886
6.78608
4.87411
0.0218377
0.824141
0.0215493
0.0832422
3.88856
0.0239713
0.0221567
0.0243911
0.0811679
0.0262168
0.0224553
3.52693
0.0221626
0.028743
0.0832434
0.0246561
0.0221065
0.0238902
4.38329
0.0217818
0.0221193
0.0217734
5.20338
4.77544
0.0220745
0.0222361
0.0219043
8.24029
0.0219646
6.95265
0.132168
0.0220466
0.0216523
0.0244384
0.755963
5.88723
0.0271799
0.0221622
4.62885
0.075804
0.0250209
0.0220956
0.390315
0.0219383
0.0243775
4.02888
0.0582552
0.0357632
0.0292497
0.0224744
0.0219579
0.0216242
4.52213
0.0218746
2.74035
0.0221759
0.0217952
15.1935
3.76462
0.210624
3.72815
5.983
4.62582
0.0219165
4.30153
0.409653
1.83524
0.0227313
0.0220578
0.0217948
0.0274194
0.0223637
0.0520927
0.0233272
0.0804068
0.0221203
0.0218834
0.0674058
0.0256595
0.0695663
0.0422503
0.0220537
0.0216248
0.0219498
4.07076
3.35713
0.0221137
0.0217975
0.0220168
0.02227
0.105497
0.022272
8.51521
6.619
0.0219172
0.0219389
0.987041
3.55341
18.1646
1.86847
0.0222469
0.042704
0.219648
0.0218006
2.36151
3.01745
0.0262087
0.0239579
0.0219928
0.0220847
0.0222755
3.97959
0.0219832
0.0214818
0.0264364
0.0216882
4.42839
0.208573
0.0222413
0.022132
6.57735
0.0218195
0.0218313
0.0222118
0.27246
3.9189
0.0222711
7.06886
0.0227112
0.021782
7.27346
5.6317
0.0223811
8.41732
7.67146
0.0386407
6.14519
0.0244369
0.0278652
0.0795117
0.225357
0.0214044
0.0220985
0.0224645
0.0219861
0.981184
0.024096
0.724637
0.022269
0.400681
0.0219558
3.19542
29.477
0.0258482
0.482609
0.0369927
0.022451
0.0430565
4.60268
5.59867
0.0222002
7.50927
0.0355875
0.0216677
8.26724
3.74259
0.0219531
4.5066
4.59666
0.0220882
25.4431
0.115189
0.0217731
0.0476374
4.9755
1.99808
0.0467777
3.08699
3.52749
0.328594
0.0746846
0.0216821
3.75422
0.0219795
0.0220167
0.519303
6.19335
0.0228093
0.0223442
0.0353029
0.0242149
0.0221029
0.021791
0.0216087
0.0544126
3.46995
0.0219557
0.0818358
0.0222788
5.16521
0.0221034
0.0220182
0.83838
6.23338
0.05261
4.04803
0.021987
0.0219983
3.64881
19.0648
0.0562779
0.022379
0.249539
0.200024
0.0221958
0.0221567
0.022238
0.0229332
4.60521
3.70345
0.0220111
0.0226213
0.102827
3.6557
16.5811
0.0214793
0.0228758
6.13077
0.0220278
0.0221522
0.0220825
0.0217026
0.0600167
0.398163
2.49482
0.295383
0.0220641
0.173806
0.021894
0.0222763
5.44302
3.08617
0.0489133
4.9543
3.93848
6.36175
3.62179
0.170595
4.0598
7.61334
0.0959251
6.42776
0.0219775
0.0722338
0.0229772
0.0230457
0.0971902
3.15471
0.0230736
0.562151
6.29018
0.0420288
0.0222543
0.0219993
2.58278
3.97307
4.11683
0.0215263
0.47177
3.7565
0.0224623
0.0227263
0.022014
0.0249402
28.4521
5.008
0.0222335
4.03316
0.0221193
3.49418
0.0259347
0.022096
0.0276077
4.02136
0.0216627
0.0220484
3.56554
3.85705
0.093012
5.73573
0.0223428
0.0220843
0.0221878
1.76705
0.0997859
3.41878
0.0301679
2.4432
3.83758
0.0452729
15.6547
0.0228362
5.38824
0.0216873
0.191586
4.66019
0.0910728
0.0247025
4.56429
5.33255
0.0220482
19.3966
0.0219783
0.0222459
25.3838
3.56853
0.0222371
0.0220938
0.0216067
3.5055
4.29711
0.0220416
0.239782
0.024272
0.0220999
0.0219929
0.0760097
0.181947
0.0256529
17.4792
0.0221109
0.0218797
4.84289
20.1564
0.394648
9.90237
2.08332
0.0222079
3.785
16.4988
0.0240836
5.51359
0.0684405
0.0251851
0.0430903
4.6848
0.026277
0.0710683
0.0227106
0.032556
3.63951
0.022051
4.96415
0.0616536
0.0544568
0.0383832
0.0216756
0.0225082
6.83215
0.0220586
0.0221246
0.0970884
0.0216773
0.0600907
0.0221471
0.133307
0.0221762
0.0307348
0.0216318
31.1646
9.71849
4.07015
0.0227303
8.16404
3.63073
0.163529
0.0217797
4.29165
0.0223018
24.1176
0.0220526
0.0900502
7.40706
2.81214
19.3844
0.999727
3.90382
0.0214507
11.3232
0.0219288
0.0276527
0.024003
0.0219821
0.0220607
4.82462
0.0739351
0.0224911
4.26933
11.957
0.0520998
0.021458
0.0258882
0.0222637
0.0218158
0.0216995
0.0219752
0.468245
0.0271269
6.98904
3.90417
6.86951
4.5532
0.228398
0.0262598
0.0221659
7.93425
0.0218766
4.94428
4.50046
0.0216694
0.0346235
4.51156
4.10033
4.96367
0.0314359
0.0256942
0.0217925
3.74977
8.31519
6.81199
0.0687579
0.654476
20.8333
0.0667808
2.85005
22.8365
0.239592
0.0219897
6.97272
0.0861197
0.0692603
3.89909
0.0218173
0.124478
0.0855124
0.0218133
0.281211
5.61493
3.03518
5.43198
0.0310795
0.0289166
0.0220688
0.187147
1.41399
0.0265153
4.38145
0.021928
3.92658
3.74941
0.026094
0.0240102
0.0222698
0.0352016
0.0222577
14.7974
0.112872
3.46993
0.0217859
0.0218071
0.0217953
24.4404
3.61815
0.0325747
14.9803
0.0758674
6.46469
0.0220586
0.0221495
0.537595
0.0229173
0.672248
8.8451
0.0777247
0.40446
0.0222036
4.72808
4.92033
0.24219
0.0233372
0.021746
0.0226276
0.0221581
0.245122
0.0241666
0.0217137
0.301532
0.0230335
1.78129
0.185647
0.037871
0.0219242
4.57691
0.0216823
0.0260364
5.54541
0.104836
0.0219993
0.210075
4.01928
0.0217748
0.0220921
0.0219776
0.0544951
2.99167
0.022046
9.14724
0.0222626
3.86235
10.9337
3.61938
6.30376
0.0568288
0.0292194
0.682151
0.0219408
6.00627
0.0217748
0.0218244
0.0215462
0.0219919
3.46224
0.0218563
0.0220656
0.0221887
0.0217086
0.731041
0.022962
4.30022
0.0219903
0.0221677
0.02204
4.91004
15.7277
40.8135
0.797198
0.0218303
3.92946
3.57
0.0229085
0.0219915
6.69887
4.50782
0.024739
0.132247
5.04572
0.0544222
0.0217886
0.0593325
0.0322318
0.0592423
4.15172
8.89064
0.0216089
7.00512
0.0218053
0.836541
0.0678345
0.0495196
0.0219791
10.3041
6.90698
5.86698
0.0221819
0.0758353
0.0216719
8.7495
0.022059
0.040758
0.0225877
0.0218844
0.0776784
0.0237903
0.0220842
1.35464
0.022101
4.34191
0.0283914
0.607572
0.021954
0.213143
0.0730279
0.02201
3.89039
0.440822
4.99598
0.0221706
0.025051
0.156105
5.24399
0.0219873
0.0224254
0.0237361
4.94812
0.0215821
0.0824426
0.244393
0.0229398
0.0215084
0.0221592
0.0219135
0.0476013
0.0216764
0.550949
0.033738
0.0216053
0.0234822
6.23557
0.0219288
0.0242668
0.0218279
0.0220642
0.0589904
0.207484
4.86575
0.130207
0.0229483
0.0222468
4.36669
2.45323
7.18005
10.5227
0.109465
0.431419
0.0219964
0.0335914
5.28053
7.74806
3.70092
0.0221108
0.0731629
0.0530468
10.9396
3.94991
0.0220308
0.0874154
0.0251607
3.431
5.13766
4.51534
0.0217942
1.7186
0.0222705
0.0217915
4.68289
0.0222939
0.0226108
8.94012
2.05714
0.021909
6.04441
0.109504
0.0216493
0.615568
0.0215117
9.29988
3.51309
0.100106
5.89711
0.685208
4.34005
0.0215314
0.0226019
0.0219375
0.0215672
0.0215566
0.0241599
3.62062
4.18097
0.021865
6.24339
0.0346607
0.0377623
0.0219929
0.0231013
4.44
3.53662
4.42649
4.78189
0.0220895
0.0443864
3.7001
0.0247126
0.255431
0.280416
3.59898
4.16715
0.0218626
0.0219315
0.0240041
0.0220694
0.0526184
1.25347
0.0224542
1.30052
0.0221175
0.0222816
0.0218359
5.02475
1.34646
0.021994
0.0221618
6.58312
0.021961
6.62116
3.54702
0.021953
0.451446
0.0219653
6.89792
3.87411
3.54693
0.340247
0.0221085
0.0802299
0.891969
0.0231558
20.6878
3.75714
3.32531
0.0225342
0.0485457
0.0235052
0.0225184
5.49225
2.43745
0.107056
0.109358
0.0215585
0.201515
0.0437761
0.0221234
0.0776771
4.19315
7.04601
2.18196
0.0352657
0.564744
7.27297
0.0215727
0.0227964
0.0222673
0.10012
0.0402779
0.0236168
0.0328965
0.0514745
0.0261345
0.138741
0.0220624
0.0836956
4.2232
3.55711
4.24549
18.4909
0.0218054
0.022414
12.5502
0.0786394
0.0217846
0.0218811
3.61714
0.0320681
0.125667
0.0221442
0.0229454
7.58318
7.7558
24.3383
0.0220322
3.85132
0.0232333
0.328587
4.16495
0.0222024
0.0587127
0.0498101
2.03384
6.69664
0.0240094
3.56168
4.96089
0.485367
0.0428638
3.65845
0.0311052
14.5112
0.0222708
0.0222587
0.0219944
0.0219866
0.0234425
0.0464767
0.0219649
0.83033
0.0219274
0.0227421
5.33176
0.0220518
0.0999467
9.573
6.21923
9.69692
0.0220084
0.0220615
0.0218393
0.0222782
4.34729
0.303799
0.130596
6.28817
3.45808
0.0222144
0.0358124
0.0235547
0.0222707
0.0309619
0.0221092
0.0311451
0.0215122
0.0221036
0.0227555
0.0221107
0.133578
0.140661
0.0252788
3.26896
0.0219929
0.0220539
5.80466
0.0312024
4.32492
0.306747
0.0992015
0.311653
15.7749
2.33614
0.0219676
6.25694
0.0248928
3.80929
0.0356408
3.81143
4.11088
1.89355
0.0361533
4.49397
0.0220063
0.0222034
0.0218791
4.60334
0.046194
3.82507
3.94863
2.77615
0.0217663
4.11888
4.95999
0.0219012
0.0226851
0.0447507
0.0229583
5.01076
0.0306032
0.0265895
2.8546
0.02208
7.70663
0.0230852
0.022423
3.86182
0.023503
2.8146
0.0223973
4.07716
0.0220794
1.97128
0.0222582
0.0220336
2.46293
0.220134
0.0216895
0.0217864
2.89419
0.0215167
0.0219028
5.45773
0.0224489
4.31597
0.310211
0.022215
6.68528
3.88211
0.116716
0.0959486
0.022242
6.08202
0.0220731
0.12423
0.0216472
0.0468436
0.0226439
0.02195
0.209427
0.0221415
3.66365
2.3462
5.05987
0.023385
0.0219272
0.0222214
0.0215946
0.0893943
0.0218013
36.0852
20.4757
2.74477
4.14305
0.49885
5.25055
0.291571
0.0216174
0.0464305
0.0250117
0.11732
0.0672868
0.0228035
1.67852
0.0220876
0.412402
0.026377
18.245
4.74888
0.0215977
4.69886
5.77389
0.0583281
0.0426578
0.0468634
10.2602
0.30789
4.70932
0.0221273
2.12092
0.0679145
4.62271
8.98927
1.61169
0.101989
13.1474
0.172275
3.91292
0.0217899
4.55149
0.0215911
0.0226448
0.0225374
0.0220445
0.0219696
0.0215349
0.0218538
0.0221204
5.88124
3.56395
0.226052
0.614129
0.0216191
0.0223942
0.0242965
3.01249
0.645451
0.0218861
12.2382
0.0219769
0.021932
0.0646322
6.67096
0.0268844
4.56022
0.0235757
8.84321
0.021765
0.198891
0.0259666
0.330244
0.0221342
0.0221185
0.0515479
2.92252
0.0219856
0.0218976
0.0304748
4.70306
0.0420796
0.0222126
0.0702887
7.92961
0.0405973
0.120528
0.0280482
0.04847
6.95068
0.0217508
9.06958
0.0217763
9.2262
0.0222743
0.553701
0.0221299
4.21375
0.0220072
0.0217938
0.0273568
0.0221185
0.044214
0.0219117
0.0222783
1.8162
0.0220028
0.0221924
3.44103
0.026456
8.93614
0.0683036
3.58602
15.4629
3.68063
0.0219368
0.742119
10.7942
0.0217576
4.20272
0.0279439
0.0219823
0.187735
0.0218787
19.7265
0.0216905
0.109662
4.32728
0.227795
0.0229209
3.58738
0.0220531
0.178747
0.0457186
0.0222104
6.93228
4.4188
1.24495
4.08009
3.60266
0.0430462
14.1197
0.644135
0.426358
0.0216059
7.87048
0.0275531
2.02891
8.83167
0.12916
0.0850622
0.0447854
0.021597
3.55968
0.0218272
2.74635
4.11858
3.59417
0.0217974
0.0360326
6.39463
0.0219137
0.133591
7.24933
0.0224112
4.83019
0.0221263
0.470614
0.0220081
7.96705
0.398167
5.72934
3.85659
34.8796
3.54727
0.39717
0.0219897
7.6416
0.982373
0.0220005
0.0228154
0.0216315
0.20661
4.85737
3.8948
0.0702365
19.9748
0.0453575
0.0221682
0.0263932
0.0249253
9.10313
16.6111
5.05072
1.80354
0.0361033
0.0236655
3.94875
0.0217489
0.0241745
0.0228805
4.00207
0.0221792
0.0220991
1.89168
10.4824
6.61073
0.0241605
3.94645
0.0219137
0.0220234
3.44996
1.06828
0.0221319
9.29289
5.1594
0.258402
0.0218906
1.80726
0.0222877
5.3821
0.0353525
6.51531
4.04047
0.0919346
4.58109
4.75879
0.0237693
8.95658
0.0263181
3.34946
0.0216503
3.99857
4.66237
7.23307
0.0700043
8.19077
3.74421
5.11297
0.0305251
0.0222563
0.313903
8.41095
0.0286366
0.0355105
0.168196
0.0220252
9.01914
0.0219293
0.0427381
4.43768
0.0657836
0.0221809
4.51183
0.0221079
0.0225213
14.1694
0.0215785
0.126586
0.0493477
0.0217498
6.6429
0.344695
0.0216839
4.27534
0.0217009
2.4711
6.18449
0.0220784
0.0219671
0.022225
5.17996
2.08688
0.0930086
5.41406
4.02804
6.18948
6.62695
5.19237
0.0217267
0.0645568
0.281507
1.89018
0.0220083
20.81
0.0250081
0.117741
3.90625
0.0221876
0.0220991
0.0259139
0.0220973
0.0220733
9.7256
4.20843
0.0577436
6.81961
0.0228575
3.8341
5.94796
1.70251
0.149332
6.9545
0.0220204
0.0219914
3.87127
5.80308
0.164154
0.021891
0.025664
0.0219776
4.11062
4.09495
0.02206
0.0782745
0.195247
0.0220213
11.5349
8.72013
0.0332476
0.0396807
0.0219287
0.0219892
1.81402
0.0219938
0.0225519
0.0256906
0.0219678
0.0226266
0.0216868
0.0407354
5.08164
23.5164
5.94177
0.0221012
0.0221372
0.0219038
3.51335
0.0221098
8.57638
0.0219683
0.0670946
4.72186
0.0221187
0.0218058
0.0220865
0.021761
0.0222427
0.661807
4.24855
0.0483273
7.84632
0.0771079
0.0700838
0.0220046
0.0259815
0.0235369
6.11102
0.0234077
3.86458
0.0338596
5.66095
0.0403293
0.0343384
4.65766
4.699
0.0237989
0.0459025
0.0760955
0.021593
0.0220004
0.022217
0.0219663
3.53192
0.0218227
1.97544
0.021829
4.16606
0.465473
0.0221569
1.25795
9.53575
0.0272758
0.0216572
4.51067
0.469603
0.0215642
0.0220806
0.585978
0.0238256
0.0220014
0.0220211
0.0219211
0.21155
0.0360605
4.73188
0.0219328
0.0580692
0.0219929
0.418147
4.33177
0.0279184
2.3119
0.0348692
0.0226135
0.0361585
0.216517
0.0220676
0.0219565
13.7554
0.0396544
0.0217069
0.422932
6.19427
0.0217336
10.5126
0.0219314
7.74025
0.102202
0.0258611
1.79392
0.0728468
0.0889212
0.0835218
3.78385
0.0223611
0.0220953
20.0623
13.2922
0.0220915
1.25189
0.0226928
11.8818
0.0219209
0.0215951
0.0219132
4.42732
0.0221788
0.0527584
4.48606
0.0502502
0.0482364
0.205921
0.0227516
0.0326687
2.14115
7.53874
0.021689
0.0219829
0.0219075
1.08124
0.0224486
3.58679
0.220644
4.19217
0.0222638
0.27258
6.31266
0.126482
13.769
0.0223945
0.0237992
0.040114
4.63788
0.0226135
0.0221029
0.0222697
3.06494
2.42808
2.42295
5.80206
4.17627
0.0246763
5.63958
0.0217672
0.0224574
0.0220097
0.0364126
0.0226596
9.00339
4.77275
0.0220886
8.49578
3.45345
0.225601
4.94518
0.0218319
9.10825
4.61312
0.0264135
0.0215994
0.0219241
4.13866
0.0484808
0.0222894
0.0738375
4.82146
1.96687
4.96448
3.54069
0.022643
0.0223596
5.07008
0.0219611
0.0215409
6.47278
0.0239141
0.023433
0.165324
0.0404509
0.0219938
0.147057
2.87544
14.2474
0.0343236
3.90704
0.405613
3.81867
4.02925
0.022129
0.0219162
5.73348
4.3399
0.0690609
4.96615
0.353667
0.0237623
0.0219832
9.12234
0.389255
0.111496
0.0217798
1.69094
0.272338
0.0220369
0.212527
1.62
0.0219509
0.0220746
0.0216982
4.47391
0.203194
0.047765
0.0244683
0.0284404
0.021949
0.0221745
3.71379
3.56296
0.0222573
3.5631
0.0220148
5.47545
0.168462
5.66655
0.0834048
0.0216957
18.3818
0.0219191
1.74419
4.45067
4.77251
7.68397
0.0220676
0.0221737
0.0218811
0.0219518
0.159135
0.0216923
0.0240012
0.0227263
0.414117
0.021985
0.0219931
4.40515
0.0221297
0.0699767
0.021764
0.0221065
2.89287
0.0220045
0.0270839
0.0221285
1.21723
13.415
0.0219054
0.0219143
0.0254137
1.76142
0.024083
3.55383
4.28524
4.01068
0.0225365
2.75076
0.0217232
0.231174
0.021754
5.26717
0.0964007
0.184224
0.0441059
0.0217599
0.0219132
0.021818
1.77633
0.311316
4.82885
1.87135
0.0219822
2.54184
0.0216031
0.0281394
0.0222323
9.52529
0.0215547
0.023884
0.499097
0.0222716
4.81374
0.0222675
0.0260788
0.0218979
0.0216239
0.0219603
0.0222381
3.59815
0.0378236
3.9389
0.0220153
0.0229284
4.94321
0.310675
0.0257388
4.53598
0.0437634
0.0215264
0.0220015
0.0468982
0.0222729
4.35438
0.562181
3.55302
0.0220066
0.266688
0.0221357
0.022
4.97075
0.0215143
0.0220695
8.85936
0.0222137
0.0240346
0.0222291
0.127665
9.43632
2.22838
5.72232
0.0477902
0.0220759
0.0228731
6.9048
0.0222149
0.0219257
0.0218696
0.0268884
18.5747
0.0221676
0.0221083
0.0474465
0.0220271
0.301642
2.46177
0.0244753
4.18409
1.46321
0.0889075
0.0219595
0.127021
0.0439656
0.472676
0.418609
0.0216232
0.0220913
0.0221465
0.0223818
0.0221039
0.0217852
0.0220641
4.49321
0.042067
0.0217543
0.0221549
3.66022
4.37168
0.0280148
0.121907
0.0219755
0.0224565
0.325131
0.232741
0.0478445
3.40355
4.27806
0.0229597
0.0224887
4.19546
0.0220051
0.0219973
0.022274
0.0240681
0.231855
3.76596
0.0479926
2.64911
5.49105
0.0219873
0.0285836
0.0374082
9.66501
4.13097
0.0220818
0.601887
0.626413
4.1802
0.107266
0.021826
0.0223124
8.63052
0.0235388
0.0755492
3.97131
6.04357
0.196809
0.0220646
4.4736
0.0219932
0.0222572
4.00788
4.52447
0.214411
3.72238
2.62281
0.0738963
0.021546
0.0220794
0.0219351
0.0219767
4.48021
3.68125
0.0219684
0.021522
0.0221789
0.0230251
4.45223
0.0463134
0.0217039
0.332675
5.13076
0.0929759
7.22071
0.0215396
0.0249
0.0242535
0.0216787
0.0216735
0.0342518
0.0430826
0.160477
4.73216
0.104871
6.84886
0.225555
11.9263
0.0833886
0.0660138
1.83054
0.0219103
0.0219242
1.99976
4.90984
0.223876
3.56356
3.64207
4.1289
5.46383
3.6115
0.0219084
0.0220152
0.247969
0.0231291
0.0219152
0.574917
0.0397893
2.38688
0.24808
5.12045
1.87795
0.0224223
0.183832
0.0366489
0.0219148
0.0218699
0.0790183
11.4557
8.84432
4.50739
0.0217559
0.0224269
0.0514882
0.0220035
6.63866
0.275885
0.74316
0.172011
0.0219505
0.0238021
0.0406241
3.80409
0.0229407
10.2369
0.0226439
0.0310394
0.188608
8.16271
0.0914037
0.0607677
3.44174
0.0766046
0.0216388
2.12147
0.0220135
3.65791
0.0217776
0.0461988
0.0615653
0.0950534
0.0369072
0.0219217
15.445
0.0418143
3.46154
7.31588
7.42686
0.022114
0.055727
0.74169
0.0232478
0.0228296
3.58923
5.18456
0.0220836
0.0219676
0.0222129
23.8087
0.0221213
4.3049
0.468195
4.63831
0.0427845
0.181041
0.0222773
0.0371435
0.0216848
10.4515
0.0593725
0.022256
0.0220869
2.33206
8.85856
0.0220585
5.95733
0.0221226
0.0221306
0.0377749
8.00993
0.0250449
0.0464272
0.02423
0.0251464
0.428164
7.47408
3.40626
0.0553269
0.0228595
0.339141
2.38762
4.60639
4.93522
0.276728
0.0514927
0.0220841
0.0967309
2.75774
0.0220914
0.50842
0.106573
0.0221439
0.021813
0.171406
0.0451743
0.0220629
0.0255198
0.0246999
5.61224
0.0218361
0.0215434
0.0288783
1.24179
0.720718
0.023362
4.00658
0.0220034
0.0219348
6.0891
6.47125
5.68727
0.083846
0.805434
7.39147
0.0381878
0.0221006
0.0220949
0.0751606
0.0355947
0.0221338
0.0259172
0.0218038
0.0255345
5.9199
3.97973
0.41193
4.10121
0.0220999
0.0496161
4.39934
0.0217719
2.43963
0.0219347
0.0215577
0.0627899
0.0216842
0.0222302
0.0238988
0.0221464
0.0352405
1.07969
0.0217732
0.248523
4.2071
4.67235
34.6598
0.0219866
0.0220687
3.49779
3.60262
0.0907353
0.127676
7.23566
0.134052
4.25121
0.0219529
0.0321209
5.82113
0.022002
0.229473
0.122072
0.0832437
0.0613497
0.0219231
0.0216814
0.0220896
0.0247818
1.66764
4.28263
0.02288
3.95456
3.75978
0.0218151
0.026824
6.38108
12.1198
0.0221038
4.81893
0.0481865
8.86809
0.0235577
1.96162
1.67476
0.0318231
7.30764
0.753278
0.132337
0.20375
4.87987
0.192121
0.0219735
4.05728
3.98775
0.0224791
0.0383276
0.0227714
0.342839
0.022263
0.0219236
0.0221236
0.0298842
0.0292869
7.34778
0.0398859
5.5007
7.53611
3.96625
9.99748
0.0219807
0.0281114
0.022
0.0368804
0.0216364
0.0221563
3.77675
16.1336
0.0219219
0.0220674
0.204798
3.80788
0.0220971
0.295198
0.0220051
0.0239527
0.0219914
4.27403
0.022525
0.0218966
0.0217612
7.10638
3.01995
0.0605972
0.0359931
0.022166
4.70718
0.0242193
4.06616
4.14527
11.2516
0.0722659
0.0219204
4.9658
0.0287813
0.0224247
0.0216837
0.0221613
9.90904
0.021689
0.0220001
0.0222695
0.0505586
0.0219481
4.48289
0.0351683
4.57965
0.0611748
4.27826
3.88768
5.77868
0.021928
0.0225503
4.23917
5.41809
3.25898
18.3679
0.0584779
0.026413
0.0236906
20.4467
0.0217252
0.326743
32.6644
0.0219832
4.24024
5.07457
8.47344
0.0222786
0.0320999
0.0433887
0.02187
0.0437338
0.0216988
0.0220037
4.1731
7.81797
3.68765
0.0224868
0.0217276
0.0219948
4.10347
0.0215532
5.33321
4.64147
1.8623
0.0218426
0.0301732
0.0221452
0.0219427
0.0217149
4.76641
0.0219113
3.86739
0.289976
3.43217
0.0216505
0.0538079
1.03322
0.0244756
5.18472
2.23379
3.84718
0.0219894
3.52126
2.10629
0.021952
4.07548
5.98075
0.0220011
5.06907
4.81602
4.29126
0.0786691
0.021993
0.0468352
25.0655
0.488105
0.0220071
9.37763
0.102099
0.0649737
3.43551
0.713016
4.16158
0.022278
0.0248633
0.159721
26.3188
4.73468
3.95157
0.0593378
4.32949
0.241167
0.299941
0.0241306
0.0218413
0.0232795
3.79235
0.595366
22.4541
3.64035
0.0342199
0.03458
4.45216
0.202786
0.0218416
5.24098
0.021738
0.0534645
0.0219968
0.0468037
2.64576
0.022871
8.21307
0.066063
0.0222539
0.0233896
0.0879679
0.0222072
0.021811
3.96046
0.0218905
0.172726
4.53296
0.0681265
0.0219227
14.8221
0.0217413
5.41977
0.278257
0.0220393
0.0222796
0.0221174
0.0221688
0.0220653
0.0223496
0.0227136
0.0222172
4.22092
0.0240126
0.0218568
0.0220652
0.0217113
3.73752
4.10438
0.110629
0.0220756
0.0231168
11.8837
0.107465
0.0377896
0.0220436
0.0221719
0.0216713
4.49101
5.01843
0.0455838
4.39048
4.0581
0.647473
8.5673
4.61832
0.0218662
3.19999
1.67351
0.0474338
0.0219927
3.80982
0.0219016
3.68093
0.0469717
0.0578395
0.0289857
10.7563
4.23501
0.0428167
4.14707
0.108895
0.0219956
0.0967033
0.136123
0.123316
0.0222019
0.065071
0.0246842
3.61258
1.88722
0.0219422
0.0216668
0.227881
0.0214622
0.0300856
2.79516
0.120121
3.9547
4.45908
0.0219957
4.89084
0.0223781
7.06844
0.0241105
0.149994
0.0240317
0.0219174
0.022077
0.0672385
1.4239
0.0218516
0.905109
0.0227884
6.90126
5.90191
0.169687
6.37875
6.91158
4.45403
3.05054
0.0774682
0.0315533
0.0298461
0.0220945
0.021529
4.91726
4.23493
0.0220944
0.0216584
0.0217872
0.0220839
0.309599
11.0674
0.0221189
0.104029
0.582108
0.0324103
4.66863
2.2504
2.05752
0.0257068
0.0285653
0.022268
0.0215546
0.0219225
0.0793699
0.0218731
0.0263319
0.0237531
0.311376
0.0220973
0.0221721
0.0236077
0.021749
0.0219556
0.0760262
0.0400047
0.067848
4.71338
0.0217464
0.417499
0.1705
0.0216803
0.185063
3.89002
0.0221877
6.02048
4.9667
0.0217403
0.100911
0.0908321
0.042584
0.0220642
0.215572
0.0216325
3.81953
0.135451
5.71577
4.28762
0.215044
0.0373916
0.0219115
3.47501
0.169778
4.7557
3.65421
5.24964
2.20923
3.61638
0.0223533
0.127389
3.58744
4.20793
0.0376884
0.0324211
5.66887
0.0217242
4.96548
2.51088
0.213142
0.0219833
0.110969
4.76118
5.42483
0.0217286
5.51181
0.0234723
0.0215405
5.4124
4.85146
0.0365455
0.0220063
0.0242263
2.07205
0.0255888
5.50004
4.23181
21.1381
0.022116
0.0221037
3.95439
2.29576
0.0949283
0.0292617
0.0325132
1.69161
0.974943
4.04019
4.23795
12.8259
0.253504
0.0220003
5.61899
0.118226
0.0239301
3.57211
2.112
0.0256675
3.21727
4.26862
4.72928
0.0216765
0.0507617
0.376281
0.149928
0.0501931
0.0269099
4.54492
0.0217366
0.0432295
0.121017
2.55103
8.4796
0.399265
4.09035
4.2382
4.76856
10.6502
0.0222127
1.8067
0.0282973
3.62921
0.0219124
3.92337
4.14588
2.58857
8.16593
0.0241522
3.54068
4.37363
3.54899
4.2924
0.0256837
0.429495
0.022274
0.0217086
0.132127
0.0342058
3.53944
4.06737
0.0220003
0.0220229
15.8118
0.0218596
3.91076
0.0218809
5.92718
0.0222506
0.0279052
5.0202
0.021872
3.56916
3.62132
5.63737
0.0220106
0.0607275
4.25645
0.209833
0.285711
11.3482
4.93074
0.0253588
0.0217468
0.0362723
0.21222
0.0228201
4.03742
3.76026
0.561799
0.0244489
0.794955
0.0257867
4.71752
1.06404
0.0220175
0.0221152
4.12214
0.421574
1.21355
1.5306
0.0218612
1.35491
14.4825
35.1547
36.5786
0.190425
5.59968
0.0219153
0.224844
0.0219511
0.0230614
0.0226814
0.137951
0.0438931
0.0219118
3.40822
0.0219305
0.985386
0.0335691
0.10531
0.206403
6.80265
0.31804
0.0695218
0.0220069
3.70484
0.0724546
0.0247937
0.0244798
7.12594
4.04933
0.0219744
6.82269
3.7044
0.0730912
4.05006
0.0265941
0.0220018
3.62905
3.64534
3.87764
0.499163
4.27075
0.22851
0.0344113
0.023654
0.0221343
0.258684
0.301282
0.0221572
0.0223047
12.4402
3.48195
4.93251
2.01527
3.73791
0.0483386
2.61142
0.0221004
0.0313083
4.25704
4.61201
4.03743
5.14915
0.0325362
0.167589
0.72176
3.87019
0.161104
4.83245
1.56691
0.0222119
4.79574
0.0612516
0.0215156
0.0220514
6.08386
0.0221638
0.0221214
0.0348084
0.44553
0.0450773
0.0287409
0.0239635
1.37442
0.0394558
0.0731571
0.0258499
0.48651
0.123852
0.0254685
0.0218871
0.0220083
5.45729
4.07439
0.0220552
0.0223556
0.783003
0.0216406
0.222592
0.0480539
1.19267
0.0219598
0.175136
0.0217588
0.0566546
0.0218675
0.334173
3.88942
0.494356
0.562814
0.0222327
0.345937
0.0633342
2.58457
0.0217436
0.0221521
0.0234054
4.60547
5.12344
0.0249076
0.0221815
0.180713
0.414859
8.06001
0.0216573
5.04708
0.0220116
0.0221733
0.0226396
1.812
0.0216502
0.02502
0.0221866
3.72574
0.0243823
0.0217915
6.67465
9.43121
0.0220086
21.5689
0.0390606
0.0690158
3.12317
2.20045
0.0218834
3.80325
4.17816
3.94252
0.0221025
2.06587
0.022436
0.0419516
0.163612
0.0223362
2.98742
0.17213
0.0478481
3.92598
0.0233682
0.204778
0.484135
5.0299
0.021956
4.02951
4.30544
0.0379739
3.46187
0.10515
7.18638
0.0560578
2.186
0.0479946
0.0217214
0.0220603
0.110364
1.74214
0.0370258
0.0216226
0.0325004
0.022023
4.24679
0.0253343
4.29324
0.0219435
0.119827
0.182842
0.0383238
0.0221014
0.0543157
0.0417591
0.0217725
5.09929
0.0313297
2.86646
0.0569831
0.0391128
5.0186
21.7362
4.75771
0.572582
0.0802885
0.0382892
0.0294784
0.442511
0.0221
0.133973
0.0728098
0.0366736
4.89392
0.0219477
0.0563627
0.0220698
21.5708
0.0236103
0.177401
0.0783078
0.0222035
0.0216018
0.347114
0.0405491
5.97337
0.259241
0.135609
0.029201
0.101692
0.0219323
0.0456148
0.0219842
0.0221056
3.53148
0.0919364
4.04495
1.17818
0.02221
0.0230221
0.160337
0.0222901
0.0239668
0.0219855
0.0386922
10.7162
0.0292154
33.1105
0.275764
0.0221897
0.0940467
1.99416
0.0222866
0.0216746
0.0221685
0.71188
1.76285
0.0222448
0.356761
4.26466
0.308408
0.0218279
0.164914
0.0290353
0.0219884
7.99995
0.0235205
4.90005
0.0223076
2.5535
4.90802
3.80117
24.3439
0.120364
4.78421
3.92493
19.449
0.0222761
3.59173
0.0577401
0.0216639
0.0783992
1.83165
0.0221235
3.13111
0.0219026
0.0260758
1.47588
0.0229912
0.0468728
0.023013
0.0219218
4.08868
0.0334295
0.0434251
0.0220974
0.0219405
0.022002
0.079848
0.0215491
2.0678
0.072411
0.0238732
0.0219116
10.5597
0.0921964
0.0879808
9.90482
0.0240075
2.02336
3.0341
0.0245527
4.94476
0.0486894
0.0486521
0.0397444
0.0221473
0.0219863
4.94404
0.0549666
0.0219542
3.78154
0.059224
0.0788253
0.0219961
0.0637118
0.032489
0.0397819
0.0219206
0.0221644
0.285115
0.0441507
7.39416
0.0627846
0.0376137
0.0605723
15.4539
0.0512375
0.0676728
0.0219317
5.91355
4.62969
19.4197
3.4637
4.57123
0.36692
0.978518
0.0219829
4.3037
0.0957275
0.163073
8.10814
0.0217432
0.0359993
4.00739
0.0219215
0.0216749
31.2324
3.20581
0.0222655
4.69318
5.60549
0.0215359
5.83919
0.283603
5.81975
0.021986
2.98382
0.0220076
0.0222634
34.4673
0.292022
0.118615
0.0454251
4.54369
0.0926632
2.65901
2.82515
0.0354102
0.229033
2.176
0.0365171
4.42073
0.0219163
2.96257
0.0219258
0.0219864
2.31576
0.0222893
0.0216626
3.09284
0.0236292
0.022071
0.032334
1.58289
3.94047
0.0226865
9.28141
0.151429
0.0286226
0.0217728
0.0312171
0.0218703
3.51232
0.0221441
0.128661
2.06554
0.186788
3.95808
0.0245689
16.9281
0.0217911
0.0240193
0.86992
0.0217271
0.0862554
1.73253
0.0219597
0.0596881
4.87481
0.255336
1.62976
0.0603546
2.30444
0.0221281
4.38326
4.11454
0.0218663
0.0220745
0.151452
0.0369484
4.02126
3.60537
3.24412
0.357944
0.0428031
4.75721
0.0215535
0.192259
0.0856756
5.94077
1.78804
0.0490755
0.0217218
0.0294484
3.25177
0.0219328
0.0222233
2.58202
0.0217229
0.0221354
3.91096
3.92759
1.90749
0.0219801
1.73602
0.022089
0.226758
0.0217777
0.727746
0.179089
3.81904
2.18963
5.6853
0.0218083
3.63577
4.9442
3.48096
0.375239
0.713219
2.66634
0.395371
0.232334
0.0218767
3.8814
10.8929
0.596098
0.0219703
3.5871
0.0808105
0.209724
0.0382635
0.0302186
0.0683876
0.02606
4.6112
1.70538
0.021857
0.060137
0.0683028
4.48756
0.0274872
0.034955
0.0286075
2.74543
0.0216666
0.0215454
4.42956
0.392659
5.03663
4.77836
1.1223
1.64056
0.208238
0.0219946
0.022155
0.0405841
0.0465025
0.0661211
0.167994
2.43213
0.022174
0.0369201
0.112556
20.15
0.0231504
0.121421
0.0289972
1.50545
0.0220351
0.817473
0.386316
5.27858
0.022142
0.668978
0.022079
0.0219548
0.02199
1.94893
3.70285
6.61599
0.067982
0.0219874
0.079002
0.404946
4.79236
2.67173
0.0221176
4.64588
0.0540293
0.0518812
2.99489
0.146331
3.6516
26.367