/*--------------------------------*- C++ -*----------------------------------*\
| =========                 |                                                 |
| \\      /  F ield         | OpenFOAM: The Open Source CFD Toolbox           |
|  \\    /   O peration     | Version:  v2012                                 |
|   \\  /    A nd           | Website:  www.openfoam.com                      |
|    \\/     M anipulation  |                                                 |
\*---------------------------------------------------------------------------*/
FoamFile
{
    version     2.0;
    format      ascii;
    class       surfaceScalarField;
    location    "100";
    object      phi;
}
// * * * * * * * * * * * * * * * * * * * * * * * * * * * * * * * * * * * * * //

dimensions      [0 3 -1 0 0 0 0];
oriented        oriented;


internalField   nonuniform List<scalar> 
26940
(
0.131815
-0.0831576
-0.0486573
0.50237
-0.189659
-0.312711
0.128728
-0.47077
0.342042
-0.0353892
0.13109
-0.0957009
-0.0199728
0.00706876
0.0129041
-0.102187
0.10106
0.00112661
-0.373674
0.394032
-0.0203585
-0.0115159
0.0115159
0.00101641
0.00282118
-0.0038376
0.00740782
-0.011247
0.00383921
-0.283586
-0.098792
0.382379
0.275494
0.0602996
-0.335793
-0.00426065
0.00689623
-0.00263558
0.097526
-0.00886059
-0.0886654
-0.0152075
-0.0182087
0.0334162
0.101742
-0.00421636
-0.01592
0.313899
-0.297979
-0.0166735
-0.0218913
0.0385647
0.330916
-0.148253
-0.182664
-0.000987187
-0.00757396
0.00856115
0.112575
-0.125226
0.0126505
0.352268
-0.368188
0.138592
-0.0260167
-0.424175
0.251141
0.173034
-0.00560349
-0.365641
0.371245
0.102033
-0.475707
-0.0887931
0.14131
-0.0525173
-0.213007
0.107592
0.105415
-0.0697453
-0.19279
0.262535
-0.134095
0.0987063
0.00974636
-0.00249383
-0.00725253
0.00524977
0.371943
-0.377192
0.251806
-0.328401
0.0765947
0.365613
-0.192097
-0.173516
-0.231527
0.410232
-0.178705
-0.517358
0.231086
0.286272
-0.00178318
0.00279959
-0.207321
-0.310037
0.0722145
-0.308145
0.235931
-0.00567669
0.0130845
0.372809
-0.481387
0.108577
-0.0928805
0.0526729
0.0402076
0.369623
-0.117817
0.308411
-0.247796
-0.0606145
-0.0728336
-0.0338967
0.10673
0.489606
-0.277223
-0.212383
0.132501
-0.00351692
-0.128984
0.00974636
0.115302
-0.115041
-0.000261612
0.128955
-0.06816
-0.0607946
-0.0516044
-0.113867
0.165471
0.161746
-0.134757
-0.0269884
-0.0781762
-0.0515704
0.129747
0.122557
-0.461366
0.338809
-0.406025
0.122438
0.0102127
-0.00233367
-0.00787904
-0.0472023
-0.0456782
-0.000930564
0.0080428
-0.00711224
0.192643
-0.25237
0.0597273
-0.0162183
-0.157018
0.173236
0.09978
-0.155612
0.0558322
0.202625
-0.0402133
-0.162412
0.00876747
-0.00914997
0.000382493
-0.214061
0.101136
0.112925
-0.0835742
-0.0174348
0.101009
-0.179709
0.367583
-0.187874
-0.00485528
0.00670617
-0.0018509
0.0154338
-0.0209975
0.00556369
-0.00440925
0.0216389
-0.0172296
0.208953
-0.155546
-0.0534065
-0.401552
0.170025
-0.076973
-0.169599
0.246572
-0.123868
0.0510341
-0.184145
0.215688
-0.0315427
-0.019961
0.019961
-0.0201819
0.0266709
-0.00648904
-0.0766753
0.127912
-0.0512368
-0.0127253
0.008316
0.0574431
-0.221531
0.164088
-0.170524
0.467847
-0.297322
-0.479389
0.0142395
0.465149
-0.00148731
-2.50223e-05
0.00151233
-0.237386
-0.433295
0.150241
0.283054
-0.422101
0.532991
-0.110889
0.18272
-0.280341
0.0976208
0.223757
-0.241226
0.0174691
-0.389227
0.548533
-0.159306
-0.143179
0.162531
-0.0193519
-0.262172
0.334386
0.00996195
-0.0100156
5.36575e-05
-0.126659
0.0171064
0.109553
-0.00812378
0.00142126
0.00670252
0.290192
0.18895
-0.479141
-0.0793721
0.452182
-0.0666918
0.249412
-0.0664546
-0.298617
0.365072
0.105957
-0.11092
0.00496295
-0.1814
0.145525
0.0358744
0.0335522
-0.187552
0.154
0.489608
-0.475833
-0.0137755
-0.433863
0.138477
0.295386
0.0301824
-0.0453899
-0.0877413
-0.12632
0.111203
0.0977499
-0.324757
-0.109106
-0.0210853
0.0163571
0.00472815
-0.0050617
0.00247733
0.00258438
0.117957
0.0224693
-0.140426
-0.294397
-0.103139
0.397536
0.00587616
-0.00680672
-0.000737793
-0.00185868
0.00259648
0.00320138
-0.00344267
0.000241291
-0.0254954
0.0519609
-0.0264655
-0.0919495
0.400149
-0.308199
0.109972
0.215383
-0.325356
-0.103912
0.11545
-0.0115383
0.00234182
0.00146525
-0.188542
-0.0365168
0.225058
-0.0635276
0.0121162
-0.0244027
-0.0288187
-0.226146
0.156401
-0.0201536
-0.0714807
0.0916343
-0.0310649
0.0282941
0.00277083
-0.137855
0.0989384
0.0389164
-0.389302
0.243754
0.145548
0.233138
-0.382553
0.149415
0.00699852
-0.00330512
-0.0036934
-0.179331
0.105524
0.073807
-0.0745325
-0.0336537
0.108186
0.116683
-0.123865
0.00718158
0.0292683
0.0160734
-0.0453417
0.1567
-0.218647
0.0619465
-0.0015357
-0.00732231
0.00885801
-0.173838
0.0715445
0.102294
-0.0215693
0.15407
-0.446712
0.239391
0.141385
0.200812
-0.342197
-0.048701
0.205401
0.000473589
0.00404859
-0.00452218
-0.00476422
-0.000118356
0.00488258
-0.101895
0.0183213
-0.0617396
-0.0361751
0.0979147
-0.00360847
-0.00488424
0.221103
-0.103146
-0.00511284
-0.0438254
0.0489383
-0.0120005
0.0120005
-0.0523613
0.0124921
0.0398692
0.218554
-0.297144
0.0785894
0.242707
-0.09856
-0.144147
0.358167
-0.424622
-0.00381306
-0.000207973
0.00402104
-0.0210853
-0.0622503
-0.0756044
-0.0777858
-0.303875
0.381661
-0.433018
0.138621
-0.214017
-0.009914
0.223931
0.0108719
-0.00210447
-0.297844
-0.148869
0.00273787
0.109844
0.318353
-0.428197
0.019666
-0.00996593
-0.00970007
0.144903
-0.221625
0.076722
-0.417318
-0.0380389
0.455357
0.0185669
0.0162614
-0.0224558
0.00619445
-0.102771
0.375243
-0.272472
0.00135932
-0.00496779
-0.000951286
-0.000727876
0.00167916
0.00598964
-0.00598292
-6.7146e-06
-0.0978659
0.111033
-0.0131669
-0.0634216
0.0379262
0.0596982
-0.134231
0.0157863
-0.000352547
0.0711851
0.0143305
-0.0855156
0.128948
0.181733
-0.310681
-0.0440042
0.0213837
0.0226205
-0.00401336
-0.0231338
0.0271472
-0.237257
-0.285528
0.522785
-0.463726
0.0744995
-0.348783
0.256833
0.0479384
-0.137052
0.0891132
0.0248428
-0.046441
0.0215982
-0.039346
-0.00465819
0.0152586
0.0585966
-0.0738552
-0.256559
0.4247
-0.168141
-0.137159
0.0438188
0.09334
-0.0471139
-0.0872123
0.134326
-0.339341
-0.0447006
0.384042
-0.22864
0.338612
-0.0310371
0.130817
0.271573
0.0593437
0.180067
-0.164596
-0.01547
-0.263627
-0.169667
-0.186335
0.140285
0.0460502
-0.00760288
0.000180485
0.00742239
-0.0899348
-0.0122518
-0.131877
-0.0544578
0.00271888
-0.00367093
-0.00139078
0.00870652
-0.106572
-0.00168571
-0.00300249
0.00468821
-0.187141
0.313528
-0.126388
-0.0126784
-0.0396829
0.0252068
-0.200984
0.175777
-0.16991
0.0351524
0.00284582
-0.00433313
0.0104568
-0.000244083
-0.0196965
0.0228966
-0.00320009
0.0116421
-0.0116421
-0.0119088
-0.00806401
-0.00478424
2.00195e-05
0.265113
-0.174247
0.365911
-0.191664
-0.14067
0.183991
-0.0433212
-0.102382
-0.0242772
-0.0797666
-0.0145375
0.0943041
0.00204488
0.00356487
-0.00451615
-8.51828e-05
6.01605e-05
-0.173262
-0.0286512
0.201913
0.0162733
0.316402
-0.332675
-0.40981
0.153252
-0.0941239
0.0499741
0.0441499
0.0111381
-0.0110815
-5.65665e-05
-0.106539
0.287227
-0.180688
-0.10657
-0.00434983
0.546753
-0.395805
-0.150947
-0.149865
-0.0450229
0.194888
-0.297585
0.110444
0.00899196
-0.00927158
0.000279617
-0.00355771
4.39644e-05
0.00351375
0.25636
-0.0998717
-0.156488
0.00534152
-0.00743155
0.00209003
-0.410147
0.544449
-0.134302
0.100714
-0.26113
0.160416
-0.178634
0.0379643
-0.0863386
-0.0600335
0.146372
-0.00626135
0.00461461
0.00164674
0.0611633
-0.0662761
0.162981
0.0170853
-0.00114131
0.00135956
-0.000218249
0.00877047
0.00112874
-0.00989921
-0.153528
0.13731
-0.00454304
0.049436
-0.0448929
-0.200067
0.220015
0.0839762
-0.000100983
-0.00104033
-0.000225379
-0.00969868
0.00992406
0.225433
-0.247587
0.0221542
0.0631462
0.0686687
0.412145
-0.179008
-0.232579
0.257785
-0.10201
-0.0773205
0.00165558
-0.00546864
0.00695953
-0.00147836
-0.00548117
0.110744
0.295694
-0.406438
0.000658106
-0.000163066
-0.00049504
0.00143053
0.00455911
-0.43145
0.0141321
-0.189991
0.37022
-0.180229
0.00787459
-0.00253307
-0.0957236
0.116921
-0.0211977
0.029982
0.0853202
0.000353969
-0.00139569
0.00104172
0.00117039
0.000469818
-0.00164021
0.000146711
0.000358693
-0.000505404
-0.205958
0.0218125
-0.0365951
-0.442794
0.114791
-0.0812385
0.0401615
-0.345483
0.171236
0.316443
-0.470133
0.15369
0.000145898
-0.0181164
0.0179705
0.147158
0.0153725
-0.00115475
-0.00653508
0.00768983
-0.0333414
0.029328
0.220911
0.325842
-0.0246601
0.00447818
0.363417
0.123522
-0.0212696
-0.102253
0.000854359
-0.00570963
-0.184197
-0.0217606
0.171482
-0.278594
0.107112
0.0646941
-0.237956
-0.140297
0.0416385
0.0986582
-0.0183203
0.220946
0.296008
-0.149249
-0.146759
-0.00225559
0.000472415
-0.0287985
-0.319984
-0.0357198
-0.177287
0.115767
-0.137336
0.22083
-0.121785
-0.0990456
-0.292376
0.40312
-0.222844
0.0386463
-0.00193491
-0.00566797
-0.310627
-0.0539442
0.364571
-0.136993
-0.20849
0.179196
-0.285734
-0.0658649
0.0613219
0.00906997
0.0336708
-0.0427408
-0.443242
0.272718
-0.31539
0.0783486
0.237042
-0.0987309
0.415174
-0.0251189
-0.029381
0.0544998
-0.402647
0.192445
0.210202
0.00935447
0.00110232
-0.137036
0.105105
0.031931
0.187235
0.121176
0.21247
-0.330233
0.117763
0.146174
-0.218592
0.0724178
-0.0218142
0.00622007
0.0155941
-0.00530137
0.00431419
0.0532198
0.106349
-0.159569
0.316713
-0.345512
-0.0139734
0.014383
-0.000409578
-0.0577477
0.0105626
0.0471851
0.106511
0.11432
0.17592
-0.101281
0.10165
-0.000369624
-0.15523
0.362877
-0.207647
-0.132406
-0.048994
-0.00366214
0.00197642
-0.123165
0.0274415
0.133567
-0.110769
-0.0227986
-0.122949
0.0547888
0.189165
0.106843
-0.175951
-0.226696
-0.296327
0.400554
-0.104227
0.00231303
0.000973041
-0.00328607
-0.20932
0.350705
-0.00641994
-0.0933343
-0.337951
0.0588827
0.279068
0.0391939
0.00812592
-0.0473198
0.00226352
-0.00300713
0.000743616
0.103931
-0.0130923
-0.090839
0.000263247
0.000394859
0.00900726
0.000954691
0.00615473
-0.00195099
-0.00420374
0.323578
-0.105024
-0.000841655
-0.00103774
0.0018794
-0.0934291
-0.0078516
0.0028944
0.00481694
-0.00771134
-0.16959
0.270304
0.263198
-0.378418
0.11522
0.346723
0.0327728
-0.379496
0.15584
-0.10262
0.186486
-0.263459
0.0596414
-0.14598
-0.00475362
0.197396
-0.0195331
0.1353
-0.322672
0.185679
0.307531
-0.43025
0.122719
0.0472901
0.0179389
-0.065229
0.178713
0.0450443
0.00703071
-0.0647784
0.166584
-0.153837
-0.012747
-0.142827
-0.385897
0.0895694
-0.342971
-0.120756
0.000682721
0.000487672
0.00151077
-0.00215891
0.000648142
0.116674
-0.40905
0.298542
-0.402905
0.104363
0.210981
0.131938
-0.342919
-0.394771
0.00433844
0.390432
-0.0124984
0.0991892
-0.0866908
0.567361
-0.330598
-0.236763
-0.0064079
0.00850541
-0.00209751
-0.0350652
0.0183918
-0.526574
0.400793
0.12578
-0.299983
0.144753
-0.0921385
0.0788778
0.0132608
0.00248516
-0.00235255
-0.00013261
-0.0166396
0.0558335
-0.00205071
0.00494511
0.379855
-0.516033
0.136178
0.00198706
-0.00435793
0.108289
-0.0244225
0.00530773
-0.00483414
-0.0219667
0.102699
-0.0807326
0.107199
0.135508
0.0756578
-0.240817
0.16516
-0.328756
0.26305
0.0657055
0.190511
0.220253
0.299464
-0.519716
-0.000425379
-0.00583597
-0.218416
-0.11034
0.285276
0.116729
-0.402004
0.153911
-0.221602
0.0676904
-0.050518
-0.239064
0.289582
-0.00207033
0.00329336
-0.00122303
0.0329005
0.0935679
-0.126468
0.1719
-0.471931
0.300032
0.166934
-0.0092659
0.00114213
0.217362
-0.396256
0.178893
0.245448
-0.404105
0.158658
0.268298
-0.277171
0.00887267
0.0930203
0.00962922
-0.102649
-0.000506902
0.00277042
-0.226323
0.516514
0.056156
-0.0408974
-0.285536
0.202322
0.0832145
-0.21262
-0.0849648
0.00120659
0.00673125
-0.00793784
0.0060465
-0.00483991
-0.257478
0.104494
0.152984
0.0451822
-0.0703011
0.00435893
-0.132162
0.119582
0.0125804
-0.0632485
0.0617519
0.00149665
0.0751073
0.143284
-0.218391
-0.0116089
-0.175943
-0.0729035
-0.0673932
0.0695528
0.00520389
-0.0747567
-0.145523
-0.414122
-0.516224
0.302053
0.214171
0.313647
-0.155027
-0.15862
-0.195911
-0.19339
0.0142906
0.00197075
-0.208289
0.0416216
0.166667
-0.0149552
-0.0133159
0.0282711
-0.325049
0.453778
-0.106032
0.0858781
0.236985
0.128627
-0.000760728
0.0022715
0.0126414
-0.0126414
0.174356
-0.0615276
-0.112828
0.022854
-0.0122273
-0.0106267
0.0274914
0.106076
0.164398
-0.18818
0.136575
-0.00299904
0.000928704
-0.0474883
-0.00622454
0.0537129
0.462889
-0.456824
-0.00606556
-0.00618191
-0.00022599
0.160907
0.0183878
-0.179294
-0.28248
-0.117677
0.400157
-0.00748409
-0.0235808
-0.00342574
0.0042801
0.324381
-0.308108
0.00605083
0.0136152
-0.00139783
0.000556171
-0.317994
-0.115024
-0.013151
0.013151
0.0673821
-0.0798805
-0.293821
0.0812011
-0.0382997
-0.0558243
-0.0216819
0.0218278
-0.0131687
0.0843537
-0.170557
0.05669
-0.00754769
-0.0118565
-0.00211692
-0.070202
0.103103
-0.0683975
-0.063143
0.13154
0.258137
-0.308654
-0.00743941
0.00413429
0.181219
-0.329471
0.308872
-0.126106
-0.182766
0.015095
0.007759
-0.00180894
-0.0614396
0.150487
0.0800261
-0.230513
-0.0800386
-0.177439
0.175056
-0.0141491
-0.149986
0.225093
-0.252951
0.0528842
0.314118
0.032605
-0.460974
0.0388725
0.133286
-0.109903
-0.0233829
0.000391829
0.0053106
-0.00570243
-0.464779
0.121808
0.136625
-0.0131027
-0.506155
0.111384
-0.000627659
-0.00617455
0.00680221
-0.282909
-0.233315
-0.446626
0.0364788
-0.0270244
-0.0762383
0.103263
0.00490263
0.0225464
-0.027449
0.107572
-0.101448
-0.00612433
-0.000540858
0.000123134
0.000417724
-0.277398
-0.110123
0.387521
0.366072
-0.0882624
-0.27781
0.000602994
-0.000688177
-0.000247188
-0.0418346
0.0420818
0.0832267
-0.14326
-0.246528
-0.0167035
0.263231
-0.0422684
0.0465687
-0.00430033
-0.00618231
0.0310251
-0.300974
-0.154558
0.455532
-0.399417
0.296647
-0.0392957
0.419151
-0.0116077
-0.187825
0.199432
-0.00201035
0.00432338
0.000493419
-0.000823609
0.000330191
0.311201
-0.195902
-0.115298
-0.246606
0.0588467
0.18776
-0.0550903
0.0143723
0.0407179
-0.00138555
-0.00632833
0.00771388
-0.010939
0.000314072
0.0106249
-0.116277
-0.18343
0.00863749
0.174792
-0.0410423
0.107888
0.452391
-0.246331
-0.20606
-0.4369
0.14668
0.29022
0.0553807
0.28998
-0.345361
-0.0809634
0.158874
-0.0779102
0.0409995
-0.0316893
-0.00931019
-0.0170995
-0.0354132
0.0525127
-0.0104029
0.0799557
0.170003
0.104784
-0.10406
-0.000723792
-0.277324
0.27172
0.271972
0.202106
-0.474077
0.00103275
-0.000176933
-0.000855816
-0.0201251
0.0391288
-0.0190037
-0.118586
-0.0185724
0.0275494
-0.0276794
0.000130014
0.00331704
-0.00011566
-0.0362205
0.0411231
-0.000464276
0.000957695
-0.115714
0.0390385
0.00080928
0.00126538
-0.00207466
0.00757449
0.000222273
-0.00779676
0.106848
-0.110365
0.00797933
0.00101263
0.36058
-0.0850868
0.0543208
0.0247803
0.200653
-0.202921
0.274853
-0.0719317
-0.0244372
-0.030653
-0.0976608
0.0359212
-0.140551
-0.111819
0.0753184
-0.0985023
0.0231839
-0.00860369
0.055638
-0.0470343
0.189992
-0.105625
-0.084367
0.317627
-0.395412
0.158048
0.110419
-0.268467
0.0328117
-0.0529368
-0.000554314
0.00227952
-0.0017252
0.00101456
-0.00155542
-0.12057
0.393555
-0.272985
0.101385
-0.0260667
-0.006141
0.00283914
0.00330186
-0.0660602
0.227892
-0.161831
-0.0703919
-0.215144
-0.0769592
0.28794
0.0697425
-0.160859
0.0911166
-0.00447625
0.0337446
-0.0013163
0.00719246
-0.314825
0.437382
-0.00170781
0.00455363
-0.488316
0.268585
0.219731
-0.00769345
-0.00200523
-0.0975865
0.15503
-0.0138703
-0.225458
0.239329
-0.155896
0.0104812
0.145415
0.0067818
-0.00816735
0.323028
-0.110558
0.348234
-0.421009
0.0727756
-0.00469118
0.00508301
-0.00291241
0.0020888
-0.122452
0.0325076
0.089944
0.0426745
0.0138569
-0.260385
-0.159543
-0.283699
0.342578
-0.390016
0.0474378
-0.00115654
0.00667002
-0.00551348
-0.00533835
0.0622782
-0.0569398
-0.00592306
0.00415203
0.00177102
0.169634
-0.00933756
-0.160296
-0.0484112
0.0313117
-0.000221829
-0.00147961
0.00170143
-0.0816358
-0.0969983
0.0080428
0.0254413
-0.208871
0.00989199
0.00124612
-0.0607961
-0.318223
0.37902
-0.0378113
0.031629
-0.000744056
0.00328471
-0.00254065
0.0136011
0.0338442
-0.0474454
-0.0724727
0.00132286
0.00483187
0.00601858
0.00306146
-0.00908004
-0.0343968
-0.268905
0.303302
-0.00377493
0.0240413
-0.0202664
0.0161984
0.255374
-0.415088
-0.0462775
-0.010939
-0.00201244
0.00214899
-0.000136556
0.430319
-0.258419
-0.412888
0.0948942
0.436549
-0.326704
-6.40227e-05
-0.0196325
-0.000407305
-0.0011422
0.00154951
-0.074146
0.42238
0.106889
-0.0580894
-0.0487993
-0.137178
0.212836
0.197567
-0.27725
0.0796834
0.120353
-0.397751
-0.111269
-0.00996599
0.121235
0.108565
-0.00378159
0.195249
-0.0503454
0.00265606
0.0189828
-0.292327
0.409001
-0.102279
-0.0242714
-0.0113287
-0.000187279
0.105228
-0.0861184
-0.0191095
0.00813809
-0.000563601
0.00645799
0.00201888
-0.00847687
-0.0387196
-0.181483
0.220202
0.00399466
0.00290157
-0.0217535
0.0215063
-0.0703376
0.174261
-0.103923
-0.00864776
-0.0219463
0.030594
-0.106522
0.0907373
0.0157848
-0.198173
-0.0233583
-0.0877858
0.14206
-0.0542738
-0.00194659
-0.00105245
0.0929082
0.0814476
0.0655949
-0.133992
0.201702
-0.231226
0.0295235
-0.177235
0.00773297
0.169502
-0.00214634
0.320778
-0.355175
-0.0144972
0.0229862
-0.00848897
-0.131197
0.0502332
-0.018299
0.0846107
-0.0663116
0.107637
0.455685
-0.197548
-0.0470752
-0.234148
0.281223
-0.00571392
0.00637447
-0.000660542
-0.344482
-0.076527
-0.16827
-0.320046
0.127511
-0.0387886
-0.0887224
0.293166
-0.396834
0.103668
-0.0723855
-0.0810269
0.0119429
0.10474
-0.273569
0.0850271
0.160481
-0.17253
0.0120488
-0.272785
-0.113111
0.00365956
0.0126976
0.00923294
-0.000462464
0.0142633
-0.0182723
0.00400904
0.196922
0.00478094
0.00999546
-0.000223013
-0.00977245
-2.9591e-05
-0.000434685
-0.0439266
0.00611526
-0.312502
0.242226
0.0702755
-0.00013307
-0.000421244
-0.0329468
0.206949
0.0121476
-0.0110373
-0.437795
0.174168
0.0613334
-0.0108693
-0.0504642
0.00290968
0.0680533
-0.070963
-0.000264198
-0.00189472
0.0116702
-0.0662056
0.0926243
-0.0264187
-0.00409366
0.00366828
-0.424958
0.0632123
0.00633879
-0.00844747
0.00210868
0.153983
0.335626
0.0550681
-0.156484
0.101416
0.100074
-0.170412
0.322612
-0.181273
-0.141339
-0.531648
0.311309
0.220339
0.00567037
0.00201694
-0.00768731
-0.0165378
0.133742
-0.117204
0.0934816
-0.227753
0.134271
0.00567283
-0.00738064
0.00928274
-0.00779309
-0.00148966
0.0291801
0.0571101
-0.0862902
-0.0147255
0.184552
-0.133912
-0.0506399
0.378051
-0.414646
-0.135353
0.352715
0.332014
-0.276634
0.254022
-0.125074
0.0222784
0.0187211
-0.00534904
-0.150547
-0.0253526
-0.00796255
0.0333152
0.000240285
-0.0087597
0.00851942
-0.00529905
-0.00385092
-0.0088087
0.00904899
0.046737
-0.052233
0.00549599
-0.174154
0.039338
0.134816
-0.247887
-0.134666
-0.0484387
0.0513484
0.422511
-0.221698
0.00836467
-0.00224608
-0.00611859
0.0011641
0.00359037
-0.00475446
-0.383006
0.100526
-0.101721
0.187137
-0.0854162
-0.000711441
0.00153629
-0.000824853
-0.00263362
0.0037901
-0.00115648
0.0138949
0.0136545
0.167223
-0.00674248
-0.14932
-0.316181
0.107743
0.208439
-0.00507548
0.00486751
0.00800636
-0.00166757
-0.00456269
0.0468144
-0.0422517
-0.114574
0.00805149
0.0810701
-0.0942387
0.0117171
-0.0955831
-0.0189905
0.00745811
-0.00370582
-0.0037523
-0.00371258
-0.0487275
0.0524401
-0.00040924
0.0471462
0.255949
-0.00351288
-0.0057587
0.0851412
-0.106411
0.1209
-0.137438
-0.000489811
-0.00360385
0.405816
-0.132507
-0.273309
-0.136053
0.040016
0.0960366
-0.0393045
0.0529056
0.178613
0.227202
0.111595
-0.0950127
-0.0165821
0.0045147
-0.052003
0.00362984
0.00382827
-0.0028548
0.00300151
-0.0403662
0.115606
-0.0752397
0.18378
-0.00200513
-0.181775
-0.41837
-0.113278
0.00175298
-0.0440213
-0.0761109
0.0152695
0.0608414
-0.0561393
-0.117699
-0.000557807
-0.000840018
0.248028
-0.309681
0.0616534
0.00404888
-0.00427071
6.46199e-05
-0.000802413
-0.181191
-0.0157111
0.196902
0.151427
-0.128957
-0.381227
-0.0445082
0.425736
0.120733
-0.0195614
-0.101172
0.444262
-0.0662113
0.010583
-0.00130027
0.0774723
0.0557749
-0.133247
-2.67616e-05
0.00250409
0.0834052
0.415907
-0.237294
-0.108069
-0.208112
-0.0261493
0.0224367
-0.00201879
0.00199202
0.0389819
-0.12214
0.00528383
-0.00905876
0.0265072
-0.142232
0.115725
0.0780125
-0.0636819
-0.25569
-0.182105
-0.426032
-0.00654568
0.432578
0.0223982
0.0493186
-0.0717168
0.251111
-0.100624
0.0395579
-0.087473
0.0479151
-0.0128923
0.0675538
-0.00231354
-0.0652403
0.0150596
-0.0948262
0.176597
0.107346
-0.283944
-0.00579002
-0.000944334
0.00673435
0.0205925
-0.00558819
-0.0150043
0.00114385
-0.0404898
0.066039
0.190321
0.479962
-0.361596
-0.118366
-0.123875
0.217357
-0.447114
0.372096
0.0750179
-0.120302
0.0199537
0.100348
0.0588218
0.162281
0.395557
-0.120895
-0.274662
0.106256
0.00533904
0.217277
-0.130635
-0.0866418
0.00338495
-0.00454149
-0.0223163
-0.0613944
0.0837107
-0.104671
-0.226206
-0.300368
-0.00172002
-0.000226569
-0.105622
0.321006
-0.224817
0.0436257
-0.0106629
0.0102568
0.0108858
0.0504476
-0.291937
0.203674
-0.0645365
0.0422202
-0.00311764
0.000484026
-0.368034
0.225204
0.14283
-0.29754
-0.13936
0.283388
-0.223088
0.0659042
-0.0367241
-0.00139259
0.0011284
-0.413487
-0.00653211
0.0073248
-0.00079269
0.374094
0.193267
0.00768274
-0.00494487
-0.00227727
0.0105813
-0.00830399
-0.00187447
-0.00105849
0.00377738
0.00100255
0.172058
0.011722
-0.00241104
-0.0194031
-0.0530444
-0.422788
-0.048257
0.0355786
-0.212842
-0.155192
-0.381008
0.392672
-0.0116636
0.0982103
0.29103
-0.38924
0.177511
-0.294052
0.11654
0.00637081
0.000485616
-0.00685642
-0.0664284
-0.197633
0.264062
0.0980992
-0.442581
-0.0582974
-0.257093
0.172928
0.222629
-0.0444869
-0.0255455
0.0700325
0.138539
-0.185298
0.0467595
-0.00151685
0.00829865
-0.288752
0.409105
-0.322397
-0.124717
0.276077
0.0156579
0.00493463
-0.00804522
-0.00395528
0.0070221
-0.0302584
0.0153032
-0.384657
0.00364895
-0.00024067
-0.0017135
-0.000298941
0.158137
-0.169744
0.305266
0.0426088
-0.347875
-0.00974088
0.0056133
0.00412758
-0.00716102
0.00653336
0.195184
-0.183691
-0.0114933
-0.040248
0.126456
-0.0862075
0.00163095
0.0304019
-0.0320328
0.0597837
0.0735023
-0.278527
-0.0339747
0.163449
-0.104183
-0.0592655
-0.15578
-0.0214552
0.0620034
0.101445
-0.00354099
-0.000739906
0.00428089
0.00153686
-0.00381413
-0.0758826
-0.224484
0.300367
-0.0089485
0.00864157
0.000306922
0.192589
0.223318
-0.000438153
0.0823867
-0.0819485
-0.0211729
0.142073
0.149177
-0.0895357
0.104196
0.00752877
-0.00928102
0.00175224
-0.00613838
-0.000393729
0.0509532
0.0111802
-0.0621334
0.466298
-0.136216
0.116683
0.26705
0.188635
0.00270731
-0.4906
0.221694
0.0117061
0.14972
-0.161426
-0.225815
0.0701788
0.155636
-0.0991164
0.377691
-0.278575
0.00837181
0.059182
-0.182972
-0.0253171
-0.232075
-0.0660087
0.298084
0.00552916
0.00936545
-0.0148946
-0.466078
0.389804
0.0762743
0.001075
-0.00181905
-0.068255
0.175847
0.0696304
0.00695992
-0.0765903
0.370793
-0.247643
-0.12315
0.112239
-0.0186713
0.052444
-0.0744034
0.0219593
0.185095
0.00636644
-0.0840972
0.0960638
-0.0119666
-0.0200509
0.0953441
-0.343231
0.025067
0.120458
0.07575
0.0521621
0.00321067
0.0198355
-0.0230462
0.346319
-0.0410525
0.0326831
-0.2467
0.0991671
0.100995
-0.200162
0.0049386
-0.0194358
-0.39728
0.27891
0.11837
0.129661
-0.0179455
-0.111716
-0.0444484
-0.0758535
-0.0235107
0.162049
-0.275934
-0.129543
0.405477
-0.441122
0.0150904
0.458004
-0.0110374
-0.446967
0.0338585
0.0777559
-0.111614
-0.0898394
-0.0680775
0.0235906
-0.0329524
-0.10329
0.136242
0.242516
-0.318398
0.199982
-0.19605
-0.00393201
0.00121002
0.00878544
-0.264335
-0.0800582
0.344393
-0.0239596
0.203834
-0.179874
-0.150808
-0.198616
-0.291984
0.155858
-0.0653693
-0.0904884
0.116853
-0.0905456
-0.0263069
0.019897
-0.10294
0.0759153
0.165806
-0.244208
0.0784021
-0.0740575
0.250655
-0.00901803
0.000850679
0.00731709
-0.000859102
0.0129007
-0.0382534
-0.00647094
0.0082697
-0.00179876
-0.0573474
0.0520091
0.0117988
0.12252
-0.411272
0.0686835
-0.170405
-0.00805762
0.00654077
0.00766956
-0.000140788
1.09916e-05
-0.00343674
-0.341371
-0.124707
0.0778365
-0.0253925
0.103602
0.00942059
-0.000935882
-0.00247457
0.00920046
-0.00672589
-0.0867241
-0.245321
0.332045
-0.0587157
0.0342785
-0.0800116
0.149754
0.00481099
0.00441871
-0.0092297
-0.000879806
0.00788212
-0.00700232
0.0227775
-0.00851418
0.400576
-0.076876
0.0976002
-0.0207242
0.447068
-0.226815
-0.312042
0.233477
0.0785654
-0.000918123
0.000360316
0.299709
0.176482
0.20354
-0.250615
0.00210582
-0.00175185
0.000375014
-0.00384998
0.00347497
0.359273
0.01002
-0.00434962
0.0183846
0.0222231
-0.0406077
-0.330331
0.101691
-0.0183345
-0.0119239
-0.410472
0.134538
-0.00442988
-1.19805e-05
0.00444186
-0.00121948
-0.00539576
0.00661524
-0.00658443
0.00651242
0.00350757
-0.0916548
0.0201741
0.0204054
0.00249125
-0.38642
0.265849
-0.166916
-0.0588982
0.0968429
-0.294336
0.197493
0.365631
-0.402629
0.0369978
-0.144049
0.327958
-0.183909
0.217432
-0.152738
-0.00123662
0.00212683
-0.000890208
0.000529099
-0.00170643
0.00117733
0.22948
0.0272008
-0.256681
0.00161467
-0.00726989
0.00565522
0.193125
-0.162942
-0.030183
-0.106329
0.0163942
0.294192
0.0588006
-0.352992
-0.0801046
0.245911
0.000847964
-0.00663798
0.00326747
-0.00696087
-0.00904322
0.00656865
-0.00308969
-0.0404223
0.043512
-0.399153
0.167078
-0.0146552
0.161814
-0.00470931
-0.00386606
0.00857537
-0.0708561
0.21414
0.103006
-0.00998544
0.0909218
-0.0513639
0.0086734
-0.00539651
-0.00327689
0.00357864
-0.0132221
0.00964348
0.163052
0.0967321
-0.361067
-0.218719
0.0687333
0.347047
-0.440263
0.0932167
0.0783158
-0.0966148
-0.00580232
0.0113315
-0.250852
-0.089793
0.0235874
-0.442677
0.101305
-0.0823507
-0.388419
0.374356
-0.25651
-0.117846
-0.00606729
0.00106484
0.00500246
-0.098205
0.408727
-0.286208
-0.199176
0.306522
-0.00712102
-0.00168911
0.00881013
0.144509
-0.336605
-0.00882898
0.00794918
-0.00247751
-0.00179251
0.00427002
-0.122138
-0.206262
-0.0729867
0.0953848
0.193672
-0.00570679
-0.00403409
-0.00323237
-0.00862412
0.00297397
-0.00048881
-0.00762776
0.0905934
-0.0829656
-0.143846
0.442715
-0.298869
-0.105761
0.132268
0.0146001
-0.000646668
-0.0139535
-0.231729
0.0818637
0.00244349
0.00955701
0.00649183
0.00395819
-0.01045
-0.00132264
0.0428249
-0.201219
0.158394
0.16971
-0.108497
-0.0612124
-0.203138
0.0296261
0.173512
-0.173708
0.216532
0.0470794
-0.00538486
-0.0416945
-0.00697076
0.00329984
0.0522288
0.0315398
-0.120867
0.0893272
0.221582
-0.12076
0.0311461
0.0896142
-0.126586
0.0223866
0.104199
-0.17001
0.227048
-0.0570387
-0.0645023
0.0707261
-0.00622385
-0.00279344
-0.00622459
0.000422145
-0.00871389
0.00829175
-0.00922815
0.0160647
-0.126833
0.0124669
-0.0308014
-0.0082285
0.00175757
-0.366032
-0.0365966
0.163034
-0.238786
0.0757512
0.454566
-0.417255
-0.0373108
0.0183907
0.0438875
0.0358964
-0.175855
0.139958
-0.0228616
0.107635
-0.140587
0.0863931
-0.0690404
-0.0173527
0.132006
0.075593
-0.207599
0.0873551
0.445146
-0.0731961
0.0240965
0.0490996
-0.0019188
0.00272808
-0.000203559
0.0169006
-0.0213555
0.00445493
0.00154542
0.0100967
-0.138507
-0.264398
0.275495
-0.171001
-0.00214224
-0.0681482
0.0361656
0.0319826
-0.357779
0.303835
-0.196253
0.223454
0.000141341
0.00331803
-0.00345937
0.0720502
0.0692602
0.110241
-0.0113025
0.175168
0.0588083
-0.261729
0.00732724
0.00190569
0.00889032
-0.00899146
0.000101138
0.0430579
-0.0393983
-0.294768
0.208044
0.0004103
6.51141e-05
-0.000475414
-0.17874
0.133717
-0.114506
0.0866254
0.0278807
-0.000986601
0.00200116
0.16327
-0.199787
0.114117
0.0417403
0.116991
-0.0831323
0.00369218
0.00322763
-0.00691981
-0.00562981
0.00692472
-0.00129491
-0.0650372
-0.153038
0.218075
0.00026184
-0.00144783
0.00118599
0.0505111
-0.0161379
-0.0343732
0.0918483
-0.0107782
0.144026
0.0459655
-0.00200103
0.00201203
0.083315
-0.123681
0.00246146
-0.00437634
0.00191488
-0.411712
0.0618772
0.349834
-0.364112
0.0602366
-0.449663
0.17718
0.272482
-0.357358
0.280923
0.0764353
-0.170359
0.0704868
-0.127405
-0.0431523
-0.144075
-0.320704
0.0670876
0.322327
-0.0894505
-0.00561701
0.00446226
0.386535
-0.110861
-0.275674
0.153088
-0.0462394
-0.000912896
0.00980322
0.00354115
-0.00459964
-0.0246789
-0.0551943
0.0798731
0.276525
-0.0990136
0.295031
-0.107796
-0.266561
-0.137544
0.0690142
-0.480726
-0.00572563
-0.109942
0.0149293
-0.0536314
-0.0834047
-0.00895227
-0.00031046
0.00926273
-0.00692354
0.00570405
0.0311445
0.237154
-0.0304005
-0.106651
-0.0441227
-0.162366
0.206489
0.51545
-0.243478
-0.00289617
0.0669413
-0.236951
0.0766129
0.0389929
-0.127356
0.413416
-0.286061
-0.117194
-0.0596583
0.184912
-0.125253
-0.437407
0.293561
0.108567
-0.132592
0.0240248
0.017327
-0.0955032
-0.156037
0.127386
0.0248044
-0.00439902
-0.287973
-0.069385
-0.253751
0.239881
-0.00521823
0.0561714
-0.194024
0.106283
0.00791262
-0.00589568
-0.00346293
-0.092197
0.09566
0.0750337
0.078054
-0.0975758
0.0830384
-0.00416631
-0.00747579
0.00124834
0.00405939
-0.237665
-0.0325027
0.270167
-0.00409055
0.0051233
-0.201704
0.101663
0.100041
0.00916663
-0.00435565
-0.151597
0.176904
-0.025307
0.00357685
-0.0033136
0.00566484
-0.00481688
0.00126472
-0.00466541
0.0183512
-0.0298719
-0.0336557
-0.135247
0.293295
-0.460285
0.159311
-0.0378992
0.256308
-0.218409
0.000497401
-0.00120884
0.11495
0.0690407
0.00133
-0.0014201
0.00146406
-0.00470204
-4.07314e-05
0.00474277
0.106838
-0.36497
0.258132
0.00290627
-0.00264443
0.00564253
-0.00447843
0.0702801
-0.435921
0.267617
-0.0640769
-0.127427
0.0396416
-0.246033
0.0885162
0.157517
0.0175335
-0.0143228
-0.0729069
-0.121117
0.17689
-0.0229783
0.00483959
-0.276061
0.422741
0.00989453
-0.00958046
0.110174
0.107103
-0.225197
0.215283
-0.0172558
0.0883009
-0.0710451
-0.211901
0.0158516
-0.00438083
0.258986
-0.241523
-0.0174632
0.000249111
-0.345745
-0.0945186
0.00435628
-0.00398127
0.33003
0.124537
0.0845491
0.19931
-0.283859
-0.00788563
0.00465325
-0.0397467
-0.0689868
0.108734
0.271218
-0.347951
0.144525
0.203425
-0.0182706
-0.022855
0.0411256
0.266199
0.315065
-0.430388
0.115323
-0.00718666
0.00624232
-0.172522
-0.063499
0.236021
-0.00686272
0.00664249
0.000220229
0.0256492
0.0773166
-0.102966
-0.361318
-0.0989665
0.00709634
0.00157224
-0.00866858
-0.000647753
0.000606484
4.12694e-05
-0.126804
0.0633345
0.0634697
-0.0319379
0.139445
-0.107507
-0.175784
0.254133
0.00185603
0.168867
0.126165
-0.0743926
-0.06166
-0.131066
0.449419
0.0520922
-0.0775715
0.0254793
-0.200241
0.140583
0.0879278
-0.325592
-0.123517
0.0963218
0.0271947
0.199762
-0.00123602