/*--------------------------------*- C++ -*----------------------------------*\
| =========                 |                                                 |
| \\      /  F ield         | OpenFOAM: The Open Source CFD Toolbox           |
|  \\    /   O peration     | Version:  v2012                                 |
|   \\  /    A nd           | Website:  www.openfoam.com                      |
|    \\/     M anipulation  |                                                 |
\*---------------------------------------------------------------------------*/
FoamFile
{
    version     2.0;
    format      ascii;
    class       volVectorField;
    location    "100";
    object      U_0;
}
// * * * * * * * * * * * * * * * * * * * * * * * * * * * * * * * * * * * * * //

dimensions      [0 1 -1 0 0 0 0];


internalField   nonuniform List<vector> 
18166
(
(0.838626 -0.00833308 -2.88916e-20)
(1.00571 -0.00149235 1.6595e-22)
(0.999943 -0.000911993 1.13682e-20)
(1.20667 0.0107746 -3.80382e-20)
(0.110373 -0.397113 -1.38612e-19)
(0.833209 -0.134634 -4.42511e-20)
(1.01399 -0.010621 2.27997e-21)
(-0.311378 -0.00916915 -4.73888e-21)
(-0.0926902 0.00834902 7.8477e-20)
(0.144145 -0.149706 -5.50724e-20)
(0.999323 -0.0100402 0)
(0.995834 -0.0162428 0)
(-0.119316 -0.0327614 -1.58281e-19)
(1.26994 -0.0586325 0)
(0.599674 0.0270578 -4.34611e-20)
(1.2708 -0.0560138 5.36213e-22)
(1.00088 -0.00601607 1.42674e-21)
(0.0449001 -0.928031 6.2221e-21)
(0.991526 -0.0178752 2.69753e-21)
(-0.219837 -0.00824078 1.09147e-19)
(1.23817 -0.114341 1.25624e-19)
(1.0008 -0.00602847 -4.9571e-21)
(1.23625 -0.0985297 -1.06787e-19)
(0.9961 -0.00206481 2.25144e-21)
(1.00815 -0.0116134 5.89692e-23)
(1.01354 -0.0102508 -3.63857e-21)
(0.859561 -0.0237886 -3.42954e-20)
(1.09951 -0.0454983 2.92207e-20)
(0.987709 -0.0294987 8.17393e-21)
(1.21192 0.00780285 -4.03765e-20)
(0.0039487 -0.210858 0)
(1.01671 -0.000570591 2.41571e-21)
(1.00085 -0.0312135 3.10496e-21)
(0.996943 -0.0203709 0)
(1.01954 0.000147038 0)
(1.0021 -0.00845575 1.60752e-22)
(-0.0758515 0.00939764 0)
(1.00197 -0.00827671 -1.34885e-22)
(1.02782 -0.00837409 0)
(0.171391 -0.189527 1.12993e-19)
(1.00006 -0.000709441 -2.4292e-21)
(1.20824 -0.228933 3.32803e-20)
(1.00039 -0.0323621 7.86624e-22)
(0.981188 -0.0186128 0)
(0.836575 -0.0274821 -1.18038e-20)
(0.998268 -0.00287579 -1.07526e-20)
(1.12228 0.118767 -3.82204e-20)
(-0.00127807 -0.215325 0)
(1.19072 0.163802 2.52474e-20)
(0.869658 -0.018926 3.1083e-20)
(1.10653 0.0571703 2.26116e-20)
(1.13391 0.0217219 -3.3874e-20)
(1.24484 -0.0753395 -3.78169e-20)
(1.00017 -0.00065658 1.03735e-21)
(0.999398 -0.00961223 0)
(-0.226206 -0.00657618 9.98664e-21)
(1.19959 -0.222764 -9.75048e-20)
(-0.199891 -0.0121812 -8.21744e-20)
(0.989532 -0.0676401 -1.32099e-20)
(1.08317 -0.0373788 1.03417e-20)
(1.16383 -0.130281 0)
(1.08004 0.0087996 -9.0451e-21)
(-0.22105 -0.00950093 -1.21948e-19)
(1.0877 -0.0963324 0)
(1.26776 -0.042937 -2.52126e-22)
(0.996897 -0.0041963 0)
(-0.135634 -0.00686545 -1.79906e-20)
(0.343916 0.0902087 0)
(0.388088 -0.126112 3.32089e-22)
(1.10514 -0.00517182 0)
(1.01938 -2.72377e-05 0)
(1.02642 -0.0478273 0)
(0.841919 -0.0559531 0)
(1.03398 -0.0785278 1.84325e-22)
(0.0508459 -0.414411 -6.88062e-20)
(0.357998 0.336819 9.28061e-20)
(1.24447 -0.0918444 1.57892e-20)
(0.224881 -0.0913955 0)
(1.07194 -0.0576394 0)
(1.00149 -0.00728222 -1.17348e-21)
(1.00003 -0.00173814 2.0928e-21)
(0.0300846 0.0132815 3.0154e-20)
(0.996456 -0.00228761 -1.66678e-20)
(0.994939 -0.00395057 9.09704e-21)
(1.01661 -0.00129681 0)
(1.05184 0.00967553 0)
(1.08586 -0.0302947 4.56639e-21)
(1.00579 -0.00624834 -2.14793e-23)
(1.13144 0.0262975 -1.61279e-20)
(1.0273 -0.00786694 3.12848e-21)
(-0.241292 -0.00667355 1.52075e-19)
(0.868732 -0.149583 -2.03718e-20)
(-0.197692 -0.0181981 0)
(1.00001 -0.000621603 0)
(1.00016 -0.000961908 2.52227e-21)
(1.05206 0.0121137 0)
(1.01697 -0.00109412 2.56434e-21)
(0.999237 -0.253116 8.26822e-23)
(0.924044 -0.0119521 -1.44641e-20)
(1.09858 -0.0315315 2.18613e-20)
(1.00511 -0.000774419 1.49565e-22)
(0.999041 -0.00515428 -2.81904e-21)
(0.668648 0.0282245 -7.31007e-20)
(1.08513 -0.0966229 0)
(1.10401 -0.00598172 0)
(0.999082 -0.00471217 -5.39313e-21)
(-0.0844666 -0.392416 2.64917e-20)
(0.0895837 -0.0101185 -1.46142e-19)
(0.982528 -0.0797923 1.10867e-20)
(0.999826 -0.00845834 2.17655e-21)
(-0.186505 -0.0162895 -1.76217e-19)
(-0.043442 0.0156749 0)
(-0.0780881 0.0087857 0)
(0.813933 0.13934 1.01111e-19)
(1.00062 -0.00508687 2.69428e-21)
(1.03145 -0.000621476 -6.571e-21)
(1.01519 -0.259457 0)
(0.0246048 -0.0584598 -5.07522e-20)
(0.975206 -0.0307237 3.47059e-21)
(0.690812 0.212067 0)
(0.594475 0.778834 -3.08924e-21)
(0.986862 -0.0280533 -5.25147e-21)
(1.2926 -0.213024 9.7452e-20)
(0.472379 0.0151715 0)
(1.22678 0.00939536 -2.66747e-20)
(0.99435 -0.0145878 -4.88675e-21)
(0.998701 -0.00287752 -3.53038e-21)
(-0.148737 -0.0267364 1.00042e-19)
(0.94605 -0.110316 7.7804e-21)
(0.944648 -0.179133 1.97283e-20)
(1.23277 0.0240059 3.52731e-20)
(0.794466 -0.414194 2.88336e-20)
(1.07731 -0.00517651 4.61624e-22)
(0.139404 -0.0161455 -2.51236e-20)
(0.937147 -0.088599 2.16073e-20)
(1.11634 0.118786 3.12978e-20)
(1.00177 -0.00837339 0)
(1.00859 -0.00939804 0)
(1.07851 -0.0026447 0)
(-0.0309321 -0.11186 -3.36785e-20)
(-0.129981 0.0067107 0)
(1.2706 -0.0489781 -3.81024e-20)
(1.25526 0.202319 0)
(0.116009 -0.0252548 0)
(0.986571 -0.0773487 -1.44004e-20)
(0.969217 -0.0338336 1.5185e-19)
(-0.259012 -0.0114705 0)
(0.802878 0.0306796 0)
(1.03994 -0.00640997 3.7308e-21)
(1.08725 -0.00569369 -2.06203e-20)
(1.01681 -0.000915821 4.28247e-21)
(0.0253445 -0.0806222 -3.44646e-20)
(0.523992 -0.743541 8.71347e-21)
(1.22654 0.0100703 0)
(0.999857 -0.00118704 -2.39336e-21)
(0.99998 -0.00799715 2.22014e-22)
(1.00911 -0.0534343 0)
(-0.233814 -0.0112246 9.16194e-20)
(1.00163 -0.00790072 -1.34224e-21)
(-0.141846 -0.0280959 8.95742e-20)
(1.01452 -0.00122958 0)
(0.237968 0.0439508 0)
(1.07913 -0.0415952 1.31836e-20)
(1.00974 -0.00133352 -1.53137e-21)
(1.13444 0.0226539 3.67868e-20)
(0.329348 0.00371759 -3.77706e-20)
(0.998755 -0.00349547 -8.8287e-21)
(0.0965568 -0.0358409 2.57186e-20)
(0.038219 0.00465693 2.88698e-20)
(-0.140882 -0.0200438 1.78804e-19)
(1.25338 -0.0130369 0)
(0.873183 0.145214 -3.08692e-20)
(0.945366 -0.184742 -1.43009e-20)
(0.322836 0.0843741 0)
(1.28765 -0.0351479 0)
(0.994766 -0.0201518 0)
(0.585971 0.395409 1.3446e-19)
(0.465065 0.12627 9.65026e-20)
(1.00606 -0.00115073 0)
(1.00559 -0.00577103 0)
(1.00053 -0.00519504 -3.24448e-21)
(0.961082 -0.173145 1.24613e-20)
(0.521013 -0.0811066 -1.33255e-19)
(0.600261 0.360316 -3.97862e-20)
(1.08798 0.00987049 7.42751e-20)
(1.00807 -0.00474786 -6.65534e-22)
(1.04686 -0.224023 1.03342e-20)
(1.20147 0.0154841 3.93765e-20)
(1.00273 -0.00582965 0)
(1.03075 -0.000294192 3.61109e-21)
(1.17091 -0.12038 1.68681e-20)
(0.991065 -0.019108 -3.17468e-21)
(1.11978 0.0364397 0)
(0.99524 -0.00404249 0)
(1.0322 -0.157052 0)
(-0.00567069 -0.188671 0)
(0.84254 -0.116965 7.57791e-20)
(1.02573 -0.148617 -2.24934e-21)
(0.00676214 -0.0767077 -1.82325e-20)
(0.106214 -0.00584578 -2.60545e-19)
(1.25181 -0.0189623 2.13641e-20)
(-0.0974135 0.0196592 0)
(1.03645 -0.0010755 -5.82477e-21)
(0.825649 0.0298719 -2.11355e-20)
(0.997815 -0.040005 3.10733e-21)
(1.13728 0.0167066 3.62658e-20)
(0.063479 0.0155357 5.21827e-20)
(-0.238858 -0.00763234 -1.26371e-20)
(0.150775 -0.481224 1.78269e-19)
(-0.289806 -0.010013 4.58285e-21)
(0.121386 -0.351671 -8.89183e-20)
(-0.116075 0.00800607 4.54796e-20)
(1.00601 -0.00138177 0)
(0.997572 -0.00342067 -3.22966e-21)
(1.11548 0.0502947 1.24218e-22)
(0.868665 -0.145722 0)
(1.2707 -0.0315693 9.58457e-20)
(1.01268 -0.251911 -1.75678e-21)
(0.0709111 0.00661379 -2.54522e-20)
(0.00371135 0.0102357 -5.25683e-20)
(1.0764 -0.028602 2.17698e-20)
(1.00254 -0.0164975 -2.70174e-21)
(1.00792 -0.00478077 5.76511e-22)
(0.758653 -0.0166667 -3.83259e-21)
(-0.266042 -0.0114492 0)
(1.01725 -0.0127298 1.71778e-21)
(0.996194 -0.248459 1.82509e-21)
(1.00803 -0.00143209 -3.13422e-22)
(0.978707 -0.067004 0)
(1.03603 -0.00186477 1.20955e-20)
(-0.227863 -0.007668 -7.28731e-21)
(-0.0772868 0.00750776 4.56993e-20)
(1.05964 0.00544222 4.96484e-21)
(-0.0418889 -0.131331 2.52514e-20)
(1.00333 -0.000588364 5.07481e-22)
(1.05231 0.00786982 -1.36676e-20)
(1.1153 0.0447828 0)
(1.15292 -0.126659 -2.38e-20)
(-0.138289 -0.000672317 -4.09374e-20)
(1.10158 -0.0508075 -2.70242e-20)
(1.11964 0.0422146 0)
(-0.0211412 0.00321382 0)
(-0.216798 -0.00892237 0)
(1.0805 -0.033749 -2.22976e-20)
(0.8653 0.0860512 8.19615e-20)
(0.970674 -0.00287766 -1.82808e-20)
(1.20605 0.013677 6.07621e-22)
(-0.0327601 0.00158017 0)
(0.163247 -0.00460004 5.41838e-20)
(1.03964 -0.0512028 0)
(0.827615 0.00724217 -2.18575e-20)
(0.99858 -0.00277195 9.87208e-21)
(0.998967 -0.0379271 -2.21853e-21)
(0.945447 -0.103511 1.36898e-20)
(0.00296227 -0.0980701 1.85846e-20)
(-0.153183 0.0203538 1.07781e-19)
(1.00007 -0.00686638 0)
(0.00204561 -0.00237378 5.72791e-20)
(-0.129601 -0.0225272 -2.29014e-19)
(1.0094 -0.00119989 1.85261e-21)
(0.997226 -0.00379248 0)
(-0.0389153 -0.136637 -2.96667e-20)
(1.16152 -0.142019 8.56607e-20)
(1.18429 0.169955 3.74934e-20)
(0.0124771 0.0245217 0)
(0.00827221 0.0251062 0)
(-0.000313229 -0.00516281 -2.1866e-19)
(1.03224 -0.0787283 -1.24212e-21)
(1.00005 -0.00121172 0)
(1.10252 -0.0329408 -2.55394e-20)
(0.861552 -0.0278528 3.7622e-20)
(0.997615 -0.00334148 -1.82801e-23)
(1.00694 -0.00764082 7.80257e-24)
(0.393162 0.0472896 -3.99299e-20)
(1.13228 0.0275391 -1.18957e-20)
(-0.179382 0.00494027 0)
(0.528831 0.142729 0)
(1.00847 -0.00117309 3.4192e-22)
(0.372845 0.313643 0)
(1.0169 -0.000670291 8.26376e-23)
(1.14579 0.0932377 -1.45839e-20)
(-0.119357 -0.0063317 0)
(1.02949 -0.0768729 0)
(1.04215 0.00666529 2.11062e-21)
(1.07368 -0.0322384 -1.48444e-20)
(1.16218 -0.192859 0)
(1.07983 0.010758 0)
(1.05063 -0.025307 0)
(-0.0576338 0.0113076 0)
(1.00041 -0.004648 2.83142e-21)
(1.09915 -0.0444207 2.79231e-20)
(1.11502 0.110882 3.7546e-20)
(1.04136 -0.0787872 6.04762e-21)
(1.0002 -0.0069026 0)
(1.02729 -0.0761039 0)
(-0.00890825 -0.181802 0)
(1.01482 -0.0106721 -6.1294e-22)
(0.997921 -0.00311538 9.63113e-21)
(1.01695 -0.0126884 -1.67788e-21)
(0.938053 0.0912266 6.17908e-20)
(0.619388 0.163736 -1.10136e-19)
(1.00136 -0.00752025 2.63104e-21)
(1.01586 -0.0463188 0)
(1.00721 -0.00783952 0)
(0.902941 0.00604693 0)
(1.00302 -0.0335856 0)
(-0.227797 -0.00677384 -1.16309e-20)
(1.23021 0.0370591 -3.08766e-20)
(0.980598 -0.0199024 0)
(1.03077 0.000937378 5.29866e-21)
(1.07562 -0.0085613 -1.82501e-20)
(0.321337 -0.14378 -1.01552e-19)
(-0.20086 -0.00786161 -3.53711e-20)
(0.905378 -0.0574239 -3.22059e-20)
(1.00038 -0.00493939 0)
(0.123234 0.342547 6.99719e-22)
(0.658021 0.0277272 1.23898e-22)
(1.04535 -0.0790697 2.89346e-21)
(0.997241 -0.00361542 -4.01868e-21)
(1.27374 0.0769351 -6.64519e-21)
(1.00396 -0.0174432 2.85114e-21)
(0.928788 -0.0128833 6.01332e-20)
(-0.0708257 0.0238858 0)
(1.15607 -0.142568 -6.93508e-20)
(0.93335 -0.163729 0)
(0.86891 -0.0152238 -7.97552e-20)
(1.0515 -0.0243602 8.73934e-21)
(1.00232 -0.0332992 0)
(1.02479 -0.00412442 2.56351e-21)
(0.0545757 0.0272605 -2.56284e-21)
(1.00864 -0.0095843 -2.01713e-22)
(0.117215 -0.0293696 1.60791e-21)
(1.04229 0.00779453 0)
(1.03601 -6.79762e-05 0)
(0.496073 1.08796 7.33688e-20)
(-0.0648897 0.00946018 0)
(1.25293 -0.00356103 -9.24095e-20)
(0.0191274 -0.0019505 4.65773e-20)
(-0.23121 -0.00555048 -1.15202e-19)
(0.110145 0.0497298 0)
(1.0407 -0.00532938 -4.12566e-21)
(-0.0460549 -0.0106398 0)
(1.27274 0.0693927 0)
(-0.0839307 -0.107394 -2.5929e-20)
(1.05089 0.00843094 1.28425e-20)
(0.999765 -0.00897839 5.1471e-21)
(1.01474 -0.012184 -2.15539e-21)
(0.900815 -0.0405209 1.85146e-20)
(1.02575 -0.047983 -4.08194e-21)
(1.1465 -0.125962 1.17322e-20)
(0.988876 -0.0678283 1.15914e-20)
(1.10971 0.112049 -1.78374e-20)
(0.997941 -0.00308166 -7.14279e-21)
(1.00737 -0.00449223 -6.13113e-22)
(0.685007 0.0683224 2.24739e-20)
(1.08556 -0.0319236 8.87281e-21)
(0.670301 0.0411954 0)
(1.12264 0.0332494 -2.65878e-20)
(0.999551 -0.00915067 0)
(1.02424 -0.0047379 -5.06971e-21)
(1.00528 -0.00582904 0)
(-0.0145758 0.0205977 -1.59527e-20)
(-0.033504 -0.0288099 -1.13137e-20)
(1.00025 -0.00675286 1.74637e-21)
(1.01298 -0.00930408 0)
(0.993185 -0.00539001 5.43551e-21)
(0.999879 -0.000644037 0)
(1.06292 -0.312656 -2.05449e-20)
(1.00008 -0.000725402 0)
(0.173375 -0.0321123 0)
(0.467074 -0.686497 1.56802e-20)
(1.00655 -0.00589626 0)
(1.00349 -0.0173693 -1.92912e-21)
(1.28305 0.0103964 6.54799e-20)
(-0.0453318 0.00438408 0)
(0.608832 0.905842 5.3326e-21)
(-0.081417 -0.101836 5.24195e-20)
(1.00005 -0.0021116 4.16254e-21)
(1.12278 0.0327632 2.81457e-20)
(1.25392 0.00423704 1.62382e-19)
(1.03629 -0.000742927 7.80039e-22)
(-0.0376695 -0.11678 5.65436e-20)
(1.25866 0.191338 4.9252e-20)
(1.08719 -0.00751234 1.51973e-20)
(1.04248 -0.0699958 6.61927e-21)
(0.98693 -0.0116357 4.92756e-21)
(0.996928 -0.00392548 0)
(1.00002 -0.000148573 8.31659e-22)
(-0.128151 -0.000115854 0)
(0.988003 -0.0112477 -3.62985e-21)
(1.01922 -0.000273523 0)
(1.08808 -0.0138344 5.40129e-21)
(1.02384 -0.00852024 -1.39251e-21)
(-0.0553937 0.0149046 0)
(1.2605 0.0814036 1.26722e-19)
(0.999922 -0.00214959 -3.41632e-21)
(0.998017 -0.00276592 7.26147e-21)
(-0.20978 -0.0160678 -4.60475e-20)
(1.01222 -0.0112187 0)
(1.01141 -0.01082 0)
(1.02116 -0.0423108 1.48196e-21)
(1.26321 -0.0382743 1.10838e-19)
(-0.0517856 0.00895126 -1.93588e-20)
(1.0001 -0.00103724 0)
(0.998032 0.0158819 0)
(1.05254 0.00583338 -7.03907e-21)
(1.03605 -0.0022079 -1.63569e-20)
(-0.190405 0.00228456 7.99715e-20)
(-0.172054 0.00592058 0)
(0.980119 -0.0447085 3.99998e-21)
(1.01088 -0.00363932 8.60074e-20)
(-0.136173 0.0291886 -1.5491e-19)
(0.922141 -0.182202 0)
(1.02051 0.0276944 9.8449e-20)
(1.07643 -0.0140231 8.66651e-21)
(1.09623 -0.0365577 3.58402e-21)
(1.15553 -0.202793 0)
(0.977237 -0.444955 -5.26413e-21)
(1.01799 0.000217463 2.6492e-21)
(0.99894 -0.00684864 -7.62135e-21)
(1.05005 -0.0275787 2.09407e-22)
(0.994589 -0.0141853 0)
(0.296397 -0.00813608 0)
(1.00733 -0.0815411 2.04598e-21)
(0.413074 -0.438795 4.30705e-20)
(0.999933 -0.000934075 -3.76782e-21)
(1.28068 -0.214181 0)
(0.996946 -0.020209 0)
(-0.0341132 -0.039742 1.09068e-20)
(-0.320297 -0.00822143 -4.16623e-21)
(0.908028 -0.00692771 1.91141e-20)
(0.376706 0.0372272 8.26502e-20)
(0.931362 -0.173218 0)
(1.05101 -0.0268153 0)
(1.10444 0.0514521 -3.00017e-20)
(-0.067808 0.00663719 0)
(0.890438 0.0459526 -1.13758e-19)
(1.0004 -0.000192974 -7.89224e-22)
(0.109947 -0.0309579 5.34133e-20)
(1.11589 0.0134959 0)
(1.02255 -0.00675536 0)
(0.516516 0.0116396 0)
(-0.093065 -0.00589277 -6.4475e-20)
(1.00224 -0.0171808 -3.82181e-21)
(0.242739 0.0429685 0)
(-0.0211045 -0.00971672 4.55877e-20)
(0.99996 -0.00789492 -2.26979e-22)
(-0.290701 -0.00662619 -3.81877e-21)
(1.06344 -0.333159 -1.14481e-20)
(1.03569 -0.00295024 1.37079e-20)
(0.770804 -0.0249859 3.14524e-21)
(0.449093 0.0533613 -4.21001e-20)
(1.2866 -0.0342602 -1.87955e-20)
(1.11093 0.0563619 -1.55931e-20)
(0.138007 -0.0202817 6.91674e-20)
(0.0724095 0.339858 2.20954e-20)
(1.26767 0.0896019 6.95038e-20)
(1.19813 -0.0321786 3.88936e-20)
(1.02332 -0.00800315 3.7191e-21)
(-0.168208 -0.0231572 -8.20326e-20)
(0.992477 -0.0180926 -5.14451e-21)
(0.996514 -0.0377876 0)
(0.344527 0.0643128 -1.14415e-19)
(1.04442 0.0265427 -3.70063e-20)
(1.0002 -0.0632753 5.97105e-21)
(0.979974 -0.043888 -3.66424e-21)
(1.11364 0.0164306 2.41807e-21)
(1.07443 -0.0115223 -8.60858e-21)
(0.9715 -0.00354876 1.42868e-20)
(1.01529 -0.0121817 2.19224e-21)
(1.01632 -0.00139217 0)
(1.03073 -0.233868 7.37618e-21)
(-0.145974 -0.00578082 0)
(1.00507 -0.00535573 -1.57909e-22)
(1.14048 0.0934986 2.23022e-20)
(0.999929 -0.000385766 -2.29409e-21)
(-0.192732 -0.00856004 -4.88013e-20)
(0.99897 -0.00677599 2.38278e-21)
(1.00322 -0.00029792 -6.18585e-22)
(1.26386 0.1905 -3.06048e-20)
(0.619818 0.0258541 -5.03934e-20)
(0.977944 -0.244065 0)
(-0.00283902 0.0123342 0)
(1.00376 -0.00973221 0)
(1.0033 -0.00945802 9.34008e-22)
(0.00153039 0.011708 -5.8309e-20)
(0.71497 -0.188758 -1.26979e-19)
(1.15434 -0.135483 2.57456e-20)
(1.04941 0.00177542 -1.27727e-20)
(0.607263 -0.338082 0)
(0.504679 -0.0580275 1.1956e-19)
(1.0002 -0.00377648 1.40594e-21)
(0.998786 -0.00322431 4.50368e-24)
(1.00005 -0.00236683 -5.9829e-21)
(1.03677 -0.0555875 1.38502e-21)
(0.0847856 0.0310141 -3.71099e-20)
(0.00757189 0.015265 -1.59407e-20)
(0.99494 -0.0356414 2.87024e-21)
(1.00627 -0.0578858 0)
(0.624062 0.134358 -1.12213e-21)
(-0.172223 -0.021432 0)
(-0.279241 -0.00966653 -6.40892e-20)
(1.0194 -0.000223548 2.10093e-21)
(0.96646 -0.0471063 -3.69831e-21)
(0.614949 0.801791 4.80679e-21)
(0.997043 -0.0371072 -3.26525e-21)
(0.998608 -0.00257968 0)
(1.00096 -0.00757481 0)
(1.0179 -0.00721854 -2.93729e-21)
(1.17589 -0.0647794 0)
(0.469111 -0.267944 1.10949e-19)
(0.697311 -0.729281 0)
(1.001 -0.451558 1.84104e-20)
(1.00162 -0.00775985 3.7658e-21)
(1.24721 -0.0278549 3.60023e-20)
(1.00811 -0.0118875 1.06555e-22)
(1.00003 -0.000364496 -1.41615e-22)
(0.0210641 -0.0172841 8.30825e-20)
(0.929829 -0.769211 2.09711e-20)
(1.03444 -0.222585 5.29664e-21)
(0.444209 0.104946 5.7222e-21)
(-0.0662759 0.00954532 -1.75935e-20)
(0.694058 0.0258309 8.48576e-20)
(-0.0106186 0.0143955 4.20487e-21)
(1.24748 -0.0993789 -4.26058e-20)
(0.0259756 0.0216951 -1.26431e-19)
(-0.227906 -0.00896873 -5.60233e-20)
(1.12479 0.122878 2.39204e-20)
(-0.216177 -0.00731682 5.39566e-20)
(0.995222 -0.0171987 1.98263e-21)
(0.670642 0.0476069 0)
(1.0416 -0.0505229 5.78675e-21)
(1.05495 0.00889476 -2.05774e-20)
(0.642601 0.106469 9.89527e-22)
(1.25317 0.202806 0)
(0.987989 -0.0636326 9.08107e-21)
(1.3033 -0.150624 0)
(0.904944 0.025666 2.10299e-20)
(1.13428 0.0116953 -3.0412e-20)
(0.999839 -0.00111171 1.22537e-20)
(0.980698 -0.0101242 -8.68525e-23)
(0.897096 -0.686597 -7.21846e-21)
(-0.036679 0.0130763 0)
(0.0255744 0.0161137 -9.42041e-20)
(1.02074 -0.00110374 2.05076e-21)
(1.29875 -0.144091 0)
(-0.108605 -0.0331433 6.92655e-23)
(0.960455 -0.0120186 0)
(1.05326 0.00546934 1.50315e-20)
(0.992815 -0.00526974 -3.02767e-21)
(0.919865 -0.026884 -1.99715e-20)
(0.668936 -0.327695 -5.70757e-20)
(-0.174037 -0.0187361 1.70865e-19)
(1.00021 -0.000760702 -1.00223e-21)
(0.0909677 0.0167419 0)
(0.99897 -0.00580548 0)
(0.159225 -0.00690103 -6.292e-20)
(1.07371 -0.0605174 -9.15044e-21)
(1.01646 -0.0427792 -4.45985e-22)
(1.07544 -0.0752004 -1.32207e-20)
(-0.192088 -0.0190204 -1.31069e-19)
(1.03118 0.00152758 -2.77805e-21)
(1.00261 -0.00507471 0)
(-0.122642 -0.00541869 8.86695e-20)
(0.0407283 0.0185661 1.40442e-20)
(1.17349 -0.196798 -6.46333e-20)
(0.731007 0.0303488 8.19349e-20)
(1.04894 0.000605692 1.35273e-20)
(1.00118 -0.00703842 0)
(0.999238 -0.00186576 -1.45699e-21)
(-0.0272422 -0.13255 -6.96799e-21)
(0.715056 -0.26334 1.26193e-20)
(-0.0207072 -0.126785 0)
(1.09888 -0.0688175 -2.2836e-20)
(0.65072 -0.748247 0)
(0.0432185 -0.00416311 -2.98784e-20)
(1.11704 0.0459019 -3.95271e-20)
(-0.195237 -0.0115645 1.07393e-22)
(0.965453 -0.0461963 3.70181e-21)
(-0.25566 -0.0119187 1.8607e-20)
(1.01778 -0.00615247 0)
(0.50508 -0.0235924 0)
(0.0626565 0.0232596 3.27319e-20)
(0.68986 -0.210536 1.30357e-19)
(1.07711 -0.00618786 1.82327e-20)
(0.0890071 0.0450174 0)
(-0.234599 -0.0129207 1.79207e-19)
(1.00247 -0.00609273 0)
(0.387688 -0.142032 -9.04426e-20)
(0.991273 -0.0191899 4.1343e-22)
(1.00012 -0.000614402 -1.21303e-21)
(-0.281744 -0.010717 -3.6092e-20)
(-0.0371683 0.00428385 0)
(0.999943 -0.00240494 7.04633e-21)
(1.00007 -0.00753971 0)
(1.01449 -0.000995412 -2.00514e-21)
(0.111079 -0.452163 -6.82923e-20)
(-0.020777 0.00684246 7.61217e-20)
(1.00272 -0.00543932 0)
(1.25677 -0.00218845 -5.60461e-20)
(1.04294 -0.0734337 -9.12776e-21)
(1.04228 0.00522569 0)
(1.00364 -0.00907895 -7.50356e-22)
(1.18981 -0.119149 3.95861e-20)
(1.24901 -0.0235377 -2.71011e-20)
(1.08242 -0.0407993 -2.22628e-20)
(0.471336 -0.134334 -4.59668e-20)
(1.00032 -0.00666848 -3.46416e-21)
(1.00754 -0.00459544 5.90257e-22)
(0.554151 0.147933 0)
(-0.310772 -0.00953541 0)
(1.27244 0.0603655 -1.29422e-20)
(-0.237666 -0.00908068 -1.43623e-20)
(0.161103 -0.0883848 -6.5181e-20)
(0.96818 -0.00921844 -2.34967e-20)
(-0.109208 -0.0339224 5.20004e-20)
(0.472211 -0.12497 -4.58351e-20)
(0.938908 -0.0438184 2.48478e-20)
(0.360152 -0.600893 -3.67847e-20)
(1.05346 -0.276864 0)
(1.0685 -0.0615431 0)
(1.08445 -0.167968 -1.20023e-20)
(-0.0595174 -0.00211518 0)
(0.903437 0.00993329 0)
(1.19344 -0.0376157 -3.79577e-20)
(1.03261 -0.055384 1.09721e-21)
(1.09261 -0.0925045 -1.02023e-21)
(-0.121309 -0.0313521 -5.32542e-20)
(1.0025 -0.00579639 -1.40684e-21)
(0.356437 0.0986354 8.74284e-20)
(1.17831 -0.0710009 -1.68952e-20)
(0.896439 -0.239877 -2.79433e-20)
(0.955162 -0.18283 -1.54237e-20)
(1.02336 -0.00786442 0)
(1.05129 0.00262464 -3.34701e-21)
(-0.155043 0.0126648 3.89625e-20)
(1.0024 -0.00502246 -1.2224e-21)
(0.999036 -0.00597678 -2.45241e-21)
(1.2122 -4.18656e-05 -4.72012e-20)
(1.02107 -0.00726009 -2.1347e-21)
(1.16178 -0.1279 -2.89895e-20)
(1.04261 0.00595301 -2.3906e-21)
(1.23101 0.0287698 1.71843e-20)
(0.977138 -0.0310305 6.08779e-21)
(1.10269 -0.0638038 -3.88895e-20)
(1.02414 -0.0048851 0)
(0.232832 -0.251642 -1.27472e-19)
(-0.231242 -0.00923128 0)
(0.0887397 0.503449 -1.61089e-19)
(1.0338 -0.0559895 0)
(-0.233743 -0.00731797 0)
(-0.00704224 0.0132596 3.42608e-20)
(0.525072 -0.0113382 0)
(1.03555 0.00155277 0)
(-0.00394713 0.0145029 -6.91124e-20)
(0.962962 -0.00366864 2.41601e-20)
(-0.155636 0.185246 -1.26771e-21)
(0.995514 -0.00414501 0)
(0.652546 -0.099814 -9.65921e-20)
(1.19231 -0.0190579 0)
(-0.046983 -0.0268967 2.1469e-20)
(-0.307463 -0.00860456 -6.93562e-20)
(1.29668 -0.0505276 -1.03857e-19)
(-0.0987251 0.0015288 3.61627e-20)
(1.01944 0.000430365 -5.84134e-21)
(-0.250809 -0.00786772 0)
(1.00551 -0.000542587 0)
(0.906643 -0.0691891 -9.88191e-21)
(0.942188 -0.0492256 0)
(0.988659 -0.0103154 7.64159e-21)
(1.00243 -0.000628994 0)
(-0.187334 -0.00871728 -2.39531e-20)
(1.13971 0.0861595 2.09118e-20)
(1.04963 -0.0304601 8.42579e-21)
(0.128537 0.0197052 5.58752e-20)
(0.124434 -0.0787888 0)
(0.773184 -0.1402 -2.25251e-20)
(1.01954 0.000220028 3.48847e-21)
(0.946065 -0.0821465 2.30662e-20)
(1.00013 -0.00114614 0)
(1.01252 -0.0115988 7.75021e-22)
(1.01771 -0.00682035 0)
(0.993838 -0.0211956 3.43072e-21)
(0.46794 -0.286811 -1.02402e-19)
(1.0718 -0.0790607 9.74376e-21)
(0.581012 0.0285157 -1.09932e-19)
(-0.213182 -0.00262713 4.65406e-20)
(-0.227654 -0.00873694 -3.18401e-20)
(-0.232954 -0.00477047 -1.11503e-19)
(0.747649 -0.440548 -4.16357e-21)
(0.904223 0.00752231 -1.14686e-20)
(0.998871 -0.00269309 4.22649e-21)
(1.07687 -0.0051659 -4.81562e-20)
(1.00869 -0.00915776 -2.71494e-22)
(-0.192821 -0.00800063 -1.06023e-19)
(-0.111744 0.0213114 3.31793e-20)
(1.02188 -0.00698413 0)
(1.09677 -0.105306 -1.2933e-21)
(0.0149427 -0.00264018 0)
(0.0884666 0.00287427 -4.20689e-20)
(0.454906 0.109471 -5.57739e-20)
(1.10647 -0.0607565 1.09687e-20)
(0.910175 0.0148217 0)
(1.02119 -0.0174351 -2.82502e-21)
(0.0385805 -0.0844754 3.55082e-20)
(-0.236737 -0.00821217 0)
(0.862358 0.0239355 3.52176e-20)
(1.05304 -0.256472 1.0724e-20)
(1.28562 -0.0366225 -1.14766e-19)
(-0.315994 -0.0094001 0)
(1.03917 -0.270068 -1.3081e-20)
(0.012959 -0.139802 4.87701e-20)
(0.902057 -0.351874 1.1789e-21)
(0.784244 -0.437987 -2.17138e-20)
(1.00356 -0.00981735 9.28313e-22)
(-0.219872 -0.00794745 -6.89332e-20)
(1.14988 0.0955758 7.62601e-21)
(1.13777 0.0788158 -6.21157e-20)
(-0.0846737 0.00289566 0)
(1.01537 -0.0168249 -1.48947e-21)
(1.17028 0.125699 0)
(0.710493 -0.214107 0)
(1.01603 -0.0167026 1.82555e-21)
(1.2572 0.118616 3.5155e-20)
(0.850448 0.0433249 8.56662e-20)
(0.017705 -0.129514 -4.85653e-21)
(0.048027 -0.00638353 1.1521e-19)
(0.857013 0.0120453 -2.51249e-20)
(1.09791 -0.0551986 0)
(1.0022 -0.00076646 0)
(0.611061 -0.322955 0)
(1.05657 -0.598495 2.54497e-20)
(0.938417 -0.0865805 -7.09385e-21)
(-0.0350962 -0.00800871 -1.03282e-19)
(1.00287 -0.0229594 2.5103e-21)
(0.0780572 -0.00256576 5.65823e-20)
(-0.0154275 0.0177551 0)
(1.08371 -0.00170258 2.29027e-21)
(0.979955 -0.0769789 0)
(0.999948 -0.00119643 0)
(0.869042 -0.1312 1.83179e-20)
(1.00013 -0.0015361 -7.23543e-22)
(0.235319 -0.0929576 9.50618e-20)
(1.19157 0.0885594 0)
(0.0702533 -0.00644522 1.81129e-19)
(1.01437 -0.0103277 9.87475e-22)
(1.01608 -0.0160815 0)
(1.0206 -0.0177946 -2.72331e-21)
(0.545273 -0.190228 -5.16416e-20)
(0.075107 0.0247744 1.17716e-19)
(0.845877 0.018494 -2.25542e-20)
(0.187587 -0.0893313 9.91305e-20)
(1.13154 0.0940923 0)
(1.22926 -0.0246972 8.60439e-20)
(0.995815 -0.00414561 0)
(1.00094 -0.000504866 2.41974e-23)
(1.26373 -0.2967 -4.4902e-20)
(0.999469 -0.0647402 -2.71925e-21)
(1.28659 0.14666 0)
(0.0572987 -0.419212 0)
(0.782182 -0.242534 1.13977e-21)
(1.27209 -0.0367481 0)
(1.04107 -0.0302231 -2.30341e-21)
(-0.176727 -0.00851028 -1.15219e-20)
(0.354093 0.0809982 5.99306e-21)
(0.599053 0.340702 -5.55528e-21)
(1.05902 0.00601276 -1.52457e-20)
(1.01169 -0.00138766 -2.57491e-23)
(1.05095 -0.0328908 -8.01936e-21)
(0.999324 -0.00474035 0)
(1.25967 0.0146679 9.56767e-20)
(0.987514 -0.0818277 0)
(1.02358 -0.0102531 8.47476e-21)
(1.25625 0.122359 0)
(0.95115 -0.0302462 1.58677e-20)
(-0.0290096 -0.136968 -1.9927e-20)
(1.01333 -0.388627 -2.44395e-20)
(0.923134 -0.17655 -2.18143e-20)
(1.0062 -0.00601682 4.25648e-23)
(-0.0364316 -0.000657982 -2.90151e-21)
(1.03191 -6.32796e-05 1.06319e-20)
(1.08526 -0.00520081 -1.00325e-22)
(0.0822738 -0.157459 -6.5756e-21)
(0.626873 -0.130107 0)
(1.00318 -0.00976653 0)
(1.00587 -0.43099 -2.49679e-21)
(0.0639881 0.000232007 -1.58344e-20)
(1.02955 -0.013723 -5.19977e-21)
(1.00085 -0.00717712 0)
(0.99646 -0.0168306 0)
(0.760298 -0.126699 -3.10649e-20)
(-0.0439304 -0.0133743 -4.45057e-20)
(1.00266 -0.00544102 3.01231e-22)
(-0.17531 0.00723262 -9.30347e-20)
(1.00007 -0.000886435 0)
(-0.156655 -0.0255873 0)
(0.177276 -0.0632434 -1.35638e-19)
(-0.0210124 -0.118251 0)
(-0.0490785 -0.0588153 -1.90614e-20)
(0.982391 -0.247449 0)
(1.10086 -0.0506522 1.84798e-20)
(0.356448 -0.103607 -5.64726e-20)
(1.005 -0.000607883 -1.87585e-22)
(0.896644 0.0307946 7.64337e-20)
(1.02906 -0.0144099 0)
(1.00966 -0.00406776 -2.12251e-22)
(1.02144 -0.00182713 0)
(1.03993 -0.0168182 -1.54289e-20)
(0.121604 -0.0318943 -6.90988e-21)
(1.02552 -0.02287 -2.04754e-21)
(1.00227 -0.00469727 1.16375e-21)
(1.01488 -0.0445301 -8.4521e-23)
(1.02389 -0.00993794 -3.21372e-21)
(0.934576 -0.601449 2.00036e-20)
(0.968348 -0.0523876 8.74179e-22)
(-0.199459 -0.0179455 7.37769e-20)
(1.00378 -0.00907602 7.40177e-22)
(0.999453 -0.00446186 4.60794e-21)
(1.00263 -0.0061329 0)
(0.332879 0.0800633 0)
(-0.259272 -0.0119225 1.19642e-19)
(-0.374322 -0.138785 7.07335e-20)
(0.453347 -0.401737 -1.0627e-19)
(1.00935 -0.00361914 -2.41802e-22)
(-0.0868402 0.00711666 -6.73121e-20)
(-0.0469489 0.00292746 -1.73844e-20)
(1.03681 -0.052662 1.81531e-21)
(1.00012 -0.0135836 -4.46305e-21)
(-0.211621 -0.00168508 0)
(-0.170604 -0.00842676 3.83386e-20)
(1.06451 -0.063333 7.35163e-21)
(1.21937 0.0696425 2.71008e-20)
(0.538394 0.061644 5.16689e-20)
(1.04217 -0.237223 0)
(1.03612 0.00110678 -1.06045e-21)
(1.1586 0.0359042 3.65725e-21)
(1.09141 -0.0921654 2.47787e-21)
(1.15661 0.032112 -2.9645e-21)
(0.0981749 0.00415132 7.65496e-21)
(0.0799277 -0.0500797 -4.8042e-20)
(1.02459 -0.00362834 -5.21087e-23)
(-0.229508 -0.00717342 2.09404e-22)
(1.01683 -0.0160275 -1.67253e-21)
(1.30686 -0.178291 0)
(1.13364 0.0817208 -3.98756e-21)
(1.14498 -0.118377 0)
(0.988011 -0.0103712 4.18433e-21)
(-0.236092 -0.00807268 0)
(-0.164033 0.0105028 5.59921e-20)
(0.982141 0.0363196 6.05111e-20)
(0.999062 -0.00185599 7.40025e-21)
(1.1075 0.104954 3.34447e-20)
(1.0236 -0.00755171 0)
(-0.241471 -0.00803924 6.6027e-20)
(1.00232 -0.00579082 -1.79945e-21)
(1.10433 0.0446828 1.99728e-20)
(1.0544 -0.0214279 -9.89232e-21)
(1.00855 -0.0113189 -6.40215e-23)
(0.776138 -0.257587 -1.63326e-21)
(1.00624 -0.0784738 -5.69433e-21)
(0.997591 -0.0057345 9.10766e-21)
(0.262548 0.10316 1.77812e-19)
(1.00143 -0.00576966 1.42869e-21)
(0.0285665 0.0198599 -1.66333e-20)
(1.09827 -0.0397783 -3.67846e-20)
(1.14569 -0.447467 -6.18419e-20)
(0.99871 -0.0293604 8.78647e-21)
(1.25573 0.0894363 -1.33588e-19)
(0.940439 -0.30531 0)
(0.995353 -0.035904 -3.07619e-21)
(-0.155561 -0.0247183 0)
(1.29535 -0.134816 -7.56758e-20)
(0.478058 0.054113 -1.2666e-20)
(0.998945 -0.00284406 0)
(0.920996 -0.0130313 0)
(1.24347 -0.09299 -1.85127e-20)
(0.411032 0.0182571 1.30056e-20)
(0.999944 -0.0140249 5.08079e-21)
(1.0068 -0.0537415 9.27523e-22)
(1.06451 0.0043894 1.1784e-20)
(0.31092 0.0890965 -1.18717e-19)
(1.01951 -0.0026085 -5.19865e-21)
(1.2017 -0.0104243 4.02995e-20)
(1.2581 0.012706 6.12299e-20)
(0.969505 -0.0534874 3.37209e-21)
(1.01941 -0.000674091 0)
(1.00078 -0.000404289 5.35952e-23)
(1.00675 -0.00680701 -4.9761e-24)
(1.11864 -0.150173 3.05953e-20)
(1.02167 -0.00726982 4.44092e-21)
(0.927707 -0.54944 -1.20213e-20)
(1.1214 -0.031685 2.06708e-24)
(1.02413 -0.00361859 -4.64457e-23)
(1.02278 -0.0748059 5.00623e-21)
(-0.2236 -0.00597732 0)
(1.00482 -0.0177185 0)
(1.06831 -0.0445258 -1.44449e-20)
(1.01173 -0.0111596 -4.92933e-22)
(1.00211 -0.00597844 1.66461e-21)
(1.17302 -0.0790338 -6.04227e-20)
(1.25263 0.0980095 5.77933e-20)
(0.0595462 -0.484492 6.75552e-20)
(1.25718 0.178947 -5.74061e-20)
(1.06016 -0.00538159 -9.61444e-21)
(1.0424 -0.0292467 6.87601e-21)
(-0.204226 -0.0171324 1.50019e-19)
(0.13061 -0.100782 8.80761e-20)
(0.642212 0.0232989 1.45356e-19)
(-0.238935 -0.00769724 0)
(0.697004 -0.262415 -1.32056e-19)
(1.27313 0.0640347 -7.50547e-21)
(1.00365 -0.00850086 0)
(1.09189 -0.101838 -1.77172e-20)
(-0.216609 -0.0156394 0)
(-0.221632 -0.00805557 0)
(-0.0783817 -0.00567871 -3.68348e-20)
(1.00126 -0.00547591 -1.97768e-21)
(0.943674 -0.321546 7.86616e-21)
(1.04588 -0.231834 0)
(-0.250681 -0.00380864 1.47483e-19)
(-0.204113 -0.00100209 4.75984e-20)
(0.997823 -0.0100057 -3.23993e-21)
(0.666979 0.120186 0)
(0.917907 -0.0174133 -2.016e-20)
(0.117716 0.190862 5.89569e-22)
(-0.20797 -0.00453762 0)
(0.133361 0.51854 2.12928e-19)
(1.01344 -0.00982587 8.68737e-22)
(1.30586 -0.0620298 2.10406e-20)
(1.00002 -0.000189727 5.40458e-24)
(1.03543 0.00265679 0)
(-0.0103607 -0.00772129 9.98963e-20)