/*--------------------------------*- C++ -*----------------------------------*\
| =========                 |                                                 |
| \\      /  F ield         | OpenFOAM: The Open Source CFD Toolbox           |
|  \\    /   O peration     | Version:  v2012                                 |
|   \\  /    A nd           | Website:  www.openfoam.com                      |
|    \\/     M anipulation  |                                                 |
\*---------------------------------------------------------------------------*/
FoamFile
{
    version     2.0;
    format      ascii;
    class       volVectorField;
    location    "150";
    object      U_0;
}
// * * * * * * * * * * * * * * * * * * * * * * * * * * * * * * * * * * * * * //

dimensions      [0 1 -1 0 0 0 0];


internalField   nonuniform List<vector> 
18232
(
(1.01735 -0.000436932 0)
(0.906951 0.00368671 -7.5438e-21)
(-0.304989 0.975154 1.70038e-19)
(1.06276 0.154761 0)
(1.02677 -0.00117628 1.63713e-21)
(1.1878 0.563316 -2.7194e-19)
(0.941501 0.147554 2.85029e-21)
(1.00634 3.21656e-05 9.51739e-23)
(1.03412 -0.00894997 0)
(0.935484 0.131869 0)
(1.02688 -0.00224231 -7.01736e-22)
(1.04037 0.0271055 -5.94604e-21)
(0.933876 -0.0358444 -1.15368e-20)
(0.90397 0.144042 -1.05732e-20)
(1.05189 0.0962177 2.73257e-23)
(0.796603 -0.1146 1.13042e-20)
(1.10108 0.0954096 -3.86232e-20)
(0.712411 0.0882763 1.37336e-20)
(1.00334 -2.5426e-05 -1.12488e-22)
(1.03069 0.209593 2.14709e-21)
(0.521916 0.537162 -7.62237e-23)
(0.921501 0.166613 3.30282e-21)
(0.947161 -0.0478362 6.94181e-21)
(1.02709 0.0273501 -3.49403e-21)
(1.01742 -0.000542233 -4.12112e-22)
(1.01575 0.00186944 2.16216e-22)
(1.02605 0.0472234 8.75641e-22)
(0.809729 -0.121582 1.38425e-21)
(1.01243 -0.00035517 -1.89686e-22)
(0.912448 0.0121356 0)
(1.01586 0.0014181 -1.92214e-22)
(1.01839 0.204181 0)
(1.03785 -0.0375517 0)
(1.07483 0.0169229 2.15165e-20)
(1.07188 0.141567 4.22149e-20)
(1.00681 4.6245e-05 1.01836e-22)
(0.637202 0.491625 8.66929e-21)
(0.957731 0.635032 1.11568e-20)
(0.88791 0.118132 -4.96074e-21)
(1.0204 0.00638468 0)
(0.94646 0.011809 -2.98509e-21)
(1.0284 0.0114761 -3.53574e-21)
(-0.313716 0.973778 -2.27015e-19)
(1.02639 0.0269473 -2.34612e-21)
(0.941491 0.00655334 0)
(1.06872 0.037065 2.05212e-20)
(1.02116 0.080858 -2.59434e-20)
(1.03963 -0.0348769 0)
(1.04756 0.0951635 1.47934e-21)
(1.19228 0.554467 8.84192e-20)
(1.09809 0.0939528 3.09785e-20)
(1.05159 0.0926451 -1.71934e-23)
(1.01198 8.72365e-05 -5.55317e-22)
(1.06004 -0.0739385 3.40202e-21)
(1.01573 -0.000355555 4.04594e-22)
(1.0337 -0.00636994 0)
(0.837218 -0.12444 -9.27557e-21)
(1.03289 0.144976 -2.08163e-20)
(1.04905 0.0221561 1.75198e-20)
(1.05233 0.0890662 -8.18034e-22)
(1.03726 0.0589185 0)
(1.15771 0.482459 1.42199e-20)
(0.648219 -0.0713826 -1.21059e-21)
(0.9534 0.116969 1.58491e-21)
(1.01197 0.000474455 -7.38527e-22)
(1.01755 -0.00180926 3.32742e-21)
(0.885306 0.11095 -2.28446e-21)
(1.06844 0.0356739 -1.17648e-20)
(1.01639 0.00925103 0)
(1.04802 0.0212978 -1.22761e-20)
(1.04005 0.00262988 0)
(1.01365 0.000460975 0)
(0.951253 -0.0763066 -3.46981e-24)
(1.02906 0.0120941 0)
(1.04211 0.0612117 -3.07635e-21)
(1.02793 0.0115506 0)
(1.02079 0.044067 0)
(0.778384 -0.0147045 0)
(0.657996 -0.089052 0)
(1.05727 -0.0318563 -5.10431e-22)
(0.92864 0.129639 -3.74259e-21)
(1.08821 0.159278 1.58734e-20)
(0.995948 0.340084 -6.60239e-20)
(1.00813 0.0205397 0)
(1.01295 3.33001e-05 2.15522e-23)
(0.747311 0.49438 -5.29358e-21)
(1.02696 -0.00171917 -1.90777e-21)
(1.00249 -4.28887e-05 0)
(0.762929 -0.206887 1.67424e-22)
(-0.0684047 0.929385 -1.66698e-19)
(1.1113 0.0590782 0)
(1.02064 0.0115835 0)
(1.04041 0.0669706 -3.11886e-21)
(1.01048 0.206069 -1.01631e-19)
(1.0119 -8.83035e-06 1.73382e-21)
(1.00687 0.0183785 1.04844e-21)
(1.01962 -0.00229631 2.30065e-21)
(1.02036 0.0109399 -3.11613e-21)
(1.01989 -0.0020893 -1.38128e-21)
(1.08778 0.0479433 -9.69174e-21)
(1.05046 0.676189 -1.82178e-19)
(1.13782 0.499391 2.29786e-20)
(1.01369 0.00432856 0)
(1.01596 -0.000612915 -3.3083e-22)
(1.0396 0.0034414 0)
(0.818532 -0.107373 -1.37929e-21)
(1.0556 0.0291646 0)
(0.879251 0.168338 0)
(0.719264 0.096699 0)
(0.977103 0.0681883 0)
(0.978788 0.0431552 -6.32143e-21)
(1.02036 0.0433253 -5.74913e-22)
(1.0455 0.0712361 6.39259e-21)
(1.22338 0.543459 -6.32606e-20)
(1.01564 -0.000636631 2.33588e-22)
(1.05531 0.0498807 5.62353e-21)
(1.08537 0.047392 -4.5076e-21)
(0.945599 -0.0613853 2.2264e-21)
(0.845132 0.275812 -8.55491e-21)
(1.01801 -0.00204761 -2.37844e-23)
(1.01335 0.000161301 -6.92e-23)
(0.99566 -0.0997141 3.95147e-21)
(1.00537 -9.84761e-05 -5.18941e-22)
(1.25258 0.105011 8.8204e-21)
(1.02735 0.0111708 -3.08495e-21)
(1.00949 0.000627643 0)
(1.08505 0.0521731 -1.80765e-20)
(-0.108714 0.933784 0)
(1.06786 0.240465 0)
(0.980826 -0.0260778 2.38255e-21)
(1.01488 0.0181885 -7.27687e-22)
(1.06902 0.14169 -3.77132e-20)
(1.01436 -0.000180252 3.0733e-22)
(1.0167 0.00503011 -3.15716e-22)
(1.06916 0.0345076 2.25188e-20)
(1.0121 -0.000368954 9.98329e-23)
(1.06625 0.153261 0)
(1.07193 0.0806851 5.16037e-21)
(0.699376 0.514642 -2.01897e-20)
(1.14963 0.57835 1.29651e-19)
(1.0124 -0.000407748 1.95114e-24)
(-0.288374 0.865075 1.28594e-19)
(-0.347323 0.972128 2.58261e-19)
(0.977622 0.343758 7.81041e-20)
(1.01179 0.000853283 4.40445e-22)
(1.06395 0.0237974 1.72133e-22)
(1.08294 0.0540202 -1.68627e-20)
(1.12438 0.0181652 2.85971e-22)
(1.01982 0.0128495 0)
(1.02721 -0.00349465 1.55399e-21)
(0.956044 0.0866912 1.36411e-21)
(1.01419 -0.000128932 -6.17271e-22)
(1.08146 0.647631 1.78479e-19)
(1.08767 0.0629741 -1.15635e-20)
(-0.0242486 -0.49967 6.48662e-20)
(0.969981 0.134403 3.02464e-21)
(-0.356976 0.960872 -8.28239e-20)
(1.0802 0.0935912 3.68689e-20)
(1.0159 0.0159413 0)
(-0.252992 0.854257 9.9033e-20)
(1.02539 0.0191464 0)
(1.19069 0.431862 0)
(-0.0163569 -0.47849 -7.21654e-20)
(0.785996 0.48114 -4.34523e-21)
(0.986126 0.0584103 5.31487e-21)
(1.01723 0.00536467 -4.97858e-21)
(1.10728 0.0714752 -8.39504e-23)
(0.968072 0.633384 -1.92655e-20)
(1.03294 0.00114075 1.19087e-20)
(0.966443 0.129541 4.4505e-22)
(1.03774 0.0283401 0)
(1.28135 0.153567 1.09684e-20)
(1.07558 0.250832 -4.56444e-20)
(1.02946 0.011976 -3.36899e-21)
(1.01458 0.000355408 2.35487e-23)
(1.01097 8.58295e-06 -2.04924e-22)
(1.02612 -0.178913 5.63257e-22)
(1.06376 0.0266678 -4.45358e-22)
(1.0167 -0.000709916 2.18104e-23)
(1.01095 1.76968e-06 -1.95234e-22)
(1.0154 -0.000255057 3.56836e-22)
(0.8309 0.257304 3.74535e-21)
(1.083 0.0547053 -2.07391e-20)
(1.00864 -0.174671 -5.17117e-23)
(1.0156 -5.47192e-06 3.65024e-23)
(1.01295 -6.85014e-06 0)
(1.00675 -7.65707e-05 1.03551e-22)
(0.653104 0.547838 -1.52782e-21)
(0.994079 0.0832025 -2.1587e-21)
(1.06095 0.131731 1.77851e-20)
(1.06875 0.0335563 -1.01946e-20)
(1.01815 0.31863 1.89663e-21)
(1.01771 0.00393719 1.38621e-22)
(1.01759 0.00366797 0)
(1.03782 0.0272377 0)
(1.01752 0.00401068 2.74141e-22)
(1.10696 0.0721458 -1.85408e-22)
(1.06341 0.0230437 -7.77343e-23)
(1.08156 0.0565418 1.9221e-21)
(1.02677 0.0108256 8.25401e-21)
(1.02426 0.00131255 3.96797e-22)
(1.01676 -0.000404095 0)
(1.04518 0.018956 0)
(1.01468 0.000607477 3.07922e-23)
(1.06336 0.0250882 -1.54862e-20)
(1.01517 0.0187711 0)
(0.996249 0.0780691 -2.13413e-21)
(1.03348 -0.00903281 -4.50146e-22)
(1.04036 0.0402763 0)
(1.01615 0.00013637 1.19951e-24)
(1.01223 -0.000575451 0)
(1.01873 -0.00240812 0)
(1.0113 0.000684291 5.53076e-23)
(1.0027 0.0244743 0)
(1.04428 0.0198579 -8.4173e-21)
(0.839026 0.0109665 0)
(1.01908 0.0405459 -3.07471e-22)
(1.03324 0.00113236 -7.82674e-21)
(1.01372 -0.169522 -2.995e-21)
(0.923197 0.125987 -1.518e-21)
(1.08882 0.0649548 0)
(1.00679 0.0244285 0)
(0.996531 -0.0612408 -1.052e-22)
(1.24322 0.166095 0)
(1.03895 -0.0106192 4.02193e-22)
(1.01636 -0.000382697 -3.99877e-22)
(1.02755 -0.0049257 0)
(1.01528 0.00349093 2.42717e-21)
(1.05462 0.0824775 0)
(1.09203 0.159238 -2.58404e-20)
(1.0088 -0.11753 -2.4072e-21)
(1.01217 -0.000628221 0)
(1.0149 0.000277137 -2.43935e-23)
(1.01213 3.7328e-06 2.30605e-23)
(1.01291 -0.00427269 0)
(1.01646 -0.00075622 0)
(1.01313 -0.00567545 7.85741e-22)
(0.995597 0.189673 -1.36608e-20)
(1.01255 0.0529855 0)
(1.01603 0.00705616 -2.60267e-21)
(-0.361936 0.848364 6.33103e-20)
(1.01718 -0.000751307 3.9259e-22)
(1.01531 0.00315875 0)
(1.03541 -0.000776393 0)
(1.00377 0.137168 1.1314e-19)
(1.00831 3.10927e-05 -1.14788e-22)
(1.077 0.0825038 1.17637e-20)
(1.01387 0.050299 -1.77432e-22)
(1.01209 8.9072e-05 8.33854e-22)
(1.01499 0.000523719 -3.14407e-23)
(-0.335814 0.829308 0)
(1.07189 0.0676365 2.6068e-21)
(0.408263 0.433357 0)
(1.0801 0.0919719 -4.75892e-20)
(1.06287 0.13196 -1.83541e-20)
(1.01818 -0.122753 2.65206e-21)
(1.06628 0.0388469 8.38026e-21)
(0.821062 -0.0145656 -2.58215e-20)
(1.01746 0.00378478 -1.00646e-22)
(1.01746 0.0058678 6.22593e-21)
(1.02317 -0.150913 2.25021e-22)
(1.01124 0.00101155 0)
(-0.345011 0.852621 -3.83802e-19)
(1.00631 0.000118959 1.74602e-22)
(1.02234 0.0213091 -3.10795e-21)
(1.00765 0.172373 1.26427e-22)
(0.99763 0.0319998 2.56617e-21)
(1.01603 0.00769657 2.69267e-21)
(1.01717 -0.000602356 -4.01728e-22)
(-0.365525 0.861333 3.71018e-19)
(1.00568 -5.93737e-06 -1.53582e-22)
(1.01431 -0.0059154 0)
(0.964506 0.07714 -4.65576e-21)
(0.764322 0.50982 0)
(1.01767 -0.138895 2.24065e-20)
(1.03074 0.0123001 0)
(0.857874 0.0422403 1.37585e-21)
(1.0228 0.0220714 1.05513e-21)
(1.017 -0.000377639 -1.1366e-22)
(1.03919 -0.119098 -1.90876e-20)
(0.802028 -0.00193229 1.73076e-20)
(1.38354 0.500927 4.86087e-21)
(0.907547 0.094763 2.63143e-21)
(1.01506 0.00109351 1.05211e-23)
(1.00264 0.0308114 1.3255e-21)
(1.01513 0.00141408 -2.26352e-22)
(1.00781 0.000308751 -9.34411e-22)
(1.02277 0.0137398 0)
(0.0244639 0.897427 0)
(0.869984 0.11587 1.22755e-20)
(0.127966 0.498104 0)
(1.37879 0.512809 0)
(1.01207 -0.000421409 1.01023e-22)
(1.02865 -0.00705141 9.66573e-22)
(1.01573 0.00605428 0)
(1.02776 0.00023217 9.32097e-21)
(1.01759 -0.000409903 1.13161e-21)
(1.01229 -0.000685704 -2.59019e-22)
(1.02396 0.000671238 1.22311e-21)
(0.931232 -0.0563899 -2.23651e-21)
(1.02855 -0.00648563 -6.18043e-22)
(0.999759 0.33406 -2.40271e-20)
(0.433355 0.471583 -2.15256e-21)
(1.01228 2.44598e-05 -5.09638e-22)
(1.01543 0.00101659 2.39852e-24)
(1.02012 0.00561501 4.23736e-21)
(1.07563 0.0216814 2.27836e-20)
(1.07139 0.0678212 0)
(1.01929 -0.00247683 -1.44132e-21)
(1.01551 -0.00103009 1.22352e-21)
(1.00568 -0.000121654 8.02388e-22)
(1.0978 0.240109 0)
(0.743275 -0.217691 0)
(1.01551 -0.000291377 3.80205e-22)
(1.0298 -0.00429551 -8.42728e-22)
(1.00773 -0.14951 -8.76216e-21)
(1.02569 0.0199015 0)
(1.03085 -0.00592652 7.13004e-22)
(1.00813 0.0160453 -5.72056e-21)
(1.01414 -9.10636e-05 -1.50283e-23)
(1.01996 0.0123181 0)
(0.997977 0.358061 -6.26264e-21)
(1.03522 0.0495089 -2.08253e-22)
(1.01693 0.00549169 0)
(1.08714 0.223524 0)
(1.19681 0.426297 1.55581e-20)
(1.04061 0.0268882 1.26025e-20)
(1.01987 0.0125869 -6.6507e-23)
(1.01962 -0.00235904 1.42447e-21)
(1.01981 0.0052713 -4.33992e-21)
(1.03176 -0.0412479 2.25284e-21)
(1.07159 0.0392415 -2.1126e-21)
(0.970756 -0.163939 9.1988e-21)
(1.07588 0.0195446 -2.94893e-20)
(1.07187 0.0675008 0)
(1.0356 0.0468258 8.7065e-22)
(1.01358 0.00382875 4.49005e-23)
(1.03199 0.0285594 0)
(1.00144 -0.00448159 -6.20618e-21)
(1.05848 -0.0793 -1.75657e-21)
(1.24812 0.287665 -1.35437e-20)
(0.885038 0.0939356 -1.369e-20)
(1.02418 0.0450762 1.2477e-21)
(1.24022 0.27628 6.36755e-20)
(1.0111 0.015423 6.38048e-21)
(1.07089 0.0696186 0)
(0.865855 -0.306861 0)
(1.01473 0.00146277 3.83203e-22)
(1.06166 0.0280366 0)
(1.01535 0.000113102 -4.49272e-23)
(1.02315 0.0126692 2.38656e-21)
(1.07567 0.0822254 9.21578e-22)
(0.976968 -0.00517413 0)
(1.02183 -0.000102176 -1.9996e-21)
(1.07917 0.0334771 1.44263e-20)
(1.01586 0.000149989 -3.43534e-24)
(0.959416 0.579645 1.2359e-20)
(1.03219 0.000277888 1.96049e-21)
(1.01927 0.0101859 1.32049e-21)
(1.06438 0.0182056 2.55083e-20)
(1.01922 -0.00248201 0)
(1.2081 0.0548683 -3.12756e-21)
(1.07686 0.076659 -3.00444e-22)
(1.00664 -0.00011999 0)
(1.02 0.012186 0)
(1.02231 0.0122252 0)
(1.00671 5.76452e-05 -1.2666e-22)
(1.06665 0.0190525 0)
(0.975443 -0.0163476 1.97753e-21)
(1.01524 0.00174225 -3.84109e-22)
(1.00848 2.91107e-05 1.39682e-22)
(1.02231 0.0473642 0)
(0.842979 -0.329007 0)
(1.02329 0.000110354 -1.05116e-21)
(1.01546 -0.0077039 0)
(1.03136 0.00714647 0)
(0.167478 0.498157 0)
(1.01691 -0.000184313 1.7578e-23)
(1.01993 -0.00189022 2.43039e-21)
(1.09431 0.465813 0)
(0.829069 0.171176 0)
(1.02612 0.0133457 0)
(1.06332 0.0269051 -1.66251e-20)
(1.07373 0.0805931 -4.73765e-21)
(1.01081 0.000188065 -5.83198e-24)
(1.01112 0.000225851 -1.34274e-23)
(1.05068 0.0607867 1.93901e-21)
(1.04755 -0.0265698 0)
(1.04127 0.050715 3.48166e-21)
(1.02008 -0.00160588 -1.35045e-21)
(1.03593 -0.00300396 0)
(1.01625 -0.087985 4.40769e-22)
(1.01322 -4.20629e-05 -4.44028e-22)
(1.00723 -6.26441e-05 2.96375e-22)
(1.01562 0.00551927 -1.04381e-21)
(1.08285 0.0381536 -1.58312e-20)
(0.993154 0.0962914 0)
(1.01483 0.00173637 -5.87475e-22)
(0.974868 0.369494 1.37759e-21)
(1.08643 0.0521235 0)
(1.04732 0.245391 4.96351e-20)
(1.01075 -0.000169823 0)
(1.05706 0.0530916 -6.35011e-25)
(1.08636 0.0500203 -7.81731e-22)
(0.778539 0.563287 -2.96536e-21)
(1.07673 0.0779905 2.81937e-22)
(1.03746 0.0509132 0)
(1.18752 0.0666321 0)
(1.04954 0.0776757 -6.24525e-21)
(1.03687 -0.00226402 0)
(0.94838 -0.188299 6.03507e-22)
(1.03974 0.0498301 -2.85736e-21)
(1.03967 -0.0979549 0)
(1.06364 0.0166023 -2.82177e-22)
(1.01958 0.0102637 -9.65047e-22)
(1.02571 -0.00087092 0)
(1.07958 0.0384817 0)
(0.782641 0.560895 0)
(1.00944 -0.000133866 -1.49116e-22)
(1.0152 0.00496667 -1.0834e-21)
(1.03279 -0.0057682 0)
(1.03131 0.336788 -2.46215e-21)
(0.989416 0.036601 0)
(1.04991 -0.0385813 0)
(1.11446 0.0524955 -3.7219e-20)
(1.05951 -0.00202053 2.30634e-21)
(1.11462 0.0797304 -1.81173e-22)
(1.02962 0.000498457 -3.33651e-21)
(1.06149 0.0157014 -1.63704e-20)
(0.233041 0.538596 -1.36887e-19)
(0.83504 -0.205927 1.01095e-21)
(1.06797 0.0373229 -9.52555e-21)
(1.06604 0.0179122 0)
(1.01701 0.00170838 0)
(1.01073 -0.000177523 2.0124e-22)
(1.01619 0.00243625 0)
(1.09876 0.0284196 -2.02267e-21)
(1.08739 0.0771416 -1.83203e-21)
(1.00918 -0.000137648 0)
(1.05585 0.08678 0)
(1.01856 -0.00230319 8.03436e-22)
(1.01172 0.000852899 -5.20606e-22)
(0.970225 -0.0780405 -2.87541e-22)
(1.00784 0.000241918 0)
(1.03131 0.0300051 0)
(1.05535 0.0280181 0)
(1.04303 0.102232 -9.43725e-22)
(0.806382 -0.161845 0)
(1.01151 0.000621562 -5.59697e-23)
(1.07713 0.0213095 -3.44692e-20)
(0.975986 0.568703 2.58567e-20)
(1.02217 -0.00925749 2.82206e-21)
(1.11441 0.0795952 1.50454e-22)
(1.0304 0.00755691 0)
(1.02519 0.0116979 -2.83632e-21)
(1.02574 0.0114919 6.13981e-21)
(1.02017 0.0118056 3.61461e-22)
(1.02592 0.153921 -2.7892e-21)
(1.00408 0.0498589 1.18747e-21)
(1.02996 0.00755647 0)
(1.03933 0.0274688 6.41995e-21)
(1.00554 -5.9605e-05 0)
(1.03475 -0.00483766 0)
(1.04119 0.0235941 -7.40363e-21)
(1.07195 0.0547253 -1.39628e-20)
(1.03576 -0.00405593 0)
(1.02011 0.00595994 0)
(1.03844 -0.140429 6.26316e-22)
(1.01414 0.000239285 0)
(1.01342 0.000215949 -8.06529e-24)
(0.82268 -0.34599 -2.18156e-20)
(1.07193 0.0541198 0)
(-0.0256989 0.900158 1.1953e-19)
(-0.380734 0.964413 -8.80199e-20)
(0.906833 0.104512 0)
(1.00902 -2.28191e-05 2.19926e-22)
(1.00908 -1.82762e-05 1.30679e-22)
(1.04284 0.0045408 -8.98613e-21)
(1.04135 -0.0969122 -1.00675e-22)
(1.01536 -0.00113883 -1.30632e-21)
(1.02452 -0.0029671 -4.37505e-22)
(1.03407 0.00243981 0)
(1.00799 0.222868 0)
(1.00984 -0.000164369 -1.48084e-22)
(1.01562 -0.000299996 -7.30752e-22)
(1.01483 -0.000203719 0)
(1.09852 0.0337495 -1.01203e-21)
(0.729061 0.0327456 -8.55686e-21)
(1.20651 0.43859 4.10345e-20)
(1.05548 0.0508858 -1.20004e-20)
(1.0265 0.0484498 0)
(0.814488 0.786615 -4.34578e-20)
(-0.319481 0.5731 -7.50719e-20)
(1.01034 -0.000284126 -3.21712e-22)
(0.997176 -0.0830857 -5.16501e-22)
(1.03462 0.0307667 0)
(-0.394684 0.953594 -3.95223e-20)
(1.03069 0.0184604 2.53852e-21)
(1.0342 -0.0058857 0)
(1.01157 -0.000544681 2.68314e-22)
(0.775009 -0.204173 -1.69023e-22)
(1.00877 -0.000172413 2.5317e-22)
(1.01737 0.00356589 -1.74333e-22)
(1.02015 0.0112524 1.9725e-22)
(0.722925 0.550487 3.74243e-20)
(1.01509 0.000151598 5.23698e-23)
(1.00245 0.0488373 0)
(1.01702 0.00375943 -3.82647e-22)
(0.534338 0.803926 9.12622e-20)
(1.01805 -0.00216513 -1.65979e-21)
(1.06103 0.0778333 0)
(1.03109 -0.00698729 0)
(1.03657 0.00139598 1.6096e-21)
(1.00803 1.59562e-05 7.34025e-23)
(0.572484 -0.545197 1.25883e-20)
(1.05707 0.0520692 -3.4212e-21)
(1.00697 3.04466e-05 8.95535e-24)
(1.03399 0.00224036 -7.21299e-22)
(1.0422 0.00443123 0)
(1.01124 0.000341036 1.07946e-22)
(1.01173 -0.000419809 -2.31787e-22)
(1.00905 0.00030909 8.37948e-23)
(1.02251 0.00035745 6.64233e-22)
(1.03005 0.0185588 2.55539e-21)
(1.02569 0.0132359 0)
(1.01968 0.0108492 -2.81719e-21)
(1.0619 0.0701183 -1.17068e-20)
(0.867993 -0.428233 0)
(1.01835 0.00102448 0)
(1.04788 0.10157 -6.95165e-22)
(1.01885 0.00961121 0)
(-0.423146 0.52971 5.28142e-20)
(1.00883 -0.0873339 4.43826e-22)
(1.01379 -0.00012665 0)
(1.18111 0.297106 0)
(1.05944 0.0492983 8.37348e-24)
(0.91315 -0.0274529 3.21896e-20)
(1.01491 -0.000225829 -6.48986e-22)
(0.988794 -0.180806 3.69721e-21)
(1.0305 0.00374036 -7.9687e-21)
(1.01595 -0.0017556 9.40209e-22)
(0.83634 -0.321393 1.86888e-20)
(1.03219 0.00350907 8.39043e-22)
(1.05237 0.0592486 6.67027e-21)
(0.733454 0.444881 1.7639e-20)
(1.03712 -0.0117024 5.49777e-22)
(1.01949 -0.00985305 0)
(1.01036 -0.000274943 1.904e-22)
(0.415205 0.517167 1.45704e-19)
(1.01141 0.000935454 0)
(1.00366 -0.0335564 0)
(1.06377 0.0451822 8.50163e-21)
(1.13176 0.116408 -2.17367e-20)
(1.00573 -5.07769e-05 -2.44609e-22)
(1.05377 0.263768 -3.94265e-20)
(1.01225 0.0777134 -7.07019e-22)
(1.01953 0.000733214 -1.1596e-22)
(1.02234 0.0131904 0)
(1.02286 0.0121249 7.14907e-23)
(1.05093 0.0648946 -1.84773e-22)
(1.08008 0.0580663 1.55266e-20)
(1.0141 0.00216337 0)
(1.00796 -9.93852e-05 0)
(0.990065 -0.0990523 0)
(0.941492 0.686108 -2.30419e-19)
(1.04658 -0.0710166 -9.52214e-21)
(1.01122 0.0798119 -2.96645e-21)
(1.05929 -0.02725 4.50933e-22)
(0.8405 0.0289429 -1.46587e-21)
(1.05406 -0.0106822 1.44731e-21)
(1.01942 -0.000675783 1.07218e-22)
(0.689934 0.041717 -3.19676e-20)
(1.01576 -0.00177679 -1.25814e-21)
(1.03663 9.56684e-05 -5.87213e-23)
(1.01867 -0.000630799 -2.22996e-22)
(1.00781 4.67497e-06 -7.33362e-23)
(1.01439 0.000151863 0)
(1.018 0.000271778 -4.27939e-21)
(1.02475 -0.00284125 7.79399e-23)
(0.798424 -0.105084 0)
(1.02154 -0.00912029 -3.9847e-21)
(1.00843 -0.000186606 0)
(1.23783 0.482118 6.00176e-20)
(0.585557 -0.539372 0)
(0.767952 -0.108438 0)
(1.02079 -0.00059564 1.88844e-23)
(1.20926 0.335039 -6.90451e-20)
(1.02038 0.0125365 -7.94738e-22)
(1.06551 0.0406984 1.88398e-20)
(1.01236 0.000413749 0)
(1.03485 -0.0116702 0)
(1.01213 -0.000524191 0)
(0.90413 0.668138 3.58905e-19)
(1.02392 0.0124821 0)
(1.01326 0.00363885 1.43046e-22)
(0.545014 0.832867 -1.37777e-19)
(1.02011 -0.00155033 1.21859e-21)
(1.0849 0.096972 3.99796e-21)
(1.12545 0.580611 -3.98076e-20)
(1.01091 -0.000403555 0)
(1.02596 0.073867 0)
(0.924342 0.121092 -2.11236e-21)
(0.833316 -0.134345 4.59171e-21)
(1.02026 0.0116261 0)
(1.02994 -0.000624116 7.70301e-24)
(1.01198 9.67559e-05 1.05744e-22)
(1.00884 0.000102655 1.25786e-22)
(1.01602 -0.00160663 0)
(0.607605 0.0586086 -3.69355e-20)
(1.03054 0.0079191 0)
(0.752479 -0.199317 0)
(1.02036 0.012569 -1.49841e-21)
(1.05925 0.0485003 1.45222e-23)
(0.759713 0.00465384 0)
(1.00882 0.000146446 -1.63624e-22)
(0.802036 0.742379 0)
(0.595922 0.031392 0)
(1.03743 0.0042855 -8.52043e-22)
(1.01981 -0.00206751 7.53271e-22)
(1.00624 4.83226e-05 5.90274e-24)
(1.01746 0.00278277 -1.21519e-23)
(1.01135 0.000337445 -1.10199e-22)
(1.06438 -0.0665328 -1.18375e-21)
(1.00894 0.256025 0)
(0.997684 0.00417631 3.46403e-21)
(1.22385 0.403421 4.26859e-21)
(1.06912 -0.0439723 -1.51847e-21)
(1.07882 0.0822794 -6.3839e-22)
(1.00262 0.0827074 -3.5464e-21)
(1.01878 0.0398658 4.52794e-22)
(1.04602 -0.00894805 0)
(1.07553 0.0171839 1.14901e-20)
(1.01987 -0.00132774 0)
(0.91257 -0.0288962 5.74336e-21)
(1.03767 0.135621 -2.50444e-22)
(1.07195 0.0704997 -3.68852e-21)
(0.985941 -0.0255266 -4.60304e-21)
(1.01456 0.00198083 2.19798e-21)
(1.02185 0.000276284 9.38078e-22)
(1.04382 -0.00828013 0)
(0.841728 0.463992 6.17069e-21)
(1.04466 -0.010743 -1.12697e-21)
(1.01565 4.81426e-05 -2.48303e-23)
(1.02012 0.0113512 -1.9511e-22)
(1.04588 0.12488 0)
(1.00688 0.021761 -2.88587e-22)
(0.847968 0.2127 0)
(1.02468 0.0132676 0)
(1.03998 -0.00953531 4.36024e-22)
(1.01486 0.000244325 -4.3845e-23)
(1.08844 0.0784301 -1.21878e-20)
(1.01587 -1.63931e-05 -1.95322e-23)
(1.06436 0.0706247 0)
(1.22621 0.434011 -8.7101e-20)
(1.01515 0.00637134 1.0155e-21)
(1.01991 0.000471347 1.16756e-22)
(1.00791 0.000546588 4.6148e-22)
(1.05155 -0.0118927 0)
(1.01879 0.0110923 -1.41281e-21)
(1.02512 0.00129247 -4.22779e-22)
(1.04117 0.112151 1.05192e-21)
(1.02373 0.0793718 0)
(1.03099 0.031038 0)
(1.02043 0.000372632 -4.01496e-23)
(1.06194 0.0800274 -1.53972e-21)
(1.11225 0.00375266 -1.21128e-21)
(1.03671 0.109611 0)
(1.05785 0.0289553 0)
(1.01361 -9.13876e-05 7.93374e-23)
(1.0354 -0.000949434 2.7954e-22)
(0.190001 0.53842 -2.26459e-20)
(1.02003 -0.00189558 -7.31455e-22)
(1.02345 0.0116662 3.21396e-21)
(1.07958 0.00171209 0)
(1.02167 0.0122956 2.69009e-21)
(1.03143 0.00145843 -8.23512e-21)
(1.10791 0.0595242 2.49303e-20)
(1.02818 0.0704173 -2.33031e-22)
(1.01854 -0.000767071 0)
(1.02051 0.0110073 -2.01202e-22)
(1.02826 -0.00112964 8.79657e-24)
(1.01398 0.00179863 -1.00201e-21)
(0.939653 0.0850531 -1.43971e-21)
(1.01681 0.000879333 0)
(1.02734 -0.00596208 0)
(1.03931 0.0397527 1.68528e-22)
(-0.392337 0.26622 0)
(1.01834 -0.00960116 0)
(1.06216 0.0170173 -2.40798e-21)
(1.02725 -0.00110561 0)
(1.04596 0.00295775 -1.22939e-21)
(1.0119 0.00234417 3.99377e-22)
(1.0083 5.5451e-05 -1.14037e-22)
(1.1872 0.631449 9.91056e-20)
(1.02645 -0.019303 -1.40871e-21)
(1.03212 -0.00633139 -4.85459e-22)
(1.00727 -2.62042e-05 3.07711e-22)
(1.03053 0.0116458 0)
(1.03433 -0.0781648 7.88174e-21)
(1.06473 0.0609701 0)
(1.02211 0.161572 9.21912e-22)
(1.01564 0.0023261 0)
(1.03277 0.0295689 0)
(1.02988 -0.000861067 -2.48155e-24)
(1.23751 0.399491 -1.52121e-19)
(1.02993 -0.00772585 0)
(1.13261 0.114061 1.51905e-21)
(1.07309 0.0707248 -3.43164e-21)
(1.01509 0.00619467 0)
(1.05676 0.0488579 -6.48679e-21)
(1.02772 -0.00106469 -1.46564e-23)
(1.0169 -0.00791525 1.29669e-21)
(1.07799 0.0154644 -2.55331e-20)
(1.03157 0.00777797 0)
(0.230473 0.363124 -6.99508e-21)
(1.08324 0.0318456 0)
(1.02737 -0.0197072 1.38424e-21)
(1.07954 0.0800411 -5.26313e-21)
(1.02021 0.00999512 8.41049e-22)
(0.874601 0.555365 0)
(1.03025 0.0722303 1.23887e-22)
(0.308108 0.887131 0)
(1.0346 0.000282085 0)
(1.04379 -0.00712388 -1.44982e-21)
(1.05909 0.0302232 1.09056e-20)
(1.02015 0.0367664 -3.29747e-22)
(1.04044 0.0237062 0)
(1.02414 0.0121306 1.28388e-21)
(0.964919 -0.00557574 1.06479e-20)
(1.01223 -0.000735959 0)
(1.03619 0.0471169 -1.06966e-21)
(1.0339 0.000585828 1.97689e-22)
(1.02039 0.0107591 0)
(1.0366 0.00879777 1.08572e-20)
(0.98427 -0.06224 0)
(1.07986 0.0347832 0)
(1.00795 0.0191378 0)
(1.01609 0.000191262 0)
(0.9779 0.110477 -1.81507e-21)
(1.06894 0.015592 0)
(1.24571 0.249692 5.5118e-20)
(1.00835 -0.0691507 2.66751e-21)
(1.02078 -0.0101299 0)
(1.07053 0.000633641 0)
(1.18171 0.636791 -9.90855e-20)
(0.731282 0.0468291 -5.21702e-21)
(1.04035 0.0405504 -8.2639e-21)
(1.07575 -0.00839467 0)
(1.00407 0.0834061 5.20978e-21)
(0.52374 -0.00744751 -8.23349e-20)
(1.05262 0.0541276 -2.09789e-22)
(1.02368 0.000697204 -1.47165e-21)
(1.04641 -0.0140293 1.35743e-21)
(1.03018 0.0125301 0)
(0.362724 -0.626725 3.03362e-20)
(0.260591 0.315769 7.65726e-21)
(1.02981 0.0112964 2.19093e-21)
(1.04587 0.0307456 0)
(1.0362 0.0019016 2.00321e-24)
(1.21833 0.519963 1.1026e-19)
(1.00551 -9.07459e-05 -1.32099e-22)
(1.01996 0.000545938 -6.35285e-23)
(1.15425 0.301616 0)
(-0.1712 0.886918 -8.31028e-20)
(1.00874 7.83091e-05 -5.12279e-23)
(1.02101 0.0506701 0)
(1.25458 0.253938 -1.22602e-19)
(1.0271 -0.0051738 2.25179e-21)
(1.01772 0.00151153 -8.89275e-22)
(1.03405 0.0516958 1.36651e-21)
(1.05484 0.0879345 -8.31287e-21)
(1.04388 -0.0152072 2.20913e-22)
(1.13208 0.452166 -1.42802e-20)
(1.01945 0.0103072 2.66932e-21)
(1.01695 0.0538549 -6.83404e-22)
(1.01577 0.00488311 0)
(1.05346 -0.0183138 1.57945e-21)
(1.18802 0.133195 -1.0185e-19)
(0.84714 0.0998846 3.39679e-21)
(1.04409 0.0222162 -4.93121e-21)
(0.778365 -0.170102 1.91871e-20)
(1.0157 0.00162202 0)
(1.00836 -0.033498 -3.8549e-21)
(1.01587 0.00102356 0)
(1.0691 0.0158604 0)
(0.861515 0.147706 -4.3219e-21)
(1.06552 0.0485197 0)
(1.05661 -0.055053 -2.70556e-21)
(1.01315 -0.000453344 -7.3855e-22)
(1.01641 -0.000938012 1.83049e-21)
(1.2206 0.340357 6.93767e-20)
(1.07054 0.0453431 -3.95878e-22)
(1.0161 0.00291213 -9.63752e-23)
(1.0121 0.0189047 2.24041e-21)
(1.02431 0.0138422 0)
(1.01398 0.00192481 0)
(1.01612 5.94686e-05 0)
(0.994774 -0.0189738 0)
(1.04476 -0.014451 3.90745e-22)
(0.959016 -0.0289902 -3.75761e-21)
(1.045 0.0736718 -4.79979e-21)
(1.02304 -0.00615562 2.01376e-21)
(1.11316 0.057841 0)
(1.03111 0.00292262 0)
(1.11754 0.054303 3.82937e-20)
(1.03837 0.00405166 2.55505e-21)
(1.05297 -0.0198242 -2.14085e-21)
(1.0658 0.0597354 -8.63105e-21)
(1.01581 0.00469195 -2.24401e-21)
(1.0097 -0.00016843 0)
(0.865787 -0.0266741 -2.00402e-21)
(1.04788 0.0539185 0)
(0.394306 0.490163 -1.54941e-19)
(1.03836 0.197459 -2.50319e-21)
(1.01608 0.00113279 2.87451e-21)
(1.0389 -0.0118536 -1.37968e-21)
(1.02082 0.0107024 6.16165e-22)
(0.357348 -0.601251 -2.45664e-20)
(1.00555 3.64837e-05 9.94554e-25)
(1.00636 -6.62792e-05 2.18335e-22)
(1.01519 0.00238911 2.42565e-22)
(1.05266 0.0410939 -1.60359e-21)
(1.02025 -5.53604e-05 -1.32351e-21)
(1.16878 0.304683 0)
(1.01621 -0.000379185 1.27333e-23)
(0.947878 -0.0271199 1.46639e-21)
(1.01418 0.000163951 -4.94408e-23)
(1.02036 0.0535334 0)
(1.01757 0.053229 -3.87442e-22)
(1.00728 -0.000105699 2.73278e-23)
(1.01571 0.00160649 0)
(1.03621 0.00843397 -7.84227e-21)
(1.0129 -0.000440743 5.31195e-22)
(1.06168 0.074311 0)
(1.01632 -0.000733789 -1.662e-21)
(1.04962 0.0727336 2.17076e-21)
(1.07491 0.0369731 1.86969e-21)
(-0.179248 0.680765 9.72434e-20)
(1.1344 0.202765 6.85255e-20)
(1.01391 0.00143931 0)
(0.900501 -0.0251889 2.07879e-21)
(1.09896 0.0488158 -7.85477e-21)
(1.0377 0.0389783 2.58717e-21)
(1.02643 2.36784e-05 0)
(1.06924 0.031432 0)
(1.04098 0.0315757 -6.09836e-21)
(0.939128 -0.0364266 1.98359e-24)
(0.53429 0.0245747 3.41085e-20)
(0.950846 0.106716 8.8206e-21)
(1.01403 0.00165444 3.04913e-22)
(1.03695 0.0378622 2.81471e-21)
(1.09424 0.0432368 2.87484e-20)
(1.01644 0.000369693 1.55218e-23)
(1.05219 0.0652033 3.57883e-21)
(1.0093 0.000617254 0)
(0.788404 -0.16595 4.73986e-22)
(1.05942 -0.00914769 -2.1689e-21)
(-0.130001 -0.308842 -3.16356e-20)
(1.03636 0.0503761 1.07878e-21)
(1.02082 0.0106896 0)
(1.06055 0.00654849 0)
(1.02945 -0.00474626 0)
(0.839021 0.599038 4.25724e-20)
(1.01631 0.000556805 8.24715e-22)
(0.947662 -0.0742663 -7.70637e-21)
(1.01254 0.0208302 -2.37931e-21)
(1.01586 -0.00164216 8.69845e-23)
(0.891234 -0.167998 -2.49075e-21)
(1.03069 0.00314021 7.95259e-21)
(0.971591 -0.00462633 5.38941e-21)
(1.05381 0.0403132 1.5174e-20)
(1.07984 -0.0478588 -8.98384e-22)
(1.13598 0.187695 0)
(1.01043 0.000815061 0)
(1.04368 0.0217753 1.49091e-20)
(1.02145 0.00247339 -8.64188e-23)
(1.02058 0.000970298 0)
(1.01735 0.0194365 8.3957e-23)
(1.11406 0.530484 -5.34105e-22)
(1.03027 0.278643 1.96342e-20)
(1.06077 0.0895844 0)
(1.01983 0.0130877 1.70605e-24)
(1.01267 -0.000369119 1.13504e-22)
(0.940328 -0.0365085 1.01094e-20)
(0.666427 0.382393 0)
(1.06659 0.0399339 1.10216e-20)
(1.08168 0.0572827 2.31751e-21)
(0.98056 0.0473954 7.90744e-21)
(1.16042 0.559303 4.83368e-20)
(0.997325 -0.0294603 -2.87787e-22)
(1.01659 0.00337154 3.12677e-22)
(1.04848 -0.00124962 1.93347e-21)
(1.05258 0.0535218 4.14394e-21)
(1.00508 -0.00567979 7.12571e-21)
(1.03235 0.0462831 -3.48845e-21)
(1.02028 -0.00050341 5.81389e-23)
(1.01786 0.0177098 3.33261e-23)
(1.03756 0.00376885 -1.42787e-20)
(1.02087 0.258872 0)
(1.01616 0.00299916 -1.67455e-22)
(1.02217 -0.00051571 -1.65407e-21)
(1.01984 0.0108772 -1.06349e-21)
(1.01961 0.0113153 0)
(1.12776 0.515764 -1.09547e-20)
(1.0224 -0.00031417 1.33561e-21)
(1.01248 -5.46425e-05 0)
(1.0097 1.6266e-05 0)
(1.01346 -0.00054583 2.16055e-22)
(1.01989 0.00953791 0)
(1.01886 0.00972716 6.32729e-22)
(1.07075 0.0669045 6.92426e-21)
(1.0196 -0.000547344 -1.00398e-22)
(1.06234 0.167748 0)
(0.359098 0.420626 2.47196e-21)
(0.830299 -0.0174369 5.02458e-21)
(1.03765 0.00387088 1.26013e-20)
(0.411929 0.849914 -9.33203e-21)
(1.13981 0.300916 -4.12598e-20)
(1.06523 -0.0497897 5.204e-21)
(1.00753 0.000296473 6.57546e-22)
(0.903011 -0.0624224 0)
(0.864319 0.00153891 -5.10078e-21)
(1.0198 -0.00124933 -2.30604e-21)
(1.09898 0.0325636 -1.28036e-20)
(1.0237 -0.00841201 3.0254e-22)
(1.03201 0.00692749 2.78236e-21)
(1.04895 0.0898203 7.34894e-21)
(1.06315 0.0754202 0)
(1.02148 -0.000317407 7.69721e-22)
(0.819411 0.117329 3.83638e-21)
(1.0198 0.0102982 -2.89755e-21)
(1.02914 -0.00272572 -2.10317e-22)
(1.06524 0.0440859 0)
(1.01836 -0.00126979 0)
(1.02012 -0.000623965 0)
(1.01832 -0.00127523 1.57974e-22)
(1.03464 0.0684496 -6.8946e-21)
(1.0348 0.0689507 -3.55129e-21)
(1.05636 0.0949081 1.02754e-20)
(1.03227 0.0276911 2.14992e-21)
(1.01671 0.00158888 0)
(1.02184 7.34528e-06 1.18556e-21)
(0.995169 -0.0773925 -4.06909e-21)
(1.01376 0.00453842 5.16595e-22)
(1.01696 0.00150929 3.79413e-21)
(1.07714 -0.022219 -5.21253e-21)
(1.01378 -8.79809e-05 0)
(0.694036 0.392633 -8.89156e-21)
(1.02409 -0.00756876 -1.42013e-21)
(1.01658 0.00245067 -5.43185e-24)
(0.195115 -0.422785 0)
(1.01715 0.00243719 0)
(1.0115 -0.00774115 4.41052e-21)
(-0.0931697 0.716923 -2.31809e-19)
(1.02837 0.000153362 6.72015e-21)
(1.00752 -4.92654e-05 -2.8616e-22)
(1.03339 0.00278369 1.28229e-21)
(1.05168 0.0209639 0)
(0.839807 0.119935 -3.43829e-21)
(0.967117 0.13765 -7.51282e-21)
(0.783499 -0.127517 -3.70459e-21)
(1.07112 0.0671271 4.56552e-21)
(1.0115 -0.000580418 0)
(1.01422 0.00520946 2.76331e-22)