/*--------------------------------*- C++ -*----------------------------------*\
| =========                 |                                                 |
| \\      /  F ield         | OpenFOAM: The Open Source CFD Toolbox           |
|  \\    /   O peration     | Version:  v2012                                 |
|   \\  /    A nd           | Website:  www.openfoam.com                      |
|    \\/     M anipulation  |                                                 |
\*---------------------------------------------------------------------------*/
FoamFile
{
    version     2.0;
    format      ascii;
    class       volScalarField;
    location    "350";
    object      ddt0(omega);
}
// * * * * * * * * * * * * * * * * * * * * * * * * * * * * * * * * * * * * * //

dimensions      [0 0 -2 0 0 0 0];


internalField   nonuniform List<scalar> 
18598
(
-0.372484
-0.0105195
0.00181529
-0.0103663
0.0133232
-9.58034e-06
0.0476528
-4.44188e-07
-3.95453e-07
0.000234722
-1.2357e-06
-0.0039299
-5.72553e-06
0.151551
-0.365621
-0.00501452
0.000804942
0.0180357
0.0368824
0.0260791
0.0250719
-2.51056e-06
0.00582281
1.20228e-06
-2.02625e-06
0.0567283
-1.49802e-06
0.235398
6.71683e-07
-2.57445e-06
-0.649768
1.77892e-07
0.0739856
-1.38146e-06
-0.047107
3.34914e-06
0.000395489
-1.89721e-06
-0.00325053
0.0688387
0.296439
-2.37989e-06
4.11103e-06
-0.00175098
3.15634e-06
0.137871
-2.28049e-06
0.0753245
-0.00115742
-1.07184e-06
0.00738218
1.27445e-06
3.2464e-05
-0.0296687
0.000157988
3.31157e-06
-0.124313
0.0707762
-1.12145
-0.0504175
6.70946e-06
-2.32634e-06
3.88971e-05
-0.023748
-0.000907018
0.000108336
-0.00019828
0.00010214
7.85373e-06
-0.630023
-8.015e-05
-5.04349e-08
7.84986e-05
1.67444e-06
1.05535e-05
-1.47504e-07
8.50187e-06
-1.88668e-05
-1.9563e-05
-0.00120694
-2.25184e-07
7.5899e-07
4.36908e-06
5.88185e-06
-3.30556e-07
8.06065e-05
-1.34359e-06
0.0249997
-0.203876
0.22276
0.000359631
6.94826e-07
-1.3689e-06
3.57841e-07
-3.7086e-06
0.000184657
-0.000802298
0.00610084
-0.00096806
0.000427619
-0.125938
-0.142509
0.0961241
0.0275095
-3.24742
-0.00163939
0.00828706
0.0275547
-8.68228e-07
0.268346
0.00193412
-2.74996e-06
0.00480636
0.049093
6.20914e-07
0.016902
-0.000809198
-1.26018e-06
0.00113893
1.76798e-06
-0.00483587
-0.0202197
-0.0550463
3.79834e-06
4.24499e-07
-0.418058
0.650775
1.98084e-06
-2.35411e-06
0.255481
-0.0266864
-2.80987
0.00237804
-0.000961852
-0.000349414
-0.0023061
-1.38227e-06
1.10765e-06
2.05531e-06
-0.581063
-8.25751e-05
-2.0809e-06
0.000420707
-2.59138
0.000300923
2.22386e-05
-1.2573
-3.18479e-06
-0.064959
-2.12247e-06
1.08763e-06
0.00684238
-0.00165532
0.0108333
2.22884e-05
8.19667e-06
-0.00162428
0.0578164
3.46014e-06
-2.95531e-07
-0.00121391
-0.305051
0.0113319
5.74898e-06
-0.140769
-0.489123
0.00534306
-1.97369e-06
3.85923e-06
-6.80583e-07
-8.68805e-06
-0.00526002
0.0310541
-0.00571481
0.0290347
0.169176
-0.00237921
0.0575042
1.98e-06
2.23464e-06
-0.147003
-6.39349e-07
-0.000267703
-0.32112
-1.23053e-06
-1.25431e-05
-0.268734
-1.08994e-05
-0.00201663
-0.381067
0.0013675
-0.00113179
1.127e-06
-0.10379
0.000984314
0.00241905
-1.06245e-06
0.000445322
-3.12747e-06
-0.153129
-0.00230379
-0.000388552
-0.000771919
-0.00926844
-0.00319801
-8.17468e-06
-1.33123e-06
0.000446767
-0.000839747
0.442045
-1.22716e-05
-1.30163e-06
1.91368e-06
0.00441761
-0.294462
6.05482e-05
0.201474
-0.0238365
-0.000571494
2.41479e-07
0.0739671
0.0148461
0.228802
4.95561e-08
8.10355e-06
4.84065e-05
-0.00102177
0.373288
0.000497554
-3.72092e-06
0.00619221
-0.0205631
-1.08153e-05
0.000984399
-2.52949e-06
-8.45583e-06
1.07396e-06
-0.0100476
-6.2985e-07
-0.00774211
1.38758e-06
-1.67519e-06
-0.00246914
-0.000293816
6.89531e-07
-9.52675e-05
1.27975e-05
-9.5449e-05
2.68818e-08
2.5724e-07
0.0553829
8.23382e-05
-0.123556
-0.41585
1.4541e-06
-4.95256e-05
7.70444e-07
-0.013816
1.58564e-06
0.126719
-9.36042e-06
-6.00451e-07
-0.627512
6.08558e-05
1.13268e-06
0.00117601
-1.60035e-05
3.16084e-06
3.14773e-06
0.00684194
2.86098e-06
-8.2123e-05
-0.504579
5.25862e-06
0.000381216
-0.215589
-1.2217e-05
0.0295692
-0.00477949
-1.43446
0.0182763
0.048727
4.25778e-05
-0.00697551
-0.0123262
-0.000954506
-0.0164132
-9.68489e-06
0.176087
0.067948
1.23524e-06
0.000529025
-1.27412e-06
0.000888606
0.257266
-0.000486297
-0.108781
-0.000756603
3.21052e-07
0.0382522
1.39817e-05
-8.36627e-06
-0.0268939
-0.000402237
2.8399e-06
-0.099787
1.44623e-07
-8.32108e-06
6.18136e-05
2.61549e-06
-9.25928e-05
1.56113e-07
-1.42282
-1.08382e-05
1.51299e-05
0.379886
0.000547429
2.15857e-06
-0.0675109
2.27854e-07
-0.000987342
-1.14852e-05
-2.04333e-07
-8.77734e-07
0.0342031
0.0922232
-0.000509998
-0.012706
1.57904e-05
-0.0350735
-6.79093e-07
0.408713
-4.5496e-06
-0.0368559
1.36196e-06
0.0918702
-3.05299e-06
0.000706187
-0.0742512
2.02589e-06
-0.00360364
-1.73887e-07
-0.344528
7.52101e-05
-0.00230563
2.82895e-06
-1.5982e-05
-0.0688183
-0.390765
-0.0114063
0.000103356
0.00496128
-2.80068e-05
-0.509214
-3.48232
-0.000112213
-0.994809
0.192723
-0.0456229
0.000361083
0.0158044
-0.156825
-0.00173444
3.84515e-05
0.164723
-1.11541e-06
0.0408136
3.87396e-06
-0.0415768
4.89455e-07
-4.34237e-05
0.000260729
1.28229e-06
-8.98267e-07
-1.98615
1.66917e-06
-1.20267e-05
2.9101e-06
-1.60741e-08
-0.000332183
0.000156032
-0.053912
0.0274335
-6.50931e-07
-8.34216e-06
0.0139172
1.57802e-05
-8.59464e-06
0.0150748
0.000198959
4.06294e-06
0.236939
0.000195824
0.00851868
-0.0219217
-1.31395e-05
4.46853e-07
-0.0665654
0.0295006
3.0458e-06
-2.52889e-06
0.000103646
2.21258e-07
0.000188218
-0.00315209
0.00372188
9.30995e-05
-1.15264
-1.18503e-05
-0.10981
0.00307431
-3.91837e-08
0.242586
-0.658866
-0.088545
0.000193788
-0.000666739
-0.00162424
-0.0529784
-0.0446496
-1.31727e-06
2.58844e-05
-4.45731e-07
3.25977e-06
-0.227291
-0.0872024
-0.0508934
-6.38754e-07
1.96606e-05
-7.64238e-05
4.22594e-05
-1.12222e-06
1.28063e-06
2.701e-06
0.00155349
-0.000166947
1.1636e-06
3.18553e-06
1.06328e-06
-8.13981e-07
8.67127e-06
-1.39794e-07
-0.314232
-0.00545294
-3.16615e-05
-0.000118595
0.000147664
-6.60882e-07
0.00434071
-0.680476
-6.41634e-06
-8.89322e-08
-9.92674e-06
-0.622348
5.34966e-06
-1.38709e-06
-5.70122e-05
2.06579e-06
-4.39129e-05
9.43681e-08
-0.129163
5.58707e-07
-5.70996e-05
1.16004e-06
-1.09006e-06
-3.54797e-05
-3.47803e-05
0.147842
1.18497e-06
-5.59344e-07
1.12375e-06
-4.35837e-06
-4.45322e-07
0.000654188
-0.118277
4.17105e-06
0.000146809
-2.06359e-07
-4.32236e-05
-1.39375e-05
0.00379603
6.08567e-06
-0.000841772
3.20152e-06
7.51357e-07
-0.68642
-0.00030402
7.29388e-07
0.00106555
0.0709593
-0.069232
0.264873
-0.00248393
3.82445e-06
0.213125
0.0371914
2.42744e-06
-2.33011e-06
-0.0738174
-0.000237278
-0.285945
0.0074799
-3.70343e-05
0.383877
-3.35449e-06
5.04318e-07
-2.66429e-06
1.77445e-06
-0.0190463
3.62219e-05
0.0196031
0.000399084
-1.82941e-06
0.193648
-0.0529097
-0.685765
-0.317667
0.0821294
-2.83213e-08
1.58553e-07
-0.383799
-0.000646709
-0.438399
0.0701487
-0.000384627
-2.26872e-06
-0.076304
0.0236152
-0.000546238
-1.9926e-06
-1.52762e-05
-6.04679e-07
1.49166e-06
6.62976e-05
-1.35085e-05
-5.36211e-07
-0.0587948
2.88627e-07
-4.67131e-07
-0.0201192
0.00371428
-0.06185
-8.81744e-06
0.000563065
-0.343012
0.00063129
-3.38492e-05
0.154527
0.00784703
-0.0403971
-0.0560105
-1.50342e-07
-3.60816e-05
6.5769e-06
-0.00554091
1.62993e-06
0.00204752
-2.42597e-08
-6.61824e-07
-5.63785e-07
-6.94369e-07
0.0500447
-0.366669
-0.00189146
0.488346
-0.0189342
-2.11373e-06
-0.0184241
-1.25439e-06
-1.11188e-06
-0.0013008
0.248806
-1.18122e-07
0.000380802
1.7455e-06
7.48435e-08
6.81353e-07
-0.385839
-3.40702e-05
-2.32599e-06
-2.02122e-07
0.198899
-0.0421452
0.356268
-0.00053846
-1.84078e-06
3.62987e-06
0.0336858
0.0092709
6.78308e-06
-2.86637e-06
-2.42268e-07
4.67235e-07
-0.000627533
1.01735e-05
0.000600545
0.00240625
1.19639e-06
-0.0641913
-6.01505e-05
-0.00235693
-1.9995e-05
-2.04709e-06
7.10607e-05
1.02085e-06
2.89091e-06
0.0140635
0.00210617
0.0629688
7.07787e-05
-0.00275142
6.43972e-05
0.0114312
-0.192612
-2.86645e-07
6.55578e-07
-6.04163e-05
-0.263326
-6.89069e-06
8.26156e-05
7.61515e-07
0.07465
-0.399862
-2.27261e-07
-1.03054
0.000271274
-0.0952334
-0.350095
-0.000727818
-8.20158e-07
0.000151083
1.16966e-06
-0.00822061
-0.00281485
-0.0001269
-0.136303
-0.000869023
-1.54477e-05
0.0105681
0.000356094
-0.00219344
-9.31397e-07
0.0446113
-0.00594105
0.0470657
-6.56616e-06
0.000149324
-0.023509
4.46471e-07
1.00967e-06
0.000173475
9.61757e-07
0.0404488
-0.00055566
-0.189527
-0.216871
-0.0832295
5.08746e-07
0.0125462
2.965e-06
-9.50478e-07
-2.03122e-06
0.00891137
6.95134e-08
1.10713e-08
-1.02434e-05
1.68769e-05
0.000780119
-9.97927e-05
-0.00232711
-5.05755e-07
-1.66651e-06
2.48743e-06
0.161966
-0.0581864
-6.52079e-07
1.68109e-06
-0.017479
0.0164091
-0.268643
0.000375203
0.578011
4.446e-05
-0.00930549
0.0653781
9.81014e-07
-6.88734e-07
-1.46174
0.00796401
-9.50137e-07
0.280289
0.392231
0.0845261
6.62004e-05
-0.000186835
-5.92253e-08
0.00504686
-0.0177919
-0.065464
-7.01274e-07
-0.00390284
-0.27563
7.84151e-07
-0.0611153
6.4537e-05
-7.07469e-07
1.94831
-7.94468e-07
-0.124999
1.22971e-06
-4.11167e-07
1.18945e-06
-3.87497e-05
0.0263107
-0.0483807
-1.25664e-05
0.0363995
2.05519e-06
-2.8477e-06
5.23684e-05
-0.00444557
-9.95053e-07
5.00473e-05
0.0128928
7.39775e-06
-1.86173e-06
-6.19957e-07
-0.705226
-0.0011466
-0.0320119
-0.00114449
1.80624e-05
-0.000134727
-1.51879
-0.0940717
-0.000192265
-0.047303
-0.00088211
2.27275e-05
0.000471456
1.83339e-05
5.52229e-07
0.00625248
-3.99743e-05
3.30109e-05
2.25959e-06
0.128018
-0.0117136
-0.248972
-0.0664485
-0.0014166
0.0208021
-4.82266e-07
-0.32969
-0.0158279
-0.000759992
1.32386e-05
2.88374e-06
-0.00958425
-0.0360935
0.000193818
0.000375844
-0.201053
-2.2682e-05
-0.0126523
2.62367e-07
-0.233326
-0.444875
4.37358e-07
4.69432e-05
-3.57137e-05
-2.23639e-06
1.7931e-07
3.09831e-06
1.79093e-06
-1.91779e-06
0.0276078
-3.36476e-07
1.60236e-06
-3.06132e-07
0.0338796
0.327994
-1.15279e-05
2.51105e-06
-4.77626e-05
2.51799e-06
-0.0430798
0.00196447
-0.527037
-1.49002e-06
5.62574e-05
0.0604708
5.11123e-07
-0.00100123
4.1108e-07
-2.73052e-06
0.000171604
-3.48491e-06
-6.7263e-05
-0.40725
0.0170751
1.33443e-06
2.86836e-06
-7.28806e-06
8.3441e-05
-0.0128316
0.00448859
-1.12881e-06
2.4444e-06
2.23409e-06
-8.54395e-06
-0.000119414
-6.89448e-07
1.03389e-05
-0.360889
-3.0936e-06
-1.12237e-05
-0.0746296
0.252945
0.0823809
-0.437797
0.485187
6.96334e-07
-0.00860976
-1.633e-06
7.09639e-07
2.36203e-06
-2.14997e-06
0.000199954
2.57117e-08
1.27217
1.14154e-05
0.000505859
1.53457e-06
-3.51465e-06
3.23413e-05
0.000139856
0.141303
-0.28749
-0.00241847
2.44732e-08
3.38204e-05
-0.188526
1.69874e-06
-0.379777
1.14021e-07
0.0163992
-0.0382563
0.00012567
-6.65973e-05
0.583039
-0.292788
0.000205049
-0.0116421
-0.000569539
-1.60123
-1.3407
3.48482e-05
0.860627
-6.45436e-06
2.39323e-06
-7.12014e-07
-3.66698e-07
-7.00664e-07
6.82072e-07
-0.193822
-9.73479e-05
-6.40089e-05
-3.64865e-05
0.00477657
-1.92673e-06
-0.330941
5.08226e-05
-0.000116092
-8.02494e-06
-6.19048e-06
4.52231e-06
-6.66381e-07
-2.8985e-06
2.3155e-05
0.000270438
-1.08115e-05
-0.0015042
1.64172
-2.66728e-07
0.143324
-0.00134717
-4.14151e-07
0.0652466
-0.000387686
3.30535e-06
-0.133066
-0.113912
-0.000386952
0.113827
2.55415e-06
9.01314e-05
5.27234e-08
-1.92022e-06
-4.43403e-05
-5.14407e-08
6.88087e-05
-1.82602e-05
0.000212305
-8.84704e-05
3.41526e-06
-0.00820631
1.96718e-05
3.16819e-07
-0.0098226
-0.357672
1.58619e-06
-8.85997e-05
0.000349715
0.00339534
-1.65915e-06
-3.57808e-06
0.000861041
-3.52931e-07
0.140258
-0.000333536
0.228624
-8.19354e-06
-1.83299e-06
-1.55873e-05
-0.000115346
-9.50985e-07
0.000931739
-2.23429
0.634897
-3.06415e-07
0.00487264
0.0556038
-7.53151e-08
-1.0404e-06
1.46047e-06
0.000206748
-2.15691
-0.000125316
0.264919
0.0201666
-0.000192899
-0.12881
-0.137566
-1.34141e-06
-5.45547e-05
0.212114
0.438457
0.00676343
-0.0488454
0.000166525
0.0584657
4.82951e-06
-1.14636e-08
-0.758124
-8.36436e-07
-0.0517636
-0.094133
-8.85221e-07
2.24026e-08
0.00512989
2.75231e-06
-0.0915426
-0.195231
0.307109
-0.000324251
7.33921e-06
0.144931
0.127905
-0.110226
-1.95486e-05
-0.964109
-0.979944
-6.70649e-06
-0.185053
5.81444e-05
0.000121416
8.92074e-06
-0.00160199
3.01392e-06
0.00580789
0.00164026
-0.73852
-0.134503
1.72071e-05
-1.17811e-06
5.78796e-07
6.92962e-05
-0.00923248
0.0968099
-0.0184088
5.30231e-05
-0.258473
-0.000490761
0.000434955
-0.000689187
0.000526953
1.84718e-06
8.26466e-06
0.00206611
9.33168e-07
-1.50141e-05
3.66782e-05
0.0181655
6.46683e-07
4.49475e-06
-0.0520819
-1.24443
0.437936
-0.00170827
0.11815
-0.00797989
0.0057005
-2.69384e-05
0.00101738
0.000312128
-0.00124807
0.0114202
0.00670812
0.437726
-0.430465
-0.424839
0.000434139
0.0556528
-2.24417e-06
0.0153503
0.00116376
1.79662e-06
0.000538968
-1.30893e-07
1.52627e-05
-0.329829
-1.22642e-06
-0.80806
-9.40063e-05
9.68601e-06
-1.7594e-06
1.62642e-06
-0.00301452
-1.20429e-06
0.0398644
-6.53284e-05
-0.000105902
-1.02342e-06
0.267194
-2.56001e-06
-0.074672
-4.23968e-05
-0.00973071
-8.66448e-07
-0.0765121
-0.000986811
-6.29137e-07
0.000134532
0.000708554
0.236994
0.00627358
-2.49871e-07
-0.00160985
-0.0272205
-0.000828197
-0.0141314
-0.329165
-5.03905e-07
-0.0127793
-3.83214e-05
0.000407593
-0.000344505
-0.282202
0.21271
-0.00195585
0.235433
5.32306e-07
3.10214e-05
-0.760128
-3.79133e-06
-0.105844
-0.161555
-0.00316161
0.00301754
7.03662e-07
3.35183e-06
-0.138104
2.86648e-06
2.92734e-08
-0.000607558
5.92976e-08
3.50837e-07
4.81416e-06
4.37477e-05
2.76468e-06
-0.00654269
-3.40087e-05
-0.0207761
8.75895e-08
-0.0570599
0.000158374
0.0080851
-8.4919e-05
-0.0106756
0.349995
-1.60541e-06
-0.00113239
-0.00105448
5.56468e-07
0.0281196
-1.47763e-06
-5.2976e-05
-3.09717e-06
0.00286049
-0.000952428
0.000118673
0.000151964
0.0704864
-8.97752e-07
0.00358091
0.0578879
-2.91301e-06
-1.40509e-05
-3.57947e-06
0.0139737
0.0144492
-1.94415e-06
0.191631
-0.00587514
0.0023427
1.62574e-06
0.0586172
-4.55109e-05
-3.31757e-05
1.16339e-06
0.690993
0.000511586
-8.21244e-05
1.07099e-06
-4.77678e-07
8.89952e-06
6.53604e-06
0.178293
-0.00639617
5.99315e-06
-4.13436e-05
0.0747343
0.00149402
0.000389787
3.16389e-06
-0.00531966
1.70527e-06
-2.70853e-07
-1.19859e-06
3.91857e-05
0.420123
7.54365e-06
-6.65787e-07
-0.0451802
-2.21871e-05
2.81633e-05
-3.62584e-07
-8.12033e-08
-0.0436639
4.90635e-07
-0.00287655
0.036263
2.84319e-05
3.42252e-06
6.56448e-05
-0.106425
-0.00551688
2.83793e-07
4.37173e-06
0.00616322
0.0157202
0.0198371
9.90302e-05
-0.00307851
-0.00560332
-0.133873
-1.7276e-06
-0.0819996
4.55573e-07
-0.00499738
1.20988e-06
-1.0529e-05
-0.0110339
2.89464e-07
0.0069962
-0.065863
7.60202e-06
2.25112e-06
6.70647e-05
-8.56485e-07
-0.0622207
-3.23999e-06
9.8956e-06
-0.39047
0.0132362
1.51544e-07
-0.0579205
-0.000714704
5.8966e-05
9.50202e-05
4.43589e-07
0.006005
-1.97351e-06
-1.8989e-05
0.0834195
-0.0793313
-4.55484e-05
-0.0619661
-0.0110802
-0.000103088
9.50688e-06
2.59803e-06
-0.00120552
1.18678e-05
0.068127
0.0610072
-0.186227
-1.79775e-06
0.00146064
-6.73261e-07
-0.000561078
0.0884653
-1.92161e-06
0.00344497
0.000169475
-0.000268618
1.3352e-06
-0.00266299
0.000116767
3.61048e-05
-0.0538453
6.99189e-07
-8.2348e-08
-0.367408
-7.12955e-06
-9.1086e-06
1.83728e-05
1.56697e-06
0.235128
2.96143e-07
-7.19409e-07
3.79259e-06
2.24086e-06
4.58207e-05
9.26468e-05
-0.00474698
0.313701
0.00103142
4.07271e-05
-0.0116146
0.4574
-1.64717e-06
0.154171
0.657578
0.156267
-8.07398e-07
-0.00907713
-1.37167e-05
-3.61239
-9.54636e-05
-0.000835324
-0.00293743
-0.00131183
-2.40935
-6.57086e-05
1.01345e-05
0.535483
-0.134967
-2.66275e-07
6.96142e-07
0.298837
8.20586e-05
-0.167955
-1.84419e-08
1.22859e-06
2.42307e-07
-1.25719e-06
7.13108e-05
-4.83104e-05
-8.45075e-05
-9.17466e-07
3.472e-06
-9.82666e-08
-0.110215
-9.70736e-08
-0.276551
-0.649964
-0.172033
0.000129887
0.0244475
-0.00280665
0.0295965
-0.0788711
4.82592e-06
-0.000577652
0.00267782
1.9413e-06
-3.36224
0.0204469
-1.84165e-06
0.00167366
5.72455e-06
-0.000812322
-0.0113711
-0.605152
0.00263945
-9.15125e-07
0.256571
2.74324e-06
-7.023e-05
0.000592825
-0.1036
5.10372e-07
4.20464e-05
0.000130063
0.00386226
0.842712
-0.000730548
4.18172e-06
-0.0491012
5.99771e-07
-1.12283e-05
-2.12791e-06
-0.0093207
9.01986e-06
-0.250318
9.90636e-07
0.0432108
-0.0043666
0.0016763
-0.000198391
-0.00616312
0.00360173
-2.41247e-06
8.74329e-07
-0.0344011
0.00177369
-5.65222e-05
-0.000127766
-3.20664e-07
0.00750091
1.22202e-07
-3.14248e-05
4.45198e-07
-0.0145856
-1.08067e-06
-0.0075314
-0.00133271
-5.20876e-07
-6.63428e-07
0.00047943
-7.0511e-07
0.0289965
-0.00501975
0.505145
-0.0154254
2.42628e-06
0.0150838
0.000721186
2.95549e-07
0.000170463
0.077301
1.69747e-07
0.000136077
-0.00609452
-0.671175
0.00262532
-0.000580253
-2.63875e-05
-0.00836311
3.67373e-07
2.985e-06
0.202913
0.0722095
2.3233e-05
-5.04005e-06
0.0776021
-8.53597e-07
-0.00436628
5.39905e-05
-0.00077499
1.78077e-06
-1.80113e-07
1.33232e-07
-0.535292
8.43582e-05
-0.782276
-0.00657602
-0.0846205
2.33483e-05
4.00437e-07
-0.0619195
0.015218
-0.00144454
-0.966157
0.198714
-2.99922e-06
-0.239403
0.00142896
0.00021321
0.0142552
-1.515e-06
-0.126408
-0.00651336
6.13375e-05
6.93754e-07
0.0102712
2.14885
-1.04335e-05
0.00151075
-4.15359e-05
-0.0881826
2.09177e-05
1.56156e-07
-0.0125424
-0.000485281
5.10119e-05
-0.386059
0.0338072
2.42628e-06
0.00779186
-0.106318
7.87364e-05
0.0598542
0.190565
2.74828e-07
2.61797e-06
0.129602
-2.51316e-06
0.101202
0.000169473
0.0233361
0.000136316
-1.08546e-05
-6.1657e-06
-5.61793e-07
0.00581906
-0.0130549
0.40589
-9.80096e-07
-0.00164577
0.00674641
-0.00415717
-0.000183783
0.00717563
7.89832e-05
0.00557895
-0.703837
0.137478
4.42621e-06
0.0108018
1.36543
2.30847e-06
-0.000591725
0.0178209
5.92577e-08
-1.38687e-06
-0.0116619
-8.36269e-07
0.0651849
0.125405
-2.26808e-07
0.603885
9.1709e-05
-0.308715
0.0368407
-5.60816e-07
-2.26705e-06
-7.85625e-07
0.0193312
1.73836e-06
2.26291e-06
4.66031e-05
-0.0200092
-1.26529
0.0597175
0.00327574
0.248887
-5.76412e-07
0.428613
1.01596e-06
0.00547853
-0.0505546
0.334791
-0.293502
0.000879356
-0.216891
0.000149803
-0.00128207
-0.000598338
5.52818e-07
-1.81784
-8.09468e-05
-0.03576
-2.56234e-06
0.0179911
2.13437e-06
2.84972e-06
0.157228
-0.0275315
-0.198796
-0.147523
-1.02241e-05
2.3945e-07
-0.154694
-8.99552e-07
0.000313054
-0.0292431
-0.000182903
-1.89162e-05
2.86193e-06
-0.0138821
-3.92867e-06
0.000116397
-0.03764
-0.000630716
-7.23885e-07
-0.00315594
8.05326e-06
-0.0122309
0.0446447
3.00504e-06
2.51963e-06
1.07865e-06
-0.453906
-0.304701
0.0245525
0.00016694
5.14414e-05
-1.00263e-05
-0.000497368
-0.0385449
-3.32118e-06
-0.689268
-1.01716e-05
-2.91442e-05
-0.00025919
0.370199
0.00207993
-1.79332
-0.00200938
0.000587784
-0.12295
-7.2356e-08
7.4179e-07
2.60989e-07
0.00203137
1.05258e-05
-1.53946e-06
-0.110634
-8.43304e-07
-4.75598e-07
1.26613e-06
-2.13795e-06
2.61217e-07
-0.0043524
-1.07123e-06
-0.134782
6.80961e-07
0.272794
-9.33517e-07
8.08167e-06
-5.7144e-05
-0.000188961
1.67461e-06
-1.0279e-06
-7.37414e-05
-1.47252e-05
0.536559
0.000107017
-0.00411837
0.133286
-0.000120076
-9.5601e-06
-0.432736
0.0082595
-5.06231e-07
1.02841e-06
0.104455
-0.230528
-1.31861e-06
-0.192488
-0.0191211
-0.843254
0.0161553
0.0630881
0.0765808
2.19114e-06
8.14791e-07
-8.90305e-07
0.00146252
-7.24716e-07
-2.08055e-07
-6.81708e-07
2.0566e-06
-0.0151184
-9.35572e-07
0.000146028
7.14769e-05
0.0996212
-1.64384e-05
-1.97682e-05
-0.00548924
-1.19027e-06
3.67066e-06
-0.00013219
-1.32788
3.90395e-05
0.391599
-0.000300532
-1.04273e-06
-3.6781e-07
2.82151e-06
-0.000224301
-0.0197477
0.1416
5.22071e-05
-0.0990251
0.526211
3.90086e-07
-0.000185505
0.00175388
-0.123687
-0.000134791
-0.000118919
0.000682879
-2.84303e-06
-1.08578e-07
-0.000531894
-0.000551454
-0.00218098
-0.000250242
-3.14288e-05
-0.00143409
0.0185854
0.00706742
-0.0349608
-0.492727
-9.99693e-07
0.000191897
-0.101311
-0.119579
-7.46639e-05
2.77903e-05
1.57243
0.0578479
1.43845
1.01297e-05
-6.75276e-07
3.20993e-06
-1.13486e-05
-5.42409e-07
-2.91896
0.210491
-0.000182641
1.24483e-05
3.35371e-06
-0.156092
0.492012
3.63847e-05
-1.39617e-06
0.0988264
-6.43663e-05
1.13228e-06
-0.0703647
0.0265062
-0.0748782
0.0969174
-0.198997
-0.178798
-0.000182354
-6.88121e-05
0.000876562
0.118635
-1.87972e-06
0.0256978
-4.68727e-06
-8.03452e-06
0.0251418
3.40125e-07
0.00995767
0.000303881
-0.582133
-0.0133837
-1.97749e-06
0.0090668
2.26272e-06
0.0254397
-1.09413e-05
0.0332114
-0.0012418
-0.126975
2.09299e-05
-7.31309e-05
-0.300903
4.79373e-06
-8.50702e-05
-0.249643
-0.000177377
-6.44747e-07
-0.00520667
-0.00409504
-1.1591e-06
-9.83053e-06
2.58531e-06
-2.51049e-07
-1.87299e-07
-0.00290303
1.03868e-06
0.34483
0.505316
0.00301183
-7.43448e-07
0.35989
5.24872e-05
-1.67074e-06
-1.24497e-06
1.19527e-06
-7.93006e-08
0.0561474
0.0150347
-0.033752
0.000251901
0.0112366
-5.24572e-07
1.26812
-0.0013299
0.117916
-0.00684878
-1.65828e-06
5.22803e-05
0.0245799
-7.18977e-05
-0.000149498
-0.00327603
-8.74537e-05
-0.0317687
0.066376
0.773947
-0.000285752
-7.68993e-05
-0.0772357
0.108941
0.0123942
3.24155e-06
-1.48278e-05
-0.000517324
1.10048
1.45188e-06
-1.56953e-05
0.00258694
0.265994
-0.000169608
5.66158e-05
-0.0501916
1.67538e-05
-1.11397e-06
-0.10842
-7.54219e-07
4.18311e-07
0.0171749
0.691658
-7.87949e-07
3.57041e-06
-5.33444e-07
-0.000123744
-1.15606
-6.04275e-06
-4.64935e-06
-0.023988
0.88582
0.00959452
6.14756e-05
0.507922
-4.60294e-06
0.000293799
-3.16619e-05
-0.00461368
-0.115264
-3.21825e-06
-2.47146e-07
-0.0504622
0.307025
-0.00159866
0.00838003
-4.46351e-05
0.000141153
3.4536e-06
0.0451606
-0.00319724
0.00362869
2.65381e-05
0.00938457
0.00214538
-0.0229014
-2.82751e-07
-0.375603
0.116911
-9.50575e-08
-2.08899e-06
-0.00798683
0.00840445
-0.150532
0.00101355
1.27606e-05
-0.0151538
8.13692e-07
2.37994e-05
0.19093
-0.161651
0.00615096
-0.000178702
-2.85138e-06
0.000100447
-0.341346
2.17896e-06
4.79162e-06
3.95829e-05
-1.60531e-06
2.2985e-06
-0.0082633
-5.76442e-05
0.000547014
0.0204542
1.12187e-07
-0.00589194
-0.011734
5.93356e-06
0.00978629
0.341466
3.64448e-06
-0.0514831
-0.00358106
-0.00068699
4.15249e-06
0.000181185
0.000148008
5.37231e-05
-7.88656e-07
0.179251
-0.0257279
0.0526399
0.000616653
0.309144
8.07908e-07
0.00140721
-2.71577
-9.91879e-07
-0.00479581
-0.000158415
0.277445
-0.0381365
-2.92172e-07
-0.00533533
-0.00036485
-0.000216028
-0.0233416
5.98514e-06
-7.05552e-08
0.253369
0.000955235
-1.04979e-05
-6.78619e-06
0.0101254
6.52517e-07
-2.90515e-06
0.0021624
0.249821
-0.063124
9.25183e-05
0.0837546
-0.748386
0.000193639
0.00936347
-0.0392582
1.07496e-06
-0.0217046
-8.20496e-07
-5.14189e-06
-0.00109338
-0.18554
-1.39702e-05
1.88389e-06
0.000951995
-0.569816
0.000113236
-0.000255979
0.0371603
4.42878e-05
-7.05935e-08
-0.272184
-0.000248019
-0.000437027
-2.10575e-05
0.000185519
-9.30582e-05
0.00235279
-0.000928109
-3.21856e-06
-2.84589e-06
-0.0133396
0.021437
-0.000288415
-0.143183
5.08553e-05
-0.115021
2.84524e-06
1.33362e-06
0.255706
-0.148151
0.00190577
1.23373e-06
3.18385e-07
2.70325e-06
3.03755e-07
0.0362511
1.92681e-06
0.128687
-0.000177556
-0.00275423
2.34588e-06
-0.797792
0.0381099
-3.21424e-05
-0.238117
-9.45022e-07
0.000399558
-9.02941e-05
-4.8531e-05
0.0552064
-0.0237466
1.43069e-05
-0.00237394
-0.000196364
9.16307e-06
-7.32237e-05
-0.00214909
0.285667
0.000418654
-2.38354
-0.00117795
-0.0242333
-0.136156
-0.337858
-4.6754e-05
-0.000572886
-0.0181759
-0.00040697
1.62258e-06
-3.373e-05
-0.0209283
0.250821
-0.20682
-0.449214
-0.00134007
-0.54993
-7.54172e-08
1.50218e-06
6.17379e-05
0.0387287
0.00125679
1.6202e-05
-8.77712e-06
2.54084e-06
-0.000302773
0.00319334
1.13314e-05
-0.0123815
-0.000885456
-0.000137995
0.000101837
0.274862
0.00109568
2.14866e-06
-1.29432e-06
-0.171344
0.00326137
-0.0296081
-7.56978e-05
3.15587e-05
6.05729e-06
0.12957
-1.06209e-06
-6.37832e-06
-4.16543e-06
-0.0274646
-0.0728888
2.46809e-06
0.653047
-6.44382e-07
2.60677e-05
-0.00906288
0.0362656
0.000109413
-0.0563825
-0.000275846
1.2427
-0.00179276
-5.77717e-06
0.0116874
0.0794211
-3.3959e-07
-0.00295666
2.48016e-06
-3.21854e-07
3.59414e-05
-0.000676786
5.43804e-05
-0.0459084
0.115029
-4.71156e-06
-2.02454e-06
-3.03247e-05
0.0551427
-3.68416e-05
-6.99996e-06
1.69606e-06
-0.00138631
4.99577e-06
-0.122268
-0.000183133
-7.62467e-06
4.55641e-05
-0.00121037
-0.49341
0.404925
-0.0607701
-1.15375
-0.00939836
-0.012946
0.336643
0.00566574
-2.57014
-0.000437375
-0.00633956
3.18407e-06
0.000763181
-0.00272654
-3.43527e-05
0.00643788
1.25532
0.0207209
0.0110068
0.163787
0.0526337
1.0048e-06
0.000437017
3.36835e-05
-7.82496e-06
0.0917122
-1.54777e-05
0.205166
3.8782e-05
9.65094e-05
-0.000254985
-0.00811845
0.0328294
-0.0132121
9.53999e-07
-0.0242953
0.0265637
9.97341e-07
8.66664e-05
0.275968
-0.0114146
0.0368843
6.02842e-06
0.00112066
0.775395
0.00455952
0.331482
-0.228924
-0.503064
0.000732183
0.307049
0.000626302
4.79879e-07
6.90814e-05
3.6484e-07
3.51355e-06
0.206656
-1.92599e-06
-0.000744214
3.44609e-05
-0.0365931
-0.015169
1.81496e-06
-0.00214449
0.000134949
0.00990998
-7.52486e-06
-3.88498e-06
-0.00244185
-0.0096115
-0.0188101
-0.000477595
-0.00427232
-0.00160749
-0.0132244
-1.50249e-07
1.4165e-06
9.03633e-05
-5.32889e-05
0.00149357
9.08466e-07
-0.0049905
0.0733013
-9.01545e-05
-0.000576546
-0.00207474
0.00599437
0.423086
0.00140006
6.06613e-07
5.04552e-05
-0.0495305
-0.000557017
0.0117051
0.0103786
-1.46837e-06
0.00856675
-7.35127e-05
-0.0106117
-0.0303157
-0.17973
-2.48927e-06
-2.16512e-05
-4.26003e-06
-1.01995e-07
-9.11739e-07
-0.00960098
0.0386012
0.00631394
0.307625
0.000127328
-1.07641e-06
5.5683e-06
0.000113957
-0.853189
-0.0329806
-0.00870419
-0.0638608
-0.0646209
-1.38556e-06
-3.16606e-06
-0.00520734
-0.115103
0.0324566
0.000184173
-0.00559143
-0.244655
-1.83928e-05
0.526518
0.454352
0.029187
-1.01097
-0.000652898
-0.00177825
-4.96e-07
-1.43587e-06
5.08498e-05
0.0115174
1.37783
-2.02161e-08
0.0279303
-1.59757e-06
-0.000441031
0.17426
8.71302e-06
2.37326e-06
-5.14931e-07
-2.75393e-06
0.00104509
1.57478e-06
-1.92199e-06
-0.000534053
8.24715e-06
0.000165291
0.0409753
0.108391
0.100769
2.25847
0.00140268
0.000246651
-0.0733
0.0121599
3.05625e-05
-0.0860375
-0.000825473
-0.00985708
0.00353495
0.182588
-4.76459e-06
-0.161802
0.284751
-0.0573921
1.45406
0.00109434
1.59111e-05
9.42408e-06
-0.00413867
-4.27426e-06
-1.02573e-05
0.000143397
0.039508
-0.0780285
6.3373e-08
-4.38747e-06
1.99971e-07
-5.04229e-05
0.000504185
0.00918788
-0.133075
3.66239e-05
0.00685055
-0.2949
-0.0162009
-8.77113e-06
0.546235
0.709823
0.00501635
0.00428773
0.0912503
1.52039e-06
-9.69046e-05
-2.75503e-05
6.64342e-07
-4.09843e-05
-1.93147e-06
-4.86736e-06
-0.110709
0.0453861
0.147088
-0.000316452
-0.00493638
0.464087
-1.3235e-07
-1.65208
-6.09202e-06
5.4761e-05
0.288409
6.3728e-07
-0.000115919
-0.265629
2.9483e-05
-5.49506e-05
0.272894
6.23344e-06
-0.000695033
-0.00234555
-4.02037e-06
0.75487
-0.181998
-0.126041
1.69361e-07
0.000900808
-8.92065e-07
-9.39623e-07
1.04784e-05
-0.0518339
-9.97432e-07
-0.00326152
-6.26317e-05
-0.000130793
0.13304
-1.6635
-0.0353439
-0.000754222
-6.76402e-05
1.69428e-06
0.000471247
-5.18975e-06
-0.234558
7.43295e-06
-0.0854101
-0.13524
-0.619012
5.34409e-05
0.229103
0.111353
-0.241157
0.0128952
-1.35425e-05
5.24344e-06
-0.0687737
-0.173338
-0.0821656
-1.44835e-06
3.27301e-05
0.238753
4.03215e-06
-1.95856e-06
2.02963e-05
-6.84597e-06
-6.72143e-06
-1.1014e-05
-0.000132766
-1.05696e-06
0.0800013
-0.0538722
0.0410535
-0.000120182
0.00415485
0.430972
-0.00145404
-0.00750173
2.69173e-07
-0.0865614
-1.09459e-06
-2.94858e-06
0.000115198
-0.533267
-0.00330723
-0.110072
0.729537
-0.000965402
0.0595503
-0.000187753
0.47407
-0.00250131
-0.00106537
1.57519e-06
-0.0575378
1.50111
1.46832e-05
0.977517
-1.62407e-06
0.726942
8.8546e-05
6.83929e-05
0.980217
-0.147297
-5.60162e-05
0.0291608
-0.00971232
-0.000935036
-0.402929
-0.000611759
0.420707
5.84309e-05
-0.000989318
-0.00318548
0.0916266
-0.230442
0.137701
-1.84414e-05
-6.90768e-05
0.143798
1.7346e-06
1.26746e-06
0.288313
-3.62599e-07
0.00799064
0.0401193
2.38252e-05
0.000156277
0.271913
0.0334884
-1.18124e-05
-0.601794
-0.000616818
-0.223385
-2.81935
0.000547414
7.37541e-06
1.08091e-06
5.02393e-08
-6.1777e-06
-1.34776e-06
0.000273527
0.00275695
-3.14961e-05
1.34474e-06
3.13364e-05
1.23293e-07
7.1818e-05
0.0430435
-2.83656e-05
0.000323596
0.35018
0.00369201
2.27854e-06
9.35521e-07
0.00133345
-9.85125e-05
-5.58332e-07
-1.53456e-05
-0.000422297
-0.728585
0.194174
1.41341e-05
7.07151e-07
0.007297
-3.05162e-06
0.00206293
0.0195776
3.62769e-06
1.30799e-05
-0.00113388
7.19641e-07
-0.425626
5.34085e-05
-0.0172099
1.49162e-06
-0.202571
0.000200938
0.521367
0.0158015
1.58639e-06
-3.98825e-06
0.00076386
-0.000706022
7.52292e-07
2.21206e-06
-0.630918
-9.46679e-06
5.89321e-06
-0.875135
6.06034e-05
0.106474
-2.35973e-07
-2.60309e-07
0.00154887
1.54806e-06
0.00721033
0.143119
0.431347
-1.23337
-0.10518
-4.15644
0.00175594
-2.296e-06
0.000768188
0.0127931
-0.000171574
0.253365
-0.928097
-0.136281
-0.00013748
0.0147269
-0.00309287
-0.000195013
0.0143005
0.0184648
2.31663e-06
0.367714
0.00949363
-0.0508563
8.75234e-06
0.0746706
-1.68824e-05
-1.15019e-06
-7.84816e-06
-0.00421015
-6.57215e-07
0.350292
0.000693008
-0.00164065
-0.00917307
6.25613e-05
-2.65224e-06
9.3991e-05
3.84935e-07
0.114785
4.14153e-05
-0.000540618
0.105105
-4.43088e-06
-5.87239e-07
-0.0828041
4.90193e-07
-0.0343921
-0.205906
-0.0160399
0.00124366
-0.000499351
-0.0014621
1.1323e-07
5.63978e-06
0.349727
2.18043e-06
0.00165834
-3.77365e-05
-1.20054e-06
-2.74433e-06
0.007891
-9.05352e-05
0.0109709
-2.13065e-06
6.23832e-06
0.0335412
0.0914311
0.00991088
0.0822229
2.58529e-07
-2.54854e-06
-0.00259194
0.292935
-0.0172756
0.261588
-0.00144166
-0.162743
0.323576
0.0102732
-5.95761e-07
-0.00262025
-0.0599585
-0.0330664
0.0259128
0.00843374
-0.428192
0.0040866
-4.4174e-05
-1.60926e-05
-1.78075e-06
1.47925e-06
-0.384587
-2.05918e-06
-0.000720869
9.83587e-06
0.0364627
1.41104e-06
-0.00284563
9.85529e-07
-1.51834e-05
-0.0846422
-5.60114e-07
0.00295335
0.00455901
0.212869
-0.00122122
-0.1362
1.53565e-05
0.102705
5.89597e-07
-2.33723e-05
0.0660107
-8.34752e-05
0.000155403
-5.69996e-05
3.17422e-06
-0.0044284
-0.000683916
-1.3868e-05
0.00151651
1.52389