/*--------------------------------*- C++ -*----------------------------------*\
| =========                 |                                                 |
| \\      /  F ield         | OpenFOAM: The Open Source CFD Toolbox           |
|  \\    /   O peration     | Version:  v2012                                 |
|   \\  /    A nd           | Website:  www.openfoam.com                      |
|    \\/     M anipulation  |                                                 |
\*---------------------------------------------------------------------------*/
FoamFile
{
    version     2.0;
    format      ascii;
    class       volScalarField;
    location    "350";
    object      omega_0;
}
// * * * * * * * * * * * * * * * * * * * * * * * * * * * * * * * * * * * * * //

dimensions      [0 0 -1 0 0 0 0];


internalField   nonuniform List<scalar> 
18598
(
2.62999
0.323629
0.0367707
0.0943495
0.0435469
0.0247286
1.79636
0.0218696
0.0208124
0.0331752
0.0196244
0.0364208
0.0224513
3.36061
1.10716
0.0329977
0.0279994
0.407585
0.323823
0.271554
0.402028
0.0207038
0.0699267
0.0204004
0.0211285
0.340121
0.0201709
3.09788
0.0215373
0.0200412
2.25077
0.0207974
0.333028
0.0196268
0.373998
0.0203083
0.0300651
0.0211126
0.0389425
0.446244
3.16336
0.0202445
0.0210616
0.0372527
0.0202288
3.27318
0.0213154
0.434653
0.0362474
0.0215443
0.11571
0.0216258
0.0223836
0.103559
0.0225385
0.0202804
0.42712
2.15667
2.56327
0.335688
0.0222434
0.0221955
0.0221178
0.226793
0.0368786
0.022845
0.030313
0.0226872
0.0224564
0.510529
0.0235919
0.0211087
0.0222124
0.0215606
0.0224568
0.0212764
0.0221571
0.022107
0.0222043
0.0283754
0.0215195
0.0215994
0.0217975
0.0223537
0.0214476
0.0221964
0.021197
0.390999
0.6698
3.09361
0.0300543
0.0235801
0.0211915
0.022778
0.0214803
0.0226321
0.0346622
0.113533
0.0324506
0.0283727
0.421404
0.393498
0.025465
0.384702
1.6078
0.0583652
0.114464
0.126824
0.0196214
2.31893
0.0325548
0.0214519
0.0715084
0.0743012
0.0208055
0.325101
0.0269898
0.0217784
0.0300911
0.0210601
0.324011
0.0283995
0.337345
0.0210414
0.0211163
1.81036
0.475427
0.0210651
0.0202309
3.59759
0.0322343
3.34084
0.0606337
0.0291071
0.0364613
0.0610401
0.0201618
0.0200752
0.0200965
3.33189
0.023716
0.0201113
0.0261958
3.37416
0.0739736
0.0208286
1.93641
0.0221594
0.360859
0.0200859
0.0207931
2.62609
0.0244486
0.128794
0.0222428
0.0227598
0.0245953
0.0907546
0.0214477
0.0212304
0.0588979
0.574656
0.107963
0.0230126
2.0325
0.58701
0.0971298
0.0218042
0.0217557
0.0215269
0.024409
0.060808
0.407509
0.133786
0.410441
0.619722
0.0393376
0.635576
0.0210543
0.0210527
4.3384
0.0195484
0.0254656
3.83377
0.0214576
0.0232913
3.35145
0.022434
0.0589828
0.653142
0.0752334
0.0274123
0.0210723
0.447674
0.0421841
0.0930051
0.020656
0.0341849
0.0201709
1.3688
0.0584188
0.0252364
0.023451
0.0523986
0.127607
0.0218248
0.0206909
0.0290355
0.0234887
0.355286
0.021859
0.0196182
0.0224833
0.0802811
0.637146
0.029481
2.58023
0.612162
0.0715413
0.0212411
0.641762
0.105867
3.06803
0.020644
0.022334
0.0324433
0.0343203
2.56778
0.0291602
0.0201992
0.0617395
3.03535
0.0222914
0.0320511
0.0200654
0.021945
0.0207671
0.0994077
0.0195977
0.0542245
0.020906
0.0214481
0.0596497
0.0255871
0.0212177
0.0223651
0.0225383
0.0232999
0.0213141
0.0195503
2.18603
0.0223059
1.36575
0.187285
0.0211646
0.0222803
0.020974
0.64051
0.0208025
2.69711
0.0200844
0.021664
0.429135
0.0220569
0.0209668
0.330745
0.020368
0.0210024
0.0202298
0.327615
0.0202552
0.0233737
2.10256
0.0202345
0.0293407
2.17679
0.0217122
0.37288
0.397928
0.561
0.120825
0.293067
0.0220399
0.0558618
0.315532
0.216598
0.395762
0.0216715
0.689931
0.216514
0.020216
0.330373
0.0196318
0.0346714
3.4981
0.0269829
1.13212
0.0362093
0.0195488
0.366625
0.0214944
0.022804
3.02283
0.0310748
0.0202301
1.16519
0.0213222
0.0212302
0.0223425
0.0202133
0.023116
0.0209786
0.782299
0.0201117
0.0222622
0.624286
0.0288977
0.0217665
0.313845
0.0209787
0.0299797
0.0220041
0.0198501
0.0210713
0.280836
0.723857
0.033379
0.0577139
0.0221573
0.329727
0.019622
2.61551
0.0220807
2.47325
0.0203876
2.78294
0.0213
0.0274222
0.202052
0.0202315
0.0401137
0.0197391
0.910353
0.022784
0.0252776
0.0219726
0.0216864
0.321481
0.867995
3.78175
0.0256959
0.084905
0.0221936
2.18333
3.00718
0.0236561
2.481
0.686201
0.156518
0.0253326
0.0564907
0.716605
0.0275974
0.0235347
2.81915
0.0214985
1.83055
0.0210796
2.54491
0.0210645
0.0225151
0.0256956
0.0208891
0.0213413
3.45735
0.0209342
0.0227976
0.0210825
0.0212923
0.0265336
0.0229726
0.0762551
0.142957
0.0214572
0.0305375
0.11237
0.0224668
0.022943
0.0684005
0.0236932
0.0210672
2.22173
0.0238879
0.0505565
0.124318
0.021878
0.0203209
0.296933
0.135028
0.0202125
0.0218358
0.0209667
0.020993
0.0251908
0.0320171
0.734103
0.0209049
1.14228
0.0216773
2.00146
0.0353531
0.0210739
3.84435
1.86916
0.21292
0.023268
0.329562
0.0433973
0.374924
0.064861
0.0196556
0.0217807
0.021077
0.0202529
0.150372
0.285508
0.481025
0.021396
0.0217539
0.0224472
0.0215329
0.0222146
0.0209239
0.0226624
0.0303452
0.0238238
0.0208949
0.0202113
0.0205936
0.0219517
0.0225805
0.0199675
0.156302
0.0499851
0.0225545
0.0256023
0.02145
0.0212609
0.0495532
2.31313
0.0212884
0.0200514
0.0216801
2.27596
0.0213319
0.0213906
0.0221631
0.0207899
0.0236869
0.0212564
1.77881
0.0213332
0.0202777
0.0205926
0.0201436
0.0202449
0.0234178
2.86121
0.0214594
0.0195341
0.0208483
0.0213295
0.0197621
0.0276877
0.255287
0.0213187
0.0252959
0.0216947
0.0221827
0.0216894
0.0626315
0.0227986
0.0279034
0.0210727
0.0208189
0.439586
0.0706437
0.020633
0.0506479
0.265591
0.327653
2.82691
0.0597941
0.0201696
2.92861
0.204718
0.0201521
0.0247527
0.462024
0.0672131
2.81752
0.215308
0.0222916
3.31877
0.0216461
0.0222313
0.0201432
0.0204011
3.10432
0.0231738
0.268021
0.0268032
0.0213701
2.28573
0.371432
0.29523
2.61762
1.14947
0.0203377
0.0204861
0.959541
0.0340216
0.913355
0.110969
0.0251058
0.0215242
0.440374
0.0426885
0.0634484
0.0216699
0.0217207
0.0198808
0.0209136
0.0219774
0.022115
0.0201219
0.352536
0.0213125
0.020647
0.283331
0.0797702
0.363093
0.021917
0.0791864
0.949793
0.0276256
0.0227543
0.0704741
2.24647
4.31695
0.426883
0.0203912
0.0222399
0.021461
0.0863078
0.0199511
0.0342294
0.0205802
0.0198784
0.0195769
0.0196984
2.10735
0.94382
0.0404209
0.601926
0.814837
0.0214569
0.225023
0.0214473
0.0200277
0.0614386
2.68084
0.021282
0.0308799
0.0211136
0.0200278
0.0212811
2.86282
0.0230443
0.0225207
0.0203702
3.72594
0.633504
2.65527
0.0293114
0.0213715
0.0219271
0.39837
0.325589
0.0214474
0.0208049
0.0199587
0.0206478
0.0296444
0.0223593
0.0284468
0.0813463
0.0206233
0.490923
0.0213179
0.0374701
0.0217504
0.0207771
0.021956
0.0206229
0.0209862
0.316194
0.0470107
0.112578
0.02215
0.0546439
0.0220613
0.302123
0.182
0.020115
0.0206341
0.0213138
2.35111
0.0214872
0.0264451
0.0206343
0.0522813
0.899876
0.0206658
3.79167
0.0212574
0.131436
2.19039
0.0310561
0.0204365
0.0238161
0.0211938
0.038793
0.0341273
0.0224441
0.355301
0.029092
0.023584
0.332378
0.0259542
0.0344361
0.0214211
0.25057
0.0799125
0.341299
0.0211838
0.0239626
0.138371
0.021341
0.0210134
0.0251777
0.0214107
0.410741
0.0303868
0.275953
0.941238
1.07291
0.0206465
0.257924
0.0210088
0.0214084
0.0200273
0.323621
0.021228
0.0209807
0.0235769
0.0215342
0.355738
0.023695
0.0394543
0.0204263
0.0201805
0.0207513
0.617678
0.495306
0.0214365
0.0213874
1.12908
0.291047
0.397546
0.0263208
2.50103
0.0222702
0.495209
1.97444
0.0218536
0.0196913
2.79119
0.0385164
0.0196402
3.74405
2.77182
0.181332
0.023766
0.0259555
0.0209783
0.0672908
0.48728
3.03353
0.0214795
0.0525274
0.869298
0.0201234
1.43715
0.0223783
0.0204864
1.90845
0.0214296
4.26007
0.0213878
0.0210933
0.0212227
0.0236711
0.359792
2.94957
0.0218157
2.16176
0.0207685
0.0207376
0.0222458
0.0521054
0.0214479
0.259569
2.19396
0.0223411
0.0211131
0.0213312
1.91884
0.0402005
0.342488
0.323329
0.0221626
0.0238166
3.01501
4.18079
0.0223842
0.291716
0.0398254
0.0210442
0.0279284
0.023987
0.0215198
0.0548393
0.0222844
0.0210306
0.0226661
0.380581
0.482202
1.31403
1.42702
0.0282857
0.0739705
0.0206658
0.988547
0.33829
0.0369369
0.0227252
0.0207327
0.0847988
0.336315
0.0240924
0.0278235
1.19754
0.0219034
3.18824
0.0200429
0.346606
0.795321
0.0199982
0.0222419
0.0252458
0.0214657
0.0211637
0.0212175
0.0205338
0.0205334
0.342296
0.0199881
0.0210593
0.0208276
0.0559325
3.20728
0.0216512
0.0210231
0.0220318
0.0207248
2.32988
0.0404118
0.748154
0.0196483
0.0222745
0.487164
0.0208543
0.0299692
0.0212789
0.0214655
0.0248231
0.021561
0.0241526
1.12138
0.0345087
0.0199036
0.0207199
0.0216466
0.0247244
0.25196
0.0242871
0.0211551
0.0205416
0.0201753
0.0222072
0.023118
0.0219076
0.022305
0.894888
0.021648
0.0219308
3.21146
3.29095
3.34939
1.27333
2.77814
0.0214578
0.0808758
0.0200432
0.0205315
0.0214251
0.0205369
0.0247224
0.0198508
0.313833
0.0225556
0.0224098
0.0197952
0.0214248
0.034479
0.023968
1.84828
1.36408
0.0352921
0.0211262
0.0206603
1.76922
0.0209455
3.80669
0.0200545
0.109258
0.227437
0.0226229
0.0315551
0.164555
1.03787
0.0236212
0.363859
0.036451
3.03486
3.24216
0.0224951
1.50522
0.0211435
0.0207559
0.0215122
0.0210332
0.0205964
0.0198565
0.338228
0.0214964
0.0258118
0.0205193
0.329776
0.0214734
3.8131
0.0236645
0.0232438
0.0211663
0.0222181
0.0209597
0.0196434
0.0213976
0.0209247
0.0290337
0.020466
0.0452542
0.381894
0.02133
0.0472293
0.0300032
0.0197444
0.18169
0.0258908
0.0210276
0.389458
0.35756
0.0614387
3.27819
0.0208473
0.0455554
0.0210027
0.0214689
0.0223885
0.0213049
0.0226703
0.0218865
0.0482553
0.0223552
0.0209552
0.0400674
0.0220721
0.02151
0.0380706
4.11694
0.0203748
0.0227994
0.0239377
0.0531538
0.0215181
0.0217939
0.0434576
0.021158
0.0463426
0.0255143
2.5921
0.0214286
0.0211069
0.0223093
0.0239878
0.020475
0.041848
2.95289
1.04579
0.020503
0.33096
0.208746
0.0209884
0.0214171
0.0209339
0.0210213
3.67977
0.0231441
0.624296
0.059256
0.0223684
0.122884
0.5622
0.0214618
0.022793
2.39548
0.622315
0.0805361
0.393357
0.0232835
0.135255
0.0208634
0.0203639
1.14879
0.0208082
0.396402
1.13692
0.0214047
0.020038
0.0298145
0.0207705
0.448254
2.48305
0.578022
0.0360315
0.0226946
2.94999
1.90134
1.78991
0.0222092
1.18156
3.43959
0.022419
2.07913
0.0223746
0.062294
0.0211479
0.0235342
0.0207272
0.114075
0.0205533
2.02182
0.111443
0.0207499
0.0201521
0.0200142
0.0223045
0.834399
0.403125
0.443606
0.0291414
1.0663
0.0345144
0.0270388
0.0363937
0.0261909
0.0198048
0.0220776
0.0245473
0.0214311
0.0216622
0.0231005
0.209169
0.0199537
0.0232754
0.482072
2.55029
0.281716
0.0329899
2.1876
0.0787322
0.073791
0.0224262
0.457736
0.0248513
0.0277555
0.0833158
0.313359
0.220241
1.33366
2.64316
0.0234652
2.16479
0.0211355
0.0832623
0.0625307
0.0203316
0.0215038
0.0200813
0.0207221
2.46492
0.0213693
1.15619
0.0228171
0.0223629
0.0214787
0.020678
0.0608297
0.0196668
0.0649982
0.022436
0.0214721
0.0196381
0.106981
0.0211665
0.922869
0.0205241
0.0362982
0.0204644
0.466934
0.0348887
0.0211464
0.0318085
0.023676
0.442156
0.0945617
0.0214823
0.110211
2.32296
0.0375327
0.0866598
0.126381
0.0210369
0.18667
0.0220156
0.0350645
0.0251476
0.471145
2.46707
0.0547856
3.72209
0.020554
0.0227112
1.24744
0.0216322
0.584716
3.72454
0.0693784
0.0371535
0.0211152
0.0228429
2.21304
0.0207839
0.0214428
0.0364599
0.0208941
0.0205479
0.0214465
0.0222449
0.020714
0.258847
0.0234004
0.364012
0.0209336
0.838118
0.0224941
0.0388419
0.0219006
0.48065
2.53811
0.0204916
0.0520235
0.483519
0.0215231
0.443887
0.0204037
0.0205758
0.0216108
0.035298
0.029334
0.0241131
0.0223093
3.3153
0.0210304
0.124565
0.843181
0.0211726
0.021807
0.0209081
0.388826
0.0441149
0.0214737
3.62867
0.074036
0.0465547
0.0203641
1.80783
0.0220718
0.0222618
0.0214523
0.167048
0.0259743
0.022735
0.0199646
0.0213004
0.0234785
0.0218336
0.703947
0.0301222
0.0214608
0.0219549
3.76671
0.260223
0.023788
0.0211646
0.0662285
0.0199304
0.021499
0.020152
0.0221683
0.387653
0.021286
0.0200415
0.0281825
0.0220867
0.021841
0.0206876
0.0206758
0.0398972
0.0199541
0.411631
0.282156
0.0220485
0.0210918
0.0235093
0.443669
0.0641556
0.0200026
0.0214657
0.09013
0.0841669
0.386944
0.0227272
0.0601997
0.0911405
0.750766
0.0202576
0.464266
0.0208478
0.0247512
0.0199216
0.0215986
0.106479
0.0211786
0.930715
1.14485
0.0213092
0.020959
0.0224611
0.0201354
2.28273
0.0208885
0.0222967
0.874321
0.0310498
0.0206726
2.18155
0.0234776
0.0243985
0.0227094
0.020643
0.176139
0.0211178
0.0233897
0.153595
1.15861
0.0220014
0.845181
0.922859
0.127016
0.0220307
0.0212873
0.0460749
0.025865
3.3298
3.11586
1.09189
0.021451
0.0455405
0.0213436
0.321344
0.31339
0.0213705
0.0363938
0.0238066
0.0320672
0.0209136
0.0439525
0.0249046
0.022023
0.606533
0.0200336
0.0213033
2.09461
0.0225921
0.0215373
0.0217119
0.0213721
3.58634
0.0209737
0.0214957
0.0210346
0.0217559
0.0221206
0.022619
0.0567239
2.92038
0.0238644
0.0223987
0.108936
0.251172
0.0213818
2.24666
0.479069
3.30301
0.0204835
0.0278212
0.021786
2.46961
0.0232682
0.0305049
0.0324061
0.0295707
0.623785
0.0241129
0.0221077
0.369114
0.653387
0.0213182
0.01975
3.01266
0.0227354
1.12069
0.0213141
0.0200712
0.0208467
0.0204694
0.0226328
0.0239295
0.023123
0.0202439
0.0210159
0.0213723
0.732344
0.0213222
0.458975
2.29514
0.351865
0.0224514
0.332843
0.0408314
0.299246
1.41295
0.0218963
0.0465096
0.0408824
0.0216709
2.93924
0.338879
0.0213785
0.0209184
0.0216053
0.0440666
0.106924
0.948274
0.0781188
0.0210179
3.19442
0.0207222
0.0223487
0.0406591
1.10277
0.0213729
0.0223651
0.0222761
0.163718
0.418791
0.0301909
0.0216491
2.94027
0.0211579
0.0217098
0.020158
0.069363
0.0212806
0.411384
0.0197585
1.229
0.0331733
0.0432341
0.0257713
0.335534
0.0838741
0.0201242
0.0208794
1.13756
0.0413041
0.0219652
0.02618
0.0205174
0.0579464
0.0203588
0.0220993
0.0207107
0.103811
0.0211716
0.480749
0.0408433
0.0204964
0.0213434
0.0268974
0.0219493
0.326464
0.388764
2.7857
0.612757
0.0210509
0.119449
0.722501
0.0199832
0.0359519
0.169429
0.0205046
0.0231274
0.0579983
0.191014
0.0311543
0.0485545
0.0218334
2.05264
0.0211009
0.0209717
2.48244
0.657369
0.0222768
0.0215504
0.378903
0.020717
0.0578759
0.0225808
0.0333288
0.0198911
0.0211809
0.0218444
1.84176
0.0226828
3.3877
0.0348061
1.13719
0.0211897
0.0198364
1.06039
0.348799
0.0486808
0.250644
0.145639
0.0220859
0.105105
0.0411729
0.0225127
0.263437
0.02026
0.666638
0.057711
0.0208845
0.0213602
0.0737011
0.575446
0.0218886
0.0768202
0.0219658
1.11832
0.0211532
0.0210571
0.0423718
0.026311
0.0248272
0.714402
0.311743
0.0209736
0.033361
0.293511
0.0234585
2.57023
2.40191
0.0213637
0.0209677
0.145833
0.0215201
3.13275
0.023874
0.353394
0.0248245
0.0220034
0.0217418
0.0204948
0.0374137
2.42802
2.71623
0.0195958
0.0293257
0.0708164
0.751298
0.0221738
0.184056
0.0248593
0.0393368
0.361265
0.388998
0.0210756
0.321062
2.31136
0.0207371
0.0254289
0.151736
0.019961
0.0204785
0.44408
0.0195757
0.426138
0.150577
0.0199698
0.159768
0.0207242
0.549575
0.423814
0.020118
0.0207363
0.020125
0.268647
0.0215617
0.0204141
0.0479421
0.810829
1.74509
0.066831
0.130599
2.8745
0.0210564
0.493177
0.0210948
0.0752399
0.48359
2.44066
1.34149
0.0378347
0.523322
0.0231729
0.0273715
0.0289127
0.0208668
0.402885
0.0225198
0.366359
0.0205833
0.269316
0.020416
0.0214196
3.63922
0.0576054
0.193078
2.21229
0.0219632
0.0205358
1.49111
0.0202538
0.0249964
0.376599
0.0250542
0.0217358
0.0204913
4.22838
0.0214761
0.0253178
0.380343
0.053549
0.0195614
2.2618
0.0218568
2.23267
1.0665
0.0220229
0.02127
0.0212829
4.0794
1.31912
0.113509
0.0260236
0.022149
0.0211854
0.0470552
3.75413
0.0214317
2.02083
0.02117
0.0219949
0.0232819
2.64367
0.0394668
3.14548
0.0455538
0.0404671
1.39538
0.021146
0.0208763
0.0206625
0.0429071
0.0217715
0.0213783
1.98856
0.0214667
0.0213539
0.0212727
0.0206729
0.0200154
0.601645
0.0196891
2.12704
0.0209545
0.217063
0.0208059
0.0228639
0.0221437
0.0253531
0.0209255
0.0210648
0.0225415
0.0222277
0.116064
0.0301634
0.06401
0.17522
0.0246557
0.0202744
0.810021
0.312406
0.0199653
0.0211593
1.12764
0.216271
0.020474
0.263778
0.27354
0.706382
0.0584435
0.389626
0.0796472
0.0214891
0.021085
0.0204712
0.031975
0.0213546
0.0210058
0.0204318
0.0199354
0.534008
0.0217342
0.0250596
0.0244312
3.17825
0.021049
0.0243015
0.058871
0.0196514
0.0214426
0.0418892
1.70792
0.0306077
0.110372
0.0266007
0.0196266
0.0213032
0.0205014
0.0223872
0.481017
0.155901
0.022244
1.47002
0.625138
0.0212934
0.0262884
0.0507373
0.062715
0.0263407
0.0714755
0.0532225
0.0235787
0.020339
0.0281722
0.0420496
0.0305272
0.0245083
0.0227625
0.485539
0.208613
0.315312
0.0343953
2.25466
0.0213035
0.0236205
1.11057
0.353243
0.0236738
0.0206581
1.20066
0.671846
1.0404
0.0225372
0.0196107
0.0202653
0.0216245
0.0202219
0.921786
3.8455
0.0263816
0.0209069
0.0216073
2.49474
0.202512
0.0226731
0.0206281
3.18291
0.0208283
0.0213499
2.40292
0.362243
2.09821
0.424824
2.13852
0.097306
0.023268
0.0225669
0.0367215
3.23253
0.0217361
0.266517
0.0202402
0.0215475
2.56777
0.0206597
0.319476
0.0282108
2.26942
0.485303
0.0213814
0.0723538
0.0214314
0.264183
0.0212012
0.140388
0.0313447
0.319224
0.0224404
0.024755
2.368
0.0214054
0.0227155
2.27302
0.0245811
0.0204349
0.0273957
0.0883207
0.0210275
0.0211827
0.0211096
0.0197248
0.0214002
0.0782356
0.0212761
2.28183
0.978726
0.0476065
0.0212733
0.380052
0.021199
0.0204698
0.0214821
0.0210466
0.02011
0.298608
0.110699
0.855985
0.0244515
0.109791
0.0197189
2.25421
0.0714226
2.12701
0.0708049
0.0205391
0.0225389
2.07615
0.0223754
0.0267547
0.0293339
0.020756
0.855315
0.076665
2.37527
0.0246272
0.0254825
2.10721
0.351393
0.179028
0.0212696
0.0243732
0.0253668
2.28582
0.020686
0.0210503
0.0648692
2.91835
0.0220961
0.0222163
0.0700947
0.0210562
0.0211905
0.0683662
0.0210156
0.0208513
0.152097
0.957643
0.0212003
0.0212811
0.0195332
0.0223419
3.28072
0.0216383
0.0218161
0.613533
1.25891
0.596741
0.0223026
3.78285
0.0213374
0.0261888
0.0222123
0.116579
1.11951
0.0215724
0.020685
2.39582
2.49951
0.0314163
0.0198169
0.0221954
0.0237047
0.0217223
0.357877
0.341895
0.0422412
0.0223341
0.15478
0.0234671
0.314439
0.0216426
0.904179
0.193519
0.0200934
0.020577
0.0232434
0.0793214
1.14078
0.0264197
0.0226431
0.0153126
0.0213527
0.0217069
0.603079
1.10306
0.0361709
0.0242456
0.0212771
0.0274985
2.54963
0.0212579
0.0216778
0.0228653
0.0205298
0.0218447
0.0678888
0.0224387
0.0337768
0.595163
0.0208375
0.0306351
0.32891
0.0209081
0.0320442
2.45301
0.0226421
0.341327
0.0285052
0.026541
0.0214003
0.0209299
0.0237676
0.025112
0.0204379
0.45098
0.350134
0.109312
0.0216565
0.760046
0.0213741
0.0228196
2.10284
0.0200009
0.0696698
0.0246737
0.190457
1.17229
0.0213531
0.0599046
0.0256839
0.0245807
2.05711
0.0216529
0.0196264
0.378647
0.0548337
0.0257179
0.0216115
0.154884
0.0208644
0.0214843
0.0254274
0.0820965
0.34687
0.0226594
0.104034
3.85922
0.0412815
0.470406
0.407306
0.0203866
0.4785
0.0214039
0.0214511
0.027387
0.21081
0.0214263
0.0198742
0.0341605
1.86013
0.0241521
0.0276307
1.21673
0.0222418
0.0212916
2.20032
0.0215106
0.0333283
0.0221842
0.0252397
0.0227723
0.122804
0.031462
0.0215257
0.0216891
0.336204
0.246574
0.0213095
0.325793
0.0225304
1.47982
0.0209823
0.0203559
1.41146
0.0727008
0.0468664
0.0203758
0.02065
0.0212598
0.0210482
0.292727
0.0217374
3.05046
0.0267059
0.041896
0.0215725
2.19035
0.32991
0.0248493
0.634812
0.0214107
0.0215068
0.0258197
0.0300814
0.441482
0.60986
0.021412
0.0428701
0.0247993
0.021303
0.0224661
0.0672644
2.18053
0.0236338
0.983684
0.0268588
0.264002
0.508673
0.13788
0.0208777
0.0370795
0.352082
0.0260982
0.0197634
0.0244951
0.589597
0.212595
0.0828303
1.31646
0.0292971
1.26621
0.0206385
0.0221408
0.0224121
3.19154
0.02417
0.0209858
0.0221457
0.0209505
0.0221154
0.327367
0.0206191
0.117759
0.0428938
0.0253594
0.0252832
0.484535
0.0341254
0.021607
0.0214166
0.988134
0.105349
0.822106
0.0227265
0.02245
0.0213862
3.60993
0.0204628
0.0206445
0.0222838
2.46098
0.325914
0.0212685
1.22239
0.020424
0.021303
0.119406
2.00622
0.0234537
0.160131
0.0244971
2.48044
0.0275569
0.0214177
0.321216
2.47881
0.0212384
0.0303086
0.0209559
0.0213275
0.0218761
0.0271571
0.0232697
2.36407
0.340647
0.0215243
0.0211769
0.0463874
0.280153
0.0222542
0.0215414
0.0199887
0.0450186
0.0207855
2.36262
0.0231316
0.0209783
0.0220744
0.0429667
1.26267
3.48299
0.406508
3.01798
0.0882451
0.409949
3.36762
0.0583667
2.44764
0.025949
0.0601846
0.0213921
0.050075
0.0735866
0.020787
0.316726
1.35792
0.0786935
0.455102
0.374254
0.119667
0.020637
0.0200621
0.0244829
0.021787
0.351057
0.0206031
3.36747
0.0223172
0.0252917
0.0248917
0.479434
0.0638961
0.0825334
0.0210678
0.547008
0.208875
0.0201846
0.0225427
0.13908
0.0783356
0.129825
0.0212992
0.0347411
0.83577
0.200399
0.415115
0.158684
0.354159
0.0632942
0.184497
0.0599692
0.0199829
0.0238662
0.0199665
0.0206002
0.24072
0.0208001
0.0352191
0.022107
0.186442
0.405969
0.020169
0.0215165
0.0229961
0.0622811
0.0217415
0.0209436
0.023118
0.480808
2.0446
0.0596374
0.0358473
0.0446134
0.318375
0.0217425
0.0203651
0.0407201
0.0244962
0.0327932
0.0215013
0.0965894
0.275398
0.0244407
0.0287429
0.0306538
0.0599256
1.35074
0.032192
0.0206287
0.0227159
0.0366675
0.050882
0.0776172
2.36081
0.0204863
0.349996
0.0247592
2.34247
0.610134
0.277283
0.0215987
0.0225986
0.0216836
0.0216354
0.0207137
0.101411
0.049517
0.0634977
0.456782
0.0292188
0.0204716
0.0213462
0.0246829
1.24297
0.427897
0.265905
0.0901042
0.855447
0.0213652
0.0206406
0.0749769
0.0784112
0.290437
0.0241565
0.0726556
0.132533
0.0209091
3.92378
4.09558
1.10731
2.43816
0.0304654
0.0552899
0.0214869
0.0209071
0.022116
0.0399646
2.32227
0.0213228
0.340675
0.0217175
0.0267307
0.347074
0.0216347
0.0198851
0.0216257
0.0216372
0.280442
0.0214933
0.0214394
0.0335512
0.0213349
0.0283149
0.330202
3.62441
0.236876
0.962259
0.0351167
0.0238023
1.15235
0.421914
0.022538
3.10638
0.0523202
0.114126
0.0726418
3.11088
0.0216195
2.07929
0.512756
0.28573
0.905797
0.0342167
0.0212363
0.0209356
0.0307736
0.0214932
0.0215566
0.0273436
2.0986
1.24192
0.0215731
0.021866
0.0197013
0.0230138
0.0387827
0.319251
2.71247
0.0220528
0.0596731
0.347596
2.38204
0.0216347
0.491521
0.81433
0.0824851
0.214341
0.33259
0.0201443
0.0294229
0.0206354
0.0210892
0.0224218
0.0202049
0.0204614
0.179944
0.317183
0.82141
0.0284696
0.0591115
3.81751
0.0203592
0.368006
0.0218839
0.0241686
0.106147
0.021821
0.0211364
0.192011
0.0223044
0.0222688
2.70826
0.020584
0.0368794
0.352316
0.0218713
0.915081
2.13195
2.0388
0.0212993
0.0346232
0.0210908
0.0200305
0.0216409
0.423576
0.0202947
0.0475336
0.0229309
0.0278705
3.28785
0.442949
0.0365072
0.0288087
0.0225716
0.0201118
0.0334922
0.0204552
0.249341
0.0213542
2.77793
0.713525
1.8666
0.0224588
0.319189
1.24196
0.596696
0.081144
0.0219319
0.0214517
0.434156
1.01743
2.8743
0.0214273
0.0235017
0.358311
0.0212964
0.0202004
0.0221474
0.0216154
0.0205347
0.0217639
0.0240288
0.0207673
0.167358
0.195234
0.413719
0.0242203
0.0498351
2.13393
0.0512198
0.036489
0.0213529
0.143192
0.0196021
0.0223494
0.0251507
2.23757
0.0266878
1.76358
0.919767
0.0417276
0.162933
0.0330222
0.153493
0.0405992
0.0347994
0.0212488
2.86693
1.89721
0.0214363
0.736262
0.0213532
3.09489
0.0216847
0.0231997
2.32604
2.08088
0.0209941
0.152373
0.403834
0.0312572
2.35832
0.0278527
3.97836
0.0239433
0.0308928
0.0593064
0.306492
1.31077
0.109788
0.021801
0.0226023
3.83272
0.0212379
0.0198375
2.47552
0.0214089
0.0669076
0.305059
0.0223472
0.0343873
2.43706
0.670144
0.0225614
0.199901
0.0285589
1.32779
1.09432
0.0414238
0.0210365
0.0211107
0.0219904
0.0215779
0.0213296
0.0232686
0.0607305
0.0241961
0.0214521
0.0212183
0.0203555
0.0238164
2.40175
0.0222855
0.0264238
2.6543
3.05961
0.021465
0.0212324
0.0339748
0.0227928
0.0204155
0.0219913
0.0284805
1.96399
3.48318
0.024317
0.020812
0.143258
0.020867
0.0385025
0.271759
0.0208358
0.0219589
0.0561568
0.0206602
2.2931
0.0228697
0.251277
0.0198692
0.0781602
0.0347405
2.69704
0.0784083
0.019854
0.0215886
0.0302256
0.0341752
0.0208492
0.0198463
0.0839216
0.0232947
0.0213284
3.66533
0.0229251
2.28875
0.0196273
0.0214248
0.0423199
0.0204095
0.123819
3.12753
3.67712
3.02824
0.719279
1.34774
0.0621961
0.0219302
0.0284897
0.0277963
0.0231042
3.18086
3.09927
0.164587
0.0240368
0.145525
0.4528
0.0258995
0.0754776
0.182271
0.0213744
0.466822
0.156914
0.727273
0.021605
3.41685
0.0234002
0.0207737
0.0209802
0.223666
0.0213501
0.126404
0.0523672
0.0319509
0.842503
0.0229253
0.0213591
0.0233088
0.0209609
3.56238
0.0221244
0.0271049
3.65432
0.0217842
0.0214035
1.77866
0.0202907
0.346242
2.70539
0.408997
0.0438964
0.0275674
0.0428227
0.0208233
0.0215869
0.389596
0.0203924
0.0734636
0.0225085
0.0213436
0.0202476
0.0656305
0.0226174
0.0697178
0.0216022
0.0213219
0.282193
3.24947
0.13399
0.0397805
0.0196392
0.0213762
0.0462878
2.74716
0.38958
2.34862
0.0295609
3.49084
0.183332
0.0874778
0.0243022
0.0422936
1.94312
0.10738
0.189763
0.351654
2.25259
0.0851919
0.0230422
0.0215002
0.0213708
0.020827
1.34576
0.0217775
0.0590836
0.0208783
0.125884
0.0214937
0.0344378
0.0214663
0.0210102
0.419821
0.020396
0.0644694
0.0485817
2.40977
0.0273662
1.109
0.0221909
3.38297
0.020195
0.0221086
0.43162
0.0548277
0.0542825
0.0223995
0.0217336
0.0544901
0.0285512
0.0214713
0.0222846
0.450446
0.0508488
0.021939
0.0221471
0.0244784
0.042756
3.39209
0.0236767
0.0201087
0.0575618
2.80664
0.0210176
0.0207086
2.90181
0.0508835
0.0233922
0.0212114
0.0223936
1.51684
0.0214185
0.0268499
0.100745
0.0203212
0.0212947
0.0965237
0.0224908
0.097468
0.453769
0.0491911
0.0213871
0.0200938
0.0206783
0.276004
0.0226796
0.206535
0.292271
0.0198618
0.0204639
0.0216405
0.021096
0.0986166
2.77365
0.0208893
2.06988
0.059716
0.0220769
0.0198503
0.0212288
0.110669
0.0207653
0.021165
0.0770385
2.90237
0.068621
0.0470338
1.15004
0.540571
2.36925
0.385702
0.289692
0.133701
0.109751
0.272903
0.0200075
0.0229073
0.295214
0.0306253
0.0213617
2.51165
0.333911
0.0232607
0.0546172
0.0212954
0.0298391
2.50987
0.829381
0.149953
2.58072
0.0271316
0.0286773
0.0203068
0.0694953
0.0214633
1.31017
2.65305
2.42079
0.0203768
0.0218264
2.3795
3.02521
0.0203457
0.0196822
0.134832
0.551189
0.0212828
0.371377
0.0278491
0.033164
0.0215093
1.8367
0.0922527
2.43036
1.83526
0.0347845
1.95915
2.90761
0.021453
0.0228367
0.0209542
2.79239
0.021296
0.0286149
1.54836
0.0248407
0.0245137
1.1998
0.0615596
0.0977175
0.0263926
0.021318
0.024154
0.0236666
0.367141
3.04467
0.529858
0.0286239
0.0247787
0.0207526
0.0240102
0.231655
0.0260492
0.035743
0.0498336
0.0255455
0.0207862
0.0530115
0.375196
0.246018
0.0213104
0.318356
0.421244
0.0213149
0.0226245
0.0794348
0.0695865
0.0341547
0.0540344
2.70055
0.0240255
3.05629
0.020282
0.0202923
0.342284
0.338163
2.44583
0.313877
3.06649
0.199054
0.0201323
0.0252729
0.140443
0.0322139
0.121241
0.0306343
0.0331352
0.0245393
0.0211976
0.0611576
0.0214219
0.0867405
0.0216038
0.150652
0.024516
2.42359
0.0208187
2.8605
0.0217998
0.0221662
0.0208428
0.0214215
3.14075
1.96851
0.202042
0.0202636
0.021495
0.0476662
0.0343761
0.0272507
0.0283383
2.44468
0.0208328
0.242521
0.0240898
0.0324252
0.0236264
0.327504
0.0229156
0.0623455
0.0233879
0.0566732
0.0404653
2.52032
0.396919
0.0410755
2.46777
0.0272937
0.0281932
0.0197329
2.39365
2.35763
4.10522
0.0249504
0.0613906
0.0532403
0.0215354
0.0286339
0.0222636
0.0239901
0.0664273
0.0371836
0.0723716
0.0216269
0.0265205
0.111627
0.0233393
0.24983
0.0939336
0.0711366
0.0211604
0.902202
0.119212
0.0219743
0.027259
0.0653921
0.114752
0.199367
0.0243392
0.0212268
0.0283739
2.35047
0.173725
2.41307
0.0510388
0.0228653
0.0327359
0.0451573
0.0280251
0.0979142
2.4878
0.301807
1.30087
0.0577741
2.29479
0.2968
0.0234671
0.0730429
1.48213
0.020859
0.0337324
0.0295002
0.0221752
0.0279462
0.0373944
2.53065
0.0307859
0.390546
2.03046
0.030521
2.26327
0.0221761
4.17031
2.62637
0.0222005
0.0214651
2.53328
0.021696
0.136854
0.0212966
0.0209382
0.0214918
0.0214574
0.347429
0.0242522
0.178536
0.318827
0.130396
0.185848
0.356916
0.020714
0.019898
0.0743014
0.0571118
0.025629
0.0214423
2.32102
0.0212807
3.53411
0.0263381
0.0500298
0.0214497
0.0278816
0.022561
2.67727
0.0204948
1.81019
0.0200715
1.92657
0.0204232
0.0318256
2.23138
0.0250279
1.46574
2.45172
0.119671
0.0210755
0.0620334
0.0204512
0.0670903
0.0279658
0.0218631
3.5524
2.95897
0.0209809
0.0229845
0.0240698
0.0666929
0.0215116
0.0198675
0.277617
0.348829
2.43387
0.0212945
0.0228236
0.0213065
1.97257
0.02433
0.0284479
0.0204476
0.0230261
0.022949
0.0376575
0.0231109
0.268175
0.0213634
2.67273
0.0198272
0.323527
0.0200521
0.0259129
0.0245485
0.0387366
0.0230662
2.94592
0.303838
0.0213103
0.0196762
0.0204916
0.0237302
0.0226777
0.0238898
0.0278755
0.0221136
0.024422
0.0212943
0.0231733
2.12935
2.13485
0.0238278
0.0234229
0.0204458
0.0617596
2.67778
0.0204161
0.0220384
0.0203517
0.043167
2.33991
4.03353
0.0219645
2.25548
0.0201446
0.0238026
0.162378
0.0659847
0.0202439
0.131529
0.0223289
0.0202645
0.0230995
0.0215796
2.14325
0.0206221
0.0209088
0.028437
0.0233093
0.29843
1.0628
0.0241085
0.0200423
2.34058
0.0238542
0.020061
0.412379
0.0218353
0.0400192
0.0228453
2.25036
0.0207701
0.0334086
0.0213665
0.0855575
0.021436
0.0239981
2.0712
2.73033
0.392622
0.0204697
0.0625184
0.0244434
0.0218984
0.378075
0.0213964
2.35988
0.177124
0.0266792
0.0215059
0.0421063
0.0208248
0.0215524
0.776873
2.97484
0.0218325
0.165185
0.147162
0.0777342
0.0239491
0.0204475
0.177302
2.47512
1.12645
0.044641
0.435793
0.034266
0.0241701
2.56743
0.0233588
0.867982
0.0526286
0.0430927
0.318216
2.51829
0.138404
0.0241151
0.172614
0.0308577
0.119574
0.0210768
0.020857
2.30512
0.0220042
0.212639
0.0239969
0.262781
0.0849577
0.0218431
0.0268129
0.0214763
1.11117
2.3371
0.426769
0.0217541
0.39229
0.0511877
0.151133
0.0288662
0.0239981
0.0216556
0.0213133
0.0236025
0.403714
0.0205786
0.050413
0.0227817
0.0213398
0.434724
1.9514
0.0574582
0.0601133
0.0215084
0.105336
0.0599605
0.102526
0.0236869
0.0326561
0.0236107
1.12872
0.0206585
0.0215003
0.32606
0.139643
0.0589457
2.5625
0.024294
0.0266675
0.0369741
0.0209492
0.0231245
0.0533894
0.030163
0.0204317
0.0217893
0.157278
0.0202277
0.0319069
0.0209144
0.270236
0.0232852
0.0214605
0.0222421
0.0256012
0.022564
0.0553424
0.0203566
0.0228502
0.0312642
0.0212069
0.0284726
0.0214839
0.0216238
0.0215777
0.0216426
0.021289
0.505944
0.0240616
0.0240316
0.0248201
0.0819217
0.0625117
0.032151
0.254138
0.023362
0.0223848
0.0216822
0.0202342
0.0217875
0.0217307
0.0207095
1.92468
0.829821