/*--------------------------------*- C++ -*----------------------------------*\
| =========                 |                                                 |
| \\      /  F ield         | OpenFOAM: The Open Source CFD Toolbox           |
|  \\    /   O peration     | Version:  v2012                                 |
|   \\  /    A nd           | Website:  www.openfoam.com                      |
|    \\/     M anipulation  |                                                 |
\*---------------------------------------------------------------------------*/
FoamFile
{
    version     2.0;
    format      ascii;
    class       volVectorField;
    location    "350";
    object      U;
}
// * * * * * * * * * * * * * * * * * * * * * * * * * * * * * * * * * * * * * //

dimensions      [0 1 -1 0 0 0 0];


internalField   nonuniform List<vector> 
18598
(
(0.967257 -0.0702854 0)
(1.00841 0.175485 4.74935e-20)
(1.04054 -0.00288089 -4.92932e-22)
(0.949565 0.0882605 -5.82781e-21)
(1.04342 0.00241736 1.88059e-22)
(1.01302 0.000200802 0)
(0.575998 -0.221321 0)
(1.0011 -1.97902e-05 -6.63153e-24)
(1.0086 0.00135999 -1.90259e-22)
(1.02267 0.0206242 8.85116e-22)
(1.00766 -0.000531785 3.71369e-23)
(1.0046 0.0137572 2.7396e-22)
(1.01436 0.000543995 -1.47278e-21)
(0.49226 0.0792543 0)
(1.02654 -0.0533815 0)
(1.00529 0.00991695 -7.84808e-22)
(1.00916 0.00625574 -4.69655e-22)
(0.848313 0.0511427 0)
(0.841859 -0.139348 3.59179e-21)
(0.89685 -0.0843857 7.70882e-23)
(0.844634 0.018323 8.21664e-22)
(1.00929 0.000390664 -1.78183e-22)
(1.05145 0.0269356 5.34236e-21)
(1.00704 0.000182535 -5.51426e-22)
(1.01195 0.00470943 -6.24816e-22)
(0.84447 -0.120526 -3.71258e-21)
(1.00669 -0.00025295 3.06426e-22)
(0.215837 0.212227 -2.56601e-20)
(1.02197 0.00972173 8.52863e-21)
(1.00937 -0.000750676 2.49613e-22)
(0.986437 -0.0630755 0)
(1.00853 0.00134095 -1.22822e-23)
(1.0131 0.178973 -1.34618e-20)
(1.00781 -0.000566808 4.16196e-23)
(0.863113 -0.132754 -3.10185e-21)
(1.00999 -0.000591648 0)
(1.00963 0.0324323 -2.91221e-23)
(1.0118 0.0044637 5.79472e-22)
(1.05408 0.0439142 2.42384e-22)
(0.899081 -0.0312003 0)
(0.228553 0.205279 2.92151e-20)
(1.00743 -0.000269049 -1.57429e-22)
(1.0103 0.00368898 -1.6476e-22)
(1.05285 0.043104 0)
(1.00931 -0.000455501 -2.95499e-22)
(0.449348 0.0697276 -5.65016e-21)
(1.0031 -2.77271e-05 0)
(0.900663 -0.0542753 0)
(1.03345 0.0511816 -1.87479e-21)
(1.01524 0.00901911 1.22564e-21)
(1.07712 0.00263104 0)
(1.01529 0.00937931 2.65602e-22)
(1.01026 0.0019741 6.26106e-22)
(0.991911 -0.0467606 0)
(1.04357 0.0125284 5.00192e-21)
(1.00983 -0.000530421 -3.05035e-22)
(0.867372 0.218598 5.00004e-21)
(-0.00134543 0.262466 -2.08633e-20)
(0.0544671 0.229857 6.31172e-20)
(0.875627 0.145548 0)
(1.01707 0.0135246 -2.81712e-22)
(1.00291 0.000101717 -8.29478e-23)
(1.01041 0.00150313 2.91182e-22)
(0.978992 0.116881 -1.27033e-20)
(1.03098 0.0517438 8.41566e-23)
(1.01215 0.00137239 -3.32284e-22)
(1.03656 0.0415957 -3.6725e-21)
(1.01169 0.00199707 7.14805e-22)
(1.0041 0.000149888 0)
(0.992645 -0.0284502 5.64424e-21)
(1.01681 0.00983017 0)
(1.01282 0.00259318 1.7038e-21)
(1.0432 0.006822 1.05812e-20)
(1.02235 0.0100869 -4.3139e-21)
(1.00267 9.88384e-05 -1.24041e-23)
(1.00367 2.35339e-05 -2.39253e-22)
(1.01714 0.0132043 0)
(1.01116 0.00311605 -4.3076e-24)
(1.0114 0.00339533 -1.21834e-21)
(1.05403 0.0334018 -7.88474e-21)
(1.0152 0.00878311 -1.90922e-21)
(1.01525 0.00907099 0)
(1.00215 -6.44297e-06 -3.88293e-22)
(1.00399 0.000129284 -2.95274e-22)
(1.02271 0.00242791 5.82648e-21)
(1.04273 0.0078295 -1.03546e-20)
(1.00333 -3.14623e-05 0)
(0.845313 -0.00717497 1.55518e-20)
(0.856429 -0.225344 -5.86939e-21)
(0.191378 0.176587 2.67085e-21)
(1.00827 0.0327624 -2.33903e-22)
(1.0118 0.0101681 0)
(1.01508 0.00224333 4.61595e-21)
(1.03064 0.0206547 -1.14426e-20)
(1.01523 0.00869665 0)
(1.04442 0.0133803 0)
(1.03604 0.047836 -5.11338e-21)
(0.993147 -0.0234257 -6.08237e-21)
(1.01992 0.0194277 -7.03551e-22)
(1.01926 0.0356749 0)
(0.859971 0.207839 9.33573e-21)
(0.877137 0.238027 -1.9135e-22)
(0.951998 0.0751944 -7.07037e-22)
(0.842069 -0.0293132 -4.84479e-21)
(0.685932 -0.266003 0)
(0.995616 0.0743561 6.46985e-22)
(1.01798 0.0265711 3.38031e-21)
(1.03097 0.102662 1.95215e-20)
(1.00874 -0.000751475 -8.19423e-23)
(0.273583 -0.238227 0)
(1.00429 0.00793463 4.00439e-22)
(1.01515 0.00845512 -7.80012e-22)
(1.05435 0.0260876 0)
(0.955224 0.0692918 5.07053e-21)
(1.00863 0.00132713 1.40892e-22)
(0.864722 -0.135881 -4.09504e-22)
(1.05274 0.0296259 7.90326e-21)
(1.00111 -9.60389e-06 1.17908e-22)
(1.0054 0.00522994 1.48853e-22)
(1.01076 0.00389047 0)
(0.874695 -0.143909 0)
(1.01357 -0.0122096 4.0605e-24)
(0.849931 -0.165596 6.67987e-23)
(1.01019 0.00355787 1.63427e-22)
(1.01309 0.00259814 0)
(0.577406 -0.129825 4.62884e-21)
(0.910137 0.229497 0)
(1.01074 0.00391797 -3.57359e-22)
(1.00736 -0.000291649 -1.39274e-22)
(0.367106 0.249087 -4.03499e-20)
(1.01127 -0.0120642 -3.18964e-22)
(0.840224 0.163125 -1.63467e-21)
(1.03442 0.0738144 -3.61218e-23)
(1.06476 0.0320413 0)
(1.0526 0.0428266 2.88174e-21)
(0.981301 0.064098 0)
(1.00671 -0.000257823 0)
(1.01057 -0.00094808 5.75959e-22)
(1.01078 -0.000952665 -5.57323e-22)
(0.224373 -0.0351099 -3.39501e-21)
(1.05292 0.0165697 0)
(1.00993 -0.000807085 2.69734e-22)
(1.00974 0.011958 4.41123e-22)
(0.85894 0.190367 -1.18141e-20)
(1.0734 0.0268784 -1.13093e-22)
(1.01071 -0.000960886 8.64126e-22)
(0.649242 -0.293061 1.02621e-21)
(1.0018 2.90386e-05 0)
(0.859175 -0.149452 8.87758e-22)
(1.00979 -0.000818029 0)
(1.00859 0.00131623 -1.55407e-22)
(1.02008 -0.038113 4.40709e-21)
(1.00876 -0.000651161 1.03748e-21)
(0.992935 0.205056 -2.77956e-20)
(1.01335 -0.00171055 -3.07439e-22)
(1.02961 0.020369 4.76932e-21)
(1.00867 -0.000180548 5.51879e-22)
(1.02164 0.0183491 -3.52738e-22)
(1.01685 0.00940826 0)
(1.01179 0.00525644 0)
(0.987379 0.0702522 2.37628e-22)
(1.02367 -0.0472798 1.37966e-21)
(1.02346 0.0217803 -2.96103e-21)
(1.01421 0.000489675 0)
(0.0279077 0.178627 0)
(0.868288 0.108451 0)
(1.07916 0.0134451 -2.12638e-22)
(1.03228 0.00917857 0)
(1.00222 -1.77012e-05 -1.2897e-22)
(1.02144 0.00962967 0)
(1.0118 0.000301675 0)
(1.02829 0.0709396 3.43299e-23)
(0.944639 -0.109673 0)
(0.921914 0.130522 -7.14862e-21)
(0.929385 -0.0952415 0)
(0.888782 -0.061458 1.75746e-21)
(1.04428 0.0130046 0)
(0.89983 -0.0573854 -2.15415e-21)
(1.01061 0.00380847 -1.7338e-23)
(1.01058 0.00377587 -3.67396e-22)
(0.689235 0.233275 5.66168e-21)
(1.00731 -0.000392942 -3.0917e-23)
(1.03113 0.0302027 4.80881e-21)
(0.724068 0.20634 1.60174e-20)
(1.02251 0.00154331 -7.75086e-21)
(1.01208 0.00966233 0)
(0.239818 -0.0788499 0)
(1.00315 8.36926e-05 -7.29654e-23)
(1.06537 0.0349848 0)
(0.857785 0.0934739 3.92254e-22)
(1.08048 0.0305439 3.33776e-21)
(1.05339 0.0311986 8.24673e-21)
(1.01092 0.00401284 4.42705e-22)
(0.850094 0.18861 -1.11201e-20)
(1.04847 0.011536 0)
(1.08168 0.0118589 2.10153e-22)
(1.00906 0.000306174 -1.74248e-22)
(1.00904 0.0236492 0)
(1.01026 -0.000859495 0)
(0.685351 0.133042 4.56055e-22)
(1.06125 0.0338984 0)
(1.06044 0.0204025 0)
(1.01998 -0.000925433 0)
(1.01006 0.0564739 9.29657e-22)
(1.07641 -0.00847601 0)
(1.03192 0.00995014 6.40885e-21)
(1.00926 0.000378456 -1.81034e-22)
(1.00859 0.0289088 2.5312e-22)
(1.01987 -0.000687503 0)
(0.902086 0.245086 3.55128e-21)
(1.03204 0.0106266 -2.95148e-21)
(1.00781 -0.000567622 -3.02833e-23)
(1.01243 0.00843614 1.75426e-22)
(1.06389 0.0838731 -2.25371e-22)
(0.846817 -0.239607 5.79471e-21)
(1.06622 0.0315839 4.80009e-21)
(1.05195 -0.014189 5.32052e-21)
(0.944205 -0.103341 4.04625e-23)
(1.07699 0.0336419 -2.07107e-21)
(1.00266 -5.5757e-05 -3.74619e-22)
(0.909125 -0.0703776 1.75671e-23)
(1.0291 0.0161748 -7.88599e-22)
(0.202722 0.152198 -4.42603e-23)
(1.00901 0.000308021 1.7097e-22)
(1.01234 0.00828883 9.25605e-23)
(1.00741 0.0206815 -1.3863e-21)
(1.03521 0.0482725 5.10156e-21)
(0.0924234 0.078424 -6.64537e-21)
(1.01966 0.0367127 -1.49752e-21)
(1.01042 -0.000873072 0)
(1.04695 0.0392774 0)
(0.697568 -0.0813108 -6.47441e-22)
(1.01147 0.000775647 1.75022e-21)
(1.02436 0.0190617 -8.93227e-22)
(1.00955 -0.000753644 1.36986e-22)
(1.03742 0.00795079 0)
(1.01064 -0.00079695 -4.68847e-22)
(0.950296 0.0982776 5.03181e-21)
(1.00695 -0.00028013 1.0596e-24)
(1.00588 0.0513362 1.03927e-21)
(1.00916 0.00220222 3.16773e-22)
(1.02211 0.00161567 8.06217e-21)
(1.06641 0.0348811 0)
(1.03235 0.0311792 -3.69048e-21)
(1.01162 0.00516205 0)
(1.03984 0.0132597 0)
(1.01332 0.000586145 0)
(1.01675 0.010139 -5.47862e-23)
(1.01194 0.00569447 -2.57121e-22)
(1.00788 -0.000486773 -1.26352e-23)
(-0.00276808 0.255732 0)
(1.01088 -0.000146555 -3.10446e-22)
(0.679348 0.103199 9.36544e-24)
(0.923986 -0.0295325 0)
(1.01492 0.00209203 -2.19963e-21)
(1.01582 0.0104184 5.20266e-22)
(1.01001 0.00282607 -8.24221e-22)
(0.922818 -0.070724 1.64624e-21)
(1.0087 0.00128907 0)
(0.311393 -0.0580334 0)
(1.01217 -0.00194787 -7.63068e-23)
(1.00143 -1.45958e-05 5.37773e-22)
(0.913917 -0.0338691 0)
(1.01108 -0.000120484 5.60676e-22)
(1.00991 0.00284282 -4.55266e-22)
(1.01408 -0.065435 4.12147e-21)
(1.01243 -0.00139718 1.43635e-22)
(1.00993 0.00334254 5.76016e-22)
(1.00955 -0.000452743 -3.0768e-22)
(1.0242 -0.0421005 -2.44942e-22)
(1.01183 -0.00122445 5.83855e-22)
(1.01677 0.0101305 3.49512e-23)
(0.582503 -0.257834 6.98891e-21)
(1.01161 -0.00126782 -6.29015e-22)
(1.05204 0.0345153 0)
(0.0455385 0.324815 -3.92823e-20)
(1.00609 0.000371246 0)
(0.842758 -0.0465587 -4.32646e-21)
(0.962955 -0.127011 0)
(0.827146 0.0707279 6.60497e-21)
(1.03753 0.0979821 -2.70798e-20)
(0.99934 0.197513 0)
(1.01044 0.00135207 -8.6108e-22)
(1.01958 0.0660987 0)
(0.896682 0.248727 0)
(0.975959 0.115842 -8.77531e-21)
(0.971528 -0.140813 1.70096e-22)
(1.03145 0.00523705 -2.78189e-21)
(0.896479 0.176178 -1.56925e-22)
(0.868871 -0.285475 0)
(1.0099 -0.000429925 6.19598e-22)
(1.02071 -0.0765655 0)
(1.00766 -0.000528466 -4.00682e-23)
(0.996343 0.014538 0)
(0.327335 0.247719 4.8962e-20)
(1.05144 0.0303707 7.33232e-21)
(0.917476 -0.10594 0)
(0.994437 0.0136607 -9.10082e-22)
(1.00797 -0.000487212 -3.07474e-24)
(0.837446 -0.0877017 -1.96709e-21)
(1.00669 0.000464901 2.15175e-22)
(1.00238 2.00416e-05 0)
(0.75233 -0.0857419 0)
(1.03759 0.0420957 1.05854e-22)
(1.00975 -0.00043368 0)
(0.902109 -0.103243 4.84549e-22)
(1.01536 0.00749341 -2.07237e-21)
(1.01072 0.0022999 0)
(1.01312 -0.00167037 0)
(1.0097 -0.000433071 -3.04251e-22)
(1.01665 0.0102544 1.68699e-23)
(1.01016 0.00283402 4.54105e-22)
(0.821033 0.0550734 -6.32e-21)
(1.01238 -0.00205183 -9.81768e-24)
(1.01215 0.0078002 -1.75321e-22)
(0.896723 0.204414 1.46438e-22)
(1.00781 0.0289213 1.73671e-22)
(1.00198 -1.7887e-05 2.76018e-22)
(0.891369 0.168286 0)
(1.01015 0.00281976 -4.06929e-23)
(1.01531 0.014604 -8.19544e-22)
(1.00596 0.000358818 -2.06644e-22)
(1.00639 -0.000195849 -1.94051e-23)
(1.0111 0.00400658 -3.04856e-23)
(0.894293 -0.0719448 6.40264e-22)
(0.81324 0.0434885 0)
(1.05509 0.0381988 -6.55851e-22)
(1.01381 0.0613076 -9.27541e-22)
(1.0121 0.00769324 -1.33817e-23)
(0.849826 -0.173232 2.73856e-21)
(1.00887 -0.000757253 7.0805e-23)
(0.0849629 0.110166 0)
(1.00212 1.59971e-05 0)
(0.0431047 0.229975 -2.25507e-20)
(1.0069 0.00017236 2.87076e-22)
(0.366807 -0.0599161 1.70565e-20)
(1.01786 0.000979922 -3.08027e-21)
(1.00916 0.00775429 1.69992e-22)
(1.04531 0.239378 -6.01048e-21)
(1.00995 -0.000420373 6.42154e-22)
(1.05448 0.0443748 5.21308e-21)
(1.01067 -0.00117409 3.73805e-23)
(0.870445 -0.236032 -5.41363e-21)
(1.01275 -0.00198615 -6.45388e-22)
(1.00846 0.00133972 -1.20037e-21)
(1.00135 -2.88248e-05 0)
(1.02633 0.0106446 -1.87297e-21)
(0.883568 0.160156 2.98801e-21)
(0.871643 -0.267121 5.38392e-21)
(0.63699 0.197256 -6.27523e-21)
(1.0292 0.0310494 0)
(1.06272 0.0891044 2.33723e-22)
(1.01578 0.0104973 0)
(0.632088 -0.22717 -6.81815e-21)
(0.891162 0.186082 0)
(1.04939 0.0190766 -1.34512e-20)
(0.0527527 0.254771 0)
(0.811889 0.0321091 5.63021e-22)
(1.08784 -0.0174706 0)
(1.01138 0.0181375 8.71634e-23)
(1.00987 -0.0405797 3.0038e-21)
(0.841727 0.0741308 0)
(1.00735 0.00193803 -6.39727e-22)
(1.04978 0.0180547 1.46667e-20)
(0.402382 -0.310589 2.82937e-21)
(1.0211 0.0091921 4.54126e-21)
(0.591183 -0.212275 -5.45541e-23)
(1.0105 0.0039241 2.32156e-22)
(0.059197 0.228816 0)
(1.01091 0.00392387 -3.94175e-22)
(1.04235 0.0145882 0)
(1.01261 0.00869342 0)
(1.00891 0.00199605 3.18206e-22)
(1.01827 0.000159195 2.84122e-21)
(0.829419 0.180438 8.89643e-21)
(1.00946 0.00261433 9.92287e-22)
(1.00101 9.00081e-06 6.12576e-23)
(1.0106 0.00399029 2.29373e-22)
(1.01527 0.00711479 2.27125e-21)
(1.05106 0.0291236 0)
(1.01253 -0.00283216 -2.72047e-22)
(0.893271 0.0352978 3.59166e-21)
(1.09211 -0.00820118 0)
(1.0231 0.0023922 -2.99272e-21)
(1.06248 0.0348159 4.19982e-21)
(1.02427 0.0184124 8.71205e-22)
(1.01029 0.00214765 -1.27565e-21)
(1.00076 -1.39318e-05 9.07187e-23)
(0.970283 0.0620781 3.54834e-21)
(1.01603 0.0190666 0)
(1.0104 0.00382677 0)
(0.281925 -0.242003 -1.04108e-21)
(1.01521 0.0186968 -5.25954e-22)
(1.00309 -0.0464552 -6.53498e-21)
(0.926889 0.122223 -2.14014e-21)
(1.03532 0.00825362 -1.10415e-20)
(1.0121 -0.00146756 0)
(0.896594 0.173213 0)
(1.0253 -0.0267786 0)
(1.00949 -0.000444357 6.54927e-22)
(1.03247 0.00979861 -3.90323e-22)
(1.01323 0.00082367 4.56263e-22)
(1.00353 -5.45073e-05 0)
(1.01148 0.0176823 3.64165e-23)
(1.00558 0.019561 -8.11779e-24)
(0.827984 0.0743154 0)
(1.01295 0.000746232 -4.64096e-22)
(0.795387 0.350292 4.71963e-21)
(1.02575 0.0106313 5.22246e-21)
(0.0172446 0.175546 0)
(1.01178 0.0252059 -4.58442e-22)
(1.01402 0.00143568 1.12294e-21)
(0.475792 0.242765 6.15409e-20)
(0.58258 -0.121157 -2.33727e-20)
(0.870748 -0.287386 9.13799e-21)
(1.01032 0.000680128 0)
(1.02655 -0.0651399 0)
(1.00784 0.0570663 3.70202e-22)
(0.873194 -0.10786 -2.39491e-21)
(0.980016 0.0566178 -2.62792e-21)
(1.00779 -0.000571105 -2.95129e-22)
(1.02528 0.0124513 -7.76261e-21)
(1.01108 0.00406222 0)
(1.00951 -0.000506837 5.00059e-22)
(1.04191 0.257653 2.75529e-21)
(1.00988 0.17025 -5.14012e-20)
(0.839271 0.121934 -7.32728e-21)
(1.01947 0.00112847 -2.0688e-21)
(1.0254 0.0121004 3.79452e-21)
(1.04163 0.0134852 9.01923e-21)
(1.0153 0.00115602 0)
(1.04047 0.0101435 0)
(1.00933 0.00259314 -2.94349e-22)
(1.01629 0.000237335 3.6531e-21)
(1.0155 -0.0367218 0)
(1.04946 0.0194328 1.53604e-20)
(1.009 0.00214985 -3.1752e-22)
(1.00927 -0.000449338 -3.22239e-22)
(1.00667 0.000695921 -2.20432e-22)
(1.00083 -7.74708e-06 2.28949e-22)
(1.00196 6.89277e-05 7.34009e-24)
(1.00913 -0.00070088 -2.44692e-22)
(1.02036 0.276162 0)
(1.00338 0.0477961 -1.03497e-21)
(1.01605 0.0108432 3.64723e-22)
(1.01795 0.00699603 -5.58489e-22)
(1.0149 0.00126059 0)
(1.0119 0.00552149 0)
(1.04722 0.0450355 0)
(0.128373 0.303954 -8.3034e-20)
(1.01772 0.00109053 1.20606e-23)
(1.00596 -0.000136627 4.40718e-22)
(1.03188 0.00500311 0)
(0.103952 0.310659 1.09082e-20)
(1.0111 0.00367705 8.98472e-23)
(1.01924 0.00114351 0)
(1.04105 0.00898757 1.38928e-20)
(1.00864 0.0012777 -2.12534e-22)
(1.05006 0.0184038 -1.5608e-20)
(1.00363 1.70604e-05 0)
(0.571402 -0.197103 -3.7638e-21)
(1.00252 -5.77559e-05 3.9378e-22)
(1.01256 -0.00233538 0)
(1.00675 0.000705932 7.14424e-23)
(1.0063 -0.000203514 0)
(1.01268 -0.00247283 8.36052e-24)
(1.04269 0.0212467 0)
(0.342182 -0.270981 -3.3395e-20)
(1.02187 0.000862946 0)
(1.00734 -0.000386466 -2.72356e-23)
(1.00448 4.3336e-05 -1.2224e-22)
(1.01833 0.000302876 0)
(1.01072 -0.00124302 -4.437e-23)
(1.0081 0.00978349 1.08731e-21)
(0.989126 0.19536 0)
(1.0111 0.00360296 -9.22177e-23)
(1.02863 0.03053 0)
(1.00142 -1.54625e-05 -3.77217e-22)
(1.04201 0.00846137 -5.81505e-21)
(1.01389 0.00819321 -6.48166e-22)
(1.04673 0.0386072 3.12302e-21)
(1.00664 0.000429624 -3.18381e-23)
(1.05332 0.0315352 -3.46064e-23)
(1.01051 0.00392749 2.7078e-22)
(1.00395 -4.8231e-05 7.11964e-24)
(0.889998 0.118658 -7.23842e-22)
(1.07396 0.0311069 -2.44534e-22)
(1.00453 -9.36469e-05 2.47038e-23)
(1.00085 0.0438058 -1.14387e-21)
(1.00599 0.202938 3.64986e-20)
(0.891374 0.22149 -7.50929e-21)
(0.204855 0.0601702 9.04542e-22)
(1.06224 0.0350776 0)
(1.01129 -0.00107751 5.71076e-22)
(0.248642 0.0611327 -1.04328e-21)
(1.00655 0.208297 -8.52092e-20)
(1.0111 -0.00111216 -3.70748e-22)
(1.01157 0.000257679 0)
(1.05868 -0.0436017 0)
(1.07634 0.0381434 9.34669e-23)
(0.209636 0.127343 1.43312e-20)
(0.985214 0.125743 1.29603e-20)
(1.01089 0.00315811 5.73807e-22)
(0.260274 0.205758 3.55412e-20)
(1.02845 0.00830169 -1.8684e-21)
(1.00291 9.48564e-05 -6.0317e-23)
(1.01017 -0.000872018 -3.06755e-22)
(1.00712 0.000172148 8.8611e-22)
(0.731792 -0.0670124 -2.68334e-21)
(1.01574 0.000237824 -3.80596e-21)
(0.905582 -0.0914779 0)
(1.00862 0.0122567 -1.10304e-21)
(1.02031 0.00333054 0)
(0.240144 -0.201605 0)
(0.867449 -0.124558 3.98132e-21)
(0.903354 0.105127 2.00085e-21)
(0.17776 0.140391 -1.7079e-21)
(1.1 0.11096 -6.66648e-21)
(1.00524 -0.000120617 0)
(1.00486 -0.000111971 -1.97357e-23)
(0.810227 -0.218438 -2.29697e-21)
(1.05524 0.0394662 6.32142e-21)
(0.817437 -0.244671 -1.59792e-21)
(1.02536 0.0208026 4.07567e-22)
(1.06108 0.0207928 -2.87064e-20)
(1.01269 0.00672909 -2.666e-22)
(1.04675 -0.079826 -1.51533e-21)
(1.01837 0.0117028 3.19684e-22)
(1.07266 0.0393083 0)
(1.02912 0.00848281 -1.11621e-21)
(1.02678 0.0110745 0)
(1.0063 -0.000200713 3.0142e-23)
(1.00925 0.00234405 0)
(1.01127 -0.000119012 5.63391e-22)
(1.01159 0.0032461 3.9443e-22)
(1.00621 -0.000185724 0)
(0.854291 -0.154891 2.52756e-21)
(1.01545 0.00736126 1.65848e-21)
(1.00832 0.000717936 2.25053e-22)
(0.904622 0.161514 -1.20296e-21)
(1.0463 0.074473 -1.78154e-20)
(1.00029 0.189166 -2.68038e-20)
(1.03553 0.00904075 7.53325e-21)
(1.07338 0.0209634 -2.38674e-23)
(0.911614 -0.214331 0)
(1.01068 0.00627538 -4.38694e-22)
(1.01532 0.000407597 2.57929e-21)
(0.951603 0.0842276 0)
(0.00107601 0.236872 -1.15917e-20)
(0.649846 0.233053 -2.20885e-20)
(1.03521 -0.10566 1.0975e-21)
(1.00588 0.000184539 -1.02944e-22)
(1.04132 0.00998962 0)
(1.01748 0.00954756 1.92653e-21)
(1.09074 0.087211 0)
(1.00933 -0.000700716 -3.60955e-22)
(1.03355 0.00137897 -1.39586e-21)
(1.00857 0.000239637 0)
(1.00628 -0.000202716 -8.06649e-23)
(1.00701 -0.000282325 5.50494e-23)
(1.0067 -0.000241037 0)
(0.00350264 0.257961 -4.78293e-20)
(0.83975 -0.231652 -1.30997e-20)
(1.05188 0.0488838 0)
(0.912314 0.222608 1.01092e-20)
(0.746312 0.0513371 -1.53976e-21)
(1.02271 0.00196668 4.7976e-21)
(1.03482 -0.0312745 -1.33934e-21)
(1.02251 0.00207202 0)
(1.00955 -0.000795417 2.74596e-22)
(0.989256 0.0719077 1.46319e-22)
(0.529293 -0.381768 1.20165e-20)
(1.01754 0.00293514 0)
(1.00953 0.035045 -3.66376e-22)
(1.01483 0.00158512 2.2979e-21)
(1.00973 -0.000819593 0)
(1.01756 0.00307083 -1.97102e-21)
(0.128249 -0.0493195 0)
(1.0076 0.000430286 0)
(1.00214 0.00010027 6.47431e-23)
(1.00583 0.000194016 -2.93245e-22)
(0.45145 0.247076 -1.24508e-20)
(0.957953 -0.0939411 3.00132e-22)
(0.125533 0.0736459 1.47779e-21)
(1.00743 0.0191385 -1.09704e-21)
(1.0204 0.00355472 1.29183e-21)
(1.0015 -3.64457e-05 5.88498e-22)
(0.914953 0.085156 1.50347e-21)
(1.04603 -0.0329599 8.24407e-22)
(1.01728 0.00950906 1.56744e-21)
(1.00979 0.000520916 0)
(1.00613 -0.000184435 3.08311e-23)
(1.00684 0.000778438 -3.11349e-24)
(1.03765 0.0392495 0)
(1.00212 9.55124e-05 -9.00804e-23)
(1.0064 0.0101579 -8.01183e-22)
(1.04314 0.0721503 1.83338e-20)
(1.00693 0.000789219 7.65608e-23)
(0.991039 0.120028 -9.7373e-21)
(1.01348 0.000899778 -4.66535e-22)
(0.991356 0.0113747 5.40123e-22)
(1.01384 0.00820867 6.52258e-22)
(1.00966 0.00043779 -5.02334e-23)
(1.01296 -0.00264057 -2.76861e-22)
(1.00685 0.000746211 -1.03601e-22)
(1.00981 0.00321034 -3.73325e-22)
(1.05371 -0.0147372 9.25763e-22)
(1.04711 0.0391051 2.0136e-22)
(0.893409 0.0383601 -3.5825e-21)
(1.01162 -0.000777759 -5.6222e-22)
(0.999342 0.066393 -5.2052e-22)
(1.01188 -0.000669082 -5.42894e-22)
(1.05285 -0.0143806 -1.33153e-21)
(0.893799 -0.284121 7.34603e-21)
(1.00621 -0.000185718 0)
(1.00683 0.000757155 -7.42484e-23)
(1.01329 0.000928839 0)
(0.136204 0.194305 -1.84962e-20)
(1.01298 0.00686265 7.23683e-22)
(1.04949 0.0298064 -7.25443e-21)
(1.0069 0.00079785 1.52901e-22)
(0.962209 0.0439417 0)
(0.841525 -0.260054 1.50765e-20)
(1.00849 0.000768962 -3.04194e-22)
(0.775156 0.20005 -1.50227e-20)
(1.01412 -0.0042831 1.24955e-22)
(1.04255 0.264365 0)
(0.0663176 0.322007 2.28774e-20)
(1.06359 0.0349145 0)
(1.00599 0.000224039 1.01172e-22)
(1.01492 0.0177463 0)
(1.01153 0.00493996 0)
(0.992576 0.010386 0)
(1.00006 0.0209698 -9.02071e-22)
(1.04078 0.0145609 0)
(0.879918 0.227431 -3.61308e-21)
(1.00662 0.018751 0)
(1.05295 0.016044 0)
(1.02056 -0.0742057 1.32857e-22)
(1.01053 0.0100618 3.43598e-22)
(0.998383 0.0180777 0)
(1.0195 0.00057212 0)
(1.0464 0.00967655 1.17152e-22)
(1.08601 0.0811876 -1.33241e-21)
(0.838721 -0.13012 -4.3709e-21)
(1.01054 0.00217563 4.61357e-22)
(1.01425 0.0176006 0)
(0.904772 0.127016 5.59273e-21)
(1.0155 0.00783849 1.11248e-21)
(1.01274 0.00153682 0)
(1.02763 0.0294258 -3.80202e-21)
(1.01646 0.00871297 -3.73811e-21)
(0.908233 0.0507548 -4.22703e-21)
(1.01744 0.0167984 7.25804e-22)
(0.999684 0.210773 5.3972e-20)
(0.956915 -0.0859874 -6.51291e-21)
(0.898851 -0.160259 1.1131e-22)
(1.00691 0.00080862 0)
(1.04829 -0.014068 4.65381e-22)
(1.00996 0.0033172 3.31746e-22)
(1.01948 0.000852918 0)
(1.00935 -0.000754925 0)
(0.855562 -0.14566 0)
(1.01597 0.00264255 0)
(1.01029 0.0026268 6.36828e-22)
(1.01317 0.000385456 0)
(1.00666 0.000471356 7.02296e-22)
(0.892945 -0.0866178 3.27181e-21)
(1.05176 0.016973 1.41392e-20)
(1.05311 0.0462446 -5.32568e-22)
(1.00597 0.000213689 1.01989e-22)
(1.00682 -0.000264608 -6.37619e-22)
(1.00402 -7.74128e-05 0)
(0.875324 -0.0482229 -2.34268e-21)
(1.00555 0.125892 0)
(1.021 0.00112104 -2.46936e-21)
(1.00241 -4.11758e-05 -3.58664e-23)
(0.872911 -0.127964 0)
(1.05138 -0.019957 2.09667e-22)
(0.891033 0.271904 0)
(1.0116 0.00871693 -3.0583e-22)
(0.595987 -0.406133 -2.07548e-20)
(1.02876 0.0169545 0)
(1.00078 0.138451 2.40845e-21)
(0.657598 0.139839 0)
(1.00603 0.000416473 -9.57211e-22)
(1.00674 -0.000238058 0)
(0.101828 0.18959 -6.35264e-20)
(1.02211 0.00873389 1.37716e-22)
(1.00909 -0.000830856 0)
(0.42158 0.243688 9.34063e-22)
(0.10885 0.13658 0)
(1.03381 0.0263432 0)
(1.0457 0.0216827 -1.65239e-20)
(1.04906 0.0284948 6.87836e-21)
(1.01027 0.00253974 0)
(1.05268 0.0287955 -5.45422e-21)
(0.834537 0.0850077 2.34718e-21)
(0.884078 -0.0713358 0)
(1.01266 0.00668653 6.52611e-22)
(1.0294 0.0731695 -3.34353e-22)
(0.957403 -0.083114 -1.89263e-22)
(1.00545 -8.05341e-05 0)
(0.643109 0.0909755 -2.41929e-20)
(1.01055 -3.51617e-05 1.55033e-21)
(1.00617 0.000315837 4.18767e-22)
(0.873822 -0.465254 1.34694e-20)
(1.01969 0.000510396 -2.71129e-21)
(0.679514 0.233245 2.30392e-20)
(1.0163 0.00843793 0)
(1.01429 0.00181829 3.3163e-21)
(1.01576 0.00273946 -1.67705e-21)
(1.00695 0.000396189 -1.71145e-22)
(0.865933 0.321096 -3.8086e-21)
(0.716319 -0.100833 0)
(1.03626 0.00413467 -7.64214e-21)
(-0.0035089 0.243617 0)
(1.00848 0.00121815 0)
(1.00949 0.00045486 3.23058e-22)
(1.04 0.0113534 -8.28135e-21)
(1.03146 0.0731585 0)
(1.0219 0.0012906 -5.34744e-21)
(0.844128 -0.08694 0)
(-0.00236972 0.234472 1.42128e-20)
(1.01684 0.000192114 0)
(1.01205 0.00446972 1.72961e-22)
(1.01208 0.00580156 3.88361e-22)
(0.592784 -0.14662 -1.49276e-20)
(1.05295 0.0461224 -2.13367e-21)
(0.876555 0.140353 -1.17215e-21)
(0.85004 -0.174306 -2.7112e-21)
(1.0165 0.012226 -5.30367e-22)
(1.04838 0.0205334 1.27149e-20)
(0.15129 0.161447 1.09905e-19)
(0.661219 0.23338 0)
(1.01679 0.000147138 0)
(0.903603 0.166368 0)
(1.05187 0.0481634 2.27409e-21)
(1.01169 0.000519268 0)
(1.00908 0.0255896 -5.77768e-22)
(1.04835 0.0209964 -1.25702e-20)
(1.00197 -3.93375e-05 2.63403e-22)
(1.05034 0.0440138 6.45579e-21)
(1.03958 0.0126481 0)
(1.01161 0.000484939 5.26022e-22)
(1.00263 4.86827e-05 -1.41446e-22)
(0.900189 0.10958 -2.69119e-22)
(1.01945 -0.00915576 -7.82631e-21)
(0.722263 0.0935668 1.20503e-21)
(0.644221 0.140168 1.55874e-20)
(1.05529 0.03226 9.77988e-21)
(0.963419 0.0497899 0)
(1.00427 -9.1056e-05 2.07213e-22)
(0.899996 -0.193867 -5.61662e-21)
(0.890748 0.144957 7.92853e-22)
(1.05337 0.042384 -5.0797e-21)
(1.00423 0.000194581 -2.35171e-23)
(1.00834 0.00112428 2.72966e-22)
(1.0104 0.109836 -2.09399e-23)
(0.888124 0.148133 -4.05045e-21)
(1.01262 -0.00101778 2.54001e-22)
(1.0088 0.0258555 0)
(0.824358 -0.0475601 0)
(1.01481 0.00926874 0)
(0.714962 -0.0483547 -1.70658e-20)
(1.00605 -0.000141726 0)
(0.89284 0.259212 -3.58668e-21)
(0.888517 -0.276095 7.78941e-21)
(1.00599 -0.00011986 -7.81504e-23)
(1.01032 0.000734945 9.0667e-22)
(1.01685 0.00745579 5.32188e-22)
(1.02384 0.00481615 0)
(1.01445 0.00341951 0)
(1.01037 0.00182244 0)
(1.00834 0.000216564 0)
(1.00729 0.000419366 0)
(0.905147 -0.00329768 1.70738e-21)
(1.0093 -0.000746589 2.61138e-22)
(1.00423 3.9488e-05 1.21814e-22)
(1.00383 -8.39603e-05 -2.34614e-22)
(1.02071 0.0121692 -1.35303e-22)
(0.618756 -0.335596 5.82321e-20)
(1.01327 0.00765051 2.83339e-22)
(1.00347 -5.31669e-05 0)
(1.02932 0.0144565 -1.18149e-21)
(1.00819 0.00113467 0)
(0.0195606 0.217477 0)
(1.01818 -0.0322746 0)
(0.88178 -0.27888 2.08393e-21)
(1.00781 -0.000573945 1.81064e-22)
(1.04073 0.0110569 9.02026e-21)
(1.00808 0.13407 1.86667e-21)
(1.00849 0.00192488 2.23942e-22)
(1.0502 0.0371318 1.04943e-21)
(1.01183 0.00544963 4.60388e-22)
(1.02313 0.00189649 -4.89976e-21)
(1.027 0.0286167 -1.88888e-21)
(1.00323 1.8943e-05 -2.64713e-22)
(1.04672 0.0232562 4.44868e-21)
(0.844774 -0.0340003 0)
(0.987903 -0.00425872 -1.2572e-21)
(1.00873 -0.0005923 2.43965e-22)
(1.00827 0.00110508 -2.61926e-22)
(1.02523 0.0103316 -1.71275e-21)
(1.0259 0.0277757 1.90335e-21)
(1.0071 -0.0466348 0)
(0.997438 -0.0174452 -1.04269e-21)
(1.01422 0.00335765 2.67929e-21)
(1.00847 0.000189656 0)
(1.00534 -8.49292e-05 6.1607e-22)
(1.01631 0.0122038 0)
(1.01665 0.0102916 0)
(1.03712 0.00712387 4.01005e-21)
(1.04027 0.0121649 4.50888e-21)
(0.895007 -0.249732 0)
(1.00847 0.000647871 -9.79605e-22)
(1.03679 0.00815992 0)
(0.779902 -0.0493375 4.14819e-21)
(0.618444 -0.310809 -3.84408e-20)
(0.285163 0.220879 -2.34692e-21)
(0.733515 0.110085 0)
(0.599085 -0.396349 -1.10246e-20)
(1.0221 0.00118789 0)
(1.0174 0.10801 0)
(1.00957 -0.000792983 0)
(1.00479 -1.71584e-05 -3.20388e-22)
(1.01683 0.00886268 1.31401e-21)
(1.0074 0.000395086 1.82683e-22)
(1.06071 0.0173372 0)
(1.01142 -0.00149711 2.20414e-23)
(1.06451 0.181701 -2.6717e-22)
(1.01331 0.000618563 1.14998e-21)
(1.014 -0.008575 7.29884e-22)
(1.00891 -0.000586435 -3.19574e-22)
(1.0152 0.00838977 -5.2275e-22)
(1.06909 0.0400807 0)
(1.0141 0.0164909 1.36049e-21)
(0.569854 -0.300417 -3.93292e-21)
(0.727838 0.330134 -8.97014e-21)
(0.99599 -0.0022085 -4.666e-22)
(1.01135 0.00455189 0)
(1.0142 -0.00143983 -2.75497e-22)
(0.573971 -0.16065 5.04766e-21)
(1.00962 0.0026427 4.74338e-22)
(0.696339 0.190719 -1.63047e-21)
(1.00605 -0.000143096 0)
(1.07998 0.00276406 -3.8358e-22)
(1.00701 -0.0358414 2.49043e-22)
(1.01502 -0.00919524 -7.19374e-22)
(1.05999 0.036575 1.91958e-21)
(1.04737 0.181479 0)
(0.92058 -0.137384 -1.98725e-22)
(1.01084 0.00072019 -5.12204e-22)
(0.873617 -0.105952 -3.47982e-21)
(0.997304 -0.00608044 2.40995e-21)
(0.172859 0.174289 -1.11544e-19)
(0.186058 0.116174 0)
(1.01218 -0.0013587 5.34229e-22)
(1.11956 -0.0378985 1.15497e-21)
(1.01062 0.00281622 4.93874e-23)
(1.00841 0.00120607 0)
(1.0255 0.00223313 1.90366e-21)
(1.01355 0.00168019 3.12772e-21)
(1.00866 0.000280875 5.29793e-23)
(1.01158 -0.00150087 1.03141e-24)
(0.87373 0.313772 3.13604e-21)
(1.01427 0.000552392 0)
(1.03011 0.032171 0)
(1.01143 -0.000240496 0)
(1.03209 -0.0681413 -1.25914e-22)
(1.02347 0.00170974 -1.70036e-21)
(0.739725 0.195693 0)
(1.04485 0.0210602 1.6442e-20)
(1.01608 -0.00344431 -9.20924e-22)
(1.0107 0.00272428 7.18931e-23)
(1.01072 0.00268564 6.03229e-22)
(1.01027 0.00090007 0)
(1.00925 -0.00084413 0)
(1.01508 0.00813111 4.95937e-22)
(1.01122 0.000212706 0)
(1.05089 0.0358551 -7.03821e-21)
(1.01131 -0.000296682 0)
(1.05146 0.0218002 0)
(1.00516 0.345674 5.78633e-21)
(1.01908 0.00422685 0)
(0.979063 0.118096 3.5523e-22)
(1.04915 0.037742 7.18213e-21)
(1.00665 -0.000227873 1.89946e-23)
(1.03906 0.0169268 4.05832e-23)
(1.01696 0.0140729 1.62801e-21)
(1.01007 0.00346571 1.34124e-22)
(0.884061 0.23783 -1.32886e-23)
(0.889427 0.236929 4.95567e-21)
(1.04921 0.0361447 -2.84771e-21)
(0.230099 0.233608 0)
(1.005 0.000131684 0)
(0.999268 0.042285 2.62418e-21)
(1.01071 0.0025297 1.81785e-21)
(1.02405 0.00435787 -3.14467e-21)
(1.01589 0.0105562 -3.62097e-22)
(1.018 0.00245297 9.56154e-22)
(1.02446 0.0196518 0)
(1.01465 0.00909367 0)
(1.05258 0.0327129 4.45555e-22)
(1.03895 0.0142092 -4.03245e-21)
(1.01027 0.000902485 4.45108e-22)
(1.02238 -0.0275413 2.01063e-21)
(1.02848 0.0149142 4.05732e-21)
(1.00296 1.76691e-05 -1.56811e-22)
(0.998955 0.0185312 0)
(0.734334 0.232471 2.08863e-20)
(1.00685 0.000175637 -5.79896e-22)
(1.0159 -0.00200263 3.01256e-22)
(0.989162 -0.0169571 0)
(1.05144 0.041548 -4.53466e-22)
(1.00191 -2.47826e-05 4.73293e-22)
(1.00275 2.1006e-05 -1.44725e-22)
(0.9852 0.0308615 -1.62102e-21)
(1.00437 9.67602e-05 0)
(0.978336 0.107083 3.54166e-22)
(1.01639 0.0141637 -5.8742e-22)
(0.259314 -0.223375 0)
(1.018 0.000322013 0)
(1.01182 0.00436949 0)
(1.01432 0.000551227 1.96112e-22)
(1.04578 0.0232169 0)
(1.00619 0.000282901 2.26426e-22)
(0.987191 0.0304733 -1.32427e-21)
(0.83725 0.0301472 4.81049e-21)
(1.11044 -0.0459068 0)
(1.0062 0.000357384 1.01633e-22)
(1.02294 -0.0786724 0)
(1.04314 0.010365 -4.18381e-23)
(1.01254 0.00163987 0)
(1.01965 0.000822998 -2.23675e-21)
(1.00945 0.00263609 -1.07443e-21)
(1.01467 -0.00163446 -5.55794e-22)
(0.786459 0.169621 -6.90931e-21)
(1.01656 0.0104117 6.30088e-23)
(0.79913 0.000588099 -5.33692e-22)
(0.967204 0.0316788 -1.15229e-21)
(1.01651 0.000579873 0)
(0.933389 -0.0197294 7.85293e-21)
(0.837707 0.238622 8.69388e-21)
(1.02092 0.00851873 0)
(1.00856 0.000549249 2.34772e-21)
(0.000358318 0.316839 1.11795e-20)
(0.792142 -0.166159 4.4447e-21)
(1.04811 0.0801527 3.017e-22)
(0.87745 0.163348 0)
(1.01129 0.000953243 -4.3144e-22)
(1.03466 0.013513 0)
(1.01105 0.000127737 0)
(1.0057 0.000158222 1.97084e-22)
(0.776671 0.0739179 4.2841e-21)
(1.00856 0.00138014 3.86924e-23)
(0.86988 0.162005 5.2467e-21)
(1.07698 0.0703947 6.38396e-21)
(1.01964 0.00109998 2.44592e-23)