/*--------------------------------*- C++ -*----------------------------------*\
| =========                 |                                                 |
| \\      /  F ield         | OpenFOAM: The Open Source CFD Toolbox           |
|  \\    /   O peration     | Version:  v2012                                 |
|   \\  /    A nd           | Website:  www.openfoam.com                      |
|    \\/     M anipulation  |                                                 |
\*---------------------------------------------------------------------------*/
FoamFile
{
    version     2.0;
    format      ascii;
    class       volScalarField;
    location    "300";
    object      ddt0(omega);
}
// * * * * * * * * * * * * * * * * * * * * * * * * * * * * * * * * * * * * * //

dimensions      [0 0 -2 0 0 0 0];


internalField   nonuniform List<scalar> 
18618
(
-2.17311e-05
-0.170867
-8.99372e-06
-6.97555e-07
-1.01654e-05
0.000123103
1.96995
-0.0677988
-0.0235985
0.000376423
-8.64818e-06
3.32075e-06
-4.93858e-06
-3.11077e-05
-3.06015e-06
8.86695e-06
-7.50776e-06
-3.95429e-05
3.95232e-07
0.251505
-2.90561e-06
0.564198
3.82585e-07
1.16411e-06
-0.812028
-0.0388259
0.0191305
2.27862
0.0808573
-3.13406e-06
-5.10283e-05
5.79824e-05
0.000530524
-9.67677e-07
-0.000184493
-0.486947
5.74196e-06
-0.0535662
-0.105313
5.63961e-07
-0.560566
0.149243
0.196238
0.959357
0.00300209
-5.22115e-05
0.0902228
0.00507081
0.0407345
-0.310341
0.00388814
-0.000168362
-0.0265296
-0.0169958
0.114972
-0.00598188
0.00128044
-0.00151983
-1.26637
-0.0924176
-0.142949
0.284601
0.0224277
2.87695e-07
0.0848234
-0.080201
-0.0517134
-0.00289324
8.43583e-07
-0.686631
0.00602455
7.14307e-07
5.15124e-07
-0.217344
0.201609
0.152158
1.31267e-06
-4.24643e-06
1.08868e-06
-0.049196
-5.35356e-05
-7.23172e-07
6.25293e-06
-0.000327712
0.647622
2.72969e-06
-0.275009
-0.450143
-1.7361
2.37243
4.15618e-06
-0.197707
-0.00205407
1.45412e-06
-0.112454
-0.376513
-6.93266e-05
-0.00334611
-9.19419e-07
0.166054
-0.336801
-0.442555
-5.36626e-05
0.0248777
0.0965119
-0.0142843
-0.806604
-9.68639e-07
-4.96701
1.23207
-0.564536
4.39157e-06
0.0513229
1.46189
3.15836e-06
8.98126e-07
1.11833
-2.01678e-06
-0.0385666
1.11627
6.16535e-05
-0.000520853
0.000107979
2.44111e-05
0.0104189
-0.020452
0.0011867
0.472827
0.125655
-0.00170539
-0.0149355
-0.30118
0.455446
0.00989045
-1.35676e-06
-0.00412402
2.02589e-06
-0.51069
-0.0820078
-1.59016e-05
-0.0653974
0.595501
1.21912e-06
1.27587e-07
-0.000243296
7.84137e-07
9.73509e-07
1.05691e-05
1.01042e-07
-6.95636e-05
-0.268887
-1.77512e-05
0.00305485
-0.000128234
0.00015661
-0.0669389
1.14082
0.00220267
-3.77917e-05
-22.3528
0.00780298
0.00434398
-0.0574672
0.25009
1.31481e-06
-0.00135073
0.000359011
-0.270146
-4.51957e-06
0.00505014
-1.00334e-08
0.00186432
-0.0958001
-0.147722
0.151366
1.0669e-06
-0.540373
8.27911e-05
-5.12779e-07
0.00261926
-0.32694
-0.000161155
0.0101014
2.33584e-07
-3.76623e-07
-0.00135464
0.0719725
0.065468
-0.0464135
-3.10064e-05
1.15382e-06
0.00254497
-0.00372949
-8.37101e-06
1.19697e-06
0.0625983
-1.11944e-05
-0.00015199
-0.0373517
0.00310843
0.0210212
0.00719633
-0.30613
-0.00829029
-0.401397
-0.000699026
-0.0616678
-0.802341
-4.21372e-08
-2.2212e-07
-0.0924562
-0.0435265
-0.000877272
9.00123e-07
-3.19223e-05
-1.90688e-07
0.44661
-0.330385
-0.000211723
-6.08145e-05
-1.17429e-05
0.000185251
-0.269948
-1.18873e-06
-0.626795
-2.21163e-06
-0.000390098
-0.0127365
0.0725345
-0.00457316
-5.78752e-05
-0.00236864
-7.74906e-07
-0.0512694
0.000841783
-1.86455e-07
7.32735e-07
-0.0292099
0.628596
9.42776e-05
-0.143811
-6.91247e-05
1.76478e-06
0.135678
-0.00121046
-0.000712937
0.0915855
-1.67475e-07
-0.58959
-9.97621e-06
1.24073e-06
0.311211
0.00188541
-0.0961359
-0.00149439
0.0032775
-0.0238327
2.07461e-06
-1.02088e-07
-5.19093e-05
2.29666e-06
0.975191
-0.581783
-0.000552325
0.467594
0.0601031
0.0352527
0.00125196
0.0272198
0.000261847
-0.0306324
2.13557e-06
0.00059006
1.22249e-07
-3.56002e-08
-0.000229232
-0.00199259
2.56644e-05
1.73577e-05
-0.250705
2.66129e-07
-0.00146509
-4.36479e-07
-3.10694e-05
-0.0271784
-7.41541e-06
1.55481e-06
-0.0053061
0.00117439
-0.0328484
1.84413e-06
-0.000458275
-8.97543e-07
0.00102845
0.14623
-0.261646
-0.273971
0.0396856
-0.0223626
-0.00015105
0.00264729
1.67039e-07
-0.0026974
-0.000138673
7.85261e-07
-1.34814e-08
-1.76259e-05
0.147294
-0.119402
1.67519
-0.439584
-1.99341e-07
0.278371
-9.35641e-07
6.11157e-07
-1.12763e-05
2.22761e-06
-0.00109445
0.000953074
-0.258996
6.03886e-07
-0.130105
-5.48582e-07
-0.24596
-3.07175e-08
0.0548512
-0.0424273
-1.00901e-05
-0.000112724
-6.59067
0.00898003
-0.12391
-2.03235e-05
7.4848e-07
-0.00235973
1.39699e-06
-0.0270568
-0.00261109
9.48257e-05
0.340658
0.00703047
-0.0055665
0.0521452
0.207144
7.2404e-07
-0.0103584
-0.00146938
-1.85712e-05
0.00705222
5.60394e-07
1.57812e-06
-4.23816e-06
-0.0717572
-5.23948e-07
-8.46288e-08
-1.74379e-07
1.37466e-07
0.00829751
3.94888e-05
0.000322522
-6.77265e-07
-0.0617621
0.0693598
0.00254672
0.0205343
0.565126
6.03394e-07
4.91917e-07
0.00195057
-0.00153755
3.93326e-06
2.33071e-07
0.0011474
-0.00190646
6.09838e-07
-5.7437e-06
-0.106266
1.10207e-05
4.85872e-07
0.00706379
0.160824
4.83193e-08
1.72064e-06
-6.65459e-05
0.00742405
9.03373e-07
-0.00876748
-6.00247
1.98776e-06
-0.000410082
7.23536e-05
7.71521e-07
0.286303
-0.685933
9.06373e-07
0.055927
-0.2169
-0.507605
-1.45909e-07
0.194156
2.27483e-06
-0.0017745
0.00210347
0.793861
5.453e-07
-0.163551
1.33007e-06
-0.000299397
0.00035971
1.88324e-06
-6.05465e-05
1.29485e-08
4.67137e-07
-3.73202e-06
0.0006587
-0.000818443
4.94707e-07
-0.000320392
-0.00209543
-0.000586858
3.15948e-07
-0.106816
0.00141862
0.00476608
1.0221e-06
0.120713
-0.00045438
-0.000277479
-0.00990394
0.043767
5.13034e-07
1.4233e-06
0.000676864
4.78732e-07
2.79257e-06
-0.00210597
1.34257e-06
-1.54152e-06
0.100049
0.059471
0.000450732
0.0451457
-2.07863e-06
0.00525533
-0.0490945
0.00515457
0.000682673
0.281992
-0.0183433
1.30697e-08
-0.00219857
-5.05333e-07
0.00424963
-0.000627059
6.92956e-07
-0.108568
3.12186e-06
6.04154e-05
9.91196e-05
0.110633
0.843061
0.000390131
0.00193519
2.17255e-07
-0.0424585
-0.000203517
5.02275e-07
1.04008e-08
0.313356
1.7146e-06
0.00122975
0.00544988
-0.000251255
-3.03281
0.000981095
-0.000871855
-0.120604
-0.000756454
-0.476223
0.00699579
0.0165228
-2.48744e-05
0.182879
5.35958e-05
0.130251
-6.14094e-06
-0.00673212
7.79148e-05
0.00574909
-0.00240021
0.0382316
0.309874
-2.29442e-06
5.42904e-07
0.152024
0.170011
-0.0737615
0.331662
9.98447e-05
-1.25357e-07
-6.20005e-08
-1.83694e-06
0.0194332
1.5312e-07
0.000525763
-0.0535264
0.000100799
0.00139521
-0.507281
0.0215865
-0.0514329
-9.26574e-07
-0.000620658
-0.000925316
-0.0108486
-2.03729e-07
-4.49451e-05
3.97352e-07
0.0255208
0.0317076
-6.30735e-05
-2.46715e-07
-0.0192419
0.00116646
-2.02067e-05
-1.81368e-07
-0.0401722
1.47805e-07
0.447488
3.39375e-08
0.0875998
0.231719
-9.6084e-05
0.000146776
0.00259303
-9.82009e-09
-0.109125
-1.46035e-08
-1.20104e-06
-0.000125994
0.0052198
-0.000508252
0.00444107
-0.0141776
1.2707e-06
-5.60885e-07
0.125045
-1.13398
1.00819e-06
1.38678e-07
1.1989e-06
0.0290214
-0.0603223
4.09753e-06
0.0457203
1.30385e-06
1.30383
3.82214e-08
-0.036273
0.0041094
-0.0361002
6.20556e-05
0.0282981
0.00245701
-2.9773e-06
0.000556322
0.323039
-3.64327e-06
0.0483856
-1.5502e-05
-1.31596e-07
-0.10835
8.68574e-07
0.0739853
-0.0214084
0.106038
0.702596
-0.0294278
0.159759
4.52518e-06
-0.00770556
0.000665387
-0.00368303
-4.67507e-07
1.8129e-07
4.49647e-06
-4.42287e-07
1.18889e-06
2.07377
-0.0320379
5.25926e-07
-3.51214e-07
-1.04723e-05
3.65992e-06
-1.92872e-05
-0.00725465
0.128251
1.21198
-0.175284
2.47036e-07
1.17221e-07
0.0853931
0.00314472
6.69513e-05
-1.98351e-07
0.00861611
-1.4914e-07
-7.41786e-05
-7.62605e-07
7.30111e-05
-0.0774709
-0.00460747
0.207303
0.0757352
-1.12172
-2.36052e-06
-0.00154239
1
-5.71695e-07
-0.000107855
-2.91335e-05
1.27107e-06
-0.743472
-0.0109364
1.01119e-08
0.00485898
0.000101591
-1.09444e-06
-0.0528478
8.66416e-08
0.00072809
1.58513e-06
0.0732723
-2.55264e-05
0.205871
-0.434992
0.159571
-0.000195941
0.158797
-0.00124881
7.78053e-05
-1.58182e-06
-0.08597
0.0130738
1.48587e-06
0.0495069
-0.00129981
6.45891e-05
-0.000257374
-0.000666573
0.122859
1.02801e-06
1.57524e-06
0.00793434
-9.53314e-05
-0.00103345
3.5006e-07
0.101833
-7.93868e-07
1.52193e-06
-0.895404
-0.037202
-3.98422e-07
-2.64236e-07
-0.00150563
-7.06526e-06
-0.00415869
-2.35851e-07
0.0307592
-0.000155979
-0.0321198
-2.24827e-09
2.75552e-07
9.20881e-06
2.05244e-07
0.269648
0.333397
-0.073306
-0.116278
0.000952724
-1.02888
0.00266792
-0.0010242
-3.21245e-07
1.04423e-06
0.0639909
-0.258532
7.85003e-07
0.00286741
2.45517e-06
-0.0138511
1.55622e-06
1.20118e-06
-3.03127e-06
-0.124291
-0.557522
3.63695e-05
1.15507e-06
8.45257e-07
-0.84525
0.0936774
-0.00482008
-0.00100161
-0.0373189
-5.89339e-05
1.28597e-06
0.00104566
0.153848
-0.00608784
1.11314e-07
3.38406e-07
-7.73697e-07
-0.00141739
0.266097
2.94164
0.0545393
-0.0035477
0.018793
2.79191e-06
-1.11756e-05
0.00204158
2.38914e-07
-0.171161
0.117301
0.0614486
-0.00232139
0.714008
-2.60422e-06
1.6265e-06
-0.00604219
0.0190015
0.0431178
1.0544e-06
0.000130655
2.15475
7.19309e-05
-0.524435
0.051592
1.65574e-06
-9.07629e-07
0.000730672
1.29579e-06
-0.000294476
0.0531188
-0.0712181
-0.442831
0.018836
-0.0301886
0.000602993
0.056149
3.35247e-06
-0.000968607
1.23124e-07
-0.000915543
0.148265
2.34054e-07
-5.94923
2.01366e-06
-9.32638e-05
-0.0289437
0.186931
0.000383642
7.31261e-09
-0.00541278
-2.82237e-06
-0.101028
0.0596358
1.40614e-05
-0.00396781
-0.202887
-1.21772e-07
-0.000836098
0.0073442
5.62422e-07
-3.34789e-06
1.3116e-07
0.0172223
-0.13188
-6.14303e-07
-1.26667e-07
-0.000787225
-0.498047
-2.97921e-07
3.2301e-06
-2.41566
-3.30223e-07
1.37791e-06
-0.00390385
0.0103334
0.0100367
7.24574e-07
1.15458e-06
0.0039845
3.82655e-05
-3.48937e-08
0.210847
0.00408332
-0.031761
0.666514
-0.000260594
8.24734e-06
-0.00401636
1.00108e-05
-0.00268295
0.00585193
2.32515e-06
-0.118329
-0.00573802
0.000390415
0.133523
0.0254398
0.00440547
-0.00176443
0.00164749
-0.00014985
1.1667e-06
-2.51801e-05
7.64405e-07
2.19114e-05
-6.32549e-05
-0.00203682
4.90486e-05
6.33832e-07
1.05628
-0.00198065
0.191882
-0.209189
-0.000409547
-0.0127125
6.52634e-07
-1.7211e-07
2.413e-06
-0.310371
0.677191
5.08812e-05
-1.10682e-05
0.365564
2.28832e-06
1.14995e-09
6.9593e-05
-0.0205687
-4.20488e-05
1.44861
0.00010513
-0.000138465
0.216692
1.2514e-06
2.237e-06
8.68677e-07
-7.59726e-07
1.52575
-0.0614144
-0.636775
3.24222e-06
-0.495347
0.184778
0.378019
0.0930619
0.000986573
-0.0595017
-2.40545e-06
0.00011449
9.96158e-05
-0.00109147
0.138068
1.00283e-05
-0.00132517
-0.000478878
0.0314284
2.36659e-06
8.43019e-06
0.400514
-2.5764e-07
-4.57282e-07
1.08954
-3.27418e-05
0.0045929
-0.822526
-5.35383e-05
-4.9724e-05
-0.000900343
2.30242e-06
-0.000881158
-0.00393524
5.83126e-09
0.0539538
0.606475
0.0772206
0.000206749
-0.0029974
0.0791341
-9.07491e-05
-1.4643e-05
-3.36036e-06
0.152019
-6.86726e-07
-6.96576e-07
8.24735e-05
1.28177e-06
-3.42026e-06
4.08107e-08
3.38675e-07
0.00531675
-4.65027e-07
-5.62768e-06
0.0643376
0.0368285
-1.66563e-05
-1.61926e-06
-1.90366e-07
-7.3508e-06
1.64689e-06
-3.55685e-05
2.48247e-06
3.30056e-06
0.719391
-0.000500515
-0.099078
2.98384e-07
-8.76031e-05
-0.000352874
-0.00013575
-0.000597971
0.000292668
0.0610793
-0.201491
0.153768
8.35704e-07
-1.70521e-06
0.0647271
-0.00660311
0.00603392
-5.63348e-07
-1.57554e-05
1.76379e-05
1.79603e-06
-0.0595742
-0.360959
2.23974e-07
2.6256e-06
0.0487544
-0.292731
-0.00824433
-0.0172485
-0.121699
-0.727415
4.57854e-07
-0.000105678
0.000287248
-0.00202255
0.0246575
-4.76238e-05
-4.68408e-06
-0.104593
0.00431041
6.36214e-06
-3.64516e-08
-1.16686e-05
-1.26239e-07
2.65145e-05
0.179256
-0.00340878
5.56194e-06
-0.000143281
-5.01062e-06
-2.28758e-06
-1.88352e-05
0.0110672
-0.0180451
3.55969e-06
-0.000149227
0.0270746
-0.000456863
3.84144e-07
-2.96497e-07
7.53378e-06
0.0144773
-1.25811e-05
-0.00010128
3.06593e-05
-0.306671
-1.06253e-06
8.86071e-06
0.291595
-0.00198735
-0.00838617
4.75857e-07
0.064702
-4.84176e-08
6.55654e-07
-0.796427
-1.41429e-06
-0.477998
6.72143e-07
0.0377625
0.161549
0.00477389
-0.187688
-0.276909
-0.00295066
0.102763
1.3029e-08
3.93279e-07
5.27175e-07
-0.00470051
-5.15127e-08
-0.00648877
-2.46328e-05
0.236193
-0.00592266
-0.000311659
2.48024e-06
-0.000341058
1.05288e-06
1.56777e-08
2.51652e-05
-1.18687e-09
-0.000221376
0.000640349
3.60433e-06
2.68371e-06
-0.0127695
-1.83958e-06
-0.0025228
3.76796e-06
0.0492132
1.69357e-06
0.636882
0.00525849
-0.0470248
-0.00283213
9.04841e-07
0.273577
-0.312784
0.00373745
-0.581473
1.50552e-06
-0.708404
-0.16009
-2.99296e-07
0.00562182
-6.91275e-05
-0.071111
0.00177931
2.61314e-06
1.62057e-08
-0.0121389
0.000232179
0.0141123
1.12614e-06
-0.0856658
-0.000250808
3.39583e-07
-0.651218
0.000130068
-4.45041e-06
0.332719
-0.000798801
0.00105076
0.0227928
-0.000340676
9.52377e-07
-0.0556242
-6.9108e-07
-2.1282e-07
0.030143
0.00100199
2.21601e-07
0.00185088
0.00216819
0.00181474
0.728845
1.3444e-06
0.32713
1.2731e-06
-7.81554e-08
9.68018e-06
-0.000100089
-0.00049485
-0.0220025
-0.238335
-0.00137136
9.9047e-09
0.0533625
-0.133231
-0.173897
-7.92515e-07
1.58577e-07
0.00136437
-6.25512e-06
-3.75236e-07
-0.000257296
8.1275e-05
0.000782073
1.15458e-06
-1.26225e-06
-1.24876e-05
1.30867e-06
-0.00202715
1.28014e-06
-4.4582e-07
-0.00849856
-0.623995
-0.00564165
0.672748
0.00214496
-0.00949625
-1.40507e-09
-0.250682
-0.144421
-0.00348344
5.13096e-05
0.00143958
-0.292213
-0.0394229
2.05098e-07
0.00649367
-0.887745
-0.612432
-0.2196
-6.79449e-06
0.00728399
0.00156123
-0.000472292
2.54477e-06
0.00557221
-0.00216323
-0.00680027
-0.00062442
0.00552364
2.22297
-0.0400927
-6.4078e-06
1.64189e-06
1.30835e-07
1.92082e-06
-0.11412
0.000270704
-0.00912837
-0.000131557
-0.00100479
-5.17011e-06
-6.59542e-06
-1.77045e-06
0.167943
0.00188758
-0.00207233
-1.4219e-06
4.11158e-06
-0.00151737
-0.00194315
-0.522605
-2.11276e-07
-2.887e-06
-0.062602
-2.29504e-07
5.45848e-07
-0.000102856
-9.17056e-08
-0.269573
9.65995e-07
-0.00875009
0.0122691
-2.06257e-05
-0.000143891
0.00365855
6.81827e-07
-6.50492e-08
0.00272113
4.5107e-06
-0.0247714
-1.65446e-05
1.69212
0.00547337
1.20565e-06
-7.28056e-06
-0.112034
-7.46957e-07
1.02116
-4.051
-7.90968e-08
-0.03815
-0.0985059
0.00246985
-2.17091
-5.50419e-07
-0.00221697
-0.00487783
0.0431427
6.64773e-07
4.6646e-05
0.00116904
0.000272554
4.23045e-06
-0.627245
-0.0324198
-0.00113217
0.0910654
-7.83282e-08
-0.00019457
1.09442e-06
-0.000773357
-7.64913e-08
4.92991e-07
9.19158e-09
-2.8865e-07
0.219392
1.40769
0.000153046
1.35609e-05
4.05367e-05
0.198291
-0.011896
-5.04355e-05
-0.0155268
2.04806
0.00455862
3.52811e-07
2.57422e-06
-0.180101
-1.75392e-06
2.7067e-06
-1.79754e-06
6.07879e-07
0.00115467
-2.12942e-07
-0.000278826
3.58224e-06
-4.21023e-07
3.00003e-05
0.00160419
0.0021358
-0.00569171
-0.0152801
-8.7926e-05
0.853012
-4.25431e-05
-3.40014e-07
1.07729
1.02971
0.000777213
5.52683e-06
6.6975e-07
2.4087e-07
2.00691e-05
-3.60129e-07
-0.345285
0.503241
-1.05582e-06
9.42371e-05
0.00594947
1.56965e-06
-0.00358406
-0.0564232
-2.08809e-06
0.00373797
0.00177796
2.1199
1.02714e-06
-0.477806
0.0128767
0.0293137
0.015624
-0.0467251
-0.00459452
-6.54622e-07
9.08269e-07
1.74772e-06
2.61242
0.0307013
-0.000432619
1.20329e-06
-3.55338e-07
-0.0127682
-0.0644886
0.000711561
-1.28904e-07
-2.04093e-05
0.00371169
-0.0024277
-0.0391575
-2.86277e-06
-0.00306461
1.5144e-06
-0.792174
0.000334973
0.0028678
-1.91417e-07
-3.51964e-06
1.54859
0.123268
0.00755475
0.000745356
-4.0366e-07
-0.00031617
-0.00657422
1.92902e-06
-2.81678e-05
-0.00592884
9.64904e-07
5.80377e-05
-0.00033781
4.56447e-07
0.0599459
0.000645141
-0.000216916
-0.00973068
0.0229646
-0.000608789
0.00226027
2.11763e-08
-4.41635e-07
9.75282e-06
-0.00193148
0.000512213
2.03313e-06
-0.00283205
0.206615
-0.00251544
0.000412165
-0.18659
0.00398036
-0.00127006
-3.59829e-06
4.36133e-06
-0.414328
-0.00268489
3.11979e-06
0.0407474
-0.000922262
-0.0311881
0.000213046
-2.84009e-06
0.000537537
-7.93813e-07
0.143752
0.000760467
-0.029159
-0.25014
-1.48923
-0.0408342
-0.000783753
-2.85888e-06
-0.00105676
0.0378844
2.62219e-08
-4.02068e-06
-8.29378e-07
-0.0384529
-1.6491e-06
-0.465861
-0.00509722
-0.11437
-1.11645e-07
0.00671387
0.00350757
-2.15817e-05
-5.43433e-06
0.00115199
0.000338823
0.000284
-0.00116979
-0.0974901
-0.521862
0.0485934
-0.30091
0.0265275
1.23281e-05
0.00015017
9.24185e-06
1.5837e-06
0.0339798
-5.3858e-07
-0.00941504
-0.0709602
0.122459
-0.136749
0.0714852
-0.00206822
-0.413674
0.0923334
-0.201525
-3.19554e-05
0.000521454
-7.54649e-06
-2.27267e-07
0.0745286
0.959752
-0.00416807
0.176682
0.000859538
-0.000893992
1.15509e-06
0.00460708
0.0875015
0.000578497
-0.226038
-0.840875
4.23995e-07
-0.559368
2.06764e-06
0.622331
0.109087
1.88972e-06
-7.39228e-06
-0.0527649
-2.48181e-05
2.9618e-06
5.45179e-08
-0.00310399
-6.42902e-05
8.67004e-05
1.1621e-06
0.0527507
-0.000151322
0.521926
-0.01094
-0.00113774
-0.00437939
0.0613383
-0.00284267
1.09242e-06
3.68439e-06
0.00151575
-0.0028928
-0.00148869
-0.00621538
-1.53032e-07
0.0371382
-0.043265
-0.000121704
-5.72434e-07
2.23521e-06
2.19749e-06
-0.00018959
-0.00472064
-2.72028e-07
-1.28385e-05
0.0958928
-0.0125467
3.43678
2.4104e-06
-0.62422
1.9821e-07
-0.000232198
0.000581524
-0.000606674
2.3621e-08
1.35943e-06
1.77528e-06
0.000668955
-0.00311528
-0.577429
-0.00569565
0.297917
-0.0287929
2.82622e-07
0.000447149
0.277991
2.45058e-06
0.0367829
-0.00173924
0.125503
2.72126e-06
-0.676957
-0.0855382
-4.11901e-06
0.602146
2.98747
0.000121601
-0.00815158
-0.111774
-0.00427541
0.0185558
4.52191e-07
-5.29391
-4.10762e-05
0.00266049
-0.0207178
0.000109118
0.000631537
0.0140555
-0.00576242
-1.499
9.08087e-07
-0.0577559
-0.000670229
-0.276897
-1.04872
0.215695
2.97814e-06
0.000317742
9.75878e-08
-0.231692
7.25111e-06
-4.96041e-05
-0.249921
-0.101096
0.0110583
0.00117226
-0.00941752
-8.15392e-05
-6.21383e-07
-0.0617717
-0.000617771
0.129123
-0.12858
3.7878e-06
0.0151323
5.87155e-07
-0.000518021
4.33368e-06
-0.0594731
-0.00189686
0.0184291
0.0255204
0.00332658
7.35854e-05
-0.00140515
-0.0208921
1.70911e-08
0.048692
-0.000369233
-0.516529
-0.00184537
0.154785
5.55523e-07
-0.0271481
0.0612595
-0.620812
-0.0448516
0.00298553
-0.0350423
1.07866e-06
-5.12159e-05
0.000261524
-0.000263185
-3.46181e-06
-0.000262131
3.20265e-07
0.00563489
-2.67673e-06
7.62696e-07
-0.00296345
-0.776494
0.0114359
0.00139352
3.28919e-07
0.463695
0.000265819
0.00271477
3.34347e-05
-0.0164156
0.209068
0.000105424
-3.97054e-07
0.00769186
2.9065e-06
-0.00267713
0.705306
0.213517
-0.00222544
-0.148249
1.02613e-06
0.00148181
0.000222225
-0.00287077
0.0149653
0.000798816
-0.000392493
0.00616187
0.506034
-0.00293693
0.00210704
-0.000863797
6.9851e-05
0.792571
-0.000327956
-3.3337e-05
-0.000654754
-1.08545e-06
0.24799
-0.000180048
0.00744042
0.673019
9.14451e-07
-0.0916071
7.40298e-06
-5.22376e-07
0.00411954
0.00248495
-0.287769
-6.80559e-07
-1.7681e-06
-4.87586e-06
-0.0100039
1.13534e-06
3.4879e-07
-0.0339951
-0.319835
-0.282426
0.0509561
0.0817422
1.12334e-06
-0.258723
1.3724e-06
-0.151982
1.97295e-06
0.000852133
-4.71975e-07
0.000611007
-7.70908e-08
-5.98251e-08
-0.00836835
-0.00168812
-0.0527085
1.47316e-06
9.95718e-05
-0.000997231
-2.15289e-06
0.025389
0.110134
2.87467e-07
-0.000211921
-5.05252e-08
-0.000122201
-9.52935e-05
-0.000106826
1.19675e-06
-2.96393e-06
-0.0233034
-5.25569
-1.70486e-05
0.00332462
-4.76461e-06
-1.4855e-06
1.0631e-09
-0.000286002
-0.00380293
2.83665e-05
-0.0154314
-0.00259984
-3.81687e-06
0.167777
-1.2962e-05
1.48242e-08
-3.73831e-05
-0.0382366
-0.0795755
-8.73413e-08
-4.56577e-08
-0.00037007
-4.33804e-07
0.0419634
2.26736
0.850077
-0.491433
-8.96363e-08
-0.0160155
-0.000733843
2.4319e-06
-0.00307114
2.08707e-06
6.96092e-05
0.0737441
-0.000579004
-5.95989e-07
-0.427212
-0.118556
0.00101305
0.00285517
0.00017454
-3.20228e-07
-1.1455e-06
0.0108315
7.92364e-06
-5.97242e-05
-0.006926
2.44711e-07
6.15416e-09
-0.539588
0.0101467
0.105579
-0.866013
-0.15848
-0.0125117
-1.18651e-07
0.000183699
0.000241485
-0.00706845
0.0224067
-0.788383
0.000228954
1.42968e-08
0.448568
1.09459e-08
0.00417624
0.0230921
8.62948e-09
1.18525e-08
0.0591589
-0.493163
-0.00921801
-1.57153e-06
-0.353244
-0.0239167
0.00330422
9.17895e-07
3.18421e-05
-0.357475
0.00978357
1.96635e-06
-5.77507e-05
-0.00431017
-0.0099101
3.08417e-06
-2.21405e-06
0.173243
6.61389e-05
1.27666e-06
5.98604e-08
-1.64884
0.5293
-1.07919
2.33707
-9.56023e-05
0.033167
-0.681481
-6.77423e-06
-7.33212e-06
4.03403e-07
-3.19117e-07
0.00308955
1.37098e-06
1.31824e-06
-3.25204e-05
-7.8405e-07
1.54046e-06
8.49286e-06
0.00594166
6.9387e-05
-6.07886e-06
-1.58155e-07
-0.0070632
0.00375411
-2.89911
-0.000491646
-2.20654e-06
-2.1049e-07
-0.0014175
-0.0725516
0.0012893
0.000688509
-0.548561
2.67986e-06
-6.48659e-07
8.02074e-05
3.52074e-08
0.0402332
-7.64009e-05
-1.21321e-06
5.757e-07
0.240122
0.0524138
-1.115
3.77472e-08
0.0459682
1.16053
-2.35573e-07
0.00145917
-2.02623e-06
1.79698e-06
4.11669e-08
-0.271773
1.11737
0.941525
-0.12927
0.000171243
0.148549
-2.06221e-05
-0.0119409
2.68188e-05
-1.87887e-05
-1.70873e-05
-1.26452e-07
0.452211
0.0115697
-0.682298
0.247537
0.178612
4.33809e-07
-0.154641
1.6094e-06
3.00033
2.94515e-08
0.0161209
0.350169
-0.044799
2.12476e-06
-0.23691
-8.26027e-07
-0.0539261
-8.21789e-08
-0.000395628
-0.000357851
1.17451e-06
-0.000264023
-0.00355374
-5.59435e-07
-0.000186066
1.17144e-06
0.00711395
9.43311e-07
0.000306492
-0.00116128
-0.00117816
0.985828
-0.00868478
2.38886e-08
-0.0475178
-0.000330018
-0.749726
9.74296e-07
-0.28506
0.0581149
-0.070812
-0.54739
-4.22208e-06
3.01338e-07
1.78574e-06
0.00547648
-0.617384
5.31758e-06
0.000841953
0.00156011
0.427585
1.11387
0.026839
-5.00879e-07
-0.0276184
1.06852e-06
0.000647362
-0.0842302
0.113935
-0.00011441
1.32766e-06
0.00226784
2.07996e-08
0.0103386
5.53376e-07
-0.00457004
-7.28978e-07
0.000158474
3.6964e-08
0.128952
-3.05873e-06
-0.197642
-0.0849673
-2.77145e-06
0.0330759
0.0292953
2.7729
-2.08261e-05
-0.00140603
1.17208e-06
-0.0422752
-2.01669e-05
8.63972e-07
-1.67422
-0.0761171
-6.94672e-09
-0.0705195
-0.0049678
-0.000858614
0.602617
0.0116618
2.26374e-06
-0.000113098
-0.00596292
-8.05946e-05
3.21134e-07
8.78654e-07
3.99272e-08
0.0116325
0.105556
0.0985747
-0.0338736
-0.097565
0.000598381
0.0136049
1.54472e-06
0.000624677
-6.19263e-05
0.000484368
1.52594e-06
0.00294357
-0.673823
-0.0016129
-2.23524e-08
0.00058897
1.48928e-06
0.0027535
5.50951e-06
-5.72411e-09
-1.19525e-07
1.48614
0.000274717
2.2779e-06
-0.00147894
-0.0410492
-0.15987
-0.000870145
-0.00136113
-0.621172
-0.0070334
1.28677e-06
0.799171
4.25182e-07
1.0176e-06
0.763675
4.50824e-05
0.813055
0.159323
1.15655e-06
1.40436
0.000422857
0.0892653
-5.02101e-05
0.00349248
2.48744e-06
0.00229351
-0.00501099
0.000629146
2.03835
0.0807604
-0.0177766
-5.24959e-06
-0.00313392
9.67011e-05
-0.0509269
-1.1191e-05
-1.22259e-06
-3.95931e-06
0.446918
-6.94574e-07
-5.66218e-06
-1.49366e-06
-5.91434e-08
-0.066658
-0.00394785
-0.00893235
-0.00393709
-3.83128e-06
-2.09059e-06
-1.6061
-0.809697
2.69344e-06
0.0655795
4.3957e-07
1.06058e-05
0.0225018
-3.608e-06
-0.696743
-0.00204619
-7.51695e-07
-4.50158e-06
1.20238e-06
0.00284223
14.8216
-0.0261718
0.00441447
0.436503
0.00188924
-4.47309e-07
0.150313
0.00137041
-6.13216e-07
0.0130037
-0.00173556
0.0079142
0.203002
-0.0024386
-0.00196928
1.89537e-05
-5.46712e-05
0.00161545
0.00613315
0.125111
-0.0345159
-0.137845
4.42454e-05
3.74561e-06
0.162443
-0.000177345
7.96936
-0.0454764
0.0239223
-2.89677
0.00617811
4.34075e-07
1.39254e-06
-0.00358226
8.78132e-05
-0.00093614
0.33937
0.0100695
-1.65541e-07
-0.0238913
-0.0198596
-5.60637e-07
-3.19664e-09
-0.00187383
-0.391192
5.4166e-06
3.04281e-06
0.0176495
0.0264087
0.000196461
0.21888
-0.0281022
-0.139558
-0.880157
-5.34697e-07
-4.13734e-07
-0.25757
0.00388173
-1.41206e-05
-0.00516739
0.0336124
-6.73667e-08
0.000248536
0.000129148
-9.81279e-05
-8.96011e-05
-0.0336021
4.0778e-05
2.35708
-4.02996e-08
0.101152
-0.00126626
-0.101393
4.42534e-05
2.49119e-06
-2.07872e-06
-0.00079772
2.01233
-0.037673
-1.24145e-06
-0.631835
2.41059e-06
-0.00987035
1.19872e-06
-5.39738e-08
0.0941316
0.004882
-0.193698
0.755369
-4.19872e-06
0.0102846
-1.48815e-07
1.98461e-06
0.00984213
0.000662395
-4.01046e-06
-0.000166289
1.30669e-06
-1.48785e-08
-0.00351279
-0.00011864
0.301848
1.09867
-6.7545e-08
-6.32947e-05
-0.0616977
0.197268
1.91268
-2.49565e-07
-1.96177e-06
-0.35595
-0.0614814
0.0130897
-0.00210175
0.000129076
2.81532
-7.14119e-06
0.240945
-2.6914e-07
0.00324306
-7.07559e-07
-0.000200079
-0.00551288
-4.69899e-07
0.000146757
-0.159757
0.000301551
-0.618614
7.03356e-07
-0.00850679
3.34156
-5.84848e-06
7.20705e-07
4.97414e-06
0.00240101
-1.08292e-06
2.7213e-06
-1.34382e-06
-0.571586
1.73066
-0.000928291
-5.04382e-07
2.08216e-05
-3.16204e-07
0.0172516
3.04692e-07
0.000326793
-8.31013e-07
-2.83702e-06
0.000582782
-0.00596999
0.761049
0.000801521
-0.117821
-0.00106012
-1.90945e-05
0.0376301
-6.47224e-05
-0.794391
0.0474854
4.86575e-05
-5.91224
-0.00476452
-2.59699e-05
7.13679e-05
-2.1084e-05
4.98978e-06
-2.47041e-07
-3.55081e-06
0.0338546
-1.83807e-08
7.14627e-08
5.85447e-07
0.00681474
0.000290367
-0.0372026
2.33954e-07
0.00438594
-0.0452776
0.00299136
0.00794096
-2.99607e-07
-0.00951324
2.20131e-06
-0.0314443
-0.0019765
0.00240066
-8.30955e-08
-0.0937093
3.62792e-08
1.32193e-09
-3.2527e-05
0.00422046
-0.0708831
-0.408419
-0.00194911
0.389318
3.12443e-06
9.24342e-07
-1.46799e-06
-0.00390697
-0.0249833
-0.00505261
0.00981371
-0.792087
-0.968201
-0.00478879
1.44667e-06
1.93858e-07
6.62053e-07
3.20548e-06
-0.0326754
-3.04323e-06
-2.23322e-07
-0.0132579
0.000539615
-0.194838
-0.00953828
0.000200548
0.921252
-1.47615e-05
0.025385
0.150955
-0.00364711
0.000501671
-0.427907
1.52572e-06
1.29124e-06
0.013505
-0.857034
-8.13483e-07
0.000365283
0.00551297
4.3766e-07
0.0948901
-7.11188e-05
-0.00188247
0.0824628
0.000669989
6.56526e-06
0.0941222
0.00132758
0.216454
2.04899e-06
2.14248e-06
0.03381
-4.40827e-06
2.65502e-07
2.51479e-06
2.87827e-06
-0.0121921
0.22982
0.000719629
-7.34644e-06
-0.0174797
0.523672
-0.043444
-0.00297009
-2.90182
-0.142811
-0.320908
0.120911
-0.617133
-1.86756e-06
2.27483e-06
-0.0145861
-3.34963e-07
-0.000945245
0.00233565
-1.92362e-05
0.163821
-0.00636079
-3.23629e-08
5.34627e-05
-0.167117
-0.123491
-0.59744
6.37821e-06
-0.617548
-0.000272942
0.0209259
0.00423576
-1.10921
-0.0136408
1.67784e-06
-6.56038e-08
-0.0044644
-0.142377
-2.39893e-05
0.0297874
-0.944373
0.0340921
-5.99484e-05
-3.54837e-06
3.98349e-05
6.05538e-05
-7.99494e-07
-0.0017093
3.67716e-08
0.00105032
-1.77041e-05
3.91841e-05
0.0971983
-7.73797e-08
-3.95706e-07
-2.21823
-1.02437e-06
-0.00523915
-0.000113532
0.191808
-0.0770318
0.00378243
0.00665684
-7.54111e-07
0.00138818
-3.48663e-07
0.0169677
0.000287439
-0.424885
-0.000163255
0.000104091
-5.05337e-06
-6.51131e-08
-2.79552e-05
-0.0594764
0.0182775
9.38411e-07
-0.0188807
0.0939954
-0.0822862
0.000280058
0.0953176
-2.68644e-06
-0.830782
-0.11737
1.91191e-08
4.87287e-05
-0.272323
8.91001e-09
-0.699104
-1.23328e-05
-0.250641
9.12286e-06
1.37245e-06
0.00239429
-1.17391e-06
-0.302171
-0.000318804
1.31202e-06
0.0608078
-0.00636565
-4.90795e-10
-6.22965e-06
-0.000101524
0.0187374
-0.0118471
-0.0170312
0.14434
5.36071e-07
-0.14195
-1.52899e-06
-4.88679e-05
-0.00239436
0.109908
-0.429484
2.26146e-06
-0.00208247
-6.37617e-06
-0.000201068
8.19783e-06
3.01294e-06
1.04602e-06
-0.0661996
-0.000829023
-5.28051e-05
-0.272811
2.26042e-07
0.134402
0.131977
0.369792
-0.0823376
0.000533504
0.00322701
-0.0249733
0.00537134
4.71939e-07
3.83104e-06
1.60736e-06
0.00609222
0.000584953
-0.00472309
-0.000578464
1.22478e-06
-0.000252038
9.26123e-06
1.18011e-07
-0.0148439
1.31472e-06
1.04996e-06
-0.000671573
2.63903e-07
-0.00117586
-0.00506988
-0.136244
-1.58033e-07
-0.210038
-1.15603
-0.00887032
-0.41332
-0.228323
0.00515679
0.0872304
0.609821
8.71182e-07
-0.0371082
-0.00010981
-1.32241
-4.93358e-06
3.34213e-07
1.01273e-05
0.0659333
-3.39407e-06
-0.19437
-0.367803
0.0399358
0.420406
0.0493474
-9.22831e-06
-0.00050309
-0.000581598
0.000148545
7.73036e-05
8.27177e-07
-1.25939e-05
2.25604e-06
0.0386299
-1.23467e-05
9.05197e-07
0.0120632
7.46115e-07
0.000551037
-3.53281e-07
-0.000124321
0.848239
0.00411749
-0.00398035
-4.99601e-07
0.198483
-0.000298922
-5.17119e-05
7.88207e-07
-0.000352879
9.38639e-09
-8.61792e-06
0.0140027
1.77038e-06
-0.00260622
1.2246e-05
5.62293e-06
-0.0118228
-0.026559
1.4059e-06
-3.04435e-07
-0.147218
0.116769
-7.69437e-09
-2.61695e-07
1.03888e-06
1.79677
0.207948
1.11915e-08
1.60807e-07
0.0693996
0.0675569
-5.24767e-08
-0.190067
0.00493829
0.0387781
-0.000375942
0.000259069
-0.680746
2.63722e-06
-2.22953e-06
0.176145
-0.0220685
3.01786
-0.186967
-0.0131393
-0.0490168
-0.450621
9.11556e-08
0.798548
-7.3653e-06
2.22554e-06
0.00091485
0.000119219
0.242179
8.46728e-08
0.00998309
2.00263
-0.087102
1.64525
0.0606041
5.3259e-07
1.77319e-06
-0.055046
3.17553e-06
0.127208
-0.00068424
2.7693e-05
8.95355e-06
-3.47039e-07
0.000560556
1.89321e-06
3.97838e-06
-0.000343745
1.45998e-05
-0.367293
1.08963e-06
-0.00157238
-0.244147
0.00578065
7.7128e-07
-0.000219684
-0.0241334
1.53357
6.44749e-05
0.00028701
-0.00744844
0.190618
0.0271293
0.020132
-0.0514104
4.77862e-07
-4.58654e-07
-0.00418175
-6.08692e-08
-0.556954
0.0060829
-6.34426e-06
5.20579e-07
-2.49998e-05
0.00154459
-0.0493992
-0.000721125
-0.00538555
-0.518515
0.0187343
-0.0442609
-5.36452e-08
-2.27941e-07
1.25622e-06
0.160448
-0.0130475
-1.17802
-0.763272
-4.4484e-07
-8.39035e-08
4.97602e-07
1.25925
-0.0866886
-0.0142479
-0.594288
-3.7838e-05
-1.72633e-05
-0.458763
-2.14109e-07
-6.57541e-07
0.060647
-1.08303e-06
-0.0133184
0.0043317
-2.60589e-07
-0.0253362
1.13013e-08
1.37391e-05
0.236811
-0.0131688
1.09663e-06
-0.0029137
-0.0048316
9.66429e-09
1.04583
-9.22755e-07
-0.000417418
-2.42662
0.000116761
-7.60217e-07
-6.94335e-07
0.00144285
0.00776083
2.79771e-06
7.73767e-07
-6.07164
0.000344974
-0.0594999
0.00369381
0.828674
1.10196e-06
-2.34339e-05
-0.0325732
-9.60433e-06
5.88522e-06
1.931
-0.351796
0.000236101
-0.516755
0.00521112
-0.00396419
-0.599893