/*--------------------------------*- C++ -*----------------------------------*\
| =========                 |                                                 |
| \\      /  F ield         | OpenFOAM: The Open Source CFD Toolbox           |
|  \\    /   O peration     | Version:  v2012                                 |
|   \\  /    A nd           | Website:  www.openfoam.com                      |
|    \\/     M anipulation  |                                                 |
\*---------------------------------------------------------------------------*/
FoamFile
{
    version     2.0;
    format      ascii;
    class       volScalarField;
    location    "300";
    object      nut;
}
// * * * * * * * * * * * * * * * * * * * * * * * * * * * * * * * * * * * * * //

dimensions      [0 2 -1 0 0 0 0];


internalField   nonuniform List<scalar> 
18618
(
0.0044212
0.000381179
0.00489482
0.00443505
0.00583163
0.00132575
0.000184714
0.00197194
0.00121466
0.000640907
0.00533903
0.00482252
0.00675764
0.00343334
0.00671766
0.00227263
0.00526526
0.00488402
0.00672422
0.000520517
0.00671772
0.00405927
0.00671291
0.00380481
0.000160056
0.00104732
0.000371807
2.43915e-05
9.17219e-05
0.00565375
0.00176503
0.00298786
0.00121396
0.0067155
0.000663824
0.00289585
0.00673783
0.000412968
0.00289346
0.00671302
0.0026469
0.00434587
0.00367236
0.000392387
0.00121734
0.000309653
0.0037657
0.000530653
0.000671253
0.000789987
0.000268581
0.00324109
0.000294757
0.000142572
0.000299409
0.000515987
0.000210472
0.00124715
0.00255726
0.000160891
0.0027004
0.000585884
0.00044508
0.00671492
0.000283959
0.000439315
0.000195659
0.00125503
0.00671598
0.00350108
0.00152571
0.00672342
0.00672325
0.000601848
0.000281058
0.00321858
0.00672309
0.00673037
0.00671501
0.000497451
0.00160375
0.00671547
0.00247499
0.0011972
0.0048857
0.00674356
0.000422689
0.00366098
0.000409851
0.00190521
0.00672717
0.00355253
0.000924615
0.00671491
0.00350995
0.000497638
0.00172702
0.00132032
0.00671978
0.00401438
0.000561589
0.00579092
0.00307385
0.00100549
0.000144311
0.000776828
0.000144867
0.00671257
4.89866e-05
0.000235363
0.00310125
0.00387471
0.00428548
5.99441e-05
0.00672756
0.00671341
0.000322274
0.00353511
0.000255068
0.000215279
0.000989593
0.0024516
0.00172228
0.00192556
0.000804829
0.000391429
0.00131353
0.000303113
0.000214046
0.000965962
0.00225364
0.000568296
0.000511558
0.000191415
0.00671905
0.00153419
0.00671771
0.00409938
0.00273313
0.00673674
0.00235919
0.000214424
0.0067147
0.00671391
0.00258535
0.00672721
0.00670924
0.00390356
0.00671672
0.00205319
0.00053141
0.00532859
0.00108044
0.00173866
0.0016095
0.00374204
0.00143823
0.000640651
0.0038652
3.59336e-05
0.000783902
0.000810772
0.00244599
0.000339251
0.00672902
0.000591184
0.00133111
0.00630789
0.00453893
0.00129783
0.00672615
0.00158698
0.000409695
0.000170017
0.00336541
0.00369247
4.95425e-05
0.00151951
0.00671861
0.00158919
0.000553443
0.000597468
0.000200107
0.00672296
0.00671889
0.000303279
0.000475899
4.916e-05
0.000395095
0.00342518
0.00671747
0.000319403
0.000623667
0.00614491
0.00671441
0.00075851
0.00673588
0.00209008
0.00202249
0.00127725
0.000664717
0.00387345
0.000510606
0.00143862
4.24938e-05
0.00103634
0.00348012
0.0048265
0.00672072
0.00671546
0.000235744
0.000214981
0.00127204
0.00670919
0.00268744
0.00672539
0.00092776
0.000253291
0.000960562
0.00344912
0.00224775
0.00172152
0.00502361
0.00672509
0.00361495
0.00644381
0.00377714
0.00038668
0.00021863
0.00146231
0.000898238
0.00110669
0.00671899
0.00241736
0.00117213
0.00671959
0.00672288
0.00139746
0.000497486
0.00483151
0.000483786
0.00354974
0.00671938
0.0036415
0.000965522
0.000633498
0.000562059
0.00671954
0.00391644
0.0042588
0.00671457
0.00426631
0.000530905
0.000562434
0.00111797
0.00121236
0.00132869
0.00671916
0.00671085
0.00349269
0.0067285
0.000756036
0.000211949
0.000745335
0.00388033
0.000461163
0.00127938
0.000416844
0.000466826
0.000489212
0.000341193
0.00671796
0.00220852
0.00672799
0.00672587
0.00050496
0.00116651
0.00231594
0.00419637
0.00498811
0.00671626
0.00151395
0.00526056
0.00158809
0.00427329
0.00495407
0.00673663
0.000221796
0.000905713
0.00153889
0.00675236
0.00102391
0.00469746
0.00152662
0.00184564
0.00012189
0.004609
0.000490077
0.00265151
0.00327588
0.000341369
0.00671482
0.000558744
0.0011061
0.006718
0.00672127
0.00550989
0.00328499
0.000418202
0.000683321
0.000742514
0.00671109
4.20791e-05
0.00672512
0.0067234
0.00454525
0.00200165
0.00168754
0.00111431
0.000365434
0.00670887
0.000610962
0.00672051
0.00459227
0.00672371
0.000417899
0.000506609
0.00496473
0.00532793
0.000607885
0.000468648
0.00208882
0.00393835
0.00672323
0.00136309
0.00671754
0.000155799
0.00145293
0.00442299
8.26562e-05
0.00121064
0.000453743
0.00299774
0.000250729
0.0067182
0.000549803
0.00109788
0.000511899
0.00150006
0.00671339
0.00672453
0.00675675
0.000521882
0.00672066
0.00672814
0.00672001
0.00672056
0.00129717
0.00256951
0.0022056
0.00671462
0.00418923
0.0050151
0.00113751
0.00222101
0.0050473
0.00671955
0.00672306
0.000659521
0.00132817
0.00672622
0.00498094
0.000517138
0.00103773
0.00670893
0.00673087
0.000363704
0.00194701
0.00671635
0.000348034
0.000243903
0.00672609
0.00673595
0.00566763
0.000152133
0.00671589
0.000405338
0.000879535
0.00671918
0.00181378
0.00128964
0.00672054
0.000464738
0.00301821
0.00672459
6.43874e-05
0.00356479
0.000191967
0.00671919
0.00355123
0.00522722
0.00149062
0.00188853
0.00224356
0.00671584
0.000395555
0.00671804
0.00115886
0.00177102
0.00672691
0.00437101
0.0067263
0.00671584
0.00675446
0.00140794
0.00141538
0.00671075
0.00336691
0.000445387
0.000918316
0.00671494
0.00265217
0.00183085
0.00127626
0.00671558
0.00209787
0.00139814
0.0033247
0.000244843
0.000714389
0.00672053
0.006719
0.000344343
0.006715
0.00672982
0.000532297
0.00672323
0.00230205
0.000316515
0.000724657
0.000696929
0.00027097
0.00300368
0.000651895
0.00456986
0.00082977
0.000604458
0.00112402
0.00113872
0.00671898
0.000645417
0.00672546
0.000624165
0.0004354
0.00671816
0.000355584
0.00672668
0.00338448
0.00229258
0.00621209
0.00212265
0.00256703
7.94316e-05
0.00671866
0.000263681
0.00177383
0.00671801
0.00672631
0.000441043
0.00671703
0.00269987
0.000527519
0.00327581
0.000291189
0.0023268
0.000991649
0.00342074
0.00265942
0.000732938
0.000460995
6.74336e-05
0.00109565
0.000183378
0.00663581
7.93761e-05
0.00285279
0.000279691
0.00189701
0.000171463
0.0012322
0.00108098
0.00222663
0.00306759
0.00672355
0.00327475
0.000412276
0.00116481
0.00320121
0.00103827
0.00672385
0.0067261
0.00672099
0.000162514
0.00671876
0.00196579
0.000471954
0.00133714
0.000767721
0.000639087
6.48415e-05
0.00332046
0.00671507
0.00271366
0.00224316
0.00127455
0.00672163
0.00670034
0.00672371
0.0001865
0.00225747
0.00340063
0.00672153
0.000704915
0.000690384
0.00577521
0.00671925
0.0023806
0.00672298
0.00040721
0.00672193
0.000582929
0.00309578
0.0011339
0.000650973
0.00145687
0.00672457
0.00238138
0.0067263
0.00671544
0.0035435
0.00131996
0.000662344
0.000364442
0.000145894
0.00672085
0.00672122
0.000706335
0.000303255
0.00671602
0.00650917
0.00671782
0.00193245
7.10722e-05
0.00635739
0.000251935
0.00672116
6.02841e-05
0.0067188
0.0001708
0.00258207
0.00250588
0.00375547
0.00141092
0.00114672
0.00672212
0.000452626
0.000285267
0.00486097
0.000492898
0.00431927
0.00671896
0.00482664
0.00672291
0.00358803
0.0027726
0.00302064
0.000114855
0.000311648
0.000606372
0.00673105
0.00055322
0.000646746
0.000937926
0.00672138
0.0067247
0.00672965
0.00672091
0.0067155
0.00250483
6.80024e-05
0.00671687
0.00671482
0.00321433
0.0067377
0.00228423
0.000731425
0.00020688
0.000842896
0.000261363
0.00671482
0.00672055
0.000317487
0.000270119
0.00255048
0.0067289
0.000392121
0.00671932
0.00544962
0.0067207
0.000390096
0.000119685
0.00374957
0.00372259
0.000333487
0.00606577
0.00673436
0.00218446
0.00114607
0.00514558
0.000684674
0.00594722
0.00671533
0.00049249
0.000309424
0.0067248
0.00113692
0.00377656
0.00561582
0.000371351
0.00672305
0.000639533
0.0067227
0.0028686
0.00560114
3.72866e-05
0.000340166
0.000715596
0.00104369
0.00293467
0.000919178
0.00382291
0.00525148
0.000208035
8.53227e-05
0.00671662
0.000869673
0.00010097
0.00161788
0.00261817
0.00080762
0.00127657
0.0067209
0.00672065
0.000212541
0.00488112
0.000715219
0.00671698
0.000637978
0.00671508
0.00671711
0.00203706
0.0014023
0.00672096
0.00671542
0.00106162
0.00530753
0.00114191
0.00672061
0.000103118
0.000645161
0.00229735
0.00672631
0.00672311
0.00211984
0.0067151
0.000503054
0.00611262
0.000378711
0.00284511
0.00143515
0.0026547
0.00122086
0.00130235
0.00672079
0.00672299
0.00274311
0.000650889
0.0067229
0.00194591
0.00672086
0.000681897
0.0067145
0.00671711
0.00672818
0.000583529
5.34952e-05
0.00186385
0.00671893
0.00671872
0.000272856
0.000489894
0.000943957
0.000497558
0.000483229
0.00480982
0.00671428
0.00110735
0.00410415
0.00126087
0.00671468
0.00671006
0.00235
0.00201352
0.000335458
0.00202534
0.000605848
0.00130428
0.00047562
0.00672958
0.00682231
0.00105676
0.00671094
0.00322445
0.0031453
0.00439117
0.000645292
0.000196022
0.00676
0.00672213
0.00067406
0.00180234
0.00141481
0.00671961
0.000596104
0.00122092
0.0036413
0.000461533
0.00146293
0.00671424
0.00671966
0.00054374
0.00672379
0.00073652
0.00279326
0.00275719
0.00452743
0.000114536
0.000272571
0.0010162
0.00153086
0.00672619
0.00110934
0.00672054
0.0012291
0.00115291
0.00670985
3.40628e-05
0.00471535
0.00197534
0.00020575
4.60818e-05
0.00362955
0.00672455
0.00134996
0.00494721
0.000294052
0.000140658
0.00339533
0.00107886
0.00307395
0.00671986
0.000506806
0.000422812
0.00671797
0.00582129
0.00522426
0.00269353
4.4787e-05
0.00671487
0.00671906
0.00128432
0.00321285
0.00671917
0.0052388
0.000288888
0.00671534
0.00671437
0.000729422
0.00217345
0.000817177
0.00671812
0.0067144
0.000546346
0.0022127
0.00672283
0.00394432
0.00132624
0.00129065
0.000362896
0.000502618
0.00251691
0.000456149
0.00673899
0.00102023
0.00142706
0.0067286
0.000772627
0.00080528
0.00199861
0.00132381
0.000798683
0.000482585
0.000146393
0.000797805
0.000790395
0.00671729
0.00514633
0.00671427
0.00179884
0.00629541
0.00132407
0.000534472
0.0067218
0.00197841
0.000370215
0.00395057
0.000265234
0.000409547
8.13563e-05
0.00672273
0.00672007
0.00674209
0.000633884
0.00105025
0.00411621
0.0050906
0.00333078
0.00672754
0.00671997
0.00280932
0.000462838
0.00287579
3.69192e-05
0.0011653
0.000924449
0.00370661
0.00671525
0.00672745
0.00671659
0.00672073
0.0032557
0.000378271
0.00579067
0.00672821
0.00378248
0.00381344
0.00494427
0.00190351
0.000384304
0.00258014
0.00493269
0.000396254
0.000789153
0.000572119
0.000784634
0.00187047
0.000953748
0.00103055
0.000238936
0.00672163
0.00661985
0.00337556
0.00671464
0.0067148
0.000388991
0.00318675
0.00018463
0.00683382
0.00363802
0.00147037
0.00127822
0.00672608
0.000995756
0.000503826
0.00672163
0.0004279
0.00289636
0.000200756
0.00333719
0.00195938
0.00297684
0.00160793
0.00588902
0.00673655
0.000120028
0.00657929
0.0067183
0.00455144
0.00672107
0.00581997
0.00672613
0.00672346
0.000258264
0.00671902
0.00679227
7.50919e-05
0.00122634
0.00490984
0.0067183
0.00672044
0.00605748
0.00671909
0.0023823
0.00674099
0.00672778
0.00268866
0.00116642
0.000292562
0.00672386
0.0051966
0.00189881
0.0039841
0.0020815
0.000615849
0.00340802
0.00037358
0.00419357
0.00672108
0.00594535
0.000419013
0.00112887
0.000524413
0.00671472
0.00590264
0.00380453
0.00673191
4.39684e-05
0.00502727
0.00672849
0.00671909
0.0044955
0.00327604
0.000449718
0.000634139
0.00441818
0.00278679
0.00672368
0.00139416
0.001271
0.000503175
0.00135463
0.00350383
0.00288972
6.4767e-05
0.000435188
0.0067394
0.00672198
0.00428428
0.00672024
0.0022092
0.00500504
0.000647525
0.00672826
0.00297086
0.0040523
0.00635154
0.00675737
0.00271419
0.00230852
0.00436124
0.00391704
0.000703503
0.00108318
0.00676129
0.00671938
0.00674062
0.00159917
0.00475173
0.00147173
0.00185858
0.00404702
0.00544155
0.00487055
0.00497925
0.00166921
0.000115512
0.00675844
0.00142832
0.00672293
0.00672455
0.00630317
0.00672014
0.0055053
0.00671664
0.000771253
0.00232763
0.000884349
0.000396079
0.00279179
0.000675772
0.00301605
0.00672402
0.00672336
0.00671652
0.000176755
0.00671969
0.00028244
0.00315284
0.00525935
0.000669416
0.000983414
0.00672409
0.000772787
0.00672399
0.00672501
0.00540525
0.0067208
0.00411604
0.000800637
0.00672765
0.00671861
0.000408084
0.00677247
0.000818622
0.00672717
0.000894006
0.00673615
0.00256729
0.00119611
0.00223482
0.00100891
0.00673704
0.000650217
0.00530151
0.000561502
0.00324798
0.00671987
0.000542612
0.000332705
0.00671835
0.000906612
0.00310327
0.00371081
0.00224713
0.00672713
0.00672209
0.000234843
0.00201924
0.000973944
0.00672347
0.000168864
0.00382071
0.00672281
0.00336401
0.0013057
0.00408124
0.00062073
0.000378855
0.000882772
0.00267905
0.000304247
0.00671681
0.000120209
0.00671467
0.00670953
0.00213638
0.00140718
0.00671849
0.000415596
0.00183974
0.000880558
0.00514064
0.00672334
0.000644684
0.00671415
0.00672236
0.00197026
0.0026193
0.00328096
0.00045773
0.000249026
0.00151694
0.00672189
0.00143446
0.00326641
0.00544367
0.00671998
0.00672499
0.000572892
0.00622293
0.00672523
0.0065208
0.00274279
0.00144567
0.00671472
0.00634161
0.00382721
0.00672361
0.00118639
0.00603232
0.00672485
0.00150856
0.000372809
0.000341029
0.00430551
0.00116103
0.000872683
0.00672206
0.00465208
0.000256638
0.000765773
0.00181432
0.000154696
0.00527485
0.000414382
0.00671871
0.000612884
0.00233492
0.00556708
0.000283592
0.00672412
0.000625538
0.00172807
0.00058555
0.00672135
0.000484378
0.000902486
0.000509919
0.00405875
0.000571635
0.00318775
0.000238791
0.00650868
0.00672295
0.0067235
0.00672621
0.000261704
0.00215225
0.000561209
0.00360139
0.00223316
0.0067234
0.00677641
0.00671795
0.000351897
0.00167077
0.000415558
0.00558401
0.00672819
0.00123108
0.000396197
0.00468627
0.0067243
0.0065967
0.00242107
0.00672847
0.00671654
0.00209657
0.00672427
0.00541152
0.00672048
0.000394493
0.000518483
0.00410826
0.000595618
0.00267429
0.00671854
0.00672134
0.000605534
0.00674292
0.000324698
0.00678066
0.000183813
0.000384492
0.00672107
0.00344153
0.000309508
0.00672091
0.00411599
4.44281e-05
0.00672455
0.00171802
0.000778991
0.000989074
9.99588e-05
0.00672135
0.000677318
0.000455735
0.00318812
0.00671837
0.00307486
0.00123432
0.00366919
0.00673656
0.00371401
0.00046319
0.0011489
0.00136205
0.00672613
0.00297124
0.00672176
0.00175567
0.00674936
0.00428581
0.00672427
0.00672113
0.000765923
0.000141891
0.00275451
0.00340749
0.0037955
0.00356238
0.00135684
0.00117067
0.00039101
0.000383358
0.000611409
0.00671521
0.00672117
0.000534354
0.00671793
0.006727
0.00554396
0.00672271
0.00231157
0.00671898
0.00258956
0.00672795
0.00550347
0.0038649
0.00147669
0.000760818
0.00120235
0.00043024
0.00255966
0.00167182
0.00581913
0.00672094
0.00156524
0.00238424
0.00128768
0.00398237
0.0067167
0.00671636
0.00197581
0.00548727
0.0050684
0.00273629
0.00672078
0.00209773
0.000751448
0.0067233
0.00260092
8.50991e-05
0.00508396
0.00103173
0.00131602
0.000221554
0.00672125
0.00385993
0.000108814
0.00311826
0.000451929
0.000449613
0.000918694
0.00671857
0.006725
0.00671707
0.00139104
0.00288939
0.000671983
0.00671765
0.00672991
0.000966928
0.000878696
0.000702197
0.00671363
0.0067816
0.000772614
0.00125496
0.00150299
0.00576423
0.000810264
0.00672477
0.000368647
0.00147011
0.00149074
0.0067146
0.00674216
0.000292446
0.00318478
0.00091221
0.00158934
0.00433149
0.0018772
0.00117133
0.006727
0.0033874
0.00117114
0.00672211
0.00256768
0.00258357
0.00672247
9.11384e-05
0.0012708
0.00202515
0.00055233
0.000888754
0.000712981
0.00162853
0.00672526
0.00671543
0.00636231
0.00186687
0.000730752
0.00672892
0.000484689
0.00350834
0.000912629
0.000988418
0.000286466
0.000146433
0.00132619
0.00673873
0.00673035
0.000362212
0.00121722
0.00672936
0.000626038
0.000696192
0.00100933
0.00139213
0.00432659
0.000830021
0.00588212
6.61318e-05
0.00123163
0.00119676
0.000296139
0.0021978
0.00136147
0.00101559
0.00569279
0.0027542
0.000845983
0.00672543
0.00458372
0.00672127
0.00240515
0.00624263
0.00497141
0.000716892
0.00426931
0.00672063
0.000423762
0.001097
0.00320344
0.0067702
0.00157854
0.001111
0.00326992
0.00158481
0.000227831
0.000278625
0.000429549
0.00195283
0.00126389
0.00385924
0.000932467
0.00220365
0.00671438
0.000464118
0.00671903
0.000544525
0.00018264
0.00393896
0.00211552
0.000812161
0.000132196
0.00470266
0.00499225
0.000477394
0.00229383
0.00055959
0.00537077
0.00672551
0.00372442
0.000323649
0.000960035
0.000145419
0.00107843
0.00083447
0.00672003
0.000882684
0.000876071
0.00123248
0.000693296
0.00638561
0.00672252
0.00273116
0.00672824
0.000668042
0.00129934
0.00672592
0.0067246
0.000107183
0.0018077
0.00672667
0.00671496
0.00198517
0.00506551
0.00582112
0.00670999
0.000868575
0.00190381
0.0022061
0.00032533
0.000460501
0.000874458
0.000875425
0.000655823
0.0067175
0.00658614
0.00118186
0.000420498
0.0012823
0.000858059
0.00362564
0.0025357
0.000803584
0.00349517
0.00672018
0.00672463
0.006728
0.00229676
0.000739555
0.00671049
0.00222594
6.57649e-05
0.000649534
0.000397118
0.00676515
0.00343794
0.00671632
0.00221044
0.00117723
0.000563244
0.00672572
0.00672451
0.006725
0.00149128
0.000195917
8.26329e-05
0.00146345
0.00246174
0.00232433
0.00671569
0.00175647
0.0032242
0.00672689
0.000643596
0.000614909
0.00318831
0.00672589
0.00593063
0.00218452
0.00461946
0.00223773
0.000394171
0.00320077
0.00186434
0.000760414
0.000726798
0.000665219
0.00672348
0.000353619
0.00255528
0.000648985
0.000695302
0.00307039
0.000614803
0.000549066
0.000667518
0.000856529
0.00672338
0.0025778
0.00192714
0.00354209
0.00255908
0.00862537
0.00672014
0.00041198
0.0067212
0.00200278
0.00674724
0.00189612
0.000365708
0.00237109
0.000918406
0.00123062
0.000243426
0.00487356
0.00672135
0.000230277
0.00274237
0.00124851
0.000713444
0.00672627
0.000314962
0.00671839
0.00233184
0.00672912
0.000504157
0.000288267
0.000138612
0.000137978
0.00137029
0.00341561
0.00116898
0.000290955
0.00672575
0.00110111
0.000953162
0.00557392
0.000853793
0.000196084
0.00672252
0.000411321
0.0003677
0.00312181
0.0023442
0.00111369
0.000534981
0.00671696
0.00158994
0.00213971
0.00368822
0.00568377
0.00411633
0.00671625
0.000396753
0.00641212
0.00672305
0.000509736
0.00299617
8.33585e-05
0.00032411
0.00671631
0.00494128
0.000951113
0.00143505
0.00305604
0.000697987
0.00361562
0.0037193
0.00672096
8.53011e-05
0.00672389
0.000954579
0.00395699
0.00385771
0.00136114
0.000759295
0.00672361
0.000363202
0.000568094
0.000390719
0.00114186
0.000657768
0.0018078
0.000402414
0.000537069
0.00168085
0.000773336
0.000526103
0.00286202
0.00190593
0.00365164
0.00419712
0.000589865
0.00672014
0.00296164
0.000155711
0.000171457
0.000391998
0.00673447
0.00248352
0.00674416
0.00671855
0.000282373
0.00106439
0.0044019
0.00601761
0.00671673
0.00481709
0.00046862
0.00673407
0.00671875
0.000183632
0.00479426
0.00492419
0.00209132
0.000931504
0.0067166
0.00460893
0.00672373
0.000452451
0.00671498
0.00134174
0.00572521
0.00151208
0.00672249
0.00670972
0.000269079
0.00133995
0.00354579
0.00671811
0.000377456
0.000539684
0.0065054
0.00196717
0.00305659
0.00671626
0.00335155
0.00672231
0.000265143
0.00222981
0.00345494
0.00672327
0.00674587
0.00058275
0.000207944
0.00559995
0.00104409
0.0046939
0.00549162
0.00672536
0.00134595
0.000180087
0.00195783
0.000467054
0.00168149
0.00614616
0.00410944
0.00568213
0.00672338
0.00272518
0.000833584
9.92319e-05
0.00672152
0.00672169
0.00245486
0.0067208
0.00145616
0.000115094
0.000365275
0.00485784
0.00671416
0.000131772
0.000736815
0.00672639
8.32992e-05
0.00528042
0.00322859
0.00442876
0.000792899
0.00672129
0.00557289
0.00479019
0.00159932
0.000755822
0.000752896
0.00672193
0.00671516
0.000160429
0.00392637
0.00137018
7.67511e-05
0.00671434
0.00672592
0.0036112
0.000452639
0.00420406
0.000244488
0.000462786
0.000186754
0.00672134
0.000430161
0.00100613
0.000511867
0.00201155
0.000821158
0.000447874
0.00672276
0.00375562
0.00672578
0.000508165
0.000240173
0.00672598
0.00672584
0.000249905
0.00559501
0.000230704
0.00675311
0.00414187
7.18889e-05
0.00101002
0.006717
0.00177931
0.000687218
0.000606825
0.00671858
0.000900013
0.00056054
0.000555931
0.00673264
0.00674126
0.00041438
0.00224208
0.0067196
0.00672609
0.000133938
0.00461934
2.52808e-05
0.000689055
0.00157429
0.000874615
0.000366258
0.00673161
0.00338162
0.00671533
0.00672904
0.000696986
0.00672389
0.00671379
0.00332112
0.00672845
0.00671968
0.00599205
0.000544993
0.0024892
0.00672404
0.00672575
0.00229529
0.00194808
0.00102647
0.00154507
0.00671929
0.00671541
0.00141782
0.00254843
0.00185496
0.00164897
0.00567281
0.00656227
0.00672029
0.00226294
0.00671752
0.000100353
0.00394143
0.00671543
0.0067166
0.000252907
0.000964731
0.00268398
0.00672525
0.000362206
0.000209749
0.0067213
0.000854121
0.00672485
0.00671783
0.00672594
0.000130029
0.00058785
2.46148e-05
4.57128e-05
0.00264527
0.000353947
0.00319718
0.000720052
0.00443568
0.00203136
0.00555724
0.00672416
0.00520839
0.000563408
0.00599388
0.000171573
0.000368927
0.00671952
0.00274386
0.00672372
0.0012573
0.00672122
0.000728016
0.005237
0.00109548
0.00672209
0.00346355
0.00672069
0.00053269
0.00671817
0.00103199
0.000869658
0.00672407
0.000422736
0.00118192
0.00672504
0.00479947
0.00672063
0.000604809
0.00672364
0.00431109
0.000333382
0.00110979
0.00327174
0.000621416
0.0067254
0.0011431
0.000170195
0.000242088
0.00671907
0.00331028
0.000851544
0.000495988
0.00544155
0.00543517
0.00671694
0.00671637
0.00140528
0.00310997
0.00410409
0.00112208
0.000788993
0.00158326
0.000970707
0.00147942
0.0067206
0.00155501
0.00672051
0.00115309
0.00283616
0.000133723
0.000970601
0.00672327
0.000965108
0.0067259
7.2764e-05
0.00671518
0.00171862
0.00671023
0.00474254
0.0067193
0.0028129
0.00672946
0.000481235
0.00255252
0.00463947
0.00147671
9.41036e-05
0.000759837
0.00168968
0.000617633
0.00671042
0.000425921
0.00347172
0.00672305
0.00513576
0.00182232
0.00672631
0.000316678
0.000816525
0.000481936
0.00274413
0.0001674
0.00411285
0.000601385
0.00122604
0.0029883
0.00671685
0.00672667
0.00672577
0.00141626
4.39482e-05
0.000519516
0.000266092
0.000105146
0.000909114
0.0012496
0.0067233
0.00161443
0.00222264
0.00071948
0.00672192
0.00107101
0.00596949
0.000884466
0.00672177
0.000387327
0.00671583
0.000417968
0.00280024
0.00672413
0.00672124
0.000135035
0.00227855
0.00672093
0.000425485
0.00130891
0.000575539
0.000668584
0.00131146
0.00577535
0.00074569
0.00671613
0.0037355
0.00671522
0.00671669
0.000972357
0.00350464
0.00149375
0.00014898
0.00672363
0.00023253
0.000654877
0.000458887
0.00412622
0.000928542
0.00672487
0.000407172
0.000877983
0.000573757
0.00025315
0.000262339
0.000123296
0.00468696
0.000443494
0.00104323
0.000607651
0.00656362
0.00671553
0.00672457
0.0046238
0.00672145
0.00673104
0.00489309
0.00671814
9.72534e-05
0.00103858
0.00049287
0.000282558
0.00672565
0.00496286
0.000159292
0.000483969
0.00424362
0.000834661
0.00671667
0.00498147
0.000706215
0.00673317
0.00601599
0.000329466
0.0067199
0.00675252
0.00515408
0.00163643
0.000251493
8.80589e-05
0.000466935
2.74879e-05
0.00130962
0.00671999
0.00012251
0.000771328
0.00672145
0.000283515
0.00164338
0.000221011
0.00305823
0.000496081
0.00116523
0.0024519
0.00232079
0.000478737
0.000780001
0.000205177
0.0010863
0.000232768
0.00168901
0.00672974
0.00338827
0.00259804
0.000225162
0.00194564
0.000832079
0.000993677
0.000504078
0.00671814
0.00672311
0.000135048
0.00168744
0.00138002
7.71996e-05
0.00118916
0.0067243
0.0023359
0.000377174
0.00671919
0.00671892
0.000701278
0.00507759
0.00550118
0.0067195
0.000790329
0.00334959
0.00268941
0.00360329
0.002172
0.00085158
0.000424302
0.0067301
0.00672048
0.00445367
0.00129855
0.00215738
0.000826178
0.000583432
0.00672063
0.00138216
0.00300158
0.00108243
0.00364519
0.000636996
0.00321963
0.000978257
0.00672246
0.00132064
0.00167872
0.00282999
0.0017696
0.00671887
0.00676221
0.000649504
0.00155125
0.000402856
0.00671441
0.000434387
0.00673118
0.000971326
0.00671391
0.00672083
0.00300423
0.000933112
0.00455955
0.00114606
0.00433868
0.000160307
0.00672184
0.00672309
0.000409113
0.000404561
0.0025071
0.00107579
0.00672397
0.00672247
0.000450837
0.00212656
0.00349575
0.000550922
0.00673466
0.00183027
0.000139316
0.000439216
0.000785939
0.00672404
0.00655042
0.00611051
0.000196791
0.000598399
0.000840183
0.00118639
0.0025352
0.00672604
0.000130337
0.00672632
0.000368039
0.00671988
0.00311161
0.000529349
0.00672456
0.000335528
0.00136549
0.000569866
0.00628848
0.00672322
0.000170435
0.000387558
0.00672721
0.00672005
0.00673499
0.000498602
0.00671656
0.0067246
0.00671843
0.0057344
0.00210758
0.000315808
0.00672202
0.00399926
0.00672197
8.68805e-05
0.00671965
0.000713812
0.00672556
0.00675986
0.000510342
0.000641282
0.00351799
0.000924516
0.00444832
0.000933011
0.0042133
0.000211939
0.00397792
0.00624723
0.00083011
0.00259021
0.000305131
0.000271589
0.00574725
0.00186576
0.00380358
0.00673469
0.00671992
0.00477199
0.00159083
0.00671763
0.0067197
0.00672126
0.000608052
0.000746168
0.000427788
0.00672466
0.000312907
0.000459688
0.000943873
0.00055731
0.00671919
0.00200424
0.00672186
0.00127428
0.000310268
0.000505432
0.00671823
0.000591975
0.00672233
0.00672547
0.00347152
0.000898639
0.000257021
0.00545483
0.000290028
0.0037462
0.00672546
0.0067235
0.00672807
0.000566212
0.0010326
0.000201975
0.000174105
0.00629892
0.000103924
0.000978357
0.00672341
0.00671471
0.00671732
0.00673296
0.000409226
0.0067269
0.00672441
0.000186446
0.00058792
0.003365
0.000166787
0.000546029
0.000140394
0.00682316
0.000549526
0.0037984
0.0001598
0.000817485
0.00037788
0.00671332
0.00672194
0.00063088
0.00215314
0.00671518
0.00174282
0.00178174
0.00671719
0.000718461
0.00265606
0.0012171
0.000170073
0.00306871
0.00674659
0.00341494
0.000875485
0.00492042
0.0067184
0.0067201
0.000519716
0.00124963
0.00672276
0.00672538
0.00672445
0.000346779
0.000455604
0.00147633
0.00363471
0.000302675
0.000903669
0.00424026
0.000247041
0.000627919
0.000414911
0.00299003
0.00309917
0.00582551
0.0067336
0.00672517
0.00149018
0.00672157
0.00067999
0.000494299
0.00678137
0.00332394
0.000916568
0.00672521
0.00146795
0.00352506
0.00200917
0.0058284
0.00392296
0.00280898
0.000578651
0.000164237
0.00118014
0.000169306
0.0004771
0.00673057
0.00554952
0.000844063
0.00184616
0.00119872
0.000239999
9.37075e-05
0.0014709
0.000853997
0.00590177
0.00424584
0.00409404
0.00672131
0.000308741
0.00672084
0.000383327
0.00339769
0.00535411
0.00048007
0.00672555
0.00671515
0.00039524
0.00671461
0.00051765
0.00539224
0.00367444
0.000551804
0.00139318
0.00117035
0.0067367
0.00138175
0.00671863
0.00213063
0.00229206
0.000510067
0.00119421
0.000554127
0.00672332
0.00672315
0.00341785
0.00066234
0.00083179
0.00671937
0.00123201
0.00334451
0.000248629
0.00484806
0.00527323
0.00671725
0.00640978
0.000212967
0.00672291
0.00115302
0.00454576
0.00672597
0.0059246
0.00680722
0.00479454
0.0029087
0.00672324
0.00155092
0.0067487
0.000168445
0.000348178
0.0067119
0.000286628
0.000787408
0.00672631
0.00673841
0.00461776
0.000717999
0.00159394
0.00037184
0.0034127
0.00672286
0.000433846
0.00335418
0.00359895
0.00155858
0.000600935
0.00486365
0.0067221
0.000523161
0.00578627
0.000397754
0.00232592
0.00671838
0.00671858
0.00416786
0.000451141
0.00235225
0.000138166
0.00676026
0.000446127
0.000366976
0.0029773
0.000790721
0.00139362
0.000522604
0.000539525
0.000823501
0.00672163
0.00674546
0.00672116
0.000757775
0.00145565
0.000926425
0.000892819
0.00671914
0.00108459
0.0067408
0.00674084
0.000560684
0.00671994
0.00672023
0.00201738
0.00672094
0.000296024
0.000106042
0.00237852
0.00671973
0.0046054
0.000170363
0.00552766
0.00457471
0.000293859
0.000508371
0.000318291
0.00302834
0.00672741
0.000309997
0.00233757
0.00017229
0.00138494
0.00671847
0.00348569
0.00328377
0.00673267
0.000145579
0.000850976
0.000478875
7.0461e-05
0.000275203
0.00674819
0.000637745
0.000493974
0.00399787
0.00076783
0.00672313
0.00256881
0.00672196
9.4842e-05
0.00343361
0.00672124
0.000611209
0.00671698
0.000535307
0.00671473
0.00284143
0.00655783
0.00114524
0.00110217
0.00672153
0.00437857
0.000844606
0.00241668
0.00671089
0.000613495
0.00672305
0.00403593
0.00140371
0.00673749
0.000725769
0.00459306
0.00676241
0.00117488
7.1772e-05
0.00673193
0.00672464
0.00347598
5.32842e-05
0.00672121
0.00672443
0.00642411
0.000105691
0.00321042
0.00671466
0.00671625
7.57464e-05
0.0013487
0.00672406
7.44509e-05
0.00101977
0.000459594
0.00387862
0.0002453
0.000355669
0.00671879
0.0067168
0.000719911
0.000410509
0.00164571
0.00459612
0.00191964
0.00190596
0.000261989
0.0067228
0.00468989
0.00438502
0.00672404
0.00133428
0.00346264
0.00410442
0.00672098
0.000355574
0.0013281
0.000473757
0.000310573
0.000224149
0.00671853
0.00674911
0.00233474
0.00672926
0.000744954
0.00116393
0.00259107
0.00249569
0.00387121
0.000921857
0.00672106
0.00674029
0.00283134
0.00231225
0.00495354
0.00671827
0.00115588
0.000117758
0.00070636
0.0067184
0.00266749
7.3358e-05
0.00153315
0.00229338
0.00268645
0.00035559
0.000144337
0.0012868
0.00395919
0.00020403
0.00671616
0.00672192
0.00151516
0.00672391
0.00576455
0.000468354
0.00676431
0.00672415
0.00132073
0.00141252
0.000138199
0.00442668
0.00106538
0.00511565
0.000673319
0.000336148
0.00671707
0.00672409
0.00671421
0.00361782
0.00128673
5.06731e-05
0.000283276
0.00671841
0.00671973
0.00671757
0.000141615
0.000237737
0.000209083
0.00297302
0.00185913
0.0036357
0.00033747
0.00672066
0.00671447
0.000790729
0.00671426
0.000629104
0.00142329
0.00672135
0.00139913
0.0067258
0.000516295
0.000151724
0.000154462
0.00671838
0.00176256
0.00145597
0.00672293
0.000489942
0.00405429
0.000909542
0.00021462
0.00396262
0.00671816
0.00671458
0.00121342
0.000591158
0.00544444
0.00671666
0.000279674
0.0011845
0.000144603
0.00036593
0.0010138
0.00671653
0.00611886
0.00204836
0.00416755
0.0063847
0.000338179
0.00507439
0.00133143
0.000410928
0.000875253
0.000326677
0.000298887
0.00673162
0.0067256
0.00671761
0.00672591
0.00167951
0.00011199
0.00164473
0.0014387
0.00401775
0.000552877
0.000525795
0.00677268
0.00323612
0.00252179
0.00671831
0.000521157
0.000242237
0.000430967
0.00675278
0.00101247
0.00672324