/*--------------------------------*- C++ -*----------------------------------*\
| =========                 |                                                 |
| \\      /  F ield         | OpenFOAM: The Open Source CFD Toolbox           |
|  \\    /   O peration     | Version:  v2012                                 |
|   \\  /    A nd           | Website:  www.openfoam.com                      |
|    \\/     M anipulation  |                                                 |
\*---------------------------------------------------------------------------*/
FoamFile
{
    version     2.0;
    format      ascii;
    class       surfaceScalarField;
    location    "300";
    object      phi_0;
}
// * * * * * * * * * * * * * * * * * * * * * * * * * * * * * * * * * * * * * //

dimensions      [0 3 -1 0 0 0 0];
oriented        oriented;


internalField   nonuniform List<scalar> 
27688
(
-0.290587
0.175097
0.11549
-0.0100262
-0.0506607
0.0606869
-0.184722
-0.0229559
0.207678
0.289815
-0.191039
-0.098776
0.120342
0.139372
-0.259714
0.170384
0.048551
-0.218935
-0.00918461
-0.0479944
0.057179
0.0121576
-0.0147558
0.00259817
-0.0505873
0.0761712
-0.0255839
-0.00385572
0.0786873
-0.0748315
0.260884
-0.140542
-0.118635
0.228805
-0.11017
-0.0431445
0.422185
-0.379041
0.104188
-0.229259
0.125071
0.215896
-0.278793
0.0628969
-0.00320446
0.173588
-0.198958
-0.0303934
0.229351
-0.1552
-0.135388
-0.24961
-0.100541
0.350151
0.0623753
-0.0104629
-0.0519124
0.319196
-0.1033
-0.0199506
0.0235616
-0.003611
-0.486326
0.139848
0.346478
-0.240369
0.121734
0.0148002
0.0347639
-0.0495641
-0.0795791
0.0289918
-0.0774255
0.082682
-0.00525655
0.0335193
0.0212719
-0.0547913
0.0730719
-0.0674544
-0.00561753
-0.257815
0.0730928
-0.206901
0.115486
0.0914154
-0.080127
0.235787
-0.15566
0.0695973
0.0502068
-0.119804
0.19249
0.192125
-0.384615
-0.185841
0.0928585
0.0929823
0.0569582
-0.0461994
-0.0107588
0.294695
-0.159566
-0.135128
-0.00919062
-0.0557765
0.0649671
-0.00573857
0.0178962
-0.294586
-0.19174
0.00116171
-0.00119381
3.2095e-05
0.0249004
-0.0240357
-0.000864715
0.00101838
0.0283215
-0.0293399
0.0367063
0.00199487
-0.0387012
0.0617182
0.0692221
-0.13094
-0.0149852
-0.0904588
0.105444
-0.00378804
-0.0126639
0.0164519
0.12419
-0.0535545
-0.0706352
-0.0836981
0.0858505
-0.00215238
0.0506699
0.00533235
-0.0560022
-0.0836026
0.0061771
0.0972634
-0.194468
0.0972043
-0.00026568
-0.0763292
0.0765949
-0.0751968
0.0763029
-0.00110614
-0.067544
0.0595356
0.00800845
0.0581739
-0.0673645
-0.00421581
0.0844277
-0.0802119
0.0921262
-0.0156246
-0.0765016
0.000766143
0.000395568
-0.0669207
0.0613026
0.00561818
0.00655969
-0.00721273
0.000653045
0.0685247
-0.0216758
-0.0468489
-0.079333
-0.00436517
0.507325
-0.475035
-0.0322903
-0.0670565
0.0756256
-0.00856912
-0.0770931
0.0868715
-0.00977847
-0.0616316
-0.00528919
0.071779
-0.140473
0.0686939
-0.343682
0.300537
0.00140156
-0.000635418
0.0896317
-0.0757081
-0.0139236
0.0444134
-0.294023
0.252509
-0.451732
0.199223
0.049109
-0.0693008
0.0201918
-0.0114604
0.0114604
0.0171269
0.0398313
-0.478947
0.276856
0.20209
0.298476
-0.245291
-0.0531852
-0.176896
-0.205968
0.382864
0.00653822
-0.0836313
0.0980556
0.0492579
-0.147314
-0.186367
0.378857
-0.27072
0.257762
0.0129581
-0.172382
0.106894
0.0654881
0.002129
-0.0220796
0.192084
-0.312377
0.120293
-0.00824655
-0.0580228
0.0662694
-0.000539809
-0.000653997
0.0263151
0.0422095
0.00120724
-0.0059847
0.00477745
0.171431
-0.342975
0.171544
-0.000686924
0.00724661
-0.0176186
-0.0478227
0.0654412
-0.152093
0.383653
-0.23156
-0.00109326
0.0103245
-0.0092312
-0.0738056
0.0336739
0.0401317
0.141269
0.0621505
-0.203419
0.0713042
-0.0658861
-0.0054181
0.0168785
0.400159
-0.417038
-0.000441423
0.0243192
-0.0238777
0.0556283
-0.00495849
0.00674092
0.000502519
-0.00724344
-0.233803
0.153676
0.0569994
-0.074618
0.0311217
0.0419502
0.0898645
-0.077244
-0.0126205
0.065555
-0.0507549
0.280794
-0.528185
0.247391
-0.0348698
-0.0389358
-0.0875122
0.0526423
-0.00190451
0.00157958
0.000324924
-0.0591021
-0.0790725
0.138175
0.0185244
-0.0223124
0.0367063
-0.368918
0.274867
0.0940513
0.417808
-0.284054
-0.133754
0.0451441
-0.0543287
0.234293
0.0555219
0.0754013
-0.075667
0.0160129
-0.0160129
0.0836791
-0.194094
0.110415
-0.0926439
-0.0860206
0.178665
-0.0603996
0.131684
-0.0712849
0.17222
0.0527553
-0.224976
0.0841793
0.0132099
-0.0973893
0.0796002
-0.0738446
-0.00575564
-0.0526541
0.14432
-0.0916659
0.00177561
-0.0688321
-0.00111458
-0.067332
0.0684466
-0.0150352
-0.0670249
0.0820601
-0.0271278
-0.00191962
0.0290474
0.0182027
0.0313905
-0.0495932
0.0564202
0.00595516
-0.0893213
0.0851055
-0.140836
0.354271
-0.213435
-0.0670357
0.123423
-0.0563873
-0.376453
0.222088
0.154365
-0.000933778
-0.000970727
0.0290978
-0.031504
0.00240615
-0.327294
0.248418
0.0788766
0.0108419
-0.0128483
0.00200635
-0.0417848
-0.0457274
0.213307
-0.390203
-0.434974
0.0501504
0.384824
-0.158456
0.0993538
-0.234041
-0.134877
-0.386791
0.464761
-0.0779702
-0.23235
-0.0383704
0.339769
-0.322891
0.0828189
-0.20323
0.120411
0.0410382
-0.0704467
0.0294085
0.162269
-0.285934
0.123664
0.0461893
-0.113579
0.06739
0.223271
-0.151625
-0.0716459
-0.175539
0.115139
0.0129625
-0.00212054
-0.00576099
0.045039
-0.039278
0.11438
-0.0794274
-0.0349523
0.103219
-0.22401
0.120791
0.0335054
0.0927827
-0.00860335
-0.055185
0.128239
-0.073054
-0.0509549
0.0562984
-0.00534341
0.0425795
-0.0706112
0.0280317
0.302011
-0.219263
-0.0827477
-0.163686
0.108663
0.0550227
-0.105595
-0.0667868
0.0173224
-0.0185732
0.00125076
-0.177723
-0.0676211
0.245344
0.069736
0.00156822
0.439541
-0.310827
-0.128714
-0.047791
0.117388
-0.0781905
0.0856642
-0.00747364
-0.0654678
0.0765814
-0.0111136
0.0251875
-0.0241692
0.275694
-0.10099
-0.174704
-0.0706264
0.0436288
0.0269976
0.164237
0.0590348
0.275981
-0.527487
0.251506
-0.134584
0.0347577
0.0998264
-0.0215971
0.0626353
-0.112742
-0.0730983
0.0609447
-0.0274253
-0.200689
0.421809
-0.22112
0.305342
-0.498907
0.193565
0.102583
-0.108518
0.00593454
-0.020367
0.0629465
0.0477218
0.0080339
-0.0557557
0.0595129
-0.0677594
-0.137508
0.241696
0.425513
-0.236846
-0.188668
0.120324
-0.0476008
-0.0727237
-0.0873375
-0.0763481
0.0454596
-0.244417
-0.179509
0.392817
0.0693595
-0.0263976
-0.0429619
-0.231915
-0.0953796
-0.0656323
-0.012363
-0.00658429
0.0189473
0.155476
-0.0937578
0.0810231
-0.0014229
-0.0301868
0.0351382
-0.00495149
0.0655112
-0.0479903
-0.0175209
0.0054507
-0.0178137
-0.0302623
-0.0403641
-0.190298
0.104103
0.0861947
-0.0124879
0.0138136
-0.00132571
-0.00455079
0.0112917
0.308091
-0.494867
0.186776
-0.238141
-0.153002
0.391143
0.00326173
0.0627933
-0.0660551
-0.0711866
0.0744484
-0.150907
0.0355505
0.115356
0.0504135
-0.437205
0.112541
0.112568
-0.22511
-0.271743
0.524849
-0.253107
-0.0586917
0.00426436
0.0544274
-0.0765255
0.0345732
0.0419524
0.112614
0.0723135
-0.184927
-0.108433
-0.0965769
0.20501
0.21567
-0.132851
-0.0774834
0.024851
-0.0155487
-0.00930231
-0.484609
0.363056
0.121553
0.000819096
-0.000706397
-0.000112699
0.140744
0.161267
-0.177815
0.0851711
-0.0855459
0.00715049
0.0783954
0.067006
-0.0681206
-0.060303
0.132082
-0.127058
-0.0273424
0.154401
0.0532788
-0.125562
0.0722828
-0.167422
0.448216
0.000474563
-0.108203
-0.0263809
0.159619
0.211183
-0.370802
0.292109
-0.4632
0.171091
-0.0488273
0.0731264
-0.0242992
0.0550483
-0.102179
-0.0792
0.181379
-0.0602034
0.0501771
-0.120625
0.217888
-0.181407
0.42087
-0.239463
-0.0146643
0.0142229
0.0729154
0.0192108
-0.112387
0.10205
0.0103374
0.0139986
0.0553609
0.403631
-0.244012
0.0012675
-0.000638514
-0.000628986
-0.22126
-0.0216004
0.242861
-0.382996
0.230902
-0.0220069
0.0259487
-0.00394176
0.0690048
0.0528098
-0.0346072
0.106622
-0.0244824
-0.0821397
-0.129178
0.0765237
0.0700439
-0.0631879
-0.00685598
-0.212248
0.371109
-0.158861
0.111532
-0.404786
0.293254
0.0968878
-0.205321
0.115292
0.159575
-0.0508024
-0.00788936
-0.0417616
0.100466
0.0521483
-0.152614
-0.0187388
0.0236646
-0.00492577
-0.0659173
0.0448696
0.0210477
-0.0645229
0.0752723
-0.0107494
-0.118284
0.0647292
-0.0701618
0.0822063
-0.0120445
0.123231
-0.0684982
-0.0547329
-0.0802952
-0.00525074
-0.221843
-0.15461
0.0722985
0.0912933
-0.163592
0.249738
-0.134446
0.275665
0.163876
0.118019
-0.124277
0.00625818
-0.119425
0.105152
0.0142732
-0.229224
0.161388
0.067836
-0.227767
0.0935248
0.134242
0.00799891
0.0168521
-0.224971
-0.173748
0.398719
-0.0801195
-0.0133523
0.0934717
-0.257331
0.0971404
0.160191
0.0665886
0.101743
-0.168332
-0.0225268
0.0141134
0.00841342
0.0355753
-0.256836
-0.335917
0.262293
0.0736237
0.00694278
0.0676964
-0.0746392
-0.0743511
0.089341
-0.0149899
-0.0863077
0.073884
0.0124238
-0.125967
0.281363
-0.155396
0.082046
-0.00216972
-0.0798763
-0.317989
0.214851
0.103137
0.108444
-0.062255
-0.030583
0.0342452
-0.00366221
-0.0749856
0.00951783
-0.0129296
0.0118363
-0.0488453
-0.00623235
0.0550777
-0.0435776
-0.00737739
-0.121316
-0.10908
0.230396
0.0147534
0.0878299
0.0750608
0.432264
-0.116719
0.0447761
0.0719428
-0.0870612
-0.103237
-0.43234
0.221346
0.210994
0.434767
-0.126675
0.269866
-0.212656
-0.0572102
-0.00186588
0.0293935
-0.0275276
0.00868098
-0.045187
0.039426
-0.060182
0.0701903
-0.0100083
0.360492
-0.24896
0.0593135
-0.0115917
-0.326964
-0.157646
0.453027
-0.271391
-0.181636
-0.0400849
-0.19183
0.185131
-0.118542
-0.126914
0.0483308
0.0785834
0.019078
-0.094395
0.0753169
0.00744764
0.0497648
-0.0572124
-0.344593
0.395007
0.0501061
-0.0717032
-0.294689
-0.0952477
0.389936
0.00395154
-0.0341383
-0.224265
0.453835
-0.22957
0.0519187
0.0041129
-0.0560316
0.0518274
-0.0721943
-0.219891
0.179806
-0.0666673
-0.11569
0.182357
-0.00456302
-0.0460292
0.0505922
-0.0579904
-0.0439328
0.101923
-0.0336196
0.00303661
0.106864
0.163003
0.254694
0.198333
-0.108522
0.0414862
0.352787
-0.130699
-0.0626761
-0.00266407
0.0653401
-0.037376
-0.113531
-0.182671
0.0804917
0.0422718
-0.0572497
0.0149779
-0.0590957
0.090616
-0.0315203
0.0838864
-0.00775695
-0.0761295
0.0305829
-0.00148509
-0.0782804
0.0755674
0.00271306
-0.248628
-0.183712
0.0933677
-0.0778909
-0.0154768
-0.0741654
0.154087
-0.0799215
-0.0702017
0.0823817
-0.01218
0.0903395
-0.00829347
0.123222
-0.114139
-0.168827
0.282967
0.153729
0.0869129
-0.240642
0.0614097
-0.0520248
-0.00938483
-0.287542
-0.121679
0.409221
-0.122236
0.27032
-0.148084
0.432881
-0.127539
-0.451233
0.156544
0.0312438
-0.0148051
0.187025
0.169866
-0.0975671
0.196702
-0.396727
0.200025
-0.0136014
-0.00892546
0.0218441
0.00305629
-0.0984261
0.0187616
0.0796646
-0.000636225
-0.0232638
0.0239
0.00482278
-0.39285
0.211442
-0.245102
0.497612
0.0812798
-0.0851355
-0.0677087
0.0188814
0.334272
-0.162841
-0.126329
-0.191659
0.0317766
0.0442615
0.0802518
-0.124513
-0.472683
0.12809
0.231859
0.0666172
0.0853286
-0.00895924
-0.0763694
-0.0263689
0.138982
0.174933
-0.399904
-0.0569635
-0.0539967
-0.0710948
-0.00718562
-0.383406
0.0154789
0.367927
-0.218091
-0.117826
0.119619
-0.186287
-0.0772769
0.0020801
0.186432
-0.382022
0.19559
-0.0779189
-0.00841742
0.0863363
-0.0395252
0.0349621
0.208622
-0.0825077
0.00238823
-0.0125132
0.17675
-0.151779
-0.173322
0.325101
-0.041878
-0.0285687
0.000333721
-0.276435
0.162296
-0.00430085
0.0508822
-0.0465814
-0.00453878
-0.00267395
0.0566246
-0.00581115
-0.0508134
-0.208462
-0.218134
0.426597
0.0299556
-0.0318215
-0.303725
0.177396
-0.0760678
0.139323
-0.0632556
0.0781022
-0.144632
0.0665295
-0.0369107
0.041818
-0.00490731
-0.399942
0.25428
0.145662
-0.0288648
-0.0417464
-0.388339
0.166496
-0.0474056
0.1543
-0.0995968
-0.0273175
-0.366873
0.132832
0.142984
0.0580946
-0.201078
0.0927841
-0.309684
-0.0902579
-0.108141
0.261869
-0.170162
0.0645666
-0.0812121
0.0982387
-0.0170266
0.172163
-0.410096
0.237933
0.0986179
0.0679304
-0.166548
0.0642184
0.0501614
-0.0639418
0.0691586
-0.307299
-0.0120869
-0.000761333
0.0734875
-0.146614
0.0731262
-0.0685666
0.137789
0.368139
-0.181707
-0.0358929
0.0323053
0.0035876
-0.0945644
-0.0759238
-0.0825321
-0.0522491
0.0700863
-0.0178371
0.00678303
-0.336383
0.184604
0.134992
0.236117
-0.100737
0.0857521
-0.428767
0.035249
0.393518
0.366696
-0.173796
-0.1929
0.0441757
0.0790554
-0.234336
-0.244611
-0.254777
0.0637249
0.191052
-0.0474929
0.0685956
-0.0211027
-0.0838773
0.0724727
0.0114046
-0.136546
0.0937443
0.0428013
0.0135447
-0.0657939
0.127694
0.148
0.0640688
-0.116385
0.0523162
-0.00717974
0.0212932
0.0184316
-0.0214388
0.117883
-0.0964446
0.0406613
-0.035514
-0.00514724
-0.0880379
0.077185
0.0108529
0.428465
-0.232448
-0.196017
-0.156653
0.0693154
-0.479035
0.207293
0.0912707
-0.0148602
-0.0764105
-0.0792415
-0.0236403
0.102882
0.239803
0.184755
-0.424558
-0.00739498
0.0669078
-0.199029
-0.167844
-0.113181
0.2164
-0.0787385
0.186927
-0.108189
-0.0183975
0.0165396
0.0018579
-0.0425987
0.00568804
-0.138468
0.0288349
0.109633
0.000802689
0.0554453
-0.056248
-0.239806
-0.176424
0.41623
-0.073274
0.0834137
-0.0101398
-0.158132
0.220282
-0.217758
0.457561
0.306151
0.17004
-0.0587478
-0.00383128
0.0625791
0.178155
-0.382725
0.20457
-0.0316643
-0.106803
0.032692
-0.112119
-0.158519
0.0825947
-0.0671245
0.0341867
0.0329378
0.153461
-0.116767
-0.036694
-0.15089
0.0719625
0.0789279
-0.010153
-0.0019339
0.145579
-0.0961862
-0.0493927
0.0162485
-0.0764305
0.0458924
-0.103883
0.0506872
-0.054988
-0.224226
0.147488
0.0767377
-0.0111583
0.0534301
-0.0851522
-0.115593
-0.0183198
0.0661638
-0.047844
-0.219202
0.0022934
0.124846
0.0205613
-0.145407
0.00831105
0.0761167
-0.0755462
0.138885
-0.0633387
-0.074616
0.0631972
0.0114188
-0.00164771
-0.131232
0.243774
-0.451521
0.18013
-0.00730372
-0.0236091
0.0309128
-0.0574744
0.0640874
-0.00661298
-0.0564972
-0.0230818
0.0230822
-0.0311746
0.00809245
-0.157452
-0.0667737
-0.443033
0.218768
-0.417991
0.0194459
0.398545
0.179504
0.129946
-0.30945
-0.0013735
0.188659
0.158854
-0.0807519
0.0154625
-0.19335
0.129771
0.0635784
-0.112882
0.0914434
0.0653575
-0.0577046
-0.0132743
0.0709789
-0.046731
0.000531632
-0.175054
0.371504
-0.196449
0.116853
0.0287255
0.154884
-0.094501
-0.060383
0.00300431
0.0903634
0.0318834
-0.313736
0.281853
-0.150931
-0.0479352
0.198867
-0.237634
-0.213887
-0.0787249
0.085353
-0.00662812
-0.0217315
-0.00128802
0.0230195
-0.0959939
0.238978
0.321902
-0.290018
0.0639016
0.00269189
-0.0665935
0.0903856
-0.0757606
-0.014625
0.165645
-0.252182
0.0865373
0.195168
0.0290223
-0.0280777
-0.000944625
-0.347956
0.112686
0.23527
0.00483932
0.0111736
-0.270799
0.498871
-0.228072
0.056484
-0.0653989
0.0089149
0.0153097
0.0291768
-0.0444865
-0.0892466
-0.0712994
-0.0853535
-0.0988405
0.0617175
0.0371231
-0.569426
0.357238
0.212188
-0.00584361
0.00130484
0.0581992
-0.197182
-0.179306
0.376488
0.112728
-0.234043
-0.113591
0.0670747
0.0465162
0.153873
-0.0534068
-0.0867561
0.0297926
-0.0773712
0.084314
-0.452504
0.274809
0.177695
-0.433303
0.198485
0.234818
-0.00329887
0.0653274
-0.0620285
0.0100369
0.0376178
-0.0476548
-0.20511
0.363778
-0.158669
-0.214424
-0.0429069
0.413296
-0.252054
-0.161242
-0.0876087
0.0757203
0.0118884
0.00748384
-0.0651885
-0.121093
0.313177
0.0712126
-0.00420654
0.151645
0.14282
-0.294466
-0.0278659
0.0278659
0.253145
-0.429569
0.008249
0.0674446
-0.0756936
-0.0332041
-0.0656365
0.0309336
-0.0303983
-0.00053528
-0.0934621
-0.0892086
0.0250806
0.0155806
-0.181937
0.0690546
-0.317653
0.200135
0.117518
-0.00601795
0.0810784
-0.0750605
-0.0390928
-0.120445
0.264062
-0.143617
0.0122199
0.283784
-0.176921
-0.538343
0.318836
0.219507
0.0204838
-0.0276635
-0.317764
0.0428245
0.274939
-0.0288979
0.0364605
-0.00756256
0.0373192
-0.014237
0.0245513
0.0448464
-0.0373987
0.0908942
-0.0821552
-0.00873898
-0.0395822
-0.0297186
0.130318
-0.268347
0.138029
0.126738
-0.0511742
-0.0755639
-0.100118
-0.0364274
-0.0389768
-0.0804487
-0.111401
0.193266
0.124902
-0.318167
-0.153286
0.283604
-0.056456
-0.271828
0.328284
0.200466
0.167673
0.00445465
-0.0032474
0.00694303
-0.0541606
0.0472176
-0.220208
0.421249
-0.201042
0.371007
-0.174305
-0.0911643
0.203732
0.213776
0.0809181
0.106393
0.0729606
0.0537776
0.00585501
-0.073187
0.0561978
-0.0489238
-0.00727404
-0.0666115
0.0804885
-0.013877
0.186501
0.221374
-0.407875
-0.165869
-0.170514
-0.0830552
-0.00626607
-0.0806304
0.212867
-0.132237
0.127502
-0.107721
0.0637884
-0.315287
-0.223056
-0.0743796
0.193999
0.409571
-0.13359
-0.132582
0.0533401
-0.0113199
0.0719048
-0.0605849
-0.0118613
0.0147166
-0.00285528
-0.00241428
0.0307358
-0.0106736
0.0558177
-0.00269907
0.0093572
-0.00665813
-0.538449
0.342361
0.196088
0.0586978
-0.0103788
-0.0358701
0.0462489
-0.171902
0.269042
-0.0833254
-0.0986113
-0.00029163
-0.15064
0.374293
-0.173827
-0.0623036
0.0143133
0.00729163
-0.318058
-0.251368
-0.0748989
0.0638385
0.0110604
0.130087
0.0890065
-0.219093
-0.136656
0.27619
-0.139534
-0.0693552
0.0619603
-0.205915
-0.142041
-0.0413041
0.128191
-0.0868868
0.0326326
-0.225767
0.193135
-0.0468234
-0.00646654
0.0532899
0.124382
-0.198762
-0.0257
0.0508252
-0.0251252
-0.067978
0.0204852
-0.010921
-0.0509552
0.0618762
-0.1799
0.141094
0.0388063
0.0529771
-0.0376674
0.0655543
-0.0805895
0.123317
0.109588
-0.232906
-0.122862
0.261334
-0.138471
0.0601917
0.00501321
-0.0652049
0.000983772
0.0497034
0.390665
-0.212511
-0.0572905
0.0614034
-0.0277729
-0.0295378
0.0573108
-0.26756
0.131134
0.136425
-0.0794452
-0.0935769
0.173022
0.116768
-0.161101
0.0443333
-0.0327793
0.00120992
0.0315694
-0.251495
-0.201009
-0.141441
0.293086
-0.0752425
-0.00348238
0.113188
-0.188765
0.0755776
-0.000212989
-0.0917392
0.0919522
0.200119
-0.420327
-0.0057825
0.0622665
0.0847244
-0.369003
0.284279
0.0954838
-0.27607
0.180586
-0.00338556
0.00472696
-0.0124047
-0.0604522
0.0728568
-0.326258
0.269802
0.21464
-0.40096
0.18632
0.0807705
-0.0963951
0.290469
-0.115371
-0.0574006
0.119278
-0.0618772
-0.54951
0.319555
0.229956
0.0576302
-0.0566464
0.0765793
0.0300556
-0.0288596
-0.00119602
0.317624
0.158567
-0.445791
-0.134781
-0.0944431
-0.461637
0.0266631
0.00984772
-0.0156155
0.0136556
0.00195992
-0.0396316
0.0618353
-0.0222037
-0.000570414
-0.0933976
0.00131625
0.0920814
0.000279287
0.050052
-0.0955789
0.0455268
-0.0941623
0.0800388
0.0141235
-0.325637
-0.223873
-0.072878
0.349734
0.00324043
0.0361716
-0.039412
-0.0102832
0.0603892
-0.311461
-0.00630281
-0.0711442
0.233269
-0.378738
0.145469
0.0614912
-0.0188569
-0.0426343
-0.169086
0.392023
-0.222937
0.320972
-0.225489
0.279865
-0.0826964
-0.197169
-0.0333432
-0.0310963
0.0644395
0.0311911
0.0230267
-0.0542178
-0.246003
0.0588949
0.187108
0.449477
-0.229302
-0.220175
0.244481
0.204995
0.0503922
-0.00969858
0.0615259
-0.152039
0.057948
0.0940913
0.0664457
0.0617933
-0.0811532
0.0717735
0.00937967
-0.135997
0.16236
-0.026363
-0.397532
0.218022
-0.0584699
-0.00260128
0.0269204
0.0680306
0.0663751
-0.134406
-0.200691
0.387193
0.24149
0.173297
-0.414787
0.150497
0.107265
0.0941606
0.0593007
-0.00107889
-0.0563955
-0.00834405
-0.000558096
0.00890215
0.0501123
-0.0676332
-0.135849
0.0646011
-0.0197315
0.17367
-0.350926
0.177256
0.010065
-0.385892
0.375827
-0.0632913
0.113498
-0.232623
-0.00624167
0.00208748
-0.0396115
0.0323078
-0.00232953
0.0208539
0.0556968
-0.111637
0.0559406
0.0214358
0.0399739
-0.129238
-0.113056
0.242294
0.215662
-0.18303
0.091967
-0.105584
0.013617
0.0165292
0.0731025
0.000424889
-0.0275527
-0.223037
-0.169812
0.117139
-0.0530704
0.00572135
-0.0475338
0.0418124
-0.102421
0.232508
-0.00163261
0.0288357
0.00121994
-0.38838
0.219293
0.535424
-0.302104
-0.23332
0.102527
0.0177977
-0.403915
0.220216
0.183699
0.155993
-0.00353531
0.0565124
-0.0543754
0.0325212
0.0218542
0.00189286
-0.00574106
0.00384819
0.00720061
0.059305
-0.0665056
-0.0777324
0.0804558
-0.00272341
-0.0255107
-0.0284695
0.000658421
0.027811
-0.338691
0.21269
0.126001
0.101855
-0.0247293
-0.0771262
-0.32666
0.160791
-0.143899
-0.0360013
0.0189848
-0.0222362
0.00325142
0.42173
-0.18024
0.0521412
0.000930448
-0.0530717
0.186241
0.104228
0.13311
-0.00142514
0.0548833
-0.0440198
0.0977571
0.0825389
-0.180296
0.536376
-0.314097
-0.222278
0.0949162
0.0117059
0.086112
-0.263835
-0.0664702
-0.00471645
0.0618285
-0.0016368
0.245189
-0.156183
-0.0727469
-0.0206508
-0.00309521
-0.511023
0.329246
0.181777
-0.0324075
-0.0836616
0.116069
-0.0524016
-0.0553195
-0.191014
0.37577
-0.187489
0.278752
-0.0912629
-0.224882
0.213526
0.0113564
0.00195228
-0.0473475
0.0553814
0.306098
0.217639
-0.450087
0.107404
-0.107617
-0.00366308
0.000277522
0.461774
-0.0709903
-0.390784
-0.110238
-0.193487
-0.00249419
0.00249419
0.176997
-0.37418
0.170897
0.221126
0.055211
-0.0609935
-0.0247834
-0.00368604
0.0630265
-0.00848214
-0.0545443
-0.415063
0.197305
-0.189046
-0.208486
0.00451459
-0.107669
-0.159891
-0.199839
-0.19698
0.396819
-0.00202998
0.0319332
-0.0299032
-0.0772424
0.0913891
-0.0141467
0.00415775
-0.0240449
-0.0434991
-0.0265614
0.110384
-0.0838225
-0.00288735
-0.243116
0.0773373
0.0527435
-0.130081
0.131554
-0.287066
0.155512
-0.0825704
0.0133736
0.320166
-0.146496
-0.00137668
-0.0100837
0.112272
-0.0559562
-0.0563159
-0.0499477
-0.120233
0.170181
-0.0361169
0.0354622
0.000654668
0.00149058
0.0631534
-0.0646439
0.042671
0.0630482
-0.105719
-0.080813
0.0530401
0.10124
-0.0455435
-0.150783
0.059044
0.149443
-0.231505
0.0974096
0.134095
-0.406509
0.217463
0.0509093
-0.202535
-0.183932
-0.0825603
-0.0562092
0.0856114
-0.132456
0.297475
-0.16502
-0.0325633
0.0382846
-0.0568523
-0.0527449
0.109597
0.0220021
-0.0240321
0.039755
-0.0504286
0.0601253
-0.123936
0.0638102
-0.0570938
0.0645776
-0.0737471
0.365856
-0.26473
-0.246293
0.143162
0.0867631
-0.229925
0.0531277
-0.0634109
0.00539542
0.117377
-0.213954
-0.0960187
0.24739
-0.151372
-0.0376226
0.0348471
0.00277549
-0.0938995
-0.173807
0.267707
-0.170223
-0.170581
0.340805
-0.231499
0.0733671
0.053493
-0.0631916
0.154358
-0.0962634
-0.0110416
-0.0393569
0.0503985
-0.255311
0.162036
0.0932743
0.0941394
-0.137135
0.0429957
0.0306801
-0.0330944
0.168325
-0.266283
0.172383
-0.367489
0.16238
-0.47598
0.188438
-0.00157376
0.00507513
-0.00350137
0.0486053
0.0109303
0.00689351
0.00206832
-0.00896183
-0.194025
-0.0252375
0.00223393
-0.00397647
0.00174254
-0.00556525
0.0275674
0.0023562
-0.0243631
0.0225181
-0.00353328
0.110635
-0.067964
0.0302564
-0.0304424
0.000186025
0.271172
-0.120643
-0.15053
-0.142027
0.0515681
-0.0988118
0.15554
-0.0567277
0.089478
-0.0743977
-0.0150803
0.0520671
-0.0629881
-0.124176
0.0421019
0.0653016
-0.0775286
-0.0732546
-0.0228164
0.0539381
-0.0868222
0.27587
-0.189048
0.160311
-0.312806
0.152496
-0.0308329
-0.00678973
-0.398106
0.197414
0.195953
-0.0100806
0.0442673
-0.0720227
0.204586
-0.132563
-0.0885547
0.0781188
0.0104359
-0.00724987
0.130557
-0.202579
0.135213
0.0315435
-0.166756
0.151464
-0.0162517
-0.257875
-0.0808165
-0.029388
-0.0829991
-0.0511011
0.119565
-0.0684638
-0.532992
0.317097
0.215896
-0.0525238
0.0261262
-0.0428281
0.0366617
0.00616633
-0.0595198
0.0677688
0.101346
-0.177452
0.0761063
-0.0334075
0.000628258
-0.0420022
-0.00482119
0.0288264
-0.10738
0.078554
0.301641
0.118395
0.170966
-0.289361
-0.0425823
-0.022224
0.0648063
0.293754
-0.211148
-0.0826063
0.221112
0.314312
0.109443
-0.24228
0.132838
0.163883
-0.296339
0.0989598
0.172212
0.398935
-0.21527
-0.236462
-0.101378
0.0480707
0.0533073
-0.30294
0.50525
-0.20231
0.33384
-0.323775
0.00830133
-0.0728242
0.152399
-0.297379
0.156543
0.520562
-0.201007
0.126945
-0.276662
-0.0137322
0.290394
-0.216333
0.0815521
-0.0971625
0.240325
-0.366447
0.19487
0.171576
-0.00869736
-0.0341307
0.0998486
0.068101
0.00311163
-0.429415
0.191781
0.174807
-0.0616194
-0.0794657
-0.067148
-0.18848
0.0950183
0.103483
-0.0746562
0.0217847
-0.146062
0.0392805
-0.0221536
0.0044089
0.00705146
0.025854
-0.0284553
0.407222
-0.234846
-0.172376
0.1412
-0.0624333
0.0228017
0.081158
-0.0507751
-0.0303829
0.00455345
-0.203508
-0.194598
-0.143787
-0.142146
0.0772227
-0.161187
0.0839638
0.144353
-0.273478
0.129124
-0.010111
-0.0324816
0.0425926
-0.0018532
-0.0110764
-0.140655
0.273631
-0.132976
-0.392356
0.115694
0.0234016
-0.0257311
0.00342727
-0.0015344
-0.075792
0.0912081
-0.0154161
0.0215526
0.0683119
-0.0357743
0.00687643
0.0139256
-0.00680821
-0.00711743
-0.00432633
-0.190896
0.195223
-0.0729056
-0.0675674
-0.0779418
-0.0164532
0.00756598
0.084401
-0.0701664
0.071657
-0.220859
0.124865
0.0961551
0.107905
-0.20406
0.0497127
-0.0185216
0.0316412
-0.0840429
-0.280659
0.244645
-0.409638
0.164993
-0.228824
0.12779
0.101034
0.221043
0.299519
0.173329
-0.0484827
-0.000392426
-0.0236432
0.0607567
-0.12234
0.0615831
-0.191997
0.299473
-0.107477
-0.0812958
-0.28116
0.113487
0.167673
0.106265
-0.168841
-0.0626631
-0.0369014
-0.017474
0.0312102
-0.00237449
0.108062
0.122431
-0.230493
0.0960558
-0.191114
0.0950578
0.00335578
0.0581354
-0.174464
-0.217106
0.0878685
0.184048
0.282642
-0.151088
0.00246148
0.0287487
-0.175973
-0.0517937
-0.073714
-0.0561281
0.129842
-0.212664
0.14455
0.0681139
0.000798346
-0.0026831
0.00188476
-0.308557
0.262491
-0.13044
-0.132051
0.00436923
0.0215795
-0.122702
0.10419
0.0185115
0.0339991
-0.440401
0.376055
0.064346
-0.0229071
0.0011756
0.183429
-0.383269
0.160279
-0.28552
0.125241
-0.0127134
0.00278271
0.00993073
0.205269
0.122027
-0.327296
0.0140174
-0.0158706
0.224565
0.196684
-0.00590867
0.0611196
0.0312364
-0.0331226
0.00188612
0.0802675
-0.0892438
0.00897631
0.00503345
-0.0418238
-0.00490721
0.00473474
-0.0819788
0.0274738
-0.241496
-0.187919
0.222925
-0.227252
0.410522
-0.185957
-0.0896727
0.0066175
0.427172
-0.240044
-0.187129
-0.0774296
-0.00194102
0.0793706
-0.0800579
-0.0140283
0.0783574
0.0120282
0.168261
-0.340472
0.172211
0.121724
-0.0796222
-0.215143
-0.188772
-0.497678
0.17962
-0.199624
-0.0252582
-0.222311
-0.228922
-0.0731928
0.171811
-0.154016
0.0552038
-0.183264
-0.183183
0.209671
-0.365647
0.155976
-0.0771486
0.0211356
0.056013
-0.486848
0.0464471
0.0172629
-0.0883753
0.0711123
-0.130285
0.0806735
-0.0315774
-0.0490961
0.332745
-0.198405
-0.134339
-0.0134897
-0.0241478
0.0376375
0.0155986
0.0605726
-0.0464187
0.0496591
0.0876659
-0.0768571
-0.0108088
0.114653
0.0647203
-0.014608
0.00533828
0.0119841
0.0524402
0.07008
-0.12252
0.00336478
-0.000758837
-0.00260594
0.394224
-0.157815
-0.236409
-0.0477243
-0.0145793
0.0168022
0.384148
-0.231542
-0.152607
0.0199108
-0.0946585
0.0747477
-0.124564
-0.0994459
-0.0296083
-0.00616604
0.0495473
0.0635684
-0.113116
-0.139854
-0.184434
0.324288
-0.0848782
0.329524
-0.0844743
-0.00519842
-0.156856
0.0760407
0.0808151
0.0341671
0.0465064
0.425904
-0.226753
-0.199151
0.0501906
-0.0705911
0.0204005
-0.0924245
0.325363
0.0964456
-0.000562281
-0.00136399
0.00192627
-0.20812
0.0506681
-0.149355
-0.0633009
-0.0428811
0.045817
-0.102669
-0.0516271
-0.094225
0.145852
0.000838161
0.0418242
0.0607026
0.32701
-0.123089
-0.203921
0.0708043
-0.0206138
-0.409784
0.206277
-0.246809
0.418184
-0.171375
-0.00551522
0.0850271
-0.0795119
-0.189577
0.10965
0.0799271
0.22775
0.156398
-0.0658435
-0.0106351
-0.106132
-0.0763084
0.0908473
-0.0145389
-0.0222401
0.00259405
0.019646
0.397569
-0.207281
-0.190288
0.0137651
0.171455
0.221761
-0.393216
0.466716
-0.256908
-0.209808
0.219653
-0.139846
-0.079807
-0.0140744
0.139798
-0.125724
0.189152
-0.111645
-0.0775075
0.0682422
-0.0100683
0.00283901
-0.0617478
0.0589088
-0.100724
-0.0219775
-0.237828
-0.295164
0.000162743
0.0540267
-0.0178101
-0.0362166
-0.0150254
-0.00354781
-0.107753
0.313021
0.35939
-0.166125
0.0821015
0.1147
-0.145093
0.197886
-0.0616861
-0.12249
-0.139466
0.125391
0.0749362
0.077522
-0.152458
-0.212099
0.130335
0.113192
-0.243528
-0.0950288
-0.12583
-0.198524
0.41874
0.133254
-0.0652231
-0.11323
0.257584
-0.125502
-0.162242
0.287744
0.00859382
-0.0843019
0.0512209
-0.057032
-0.0549593
-0.0464187
-0.0179487
-0.00429137
0.08988
-0.00961256
-0.0818525
0.0836755
-0.00182304
0.195917
0.034565
-0.0281936
-0.00637138
0.0610849
0.0145406
0.0249155
-0.0823161
0.141208
-0.0733462
-0.0678615
-0.0758832
0.073645
0.00223813
0.00460793
0.0299571
-0.0684809
0.014356
0.0541249
0.424418
-0.171273
0.0722166
-0.107169
0.00336326
0.00196576
0.00576239
-0.00772815
0.0674155
-0.00633058
0.312939
-0.174467
-0.138472
-0.00984842
0.07375
-0.0578331
-0.164351
0.0447904
0.149719
-0.236542
-0.0805394
0.0907629
-0.0102235
0.0728607
-0.147026
0.118761
-0.0458
0.127423
0.0617296
-0.0511208
0.114602
-0.0634812
-0.00177329
-0.00657076
-0.0588202
-0.00892291
0.0677431
-0.121965
-0.136335
0.2583
-0.111142
-0.159868
0.271011
0.238565
0.327293
-0.187817
-0.139476
0.0722243
-0.068131
-0.0040933
0.14427
-0.20459
0.0603203
0.0860367
-0.0766186
-0.00941815
-0.125741
-0.108349
0.305437
-0.14136
-0.164077
0.446662
-0.0244764
-0.304953
0.0598607
0.245092
0.0683935
-0.00560016
-0.125892
0.0521781
0.0791247
-0.00911167
-0.070013
-0.148345
0.283064
-0.134719
-0.253786
0.0597606
0.093603
0.00825248
0.06649
-0.0855607
0.0190707
0.0041997
-0.231375
0.444044
-0.212669
-0.279142
0.157177
0.0522807
-0.055816
0.17779
0.102075
-0.144552
0.339248
-0.194695
0.0904203
0.242981
-0.437267
0.194286
0.00307413
0.0197505
-0.0228246
-0.151047
0.314931
0.0852383
-0.0187483
0.00739172
0.0517605
-0.0591522
-0.236755
0.127675
0.0137174
-0.0106748
-0.0329818
0.0436566
0.458085
-0.213604
0.230412
0.211144
-0.441557
0.0627785
0.0516551
-0.114434
-0.156763
-0.155614
-0.00808977
0.0868804
-0.0787907
0.260885
-0.099079
-0.161806
-0.0565265
0.000893893
0.0556326
-0.00399219
-0.0739479
0.0779401
0.155726
0.133924
0.09381
-0.227734
0.00275604
-0.228197
-0.247783
0.00518125
-0.006755
0.00970448
0.0424367
0.163676
-0.289179
-0.0390917
-0.0472161
-0.0492374
0.0569327
-0.00769528
0.0843159
0.0320816
-0.0538026
0.021721
0.266098
-0.402111
0.136013
0.115889
-0.0657837
-0.0501055
-0.0871794
0.0113874
0.0585817
-0.004555
0.209458
0.137265
-0.0880069
0.160033
-0.117536
-0.0424965
0.152818
-0.0514723
-0.159035
0.322376
-0.163341
0.000271455
0.000458083
-0.000729538
0.00882467
0.088097
0.0659899
0.031395
-0.00113859
0.375823
0.156996
-0.0284907
-0.128505
-0.178765
-0.138889
-0.0968427
-0.0287189
-0.26562
0.139653
0.138089
0.124402
0.227337
0.309039
0.531947
-0.302365
-0.229582
-0.0603957
-0.0572321
0.000705578
-0.183258
-0.0319133
0.215172
0.1205
-0.241054
0.120554
-0.227253
0.124832
-0.00265073
0.0326063
0.0824778
0.0938599
-0.160283
0.0664234
0.00731939
-0.0452848
0.0538597
-0.00857492
-0.106663
0.0555425
-0.35656
-0.118475