/*--------------------------------*- C++ -*----------------------------------*\
| =========                 |                                                 |
| \\      /  F ield         | OpenFOAM: The Open Source CFD Toolbox           |
|  \\    /   O peration     | Version:  v2012                                 |
|   \\  /    A nd           | Website:  www.openfoam.com                      |
|    \\/     M anipulation  |                                                 |
\*---------------------------------------------------------------------------*/
FoamFile
{
    version     2.0;
    format      ascii;
    class       volScalarField;
    location    "100";
    object      epsilon_0;
}
// * * * * * * * * * * * * * * * * * * * * * * * * * * * * * * * * * * * * * //

dimensions      [0 2 -3 0 0 0 0];


internalField   nonuniform List<scalar> 
34253
(
4.73914e-06
4.07482e-06
4.57667e-06
2.35006e-06
1.74033e-06
2.42474e-06
2.12859e-06
4.02359e-06
1.7386e-06
0.0125224
2.13455e-06
0.0175735
3.31298e-06
0.062853
3.21164e-06
2.16337e-06
5.3144e-06
0.0111809
1.96756e-06
2.34249e-06
3.24518e-06
2.37062e-06
2.52244e-06
1.95029e-06
2.83908e-06
2.12824e-06
2.13535e-06
1.73911e-06
2.19507e-06
1.88661e-06
1.92e-05
2.88525e-06
1.74808e-06
3.54339e-06
1.97802e-06
0.0525
0.201755
1.72594e-06
2.77896e-06
1.73916e-06
0.0472633
1.43451e-05
0.0747639
0.0539283
0.00194375
3.22708e-06
2.48551e-06
2.53328e-06
1.85555e-06
1.74679e-06
4.10603e-06
2.58166e-06
1.37044e-05
0.00346404
2.53106e-06
2.04782e-06
2.13054e-06
1.76837e-06
2.49362e-06
3.13937e-06
2.76114e-06
2.07503e-06
2.81067e-06
4.44012e-05
2.16269e-06
0.0466296
0.00400872
0.00377548
1.75583e-06
3.56173e-06
1.80607e-06
2.76611e-06
0.00261468
2.04308e-06
1.66545e-06
3.57716e-05
3.63865e-06
1.79419e-06
0.00102599
1.66191e-06
0.0204026
2.05331e-06
2.04993e-06
2.13133e-06
1.43431e-05
7.81632e-06
2.57103e-06
1.72485e-06
2.45279e-06
0.0122334
4.40997e-06
3.48233e-05
1.63725e-05
2.36049e-06
3.35478e-06
0.00134222
2.54602e-06
0.00815182
8.52403e-05
1.76925e-06
2.15371e-06
2.13262e-06
4.91308e-06
0.0513121
7.56639e-05
2.14052e-06
2.83053e-06
3.0916e-06
0.00224681
4.91933e-06
1.64325e-06
0.0112134
1.76043e-06
2.48982e-06
0.072662
0.00349275
2.55273e-06
2.34111e-06
2.73154e-06
9.21507e-06
0.0240724
3.22087e-06
2.68818e-06
0.0189092
3.04769e-06
4.70108e-05
3.3323e-06
0.0156933
3.40412e-06
3.63523e-06
0.00101165
1.46392e-05
0.0138372
2.78703e-06
0.00735666
3.3805e-06
2.09493e-06
1.87256e-06
0.0240792
1.92815e-06
1.72717e-06
1.86654e-06
2.36529e-06
0.361923
2.50669e-05
2.50984e-06
2.89633e-06
2.62972e-06
2.50358e-06
4.85821e-06
2.90208e-06
2.18778e-06
0.029024
2.55716e-06
1.73069e-06
2.1509e-06
0.0061092
4.17394e-06
2.13648e-06
0.00180488
1.80347e-06
2.36996e-06
2.40763e-06
1.63897e-05
3.62516e-06
0.0143558
3.68307e-06
1.79148e-06
2.36539e-06
1.868e-06
2.51002e-06
2.54133e-06
2.097e-06
2.76557e-06
2.85864e-06
2.48363e-06
6.59128e-06
3.59135e-06
2.87316e-06
2.36302e-06
2.3703e-06
1.98667e-06
3.8565e-06
2.83552e-06
1.9359e-06
3.22954e-06
4.8163e-06
0.0106316
3.13598e-06
0.0143085
0.0035251
0.0568863
2.00656e-06
2.12781e-06
0.0437061
2.15973e-06
1.26935e-05
1.65032e-06
2.28409e-06
3.92228e-06
2.13743e-06
1.22456e-05
0.0259542
3.04177e-06
1.43414e-05
2.01812e-06
2.63572e-06
0.0212704
0.017452
2.31505e-06
1.6295e-05
2.34352e-06
4.2547e-06
1.82174e-06
3.2328e-06
2.8882e-06
1.70865e-06
1.95884e-05
2.24669e-06
1.77189e-06
5.72827e-06
2.35439e-06
1.59442e-05
1.92423e-06
2.23229e-06
1.86257e-06
7.66262e-06
5.93962e-06
2.19691e-06
0.0111034
0.00224658
2.05279e-06
2.99274e-06
2.02245e-06
3.66168e-06
3.82831e-06
1.81132e-06
0.0342969
2.42509e-06
1.64264e-05
2.43345e-06
2.16076e-06
2.02623e-06
2.554e-06
0.0207269
4.73753e-06
4.13237e-06
1.84651e-06
2.24235e-06
0.00147152
2.22692e-06
0.0360905
2.40636e-06
2.24839e-06
0.0246824
2.31686e-06
0.20758
0.0241228
2.0908e-06
1.93198e-06
2.14798e-06
2.51581e-06
3.21674e-06
1.67664e-06
2.22938e-06
2.00482e-06
0.0137228
2.24055e-06
2.22827e-06
2.78097e-06
2.46802e-06
1.81019e-05
2.19954e-06
2.25074e-06
2.07089e-06
2.17124e-06
1.28716e-05
3.45791e-06
2.32406e-06
3.08958e-05
1.68977e-06
0.00106305
1.98171e-06
2.16193e-06
0.0344745
1.84875e-06
3.07154e-06
2.88615e-06
3.11256e-06
1.97362e-06
4.81143e-06
0.00039477
5.3134e-06
2.32207e-06
2.1589e-06
2.65993e-06
5.4408e-05
1.84557e-06
2.02456e-06
3.47739e-06
4.18237e-06
0.0135268
2.05893e-06
2.02155e-06
2.14046e-06
2.35498e-06
2.30895e-06
2.19854e-06
2.24699e-06
1.82659e-06
2.00606e-06
1.04723e-05
2.52186e-06
0.0127189
2.14246e-06
6.70237e-05
0.00190775
2.3115e-06
2.74606e-06
0.024679
2.24157e-06
3.72996e-06
9.47358e-06
3.21698e-06
3.74222e-05
2.43012e-06
2.09018e-06
2.02028e-06
3.20673e-06
2.26733e-06
2.31137e-06
0.0235147
0.00106183
0.0210406
7.97461e-05
2.10827e-06
3.67806e-06
0.0164273
0.0320722
1.71973e-06
1.17166e-05
0.0690995
1.80685e-06
2.65104e-06
1.99666e-06
0.0133885
1.84101e-06
2.02614e-06
4.38043e-06
1.98665e-06
2.31114e-06
4.05567e-06
3.35797e-06
0.0390637
1.8553e-06
1.98906e-06
2.5479e-06
2.20005e-06
1.52607e-05
2.04953e-06
2.23881e-06
1.87187e-06
1.85277e-06
0.0307973
1.7861e-06
2.14302e-06
2.05248e-06
0.0247159
0.00212041
2.01911e-06
1.8469e-06
2.19768e-06
0.0133167
2.09775e-06
2.55265e-06
1.93944e-06
0.0728017
2.06786e-06
1.69198e-06
2.02015e-06
1.72107e-05
2.33461e-06
0.000161719
3.42717e-06
0.000120692
2.25434e-06
0.0726668
2.19248e-06
2.68257e-06
2.24137e-06
2.20136e-06
1.12275e-05
4.2136e-06
2.35878e-06
1.92893e-06
0.0426593
1.90961e-06
2.63359e-06
7.33377e-06
2.84897e-06
1.80162e-06
1.64676e-06
2.13109e-06
2.19337e-06
2.21534e-06
2.01482e-06
2.50893e-06
2.33522e-06
0.0133004
2.13961e-06
1.7415e-06
4.05866e-06
1.94428e-06
0.000258749
2.36501e-06
2.19386e-06
3.87082e-06
2.64356e-06
2.21475e-06
2.72501e-06
7.80098e-06
3.52213e-05
1.80595e-06
0.0428848
1.94132e-06
0.0230145
5.46082e-06
1.91167e-06
4.3955e-06
0.0212893
0.0129368
1.77078e-06
2.11968e-06
0.0235063
2.46913e-06
2.20252e-06
2.5389e-06
1.98643e-06
5.33994e-06
2.28616e-06
0.0176022
1.93213e-06
1.79083e-06
2.92272e-06
0.0744861
2.06042e-06
3.3755e-06
6.17584e-06
2.23107e-06
1.87653e-06
0.237453
5.09484e-05
2.24524e-06
2.88132e-06
0.000868753
2.37946e-06
0.0787561
2.10483e-06
3.38057e-06
2.53906e-06
0.0163941
2.3678e-06
0.00152895
2.34196e-06
3.63582e-06
2.94781e-06
1.86132e-06
0.179756
0.0134164
0.00270234
1.99082e-06
2.49371e-06
4.21534e-06
5.62541e-06
1.7643e-06
8.53887e-06
0.16204
0.0454411
1.92233e-06
0.0831976
2.43177e-06
1.87686e-06
1.8227e-06
1.65732e-06
0.0141949
2.05491e-06
0.0208338
3.11293e-06
1.67829e-06
0.0109167
3.39535e-06
2.59197e-06
2.27797e-06
1.10081e-05
0.0160203
2.29568e-06
1.77992e-06
2.29235e-06
0.0438011
2.23173e-06
1.96928e-06
1.95181e-06
2.29388e-06
0.00881524
0.030706
1.78813e-06
1.73159e-06
2.02581e-06
2.47352e-06
2.04614e-06
2.5464e-06
0.034891
2.53207e-06
2.13896e-06
1.86984e-06
1.9456e-06
0.066604
2.76226e-06
2.79368e-06
1.95537e-06
0.0266428
2.33824e-06
2.02896e-06
2.13568e-06
2.68898e-06
0.017605
3.47465e-06
0.0730351
2.8862e-06
2.22697e-06
7.16262e-06
1.84538e-06
2.53796e-06
2.85267e-06
3.50218e-05
2.02742e-06
2.57499e-06
0.000101552
2.14089e-06
1.7202e-06
2.19906e-06
4.14508e-06
0.000403367
3.04591e-06
0.000107726
1.8334e-06
3.07266e-06
3.07034e-06
2.1503e-06
0.237976
1.88363e-06
2.19837e-06
0.0359842
0.000548365
1.94877e-06
2.48459e-06
4.31463e-06
6.25703e-06
1.66669e-06
1.78429e-06
0.00176862
1.88234e-06
5.94111e-06
2.78949e-06
0.0155773
0.0284115
6.96631e-06
1.72337e-06
2.32739e-06
2.09394e-06
1.66526e-06
1.77432e-06
0.0137014
1.87588e-06
2.25515e-06
2.16929e-06
0.044571
3.0599e-06
1.6936e-06
2.67138e-06
2.36991e-06
2.24391e-06
1.849e-06
1.66338e-06
2.14572e-06
0.0227352
2.37451e-06
0.00161454
2.23081e-06
0.0357176
2.41564e-06
2.24896e-06
1.81556e-06
2.30125e-06
3.34651e-06
2.94931e-06
4.11773e-06
6.83122e-06
2.20317e-06
0.00197941
2.87349e-06
0.00601862
2.90846e-06
3.79649e-06
2.8533e-06
2.1123e-06
0.00139846
2.2079e-06
2.41617e-06
0.0501387
3.14319e-05
2.05728e-06
1.86757e-06
2.18954e-06
1.913e-06
4.28821e-06
2.32923e-06
2.82638e-06
5.24255e-06
1.78238e-06
2.19232e-06
1.88327e-06
2.76227e-06
2.08983e-06
2.1453e-06
2.2116e-06
2.66877e-06
1.73478e-06
4.82679e-06
3.70372e-06
1.453e-05
1.72957e-06
2.30281e-06
0.00199665
1.97366e-05
0.0553898
2.74878e-06
3.01068e-06
0.0253236
2.08016e-06
2.20539e-06
0.0123134
2.19337e-06
2.18827e-06
0.0159908
1.91345e-06
0.0184528
2.33156e-06
2.85438e-06
2.47455e-06
0.126629
1.8621e-06
0.0200653
2.29344e-06
2.50301e-06
2.35624e-06
1.69063e-06
2.22022e-06
2.36406e-06
0.0156521
0.0252366
0.0204146
2.29504e-06
2.27291e-06
0.0156374
8.1311e-05
0.0183875
4.20876e-06
2.43441e-06
2.35263e-06
1.74136e-06
3.65155e-05
1.916e-06
1.77304e-06
1.87156e-06
1.13907e-05
2.96712e-06
1.83855e-06
1.99166e-06
1.73664e-06
2.58207e-06
2.26112e-06
3.70114e-06
3.79754e-06
2.79136e-06
1.6442e-06
2.72704e-06
1.97793e-06
2.13562e-06
2.14311e-05
1.95011e-06
2.61627e-06
3.57515e-06
1.86803e-06
3.39961e-06
0.0376464
2.13731e-06
1.85868e-06
2.30117e-06
1.99949e-06
2.11966e-06
0.0122262
0.0274818
1.74192e-06
1.86009e-06
0.0542157
2.02777e-06
2.00857e-06
2.36222e-06
1.95504e-06
2.54908e-06
2.55565e-06
1.65604e-06
4.11426e-06
2.26567e-06
2.28383e-06
1.67142e-06
0.0429056
2.56258e-06
2.39061e-06
4.18381e-06
2.34375e-06
5.37117e-06
2.57643e-06
1.93552e-06
2.03243e-06
3.59404e-06
2.33386e-06
0.0365893
1.99352e-06
0.0632114
2.64476e-06
2.0195e-06
2.21711e-06
0.0264646
2.31327e-06
1.67658e-06
2.20976e-06
2.20026e-06
1.99558e-06
1.81887e-06
6.55567e-06
1.98755e-06
2.10073e-06
0.0329092
1.93005e-06
1.91023e-06
2.74214e-06
2.18542e-06
2.87923e-06
3.29916e-05
1.94102e-06
3.14336e-06
5.38278e-06
0.0553708
1.76282e-06
1.6544e-06
2.41605e-06
1.83884e-06
3.26016e-06
2.88398e-06
2.7177e-06
4.83809e-06
0.115774
2.87221e-06
1.85674e-05
2.12075e-06
2.28743e-06
4.25369e-06
2.97057e-06
0.0112259
0.0297359
3.14023e-06
7.73791e-06
1.96376e-06
0.0289392
2.31934e-06
1.79115e-06
1.65735e-06
0.0202562
1.94449e-06
2.58978e-06
0.0140785
3.48431e-06
2.96543e-06
1.80205e-05
4.30148e-06
2.3851e-06
2.08571e-06
1.67539e-06
1.88817e-06
0.0347562
2.22394e-06
2.25804e-06
2.13923e-06
2.16901e-06
5.91285e-05
2.5611e-06
2.25305e-06
2.23766e-06
0.00600053
1.98928e-06
2.1814e-06
2.54719e-06
2.86532e-06
1.86271e-06
2.50867e-06
2.16469e-06
2.24315e-06
2.92184e-06
2.37261e-06
2.26513e-06
2.17792e-06
1.15115e-05
0.000316288
2.29623e-06
2.29844e-06
7.09501e-06
2.12843e-06
0.0308861
0.0428744
3.75715e-06
1.12343e-05
2.51159e-06
2.13762e-06
6.77007e-06
0.0382559
2.9351e-06
0.00199553
2.91023e-06
8.94919e-06
2.1958e-06
4.14608e-06
1.68658e-06
0.0233417
1.3498e-05
7.98978e-06
1.95588e-06
3.36345e-06
2.78444e-06
2.20631e-06
2.7755e-06
2.47352e-06
2.28889e-06
8.33267e-06
1.83021e-06
2.25652e-06
0.0135849
2.18553e-06
2.90638e-06
3.71282e-06
0.0335708
1.72295e-06
2.62583e-06
0.0554152
0.0237855
1.01331e-05
1.7989e-06
1.95855e-06
0.169759
2.34229e-06
3.06592e-06
2.2043e-06
3.54672e-05
0.0204615
0.0290289
2.13928e-06
2.42618e-06
1.21623e-05
3.12841e-06
1.15394e-05
0.0105281
3.37884e-06
2.28888e-06
1.97567e-06
0.0330397
0.0604943
2.80071e-06
2.77127e-06
2.83065e-06
0.0166795
1.80787e-06
2.73624e-06
4.4225e-06
1.65965e-06
1.89086e-06
1.95513e-06
1.86655e-06
4.14811e-06
3.04608e-06
3.12903e-06
0.0377838
1.71099e-06
3.03735e-06
3.18907e-06
2.24168e-06
1.68771e-06
1.66273e-06
2.12368e-06
1.72819e-06
2.37075e-06
1.81011e-06
3.26097e-06
2.27973e-06
2.17802e-06
0.00826472
2.03755e-06
2.75163e-06
0.0142494
1.70917e-06
4.18455e-06
1.389e-05
2.95059e-06
1.95082e-06
2.99085e-06
1.85325e-06
0.0618888
2.24255e-06
4.12713e-06
2.14991e-06
2.09503e-06
2.61504e-06
2.74109e-06
3.88882e-06
1.76281e-06
2.87569e-06
0.0676341
2.68845e-06
5.53151e-06
2.34565e-06
0.0392219
2.33607e-06
1.99954e-06
2.99871e-06
2.18752e-06
0.0170505
0.000398367
2.22258e-06
0.0100332
3.07453e-06
2.18687e-06
0.0160425
0.00030866
3.10374e-06
3.28959e-06
2.47446e-06
2.23878e-06
3.94928e-06
2.11738e-06
0.0141353
1.85337e-06
2.39975e-06
0.00063431
2.11028e-06
1.42799e-05
2.19919e-06
1.98109e-06
2.44127e-06
1.73479e-06
0.0153659
2.43207e-06
1.05415e-05
3.82996e-06
0.121256
8.0391e-06
4.21187e-06
2.24207e-06
3.06184e-06
1.36999e-05
2.50283e-06
2.39207e-06
2.17458e-06
0.0181029
2.30843e-06
2.9805e-06
1.97257e-06
1.95918e-06
0.000412929
7.90056e-06
0.0182302
2.55208e-06
2.22702e-06
1.77834e-06
1.28703e-05
1.72798e-06
6.79222e-06
5.38464e-06
2.24231e-06
2.37975e-06
6.96771e-06
9.25778e-06
0.0244015
0.0143456
1.86926e-06
2.36597e-06
2.63636e-06
4.49639e-05
2.48755e-06
1.85943e-06
0.000444216
2.98979e-06
2.843e-06
0.0128801
2.15638e-06
5.55962e-06
2.37735e-06
7.89014e-06
3.9007e-06
2.44793e-06
2.03252e-06
2.60516e-06
0.0206003
1.98389e-06
1.03385e-05
2.30703e-06
0.0475755
1.83636e-05
0.00129481
4.73022e-05
2.49019e-06
2.71511e-06
1.94688e-05
2.13978e-06
0.0302103
2.30248e-06
2.51224e-06
0.0130012
1.77601e-06
3.31041e-06
9.01069e-06
0.000487015
0.017087
3.38016e-06
1.87042e-06
1.67754e-05
2.24573e-06
0.0150695
0.0139017
7.27883e-06
1.84356e-06
2.98777e-05
3.25872e-06
2.30055e-06
1.97057e-06
5.70649e-05
1.10953e-05
1.15479e-05
1.45112e-05
2.23471e-06
3.56942e-05
7.22766e-06
4.21105e-06
8.48204e-05
2.20531e-06
7.49365e-06
6.50698e-06
7.10051e-06
2.3356e-06
0.000215872
1.9131e-06
2.16617e-06
2.22675e-06
2.14721e-06
2.21947e-06
2.13778e-06
2.47083e-06
0.0283786
0.26773
2.52376e-06
2.80199e-06
1.82367e-06
1.98895e-06
6.19827e-06
2.56649e-06
3.12053e-06
1.96959e-06
4.20008e-06
2.18853e-06
0.0334996
2.32688e-06
1.96219e-06
1.70256e-06
1.74534e-06
2.12093e-06
2.9807e-06
2.48528e-06
2.46363e-06
2.35957e-05
3.06968e-06
2.16016e-06
4.22472e-06
6.46252e-05
2.24925e-06
1.72605e-06
1.94051e-06
2.24685e-06
2.35253e-06
3.35496e-06
0.000454868
2.58884e-06
2.41401e-06
2.4743e-06
0.0219927
3.39953e-06
1.76315e-05
0.0990926
2.61926e-06
5.89427e-06
3.09165e-06
0.00348278
2.22796e-06
3.09781e-06
3.56632e-06
2.11372e-06
2.25602e-06
2.25294e-06
4.19079e-06
2.29308e-06
2.59065e-06
2.73405e-06
0.00964739
0.0134713
1.8852e-06
7.90215e-06
2.3544e-06
5.59694e-06
2.96601e-06
0.0190961
2.43317e-06
1.72636e-06
2.39934e-06
0.087256
0.0229265
2.23995e-06
2.24765e-06
2.02448e-06
1.98735e-06
3.02595e-06
2.0796e-06
2.05166e-06
0.00694946
0.0109497
3.53674e-06
0.0129738
3.01907e-06
1.91985e-06
0.0186956
0.0232883
0.0504118
2.2299e-06
1.33712e-05
3.23199e-06
0.012485
5.05442e-06
0.0106384
1.87727e-06
0.0158033
1.67466e-06
2.23478e-06
0.0903216
1.74021e-06
0.0226218
2.43995e-06
2.10748e-06
3.44026e-06
0.0872691
2.29069e-06
1.74588e-06
1.91874e-06
3.42963e-06
9.50337e-05
3.2842e-06
0.0156632
2.57563e-06
2.26539e-06
1.45512e-05
3.49661e-06
1.96073e-06
2.95077e-06
2.128e-06
3.10535e-06
1.96065e-06
6.54355e-06
3.19829e-06
6.51627e-06
2.10341e-06
0.0159092
0.0501999
2.13291e-06
2.22662e-06
2.24638e-06
2.40674e-06
0.0120299
2.0649e-06
0.0154837
2.36615e-06
2.13378e-06
0.00238476
1.63573e-06
1.74694e-05
2.02299e-06
2.08844e-06
2.18931e-06
1.88067e-06
2.62326e-06
2.48837e-06
2.22279e-06
3.11452e-06
2.11002e-06
1.98624e-06
0.0253169
1.94034e-06
2.11544e-06
4.20535e-06
0.0169812
3.51652e-06
2.62193e-06
2.16946e-06
2.26949e-06
2.5396e-06
0.0126125
0.00368334
0.00287726
0.00214491
2.55164e-06
1.88809e-06
6.17644e-06
2.57454e-06
2.38995e-06
2.32133e-06
3.34377e-06
1.96143e-06
2.50268e-06
2.23765e-06
8.24321e-05
1.96956e-06
2.02986e-06
0.281121
3.16227e-06
1.94989e-06
1.87426e-06
2.23528e-06
3.66047e-05
2.11918e-06
2.23524e-06
1.75617e-06
0.000373998
2.55295e-06
3.30529e-06
2.20994e-06
2.80973e-06
2.40081e-06
2.95064e-06
3.8051e-06
2.22376e-06
0.0108867
0.0140422
3.21161e-06
2.19881e-06
3.21159e-06
1.71618e-06
0.049689
2.30037e-06
2.84197e-06
1.70807e-06
0.0784206
2.6867e-06
1.77684e-06
2.59178e-06
2.463e-06
0.000243105
0.0191473
0.0334744
2.49789e-06
2.2069e-06
1.77861e-06
1.6912e-06
2.83383e-06
0.0114515
2.26492e-06
2.40683e-06
2.16259e-06
0.0068899
2.20431e-06
2.12724e-06
2.15344e-06
2.18272e-06
2.70535e-06
2.16451e-06
2.40186e-06
2.60035e-06
2.08946e-06
2.01861e-06
3.09364e-06
3.82846e-06
2.68137e-06
2.55384e-06
5.58197e-06
0.0262673
3.07605e-06
0.0489713
2.22446e-06
1.77537e-06
0.0160511
0.0228877
2.001e-06
0.168679
2.01787e-06
2.80083e-06
3.45264e-06
2.54761e-06
6.0101e-06
3.68547e-05
3.7371e-06
2.68503e-06
0.0651575
2.27374e-06
1.67204e-06
2.69969e-06
1.9698e-06
2.13719e-06
0.0418627
1.86362e-05
1.98769e-06
2.73591e-06
2.56392e-06
2.18806e-06
2.79318e-06
0.0476646
0.065483
2.55074e-06
2.55959e-06
3.38765e-06
0.0489739
2.48465e-06
5.47156e-06
3.13596e-06
2.22833e-06
2.26658e-06
0.0208842
4.28757e-06
0.0260268
0.000303607
0.0134291
3.41873e-06
0.070987
2.42391e-06
0.0131809
1.73553e-06
2.3432e-06
5.27323e-05
1.76568e-06
2.69413e-06
0.0397977
1.6975e-06
3.57745e-06
2.91223e-06
1.86467e-05
2.82405e-06
1.7233e-06
1.84553e-06
2.36959e-06
2.98723e-06
3.38253e-06
0.0322428
2.88906e-06
1.80936e-06
1.72526e-06
1.93713e-06
0.149386
0.142776
2.24541e-06
2.99677e-06
3.12693e-06
1.93112e-06
1.99329e-06
0.0769034
2.36736e-06
2.7056e-06
0.0017341
0.000399974
2.51379e-06
1.04576e-05
3.11905e-06
1.91674e-06
2.23847e-06
3.095e-06
0.0601387
1.92681e-06
2.54354e-06
5.49137e-06
1.93985e-06
2.07678e-06
2.18497e-06
2.27465e-06
2.48177e-06
1.96493e-05
0.0131082
0.0919962
2.08089e-06
0.0148047
3.08264e-06
0.0327084
2.47563e-06
2.0766e-06
2.07511e-06
0.0414499
3.22695e-06
1.63632e-06
2.9889e-06
2.82545e-06
2.04343e-06
3.25146e-06
3.28186e-06
0.0471059
2.31081e-06
2.41172e-06
3.01256e-06
2.35488e-06
3.24422e-06
0.00108424
4.25747e-06
2.20343e-06
0.00189289
3.30404e-06
0.0142053
2.1656e-06
1.95155e-06
3.12952e-06
0.0002278
2.26604e-06
4.98873e-06
2.28318e-06
2.89104e-06
2.8816e-06
2.29027e-06
2.94496e-06
0.00262942
1.74445e-06
1.75338e-06
1.17007e-05
2.58118e-06
1.85268e-06
0.115689
1.96063e-06
1.98241e-06
1.72556e-06
2.566e-06
0.0157337
2.21759e-06
1.3568e-05
3.30061e-06
3.13758e-06
1.85652e-06
1.83546e-06
2.1344e-06
2.83245e-06
2.30366e-06
1.7748e-06
2.01988e-06
2.39941e-06
1.9131e-05
2.36265e-06
6.6534e-06
1.96027e-06
1.72624e-06
3.71691e-05
1.65381e-06
2.15675e-06
1.96391e-06
5.20183e-06
1.97417e-06
2.71376e-06
4.18581e-06
1.85568e-06
0.0145422
2.01698e-06
2.28447e-06
1.76992e-06
2.30677e-06
4.37841e-06
0.026206
2.23379e-06
2.2269e-05
2.22129e-06
1.8602e-06
0.047051
3.07561e-06
2.59234e-06
2.933e-06
1.87334e-06
7.47102e-06
2.30579e-06
0.000789317
2.47732e-06
2.44475e-06
2.28396e-06
2.57536e-06
2.03843e-06
0.0273014
1.92109e-06
2.53817e-06
2.06624e-06
3.55352e-06
1.80288e-06
0.00029824
2.46182e-06
0.162856
2.73346e-06
0.000605804
2.36775e-06
0.0458868
2.95821e-06
0.0231229
2.56878e-06
0.0139168
2.36767e-06
0.0675241
2.56031e-06
2.71259e-06
2.77336e-06
2.29827e-06
2.27035e-06
0.096006
1.96026e-06
1.75757e-06
2.20573e-06
2.15877e-06
2.59277e-06
0.000129271
2.20956e-06
0.0129964
1.94419e-06
0.0101077
0.0148446
1.68756e-06
3.20071e-06
1.87276e-06
2.13274e-06
2.17565e-06
0.0174494
2.04761e-06
0.00117284
2.08248e-06
3.41363e-06
0.00082471
1.95671e-06
2.7452e-06
1.92501e-06
2.57744e-06
1.81829e-06
2.92445e-06
3.4121e-06
2.23747e-06
2.39314e-06
2.85445e-06
2.36847e-06
2.50351e-06
0.188716
2.56426e-06
0.0356402
0.000804853
2.18683e-06
2.27113e-06
2.59201e-06
4.2287e-06
2.96897e-06
1.89314e-06
2.93385e-06
5.45293e-06
2.26867e-06
2.03252e-06
2.20048e-06
2.55133e-06
0.0625986
2.21688e-06
3.43119e-06
1.84892e-06
2.91323e-06
1.91232e-06
2.73281e-06
2.48829e-06
0.0208831
0.0101973
2.34223e-06
2.06262e-06
2.04745e-06
1.9829e-06
2.28219e-06
2.30124e-06
1.66861e-06
2.26736e-06
2.10612e-06
2.8031e-06
5.79089e-06
1.81226e-06
1.73574e-06
2.89108e-06
2.74072e-06
3.22755e-06
8.10182e-06
2.19298e-06
2.52732e-06
0.0212499
3.85154e-05
2.22445e-06
0.102309
0.00746374
0.0174677
2.63434e-06
1.73693e-06
1.75466e-06
2.18367e-06
3.83724e-06
5.2e-06
2.30155e-06
9.96056e-06
0.0238554
2.14876e-06
2.88622e-06
2.04789e-06
0.0418854
5.11097e-06
1.11185e-05
2.3453e-06
2.40733e-06
2.57497e-06
0.0150889
2.41508e-06
2.19933e-06
0.0441027
2.34906e-06
3.84571e-06
2.13347e-06
2.97634e-06
2.07623e-06
2.08485e-06
2.70068e-06
0.0158505
0.00142768
2.14631e-06
9.58663e-06
2.78466e-06
1.73538e-06
0.0234434
2.21161e-06
4.18733e-06
2.02702e-06
2.59328e-06
2.06711e-06
3.23995e-06
1.71463e-06
0.000593454
1.77019e-06
2.02025e-06
0.0250822
2.21166e-06
3.72506e-06
2.0306e-06
2.16517e-06
1.50447e-05
1.29016e-05
3.26358e-06
2.61887e-06
2.33656e-06
1.74236e-06
2.91323e-06
0.0353148
3.46384e-06
2.80189e-06
0.0376363
2.84314e-06
2.29316e-06
2.02353e-06
6.48728e-06
0.0327202
3.50553e-06
0.0161744
0.0425736
0.000103269
2.40418e-06
2.09123e-06
1.41983e-05
0.120528
5.86507e-05
4.48446e-06
3.09597e-06
2.04531e-06
2.20108e-06
0.0528389
0.013282
2.17586e-06
3.2123e-06
2.95256e-06
1.87941e-06
2.31935e-06
2.19763e-06
2.24666e-06
6.81516e-06
2.97736e-06
1.34543e-05
3.49819e-06
2.29196e-06
1.85203e-06
2.31417e-06
1.87193e-06
0.0141247
2.79326e-06
1.03845e-05
1.04646e-05
1.74036e-06
0.000219432
2.30709e-06
3.04812e-06
2.40383e-06
2.29598e-06
2.00743e-06
2.80153e-06
2.99025e-06
1.72729e-06
2.4212e-06
2.2561e-06
0.0219721
2.50127e-06
0.013185
2.17386e-06
2.23432e-06
2.39612e-06
1.69738e-06
1.65413e-06
2.86905e-06
2.2145e-06
0.0217055
0.0217717
0.0392392
1.25339e-05
1.78044e-06
3.24063e-06
1.85428e-06
2.70042e-06
6.47467e-06
2.94594e-06
0.0201763
2.68497e-06
2.22683e-06
3.51406e-06
7.89577e-06
0.000536925
1.8485e-06
0.0259417
7.0444e-05
2.5157e-06
2.90763e-06
2.41461e-06
2.2773e-06
0.0211832
0.000223156
9.85248e-05
9.60752e-06
2.84835e-06
0.027043
0.00248972
1.69823e-06
2.19279e-06
2.09911e-06
0.0101851
2.41138e-06
2.06677e-06
2.74154e-06
0.034108
0.177663
4.33254e-06
2.02454e-06
2.16457e-06
2.05007e-06
5.12634e-06
0.0111089
3.04389e-06
2.30454e-06
2.78494e-06
2.19593e-06
3.41347e-06
1.67255e-06
0.0348991
0.0200676
2.5709e-06
2.97854e-06
2.19558e-06
1.66777e-06
0.0508197
4.67599e-06
2.0348e-06
3.9463e-06
4.54534e-06
2.153e-06
0.00862869
1.95644e-06
2.36644e-06
1.94925e-06
2.54539e-06
1.89504e-06
3.48153e-06
2.6484e-06
6.63458e-06
2.59075e-06
2.55233e-06
1.9184e-06
0.0246031
1.93643e-06
0.0830289
1.8477e-06
2.69255e-06
7.15106e-06
4.0018e-06
1.79465e-06
4.18185e-06
2.91446e-06
0.0231383
1.33692e-05
1.2037e-05
3.32993e-06
1.96338e-06
2.48461e-06
1.96292e-06
1.83781e-05
0.0192533
4.87288e-05
2.01809e-06
2.65046e-06
1.92441e-06
3.09593e-06
0.0241943
0.0239909
2.24687e-06
1.77885e-06
2.16298e-06
2.18548e-06
0.0727795
2.10849e-06
0.0302288
0.0988049
2.31908e-06
3.44572e-06
5.29194e-06
0.000854133
2.11081e-06
1.67702e-06
2.28052e-06
2.79184e-06
0.0143142
0.0169968
2.21103e-06
0.0211668
0.0133621
1.64232e-06
5.0016e-06
3.34367e-06
2.36809e-06
1.73236e-06
0.00549012
2.55112e-06
1.70572e-06
1.77687e-06
3.80559e-06
0.0107411
2.11634e-06
1.37137e-05
0.0306902
4.33027e-06
2.3828e-06
6.67959e-06
2.03251e-06
2.18112e-06
2.88646e-06
2.9053e-06
2.87703e-06
2.20733e-06
0.00124934
2.19832e-06
1.92152e-06
3.02936e-06
0.0695703
0.0266353
2.93084e-06
1.99608e-06
2.13771e-06
3.45153e-06
0.0220383
0.0013793
2.47014e-06
2.38257e-06
0.00826332
0.0203988
1.2151e-05
2.00839e-06
2.03422e-06
0.1886
2.60923e-06
3.18852e-06
0.000128253
1.92797e-06
3.38507e-06
1.83129e-06
2.80204e-06
5.281e-06
3.55655e-06
2.21206e-06
6.84606e-06
1.79046e-06
3.53534e-06
2.36049e-06
2.556e-06
2.16799e-06
2.12212e-06
2.10564e-06
3.14838e-05
0.087624
2.8103e-06
2.19188e-06
2.17116e-06
2.44992e-06
1.6744e-06
3.36566e-06
1.74907e-06
3.0699e-06
0.0496994
2.54718e-06
0.0159904
2.5383e-06
2.70709e-06
1.851e-06
0.0247995
2.3073e-06
1.86564e-06
1.95819e-06
2.01158e-06
0.0835102
2.19237e-06
2.39103e-06
2.21058e-06
3.24266e-06
2.95001e-06
0.0312006
1.7625e-06
3.02372e-06
1.65687e-06
0.00265399
2.73191e-06
3.63607e-05
4.09644e-06
2.71597e-06
1.87049e-06
2.71819e-06
1.6737e-06
2.23335e-06
2.24386e-06
1.69086e-06
0.00053849
2.2132e-06
3.47385e-06
2.7064e-06
0.0214279
2.26404e-05
2.24229e-06
1.4514e-05
2.49139e-06
2.30465e-06
3.31538e-06
1.7968e-06
0.0130977
0.0254878
1.84132e-06
2.09392e-06
2.03547e-06
4.13071e-06
4.23738e-06
1.92352e-06
1.74985e-06
1.93564e-06
2.32736e-06
3.20639e-06
3.31328e-06
2.24436e-06
2.10186e-06
0.0197479
2.06446e-06
0.0514685
0.0680385
3.39441e-06
3.88466e-06
0.00576
2.05819e-05
0.0332283
0.173525
0.0197345
1.80052e-06
2.4222e-06
0.0107961
2.25178e-06
2.3214e-06
0.0244162
3.24789e-06
0.000452005
1.91593e-06
8.0203e-05
6.18063e-05
1.6518e-06
4.22119e-06
2.20408e-06
0.00204616
2.54549e-06
2.55158e-06
3.10533e-06
2.02381e-06
3.00746e-06
1.95254e-05
1.68164e-06
2.31935e-06
2.49554e-06
4.53228e-06
2.1883e-06
2.11412e-06
1.98809e-06
0.017451
3.19818e-06
3.03453e-06
2.13895e-06
3.15864e-06
6.14388e-05
2.64401e-06
1.72482e-06
1.65563e-06
3.44204e-06
0.0229518
0.0166729
2.04982e-06
0.000923583
1.67384e-06
2.35164e-06
0.00949751
0.128092
2.55437e-06
2.11975e-06
4.19424e-06
3.54316e-06
2.35396e-06
0.00148526
2.1808e-06
2.4731e-06
3.30013e-06
2.62693e-06
2.93787e-06
2.41948e-06
0.169642
0.0105569
0.031896
1.87299e-06
2.13503e-06
2.20983e-06
3.51813e-06
1.73113e-06
2.54044e-06
3.08039e-06
0.0070405
7.05855e-06
0.0503932
2.82629e-06
2.60277e-06
0.0252456
1.79707e-06
1.8458e-06
2.11222e-06
2.69308e-06
0.00268144
5.47114e-06
0.0689882
2.93197e-06
1.65233e-06
1.67862e-06
1.94046e-06
0.0912035
2.56002e-06
1.70743e-06
2.40585e-06
0.00752786
2.06621e-06
1.66379e-06
3.86961e-05
0.0172091
3.43463e-06
2.60883e-06
2.28224e-06
2.08538e-06
1.93486e-06
2.54767e-06
0.00278464
2.56906e-06
0.0327454
2.16044e-06
0.0210323
2.61202e-06
2.21315e-06
2.10975e-06
2.41279e-06
1.28699e-05
2.09694e-06
1.72166e-06
2.77495e-06
2.08949e-06
0.018756
2.18448e-06
1.94335e-06
2.09216e-06
0.0633901
1.67413e-06
0.000650969
0.00130691
1.74211e-06
3.04177e-06
0.641223
2.33045e-06
2.27664e-06
2.80807e-06
2.39116e-06
1.99864e-06
0.0114314
1.82887e-06
0.0341435
4.11798e-06
0.0237923
2.29998e-06
2.00578e-06
0.0253803
2.09748e-06
3.03487e-06
3.33145e-05
1.72998e-06
1.99313e-06
5.0724e-05
2.18374e-06
2.24775e-06
0.0216191
0.0500773
2.3065e-06
1.92104e-06
1.75314e-06
2.18282e-06
2.24609e-06
2.62506e-06
0.0130215
3.61481e-06
1.97312e-06
0.00187798
0.0471922
1.73376e-06
1.72022e-06
3.16425e-06
2.24178e-06
2.5488e-06
0.000112906
1.96158e-06
2.48638e-06
1.78096e-06
2.28665e-06
2.54645e-06
2.3578e-06
2.54481e-06
0.0224933
0.0158231
1.6505e-06
2.07281e-06
0.0252915
2.60702e-06
2.13443e-06
2.49528e-06
2.79141e-06
2.70314e-06
2.29388e-06
2.48301e-06
0.013909
2.09279e-06
0.0049407
0.0571327
0.00987215
2.15219e-06
2.0904e-06
0.0139723
1.93235e-06
3.45405e-06
1.72802e-06
2.11065e-06
4.27873e-06
1.96279e-06
2.79532e-06
2.5456e-06
2.62119e-06
0.000731687
2.37043e-06
2.25018e-06
2.05848e-06
7.20038e-05
1.86201e-06
0.0275143
2.39168e-06
2.70819e-06
0.0136767
6.07033e-06
2.41729e-06
3.36485e-06
0.0319515
0.000437853
2.8597e-06
2.18873e-06
2.18635e-06
2.86507e-06
0.024644
1.72425e-06
2.07818e-06
4.56168e-06
2.99349e-06
3.05791e-06
2.43948e-06
0.0128664
2.36456e-06
3.1756e-06
1.83725e-06
1.94634e-06
2.03131e-06
2.49623e-06
3.33674e-06
2.54831e-06
2.62331e-06
0.0213661
3.26228e-06
2.21835e-06
2.08069e-06
3.06319e-06
2.80342e-06
9.90392e-06
0.0208956
2.31389e-06
2.44058e-06
3.5806e-06
2.35764e-06
2.71105e-06
1.98881e-06
2.3667e-06
4.04606e-06
4.11037e-06
2.28405e-06
3.28525e-06
2.55171e-06
2.23756e-06
2.34853e-06
1.7068e-06
2.06083e-06
1.99039e-06
3.35325e-06
2.08582e-06
4.67454e-06
3.2418e-06
2.66818e-06
0.0133153
2.87741e-06
1.88173e-06
1.51289e-05
1.82989e-06
2.15713e-06
1.78993e-06
2.08219e-06
7.57228e-06
1.92091e-06
2.97478e-06
2.13968e-06
2.03238e-06
3.10223e-06
1.9928e-06
3.05875e-06
0.0826195
0.0174109
2.09754e-06
0.0142087
2.08395e-06
2.33769e-06
2.22999e-06
5.36319e-05
1.78822e-06
1.6805e-06
3.58069e-06
2.36865e-06
0.0160434
2.07236e-06
5.05551e-06
2.53785e-06
2.35929e-06
0.0178128
2.37656e-06
0.014746
2.29587e-06
3.04391e-06
2.92867e-06
1.86358e-06
6.80323e-05
2.24103e-06
0.037138
0.0273046
0.0283698
1.71328e-06
0.0600124
0.0301359
0.0136023
2.23672e-06
2.02523e-06
1.92922e-06
1.93157e-06
1.79373e-06
2.59502e-06
2.25107e-06
0.00441902
1.77411e-06
1.9058e-06
0.0244329
2.88582e-06
2.36468e-06
2.59891e-06
1.861e-06
0.000195374
0.005476
1.79236e-06
2.34119e-06
3.18663e-06
1.91893e-06
2.74856e-06
0.00130455
0.0552662
1.79027e-06
0.0206764
2.13762e-06
2.57726e-06
2.14019e-06
3.35766e-06
2.15183e-06
0.036863
5.54811e-06
0.0215229
2.48932e-06
3.35236e-06
0.000240173
1.9248e-06
0.0428297
0.00959758
3.17205e-06
2.32727e-06
3.10443e-06
2.4922e-06
2.54969e-06
2.23256e-06
4.18333e-06
2.70273e-06
3.5369e-06
1.6785e-06
3.43752e-06
2.19041e-06
3.48798e-06
1.67566e-06
2.33436e-06
3.35785e-06
1.8885e-06
1.95481e-06
2.12299e-06
2.32342e-06
2.79702e-06
1.86794e-06
2.22123e-06
0.00859838
0.0174755
2.56283e-06
2.60171e-06
2.64253e-06
2.02184e-06
5.99734e-06
2.32924e-06
3.3557e-06
0.00143663
2.02723e-06
2.63269e-06
2.54381e-06
1.94253e-06
0.00872395
3.67696e-06
0.0268282
0.00246728
0.0235848
0.000825293
0.0154188
2.80254e-06
0.0980088
3.45599e-06
0.0855114
2.89819e-06
2.55161e-06
2.39826e-06
2.16239e-06
2.18289e-06
1.7487e-06
3.41009e-06
1.98893e-06
2.07675e-06
3.37272e-06
2.85962e-06
2.27776e-06
1.99374e-06
0.063602
0.026749
2.21164e-06
1.80558e-05
2.04355e-06
3.24456e-06
5.85329e-06
2.56684e-06
2.26557e-06
0.0177692
0.119351
0.214872
0.0304595
2.09491e-06
2.26391e-06
1.93801e-06
2.62879e-06
1.83242e-06
3.70645e-06
2.47218e-06
2.78821e-06
2.39194e-06
2.13048e-05
2.30886e-06
5.26389e-06
0.0345478
2.8337e-06
2.18339e-06
1.82124e-06
0.00117816
0.0551008
2.4607e-06
2.32097e-06
0.114229
2.71706e-06
2.04863e-06
2.42221e-06
1.92267e-06
0.0665091
2.82563e-06
0.00238851
0.0345827
2.50127e-06
1.827e-06
3.62831e-06
2.87416e-06
2.47006e-06
2.28902e-06
1.85948e-06
2.82023e-06
1.91909e-06
2.50837e-06
2.43657e-06
2.16663e-06
2.36414e-06
2.27508e-06
2.93568e-06
2.24023e-06
2.13113e-06
2.28225e-06
2.17772e-06
6.9885e-05
2.47191e-06
0.021267
2.81193e-06
0.0146223
1.95682e-06
2.05918e-06
2.17257e-06
6.28514e-05
2.48423e-06
2.09153e-06
1.92009e-06
3.7328e-06
0.0845547
2.35849e-06
0.0348183
0.00679544
0.0775621
1.86353e-06
2.72285e-05
0.00104021
1.70489e-06
0.0218468
2.46478e-06
2.55042e-06
8.10335e-06
1.75386e-06
2.17624e-06
1.80588e-06
1.92518e-06
2.26801e-06
1.89867e-06
2.13334e-06
2.11085e-05
1.65268e-06
3.14581e-05
2.9327e-06
2.68906e-06
2.45215e-06
2.28375e-06
0.0208438
1.62993e-05
2.18433e-06
0.00979978
2.19854e-06
5.70255e-06
2.00293e-06
0.0157367
2.37406e-06
2.20614e-06
1.71579e-06
1.34536e-05
1.97435e-06