/*--------------------------------*- C++ -*----------------------------------*\
| =========                 |                                                 |
| \\      /  F ield         | OpenFOAM: The Open Source CFD Toolbox           |
|  \\    /   O peration     | Version:  v2012                                 |
|   \\  /    A nd           | Website:  www.openfoam.com                      |
|    \\/     M anipulation  |                                                 |
\*---------------------------------------------------------------------------*/
FoamFile
{
    version     2.0;
    format      ascii;
    class       volVectorField;
    location    "150";
    object      ddtCorrDdt0(U);
}
// * * * * * * * * * * * * * * * * * * * * * * * * * * * * * * * * * * * * * //

dimensions      [0 1 -2 0 0 0 0];


internalField   nonuniform List<vector> 
18166
(
(0.0311156 -0.0879224 -1.40451e-21)
(0.000111205 -0.000302633 -6.80346e-21)
(0.130413 0.0488849 -6.69558e-21)
(0.00775542 0.0574814 -6.35507e-22)
(0.10084 -0.0482019 0)
(-0.00908034 0.0171579 2.08957e-20)
(0.00022163 3.00092e-05 1.1775e-21)
(0.00111828 9.61695e-06 -7.50824e-21)
(0.0106539 -0.00986232 0)
(0.0300748 -0.098151 1.40969e-21)
(0.000134496 -0.000264482 0)
(0.0390928 0.0231437 0)
(-0.000481263 0.0060463 -6.33404e-22)
(0.0178615 -0.0123166 -9.23862e-21)
(0.00681506 0.00285577 8.34636e-21)
(-0.00058964 -0.000515066 0)
(-0.0102029 -0.126908 0)
(-0.000506423 8.86003e-05 -1.64966e-22)
(0.000769889 0.00291026 1.94066e-20)
(-0.0909845 0.00399941 -6.8272e-21)
(0.00107255 0.00133095 1.28506e-20)
(4.16982e-05 4.88399e-07 0)
(0.00136213 0.00411247 4.9979e-21)
(0.00197972 -0.00106711 0)
(0.000559612 0.0466159 -1.89905e-20)
(0.0420385 -0.00958503 9.90482e-22)
(0.00123174 0.000147304 4.64493e-21)
(0.00307589 -0.0980976 1.7448e-21)
(0.000677454 0.000156813 0)
(0.000196263 -0.000114914 5.91113e-21)
(9.58485e-05 -1.86688e-05 0)
(-0.01355 0.0598981 -1.52927e-20)
(0.0179555 -0.00918567 -7.57378e-21)
(-0.000943178 0.0304128 0)
(0.135912 0.0523413 2.91583e-20)
(0.00030627 0.000332709 7.89355e-21)
(0.000102384 -2.19158e-05 3.01153e-23)
(1.88865e-05 1.43114e-05 3.37611e-22)
(0.0088421 -0.00377223 -5.19786e-21)
(0.0411581 0.0167574 0)
(0.0105505 -0.00924954 -4.6011e-21)
(0.000446483 0.0027244 0)
(3.57094e-05 -4.64555e-06 4.12871e-22)
(0.000486669 0.00180623 9.05883e-21)
(0.125129 -0.0645718 0)
(7.79055e-05 1.72976e-06 -6.53058e-22)
(0.000173076 1.02325e-05 8.4728e-22)
(-0.161044 0.05793 4.58378e-22)
(0.000103899 5.89712e-06 -9.21953e-23)
(-0.0828782 -0.00614775 -2.71459e-20)
(-0.0827189 -0.0683973 8.26673e-22)
(-0.0198033 -0.131623 -8.21304e-21)
(0.000109742 6.8411e-06 1.30712e-22)
(-1.27002e-07 0.000735816 5.05155e-21)
(8.24824e-05 -3.07811e-06 2.13536e-21)
(0.000245901 0.000185356 1.56058e-20)
(-0.0619225 -0.147897 0)
(0.000114493 2.41055e-05 0)
(0.132412 -0.0125314 2.8099e-20)
(0.000246581 0.000202623 -8.39575e-21)
(0.00184104 0.000279363 1.96182e-22)
(0.000111892 -6.26661e-05 4.18838e-21)
(4.68347e-05 -9.39686e-06 -1.27596e-21)
(0.000215886 0.000172553 -5.96643e-21)
(0.00015487 -7.55632e-06 -3.52051e-21)
(0.000141855 -5.37624e-05 0)
(0.000163416 3.3433e-05 0)
(-0.00054136 -0.000472697 3.41823e-21)
(-0.230843 0.0729734 -2.3105e-20)
(4.58522e-05 2.70767e-05 -5.35511e-22)
(0.000354423 0.00138118 0)
(0.0103746 0.0358638 -7.90587e-22)
(-0.0381752 0.0286964 0)
(0.00998694 -0.00431767 0)
(3.7073e-05 2.71133e-05 3.60053e-22)
(0.00674817 -0.0181166 6.98814e-21)
(-0.204723 0.414413 0)
(-0.0735692 -0.202105 -1.93429e-20)
(-0.0835082 0.0393778 6.52677e-21)
(-0.00115825 -0.00912995 0)
(0.000950017 0.00115539 5.56243e-21)
(0.00458777 0.0065833 0)
(0.1084 -0.0566905 6.57767e-21)
(6.27642e-05 2.17777e-05 0)
(8.97827e-05 4.23145e-06 -1.86081e-21)
(0.00188518 0.00125117 5.08268e-23)
(0.0010844 0.00174032 3.46136e-22)
(0.000206246 0.000159845 3.73904e-21)
(0.000189939 -8.06831e-05 -9.49348e-21)
(-0.0910691 0.492177 0)
(6.32943e-05 1.42089e-05 -3.06669e-22)
(0.000462628 -0.000515678 0)
(0.000579021 0.00277423 0)
(0.000197606 -9.91841e-05 9.35958e-21)
(0.00950389 -0.0067524 0)
(0.00105166 0.000399104 0)
(-0.0230302 0.059373 0)
(0.000110963 3.65905e-05 0)
(-0.00418495 -0.145363 0)
(-0.28695 0.0405009 1.70654e-20)
(-0.00314544 0.00135753 3.0767e-22)
(-0.000319184 0.000546052 -6.61477e-22)
(0.000198114 -0.000114045 0)
(0.00471747 -0.0559152 1.33943e-20)
(4.5967e-05 5.07115e-05 9.04527e-23)
(-0.0717 -0.126057 -1.30608e-21)
(5.77919e-05 6.0006e-06 -8.74964e-22)
(0.00015943 8.25287e-06 5.43936e-21)
(0.000117426 0.000627714 -7.64244e-23)
(0.000550158 0.000129717 0)
(-0.0139989 -0.100917 -1.07698e-20)
(0.106981 -0.0875891 0)
(-0.00053401 -0.11107 0)
(-0.220309 0.0740465 0)
(0.00240597 -0.000575746 -4.70946e-21)
(-0.0238261 -0.141561 -5.66207e-21)
(-0.135908 -0.253159 4.77083e-21)
(-0.00541067 -0.00618736 -6.23121e-21)
(0.00188919 -0.000738758 0)
(3.28947e-05 -5.5048e-05 -3.8553e-22)
(-0.000250428 -0.000595059 8.53316e-21)
(3.32244e-05 -5.90397e-05 0)
(-0.00447991 -0.00905339 4.11109e-21)
(8.80028e-05 -1.84616e-05 3.15835e-21)
(0.000225902 -2.25839e-05 5.8521e-21)
(0.00373757 0.00156086 1.7816e-22)
(0.00363909 0.00182868 0)
(-0.00199985 0.00546826 5.52723e-21)
(4.63123e-05 3.79173e-06 -4.51603e-22)
(0.000217372 0.000153449 7.04401e-22)
(0.000216896 2.3287e-06 6.08891e-22)
(0.000246908 0.00020742 -7.06478e-22)
(-0.00679135 -0.0178342 4.37162e-22)
(-0.00285455 0.00129446 0)
(0.0169623 -0.00360719 1.88057e-21)
(-0.0402119 -0.149301 6.55318e-21)
(0.00042461 -5.15994e-05 0)
(-0.071163 0.0389997 -6.23417e-21)
(4.58471e-05 1.86857e-06 -5.78718e-22)
(0.0458083 0.00205834 4.62663e-22)
(-0.000184533 0.000177489 7.52366e-21)
(-0.000217258 -0.000517963 -1.44659e-20)
(0.00313785 0.00213526 1.13006e-20)
(-1.73608e-06 -0.0927585 1.47803e-20)
(0.000127067 2.63064e-05 7.24177e-23)
(0.128866 -0.0329787 0)
(-0.0180588 -0.119023 -6.19351e-20)
(0.000105948 -1.90433e-05 -1.17754e-21)
(0.000491315 0.000485048 -1.5898e-22)
(-0.271877 0.0124128 0)
(0.0023677 -0.00625973 -1.63795e-21)
(0.000613166 0.00105863 -6.24298e-21)
(0.0442204 0.0205114 0)
(-0.00628415 -0.0611134 0)
(-0.024217 0.0137693 0)
(0.000343944 0.00050375 1.62614e-22)
(0.00137275 0.0013244 -5.90762e-22)
(-0.00134972 0.00168103 -3.96971e-21)
(-0.0233185 0.0121674 0)
(0.00237971 -0.000683923 -7.55614e-21)
(0.000990374 -0.000352448 -1.61136e-21)
(0.00272237 0.00390031 -3.45855e-22)
(-0.162251 -0.0754856 -2.65892e-20)
(3.42385e-05 -2.55549e-06 -3.05534e-22)
(0.000213785 0.000190802 1.26543e-20)
(0.0044056 -0.000999329 -2.43566e-22)
(-0.0307177 0.038935 -7.35154e-20)
(0.000951268 0.000200838 -1.03918e-21)
(0.00194969 -0.051622 2.37583e-20)
(0.00125119 0.00110575 5.18661e-22)
(-0.00199531 -0.00728949 -4.54079e-22)
(-0.0540372 -0.119992 -7.85666e-22)
(0.000301443 -0.000252222 0)
(0.0323432 -0.132382 0)
(4.38584e-05 -1.39273e-06 1.83363e-22)
(-0.115602 -0.0084093 -2.05524e-20)
(0.00126469 0.000867034 -2.20709e-22)
(-0.00599063 -0.0303521 6.41067e-21)
(0.000252005 0.000187077 -6.75581e-21)
(0.000771662 0.000725248 0)
(8.24206e-05 -1.9339e-05 -1.61269e-21)
(0.000560117 -0.000565009 6.96868e-23)
(-0.00986257 -0.0276534 -3.17604e-21)
(0.095306 -0.064401 3.71456e-21)
(0.000515312 -0.00461735 6.68138e-22)
(6.56513e-05 2.69218e-06 0)
(0.000696946 -9.46165e-05 3.70719e-21)
(0.000583992 0.000726738 -1.38203e-20)
(0.000651082 -0.00249377 -1.34461e-21)
(5.63024e-05 3.58604e-06 7.85775e-22)
(-0.00109477 0.00207705 4.13261e-21)
(0.000668334 -0.00423313 -6.93012e-21)
(0.0967355 -0.0677119 1.19048e-20)
(0.000141963 1.52906e-05 0)
(0.00319885 0.00414454 -2.87596e-22)
(-0.0498238 0.00332312 3.4706e-20)
(-0.0477136 0.000603009 9.01542e-21)
(-0.0541394 0.0221987 -3.75463e-21)
(-0.000232171 8.29506e-05 3.0944e-21)
(0.000170235 4.37831e-05 4.90885e-22)
(0.0042265 -0.000236241 -2.76953e-23)
(0.00347163 -0.182297 0)
(0.00830538 -0.0500666 9.1691e-21)
(0.00291942 -0.000845507 -4.74253e-21)
(0.0002281 0.000224455 0)
(-0.0183841 0.027095 -1.1728e-20)
(-0.000423232 -0.000847153 0)
(0.00611278 0.0451618 0)
(-0.0176852 0.0232232 1.19573e-20)
(-0.00182449 0.00274889 0)
(0.000268577 -8.33297e-05 0)
(-0.0172847 0.0239801 1.03066e-20)
(-0.0175415 0.0227896 -1.30574e-20)
(-0.00123514 0.00219087 1.85618e-22)
(0.00170152 0.00486388 2.06155e-20)
(-0.000203446 0.000221286 0)
(-0.15937 0.115089 1.74005e-20)
(7.22606e-05 0.000693364 0)
(-0.000848317 0.00221977 7.0122e-21)
(0.000308862 8.38279e-06 2.73128e-22)
(0.00581676 0.00539946 -3.7948e-23)
(0.0249379 -0.037419 0)
(0.0216233 -0.0010077 -6.2921e-21)
(0.000119723 -1.96556e-05 1.45412e-21)
(0.000151782 1.68058e-05 0)
(-0.0526259 -0.16071 3.20135e-20)
(0.000113853 -5.54103e-05 -2.43888e-21)
(0.000269826 2.03584e-05 0)
(-0.000678708 0.00193284 0)
(0.000105707 -1.57457e-05 -9.81826e-22)
(0.000106819 -3.04525e-06 1.13403e-21)
(3.64552e-05 -1.56932e-05 -1.16533e-22)
(0.0455273 -0.0054156 3.53063e-21)
(3.61484e-05 -7.24723e-06 1.42538e-22)
(-0.0185039 -0.0717258 0)
(0.00653646 -0.0819122 2.46903e-21)
(-0.00185702 -0.0863553 4.49015e-21)
(2.53559e-05 -2.17429e-06 -5.60053e-23)
(0.00244451 -0.000297353 0)
(0.0436544 0.000873625 -1.41738e-20)
(0.000150876 -5.04025e-05 -1.4261e-21)
(0.0220313 -0.00711703 8.22227e-21)
(0.000109244 -2.38493e-06 0)
(-0.0573653 -0.174237 0)
(0.000123803 -2.62793e-05 -6.17791e-21)
(4.05051e-05 -6.08664e-05 0)
(0.0251588 0.168112 -2.84445e-20)
(3.89388e-05 -5.64913e-05 0)
(0.00145675 -0.014343 4.2186e-22)
(-0.00911885 0.0169699 0)
(0.0304458 -0.0307083 -8.38393e-22)
(0.000303316 7.24599e-06 -2.17084e-22)
(0.000841585 -0.000555904 -8.10982e-21)
(0.0400295 0.00548367 -3.56834e-24)
(-0.000343952 -0.000465725 7.57234e-21)
(0.000163199 1.18588e-05 -1.62606e-21)
(-0.000151766 0.000303291 -5.58431e-21)
(0.000270418 0.000185282 0)
(0.000757078 -0.000414034 1.36401e-21)
(0.000982822 0.000632659 0)
(-0.0193664 -0.0152144 -2.94823e-21)
(-0.0177409 -0.0182807 0)
(0.000471163 0.000394133 6.11547e-21)
(5.22679e-05 -1.06745e-05 0)
(0.000162833 1.58084e-05 5.99475e-21)
(0.00348901 0.00682574 -4.59519e-21)
(0.0303329 -0.0789466 -1.26805e-20)
(0.000941001 0.000158394 -1.71274e-21)
(6.66581e-05 6.95126e-06 5.28621e-22)
(0.0361881 0.00639525 1.60075e-20)
(0.000163048 3.08904e-05 3.95334e-21)
(0.000236102 0.000218943 0)
(-0.0309281 0.0509413 -3.27925e-21)
(-0.0160889 0.0544035 1.49942e-20)
(-0.00717028 -0.00960108 1.19109e-22)
(0.000171247 1.6803e-05 1.70998e-21)
(-0.074232 -0.0935713 1.09663e-21)
(9.07944e-05 7.38564e-06 -1.96932e-21)
(8.92729e-05 -0.000284355 9.61662e-21)
(-0.0212336 0.0721609 -2.11141e-20)
(0.000220203 3.85466e-05 -5.95909e-22)
(0.00115054 0.00183063 -7.06672e-23)
(-0.00300755 0.0111285 -1.41915e-22)
(0.000243242 0.000218294 0)
(0.000229693 0.000177877 1.57359e-21)
(-0.00270203 0.000490143 -4.68612e-21)
(-0.0237061 0.0159537 0)
(0.0428091 0.00302567 -1.14539e-20)
(0.000159916 9.86028e-06 0)
(-0.00140642 0.00137757 0)
(1.66083e-05 0.000421624 3.13148e-22)
(-0.00596298 -0.0267185 -4.75727e-22)
(0.000279789 0.00018656 -7.99538e-21)
(0.00119533 -0.00206132 -9.78967e-21)
(3.32267e-05 -4.79349e-05 1.83658e-22)
(5.65077e-05 4.1467e-07 3.85721e-22)
(4.21956e-05 2.83538e-06 -1.44515e-22)
(-0.0669926 -0.180089 0)
(3.30964e-05 -4.2901e-05 -1.63787e-22)
(0.0420229 -0.0559819 4.1319e-21)
(0.010443 -0.0070712 -2.37301e-20)
(0.00810912 -0.0406405 5.86571e-21)
(-0.269605 0.108281 -3.43189e-20)
(0.00879147 -0.00346634 5.57817e-21)
(0.000204426 -0.000104449 1.68222e-21)
(-0.00994013 -0.00466361 0)
(0.0227205 -0.0192688 -1.17091e-21)
(0.000393535 8.82092e-06 4.90933e-21)
(-0.000143835 0.000649807 6.84532e-22)
(-0.00125384 0.00122108 -5.09566e-22)
(9.44798e-05 -0.000193847 2.847e-21)
(0.000225029 -1.93114e-05 -7.12243e-21)
(0.00123971 -0.000146178 -2.86965e-21)
(0.000725601 -0.000359519 -6.23612e-21)
(0.000219117 4.10206e-05 5.89207e-22)
(3.31665e-05 2.06837e-06 3.25787e-23)
(4.66351e-05 2.82261e-05 4.62171e-22)
(-0.0176798 0.0342281 3.17786e-20)
(-0.0248855 0.011188 0)
(0.000155611 1.83364e-05 -1.92787e-21)
(0.0751063 -0.0518307 -3.17988e-20)
(0.00130799 -0.004041 0)
(0.000619187 -0.05849 -1.38952e-20)
(0.00111498 -0.00326928 0)
(9.03356e-05 -2.27881e-05 -1.82215e-23)
(4.49799e-05 2.73739e-05 -4.71651e-22)
(0.000152502 -0.000156224 -2.67449e-21)
(0.119998 0.0538412 -1.22571e-20)
(0.00021935 -4.87638e-05 -3.09346e-21)
(-0.0185431 0.0191485 0)
(5.66689e-05 5.6249e-06 1.06924e-21)
(4.40867e-05 1.96023e-06 2.61132e-23)
(0.000161768 -1.41657e-05 0)
(-0.000108871 0.000491961 -5.12227e-21)
(-0.00234173 0.00895252 -1.89713e-20)
(0.000207911 4.94543e-05 0)
(-0.0171508 0.019089 0)
(-0.0258723 -0.0230572 0)
(0.000869779 0.0014433 -6.78037e-22)
(0.00017383 -4.46203e-05 3.15567e-21)
(0.00224353 -0.0370623 7.95637e-21)
(0.00107359 -0.000185717 3.83646e-21)
(-0.0182754 0.0261778 2.599e-20)
(0.000226519 -3.64302e-05 -5.46145e-21)
(0.0030456 0.00151964 -6.18451e-21)
(0.000575651 0.000241813 0)
(-0.0748763 0.0654906 -4.34719e-21)
(0.00054089 1.21043e-05 -4.36065e-21)
(0.000106025 -4.97606e-05 1.9018e-21)
(4.83407e-05 5.9364e-05 -7.78917e-23)
(-0.0212821 0.0660767 0)
(5.27082e-05 6.68937e-07 0)
(0.0447689 -0.00260481 2.61886e-22)
(0.00122019 -1.46831e-05 0)
(0.0419068 -0.0738833 0)
(0.00112895 0.00396642 1.13678e-20)
(0.00107487 -0.000392438 1.70625e-21)
(0.000787939 0.00112482 1.23972e-21)
(0.0153368 -0.0814224 3.29647e-21)
(0.0291164 -0.0298269 2.59058e-21)
(0.000912787 -0.000544809 -2.46174e-22)
(0.00043013 3.69514e-05 4.59399e-21)
(3.62198e-05 -3.38194e-05 -2.72228e-22)
(0.0033381 0.00269911 -6.49287e-21)
(-0.0628465 0.00798637 3.97289e-21)
(3.29349e-05 -2.44996e-05 2.88818e-22)
(8.77108e-05 -3.09276e-05 0)
(0.000179954 8.61864e-06 -9.80349e-22)
(0.000171853 -0.000658004 1.0138e-21)
(-0.00575948 -0.00299603 -2.83882e-21)
(9.76508e-05 -3.19219e-05 0)
(-0.000571287 0.000112737 0)
(0.000278139 2.64172e-05 -3.56011e-21)
(-0.0548385 -0.0190684 -1.83106e-20)
(0.000182571 -5.05489e-05 -4.90873e-21)
(2.23619e-05 -6.61344e-07 0)
(-0.000516151 3.97411e-05 0)
(-0.0064519 -0.00141454 1.61544e-21)
(0.000110493 -1.43516e-05 1.78442e-21)
(0.000595793 6.20583e-05 0)
(4.89933e-05 -7.3962e-05 -6.73051e-22)
(0.000225716 0.000188378 -1.38338e-20)
(-0.00130549 0.0326904 0)
(-0.0567744 -0.0552927 -4.28229e-21)
(4.58024e-05 -6.95178e-05 8.67648e-22)
(0.000623049 0.000274641 -1.09602e-20)
(0.0189746 -0.00481033 0)
(-0.00303766 0.0344091 3.73495e-21)
(0.00113882 0.00135854 -1.13699e-20)
(-0.0756409 0.0606353 8.51271e-21)
(4.83618e-05 -7.01024e-05 -2.5364e-22)
(-0.0721852 -0.0595485 1.30787e-20)
(0.00877794 -0.00480527 -3.82031e-21)
(0.00218687 0.000462701 0)
(-0.0470288 0.0925961 -1.69132e-21)
(0.00224432 0.0382573 -9.82224e-21)
(0.000169047 -1.52056e-05 0)
(3.79992e-05 -6.70948e-05 -9.25928e-24)
(0.00017962 1.1406e-05 -3.52083e-21)
(0.0474711 0.0365628 -2.68754e-20)
(3.74285e-05 -5.817e-05 9.93283e-22)
(2.60336e-05 -4.44477e-05 -6.91509e-22)
(-0.00020382 0.00038548 -5.56238e-21)
(2.52389e-05 -1.77493e-05 6.88664e-24)
(0.00189942 0.00080452 -2.09966e-20)
(0.000166315 3.01968e-06 -5.09101e-21)
(5.2243e-05 2.58797e-06 -6.88618e-22)
(-0.0731444 0.038893 5.81743e-20)
(-0.0415007 -0.0847178 0)
(2.2021e-05 -1.95426e-05 -6.37391e-24)
(-0.00042734 0.000289055 8.22221e-22)
(-0.0500831 -0.0140509 2.66844e-21)
(-0.00213832 -0.00973809 0)
(4.96387e-05 1.68923e-06 -3.22927e-22)
(0.000103391 -3.41104e-06 0)
(-0.0592756 -0.0230308 -1.86247e-20)
(0.00101056 0.000543068 -3.25447e-21)
(0.000143328 0.000107074 0)
(9.25212e-05 4.25384e-05 -1.58449e-21)
(0.000942535 -0.00234671 -2.79822e-21)
(0.000161891 -1.40409e-05 0)
(0.00010596 1.58656e-05 -3.01892e-23)
(0.0421568 -0.0336345 0)
(0.0320907 -0.0542172 -5.52709e-22)
(0.00344852 -0.00126744 8.3185e-23)
(0.00017221 -1.56114e-05 -2.25202e-21)
(0.00056946 4.53623e-05 5.29946e-21)
(0.000104197 -8.05147e-06 0)
(0.000101975 -2.90357e-06 0)
(0.00577046 0.0108652 0)
(0.00173542 0.000544389 -1.25419e-20)
(4.7475e-05 1.52092e-05 0)
(0.000191038 -0.000146424 0)
(-0.00339068 -0.0116502 1.1838e-21)
(9.80427e-05 4.16702e-06 0)
(0.000294819 1.88254e-05 1.9419e-21)
(0.000251649 0.000150425 -1.323e-21)
(0.0678796 0.0217692 3.55712e-20)
(0.117172 0.207343 0)
(0.052151 0.0198224 0)
(-0.0285312 -0.082164 0)
(0.14443 0.0437512 0)
(-0.0284077 -0.0626047 0)
(-0.0291074 -0.0622424 -1.26264e-20)
(0.0001769 -8.92723e-05 -4.27762e-21)
(-0.000241816 -0.00590129 -1.37882e-22)
(0.065153 -0.0970408 0)
(-0.000626798 -0.000384635 0)
(0.0196826 0.000235941 0)
(-0.000954898 0.00213141 -2.1094e-22)
(0.00631309 0.00807728 -7.94225e-23)
(0.000770708 0.000148479 0)
(0.000222416 0.000183395 1.16043e-20)
(5.02207e-05 1.26377e-05 0)
(9.10776e-05 7.73125e-06 6.35988e-24)
(-0.00349597 -0.00518223 0)
(-0.00632236 0.00246503 3.61207e-22)
(0.000173869 -1.14105e-05 -6.33229e-22)
(0.000292298 4.71328e-05 -2.26396e-21)
(-0.000664824 0.000150643 -1.36895e-21)
(4.30901e-05 3.63012e-06 0)
(4.19803e-05 -7.71643e-05 1.09155e-22)
(0.000103646 -1.06023e-05 0)
(0.00102728 0.0030857 -1.19177e-20)
(0.00574419 0.00460593 -1.21505e-20)
(-0.00660635 0.000181578 0)
(0.00133443 -0.00198153 0)
(0.000232131 3.41166e-06 3.56311e-21)
(0.00476271 0.0144233 -1.43535e-21)
(-0.000154798 5.06283e-05 0)
(0.0053099 0.0148683 1.23189e-21)
(0.000216912 3.21513e-05 3.06585e-21)
(-0.00423146 -0.00399841 0)
(0.000971373 0.00075724 5.3259e-23)
(0.0646362 0.107174 0)
(0.000173704 1.38188e-05 -1.0391e-21)
(0.00328444 -0.00198157 1.98027e-22)
(5.67173e-05 2.00945e-06 -1.98714e-22)
(0.000723515 -0.000459563 7.67192e-22)
(0.0479929 -0.097183 -1.13563e-20)
(-0.0106734 0.0132089 8.95345e-21)
(-0.00207269 0.000145328 0)
(-0.0715354 -0.0980912 -1.23627e-21)
(0.000354003 5.33994e-05 -5.8473e-21)
(0.00913802 -0.0104765 0)
(0.00186663 -0.0092809 1.39496e-21)
(0.0782356 0.0161739 -1.7463e-20)
(4.41386e-06 5.703e-05 4.65908e-22)
(-0.00213899 0.0015391 -1.40334e-20)
(0.00010303 -2.77632e-06 2.44474e-21)
(0.000160482 1.54879e-05 5.26563e-22)
(-0.000413982 -0.000141907 0)
(0.000208792 -0.000105539 5.9984e-21)
(0.0330415 -0.0228273 -1.39908e-20)
(0.0381185 -0.0176291 7.42181e-22)
(-0.0105809 0.0043365 -9.37838e-21)
(0.000573379 -0.000630087 0)
(0.00042137 0.00350125 2.53406e-20)
(0.000204564 0.000221008 9.60639e-22)
(0.00025557 0.000205757 2.30982e-21)
(0.00324723 0.00285009 -1.84726e-20)
(0.000158686 0.000110839 3.62464e-21)
(0.000736922 0.000760291 0)
(0.126568 -0.0650397 0)
(0.00307181 -0.000878853 0)
(0.000382232 0.000143665 0)
(-0.000519641 -9.69255e-05 0)
(0.0001753 2.11765e-05 1.75457e-21)
(0.00345956 -0.00139669 8.70265e-22)
(0.0403086 0.0154218 0)
(-0.000104253 0.000627651 5.75666e-21)
(0.00015635 -7.70604e-06 7.79816e-21)
(0.000166154 8.23423e-06 5.63055e-21)
(5.50665e-05 -4.23705e-07 0)
(0.0739535 0.015548 3.11122e-20)
(-0.0284947 0.01534 -3.72928e-21)
(0.0641693 0.0275696 6.83025e-22)
(0.000619962 0.000255828 6.44464e-21)
(0.211174 0.0390004 -7.52943e-22)
(0.000256216 0.000221286 -6.25299e-21)
(-0.000462092 0.00220214 -9.84238e-21)
(0.0911292 -0.0379732 -6.61985e-21)
(-0.00500818 -0.0148341 -3.47873e-21)
(0.034102 -0.0315194 2.72027e-20)
(-0.0102277 -0.0688595 0)
(-0.00317255 0.00041097 -2.81611e-21)
(0.000197347 0.000157472 -4.79687e-21)
(0.000208364 5.42619e-05 -2.87965e-21)
(2.24955e-05 1.55911e-05 -3.23416e-22)
(0.000158297 7.68532e-06 0)
(0.0439732 0.0336709 1.20041e-20)
(9.40583e-06 -0.00925773 -5.07431e-21)
(0.0598951 0.139098 -1.87415e-20)
(-0.0675654 -0.0518085 0)
(-0.00613405 0.00319167 0)
(0.180624 0.0249802 1.02333e-20)
(2.01074e-05 1.1562e-05 0)
(6.05822e-05 -3.74624e-06 2.6366e-22)
(0.00175517 -0.00970987 3.04167e-21)
(-0.000765185 8.82889e-05 0)
(0.00418441 -0.000775601 -4.39345e-22)
(-0.00991383 0.0305247 0)
(0.00477416 -0.0143156 4.54557e-21)
(-0.0281104 0.0127005 3.92118e-21)
(0.000279579 0.000439374 0)
(-0.000457938 0.00378825 -2.48783e-20)
(5.44877e-05 2.78027e-06 -2.00646e-22)
(4.76114e-05 -6.88417e-05 0)
(-0.071384 -0.0706944 1.79068e-21)
(0.00060128 -0.000391314 -8.73315e-22)
(0.00626588 0.00276729 2.15373e-20)
(0.00130623 -0.000706939 0)
(0.000169259 -2.08726e-05 -8.1662e-22)
(-0.0242114 -0.0315412 -1.71227e-21)
(0.000117527 5.23279e-05 0)
(4.09233e-05 -6.90822e-05 0)
(0.00218063 0.0302709 -1.92063e-20)
(-0.000329861 0.0301716 -4.56739e-20)
(0.000188611 -0.00029919 1.15528e-21)
(0.0423984 -0.000391119 5.26699e-22)
(0.000200861 -0.000138287 0)
(0.012443 0.0031153 -1.12046e-20)
(-0.0409586 0.0121725 4.94707e-20)
(6.81341e-05 -1.41258e-06 3.52583e-22)
(0.000207617 4.96437e-05 -1.13187e-21)
(-0.156577 -0.0625735 1.14474e-20)
(-0.000626301 7.20099e-05 4.7147e-21)
(-0.00153492 0.00515984 0)
(3.33333e-05 -5.31203e-05 -5.02666e-22)
(0.000906887 0.000392029 8.67769e-21)
(0.00410411 -0.00108216 0)
(2.82287e-05 -5.18126e-05 -4.80496e-22)
(-0.00135234 -0.0510622 1.03975e-20)
(0.000251622 4.00941e-05 0)
(-0.0134882 -0.0861949 0)
(-0.0448129 0.0186046 0)
(0.00184957 0.00405204 -3.43146e-20)
(0.000190524 -0.00010818 7.82635e-21)
(0.000721979 0.000802153 0)
(0.000347129 -0.00037613 0)
(-0.000972247 -0.00067101 0)
(-0.00221509 0.0343084 0)
(-0.00578853 -0.00222762 2.03897e-21)
(0.00116551 -0.000432854 0)
(-0.00983799 0.00546058 -2.55929e-21)
(2.33301e-05 -2.59748e-06 2.67481e-22)
(0.000166023 -5.66149e-05 -1.28096e-20)
(9.00182e-05 -2.28563e-05 -1.9355e-21)
(-0.00162177 -0.0454557 1.56239e-20)
(0.00059428 0.000131836 -6.67556e-21)
(-0.0221091 0.471772 1.05509e-20)
(4.68955e-05 -5.55887e-06 9.29288e-22)
(0.013101 -0.0350896 5.43143e-21)
(0.00973297 -0.0114872 -6.06183e-21)
(0.000274491 0.000252921 6.93245e-21)
(0.000177705 1.35842e-06 0)
(0.00017703 -3.88483e-07 0)
(0.0400394 0.000580355 0)
(-0.0290252 0.00786334 -2.96685e-21)
(0.0921442 -0.0722628 1.93627e-21)
(0.000103621 3.28339e-05 -1.38102e-24)
(0.000276324 -0.00966573 2.74417e-21)
(0.000179776 -7.09969e-06 0)
(0.000206168 -0.000136893 -7.67386e-21)
(-0.0308702 -0.0104778 0)
(1.29708e-05 5.75319e-05 -2.45597e-22)
(0.0157728 -0.00303336 -4.57057e-21)
(0.0371804 -0.0104168 1.79041e-22)
(0.0524034 -0.0254992 0)
(-0.000358891 0.00186196 -5.66435e-21)
(5.21923e-05 -9.79737e-06 -1.09051e-24)
(0.00863507 -0.0141522 0)
(8.69246e-05 0.00145999 -1.49054e-21)
(0.000158958 -9.98891e-06 0)
(-0.00115496 0.000377228 1.21952e-21)
(0.000163487 1.18774e-05 -5.84893e-21)
(0.0121018 0.0135498 -1.61998e-20)
(-0.000155465 0.00165937 1.37436e-21)
(0.00374837 -0.00357856 0)
(-0.0546734 -0.0521409 2.19234e-21)
(-0.0059181 -0.0380781 0)
(0.000134751 1.27522e-05 2.63426e-22)
(0.0450003 -0.100004 0)
(-0.0420316 -0.021734 -1.03594e-20)
(0.00015859 1.60852e-05 0)
(0.0132893 -0.00727349 2.48305e-21)
(0.000181425 -6.30162e-05 9.65426e-21)
(0.000212091 4.61804e-05 -6.41566e-22)
(-0.279016 0.0543539 -1.86979e-20)
(0.00791395 1.77036e-05 0)
(-0.0017194 0.00186097 5.01792e-21)
(3.50295e-06 0.00166391 0)
(-0.0011034 -0.000918401 4.88904e-21)
(-0.291044 0.512962 -2.64517e-20)
(0.0195948 -0.0279164 -1.68656e-20)
(0.00973497 -0.00630257 0)
(0.00101018 -0.000584841 7.30936e-23)
(0.000171098 -0.00440925 2.70756e-22)
(0.000176442 -8.78319e-06 6.20509e-24)
(-0.0200396 -0.0153585 0)
(0.000199736 -9.7185e-05 -3.84452e-21)
(9.7061e-05 5.9318e-06 4.45893e-23)
(0.0320204 0.0625539 -1.2779e-20)
(0.00011951 2.9738e-05 -3.70062e-21)
(0.000158796 0.000158721 -6.904e-21)
(9.78708e-05 -4.54236e-05 -2.7879e-21)
(-0.0492706 -0.150354 2.73743e-21)
(0.00642988 -0.000645662 -4.25589e-23)
(-0.000559228 0.000566751 -2.13815e-21)
(6.45516e-05 0.000412091 0)
(0.0244362 -0.0131678 0)
(3.80716e-05 2.5058e-06 5.70616e-23)
(0.000165908 -2.85352e-05 0)
(-0.0539604 -0.0333548 8.16984e-22)
(-0.000239412 -0.00448188 -2.44476e-22)
(-0.0262828 -0.0877965 0)
(0.000716548 0.000947481 0)
(0.00106468 0.000295297 6.84777e-21)
(0.000100712 2.30319e-05 0)
(-0.00123358 -3.70611e-05 -6.16057e-22)
(0.0005423 -0.000411345 0)
(0.00251473 0.00146891 -1.37776e-20)
(0.000490086 0.000752695 -1.33947e-22)
(0.000211677 4.25459e-05 0)
(9.13945e-05 2.93324e-06 0)
(0.00814108 -0.0271576 -1.34698e-20)
(0.000106643 4.00871e-06 -1.90011e-21)
(-0.0601539 -0.0486286 0)
(0.000200861 -0.000131391 7.82312e-21)
(-0.0208906 0.0141114 -7.69155e-21)
(-0.0058706 -0.0181858 -6.62889e-22)
(-0.000142862 0.00154284 0)
(-0.000709346 -0.000274116 0)
(0.00965711 0.0754639 0)
(-0.00788436 -0.024641 8.8465e-21)
(-0.110252 0.0469784 -8.90082e-21)
(0.00862463 0.0133143 -4.49581e-22)
(0.000257955 4.08461e-05 -7.44979e-21)
(0.00057477 0.00232851 2.37088e-20)
(0.000150453 -3.76765e-05 0)
(5.03643e-05 3.42879e-05 -1.00218e-21)
(-2.86521e-05 0.000404362 3.14468e-22)
(8.24749e-05 1.73371e-05 -2.37267e-21)
(-0.0304257 0.0155744 0)
(-0.00858537 0.0132174 -4.07924e-20)
(0.0420388 -0.0777187 0)
(0.0268557 -0.0756456 -4.09325e-21)
(-0.00146255 -0.135599 1.51194e-20)
(0.0234235 0.0300987 -1.4013e-20)
(0.000343502 -5.9957e-05 0)
(0.000626071 -0.0105045 3.63561e-21)
(0.000165386 7.20434e-06 5.6786e-21)
(0.000270202 0.000682316 0)
(-0.00323041 0.0119732 1.85574e-20)
(-0.0461698 -0.00518221 -5.03743e-21)
(-0.156791 0.232175 1.02837e-20)
(0.0059928 0.0096144 -2.36078e-20)
(-0.0388515 0.0528527 2.58493e-21)
(0.000205362 0.000192294 6.62896e-21)
(0.000201355 -0.000113087 -4.56781e-21)
(0.00213985 -0.0267614 0)
(-0.0246828 0.0142724 -3.24196e-21)
(0.000391582 -6.9384e-06 0)
(0.128619 -0.0515878 -5.05254e-20)
(0.00043399 -0.00233703 1.51163e-21)
(0.000296605 1.56142e-05 5.31419e-21)
(-0.000388217 -0.0047034 1.441e-21)
(0.000204482 -0.000109489 -8.17753e-21)
(4.44231e-05 1.21619e-06 0)
(-0.00471304 -0.00435875 0)
(0.147521 -0.0014804 3.20547e-21)
(-0.0336212 0.0357746 5.50318e-21)
(-0.0368905 -0.0470777 0)
(-0.00383287 -0.024158 2.94492e-21)
(-0.0517967 -0.110319 -1.35205e-21)
(0.0095095 -0.012944 0)
(0.00266147 0.00162086 6.61668e-21)
(0.000163786 -0.000217098 0)
(0.000100357 1.43534e-05 0)
(0.0107191 -0.00988706 -9.0893e-22)
(-0.0885438 -0.0391962 -2.41547e-21)
(0.000283179 0.000210777 1.16646e-21)
(-0.0443991 -0.00486022 -2.54931e-21)
(-0.00933432 0.00181678 4.41851e-21)
(-0.00599239 0.00285392 -9.5652e-22)
(-0.000391864 0.000585459 -7.23514e-22)
(0.0516269 0.00659015 1.11934e-20)
(0.00618177 0.0120586 3.149e-21)
(0.0186065 -0.015537 -4.38061e-21)
(0.0544963 -0.0954094 7.84841e-21)
(0.000895851 -0.0268733 0)
(0.00892442 0.00323622 0)
(0.00655515 0.00990289 -2.23971e-20)
(-0.0163328 0.0155073 1.37488e-20)
(0.000867596 -0.000829572 -1.18481e-22)
(0.000980918 -0.000354114 0)
(0.00178061 0.000796898 0)
(0.0253221 0.118373 -3.45215e-21)
(-0.00542682 -0.00271589 0)
(-0.0393099 0.0108554 1.35845e-21)
(0.154403 0.0159242 0)
(-0.0900514 0.0265685 -2.25232e-20)
(1.58614e-05 1.45597e-06 6.35993e-24)
(-0.000548598 -0.001065 -7.28816e-23)
(5.62172e-05 -6.37439e-06 -1.68106e-23)
(0.000191014 -9.74389e-05 -3.11582e-21)
(0.00955179 -0.0161579 7.32252e-21)
(-0.00648847 -0.0147628 0)
(-0.00490108 -0.00193255 0)
(0.000593605 0.000180896 4.20086e-21)
(0.00016801 -0.000104709 4.17697e-21)
(-0.0104875 0.00798698 -2.01149e-21)
(0.000413362 -0.000301128 -7.27592e-22)
(0.000157249 -8.07352e-06 -7.40813e-21)
(-0.200921 0.140845 0)
(0.000286581 0.000229868 0)
(-0.0407346 -0.094262 0)
(4.87715e-05 3.76522e-05 2.77284e-22)
(0.000150602 -1.64086e-05 2.19873e-21)
(0.0032645 -0.0366888 1.14588e-21)
(-0.00659107 0.00319648 0)
(8.58136e-05 -9.43038e-06 5.96796e-23)
(0.00832339 0.00851784 6.31444e-21)
(0.0368675 -0.0228112 1.56155e-20)
(0.00293667 0.00155455 -9.8868e-21)
(0.0015105 0.000970745 0)
(0.00118966 -0.00753255 0)
(-0.00753954 0.00114887 0)
(-0.0873365 0.0134357 5.82662e-21)
(0.000222862 -3.42376e-05 6.37283e-21)
(0.00020554 2.33635e-05 -2.3651e-21)
(0.000124078 -0.000153308 -3.261e-21)
(0.000124835 -0.000140478 3.3722e-21)
(9.58302e-05 1.69033e-06 -3.84325e-23)
(8.45155e-05 -8.9662e-06 -2.16583e-22)
(0.052152 0.0248689 1.79873e-21)
(-0.0315574 0.120031 -9.90377e-23)
(-0.00213281 -0.0928617 0)
(0.0200695 -0.0333028 -1.12676e-20)
(0.0547092 -0.0189577 -1.51123e-20)
(-0.0218008 -0.079256 -1.10358e-20)
(-0.000531669 -0.00789747 0)
(0.0219695 0.0582333 -5.76443e-22)
(0.0385399 -0.00283129 0)
(-0.0340098 0.0966075 0)
(0.00172764 0.00100015 8.43664e-21)
(-0.000860909 -2.54485e-05 0)
(0.000122392 -0.000157407 1.82251e-21)
(-0.00955361 0.00473214 -4.71173e-21)
(-0.0441559 -0.153412 -5.65794e-21)
(0.000777899 -0.000250549 6.63193e-21)
(2.67326e-05 -4.14004e-06 3.01235e-22)
(0.000249922 0.000209045 0)
(-0.00213138 0.00179509 0)
(-0.0542296 -0.0235682 2.09738e-20)
(0.000182976 -2.3439e-05 0)
(0.000205593 -3.96954e-05 3.72584e-21)
(-0.000279655 -0.0108696 -1.54474e-21)
(0.000108721 -6.07511e-05 0)
(-0.000886166 -6.54536e-06 0)
(0.000276441 0.000203737 -5.93273e-21)
(0.000157551 0.000117839 0)
(0.000162943 -3.32306e-06 1.48619e-25)
(-0.0304936 0.0256834 0)
(0.00143415 0.000647718 -5.2521e-22)
(0.000191335 -8.99982e-05 6.41545e-21)
(-0.00698484 -0.0142662 0)
(0.0106959 -0.0037709 0)
(0.000275499 -0.00504405 -1.40406e-21)
(-0.153201 0.200609 -2.94745e-20)
(0.000324798 6.51666e-05 0)
(-0.00529701 -0.0237124 -2.60245e-21)
(4.75606e-05 5.82042e-05 3.96339e-22)
(4.66818e-05 2.89507e-07 0)
(-0.00120582 0.141995 4.64854e-21)
(-1.90444e-05 0.000262207 1.10288e-22)
(0.0420233 -0.00816223 -9.41316e-23)
(-0.0283416 0.00840076 1.15849e-20)
(4.98652e-05 1.09865e-06 0)
(0.000111496 -9.79374e-05 0)
(-0.00541033 -0.00497167 -9.74492e-22)
(-0.000750135 -0.00239887 -6.18768e-21)
(0.00160712 0.00409938 -3.22934e-21)
(9.76649e-05 -3.29725e-07 -1.97974e-21)
(0.000164262 -1.70968e-05 0)
(-0.0894155 0.011435 -1.31897e-21)
(-0.000196872 4.58628e-05 0)
(-0.0292819 -0.00552746 0)
(0.000159204 4.70673e-06 -6.82248e-21)
(0.0299087 0.00625828 1.8664e-20)
(0.000647427 3.64973e-05 6.83175e-21)
(3.2481e-05 -3.06334e-06 -1.42211e-22)
(-0.00399766 -0.00532039 0)
(0.000416731 -0.000297226 -1.33738e-22)
(-0.000290869 -0.00257233 0)
(6.79047e-05 -8.03297e-05 0)
(0.000364983 0.000303616 0)
(0.00365992 -0.00145533 2.6167e-21)
(-0.00126991 0.000665436 1.26319e-22)
(-0.0338654 -0.0337164 3.45913e-21)
(-0.000417635 -0.0267498 6.95992e-22)
(0.000189865 0.000195981 0)
(-0.0347066 0.0564617 -1.01794e-20)
(-0.00440086 0.00290005 2.02059e-21)
(-0.0027996 0.00159076 1.12205e-21)
(0.000110451 -2.60818e-06 5.77059e-22)
(0.0363719 0.017766 0)
(-0.00348104 -0.00975738 0)
(9.10058e-05 4.59708e-05 0)
(0.00316464 -0.000391576 0)
(-0.0161972 0.0122863 0)
(0.000184416 -8.56221e-05 5.12855e-21)