/*--------------------------------*- C++ -*----------------------------------*\
| =========                 |                                                 |
| \\      /  F ield         | OpenFOAM: The Open Source CFD Toolbox           |
|  \\    /   O peration     | Version:  v2012                                 |
|   \\  /    A nd           | Website:  www.openfoam.com                      |
|    \\/     M anipulation  |                                                 |
\*---------------------------------------------------------------------------*/
FoamFile
{
    version     2.0;
    format      ascii;
    class       volScalarField;
    location    "150";
    object      omega_0;
}
// * * * * * * * * * * * * * * * * * * * * * * * * * * * * * * * * * * * * * //

dimensions      [0 0 -1 0 0 0 0];


internalField   nonuniform List<scalar> 
18166
(
0.447032
0.0214895
0.172636
0.0739461
0.10369
0.0465592
0.0211218
0.0215575
0.0301133
0.492757
0.0214968
0.0694772
0.0269806
0.0380789
0.0263607
0.0217326
4.31037
0.0209471
0.0235222
0.738539
0.0222546
0.0226935
0.0237121
0.0224052
0.365258
0.336035
0.0215851
0.476816
0.0215886
0.0211803
0.0194772
0.26572
0.0342111
0.368587
0.789731
0.0214929
0.0206349
0.0204205
0.024749
0.0697363
0.0300656
0.0243046
0.0217667
0.0233728
0.335931
0.0207005
0.021941
1.27577
0.0195233
0.756716
0.455636
4.19076
0.0195162
0.021688
0.0206904
0.021383
0.439623
0.0214265
0.564179
0.0213923
0.0212891
0.0208192
0.0210627
0.0214776
0.021953
0.0208441
0.0209936
0.0216938
3.81357
0.0205036
0.0265828
0.0737026
0.1251
0.0293515
0.0204972
0.0322755
2.99712
1.51381
0.162152
0.0264248
0.0221901
0.023838
0.119365
0.0203691
0.0206924
0.0212925
0.0219329
0.0214699
0.0211747
2.93262
0.0203613
0.0208031
0.0242772
0.0211786
0.0288212
0.0218194
0.105964
0.0213507
1.49493
2.97149
0.02232
0.0210031
0.0211733
0.475784
0.020427
0.433043
0.0210576
0.0213985
0.0195608
0.0215332
4.46928
0.181146
4.5497
3.8224
0.0226365
0.47671
1.48734
0.0255112
0.0223209
0.0200583
0.0216658
0.0200511
0.0250934
0.020751
0.0212271
0.0237923
0.0236058
0.0228365
0.0208153
0.0214565
0.0211121
0.02149
0.0135478
0.0221326
0.0343727
0.47771
0.0212341
0.162764
0.021031
0.365026
0.0215486
0.0216557
0.0236766
0.540936
0.0195626
0.540688
0.539749
0.0206365
0.0209616
2.92739
0.0234832
0.0222062
0.364482
4.28713
0.0679915
0.0209629
0.0216173
0.022377
0.0677443
0.0225861
0.0215574
0.0221432
3.95279
0.0219768
0.0214951
0.0233357
0.0572817
0.0214933
4.34876
0.0215483
0.0246777
0.410668
0.0211969
1.42549
0.0220325
0.61006
0.021135
0.244852
0.0213772
0.021838
0.0207471
0.0208332
0.298594
0.244912
0.0233639
0.0213571
0.0213721
0.0217955
0.0223717
0.0220355
0.0222933
0.0233633
0.260591
0.022237
0.0221947
0.184434
0.157023
0.435813
0.0215597
0.021
0.0226226
1.50894
4.36308
0.0227777
0.0213958
0.0657597
0.0216902
0.0736061
0.0606039
0.0239404
0.0211754
0.0657114
0.0617347
0.0218239
0.0246749
0.021596
1.27785
0.0216472
0.0223285
0.0212584
0.0240209
0.28951
0.0377365
0.0216117
0.0219903
0.541856
0.0208097
0.0211667
0.0208057
0.0214954
0.0223965
0.0200676
0.331054
0.0200721
4.17815
0.309849
0.329057
0.021988
0.0222944
0.0668291
0.0208401
0.037405
0.0226227
0.514234
0.0214148
0.0200493
0.149465
0.0200557
0.0270154
0.0481871
0.298626
0.0212531
0.021503
0.0615952
0.0216957
0.0216571
0.0215883
0.0214404
0.0214961
0.0217898
0.0397244
0.039707
0.021771
0.021147
0.0218737
0.0249021
0.137016
0.0214585
0.0209739
0.0233601
0.0210051
0.0214017
0.0684359
0.259385
0.029673
0.0209679
0.454552
0.0206884
0.0214628
0.0993344
0.0211047
0.0232568
0.0343738
0.0213984
0.0214637
0.0238075
0.0713747
0.0604514
0.0209533
0.0222015
0.0195578
0.180199
0.0214978
0.0226699
0.0200548
0.0228268
0.0212623
0.478449
0.0200628
0.145116
0.0304345
0.0444496
3.8263
0.0248664
0.0212096
0.031837
0.0546218
0.0212065
0.0209552
0.0221269
0.0214141
0.0212292
0.0218436
0.0214103
0.0210951
0.0221026
0.0204289
0.0697912
0.0714376
0.0209995
0.285576
0.0231968
4.31949
0.0231742
0.0206811
0.020436
0.0213984
0.168374
0.0212124
0.058937
0.0210264
0.0217688
0.0209679
0.0216319
0.0340161
0.0212597
0.0572411
0.0439561
0.021698
0.0211251
0.0432231
0.0218751
0.0692098
0.0212184
0.0234023
0.021538
0.0828986
0.0215674
0.0208448
0.0204344
0.0626734
0.022028
0.0674062
0.0218034
0.178856
0.0238305
0.0215587
0.0215958
0.32955
0.0534353
0.0212827
0.0212757
0.0200576
0.0235613
0.623659
0.0200614
0.0206718
0.021314
0.0211605
0.0245356
0.0207688
0.0213294
0.0211734
0.3154
0.0211173
0.022284
0.0209864
0.0233651
0.021312
0.0215881
0.0200356
0.0213424
0.0561912
0.441403
0.0200471
0.0215588
0.0340392
0.0578799
0.0222625
0.164053
0.0200287
1.36027
0.0278719
0.0223312
0.364704
0.0665313
0.0213666
0.020002
0.0212272
0.0818202
0.0199951
0.0199715
0.0216385
0.0202289
0.0223799
0.0210828
0.0223608
0.168984
0.344046
0.0202258
0.0209425
0.371637
0.0384241
0.0217733
0.0195101
1.57339
0.0218476
0.0213703
0.0207128
0.022453
0.0210277
0.0195141
0.107348
0.179451
0.0224436
0.0213915
0.0215669
0.0194966
0.0194863
0.0302653
0.0222366
0.0204778
0.0212027
0.0436591
0.0221857
0.0212444
0.0211815
0.0997155
2.28781
0.0975016
4.10892
0.189917
0.124046
0.0985697
0.0212511
0.0263244
0.318135
0.0217337
0.0336751
0.0201903
0.028379
0.0213744
0.0213353
0.0203712
0.0211345
0.0238625
0.0236668
0.0211025
0.0212518
0.0213359
0.0210587
0.0202746
0.0209983
0.023558
0.0262663
0.0246174
0.022528
0.0212338
0.0348203
0.0215091
0.0160508
0.0212418
0.0241535
0.0211261
0.155997
0.0215415
0.0224726
0.0217411
0.0212224
0.138199
0.0266397
0.0209559
0.431481
0.0212
0.0316922
0.0236478
0.10412
0.0201401
0.0224904
0.0224196
0.0209638
0.0212149
0.0211983
0.0611695
0.315676
0.026551
0.0214526
0.0247688
0.0214063
0.021363
0.0236444
0.0214164
0.0220735
0.290007
0.0225406
0.0215142
0.0212472
0.0209751
0.022857
0.0388093
0.0216869
0.0226236
0.0210087
0.0227855
0.111129
0.0738527
0.185074
0.021556
0.523079
0.0214493
0.0222401
0.10112
0.0299943
0.062407
4.21879
0.0232067
0.021414
0.0212372
0.0203395
0.0212757
0.0797379
0.0241505
2.26294
1.22754
0.0292183
0.62289
0.0206565
0.0220803
0.0244697
0.021747
0.0235999
0.0545828
0.025546
0.0742383
0.0215133
0.0247763
0.0221438
0.0200173
0.480905
0.02116
0.0262737
0.0214194
0.0209424
0.0434619
0.0195647
0.0200129
0.0579632
0.0642454
0.0211261
0.370147
0.0213898
0.0308135
0.058863
0.0212568
0.0210777
4.06051
0.0216949
0.0223456
0.0199847
0.021735
0.0227059
0.0199806
0.304485
0.021145
0.289014
0.359357
0.02476
0.0212421
0.0221144
0.0212298
0.0214692
0.268005
0.0242552
0.021351
0.179591
0.0216556
0.0211815
0.0207617
0.0625623
0.0215703
1.34428
0.0214351
0.045473
0.0311156
0.0215137
0.0235716
0.0237519
0.350079
0.0891871
0.124032
0.0206789
0.0272463
0.0220973
0.0212592
0.0347893
0.0201361
0.0330103
0.345213
0.0813219
0.021654
0.0211767
0.040469
0.0219987
0.0221526
0.0213558
0.0209374
0.036631
0.0215766
0.0233103
0.391129
0.0621217
0.020672
1.18888
2.78509
0.021023
0.0330966
0.021186
0.0210875
2.85252
0.0254446
0.0223652
0.0220681
0.0215155
3.10355
0.0611071
0.0284589
0.020995
0.0230961
0.0219593
0.254573
0.0212301
0.0194963
0.0783592
0.021535
0.02137
0.0207948
0.439112
0.0238093
0.02137
0.0196859
0.0434922
0.0219243
0.0206043
0.387237
0.0231352
4.15043
0.0222165
0.0218354
0.0206707
0.0214033
0.0211194
0.0232216
0.0217475
0.0212587
0.0214103
0.0347419
0.0223037
0.395917
0.021254
0.0650047
0.016137
0.0220449
0.0217478
0.155363
0.285358
0.669388
0.034349
0.0211374
0.0228129
0.0205882
0.020426
0.0208617
0.0207089
0.0784337
0.0463776
0.153496
0.272532
0.468397
0.351018
0.0211884
0.0268181
0.0209462
0.0210215
0.0354018
0.157461
1.40615
0.0333484
0.07478
0.0213996
0.0211909
0.0471961
0.305388
0.0211971
0.500949
0.0215051
0.0212102
0.0232695
0.0211875
0.0221094
0.0241519
0.792018
0.101416
0.0592314
0.0536306
0.400288
0.0324469
0.0233686
0.0214005
0.0218327
0.0310972
0.618493
0.0213746
0.148371
0.0249097
0.024778
0.0210034
0.0799553
0.0310629
0.0413747
0.126652
0.0373277
0.0256224
0.0309333
0.0557414
0.0209837
0.02151
0.0222999
0.143416
0.023942
0.415729
1.27572
0.670809
0.0212504
0.0214063
0.0215721
0.0211553
0.032393
0.0387178
0.023727
0.0215471
0.0212647
0.0272164
0.0210652
0.0221202
3.25186
0.0214963
0.363664
0.0204206
0.0225082
0.0506594
0.0278077
0.0224622
0.0327217
0.0689616
0.0237759
0.0215524
0.0235335
0.0241227
1.08238
0.0212259
0.0212715
0.0209125
0.0209131
0.0194944
0.0221912
0.0728769
0.345745
0.532145
0.0580011
0.0795606
4.12232
0.0290342
0.0970137
0.0630471
0.343759
0.0224598
0.0217966
0.0209173
0.025376
0.462223
0.0214513
0.0217479
0.0213546
0.0225217
0.150775
0.0211096
0.0212217
0.0291042
0.0208559
0.0217985
0.0213804
0.0214293
0.0206507
0.0776746
0.0214786
0.0211525
0.0373402
0.0420775
0.0228892
1.34334
0.0214058
0.201696
0.0204559
0.0218742
0.346394
0.0198392
0.358651
0.0851251
0.0226451
0.0208341
0.0245323
0.0222455
0.0231778
0.0224092
0.0206335
1.91991
0.0215284
0.0332324
0.0216749
0.0365651
0.0214066
0.0221257
0.0238466
0.0210377
0.0219939
0.0206559
0.0214995
0.0230063
0.0211388
0.0548804
0.33694
0.0214353
0.108005
0.0779451
0.0223949
0.0206062
0.0410693
0.0246384
0.020714
0.0230252
0.0209704
0.0211568
0.0197086
0.0217619
0.081504
0.0214188
0.540923
0.363115
0.0211608
0.0226779
0.0213302
0.0224398
0.376619
0.0215265
0.34741
0.0206456
0.0212834
0.067238
4.21497
0.382446
0.0207797
0.0384109
0.0212822
0.54223
0.0225521
0.256188
0.0881674
0.25546
0.0204415
0.0215608
0.0214327
3.84253
0.0214087
3.49785
0.0207709
0.0873473
0.116487
0.0243693
0.0236088
0.24822
0.0331383
0.0685841
0.0220368
0.0227005
0.0373057
0.0227836
0.0224488
0.234519
0.365936
0.0216534
0.0217765
0.0214573
0.0225056
0.0212072
0.021679
0.9423
0.0209148
0.205683
2.81389
0.0279548
0.0721061
0.0214104
0.0211033
1.31077
1.23751
0.551253
0.0403906
0.197256
0.0209501
0.0234594
0.547238
4.46912
0.450454
0.0221476
0.0223618
0.0845997
0.0210491
0.0212567
0.0210599
0.0205284
0.0232963
0.0215275
0.0396643
0.0206085
0.140634
0.021719
0.325556
0.15814
0.817323
0.356251
0.362883
0.324321
3.65692
0.0238421
0.0290127
0.021422
0.0231967
0.0219763
0.0862429
0.022899
0.111908
0.0251199
0.365293
0.0696774
0.0202219
0.0569255
0.0206018
0.023467
0.823936
0.0214043
0.0236369
0.390228
0.351702
0.648461
0.356021
0.0202817
0.413877
0.0218597
0.020538
0.0275848
0.0226156
0.457622
0.0236663
0.0211246
0.0378622
0.0216834
0.0219271
0.0208177
0.0217671
0.0221178
0.466791
0.0244108
0.0244031
0.373651
0.0214564
0.3289
0.167416
0.02909
0.0214499
0.0253129
2.95859
0.353125
0.253601
0.0220438
0.02066
0.0324434
0.202041
0.0211437
0.0313299
0.0332125
0.0339415
0.0222591
0.338236
0.543503
0.0196321
0.0206673
0.0206181
0.0212198
0.0208019
0.033603
0.0199572
0.318809
0.327378
0.0209938
3.74523
0.0208975
0.0226189
0.0208755
0.0258926
0.0110869
0.0226769
0.0672161
0.0220458
0.0217523
0.0223453
0.354396
0.0127117
0.0209538
0.0145086
0.0201429
0.0377881
4.3892
0.577793
0.0218805
0.0226334
0.0226599
0.0220815
0.0229645
0.0840246
0.0264409
0.139447
0.0410066
0.0273157
0.0254334
0.0258616
0.208177
0.0209721
0.56133
0.0243752
4.08022
0.0208902
0.2364
0.0215036
0.0204129
0.0214278
0.019573
0.0208048
0.0593201
0.021429
0.372125
0.528314
0.707653
0.0211348
0.0216732
0.0238243
0.0769139
1.22592
0.0221895
0.0779066
0.0215084
0.0252997
0.0262741
0.021762
0.022246
0.0213934
0.0222037
0.0361319
0.355769
0.375659
0.0217521
0.341301
0.0763972
0.297035
0.0574674
0.0222917
0.0215307
0.148597
0.0214377
0.0204168
0.0346004
0.0214129
3.69167
0.023056
3.88692
0.0247133
0.0209075
0.0212251
0.0220468
0.0401961
0.0209383
0.544993
0.0206374
0.0208267
0.0210281
0.0237862
0.0212798
0.0382052
0.0232551
3.32801
0.021481
0.0212858
0.0215438
0.504267
0.0219391
0.0211689
0.0270489
0.0215369
0.020441
0.0270949
0.0214379
0.0200931
0.0200922
0.0227611
1.33547
0.849969
0.0214524
0.0213917
0.0227381
0.0251803
0.0276986
0.0220113
0.0250182
0.0425416
3.50639
0.0271375
0.0210217
0.0365248
0.0222731
0.118587
0.0269873
0.0222215
0.0755661
0.172445
0.0270556
0.020842
0.0206267
0.0725575
0.0277942
0.020656
0.0232024
0.0215506
0.0225173
0.021383
0.11744
0.0209172
0.352821
0.0887545
0.0212483
0.116946
0.0395741
0.248844
0.0478372
0.0298215
0.0222653
0.02044
4.67955
0.0212629
0.0222619
0.0241002
0.0213936
0.0228014
0.306458
2.23405
0.381857
0.0201665
0.0211443
0.0747874
3.66542
0.0218524
0.0222437
1.45873
0.0199721
0.0212526
0.0199603
0.056327
0.0520443
0.0210219
0.0224363
0.0216358
0.0222013
0.0239973
0.0233338
0.0213391
0.0362294
3.04532
4.35173
0.0236308
0.0199794
0.0267391
0.369565
0.325251
0.0199675
0.0245377
0.0567642
0.0272817
0.021477
0.0250251
0.0219999
0.0319939
0.0212973
0.0229302
0.610914
0.0953549
0.0202438
0.0228924
0.0223892
0.552397
0.0211954
0.251525
0.0208381
0.0223108
0.0211534
0.0260991
0.0213944
0.0218536
0.0208919
0.359415
3.12663
0.0267037
0.0222014
0.0208985
2.47387
0.0223897
0.515292
0.0208322
0.0208156
1.32067
0.0207547
0.0229744
0.0759289
0.12134
0.409404
0.0216349
0.0220175
0.0199757
0.0212857
0.0481092
0.0213855
0.0236287
0.0206133
0.022001
0.0893987
0.0561227
0.019984
0.0206071
0.0214538
0.021509
0.417114
0.0219357
0.373558
0.0244947
0.0208602
0.0238368
0.0202961
0.0767483
0.0217083
0.0915612
0.0213371
0.267109
3.81034
0.0206109
0.0205811
0.0199719
0.0214783
0.0215706
0.0208481
0.0275118
0.0545994
0.0217379
0.341528
0.0202139
0.0207467
0.0206276
0.414468
0.0221334
0.0215155
0.022371
0.114397
0.0199792
0.0208398
0.0240526
0.0209095
0.0212135
0.0210064
0.0357756
0.0205672
0.0204044
0.111682
0.0199924
0.233795
0.0202174
0.113594
0.943115
0.0202177
0.0270248
0.0220864
0.0255919
0.0213522
0.0383255
0.0763211
0.0200023
0.0199025
0.0211345
0.0220013
0.0206633
0.021485
0.0214444
0.120454
3.12341
0.02299
0.0225883
0.0206746
0.0228679
0.0223231
0.0208204
0.0236505
0.0218565
0.0214566
0.0199639
0.1143
0.0203652
0.0214033
0.0210653
0.021369
0.0214447
0.0557892
0.0199743
0.0264471
0.408042
1.19468
0.0214844
0.408567
0.0196184
0.0216735
3.83294
2.77315
0.022779
0.0242078
0.0210579
0.434014
0.225854
0.0211175
0.023837
0.0211861
0.0413933
0.162357
1.16534
0.0209854
0.0206526
0.020556
0.0513543
0.0199842
0.0208265
0.021132
0.0436946
0.0235668
0.0199817
0.0214913
0.0226967
0.0214166
1.32105
0.0360004
0.0217083
0.346548
0.431658
0.0206046
0.0325634
0.0366547
0.029119
0.0213363
1.19141
0.0413895
0.0199933
0.0913038
0.119666
0.0230909
0.0210981
0.0212846
0.0216379
0.0211582
0.444149
0.422232
0.01999
0.0200307
0.0213737
0.0337695
0.710148
0.0210484
0.0200021
0.0210517
0.0215072
0.0200378
0.0221706
0.0200528
0.344277
0.0202214
3.78652
0.239841
0.0223638
0.0212805
0.0209498
0.0227038
0.0221812
0.0208922
0.443589
0.10595
0.441579
0.0211287
0.852042
0.0232816
0.111319
0.0214244
0.0392504
0.0240649
0.0415342
0.0220115
0.0206645
0.0236967
0.334972
0.0190541
0.0244904
0.0214059
0.0204465
0.342963
0.0219415
0.11214
0.660762
0.0209392
0.0200359
0.0204519
0.0200919
0.0211672
0.021306
0.0271887
0.0214102
0.358363
0.0217032
0.0212931
0.0208247
0.0405007
0.021973
0.0200323
0.0212683
0.0200982
0.0201856
0.0208651
0.020424
0.0203658
0.420712
0.823492
0.020164
0.0209476
0.0210936
0.021852
0.0218328
0.0215576
1.21248
0.378177
0.436924
0.0218764
0.0222191
0.0212544
0.0200356
0.0202249
0.021714
0.0889182
0.0223254
3.31708
0.0209557
0.0214037
1.43287
0.0251002
0.0212044
0.467207
0.422352
0.0543677
0.0201812
0.0220077
0.0209364
0.391789
0.105737
0.110991
0.141588
0.034948
0.829544
0.0581146
0.026502
0.0212521
0.0959099
0.0665921
0.183969
0.0215672
0.0242934
0.0653167
4.1035
0.0200378
0.0270777
0.0394501
0.0202333
0.0208443
0.0210265
0.0201113
0.0215327
0.0214468
0.0205652
0.020954
0.0214343
0.542708
1.34963
0.0207185
0.0241838
0.0209214
0.0932355
0.248043
0.0219105
0.244194
0.0234169
1.20729
0.053585
0.36377
0.0219111
0.0418591
0.0218341
0.0214011
0.141371
0.0212855
0.0207935
0.378623
0.0572181
0.0212016
0.0207719
0.021457
0.0213372
1.20501
0.0786196
0.0222622
0.0249641
0.103988
0.173407
0.0228021
0.0234648
0.021441
0.0214015
0.0207331
0.255371
0.233621
0.550495
0.0224652
0.0208842
0.0995794
0.0215034
0.0359171
0.0209448
0.305519
0.0209478
0.0229105
0.0596928
0.0222904
0.0980524
0.0213625
0.0215164
0.0230874
0.0495811
0.0264093
0.0360973
0.0236106
0.0220483
0.0211012
0.0234908
0.020612
0.0223616
0.0213543
0.0373018
0.0215476
0.0219708
0.0217912
0.0491019
0.0218937
0.0167005
0.0564603
0.0225716
0.365733
0.0218559
0.0217248
0.022253
0.020925
0.0221319
0.0240137
3.22591
3.56139
0.0384797
0.021154
0.0226931
0.679399
4.06347
3.00537
0.0222641
0.0202016
0.0274206
0.0221985
0.0371968
0.0221193
0.0218903
0.0230932
0.0402912
0.977143
0.0204567
0.0276088
0.0221557
0.0216808
4.28999
0.416526
0.0264601
0.0638995
0.0833705
0.128144
0.14584
0.0355135
0.0214007
0.021226
0.198593
0.0344709
0.0609876
0.343403
0.0218576
0.0530734
0.0212163
0.0211953
0.0210484
0.0215495
0.136526
0.0211829
0.0209371
0.397158
0.0213067
0.545908
0.0214062
0.0201635
4.19744
0.0195031
0.0219198
1.09641
0.0212688
0.0210871
0.0204002
0.0201593
0.414199
0.020955
0.0210825
0.0879597
0.0201046
0.0234462
0.0222201
0.0218322
0.0511335
0.0219959
0.0346586
0.0653299
0.02137
0.019552
0.0208916
0.0234099
0.113544
0.0215693
0.452401
0.0201794
0.0955351
0.0202643
0.0230433
0.0328181
0.0208541
0.530338
0.0215855
0.180932
0.0213941
0.0210133
0.021352
0.0212914
0.022157
0.019964
0.0604725
0.0248679
0.0770908
0.0215412
0.0226568
0.324796
0.356141
3.12314
0.423664
0.361079
0.0265622
1.83859
0.0212452
0.0207421
0.0185313
0.0208152
0.0469076
0.0599183
0.0209138
0.0244465
0.0202564
0.0207216
0.0235658
0.0667293
0.0212952
3.77066
0.0214625
0.0209261
0.138115
0.0217303
0.0206002
0.0203751
0.022344
0.0224908
0.744324
0.0221607
0.0210603
0.0212686
0.0516764
0.477935
0.0260539
1.40104
0.0201928
0.0246506
0.020268
0.0746133
0.0212345
0.0201892
0.0211099
0.0525409
0.361436
0.021314
0.0265283
0.0218904
0.0195036
0.0355233
0.0932788
0.0220598
0.0213942
0.122626
0.0395218
0.0236973
0.0215145
0.728638
0.0213145
0.548349
0.0205906
0.0212599
0.0215037
0.0219605
0.0259456
0.0222124
0.0212698
0.0213886
0.021031
0.0256111
4.07658
0.0213698
0.020912
0.0215281
0.132162
0.0238782
0.0217613
4.25073
0.32959
0.0197852
0.0237488
0.0210696
0.0682775
0.0228991
0.367015
0.0361185
0.0186286
1.28854
0.0229584
0.0212127
0.492784
3.30494
0.0211322
0.0220879
0.0214929
0.0212167
0.0214853
0.268426
0.0245165
0.0277157
0.0223414
0.379855
0.0211986
0.344037
0.021064
0.0213562
0.0211611
0.148245
0.0215105
0.31102
0.021212
0.0208023
0.0228404
0.0209002
0.0218893
0.0208332
0.0207117
0.167337
0.0272944
0.0201423
0.0215758
0.0210725
0.0512582
0.0208277
0.0214313
0.0221321
0.0215146
0.0307819
0.0211677
0.0350849
0.746241
0.0222848
0.0215572
0.101284
0.33028
0.0223706
0.0202508
0.0215562
0.0259435
0.167147
0.0209595
0.272614
0.0361703
0.0220707
0.0217963
0.0215114
0.0534792
0.0214087
4.03537
0.0241545
0.0230177
0.021453
0.123845
0.0225983
0.0213633
0.0798972
4.40449
0.107985
0.0220741
0.0223372
0.156173
0.0219217
0.0248573
0.0216718
0.0231631
0.0224878
0.0213687
0.00956802
0.0818253
0.0230972
0.0218841
0.0912444
0.0240916
0.0206444
0.130953
0.0528526
0.0414108
0.022844
0.265661
0.273599
0.418514
0.0217245
0.495183
0.0213144
0.0198268
0.354593
0.0282426
0.440824
0.0214096
0.0220441
0.030376
0.0216933
0.0213512
0.0218277
0.112229
0.107098
3.98549
0.360614
0.025431
0.0245451
0.0207567
0.020812
0.0213427
0.0208135
0.0218943
4.7167
0.0691919
0.0206067
0.021196
0.0834952
3.8345
0.0468435
0.0209847
0.0200536
0.0437844
0.0207637
0.0213557
0.407386
0.0202418
0.0219704
0.0221658
0.0819403
0.0221164
0.0904109
0.105758
0.0222299
0.0217577
0.0221348
0.0215924
0.0214155
0.0359257
1.2173
0.0215628
0.0256635
0.0211952
0.43108
0.0490936
0.193022
3.70049
0.0259948
0.0482661
0.0447541
0.0215259
0.0207905
0.0213924
0.0219128
0.0283998
0.0209979
0.0205987
0.514218
0.0211517
0.0205295
0.0207951
0.0208966
3.53567
0.335621
0.0229118
0.401023
0.0208274
0.0201374
0.0381305
0.246558
0.0597075
0.0214551
0.023647
0.0210765
0.0220403
0.251139
0.0214967
0.0231896
0.00484216
0.436232
0.0200341
0.0200209
0.0231714
0.0193763
0.313108
0.0906469
0.020781
0.0266117
4.20253
0.0213067
0.5258
0.0218338
0.0198812
0.0213409
0.0257025
0.0216884
0.0206693
0.0214089
0.0318483
3.57998
0.0201006
0.0204038
0.415503
0.021717
0.0213498
0.0495747
0.0238141
0.0217061
0.0205509
0.106225
0.0212942
0.0234022
0.0240291
0.165357
0.223044
0.0212708
0.0217545
0.0213711
0.0365822
0.0201567
0.0231536
0.0155739
0.0217549
0.0238648
0.0666155
0.0208676
0.0388121
0.019896
0.0235223
1.35918
0.413193
0.0211676
0.066086
0.0207811
0.02073
0.0354772
0.0199181
0.0221402
0.0216867
0.021376
0.0219119
0.0208398
0.0220889
0.0217638
0.0521412
0.43275
0.0155101
1.4864
0.021435
0.249516
0.0207983
0.0201635
0.0200421
0.0212464
0.0203435
0.022738
0.455174
0.0214509
0.0237022
0.0206754
0.0198039
1.79557
0.54843
0.0212083
0.021485
0.0703114
0.0221232
0.020012
0.116474
1.10317
0.0207981
0.0221892
0.0204643
3.50577
0.0212622
0.0215622
4.28036
0.140452
0.0213654
1.41145
0.0214097
0.0204093
0.0205234
0.0208349
0.402116
0.0226515
0.0226262
3.79233
0.0214595
0.0215616
0.0201064
0.0229586
0.511724
0.0670593
0.0234858
0.0216139
0.0762369
0.0213268
0.0215499
0.0237198
0.0202296
0.0236804
0.0204999
0.0218624
0.0207274
0.0402304
0.223309
4.16045
0.086072
0.0311985
0.0510781
0.0213639
0.0396435
0.0210521
0.0213468
0.0295081
0.0216811
0.0216832
0.0228876
0.0208383
0.0279895
0.163136
0.022591
0.0213861
0.0210619
0.0213598
0.0206721
0.0214299
0.0278281
0.0349002
0.351163
0.0213465
2.24916
0.0213214
0.0208261
0.0225432
0.0239232
0.0212973
0.0205987
0.0207121
0.226045
0.278784
3.53118
1.17113
0.370441
0.0366344
0.505186
0.0210433
0.0212915
0.0260301
0.0208384
0.0201577
0.0496602
0.0213844
0.658313
0.0212694
0.0213644
0.021533
0.0208223
0.0548263
0.0210468
0.238236
0.0210466
0.0336888
3.69295
0.0224616
0.409995
0.0216725
0.0217528
0.031518
0.0207356
0.0208036
0.0387881
0.0311619
0.0212062
0.0204948
0.0212557
0.123195
0.298944
0.0218439
0.0208926
0.0216823
0.0204964
0.0201386
0.155958
0.0206899
0.151187
4.15904
0.0215615
0.0201289
0.0694017
0.0214909
0.0817136
0.11566
0.0208848
0.0222273
0.0619821
0.04379
0.0645462
0.178477
0.0258956
0.0226377
0.0377276
0.0216511
0.02016
0.027821
0.0203741
0.0212134
0.0225867
0.0214034
0.412649
0.0213742
0.0165536
0.0366429
0.0536738
0.0214202
0.0307381
0.0264939
0.110687
0.0210158
0.0206844
0.421631
0.107125
0.0218133
0.0998272
0.571285
0.0213792
0.021885
0.0242354
0.0209947
0.0825265
0.0211563
0.0492807
0.0201423
0.0804395
0.0252256
0.085496
0.164288
0.0212863
0.0199037
3.00477
0.39581
0.0332063
0.0213565
0.0207904
0.0621539
0.0194899
0.022206
0.0739736
0.0210658
0.12061
0.0247928
0.0224916
0.0214946
0.0335289
0.0237094
0.0508814
0.0223022
0.0221938
0.0210857
0.0214111
0.926717
0.0214521
0.0213862
0.0207705
0.56641
0.372536
0.050498
0.0126583
0.01996
0.0649235
0.0210664
0.0205349
0.0201048
0.0233141
0.0201704
3.91434
0.0233016
0.0217954
1.21745
0.0915459
0.0236641
0.0211275
0.0212784
0.0198526
0.0213465
0.0197027
1.04424
0.0218014
0.0217094
0.0373462
0.285224
0.0573197
0.0356502
0.0427877
0.0210555
0.0205608
0.411583
0.021434
0.0199937
0.525475
0.020645
0.0211582
0.0199317
0.0212727
0.0211295
0.0207791
0.0790371
0.358143
0.421182
0.0448764
2.98442
0.0233712
0.0206072
2.79573
0.0213801
0.0657936
0.0215487
0.404079
0.0205138
0.0682886
0.297838
0.0222679
0.0201765
0.0214946
0.0273253
0.0211905
1.37344
0.0202204
0.0229678
0.0233762
0.0565036
0.0212745
0.0108051
0.0208795
0.0206797
0.0209051
0.0220028
0.0198917
0.399168
0.0208949
0.680219
0.0597855
0.0209943
0.0212759
0.0244828
0.0207732
0.0222221
0.0207629
0.0222943
1.38662
0.0207854
1.1331
0.0212208
0.0279276
0.0352841
0.0206962
2.94339
0.0213659
0.0221401
0.0248421
0.746403
0.0244662
0.0211146
0.0201307
0.0482596
0.0492517
0.0269398
0.0232203
0.022171
0.0219839
0.0212258
0.0208597
0.0230895
0.0256908
0.0216383
0.0236278
0.0205595
0.35932
3.23312
0.0217833
0.021294
0.00906717
0.0963897
0.0215136
0.0221968
0.0225185
0.0217062
0.0204221
0.0248928
0.0208937
0.0213318
0.214974
0.0205162
0.0208113
0.0210516
0.0206344
0.38103
0.110823
0.0243744
0.0214571
3.44716
0.0308946
0.0899624
0.022534
0.115848
0.0405458
4.1175
0.0204989
0.0228354
0.0263741
0.0213442
0.0227516
0.0295691
0.0212079
0.0213508
0.0350482
0.0214623
0.0268786
0.0307825
0.0215529
0.0214029
0.0312851
0.0216518
0.0932346
0.0205225
0.547237
0.0220461
0.0216141
0.0202037
0.318168
0.0517882
0.0204082
0.174984
0.044347
0.173889
4.17268
0.0212637
0.0509622
1.42036
0.314198
0.0212496
0.0418088
0.0375096
4.16433
0.0220506
0.0226052
0.188498
0.0754918
0.0219036
0.34688
0.0229173
0.101032
0.0209105
0.0213656
0.0213655
0.0714998
0.0213411
0.0918479
4.25079
0.0450041
0.0201166
0.0213224
0.0213439
0.0329568
0.0205413
0.0213711
0.177788
4.11188
0.239299
0.0215152
0.0211896
0.0209433
0.428904
0.0216836
0.0223742
0.0205515
0.0196287
0.0358462
4.21752
0.024565
0.020652
0.0323844
3.51551
0.0219652
0.0207199
0.0324484
0.0149261
0.0213178
0.254957
0.0245244
4.11136
4.03535
3.21529
0.0224252
4.28394
0.785218
0.0229701
0.247204
0.0285631
0.0220745
0.376019
0.428292
3.59753
3.6462
0.746938
0.0208565
0.0744256
2.64944
0.0294529
3.49507
4.02218
0.0213786
0.433759
0.0207864
0.0213383
0.205417
0.0197582
0.0214093
0.021094
0.0217775
3.64541
0.0253598
0.0513428
0.0217733
0.360892
0.0207637
0.0215058
0.0206753
2.32945
0.0214773
0.0230539
0.535805
0.0212272
0.0208077
0.0241777
0.0237236
0.0233806
0.0258573
0.0352819
1.54455
0.020612
0.021329
0.0195387
0.0551164
0.430512
0.0213759
0.0213866
0.499087
0.0214372
0.0206026
0.176107
0.020934
0.0321439
0.0179937
2.7615
0.0347875
0.124212
0.0209513
3.32138
0.0236872
0.0208235
3.61232
0.021437
2.63219
0.0307214
0.0217041
0.276742
0.162127
0.0215856
0.061016
0.0228451
0.0203746
0.0213932
0.021642
0.139741
0.0306845
0.0210312
1.9557
0.0621999
0.0213501
0.0220679
0.0204929
0.360209
0.0973596
0.0208109
0.0287787
1.24587
0.320545
0.0204871
0.022913
0.139611
0.0209358
0.0212617
0.0207217
0.0327072
0.256048
0.0287822
0.0239844
0.0217029
0.0208129
0.0203427
0.0767705
0.0207067
0.0171631
1.42748
0.021269
0.0280747
0.0213799
0.149899
4.27446
0.0222264
0.0210546
0.447435
0.0212272
4.11463
0.0713718
0.417929
0.297504
0.35595
3.61215
0.0211367
0.728109
0.0235917
0.0227303
0.0209846
0.0250492
0.244076
0.0227688
0.0215967
0.0346255
0.0935116
0.0209036
0.0202134
0.0388153
0.0295976
0.020352
0.790878
0.202136
0.0213811
0.0209141
0.0212726
3.78154
0.340832
0.872351
0.0227306
0.0525098
0.0214041
0.0210799
0.0412574
0.120211
0.0214148
0.0374252
0.229305
0.0211866
0.0212445
0.0256867
0.0232824
0.0281229
0.0209082
0.22551
0.0249208
0.021479
3.72805
0.0214403
0.140637
0.0213157
0.0210006
0.126978
0.290659
0.0204142
0.021106
0.0210743
0.0355064
0.0199733
0.0987926
0.0214382
0.0214839
0.444753
0.135884
0.0201754
0.448138
3.36576
0.138045
0.0241881
0.0201322
0.0212753
0.212968
0.234418
0.0206857
0.0201083
0.769705
0.0705628
0.0226464
0.0210243
0.045675
0.248688
0.0209798
0.303882
0.253643
0.0211801
0.0224441
0.0317056
0.427941
0.131292
0.022013
0.0332856
3.42116
0.0364103
3.56709
0.0208846
0.533605
0.0262369
0.184359
0.0292509
0.198479
0.0707539
0.0202335
0.240567
0.0244015
3.21171
0.0617493
0.164412
1.54425
0.119665
0.0215027
0.112751
0.121629
0.0261703
0.030255
4.07254
0.277686
0.0206775
0.132682
0.226133
0.0217096
0.0227206
0.0205068
3.27586
0.0219961
0.021113
0.0214383
0.348205
3.60902
1.51308
0.0200202
0.021423
0.565535
1.16593
0.0256542
0.0725712
0.0329252
0.0222418
0.0214899
0.81812
0.0216831
0.0270657
0.0205753
0.0212747
0.0445954
1.31082
0.0215515
0.0506795
0.154191
0.135077
2.50325
0.0352904
0.0255505
0.0217103
0.0206094
0.0211302
0.0315863
0.0212702
0.0212814
0.344826
0.0214445
0.0213718
0.023502
0.0227504
0.0209048
0.0885656
1.41798
0.0221252
0.0196115
0.0277173
0.0198782
0.0219722
0.0342366
0.135332
0.142893
0.425028
1.55835
0.33513
0.0273211
0.00728801
0.0218408
0.021514
0.251218
0.0228304
0.0326154
0.0236364
0.0237749
0.0238303
2.57712
0.0239085
0.0212462
0.0308694
0.0199413
0.0213895
0.0219275
0.021355
0.020458
0.0237932
0.0199379
0.0438479
0.0207961
0.03601
0.0213548
0.0337683
0.758142
0.0214035
0.0418397
0.0785955
0.0217018
4.07898
0.021332
0.0218551
0.021751
0.0221889
0.0207437
0.0226161
0.0409917
4.29553
0.0202585
0.0211387
0.0212536
0.103423
0.0236069
0.0217373
0.0234019
0.0380023
0.0211127
0.0214177
1.46742
0.0456136
5.00498
0.0211447
0.0226865
0.13673
0.0223145
0.0316459
0.147641
1.40651
0.0213774
0.0214256
0.147985
0.0226655
0.0205824
0.0208737
0.0221878
0.0470941
0.0207886
0.0206136
0.0586723
3.50722
0.0218098
0.0367734
0.0205238
0.0239842
0.0217902
0.801837
0.0305673
1.4361
0.022279
0.349219
0.048937
0.0766052
0.0271966
0.02121
0.0203876
0.0207464
0.0900128
1.39917
0.0221157
0.0236131
0.0199894
0.139973
0.0220821
0.0222999
0.0313797
0.175994
0.0279283
0.0223215
0.0205004
0.0217264
0.0211787
0.0910835
0.0210086
0.421612
0.0198874
0.0487135
0.0218115
0.0188435
0.0200137
0.0217049
0.0214314
0.0205007
0.0653102
0.0253536
0.8298
0.0200119
0.0248422
0.021679
0.0220523
0.0480189
0.0225705
0.0221462
0.0233497
4.1604
0.0207384
0.0491927
0.0203831
0.0196872
0.0230816
0.0232888
0.356225
0.0206784
0.0233157
0.0232034
0.0255711
0.0614136
0.0475919
0.0208817
0.0216429
0.0425288
0.0214091
0.0217786
0.0214711
0.0204929
3.99973
0.120615
0.0217926
3.09753
0.0199151
0.0452225
0.0213699
0.0348242
0.0207811
0.0211281
0.337851
0.0283406
0.0960521
0.0213819
4.09988
0.0210085
0.0846357
0.0209171
0.021116
0.0479106
0.0206966
0.0260908
0.53612
3.15408
0.0202484
0.0265238
4.00458
0.0218237
0.0197182
1.05289
0.0245482
0.0241284
0.0626701
0.0205439
0.091658
0.0157338
4.16596
0.0206693
0.020573
0.0242697
0.0237031
0.0304428
0.0219699
0.0218916
0.0202662
0.0206828
0.0201691
0.025931
0.077367
0.0202238
0.0217629
0.0462079
0.124431
0.0211561
0.029987
3.26993
0.0210101
0.0214145
0.0198607
0.0274865
0.0219865
0.0712167
0.0387811
0.0205348
0.0212437
0.222598
0.0210719
0.0215917
3.06997
0.13903
0.0564821
0.027163
0.0213616
0.0237778
0.0198426
0.0264239
0.0302307
0.0507664
0.019764
0.0204216
0.0288735
0.0306511
4.22853
0.0352144
0.31991
0.0219717
0.0225245
0.0222697
0.0527426
0.0546158
0.0416365
0.0226736
0.0198707
0.0537102
0.0245463
0.0211297
0.461635
0.0646029
0.0239414
0.32432
0.0202837
0.0455235
0.0215031
0.0236256
0.0204076
0.0207543
0.0208635
0.0335591