/*--------------------------------*- C++ -*----------------------------------*\
| =========                 |                                                 |
| \\      /  F ield         | OpenFOAM: The Open Source CFD Toolbox           |
|  \\    /   O peration     | Version:  v2012                                 |
|   \\  /    A nd           | Website:  www.openfoam.com                      |
|    \\/     M anipulation  |                                                 |
\*---------------------------------------------------------------------------*/
FoamFile
{
    version     2.0;
    format      ascii;
    class       volScalarField;
    location    "150";
    object      omega;
}
// * * * * * * * * * * * * * * * * * * * * * * * * * * * * * * * * * * * * * //

dimensions      [0 0 -1 0 0 0 0];


internalField   nonuniform List<scalar> 
18166
(
0.443579
0.0214895
0.172745
0.073821
0.104018
0.0464931
0.0211218
0.0215576
0.0301198
0.490475
0.0214967
0.0694334
0.0269689
0.0380709
0.0263644
0.0217325
4.31355
0.0209471
0.0235212
0.737986
0.0222548
0.0226935
0.023711
0.022406
0.36549
0.336654
0.0215852
0.476444
0.0215887
0.0211803
0.0194772
0.265779
0.0341989
0.3688
0.81135
0.0214929
0.0206349
0.0204205
0.0247465
0.0696269
0.030076
0.0243032
0.0217667
0.0233728
0.351374
0.0207005
0.0219409
1.27275
0.0195233
0.756019
0.45606
4.19443
0.0195162
0.0216877
0.0206904
0.021383
0.441242
0.0214264
0.585072
0.0213923
0.0212892
0.0208192
0.0210627
0.0214775
0.0219529
0.0208441
0.0209936
0.0216937
3.81418
0.0205036
0.0265812
0.0737397
0.129801
0.0293599
0.0204972
0.0322515
2.99934
1.51324
0.161806
0.0264302
0.0221903
0.0238363
0.121172
0.0203691
0.0206924
0.0212926
0.0219402
0.0214699
0.0211746
2.93984
0.0203613
0.0208032
0.024276
0.0211786
0.0288262
0.0218195
0.105906
0.0213507
1.49389
2.96552
0.0223204
0.021003
0.0211733
0.475252
0.020427
0.433661
0.0210576
0.0213985
0.0195593
0.0215333
4.46428
0.187818
4.54788
3.82259
0.0226375
0.476558
1.48859
0.0255182
0.0223215
0.0200583
0.0216657
0.0200511
0.0250987
0.0207509
0.0212271
0.0237936
0.0236068
0.02284
0.0208153
0.0214565
0.0211121
0.02149
0.0141116
0.022133
0.0343646
0.477745
0.0212341
0.162642
0.021031
0.364954
0.0215485
0.0216556
0.0236769
0.540684
0.0195626
0.561497
0.539611
0.0206365
0.0209615
2.92143
0.023482
0.0222065
0.364233
4.2861
0.0677996
0.0209628
0.0216168
0.0223761
0.0675209
0.022587
0.0215576
0.0221408
3.95143
0.0219768
0.021495
0.0233303
0.0568096
0.0214933
4.34738
0.0215478
0.0247385
0.411717
0.021197
1.41986
0.0220325
0.607502
0.0211347
0.242928
0.0213772
0.021838
0.0207471
0.0208333
0.297029
0.244799
0.0233655
0.0213571
0.0213721
0.0217955
0.0223726
0.0220355
0.0222924
0.023365
0.259656
0.0222371
0.0221916
0.184277
0.157024
0.434562
0.0215595
0.021
0.022622
1.50782
4.3614
0.0227791
0.0213958
0.0655614
0.0216902
0.0734254
0.0604668
0.0239464
0.0211755
0.0655535
0.0615642
0.0218257
0.0246741
0.0215958
1.2745
0.0216469
0.0223276
0.0212584
0.0240197
0.289614
0.0377456
0.0216116
0.0219904
0.542663
0.0208097
0.0211667
0.0208576
0.0214954
0.0223966
0.0200676
0.331791
0.0200721
4.17699
0.309182
0.328161
0.0219879
0.0222942
0.0668587
0.0208401
0.0373939
0.0226228
0.515711
0.0214148
0.0200493
0.153648
0.0200557
0.0270203
0.0480676
0.299607
0.0212531
0.0215031
0.0615714
0.0216957
0.0216571
0.0215881
0.0214404
0.0214963
0.0217899
0.0397459
0.0397064
0.0217711
0.021147
0.0218738
0.0248973
0.136881
0.0214586
0.0209739
0.0237322
0.0210051
0.0214017
0.0682039
0.259436
0.0295946
0.0209679
0.455136
0.0206884
0.0214628
0.0992855
0.0211047
0.0232681
0.0343691
0.0213984
0.0214637
0.0238072
0.0714007
0.0604279
0.0209533
0.0222008
0.0195612
0.178314
0.0214978
0.0226709
0.0200548
0.0228269
0.0212622
0.48093
0.0200628
0.14482
0.030452
0.0445971
3.82577
0.0248663
0.0212096
0.0318052
0.0546068
0.0212065
0.0209552
0.0221262
0.0214141
0.0212292
0.0218438
0.0214105
0.0210951
0.0221026
0.0204289
0.0697724
0.0713798
0.0209995
0.275763
0.0231989
4.31847
0.0231761
0.0206811
0.020436
0.0213984
0.168346
0.0212124
0.0589658
0.0210264
0.0217689
0.0209679
0.0216317
0.0339684
0.0212597
0.0573193
0.0439634
0.0216974
0.0211251
0.0433308
0.0218754
0.069281
0.0212184
0.0234022
0.0215381
0.0822974
0.0215674
0.0208447
0.0204344
0.0624639
0.0220279
0.0673947
0.0218035
0.177997
0.0238287
0.0215589
0.0215953
0.327317
0.0534226
0.0212829
0.0212757
0.0200577
0.0235615
0.622898
0.0200614
0.0206718
0.021314
0.0211606
0.0245388
0.0207688
0.0213293
0.0211734
0.309784
0.0211173
0.022284
0.0209864
0.0233376
0.021312
0.0215881
0.0200356
0.0213424
0.0560549
0.439864
0.0200471
0.0215589
0.0340289
0.0577716
0.0222627
0.164593
0.0200286
1.35659
0.0278772
0.0223314
0.364593
0.0665562
0.0213666
0.020002
0.0212272
0.0817949
0.0199951
0.0199715
0.0216383
0.0202289
0.0223803
0.0210828
0.0223608
0.170173
0.344752
0.0202258
0.0209425
0.372128
0.0382759
0.0217732
0.0195101
1.56042
0.0218478
0.0213703
0.0207128
0.0224539
0.0210277
0.0195141
0.104245
0.17608
0.022444
0.0213915
0.0215669
0.0194966
0.0194863
0.0303122
0.0222367
0.0204778
0.0212027
0.0435929
0.0221858
0.0212443
0.0211816
0.0996493
2.31648
0.100102
4.1062
0.190191
0.124138
0.0989278
0.0212511
0.0263664
0.301212
0.0217336
0.0336616
0.0202799
0.0284048
0.0213745
0.0213353
0.0203712
0.0211345
0.023865
0.0236367
0.0211025
0.0212518
0.0213358
0.0210587
0.0202746
0.0209983
0.0235566
0.0262697
0.0245697
0.0225289
0.0212338
0.0348107
0.021509
0.0158803
0.0212419
0.024157
0.0211258
0.158433
0.0215415
0.022473
0.0217412
0.0212225
0.13869
0.026641
0.0209589
0.431238
0.0212
0.0316787
0.0236557
0.104061
0.0201401
0.0224895
0.0224197
0.0209638
0.0212149
0.0211983
0.0611551
0.3172
0.026554
0.0214528
0.0247663
0.0214063
0.021363
0.0236445
0.0214164
0.0220735
0.303517
0.0225414
0.0215142
0.0212471
0.0209751
0.0228596
0.0374585
0.0216866
0.0226236
0.0210088
0.0227856
0.111243
0.0739092
0.189889
0.0215561
0.541313
0.0214493
0.0222392
0.101395
0.0305341
0.0623732
4.21782
0.0231961
0.021414
0.0212372
0.0203395
0.0212757
0.0796464
0.0241513
2.29106
1.22214
0.0292254
0.644242
0.0206565
0.0220803
0.0244674
0.0217467
0.0235904
0.0546644
0.025505
0.0743422
0.0215133
0.0247735
0.0221438
0.0200173
0.471607
0.0211601
0.0262782
0.0214194
0.0209424
0.0434613
0.0195648
0.0200128
0.0579704
0.0642875
0.0211262
0.370235
0.0213898
0.0308213
0.0583481
0.0212568
0.0210777
4.05852
0.0216948
0.0223484
0.0199846
0.0217351
0.0227059
0.0199806
0.30277
0.0211449
0.28936
0.359626
0.0247575
0.0212421
0.0221145
0.0212299
0.0214694
0.268075
0.0242569
0.0213511
0.179251
0.0216554
0.0211815
0.0207617
0.0625313
0.0215704
1.34196
0.021435
0.0453812
0.0311201
0.0215137
0.0235717
0.023752
0.350288
0.0892525
0.12613
0.0206789
0.0272521
0.0220973
0.0212592
0.0347949
0.0201361
0.0327604
0.346459
0.0813352
0.0216535
0.0211767
0.0401605
0.0219982
0.0221527
0.0213558
0.0209374
0.0366182
0.0215763
0.0233007
0.390878
0.0620802
0.0206719
1.17508
2.77467
0.021023
0.0328228
0.021186
0.0210875
2.84506
0.0254605
0.0223643
0.0220674
0.0215157
3.10357
0.0610866
0.0284604
0.0209954
0.0230978
0.0219592
0.252591
0.02123
0.0194963
0.0783245
0.0215349
0.02137
0.0207948
0.440448
0.0238081
0.0213698
0.0196888
0.0434825
0.0219243
0.0206043
0.387537
0.0231265
4.14569
0.0222168
0.0218356
0.0206707
0.0214033
0.0211194
0.023222
0.0217476
0.0212588
0.0214103
0.0346317
0.0223037
0.396159
0.021254
0.0648222
0.0164943
0.0220442
0.0217475
0.155385
0.283795
0.668281
0.0343457
0.0211374
0.0228124
0.0205882
0.020426
0.0208616
0.0207089
0.0782561
0.0462578
0.153044
0.269543
0.467667
0.351081
0.0211884
0.0268214
0.0209462
0.0210214
0.0353919
0.157612
1.40543
0.033358
0.0773943
0.0213996
0.0211909
0.0472053
0.30459
0.0211972
0.476562
0.0215051
0.0212102
0.0232724
0.0211875
0.0221094
0.0241546
0.760098
0.10134
0.059284
0.0529863
0.400919
0.0324612
0.0233689
0.0214005
0.0218326
0.0311064
0.612563
0.0213746
0.148447
0.0249093
0.0247416
0.0210032
0.0799138
0.0310517
0.0413862
0.128331
0.0375973
0.0256318
0.03092
0.0559114
0.0209835
0.0215102
0.0222999
0.143139
0.0239439
0.415126
1.25739
0.669892
0.0212504
0.0214064
0.0215721
0.0211553
0.0324024
0.0388903
0.023728
0.0215472
0.0212646
0.0272174
0.0210652
0.0221202
3.26061
0.0214963
0.364287
0.0204206
0.0225082
0.0506569
0.0278141
0.0224622
0.0327265
0.0689117
0.023777
0.0215523
0.0235354
0.0241218
1.0798
0.0212259
0.0212714
0.0209125
0.0209131
0.0194944
0.0221912
0.0728251
0.345538
0.531533
0.0579524
0.0795553
4.12026
0.0290337
0.0968817
0.0630359
0.343522
0.0224601
0.0217964
0.0209173
0.0253766
0.462956
0.0214515
0.0217478
0.0213546
0.0225207
0.151921
0.0211096
0.0212217
0.0290961
0.0208559
0.0217982
0.0213804
0.0214293
0.0206506
0.0775838
0.0214784
0.0211525
0.0375227
0.0417427
0.022891
1.34005
0.0214058
0.19978
0.0204559
0.0218741
0.346589
0.0198414
0.359362
0.0851669
0.0226451
0.0208341
0.024536
0.0222467
0.023176
0.0224092
0.0206334
1.91674
0.0215283
0.0332354
0.021675
0.036543
0.0214067
0.0221256
0.0238492
0.0210378
0.0219903
0.0206559
0.0214995
0.0230075
0.0211431
0.0549492
0.335904
0.0214353
0.107943
0.0775467
0.0223948
0.0206062
0.0411314
0.0246402
0.020714
0.0230262
0.0211327
0.0211567
0.019776
0.021762
0.0814541
0.0214186
0.5409
0.363472
0.0211608
0.0226782
0.0213301
0.022439
0.376481
0.0215265
0.347713
0.0206457
0.0212834
0.067192
4.20939
0.382021
0.0207797
0.0384018
0.0212822
0.542246
0.0225521
0.254995
0.0881559
0.254032
0.0204416
0.0215607
0.0214327
3.8421
0.0214088
3.49427
0.0207709
0.0882401
0.116518
0.0243693
0.0236107
0.248322
0.0331036
0.0684745
0.0220362
0.0227005
0.0372974
0.0227849
0.0224522
0.232816
0.365997
0.021653
0.0217765
0.0214572
0.0225056
0.0212072
0.0216788
0.934533
0.0209148
0.209323
2.81748
0.0279624
0.0721838
0.0214104
0.0211033
1.30888
1.23352
0.550698
0.040388
0.196486
0.0209501
0.0234594
0.547234
4.45779
0.450081
0.0221478
0.0223669
0.0845287
0.0210491
0.0212567
0.0210599
0.0205284
0.0232967
0.0215275
0.0396563
0.0206085
0.135812
0.0217187
0.32496
0.158408
0.808736
0.364787
0.363137
0.323721
3.6536
0.0238395
0.0290202
0.021422
0.0231981
0.0219759
0.0862853
0.0229034
0.112254
0.0251212
0.36545
0.0696047
0.0202219
0.0568887
0.0206018
0.0234681
0.822866
0.0214043
0.0236357
0.392155
0.351653
0.646589
0.355991
0.0202817
0.412839
0.0218597
0.020538
0.0275874
0.0226162
0.457449
0.0236638
0.0211245
0.0378825
0.0216834
0.0219269
0.0208176
0.0217673
0.022117
0.4653
0.0244141
0.0243997
0.373786
0.0214566
0.328347
0.165073
0.029095
0.0214501
0.0253151
2.96047
0.353202
0.246917
0.0220437
0.02066
0.0324948
0.204472
0.0211437
0.031241
0.0331823
0.0339125
0.0222598
0.338928
0.543399
0.0196323
0.0206673
0.0206181
0.0212198
0.0208019
0.0332394
0.0199572
0.317196
0.325823
0.0209938
3.74692
0.0208975
0.0226189
0.0208755
0.0258974
0.0109893
0.0226789
0.067193
0.0220463
0.0217526
0.0223453
0.354168
0.0125946
0.0209538
0.0144698
0.0201428
0.0377881
4.38227
0.575153
0.0218779
0.0226343
0.0226599
0.0220815
0.022966
0.0838192
0.0260981
0.139765
0.0406235
0.0273202
0.025427
0.0258648
0.206841
0.0209722
0.560935
0.0243576
4.07805
0.0208878
0.234132
0.0215036
0.0204129
0.0214271
0.019573
0.0208037
0.059353
0.0214289
0.3724
0.528199
0.68368
0.0211348
0.021673
0.0238269
0.0769573
1.22185
0.0221901
0.0778417
0.0215084
0.0252964
0.0262813
0.0217621
0.0222451
0.0213934
0.0222043
0.0361139
0.356272
0.375433
0.0217524
0.341433
0.0762994
0.297835
0.0576735
0.0222908
0.0215307
0.150362
0.0214377
0.0204168
0.0345777
0.0214129
3.69849
0.0230571
3.88518
0.0247172
0.0209075
0.0212251
0.0220468
0.0401737
0.0209384
0.544768
0.0206374
0.0208267
0.0210278
0.0237887
0.0212797
0.0382155
0.0232533
3.32362
0.021481
0.0212859
0.0215439
0.504408
0.0219386
0.021169
0.0270419
0.0215369
0.020441
0.0270877
0.0214379
0.0200931
0.0200922
0.022762
1.33244
0.843845
0.0214514
0.0213916
0.0227434
0.0251758
0.027705
0.0220117
0.0250179
0.0424946
3.51253
0.0271371
0.0210217
0.0365578
0.0222737
0.118436
0.0269913
0.0222218
0.0755089
0.172297
0.0270463
0.020842
0.0206266
0.0726643
0.0277943
0.020656
0.0232028
0.0215506
0.0225172
0.0213831
0.117234
0.0209172
0.352951
0.0888995
0.0212481
0.116857
0.0395844
0.246839
0.0477975
0.0297847
0.0222653
0.02044
4.66569
0.0212629
0.0222619
0.0240615
0.0213936
0.0228025
0.305175
2.26589
0.381924
0.0201664
0.0211443
0.0746862
3.66875
0.0218523
0.022245
1.45389
0.0199721
0.0212525
0.0199602
0.0564572
0.0520372
0.0210218
0.0224372
0.0216356
0.0222019
0.0240041
0.0233318
0.0213392
0.0362176
3.04897
4.34916
0.0236309
0.0199794
0.0266997
0.369769
0.323686
0.0199675
0.0245373
0.0568263
0.0272772
0.0214769
0.0247321
0.0219959
0.0320119
0.0212973
0.0229306
0.606547
0.0945791
0.0202438
0.0228935
0.0223893
0.552266
0.0211954
0.251628
0.0208381
0.0223108
0.0211534
0.0260982
0.0213943
0.0218536
0.0208919
0.359862
3.1223
0.0267028
0.0222015
0.0208984
2.49968
0.0223897
0.509758
0.0208322
0.0208157
1.31796
0.0207547
0.0229762
0.0759244
0.121393
0.409062
0.0216352
0.0220169
0.0199757
0.0212857
0.0480712
0.0213854
0.0236293
0.0206133
0.0220176
0.089485
0.0560619
0.0199841
0.0206071
0.0214538
0.021509
0.417038
0.0219358
0.373704
0.0244922
0.0208601
0.0238346
0.0202961
0.0767357
0.0217084
0.0917747
0.0213371
0.267129
3.81042
0.0206108
0.0205811
0.0199719
0.0214782
0.0215706
0.0208481
0.0275162
0.0546664
0.0217362
0.34048
0.0202139
0.0207467
0.0206276
0.414535
0.0221326
0.0215155
0.0223718
0.114176
0.0199792
0.0208398
0.0240558
0.0209095
0.0212134
0.0210064
0.0357648
0.0205672
0.0204045
0.111526
0.0199926
0.233072
0.0202173
0.112672
0.949359
0.0202177
0.027019
0.0220864
0.0255927
0.0213522
0.0382615
0.0762283
0.0200024
0.0199044
0.0211345
0.0219747
0.0206633
0.0214849
0.0214444
0.120269
3.11892
0.0229927
0.0225893
0.0206746
0.0228694
0.0223287
0.0208204
0.023648
0.0218565
0.0214566
0.0199639
0.114004
0.0203652
0.0214033
0.0210653
0.021369
0.0214447
0.0557997
0.0199743
0.026444
0.407957
1.22451
0.0214843
0.408474
0.0196186
0.0216735
3.83158
2.78528
0.0227799
0.0242111
0.0210579
0.433823
0.225136
0.0211176
0.0238392
0.0211861
0.0414163
0.168415
1.16629
0.0209854
0.0206525
0.020556
0.0512735
0.0199841
0.0208265
0.021132
0.0437194
0.0235644
0.0199816
0.0214913
0.0226956
0.0214166
1.31854
0.0359988
0.0217084
0.345035
0.431704
0.0206046
0.0325727
0.0366541
0.0291262
0.0213364
1.18873
0.0413406
0.0199932
0.09144
0.119628
0.0230924
0.0210981
0.0212846
0.0216382
0.0211583
0.444624
0.422195
0.0199899
0.0200314
0.0213736
0.0337773
0.707763
0.0210484
0.0200021
0.0210517
0.0215072
0.0200376
0.0221711
0.0200534
0.344336
0.0202213
3.78439
0.239387
0.0223638
0.0212805
0.0209497
0.0227049
0.0221814
0.0208922
0.442929
0.10631
0.430739
0.0211286
0.86136
0.0232803
0.110822
0.0214244
0.0391766
0.024067
0.0415287
0.0220116
0.0206645
0.0236967
0.334014
0.0188496
0.0244893
0.0214058
0.0204465
0.342895
0.0219416
0.112003
0.657374
0.020939
0.0200356
0.0204519
0.0200919
0.0211671
0.021306
0.0271894
0.0214102
0.357611
0.0217032
0.021293
0.0208247
0.0404943
0.0219731
0.0200315
0.0212683
0.0200982
0.0201848
0.0208652
0.020424
0.0203658
0.420925
0.822406
0.0201629
0.0209476
0.0210936
0.021852
0.0218326
0.0215577
1.20476
0.377767
0.436149
0.0218764
0.0222242
0.0212544
0.0200354
0.0202249
0.0217137
0.0889
0.0223261
3.32741
0.0209557
0.0214037
1.43237
0.0250958
0.0212045
0.466871
0.422403
0.0543804
0.0201841
0.0220072
0.0209364
0.390709
0.106027
0.110796
0.141759
0.0349241
0.825775
0.0580279
0.0264869
0.021252
0.0958696
0.0669308
0.182313
0.021567
0.024294
0.0654575
4.10121
0.02004
0.0270825
0.0394493
0.0202356
0.020844
0.0210262
0.0201113
0.0215324
0.0214468
0.0205652
0.020954
0.0214343
0.542451
1.33694
0.0207185
0.024183
0.0209214
0.0933573
0.246709
0.0219105
0.24387
0.0234173
1.20781
0.0535592
0.362829
0.0219107
0.0411932
0.0218341
0.0214011
0.141187
0.0212855
0.0207931
0.377771
0.0571888
0.0212015
0.0207719
0.0214569
0.0213371
1.20119
0.0786223
0.0222629
0.0249603
0.103792
0.173081
0.0228025
0.0234661
0.021441
0.0214016
0.0207331
0.254065
0.223899
0.544064
0.0224668
0.0208842
0.0994484
0.0215033
0.0358741
0.020944
0.299626
0.0209478
0.0229106
0.0595772
0.0222911
0.0980811
0.0213625
0.0215164
0.0230857
0.049035
0.0264169
0.0360923
0.0236126
0.0220483
0.0211012
0.0234908
0.020612
0.0223617
0.0213545
0.037284
0.0215476
0.0219708
0.0217912
0.0499092
0.0218936
0.0166683
0.0565395
0.0225848
0.3551
0.0218559
0.0217249
0.0222531
0.020925
0.0221385
0.0240166
3.22062
3.56772
0.0384694
0.021154
0.022692
0.703658
4.06147
2.99717
0.0222632
0.0201953
0.0274286
0.0221977
0.037198
0.0221186
0.0218966
0.0230935
0.0402758
0.980552
0.0204714
0.027612
0.0221558
0.0216807
4.29038
0.416654
0.0264492
0.0633442
0.0836142
0.127596
0.145421
0.0355105
0.0214007
0.0212257
0.196477
0.0344519
0.0609311
0.338019
0.0218577
0.0531848
0.0212163
0.0211953
0.0210484
0.0215494
0.136509
0.0211829
0.0209359
0.409975
0.0213067
0.545654
0.0214062
0.0201635
4.19638
0.0195031
0.0219201
1.07482
0.0212688
0.0210868
0.0204002
0.0201594
0.414206
0.0209548
0.0210825
0.0880149
0.0201044
0.0234482
0.0222202
0.0218317
0.0511196
0.0219953
0.0346261
0.0652184
0.0213699
0.019552
0.0208915
0.0234114
0.117439
0.0215694
0.450813
0.0201793
0.0950615
0.0202568
0.0230853
0.0330066
0.0208542
0.530148
0.0215853
0.181262
0.0213941
0.021015
0.021352
0.0212914
0.0221574
0.019964
0.0600517
0.0248671
0.0773541
0.0215412
0.0226575
0.32515
0.35696
3.11635
0.422036
0.356261
0.0265612
1.85184
0.0212452
0.0207421
0.0189878
0.0208152
0.0467982
0.0600134
0.0209115
0.0244495
0.0202564
0.0207216
0.0235657
0.0663609
0.0212953
3.76829
0.0214623
0.0209261
0.136034
0.0217303
0.0206002
0.0203751
0.0223445
0.0224917
0.728107
0.0221608
0.0210603
0.021269
0.0515799
0.477707
0.0259737
1.39953
0.0201928
0.0246493
0.020268
0.0744796
0.0212345
0.0201892
0.0211099
0.0502571
0.361603
0.021314
0.0265356
0.0218509
0.0195036
0.0355331
0.0933189
0.0220597
0.0213942
0.121936
0.0394978
0.0236971
0.0215146
0.726913
0.0213145
0.548154
0.0205906
0.0212599
0.0215036
0.0219605
0.0259505
0.0222124
0.0212698
0.0213885
0.021031
0.025473
4.07249
0.0213699
0.0209119
0.0215281
0.131655
0.0238812
0.0217613
4.24758
0.329612
0.0197851
0.0237493
0.0210696
0.0681721
0.022898
0.362592
0.0360455
0.0192774
1.28468
0.0229597
0.0212127
0.505139
3.30092
0.0211322
0.0220879
0.0214927
0.0212167
0.0214851
0.269772
0.0245157
0.0277163
0.0223512
0.379787
0.0211986
0.343828
0.021064
0.0213562
0.0211611
0.148242
0.0215107
0.30882
0.021212
0.0208023
0.0228391
0.0209002
0.0218896
0.0208332
0.0207117
0.167027
0.0272877
0.0201425
0.0215758
0.0210724
0.0512442
0.0208277
0.0214313
0.0221319
0.0215144
0.0307459
0.0211676
0.0357147
0.745334
0.0222936
0.0215572
0.101171
0.329087
0.0223795
0.0202508
0.0215562
0.0259446
0.167255
0.0209595
0.272281
0.0360809
0.02207
0.0217964
0.0215113
0.0507539
0.0214087
4.03379
0.0241534
0.0230166
0.0213634
0.123863
0.0225992
0.0213633
0.0798023
4.3961
0.10794
0.022074
0.0223457
0.156065
0.0219219
0.024856
0.0216718
0.0231743
0.0224886
0.0213687
0.00870702
0.0815952
0.0231107
0.0218922
0.0911284
0.0240892
0.0206444
0.130994
0.0530046
0.0414079
0.0228435
0.265684
0.273725
0.418356
0.0217246
0.495394
0.0213144
0.019827
0.354245
0.0282444
0.440253
0.0214096
0.0220442
0.0303855
0.0216976
0.0213513
0.0218277
0.11219
0.106906
4.00593
0.360268
0.0254387
0.0245441
0.0207567
0.020812
0.0213426
0.0208127
0.0218938
4.73203
0.0691109
0.0206067
0.021196
0.0835313
3.83472
0.0472621
0.0209847
0.0200536
0.0438998
0.0207631
0.0213558
0.392927
0.0202413
0.0219737
0.022166
0.0818448
0.0221169
0.0902945
0.105749
0.0222299
0.0217574
0.0221351
0.0215926
0.0214155
0.0358054
1.21431
0.0215628
0.02567
0.0211951
0.4309
0.0490737
0.193532
3.70269
0.0259945
0.0482467
0.0433809
0.0215259
0.0207905
0.0213924
0.0219141
0.0283957
0.0209931
0.0205986
0.513463
0.0211517
0.0205467
0.0207951
0.0208966
3.54151
0.336847
0.0229144
0.402495
0.0208274
0.0201374
0.0383867
0.246603
0.0597182
0.0214551
0.0236475
0.0210765
0.0220487
0.251097
0.0214984
0.0231912
0.00472946
0.436238
0.0200349
0.0200212
0.0231722
0.0193693
0.313914
0.0906196
0.020781
0.0266168
4.19654
0.0213067
0.525084
0.0218339
0.0198813
0.0213408
0.0257041
0.0216907
0.0206693
0.0214089
0.0318884
3.58027
0.0201005
0.0204038
0.416532
0.0217173
0.0213498
0.0494979
0.0238132
0.0217061
0.0205508
0.106138
0.0212942
0.0234022
0.024027
0.166097
0.223566
0.0212708
0.0217542
0.0213711
0.0365762
0.0201567
0.0231534
0.0156948
0.0217545
0.0238672
0.0666187
0.0208676
0.0387845
0.0198964
0.0235227
1.3593
0.412969
0.0211676
0.0661945
0.0207806
0.0207296
0.0354465
0.019918
0.0221403
0.0216776
0.021376
0.0219119
0.0208397
0.022089
0.0217639
0.0519951
0.432749
0.0149361
1.4858
0.021435
0.249671
0.0207984
0.0201635
0.0200433
0.0212464
0.0203435
0.0227371
0.468746
0.0214509
0.0237149
0.0206754
0.0198038
1.80629
0.541329
0.0212082
0.0214849
0.0702429
0.0221236
0.0200121
0.115607
1.1137
0.0207981
0.0221895
0.0204643
3.50947
0.0212622
0.0215622
4.2791
0.14045
0.0213654
1.41009
0.0214097
0.0204094
0.0205233
0.0208349
0.396672
0.0226515
0.0226263
3.79331
0.0214595
0.0215613
0.0201064
0.0229586
0.511518
0.0670343
0.0234858
0.0216136
0.0761532
0.0213267
0.0215499
0.0237201
0.0202296
0.0236815
0.0204999
0.0218624
0.0207274
0.0402577
0.22276
4.15604
0.0860441
0.0312232
0.0510563
0.0213639
0.0396417
0.021052
0.0213468
0.0294936
0.0216811
0.0216833
0.0228877
0.0208383
0.0279873
0.167649
0.0225885
0.0213861
0.0210619
0.0213598
0.0206722
0.0214298
0.0278299
0.0349204
0.351443
0.0213498
2.24206
0.0213214
0.020826
0.0225432
0.0239227
0.0212973
0.0205988
0.0207124
0.228985
0.278139
3.53119
1.15843
0.370277
0.0365878
0.499989
0.0210433
0.0212935
0.0260369
0.0208387
0.0201577
0.0496251
0.0213844
0.656979
0.0212695
0.0213644
0.0215331
0.0208222
0.0546765
0.0210467
0.23736
0.0210586
0.0337036
3.70896
0.0224616
0.409669
0.0216726
0.0217525
0.0315253
0.0207356
0.0208036
0.0387933
0.031165
0.0212062
0.0204948
0.0212557
0.121679
0.29969
0.0218441
0.0208925
0.0216823
0.0204964
0.0201383
0.155939
0.02069
0.151139
4.15775
0.0215616
0.0201287
0.0697031
0.0214909
0.0816569
0.115575
0.0208848
0.0222274
0.0619351
0.0437541
0.0645276
0.179223
0.0259025
0.0226377
0.0377296
0.0216511
0.0201328
0.0278221
0.0203741
0.0212135
0.0225756
0.0214033
0.412772
0.0213742
0.0159098
0.0366412
0.0535739
0.0214219
0.0307453
0.0265039
0.109595
0.0210158
0.0206844
0.421672
0.102296
0.021813
0.099752
0.570977
0.0213792
0.0218852
0.024232
0.0209947
0.0823656
0.0211563
0.0491444
0.0201425
0.0804127
0.0266038
0.0854775
0.163979
0.0212864
0.0199053
3.0099
0.395473
0.0332315
0.0213565
0.0207903
0.0634517
0.0194869
0.0222065
0.0742694
0.0210658
0.122137
0.0247978
0.0224912
0.0214946
0.0335349
0.0237095
0.0507947
0.0223022
0.0221937
0.0210857
0.021411
0.945966
0.0214522
0.0213862
0.0207705
0.565718
0.371179
0.0505056
0.0125014
0.0199571
0.0648564
0.0210664
0.0205353
0.0201045
0.0233135
0.0201703
3.9118
0.0232998
0.0217955
1.2134
0.0915451
0.0236642
0.0211274
0.0212784
0.0198529
0.0213465
0.019702
1.05953
0.0218015
0.0217094
0.0373592
0.284137
0.0572949
0.0356625
0.0427434
0.0210555
0.0205608
0.411725
0.021434
0.0199919
0.515407
0.020645
0.0211582
0.0199319
0.0212726
0.0211295
0.0207791
0.0788944
0.358149
0.43213
0.044885
2.97747
0.0233713
0.0206065
2.80236
0.0213801
0.0657829
0.0215488
0.404119
0.0205138
0.0684204
0.301476
0.022267
0.0201765
0.0214947
0.0273343
0.0211904
1.37244
0.0202204
0.0229667
0.0233767
0.0564559
0.0212745
0.0110549
0.0208795
0.0206797
0.0209051
0.0220289
0.0198918
0.39855
0.0208949
0.69865
0.0598288
0.0209585
0.0212759
0.0244875
0.0207732
0.0222224
0.0207629
0.0222948
1.3836
0.0207854
1.12528
0.0212208
0.0279136
0.0352901
0.020696
2.93566
0.0213659
0.0221405
0.024845
0.745968
0.0244661
0.0211146
0.0201311
0.048235
0.0489681
0.0269502
0.0232249
0.0221711
0.021984
0.0212258
0.0208596
0.0230882
0.0256865
0.0216371
0.0236265
0.0205595
0.35881
3.23002
0.0217835
0.0212937
0.00838799
0.0964959
0.0215134
0.0221955
0.0225189
0.0217058
0.0204224
0.0249115
0.0208937
0.0213318
0.208883
0.0205162
0.0208117
0.0209947
0.0206346
0.397378
0.110856
0.0243759
0.0214571
3.44349
0.0308967
0.0900999
0.0225346
0.109354
0.0405363
4.11918
0.0204989
0.0228352
0.0263813
0.0213442
0.0227517
0.0295596
0.0212079
0.0213508
0.0349912
0.0214623
0.0268794
0.030966
0.021553
0.0214029
0.0313875
0.021652
0.0936413
0.0205224
0.547629
0.0220462
0.021614
0.0202037
0.318631
0.0499623
0.0204082
0.175201
0.0443381
0.16567
4.17259
0.0212637
0.0508699
1.41874
0.31499
0.0212496
0.0417937
0.0374571
4.16122
0.022051
0.0226049
0.18828
0.0755286
0.0219057
0.345529
0.0229184
0.101881
0.0209105
0.0213657
0.0213682
0.0714877
0.0213411
0.0919009
4.24967
0.0451318
0.0201166
0.0213225
0.0213436
0.032908
0.0205412
0.0213711
0.179883
4.10962
0.240188
0.0215152
0.0211895
0.0209434
0.428901
0.0216836
0.022372
0.0205515
0.0196287
0.0358155
4.21283
0.0245683
0.020652
0.032452
3.51295
0.0219653
0.02072
0.0324668
0.0150712
0.0213132
0.2557
0.0245271
4.10854
4.03369
3.21013
0.0224255
4.28212
0.783845
0.0229714
0.247244
0.0285509
0.0220747
0.376387
0.428573
3.59846
3.6449
0.746396
0.0208565
0.074444
2.65972
0.0294434
3.49686
4.02283
0.0213786
0.432873
0.0207864
0.0213383
0.206901
0.0197582
0.0214093
0.021094
0.0217775
3.64271
0.0253622
0.0507965
0.0217735
0.368866
0.0207637
0.0215058
0.0206753
2.31221
0.0214772
0.023055
0.536997
0.0212272
0.0208076
0.0241795
0.0237238
0.0233837
0.0258613
0.0353033
1.54191
0.020612
0.021329
0.0195115
0.0551061
0.430266
0.0213759
0.0213866
0.498947
0.0214372
0.0206026
0.176107
0.020934
0.0321093
0.017956
2.77449
0.0347538
0.124034
0.0209513
3.32716
0.0236892
0.0208234
3.60468
0.021437
2.64753
0.0307897
0.0217066
0.276726
0.162379
0.0215855
0.060958
0.0228463
0.0203746
0.0213932
0.0216418
0.139653
0.0307027
0.0210312
1.97264
0.0620877
0.0213502
0.022068
0.0204928
0.360078
0.0987297
0.0208109
0.0288402
1.24733
0.3281
0.0204874
0.0229116
0.139486
0.0209358
0.0212617
0.0207221
0.0327087
0.255677
0.0287843
0.0239846
0.0217026
0.0208129
0.0203427
0.0768584
0.0207066
0.0170942
1.42532
0.021269
0.028079
0.0213799
0.14985
4.27217
0.0222257
0.0210546
0.447239
0.0212272
4.11236
0.0719486
0.41783
0.295701
0.355799
3.6107
0.0211367
0.727778
0.0235919
0.0227308
0.0209846
0.0250509
0.25221
0.0227675
0.0215965
0.0345989
0.0950961
0.0209036
0.0202133
0.0388278
0.0296063
0.0203521
0.805957
0.203138
0.021381
0.0209143
0.0212726
3.77994
0.341037
0.847717
0.0227306
0.0525306
0.0214041
0.0210799
0.0412453
0.120367
0.0214148
0.0380981
0.229055
0.0211867
0.0212445
0.0256924
0.0232823
0.028127
0.0209082
0.225233
0.0249201
0.021479
3.73028
0.0214403
0.140595
0.0213158
0.0210007
0.127814
0.284994
0.0204142
0.0211061
0.0210743
0.0355243
0.0199735
0.0965371
0.0214381
0.0214839
0.444931
0.135587
0.0201756
0.46685
3.35954
0.133006
0.0241855
0.0201322
0.0212753
0.214261
0.234579
0.0206858
0.0201029
0.768504
0.0705303
0.0226465
0.0210242
0.045678
0.247928
0.0209798
0.303324
0.253192
0.0211801
0.0224428
0.0317123
0.428127
0.131335
0.0220132
0.0332632
3.4271
0.0364096
3.56336
0.0208846
0.535363
0.0262342
0.184296
0.0292606
0.192988
0.0707503
0.0202335
0.232031
0.0244043
3.20792
0.0617708
0.164712
1.54133
0.119892
0.0215027
0.112811
0.121655
0.0261549
0.0302691
4.07136
0.278678
0.0206775
0.13254
0.225888
0.021901
0.0227207
0.0205068
3.26551
0.0219965
0.021113
0.0214382
0.351678
3.60628
1.50991
0.0200204
0.021423
0.565984
1.17938
0.0256597
0.0724722
0.0329092
0.0222419
0.0214899
0.817432
0.0216833
0.0270722
0.0205945
0.0212747
0.044932
1.31441
0.0215516
0.0506623
0.154237
0.134111
2.51232
0.0352703
0.025553
0.0217101
0.0206048
0.0211302
0.0315749
0.0212701
0.0212814
0.344761
0.0214445
0.0213718
0.0235034
0.0227505
0.0209037
0.088527
1.41694
0.0221253
0.0196115
0.0277267
0.0198782
0.0219716
0.0342537
0.135169
0.142785
0.4256
1.56561
0.334845
0.0273271
0.00762993
0.0218409
0.0215139
0.25122
0.0228309
0.0326332
0.0236365
0.0237749
0.0238303
2.56891
0.0239087
0.0212498
0.0308825
0.0199427
0.0213895
0.0219278
0.021355
0.0204583
0.0237933
0.019937
0.0438357
0.0207961
0.0359976
0.0213548
0.0337798
0.760053
0.0214034
0.041863
0.0786582
0.0217015
4.07841
0.021332
0.0218553
0.0217511
0.0221891
0.0207438
0.0226164
0.04114
4.29173
0.0202585
0.0211387
0.0212536
0.103289
0.023607
0.0217374
0.0234028
0.0379834
0.0211328
0.0214177
1.46097
0.0456377
5.00028
0.0211447
0.0226861
0.136257
0.0223147
0.031663
0.147603
1.40493
0.0213773
0.0214256
0.148604
0.0226654
0.0205823
0.0208732
0.0221874
0.0470987
0.0207886
0.0206136
0.0586255
3.50652
0.02181
0.0368042
0.0205236
0.0239843
0.0217903
0.800604
0.0305494
1.43451
0.0222796
0.350673
0.0487834
0.0764547
0.027214
0.02121
0.0203876
0.0207464
0.0902071
1.39509
0.0221159
0.0236129
0.0199895
0.140006
0.0220821
0.0222999
0.0313921
0.17458
0.0279324
0.0223219
0.0205004
0.0217264
0.0211787
0.0891452
0.0210086
0.420801
0.0198874
0.0487355
0.0218117
0.0188254
0.0200132
0.021705
0.0214313
0.0205007
0.0656077
0.025359
0.824874
0.0200119
0.0248418
0.021681
0.0220525
0.0479084
0.0225711
0.0221464
0.0233497
4.15657
0.0207401
0.0490844
0.0203831
0.0196872
0.0230829
0.0232919
0.3562
0.0206784
0.0233164
0.0232058
0.0255726
0.0614459
0.0474859
0.0208817
0.021643
0.0424937
0.0214092
0.0217786
0.021471
0.0204929
3.99792
0.120578
0.0217926
3.10954
0.0199145
0.0451345
0.0213699
0.0348148
0.0207811
0.0211281
0.338415
0.0283486
0.0960367
0.0213819
4.09772
0.0210085
0.0845906
0.0209171
0.0211161
0.0479245
0.0206966
0.0260853
0.553897
3.14934
0.0202743
0.0265302
4.00325
0.0218239
0.0197182
1.0441
0.0245477
0.0241308
0.0624925
0.0205438
0.0920747
0.0155238
4.16478
0.0206695
0.020573
0.0242716
0.0237017
0.0304499
0.0219699
0.0218918
0.0202661
0.0206829
0.0201691
0.0259245
0.0773004
0.0202229
0.021763
0.0460462
0.124329
0.0211561
0.0300016
3.26712
0.0210101
0.0214145
0.0198607
0.0274932
0.0219861
0.0711473
0.0387859
0.0205348
0.0212437
0.226018
0.0210719
0.0215915
3.07163
0.138968
0.0564427
0.027167
0.0213616
0.0237797
0.0198426
0.0264284
0.0302192
0.0508529
0.0197639
0.0204202
0.0288747
0.0294308
4.22719
0.0352131
0.320414
0.0219719
0.0225249
0.0222697
0.0527633
0.0545863
0.041618
0.0226735
0.0198707
0.0535639
0.0245482
0.0211297
0.460084
0.0645959
0.0239436
0.321879
0.0202739
0.0443823
0.0215031
0.0236273
0.0204073
0.0207543
0.0208635
0.0335878