/*--------------------------------*- C++ -*----------------------------------*\
| =========                 |                                                 |
| \\      /  F ield         | OpenFOAM: The Open Source CFD Toolbox           |
|  \\    /   O peration     | Version:  v2012                                 |
|   \\  /    A nd           | Website:  www.openfoam.com                      |
|    \\/     M anipulation  |                                                 |
\*---------------------------------------------------------------------------*/
FoamFile
{
    version     2.0;
    format      ascii;
    class       surfaceScalarField;
    location    "150";
    object      phi;
}
// * * * * * * * * * * * * * * * * * * * * * * * * * * * * * * * * * * * * * //

dimensions      [0 3 -1 0 0 0 0];
oriented        oriented;


internalField   nonuniform List<scalar> 
26997
(
0.405751
-0.23896
-0.166791
-0.3223
0.154955
0.167345
-0.172693
0.0566836
0.116009
0.159694
-0.14019
-0.0195042
-0.184443
0.322489
-0.138046
0.0677977
0.065944
-0.133742
0.298099
0.0553348
-0.353433
-0.354439
-0.0306091
0.385048
0.247159
-0.150791
-0.096368
0.152829
0.252922
-0.0857469
-0.236553
0.164543
-0.069516
-0.0950274
0.00960858
0.121517
-0.131126
-0.207622
0.19059
0.0170314
-0.188014
0.175167
0.0128473
0.207794
-0.340783
0.132989
0.0288552
-0.0172995
-0.0115557
-0.405739
0.5383
-0.13256
-0.0818755
0.190779
-0.108904
0.238767
0.139646
-0.378413
-0.0456095
0.194445
-0.148835
0.551716
-0.551716
-0.106555
-0.0767028
0.183258
-0.0926213
-0.127265
0.219886
-0.595671
0.34924
0.246431
-0.176735
-0.29563
0.472365
-0.326918
-0.0275207
0.248559
-0.380136
0.131577
0.30122
-0.127931
-0.173289
0.419441
-0.319926
-0.0995146
-0.191566
-0.292333
0.117957
0.372193
-0.490151
0.374503
-0.229476
-0.145026
-0.373452
-0.222219
0.431495
-0.154067
-0.277428
-0.355358
0.166669
0.188689
0.121075
-0.427908
0.306833
0.527575
-0.21727
-0.310304
0.386304
-0.278894
-0.10741
0.0214237
0.14312
0.117894
0.129265
-0.231488
0.107668
0.123821
0.326963
-0.499402
0.172439
0.113643
-0.195519
-0.408508
0.249601
0.158907
0.277385
-0.447537
0.170152
0.033207
0.386563
-0.41977
0.268042
-0.244503
-0.023539
0.486042
-0.496866
0.010824
-0.196781
0.435548
-0.296327
0.44161
-0.145282
0.0109208
0.0179344
0.0334631
0.452579
0.236813
-0.382529
0.145716
0.464253
-0.186868
-0.237546
0.383347
-0.145802
0.31407
-0.424173
0.110104
-0.0517995
0.417787
-0.365987
0.270821
0.160674
-0.420674
0.183128
-0.479065
0.3636
0.115465
0.318224
-0.496864
0.17864
0.378401
-0.526451
0.14805
0.169524
0.124208
-0.293732
0.349061
-0.51875
0.16969
-0.153028
0.462017
-0.308989
-0.268042
0.462863
-0.194822
0.317464
-0.10967
-0.0978103
0.112017
-0.0142071
0.471498
-0.134771
-0.336727
0.161494
-0.151885
0.104961
0.0547326
-0.345329
0.264909
0.0804201
-0.011423
-0.139368
0.360822
0.110677
-0.407642
0.177335
0.230308
0.0553554
0.0874212
-0.142777
0.186671
-0.0416911
-0.14498
0.144433
-0.059159
-0.0852745
-0.284988
-0.0711796
0.356167
-0.214754
0.169145
0.44776
-0.328037
-0.119722
0.115272
-0.299714
0.56203
-0.219494
-0.342536
-0.489482
0.432838
0.0566441
-0.172697
-0.306368
0.146381
-0.447737
0.301357
0.325613
-0.156089
-0.39041
0.388539
0.00187106
0.158397
-0.103042
0.305909
0.256121
-0.388197
0.481381
-0.0931838
-0.0967649
-0.38871
-0.00170017
-0.162723
0.1513
-0.097117
-0.157804
0.254921
0.0537399
-0.12141
0.0676705
-0.324744
0.272945
-0.132809
0.176041
-0.0432318
-0.0560368
0.0148101
0.0412267
0.248258
-0.379217
0.130959
0.306059
-0.473366
0.167307
0.301224
0.118216
0.412693
-0.164134
-0.5175
0.241146
0.276354
0.380561
-0.0664918
-0.519538
0.405345
0.114193
0.509164
-0.22806
-0.281104
-0.330249
-0.148546
0.478795
-0.324777
0.14443
0.180346
-0.00201024
-0.0314088
0.033419
-0.365081
0.197209
0.167872
-0.0193097
-0.0982231
0.000412798
-0.119836
-0.0552434
0.17508
0.283378
0.129315
0.128574
0.0580962
-0.0465065
0.206045
-0.159538
-0.214578
0.121957
0.611142
-0.30291
-0.308232
0.337741
-0.229656
-0.108086
0.294922
0.316219
0.171758
-0.218264
0.516826
-0.380785
-0.13604
0.0605094
0.310296
-0.370805
-0.0662568
0.188267
-0.12201
-0.200941
0.134685
-0.363267
0.51867
-0.155403
0.38843
-0.365668
-0.0227621
-0.198005
0.333264
-0.135259
0.40931
-0.111211
-0.377795
0.169604
0.208191
-0.453057
0.334637
0.11842
0.42377
-0.175512
0.157301
0.217202
0.412373
-0.128995
0.372577
-0.134688
-0.237889
0.078348
0.0660855
0.452221
-0.0637916
-0.583464
0.315908
0.267555
-0.400798
0.214399
0.186399
0.186567
0.151174
-0.208056
0.0896908
0.118365
0.402872
-0.256597
-0.146275
-0.282785
-0.196826
0.47961
-0.137686
0.212063
0.190809
0.429526
-0.308451
-0.464003
0.178176
0.285827
-0.0123012
0.170568
-0.433869
0.263301
0.219172
-0.0799449
-0.139227
-0.276743
-0.30672
-0.0604718
0.0181565
0.0423153
-0.130117
0.0794298
0.0506871
-0.291035
-0.172969
0.26668
-0.381351
0.114671
0.240428
-0.36658
0.126152
-0.0988149
-0.031302
0.114377
-0.234213
-0.397232
0.275403
0.121829
0.47922
-0.357774
-0.121446
-0.00756929
0.0455817
-0.0380124
0.442249
-0.115286
-0.133701
-0.244094
-0.168606
0.440125
-0.271519
0.297677
-0.233806
-0.0638714
0.28151
-0.312119
-0.0715133
0.0278092
0.0437042
0.383453
-0.116773
-0.467981
0.185652
0.282329
-0.456333
0.409727
0.0466058
0.250415
-0.424092
0.173677
-0.0626306
-0.107737
0.170368
-0.484851
0.462961
0.0218901
0.266941
-0.407511
0.14057
-0.51191
0.339213
0.488683
-0.396009
-0.0926742
0.125761
0.257586
0.244774
-0.217601
-0.0271736
0.45285
0.0639755
-0.0378045
-0.350392
0.334459
0.154224
0.121178
0.0169497
-0.138128
-0.262904
0.103116
0.159788
-0.133783
0.397913
-0.26413
-0.348854
0.117494
0.23136
-0.0667783
-0.154781
0.221559
-0.179557
-0.0801935
0.259751
-0.471843
0.527739
-0.0558968
0.311907
-0.0714794
-0.12985
-0.133054
0.159117
-0.0379389
0.434645
0.0106052
-0.44525
0.191646
0.287574
-0.0344613
0.0946556
-0.0601944
-0.10426
0.0697988
0.104211
0.241985
-0.346197
-0.257553
-0.143245
-0.421245
0.153203
0.423478
-0.294388
-0.12909
0.0154709
-0.14828
-0.0429173
-0.028596
0.150989
-0.206233
-0.437721
0.19936
0.238361
0.170745
-0.105334
-0.0654113
-0.353812
0.166325
0.187488
-0.0202179
-0.119972
0.037502
-0.115246
0.0777443
-0.0821482
-0.334418
0.416566
0.3807
-0.130285
0.0983438
0.0724017
-0.0678322
-0.440987
0.358839
-0.16212
0.00376893
0.158351
0.404708
-0.190309
0.253476
0.0145659
0.339277
-0.102464
0.217157
0.0947502
0.404959
-0.197945
-0.207014
0.328296
0.119464
0.295379
-0.538089
0.242711
0.200211
-0.0465298
-0.153681
-0.456353
0.408757
0.0475962
0.383015
0.0516302
0.451349
-0.239286
0.383755
-0.0655313
-0.384868
0.20078
0.184089
-0.39402
0.5372
-0.14318
-0.459516
-0.0026757
0.462192
0.440633
-0.416024
-0.024609
-0.63653
0.379775
0.256755
0.298195
-0.47493
-0.274332
-0.362197
-0.0530575
0.0143988
0.0386587
0.518926
-0.223548
0.24437
0.274557
0.33637
-0.471543
0.135173
0.170945
-0.450854
0.279909
0.110825
0.0199884
-0.130813
-0.360983
0.207955
-0.15299
-0.0546322
0.392717
0.0479164
0.15881
0.292538
-0.431728
-0.0246252
-0.604569
0.284492
0.320078
0.0901086
-0.184033
0.0939248
-0.309647
0.0137939
-0.298781
-0.0746966
0.142494
-0.295206
-0.242883
0.181407
0.223553
0.428714
-0.254509
-0.174205
0.0357745
0.12661
-0.162385
-0.167245
-0.507868
0.347123
0.160745
0.207049
0.197659
-0.193555
0.339426
-0.145871
0.170899
0.257815
0.159679
-0.256796
0.257928
-0.157545
-0.100383
0.120784
0.137144
-0.23703
0.170251
0.344219
-0.54235
0.198131
-0.30925
-0.198619
-0.0659034
-0.214681
0.280585
0.221455
-0.138847
-0.0826085
0.391294
-0.109785
-0.381672
0.247889
0.455673
-0.200997
-0.254676
0.432772
-0.401287
-0.0314856
-0.217131
-0.22059
0.225715
0.0719625
-0.343936
0.461894
0.440252
-0.350993
-0.0892587
-0.286382
0.453042
-0.16666
0.0913282
-0.387656
-0.322328
-0.167155
-0.163629
0.318585
0.137423
-0.0836831
0.2788
0.13051
0.429806
-0.283425
0.125268
0.00787228
-0.13314
-0.221313
0.127608
-0.451831
0.0885637
-0.135189
0.0646329
0.0705561
-0.0958635
0.131638
-0.39268
0.462385
-0.0697056
0.203721
0.0634074
-0.267128
0.182446
-0.512695
-0.338565
0.478198
-0.139633
-0.192609
-0.162749
0.0213967
-0.222158
0.200761
-0.615965
0.313054
0.416372
0.135343
0.466163
-0.391817
-0.0743457
-0.265363
-0.372529
-0.243435
0.0609816
0.160473
0.0832453
-0.197207
0.113962
0.206452
-0.335738
0.129286
-0.115239
0.0750402
0.0401984
0.266752
0.119552
0.355158
-0.360551
0.00539318
0.318611
0.121642
-0.194205
0.0277764
0.166428
0.408578
-0.198199
-0.210379
-0.164268
0.470327
-0.0942106
0.297931
-0.0636139
-0.232216
0.29583
0.319377
-0.258868
0.0462611
-0.238902
0.192641
-0.269308
0.384625
-0.115317
0.403575
-0.124775
0.473434
0.00554058
-0.478975
-0.469693
0.21544
0.254253
0.166438
-0.0680938
-0.0557592
0.106806
0.325967
0.124118
-0.166634
0.0425157
0.275337
-0.149607
-0.12573
-0.0326626
0.145487
0.313661
0.150592
-0.269575
-0.200118
-0.300971
0.237357
-0.0344127
-0.13828
-0.445367
0.235402
0.209965
-0.0495975
-0.0656488
-0.332761
-0.186777
0.360149
-0.508702
0.148553
-0.419534
0.419624
-9.04985e-05
-0.40588
0.19606
0.20982
-0.0118609
0.137129
0.136343
-0.391601
0.255257
-0.12298
0.0733827
-0.247603
0.0998488
0.147754
0.207858
-0.366117
0.158259
0.213449
-0.376892
0.163443
0.356085
-0.149633
0.192604
-0.146342
0.0856981
0.0807395
-0.135071
0.0760281
-0.201524
0.125496
-0.193677
-0.131099
-0.140604
0.0714926
0.0691111
-0.207696
0.29727
-0.0895734
-0.318608
-0.107418
0.426026
-0.303311
-0.214189
0.314604
-0.0888898
0.440813
-0.498082
0.0572696
0.153293
-0.0424677
0.0863643
-0.247589
0.161225
-0.178499
0.129008
0.0494916
0.0701147
-0.17667
-0.226333
-0.173493
-0.451094
0.258527
0.192568
-0.0330207
-0.161184
-0.163512
-0.254279
0.417791
0.244957
-0.383198
0.138241
-0.00069063
0.380466
-0.124913
-0.25834
0.362551
-0.37322
-0.15888
0.472541
-0.0496532
-0.346885
0.396538
-0.270648
-0.110487
0.381135
0.177869
-0.273678
0.0958091
0.446503
-0.0929682
-0.353535
-0.460318
0.260385
0.199933
-0.161623
-0.223245
-0.0269122
-0.0557618
0.082674
0.39211
-0.178661
0.435824
-0.0994544
0.0222197
-0.427959
0.437924
-0.318856
-0.119067
-0.0507599
0.0935233
-0.376427
0.488849
-0.112422
0.248862
0.0978938
-0.346756
0.147214
-0.00699314
-0.14022
-0.371435
0.348657
0.0227781
-0.554558
0.178131
0.308811
-0.136243
-0.172568
-0.212071
0.0777636
0.134307
0.118311
0.0289025
0.0037162
0.190728
-0.0622557
0.351276
0.137573
-0.206548
0.179625
0.0269233
0.0416845
-0.182657
0.140973
0.0363541
-0.206571
0.170217
-0.509926
0.15847
0.351456
-0.0785604
0.153947
-0.0753866
-0.395992
0.46631
-0.0703173
0.473914
-0.355739
-0.118176
-0.32954
0.279886
-0.164196
0.0392904
0.124906
0.348624
0.12529
-0.349358
0.503124
-0.153766
-0.198831
-0.114688
0.427594
-0.312907
-0.13165
0.168004
-0.436773
0.456139
-0.0193657
9.46827e-07
-0.471844
-0.186459
-0.158871
-0.46661
0.391668
0.0749413
0.305756
-0.420444
0.220685
0.317615
0.485811
-0.144371
-0.341439
0.48868
-0.273193
-0.215487
0.0327254
0.408087
-0.382475
0.415938
0.0196082
0.0651937
-0.0848019
0.102292
-0.260096
0.121404
0.263958
-0.385361
0.128422
-0.437189
0.308767
-0.238237
0.0586798
0.0366631
-0.456197
0.0978874
-0.480362
0.458442
-0.229956
-0.228486
0.214424
0.244019
0.465472
-0.311906
-0.153566
-0.486768
0.0907758
0.266705
0.0305644
0.314372
-0.505937
-0.545511
0.253178
0.347246
0.0229259
-0.370172
0.0699022
0.151074
-0.220976
0.41164
0.0360159
-0.447656
-0.023456
0.378614
0.194365
0.294315
-0.42503
0.49665
-0.0716206
-0.397656
0.199711
-0.393303
0.122654
0.167614
-0.0442726
-0.123341
0.166176
-0.170393
0.00421679
-0.0937248
0.338314
-0.24459
0.0113978
-0.0458192
0.0344214
0.168903
-0.11222
0.0455632
0.122701
-0.168264
-0.132988
0.178551
-0.100184
-0.228319
0.328503
-0.209226
-0.258755
0.165993
-0.0418744
-0.174458
-0.0844964
-0.127575
-0.456364
0.0623442
-0.054989
0.402235
-0.229493
-0.119361
0.341185
-0.0923223
0.368111
0.0435296
-0.357636
0.463311
-0.105676
0.286336
-0.203858
-0.0824785
-0.310783
0.461897
-0.151114
-0.262208
-0.150158
0.412366
-0.268641
-0.129015
-0.282399
-0.177919
0.402669
0.0634937
-0.497604
0.194583
0.303021
0.463014
-0.132236
-0.330778
0.114077
-0.14865
-0.0393646
0.127141
0.0726758
0.163673
-0.236349
-0.252656
-0.11815
0.340523
-0.389703
0.0491797
0.0388374
-0.275764
0.236926
-0.470521
0.349861
0.12066
0.0643255
-0.307523
0.243197
0.29029
-0.132252
-0.158038
-0.207801
-0.304109
0.170266
-0.0801577
-0.313678
0.319314
0.146159
0.293484
-0.470671
0.177187
0.214918
-0.37843
0.332473
-0.179634
-0.152839
0.339766
-0.211797
-0.127969
-0.106217
-0.301767
0.407984
0.0200867
0.360475
0.263655
0.144923
-0.13351
-0.274132
-0.257247
0.427815
0.134758
0.0328559
-0.13838
-0.293231
0.431612
0.303762
-0.139092
-0.16467
-0.43564
-0.00847354
0.444114
-0.0360545
-0.356625
0.0810797
-0.348394
0.267314
0.353354
-0.37681
0.231422
-0.142027
-0.0893949
-0.553273
0.258066
0.197831
0.141936
-0.367556
0.134196
0.23336
0.19935
-0.185864
-0.013486
0.443172
-0.253184
-0.189988
0.249559
-0.368682
0.119124
-0.149781
-0.0582745
0.131051
-0.34797
0.216919
-0.155791
0.23121
-0.0754189
-0.11548
-0.23604
0.406985
-0.195312
-0.0392682
0.23458
0.343623
-0.262543
-0.437383
0.151001
-0.404646
0.225717
-0.186469
-0.100952
0.450013
0.00761066
-0.444383
-0.135398
-0.416318
-0.129129
-0.0374179
0.166547
-0.128418
0.06277
0.0656482
-0.346005
0.252281
0.115133
-0.188232
0.144645
0.0435871
-0.333152
0.139597
-0.0988525
0.316009
0.171193
0.151296
-0.258692
0.0792491
0.152173
-0.034901
-0.347628
-0.104203
0.290396
-0.159345
-0.249793
0.314118
0.389105
0.13847
0.383334
0.12583
-0.0165835
-0.147612
-0.27827
-0.0481113
0.326381
-0.00967067
0.175846
-0.0223556
-0.184193
-0.45561
0.325029
0.130581
-0.145231
-0.0430004
0.168641
-0.385911
-0.0403466
-0.385905
0.426252
-0.338729
0.0604591
-0.340072
0.154899
0.185173
0.287208
0.152917
0.0728609
0.0631336
-0.135995
-0.165816
0.431472
-0.265655
-0.0637853
0.136388
-0.3317
0.0508642
0.148486
0.413914
-0.120431
-0.131539
0.482815
0.216895
-0.17127
-0.0456247
-0.214212
0.42913
0.0492777
0.125889
0.253178
-0.390823
0.137645
-0.28789
-0.158321
0.446211
-0.126819
0.256188
-0.538973
-0.487278
-0.132347
0.0201832
0.112164
0.0396487
-0.118209
-0.264079
-0.110254
0.374333
0.544852
-0.228943
0.104508
-0.309055
0.204548
0.147646
-0.0644011
0.047176
-0.280982
0.520752
-0.215521
-0.305231
-0.258944
0.393581
-0.134636
-0.0514835
0.0439142
0.117635
0.199829
0.249327
0.269344
-0.145141
0.493765
-0.162777
-0.0967868
0.259563
0.111572
-0.494499
0.410341
-0.401232
-0.00910847
0.0182527
0.245892
-0.264145
-0.35811
-0.0368481
0.394958
0.36975
0.11606
-0.189465
0.0273445
0.246986
-0.34717
0.069648
-0.225439
0.120072
0.252505
0.0128734
-0.318485
0.305612
0.555421
-0.183227
-0.0795889
0.257458
0.392268
-0.139089
-0.300033
-0.189089
0.489122
-0.52312
0.368237
0.154882
-0.406285
0.0571204
0.349165
0.0657173
0.24082
-0.151488
-0.0893322
0.160752
-0.288683
-0.230267
0.0371756
0.46614
-0.0877382
-0.139109
-0.196629
-0.234634
0.107303
0.12733
0.348181
-0.160011
-0.188169
0.580465
-0.344074
-0.236391
0.225397
0.355067
-0.508501
0.21287
0.0596565
0.0309321
0.312481
0.426227
-0.279632
-0.146595
0.155852
-0.22011
0.0642583
0.527297
-0.302228
-0.22507
0.327938
-0.130682
-0.197256
0.173657
0.0673581
-0.241015
-0.414298
0.275918
0.341669
-0.0115943
-0.330074
-0.284787
-0.268485
-0.188868
0.0700913
0.118777
0.094197
0.240261
-0.334458
-0.273345
-0.253107
-0.293709
0.444626
-0.150917
-0.218864
0.331692
-0.112828
0.468449
-0.0573596
-0.411089
-0.443963
0.0434096
0.400553
0.446208
-0.455683
0.00947512
-0.180044
0.150972
0.0290716
-0.250411
0.344608
-0.146661
0.170364
-0.505952
0.335588
0.144749
0.0960715
0.340981
0.133776
-0.474757
0.129038
-0.191669
-0.0604081
0.0800164
0.125181
0.296203
-0.421384
0.458864
-0.117195
-0.345154
-0.0611312
0.14463
0.0488118
-0.482422
0.12065
0.361772
-0.169789
-0.196791
-0.317554
0.0986901
0.262321
-0.249447
0.0592472
-0.102793
-0.00029678
-0.139169
0.139466
-0.121039
0.423213
-0.369752
-0.0534613
0.39674
-0.147419
-0.249321
0.218321
0.308976
0.432262
-0.318116
-0.114146
0.360096
-0.11311
0.177316
0.303692
-0.481009
0.136966
0.00423843
-0.141205
0.435144
-0.017357
0.35571
-0.234307
-0.498295
0.37145
0.126846
-0.139339
-0.316994
-0.417929
0.115368
0.302561
-0.0745024
0.334888
-0.307099
0.489545
0.00625665
0.131985
-0.138242
0.397426
0.0760079
0.294133
-0.429876
0.135744
-0.519418
0.375046
0.152577
0.244163
0.038388
-0.0269902
0.145106
0.0740659
-0.152538
0.309556
0.116671
-0.138604
-0.305359
0.194034
-0.408246
0.0782339
-0.194222
0.115988
0.0861577
0.149621
0.388969
-0.252625
0.0559384
-0.413574
-0.190668
0.368002
-0.0429232
-0.349054
0.131216
0.196722
-0.0231264
-0.0756885
-0.0593361
0.393973
-0.222165
-0.0953896
-0.222437
0.0933061
-0.13142
0.0381141
-0.119955
0.454414
0.169898
-0.33294
0.163042
0.363449
-0.232766
0.251018
0.18827
-0.00561333
0.431192
-0.13706
0.519654
-0.304214
-0.300495
0.442219
-0.141724
-0.0444754
-0.403062
-0.125905
0.0594252
0.0664799
0.124959
-0.0590154
-0.117518
-0.236671
-0.220289
-0.159847
-0.451476
0.49597
-0.0444943
-0.447466
0.22459
0.222876
0.218686
-0.0628334
0.453819
-0.488815
0.197781
-0.121864
0.129737
-0.0451377
-0.0591224
0.317398
-0.234226
-0.0831721
0.0227816
0.105878
-0.128659
0.312085
0.226041
-0.033652
0.387006
0.0526286
-0.190989
0.13836
0.13595
-0.45744
0.321489
-0.194901
-0.252565
0.18721
-0.112248
-0.0749622
0.13999
-0.436563
0.296574
0.26729
-0.401978
-0.298738
-0.0602281
0.358966
-0.353578
-0.0771558
0.437305
0.106265
0.184025
0.101133
0.0860769
0.0484095
-0.118859
0.0704492
0.154146
-0.235534
0.0813881
-0.331128
0.124243
0.206885
0.0164403
0.393287
-0.229158
0.0977373
0.131421
-0.12329
-0.196463
0.0428748
-0.405355
0.36248
-0.11674
-0.199741
0.253923
-0.0541815
-0.372663
0.246175
0.126488
-0.102301
0.0571628
0.0622507
-0.250551
0.1883
0.147991
0.313906
-0.252681
-0.108328
-0.0805399
-0.190436
0.0943132
0.0961226
-0.151291
0.157548
0.190411
0.142062
0.126954
0.229131
-0.36028
-0.122142
-0.0941228
-0.096313
0.0548759
-0.125334
0.0704583
0.108142
0.315071
-0.0892413
0.364644
-0.136669
-0.0512237
0.14453
0.180368
-0.259957
0.436097
-0.300147
0.125773
-0.173308
0.343206
-0.475058
0.457246
0.0178116
0.100506
-0.355091
0.254584
0.307002
-0.347349
0.0851459
-0.324986
0.23984
-0.121855
0.375617
-0.434954
-0.0714203
0.251788
0.305182
-0.32763
0.0993113
-0.0402016
0.238032
-0.220679
0.414713
-0.288926
-0.229825
-0.0840558
0.136721
-0.0526648
0.353735
-0.184131
-0.118166
-0.348443
0.351309
0.168345
0.475736
-0.00728724
0.186655
-0.134027
-0.307619
0.438655
0.00863796
-0.447293
0.141335
-0.118554
-0.216406
0.0667213
0.149685
-0.0586127
0.148303
0.251156
0.132297
-0.346849
-0.180141
-0.0738377
0.253978
0.0358393
0.0598543
-0.0956936
0.445477
-0.1261
0.0925657
0.224327
-0.316893
-0.0705642
0.340417
-0.269853
0.09904
0.254951
-0.353991
-0.368195
0.0358295
0.402825
-0.121558
0.0520419
-0.466169
0.138857
0.327312
-0.018667
-0.23793
-0.144091
0.143794
0.18729
-0.0920221
-0.0952682
-0.0314204
0.405249
-0.251452
-0.153797
0.164801
-0.0970781
-0.0677231
0.165373
-0.145385
-0.138814
-0.327355
-0.148584
0.209875
-0.0612917
0.303151
-0.148252
0.22819
-0.298754
0.243566
-0.181315
0.273034
-0.358549
-0.29393
-0.22919
-0.100362
0.349921
0.133972
0.0529353
0.129902
0.177147
0.26833
0.245607
0.159642
-0.387786
0.069178
0.177901
0.12525
-0.246901
-0.118132
-0.177281
0.295412
0.287579
-0.428832
0.141253
-0.0631352
0.390774
-0.139618
-0.22804
0.313186
-0.0361607
0.411778
0.165155
0.263458
-0.323686
-0.272959
0.0285895
0.24437
-0.359714
0.22552
0.134194
-0.458519
0.475607
-0.161828
-0.31378
-0.1578
-0.327051
-0.421211
0.130766
0.290445
-0.505553
0.198454
0.260064
-0.0406237
0.10028
-0.00116675
0.369723
-0.368556
0.321323
0.109191
-0.430514
-0.167413
-0.34965
0.113521
0.236129
0.311308
-0.232077
-0.0792306
0.00262306
-0.380891
0.378268
0.428521
-0.140943
0.0905716
-0.0547323
-0.218715
-0.0720829
0.24574
-0.381832
0.153773
0.301723
-0.258819
-0.0429038
0.132827
0.251798
0.403215
0.0390336
0.154085
0.190483
-0.411161
-0.434685
0.145658
0.289028
0.30566
0.146333
-0.451993
0.303057
0.350766
-0.249269
-0.101497
-0.448857
0.342641
0.243154
-0.089008
-0.313321
0.447749
-0.134428
0.121985
-0.240116
-0.0628165
0.111226
-0.264458
-0.226636
0.491093
0.392271
-0.146838
-0.245434
-0.0606104
-0.357841
0.418452
0.414579
-0.291345
-0.123234
0.167041
-0.226845
0.0598045
0.422623
-0.294201
0.227389
0.123377
0.399971
-0.282485
-0.117486
-0.457514
0.194501
0.263013
0.30501
0.23219
0.258327
-0.0986483
0.137367
0.0499228
0.25604
-0.330542
-0.141558
0.463397
-0.321839
0.260692
-0.395189
-0.240563
-0.21695
0.15257
-0.192662
0.0400916
0.437332
-0.0346624
0.250846
0.141425
0.306374
0.0906576
-0.397032
-0.178373
-0.0985396
0.276912
0.406296
-0.145604
0.445722
-0.140062
-0.212633
0.305199
-0.137157
0.0060377
0.0323503
-0.154548
-0.351404
-0.485252
0.392284
0.0472214
0.107341
0.226064
-0.333405
0.151628
-0.458838
0.30721
-0.453788
0.0287586
-0.321257
-0.136182
-0.199319
0.0626494
0.13667
0.00320784
-0.137181
0.133973
-0.21652
0.456798
-0.240278
-0.323112
-0.0941977
-0.204404
0.298602
-0.0472564
-0.0679822
-0.217089
0.334583
-0.0270658
0.0709792
-0.0439135
0.140916
0.286865
-0.427782
0.301964
-0.111553
-0.169353
0.0402242
0.0747441
-0.254885
-0.258889
0.152345
0.106543
-0.280296
-0.0859502
0.366246
-0.138277
0.126416
0.0406631
0.0800362
-0.120699
-0.287983
0.193772
-0.584484
0.138067
0.446417
0.269633
0.03209
0.175839
-0.154442
-0.349041
-0.0989442
0.447986
0.172796
0.305403
-0.140176
0.117554
0.221723
0.335736
-0.333113
-0.111675
0.315986
-0.204311
-0.0291312
0.415694
0.37823
0.0591014
-0.32399
0.21902
0.104971
-0.0291802
0.0943738
0.318831
-0.219791
0.183464
-0.0471534
-0.13631
0.0148579
-0.0126439
0.191361
-0.231563
-0.148816
0.0749192
0.0738964
0.33873
-0.0483343
0.394682
0.0683317
-0.250098
0.0535
0.196598
-0.0536661
0.233291
0.483612
-0.198985
-0.284627
0.118708
0.0261942
-0.144902
0.0291733
-0.152337
0.123163
-0.434705
0.146815
0.456581
-0.462105
0.170917
0.291187
-0.0202231
-0.00852412
0.0287472
0.307817
0.12828
0.144028
-0.370881
0.0218399
-0.124176
0.0593362
0.0648395
0.136824
0.287639
-0.424463
0.355055
-0.110097
-0.14218
-0.248558
0.390738
-0.249275
0.374791
-0.125516
-0.175809
-0.0780194
0.253828
-0.14976
-0.144794
0.294554
0.144321
-0.0256134
-0.313669
0.435642
-0.121973
0.187346
0.114618
0.219714
-0.34088
0.121167
-0.359168
0.45124
-0.0920727
-0.12663
-0.0400041
0.194539
-0.0707623
-0.113271
-0.421054
-0.0325587
0.453613
0.39524
-0.153255
0.0301309
-0.0571967
0.241418
0.0607146
-0.302133
0.326747
-0.135386
0.470511
-0.126292
0.167874
0.0886857
-0.256559
-0.110813
0.283044
-0.172231
-0.129228
-0.2454
0.437046
0.0770682
0.0582126
-0.135281
-0.0441105
-0.110283
0.154393
0.0193383
-0.440392
-0.0306996
0.175448
-0.114736
-0.288723
0.403459
-0.0140358
-0.345977
0.285367
-0.247229
-0.192822
-0.0738346
0.266657
0.215542
0.123187
-0.0896338
0.130218
-0.0587258
-0.426215
-0.0618659
0.488081
-0.0659998
-0.458773
-0.228363
-0.269241
-0.351348
-0.327156
-0.170926
0.144364
-0.393639
-0.0181513
-0.129991
0.148142
-0.0551586
0.207729
0.354979
0.0173021
-0.372281
-0.0688946
0.310313
-0.240376
0.295711
-0.00741099
-0.150134
0.0982565
-0.26084
0.162583
0.385042
0.0181737
-0.467706
0.48073
-0.0130239
-0.321017
0.368034
-0.0193777
-0.0418347
0.208875
-0.270658
0.204755
-0.467713
0.349547
-0.234729
-0.421033
0.104766
-0.409209
0.304442
0.123162
0.203585
-0.217979
0.109469
-0.153579
-0.0448739
-0.406602
-0.10904
-0.149971
0.235398
-0.0854276
-0.450633
0.301204
0.149429
-0.010535
0.292447
-0.281912
0.0605231
0.0696953
-0.374566
-0.387154
0.288705
-0.107013
-0.181692
0.188787
0.0999183
0.0944565
-0.215202
0.120745
-0.0300648
0.421733
-0.310477
0.399539
0.0747444
-0.474284
-0.146918
-0.303715
-0.443123
0.129454
0.490459
-0.192661
-0.297799
-0.318161
-0.180135
0.224041
-0.234576
-0.502019
0.320841
0.181178
-0.00553813
0.415879
0.111005
-0.212604
0.403087
-0.0466517
0.121692
-0.142333
-0.265319
0.407652
-0.346946
-0.237538
0.476066
-0.400856
-0.0752106
-0.0304988
-0.142831
0.17333
0.528565
-0.122892
-0.405673
0.368693
-0.105235
-0.0746905
0.115354
-0.155683
-0.0879339
0.243617
0.398803
-0.19435
-0.204452
-0.328323
-0.339223
0.497693
0.10173
0.426835
0.12216
0.259183
-0.381343
-0.18555
-0.284971
-0.317695
0.493561
-0.175866
0.135936
0.0546542
-0.0253711
-0.252247
-0.155264
-0.294696
-0.149482
0.41154
-0.475078
0.0635382
0.0812396
0.040562
-0.162029
0.121466
-0.0647505
-0.491755
0.227297
0.0558731
0.12759
-0.204174
0.0646072
-0.191001
0.126394
-0.348027
0.312029
0.0359979
-0.403016
0.147422
-0.118248
0.191605
-0.404209
0.293558
0.190054
0.111278
-0.458906
0.0120347
0.0452864
-0.057321
0.124454
-0.376419
0.251965
-0.296466
0.383651
0.0868593
-0.0217679
0.360625
-0.338857
0.42916
-0.178061
-0.251099
-0.40272
0.205894
0.351178
-0.226724
-0.153412
-0.0821218
0.199506
-0.311181
-0.113509
0.283897
-0.425455
0.0302658
0.135727
0.150003
0.370749
-0.104277
0.209805
-0.0519167
-0.157888
-0.00953774
0.114499
-0.285767
0.258318
0.0274485
0.0813982
0.149283
-0.230681
-0.204849
0.0577268
0.147122
0.205458
0.119823
-0.32528
0.199859
0.0703986
-0.270258
-0.165069
0.13457
0.0955503
-0.133383
0.143989
-0.387423
0.243434
-0.39803
0.164307
0.233723
-0.0600309
-0.120013
-0.421684
0.441022
-0.158759
-0.308954
0.166306
0.232497
0.249013
-0.137171
0.0693464
0.0678244
-0.368865
-0.0681043
-0.329069
0.220484
0.108585
0.0925126
0.169627
-0.262139
-0.17159
-0.110068
0.281659
-0.153764
0.378394
-0.22463
-0.339498
0.31773
-0.271423
0.401696
-0.130272
0.222547
-0.316744
0.0207223
-0.00980146
-0.0788857
0.246759
-0.0461168
0.0465989
-0.000482039
-0.0853038
0.193354
-0.10805
-0.00839904
0.32723
0.249728
0.110368
0.499937
-0.217685
-0.282252
-0.297139
0.202495
0.0946441
-0.214465
0.40607
-0.29808
0.468998
0.306087
0.139635
-0.218982
-0.277883
0.478624
-0.300448
0.170465
0.0393403
-0.17642
-0.206778
-0.0867503
0.169016
-0.0822657
0.215711
0.0955971
-0.0710677
0.0904178
-0.0193501
0.306623
-0.101166
0.133011
-0.394429
0.261418
-0.286003
-0.326432
0.368861
-0.042429
0.0962689
0.190405
-0.286674
0.126013
0.254687
0.154606
-0.0182144
-0.136392
0.117675
-0.296047
-0.484253
-0.0195593
0.503812
0.311761
-0.0988243
-0.212937
-0.371634
0.21787
-0.218542
-0.253762
0.472304
-0.464445
0.245903
-0.164047
0.248301
-0.0842547
-0.0194826
-0.253408
0.133899
0.295261
-0.327876
0.22361
0.104265
0.428831
-0.283173
-0.274162
0.0594808
-0.11805
0.0622182
-0.217901
-0.434273
0.30044
0.133833
-0.0381339
0.126855
-0.0887216
0.00455384
0.0161684
0.147537
-0.165689
-0.270407
0.395589
0.133556
-0.180086
0.169897
-0.250091
0.222753
-0.0766322
-0.146121
-0.0541287
-0.158426
0.212555
-0.228244
-0.169787
-0.138128
-0.261729
0.105509
0.206251
0.324567
-0.413628
0.0890611
-0.137036
-0.0631174
0.436306
-0.0878509
-0.0729536
-0.121269
-0.158623
0.251135
-0.203742
0.208041
0.106093
-0.314134
0.0718181
0.150935
-0.288485
-0.150663
0.439148
-0.10144
-0.319771
-0.122018
0.0565787
0.065439
-0.105202
0.407683
-0.302481
-0.152567
0.0803075
0.0722597
-0.194324
-0.102814
-0.401547
0.183579
-0.114558
-0.069021
-0.122881
0.441491
0.306405
0.190245
0.124819
-0.34134
0.00785838
-0.0280814
-0.391715
0.215295
-0.131541
-0.441737
0.378269
-0.234279
-0.104239
0.21409
-0.109851
0.484245
-0.31145
-0.169683
0.0592425
0.110441
-0.106311
0.412685
-0.47481
0.157115
-0.485727
0.310249
0.175478
0.137067
-0.167766
-0.130708
0.38515
0.0778106
-0.23799
-0.11166
0.039209
-0.146946
-0.532136
0.231129
0.301007
0.233822
0.121233
-0.509828
0.203903
0.305925
-0.0733769
0.146238
-0.173071
0.129048
0.0440224
-0.187839
-0.300977
-0.074564
-0.0992075
0.318227
-0.0848992
0.254796
-0.423064
-0.300972
0.136062
-0.384611
0.248549
0.13305
-0.404473
0.00126088
0.013597
0.000653397
-0.200057
0.0911532
-0.329817
-0.202319
0.165858
0.265613
-0.0240394
-0.349413
-0.311236
0.425483
-0.114247
-0.17549
-0.334338
0.193709
-0.188963
-0.00474621
-0.156384
0.131452
0.0249318
-0.168765
0.144139
0.0246253
0.100226
0.201509
-0.301735
-0.385412
0.112186
0.273226
0.343638
-0.505309
0.16167
0.0131569
-0.141455
0.128298
0.376507
0.00714407
0.122653
-0.199456
0.0768024
-0.313306
0.315734
0.301657
-0.169763
-0.131893
-0.501771
0.358474
0.143297
-0.242933
0.171269
-0.210662
0.0393929
-0.0983801
0.380982
-0.282602
-0.235348
0.208307
-0.488602
-0.176122
0.434142
-0.25802
0.0414134
0.354698
-0.396112
0.503172
-0.294889
-0.208282
0.0156722
-0.156967
0.141294
-0.105329
-0.298981
0.12788
0.171101
-0.144057
-0.291089
0.435146
-0.451748
0.0572054
-0.0519377
-0.00526777
0.0699606
-0.192884
0.122923
0.0737651
-0.464763
-0.107077
-0.0626061
-0.0726465
0.0302539
-0.34356
0.447373
-0.122806
-0.316094
0.452202
-0.136108
0.0646419
0.166122
-0.230764
0.426207
-0.138777
-0.287429
-0.379259
0.14075
0.238509
-0.0622517
-0.0624953
-0.090072
-0.456096
0.153315
0.302781
-0.350385
0.134843
0.215542
-0.191714
-0.550499
0.227524
0.322975
0.11303
0.219637
-0.332666
0.109848
0.0737309
0.124424
-0.327436
0.203012
-0.0345
0.102825
-0.387738
0.284913
-0.137119
-0.30551
0.442629
-0.0626815
-0.0158484
-0.127881
0.143729
-0.238446
-0.312053
0.390903
-0.288078
-0.300093
0.0956894
0.155571
-0.437456
0.0933292
0.344127
0.237161
-0.156243
-0.080918
0.482067
-0.241033
-0.241034
0.158532
0.16707
0.275149
-0.191021
-0.100327
0.291348
-0.156896
-0.327357
-0.0205413
0.157507
-0.257638
0.160852
-0.132495
0.303688
0.368604
-0.232542
-0.279452
-0.231239
0.064761
-0.290475
-0.139401
0.286066
0.145127
-0.558314
0.239685
0.318628
0.0876144
0.203364
-0.290978
0.438392
-0.0404784
-0.141409
0.390071
-0.248662
0.149241
-0.20337
0.0713283
0.171826
0.433587
-0.29653
-0.137057
0.329697
0.35168
-0.493335
0.141655
0.305118
0.121089
0.138047
-0.103588
-0.349922
0.45351
0.138885
-0.34475
0.205865
-0.200959
0.481537
-0.280578
0.167117
0.0926339
0.158246
-0.148451
-0.00979513
-0.327185
0.391102
0.0709149
0.045847
-0.186765
0.140918
-0.274569
0.26617
-0.119011
0.368738
0.0629243
0.413142
-0.276389
0.138485
0.137904
0.409943
-0.123878
-0.171193
0.421904
-0.25071
0.135872
-0.179004
0.0431323
-0.554597
0.232426
0.322171
-0.186515
0.0903759
0.0961387
-0.329605
0.474052
-0.144448
-0.313906
0.163417
0.150489
0.132512
-0.0719884
-0.412444
0.297708
-0.0321155
-0.136649
0.403336
-0.462495
0.0591585
0.0249735
0.218593
-0.120726
-0.209814
0.330539
0.0720683
0.0367705
-0.126239
0.179763