/*--------------------------------*- C++ -*----------------------------------*\
| =========                 |                                                 |
| \\      /  F ield         | OpenFOAM: The Open Source CFD Toolbox           |
|  \\    /   O peration     | Version:  v2012                                 |
|   \\  /    A nd           | Website:  www.openfoam.com                      |
|    \\/     M anipulation  |                                                 |
\*---------------------------------------------------------------------------*/
FoamFile
{
    version     2.0;
    format      ascii;
    class       surfaceScalarField;
    location    "150";
    object      phi_0;
}
// * * * * * * * * * * * * * * * * * * * * * * * * * * * * * * * * * * * * * //

dimensions      [0 3 -1 0 0 0 0];
oriented        oriented;


internalField   nonuniform List<scalar> 
26997
(
0.405644
-0.238635
-0.167009
-0.3223
0.154956
0.167344
-0.172553
0.0567522
0.115801
0.159693
-0.140128
-0.019565
-0.184315
0.322138
-0.137823
0.0678279
0.0659274
-0.133755
0.298098
0.0553348
-0.353433
-0.354434
-0.0306093
0.385043
0.247133
-0.150765
-0.0963678
0.153088
0.252556
-0.0857475
-0.236552
0.164452
-0.0694397
-0.0950124
0.00959996
0.121524
-0.131124
-0.207566
0.190558
0.0170081
-0.188005
0.175152
0.0128533
0.207796
-0.340785
0.132988
0.0288716
-0.0172275
-0.0116441
-0.405741
0.538303
-0.132561
-0.0818798
0.190778
-0.108899
0.238957
0.139797
-0.378754
-0.0456121
0.194444
-0.148832
0.551715
-0.551715
-0.106548
-0.0767087
0.183256
-0.0926172
-0.127264
0.219881
-0.595653
0.349395
0.246258
-0.176638
-0.2955
0.472138
-0.326914
-0.02752
0.248806
-0.380073
0.131267
0.301218
-0.12793
-0.173287
0.41944
-0.319926
-0.099514
-0.191566
-0.292333
0.118325
0.372003
-0.490328
0.374432
-0.229402
-0.14503
-0.373624
-0.222029
0.430917
-0.153661
-0.277255
-0.355357
0.16667
0.188688
0.121075
-0.427908
0.306833
0.527575
-0.21727
-0.310304
0.386262
-0.278873
-0.107389
0.0213963
0.143056
0.117864
0.129269
-0.231488
0.107672
0.123816
0.326963
-0.499402
0.172439
0.11364
-0.195519
-0.407956
0.24917
0.158787
0.277385
-0.447537
0.170152
0.033207
0.386562
-0.419769
0.26864
-0.2448
-0.02384
0.486042
-0.496866
0.0108241
-0.196994
0.435951
-0.296895
0.441982
-0.145088
0.0108249
0.0180467
0.033463
0.452579
0.236811
-0.382529
0.145718
0.464253
-0.186868
-0.237544
0.383346
-0.145802
0.314742
-0.424403
0.109661
-0.0517992
0.417786
-0.365987
0.270488
0.160429
-0.420673
0.183128
-0.479056
0.363593
0.115463
0.318224
-0.496864
0.17864
0.378401
-0.526451
0.14805
0.169523
0.124208
-0.293731
0.34906
-0.51875
0.169689
-0.153028
0.462016
-0.308988
-0.268041
0.462863
-0.194821
0.317466
-0.10967
-0.0981207
0.112288
-0.0141668
0.471498
-0.134771
-0.336727
0.16149
-0.15189
0.104996
0.0546977
-0.345532
0.264918
0.0806137
-0.0114065
-0.139359
0.360822
0.110676
-0.407586
0.177236
0.23035
0.0548235
0.0883218
-0.143145
0.186893
-0.0413693
-0.145524
0.144532
-0.0591698
-0.0853625
-0.285025
-0.0711435
0.356168
-0.214753
0.169141
0.447745
-0.328003
-0.119742
0.115014
-0.299329
0.56203
-0.219494
-0.342536
-0.489482
0.432838
0.056644
-0.1727
-0.306356
0.146387
-0.447736
0.301349
0.325612
-0.156089
-0.390409
0.388538
0.00187077
0.158504
-0.103681
0.305908
0.256121
-0.388196
0.481378
-0.0931814
-0.0967689
-0.388709
-0.00169988
-0.1627
0.151293
-0.0971176
-0.1578
0.254918
0.0536575
-0.12143
0.0677729
-0.324744
0.272944
-0.133144
0.176039
-0.0428953
-0.0564287
0.0151121
0.0413166
0.248261
-0.37923
0.130969
0.306057
-0.473368
0.167311
0.301224
0.118215
0.412691
-0.163886
-0.517499
0.241146
0.276353
0.380795
-0.0660529
-0.519538
0.405345
0.114193
0.509163
-0.228059
-0.281104
-0.330251
-0.148543
0.478794
-0.324775
0.14443
0.180345
-0.00212922
-0.0313658
0.0334951
-0.364613
0.197133
0.16748
-0.0193567
-0.0984519
0.000331187
-0.119832
-0.0552434
0.175075
0.28406
0.128631
0.129163
0.0577306
-0.0464871
0.206051
-0.159564
-0.214573
0.121956
0.611142
-0.30291
-0.308232
0.337742
-0.229655
-0.108087
0.294922
0.316219
0.171783
-0.21827
0.516825
-0.380785
-0.13604
0.0605091
0.310295
-0.370804
-0.0662597
0.188263
-0.122003
-0.200935
0.134676
-0.363267
0.518683
-0.155416
0.38843
-0.365667
-0.0227621
-0.198004
0.333263
-0.135259
0.409309
-0.111211
-0.377794
0.169604
0.20819
-0.453077
0.334722
0.118356
0.423782
-0.175521
0.157288
0.217145
0.412499
-0.128438
0.372576
-0.134688
-0.237888
0.0784546
0.0660777
0.452221
-0.0637916
-0.583201
0.315777
0.267423
-0.400799
0.2144
0.186399
0.186567
0.151175
-0.208049
0.0896902
0.118359
0.402879
-0.256326
-0.146553
-0.282785
-0.196825
0.47961
-0.137469
0.211653
0.191226
0.429525
-0.30845
-0.464002
0.178178
0.285824
-0.0125276
0.170532
-0.433847
0.263316
0.219171
-0.0799468
-0.139224
-0.27645
-0.306751
-0.0604583
0.0181037
0.0423546
-0.130146
0.0794607
0.0506857
-0.291031
-0.17297
0.26667
-0.381346
0.114676
0.240426
-0.366586
0.12616
-0.0988463
-0.0313001
0.114375
-0.234207
-0.397227
0.275401
0.121826
0.479211
-0.357755
-0.121455
-0.00753703
0.0457283
-0.0381912
0.442249
-0.115286
-0.1337
-0.244094
-0.168593
0.440103
-0.27151
0.297793
-0.233828
-0.0639641
0.281506
-0.312116
-0.0714999
0.027763
0.0437369
0.383446
-0.116776
-0.467981
0.185624
0.282357
-0.456518
0.410371
0.0461462
0.250415
-0.424091
0.173676
-0.0622914
-0.107999
0.170291
-0.48485
0.46296
0.0218901
0.267369
-0.408021
0.140651
-0.511905
0.339205
0.488695
-0.396171
-0.0925243
0.125762
0.257585
0.244772
-0.2176
-0.0271716
0.45285
0.0639755
-0.0378067
-0.35039
0.334595
0.1541
0.120965
0.01699
-0.137955
-0.262901
0.103106
0.159795
-0.133783
0.397913
-0.26413
-0.348851
0.117492
0.231359
-0.0667798
-0.154779
0.221559
-0.179561
-0.0801872
0.259749
-0.471842
0.527739
-0.0558967
0.311912
-0.0714857
-0.129841
-0.13306
0.158895
-0.0379295
0.434644
0.0106051
-0.44525
0.19166
0.28755
-0.0344779
0.0947037
-0.0602259
-0.10431
0.0698321
0.104355
0.242021
-0.346376
-0.257554
-0.143245
-0.421244
0.153203
0.423458
-0.294376
-0.129082
0.0150198
-0.148163
-0.0428822
-0.0286177
0.150984
-0.206227
-0.43772
0.199361
0.23836
0.170768
-0.105371
-0.0653977
-0.353814
0.166324
0.187489
-0.0201416
-0.119987
0.0375469
-0.115279
0.077732
-0.0821651
-0.334417
0.416582
0.380699
-0.130284
0.0983862
0.0723822
-0.0678237
-0.440997
0.358832
-0.162111
0.00375962
0.158352
0.404709
-0.190309
0.253626
0.0150141
0.339276
-0.102466
0.217153
0.0947589
0.404958
-0.197944
-0.207014
0.328263
0.119481
0.295068
-0.537887
0.242819
0.200162
-0.046506
-0.153656
-0.456352
0.408756
0.0475962
0.383014
0.0516302
0.451564
-0.239911
0.383755
-0.065531
-0.384867
0.200779
0.184088
-0.394016
0.537205
-0.143189
-0.459516
-0.00267565
0.462192
0.440633
-0.416024
-0.0246089
-0.636529
0.379775
0.256755
0.298089
-0.474727
-0.274332
-0.362197
-0.0530488
0.0143351
0.0387138
0.518872
-0.223804
0.244705
0.274167
0.33637
-0.471543
0.135173
0.170937
-0.45084
0.279903
0.110779
0.019967
-0.130746
-0.360983
0.207955
-0.152955
-0.0546107
0.392716
0.0479163
0.158241
0.293323
-0.431727
-0.0246253
-0.604569
0.284491
0.320078
0.0898735
-0.184006
0.0941328
-0.309647
0.0137331
-0.298758
-0.0746854
0.142513
-0.295001
-0.242886
0.181406
0.223552
0.42871
-0.254507
-0.174202
0.0357373
0.126562
-0.162299
-0.167247
-0.507867
0.347123
0.160745
0.20705
0.197659
-0.193554
0.339425
-0.145871
0.170896
0.257814
0.159676
-0.256793
0.257981
-0.157544
-0.100437
0.120755
0.137226
-0.237029
0.170249
0.344219
-0.54235
0.198131
-0.309249
-0.198618
-0.0659221
-0.214655
0.280577
0.221284
-0.138838
-0.0824456
0.39129
-0.109784
-0.381672
0.247889
0.455493
-0.200934
-0.254559
0.432772
-0.401286
-0.0314854
-0.217132
-0.220589
0.225646
0.0721466
-0.343774
0.462099
0.440287
-0.351058
-0.0892284
-0.286381
0.453041
-0.16666
0.0911607
-0.388055
-0.322327
-0.167154
-0.163628
0.318585
0.137431
-0.0837734
0.278799
0.13051
0.429803
-0.283416
0.125262
0.00789103
-0.133153
-0.221312
0.127608
-0.451845
0.088578
-0.135223
0.0646654
0.0705578
-0.0958435
0.131581
-0.392679
0.462384
-0.0697055
0.20372
0.0634134
-0.267134
0.182444
-0.512695
-0.338677
0.478206
-0.139529
-0.192608
-0.162749
0.0213893
-0.222153
0.200763
-0.615964
0.313055
0.416372
0.135343
0.466163
-0.391817
-0.0743457
-0.266161
-0.372529
-0.243435
0.0608123
0.160471
0.0832315
-0.197182
0.11395
0.20655
-0.335675
0.129125
-0.115623
0.0751274
0.0404957
0.266737
0.119525
0.355158
-0.36055
0.00539268
0.318655
0.121632
-0.194113
0.0277243
0.166389
0.408576
-0.198198
-0.210378
-0.164271
0.470328
-0.0942154
0.297936
-0.0636131
-0.232216
0.29583
0.319376
-0.258867
0.0462602
-0.238899
0.192639
-0.269306
0.384622
-0.115316
0.403574
-0.124775
0.473434
0.00554056
-0.478975
-0.469693
0.21544
0.254252
0.166462
-0.0680762
-0.0557625
0.106805
0.325966
0.124081
-0.166434
0.0423531
0.275333
-0.149613
-0.125721
-0.0326953
0.145492
0.313661
0.150592
-0.269574
-0.200118
-0.30097
0.237357
-0.0344719
-0.138081
-0.445366
0.235401
0.209965
-0.0496363
-0.0656426
-0.332761
-0.186777
0.360149
-0.508701
0.148553
-0.419533
0.419623
-9.05956e-05
-0.40588
0.196062
0.209818
-0.0118784
0.13714
0.136343
-0.3916
0.255257
-0.123009
0.0733729
-0.24766
0.0998221
0.147838
0.20785
-0.366112
0.158262
0.213449
-0.376891
0.163442
0.356058
-0.149508
0.192601
-0.146341
0.0857422
0.0807201
-0.13507
0.0760312
-0.201519
0.125488
-0.193676
-0.131099
-0.140704
0.071606
0.069098
-0.207695
0.297268
-0.0895732
-0.318608
-0.107417
0.426025
-0.303311
-0.214189
0.314694
-0.0890477
0.440812
-0.498082
0.0572696
0.153217
-0.0424378
0.0863638
-0.247587
0.161223
-0.17833
0.129052
0.0492781
0.070121
-0.176669
-0.226331
-0.173496
-0.450917
0.258746
0.192171
-0.0329784
-0.161135
-0.163508
-0.254279
0.417787
0.244956
-0.383196
0.13824
-0.000690823
0.380465
-0.124904
-0.258479
0.362833
-0.37322
-0.15888
0.472541
-0.049653
-0.346884
0.396537
-0.270649
-0.110486
0.381134
0.177887
-0.273693
0.0958058
0.446502
-0.0929683
-0.353534
-0.460321
0.260388
0.199933
-0.161622
-0.223245
-0.0269068
-0.0558097
0.0827164
0.392109
-0.17866
0.435824
-0.0994543
0.0222203
-0.427962
0.437954
-0.318882
-0.119072
-0.0507599
0.0935228
-0.376428
0.488849
-0.112422
0.248861
0.0978942
-0.346755
0.147248
-0.00704048
-0.140207
-0.371651
0.349022
0.0226287
-0.554558
0.17813
0.308809
-0.136242
-0.172566
-0.212025
0.0777364
0.134288
0.11829
0.0289573
0.00371877
0.190726
-0.0622493
0.351276
0.137573
-0.206696
0.179881
0.0268145
0.0416663
-0.182635
0.140968
0.0363552
-0.206567
0.170212
-0.510265
0.159032
0.351233
-0.0786119
0.153955
-0.0753427
-0.395992
0.466309
-0.0703172
0.473914
-0.355739
-0.118175
-0.329539
0.279886
-0.164159
0.0393448
0.124814
0.348624
0.12529
-0.349358
0.503124
-0.153766
-0.19883
-0.114688
0.427594
-0.312907
-0.131646
0.168001
-0.436772
0.456138
-0.0193657
9.42275e-07
-0.471843
-0.186474
-0.159057
-0.466765
0.392144
0.0746209
0.305756
-0.420443
0.220688
0.317615
0.486045
-0.144372
-0.341674
0.488689
-0.273238
-0.215451
0.0327254
0.408087
-0.382474
0.415937
0.0195958
0.0652491
-0.0848449
0.102292
-0.260093
0.121404
0.263957
-0.385361
0.128422
-0.437188
0.308766
-0.238234
0.0586722
0.0366631
-0.456196
0.0978873
-0.480362
0.45822
-0.229816
-0.228404
0.214104
0.244115
0.465453
-0.311897
-0.153556
-0.486767
0.0907757
0.266703
0.0305645
0.314371
-0.505937
-0.545511
0.253178
0.347195
0.0229701
-0.370165
0.0699026
0.15107
-0.220973
0.41164
0.0360158
-0.447656
-0.0234554
0.378613
0.19432
0.294369
-0.425029
0.49665
-0.0716205
-0.397654
0.19971
-0.393302
0.122653
0.1675
-0.0442726
-0.123227
0.166363
-0.170295
0.00393194
-0.0935428
0.338081
-0.244538
0.0113236
-0.0458131
0.0344895
0.168706
-0.111953
0.0457667
0.122629
-0.168396
-0.132931
0.178698
-0.100184
-0.228319
0.328503
-0.209201
-0.25878
0.165728
-0.041647
-0.17446
-0.0844816
-0.127543
-0.456373
0.0623566
-0.055017
0.402212
-0.22949
-0.119361
0.341184
-0.0923227
0.36811
0.0435297
-0.357635
0.463311
-0.105675
0.286345
-0.203879
-0.0824659
-0.310799
0.461931
-0.151132
-0.262207
-0.150158
0.412365
-0.26864
-0.129014
-0.282401
-0.177919
0.402669
0.0634937
-0.497604
0.194583
0.303021
0.463013
-0.132236
-0.330778
0.11407
-0.148635
-0.0393699
0.127156
0.0726685
0.163675
-0.236344
-0.252655
-0.118149
0.340448
-0.389704
0.049256
0.0388376
-0.275764
0.236927
-0.470513
0.349797
0.120716
0.0643251
-0.307522
0.243197
0.290302
-0.132246
-0.158057
-0.207802
-0.304102
0.170171
-0.0802977
-0.313677
0.319308
0.146145
0.293484
-0.470671
0.177187
0.214919
-0.378427
0.33221
-0.179636
-0.152575
0.339796
-0.211835
-0.12796
-0.106221
-0.301772
0.407993
0.0197814
0.361013
0.263654
0.144922
-0.133468
-0.274118
-0.257265
0.427797
0.134628
0.0328724
-0.138381
-0.293231
0.431612
0.30377
-0.139099
-0.164671
-0.43564
-0.00847352
0.444113
-0.0360544
-0.356624
0.0810795
-0.348395
0.267315
0.353354
-0.376809
0.231315
-0.14199
-0.0893243
-0.553016
0.258015
0.197865
0.141931
-0.367553
0.134192
0.233361
0.199348
-0.185867
-0.0134818
0.443171
-0.253184
-0.189987
0.249557
-0.368681
0.119124
-0.149772
-0.0582777
0.131051
-0.34797
0.216919
-0.155788
0.231208
-0.0754199
-0.115443
-0.236036
0.406973
-0.195312
-0.0392663
0.234578
0.343624
-0.262545
-0.437382
0.151001
-0.404629
0.225677
-0.186468
-0.100952
0.450012
0.00761068
-0.444383
-0.135398
-0.416318
-0.129003
-0.0374129
0.166416
-0.128456
0.0628113
0.0656443
-0.345722
0.252179
0.115133
-0.187904
0.144243
0.0436603
-0.333151
0.139597
-0.098859
0.316012
0.171058
0.15108
-0.258757
0.0791745
0.15214
-0.0349451
-0.347637
-0.104208
0.290395
-0.159344
-0.249792
0.314118
0.389105
0.13847
0.383333
0.12583
-0.0166443
-0.147515
-0.278296
-0.04808
0.326376
-0.00940333
0.175766
-0.0222664
-0.184429
-0.455644
0.325038
0.130607
-0.145111
-0.042793
0.168641
-0.385911
-0.0403466
-0.385905
0.426251
-0.338712
0.0604159
-0.340075
0.1549
0.185174
0.287202
0.152902
0.0729018
0.0631085
-0.13601
-0.16577
0.431434
-0.265664
-0.0637902
0.136387
-0.331699
0.0508591
0.148489
0.413914
-0.12043
-0.131539
0.482815
0.217056
-0.171543
-0.0455136
-0.214208
0.429127
0.0492683
0.125884
0.253177
-0.390817
0.137641
-0.287889
-0.158321
0.44621
-0.126905
0.256188
-0.538972
-0.487278
-0.132368
0.020236
0.112132
0.0396004
-0.118212
-0.264079
-0.110253
0.374333
0.5446
-0.228823
0.104507
-0.309054
0.204548
0.147626
-0.0643943
0.0472932
-0.281122
0.520752
-0.215521
-0.305231
-0.258944
0.39358
-0.134636
-0.0516067
0.0440696
0.117635
0.199831
0.249355
0.269328
-0.145141
0.493765
-0.162774
-0.096787
0.259561
0.111561
-0.494499
0.410531
-0.401124
-0.0094074
0.0182525
0.245892
-0.264144
-0.358527
-0.0364132
0.39494
0.369795
0.116251
-0.189464
0.0273526
0.246986
-0.347169
0.0696496
-0.225438
0.120069
0.252506
0.0128697
-0.318487
0.305617
0.555404
-0.183401
-0.079587
0.257474
0.392263
-0.139086
-0.300079
-0.18909
0.489169
-0.52312
0.368237
0.154882
-0.406284
0.0571201
0.349164
0.0657173
0.240868
-0.151423
-0.0894447
0.16075
-0.288681
-0.230533
0.0358547
0.466139
-0.0877382
-0.139009
-0.196666
-0.234606
0.107269
0.127337
0.34818
-0.160012
-0.188168
0.580464
-0.344073
-0.23639
0.225397
0.355067
-0.508281
0.212781
0.0596667
0.0309483
0.312147
0.426227
-0.279632
-0.146595
0.15587
-0.220105
0.0642357
0.527296
-0.302227
-0.225069
0.327937
-0.130681
-0.197256
0.173725
0.0673556
-0.241081
-0.414298
0.275918
0.34163
-0.0116053
-0.330024
-0.284644
-0.268371
-0.188761
0.0700283
0.118733
0.0941879
0.240268
-0.334456
-0.273344
-0.253107
-0.293711
0.444581
-0.15087
-0.21886
0.331692
-0.112832
0.468448
-0.0573596
-0.411089
-0.443968
0.0434087
0.40056
0.446207
-0.455683
0.00947516
-0.180033
0.150944
0.0290895
-0.250416
0.344604
-0.146646
0.170254
-0.506196
0.335942
0.144685
0.096183
0.34098
0.133776
-0.474757
0.129169
-0.191461
-0.0604435
0.0800393
0.125181
0.296202
-0.421383
0.458791
-0.117162
-0.345153
-0.0611308
0.14463
0.0490548
-0.482383
0.120635
0.361748
-0.16979
-0.196796
-0.317555
0.0986954
0.262323
-0.249453
0.0588851
-0.103382
-0.000213257
-0.139174
0.139387
-0.121034
0.423211
-0.369746
-0.0534641
0.396736
-0.1474
-0.249336
0.218321
0.308976
0.432362
-0.318263
-0.1141
0.360095
-0.113109
0.177316
0.303692
-0.481008
0.136877
0.00432841
-0.141205
0.435143
-0.0173571
0.35571
-0.234306
-0.498295
0.37145
0.126845
-0.138755
-0.317763
-0.417902
0.115359
0.302543
-0.0745003
0.334888
-0.3071
0.489545
0.00628569
0.13193
-0.138215
0.397426
0.0760079
0.294132
-0.429875
0.135743
-0.519701
0.37533
0.15256
0.244175
0.0383746
-0.027051
0.145103
0.0740676
-0.152536
0.309556
0.116671
-0.138604
-0.305364
0.194034
-0.408243
0.0782352
-0.194218
0.115983
0.0861592
0.149618
0.388968
-0.252625
0.0559384
-0.413574
-0.190714
0.36795
-0.0429232
-0.349447
0.131215
0.196721
-0.023147
-0.0756993
-0.0592664
0.393988
-0.222161
-0.0953942
-0.22244
0.0931899
-0.131431
0.0382409
-0.119848
0.454443
0.169843
-0.33331
0.163468
0.363418
-0.232765
0.251018
0.188267
-0.00560813
0.431192
-0.137059
0.519654
-0.304214
-0.300494
0.442219
-0.141725
-0.0444753
-0.403062
-0.125945
0.0594698
0.0664755
0.124964
-0.0590364
-0.117518
-0.236812
-0.220783
-0.15929
-0.451496
0.495809
-0.0443126
-0.447465
0.224589
0.222876
0.218681
-0.0628108
0.453818
-0.488815
0.197783
-0.121859
0.12975
-0.0451535
-0.0591564
0.318072
-0.234108
-0.0839636
0.0227617
0.105881
-0.128643
0.312211
0.22604
-0.0336514
0.387005
0.0525444
-0.190966
0.138421
0.136054
-0.45757
0.321515
-0.1949
-0.252564
0.186837
-0.111986
-0.0748516
0.139977
-0.436556
0.296579
0.267289
-0.401977
-0.298756
-0.0602098
0.358966
-0.353577
-0.0771558
0.437304
0.106259
0.184043
0.100992
0.0858454
0.0484776
-0.118909
0.0704315
0.154285
-0.235615
0.0813301
-0.331124
0.124171
0.206953
0.0169214
0.39345
-0.229128
0.0976989
0.13143
-0.123284
-0.196463
0.0428749
-0.405354
0.362479
-0.116741
-0.199988
0.254171
-0.0541833
-0.372662
0.246173
0.126488
-0.102343
0.0571899
0.0622667
-0.250578
0.188311
0.148014
0.313917
-0.25268
-0.108267
-0.0804942
-0.190422
0.0943183
0.096104
-0.151244
0.157529
0.190098
0.142113
0.126865
0.229193
-0.360236
-0.122147
-0.094106
-0.0963163
0.0549076
-0.125358
0.0704505
0.108144
0.315067
-0.0892393
0.36464
-0.136665
-0.0513346
0.144524
0.180383
-0.25997
0.436296
-0.300242
0.125436
-0.173562
0.343404
-0.475058
0.457246
0.0178116
0.100502
-0.355091
0.254589
0.307002
-0.347348
0.0851462
-0.324985
0.239839
-0.12186
0.375699
-0.434966
-0.0714181
0.251801
0.30518
-0.32763
0.0993107
-0.0401752
0.23804
-0.220676
0.414711
-0.288925
-0.229825
-0.0840872
0.137005
-0.0529182
0.353734
-0.18413
-0.117782
-0.348983
0.351309
0.168345
0.475736
-0.00728718
0.186622
-0.134077
-0.30763
0.438654
0.00863798
-0.447292
0.141316
-0.118554
-0.216298
0.0666483
0.149649
-0.0586108
0.148301
0.251148
0.132298
-0.346836
-0.180153
-0.0738467
0.253999
0.0358854
0.0598926
-0.0957779
0.445476
-0.1261
0.0925656
0.224326
-0.316892
-0.0705649
0.340417
-0.269852
0.0990391
0.254951
-0.353991
-0.368194
0.0358294
0.402825
-0.121495
0.0520557
-0.466434
0.139528
0.326906
-0.0183245
-0.238002
-0.144018
0.143805
0.187184
-0.0919857
-0.095198
-0.031478
0.405265
-0.25143
-0.153835
0.164769
-0.0971442
-0.0676244
0.1653
-0.145333
-0.139273
-0.327161
-0.148578
0.209872
-0.0612937
0.303154
-0.148253
0.228189
-0.298754
0.243595
-0.181328
0.273744
-0.358546
-0.29393
-0.229189
-0.100363
0.34992
0.13398
0.0529795
0.129902
0.177147
0.268329
0.245588
0.159677
-0.387786
0.0691777
0.177902
0.125252
-0.2469
-0.118131
-0.177281
0.295412
0.287578
-0.428831
0.141253
-0.0631341
0.390768
-0.13962
-0.228039
0.313186
-0.0361069
0.411806
0.165081
0.263469
-0.323679
-0.273601
0.0293374
0.244264
-0.359713
0.225519
0.134193
-0.458525
0.475607
-0.161828
-0.313779
-0.157799
-0.327051
-0.42135
0.131458
0.289892
-0.505553
0.198453
0.259956
-0.0406426
0.100309
-0.00116675
0.369723
-0.368556
0.321323
0.10919
-0.430513
-0.167434
-0.349651
0.113514
0.236137
0.311305
-0.232062
-0.0792427
0.00262304
-0.380891
0.378268
0.428521
-0.140942
0.0906626
-0.0547772
-0.218716
-0.0720978
0.245823
-0.381832
0.153772
0.301648
-0.258728
-0.0429203
0.132825
0.251796
0.403215
0.0390336
0.154099
0.190483
-0.411159
-0.434682
0.145645
0.289037
0.30566
0.146333
-0.451993
0.303056
0.350752
-0.249262
-0.10149
-0.448865
0.342644
0.243237
-0.088952
-0.313486
0.447732
-0.134246
0.121985
-0.240115
-0.0628031
0.111281
-0.264479
-0.226639
0.491118
0.392284
-0.146846
-0.245438
-0.0606104
-0.357841
0.418451
0.414422
-0.291182
-0.12324
0.167067
-0.22685
0.0597823
0.422623
-0.294201
0.227383
0.123369
0.400042
-0.2825
-0.117542
-0.457513
0.1945
0.263012
0.305003
0.232201
0.258324
-0.0986486
0.137258
0.0499253
0.256043
-0.330544
-0.141723
0.463625
-0.321903
0.260055
-0.395187
-0.240563
-0.21695
0.152565
-0.192659
0.0400939
0.437331
-0.0346624
0.25085
0.141433
0.306866
0.0901402
-0.397006
-0.178371
-0.09854
0.276911
0.406416
-0.146361
0.445722
-0.140062
-0.212633
0.305198
-0.137123
0.00594613
0.0324285
-0.154389
-0.351807
-0.485252
0.392283
0.047207
0.107341
0.226064
-0.333405
0.151985
-0.458959
0.306974
-0.453788
0.0287586
-0.321319
-0.136251
-0.199184
0.0625938
0.136591
0.00298021
-0.136894
0.133914
-0.21652
0.456798
-0.240277
-0.323112
-0.094197
-0.204405
0.298602
-0.0474776
-0.0681454
-0.217088
0.334581
-0.0272996
0.0713669
-0.0440674
0.140916
0.286865
-0.427781
0.301705
-0.111607
-0.169223
0.0402198
0.0747546
-0.254907
-0.258886
0.152354
0.106531
-0.280732
-0.0854408
0.366173
-0.138287
0.126409
0.0405944
0.0800671
-0.120662
-0.287987
0.193772
-0.584484
0.138067
0.446417
0.269541
0.0321077
0.175831
-0.154442
-0.349023
-0.0989455
0.447969
0.172696
0.305511
-0.14047
0.117556
0.22172
0.335736
-0.333113
-0.111675
0.315986
-0.204311
-0.0291311
0.415693
0.37823
0.0591014
-0.323989
0.219016
0.104973
-0.0291855
0.0944346
0.318831
-0.219791
0.183417
-0.0473163
-0.136101
0.0150373
-0.0126783
0.191409
-0.231584
-0.148843
0.0749721
0.0738705
0.338729
-0.0483338
0.394682
0.0683316
-0.250399
0.0535604
0.196839
-0.0536457
0.233527
0.483541
-0.199336
-0.284206
0.118698
0.0262179
-0.144915
0.0290116
-0.152117
0.123106
-0.434704
0.146815
0.45658
-0.462172
0.171184
0.290988
-0.020255
-0.00845496
0.0287099
0.307901
0.128395
0.144025
-0.370867
0.021844
-0.124217
0.0593871
0.0648298
0.136823
0.287638
-0.424462
0.355053
-0.110097
-0.14218
-0.248557
0.390737
-0.249275
0.374791
-0.125516
-0.175821
-0.0780179
0.253839
-0.149759
-0.144794
0.294553
0.144333
-0.0256351
-0.313669
0.435642
-0.121973
0.187241
0.114463
0.21971
-0.34088
0.12117
-0.359491
0.451417
-0.0919255
-0.126609
-0.0398253
0.19479
-0.0705873
-0.113419
-0.421525
-0.0323283
0.453854
0.395411
-0.15339
0.0301653
-0.0574648
0.241402
0.0607301
-0.302132
0.326776
-0.135367
0.470511
-0.126292
0.167882
0.0886761
-0.256558
-0.110815
0.283048
-0.172233
-0.129156
-0.245369
0.437029
0.0769898
0.0582921
-0.135282
-0.0440991
-0.110282
0.154381
0.0190389
-0.440564
-0.0308739
0.175559
-0.114736
-0.288723
0.403459
-0.014078
-0.345977
0.285366
-0.247239
-0.193194
-0.07338
0.266574
0.215542
0.123187
-0.089639
0.130321
-0.0587155
-0.426637
-0.0616529
0.48829
-0.0659412
-0.458965
-0.228363
-0.269241
-0.35187
-0.327156
-0.170926
0.144364
-0.393639
-0.0181564
-0.129977
0.148133
-0.0551604
0.207725
0.355516
0.0170584
-0.372574
-0.0689082
0.31031
-0.240375
0.29571
-0.00736783
-0.150176
0.0982569
-0.260838
0.162581
0.385042
0.0181736
-0.467706
0.48073
-0.0130238
-0.32102
0.368271
-0.0192483
-0.0418136
0.208881
-0.270653
0.204731
-0.467849
0.350068
-0.234728
-0.421144
0.104469
-0.409073
0.304604
0.123201
0.203575
-0.217985
0.109469
-0.153568
-0.045011
-0.406485
-0.109005
-0.149967
0.235396
-0.0854288
-0.450633
0.301204
0.149429
-0.0106064
0.292517
-0.281911
0.060662
0.0696595
-0.374565
-0.387165
0.288748
-0.107079
-0.181669
0.188714
0.100034
0.0944531
-0.215197
0.120744
-0.0297269
0.421871
-0.310187
0.399538
0.0747449
-0.474283
-0.146918
-0.303715
-0.443123
0.129454
0.490456
-0.192663
-0.297793
-0.31816
-0.180134
0.224021
-0.234628
-0.502019
0.320841
0.181178
-0.00533264
0.415864
0.111044
-0.212603
0.403086
-0.0469406
0.122068
-0.142333
-0.265319
0.407652
-0.346946
-0.237538
0.476066
-0.400856
-0.0752105
-0.0305232
-0.142815
0.173339
0.528592
-0.12287
-0.405722
0.368693
-0.105224
-0.0747328
0.115327
-0.155679
-0.0879345
0.243614
0.398809
-0.194351
-0.204458
-0.328322
-0.338992
0.498024
0.101721
0.426871
0.122159
0.259183
-0.381342
-0.185588
-0.284926
-0.317694
0.49356
-0.175866
0.1359
0.0546577
-0.0254197
-0.252517
-0.155504
-0.294706
-0.149484
0.411539
-0.475077
0.0635381
0.0812411
0.0405642
-0.162025
0.12146
-0.064747
-0.491769
0.22729
0.0560242
0.127393
-0.204258
0.06459
-0.19098
0.12639
-0.34799
0.312021
0.0359689
-0.403007
0.147163
-0.118151
0.191605
-0.404208
0.293159
0.190383
0.111292
-0.458929
0.0120155
0.045416
-0.0574316
0.124458
-0.376417
0.251959
-0.296655
0.383651
0.0868593
-0.0217679
0.360625
-0.338857
0.429165
-0.178057
-0.251108
-0.402719
0.205894
0.351177
-0.226719
-0.153541
-0.0820747
0.199507
-0.311182
-0.1141
0.283995
-0.425718
0.0300877
0.13564
0.150003
0.370749
-0.104279
0.209797
-0.0519161
-0.157881
-0.00944536
0.114441
-0.286307
0.258151
0.0281556
0.0813958
0.149281
-0.230677
-0.204737
0.0576352
0.147102
0.205459
0.119821
-0.32528
0.199834
0.0704218
-0.270256
-0.165075
0.134552
0.0955503
-0.133383
0.14399
-0.387423
0.243433
-0.398045
0.164312
0.233733
-0.0600442
-0.119989
-0.422187
0.441226
-0.158398
-0.309452
0.166307
0.232502
0.248475
-0.137197
0.069316
0.067881
-0.368795
-0.0681016
-0.329066
0.220475
0.108591
0.0925113
0.169627
-0.262138
-0.171668
-0.109866
0.281534
-0.153764
0.378394
-0.224629
-0.339498
0.31773
-0.271321
0.401588
-0.130266
0.222547
-0.316744
0.020744
-0.00991904
-0.0788768
0.246759
-0.0463061
0.0467824
-0.000476308
-0.0852941
0.193342
-0.108048
-0.00839977
0.32723
0.249727
0.110368
0.499937
-0.217685
-0.282252
-0.297144
0.202406
0.0947381
-0.214463
0.406069
-0.297799
0.468983
0.306087
0.139634
-0.218982
-0.277882
0.478621
-0.300443
0.170457
0.0393398
-0.17642
-0.206777
-0.086739
0.169023
-0.0822844
0.215695
0.0956101
-0.0710774
0.0909103
-0.0198328
0.306623
-0.101165
0.133011
-0.394429
0.261417
-0.286001
-0.326945
0.36922
-0.0422747
0.0962722
0.190406
-0.286678
0.126013
0.254686
0.15461
-0.0182194
-0.13639
0.117675
-0.296046
-0.484253
-0.0195593
0.503812
0.311714
-0.0987843
-0.21293
-0.371634
0.21787
-0.218542
-0.253762
0.472304
-0.464445
0.245903
-0.164054
0.248302
-0.0842475
-0.0199751
-0.253633
0.133897
0.295268
-0.327875
0.223611
0.104265
0.428829
-0.283184
-0.274156
0.0595005
-0.118045
0.0622191
-0.217898
-0.434237
0.300415
0.133822
-0.0381588
0.126874
-0.0887154
0.0044456
0.0162984
0.147521
-0.165677
-0.270407
0.395588
0.133543
-0.180049
0.1699
-0.250088
0.22266
-0.0766653
-0.145995
-0.0541591
-0.158432
0.212591
-0.228257
-0.169788
-0.138089
-0.261627
0.105485
0.20623
0.324567
-0.413627
0.0890606
-0.137035
-0.0631004
0.43633
-0.0878508
-0.0729552
-0.121263
-0.158623
0.251134
-0.203739
0.208041
0.106093
-0.314133
0.0719351
0.150725
-0.288485
-0.150663
0.439148
-0.102025
-0.319325
-0.122061
0.0566337
0.065427
-0.105203
0.407685
-0.302481
-0.152612
0.0804048
0.0722073
-0.194195
-0.102949
-0.401504
0.183527
-0.114546
-0.0689816
-0.122882
0.441537
0.306405
0.190245
0.124819
-0.34134
0.00778425
-0.0280392
-0.391714
0.215294
-0.131532
-0.441764
0.378268
-0.234278
-0.104238
0.214085
-0.109847
0.484322
-0.311626
-0.169704
0.0588789
0.110825
-0.105829
0.412695
-0.474809
0.157115
-0.485726
0.310249
0.175477
0.137019
-0.167893
-0.131028
0.38515
0.0778106
-0.237998
-0.111653
0.0388656
-0.146865
-0.532136
0.231129
0.301007
0.23382
0.121233
-0.509828
0.203903
0.305925
-0.073356
0.146258
-0.173011
0.128989
0.0440216
-0.187842
-0.300973
-0.0745581
-0.0992088
0.318225
-0.0848942
0.254795
-0.423035
-0.30097
0.136062
-0.384611
0.248548
0.133043
-0.404364
0.00140596
0.0136314
0.000687774
-0.200055
0.0911567
-0.329817
-0.202319
0.165798
0.265635
-0.0242503
-0.349374
-0.311434
0.425531
-0.114097
-0.17549
-0.334338
0.1937
-0.188958
-0.0047417
-0.156352
0.131393
0.0249593
-0.16876
0.144124
0.0246356
0.100225
0.201509
-0.301735
-0.385471
0.112253
0.273219
0.343635
-0.505313
0.161678
0.0131721
-0.141464
0.128292
0.376507
0.00714399
0.12265
-0.199455
0.0768049
-0.313309
0.315904
0.301375
-0.169698
-0.131677
-0.501771
0.358474
0.143297
-0.242931
0.171264
-0.21066
0.0393955
-0.098579
0.381244
-0.282665
-0.235348
0.207892
-0.488624
-0.176121
0.434141
-0.25802
0.0414134
0.354698
-0.396112
0.503171
-0.294889
-0.208282
0.0156791
-0.156968
0.141289
-0.105328
-0.298981
0.127878
0.171103
-0.144056
-0.291089
0.435145
-0.451914
0.0575826
-0.0521865
-0.00539612
0.0699506
-0.192866
0.122915
0.0737649
-0.464765
-0.107457
-0.0622472
-0.0726464
0.0304706
-0.34378
0.447373
-0.122806
-0.316095
0.452201
-0.136106
0.066226
0.164961
-0.231187
0.426207
-0.138777
-0.287429
-0.379263
0.14074
0.238523
-0.0622249
-0.0624587
-0.0901534
-0.456275
0.153405
0.30287
-0.350381
0.134835
0.215546
-0.191715
-0.550499
0.227524
0.322975
0.113029
0.219636
-0.332665
0.109835
0.0736923
0.124424
-0.327436
0.203012
-0.0344962
0.102825
-0.387738
0.284913
-0.137104
-0.305527
0.442631
-0.0626737
-0.0157856
-0.1279
0.143685
-0.238446
-0.312053
0.390903
-0.288078
-0.300094
0.0956888
0.155571
-0.437733
0.0940313
0.343702
0.23716
-0.15624
-0.0809195
0.481881
-0.240985
-0.240896
0.158531
0.167072
0.275147
-0.191005
-0.100345
0.29135
-0.156896
-0.327357
-0.0206021
0.157479
-0.257636
0.160849
-0.132329
0.303387
0.368603
-0.232541
-0.279238
-0.231423
0.0648099
-0.290474
-0.139401
0.286066
0.145126
-0.558314
0.239685
0.318628
0.0876142
0.203364
-0.290979
0.438391
-0.0404784
-0.141408
0.390071
-0.248663
0.149245
-0.203405
0.0713292
0.171908
0.4336
-0.296561
-0.137039
0.329932
0.351679
-0.493332
0.141652
0.305118
0.121089
0.138046
-0.104391
-0.349336
0.453728
0.13889
-0.344749
0.205859
-0.200958
0.481536
-0.280578
0.167121
0.0926278
0.158086
-0.148486
-0.00960052
-0.327185
0.391101
0.0709146
0.0458367
-0.186756
0.140919
-0.274569
0.266169
-0.11901
0.368737
0.0629243
0.413142
-0.276322
0.138467
0.137855
0.409943
-0.123877
-0.171193
0.421903
-0.25071
0.135784
-0.178845
0.043061
-0.554598
0.232426
0.322171
-0.18619
0.090241
0.0959486
-0.329605
0.474052
-0.144447
-0.313571
0.163353
0.150218
0.132634
-0.0719719
-0.412444
0.297707
-0.0321246
-0.136635
0.403336
-0.462494
0.0591585
0.0249947
0.218601
-0.120725
-0.209814
0.330539
0.0720865
0.0367605
-0.126298
0.179709
-0.0534115