/*--------------------------------*- C++ -*----------------------------------*\
| =========                 |                                                 |
| \\      /  F ield         | OpenFOAM: The Open Source CFD Toolbox           |
|  \\    /   O peration     | Version:  v2012                                 |
|   \\  /    A nd           | Website:  www.openfoam.com                      |
|    \\/     M anipulation  |                                                 |
\*---------------------------------------------------------------------------*/
FoamFile
{
    version     2.0;
    format      ascii;
    class       surfaceScalarField;
    location    "50";
    object      ddtCorrDdt0(phi);
}
// * * * * * * * * * * * * * * * * * * * * * * * * * * * * * * * * * * * * * //

dimensions      [0 3 -2 0 0 0 0];
oriented        oriented;


internalField   nonuniform List<scalar> 
27642
(
-0.0163162
0.0254412
-0.00912504
-0.0108027
0.00593756
0.00486509
-0.00419875
0.00613771
-0.00193895
-0.0159721
-0.00194345
0.0179155
-0.00378881
-0.000409947
-3.96503e-05
3.93039e-06
3.57223e-05
-0.0235478
0.0251645
-0.0016167
-4.59322e-05
4.59319e-05
5.56443e-05
-2.68201e-05
-2.88362e-05
0.00275919
0.00171894
-0.00447812
2.39585e-05
0.000100069
-0.000124028
0.00354025
-0.00783994
0.0042997
3.90065e-05
-3.40317e-05
-4.97587e-06
0.0223698
-0.017373
-0.00499682
0.0243436
-0.0153916
-0.0089519
0.000106919
0.00343332
-0.00248084
0.000361308
0.00211952
0.0355231
0.00794855
-0.0434716
-0.039194
0.0507346
-0.0115406
0.000499922
4.81653e-06
-0.000504739
-0.0239149
0.0594379
0.00051797
-0.000681134
0.000163157
0.00341349
-0.00777734
0.00436382
0.000302879
-6.9578e-05
-0.000233303
2.44997e-05
1.03658e-05
-3.48638e-05
-0.0547226
0.0155286
0.00021733
-0.000203807
-1.35277e-05
0.00898166
-0.0106702
0.00168858
-2.74323e-05
-5.27748e-05
8.01975e-05
0.000208099
0.000223721
-0.00043182
0.00802735
2.22685e-05
3.33733e-05
-0.00369539
-0.00710726
-9.30526e-05
0.000117011
0.00456104
-0.0105835
0.00602249
0.00047729
1.73391e-05
-0.000494632
0.00199118
-0.00227306
0.000281873
-1.03585e-05
3.48563e-05
-0.00176341
-0.0020654
0.00382879
0.011053
0.0187277
-0.0297807
0.0113525
-0.00237083
0.000219842
1.4725e-05
-0.000234572
-1.06524e-05
-7.7776e-05
8.84263e-05
0.00176001
-0.00352343
-0.000381897
0.000623982
-0.000242085
0.0091367
0.0132331
-0.000232143
1.93601e-06
0.000230207
-0.0239761
0.0350291
-0.0035208
0.00297821
0.000542566
6.92423e-05
-2.99827e-05
-3.92573e-05
0.0156917
-0.0126294
-0.00306234
5.00687e-05
-3.08061e-05
-1.92742e-05
0.000103277
-0.000766394
0.00066312
-0.000962195
0.00838512
-0.00742293
6.7523e-05
-0.000171626
0.000104097
-0.000131114
0.000608402
0.000981853
-0.00173086
0.000749016
0.0129992
-0.0133177
0.000318551
-0.0109188
-0.00966766
0.0205864
0.0176546
-0.00515541
-0.0124992
0.00012734
5.05391e-05
-0.000177874
8.33995e-05
-4.61609e-05
-3.72376e-05
0.000462315
-0.000359031
0.00712413
-0.0101424
0.00301827
-8.43097e-05
-0.0034365
-0.000402209
0.000458088
-5.58795e-05
-0.000706406
0.00205247
-0.00134608
-0.000512933
0.000110723
-3.48948e-05
1.2719e-05
2.2175e-05
-0.0122926
-0.00476953
0.0170621
-0.000606251
0.000737783
-0.000131515
-2.51521e-05
1.74289e-05
7.71996e-06
-7.66824e-05
9.16821e-06
-9.6261e-05
6.88235e-05
3.48192e-05
-5.02139e-05
1.53967e-05
-0.000106741
9.82963e-05
8.44689e-06
9.04008e-06
0.000118285
-0.000400338
0.000524812
-0.000124466
-0.000638813
0.000238479
-0.00108782
0.000855951
0.000231848
3.51582e-05
3.4079e-05
2.00865e-05
-0.000169858
0.000100374
6.9483e-05
-2.5384e-05
-9.51113e-06
1.39766e-05
3.54401e-05
-4.9428e-05
-6.12536e-05
-1.54604e-05
-0.000194538
-3.76053e-05
0.0201356
-0.0440505
0.0291703
-0.013479
-0.0156913
0.0278421
-0.005521
-0.0223212
0.00252679
-0.000535641
0.000441652
-0.000938895
0.000497247
1.45664e-05
-3.32024e-05
1.86386e-05
-0.000161831
-0.000173508
0.000335314
7.70918e-05
-4.19279e-05
0.000101903
-3.44038e-05
-0.000590496
0.00306295
-0.00247247
0.000927506
-0.0132201
0.00708769
-0.00432851
-0.00197348
0.000866739
0.00110673
-0.00488174
0.00586359
0.00892037
-0.0106512
0.00378024
-0.020284
0.0165038
-0.0163932
0.0365288
0.00699478
0.00486787
-0.0118626
0.000385611
0.00719394
-0.00757955
-0.00383832
-0.00402627
0.00786453
-0.00600946
0.00588317
0.000126264
-3.48181e-05
-6.25457e-05
9.73637e-05
0.013631
-0.0467439
0.033113
0.00760288
-0.00749596
2.9818e-05
4.72627e-05
-0.00461385
0.00802735
0.0147136
-0.0109334
4.0516e-05
-1.8248e-05
0.0227859
-0.0386682
0.0158823
0.000951668
-0.000816586
-0.000135124
-6.73763e-05
3.08022e-05
3.65725e-05
0.00618777
0.00141511
-3.97229e-05
-4.7855e-05
8.75798e-05
0.0275336
-0.00474773
0.000234612
-0.000392385
0.000157774
-0.00558126
-0.00528709
0.0108684
7.1198e-05
-8.18509e-05
-8.32555e-06
-1.68307e-05
0.00936742
-0.0194837
0.0101163
-0.0700328
0.0043405
0.0656923
5.42541e-05
-9.39769e-05
0.000217384
2.45945e-06
-0.00873364
0.0108773
-0.00214379
-0.000249674
0.000484286
-0.00777958
0.0102149
-0.00243535
0.00244243
0.0107375
-0.0131799
0.000259075
0.000442632
-0.000701734
0.00304233
-0.00128237
-0.00241165
0.00888285
-0.0064712
0.000183302
3.40288e-05
0.000257826
1.986e-05
-0.000277685
0.000292775
-3.49496e-05
0.0124742
0.00379831
-0.0162725
-6.04331e-05
-7.12289e-05
0.000131662
-0.000275634
0.000523316
-0.000247682
0.00031883
0.000843575
-0.00116241
-0.00408774
-0.000832358
0.00492012
-0.0125782
0.00913423
0.003444
0.000630808
-0.000672549
4.17428e-05
0.00739121
-0.000396376
1.37104e-07
-2.56843e-06
2.43097e-06
0.000700832
0.00386022
-0.000464118
0.000188484
3.1552e-05
8.96124e-06
-0.016663
-0.00910485
0.0257679
-0.00134235
-0.000663405
0.00200576
0.00347026
-0.00610889
0.00263861
0.00123058
-0.000454877
-0.000775704
0.00030847
-0.000470273
-0.00191005
0.000567692
-0.000722606
-0.00304594
0.00376854
0.00016329
-7.95475e-05
-8.37572e-05
0.000104154
-0.000133432
2.92782e-05
-0.00670432
0.00429268
-0.0166102
0.00121855
0.00579835
-0.00963664
4.34978e-05
-4.48278e-06
0.0114375
-0.00999772
-0.0014397
0.0322456
-0.0322124
-3.3227e-05
-0.0088098
0.00832098
0.000488819
-8.30292e-05
0.000165255
-8.21949e-05
-8.60804e-05
-8.37791e-05
5.26892e-05
-0.000105465
-3.96489e-05
0.0128101
-0.0103676
0.0174914
0.0236818
-0.0411732
0.00763878
0.01849
-0.0261288
-0.0220608
0.0395522
-0.0167883
-0.00275249
0.0195409
0.00188328
0.00469832
-0.00658159
0.00465775
-0.0214461
-1.79179e-05
7.21732e-05
-7.45867e-05
5.66699e-05
-0.0114221
0.00929323
-8.19966e-05
8.78052e-05
-5.80872e-06
0.000538421
-0.000868901
0.000330489
-0.00029473
0.00381457
-0.00351986
-1.03132e-06
-4.3986e-05
4.50085e-05
0.0007458
-0.000304156
-0.00266733
0.0151415
-1.52015e-05
2.05733e-05
-5.37163e-06
0.00130473
0.005766
-0.0070707
0.0318541
0.000391487
-0.00505381
-0.00701103
0.0120648
0.000212867
0.000738782
3.44595e-05
-8.2314e-05
-0.000682626
-0.00419912
-0.0056975
0.00758077
-0.0096909
0.000881103
-0.000668429
0.000554029
0.000114397
0.0027877
-0.00658795
0.00380024
0.000571251
-0.000277587
-0.000293665
0.0161036
0.0102277
-0.0263313
-0.00165884
0.00696462
-0.00530583
-7.30738e-05
-0.00019445
0.000267509
-0.000438961
0.00177234
-0.00133338
0.0103214
-0.0183403
0.00801896
0.00577978
0.0099119
-6.73407e-05
0.000136231
-6.88664e-05
-0.000150459
0.00244743
7.9368e-05
0.00145655
-0.00189551
-0.0180571
-0.0519758
8.2871e-05
-0.000150193
-9.99478e-05
6.8951e-06
0.000475857
-0.000422304
-5.35535e-05
0.000601153
-0.00323589
0.00263473
0.00566288
0.0235074
-0.000278768
0.000537835
0.00385494
-0.0205179
-0.0186719
0.00113715
0.0175347
0.00373979
-0.00879357
5.00262e-05
-6.55142e-05
1.54869e-05
-0.0141088
0.0187665
0.00320549
0.00645614
-0.00966165
0.0351062
-0.00726413
0.000640746
-8.67152e-05
0.000420284
5.55765e-05
0.00564997
-0.00286227
-0.00216029
0.00156979
-0.0468396
0.0287459
0.0180938
-0.00140519
-0.000568291
4.20893e-05
0.000529162
0.00526936
-0.00691941
0.00165003
-0.00630769
-0.0107696
0.0170772
1.52571e-05
-1.71013e-05
1.84469e-06
-0.00240618
0.00412512
-0.00025602
4.15798e-05
-0.000113903
7.23331e-05
5.55289e-06
0.000625255
-0.00120719
-0.0147649
-6.65835e-05
6.45242e-05
2.05973e-06
0.0173526
-0.00703128
3.77595e-05
-6.68248e-06
-3.10791e-05
3.91778e-05
-4.02172e-05
0.00689995
-0.0055952
0.000987951
-0.000449533
0.000138889
-3.47349e-05
0.000312522
3.28301e-05
-0.000345344
2.40572e-05
5.11591e-06
-2.91705e-05
0.000542539
-0.000355695
-0.000186844
-0.00013525
0.000160399
-2.51431e-05
-8.10508e-05
8.35323e-05
-2.48156e-06
0.00329559
0.00970354
-0.00120056
-5.14676e-06
0.00120571
-0.0105292
0.0266328
0.0183071
-0.00845673
-0.00985034
3.11663e-05
-1.65999e-05
5.97823e-05
9.14839e-05
-0.000151273
7.14422e-05
-2.40458e-05
-4.73984e-05
-0.0146439
0.000535122
4.5493e-05
-1.39366e-05
0.0352913
-0.0613775
0.0260862
-0.000127607
-0.000149827
0.000277434
-1.4897e-05
-3.10351e-05
0.00843719
0.00986987
-0.000442137
-0.000758418
3.85959e-05
3.28464e-05
0.00776854
-0.00960933
0.00184079
-0.000359868
0.000530075
-0.000170207
-5.23971e-06
7.3731e-05
-6.84935e-05
0.000645106
-0.000380778
-0.000264331
-0.00491321
0.0126817
-0.0003469
0.000460703
-0.000113803
-6.37127e-05
-0.0539695
0.0402843
0.0136852
-0.000378233
3.13332e-05
-0.00160638
0.000605543
0.00100082
-0.0219725
0.00889669
0.0130757
-2.70725e-05
-5.83165e-06
3.29051e-05
0.0231281
-0.0395213
-0.0467086
0.0703904
0.0324615
-0.0123511
-0.0201104
-0.00126408
-0.00474542
0.00578669
-0.0103968
0.0046101
0.00093659
-0.000474277
0.00448181
0.00832827
-0.103829
0.0857715
-0.00169857
0.00882269
-0.068224
0.0215153
9.45371e-05
-5.95854e-05
-3.49398e-05
-0.00805358
-0.034719
0.0427726
0.0367587
0.102379
-0.139138
-0.000627453
2.40537e-05
0.000603402
0.0162174
-0.0160502
-0.000167161
0.000133555
-3.34856e-05
0.00153077
-0.00326486
0.00173409
-0.0110637
0.00233006
-0.000935025
0.000118449
0.013973
-0.0172214
0.00324844
0.00429032
-0.00275953
1.85197e-05
-9.95705e-05
-0.0163236
0.0394517
-3.40418e-05
1.74597e-05
1.65793e-05
-1.84567e-05
3.25075e-06
0.0196844
-0.025992
0.00160586
-0.00231225
0.000649417
-0.000426448
-0.00022297
0.0190887
-0.00511578
6.85577e-05
-0.000115543
4.69741e-05
1.31476e-05
-0.000115153
0.000102003
0.0010478
0.000182777
0.000512458
0.00013696
7.91733e-05
-0.000434876
-2.71302e-05
4.09164e-05
-1.37862e-05
0.0141094
0.0183521
7.29897e-05
-0.000200597
0.00042169
-1.4095e-06
0.032112
-0.0401656
0.00186384
0.000583562
-9.81442e-05
0.000163856
-6.57113e-05
-0.0176647
0.021877
-0.00421231
-5.11764e-05
-0.00336343
-0.00119593
0.00455937
-2.74845e-05
4.09728e-07
1.23682e-05
4.63084e-05
-5.86762e-05
-3.32789e-05
7.01258e-05
-3.68475e-05
-0.000119293
0.000619216
0.0180482
-0.0281751
0.0101269
0.0018012
-0.00164629
-0.000154931
-0.0138585
4.47725e-05
0.000376919
0.00529119
-0.0108724
7.46554e-05
-0.000109473
-0.0349391
-0.0119005
5.90371e-06
-5.76649e-06
0.014436
-0.00361896
-0.010817
0.000256845
4.60326e-05
0.0556851
-0.0203939
-4.49147e-05
2.72435e-05
1.76591e-05
-0.00102319
-0.00145766
-0.0346456
-0.0338513
0.0684969
-0.000114996
-0.00433452
0.00226909
0.000170319
-0.000175215
4.89609e-06
0.0277779
-0.00992786
-0.01785
0.000175139
-0.00134674
0.00117159
-0.0037964
0.003133
-0.000135219
3.70726e-05
-0.000161275
8.72491e-05
7.40109e-05
-1.00791e-05
0.00609553
0.0216824
-0.0066983
0.00593422
0.000764032
0.000798862
0.000399275
-0.00119813
0.00379554
-0.0031944
-3.71532e-05
9.69365e-05
-0.0371937
-0.0167758
-0.00224468
-0.00184306
0.000183465
0.000337205
-0.00052068
-0.0224612
0.0115424
0.0231777
-0.00512952
-0.0200554
0.0116356
0.00841976
0.000977529
-5.57005e-05
-0.000921833
0.00647607
-0.00179616
-0.0046799
0.0306527
0.00120148
-0.00123483
-0.00256157
8.31461e-05
0.000241903
-0.000325033
-0.0353437
0.00603509
0.0293087
5.55123e-05
-2.83608e-06
-0.0217412
-0.0018066
8.30055e-05
-6.67215e-05
-1.62823e-05
0.00780783
0.00662807
-4.64467e-05
8.0906e-05
-0.000277486
0.000300199
-2.26995e-05
0.0015155
-0.00125454
-0.000260977
5.96133e-06
3.94365e-05
-4.5399e-05
-3.02364e-05
-1.35135e-05
-0.00031844
-0.0074611
-4.97569e-05
4.7474e-05
2.28053e-06
1.76318e-05
-7.17595e-06
-1.04569e-05
0.000101162
-4.70058e-05
-5.41591e-05
-0.000109186
6.67474e-05
4.24425e-05
-0.000838325
-9.67226e-05
0.00143923
0.000122074
-0.0015613
-0.0181852
0.00338981
0.0147953
-0.0142756
-3.32833e-05
4.72688e-05
0.000509443
-0.00115252
0.000643068
0.00900381
-0.000371721
-0.000394674
1.19841e-05
5.65215e-06
-0.00845401
0.0166301
-0.00817611
0.000111179
-0.00054277
0.000431594
7.62331e-05
6.7738e-06
-0.0362108
0.0498418
0.000596348
-0.000485179
0.00551387
-0.0159872
0.023626
-6.36584e-05
0.000105153
-4.15101e-05
0.000100836
0.0234108
-0.00153378
0.00881196
0.00389683
-0.0127088
0.000218659
5.32112e-05
0.000868774
0.000127995
-0.000996768
-9.45367e-05
6.42418e-05
3.0295e-05
0.000505889
0.00047165
0.00409474
0.00155523
0.00247752
-0.000282033
0.00115081
-0.0617717
0.0108509
0.0509208
-4.54874e-05
-0.000115777
0.00509508
0.00634241
-0.00689424
0.000306291
-3.05233e-05
2.15993e-06
2.8364e-05
-0.00968547
-2.69687e-05
0.00971239
-0.00593772
0.0153052
0.130764
-0.0940057
-2.96157e-06
1.82133e-05
0.00660807
-0.000359216
0.00427617
-0.00391695
-0.00500283
-0.00231788
-0.0124491
0.00399512
-8.83022e-05
0.000163703
-7.54012e-05
8.49697e-05
3.24692e-05
-0.000117425
-7.97243e-05
-0.00051301
-0.0604305
0.0257849
0.00749751
-0.00155995
-0.0108346
0.00765958
0.00317504
-9.26558e-06
3.78772e-05
-2.86186e-05
9.22436e-05
-7.28726e-06
-0.000288064
1.05994e-05
0.00135949
-0.000246088
-0.0011134
0.000151764
-0.000106605
-4.51849e-05
-4.56875e-05
-4.69739e-06
5.03838e-05
1.99614e-05
1.06055e-05
-3.05685e-05
-0.00898989
0.00719373
-0.000342688
0.000526167
4.372e-05
0.000243205
-3.42586e-05
5.59389e-05
-2.16887e-05
-6.73755e-05
-4.27547e-06
3.90968e-05
0.000363563
4.49611e-05
-0.000408523
0.064598
-0.00338382
-0.0612142
0.009359
0.00799366
-0.000149259
0.000162128
-1.2873e-05
-0.000730665
-0.00156712
0.00229778
5.77071e-05
0.00130178
-3.74575e-05
-9.59746e-05
0.012923
-0.0098158
-0.00310723
0.0202891
-0.0211385
0.000849422
-1.96606e-05
-2.52545e-05
0.000319669
-0.000109242
-0.000210428
6.74574e-05
2.7098e-05
0.0186257
0.00166328
4.02928e-05
-0.000136092
9.57962e-05
-4.27441e-05
3.34733e-05
0.000230189
-7.28136e-05
-0.000157374
3.19258e-05
1.35611e-05
0.000420345
-8.81662e-05
-1.85755e-05
0.00608695
0.0190775
-1.13644e-05
6.13914e-05
-0.000296003
5.11995e-05
0.000244804
9.61549e-06
-4.38736e-05
-0.000169071
0.000281337
-0.000112269
-0.000223014
-9.80821e-05
0.000386738
-0.000288655
-0.0156731
-0.0196707
-3.23812e-05
-5.21446e-06
3.75985e-05
-6.22522e-05
-1.97444e-05
-1.6685e-05
9.06792e-05
-7.39949e-05
-8.55829e-06
3.01207e-05
-2.15537e-05
-9.63134e-06
0.000179951
-0.00149911
0.000475903
0.00925695
-6.38119e-05
0.000104103
-6.81731e-05
0.000867029
2.57879e-05
2.01448e-05
7.18438e-05
0.000158298
-2.6344e-05
-1.21716e-05
3.85185e-05
-0.000869059
0.0061384
2.58136e-05
-2.96603e-06
-2.28469e-05
-0.000874969
3.4442e-05
-6.89302e-06
5.94292e-05
-5.25361e-05
-0.0171547
-0.0150576
-0.0088384
5.42961e-05
-6.11892e-05
0.0091287
0.000230291
-0.00839923
-0.0019976
0.00116673
-0.0216495
0.0204827
-0.0157172
-0.0301616
0.0458789
0.00410716
-0.000310985
-6.72485e-05
0.0132415
-0.0289587
-0.00610093
-0.00229829
-1.82092e-05
-1.02532e-05
3.62591e-05
-2.60014e-05
0.0309604
0.0081495
-0.0391099
-6.21791e-05
-0.00873139
0.012429
-0.00385323
-0.0062892
0.000520814
4.00098e-06
0.00569014
0.00566232
5.51083e-05
-0.000116076
6.09363e-05
3.49442e-05
4.84566e-05
0.000245728
-0.000206812
0.000137231
-0.0273143
0.0165447
2.65222e-05
-6.56738e-06
0.000356096
-0.000351279
-0.00118028
-1.45699e-05
-2.9757e-05
4.43235e-05
-0.0355979
-0.011146
-0.00654267
0.00153984
-0.0220961
0.00494137
0.0124616
-3.24723e-05
0.0167858
-0.0279852
0.0111994
-1.41454e-05
5.69087e-05
-4.27632e-05
4.01509e-05
0.0195398
0.000718787
0.000190957
0.00161024
0.0158862
0.00365362
0.00356619
-0.0042888
-6.33356e-05
-9.73998e-06
6.76341e-05
-0.000107724
4.0091e-05
0.0417482
-0.0255716
-0.0161765
0.00283425
0.00079434
-0.00362859
0.0056346
-0.00569676
-4.40313e-05
9.91245e-05
-4.24009e-05
0.00012963
6.21363e-05
-5.4239e-05
-7.89681e-06
3.84656e-05
-4.5148e-05
0.00032614
-0.000768278
-0.000344859
-0.000293957
0.00033347
-0.000123867
-0.000209601
-0.00458626
-4.06279e-05
5.41541e-05
-0.000101411
4.72491e-05
-0.0254003
-0.0072547
0.00497032
-0.00358975
-0.00138058
-0.00731924
0.0119293
5.97571e-05
-0.00012339
-0.00214685
0.0112811
-0.0137796
0.0274185
-0.0136389
0.00257229
-0.00221101
-3.21972e-05
3.61257e-05
-0.00476442
-0.0155196
-0.01184
0.00181029
0.0100297
-0.00270554
-0.00871649
0.0188222
0.022926
2.36958e-05
-1.28226e-05
-1.08699e-05
7.89531e-05
9.49752e-05
4.44409e-05
-0.000139435
0.00479791
-0.0169848
0.0121869
1.67379e-06
-0.000236386
0.000234711
-0.00253947
0.00483791
-0.00229842
-0.000584899
0.000263009
0.000321891
5.38152e-05
8.32133e-06
-5.27601e-05
-1.38233e-05
-6.34667e-05
1.07068e-05
-0.00078357
-0.0125341
0.025153
-0.00926674
0.00296634
-0.00409102
0.00112466
0.0364525
0.0245574
-0.0292162
0.00465887
-4.43535e-05
3.54647e-07
-0.00779827
-8.90959e-06
-0.000134381
0.000411615
-0.000277234
-0.00631871
0.0200272
0.0215373
-0.0415645
-4.28427e-05
4.3524e-05
-6.83869e-07
-0.000399198
-0.00187387
-1.96846e-05
-1.24416e-05
3.21258e-05
-6.29516e-05
-0.000455978
0.00051893
-7.68103e-06
-3.51693e-05
-0.00938996
0.0238121
-0.0144221
-5.31926e-06
-1.17242e-05
1.70441e-05
1.96335e-05
-6.5796e-05
2.18108e-05
1.88744e-06
0.000482928
-0.00798309
0.00750008
-0.00619135
-0.0124805
-0.0176692
0.046415
0.00264584
-0.000811361
-0.00183449
3.18763e-05
-4.64335e-05
-3.48433e-05
-0.00473002
0.0522775
-0.0475475
0.00704748
0.00378988
-0.0108374
-5.42331e-05
0.000149206
0.000883925
-0.000396151
-0.000487779
3.73031e-05
-2.49347e-05
5.65215e-05
-6.87226e-05
1.21989e-05
0.000237138
0.00181532
-3.41169e-05
-1.08084e-05
4.49312e-05
-0.00178617
0.00226206
0.00364301
0.00132731
-2.09319e-05
-4.06472e-05
6.15804e-05
0.059606
-0.000147674
-0.0594583
-0.000603139
0.000957216
-0.000354075
0.00498755
-0.000697235
2.76606e-05
-5.40152e-05
0.000352621
0.000531301
-0.000179772
-0.000887198
0.00106697
-6.26177e-05
4.16821e-05
5.97945e-05
-6.50346e-05
-0.00114074
-0.00779416
0.0089349
0.00724772
0.00567529
-0.00479549
-0.0133897
-0.000870662
0.0011968
0.00738171
-0.00018777
-2.77183e-05
-0.000842945
-0.00691781
0.00577707
-0.102989
-0.0350434
8.24132e-05
0.000251057
4.31796e-05
-7.63718e-05
3.31902e-05
-0.000301543
-0.000301593
-0.013843
0.0122349
0.00160819
-7.53411e-05
8.33464e-05
-8.00579e-06
-0.000885089
4.67654e-05
-1.94398e-05
-0.014327
0.00474645
0.00958055
0.0152251
4.62757e-05
7.88077e-06
-0.00112712
0.000215289
6.03967e-05
-0.000275685
0.00416747
-0.00334671
-0.00053198
0.00104143
-4.91274e-06
2.28824e-05
-1.79664e-05
0.000270424
0.00032591
4.31316e-05
9.57572e-05
0.00296192
0.00202562
0.00460204
-0.00254993
-0.00205211
2.44615e-05
0.0100871
0.00154678
0.00109907
-0.000182113
0.000121706
0.0141162
-0.00604486
-0.00807139
0.0017619
-0.00091834
0.00133719
7.07616e-05
-2.95493e-05
-4.12024e-05
-0.00128253
-0.0043766
0.00565914
0.0122764
-0.0074785
-0.0198702
-0.0348524
0.00010983
-9.66826e-05
0.000684867
-0.000414443
0.0281244
-0.00963433
-5.51074e-05
-6.04294e-05
2.24776e-05
-1.73532e-05
-5.12506e-06
0.000966636
-0.00103481
0.000148568
-6.48486e-05
-8.37166e-05
-0.0421338
0.0374038
0.00372426
-0.00439064
-0.00171825
-0.0135432
-0.00367814
0.00513715
-0.0329742
0.0278371
-1.9851e-05
-0.000694289
0.00551483
-0.00482054
7.08122e-06
6.6648e-05
3.09184e-05
-3.10522e-05
1.33775e-07
0.000428381
-0.000204661
-0.0128947
-0.0257734
-2.83554e-06
4.84044e-05
-4.556e-05
3.95608e-05
7.5477e-06
-4.71088e-05
2.08513e-05
-3.11129e-05
-2.05319e-05
-1.35124e-05
0.0128715
-0.00147094
-0.0114005
-0.000156592
8.53626e-05
-0.00373663
-0.000597903
-1.77333e-05
-0.000179504
-2.43053e-05
4.95508e-05
-5.27106e-05
3.15838e-06
0.0173421
-0.0200946
-0.00728448
0.0668905
3.73763e-06
-3.6337e-05
3.25903e-05
0.000197677
-0.00011525
-8.2429e-05
0.00136625
0.0209324
-0.0222987
-0.0076121
-0.023826
0.0824313
-0.000304245
0.00181973
-0.0460216
0.0660488
-0.000298295
0.000175024
0.000123259
0.0508089
-0.0580934
0.00879167
-0.014103
-1.00248e-05
-9.65133e-06
-0.021325
0.0116574
0.0033699
-0.00216978
-0.00120012
-4.46093e-05
0.000119265
0.0011919
0.000768635
-0.0357078
0.00114853
-0.00482995
0.00368142
-0.000465168
6.83496e-05
0.00039682
-0.000851784
-3.33352e-05
-5.2784e-06
4.48389e-05
-0.00225881
-0.00551855
-0.00627204
-0.00456259
0.0155047
0.00993645
-3.37061e-05
0.00010134
0.00284107
-0.00589516
0.0030541
-0.0154947
0.00195143
0.00015113
0.000100627
-0.000251757
-0.0281525
0.00701889
0.0211336
-0.000643202
0.000638056
0.000111577
-4.34924e-05
-6.80772e-05
-0.0735452
-0.0161418
8.70207e-05
-1.62447e-05
-0.0114015
0.008696
7.09751e-05
7.75908e-05
-3.15185e-05
9.95874e-07
-4.63463e-05
4.35119e-05
-5.99255e-06
6.73462e-07
0.116817
-0.0911042
-0.0257128
0.0110473
0.00863701
-6.88779e-05
-4.66317e-05
0.0101319
-0.00683641
4.5733e-05
-1.38019e-05
-0.000328514
0.000179004
-0.000141889
-3.70828e-05
0.00582175
-0.0029807
4.20497e-05
-2.87177e-06
-0.000600066
0.000482656
0.000117409
-0.00170807
-3.48385e-05
1.29612e-05
2.18763e-05
3.66645e-05
-2.80853e-06
-3.3856e-05
-3.45902e-05
-0.000100658
-0.0133226
0.0150605
-0.00173791
-0.00386958
0.000132925
0.0101841
-0.0153395
-0.0228566
0.0281478
1.90312e-05
0.000102479
-0.000121528
0.000118384
-0.000461075
-0.0203549
-0.00097023
0.00803341
0.00280466
-0.0108381
-0.000639909
-0.000855211
0.00149512
-0.000903263
-0.000294439
9.60233e-05
0.000198414
0.00232804
-0.000464199
0.000295392
-0.000177025
-0.000174951
-1.20305e-05
0.00018698
-0.00197625
0.00455625
-0.00257999
0.000303824
-0.000270989
-2.01259e-05
-0.000274313
-5.7368e-06
-0.0489285
-0.00210311
0.0510317
0.0070197
-0.0370763
0.0300566
-0.0335965
0.0230673
-0.00829773
-0.0198547
-0.000240863
0.00109679
0.00230311
1.30633e-05
9.2147e-05
-0.00010521
-0.0191612
0.00538169
0.00591191
-0.00964666
0.00114487
0.00189745
1.8208e-06
-2.23949e-05
2.0572e-05
2.42661e-05
1.60785e-05
-4.03401e-05
0.00468606
0.0109712
-0.0156572
0.016096
-0.000853498
0.00137316
-0.000519672
0.00134319
0.000984847
-0.0233337
0.0139359
0.00939776
-7.61995e-05
1.70524e-05
5.9146e-05
-0.0252655
0.0168815
0.00838398
-0.0002859
0.000103898
0.000182
-0.078568
-0.0252606
0.0280939
-0.0284968
0.000402887
0.000164946
-0.000281695
0.000116749
0.000164118
0.000772473
-0.00186247
0.00113181
7.2051e-05
-4.42833e-05
-2.7782e-05
8.72223e-05
-0.000180823
9.35984e-05
-4.91478e-05
0.000146366
-9.72243e-05
-6.62472e-06
0.000326867
-0.000320243
1.37751e-05
2.87875e-05
-4.25625e-05
-0.00918885
-0.000478822
0.00966767
0.000463526
-9.99633e-05
4.86423e-05
-6.53291e-05
7.89546e-05
-6.58915e-05
0.00368198
-0.000847723
0.00565812
-0.00360667
-0.00205142
-5.30182e-05
8.9003e-05
-3.59915e-05
0.00021956
-0.000119683
-9.98786e-05
-0.000161966
4.67873e-05
0.000115177
-3.7679e-05
6.19466e-05
-0.00864105
0.0105325
-0.00189136
-0.00394663
-0.00504325
-0.00778754
0.0358814
4.52524e-05
7.24092e-05
-0.00413872
0.0549476
2.39508e-05
-3.42834e-05
1.0331e-05
-0.00171764
0.00161817
9.9496e-05
0.00012294
5.04811e-05
-5.01158e-05
9.86764e-05
0.000867947
-2.21421e-06
-1.90797e-05
2.12939e-05
-0.000546991
0.000501336
4.56644e-05
-0.0103802
-0.0129535
-0.00418386
-0.0034639
0.00764776
0.000190532
3.62523e-05
-0.000226784
-2.24865e-05
3.85664e-05
5.12652e-05
-9.67358e-05
0.000769331
-0.000670635
0.000333743
2.70426e-05
-0.000360785
-0.00372608
-0.000195342
0.00392142
9.1105e-05
-3.88121e-06
0.0003359
-0.000342522
0.000125703
8.70662e-05
-0.00021277
8.78143e-05
-6.87879e-05
-0.000574969
0.000379298
0.000195665
-9.74531e-05
0.00013906
0.000161951
0.00990606
0.0175124
-1.00537e-05
3.11354e-05
-2.10814e-05
-1.19374e-05
-0.000101967
-0.0082382
-0.0170272
0.00472014
0.000938
0.000180339
0.011299
-0.0114794
-0.0147763
-0.0188202
0.0427559
-0.0195123
-0.0232436
9.66614e-06
0.0113451
-0.00665907
0.000294
0.000113329
7.53161e-05
-0.000188645
9.84456e-05
6.65212e-05
-5.27437e-05
0.000324288
-0.000321908
-0.000133227
-4.22726e-05
0.0001755
0.0190326
-0.0462443
0.0272117
3.12846e-07
2.37444e-05
0.000345323
0.0020562
-0.00240152
0.000189829
-2.0952e-05
-0.000168877
7.39384e-05
-4.41108e-05
3.32379e-05
-0.000907256
0.000874042
0.000292925
0.000391942
-0.0117422
0.0199691
-0.00822694
-0.00658767
0.0195363
-0.0129487
0.00194642
0.00143272
-0.00337913
8.24683e-05
-0.00010292
2.04528e-05
0.000366988
0.000166542
-0.00053353
-0.0133968
-4.1497e-05
-8.26129e-06
-0.00164982
-0.00504849
-0.000203618
-8.22838e-05
-0.00430842
-0.00013516
0.000468904
-0.00153343
0.00187876
0.000661943
-0.000985923
0.000323988
0.0571154
-0.0380828
0.001257
-0.0204182
-0.000931207
0.000862316
6.88844e-05
0.00273131
0.0101402
-0.00330401
0.00525042
-0.0224698
0.00211493
-0.0175347
0.0165645
-0.000947272
0.00112241
0.00155971
-0.023566
0.0220063
-1.30558e-05
-5.23401e-05
6.53991e-05
5.12688e-05
-5.53836e-06
3.16952e-05
2.34279e-05
-5.51296e-05
-7.63973e-06
2.60355e-05
-1.83889e-05
-0.000238733
-0.000346165
6.4733e-05
-0.00019796
0.0885967
0.0282204
-0.000702473
-0.000621665
0.00132414
-0.000469625
-0.000897468
6.08259e-05
0.000836644
0.00318375
0.0109325
4.04579e-05
1.00293e-05
0.00349611
-0.000374997
-9.01538e-05
-0.000746831
0.00242192
-0.00167509
4.94374e-05
-6.24951e-05
0.000149096
-9.31698e-05
9.63722e-05
-3.1988e-06
-0.000129993
8.53835e-05
4.27562e-05
3.11765e-05
0.000324964
-0.000345087
-0.00106689
-0.000539484
-3.05914e-05
-0.000866875
-0.00410909
0.00814341
-0.00403433
0.0450358
-0.0022814
-0.0427544
-5.46518e-05
1.18177e-05
4.28227e-05
0.0252699
-0.014605
-0.010665
-0.00115259
-0.000565046
-1.04785e-05
5.67874e-05
-0.00332395
-0.00172096
0.00504491
0.00111424
-0.00145152
0.000337271
7.82786e-05
-0.0141863
-0.000600072
0.0046312
-0.00550026
-0.010463
0.0106434
-6.3393e-06
-7.89484e-06
1.42344e-05
0.00721622
0.00191248
7.64268e-06
-2.92924e-05
2.16492e-05
7.64546e-05
-2.94064e-05
-4.70569e-05
0.000146577
-5.50915e-05
-2.83092e-05
-2.57022e-05
5.40238e-05
0.000378087
0.000102484
-0.000480582
-2.71795e-05
-4.90282e-05
0.00313863
-0.000193134
-0.000152224
-1.28083e-05
-8.03576e-05
-0.010545
0.00659839
0.000133116
-0.000122866
-1.02515e-05
9.41929e-06
8.88789e-05
-0.00658314
0.00196183
0.0046213
0.0107797
-0.00274619
0.000238195
1.8649e-05
-0.0017132
0.00096637
-0.00599457
-0.00136548
0.00736006
-0.00514522
0.00316896
9.2182e-05
-6.13789e-05
-1.21894e-05
9.97509e-06
-5.98218e-05
-0.00355696
0.0036168
1.13913e-05
-1.77293e-05
0.0112727
0.0139972
0.00101982
9.44114e-05
-0.0300757
0.0451362
-0.0150603
2.2268e-05
-3.08296e-05
-3.44076e-05
2.40491e-05
-1.31858e-05
-0.00047864
-4.30635e-05
6.50757e-05
-2.20103e-05
-0.00283129
0.00277147
-0.0150266
0.00409363
0.010933
-0.0169851
0.0185448
4.91563e-05
0.000108492
-0.000157648
-0.000615646
-0.0154346
-0.00460648
1.88278e-05
3.64624e-06
1.38176e-06
1.7864e-06
-0.000274455
-0.000403628
0.000678083
0.00856511
-0.000350861
-0.0002241
0.0198424
0.00333529
0.0117475
-0.0070011
-0.00193227
0.00129237
-0.0151506
0.00669384
-0.0334541
0.0108446
0.0226094
1.42994e-05
-5.18929e-05
3.75671e-05
-1.96216e-05
9.47763e-06
1.01442e-05
0.0148013
-0.0116065
-0.00319477
0.0636553
-0.0311929
-0.0324624
-0.000788812
-0.00280093
0.00216726
-0.01301
0.0108427
1.20553e-05
-0.000943264
0.00243412
-0.00415508
4.89491e-05
0.000276013
-9.96115e-07
2.28107e-05
-0.00998437
0.0240937
6.05952e-06
-3.28811e-05
0.0142541
-0.0120869
-0.00894551
0.0257313
6.82722e-06
0.000116051
-0.00404215
0.000316059
4.30386e-05
6.51259e-06
0.00538875
-0.0126401
-0.0216357
0.0342759
-0.00976057
0.029603
0.00452456
0.000284752
-0.0048093
4.32899e-06
-0.00171754
-0.00896123
-0.00170899
-0.0167216
0.00497942
-0.00821705
-0.0154884
0.0237054
5.07979e-05
3.70132e-05
-0.0451033
-0.0166684
-0.0222616
0.00472693
0.000221916
-0.000134713
-8.72313e-05
-0.0101486
0.000150795
-0.00112935
0.00113368
-0.00311803
0.00774923
-2.06997e-05
4.2228e-05
-2.15273e-05
-0.000575876
0.00234821
-1.32635e-05
-9.22987e-06
-0.00201531
0.00448859
-0.0024733
0.000338891
-0.000180318
-0.000158573
0.021456
-0.0186362
-0.00281979
0.0110217
-0.00263663
0.000894398
-0.000797118
-9.72813e-05
6.04364e-05
-0.00022951
0.000272362
-0.000107416
-1.9839e-05
-1.50054e-05
-0.0333843
0.0310537
0.00233058
-0.0498956
0.000967042
0.00267655
0.0172757
-0.000646347
0.00125187
-0.0103864
0.0116434
0.00132155
0.00320301
0.00189891
-0.000555729
0.00490328
-0.000204941
0.00130501
-0.000777272
-0.000527765
0.000210494
-2.06654e-05
1.44044e-05
-2.44574e-05
0.00363222
-0.00109598
-0.00253625
-0.000161548
-1.34038e-05
-6.93596e-05
1.63301e-05
-8.57487e-06
3.43888e-05
0.00574466
0.00358129
-0.009326
2.34803e-05
-2.57696e-05
2.28914e-06
-0.000327298
0.000229221
0.00695911
0.000700462
0.000268801
-0.02273
0.0135695
0.00800212
-0.0215716
-0.00446505
0.00287024
0.00159482
0.0227098
-0.0589205
0.00606245
-0.0136514
0.00758898
-0.00079303
0.00309243
-2.6795e-06
0.00803022
-0.0168003
-0.000787004
-0.000376503
0.0011635
-0.000780827
0.000539953
-0.00380504
0.00301619
-0.0082933
0.00428773
0.00400557
3.37168e-05
0.0135358
-0.000919153
-0.00566851
-0.0220301
0.00155007
-0.000110844
-0.028817
0.0515268
-3.215e-05
4.25186e-05
0.00418893
-0.000859623
-0.00332932
-0.00764447
0.00452644
0.000165823
-0.000236197
7.0372e-05
0.000343133
-0.000127845
0.000236127
-0.00034537
0.00044814
0.000446259
-0.00448094
-0.00936204
3.70283e-05
-2.83248e-05
-8.69907e-06
-0.0247607
0.000749934
-0.000600426
-0.000149513
-3.57455e-05
-1.4469e-05
2.8488e-05
4.79668e-05
-1.06332e-07
1.89407e-05
-1.88377e-05
-0.00853585
0.00663805
0.00189779
0.00013293
3.07728e-05
0.00063604
2.87787e-05
0.000254746
0.000126039
-8.18465e-05
-4.41923e-05
0.0609437
-0.00382828
5.49268e-05
-4.30622e-05
-1.18699e-05
-0.0101342
0.023373
-0.0132388
0.000263264
0.000284694
-0.000547957
-0.0024884
-2.3427e-05
4.63137e-05
0.00627648
0.000817919
1.14824e-05
-0.00613578
0.00493985
-0.00183735
0.00373453
-0.00189718
-0.0388865
0.0347478
-0.0125496
0.0147969
-0.00224721
6.98342e-05
0.00108138
-0.00309673
0.00228485
-0.0109259
0.00253002
0.00157016
-0.00410018
0.00638042
-0.00832387
-0.0125151
-0.0317955
0.0443105
-2.17586e-05
2.39209e-05
0.0152944
-0.0113976
4.98988e-05
-9.30729e-05
4.3158e-05
-0.00117081
0.00120403