/*--------------------------------*- C++ -*----------------------------------*\
| =========                 |                                                 |
| \\      /  F ield         | OpenFOAM: The Open Source CFD Toolbox           |
|  \\    /   O peration     | Version:  v2012                                 |
|   \\  /    A nd           | Website:  www.openfoam.com                      |
|    \\/     M anipulation  |                                                 |
\*---------------------------------------------------------------------------*/
FoamFile
{
    version     2.0;
    format      ascii;
    class       volScalarField;
    location    "50";
    object      k;
}
// * * * * * * * * * * * * * * * * * * * * * * * * * * * * * * * * * * * * * //

dimensions      [0 2 -2 0 0 0 0];


internalField   nonuniform List<scalar> 
18598
(
0.000403574
0.000265548
0.00017099
0.000233285
0.000150631
0.000162509
0.000453198
0.000148463
0.000140993
0.000193422
0.000137621
0.000101134
0.00015081
0.000232496
0.00032698
0.000130179
0.000169031
0.00575777
0.00442187
0.000139264
0.0056483
0.000142228
0.000205093
0.000138195
0.000143391
0.00455987
0.000139932
0.0496761
0.000147793
0.000139513
0.000151271
0.000140805
0.000239267
0.000137566
0.00160668
0.00014024
0.000167991
0.000143154
0.000173833
0.00130641
0.0508943
0.000140063
0.000143601
0.000172274
0.000140034
0.000194905
0.000146099
0.00191986
0.000169075
0.000148441
0.000241556
0.000148997
0.000151784
0.000247477
0.000152299
0.000140161
0.013514
0.0378672
0.0456766
0.00073519
0.000152662
0.000148938
0.000150847
0.000268799
0.000169818
0.000154833
0.000163934
0.000154342
0.000151136
0.000298688
0.000156651
0.000141856
0.000150935
0.000148085
0.00015089
0.000146154
0.000152229
0.000150272
0.000150481
0.000163011
0.000148227
0.000148798
0.000149791
0.000150472
0.000144842
0.00015089
0.000145505
0.00526046
0.00343926
0.0132528
0.000168326
0.000155245
0.000142353
0.000153611
0.000147913
0.00015261
0.000167545
0.000285764
0.000193056
0.000164271
0.0126139
0.0129232
0.00029783
0.00510162
0.00312763
0.000191665
0.000228414
0.000218387
0.000137026
0.0676575
0.00014715
0.00014763
0.000207411
0.000285781
0.000140986
0.00477062
0.000160799
0.000148168
0.000165615
0.000142945
0.00462132
0.000138269
0.00255957
0.000143261
0.000141925
0.000513067
0.00926395
0.000143089
0.000140113
0.0516992
0.000138335
0.0018269
0.00111596
0.00016453
0.000171653
0.000197537
0.00013991
0.000139285
0.000139332
0.0510952
0.000155322
0.000139997
0.000164643
0.00609561
0.000209471
0.000141357
0.00423259
0.000153129
0.00184065
0.000139791
0.000140836
0.059626
0.000161451
0.00280215
0.000155704
0.000153687
0.000160499
0.000218514
0.000147529
0.000145604
0.000194455
0.000304963
0.00022538
0.000154007
0.0350249
0.000343471
0.000232535
0.000149347
0.000149277
0.000147743
0.000160899
0.000707338
0.00987872
0.000296252
0.00781562
0.000910402
0.000209583
0.000497742
0.000142983
0.000143026
0.059005
0.000137911
0.00015904
0.0138741
0.00014481
0.000154511
0.0521384
0.000150869
0.000195265
0.000430696
0.000210352
0.000161493
0.000143067
0.0131243
0.000224879
0.000229225
0.000141736
0.000214124
0.000140413
0.00051994
0.000195639
0.000158201
0.000156644
0.000228627
0.000249292
0.000149556
0.000142171
0.00016711
0.000155847
0.00958977
0.00014979
0.00013757
0.000152333
0.000199878
0.00519048
0.000165029
0.0609142
0.00294657
0.000207009
0.000144014
0.000810764
0.000226715
0.00985607
0.000141716
0.000151845
0.000200871
0.000167368
0.0270176
0.000165053
0.000140573
0.00019663
0.00252858
0.000149771
0.000188248
0.00013968
0.000149864
0.000141075
0.000237385
0.000138204
0.000230668
0.000140703
0.000144679
0.000195018
0.000159298
0.000145506
0.000151668
0.00015122
0.000155398
0.000146682
0.000137766
0.0373856
0.000153537
0.000529502
0.000277298
0.000142177
0.000152089
0.000141408
0.000493305
0.00014104
0.0201948
0.000137479
0.000147369
0.000292945
0.000152114
0.00014134
0.000902665
0.000140302
0.000142618
0.000140112
0.000739425
0.000139976
0.000155862
0.0104628
0.000139983
0.000164297
0.0433978
0.000146166
0.00467826
0.0133065
0.000338526
0.000216077
0.00032992
0.000150813
0.000343466
0.00985584
0.000265181
0.0150424
0.000148301
0.00556028
0.0156752
0.000140273
0.000994251
0.000137605
0.000181911
0.0523317
0.000160653
0.000629297
0.000185994
0.000137696
0.00453339
0.000144606
0.000153385
0.00221386
0.000164604
0.000140182
0.000358311
0.000145821
0.000145956
0.000156338
0.000140154
0.000154722
0.00014137
0.000363226
0.000137444
0.000151704
0.00670877
0.000167167
0.000149077
0.00088613
0.000141412
0.000182192
0.000148198
0.0001385
0.000142836
0.000139517
0.000290255
0.000169223
0.000270912
0.000151331
0.00251556
0.000137002
0.0247858
0.000153323
0.0379545
0.000138043
0.0145371
0.000143122
0.000167402
0.0526977
0.000140285
0.000174377
0.000137369
0.00065843
0.000159551
0.000168278
0.000150122
0.000148938
0.000772468
0.000699844
0.00680652
0.000159544
0.00020185
0.000151815
0.00969845
0.00694233
0.000155009
0.0453635
0.000403444
0.000276119
0.000162026
0.000246021
0.000549798
0.000172414
0.000154794
0.055728
0.000147352
0.000445165
0.00014369
0.0388958
0.000142875
0.000152278
0.000163825
0.000140517
0.000143624
0.00336588
0.000141042
0.000153149
0.000143633
0.000145272
0.000159994
0.000154529
0.000282543
0.000278746
0.000144988
0.000165908
0.000229285
0.000151908
0.000154026
0.000254196
0.000157539
0.000143538
0.0680107
0.000158134
0.000268678
0.000264038
0.000149647
0.000140278
0.00091545
0.000275092
0.000140092
0.000149558
0.00014639
0.0001432
0.000161815
0.000198557
0.000510391
0.000146043
0.00994578
0.0001489
0.0342931
0.000216574
0.000141845
0.0506568
0.000471223
0.0158517
0.000155541
0.000839019
0.000178701
0.00129355
0.000251534
0.000137638
0.000149723
0.000142996
0.000140036
0.0522133
0.000304086
0.0127771
0.000143936
0.000149538
0.00015202
0.000150036
0.000151062
0.000140999
0.000152481
0.000265758
0.000155382
0.000140614
0.000140043
0.000138075
0.000148879
0.000151744
0.000138973
0.0502926
0.000221134
0.000153326
0.000163134
0.000149482
0.00014601
0.000148463
0.0448812
0.000143024
0.00013953
0.000148355
0.0446302
0.000147165
0.000143871
0.000150725
0.000140885
0.000155037
0.000145933
0.000479497
0.000144883
0.000137401
0.000138082
0.000139691
0.000137394
0.000154845
0.0599468
0.000144676
0.000138015
0.000142967
0.000143437
0.000137427
0.000167737
0.000155763
0.000147035
0.000158909
0.0001478
0.000150788
0.000149202
0.000197866
0.000153312
0.000162142
0.00014351
0.000141868
0.000354612
0.000206033
0.000140746
0.000222164
0.000276282
0.0113035
0.00685615
0.000195342
0.000139652
0.00298006
0.00180537
0.000139655
0.000162971
0.0116531
0.000202218
0.0388612
0.000263029
0.000151048
0.0538852
0.000148323
0.000149261
0.000140167
0.000138312
0.000266423
0.000155545
0.000139073
0.000165976
0.000144131
0.0689359
0.00141893
0.000363235
0.0393908
0.00516093
0.000139458
0.00014012
0.000477463
0.000170237
0.000520758
0.000225161
0.000157986
0.000148283
0.0134454
0.000189564
0.000198391
0.00014855
0.000149194
0.000138577
0.000140812
0.000151678
0.000150048
0.000139666
0.00217415
0.000145611
0.000140801
0.00103055
0.000202622
0.000128931
0.000149869
0.000213677
0.000714507
0.000168535
0.000152676
0.000325293
0.0365865
0.0588689
0.0139645
0.000139789
0.000151069
0.000147584
0.000221485
0.000138655
0.000183045
0.000140782
0.000138611
0.000138274
0.000138385
0.0378577
0.000547114
0.000173478
0.00804658
0.00158499
0.000144868
0.000286517
0.000144782
0.000139368
0.000195797
0.0399538
0.000143239
0.000168871
0.000141982
0.00013932
0.000143274
0.0538968
0.00015488
0.000151141
0.000139915
0.0439064
0.00207862
0.0209824
0.000169138
0.0001442
0.000149945
0.00865664
0.000530414
0.000147457
0.000143587
0.000138646
0.00013859
0.000163308
0.000150774
0.000169162
0.000203471
0.000138428
0.0060005
0.000144833
0.000190946
0.000149493
0.000143246
0.000150567
0.000138404
0.000142345
0.000379745
0.000193406
0.000281723
0.000153338
0.000188517
0.000152971
0.000333907
0.0197546
0.000139674
0.000138495
0.000144566
0.0403292
0.000147987
0.000159884
0.000138522
0.000260056
0.000607439
0.000140917
0.0128192
0.000137486
0.0498617
0.0437914
0.000166646
0.000139904
0.000158124
0.000145162
0.000188274
0.000180324
0.000151956
0.0121269
0.000168929
0.000154979
0.000823826
0.000164195
0.000180433
0.000144092
0.000273395
0.000210973
0.00429237
0.000145596
0.000158666
0.000293686
0.000146124
0.000141307
0.000159014
0.000147088
0.00849867
0.000184609
0.00538291
0.000303263
0.0104282
0.000138614
0.000282704
0.000142806
0.000144012
0.000139402
0.00457251
0.00014277
0.000141296
0.00015688
0.000144895
0.0013218
0.00015521
0.000173403
0.000139802
0.00013999
0.000141076
0.00049524
0.00650583
0.000144402
0.000144874
0.00366078
0.000312595
0.00788358
0.000165372
0.0323522
0.00015186
0.00617604
0.00182519
0.000147147
0.000138394
0.0467292
0.000181135
0.000136991
0.0525573
0.0196518
0.000252293
0.000155578
0.000159212
0.000141234
0.000202598
0.0126764
0.000201004
0.000147983
0.000180663
0.000199635
0.000140192
0.000775005
0.000153711
0.000139726
0.0428972
0.000144168
0.0548212
0.00014675
0.000141768
0.000142721
0.00015919
0.0355363
0.00832287
0.000149093
0.0367815
0.000140549
0.000142674
0.000151341
0.000180409
0.000144625
0.00013952
0.0363587
0.000150521
0.000142934
0.000146806
0.000599113
0.000173785
0.000735346
0.00291467
0.000152151
0.000155457
0.0475578
0.050946
0.000150093
0.000989353
0.000173171
0.000142543
0.000165882
0.000155955
0.000145694
0.000190771
0.000151453
0.000142421
0.000152519
0.0077067
0.00865118
0.000427463
0.000773787
0.000163083
0.000258607
0.000140396
0.000510607
0.000750635
0.000172194
0.000153181
0.000140089
0.000211815
0.000800228
0.000159546
0.000165989
0.000424889
0.000150273
7.30628e-05
0.000139534
0.00940553
0.00108975
0.000139463
0.000152137
0.000162079
0.000145582
0.000142481
0.000145912
0.000140307
0.000140269
0.000978608
0.000139103
0.00014464
0.000141198
0.000197563
0.0460207
0.000148998
0.00014367
0.000150896
0.000139943
0.0361704
0.000235532
0.00124296
0.000137619
0.000151382
0.00679815
0.000140335
0.000165068
0.000146279
0.000144998
0.000158435
0.000148634
0.000156346
0.000380114
0.000208642
0.000138401
0.000139917
0.000148642
0.000158519
0.000138322
0.000206622
0.000142404
0.00014058
0.000140246
0.000152385
0.000154169
0.000149672
0.000151572
0.000782658
0.000145567
0.000149853
0.000536738
0.0469169
0.0155261
0.000414265
0.0392526
0.000144707
0.000207106
0.000139483
0.000141151
0.000147236
0.000140387
0.000157096
0.000137568
0.0142965
0.000151273
0.000169236
0.000137864
0.000147363
0.000170732
0.000158762
0.00123861
0.00115615
0.00018663
0.000143924
0.000140024
0.000452445
0.00014116
0.00632635
0.00013956
0.000243096
0.000138373
0.000167125
0.000167426
0.0157739
0.000361347
0.000158092
0.00143647
0.000188657
0.0475575
0.0482514
0.000157178
0.00219654
0.000145359
0.000140391
0.000145729
0.000141467
0.000140966
0.000137565
0.0372568
0.000146185
0.000159525
0.000143283
0.000634405
0.000145066
0.0093587
0.000155372
0.000164056
0.000145579
0.000150891
0.000143539
0.000136994
0.000147032
0.000141877
0.000164015
0.000142965
0.000215386
0.0347218
0.000143985
0.00522267
0.000165
0.00013842
0.000240373
0.000158517
0.000143113
0.0128587
0.0124513
0.000196698
0.0209852
0.000145531
0.000212634
0.000141352
0.000145528
0.000152558
0.000143335
0.000153788
0.000150173
0.000166703
0.000151653
0.000143508
0.000249664
0.000151071
0.000147733
0.000213237
0.0456939
0.000137983
0.000160368
0.000222992
0.000190206
0.000145948
0.000150232
0.000186057
0.000147869
0.00373209
0.000157789
0.0660447
0.000144509
0.000142988
0.00015017
0.000156002
0.000139701
0.000184297
0.000420572
0.000227343
0.000139369
0.000951859
0.000250933
0.000141142
0.000144084
0.000141095
0.000140972
0.00179408
0.000154116
0.000886598
0.000249586
0.000149873
0.000264767
0.00373958
0.000146728
0.000152566
0.0404974
0.00591066
0.000201906
0.00582507
0.000156764
0.0002229
0.000141658
0.000140269
0.000390114
0.00014088
0.00600933
0.00224461
0.000144008
0.000139523
0.000194437
0.000140971
0.0121342
0.0486506
0.00137244
0.000186211
0.000159489
0.0466364
0.00169577
0.00115971
0.000152333
0.0100815
0.048753
0.00015205
0.0349894
0.000156828
0.000197441
0.000142027
0.000159799
0.000140043
0.000212958
0.00013771
0.000506762
0.000273392
0.000141318
0.000139768
0.00013948
0.000150517
0.00476763
0.00800714
0.0111057
0.000163912
0.000137563
0.000182109
0.000164835
0.000196965
0.000163543
0.000137959
0.000148301
0.000158818
0.000145032
0.000149043
0.000155722
0.000246368
0.000138283
0.000154514
0.0138164
0.0458173
0.00451837
0.000192452
0.0707298
0.000207129
0.000195022
0.000152802
0.0124029
0.000161263
0.000162401
0.000201812
0.000379101
0.00448243
0.00203913
0.0505655
0.000155816
0.0708815
0.000143586
0.000201137
0.000197555
0.000137911
0.000137528
0.000139567
0.000141363
0.0414225
0.000143724
0.000385264
0.000153042
0.000150317
0.00014564
0.000139643
0.000225462
0.000137674
0.000206204
0.000151985
0.000145815
0.000137567
0.0158922
0.000143508
0.000505267
0.000140392
0.00021074
0.000139845
0.0136942
0.00016817
0.000142062
0.000191562
0.000155558
0.00620664
0.000228472
0.00014705
0.000211116
0.0365771
0.00017257
0.00022532
0.0515654
0.000141577
0.000280536
0.000150819
0.000171317
0.000158106
0.0073332
0.0295904
0.000191413
0.0472641
0.00013825
0.000152281
0.0059241
0.000148909
0.0027247
0.000369521
0.000257922
0.000202301
0.000143818
0.000153854
0.0676046
0.000141178
0.000144494
0.000169966
0.000143202
0.000138345
0.00014736
0.000151911
0.00013988
0.000139345
0.00015449
0.00175831
0.000143602
0.00323641
0.000152228
0.000205418
0.000152647
0.0101682
0.0407489
0.000142244
0.000187362
0.0127099
0.000145904
0.0106256
0.000140994
0.000140692
0.000148793
0.000188246
0.000163615
0.000159184
0.000151965
0.0385209
0.000141418
0.00021955
0.0059648
0.000143658
0.000149796
0.000142327
0.00821096
0.000185692
0.000145662
0.0436372
0.000201042
0.000212583
0.000137832
0.00142196
0.000151203
0.000152577
0.000144573
0.0149967
0.00016331
0.000153125
0.000138823
0.000146419
0.000156414
0.000149249
0.00447702
0.00020643
0.000147647
0.000150619
0.00390608
0.000139449
0.000157805
0.000145506
0.000191214
0.000138497
0.000145848
0.000139825
0.000152081
0.00529311
0.000146773
0.000139433
0.000192107
0.000151122
0.000152045
0.000138816
0.000138759
0.000189909
0.000138822
0.00592769
0.000139714
0.000151715
0.000141832
0.000156733
0.0113259
0.000189319
0.000139159
0.000147559
0.000225118
0.000201486
0.00713397
0.000151529
0.000197601
0.000220096
0.000476794
0.000139715
0.0115233
0.000140237
0.000240245
0.000138522
0.00014813
0.000248177
0.000144852
0.000212788
0.0112657
0.000146988
0.00014198
0.000152312
0.000139711
0.0712043
0.000142017
0.000150147
0.000728149
0.000200735
0.000138772
0.0685555
0.000160457
0.000157922
0.000151584
0.000139897
0.000238324
0.000143073
0.000165641
0.000243535
0.0045195
0.000150874
0.000199155
0.00985121
0.000220407
0.000148285
0.000145003
0.000232997
0.000159183
0.0353241
0.047017
0.000309402
0.000146643
0.000181431
0.000143969
0.000452422
0.00704763
0.000144032
0.000193474
0.00015822
0.000168006
0.000140859
0.000225348
0.00016153
0.000151511
0.000760203
0.000139715
0.000143358
0.000627587
0.000152548
0.000148329
0.000150825
0.000144618
0.049539
0.000143019
0.000145747
0.000143064
0.000149291
0.000151302
0.000151684
0.00018695
0.0129487
0.000156055
0.000157907
0.000252909
0.000356943
0.000143798
0.0682453
0.00603139
0.0496734
0.000139733
0.000210661
0.000149691
0.000391529
0.000154787
0.000168693
0.000191437
0.000164076
0.00962606
0.000158621
0.000152042
0.00648678
0.00184681
0.00014665
0.000137649
0.018078
0.000155191
0.000241754
0.000143929
0.000139762
0.000140112
0.000139014
0.000158768
0.000158074
0.000154462
0.000138946
0.000142753
0.000147116
0.00120807
0.000143923
0.00731251
0.0446348
0.00847382
0.000152827
0.00266653
0.000173374
0.000140663
0.000690134
0.000147365
0.000183263
0.000176184
0.000149196
0.00292254
0.00128519
0.000144144
0.00013771
0.000145572
0.000179853
0.000242046
0.000340362
0.00019708
0.000141374
0.0511631
0.000140023
0.000151724
0.000176304
0.000267663
0.000146656
0.000151981
0.00015618
0.00023439
0.0070627
0.000167024
0.000148993
0.00906904
0.000144531
0.0001493
0.000140446
0.000194208
0.000146689
0.00030577
0.000137706
0.000484301
0.000321243
0.00021497
0.00016269
0.00308253
0.00021885
0.000140148
0.000140433
0.00513433
0.00017682
0.000149338
0.000162904
0.000138548
0.000193293
0.000140897
0.000151384
0.000142442
0.000236428
0.000143475
0.00780682
0.00017678
0.000139553
0.000143915
0.000164786
0.00014756
0.000863308
0.00117446
0.0369624
0.00204317
0.000143655
0.000255623
0.00317125
0.000139567
0.000172606
0.000241411
0.000138724
0.000155939
0.000189069
0.000307254
0.000297926
0.0001843
0.000150001
0.037339
0.00014174
0.000142221
0.0406934
0.000426708
0.000152111
0.00014738
0.000129824
0.000139067
0.000185182
0.000153416
0.000184154
0.000138291
0.000144553
0.000149277
0.000577451
0.000152638
0.0486582
0.000200356
0.00284434
0.000147222
0.000138065
0.00864679
0.00110451
0.00018476
0.000317585
0.00358594
0.000151918
0.00132097
0.000194162
0.000158842
0.000139769
0.000139587
0.00309455
0.000186226
0.00014085
0.000143714
0.000201374
0.0339521
0.000149652
0.000212706
0.000149392
0.00827756
0.000146913
0.000142146
0.000450684
0.00016005
0.000157391
0.00658188
0.000812049
0.000142221
0.000197868
0.000288372
0.000155696
0.031781
0.0676789
0.000147075
0.000141951
0.00255688
0.000145973
0.0402467
0.000158548
0.00106338
0.000161425
0.000150304
0.00014938
0.000139635
0.000232171
0.0438048
0.041462
0.000137719
0.000180712
0.000199862
0.00334981
0.000154619
0.000260661
0.000165117
0.000237025
0.0124358
0.00837441
0.00014376
0.000459256
0.0561463
0.0001401
0.000158602
0.000262333
0.000139484
0.000139233
0.0117494
0.000137803
0.0095836
0.00118655
0.000138368
0.00817887
0.000140287
0.000269432
0.00483107
0.000139574
0.000143588
0.000139488
0.000640948
0.000145653
0.000138875
0.000268545
0.000426129
0.000309399
0.000755435
0.000225802
0.0403751
0.000141624
0.00728784
0.000143554
0.000201433
0.00646913
0.0409772
0.0021586
0.000172736
0.0058134
0.000152518
0.000161636
0.000173934
0.000140379
0.0130628
0.000152302
0.00191579
0.000140915
0.000139801
0.000138767
0.000146388
0.0396421
0.000227047
0.00218776
0.0433248
0.000150095
0.000141499
0.000160303
0.000138988
0.000161448
0.00162911
0.000158414
0.00014943
0.000140233
0.055144
0.000147923
0.000162416
0.00142903
0.000189838
0.000137828
0.0708335
0.000149392
0.0428483
0.00643607
0.000150942
0.000144704
0.000145061
0.0446048
0.00358717
0.000240702
0.000159705
0.000151715
0.000145722
0.000184296
0.000439661
0.00014632
0.000645067
0.000145582
0.000150691
0.000155459
0.0132509
0.000174166
0.000400648
0.000186992
0.000195014
0.000588183
0.000144252
0.000140458
0.000138686
0.000214827
0.0001496
0.000143795
0.0333538
0.00014591
0.000143453
0.000144023
0.000143362
0.000139513
0.0029133
0.000137692
0.0595283
0.000142405
0.00852006
0.000143837
0.000153833
0.000155528
0.000158996
0.000140914
0.000141853
0.000152424
0.00015194
0.0555929
0.000167548
0.000202569
7.75025e-05
0.000157239
0.000141171
0.000916526
0.000367553
0.000138725
0.000142132
0.0121895
0.000589074
0.000139303
0.000411309
0.00093818
0.00031446
0.000239532
0.00829576
0.00126222
0.000147436
0.000143374
0.000139836
0.000211171
0.000144572
0.000141332
0.000138724
0.000137561
0.0142082
0.000148782
0.000162122
0.000156677
0.0482887
0.00014615
0.000156985
0.000188405
0.000137608
0.000149594
0.000179015
0.000294072
0.000167877
0.00693283
0.000163228
0.000137599
0.000143263
0.000140309
0.000158878
0.0105673
0.000143054
0.0001521
0.000323677
0.00622969
0.000143287
0.000161015
0.000187889
0.00179046
0.000163834
0.000195281
0.000189669
0.000154914
0.000140012
0.00017516
0.000175686
0.000177107
0.000163084
0.000152964
0.0131531
0.000244294
0.000425489
0.000265947
0.0013503
0.000143207
0.000157137
0.00134154
0.000189747
0.000157108
0.000140459
0.0378152
0.00592159
0.0354866
0.00015293
0.000137073
0.000140157
0.000148428
0.000139237
0.000695346
0.0472037
0.000161017
0.00014528
0.00014897
0.0520298
0.000291553
0.000154007
0.000143747
0.0560027
0.000141447
0.000143376
0.0231076
0.00416362
0.0408891
0.0095644
0.0361122
0.000314724
0.00015428
0.000152026
0.000173259
0.000117052
0.000149161
0.000285793
0.000140949
0.000147508
0.0352104
0.0001387
0.000393179
0.000164466
0.0444557
0.0111609
0.000143678
0.000199724
0.000146492
0.000600358
0.00014581
0.00969801
0.000164797
0.000288426
0.000152637
0.000157556
0.0251858
0.000147557
0.000152966
0.0400786
0.000157042
0.000138902
0.000190525
0.000215472
0.000141446
0.000145655
0.000141827
0.000137608
0.000145268
0.000198464
0.00014415
0.0602134
0.010398
0.000184633
0.000146093
0.00417804
0.000143236
0.00014208
0.000146156
0.000141379
0.000138665
0.000737293
0.000231403
0.000408118
0.000160265
0.000215992
0.000137619
0.0525003
0.000194619
0.0653193
0.000201701
0.000139902
0.000160616
0.0372176
0.000151846
0.000164239
0.000178856
0.000141077
0.000424725
0.000111011
0.0113131
0.000157061
0.000194351
0.0413845
0.00734101
0.000240296
0.00014381
0.000156716
0.000158564
0.0590522
0.000139868
0.000146057
0.000200789
0.0390075
0.000155274
0.000154721
0.000138348
0.000146281
0.00014238
0.000310983
0.000141406
0.000140206
0.000255119
0.00215247
0.000144762
0.000143989
0.000138102
0.000158346
0.0481032
0.000148292
0.00014937
0.000401299
0.0310528
0.00211424
0.000152504
0.0606682
0.00014701
0.000159799
0.000151166
0.000277519
0.00197116
0.000147689
0.000138833
0.0367642
0.0584347
0.00018872
0.000189053
0.000151069
0.000157267
0.000148749
0.00432888
0.00613453
0.000176832
0.000153062
0.00023111
0.000159974
0.000700285
0.000147926
0.000736012
0.000143844
0.000139628
0.000140718
0.000187283
0.000204005
0.0117706
0.000167468
0.000153392
0.000192503
0.000146253
0.000146521
0.000131423
0.000315566
0.000179309
0.000156681
0.000143004
0.000163551
0.0400587
0.000143557
0.000148384
0.000163001
0.000139767
0.000149341
0.000192959
0.00015227
0.000169726
0.00547769
0.000140034
0.000194119
0.000311754
0.000145197
0.000192834
0.0405659
0.000161935
0.000403708
0.000173889
0.000160322
0.000146071
0.000140679
0.00015824
0.000161538
0.000138809
0.0235543
0.000433465
0.000214352
0.000152553
0.00135592
0.000146594
0.000156857
0.000340172
0.000139217
0.000199351
0.000157236
0.0173572
0.00116994
0.000146408
0.000186113
0.000159202
0.000156171
0.0381536
0.000148145
0.000137586
0.0106426
0.000191137
0.000160394
0.000147982
0.000240219
0.000140412
0.000146073
0.000165531
0.00272139
0.000294501
0.000155215
0.000102934
0.0379868
0.000179263
0.012787
0.000925165
0.0001379
0.0067776
0.000143953
0.000147634
0.000161251
0.000295619
0.00014536
0.000138227
0.000177844
0.000865771
0.000157234
0.000161436
6.14205e-05
0.000152153
0.00014331
0.0436341
0.000140914
0.000168218
0.000151145
0.000162591
0.000152759
0.000222976
0.000165676
0.000146121
0.000148449
0.00280873
0.000270846
0.000140929
0.000301128
0.000153274
0.000421656
0.000142189
0.000137614
0.00475423
0.000342014
0.000182634
0.00013777
0.00014021
0.000144602
0.000141779
0.000140045
0.000150855
0.0413462
0.000166355
0.000176018
0.000148271
0.0218734
0.00218516
0.000157789
0.00360847
0.000144184
0.000150684
0.000160446
0.000163937
0.00183609
0.000239676
0.000148639
0.000176066
0.000158129
0.000146909
0.000152003
0.000192833
0.0582133
0.000175086
0.000321731
0.000160578
0.00053029
0.0118507
0.000274911
0.000145968
0.000172716
0.000261392
0.000159698
0.000137848
0.000159815
0.00626836
0.000111899
0.000966548
0.0034393
0.000163967
0.00663141
0.000140408
0.000150795
0.000152942
0.000488124
0.000161561
0.000145858
0.000150656
0.000142049
0.000154644
0.000672473
0.000144137
0.000517062
0.000176727
0.000158668
0.000158071
0.0113405
0.000177237
0.000148318
0.000144273
0.0110663
0.000215233
0.000502948
0.000152638
0.000152791
0.000147449
0.00140156
0.000139513
0.000140812
0.000153957
0.0381803
0.000464755
0.000143717
0.00904384
0.000138858
0.000148033
0.000254076
0.0374574
0.000156852
0.0029389
0.000157107
0.0369182
0.000226076
0.000147285
0.000416771
0.0539212
0.0001428
0.00019475
0.00014184
0.000143405
0.00015229
0.00016341
0.000156577
0.0416351
0.00741082
0.000147187
0.000143612
0.000183684
0.000722929
0.000151378
0.000147318
0.000137521
0.000181053
0.000144979
0.000469964
0.000153944
0.000145611
0.000151805
0.000179484
0.00708267
0.0560433
0.001687
0.048976
0.000216715
0.0153001
0.0539305
0.000194654
0.000337824
0.000159569
0.000187892
0.000145853
0.000185487
0.000196287
0.000140061
0.000395457
0.0331416
0.0114726
0.0119032
0.000148174
0.000142738
0.000143734
0.000182671
0.000163889
0.000148929
0.00106647
0.000144005
0.0509568
0.000150481
0.000159773
0.000156723
0.0073413
0.000242101
0.000209077
0.000141492
0.0147135
0.000251575
0.000140155
0.000152399
0.0172457
0.000204277
0.0048951
0.000146908
0.000192931
0.0109885
0.000252144
0.0039546
0.00192644
0.0058937
0.000199167
0.013581
0.000195693
0.00013944
0.00015667
0.000139365
0.000140811
0.00748025
0.00014132
0.00017022
0.000150458
0.0170555
0.0151389
0.000140045
0.000142509
0.000165258
0.000193923
0.000148644
0.000142684
0.000185068
0.0126081
0.050685
0.00019623
0.000204098
0.000180803
0.00073344
0.000147134
0.000137719
0.000176204
0.000156993
0.00017458
0.000147533
0.000233644
0.000284459
0.000157544
0.000176011
0.000189133
0.000194201
0.00482122
0.000142986
0.000138486
0.000154099
0.000139266
0.000187157
0.000198359
0.0376614
0.000139575
0.000289326
0.000160645
0.0419055
0.000304624
4.64208e-05
0.00014764
0.000153621
0.000148697
0.000148595
0.000139081
0.000218917
0.000251145
0.000196872
0.00249879
0.000181006
0.000139653
0.000147101
0.000161033
0.00179248
0.0146672
0.000138439
0.000138413
0.000229127
0.000143665
0.000141602
0.000200814
0.000261671
0.000140244
0.000159368
0.000203793
0.000719822
0.00014372
0.0626974
0.0638341
0.00386153
0.0453958
0.000164742
0.000190927
0.000147271
0.000141801
0.000151692
0.000139705
0.0360906
0.000144003
0.000246245
0.000146113
0.000159949
0.0100234
0.000147772
0.000138227
0.000148057
0.000147542
0.00103696
0.000145247
0.000147517
0.000169713
0.000147094
0.000162746
0.000231739
0.00281169
0.000505201
0.0129519
0.000187213
0.00015768
0.00284578
0.000327935
0.000153541
0.00031141
0.000187711
0.000249082
0.000201808
0.0493965
0.00014791
0.03695
0.00169794
0.000904159
0.0399022
0.000203177
0.000146227
0.000145454
0.000187896
0.000146155
0.00014758
0.000163603
0.0636462
0.00036137
0.000146392
0.000149625
0.000137464
0.000154085
0.000177382
0.00082315
0.0538336
0.000150257
0.000192881
0.00054807
0.037442
0.000147881
0.0232489
0.00472097
0.000204587
0.000262361
0.00101017
0.000139953
0.000163346
0.000141363
0.00014333
0.000150901
0.000140043
0.00014005
0.000105098
0.00022861
0.00149562
0.000174172
0.000185905
0.0601579
0.000140749
0.000309314
0.000150836
0.000156358
0.0133001
0.000149767
0.00014047
0.0011034
0.000151746
0.000151344
0.0411489
0.000141012
0.000171763
0.000376983
0.000149488
0.0300098
0.0387448
0.0360256
0.000143266
0.000188815
0.000141703
0.000138812
0.000149117
0.00174178
0.000140742
0.000177997
0.000153572
0.00017417
0.000390909
0.000330111
0.000250422
0.000162752
0.000152759
0.000139827
0.000169179
0.000140073
0.00074256
0.000147231
0.0380295
0.00272246
0.000668342
0.000152974
0.000141685
0.000425266
0.000386353
0.000205215
0.000149952
0.000147909
0.00297307
0.0114333
0.023591
0.000144324
0.000159549
0.027939
0.000144883
0.000140076
0.000151453
0.000147607
0.00014045
0.00014878
0.00015972
0.000139585
0.000143313
0.000143296
0.0002861
0.000156253
0.000186356
0.0264238
0.000186729
0.000417948
0.000146353
0.000283101
0.000137658
0.000153096
0.000158007
0.000533114
0.000197713
0.00042198
0.0122405
0.000173627
0.000143438
0.000168303
0.000275493
0.000186664
0.000169556
0.000144261
0.0208438
0.0546235
0.000147988
0.0129277
0.000149322
0.0517007
0.000151177
0.000156372
0.0553934
0.0377843
0.000140478
0.000373187
0.000254084
0.000165694
0.0253314
0.000163985
0.0609539
0.000162383
0.000165275
0.000188038
0.000936612
0.00161212
0.000189479
0.00015147
0.000151231
0.0393294
0.000144143
0.00013824
0.0333046
0.000143968
0.00019681
0.000216766
0.000152138
0.000170647
0.0366629
0.00579028
0.000151714
0.000234219
0.000163554
0.00215725
0.000318011
0.0001867
0.000144356
0.000141884
0.000152193
0.000148588
0.000143458
0.000170261
0.000193917
0.000156606
0.000146825
0.000143467
0.000138303
0.000161487
0.0487455
0.000150521
0.000166875
0.0403241
0.0575886
0.000147084
0.000142696
0.000176015
0.000153209
0.000138616
0.000150684
0.00016219
0.000727352
0.0486495
0.000157926
0.000144349
0.000147565
0.000141531
5.84015e-05
0.000138837
0.000144662
0.000147828
0.000190996
0.000138627
0.000521224
0.000154557
0.000505996
0.000138256
0.000347816
0.000171251
0.0364647
0.000199378
0.000138219
0.00014807
0.000165038
0.000170309
0.000140033
0.000138192
7.26599e-05
0.000154999
0.000146981
0.0400578
0.000155093
0.0423161
0.00013833
0.000144073
0.000186913
0.000140552
0.000224836
0.000491083
0.0582024
0.0326887
0.00220694
0.000517939
0.000197572
0.000151214
0.000163361
0.000210533
0.000153575
0.0540161
0.050099
0.00022925
0.000155754
0.000234799
0.00203893
0.000163523
0.000198352
0.000239436
0.00014557
0.000893963
0.000248632
0.00152785
0.000148824
0.00048341
0.000158078
0.000139694
0.000145646
0.000466898
0.000145082
0.0035645
0.000187573
0.000167667
0.00106343
0.000154619
0.000147193
0.000156472
0.000141089
0.0352735
0.000150557
0.000160936
0.0305124
0.000149093
0.000145794
0.000503776
0.000138124
0.000279628
0.0566718
0.000685178
0.000178855
0.00016145
0.000173901
0.000139972
0.000148782
0.0117381
0.000140556
0.000199843
0.00015797
0.000143817
0.000140155
0.000191062
0.000152435
0.000231981
0.000147911
0.000147101
0.00692358
0.0355167
0.000229076
0.00200733
0.000137728
0.000143628
0.00017776
0.0406026
0.00123623
0.0416025
0.000165001
0.0498537
0.00984855
0.000210398
0.000156179
0.000173205
0.0318679
0.000274438
0.000246808
0.00024777
0.0440779
0.000225542
0.00015397
0.000145125
0.000143985
0.000141617
0.00120884