/*--------------------------------*- C++ -*----------------------------------*\
| =========                 |                                                 |
| \\      /  F ield         | OpenFOAM: The Open Source CFD Toolbox           |
|  \\    /   O peration     | Version:  v2012                                 |
|   \\  /    A nd           | Website:  www.openfoam.com                      |
|    \\/     M anipulation  |                                                 |
\*---------------------------------------------------------------------------*/
FoamFile
{
    version     2.0;
    format      ascii;
    class       volScalarField;
    location    "50";
    object      omega;
}
// * * * * * * * * * * * * * * * * * * * * * * * * * * * * * * * * * * * * * //

dimensions      [0 0 -1 0 0 0 0];


internalField   nonuniform List<scalar> 
18598
(
0.313178
0.246401
0.0284966
0.0849673
0.0308928
0.0250824
0.32622
0.0219419
0.0208266
0.0324788
0.0206849
0.0179466
0.0225903
0.23047
0.256705
0.0204692
0.0301702
0.440023
0.383241
0.0217086
0.42864
0.0208896
0.0929521
0.0205349
0.0211635
0.388465
0.0212849
3.27298
0.0216084
0.0210377
0.264319
0.0208086
0.243932
0.0206731
0.210323
0.0213474
0.0309862
0.0211456
0.0400921
0.3087
3.3563
0.0212671
0.0211104
0.0381269
0.0214056
0.258337
0.0217041
0.418134
0.0349034
0.0216582
0.151949
0.0217541
0.0226116
0.0727488
0.0227271
0.0213505
0.554897
2.00719
2.37893
0.170423
0.022583
0.0221217
0.0223444
0.274332
0.0354548
0.0233298
0.0298146
0.023147
0.0224476
0.245136
0.0241353
0.0211181
0.0223517
0.0216367
0.0224357
0.0217397
0.0224682
0.0222801
0.0223655
0.0290329
0.0216271
0.0217206
0.0222909
0.0223551
0.0214682
0.022332
0.0216187
0.41975
0.516068
3.03813
0.0310901
0.0238511
0.0212016
0.0229534
0.0215825
0.0228363
0.0336019
0.234293
0.0318564
0.0288221
0.564149
0.54656
0.0799419
0.410472
1.5329
0.0541221
0.146346
0.148177
0.0205044
2.70474
0.0195774
0.0215473
0.0964398
0.0701843
0.0208173
0.384862
0.0274096
0.0219132
0.0218472
0.0210993
0.386795
0.0212257
0.322393
0.021086
0.0211261
0.348637
0.683985
0.0211064
0.0213161
3.99621
0.0212706
1.63861
0.292359
0.0308805
0.0373627
0.0574032
0.0212669
0.0212201
0.0212131
2.42882
0.0241
0.0210199
0.0278131
2.82436
0.0965505
0.0210252
1.70057
0.0228351
0.247851
0.0210081
0.0208029
2.46618
0.0235695
2.09615
0.0228331
0.0229669
0.023513
0.0280218
0.0215452
0.0213023
0.0552436
0.24053
0.138979
0.0232049
2.1261
0.112261
0.131284
0.0218787
0.0222352
0.0215991
0.0247118
0.225745
0.680736
0.137973
0.637204
0.28482
0.0443854
0.177643
0.0210946
0.0210933
4.50082
0.0207071
0.0256147
3.33969
0.0214772
0.0235563
2.43564
0.0224033
0.0724627
0.122048
0.0971161
0.0279373
0.0211124
0.570771
0.0474369
0.124324
0.0208107
0.0348272
0.0210693
0.211794
0.073525
0.0258417
0.023528
0.0593217
0.164532
0.0219078
0.0208644
0.030158
0.023408
0.705526
0.0219507
0.020667
0.0227181
0.0978106
0.652458
0.0314361
2.43869
0.473574
0.0914887
0.0213594
0.258358
0.13814
2.85973
0.020804
0.0225576
0.0324594
0.0333234
3.0997
0.0294312
0.021109
0.0790068
0.745885
0.0224091
0.031587
0.02103
0.0220333
0.0209441
0.0895403
0.0207531
0.0559129
0.0209201
0.0214663
0.0721254
0.0257766
0.0212896
0.0224767
0.0226731
0.0237188
0.0214056
0.0207227
2.00293
0.0226975
0.221019
0.0939573
0.021172
0.0225354
0.0209928
0.182337
0.0208143
2.9149
0.0207979
0.0217587
0.0998202
0.0224072
0.020985
0.156778
0.0213039
0.0210394
0.0212538
0.123606
0.0212459
0.0238501
2.19567
0.0212667
0.0299785
2.2028
0.021755
0.400691
0.729223
0.136117
0.14224
0.941308
0.0222872
0.112746
0.70555
0.260684
0.752807
0.0217356
0.600138
1.30091
0.0209206
0.172206
0.0206838
0.0330805
3.91759
0.0272739
0.186918
0.034194
0.0207005
0.393779
0.0215324
0.0227641
0.858002
0.0305429
0.0210686
0.169317
0.0213884
0.0213074
0.0229643
0.0209896
0.0234858
0.0209967
0.142772
0.0207534
0.0225009
0.638631
0.030116
0.0221615
0.205744
0.0209973
0.0296397
0.0220545
0.0208457
0.0211064
0.0216844
0.0654226
0.0347391
0.0859509
0.0223884
0.313516
0.0205015
3.10256
0.0228603
2.19541
0.0205247
2.47339
0.0213051
0.0293304
2.04344
0.0209433
0.0408814
0.0207236
0.23031
0.0235315
0.0242769
0.0223431
0.0217639
0.183757
0.257571
2.7378
0.0258684
0.103453
0.0224386
2.14974
2.73465
0.0238748
2.34913
0.0789468
0.197344
0.0265553
0.0660968
0.126632
0.0244149
0.0237688
2.51804
0.0215652
0.30828
0.0211283
2.28385
0.0211016
0.0226797
0.0272177
0.0209021
0.0213461
2.21283
0.0209508
0.0227536
0.0211308
0.0213513
0.0267541
0.0228847
0.103942
0.186446
0.0214794
0.032059
0.144542
0.0226771
0.0228912
0.0589449
0.0243768
0.021114
2.69614
0.0246485
0.0750908
0.107481
0.0219689
0.0212984
0.221482
0.212365
0.0211617
0.021915
0.0214734
0.0212771
0.026399
0.0318672
0.0934816
0.0214499
1.43771
0.0217534
2.04078
0.0359239
0.0210736
4.14028
0.383573
1.29698
0.0234189
0.147102
0.0414564
0.201192
0.0578204
0.0207102
0.0218847
0.0211148
0.0214159
1.98124
0.310543
0.568931
0.0214056
0.0218472
0.0225955
0.0217105
0.0223453
0.0209404
0.0228417
0.0690978
0.0240689
0.0209085
0.0213328
0.0205607
0.022046
0.0225657
0.0209147
1.91942
0.0495586
0.0228887
0.0267867
0.0216844
0.0213381
0.0492015
2.17558
0.0212927
0.0210118
0.0217467
2.18092
0.0214625
0.0213998
0.0222632
0.0208011
0.0238932
0.0217024
0.335225
0.0214578
0.0207081
0.0205517
0.0211661
0.0206973
0.0236458
2.57239
0.0214765
0.0207477
0.0212321
0.0213321
0.0207707
0.0295957
1.11525
0.0214465
0.0254721
0.0217938
0.0222873
0.0218081
0.0808102
0.0229042
0.0283838
0.0211191
0.0211378
0.137882
0.0904792
0.021034
0.0488842
1.34974
0.540276
2.79514
0.0729718
0.0212308
2.25887
2.10226
0.0212531
0.0251232
0.628348
0.0837044
4.92153
0.267756
0.0224758
3.60865
0.0217075
0.0221603
0.0210578
0.0205479
0.226096
0.0234011
0.0217452
0.0285809
0.0213856
2.78462
0.196665
0.13387
4.3074
0.758789
0.0209187
0.0209778
0.173972
0.0357456
0.186863
0.0285176
0.0257095
0.0216399
0.682677
0.0256623
0.077621
0.0217354
0.0218031
0.0208508
0.0209286
0.0223181
0.0222639
0.021107
0.286962
0.0213764
0.0209865
0.263821
0.100896
0.247683
0.0220147
0.103949
0.230277
0.0297879
0.0229159
0.105888
1.99776
4.48679
0.69886
0.0208806
0.0223565
0.0215559
0.107004
0.0209518
0.03718
0.0207071
0.02085
0.0207877
0.0208066
1.98537
0.195057
0.0402347
0.660672
0.368133
0.0214774
0.220235
0.021467
0.0209823
0.0571753
2.471
0.0212937
0.0317
0.0211138
0.0210446
0.0212938
2.66676
0.0232085
0.0224594
0.0208916
3.96756
0.380474
3.08236
0.0292366
0.0213878
0.0223259
0.463429
0.0837225
0.0215405
0.021072
0.0208559
0.020651
0.0292187
0.0224042
0.0304749
0.102848
0.020618
0.505
0.0214481
0.0355924
0.0218771
0.0210138
0.022226
0.0206205
0.0210202
0.0510732
0.0431756
0.104589
0.0226023
0.0510866
0.0225096
0.0413602
1.30463
0.0210915
0.0206379
0.0214408
2.82967
0.021587
0.02663
0.0206383
0.0587267
0.220141
0.0209605
3.23014
0.0207322
1.92297
2.17905
0.0328683
0.0209587
0.024614
0.0212615
0.0348966
0.0327187
0.022565
0.551876
0.0290475
0.0239536
0.151452
0.0275135
0.0326267
0.0214311
0.0324321
0.0937617
0.387788
0.0212548
0.0248368
0.136996
0.0214115
0.0210124
0.0254447
0.0214988
0.467623
0.0302006
2.7492
0.108404
1.02501
0.0206516
0.0346431
0.021049
0.0214181
0.0209898
0.382499
0.0212393
0.0209974
0.0238258
0.0215698
0.197693
0.0240114
0.0396908
0.0209222
0.0213053
0.021095
0.203487
0.5104
0.021451
0.0215849
0.657695
0.0396529
0.713152
0.0280427
2.57545
0.0223986
0.506711
0.549145
0.0219015
0.0208265
2.36383
0.0251593
0.0205069
4.11229
3.10629
0.0304936
0.0240516
0.0261391
0.0209941
0.0880173
0.568231
0.244189
0.0215872
0.0483456
0.0875565
0.0210366
0.213356
0.0227621
0.0209686
3.10174
0.0214402
4.40605
0.0214696
0.0210955
0.0212337
0.0238998
1.80779
1.79921
0.0218928
1.96998
0.0207784
0.020952
0.022406
0.0482524
0.0214653
0.0215306
1.96565
0.0223843
0.0211405
0.0214232
0.439807
0.0403155
0.162288
0.342009
0.022459
0.0240861
2.32409
4.30279
0.0222445
0.250472
0.0396566
0.0211506
0.0291653
0.02431
0.0216417
0.0683243
0.0224176
0.0211256
0.0226413
0.42776
0.545657
0.169484
0.278659
0.029129
0.0598864
0.0209738
0.164975
0.165447
0.0379487
0.0227702
0.0207361
0.0803829
0.177789
0.0247708
0.029144
0.154939
0.0220508
0.295146
0.0210422
0.713841
0.363559
0.0210367
0.0225349
0.0263505
0.0214955
0.0211802
0.0213059
0.0206864
0.0210351
0.111431
0.0209464
0.0214785
0.021061
0.0263258
2.33359
0.0217704
0.0214719
0.0221566
0.02073
2.03374
0.0600911
0.416598
0.0207047
0.0224307
0.519297
0.0208694
0.0306035
0.0213634
0.0214871
0.0251257
0.022101
0.024418
0.140477
0.0387305
0.0208243
0.0207133
0.0217178
0.025122
0.0217778
0.0386867
0.0211709
0.0207328
0.021022
0.0225206
0.0234148
0.021992
0.022463
0.265703
0.0216978
0.0220231
0.413568
2.33042
3.1912
0.175326
2.43599
0.0214757
0.0762887
0.0209914
0.0209781
0.0215163
0.0210301
0.0252246
0.0208385
0.929348
0.022691
0.0263223
0.0208254
0.0215162
0.0377205
0.0248537
0.80245
0.506843
0.0329214
0.0211764
0.0211969
0.314185
0.0209629
2.57295
0.0210337
0.146333
0.021761
0.0259747
0.0333809
0.961025
0.154554
0.0242178
0.203259
0.0330569
2.29236
2.33511
0.0231828
0.570275
0.0212324
0.0207653
0.0215419
0.0210311
0.0207269
0.0208168
1.83401
0.0216094
0.0259476
0.0212017
0.11621
0.0214956
2.92207
0.0239362
0.0241979
0.0212597
0.0224128
0.0209738
0.0205134
0.0214819
0.0210228
0.0297027
0.0211696
0.0443903
1.65955
0.0213489
0.575456
0.0305372
0.0208461
0.0297056
0.0259584
0.0210714
0.531139
0.52543
0.0781778
3.29938
0.0216433
0.0443831
0.0210165
0.0214978
0.0226701
0.0213142
0.0229514
0.0220279
0.0417105
0.0224611
0.0209603
0.062441
0.0221873
0.0219962
0.0348498
4.22004
0.0205267
0.0235582
0.0420388
0.0667682
0.0216937
0.0223572
0.0439808
0.0219921
0.51675
0.0255886
2.69251
0.0214318
0.021137
0.0224302
0.0242408
0.0209547
0.0426713
0.413269
0.215847
0.0208805
0.168232
0.0305851
0.0209864
0.0214273
0.0209512
0.0216019
1.82548
0.0234194
0.241353
0.0544977
0.0222614
0.0869021
0.520933
0.0215186
0.022951
2.33062
0.720521
0.100808
0.450295
0.0238396
0.0284308
0.0209763
0.0208956
0.156829
0.020822
0.454648
0.635892
0.0214147
0.0210158
0.0356998
0.0210874
0.644069
2.83057
0.337198
0.0369534
0.0233979
2.9971
1.01352
0.782407
0.0225177
1.44781
2.31696
0.0225634
2.28517
0.0229829
0.0791824
0.0211559
0.0241862
0.0207115
0.137644
0.0208274
0.298247
0.0810268
0.0209543
0.0212086
0.0210617
0.0223622
0.610691
0.439778
0.508549
0.0296754
0.126517
0.0352488
0.028333
0.041659
0.0274647
0.0208576
0.0221516
0.0231968
0.021572
0.0217805
0.0232221
0.231528
0.0207648
0.0234886
0.564967
2.29504
0.505434
0.0303796
2.77786
0.0875991
0.0878873
0.0227273
0.527024
0.0260318
0.028649
0.101324
0.043841
0.51285
0.707068
2.73828
0.0232141
2.74011
0.021174
0.100146
0.0794408
0.0205515
0.0207375
0.0210436
0.0209544
3.11602
0.0213773
0.160021
0.0230127
0.0223516
0.021509
0.0206526
0.0467759
0.020725
0.0270376
0.0225587
0.0215874
0.020664
0.997426
0.0211979
0.184684
0.0213512
0.0343173
0.0209709
0.562811
0.0338755
0.0211506
0.0312612
0.0226524
0.51558
0.128861
0.0215429
0.132887
2.04224
0.0364736
0.0794574
2.2096
0.0210344
0.221589
0.0221894
0.0385632
0.0257328
0.680357
2.64443
0.0674944
4.01707
0.0206029
0.02285
1.18779
0.0217633
0.445688
0.920258
0.0827084
0.0429486
0.021165
0.022843
2.63059
0.0211085
0.0214584
0.0352074
0.0209615
0.0206249
0.0215345
0.0224001
0.0206851
0.0214746
0.0237101
0.25341
0.0209906
0.504165
0.0226877
0.0390236
0.0219703
0.550334
2.68692
0.0211431
0.0493016
0.556705
0.021555
0.510512
0.0209454
0.021444
0.0217422
0.0392357
0.0293395
0.0250448
0.0224593
3.57624
0.0210403
0.155208
0.689829
0.0212056
0.0219375
0.0209366
0.478995
0.0255066
0.0215043
3.90894
0.079499
0.0442144
0.0205158
0.91311
0.0222811
0.0225876
0.0214683
0.987784
0.0272846
0.022979
0.0209537
0.0213816
0.0237201
0.0219159
0.561798
0.0337332
0.0215602
0.0221303
2.22087
0.0215498
0.0237641
0.0212443
0.0600405
0.0209035
0.0215315
0.0212249
0.0224731
0.511133
0.0213985
0.0210271
0.0307938
0.022207
0.021913
0.0206902
0.0206778
0.030488
0.0209011
0.443488
0.0216303
0.0223093
0.0210916
0.0240686
0.565986
0.0583847
0.021006
0.0215565
0.122688
0.100989
0.473755
0.022145
0.0566082
0.102528
0.166058
0.0210744
0.57047
0.0208622
0.0376301
0.0208568
0.0216606
0.0972552
0.0212406
0.220782
0.992711
0.0214291
0.0209902
0.0226248
0.021149
2.7622
0.020914
0.0222994
0.311429
0.0305484
0.0206739
2.66642
0.0242739
0.0248156
0.0221102
0.0207797
0.2109
0.0211474
0.0245022
0.0298939
0.734865
0.0221949
0.143606
1.02054
0.156109
0.0220656
0.0213426
0.0564303
0.0260731
3.55407
3.35715
0.216228
0.0215081
0.0537232
0.0213595
0.0773091
0.421166
0.0213844
0.0408146
0.0244122
0.0340601
0.020929
0.0547291
0.0260644
0.022261
0.151073
0.0209841
0.0213136
0.325003
0.0228122
0.0216424
0.0220319
0.0215458
3.96219
0.0212532
0.0215269
0.0210759
0.0218379
0.0222402
0.022752
0.0595262
3.00271
0.022841
0.0233145
0.100027
0.251497
0.0213901
2.86404
0.726548
3.67119
0.0209702
0.0324214
0.0219143
0.397177
0.023509
0.0303244
0.0307705
0.0297214
1.41698
0.0248745
0.0223977
0.625079
0.466588
0.0214051
0.0207327
3.15228
0.0231394
0.151726
0.0213351
0.020959
0.020859
0.0207086
0.023353
0.0246604
0.0233611
0.0208292
0.0210535
0.0214637
0.241737
0.0213413
0.695994
2.2492
0.713572
0.0225883
0.323737
0.0403821
0.0215418
0.27028
0.0219253
0.0448194
0.0463953
0.0217787
1.94439
0.214716
0.0213935
0.0207979
0.0216557
0.0422927
0.112142
0.124258
0.0935951
0.0210291
3.45212
0.0206813
0.0225177
0.0462828
0.262628
0.0214519
0.0225219
0.0229096
0.197461
0.751908
0.0298365
0.0217491
2.01855
0.0212165
0.0218287
0.0210505
0.0698901
0.021389
0.0908171
0.0207586
0.124271
0.0564524
0.0497946
0.0267362
0.35168
0.110264
0.0210433
0.0208921
0.786372
0.0472489
0.0221465
0.0270398
0.0206589
0.0731616
0.0211064
0.022323
0.0211674
0.104384
0.0212027
0.527667
0.0395171
0.0209258
0.0213583
0.0282401
0.0220045
0.0989156
0.188197
2.4336
0.404916
0.0214723
0.161145
0.483702
0.0210389
0.0398356
0.0296659
0.0206968
0.0236565
0.0624168
0.119027
0.0497821
0.0582573
0.021979
1.96557
0.0211086
0.0212098
2.42014
0.15082
0.0224498
0.021601
0.26461
0.0207212
0.0528602
0.0228187
0.0316338
0.0208355
0.0214083
0.0219271
0.381043
0.0228654
2.26927
0.0327329
0.555209
0.0217875
0.0207126
0.961549
0.153909
0.0466917
0.125364
0.495002
0.0223742
0.32511
0.0364442
0.0234115
0.0216097
0.021017
0.529327
0.0588804
0.0215496
0.0213646
0.094216
1.65396
0.0219774
0.100285
0.0221528
0.931679
0.0217608
0.0210573
0.0965603
0.0268928
0.0253829
0.856689
0.115465
0.0210073
0.0310609
0.241119
0.0232895
2.5864
2.77065
0.0214564
0.0209962
0.315549
0.0215537
3.36701
0.024731
0.13311
0.0260313
0.0221146
0.0218264
0.0209526
0.0400736
2.90093
2.45466
0.0206935
0.0288892
0.0902205
0.496378
0.0222107
0.212695
0.0252029
0.0435223
1.02845
0.47686
0.0211258
0.0645203
2.40292
0.0207458
0.0255124
0.190854
0.0210178
0.0207489
0.517704
0.0207061
0.496781
0.234429
0.0207113
0.641436
0.0213042
0.0875665
0.564655
0.021083
0.0214688
0.0210727
0.140833
0.0216891
0.0206374
0.0587425
0.0964302
0.275037
0.181961
0.162793
3.05956
0.0210561
0.636229
0.0213212
0.0958627
0.508263
2.61138
0.740726
0.041551
0.626768
0.022337
0.0280701
0.0288887
0.0208805
1.54782
0.0227131
0.261184
0.0210817
0.0215915
0.0206123
0.0214786
3.8569
0.0474808
0.441973
2.29426
0.0220691
0.0211754
0.34537
0.0208238
0.0261693
0.218699
0.025234
0.0218622
0.0207743
4.3893
0.0215769
0.0265737
0.190657
0.0646526
0.020699
2.80319
0.0219415
2.34735
0.872095
0.0225064
0.0213209
0.0213395
4.22227
0.935054
0.149424
0.0263987
0.0223255
0.02128
0.0454511
1.4136
0.0214848
0.426508
0.0212589
0.0221568
0.0235752
1.91317
0.0437362
0.396194
0.0418112
0.0369686
0.246516
0.0211998
0.02089
0.0206641
0.0502143
0.0218611
0.0213869
2.03402
0.0215019
0.0213572
0.0213063
0.0214453
0.0210278
0.464241
0.0207217
2.54447
0.0209975
0.495979
0.0215027
0.0230413
0.0229335
0.025568
0.0209407
0.0210659
0.0227451
0.0224011
2.14764
0.0308886
0.0598565
0.0850136
0.0251882
0.0211497
0.384253
0.0437602
0.0208654
0.0211666
1.00288
0.168331
0.0207791
0.111665
0.225276
0.107519
0.0504881
0.447527
0.253049
0.0215625
0.0212965
0.0209766
0.039165
0.0214325
0.0210184
0.0206941
0.0208224
0.633173
0.0218023
0.0263186
0.0249251
3.46527
0.0216076
0.0245833
0.0617099
0.0206891
0.0222788
0.0407599
0.260175
0.0312307
0.632893
0.0273788
0.0206707
0.0213119
0.0207654
0.0234169
0.553248
0.0221931
0.022428
0.20331
0.734708
0.021304
0.0266532
0.0626499
0.393314
0.0273388
0.0860051
0.0641792
0.0238495
0.0208296
0.0279117
0.0428331
0.0299587
0.0249325
0.0229694
0.560433
0.237646
0.0524042
0.056681
1.58782
0.021312
0.0242292
0.450292
0.0654092
0.0242788
0.0213863
3.11896
0.616337
3.06651
0.0227047
0.0205115
0.0212627
0.0216924
0.0209016
1.41525
4.07946
0.0266937
0.0216558
0.0217334
2.82917
0.200284
0.0230179
0.0213613
2.51246
0.0216907
0.0213537
2.79183
0.3872
2.07309
0.493333
2.4261
0.0493586
0.0234762
0.0227561
0.0408535
0.146905
0.0218156
0.0338582
0.0211157
0.0216011
2.54793
0.0206619
0.060532
0.0288018
2.22662
0.550464
0.0213893
0.0911657
0.0214902
0.117952
0.0212917
1.54864
0.030812
0.284091
0.022612
0.0248589
2.72059
0.0215232
0.0229435
2.51429
0.0247514
0.0207344
0.0284841
0.0958688
0.0210387
0.0212671
0.0211147
0.0206992
0.0214945
0.0950656
0.0213123
2.60505
0.944827
0.0572008
0.0213501
0.578855
0.0213174
0.0210991
0.0215196
0.0210482
0.0207708
0.115921
0.144632
0.2364
0.0255162
0.138495
0.0206953
2.44313
0.0860099
2.64301
0.0812374
0.0206946
0.0237191
1.9576
0.0225531
0.0276761
0.0288664
0.0215904
0.24058
0.0282654
1.98507
0.0247836
0.0285684
2.08608
0.469996
0.210415
0.0212977
0.0248749
0.0255184
2.25776
0.0206724
0.02156
0.0839708
3.12147
0.0229054
0.0227667
0.0214157
0.021728
0.0212005
0.0481097
0.0210281
0.0208643
0.182776
0.579789
0.021401
0.0213112
0.020736
0.0233438
2.25146
0.0217001
0.0218912
0.194523
2.99815
0.402005
0.022533
4.21375
0.021471
0.0264967
0.0223345
0.209741
0.535223
0.0216266
0.0206872
2.09695
2.26343
0.0286251
0.0298602
0.0223001
0.0243111
0.0217912
0.390625
0.45119
0.047885
0.0227023
0.187761
0.0228914
0.0670611
0.0217013
0.266345
0.0222953
0.0210584
0.0210734
0.0249715
0.10197
1.00743
0.0238131
0.0228563
0.030845
0.0214258
0.0217564
0.147082
0.303004
0.0249794
0.0243975
0.0212798
0.0281205
3.70912
0.021282
0.0217408
0.0242813
0.0207007
0.021925
0.0672394
0.0226509
0.0368101
0.546905
0.0208498
0.0292382
0.324906
0.0216828
0.0296016
2.65841
0.0238736
0.13725
0.0276864
0.0270589
0.0214556
0.0214635
0.0246006
0.0262224
0.0207118
1.54991
0.13732
0.027757
0.0220886
0.400933
0.0214527
0.022556
0.340901
0.0209564
0.0777996
0.0252225
1.31803
0.405596
0.0217617
0.0546543
0.0262008
0.0247213
1.99598
0.0217122
0.020592
0.633302
0.0667649
0.0261719
0.0216686
0.186727
0.0208794
0.0215203
0.0235502
0.459603
0.301229
0.0230886
0.0547294
4.1238
0.040597
0.535858
0.290635
0.0205104
0.509677
0.0214134
0.0215414
0.0275006
0.237719
0.0214286
0.0208199
0.0366941
0.739108
0.0244953
0.0276977
0.0889877
0.0226009
0.0213031
2.22644
0.0215449
0.0327557
0.022302
0.026597
0.0229447
0.154787
0.031093
0.0215615
0.0217535
0.34084
0.0327951
0.0215282
0.0980199
0.0228256
0.224676
0.0210134
0.0204953
0.840449
0.0548692
0.0556635
0.0205021
0.0208373
0.0215876
0.0210533
0.0215878
0.0224901
3.26495
0.0283002
0.0430751
0.0216539
2.84862
0.285178
0.025049
0.533595
0.0214233
0.0219298
0.0262456
0.0296985
0.315127
0.124747
0.0219156
0.0435156
0.0250319
0.0214183
0.0226321
0.0801441
2.58195
0.0258274
0.319946
0.0269719
0.117333
0.66598
0.0598784
0.0217701
0.0362219
0.0665418
0.0265574
0.0207808
0.0253747
0.566886
0.298206
0.254887
0.931181
0.0296168
1.26007
0.0209139
0.0222679
0.0226624
0.453791
0.023124
0.0217023
0.0222548
0.0211887
0.0222118
0.113207
0.0212711
0.495223
0.0441007
0.0258129
0.0255999
0.653377
0.0364753
0.0216743
0.0214302
1.05362
0.134679
0.228685
0.0228945
0.0228447
0.0215046
1.58799
0.0208939
0.0209406
0.0229716
2.19144
0.140687
0.0212943
1.01909
0.0207155
0.0218555
0.106473
2.47835
0.0236307
0.485412
0.0246209
2.84745
0.0369812
0.0215006
0.0622225
3.0249
0.0212492
0.0331563
0.0209843
0.0213352
0.0222895
0.0277356
0.0239246
2.62624
0.424267
0.0215754
0.0212095
0.0554654
0.1393
0.0223712
0.021592
0.0207975
0.0523714
0.021714
0.251492
0.0233201
0.0214541
0.0223324
0.0501767
1.30495
3.8789
0.347986
2.45662
0.0988044
0.742067
3.72534
0.0750318
0.32686
0.0265126
0.0613284
0.0214435
0.0604457
0.0892279
0.021179
0.0506598
3.05245
0.964952
0.519978
0.293964
0.0222915
0.0213746
0.0246017
0.0248123
0.0218604
0.212917
0.0212466
3.75229
0.0224374
0.0257774
0.0250212
0.519157
0.0736304
0.0891448
0.0210722
0.629264
0.244275
0.0209121
0.0227333
1.31832
0.0827051
1.26981
0.0214187
0.0331633
0.971832
0.232222
0.563248
0.421559
0.699228
0.0808695
1.29953
0.0754033
0.0210582
0.0242171
0.0210493
0.0208722
0.481712
0.0209415
0.0357723
0.0222169
1.29026
0.731566
0.0209334
0.0221581
0.0245677
0.0774469
0.02181
0.0209815
0.0248504
0.547212
2.50086
0.0750799
0.0327923
0.0524431
0.0789353
0.0219164
0.0204985
0.0459056
0.024712
0.0348337
0.0215747
0.125681
0.278635
0.0247138
0.0290832
0.0302932
0.0753043
0.834648
0.022297
0.0206309
0.0230618
0.0217342
0.0600368
0.0933105
2.10646
0.0208324
0.113566
0.0256925
2.58154
0.270464
0.270639
0.0216495
0.0229599
0.0217536
0.0217068
0.0207178
0.136575
0.0539869
0.0807009
0.44609
0.0290182
0.0209361
0.0214562
0.025813
0.679116
0.723152
0.0218651
0.0215086
0.17023
0.0213733
0.0211424
0.0693384
0.0382808
0.0215705
0.0250945
0.0682778
0.190475
0.0211586
4.3447
4.47855
0.655065
2.279
0.0303696
0.0651742
0.0215543
0.0209429
0.0223134
0.0216554
2.94119
0.0213438
0.0937845
0.021746
0.0267104
0.622645
0.0216887
0.0208915
0.0216814
0.0219535
0.247971
0.0215169
0.0215303
0.0363942
0.0214503
0.0287744
0.0862968
2.1515
0.0663275
1.21686
0.0388729
0.0244653
0.582269
0.125728
0.0228586
0.398451
0.0642437
0.256887
0.0938776
3.32069
0.0216739
2.16294
0.360581
0.210151
3.1226
0.0333637
0.0213549
0.0216908
0.0301686
0.0215294
0.0216113
0.0280348
2.60909
0.153527
0.0218119
0.0219518
0.0205949
0.0232208
0.038762
0.0858479
2.77608
0.0221592
0.0747204
0.117469
2.1091
0.0216927
1.51935
0.799189
0.104677
0.248454
0.187077
0.0209537
0.0291296
0.0215994
0.0211324
0.0225573
0.0213085
0.0207977
0.0153044
0.0869364
0.359905
0.0291796
0.0586675
4.24372
0.020949
0.149045
0.0221065
0.0243505
0.990046
0.0219116
0.0213216
0.301698
0.0224586
0.0223719
2.8231
0.02091
0.0359081
0.132084
0.0219518
2.94625
2.19727
2.08439
0.0213087
0.0326948
0.0210991
0.020832
0.021758
0.360401
0.0209922
0.0441915
0.0230567
0.0276505
0.444127
0.338603
0.0516013
0.0287024
0.0228105
0.0210387
0.0363034
0.0209173
0.223022
0.0214723
2.80557
0.432879
0.566305
0.0226838
0.958058
0.0997855
0.0701681
0.10417
0.0221809
0.0215775
0.398566
1.05568
2.54996
0.0214411
0.023662
2.98224
0.0213483
0.0213266
0.0224085
0.0216684
0.0209178
0.0218356
0.0243212
0.0207762
0.0222867
0.0219829
0.126188
0.0245182
0.0603943
2.80837
0.0620228
0.0854951
0.0214269
0.123252
0.0206805
0.0228189
0.0255277
1.25695
0.0293004
0.277097
0.980386
0.0396588
0.0223339
0.032599
0.226056
0.0239281
0.0351607
0.0212923
2.59633
2.39175
0.0215862
0.993863
0.0220448
2.82575
0.022339
0.0238308
2.17019
2.11779
0.0213362
0.0419422
0.243159
0.0309285
2.09521
0.0281701
4.36821
0.0241503
0.0308575
0.0545508
0.190577
0.67384
0.0839478
0.0222973
0.0227188
3.94222
0.0212802
0.0207685
3.10539
0.021418
0.0834362
0.0787239
0.0224766
0.037444
3.02267
0.614867
0.0225268
0.163034
0.0283625
0.736883
0.311193
0.0434403
0.0210907
0.0211131
0.0226934
0.0216921
0.0213379
0.0250945
0.07638
0.024348
0.021515
0.0213406
0.0205848
0.0239882
2.92246
0.0224261
0.0269587
2.82101
2.58176
0.0215332
0.0212413
0.0359752
0.0229197
0.0206674
0.0221152
0.0282323
0.566466
3.86352
0.0247931
0.0216023
0.0226339
0.0208896
0.0250722
0.0218056
0.0216332
0.0220365
0.0698991
0.0206612
1.32139
0.0232355
0.0970478
0.0207891
0.122612
0.038047
2.4708
0.0953086
0.0207854
0.0216499
0.0318573
0.0357548
0.0208549
0.0208457
1.02822
0.0235225
0.0214376
4.19596
0.0233734
2.4531
0.0208421
0.0214338
0.0438642
0.0209605
0.155363
0.252658
4.10452
4.08535
0.374982
1.04675
0.0791897
0.0225366
0.0299498
0.0332653
0.0233083
2.44485
2.48973
0.0296037
0.0242595
0.176682
0.319208
0.0270105
0.0921937
0.214364
0.0214231
0.255323
0.188058
0.3717
0.0217146
0.435873
0.0234583
0.0207837
0.0214843
0.0636206
0.0213917
0.491694
0.0632272
0.0332486
0.329972
0.0232702
0.0214976
0.0238064
0.0209758
3.74603
0.0222363
0.027115
3.71535
0.0218577
0.0214505
0.301456
0.0205478
0.0724135
2.73867
0.299021
0.0501723
0.0276436
0.0405253
0.0208362
0.0217048
1.23218
0.0210425
0.093005
0.0231883
0.0213567
0.0213376
0.0775756
0.0227945
0.0680746
0.0216581
0.0214486
0.435595
3.47169
0.166259
0.401768
0.0206308
0.0213834
0.0432385
2.90385
0.185779
2.50473
0.0312471
2.32768
1.2505
0.112968
0.024704
0.0403319
1.84376
0.0982018
0.22238
0.0741936
2.2809
0.117202
0.0232059
0.0215258
0.021384
0.0211395
0.540498
0.0218644
0.0738536
0.0216565
0.147587
0.021517
0.0373746
0.0223255
0.0216111
0.390963
0.0206445
0.0807649
0.0575278
3.01862
0.027628
0.282054
0.0224491
0.448962
0.0204363
0.022454
0.243252
0.0672182
0.0687753
0.0225948
0.0218011
0.0548622
0.0284848
0.0216267
0.0223981
1.60026
0.0619326
0.0220542
0.0223854
0.024818
0.0488456
2.65253
0.0238482
0.0210402
0.0535522
3.01873
0.0210682
0.0209435
2.91648
0.0608175
0.0236276
0.0212889
0.0227881
0.357013
0.0214277
0.0268843
0.0348715
0.0205323
0.0213535
0.126119
0.0226579
0.128362
3.03706
0.0533654
0.0214674
0.0214117
0.0206862
1.11798
0.0239139
0.240328
0.430568
0.0208473
0.0209561
0.0216974
0.0211054
0.112389
2.53824
0.0208963
2.90532
0.0754284
0.0230068
0.0207674
0.0213107
0.0260598
0.020777
0.0211718
0.100769
2.66223
0.0846895
0.0556479
0.202211
0.0907241
2.59216
0.404525
1.68775
0.0221108
0.139607
0.0737012
0.0210917
0.0230762
0.0604331
0.0321374
0.0214356
2.93266
0.534524
0.0234154
0.0666088
0.0214008
0.0311217
2.53061
0.149655
0.177344
2.55442
0.0272055
0.0292048
0.0212638
0.087175
0.0214946
0.821819
2.61977
2.81235
0.0209318
0.0219032
2.6307
0.369596
0.0208597
0.0205491
0.168744
1.12284
0.0214129
0.223
0.0281511
0.0354419
0.0215375
1.11525
0.108778
2.19032
2.87549
0.0366591
1.19518
2.53417
0.0214758
0.0230251
0.0215642
2.78716
0.0213042
0.0252739
2.98363
0.0252424
0.0249404
1.13683
0.0595409
0.0586914
0.0267652
0.0213259
0.0244331
0.0240216
0.398583
3.26444
0.603787
0.0287919
0.0252268
0.0207601
0.0242427
0.25731
0.0263718
0.0356483
0.0591724
0.0257458
0.0207979
0.0655472
0.206723
0.0222781
0.0213186
0.0932385
0.412208
0.0219987
0.0228507
0.104
0.0866983
0.0336677
0.0553662
2.45492
0.0244887
3.98171
0.0211758
0.0213447
0.122
1.17584
2.14344
0.138408
0.36769
2.06033
0.0210068
0.0256327
0.0216212
0.0317658
0.0277008
0.0303469
0.0360371
0.0248236
0.0218757
0.0155149
0.0214311
0.10443
0.0216563
0.188499
0.0248544
2.71928
0.0208303
2.08922
0.0219318
0.0223016
0.0208617
0.0214712
3.36595
2.96575
0.233802
0.0210682
0.021659
0.0555104
0.0337999
0.0277399
0.0288503
2.00163
0.0208462
0.087846
0.0245937
0.0318997
0.0237988
1.03017
0.0230508
0.0800338
0.0238809
0.0492718
0.0428981
2.62574
0.188255
0.0467134
2.54477
0.0272936
0.0286605
0.020662
2.5346
2.93914
4.46541
0.0254382
0.0608199
0.0638155
0.0216289
0.0297579
0.0223609
0.0249151
0.0699684
0.0364865
0.0812497
0.0217388
0.0282603
0.134889
0.0236927
0.078544
0.0846197
0.0860361
0.0218432
2.40518
0.181086
0.0221649
0.0280344
0.0782827
0.441526
0.228694
0.0247939
0.0215723
0.0281004
2.68085
0.209855
2.17608
0.0599435
0.0230797
0.0346864
0.0528155
0.0279983
0.056508
2.19944
0.132866
0.267293
0.0723438
2.09841
0.1649
0.023694
0.0874454
1.045
0.0208807
0.0330025
0.0432822
0.0227542
0.0278703
0.0371959
2.29376
0.0304168
0.181371
2.32407
0.0292769
2.69386
0.0224114
4.31821
2.96636
0.0223476
0.0214915
2.89048
0.0217705
0.195388
0.0213178
0.0209779
0.0215363
0.0214923
0.441278
0.0244581
0.0435613
0.0315503
0.164721
0.219809
1.73406
0.0207208
0.0208749
0.0968295
0.0541366
0.02591
0.0214751
1.97708
0.0212894
1.82837
0.0266325
0.0499891
0.0214788
0.0283215
0.0227235
2.49542
0.020831
1.1009
0.0214632
0.900457
0.0209319
0.031314
2.79443
0.0254922
2.92805
2.76985
0.0389695
0.0212135
0.0740207
0.0208782
0.0631811
0.0284353
0.022079
3.80173
1.00904
0.0210248
0.0231913
0.024454
0.0615792
0.0215589
0.0208827
0.0217886
0.0894761
1.85506
0.0212996
0.0229922
0.0213293
3.01578
0.0244937
0.029031
0.0206422
0.0232629
0.023124
0.0378339
0.0235892
0.753447
0.0213755
0.347002
0.0207893
0.0302154
0.0208495
0.0264009
0.0249369
0.0444752
0.0232907
3.04219
0.067462
0.021374
0.0205408
0.0209287
0.0238798
0.0228145
0.0240595
0.0282555
0.022243
0.0247172
0.0213674
0.0236277
2.15139
2.32278
0.0240038
0.0254039
0.0211182
0.0510215
2.87456
0.0211818
0.0221487
0.020634
0.040919
1.75701
4.16813
0.0220687
2.40601
0.0211232
0.0242888
0.191069
0.065644
0.0205768
0.167128
0.0224719
0.0213163
0.0233149
0.0216377
0.748621
0.0207782
0.020922
0.0281973
0.023537
1.7682
2.88691
0.0243286
0.0214146
2.46589
0.0241797
0.0214122
0.68935
0.0226406
0.0410779
0.0229882
2.37823
0.0207791
0.0334145
0.0214105
0.0811448
0.0215733
0.0241967
0.926278
3.06904
0.0846637
0.0208775
0.0606088
0.0247844
0.0220035
0.184827
0.021476
1.56379
0.126983
0.0283052
0.0215931
0.0488328
0.0208398
0.0216544
0.913776
0.349539
0.0219157
2.22507
0.022053
0.100517
0.0244302
0.0208328
2.14165
2.11249
0.940938
0.0525287
0.178182
0.0345176
0.0246538
2.78718
0.0231199
0.303519
0.0532642
0.049771
0.0336117
2.6859
0.160769
0.0244571
2.24842
0.0299098
0.154088
0.0211391
0.0211752
2.49449
0.022159
1.31225
0.0241576
0.0234214
0.109982
0.0220296
0.0271502
0.021495
0.44841
2.01574
0.93457
0.0218354
0.12159
0.0590395
2.17796
0.0285568
0.0242089
0.0217672
0.0213216
0.0240646
0.183783
0.0209242
0.0495622
0.0231398
0.0213827
0.179327
0.826795
0.0563915
0.0580473
0.0216597
0.145791
0.0561756
0.125857
0.0241452
0.032441
0.0237318
0.989703
0.0213822
0.0215313
0.0357557
0.220217
0.151216
2.30665
0.0245186
0.0270782
0.0371367
0.0209635
0.0233295
0.0528384
0.028889
0.0206911
0.0218649
0.189474
0.0206163
0.0315844
0.0209331
0.023357
0.023722
0.0214937
0.0223607
0.0263142
0.0226845
0.0641891
0.0211575
0.0230415
0.0308862
0.0212132
0.0300471
0.0215049
0.0219667
0.0216815
0.0217021
0.0212974
0.0772307
0.0242382
0.0242528
0.0253429