/*--------------------------------*- C++ -*----------------------------------*\
| =========                 |                                                 |
| \\      /  F ield         | OpenFOAM: The Open Source CFD Toolbox           |
|  \\    /   O peration     | Version:  v2012                                 |
|   \\  /    A nd           | Website:  www.openfoam.com                      |
|    \\/     M anipulation  |                                                 |
\*---------------------------------------------------------------------------*/
FoamFile
{
    version     2.0;
    format      ascii;
    class       surfaceScalarField;
    location    "50";
    object      phi_0;
}
// * * * * * * * * * * * * * * * * * * * * * * * * * * * * * * * * * * * * * //

dimensions      [0 3 -1 0 0 0 0];
oriented        oriented;


internalField   nonuniform List<scalar> 
27642
(
-0.144508
0.0384768
0.106031
-0.109486
0.0326611
0.0768247
0.34525
-0.373093
0.0278434
-0.105936
-0.169329
0.275265
0.391649
-0.0463991
0.467258
-0.0315226
-0.435735
-0.106913
0.19332
-0.0864069
-0.555366
0.555366
0.493597
-0.396443
-0.0971534
0.434246
-0.38447
-0.049776
0.334796
-0.568854
0.234058
0.0636878
0.299264
-0.362951
-0.351776
0.492482
-0.140706
0.126769
-0.0528522
-0.0739164
0.0313173
-0.147876
0.116558
0.364568
-0.30088
-0.239617
0.315508
-0.0758906
0.424172
-0.331256
-0.0929157
-0.214532
-0.127621
0.342153
-0.532345
0.326343
0.206003
0.334424
0.0897477
0.52775
-0.245411
-0.282339
0.18222
-0.0662496
-0.115971
0.186832
0.272
-0.458832
0.149787
0.248614
-0.398401
0.119334
-0.333865
0.551712
-0.311056
-0.240656
-0.0170314
0.00192496
0.0151065
-0.196175
0.415894
-0.219719
-0.218167
0.520037
-0.30187
-0.11319
0.357161
0.136435
-0.000253636
-0.109232
0.50878
-0.173984
-0.405165
0.0790879
0.326078
0.28556
0.170002
-0.455562
0.341176
-0.212966
-0.12821
-0.259056
0.408843
-0.0135034
0.210342
-0.196838
0.36709
-0.0293814
-0.337708
-0.00707586
-0.00995557
0.365659
0.132662
-0.498322
0.138616
-0.416227
0.277611
-0.210213
0.19671
-0.230777
0.534305
-0.303528
0.100606
0.0261624
-0.478087
-0.0268004
0.504888
0.0411465
0.325943
0.266347
-0.0733784
-0.192969
0.263308
0.0868068
-0.350115
-0.0351538
0.161527
-0.126373
0.292104
-0.404055
0.11195
0.148074
-0.469566
0.321492
0.321083
-0.137604
-0.18348
-0.0560751
0.277533
-0.221458
-0.230578
0.516138
0.107988
-0.355155
0.247168
0.00324716
-0.00337321
0.000126048
-0.00664313
0.0333506
-0.0267074
-0.510439
0.328981
0.181458
0.140757
0.187921
-0.328678
0.532994
-0.347071
-0.185923
0.46579
-0.317716
0.112695
-0.131448
0.0187523
0.252694
0.0136536
-0.285841
-0.0907988
0.37664
-0.0753267
-0.181603
0.25693
0.0672705
-0.353111
-0.535782
0.266276
0.269507
-0.136628
0.12034
0.0162881
0.085894
-0.314707
0.228813
-0.497059
0.171253
0.325806
0.317037
-0.0513486
0.155438
-0.351613
0.247343
-0.529273
0.28193
-0.555823
0.264827
0.290996
-0.208463
0.349221
-0.43262
0.340748
0.0918727
-0.416476
-0.0161445
0.0680156
-0.250189
0.182173
-0.119742
0.38305
0.378911
-0.536469
0.279712
0.256758
-0.375339
-0.160443
-0.106606
-0.273332
0.379938
0.0525469
0.26449
-0.453262
-0.0248252
0.476246
-0.141822
-0.19614
-0.085027
0.281167
0.0749056
0.0169066
-0.0918122
0.181983
0.159193
-0.165697
-0.218063
0.383759
0.234619
0.189807
-0.424425
0.325472
-0.163981
-0.16149
0.219026
-0.338768
-0.254505
0.19843
0.240221
-0.256097
0.0158763
-0.1298
-0.00682839
0.105005
0.32924
-0.100313
0.266137
-0.165824
0.363471
-0.255483
-0.239604
-0.115552
0.00894244
-0.29665
0.287708
0.337287
0.138959
0.0662625
0.107017
-0.173279
0.263227
-0.0449129
-0.218314
0.126504
-0.145453
0.0189482
-0.117604
0.147196
-0.0295914
0.402277
0.0550373
-0.457315
0.00861894
-0.0646593
0.0560404
0.0471248
0.317443
-0.200829
0.419855
0.16771
0.0145104
0.29538
-0.286438
0.496282
-0.13912
0.224287
0.127805
-0.352092
-0.0720783
0.245547
-0.173469
-0.479535
0.0760994
0.403435
-0.296501
0.343626
0.271715
-0.416553
0.144838
-0.179894
0.404181
-0.32785
0.429282
-0.101431
-0.120448
0.434065
-0.313617
0.421473
-0.282858
-0.348597
-0.148461
0.0733409
-0.172434
0.0990933
0.245934
-0.398849
0.152916
0.396391
-0.124676
0.499442
-0.133783
-0.00694943
-0.0389835
0.0459329
0.203185
-0.531035
-0.0970321
0.118679
-0.0216465
0.446998
-0.226128
-0.22087
-0.175484
0.204019
-0.0285355
-0.213212
0.00299911
-0.303955
0.289148
0.0148073
0.223472
0.32824
0.385679
-0.440118
0.0544385
-0.0755871
0.461266
0.0261331
-0.0517551
0.025622
-0.229909
0.302945
-0.073036
0.23168
0.220975
-0.452655
-0.126553
0.336721
-0.210168
-0.127438
0.0497116
0.0777266
0.148491
0.00147752
-0.149968
-0.267098
-0.186554
0.453652
0.148844
-0.0825818
-0.453068
0.473365
-0.0202972
-0.339327
-0.0658381
-0.247991
0.479671
0.313831
0.182451
0.16111
-0.0998575
-0.0612525
0.595996
-0.357464
-0.238532
-0.0132628
-0.0908077
0.104071
-0.449023
0.305147
0.143875
0.129833
0.195638
0.248134
0.347862
-0.504276
0.186321
0.317955
0.150786
-0.398308
0.247522
0.408388
-0.165535
-0.242853
-0.259394
-0.0445609
-0.0313483
-0.116527
0.153584
-0.0270797
-0.45239
0.100614
0.0108791
-0.00848117
-0.00239796
0.356459
-0.354083
-0.00237633
0.156638
-0.0231185
-0.13352
0.218957
-0.323142
0.104186
-0.355397
-0.181072
0.132768
0.283126
0.467258
0.229672
0.217326
-0.386192
0.329182
0.0570094
-0.0601762
0.270539
-0.210362
-0.339338
-0.046854
0.0470514
-0.286211
0.23916
-0.129061
-0.21305
0.342111
0.32821
-0.281159
0.229024
0.167367
-0.13931
0.368334
0.0564528
-0.0107147
0.529178
-0.2338
-0.295378
-0.279919
0.227494
0.0524243
-0.115942
0.0925563
0.0233859
0.131144
0.272711
-0.403855
0.231154
-0.396851
0.0497304
-0.0235972
-0.343148
0.506893
-0.163745
0.165929
-0.167581
0.00165209
0.358877
-0.00241813
-0.0899504
0.154039
-0.0640891
0.165125
-0.237204
-0.254551
-0.162001
0.243949
0.119522
0.190922
-0.319983
0.023113
0.133525
-0.232483
0.532023
-0.29954
0.134066
-0.429833
0.295767
0.115548
0.253771
-0.369319
0.143045
0.089051
-0.232096
0.179725
-0.17704
-0.00268505
-0.246958
0.215949
0.0310082
0.456153
-0.202488
-0.253665
0.475986
-0.221934
-0.254052
0.0878959
-0.12305
0.219894
-0.322283
0.102389
0.295267
0.370228
-0.188245
0.257003
0.19915
0.357922
-0.111989
-0.0943715
0.314266
0.184145
0.324635
0.0385826
-0.284912
0.24633
0.0177042
-0.134429
0.116725
0.0894756
-0.285615
-0.210726
0.0352429
0.0987017
0.0624084
0.112279
-0.333243
0.220963
-0.203572
0.113622
0.454095
-0.416526
-0.0375685
0.0929681
0.235242
-0.125657
0.143455
-0.0177981
0.109742
-0.0348368
0.258557
0.273465
0.339085
-0.300503
0.44321
-0.309144
0.222505
0.0177157
-0.0600422
-0.0105037
0.0705458
0.157704
-0.258017
-0.293745
0.409293
0.156822
-0.0316242
-0.125197
0.0935011
-0.113871
0.0203697
0.235207
-0.459846
0.224638
-0.217717
-0.166753
-0.466158
-0.223954
0.31347
-0.0895164
-0.45343
0.186332
0.122241
-0.228177
0.498675
-0.214378
-0.284297
0.230251
0.245735
0.445442
-0.164613
-0.280829
-0.263347
0.394492
-0.000466209
0.166395
-0.257934
-0.0219848
0.168495
0.239893
-0.0818145
-0.226071
0.307885
-0.517507
0.237328
0.280179
-0.306741
0.08421
0.222531
-0.395331
0.130966
0.264365
0.433272
-0.418948
-0.0143243
0.00105266
0.0021945
0.166658
-0.465601
0.298943
-0.0969347
0.23998
0.240124
0.00179244
-0.241917
-0.262671
0.49729
-0.240319
-0.0995061
0.339825
0.460466
-0.41782
-0.042646
-0.240922
0.333891
0.46743
-0.153599
0.00290521
-0.0806538
0.0777486
0.403755
0.106637
-0.510392
-0.137134
-0.418232
-0.0332469
0.273371
0.489322
-0.322664
0.106445
0.354021
0.373332
-0.158641
-0.214691
-0.375998
-0.0861102
0.462108
0.14939
0.270442
-0.419832
0.546152
-0.38245
-0.163702
0.129015
0.244317
-0.416181
-0.0135934
0.429775
-0.220847
0.103322
-0.0409337
-0.0623885
-0.00652123
-0.40966
0.219946
-0.233061
0.0131149
0.00900624
0.000503133
-0.00950937
-0.363914
-0.12987
0.493785
0.395215
-0.057928
0.41814
-0.0889578
0.327188
-0.11512
-0.212068
-0.0016622
-0.115942
0.101717
-0.0996926
-0.00202433
0.303641
0.162149
0.475345
-0.245673
0.262768
0.0951539
0.00411687
0.108578
0.13231
0.28583
-0.333807
0.245942
0.0878644
0.375068
-0.291794
-0.0832732
-0.215094
0.109436
0.105659
-0.549093
0.164618
0.384475
0.549691
-0.353057
-0.196634
-0.208194
-0.36066
0.15953
-0.344458
0.184927
0.0237061
-0.0306555
0.0886825
0.156865
-0.231449
-0.0500971
0.281546
0.349325
-0.189795
-0.0655005
0.498772
0.342852
0.0523633
-0.506901
0.287479
0.219422
-0.435795
0.0926472
0.114146
-0.0206451
-0.248841
0.173515
0.570053
-0.396629
-0.173424
0.0288077
-0.260257
-0.228716
-0.152779
0.381495
0.136472
-0.40637
0.269899
-0.152593
-0.29643
0.398942
0.171111
-0.23255
0.31676
0.204643
0.190629
-0.395272
0.104427
0.222761
0.0220224
0.381732
0.0927
0.246385
0.23765
0.137418
0.161729
0.208499
-0.30865
0.491262
-0.182612
0.222374
-0.526545
0.304171
-0.213177
-0.444888
0.322348
0.12254
-0.435734
0.0718193
-0.219576
-0.222226
0.441802
0.274341
0.137935
-0.412275
-0.238327
-0.294018
0.341595
-0.335751
-0.00584361
0.00405137
0.172292
-0.176344
0.253411
-0.253027
0.345727
-0.396134
0.275686
-0.0925372
0.494815
-0.0949525
0.0349104
-0.368342
-0.0847254
0.00105786
-0.00410605
0.00304819
0.466301
-0.279469
0.0884332
-0.085528
0.528974
-0.353708
-0.175265
-0.344192
0.104575
-0.096284
0.221171
-0.124887
-0.15015
0.195544
0.0147977
-0.339617
0.473516
-0.133899
-0.216498
-0.0535604
0.270058
-0.30865
0.44848
-0.13983
0.0188473
-0.376311
-0.440035
0.131385
0.334444
-0.12079
-0.213653
-0.288065
0.0088643
-0.225362
-0.115459
0.0891512
0.0263077
0.0966464
-0.294622
0.197975
0.1305
-0.112796
0.0967903
-0.337109
0.0350148
0.0683073
-0.0728081
-0.0546301
0.191752
-0.267711
0.0759585
0.0207759
-0.027419
0.275992
0.0656023
0.0645182
0.0641359
-0.128654
0.338045
-0.103283
-0.234762
-0.13095
0.331459
-0.200509
0.228381
0.130497
-0.298636
0.317484
0.176073
-0.250201
0.0741273
-0.0645637
-0.00112728
0.065691
-0.246757
0.379525
-0.159206
0.0522937
0.43793
-0.319277
-0.118653
-0.00354023
0.00459809
-0.403748
0.149197
0.0865221
-0.282584
0.196062
-0.113895
-0.212901
0.326796
-0.182495
0.472823
-0.290329
0.358727
0.201697
0.0173618
-0.114394
-0.429453
0.330874
0.0985783
0.595591
-0.177863
-0.417727
0.502702
-0.141103
-0.3616
-0.143117
-0.2435
0.386618
0.245316
-0.156633
0.261436
0.176545
-0.437981
-0.253981
0.0818837
0.172097
0.152414
0.268892
-0.375497
-0.167003
-0.0334301
0.200433
0.0279276
-0.298308
-0.171258
0.363473
0.232118
-0.294448
0.402756
-0.108308
0.200982
-0.294583
0.0936012
0.280845
0.157085
-0.0540637
0.0626826
0.295952
-0.0949706
0.190133
-0.265278
0.205102
0.204811
-0.30809
0.10328
-0.389591
-0.221533
-0.305012
0.153311
-0.13613
-0.0171806
0.149524
-0.103327
0.464052
-0.170879
-0.293173
0.554484
-0.427353
-0.127131
0.209519
0.128527
0.290381
0.152829
-0.10737
0.181688
0.282365
0.0847002
0.125643
-0.210343
0.12083
0.213613
0.00571552
0.00516361
-0.132859
-0.296974
-0.147093
0.460389
-0.313296
0.00534636
0.0463547
-0.051701
-0.087286
0.160627
-0.079564
-0.13553
-0.210068
0.445275
0.391049
0.251382
-0.0401466
-0.211235
-0.314975
0.384636
-0.353984
0.0595356
0.579179
-0.313539
-0.26564
-0.211551
-0.106631
0.318182
-0.129408
-0.461355
0.0540972
-0.150381
0.0880385
-0.0553774
0.373822
-0.112301
-0.261521
0.14786
-0.455775
0.307915
-0.312428
0.100877
0.281718
-0.195196
0.475177
-0.166057
-0.30912
-0.314034
0.246081
0.067953
-0.466043
0.181266
0.284776
-0.283886
-0.153722
0.437608
0.14569
0.18577
0.254922
-0.0631695
0.262947
0.151854
0.261353
0.156271
-0.417625
-0.479535
-0.133853
0.381196
-0.182877
0.484675
-0.301798
-0.182892
0.189515
-0.00662242
0.437238
-0.206987
0.0981969
-0.329165
0.230968
-0.288779
0.338363
-0.0495847
0.183577
0.2916
0.285986
-0.451521
-0.219178
-0.108035
0.327213
-0.00673229
0.0090468
-0.00231451
0.29688
0.232094
0.51845
-0.23139
-0.28706
-0.252947
-0.0808597
-0.0102364
0.00350415
0.389741
-0.357874
-0.0318669
0.455502
-0.307641
-0.292225
0.229977
0.0622487
0.174252
0.293178
-0.0916372
-0.185529
-0.370293
0.118489
0.0748301
-0.0132053
0.4673
0.431074
0.0277323
-0.458806
0.421805
-0.160451
-0.21739
0.497517
-0.280128
0.453097
0.0771433
-0.255589
0.178446
-0.00890053
-0.0556632
0.278426
0.119838
-0.398265
0.223382
0.305796
-0.35257
0.48649
-0.133921
0.166693
-0.480028
0.313335
0.200854
-0.54047
-0.171057
-0.173135
0.0884541
0.0251316
0.36461
0.289258
-0.192612
0.128216
0.427151
-0.257733
-0.0344918
0.253244
-0.392901
0.139657
0.137153
0.0196687
0.429818
-0.0362377
-0.393581
0.233141
0.183425
0.019001
-0.335769
0.316768
-0.192964
-0.161119
-0.0550814
-0.308659
0.32766
0.185568
0.25167
-0.015942
-0.0837506
0.383093
-0.185326
-0.197768
-0.0594536
-0.0311557
0.0906094
0.0121436
-0.449068
0.442546
0.029532
-0.0889857
-0.066712
0.05077
-0.524655
0.0918625
-0.476371
0.384509
-0.45364
0.213313
0.240327
-0.0919375
0.205559
0.013232
-0.0546246
-0.076823
0.463757
-0.123009
0.00698945
-0.0140653
-0.153142
0.378968
-0.225826
0.30716
0.225833
0.474746
-0.189633
0.461633
-0.0387717
-0.0750991
-0.380596
0.09671
-0.0614867
0.387829
-0.29761
0.258544
0.130101
-0.388645
-0.0679931
0.00333379
0.0648486
-0.379824
-0.323476
0.130512
0.00993691
0.00329505
-0.169862
0.284619
-0.114757
0.0203063
-0.33756
0.317254
-0.288353
-0.182604
0.271859
0.167387
-0.163336
0.0770559
-0.25966
-0.155692
-0.348584
-0.0997681
-0.147189
-0.0983811
-0.260216
0.358597
-0.437533
0.273497
0.164037
-0.194804
0.45495
-0.260146
-0.145143
0.053206
0.16901
-0.322152
0.218134
-0.338925
-0.52198
0.262931
0.259049
0.269991
-0.434604
0.332332
0.15699
-0.292238
-0.124238
0.496322
-0.221377
-0.274946
0.0947374
-0.371834
-0.181579
-0.26076
0.442339
0.510602
-0.250273
0.117927
-0.132329
0.0144025
-0.0965132
0.0944889
-0.113314
0.318124
0.165164
-0.163687
0.145644
-0.298201
0.152557
0.22156
0.0939483
0.40423
-0.435753
0.0459689
-0.342619
-0.00430781
0.00168075
0.00262706
0.0458266
0.0106262
-0.348354
-0.0891796
-0.27774
-0.193406
0.471147
-0.0840574
0.392291
-0.289348
-0.102943
-0.000183157
0.168896
-0.168712
-0.486608
0.178047
0.308561
0.2136
-0.321049
0.107449
-0.300593
-0.117112
0.417705
-0.206001
-0.315979
0.221437
0.277238
0.545986
-0.32455
0.000857322
-0.00423053
-0.206129
0.283185
-0.177346
0.206049
-0.028703
-0.1612
0.275907
-0.315796
0.0398889
0.391882
-0.11917
0.121963
0.118549
-0.513652
0.379914
0.133737
0.0038331
0.0633073
-0.0121877
-0.0511196
0.265642
-0.409092
0.14345
-0.215729
0.00276251
-0.185127
0.483545
-0.298418
-0.514958
0.202224
0.312734
-0.13609
0.401732
-0.0732682
0.0270743
0.0461938
-0.263996
-0.183772
0.447769
0.111565
-0.458636
0.194448
-0.472188
-0.0536497
0.0668685
-0.0132188
0.343688
-0.231408
-0.0730011
0.0624974
0.406292
-0.315238
-0.0910539
-0.123337
0.381881
-0.160323
-0.382389
0.296345
0.0860442
0.433174
-0.116906
-0.316268
0.288277
0.104014
0.309302
-0.406687
0.0973856
-0.330664
0.111088
0.272842
-0.434373
0.161531
0.087838
-0.269441
-0.439399
-0.00796939
0.447369
-0.310482
0.137347
0.134037
-0.0161103
-0.234815
-0.189204
0.424018
0.157765
-0.382453
0.224688
0.481625
-0.253159
-0.228466
0.406112
-0.0567866
0.403507
-0.150263
-0.177149
0.486451
-0.161441
-0.264242
0.425683
-0.411575
0.176761
0.425354
-0.275964
0.126542
-0.458711
0.332169
-0.307475
0.0882971
-0.0756858
-0.178295
0.486758
-0.154426
0.194064
-0.238977
0.351551
0.135207
-0.316033
0.442574
-0.120098
0.280526
0.207654
0.288668
0.259664
-0.430404
0.17074
0.290602
0.191023
-0.00933859
0.00766882
0.00166977
-0.125004
0.382679
-0.257675
0.0774071
0.167909
-0.151911
-0.332736
0.0926667
0.240069
-0.25969
0.262753
-0.444332
-0.0662306
-0.291013
-0.188754
0.479767
-0.128795
-0.0012302
-0.19328
0.0262773
0.464378
-0.182439
-0.281939
0.190675
0.105278
-0.222915
0.39141
0.28375
0.122362
0.383847
-0.0935407
-0.290306
0.199904
0.14349
0.26666
0.139632
-0.00370849
-0.2262
0.45978
-0.14183
-0.31795
0.230238
0.106483
0.0393888
-0.424634
0.341515
0.0831194
0.132375
-0.453121
0.320746
-0.15787
0.157687
-0.206671
0.326005
0.381538
-0.245066
0.276964
-0.0862894
0.258083
0.0124553
-0.352302
0.199524
0.493469
-0.176784
-0.316685
0.0952674
0.193991
0.105365
-0.355159
0.249794
-0.309143
-0.0732461
-0.339883
0.02148
-0.112288
-0.310811
0.260714
-0.267522
0.104753
0.162768
-0.157562
-0.144311
0.460554
-0.316243
-0.142962
0.413404
-0.459875
0.332924
0.126951
0.344797
0.17524
-0.210532
0.338336
0.395964
-0.413567
0.0176037
-0.149006
0.37292
-0.223914
-0.262387
0.354249
-0.3391
-0.167801
-0.104237
0.434573
-0.330336
0.117749
0.185196
0.216237
-0.0206932
0.270972
-0.463899
0.152844
0.516447
-0.36474
-0.151706
0.0351034
-0.321315
0.401915
-0.24415
-0.125945
0.397948
-0.272003
0.490619
-0.345675
-0.144943
0.274332
-0.0419034
-0.232428
-0.460344
0.369744
-0.254873
-0.334812
0.220917
0.0222428
0.0410645
0.319808
-0.134749
-0.185059
0.137356
0.264559
0.0896408
-0.113715
-0.148255
0.339985
0.0348217
-0.00147112
0.321754
-0.424721
0.102967
0.387819
-0.480356
-0.0336371
-0.052577
-0.0423756
0.466054
-0.341881
-0.124173
0.14846
0.115955
-0.264415
0.252218
-0.174811
-0.366763
0.217757
-0.0985114
0.0322618
0.111865
0.261957
-0.086758
0.125235
-0.31802
0.219639
-0.293
0.114519
0.178481
-0.0754337
-0.235377
0.289872
0.175384
-0.465256
-0.233144
0.0173185
0.215825
-0.296606
-0.168995
0.319704
-0.487452
0.167747
0.0807903
-0.0717304
-0.380894
-0.0437405
0.0562811
-0.0104545
0.335349
-0.229984
0.327996
-0.475089
0.395158
0.000805153
-0.381271
0.117274
-0.012266
0.15598
-0.143714
0.10139
0.0127566
0.217469
0.0983832
0.00349256
-0.00243989
0.487597
-0.313345
-0.422561
-0.329792
0.231433
0.0983583
-0.125078
-0.167922
-0.39147
0.128122
0.362313
-0.0129073
-0.349406
-0.000815251
0.506214
-0.184753
-0.32146
0.276235
0.1347
-0.410936
-0.323184
-0.0721474
-0.0773125
0.16299
-0.0856776
0.210858
0.005379
-0.11806
0.447041
-0.127633
-0.268501
0.215751
0.0921035
-0.307854
0.173691
0.0812304
0.0155664
0.0192553
-0.0120957
-0.0470403
0.0591359
0.475665
-0.276646
-0.199018
0.0335123
0.499994
-0.205769
-0.294224
0.355994
-0.194265
-0.0887214
0.262413
-0.425216
-0.0258162
0.451032
0.136606
0.0196274
-0.156233
-0.313039
0.0869683
0.299474
0.20052
-0.169519
-0.292744
0.386584
-0.0938401
0.408182
-0.212386
-0.195796
-0.299822
0.202888
-0.0376972
-0.195446
-0.157911
-0.0922781
0.0700202
0.179332
0.26397
-0.443302
0.288463
-0.142819
-0.334498
0.430541
-0.142286
-0.0709264
-0.017028
-0.374908
0.391936
-0.291275
0.464962
-0.173687
-0.23465
0.222096
0.0125542
-0.452558
-0.282726
-0.0832739
0.366
0.157243
0.198751
-0.20823
-0.031981
0.240211
0.398358
-0.24986
-0.148499
-0.0420523
-0.0551689
0.0972212
-0.489493
0.189766
0.299726
-0.101226
0.363995
-0.173894
0.245376
-0.0714819
0.313137
-0.501175
0.188039
0.460159
-0.156518
0.0471287
-0.335907
-0.395367
0.131874
0.263493
0.454687
-0.111408
-0.343279
0.135727
0.258208
-0.393935
0.27815
0.150726
-0.428876
0.272511
0.147587
-0.420099
0.108537
-0.412581
0.304044
0.277825
-0.460702
0.103527
-0.456096
0.407932
-0.228601
0.249344
-0.444149
-0.0304029
0.0667013
-0.0362984
-0.410959
0.177839
0.23312
0.517796
-0.346556
-0.17124
0.213093
0.0939299
-0.307023
-0.468093
0.176818
-0.000967575
0.00362905
-0.00266147
0.357071
-0.211381
0.0547472
-0.228641
0.370985
-0.0837107
0.424511
-0.287154
0.184243
-0.473279
0.289035
0.253898
-0.129285
-0.124613
0.416952
-0.422417
0.303246
0.288555
-0.193287
-0.259024
-0.169368
0.428392
0.146963
-0.257003
0.11004
0.0235033
-0.231733
-0.354555
0.114537
0.240018
-0.170569
0.469006
-0.298437
0.304366
0.160596
-0.23113
0.351961
0.0941545
0.1944
-0.219078
-0.256795
0.475873
0.0960476
-0.338761
0.242714
0.156698
0.297989
0.395415
-0.117264
0.290905
0.154945
-0.445849
0.293627
-0.0778767
0.382593
-0.280119
-0.102474
0.0828579
-0.306811
-0.0816057
-0.104163
-0.194038
-0.315375
0.486471
-0.171096
0.0828998
0.23057
0.0509104
-0.0929627
-0.0538768
0.0234739
0.0230888
0.0638972
-0.086986
-0.100742
-0.19908
0.0270228
0.0316244
-0.0586472
-0.113044
-0.0266314
-0.208019
-0.168855
0.184079
0.249474
-0.433553
-0.204373
0.399359
-0.126848
0.155023
0.0883264
0.435802
-0.0840154
-0.351786
0.30123
-0.0220695
-0.279161
-0.139863
-0.377644
0.296405
0.138768
-0.435173
-0.339684
0.419272
-0.0795874
0.16663
-0.367458
-0.160182
-0.0217198
0.181902
0.111759
0.165205
-0.163479
0.101355
0.0621239
-0.222063
0.228126
-0.00606216
0.355909
-0.117614
-0.238295
0.437217
-0.161738
-0.275479
-0.487214
0.343462
0.143752
-0.0539447
-0.373946
-0.055507
-0.0298113
-0.0856476
-0.304914
-0.184578
0.138408
0.289977
-0.509055
-0.0770769
0.373482
-0.164647
-0.0275511
0.192198
-0.034934
0.336164
0.130008
0.158455
0.083717
0.253324
-0.337041
-0.408208
0.303971
0.142086
0.213823
0.0309282
-0.0153618
0.0428617
-0.0236064
0.111328
-0.419979
-0.145024
0.145196
-0.000172229
0.112154
-0.335672
0.223519
0.181876
0.305721
-0.112798
-0.236326
0.349124
-0.460428
0.157846
0.302582
0.132685
-0.433278
0.00938755
0.426414
-0.154528
0.142262
0.531472
-0.33275
-0.198722
-0.0671272
-0.105989
-0.262105
0.368094
0.132484
0.327297
-0.336986
-0.0854312
0.109918
0.219168
-0.0707072
0.154401
-0.441211
0.28681
0.342266
-0.230113
0.165449
0.48236
-0.301876
-0.180484
0.504599
-0.11678
0.37255
-0.205921
-0.0645612
0.364035
0.027743
0.192203
0.279285
-0.385274
0.21116
-0.306956
0.0957964
-0.120514
0.163562
-0.0430481
0.479255
-0.136907
-0.342348
0.0535736
-0.343225
0.289651
0.109466
0.144432
0.229225
-0.451452
-0.442518
0.105185
0.337333
0.211701
0.140372
-0.352073
0.278511
-0.321706
-0.254817
0.139567
-0.00241393
-0.0515692
0.0746579
0.192358
0.28177
-0.474128
0.395264
-0.209696
-0.304882
-0.136255
0.441136
-0.369412
0.295422
0.07399
-0.332185
0.232679
0.277501
0.134677
-0.412178
-0.231843
0.318331
-0.0864881
0.156917
0.241441
-0.0963155
0.221479
0.0864058
0.175193
0.307167
0.157362
0.199709
-0.304709
0.186451
0.118259
-0.147433
0.41226
-0.435503
0.152631
0.282873
-0.0683641
0.0562685
0.149858
0.316443
0.448551
-0.294151
0.12261
-0.359418
0.236808
-0.00726209
0.143868
0.355278
-0.279178
-0.374634
0.11561
-0.0489099
-0.155738
0.204648
-0.243737
0.436095
-0.263581
0.317155
-0.143933
0.355634
-0.0736273
0.0675836
0.00604363
-0.306825
0.473518
-0.399545
0.140489
0.230095
0.262918
-0.485359
0.296027
0.189332
-0.213517
0.164607
-0.123634
0.10656
0.0170741
-0.027601
-0.117423
0.507881
-0.172814
-0.335068
0.116825
-0.469882
-0.310143
0.243972
0.249497
-0.118361
-0.135168
-0.358024
0.498426
-0.140403
0.0888673
0.277091
0.105501
0.289214
-0.0132216
0.372364
-0.279698
0.205179
0.270486
-0.260193
0.261986
0.297229
-0.374657
0.0774281
-0.136158
0.373564
-0.237405
-0.508421
0.279598
0.228824
-0.00596987
0.00987921
-0.00390934
0.238535
0.0310422
-0.269577
-0.0772238
-0.0551055
0.0490979
-0.328976
0.279878
0.358272
-0.274555
0.429088
-0.323903
0.302117
-0.366678
0.4612
-0.266752
-0.146302
0.250728
-0.0778465
-0.318597
0.26328
-0.214183
0.100942
-0.270804
-0.122851
0.213536
-0.244394
0.340441
0.277013
0.239433
-0.180144
0.0410655
-0.0756354
0.0345699
0.011402
0.277812
-0.269037
0.349892
-0.0808545
0.164793
0.283759
0.0116584
-0.00973347
-0.13682
-0.0266594
-0.164531
0.0790999
0.0854314
0.136022
0.157605
0.228375
-0.143675
0.0341245
0.00873716
-0.298132
0.206626
0.0915065
-0.00977335
0.00129218
0.453733
-0.288941
0.139492
7.47016e-05
-0.451771
0.14894
0.302831
-0.479392
0.276904
0.459542
-0.155176
-0.0900368
0.126173
-0.0361365
-0.471651
0.233153
0.238498
0.161346
-0.0664539
-0.0948919
0.137891
-0.275495
0.398779
-0.0253413
-0.373438
0.277797
-0.495187
0.485244
-0.172108
0.26924
0.236974
-0.296791
0.270276
0.0265157
0.0781897
-0.370933
0.114596
-0.350064
-0.0905316
-0.14253
0.295641
-0.165633
-0.321229
0.0521916
0.331676
-0.174433
-0.325238
0.112188
0.336668
-0.128917
-0.207751
0.0426595
-0.382344
0.0995518
-0.414927
0.139101
-0.424541
0.28544
-0.372963
-0.0522523
-0.16148
-0.24948
-0.0327843
0.462603
0.094349
0.0320734
-0.126422
0.305838
0.137257
-0.443094
0.244537
-0.167394
-0.345926
0.233625
-0.012879
0.0336549
0.114222
-0.421158
0.306935
-0.446267
0.301115
0.145152
0.0319856
-0.0860493
-0.00398502
0.16172
-0.157735
0.0199964
0.119143
-0.233988
-0.252839
0.343293
-0.3286
0.111902
0.216698
0.0524219
-0.210333
-0.132235
0.0550113
-0.324704
-0.1101
0.434804
0.427834
-0.313612
-0.0173893
-0.204674
-0.0322026
0.435022
-0.173586
-0.0349548
0.0669404
-0.147039
0.395653
0.131187
-0.0204675
-0.110719
0.0355841
0.103908
0.173008
-0.463153
0.290144
-0.542621
0.251609
0.2835
-0.51489
-0.0275589
0.426338
-0.00244051
-0.00689808
-0.442995
0.160735
0.28226
-0.247044
0.444114
-0.30934
-0.134774
-0.179032
-0.350241
-0.0587323
-0.31068
0.278163
-0.449882
0.171719
-0.357594
0.249133
0.108461
0.146569
-0.460107
0.435665
-0.0766528
0.278313
-0.189997
0.501906
-0.311909
-0.367471
0.332537
0.259188
-0.402212
0.143024
0.286993
-0.10953
-0.177463
-0.44944
0.336156
0.113284
-0.145123
-0.465695
0.283256
-0.101978
0.149127
-0.447798
-0.136422
0.458771
-0.387298
0.00588398
0.381414
0.292577
0.131934
0.153604
-0.0144354
-0.139169
-0.382916
0.019787
-0.109824
0.00289443
-0.003862
0.243659
-0.259654
0.0159945
0.0649806
-0.234309
-0.0436054
0.175415
-0.131809
0.285374
0.175015
-0.00607678
-0.130054
-0.310448
0.400626
-0.0901786
-0.188003
0.0278207
0.0144337
0.201516
-0.117425
0.3758
-0.258376
-0.0406563
0.0628991
0.15915
-0.144639
-0.0145117
0.00212474
-0.0557744
0.411833
-0.413209
0.00137527
-0.368675
-0.139746
0.211457
-0.0858142
0.314323
0.00464776
-0.318971
0.373315
-0.0760858
-0.0882049
-0.0191756
0.107381
-0.0555808
-0.204612
-0.217446
-0.107792
0.180899
0.256318
0.0810767
-0.456416
-0.0383554
0.0627503
-0.024395
-0.265679
-0.192476
0.458155
-0.394103
0.268158
0.206004
0.0466893
-0.165645
0.394886
-0.229241
0.432685
-0.0208515
-0.334346
0.0449978
0.190888
0.12892
0.299218
0.160324
-0.128699
0.491012
0.23798
-0.241688
-0.104794
-0.303414
0.222223
-0.387868
-0.0208842
0.206468
0.071065
-0.253815
-0.100739
0.506409
-0.233962
-0.272447
-0.395832
0.285247
0.110585
0.0296732
-0.0174777
-0.0121954
-0.280349
0.471444
-0.191095
-0.0634144
0.257478
-0.366553
0.0841838
0.282369
0.228913
-0.341711
0.354877
-0.240282
-0.176418
-0.291209
0.467626
-0.102994
-0.346446
-0.0375674
0.35189
-0.325347
0.107901
-0.203634
-0.0125983
0.216232
0.259245
-0.147486
-0.428569
0.267127
0.0434329
0.0146683
-0.0581012
0.282968
0.14685
-0.429818
0.133514
-0.0325998
-0.100914
-0.00367456
0.27395
-0.133502
0.39269
0.407269
-0.250352
0.104007
0.258739
-0.362746
-0.290933
-0.0767744
0.367707
-0.0902148
0.411969
-0.0999448
0.0490442
0.0178243
0.155906
-0.159891
0.27358
0.121685
-0.295095
0.444953
-0.0631762
0.0935178
-0.335711
0.242194
0.288717
-0.152695
-0.274264
-0.046079
-0.321392
0.233385
0.40577
-0.218785
-0.186984
-0.320292
-0.166316
0.133379
0.21337
-0.346749
0.38427
-0.146942
-0.317058
0.229613
0.0874452
-0.246918
-0.0448767
-0.144066
0.354006
-0.20994
-0.110031
-0.314629
0.00418145
-0.0194884
0.10864
-0.347998
0.33509
0.0643035
-0.353537
0.289234
0.373075
-0.237348
-0.264025
0.232199
0.0318252
-0.290106
0.468153
-0.270861
0.371469
-0.100608
0.50127
0.163553
-0.128581
0.24205
-0.378947
0.136898
-0.135044
0.371254
-0.363092
-0.00816195
-0.0916162
0.340352
0.291402
0.14151
-0.432912
0.271138
-0.446306
0.175168
0.0131875
0.358066
0.164383
-0.0992689
-0.231987
-0.490036
0.251709
0.211535
-0.333088
0.121553
0.32766
0.155885
0.207632
0.0937122
-0.301344
0.374869
-0.255347
-0.096972
-0.167053
0.480049
-0.313418
-0.0209278
0.0200842
-0.00104845
-0.36198
0.0710468
0.509929
-0.319669
-0.19026
0.21704
0.0721073
0.224208
-0.233198
0.00899019
-0.338714
0.286639
0.0520747
-0.474406
0.397503
0.0769029
0.113348
-0.266507
0.45075
0.111997
0.225503
-0.3375
-0.460675
-0.121329
0.350389
-0.22906
0.28318
-0.160939
0.187498
-0.410413
0.103508
0.183484
0.28809
-0.125096
-0.162994
0.384431
-0.142382
-0.145228
-0.276385
0.421613
0.0849695
-0.29286
0.207891
0.276141
0.0684583
-0.0392519
-0.0292064
0.366997
-0.26299
-0.384464
-0.0549351
-0.265977
0.134557
0.13142
-0.428029
0.299785
0.128244
0.443207
-0.17207
0.0301029
-0.334743
-0.144649
-0.199757
0.293911
0.208746
0.301183
0.278827
0.15763
-0.436457
0.0277451
0.100158
-0.127903
-0.12331
-0.28777
-0.15344
0.310362
0.110098
0.15218
-0.262278
-0.221111
-0.0713787
-0.250912
0.32229
-0.189565
0.247913
-0.0583478
0.0857156
0.0477987
0.361624
-0.378652
0.140028
0.249531
-0.389559
-0.355154
0.145885
0.20927
0.180034
0.0721845
0.061559
-0.0181261
-0.033163
0.0249098
0.00825327
0.168264
0.127377
0.127875
0.245689
0.000951028
0.141172
-0.142123
-0.287687
0.407192
-0.119505
0.468899
-0.336415
-0.412242
0.165146
0.247095
-0.125005
-0.263313
0.388319
-0.111747
-0.385456
0.102729
-0.190008
0.0253619
0.451257
-0.197793
0.236501
-0.340704
0.104203
0.233236
0.09474
-0.327976
0.320528
-0.375907
0.0553789
0.463067
-0.173195
0.417775
-0.140274
0.0600999
0.101246
-0.387422
0.10251
0.251497
-0.376501
-0.149992
0.428541
-0.278549
0.298354
0.192264
0.0480577
0.218715
-0.337311
0.0664494
0.156752
-0.43961
-0.123438
0.294287
-0.170849
-0.131231
0.317681
0.381722
-0.0554716
-0.326251
-0.17364
0.186353
-0.0127134
0.0571654
-0.248197
-0.445212
0.157553
0.287659
0.0684173
0.214763
-0.160887
0.133286
0.294562
0.16094
-0.0306694
-0.0373237
0.208997
-0.262678
0.0536804
0.0147089
-0.0410873
0.0263784
-0.165654
0.204779
-0.348846
0.135902
0.271367
-0.0578298
-0.0658044
0.0542285
-0.238302
0.184073
0.28743
-0.316013
0.0285827
-0.289503
-0.156764
-0.246957
0.0433227
-0.249374
0.197524
0.0518502
-0.277639
-0.0427827
0.320422
0.330346
-0.118811
-0.177745
0.379922
-0.202177
0.0865077
0.245286
-0.331794
-0.189804
-0.348853
-0.00700077
0.355853
-0.0479921
0.0648987
0.440501
-0.304067
-0.136434
0.169788
-0.413197
0.125952
0.287245
0.453881
-0.162976
-0.171821
0.45599
-0.284169
-0.496909
0.199458
0.297451
0.295887
-0.0132265
-0.264413
-0.177577
0.231806
-0.216532
0.443798
-0.227266
-0.26308
0.447863
-0.277426
-0.170436
-0.269244
0.315731
0.163525
0.00115468
-0.0145429
0.0133883
-0.3561
-0.252024
0.279996
-0.407629
0.152437
0.0536114
0.483514
-0.294344
-0.18917
-0.25132
0.213623
0.454479
-0.439999
-0.0144805
-0.162902
0.289492
-0.12659
0.156294
-0.102884
-0.0534097
-0.0897049
0.278194
-0.188489
-0.0366673
0.322304
-0.464134
-0.390494
0.265489
-0.264267
-0.207384
-0.167208
-0.363909
0.531117
0.240204
0.0111781
0.214507
0.0204707
-0.234978
-0.223339
0.246843
0.136502
-0.423133
0.287259
0.135874
-0.0030955
0.018202
0.457197
-0.157979
-0.379232
0.262716
0.116516
-0.14505
-0.00440517
0.149455
0.168568