/*--------------------------------*- C++ -*----------------------------------*\
| =========                 |                                                 |
| \\      /  F ield         | OpenFOAM: The Open Source CFD Toolbox           |
|  \\    /   O peration     | Version:  v2012                                 |
|   \\  /    A nd           | Website:  www.openfoam.com                      |
|    \\/     M anipulation  |                                                 |
\*---------------------------------------------------------------------------*/
FoamFile
{
    version     2.0;
    format      ascii;
    class       volVectorField;
    location    "100";
    object      ddtCorrDdt0(U);
}
// * * * * * * * * * * * * * * * * * * * * * * * * * * * * * * * * * * * * * //

dimensions      [0 1 -2 0 0 0 0];


internalField   nonuniform List<vector> 
18355
(
(0.0076765 -0.000404284 4.39244e-20)
(-0.0226266 -0.00866177 0)
(0.000245842 -0.000269219 7.93778e-21)
(-1.18108e-05 -0.000113312 -3.54778e-21)
(-0.000880786 -0.000810222 -4.25016e-21)
(0.00593326 -0.0140886 -6.31925e-20)
(6.7183e-05 -9.53073e-06 0)
(0.00733969 0.00358184 8.18804e-20)
(0.000547193 -0.000233778 0)
(-0.0476177 -0.00117676 0)
(-8.62985e-05 -7.80645e-05 1.16793e-21)
(0.0399403 -0.00316407 -1.64702e-19)
(0.0116821 0.0147549 -1.70475e-19)
(6.38746e-05 0.000520757 -3.53007e-20)
(0.000239012 -0.00187603 0)
(0.000362498 -0.00317956 2.12977e-20)
(-0.000948768 0.000506179 -4.45277e-20)
(6.84291e-05 -0.000241431 0)
(0.000411238 0.00177433 6.37361e-21)
(0.107438 -0.0392346 1.26401e-20)
(0.000830352 0.00292449 8.5203e-20)
(0.000740432 -0.000388963 -5.41652e-20)
(-0.00859856 0.0229036 0)
(-0.000880611 -0.000461442 2.03184e-21)
(-0.00268224 8.9857e-05 0)
(4.7029e-05 0.000281825 4.12736e-20)
(1.07331e-05 -0.00013796 -4.71641e-20)
(0.00113028 0.00193155 8.59139e-20)
(0.0297326 0.0515074 -1.32675e-20)
(0.00048769 0.000402146 5.00035e-20)
(-0.000460965 0.000340718 -1.01912e-20)
(-0.00112842 -0.000116299 1.19486e-20)
(9.20579e-05 -0.000242841 -6.24997e-21)
(5.04442e-05 -3.97847e-06 -5.68939e-21)
(-0.0169113 0.000945194 -4.49194e-20)
(0.00404735 -0.00597981 -6.7911e-20)
(-0.00020121 0.000543377 0)
(0.0051366 0.0473476 7.38601e-19)
(0.00040459 0.00232873 -8.72411e-20)
(-5.8782e-05 -8.11232e-05 -7.83144e-22)
(2.8064e-05 0.000452807 2.81397e-20)
(-0.0512475 -0.0578322 0)
(0.000360766 0.00129597 0)
(-0.0504982 0.0010037 0)
(-4.08222e-05 -9.44445e-06 0)
(0.0181127 -0.0443925 -2.106e-19)
(0.00470438 -0.0168953 -4.8386e-20)
(-0.00088531 0.00138672 -1.21399e-19)
(0.00737666 -0.0125809 6.85151e-21)
(0.000138151 -0.000276361 -8.61356e-21)
(-5.25996e-05 2.69525e-05 3.33911e-22)
(0.00027559 -0.000284804 -3.43794e-21)
(4.52682e-05 0.000147197 -2.24148e-20)
(-0.0148236 -0.0164144 1.92592e-20)
(4.13911e-06 -0.000144979 0)
(7.21659e-05 2.64079e-06 1.44048e-21)
(-0.0177221 -0.0313333 0)
(0.000355397 -0.00119721 -1.45563e-21)
(-0.12532 -0.0671233 -6.42818e-20)
(-0.0150532 0.0975088 -1.12973e-19)
(9.59227e-05 -0.00023848 4.9512e-21)
(0.00771525 -0.00433091 0)
(4.51553e-05 -0.000278067 -1.62039e-21)
(0.0197689 0.00368207 -1.52449e-20)
(0.0402602 -0.00372456 2.3414e-19)
(0.00360629 -0.00474741 -3.80437e-20)
(0.0508923 0.0947177 0)
(0.00940669 -0.0135467 -3.5001e-19)
(-2.24699e-05 -6.53019e-05 3.84438e-20)
(0.000243712 0.000362184 -1.56246e-20)
(0.019223 -0.056301 0)
(6.18305e-06 5.25672e-05 -1.31222e-20)
(-0.0157025 0.0669635 0)
(0.000141058 -1.3875e-05 1.31095e-20)
(0.00226334 0.00839323 -6.66486e-20)
(5.99643e-05 -4.01684e-05 -4.95926e-21)
(-0.011642 -0.0266358 2.39266e-20)
(-0.00115524 -0.000666423 0)
(-0.00328232 -0.00212156 2.86229e-21)
(0.000237852 -0.00016031 3.49239e-21)
(4.95483e-05 -7.45561e-05 1.43553e-20)
(0.0716669 -0.0543312 2.68978e-19)
(-0.00178542 0.00782025 -8.60801e-20)
(-0.0201765 -0.0214818 -5.23595e-20)
(5.54868e-05 0.000311192 -2.50945e-20)
(0.00632543 0.00149518 -6.60488e-20)
(0.0494766 0.0199911 0)
(0.111213 -0.0411063 1.06036e-20)
(0.0355426 0.076315 -1.22488e-19)
(-0.0285244 0.00181846 2.56017e-20)
(0.0397952 0.012939 -1.62785e-19)
(-4.00873e-05 -5.41811e-06 -2.47559e-21)
(0.000140293 -1.84051e-05 4.42544e-20)
(-3.42524e-05 -4.623e-05 0)
(-0.00121779 0.15884 0)
(-0.0065249 0.0213493 4.76729e-20)
(-1.20019e-05 -0.000443421 0)
(1.69883e-05 -0.00276019 -4.54116e-22)
(-0.0193294 -0.0147908 -1.883e-20)
(-0.000130455 -0.00121481 0)
(-0.00699683 0.138395 0)
(0.00187664 -0.000577948 9.88515e-20)
(0.0071253 -0.00847923 0)
(0.0292095 -0.0154025 -1.33745e-19)
(-0.000992535 0.000561097 -8.17789e-21)
(0.0160158 -0.0162569 4.94026e-20)
(0.0353813 -0.0021256 9.84238e-21)
(-0.0223151 -0.210276 -1.40784e-19)
(0.00156851 0.000917474 5.10627e-20)
(0.00841522 -0.081291 -1.85403e-19)
(0.000385686 0.000393115 2.39506e-20)
(-0.000165898 -0.00166449 0)
(3.92959e-05 0.000343258 5.43838e-20)
(0.000983008 -0.000332763 0)
(0.00140533 -0.0225751 0)
(4.3458e-05 -1.15111e-05 -2.05987e-20)
(0.033226 0.0253131 -2.44649e-19)
(-0.0101095 -0.0296592 2.41575e-20)
(-0.0270733 0.0231596 -4.90673e-19)
(-0.00381218 0.0199156 -2.48637e-20)
(-0.0471461 -0.00114746 3.46623e-21)
(0.00362643 -0.0125 0)
(-0.00112381 -0.000496333 0)
(0.00817359 -0.00666078 1.17803e-19)
(6.11566e-05 -0.000441077 1.03563e-21)
(-0.0917337 -0.166889 2.66035e-19)
(0.000226206 -0.000475457 5.83639e-21)
(8.08157e-05 0.000294227 -1.71316e-20)
(0.00730701 -0.0160935 1.23389e-21)
(-3.31424e-05 -3.24035e-05 3.7145e-22)
(-5.10666e-05 2.91132e-05 0)
(-0.0191604 0.0443529 1.08802e-19)
(0.00425572 -0.000808308 -2.41368e-20)
(-0.00241949 0.00140233 0)
(0.00686978 -0.0125629 -9.96975e-20)
(5.808e-05 0.000237425 3.44481e-20)
(-0.00018799 -0.00216312 -3.55013e-23)
(-9.67513e-05 -3.65102e-05 0)
(0.000163722 0.000529194 0)
(0.00683741 -0.0563005 -1.82528e-20)
(0.0120154 0.168044 0)
(-0.0040812 0.127383 -3.26456e-20)
(0.000673831 0.0015198 0)
(0.000323324 0.000601581 -2.95506e-20)
(0.0112768 -0.0304609 2.39417e-20)
(0.000902135 0.000272444 6.10986e-20)
(-0.00569075 -0.00452969 7.71267e-20)
(0.0757793 0.0376953 -7.35074e-20)
(0.000166841 -0.000882258 -1.08298e-20)
(0.0741341 0.034106 6.20817e-20)
(-0.000418054 0.000224704 -8.24366e-21)
(0.00105046 -0.00132354 -4.05557e-20)
(0.0178577 0.0115345 9.22882e-21)
(-0.146232 0.132164 1.30451e-19)
(-0.00121016 -0.0259305 -8.3231e-21)
(6.04798e-06 0.000105338 -2.1703e-20)
(-0.0100655 0.0415902 0)
(-0.0711116 0.0328108 8.78267e-20)
(3.94942e-05 0.000107904 -3.70168e-20)
(0.0105369 -0.00139167 0)
(0.00438756 0.0086904 1.01849e-20)
(0.00106332 -0.00216901 0)
(0.00493712 0.0144579 -1.04683e-19)
(-0.00209587 -0.00454686 0)
(-0.00194174 -0.0425374 0)
(-0.0400453 -0.0430291 -9.80247e-21)
(0.0157407 -0.00344148 9.94552e-20)
(-0.00155988 0.00543414 6.17847e-20)
(0.00693393 -0.00173681 0)
(9.84669e-05 -0.000171546 1.14858e-20)
(-0.0494998 0.00152232 0)
(-0.00283433 0.0202681 -4.78018e-20)
(-7.59898e-05 -3.5735e-05 -4.50323e-23)
(-4.92676e-05 9.69799e-05 2.05533e-22)
(0.00490481 -0.00121094 -9.54481e-22)
(0.00121933 -0.00624942 -6.29763e-20)
(-0.0136492 -0.0153565 8.81155e-21)
(0.000123806 -3.64348e-05 2.82959e-20)
(0.0117061 -0.0222022 -3.27402e-20)
(0.054602 -0.0198258 -7.63655e-20)
(0.00772711 0.0135884 1.42694e-19)
(0.00542389 0.0166951 0)
(0.000156914 -0.0010006 -6.92947e-22)
(7.11806e-05 8.55014e-05 0)
(0.00587484 -0.0483704 0)
(0.00789683 -0.00677989 2.88974e-20)
(-0.0282071 0.015596 0)
(0.0383235 -0.00804187 1.79203e-19)
(0.00189457 0.00251362 1.57814e-19)
(-0.000977589 0.000140384 0)
(-0.0204446 -0.0374504 -2.68287e-21)
(6.06078e-05 -0.000528243 4.39495e-21)
(-0.000492505 -0.00362207 -1.68783e-20)
(0.0211596 -0.0249902 -6.02285e-20)
(-0.00119483 0.0592178 0)
(0.000189007 -0.000672113 0)
(-0.0121925 0.0036555 -1.25045e-20)
(-0.00131423 -0.000916908 0)
(0.00172356 -0.00577723 0)
(-6.68856e-05 8.51243e-05 0)
(-0.000251253 0.000897137 0)
(0.00254516 0.000469738 -6.39467e-20)
(0.012133 0.00489054 0)
(-0.0265267 0.0156112 0)
(0.0472874 -0.000287186 1.40593e-19)
(0.00297117 0.0124127 1.14692e-20)
(-0.017437 -0.0124901 0)
(0.0186684 -0.011658 1.4469e-19)
(0.030511 -0.00893819 0)
(0.00109234 -0.00428417 -1.22719e-20)
(8.16377e-05 -0.00177912 -3.52956e-22)
(-0.000562446 3.20126e-05 0)
(0.109663 -0.037523 -3.19794e-20)
(0.000305828 0.00269701 0)
(9.07575e-05 -0.000159133 -8.58598e-21)
(0.0635271 -0.0152551 0)
(0.0737151 -0.0703784 -1.47024e-20)
(0.106256 -0.0357478 1.20251e-20)
(4.65991e-05 0.000387005 -2.94198e-20)
(0.000158761 -0.000285486 2.14657e-20)
(0.0100886 -0.0312185 9.26016e-20)
(0.000202883 0.000520151 0)
(-0.0346778 -0.0168038 5.87079e-20)
(-0.000127425 -0.00104705 -7.6342e-21)
(0.00940606 -0.00278782 -1.57957e-19)
(0.000740196 0.00154469 2.36042e-20)
(0.0109758 -0.00887101 1.88645e-19)
(0.0193805 -0.00316739 0)
(0.0398387 0.0129749 2.58082e-19)
(0.000650305 0.000575326 2.80803e-22)
(3.70126e-05 0.000202336 1.11344e-20)
(-0.0032669 -0.000201439 2.28605e-20)
(0.00133926 -0.0048583 1.46037e-21)
(0.0108151 -0.00926497 -2.85747e-19)
(0.00119811 -0.012783 1.61362e-20)
(8.77643e-05 0.000236295 -2.75358e-20)
(0.000111972 0.000154988 -2.80228e-20)
(0.0421641 0.146945 8.31786e-20)
(0.0339195 -0.0625222 -4.00303e-20)
(0.0466003 0.00014992 -1.45693e-19)
(0.00141753 -0.00100498 3.80731e-20)
(-0.00718767 -0.0236773 -1.90435e-19)
(-0.000537002 -0.00031605 0)
(0.000129183 -0.000139412 -9.24739e-21)
(-0.000114067 0.0019615 -1.3603e-20)
(0.0177094 -0.0022344 2.13083e-20)
(0.00870705 0.00120698 6.12153e-20)
(0.0163637 0.00511882 0)
(-0.00187042 -0.0241112 -7.45418e-21)
(0.00396544 0.000347467 -1.05535e-20)
(0.00052951 -0.000219793 0)
(-0.551054 0.253795 -6.71052e-20)
(-0.000113128 -0.00258026 1.35641e-20)
(0.0277563 -0.00957034 1.32122e-19)
(0.000398469 0.00110317 1.59287e-21)
(0.0032077 -0.00456866 3.35268e-19)
(0.139459 -0.0628521 0)
(0.0112051 -0.00324133 4.959e-20)
(0.000466436 0.000355969 8.40925e-22)
(4.8577e-05 8.33339e-06 -1.70847e-20)
(0.00122317 -0.00527205 7.87127e-20)
(-0.000660963 -0.0478377 4.65312e-20)
(0.013462 0.00265261 0)
(0.00768132 -0.00291829 -2.69809e-20)
(8.5127e-05 2.2214e-05 0)
(8.99131e-05 -3.21187e-05 -5.22414e-21)
(-8.60743e-06 0.000135262 2.44493e-20)
(0.0137869 -0.0289185 0)
(0.00936081 0.127113 -1.51066e-21)
(0.0366924 -0.0198166 -1.54964e-19)
(0.00175061 -0.00330884 -3.13135e-20)
(0.134176 0.050646 -6.92322e-21)
(0.039589 0.00361341 -5.35752e-19)
(0.00859991 -0.00133107 0)
(0.000546113 7.27446e-05 -3.78725e-21)
(-0.0123659 0.0114386 -6.28073e-20)
(0.00022487 -0.000238851 -2.90579e-21)
(0.000132982 -4.632e-05 3.91212e-20)
(-0.0825944 0.0874563 -2.53945e-19)
(8.72079e-05 -1.35863e-05 7.26835e-21)
(4.81964e-05 -2.56121e-05 -1.60038e-20)
(0.0161618 -0.00327954 4.23404e-20)
(0.000182508 0.000149943 2.87496e-20)
(-0.00184344 0.146129 0)
(0.00109344 -0.0028738 -1.20625e-20)
(0.000720259 -0.000104415 -1.14277e-19)
(8.18843e-05 -1.84223e-05 -1.51949e-20)
(0.00258237 0.00207175 -9.62766e-20)
(0.0342503 -0.00432841 -1.86358e-19)
(-0.00118244 -0.000647162 -7.91907e-21)
(2.10534e-06 -0.000115528 4.40949e-21)
(8.41619e-06 0.000255274 -5.33381e-20)
(0.0162742 -0.00590552 1.96115e-19)
(-0.0290393 -0.0114529 4.33103e-20)
(-1.89904e-05 0.000215481 0)
(2.7623e-06 5.27222e-06 -3.60925e-21)
(0.101221 -0.0676664 -3.80566e-20)
(0.00369265 -0.0124037 1.55005e-19)
(-0.00637496 -0.0235801 -2.98017e-20)
(0.042975 0.08941 0)
(0.000104646 -3.02345e-06 -1.88617e-20)
(0.00255407 -0.0355373 -9.54939e-20)
(0.000566735 0.00153868 -2.10104e-20)
(3.46364e-06 1.13087e-05 5.63113e-23)
(0.01316 -0.0951938 9.82251e-20)
(0.00237265 -0.0543706 0)
(-0.0133718 -0.0621915 -1.82514e-20)
(0.00171376 -0.00191909 -1.81372e-19)
(-3.19586e-05 -2.58569e-05 -9.33086e-22)
(-0.0107547 -0.0128293 4.34212e-20)
(-0.000946339 -0.000233193 -6.80209e-21)
(-0.000407134 -0.00241254 0)
(0.00540026 0.00564454 1.01066e-19)
(0.000255979 0.000441326 1.82507e-20)
(0.00299276 -0.0315974 -1.25948e-19)
(-0.0191659 -0.069395 -8.74458e-21)
(0.00015411 2.7251e-05 2.51004e-20)
(-5.28462e-05 7.87199e-06 -1.48698e-21)
(-0.00128259 -0.0118826 6.74776e-20)
(-0.0149368 0.0530624 -3.99753e-21)
(0.0185221 -0.0121537 -2.09847e-19)
(0.000853663 -0.000689215 -1.12191e-20)
(-0.00360211 0.000886592 0)
(-0.0501255 0.000636287 -4.04983e-22)
(-0.000139475 -4.58289e-05 8.77769e-21)
(0.0403615 -0.0552088 5.69146e-21)
(-0.00376778 -0.00115801 3.46797e-20)
(-0.000702848 -0.040646 -8.23851e-21)
(0.058254 -0.000340791 0)
(-4.21445e-05 1.22577e-05 7.38573e-22)
(-0.250955 -0.0272853 1.27979e-20)
(0.000649652 -0.00030007 0)
(0.00816185 0.0176198 -6.84823e-20)
(6.15214e-05 5.75989e-05 0)
(-0.0056281 -0.0180243 3.58667e-20)
(0.021289 -0.00577714 -1.60798e-20)
(-7.27967e-06 0.000186628 0)
(0.0196806 -0.017634 4.36792e-19)
(0.00108605 0.000455651 1.40722e-20)
(7.59043e-05 -0.000199994 4.96532e-20)
(0.00474177 -0.00609762 -4.2634e-21)
(0.00884368 -0.0159619 0)
(0.00388479 0.00132482 -5.25364e-20)
(-0.00121412 -0.023493 -8.55824e-22)
(0.0366304 -0.0202601 3.65733e-22)
(0.00083416 0.000105434 8.72068e-21)
(5.41236e-05 -0.000289154 -2.26215e-21)
(0.0145251 0.0230131 4.81092e-20)
(-0.0213377 0.0118061 -2.90059e-21)
(0.000145477 9.5642e-06 1.4367e-20)
(0.000602876 -0.00245101 -2.3522e-21)
(-0.01592 -0.0641358 2.8412e-20)
(0.0127402 -0.0287523 0)
(0.407308 0.110652 -1.711e-19)
(0.011026 0.0248415 0)
(0.000119133 9.56174e-05 -4.81528e-20)
(0.000342474 -0.00113209 -2.77415e-22)
(0.0320512 0.0134717 -8.52639e-20)
(0.000401165 0.00042251 -2.22814e-20)
(0.00146635 0.00362184 -1.64789e-20)
(0.0246477 0.0144559 0)
(0.00140997 -0.000686387 5.91799e-20)
(-0.00104287 -0.00135102 -2.07195e-20)
(0.00708484 0.0700596 5.04269e-20)
(4.69821e-05 0.00017043 6.16029e-23)
(-0.00168504 0.0105512 0)
(0.0175137 -0.040944 -1.13353e-19)
(0.0438252 -0.00029908 1.81747e-19)
(-1.79441e-05 -9.72732e-05 0)
(0.000372296 0.00126338 0)
(0.000140251 0.00028333 1.67549e-20)
(1.00569e-05 -0.000491552 1.81144e-21)
(0.00907465 -0.0138412 -2.36865e-19)
(2.74675e-05 -0.000488675 0)
(-0.0077332 0.0022918 -5.7183e-20)
(9.89969e-05 0.000278614 3.80183e-20)
(0.00181647 -0.00449274 -1.15483e-20)
(0.000134623 5.27724e-05 1.737e-20)
(-9.23005e-05 0.000291845 0)
(-4.14664e-05 -7.70135e-05 0)
(0.0016989 -0.000612561 -2.04552e-20)
(-0.000116054 -0.000104621 -9.21005e-22)
(-0.00014306 -0.000105642 0)
(0.0019087 0.00387887 0)
(-0.0418779 0.0164095 -3.79729e-19)
(-0.040748 0.0874791 5.33088e-20)
(-0.000206165 -0.000955311 6.16189e-21)
(-0.013955 -0.00349944 -6.60114e-20)
(0.00217523 0.00157829 -1.65358e-20)
(-0.0435568 0.085502 -4.84108e-20)
(0.00141741 -0.0044154 -1.11549e-20)
(-0.00401506 -0.00637114 1.24147e-20)
(0.000292255 0.000611827 -2.53139e-20)
(-0.0159851 0.00844778 -1.56412e-19)
(0.000220919 -0.000415686 0)
(3.97599e-05 -3.13743e-05 2.20291e-20)
(6.43505e-05 0.000242188 4.3622e-20)
(-5.10927e-05 -4.9456e-05 -4.12691e-21)
(-0.0100176 -0.0204976 -1.82425e-20)
(0.00073039 0.00038132 -1.33514e-21)
(-4.35495e-05 -1.96754e-05 -8.42061e-22)
(0.00153426 -0.0056934 1.93044e-19)
(0.00949935 0.00371547 0)
(0.000335529 0.000421948 -4.80216e-20)
(-0.000209312 -8.58336e-06 -6.2779e-22)
(0.0107891 -0.00939918 -9.1079e-20)
(-3.82753e-05 -0.000130521 3.2012e-20)
(0.000256329 -0.000206218 -6.36625e-21)
(-0.273732 -0.0555788 0)
(0.000194916 -0.000121528 2.56028e-20)
(0.0122423 0.0123462 2.29507e-19)
(0.00026584 0.000209319 4.89402e-19)
(0.00930636 -0.0237077 6.03074e-20)
(-0.00282526 -0.00869533 0)
(-0.00136478 0.000455699 1.53375e-20)
(0.0338113 -0.00534004 -2.5006e-20)
(2.28166e-05 6.64919e-05 0)
(0.000117403 0.000273198 1.76637e-20)
(-0.151763 -1.23267 -5.24004e-19)
(5.54421e-05 -1.72988e-05 -6.59224e-21)
(-6.9041e-05 -1.40572e-06 -2.7364e-23)
(-0.00104488 0.000216871 2.06918e-19)
(0.000171736 -0.000145414 1.27623e-20)
(0.020144 -0.00647335 -2.91258e-20)
(-0.00475581 -0.00767151 -1.30641e-20)
(-0.0117283 -0.0184544 -2.11977e-20)
(0.000432955 0.000672834 -5.87691e-19)
(-7.50936e-05 -0.00158678 -8.31708e-20)
(3.15465e-05 0.000304427 -9.37651e-21)
(0.00132137 -0.0403797 -2.57295e-20)
(0.00682546 -0.0127128 -2.42223e-20)
(-0.0566325 -0.00431784 -3.42826e-21)
(0.0231648 -0.00551014 1.4936e-19)
(0.000102162 0.000148701 2.74597e-20)
(5.46818e-05 4.2233e-05 0)
(-0.000980969 0.00213923 3.79909e-21)
(0.033762 -0.0688836 -8.40873e-20)
(0.000932269 0.074517 -6.99052e-21)
(0.00157091 0.00219365 0)
(8.67602e-06 7.27751e-05 -8.57766e-21)
(-0.000178231 -0.00151267 2.75203e-21)
(-0.000149839 0.00788449 -1.29329e-19)
(-0.0192011 0.0399788 -1.51417e-20)
(0.00166425 0.00190093 -1.82072e-20)
(0.000517506 -0.00110609 -4.80728e-21)
(3.02983e-05 0.000244946 0)
(0.00161416 -0.00312894 -9.34037e-21)
(0.0453201 -0.00956875 -8.02155e-20)
(-0.026779 -0.012854 -2.72401e-20)
(0.00427399 -0.00501043 -1.08317e-19)
(-0.0437511 0.0376518 1.65224e-19)
(0.00619778 0.00419459 -1.72712e-19)
(0.00514229 0.0133636 1.15701e-19)
(-0.0464511 0.000527344 -8.68387e-20)
(-0.000397677 -3.81235e-05 0)
(0.000128379 8.01957e-05 -2.71466e-20)
(-6.72628e-06 0.000248439 0)
(0.000109031 -0.0012262 0)
(-0.0113588 0.00093057 3.74842e-20)
(8.66707e-05 -0.000173354 -1.70078e-20)
(-4.85812e-05 -2.05207e-05 -9.29643e-22)
(-0.000510741 -0.000661658 -1.91689e-21)
(-0.0106492 0.0122066 1.93488e-19)
(6.66828e-05 -0.00435558 2.34773e-20)
(-0.0264821 -0.000239063 0)
(0.0158578 -0.0131967 0)
(0.00603646 -0.0050321 0)
(-0.000449125 -0.00197958 1.29877e-20)
(-0.00012206 -0.000329694 4.25519e-21)
(0.000185775 0.000366995 1.2587e-20)
(6.39632e-05 -6.14566e-05 -1.17696e-20)
(-1.06774e-05 -3.08088e-06 -1.0652e-21)
(3.96026e-05 0.000329502 7.04451e-21)
(9.07245e-05 -9.76733e-05 -1.07737e-20)
(-7.13759e-05 0.109122 2.90529e-20)
(0.000830304 -0.000879631 9.8948e-21)
(-4.51626e-05 8.36333e-06 -3.72053e-22)
(-0.00401453 0.00418589 0)
(-0.00191263 -0.0172885 3.13069e-19)
(0.000121128 7.94203e-05 1.40806e-20)
(-0.00092918 -0.0004504 -1.58701e-21)
(-0.029749 0.185868 -8.43291e-19)
(0.047448 0.050789 3.54299e-19)
(0.0019373 -0.00207765 -8.85419e-22)
(6.75099e-05 -0.000101483 -3.23797e-22)
(0.00498914 -0.00124596 -1.04163e-19)
(0.000595125 -0.000160764 1.06164e-19)
(0.123813 -0.0140509 -2.53851e-20)
(-0.00357842 -0.00128706 -1.96056e-20)
(1.66779e-06 -0.000229755 -1.81361e-21)
(0.00572034 0.0190075 -6.50899e-19)
(-0.0214785 -0.0584574 -1.17753e-20)
(3.76527e-05 -0.000196296 0)
(0.0254151 -0.0103125 1.32585e-19)
(0.00167473 0.150417 -4.0007e-20)
(0.00418449 -0.00768668 -1.87276e-19)
(4.60373e-05 -0.000458323 0)
(6.34002e-05 -0.00022102 1.11206e-21)
(0.000865072 -0.00787813 -7.324e-21)
(0.0159678 -0.0135666 0)
(-0.000100479 -0.000201151 0)
(0.129045 0.0240388 4.53074e-21)
(0.0178393 -0.0659565 2.56433e-20)
(-0.0140275 -0.00316257 1.84385e-19)
(-0.0135966 -0.0028653 1.90992e-19)
(-4.22513e-05 -3.76556e-05 0)
(-0.00551959 -0.00595549 0)
(0.0032759 -0.0123354 3.62338e-20)
(-0.00407649 0.0218646 4.67124e-20)
(0.047562 -0.035159 -3.27338e-20)
(0.000100317 -0.000830864 0)
(0.000269622 0.0048306 0)
(-0.00395154 -0.0116857 4.14523e-21)
(-0.0298287 0.00778389 2.36355e-21)
(0.00156706 -0.000643579 1.01433e-19)
(0.045747 -0.00639755 1.45288e-19)
(0.00077155 0.00115479 -5.62064e-21)
(0.000123673 0.000440262 5.89767e-21)
(3.35115e-05 0.000163308 -1.01037e-20)
(0.0155467 -0.00670664 0)
(7.94084e-05 -0.000103704 1.02358e-20)
(0.00495051 -0.0457355 -1.54344e-20)
(0.00272146 0.00601208 2.37085e-20)
(0.00844589 -0.0254046 9.66108e-22)
(0.000219965 0.00093614 0)
(0.000892098 -0.00198071 0)
(5.26987e-05 5.00191e-06 1.77542e-20)
(0.00895182 -0.0193918 8.10695e-20)
(0.00488395 0.00805498 -1.31385e-20)
(0.037476 -0.0428584 8.75077e-20)
(0.000195249 0.000175434 0)
(0.00764649 -0.0238567 0)
(0.318545 -0.193009 0)
(-0.0034337 -0.00254075 -6.43525e-21)
(0.000233103 0.000258476 3.46937e-20)
(0.00131268 0.00165675 0)
(-0.00475245 -0.00673198 2.191e-19)
(-1.22038e-06 -0.000222575 0)
(0.000524271 0.00166761 0)
(0.001581 -0.00123013 -6.33495e-20)
(-0.0033574 -0.0032403 0)
(0.0189106 -0.05421 -8.80795e-20)
(0.00197002 0.00451467 6.45486e-22)
(4.20659e-05 -0.000262238 0)
(1.04487e-05 0.000149552 0)
(-1.75396e-05 0.000115552 0)
(0.00662798 -0.0226751 2.30887e-21)
(-0.00106906 -0.00166271 1.94829e-20)
(0.00747742 -0.00127767 0)
(2.56432e-05 -0.00173843 -9.52502e-21)
(-0.000704052 0.000177305 0)
(-0.10828 -0.0278918 -4.50778e-20)
(-4.99242e-05 6.26663e-06 0)
(-0.00676891 0.0279008 -4.43662e-20)
(0.00121032 -0.00183036 6.6802e-20)
(0.0368016 0.00707903 2.30882e-19)
(-0.00419307 -0.00522955 1.10259e-19)
(-0.0137056 -0.0185496 1.87047e-20)
(0.000213928 5.76933e-05 1.02009e-20)
(-0.0486372 0.00140563 -1.40735e-19)
(0.000959538 -0.00302932 1.16295e-19)
(0.0007009 -0.000223689 1.65239e-21)
(0.138608 -0.0617017 0)
(-0.109754 -0.0234235 1.24183e-19)
(0.0398885 -0.00613825 1.95678e-19)
(-0.00274364 -0.00166947 -1.08561e-20)
(0.000389534 -0.000165317 1.27256e-21)
(0.000145067 -0.000794696 -1.29271e-21)
(0.000143322 0.000311935 0)
(0.00464755 -0.0283622 8.38845e-20)
(-0.000443989 0.014697 -5.77867e-20)
(-0.00738886 -0.00851067 -5.61251e-20)
(0.0299596 -0.185895 0)
(0.000132686 0.121549 0)
(-0.00384182 -0.051716 4.7533e-19)
(3.0728e-05 5.04293e-06 -1.95664e-20)
(0.0193777 -0.0131122 0)
(-0.042025 0.0508107 1.28809e-19)
(-0.00117686 -0.000829823 1.25715e-20)
(0.000133087 0.0003813 0)
(-0.0109918 -0.00796885 2.54461e-20)
(-0.0306441 0.00210135 -5.95531e-20)
(-0.00138287 -0.00488251 -4.05308e-20)
(6.18903e-05 0.000226971 -3.85338e-20)
(-0.00467759 0.00841113 -3.20406e-19)
(0.0294267 -0.0786446 0)
(-0.0151232 -0.00373826 0)
(-0.00465481 0.0269772 7.86708e-20)
(-0.304166 -0.0311602 -2.04147e-19)
(-0.000315788 -0.00288367 0)
(0.010701 0.0148886 0)
(-0.0366706 -0.00323019 3.29343e-20)
(0.0471755 -0.0246335 0)
(0.0148352 -0.00426339 1.19614e-19)
(-0.0119347 0.0449694 1.24952e-19)
(0.00987498 0.025169 0)
(-0.000456479 -0.00323358 4.10604e-21)
(7.60779e-05 -4.36541e-08 0)
(-0.00105016 -0.00108881 1.35755e-20)
(0.000254814 0.000719331 -4.80486e-20)
(-0.00767243 0.0161894 -3.30488e-19)
(-0.0291872 -0.160588 0)
(0.00208336 -0.00834023 0)
(-0.0361764 0.0709992 1.11666e-19)
(0.0380236 -0.00530457 0)
(-0.0130641 0.106058 -5.63886e-20)
(0.00684268 0.010435 3.67935e-19)
(0.000815231 0.00181465 -3.56868e-20)
(-0.0134646 -0.00639886 -2.79679e-20)
(0.0393483 -0.00355177 0)
(-0.000125964 -2.93522e-05 0)
(0.023561 0.00206055 0)
(0.0430379 0.143154 -1.14608e-19)
(-0.0201304 0.012302 0)
(0.00231852 -0.00738305 -5.45601e-21)
(-4.35407e-05 -8.01675e-06 -1.85193e-21)
(-0.000278841 -0.00286282 2.12546e-22)
(-0.00172063 -0.000531371 -3.89199e-20)
(-0.00553989 -0.00377701 -3.02764e-20)
(0.00992463 0.00814064 9.95934e-20)
(0.000285884 0.000360023 -1.00703e-20)
(-0.0537478 -0.00166241 -6.26922e-22)
(-1.56314e-05 -0.00763339 5.09001e-20)
(0.00278109 -0.00591502 -3.30382e-20)
(-0.0291395 0.00843999 7.05103e-21)
(0.000685026 0.00130077 0)
(-0.004292 0.00245126 -1.82778e-21)
(0.0596536 -0.0388994 -3.13134e-20)
(0.000274747 0.000530758 4.58276e-20)
(0.000548659 0.000278753 0)
(0.0368887 0.0125992 -3.92486e-21)
(4.78154e-05 -5.04848e-05 3.82605e-21)
(0.00886493 -0.000961372 0)
(-4.57469e-05 -2.58986e-05 0)
(-0.016327 0.132601 0)
(-0.00299381 -0.00236881 0)
(-0.000635189 -0.00954644 0)
(-0.00708729 0.00740078 2.1596e-20)
(-0.00154396 -0.00572737 0)
(-0.00110424 -0.0040916 -2.44799e-20)
(0.000455751 0.0107778 8.62947e-20)
(0.095849 0.0368734 0)
(-0.00208535 -0.0170449 -1.72833e-20)
(-0.000406011 -0.000520838 0)
(-0.00568252 0.00506713 9.55496e-20)
(-0.000726289 -0.0104007 0)
(-0.289908 -0.0353638 0)
(0.00417872 -0.00195769 -2.20747e-19)
(-0.013894 -0.00982891 1.24817e-19)
(0.0373555 -0.00222205 0)
(0.000306255 0.000571731 3.50822e-20)
(-3.53973e-05 -6.32614e-05 -9.1771e-22)
(0.000101763 0.154709 9.11873e-20)
(0.00169228 -0.00365832 -5.50291e-22)
(0.00192977 -0.001372 0)
(5.57451e-05 0.00022014 0)
(2.28314e-05 -0.00119997 0)
(-0.0392035 0.0394413 -1.57173e-19)
(-0.0436442 0.0208475 -3.71293e-20)
(-0.00292907 0.0045239 4.32682e-20)
(-0.0494052 0.0017566 1.2983e-19)
(-0.0130258 -0.0380142 0)
(0.00302662 0.00629301 -4.52713e-21)
(-4.63159e-05 -1.40639e-05 5.68149e-21)
(8.11436e-05 0.000348826 3.60989e-20)
(0.00297779 -0.00314661 -2.0851e-19)
(0.0234352 0.164749 0)
(-0.000106031 3.20642e-05 2.35043e-21)
(0.0416916 -0.00532748 -1.4851e-21)
(0.00136091 0.0126245 -3.02122e-20)
(0.0096163 -0.0143075 -4.28426e-20)
(-3.22424e-05 -6.72424e-06 1.26292e-22)
(0.026874 -0.0096796 -2.14904e-19)
(0.0102823 -0.00903344 4.96988e-20)
(-1.78314e-05 0.000643029 3.27616e-20)
(-6.04785e-06 -3.66738e-05 -8.72046e-23)
(0.00184557 -0.0151278 0)
(6.21546e-05 0.000341854 0)
(5.32911e-05 -0.000250374 0)
(-0.0191431 0.0917412 -4.53392e-22)
(-0.0288792 0.0222913 1.66661e-19)
(0.000137993 0.00275595 -1.90428e-20)
(0.000146216 0.000240432 0)
(-0.00411813 -0.0489404 -4.38547e-20)
(0.00476639 -0.00535141 0)
(-0.00402558 -0.000802823 -3.29996e-21)
(-0.0207443 -0.0174239 9.97139e-20)
(0.00132842 -0.00168204 0)
(0.00373179 -0.0145152 -3.92903e-20)
(0.00675706 -0.00499055 9.90303e-20)
(-0.000117381 0.00103392 4.05591e-21)
(-0.0330175 0.108162 2.46823e-19)
(-0.000928331 0.0196218 5.23659e-20)
(6.27506e-05 -1.61512e-05 0)
(-0.0459372 0.0199433 -3.32315e-20)
(-2.14361e-05 -9.21616e-05 -5.54842e-21)
(0.000275039 0.000930315 -4.16036e-20)
(0.000983107 -0.000753204 1.20273e-20)
(-0.0100682 -0.0212349 0)
(0.00831096 -0.00846503 2.89397e-19)
(0.000769612 -0.00252533 0)
(-0.0345836 -0.00459925 0)
(0.000720158 -0.00380482 0)
(0.0593386 -0.0159857 -7.21806e-20)
(-0.0149887 -0.00285467 6.3619e-20)
(-0.000383932 -0.00668641 -5.85865e-22)
(0.0393006 -0.00465969 2.84822e-20)
(0.000387235 -0.000102479 -4.84551e-20)
(0.0330813 -0.0105725 2.71556e-19)
(-0.000799016 -0.000531665 0)
(0.0447021 0.0237104 0)
(-0.0208841 -0.00885046 -2.26414e-20)
(0.000307448 0.000566973 5.20357e-20)
(-0.704381 0.14643 -2.25879e-19)
(-0.00234934 -0.00142721 9.44739e-22)
(0.00110185 0.00574349 -1.67923e-19)
(0.0412205 -0.00524179 -1.45523e-19)
(-0.02793 0.128147 4.69461e-19)
(0.0321803 -0.00631741 0)
(0.000122068 -6.13841e-05 0)
(-0.0129637 -0.0181561 0)
(0.000340597 0.000895188 -4.83385e-22)
(0.0940083 0.0149042 -2.08332e-20)
(-0.000524599 -0.000648414 1.35565e-20)
(0.00384227 -0.011076 0)
(-0.00391514 -0.00365341 7.17283e-20)
(0.000159435 -0.000137233 -6.70528e-21)
(-3.75545e-05 -1.51127e-06 0)
(0.0027325 -0.00767798 7.06614e-20)
(0.0159473 -0.0112577 3.62409e-20)
(-0.0237772 0.0159411 7.77678e-20)
(5.71556e-05 3.49613e-05 -7.22905e-21)
(-0.00848343 0.0152715 1.89865e-19)
(0.000857082 7.97148e-05 -6.5254e-21)
(0.000149348 -5.75e-05 -2.38398e-22)
(3.91819e-05 0.000241203 -4.38481e-20)
(0.00954399 0.0193634 2.71015e-19)
(0.0205926 -0.010784 1.63372e-19)
(0.0359866 -0.00634554 7.29721e-20)
(0.00193189 -0.000579985 0)
(4.23138e-05 8.3791e-06 4.01506e-21)
(0.00195363 0.00253881 -2.36331e-20)
(-0.00293163 -0.0204686 5.28008e-20)
(0.00258582 -0.0131932 -1.14131e-20)
(0.000266821 0.000296919 -1.89732e-20)
(0.000163906 -0.000136474 -8.5084e-21)
(0.000658162 -0.0144735 2.45161e-20)
(0.000767864 -0.000524983 8.19194e-20)
(-0.0527345 -0.000453393 1.08233e-19)
(0.00021116 0.000190642 6.31359e-21)
(0.0818241 -0.100938 -3.19691e-19)
(-0.000465689 0.0682197 -7.97942e-20)
(-0.0332909 0.053263 -1.22693e-19)
(0.00288779 -0.00687486 2.22272e-19)
(0.0416382 0.0811694 -6.66864e-20)
(-4.70462e-05 2.21268e-05 1.78028e-21)
(-0.00915806 -0.0143309 6.75891e-20)
(0.000336298 0.000534065 0)
(0.000241045 -0.00032932 0)
(0.000225485 -0.00208485 1.14951e-20)
(0.0367211 0.151161 -4.45722e-20)
(5.3376e-05 4.22391e-05 -2.61208e-21)
(0.000217804 -0.000654257 1.34217e-21)
(-1.86722e-05 -1.91609e-05 2.21501e-21)
(0.0329847 -0.0100929 -2.55707e-19)
(0.00167437 0.00126406 2.07436e-21)
(-0.000481858 -0.000514953 0)
(-0.00103789 -0.00289857 -7.76764e-21)
(-0.00124876 -0.00347546 0)
(-0.029278 0.0139976 5.85208e-20)
(0.0361204 -0.00258371 1.46447e-19)
(-1.31889e-05 -0.000255607 1.3683e-20)
(3.46596e-05 0.000415308 0)
(-0.0280215 0.0145519 0)
(0.000413201 0.000184741 0)
(0.0316787 -0.00701821 -1.00938e-19)
(-0.0216154 -0.0106566 0)
(0.0127027 -0.0102017 -1.52803e-19)
(0.111033 -0.131441 -6.53966e-20)
(-0.0036434 -0.0499544 0)
(0.0277082 -0.0622229 -5.35039e-20)
(-0.00267973 -0.00593045 -4.705e-20)
(6.56917e-05 0.000441874 -2.04507e-20)
(0.000147787 -0.000254164 5.63939e-21)
(0.000590233 0.00109333 0)
(0.000331137 -6.96673e-05 1.95755e-20)
(0.000112459 -6.00631e-05 3.02152e-20)
(0.000523831 0.000499922 2.0304e-20)
(0.0133328 0.00680888 1.28162e-19)
(-0.00294411 0.151838 -2.26464e-20)
(-1.45425e-05 5.73217e-06 8.72813e-21)
(0.00282039 0.00700232 0)
(9.11051e-05 1.17989e-05 1.23019e-20)
(0.002702 0.0121807 4.39108e-21)
(0.0122854 0.0157485 0)
(7.25405e-05 9.46114e-05 0)
(0.00163924 -0.000764652 1.92612e-20)
(0.00067694 -0.0017306 0)
(-0.0190521 -0.0376992 0)
(0.018521 0.011955 -1.59996e-19)
(-0.00210089 -0.035929 9.6099e-20)
(0.0315122 -0.00726133 0)
(-0.0125297 -0.000475995 -2.02528e-21)
(0.0348997 0.1901 8.60566e-20)
(0.00217539 0.195963 8.28319e-20)
(0.106866 -0.0328459 1.28503e-20)
(0.0350864 -0.00242941 3.0681e-20)
(0.00692546 -0.00385429 -5.55709e-20)
(0.250709 -0.0919184 0)
(-0.00532122 -0.0457489 -1.48692e-19)
(0.00338078 -0.00191951 -1.39319e-19)
(-0.000242147 -0.000299541 -5.37032e-21)
(0.000145918 0.000209576 1.51364e-20)
(6.95803e-05 -6.04831e-05 0)
(-0.000675435 -0.00145722 4.40641e-20)
(0.134726 -0.0532644 -4.25687e-21)
(9.88149e-05 -0.000165711 0)
(-2.86243e-05 0.000177493 1.41964e-20)
(0.00272528 -0.00247749 0)
(7.72315e-05 2.35673e-05 5.72553e-21)
(0.0153801 -0.0324346 -7.72732e-21)
(0.00546747 -0.0416034 0)
(2.5079e-05 7.72495e-05 -1.42768e-20)
(0.0250664 -0.0505595 1.57486e-20)
(-0.000365248 -8.55932e-05 4.93132e-21)
(3.14892e-05 0.000463064 0)
(-0.00213627 -0.0490448 2.4695e-20)
(1.53449e-05 -0.000181294 6.122e-21)
(-0.00555244 -0.0633744 7.56251e-20)
(-0.0464945 0.0951804 1.28134e-19)
(0.00111868 -0.000992645 7.21878e-22)
(-0.000796047 -0.000749713 1.16109e-20)
(0.000145396 -5.52632e-05 0)
(0.0451376 -0.158387 0)
(7.43991e-05 7.69842e-05 0)
(-0.000779558 -0.00343834 -6.94483e-21)
(-0.019526 0.0174004 1.75913e-19)
(-1.55173e-06 0.000326221 -2.03286e-22)
(0.0167148 0.0225731 6.44271e-20)
(0.000516156 0.000578714 0)
(0.00918492 0.0250314 5.20471e-20)
(-0.00204766 0.00114956 3.82727e-21)
(-0.00873191 -0.0340132 2.04602e-20)