/*--------------------------------*- C++ -*----------------------------------*\
| =========                 |                                                 |
| \\      /  F ield         | OpenFOAM: The Open Source CFD Toolbox           |
|  \\    /   O peration     | Version:  v2012                                 |
|   \\  /    A nd           | Website:  www.openfoam.com                      |
|    \\/     M anipulation  |                                                 |
\*---------------------------------------------------------------------------*/
FoamFile
{
    version     2.0;
    format      ascii;
    class       surfaceScalarField;
    location    "100";
    object      ddtCorrDdt0(phi);
}
// * * * * * * * * * * * * * * * * * * * * * * * * * * * * * * * * * * * * * //

dimensions      [0 3 -2 0 0 0 0];
oriented        oriented;


internalField   nonuniform List<scalar> 
27274
(
0.00138804
-0.000294077
-0.00109398
-0.00100341
0.000101278
0.000902145
-5.40308e-05
-7.89413e-05
0.000132975
-4.88734e-05
-1.24172e-05
6.12888e-05
-0.00033425
0.000143613
0.000190628
0.000142337
-0.00167143
0.0015291
2.63924e-05
-1.74198e-05
-8.97211e-06
-0.000650486
0.00116853
-0.000518034
9.75403e-05
5.66806e-05
0.00163385
0.000121798
-0.00175565
-3.15269e-05
3.49092e-05
-3.38823e-06
0.00150308
-0.00186081
0.000357722
0.000201262
0.00087022
-0.00107148
-0.000118059
0.000161891
-4.38195e-05
0.000447334
-0.000188873
-0.00025848
-0.00023484
0.000352579
-0.000117755
-4.36199e-05
1.22226e-05
3.14142e-05
-0.000112852
7.49118e-05
3.79467e-05
0.000109809
6.14249e-05
-0.000171211
0.00882441
-0.00701412
-0.00181029
0.000871595
0.000437372
-0.00130897
2.20763e-05
8.85204e-05
-0.000110582
-0.000812115
0.0012678
-0.000455691
-0.000169356
-0.000164883
0.00052983
3.60772e-05
-4.97224e-05
0.000130199
-8.04661e-05
4.83391e-06
-4.43587e-05
0.000335421
0.000206486
-0.000541931
-0.00410774
0.00240737
0.00170037
7.65566e-05
-0.000208544
0.000131959
-2.56516e-06
0.000127674
-0.000125113
0.000336869
-0.000160767
-0.000176073
-8.79255e-05
-2.49265e-05
1.16339e-05
-2.02052e-05
8.5725e-06
0.00140408
-0.000268228
-0.00113589
-0.000267297
0.00165531
-1.67713e-05
0.000283113
-0.000815751
0.0012088
-0.000393075
3.46298e-05
0.000300769
-4.26779e-05
8.53255e-06
3.41422e-05
-0.000141864
2.37935e-05
0.00584273
-0.00176941
-0.00407333
0.000120948
-0.000174981
0.00192221
-0.000514665
-0.00140755
2.21978e-05
-1.02802e-05
-1.1914e-05
-0.00199803
0.00118227
-0.00109819
-0.000103607
0.00120181
-7.69573e-06
-0.000141671
0.000149351
0.000865372
-5.23782e-05
-0.000813017
-5.84916e-05
0.000107071
-4.85762e-05
7.45471e-06
9.80666e-06
-1.72592e-05
-7.5642e-05
0.000168941
-9.32978e-05
0.000101444
-8.14983e-05
-1.99598e-05
0.000487312
0.000500357
-0.00098767
1.15819e-05
8.78936e-06
-2.03609e-05
-3.27567e-05
3.52454e-05
-2.49012e-06
-0.00465873
0.00196938
0.00268935
7.23381e-05
0.000374985
1.35709e-06
0.00810676
-0.00810815
-0.00711325
0.000373108
0.00674013
-9.187e-05
3.33826e-05
0.0022838
-0.00112321
-0.0011606
-0.000108959
2.58967e-05
8.3074e-05
0.00152389
-0.00410422
0.00258028
-0.000201157
0.00170424
-0.000765763
0.000471694
-0.0045315
0.00483597
-0.000304454
-0.00188738
0.000581979
0.00130538
-1.90235e-05
2.78586e-05
-5.78288e-06
0.000246796
0.00237391
-0.00262072
2.91271e-06
-2.16929e-05
1.87763e-05
-0.00260432
-0.00450896
5.44463e-05
-4.8365e-05
-6.08153e-06
-0.000287399
-0.000363106
1.42193e-05
1.21759e-05
-0.000196845
-0.00127824
0.00147509
-0.00040664
0.000184222
0.000222428
-0.000318544
-0.000355627
0.000674185
8.69386e-05
-2.83491e-05
-5.85901e-05
-4.71618e-05
2.97385e-05
-0.00021647
0.00339735
-0.0031809
-8.94533e-05
0.000961058
0.00318702
-0.00248189
-0.000705171
-9.88716e-05
4.91551e-05
-0.000210094
0.000411353
-0.00145633
0.00281377
-0.00135744
0.00592448
0.00289995
-0.00456684
0.000459091
-0.00103223
-0.000420407
0.00145264
-0.00211552
0.00380384
-0.00168836
1.24769e-05
9.71685e-06
6.57071e-05
-2.70249e-05
-3.86878e-05
-1.20654e-06
1.82094e-05
-1.70002e-05
-0.00750074
0.00750075
0.000165376
-0.000977492
-2.69753e-05
-6.06869e-05
8.76619e-05
-0.000211921
-2.4703e-05
0.000236624
-0.000689689
0.001177
2.01246e-05
4.69282e-05
-6.70475e-05
-0.00576795
0.00636996
-0.000601998
-7.62605e-05
6.60753e-05
1.02083e-05
-0.000877851
0.00166476
-0.000786919
-0.00213413
0.00173158
0.000402524
-0.000315316
0.000221368
9.39383e-05
-0.00142384
0.00159795
-0.000174063
0.00145498
-0.00155426
9.92721e-05
0.0156411
-0.010703
-0.00493816
-2.38982e-05
-0.000204358
0.000228264
-0.00748749
0.0112953
-0.000166271
0.000161148
5.12479e-06
0.000253582
5.04328e-05
-0.00030399
-9.70425e-05
0.00012604
-2.90057e-05
-0.000246015
0.000499598
-0.000865481
0.00117024
-0.000304767
-2.62882e-05
2.23104e-05
3.97492e-06
-0.000340423
-0.000874818
0.00121513
-0.00147931
0.00128246
-0.00020838
0.00134697
-0.0011386
0.00172882
-0.00260666
-0.000182984
0.00181683
-0.000365822
0.000653917
-0.000288096
-0.00019295
-0.000213675
0.000105188
0.000141594
-0.000106046
7.90695e-05
0.0134433
0.00219777
-0.00013689
6.12506e-05
0.000137313
-0.000104434
-3.28745e-05
-0.00131707
-8.56157e-05
0.00140267
2.60401e-05
-2.72458e-05
1.79177e-05
-1.04604e-05
5.86158e-05
0.00259309
-0.00265169
0.00022036
0.000416708
-0.000637105
0.00018788
-0.000399822
0.00113192
0.000579679
-0.00171164
0.000103002
3.43207e-05
0.00038386
-0.00057451
0.000190647
-2.90822e-05
-2.44564e-06
8.70848e-05
-0.00016753
8.04261e-05
-0.00316518
0.00375207
-0.000586913
0.000135157
-0.00590308
0.00451979
0.000874989
-0.00539478
0.000195941
-0.000457398
0.000261472
-1.13401e-05
-0.000154923
0.000331949
0.00015079
-0.000482753
0.000290433
-0.000400192
0.000109769
0.00146552
-0.00132041
-0.000145138
0.00171876
0.00176523
-0.00348399
-0.000180939
2.5689e-05
0.000155211
0.00412507
-0.00240632
9.65539e-05
-9.862e-06
-8.66962e-05
0.000378958
0.000627182
0.000776868
0.00414087
-0.00413952
-0.00285397
0.000240683
0.0026133
6.39031e-05
-3.91942e-05
-2.47094e-05
-0.00232939
0.00238801
-0.00106066
0.00085232
4.3148e-05
2.07538e-05
-0.00114343
0.000332599
0.000810836
0.000396204
-0.000654584
0.000258342
0.00087044
-0.000185364
-0.000685087
0.000465141
-0.00237196
0.00190679
-0.000517063
0.00070494
0.00410593
-2.57875e-05
-0.00408015
-0.000657704
0.00420218
-0.00354451
-0.000119799
0.000813855
-0.000694029
-0.000328574
-9.01183e-05
0.000418701
0.000352458
0.000597218
-0.000949686
-7.17591e-05
7.65128e-06
6.41114e-05
-0.00125658
-0.00084591
0.0021025
0.000977798
-0.000301576
-0.000676229
-7.2456e-06
3.47844e-05
-2.75432e-05
3.25657e-05
9.88741e-08
-3.26733e-05
-0.000954626
0.000719796
-0.000368142
0.000252469
0.00011569
-0.000526199
0.00272601
-0.00219981
-7.24257e-05
4.33861e-05
2.90666e-05
0.000575898
-0.00189294
0.000606798
-0.00263838
0.00203159
0.000431509
0.000620249
-0.00105175
0.00103849
-0.000686033
-0.000183924
8.3244e-06
0.000175582
-3.89347e-05
7.08962e-06
3.18421e-05
0.00234691
-0.00456839
0.0022215
7.71027e-05
0.000408489
-0.000485572
-0.000224133
-0.00142177
0.00164591
-0.000885071
0.00280592
-0.00192085
6.36964e-05
-7.57477e-06
-5.61718e-05
-4.12615e-05
-2.35424e-06
-0.00306798
-4.55893e-05
5.78993e-06
3.97874e-05
-3.2895e-05
-0.00048418
-0.00245122
0.000505963
0.00194526
0.00263041
0.00122644
-0.00385694
1.09434e-05
1.18425e-05
-2.27606e-05
0.00126595
-0.00114993
-0.000115992
-3.02786e-05
-0.00015367
-0.000240503
-0.000586168
0.000826679
2.53225e-05
-0.000134763
-4.99674e-05
0.000184734
8.21096e-05
-0.000246519
0.000164295
-0.000261301
0.000640051
-0.000378772
0.000915038
-0.00113917
0.00206844
-0.00046537
-0.00160307
-0.000204515
-0.000648381
0.000852854
-0.000149115
-0.000191344
-0.000363971
-0.000606898
0.000970894
-0.00113589
0.00142105
-0.000285151
0.00039287
-0.00063337
-2.83703e-05
0.000412225
-6.52627e-06
0.000103073
-0.00867469
0.00599278
0.00268191
3.12778e-05
0.000164621
-5.13495e-05
-2.04047e-05
0.00345654
-0.00367295
0.00615813
-0.00578972
-0.000368403
-0.00275021
5.57056e-05
-0.000152769
-0.000226032
4.50721e-05
0.00276626
-0.00270538
-6.08425e-05
-0.000190061
8.78776e-05
0.000102185
-0.000438751
0.00362577
-0.00027149
-0.000303046
0.000288665
-0.000408465
0.000501416
-0.000298382
-0.000203037
-0.000758215
0.000654462
0.000103777
-0.000363842
-0.000542749
0.000906601
-0.00136853
0.000177795
0.00119078
1.80461e-05
-4.64215e-05
9.63594e-05
5.07097e-06
0.000306684
-0.000625236
-0.00130517
0.00101767
0.00028752
-0.000569806
-0.000188407
-0.00103445
0.00104399
-9.54601e-06
-4.13704e-05
0.000107074
-6.56804e-05
-2.46374e-05
-4.77798e-05
0.00390165
-0.00960118
0.0056995
-0.00390297
-0.000323381
0.00422634
0.00206844
0.000177792
-0.000201689
0.00186369
0.00080301
-0.0026667
7.75803e-05
0.000103616
-3.67295e-05
-5.12551e-05
8.79897e-05
-0.00029752
-3.55853e-05
0.000333153
-0.00059994
0.000236096
-9.78988e-05
0.000814567
-0.000716679
0.000510216
-0.00101159
0.00050137
-0.000176755
-0.0026772
-0.000394347
0.000790544
-1.23356e-05
-0.000122431
-0.0153842
-0.0101864
0.0255707
-0.000282812
0.000252529
-0.00143006
0.000294166
-0.0001851
9.634e-05
8.87354e-05
0.000148354
0.000111987
-0.000260317
-0.0114587
0.00928131
0.00217737
-0.000740924
-0.000402537
0.000131394
-1.76213e-05
-0.000113764
-2.22972e-05
2.27261e-05
-4.27727e-07
0.000270193
-0.00103599
-0.00537523
0.00221052
0.0031647
-0.000688058
0.0004268
0.000755918
-0.000535542
2.89753e-05
-4.74099e-05
1.84345e-05
6.24687e-05
-2.98441e-05
-3.26235e-05
8.45015e-05
-3.47799e-05
-4.97442e-05
-0.000492691
0.00108992
0.0142946
-0.0142813
-1.32354e-05
-0.00466864
0.00244573
0.00222288
-0.000143431
0.000429793
-0.000286447
0.00648663
-0.00261804
-0.00386863
-0.00200493
0.00111986
-0.00102901
-0.000394808
-6.62964e-05
-3.95973e-05
0.000105894
-0.000399821
0.00166576
5.24364e-05
3.44945e-05
-5.64422e-05
2.22953e-05
3.41471e-05
-0.00523985
0.007611
-0.00237116
-4.46509e-05
3.28793e-05
1.17729e-05
1.57174e-05
-1.49473e-06
-0.00137113
0.000257329
0.00111383
4.10144e-05
-0.000115603
7.45857e-05
-0.00180355
0.00627496
-0.0044714
0.000229747
-0.000512559
0.000177855
0.000634214
-0.000812134
-2.18922e-05
-2.2759e-05
-0.000848795
0.000520225
0.000418878
0.00126623
-0.00168511
0.000143917
-5.6003e-05
7.12913e-06
-7.96403e-05
1.95128e-05
6.01576e-05
0.00077345
-0.0015171
0.000743642
-0.00176852
0.00124729
0.000521232
6.35347e-05
2.09585e-05
-2.0498e-06
-1.08876e-06
3.13692e-06
0.00848661
-0.00232847
-0.000105034
-0.00133052
0.00143552
-0.00241954
-0.000447671
0.00286722
-0.000209146
0.00880068
-0.00859149
-1.15965e-05
-4.48519e-05
-0.00300133
-0.000286626
-7.50772e-05
0.00036169
-5.519e-06
3.46855e-06
-0.00684096
0.00663172
0.000739574
0.00336636
0.00661675
-0.00182919
-0.00478757
0.000826734
-5.32758e-05
9.07472e-06
1.69692e-05
0.000602298
-0.000170776
0.000101575
0.000162381
0.000279068
-0.000169246
-0.00067762
0.000579715
0.000137088
-0.000157647
2.05511e-05
0.00137099
-0.00544941
0.0112921
4.57324e-05
1.99678e-05
1.94826e-05
-5.19195e-08
-1.94295e-05
-0.000106298
0.000909271
0.000683933
-0.00184823
0.00116428
0.000757529
-0.0011215
0.000121864
0.00018132
-0.000303177
-0.000241885
0.00070698
0.00195203
-2.98352e-05
-6.25076e-05
4.52324e-05
1.72759e-05
-0.00446475
0.000561809
-0.000365237
0.00071011
-0.000344875
-0.00183392
0.00232859
-0.000494677
-0.00464876
0.000183957
2.52802e-05
-1.62049e-05
-0.00740756
0.00674985
-1.97308e-05
0.000128486
-0.000108764
-0.000204111
0.00133602
3.93735e-05
-2.31588e-05
-1.62172e-05
-0.00259629
-0.000994283
0.000138704
0.000855575
5.69312e-05
-9.45131e-05
3.76039e-05
0.000850493
-0.000243685
-0.000281008
0.000246044
3.49791e-05
-3.29175e-05
7.29019e-05
-4.00064e-05
-0.000884678
-0.00021352
0.00258407
-0.000300268
0.000316717
0.000205463
-0.000522223
0.00137147
-4.90698e-05
-0.0013224
-0.00291463
0.000463425
-3.31445e-05
-0.000151936
-3.8052e-05
-7.09031e-05
0.0017315
-0.000596812
-0.0011347
0.00125878
-0.000229755
-0.00102896
3.33525e-05
1.21854e-06
-3.45609e-05
2.3646e-05
-3.34088e-05
9.73988e-06
0.0048404
0.00177633
0.000172686
0.00217423
0.0214957
-0.03688
0.000707832
0.00102365
-4.75939e-05
1.00604e-05
3.75524e-05
-3.00009e-05
-0.000171097
0.000201099
-0.00107201
-1.74607e-05
0.00108945
0.000129056
3.21069e-05
-0.000546943
-0.000487529
0.00172694
-0.000780551
-0.00094641
-0.000123202
0.000339123
-0.000215894
-0.000438413
0.000312397
0.000125991
-0.00236103
0.00304496
8.71406e-05
-6.75346e-05
-1.95847e-05
-6.6815e-05
-0.000446107
0.000512861
0.00238842
0.000377851
0.00164256
-0.00164256
-3.34247e-05
-2.25796e-05
0.000140477
9.15466e-05
-0.000232033
-1.33485e-05
8.75727e-05
-7.42284e-05
9.47653e-06
0.000103797
-0.000113276
0.00191119
-0.00036294
-0.00154836
-8.7299e-05
9.67717e-05
0.000292842
-0.000162604
-0.000130197
-8.51418e-05
7.1793e-05
-0.000721881
0.000822897
-0.00010102
-2.34924e-06
-4.52581e-05
0.000219002
-0.000121432
-5.66207e-05
-4.13676e-05
9.79689e-05
-0.000247566
-0.000114673
0.000362221
-4.39109e-05
2.61052e-05
1.77631e-05
-2.19264e-05
-2.19838e-05
0.000160712
-0.000333655
0.000172965
0.00326048
-0.00264953
-0.000610937
0.000576173
-0.00402935
0.00345318
-0.000320344
4.88441e-05
0.000431885
-0.000877988
0.00044614
0.000845524
0.00034012
-0.0011856
0.00467247
-0.00409631
-0.000726155
0.000598494
0.000127678
-0.000526272
9.61458e-05
0.000430144
-0.000310733
1.32517e-05
0.000796376
-0.00138934
0.000592916
6.54017e-05
-1.97551e-05
-6.53561e-06
-9.50322e-05
5.36743e-05
-2.20076e-05
2.73088e-05
-5.30174e-06
0.00079266
0.00057881
5.29075e-06
-1.07847e-05
5.48773e-06
-2.17482e-05
1.14736e-05
0.000570202
-0.000545267
-2.49555e-05
-0.00145065
0.00174349
0.000164358
-3.53007e-05
-3.49457e-05
-2.75597e-05
0.000713895
-0.000220891
-0.000493004
3.8813e-05
-8.44573e-05
-0.000850259
-6.24169e-05
-8.18959e-05
0.000144324
0.000248723
0.000261486
8.10534e-06
9.27147e-06
-1.73429e-05
0.00305159
-0.00132464
0.00146739
-1.83795e-06
-0.000213729
-0.00108617
0.00150505
3.25208e-05
-2.96091e-05
7.00449e-05
-0.000127165
5.71235e-05
0.0158996
0.00559616
4.30826e-05
-6.63825e-05
2.33035e-05
4.00961e-05
-5.31358e-06
-1.40405e-05
-2.72103e-05
9.22308e-05
-3.77831e-05
-0.000182831
-0.000811449
-0.00116865
-2.08166e-05
0.00118946
1.16301e-05
-0.00269065
0.002679
4.17214e-05
-3.36152e-05
0.000245761
-0.000198981
-4.6833e-05
-9.01033e-06
7.90732e-05
-0.00238983
0.000897118
0.00149271
0.00151195
-0.0013696
0.00196612
-0.000608263
-0.00152588
3.63287e-05
-6.23757e-05
2.60404e-05
-9.06624e-06
-2.98741e-05
4.63583e-05
-0.000446557
-0.00628977
0.00150031
0.00478942
-0.002625
0.00138022
0.00124472
-0.000483846
0.000545255
1.16313e-05
1.06199e-05
-2.22542e-05
-0.000394134
0.000425439
-0.00142899
0.00136215
0.00062571
-0.00169772
0.000100241
0.000223715
-0.000323967
-7.87926e-05
0.00012514
-0.000108467
1.78843e-05
9.05502e-05
-0.00031918
-0.000406962
0.00338388
-0.00275956
-0.000624328
-0.000678143
-0.00109038
0.000333478
-0.000185132
0.00448059
-0.00248259
-0.00199798
0.00074958
4.86508e-05
-0.000798226
-0.0014079
0.00185365
-0.000445712
0.00115274
-0.0016674
6.32088e-05
2.5662e-05
-8.88577e-05
-6.47378e-05
1.86419e-05
4.6096e-05
-1.85068e-05
-0.000317439
-2.91474e-06
-0.00176798
-0.000232105
0.00200004
3.32382e-05
3.07154e-05
-6.39627e-05
-1.2933e-05
4.09735e-06
1.6011e-05
-0.00189053
0.000461535
-1.93092e-05
-0.00156087
0.000528625
0.00141548
-0.000665884
-0.000135343
0.000212449
-0.000459608
0.000622777
-0.000163171
-7.85406e-05
0.000205586
-0.000118341
-8.72369e-05
-1.6771e-05
-3.0393e-05
4.67303e-06
6.95863e-06
-1.21023e-05
-4.24771e-05
3.08751e-05
0.000154071
0.00507635
-0.00523042
-0.000119051
0.00024091
-1.76261e-05
1.76713e-05
-4.45862e-08
0.000262448
-0.000628276
-0.00135943
0.00110988
0.000249507
-1.06118e-05
-5.41253e-05
-7.31153e-06
0.00019068
-0.000183335
-0.00583141
0.00507437
0.000757022
-0.00179456
-0.00344529
-0.000904128
-5.04884e-05
-5.2011e-05
6.09189e-05
-8.90034e-06
-0.000291548
-4.98044e-05
0.00013194
-0.00684856
0.00411078
0.00273775
0.000353341
5.29218e-05
5.08816e-05
0.000773854
-0.00077642
2.55514e-06
-0.00334841
0.00198897
-8.17644e-05
7.48815e-05
6.88827e-06
0.00126223
-0.00129052
2.82937e-05
-0.00527776
-0.000367928
0.00564571
-4.9108e-05
-0.000308256
0.000357443
0.000194362
-0.000141449
-6.99861e-06
-4.50126e-05
-0.00164465
0.000339496
-0.00133333
0.00221959
-0.000886249
1.96803e-06
-2.57342e-06
5.86466e-07
0.00214411
0.00434251
-0.00324723
-0.00304254
-0.00045846
0.000890349
0.000390768
-0.00128127
0.000890496
-1.69789e-05
-5.02508e-06
-0.00110104
-6.76044e-05
-0.000665819
0.000408685
0.000257143
0.00114318
-2.86391e-05
-0.00248609
0.00251472
-6.72925e-05
-0.00012499
0.000192241
-8.17047e-05
0.000265422
-0.000183797
3.05477e-05
-0.00068514
-0.00105004
0.00139257
-0.000342536
-7.67266e-05
4.48033e-07
-0.00349957
0.00138405
-3.19491e-05
0.000533338
9.65157e-05
-9.43891e-06
3.05922e-05
-7.21868e-05
4.16015e-05
-0.00169107
-0.000933967
9.92296e-06
-5.23955e-05
-0.00261612
0.000226297
0.000117458
-8.69775e-05
-0.00156218
0.000696703
-0.00016191
-0.000162295
0.000324188
-0.000103296
-0.000290842
-1.83226e-05
-3.97638e-06
0.000494821
-0.0023822
-0.000582875
0.000681398
-9.85343e-05
0.00493401
-0.00155017
2.33688e-06
7.80146e-05
-8.03538e-05
0.00128997
-0.0015373
0.000247313
-0.0115895
0.0107391
0.000850347
4.93845e-05
-0.000549436
0.000500054
0.000122832
8.56388e-06
0.000370138
0.000120514
-0.000490614
-0.00133618
0.000308912
0.00102727
-6.15057e-06
-1.69041e-05
2.30484e-05
9.39957e-05
-0.000304051
0.00021006
0.000269672
0.000695201
-0.000645816
-0.00644346
0.00343898
0.00300443
-0.000523298
-8.57944e-05
4.02831e-06
2.63737e-05
-6.03535e-07
5.7509e-05
0.000609189
-0.001458
-2.30791e-05
-0.000415343
-0.000790618
-0.000413954
-4.56346e-05
-6.24692e-05
-0.000106885
-0.00250343
-1.1467e-05
-4.11325e-06
1.5582e-05
0.00132713
-0.00115992
-0.000167131
-0.000228647
4.93045e-05
0.000179291
-0.00635059
0.00220768
0.0041429
0.000594681
-0.000416808
8.56214e-05
0.000707039
-5.66419e-05
7.591e-05
-1.92588e-05
0.00206527
-0.00206526
-0.00024326
9.34142e-05
0.00014977
-0.000296163
0.000288473
-0.0101268
-0.00133191
0.00321542
-0.00182271
-0.000470527
0.00229321
9.4646e-05
-0.000644076
8.14907e-05
-7.61996e-05
1.69045e-05
0.000177462
-9.40413e-05
0.000130928
-3.68927e-05
-0.00092462
-0.0021678
0.00309241
0.000671554
9.95719e-05
-0.000771131
0.000271666
0.00018594
-0.00045756
0.00237684
-0.00344842
0.00107155
0.00467386
0.00376191
-0.000237097
-0.00352481
-1.01011e-05
1.6718e-05
-6.61657e-06
0.000256633
-0.0011102
0.000853562
0.00365815
-0.00360845
-4.96844e-05
0.000100316
0.000185384
-0.000285685
-5.31931e-07
-9.35177e-05
0.00195008
-0.000622936
-0.00128885
0.000868443
-0.000228783
0.00049899
0.000111614
-0.000113286
1.67012e-06
-0.000729842
0.000793036
-6.32463e-05
-0.000438788
-0.00600468
0.000393528
-0.000661773
-0.00181668
0.00245097
-0.000634307
0.00468029
-0.0011974
-0.00348288
-0.000541176
0.000516476
0.00251845
-0.00151494
-0.00100351
-0.00151015
0.00142346
8.66864e-05
-0.00322323
-0.00142553
-2.37066e-05
-1.44503e-05
-0.00016139
0.000175864
0.00337465
0.000526981
0.000568094
-0.000306804
-0.000261322
-2.98762e-05
-2.88267e-06
0.000284538
-9.25442e-05
0.000169108
-0.00115665
0.00148853
-0.00377585
0.00580097
-0.00202501
-0.000162044
-0.000206084
0.00596465
-0.00270417
0.00158687
-0.00171996
0.000133088
0.00412986
-0.00446501
0.000335153
0.000643913
-0.00137379
0.000141726
0.000210865
0.000596262
-0.000103373
-0.000492887
0.000909082
0.0011625
-0.00207157
-7.76692e-06
0.000931398
-0.00246971
0.00153832
0.000910617
0.00417063
-0.00508124
-0.00014694
-0.00094726
0.00109418
-0.000550638
0.000650865
9.18439e-06
-1.79891e-05
8.80625e-06
9.15008e-05
-0.000632685
0.000326298
-0.000183017
-0.000143301
-0.00054003
-0.000796143
6.61039e-05
-0.000736048
0.00066993
0.000115057
2.20149e-05
0.00210819
-0.00210817
0.000351821
-0.000191114
0.000758831
-0.000756514
-2.30424e-06
0.000155517
-0.00120555
0.000111728
-0.000418404
0.000306688
-0.000283084
-0.000299803
0.0036875
-0.00371614
0.000185761
-0.000194772
0.000230634
-8.47496e-05
-0.000145876
0.00148778
0.000292757
-0.00178054
9.51613e-06
2.14639e-05
-3.09806e-05
0.000677538
0.000612429
1.38138e-05
-0.00628367
0.00305838
0.00322528
-0.00041842
0.00051307
0.000982808
0.000277728
-0.00126052
-0.00156223
0.000897671
-0.00121985
0.000322113
-0.00105848
-0.000274863
-0.000500986
0.00153888
-0.00103786
0.00547287
-0.00134781
0.00165342
0.000610564
-0.00226399
7.87323e-05
0.000101522
-0.000180253
0.00030162
-0.000164072
-0.00013755
-0.000416411
0.00139921
-0.00272727
-0.000176745
2.76462e-06
0.00017399
-0.000685462
0.000947905
0.00104428
0.000104002
-0.000115341
-2.46973e-05
6.98624e-06
1.77171e-05
-0.005718
0.000440252
0.000222112
0.000147985
-0.000327199
0.000421211
1.63112e-05
0.000102529
-0.000118819
0.000576412
0.00232687
0.00215372
0.0022101
0.000402013
-0.00261211
0.000446602
0.000388849
0.00167641
-0.00184083
7.28839e-05
0.00162967
-0.000956251
-0.000673406
1.98273e-05
-1.06407e-05
0.000127927
-1.44165e-05
0.000584611
0.00733684
0.0069577
-2.6745e-05
2.71209e-05
-3.69031e-07
0.000372036
-0.00219477
-0.000505961
0.000301414
0.00155972
1.40661e-05
-1.14303e-05
-2.63524e-06
-0.000167823
0.000144086
-3.51434e-05
-0.000173411
8.63227e-06
0.000244323
-0.00147967
0.00123538
0.000133393
-3.08651e-05
7.11471e-05
3.73231e-06
-0.00389324
-0.000124031
0.00401727
-0.00171814
-0.000180345
-0.000304496
0.000484819
2.75633e-05
0.000103367
0.00492714
-0.000408229
-0.00451892
-0.000213628
0.000161238
0.000405249
-0.00076087
7.28575e-05
0.00118593
-0.000547472
0.000299894
-0.000440951
-0.000224862
-0.000503047
-0.000481645
0.000984687
0.000172773
-0.000267051
9.4305e-05
-0.0025565
0.00411923
-0.00156277
0.000387459
-0.000689035
1.68774e-05
-1.78245e-05
9.52561e-07
0.00290715
-0.000697068
2.01111e-05
-3.25304e-05
-3.29895e-05
0.000218758
-0.000124018
0.000125942
-0.00306911
0.00350551
-0.000436408
-0.000254978
0.000587108
-0.000332136
-0.000264491
-1.6503e-05
-0.000639076
-0.000871073
-0.000293121
0.00121877
-0.000925623
0.00106603
-0.00305012
0.0019841
0.000707128
-0.000316338
-0.000745755
0.000438944
0.00138572
9.17724e-05
4.86819e-05
-3.88034e-05
-0.00148109
0.0015199
0.000178078
0.000439033
-0.00189536
-0.000283758
-0.000719655
0.000156195
-9.05377e-05
-6.56469e-05
-0.0020142
0.00698874
-0.00497458
0.000471991
6.9622e-05
-0.000541631
-0.000627883
0.000384602
-0.000549005
0.00220247
-0.0016535
-0.00166337
-0.000117145
0.00178053
0.00032218
-0.00140835
-5.75324e-05
5.62521e-05
1.28004e-06
0.00110852
-0.00102291
0.000121404
-6.77792e-06
-0.000114637
-0.000655787
0.00612866
-0.000142457
-5.75346e-05
0.000199996
-0.000329767
0.000447171
0.00102274
-0.00071383
-5.41436e-05
7.27758e-05
-1.86308e-05
-7.84115e-06
1.88089e-05
-1.09662e-05
0.00104403
-0.00086924
-0.000174804
0.00127314
0.00157267
-0.00171962
-2.81438e-05
1.90811e-05
-0.000507489
-0.000888939
0.00139642
-0.000303027
-0.000442728
-5.5982e-05
1.84317e-06
5.06795e-05
-2.00843e-05
0.00253277
-0.00198578
-0.000547011
0.00275119
-0.000320566
-0.00243064
0.00158244
-0.00213145
1.64144e-05
-0.000280892
-2.72881e-06
1.4364e-05
0.00103791
-0.00120349
0.000165568
0.000860901
0.000309337
-0.000880402
-0.000117605
-4.00406e-05
6.95642e-05
3.21051e-06
0.00106531
-2.74462e-05
4.40105e-05
-8.93243e-05
4.53104e-05
0.000226885
0.00188129
5.02314e-06
0.000106714
-0.00288023
0.00288843
-8.17068e-06
-0.000137753
0.00276814
0.000303523
0.00335464
-0.00029826
0.000249182
-0.0020734
-0.0024581
-2.71087e-06
1.7007e-05
-1.42968e-05
0.00179964
0.000574808
-0.00237446
7.53628e-05
3.92057e-05
-0.00014349
0.000104294
0.000207167
0.000255258
-0.000462413
0.0067203
-0.00580968
-7.83002e-06
-2.61676e-05
3.39979e-05
0.000176708
-0.000159806
1.23839e-05
-9.72626e-06
-2.65512e-06
0.00154362
0.000340693
-6.57713e-05
-0.000274922
-7.69559e-05
0.000155694
0.000614496
-0.000796736
0.000182232
-0.00010143
-0.000127376
0.000249283
-0.00157958
0.00133029
0.00020114
0.00125384
-5.37586e-05
-5.25467e-05
0.000106297
-0.000123887
0.00012209
1.79728e-06
-0.0011725
-0.000125607
-0.000333498
-0.00117922
0.00151272
-0.000761493
0.000862765
0.00041759
-0.000972655
0.000555108
-0.00684992
9.00369e-06
0.00531734
-0.00437659
-0.000940828
0.00365284
-0.00496758
0.00131473
0.000604325
-0.000140658
0.000196361
5.55024e-05
0.000255019
-0.000274747
6.5724e-05
-3.6595e-05
-2.90911e-05
1.08112e-05
2.25371e-05
-0.000114632
2.22835e-05
0.000858373
-0.000880637
-0.00154028
-0.00596046
-1.80163e-05
-4.82768e-05
-0.00418341
0.00306823
0.00111516
-7.05993e-06
3.98439e-05
-3.27841e-05
0.000317217
0.00131247
-0.000296905
-0.00115369
7.76337e-06
3.83233e-06
0.000669365
7.35085e-06
0.000223267
0.000374391
-0.000223587
-0.000185388
-0.000826194
-0.00111516
0.000373424
0.00074175
-0.0011281
0.00145028
3.66944e-05
-0.0014446
-0.00191458
0.00675055
-0.0120831
-0.00219822
0.00865513
-0.00266235
-0.000777303
-0.000972385
0.00174968
-0.00106822
0.000565164
-0.0078106
-0.00377887
0.000251149
0.00351076
-0.000160079
-1.66192e-05
1.5822e-05
7.52412e-05
-9.106e-05
-4.88193e-05
3.99677e-05
-2.56256e-05
-1.43396e-05
0.000293401
0.0110345
-0.00500311
-0.00603139
1.11204e-05
5.74551e-05
-7.81345e-05
2.06998e-05
0.000316181
-2.78785e-05
-0.000288314
-2.40389e-06
2.62053e-05
-2.38009e-05
-0.000485162
0.00200904
-0.00694841
0.00284417
-2.07084e-05
-1.61627e-05
3.687e-05
-0.00429509
0.000446007
0.00384909
-3.55809e-05
0.000101143
-6.55529e-05
3.80267e-05
0.000921984
0.00400515
-5.67485e-05
7.1014e-05
-1.42621e-05
-0.00396722
0.000110314
0.00385684
0.00139518
-0.00517098
0.000327489
6.03327e-05
-0.00038781
0.000188594
-0.000113276
-7.53233e-05
-5.06415e-05
-5.33892e-06
0.00366794
0.0060922
-0.00976016
-7.15602e-06
3.61316e-05
-0.00055117
0.000179038
0.000372142
-0.00138293
-0.000712986
0.00209596
-9.17534e-05
8.29564e-05
8.82249e-06
0.000876654
-0.00100355
0.000126879
-4.44878e-05
-9.31302e-05
0.00013764
0.00144854
-0.000740716
-0.000406777
5.60492e-05
0.000350676
-0.0036192
0.000677673
0.00294153
3.78215e-05
-7.57168e-07
-3.70227e-05
0.00307713
-0.00018619
-0.00289094
0.00189517
-0.00219202
2.98869e-05
-0.000170544
1.78452e-05
0.000309653
-0.000566153
0.00144281
-9.40849e-05
-9.59838e-05
0.00033405
9.18853e-05
-0.000425914
0.000552274
-0.000612542
6.02706e-05
4.09551e-05
-0.000184386
2.26698e-05
1.67019e-05
4.85743e-05
-3.98001e-05
-1.23133e-05
-8.29501e-06
2.06095e-05
-0.000351441
-0.0035418
0.000126123
-9.85582e-05
0.000314333
0.00113419
0.00554415
0.0019566
-0.00131811
-1.23898e-05
0.000234086
0.000153893
-0.000387961
-2.55903e-05
5.38522e-06
-2.28921e-05
0.000116114
-9.32279e-05
0.00101416
0.00112199
-0.00189929
-0.000440374
-6.05787e-05
-3.79098e-05
6.22416e-05
-2.43417e-05
7.84388e-05
0.00012716
-7.16598e-05
-0.00012428
0.000312553
-0.000188257
-0.0022627
-0.00135983
0.00362258
0.0080617
-0.00652397
-0.0015377
0.000890604
-0.00037524
-0.000515418
-0.00470445
0.000255344
-0.000762828
0.00591687
-0.00297424
-0.00294263
-0.000188834
-0.00126799
0.00145685
-2.80802e-05
1.69518e-05
1.11354e-05
0.00115286
-8.93068e-05
-0.00106356
0.00153243
-0.000602353
0.00121685
-4.97862e-05
8.76012e-05
-0.000207567
0.000316885
-0.000109329
0.000410973
0.00116479
-0.00157576
4.31556e-05
-0.00245337
-0.00383029
0.0016791
6.40109e-06
7.28783e-06
-1.36955e-05
-4.8337e-05
0.0025811
-6.77944e-06
-3.62719e-06
1.03987e-05
-5.22134e-05
6.8637e-05
2.47083e-05
-0.000792735
0.000768012
-3.36944e-05
3.12898e-05
2.76844e-06
1.001e-05
-1.27781e-05
-0.000334495
0.000210218
0.00142686
-0.00151898
9.21144e-05
-6.95281e-05
3.39892e-05
3.55334e-05
0.00212351
-0.00120915
0.00133095
-0.000225133
1.76028e-05
0.000131056
-9.00363e-05
-0.0022057
0.0017596
-0.00265165
0.00250229
0.00014937
0.000429487
-0.000307927
-0.000121536
4.92835e-05
-0.00165283
0.00160353
-5.84674e-05
0.000123885
5.60485e-06
-0.000117844
0.000181559
0.000636124
-3.9854e-05
-0.00317985
0.000623345
0.000584796
-4.18262e-05
-0.000542994
-2.2405e-05
-3.18529e-06
-0.00132189
-7.01102e-05
0.000198616
0.00120276
-0.00115348
2.61274e-05
-2.47383e-05
-1.38983e-06
0.000185319
-0.00448041
-0.00040905
0.00353899
-0.00389044
-7.34239e-05
2.86776e-05
4.47434e-05
1.04426e-05
5.32091e-06
-1.57659e-05
0.00437435
0.000942975
-0.000136899
0.000126967
9.91876e-06
0.00161112
-0.000184278
-8.56378e-05
0.000148858
-0.00604978
0.00403557
4.95506e-05
2.49058e-05
-5.47472e-05
-0.00020233
6.06797e-05
0.00275088
-0.00563111
-8.80541e-05
1.1031e-05
7.70825e-05
0.000621756
0.000395953
0.000342233
-0.000388261
4.60032e-05
-0.00014122
0.000386985
6.59448e-05
-8.59044e-06
-1.81538e-05
8.92762e-05
-3.18285e-05
0.000181144
0.00165721
-0.00183835
0.000106775
2.35453e-05
-0.000130309
0.00194606
0.00142287
-0.00336893
0.00155485
-0.00148129
-7.35652e-05
0.00123408
-0.00156758
4.38541e-05
-0.000125074
8.1229e-05
1.69115e-05
-1.66892e-05
-2.18113e-07
0.00128657
-0.00124378
-4.27937e-05
-0.0010025
-0.000720119
0.00172262
-0.00234792
0.00296146
-0.000613547
0.00011158
-0.000246628
0.000135044
0.00241307
0.000400695
0.000138034
-9.4169e-05
0.0076974
-0.00278498
-0.00491241
-0.000485636
0.000617336
-0.000175782
-0.000441575
-9.4062e-05
6.57136e-05
-1.78685e-05
-0.00028037
0.000162782
-6.99326e-05
-9.28453e-05
-0.000241078
0.000265793
-5.47487e-05
2.1823e-05
6.84943e-05
4.20206e-05
-0.000110523
-7.87946e-05
7.26373e-05
-0.000647252
-0.000914929
0.00256805
0.000240765
-0.00280886
-0.000796804
-0.00069286
0.00148967
-0.000488764
0.000299942
0.000472796
0.000135371
-0.000608174
0.000685157
0.000185282
-2.60992e-05
-2.32297e-05
4.93273e-05
1.84442e-05
-5.1868e-05
-2.84504e-05
3.79659e-05
-0.00055229
-0.00321528
-0.000751971
-0.000144125
1.67236e-06
0.000951481
-0.000660523
-0.000290956
0.000379075
-0.000552709
0.000173638
3.04784e-05
-6.83978e-05
3.93693e-07
-0.000229045
0.00382685
0.00387055
-0.00262987
0.00170524
0.000207673
0.000132991
0.000363449
-0.000548799
-0.000183161
0.00141109
-0.00122794
-6.15535e-05
-2.98989e-05
9.14766e-05
0.00104965
-5.63271e-06
0.00167685
-0.000767764
0.00268957
3.64397e-05
0.00156212
0.000869768
-0.0024319
-0.00715018
0.000300168
-7.2233e-05
0.000319397
-0.000275767
-4.36258e-05
-0.00126682
0.00133292
-0.000214545
0.000794272
-0.000109246
0.000463118
0.000333248
0.00253858
-5.37036e-05
-0.00248488
-4.74025e-05
9.30497e-05
-4.56503e-05
6.34815e-06
0.000100408
-0.00168659
7.32269e-05