/*--------------------------------*- C++ -*----------------------------------*\
| =========                 |                                                 |
| \\      /  F ield         | OpenFOAM: The Open Source CFD Toolbox           |
|  \\    /   O peration     | Version:  v2012                                 |
|   \\  /    A nd           | Website:  www.openfoam.com                      |
|    \\/     M anipulation  |                                                 |
\*---------------------------------------------------------------------------*/
FoamFile
{
    version     2.0;
    format      ascii;
    class       volScalarField;
    location    "100";
    object      omega;
}
// * * * * * * * * * * * * * * * * * * * * * * * * * * * * * * * * * * * * * //

dimensions      [0 0 -1 0 0 0 0];


internalField   nonuniform List<scalar> 
18355
(
0.0336639
5.21874
0.0218843
0.0216648
0.0223402
0.0780595
0.0219596
0.0569575
0.023198
5.30341
0.0215224
6.30774
0.0991475
0.0219719
0.0220927
0.0237414
6.79975
0.0217358
0.022016
4.50758
0.0253447
0.0224233
5.78865
0.0223274
0.024619
0.0221457
0.022072
0.0231579
5.72826
0.0219478
0.0219711
0.0230254
0.0217333
0.0218092
0.0526441
0.0354645
0.0225342
0.166966
0.0230659
0.0215386
0.0219739
0.0881757
0.0218782
7.38129
0.0217924
0.172939
0.0503451
0.0238561
0.0441364
0.0217539
0.0215551
0.0218263
0.0222772
5.72097
0.0220866
0.0220654
0.107868
0.0221216
3.28683
0.153722
0.0217587
0.0602745
0.0217174
0.0436802
5.80539
0.0323023
8.29814
0.034258
0.0220784
0.0223585
0.0572634
0.0222556
0.154418
0.0217954
0.057385
0.0219531
5.71044
0.0229816
0.0267897
0.02181
0.0219689
0.906987
0.0255048
0.0497594
0.0221385
0.0963674
4.61568
4.47696
5.36051
6.13104
0.329329
0.0218184
0.0221099
0.0214828
22.34
5.59365
0.021776
0.0251477
5.49493
6.26638
5.01447
6.49501
0.0420629
3.28494
0.0225357
0.105709
10.0281
0.135399
0.0315887
0.334657
0.0219158
0.0228788
0.0221475
0.0229564
5.01944
0.0219999
4.88583
5.69243
5.02522
0.0428481
5.10703
2.55511
0.0229514
0.0596848
0.0217743
0.132871
0.0218263
0.0222621
5.59103
0.0214866
0.0215617
5.4699
0.0459175
0.0250235
0.0420873
0.0222566
0.0219564
0.0215182
0.0219557
0.0827668
4.13392
2.64577
0.0223651
0.0219121
0.404938
0.0222849
0.0258689
6.91449
0.0234212
7.03404
0.0221956
0.0222746
0.0490551
3.52338
0.0754338
0.0222693
5.21669
3.76684
0.0222663
0.0673764
0.0272669
0.0244641
0.0299092
0.0253296
0.205267
2.58307
10.627
0.0427248
0.206713
0.0217667
1.95308
5.39299
0.0215241
0.0215295
0.023599
6.71954
0.0533995
0.0221028
3.36082
25.6105
0.0937205
0.196181
0.0270687
0.0219128
0.250288
6.48152
6.24952
0.252009
0.0232282
8.54332
0.111172
0.0218864
0.0252509
3.4828
0.0475375
0.0223276
5.1354
0.0270276
0.0372923
0.0215318
0.0227141
0.0241641
13.986
6.06325
24.0199
0.0286136
3.23524
5.0378
5.08383
0.0368716
0.0219164
0.0221417
4.23011
0.0222971
0.0217704
0.820861
3.27523
4.26141
0.0221549
0.0233232
0.585248
0.0219424
0.0452794
0.021915
9.1885
0.0221531
4.91313
6.65499
0.1281
0.0218953
0.0222723
0.0264071
0.0264427
5.11017
0.0226899
0.0221389
0.0221106
0.240348
0.292752
32.4368
0.0308962
0.229188
0.0220214
0.0217792
0.0222227
9.00287
6.98999
3.21676
0.0742734
0.0272496
0.0227178
6.17842
0.027545
5.23449
0.0220934
4.84746
4.24872
0.0700914
0.0219375
0.021936
0.0314627
0.0682349
17.1561
0.0472533
0.0218287
0.0217699
0.0222678
0.240276
0.0828976
0.132668
0.0228517
11.8604
0.270363
0.102209
0.0222163
5.00504
0.0218139
0.0219912
11.8352
0.0217666
0.0219518
0.109803
0.0219016
3.98689
0.0273637
0.0247324
0.021838
0.042161
5.65521
0.0230473
0.0216691
0.0219858
0.129257
4.81591
0.0222667
0.0222776
3.7484
0.0449112
0.0741875
0.260259
0.0219966
0.0614718
0.0225468
0.0222689
0.238545
0.21276
0.275172
0.131573
0.0214966
0.0977581
0.0224302
0.0220238
5.02083
0.0219035
0.260719
0.0848874
0.0221022
0.021589
0.234877
25.9996
5.27687
0.022132
0.0295269
8.48421
0.0216572
0.352998
0.0266425
0.0330451
0.282458
0.0214988
4.24439
0.0219686
0.0448471
0.0221145
0.0734268
5.28503
0.0222696
20.5456
0.0355585
0.0220427
0.047725
0.0610196
4.34828
5.6468
2.69092
0.0220954
0.0217134
5.56324
0.0603511
0.0221178
0.0225234
0.259998
0.260419
4.512
5.76491
0.0220952
0.023184
2.65132
0.0219161
0.022559
0.324032
0.037643
0.0237784
22.946
0.0222756
0.0466214
0.716626
32.2576
0.0216638
0.0219852
0.0219625
0.0217886
0.0654542
0.0217885
0.0399106
0.0219666
0.0240968
0.0220998
0.0232991
0.021796
0.0220391
0.0217781
0.0217716
0.0233567
0.117671
1.91959
0.021924
5.20777
0.0351697
1.883
0.031278
0.0740594
0.0223306
5.09275
0.0224942
0.0220033
0.0221321
0.0216335
5.44873
0.0240538
0.0216178
0.0410228
0.039486
0.0219158
0.0216538
5.42635
0.0223036
0.0218207
5.64595
0.0219064
4.15072
8.97513
0.340699
0.0257403
0.0225221
5.17952
0.0222448
0.0219275
4.6627
0.0222687
0.0215267
8.49506
0.021789
5.064
0.0409175
0.0596545
7.08497
0.0223919
0.0219287
5.35518
0.0779426
1.95998
3.37053
0.0219739
0.0219211
0.0222191
2.97953
0.0434206
0.0220224
0.0222743
0.0223128
0.0492317
3.49155
0.0270441
0.0222197
0.0222746
0.0309089
0.324323
4.8605
4.83876
6.26108
0.0531005
0.0482276
5.99253
0.021982
0.0218358
0.0219852
0.0219105
0.0646112
0.0220183
0.0215205
7.36982
0.0504474
0.0454511
6.24322
0.0572319
8.55909
0.0219032
0.0217807
0.0219266
0.021976
0.0222819
0.02228
0.0220017
2.72228
0.0221539
0.0215347
1.56185
0.134826
0.0218434
0.022738
0.0590533
12.7288
0.0232765
0.021769
4.42476
0.0238077
8.64254
0.0269601
0.0217981
6.66312
0.132657
0.0217277
5.45741
3.11542
6.42953
0.0217966
0.021755
0.0261482
0.131777
0.022387
9.73612
2.33987
4.92224
1.05317
0.0216255
0.0407201
4.59191
5.58188
5.16132
0.0221081
0.0267292
0.0274382
5.16252
6.08442
0.325834
0.0221453
0.0219535
0.0221238
0.0440946
0.0220075
5.01772
0.0272872
5.16034
0.0219669
0.0222391
0.0219003
0.0326894
0.0319748
0.340888
0.0219222
0.103077
2.67896
0.0293185
0.0219351
0.0240787
0.0292286
0.0222723
0.0325107
0.0378543
0.0287811
0.135718
0.0226376
0.0217241
0.0219898
0.0222783
0.0401458
0.0237878
0.0627453
0.0218767
0.0223445
2.48679
0.02151
0.0324091
0.0224968
0.14634
0.0246156
5.42539
0.0224184
34.083
0.0257767
0.0239445
4.25536
2.41385
10.8538
0.0293759
0.0238227
0.0218049
0.021955
0.110495
0.0471397
0.0333238
0.0864244
2.7705
0.226295
0.0219229
5.6359
6.31999
0.0228623
0.0219516
0.0336067
5.93939
0.0318487
0.0222203
0.068477
0.139732
0.0524712
0.031259
4.7181
0.0250041
0.09927
8.21002
0.312462
4.82906
0.0552661
0.194313
0.0264103
0.0220647
0.0229057
0.0219324
0.351287
0.28177
5.4814
0.125326
5.12237
5.56785
0.0604607
0.0239486
6.71547
11.1115
0.0215329
0.165027
6.15698
7.77039
0.0274879
0.0216109
0.0249669
0.0255099
0.0289626
0.0839821
0.0219002
33.7325
0.0234602
0.0253082
5.14036
0.0218586
0.0332202
5.23417
0.0219355
0.0228374
5.29502
0.021756
0.103463
0.0215086
3.99034
0.029507
0.0399885
0.0335952
0.0258959
0.121291
0.0245802
6.04371
0.072947
0.0218969
9.80431
0.0406123
5.30114
7.23603
0.529354
0.335611
0.0219139
0.0216387
3.25437
0.0240338
0.0331759
0.0222401
0.026615
6.2062
6.58023
0.0405636
17.0878
0.0610812
0.0231717
0.021615
0.0222288
0.0421106
0.0787266
0.0216855
10.5324
0.0292846
0.0444594
0.0221034
5.2477
5.13275
0.0219457
0.0215392
0.0810044
0.0222464
0.0217254
3.1583
0.145188
0.0223451
0.0219493
0.170635
0.0451762
0.0271208
0.0591427
0.022017
4.41719
0.0485023
0.0221585
0.382325
5.33105
0.0219575
6.50882
0.0216601
0.0219389
0.0224461
0.0341917
5.36877
0.0349791
6.88611
0.0327271
4.09265
1.47823
0.0263703
5.32002
0.0219971
10.0853
0.0228243
5.46422
5.07434
0.0221663
4.87212
0.0253365
0.0262556
11.1755
0.0833542
4.97865
0.0218121
5.55025
0.0219561
4.73425
0.0220652
0.0275368
0.0289947
0.0218022
0.0215462
0.0496973
3.9042
7.33695
0.0219285
2.43801
0.0262565
0.0218098
0.0221163
0.0281574
0.145742
11.0435
0.0336369
0.0220527
0.0267265
4.83275
0.0271462
0.0219068
0.0218006
0.0273138
0.0300743
14.7966
0.0218646
0.867133
0.048228
5.86982
6.38524
7.87339
0.0215857
0.0551231
0.0218829
0.0223212
0.027255
6.44047
0.0218327
0.0218042
0.0217942
10.5262
0.0234033
0.0219198
0.0331987
0.0309775
6.38237
7.62442
0.0219322
0.0219719
6.23079
0.0221445
5.15893
4.76268
5.15618
0.179803
0.220744
2.67526
0.0295656
0.0221635
0.0217859
0.0219854
0.0222875
0.0221096
0.0223053
9.04077
11.8643
0.0222423
0.0888709
0.0217686
0.0231652
0.0393206
0.0220874
0.0254114
0.0229646
0.555756
3.04383
0.060924
4.87253
0.0498957
11.911
0.0861861
4.03521
5.33274
0.049471
4.54187
0.2476
6.71118
0.0217907
0.0219694
0.0219776
0.0256003
4.19703
0.0217671
0.0222758
0.0826016
0.0218324
0.0439074
0.0438715
0.0222176
2.1716
0.0218793
0.0219717
0.174906
0.0216907
0.149931
0.287632
0.0221008
0.0227061
0.0218096
0.0659873
0.0218272
0.0234688
0.593162
0.0219823
5.61872
0.0220987
5.78385
0.0242598
0.107956
0.0219578
0.0699613
0.0381989
0.0221713
0.0221013
5.77555
0.0219483
8.57101
7.44041
0.0227908
0.0221055
0.0220793
0.0215733
2.79172
0.0219494
5.99712
9.3615
0.0456094
8.23477
0.0218397
0.0218846
5.30855
5.16841
0.0246272
0.0220042
0.0219204
0.0217762
0.0230052
0.0449771
0.984337
0.0244954
10.1557
2.85697
2.21283
0.0342203
0.0218643
10.5776
1.96282
0.0327091
0.0219611
0.0221059
5.6406
0.0220122
3.45486
0.0628593
0.0222529
0.0281489
0.0215852
0.0332394
0.0261793
0.0218366
0.0215177
0.0228813
7.10735
0.0222228
0.0539586
5.98883
0.022075
0.0219046
0.045276
9.275
0.0308073
5.19574
0.0224244
0.0215655
0.0233525
8.79517
0.315429
1.90019
0.0219353
0.0314485
0.0219695
5.13754
0.0216582
2.22214
0.047272
2.30288
0.0221914
0.021923
0.221523
0.0219152
8.95705
0.0219437
3.93664
0.0222585
0.0217768
0.0240749
0.691473
4.94161
0.0264314
0.0223999
0.0224636
0.021896
0.0216799
0.022282
0.104858
0.0223713
4.36148
0.0235224
5.0153
0.0218308
0.0215911
0.608761
5.16459
6.45198
0.0224747
4.21403
0.0218514
14.3308
0.0224756
0.187548
0.0218045
7.48491
0.0218742
0.0262721
0.0220488
0.0218893
0.0222621
5.40623
1.9423
4.23365
0.0348179
0.025496
0.0244385
0.0219906
0.021669
0.0217576
0.0232933
0.127783
0.022028
27.022
0.101851
0.0220013
0.0226142
6.85935
0.107671
0.0233845
0.0245932
0.0334791
5.09427
0.0512627
10.6576
0.0549928
0.0708699
0.153979
0.0219832
0.0218603
0.0809263
0.0412162
0.0218059
4.59923
0.0283429
5.14136
0.0223559
0.192633
0.0346249
0.0696676
0.0270399
0.0220592
0.543081
0.02193
17.2017
0.022003
0.0220527
5.02532
0.0312927
0.0261968
11.0494
0.0218499
0.125422
8.64182
0.0219445
0.0735814
7.05689
0.023003
0.0218692
0.0219463
0.0238179
0.023924
0.0749695
4.296
0.0230315
0.0261157
4.62329
0.0215725
8.06419
0.0241891
0.0233602
0.277173
6.92817
0.0217465
0.021902
0.0237338
0.0216981
0.0216781
7.18983
0.02227
0.0261247
0.0215979
0.0597771
0.0217275
0.1429
0.921033
0.0227324
4.92182
0.0219366
0.0236396
0.0218842
5.11759
0.0286224
0.0218662
0.0219983
0.0221095
0.0218729
0.109873
5.8558
8.0026
9.87639
0.0221867
0.0224215
0.0732241
0.0221409
0.0216642
1.8064
5.34362
0.023474
0.0219268
8.04034
0.022227
0.0221862
4.11898
0.0820463
2.93025
0.0233039
0.0218597
4.85724
0.0221548
0.0336667
0.022224
0.0282421
0.0219782
0.0772466
0.189311
0.0401643
0.0221007
11.2876
0.022709
0.0218723
0.0221598
0.0220124
0.0219186
0.0220755
5.42965
0.0224243
5.20734
0.0222106
0.0276105
5.29855
0.0218043
0.29028
0.0233329
0.0217999
0.0240629
0.0749959
0.0220386
0.0218136
0.0221275
0.0219683
0.0538718
0.0216894
0.0224966
0.0291549
0.022093
0.0325295
11.8995
4.0064
2.71393
7.12196
0.105932
0.0697366
8.30702
4.15047
0.0218428
0.0222808
0.0216392
0.125485
4.57011
0.0372339
0.0263324
0.0215931
0.0218937
0.0221597
0.0231775
28.0662
18.2008
9.64225
0.0630473
0.0221046
0.0222348
0.0221567
6.26188
1.86016
0.0218019
2.74647
0.0216708
0.0325563
0.0229325
0.0374627
0.0313065
0.30197
0.0233487
0.147006
0.0216247
0.0219042
0.0880869
0.0219264
0.0220506
0.0534417
0.224559
0.0221294
0.0776531
0.0219283
0.0219745
0.0218002
0.021956
5.60302
0.0296763
0.0231174
0.0221291
4.954
0.153265
0.0220755
0.0320741
0.0306703
5.25451
0.926633
5.57198
0.194173
0.0570807
0.11473
0.162196
0.0734867
4.98288
0.0215848
0.0219129
0.0219062
0.153256
0.0221617
10.0384
0.0217745
0.0221436
5.08439
0.0542088
0.0223735
0.0852102
0.0219525
0.0232392
0.506133
0.33557
0.0219474
0.465928
0.12035
18.8471
5.52102
0.0219988
6.14442
0.021925
0.0639212
0.0218698
0.021843
5.1302
0.0466047
0.023815
0.0219056
4.80935
0.024907
5.49562
6.32658
0.0222684
0.0216465
0.0248286
5.41937
0.211217
0.039059
0.0338199
0.230261
0.0219786
0.0224251
0.0217981
0.0218937
0.0233921
0.0543407
8.88512
0.0660041
0.109738
5.04352
0.0219898
2.18384
0.1245
0.0496163
0.0221937
0.0219843
0.0219157
0.0219199
0.0219436
22.2789
0.163
5.69325
0.0673022
0.0976743
0.0222173
0.10217
6.47851
0.0237241
0.0248342
0.0218449
12.81
4.07334
0.096548
0.109036
0.0219772
4.39085
0.0227192
0.0247252
0.0378661
0.0882351
0.0216474
0.0741116
4.94065
0.0222777
27.1582
21.5303
5.4571
21.3388
0.034057
0.320715
0.0555739
0.0549926
5.41369
0.0218136
0.0334128
0.0216782
0.0222505
7.13194
0.022863
5.78201
0.0217011
0.0218309
4.77794
0.0219222
16.2052
0.0228102
0.298084
0.0231179
0.0221846
6.0077
0.0243624
0.0679701
0.0218757
0.0217706
0.217493
0.197734
0.0220609
0.0285002
0.711539
0.0579377
2.39047
0.0222606
0.0219511
0.0215256
0.0219189
0.0257275
0.0592287
0.0216361
5.90287
0.0218715
0.022044
0.0604492
6.62592
0.204699
0.027559
0.0217675
0.0224762
0.0811172
2.13519
0.892228
11.5667
0.0257458
0.0356117
0.266802
0.0218675
0.0504164
4.88217
0.021941
0.226661
4.18531
0.346145
0.321797
5.32604
0.0747541
0.0220841
2.72532
0.0263138
0.0400455
0.164832
0.0218642
0.112883
0.0218651
0.0219713
0.049523
7.45473
0.0351041
0.0219433
0.0403145
7.72195
0.0854606
2.94979
0.0219148
4.14861
0.0216555
0.0710787
0.100494
0.0219073
5.24839
0.0218088
0.02184
0.0220648
0.0219185
5.45045
0.0791746
0.0222525
5.19163
0.0220822
5.92477
0.0216639
8.87033
0.0472289
0.238548
0.0246939
0.0218933
0.0216819
0.0220596
0.331825
0.12182
0.0221208
0.040777
3.75068
5.50656
0.0398543
3.99511
6.5043
0.0219023
7.94226
0.0217881
0.239208
0.0220013
0.0220824
0.0220252
0.0674014
6.38161
0.215996
0.0996267
5.0605
0.522968
0.277253
4.99906
0.0218716
0.0782971
8.1206
0.0215378
0.0487879
6.01498
0.22782
0.021884
4.20196
0.0637627
7.76094
5.19771
0.0263766
0.230627
0.0245854
0.0218502
0.0215893
4.83933
0.186839
0.25403
0.166953
0.0219067
5.21559
0.0348336
0.0215094
0.0224934
0.0609052
0.0239164
0.0222156
0.0222712
0.80879
0.021897
0.0405286
10.5988
0.0216828
0.0218918
3.33904
0.0218312
0.0440836
0.026363
0.136987
2.52466
0.021914
0.0583461
0.0271843
0.0820637
0.0270525
0.0252468
0.0929411
1.04905
0.0503804
6.0286
0.0954444
0.0221487
0.250591
4.69961
0.0760656
0.0217845
0.0220529
0.133139
0.0229636
6.53535
0.769553
0.0278446
2.41333
0.0234855
0.194025
4.31078
0.0219595
0.0221283
0.022071
0.0219904
2.64616
0.308515
0.0248303
0.186055
0.28787
0.0468311
0.0220524
0.0236914
0.0603111
0.0219304
0.021868
1.99909
0.0226391
2.2426
0.0218192
0.0219993
0.0222713
0.0718843
0.0365093
0.0393779
0.0221173
0.0229276
5.6581
1.94937
3.10274
2.63198
0.0258781
0.0224573
5.96096
0.0960954
4.07623
0.0610292
0.0218725
0.0519978
0.0265751
0.0223436
0.0217938
0.0956867
0.0733759
5.40149
0.0878401
0.331685
0.0221944
0.0232202
0.0219078
0.107641
10.0065
0.20924
3.56219
0.0218592
4.85694
0.0227157
0.0219718
0.0241631
0.022166
0.426768
0.0219562
0.079452
0.0216779
3.14663
0.0351318
11.0615
0.0224631
0.0220111
0.0243073
0.0217123
0.0981553
3.75622
6.00936
0.0527327
0.0216339
6.23144
0.0626002
0.0219197
0.0652242
0.021739
0.0239073
0.0215229
0.668626
0.0250534
0.072761
0.0526645
0.0217658
14.377
0.0216369
0.0250334
0.022347
0.0237746
0.0217466
0.0218919
0.0303466
0.0222814
0.025202
0.0216935
0.0237046
2.30075
4.01162
0.0224827
0.0404121
5.74324
0.0219157
0.022158
0.0309252
0.106249
0.0219073
0.0567272
5.63381
0.0231588
6.14366
5.97968
0.0219333
0.0226362
0.0574275
0.0214654
2.70692
4.14422
5.33779
0.0229392
0.027434
0.0214919
2.13589
0.0282908
0.565147
0.0222488
0.155588
8.99501
0.074862
0.0234491
4.82846
7.17281
5.24402
0.0224842
0.0217604
7.41539
2.45974
0.0218075
0.0221026
0.408772
0.0225757
0.224244
2.33731
0.021739
0.0226844
5.62438
0.0687597
0.0225981
0.0215024
0.0426315
0.0222938
0.302694
0.0218736
0.0221011
0.0219461
0.0229811
0.0220676
0.0985874
0.0217475
0.025632
4.45771
4.83266
8.26856
0.021818
0.0861923
0.0727123
0.0220876
0.0251033
0.0380479
0.0219097
0.023998
5.98112
0.056269
0.0219379
0.0219912
0.0217792
5.39449
5.91477
0.021726
0.0222837
0.0219868
0.0541475
5.72371
0.0239561
0.0713763
0.0221429
0.0628191
0.0269209
0.335676
12.1736
0.0223035
0.667379
5.4665
0.0408342
0.0218521
0.042791
0.0285268
0.0430776
0.0262517
0.0218068
0.109484
0.0278592
1.50039
0.0423001
0.0222265
0.0223539
4.09889
0.0221272
0.0233925
0.223669
0.0418342
6.37774
6.9015
0.0218012
0.313458
0.570391
0.327274
0.0442616
0.0237959
0.0220659
5.95642
0.0452201
0.021824
0.0711992
0.0639997
2.36579
5.69237
0.0220652
0.0282015
0.0222425
0.229411
0.563363
0.0221841
0.0641322
0.0256715
0.0233609
0.0221872
9.59077
0.0715526
0.0219337
0.0236891
6.2772
0.0222608
0.0220112
0.0261613
0.0738946
0.0219589
0.0221613
0.0235661
6.88722
0.0298221
0.0218254
0.021828
0.0218896
0.137564
0.0220008
0.0219445
0.310929
6.14155
0.0218723
0.0222634
0.0526349
0.0287513
0.0901398
0.0221423
2.72675
0.0219064
0.022943
0.0295037
5.86661
11.8635
0.438453
0.0401001
5.4394
2.89674
8.75195
5.59297
0.0249228
0.0219333
0.0216927
0.041236
0.0218816
0.0219402
0.0218593
0.20839
0.0218639
7.28533
0.0317915
6.19618
0.0218794
5.35269
0.0219697
0.0276808
0.021695
0.0231667
0.0415868
0.366341
0.0222414
0.0218449
0.0251188
5.79407
0.0219079
0.0387176
0.0221936
0.0389446
5.01021
0.205709
4.12407
0.0306932
0.215453
0.0221483
5.09835
10.9556
0.0218815
5.78708
2.31718
0.0218865
0.0215206
0.0458489
0.0302
0.0443429
0.0216963
6.14143
0.0335681
0.0594277
0.0216012
0.0219558
0.0257602
5.95117
5.02263
5.42227
0.041817
5.46879
0.0391036
9.61487
0.0219293
2.94771
0.0219739
0.0266644
1.39311
0.0233326
0.150022
0.0218667
0.0242095
6.41453
6.43032
0.021966
1.53553
0.0220026
5.9923
0.021799
6.35166
4.93291
0.0218101
5.68553
0.0272426
5.75836
0.0219708
0.0266143
0.0230232
0.0869158
0.022023
0.533285
0.0218041
6.01922
0.0934884
6.29587
0.0221539
0.0216933
0.253706
0.0230465
0.0327883
0.0218752
0.0935939
0.0251943
0.0219513
2.38089
0.0220353
0.0219376
0.0223106
0.0221057
4.22256
0.0380459
0.0219539
5.84746
5.02052
0.540185
0.021682
0.0820921
4.03775
0.0218358
0.0258544
0.0223942
0.022047
0.0219517
0.0219807
0.0271468
0.0281288
5.2468
0.319326
0.253321
0.0222765
0.0219545
4.19922
0.0338917
0.0219243
0.0223031
4.95969
5.35094
0.0219722
6.19465
0.0389594
0.6153
0.0222785
5.4419
0.0217533
0.0228019
0.0221009
0.0218862
0.023547
6.49961
0.0217353
5.25548
0.192233
3.66454
4.73888
0.0221022
0.0219988
4.71789
0.0649312
0.134684
0.0219798
0.104656
0.0222514
5.28226
5.74276
3.80318
0.0220528
5.46192
12.8829
5.58421
0.468348
0.0257993
0.149882
0.0218463
0.304887
5.97599
0.0282413
4.38848
0.0218175
0.0220427
0.0719065
5.49584
0.0425721
0.283371
0.0219889
8.97902
0.0386086
0.0523624
0.0218089
0.0401074
0.301887
0.0220395
0.0386722
0.0400968
0.259774
0.0215791
0.0219011
5.08072
5.36331
0.0239191
5.02444
0.0388337
0.0219983
8.65307
8.90708
0.0220974
0.489992
0.0217057
0.0220597
0.0453517
5.17513
0.0222674
4.4174
0.0236725
0.0219185
5.36451
0.0221472
0.0701747
0.0218553
2.40396
0.0220287
5.45069
0.021774
0.0554591
0.0218472
0.0278906
0.252831
5.38245
0.0484215
8.5946
0.0283834
5.71972
8.35129
4.26894
0.021869
9.34664
11.2475
3.29232
0.352538
0.0224625
0.0218479
0.0219386
8.17807
0.0219319
0.0220475
0.28191
0.02224
8.12965
0.0232483
5.51279
0.0219325
0.0222335
0.114287
0.0215149
0.0537012
0.0218512
0.0714458
0.10573
2.21978
0.0218124
0.021886
5.5362
14.1568
0.0222444
0.0303269
0.0356715
0.0226054
7.22687
5.42706
5.44681
0.155402
4.82614
2.65377
0.236603
0.0218978
0.0217905
0.0228151
0.0219407
0.0326444
6.65953
7.38609
0.0220895
0.0238547
0.0226499
3.95071
7.41505
7.65566
2.37957
0.0220603
1.99859
5.26236
0.0269858
4.90055
0.0466686
0.0220819
6.13644
3.79917
6.38513
0.0222058
0.0231374
0.044108
0.271891
0.021815
0.0220408
0.0222421
0.021808
0.0220422
6.55434
0.0239689
0.0216915
8.19417
0.0221051
5.8757
0.0411699
5.64937
0.342778
0.0219801
5.74843
0.120475
0.9191
0.0227305
0.0275982
0.0220164
0.0231805
6.27178
0.166964
0.078736
0.0224828
0.0219357
0.13133
0.0233058
0.022064
0.0271545
0.021935
5.14917
0.0220011
4.70259
8.45739
0.0233092
0.0219825
8.25288
0.0218664
0.0216729
1.36395
0.0242959
0.0237002
0.0869688
1.99883
5.57155
0.0340995
0.023843
0.0222969
5.16522
2.26485
0.0235349
0.0344621
0.0218714
0.0218028
0.0238604
0.0217138
0.258858
0.0284724
0.0219927
0.0222177
0.022095
0.021887
0.0218272
0.0219042
2.68016
4.02318
8.26385
0.351612
1.39633
0.487933
0.0250586
5.05765
4.01343
2.08238
0.0220947
0.0216686
3.39589
4.54359
0.40193
0.230977
7.44675
0.0220962
0.0219225
4.55156
0.021844
0.161718
0.145084
0.0225334
10.9036
4.14379
0.0222598
11.42
6.88141
0.165523
0.835157
0.0222073
2.67246
0.621312
6.46911
0.0218523
0.0747546
1.97302
0.0218981
0.0391791
0.0217283
0.0517998
0.0220807
6.00825
0.356124
0.0220039
0.0231531
0.0223331
4.84663
0.0425378
0.0221323
0.0222139
4.3763
0.0219094
0.0231609
0.127113
0.400757
0.0225946
0.0895695
0.0509313
0.0219471
0.139252
0.0219134
0.0219592
0.0265497
0.0219688
0.0301807
5.40288
0.247559
0.0220039
14.5887
2.71022
0.314283
6.93146
0.0403445
0.0234121
5.4801
0.0261487
0.024289
0.0480367
0.0869544
0.0218752
0.0216781
0.0221106
0.436659
5.11811
5.77162
5.78939
0.0218233
0.0259009
0.0871611
0.202408
5.23111
0.0221381
4.65534
0.022389
7.21194
0.0215671
5.61242
0.0228063
16.6702
6.83242
0.0896192
5.17313
0.0579569
0.0218368
0.0905522
5.42389
16.4046
0.0262402
0.022347
0.0219622
0.0220893
0.0289509
0.0222872
0.0235843
0.0218178
0.0609969
0.0220127
5.91129
0.0222246
5.11752
0.0216806
0.177016
10.3008
0.0230238
2.0571
0.0220192
0.0270253
0.0221518
0.0221996
0.0219114
0.304155
0.253813
0.0218009
0.0244326
0.0219699
4.6532
0.0310273
0.488147
0.247767
0.0219775
0.0485502
0.0226369
0.0229094
0.0474196
0.0221064
0.0557105
9.89597
0.0220334
5.47428
0.0283072
0.0218794
0.0217237
8.71686
0.0219959
5.46465
0.175075
0.0222688
2.5927
0.111273
5.47807
0.0254738
0.0252418
0.0221022
0.0591022
4.2806
0.0221361
0.0472059
0.0220484
0.0991304
3.14676
2.51811
6.58553
23.7645
0.0293156
2.2447
0.0221347
5.09423
0.398967
0.0264261
0.517683
0.0652043
0.0215749
0.0503436
0.022007
0.0217652
0.0244713
0.0219392
1.85991
2.25121
0.156208
3.8523
0.0220766
2.74656
0.0220616
0.0219733
0.0432985
5.12475
0.0217328
5.28557
0.122049
0.101568
7.30647
0.0222138
0.045836
6.66337
0.0442407
0.0219324
0.347578
0.0219587
0.0221307
0.0222429
1.88746
11.5841
0.0252495
0.0221016
4.84609
11.8259
0.0222769
0.0222393
3.19012
6.43689
0.0222089
0.38641
0.126696
0.021878
0.0295914
0.0217016
4.58379
0.0219846
9.81429
6.57676
5.68763
0.0244584
0.032739
0.0218065
0.0218006
2.73956
0.0218422
8.76513
5.44379
0.0832349
0.0218488
0.0216924
0.783744
0.300327
0.0543876
7.95452
0.0888285
3.4215
0.0229417
4.88406
2.01143
0.0262767
0.435425
5.89113
5.89846
0.022038
8.17285
0.0217405
1.28312
0.363635
1.43945
0.0215875
0.0425204
0.0221078
0.725773
3.82461
0.0226267
0.0229588
10.1801
4.77197
0.0219802
5.28276
3.28265
2.8084
0.0222161
5.64852
0.0221519
5.71214
0.0221133
0.0226485
0.0222021
0.0219722
8.04975
0.251608
0.0217207
4.02433
5.34483
0.0215428
0.0216918
0.0416572
0.066771
0.10035
0.0488332
26.1452
4.88914
4.84358
6.14274
0.0938867
0.023087
0.155721
0.131732
5.2622
2.82143
5.57415
0.100081
0.0506987
0.0244274
5.46874
0.0832902
0.441907
0.0221854
0.0253766
11.3354
0.0220952
0.0296046
0.661661
0.0242181
0.04256
0.0219949
0.0231142
6.38519
0.432296
0.0216387
0.0256166
10.8556
0.272201
0.0302693
1.9654
3.01612
0.0441362
0.22417
4.75417
0.022683
5.50333
0.107547
2.94343
0.0221459
0.0214702
1.89479
4.844
4.98603
7.28882
3.61487
0.0409904
0.0895787
0.0237569
4.74972
0.0218721
0.0220291
0.0445205
0.0746524
0.0966708
5.88201
0.022878
4.9163
5.58566
0.0222965
0.0936839
0.0232534
0.194662
0.148591
0.041108
5.88925
5.04365
4.0933
2.42409
0.0321352
0.0219579
0.0226201
0.0271725
0.992416
6.87943
5.32254
8.90412
0.0511866
0.0218011
0.356972
0.0407967
5.03098
0.0220976
11.6559
0.0555821
6.07447
0.0220938
2.08403
0.0936743
0.068858
2.7405
0.0217211
5.0679
5.42138
0.0218168
0.0853386
5.26439
0.0223969
0.334092
0.0231559
0.0229658
0.0222575
5.20251
0.0470873
2.20352
0.0286528
8.4488
0.0217497
0.0215217
0.0218785
0.0220654
0.0219583
8.11499
0.526497
5.62804
0.0222106
0.021774
7.35877
0.0286756
3.55068
0.0946552
0.0219748
0.928052
0.0307461
0.0378089
5.95966
0.0261552
41.5681
0.744576
0.0277562
0.0216232
0.288559
0.0215357
0.802157
8.61325
0.239252
0.0217889
6.99112
0.388436
0.0219844
3.37626
0.022131
5.90573
5.36151
0.0276562
0.0255989
0.072236
0.0390771
0.022251
0.021636
0.0219768
17.5131
0.0252108
2.23662
0.833972
10.7494
0.35783
0.126736
0.021989
0.225383
8.54159
0.0256013
0.0218493
0.0239208
0.0222287
9.19741
0.0889192
5.51581
0.0220026
2.27497
3.41799
4.87283
7.20238
0.0219876
2.00806
1.91312
0.0220024
0.0222853
2.039
4.70478
0.0265863
0.307737
3.26677
7.37436
0.0297254
0.0228874
0.425041
0.0426964
0.0232874
0.0272987
0.0221215
0.0814168
5.83553
0.0568989
0.0228662
11.7454
0.13673
0.0216487
0.22214
0.220752
0.0740447
0.0501929
0.0216587
0.0217958
2.16524
2.83484
0.0429816
0.0218343
4.4291
0.559842
0.284257
1.89693
0.0234749
0.0216555
0.0220986
0.022199
0.0295331
4.89933
0.10142
0.0223994
0.142677
0.0220707
5.36757
0.0231079
4.35321
0.0229979
0.877783
0.0502412
5.18972
0.0219291
0.0220807
0.0218022
3.6426
0.0260163
5.19458
3.56853
0.0533845
0.0222099
0.0270919
0.0313446
0.0222527
6.03888
0.0216023
4.75283
4.93157
0.756412
0.0277645
0.0219774
0.0222776
0.0220223
0.0222268
0.0940949
7.88601
5.59365
21.2937
0.789077
2.45205
0.0236269
0.321653
0.0725448
0.0495547
0.0219733
0.0216486
0.222984
0.0230658
0.0216444
5.17229
0.415023
0.541371
6.22744
4.26922
0.0220995
0.022128
0.0227497
0.0409443
4.29286
0.022061
0.0457936
0.514764
1.27473
0.0437071
0.0221378
0.377937
0.0269009
6.2228
0.0220701
0.0217295
0.0219952
0.0219735
0.0227182
5.51946
0.292405
0.0952308
0.144456
0.0958606
0.0218688
0.0474064
0.0226681
0.0221028
0.0267735
6.57368
5.98631
0.0218127
0.393272
0.0218587
0.0589271
0.0230891
0.02818
0.0221044
0.0863815
0.0571703
5.27298
10.8972
8.26897
8.68905
25.1172
5.0385
1.41017
0.0217182
5.89115
0.0217171
7.45808
0.0257644
4.20088
0.0220928
0.0869298
0.022045
0.0217626
0.0243201
0.0220063
1.80392
0.0216525
0.0219846
0.0216366
0.021705
0.0218023
0.0301055
0.0221264
5.15861
0.0494038
0.0219625
4.06559
0.0220394
0.021855
0.0727652
6.41007
0.037777
0.0289196
0.0217649
0.0216052
4.96958
0.0221752
0.0257613
0.177707
5.78479
8.51592
5.08739
6.00944
4.98069
19.3774
4.75839
8.31547
0.0741417
3.42587
0.0222278
0.0220153
0.0784444
0.0256592
2.5407
0.022122
0.044069
0.0482533
0.436787
0.0891561
0.0393855
0.023451
0.0219842
0.0466364
0.0220717
0.0217203
0.368695
0.0222481
5.05031
5.58974
0.118834
0.021784
4.93202
0.0231056
5.17779
0.557462
0.0218367
8.28994
6.07712
0.0664669
0.0738455
0.0307505
2.4965
4.24327
0.0236662
20.3242
0.0528897
0.0404781
5.67279
0.0221248
10.5429
0.0220385
0.0221888
0.0218117
2.08163
0.255021
0.332492
5.15271
0.0248952
0.045906
3.31144
0.0217881
6.38955
0.0216859
2.06677
4.1703
10.5155
0.130286
10.4106
0.0219975
0.0221399
0.0239538
6.11523
0.0462849
0.0224617
0.0219568
0.0214642
0.0218908
0.0616359
0.151502
0.0818064
0.154465
0.0587686
0.0220111
5.21729
0.0300283
2.07956
0.0226205
0.0217467
0.022554
0.0222305
0.0380964
0.322342
4.83338
0.662422
6.20788
0.482143
0.0218191
1.82933
0.0215132
0.0220101
0.0229661
0.0217606
0.0307244
0.0219888
0.0671404
0.0218237
2.24265
0.022277
0.0224513
0.0217542
4.38144
0.640668
0.0871989
0.0215481
4.9266
0.167424
0.0822974
5.14875
0.0589426
2.58122
0.022067
2.04113
0.212708
0.0298349
1.65366
0.0325654
0.0429352
0.79869
0.0281042
17.9544
0.118847
6.05167
4.13785
0.0419528
0.0294438
0.0219708
5.08013
0.0220235
3.08406
0.0219191
0.0218964
0.0215279
0.031314
6.62921
0.0238864
0.0219187
0.0221141
0.0442616
6.81756
0.116951
3.10523
0.177115
0.0665294
0.0219913
0.0620557
0.022192
0.0228394
6.50393
0.0320481
0.0382978
0.134449
7.68945
0.157412
0.0426569
0.0746914
0.0688755
0.0245786
12.3013
0.0222235
6.81525
0.0251948
15.096
0.0989746
8.52684
6.17082
0.109466
4.75408
1.92208
0.154277
0.35511
0.101453
0.387377
0.0220298
0.0842662
0.061496
10.3375
0.0230496
3.90591
6.61709
0.0215044
0.0217594
6.06683
0.0223066
0.0218665
0.0216221
15.2542
2.30132
7.17358
0.0272864
1.66851
0.254471
10.171
1.69959
0.0897486
0.0220567
23.7279
2.99379
1.70268
0.335839
0.0219596
0.0218333
0.0220142
0.0221127
1.45511
0.142314
3.43507
0.0851952
0.0221431
0.0219591
0.0222885
0.0315997
11.7826
0.0238753
8.68905
4.16351
0.0548529
0.0221217
4.91108
0.175569
2.86467
0.0219371
22.0205
0.107007
0.0221549
5.7873
4.19525
0.0230433
0.0217637
0.0221044
0.0222559
0.0219861
0.176329
0.0612567
0.358611
0.0418718
0.022606
0.0305596
0.0220861
0.0256071
0.021955
7.68358
15.2258
0.0354276
0.0220164
4.61069
0.0216864
0.197824
0.509285
9.53878
4.45832
6.41573
0.02206
0.0222747
0.0221242
0.231354
0.022615
2.47215
0.025161
0.021889
0.0219929
0.175135
0.1845
0.0220741
4.39005
0.074923
3.29495
11.1447
0.0221178
0.860991
4.07264
0.203241
0.0222874
0.0219795
0.141801
1.32994
19.5719
0.0231473
7.89178
0.0217435
0.0966218
2.34283
0.219935
0.0217235
7.35591
5.62274
6.18138
8.2884
0.0222769
0.0222016
0.0986149
0.148526
0.0420579
0.0229451
4.16538
0.0232923
7.22755
4.36127
0.0218865
7.82217
0.0218489
0.0874972
7.34756
0.0827819
0.0572782
2.33731
0.0243768
11.0497
0.0219751
0.872038
6.13585
3.41722
14.2946
0.0244212
0.055032
0.0217046
5.9407
0.0229935
0.0217358
0.047257
0.0515002
0.0491175
24.4215
4.92967
4.3167
0.218891
0.0313099
0.0377991
0.0266767
0.0331302
30.9954
0.0233208
0.422407
0.0228467
5.10632
0.718562
0.0221835
0.0221641
0.0435136
29.6041
0.0430741
0.0216119
0.0218852
0.0299706
0.0262365
0.0282868
0.025308
5.05266
0.0237229
3.9359
0.0703888
0.0219297
0.0703704
0.0717375
0.0414098
0.0218392
0.022083
5.29991
4.27121
5.27708
0.040262
0.0461204
0.0554354
0.047749
0.0219185
0.0235561
3.73609
0.0479222
0.0238259
4.27801
6.17602
0.24006
4.33202
0.0801756
0.0226451
6.22127
0.0672532
4.64736
0.0219139
5.14319
0.051011
0.0319482