/*--------------------------------*- C++ -*----------------------------------*\
| =========                 |                                                 |
| \\      /  F ield         | OpenFOAM: The Open Source CFD Toolbox           |
|  \\    /   O peration     | Version:  v2012                                 |
|   \\  /    A nd           | Website:  www.openfoam.com                      |
|    \\/     M anipulation  |                                                 |
\*---------------------------------------------------------------------------*/
FoamFile
{
    version     2.0;
    format      ascii;
    class       surfaceScalarField;
    location    "100";
    object      phi_0;
}
// * * * * * * * * * * * * * * * * * * * * * * * * * * * * * * * * * * * * * //

dimensions      [0 3 -1 0 0 0 0];
oriented        oriented;


internalField   nonuniform List<scalar> 
27274
(
0.130652
0.0318266
-0.162479
0.0122539
-0.00721741
-0.00503653
0.228677
-0.309561
0.0808843
-0.319613
0.517093
-0.19748
0.290132
-0.243605
-0.0465271
0.133091
-0.122529
-0.010562
0.36051
-0.417375
0.0568641
-0.165618
0.0798829
0.0857351
-0.144162
0.15338
-0.00382627
0.00127726
0.00254902
0.433883
-0.212523
-0.221361
-0.00989096
0.011627
-0.00173605
-0.0371854
0.0943005
-0.0571151
0.217672
0.0935628
-0.311235
-0.0583451
0.283278
-0.224933
0.0343286
0.147324
-0.181653
-0.00758985
-0.00251608
0.0101059
0.0412456
0.247454
-0.2887
-0.295406
0.248921
0.0464855
0.0521104
-0.0378658
-0.0142446
-0.118409
0.164414
-0.0460051
-0.0379449
-0.143579
0.181524
0.00156358
-0.00471648
0.0031529
0.256637
0.033495
-0.224282
-0.0266582
0.372986
0.0382192
-0.411205
-0.42223
0.171183
-0.157225
0.165212
-0.00798745
0.00782254
0.00042986
-0.0082524
-0.215163
-0.0580775
0.27324
0.140465
-0.269111
0.128647
-0.273487
0.111333
0.162154
-0.291542
0.332788
0.209112
-0.529223
0.320111
-0.0507406
-0.0794038
0.130144
0.165581
-0.0349286
-0.21587
0.0820187
0.0640318
-0.108732
0.0447001
-0.19981
0.0425852
0.420167
-0.309839
-0.110328
-0.0239998
0.241672
-0.0960736
0.0709863
0.0250873
0.308485
-0.0798081
0.00227301
-0.00151033
-0.000762679
-0.524974
0.363194
0.16178
0.0807824
-0.0167506
-0.126208
0.15112
-0.0249124
0.062046
0.106967
-0.169013
0.128221
-0.153545
0.0253247
-0.478833
0.210407
0.268426
-0.416519
0.084833
0.331686
0.188549
0.128281
-0.31683
0.286736
0.171001
-0.457736
0.0106384
-0.0203706
0.00973218
-0.0803066
0.384158
-0.303852
-0.461068
0.486867
-0.025799
0.0799602
-0.123054
0.0430933
-0.196735
0.13839
-0.0222566
0.0150309
0.00722571
-0.0482374
0.118112
-0.0698748
-0.240729
-0.238104
0.143759
-0.153775
0.0100161
0.0622811
-0.354928
0.292647
-0.00501327
-0.117509
0.122523
0.000236488
-0.0101274
-0.140906
0.172733
-0.00485121
0.00299247
0.00185874
-0.119255
0.123075
-0.00382035
-0.237916
0.161425
-0.19937
-0.137012
0.104009
0.0330032
0.560134
-0.32034
-0.239794
-0.105124
0.0568865
0.400139
-0.28339
-0.116749
-0.0857213
-0.0798967
0.06254
0.29797
0.048331
-0.0278509
-0.02048
0.286077
-0.245768
-0.040309
0.0283423
0.157851
-0.186193
0.182396
0.156633
-0.339029
-0.338563
-0.0788119
0.0702627
0.0141293
-0.0843919
-0.1709
0.0524909
-0.125261
0.0110187
0.114242
0.0559374
0.317049
-0.0919262
0.0547408
0.00202534
0.0170852
-0.0191105
0.0300284
0.022082
0.00731377
0.000508767
0.00810413
0.00812774
-0.0162319
-0.0542811
0.107038
-0.0527572
-0.441103
-0.0838716
0.480215
-0.165206
-0.315009
-0.297847
-0.119744
0.41759
0.00327033
-0.00327033
-0.000655751
0.00221933
-0.360165
0.245516
0.114648
0.21429
-0.216174
0.00188434
0.0175697
-0.00693135
-0.00705806
0.00826289
-0.00120483
-0.00194907
0.00136268
0.000586388
0.0101203
-0.00773832
-0.00238196
-0.174636
0.120643
0.0539934
-0.091397
0.0579679
0.0334291
0.304278
-0.222915
-0.0813629
-0.0652987
0.114457
-0.0491584
-0.0121167
0.0125392
-0.000422465
-0.0265113
-0.0618791
0.0883904
-0.00313303
-0.11767
0.120803
-0.0380167
0.0167866
-0.316911
0.11256
0.204351
0.160024
-0.207256
0.0472325
-0.435382
0.0646657
0.370716
-0.0133636
0.173387
0.0122448
0.00774313
-0.019988
-0.411343
0.549274
-0.137931
-0.0114013
0.012658
-0.00125675
0.0224869
0.0258441
-0.0146915
0.0136946
0.000996902
-0.145315
-0.0293208
-0.00171645
-0.00210982
0.0433458
0.0434149
-0.0867608
0.210751
0.075326
-0.101966
-0.0350461
-0.141559
-0.218606
-0.0878703
0.061359
-0.153503
0.342051
0.280689
0.194691
-0.47538
0.0401744
-0.0791877
0.0390132
-0.41395
0.116104
-0.30698
-0.109538
0.0795621
-0.0725205
-0.00704164
-0.0232922
0.129384
-0.106092
0.19187
0.0224194
0.079099
-0.108835
0.0297364
-0.171544
0.452233
-0.193097
0.00900007
0.184097
0.274986
0.158897
-0.217169
-0.0490307
0.2662
0.0581123
-0.12163
0.0635182
-0.00254534
0.000596276
-0.0069421
0.00328727
0.00365482
-0.215486
-0.0393443
0.25483
-0.266966
-0.0499444
-0.0250425
0.021446
0.00359646
0.258033
-0.107482
-0.150552
-0.157057
0.0420179
0.115039
0.0229542
-0.00405761
-0.0188966
-0.12938
0.208865
-0.079485
0.0198429
0.0031113
-0.140934
-0.121558
0.262492
0.114455
0.0413479
-0.0920884
-0.0147042
-0.00755238
0.109606
-0.129889
0.0202829
0.0351622
0.424897
-0.460059
0.068986
0.0105761
-0.00457003
-0.0101215
0.350226
-0.315064
-0.146605
0.0396261
0.106979
0.00579425
-0.122495
0.116701
-0.0308596
0.190673
-0.159814
-0.13845
0.0186834
0.119766
0.220784
-0.0289132
-0.0501235
0.0945444
-0.0444209
0.029789
0.00850056
-0.0382896
-0.00555573
0.0116643
-0.00610862
-0.175134
0.144447
0.0306879
0.114568
-0.05163
-0.0629382
-0.344871
0.320756
0.0241147
0.0131245
-0.0142696
0.00114502
-0.00262179
0.00245773
0.000164069
-2.65845e-05
-0.380892
0.380919
-0.369085
-0.0193702
0.388455
-0.157932
0.192261
-0.00131701
0.0106327
-0.00931566
0.136275
-0.150192
0.0139167
-0.361573
0.0231601
0.338413
0.0896163
-0.0494419
-0.0113659
-0.0147678
0.0261337
0.0425747
0.0136494
-0.0562241
0.0612284
0.0533397
0.199608
-0.200119
0.00051021
-0.44261
0.369785
0.0728249
0.0930803
-0.0419138
-0.0511666
-0.0075901
0.0144312
-0.00684107
0.000110477
0.0123034
-0.0124139
-0.0323789
0.101617
-0.0692384
-0.0304319
-0.135864
0.166296
-0.0103547
0.00276484
-0.025818
-0.184945
-0.139966
0.324911
0.189608
0.0311755
-0.0413652
-0.0311531
0.0725183
0.109281
-0.0739455
-0.0353352
-0.283708
0.12836
0.155348
-0.101132
0.0367462
0.0643861
0.177001
0.0226075
0.169657
-0.152539
-0.0171183
-0.369111
-0.273309
0.108538
0.164771
-0.181748
0.0340862
0.147662
-0.00370412
0.00758536
-0.00388124
-0.0064445
0.00655498
-0.0150678
0.00312431
0.0119435
0.169129
-0.198435
0.0293056
-2.96059e-05
-0.0113717
-0.000447495
0.00284108
-0.00239359
0.00100624
-0.00222231
0.00121607
0.148665
0.0209919
-0.384625
0.191528
0.082932
-0.223866
-0.0465829
0.0297571
0.0168258
-0.243304
0.0278181
0.085318
-0.430189
0.0938853
-0.0236226
0.0161616
-0.0692403
0.0530787
-0.0165545
-0.366084
-0.0692975
0.0854424
-0.214822
-0.0422112
-0.0480811
0.0902923
-0.0280892
-0.274008
0.302097
0.011076
-0.136337
0.233952
-0.224952
0.00028055
-0.00583628
0.120265
-0.259634
0.139369
0.00226219
-0.00415435
0.00189216
-0.00854914
-0.00837713
0.0169263
-0.043071
0.0364384
0.00663265
-0.160624
-0.224001
-0.189298
0.476034
-0.16778
0.196122
-0.151375
-0.0141107
0.165486
0.00300435
-0.000742165
-0.144358
-0.0636648
0.208023
0.339909
0.0730951
-0.413004
0.0285615
-0.390135
-0.0503284
-0.0338168
0.0841452
-0.106251
0.0595089
0.0467418
-0.0150678
0.154398
-0.157531
0.0723246
-0.118339
0.0460145
-0.0357653
-0.240979
-0.415849
0.156329
0.25952
0.118213
-0.239972
0.121759
-0.0131896
0.00464049
-0.0411429
0.078726
-0.0375831
-0.00357988
-0.00314439
0.00672427
0.128388
-0.0187814
-0.139663
0.145457
-0.149565
-0.123744
-0.0246375
-0.00698467
0.0316222
0.204786
-0.0277851
0.00070569
0.000300553
-0.285388
0.0622547
0.223133
-0.00981447
0.00437416
0.00544031
-0.0676627
0.0381149
0.0295477
-0.0787721
-0.0678329
0.128651
0.124508
-0.253159
-0.488756
0.443855
0.0449009
-0.162007
0.0211013
-0.0249382
0.105947
-0.0810084
-0.0171865
0.0134823
0.101711
-0.125004
0.129522
-0.415943
0.286421
0.280012
-0.381336
0.101324
0.0771114
-0.352684
0.275572
-0.114924
0.0632945
0.0653888
0.0186369
-0.0840257
-0.0475489
0.0437006
0.00384829
-0.234311
0.212772
0.0215385
0.0200038
-0.018754
-0.00124983
-0.0907962
0.0584173
-0.102392
0.0370929
-0.24164
0.0146188
0.227021
-0.0566206
-0.0445117
-0.160323
0.342719
-0.436295
0.15721
0.279085
-0.0562853
-0.0124225
0.0687077
-0.574831
0.313202
0.261629
0.307712
-0.245172
-0.132529
0.0754353
0.0570935
-0.264548
-0.0481771
0.312725
-0.000423579
-0.00402275
0.00444632
0.172258
0.0325277
-0.177655
0.130317
0.0473382
-0.296169
-0.278661
-0.135426
-0.0397089
-0.00398762
-0.00781731
0.0118049
-0.0627356
0.0937185
-0.413332
-0.127849
0.283438
-0.155589
0.059319
-0.106559
0.0472395
0.00906607
-0.0111807
0.00211468
-0.34558
0.422691
0.400852
-0.46223
0.0613784
0.0530602
-0.0368986
-0.158098
0.0879714
0.0701264
-0.0928765
0.126509
-0.0336323
-0.0593136
0.0372566
0.022057
-0.253202
-0.183093
0.0790708
-0.0404496
-0.161821
0.202271
-0.000899329
0.401751
-0.0221484
-0.0371653
-0.0930156
0.0428922
0.030667
-0.0836291
0.052962
0.108748
-0.0494291
-0.299263
-0.114687
-0.0159616
0.0585362
-0.127457
-0.179377
-0.0889043
-0.206502
-0.0853387
0.0441959
0.338861
-0.112563
-0.226298
-0.0425998
-0.0665296
-0.029544
0.241134
0.239081
-0.39876
0.12301
0.275749
-0.0820022
-0.036337
0.0188794
-0.00313362
-0.0157458
-0.000733537
0.000286042
0.255098
-0.0137053
-0.241393
-0.00129137
-0.137158
0.00175788
0.00051513
0.347442
-0.139869
-0.207573
-0.0608987
-0.045352
0.172883
-0.190967
0.0180844
0.134166
-0.0405733
-0.0935925
-0.0942962
0.0333975
-0.41912
0.119856
0.0432446
-0.0134555
0.179935
0.099047
-0.278982
-0.0360012
0.1151
0.533229
-0.357537
-0.175692
0.0355113
0.00795168
0.000468529
-0.00842021
-0.390478
-0.0139526
0.40443
0.00151083
-0.0128768
-0.157122
0.18107
-0.0239474
-0.388519
0.236271
0.152248
0.0143232
-0.140531
0.0235278
0.120231
0.0903003
-0.0488245
-0.0414757
-0.00523645
0.0231599
-0.0179234
-0.0786831
0.0373179
-0.0586907
-0.226697
0.257766
-0.195485
-0.0018989
0.00070054
0.00119836
-0.0791346
0.0474662
0.0316684
0.404541
-0.251968
-0.152574
0.169898
0.0300533
-0.199952
-0.0453895
0.0760565
0.0642386
0.0288418
-0.0338448
0.00920732
0.00146343
-0.00336233
-0.253075
-0.0364664
0.289541
0.238538
-0.20723
-0.0313074
0.00403839
-0.00625845
0.00222007
0.303727
-0.191167
-0.204617
0.0602591
0.090696
-0.0240849
-0.066611
-0.154293
0.136413
0.0178795
0.254867
-0.0339935
-0.220873
0.016681
0.00219837
0.266978
0.210975
-0.477953
0.0834879
-0.0936734
0.0101855
0.0434871
-0.0856983
-0.0126753
0.0126753
-0.305021
0.398739
0.270114
-0.163849
-0.106265
-0.350755
0.290388
0.060367
0.370504
-0.19919
-0.171314
-0.0893237
0.0669771
0.0223466
0.220256
0.150249
-0.0983946
0.148531
-0.0501369
-0.233437
-0.117318
0.0520602
0.134716
-0.186776
0.136664
-0.389738
0.0359525
-0.180114
-0.120117
0.267324
-0.147206
0.0171844
-0.217594
0.20041
0.308647
-0.265656
-0.0429905
0.284355
0.0242921
-0.0239698
-0.16462
0.18859
-0.0485187
0.0123839
0.0361348
-0.00632319
0.00908655
-0.00276336
0.081239
0.152713
-0.057953
0.0637653
-0.0058123
-0.133431
0.0455825
0.0878484
-0.00911087
0.00278768
-0.146618
-0.0290574
0.175676
0.134472
-0.0784316
-0.0560403
-0.0970251
0.215238
-0.0527937
0.0834075
-0.0306138
-0.12423
-0.437172
0.0258289
-0.0165727
0.356482
0.382791
-0.155433
-0.227358
-0.0156575
0.010421
0.00140944
-0.183676
0.182267
0.458502
-0.0953077
-0.0165679
-0.115074
0.131642
-0.147033
0.0486382
0.129991
0.173736
0.180431
0.167011
-0.00171867
0.000207854
0.00151081
-0.122283
-0.313826
-0.0273964
0.281687
-0.383286
0.101599
-0.0051634
0.00158352
0.00617199
-0.00893179
0.0027598
0.0537623
0.0369337
-0.020337
-0.13672
0.176821
0.00508781
-0.00907542
0.271098
0.289036
-0.235264
-0.106747
0.342011
-0.0146588
-0.019186
-0.366664
-0.0869915
0.453655
-0.329646
-0.0512468
-0.00350629
-0.0068484
0.298315
0.101824
-0.000714612
0.0086663
0.140389
-0.126884
-0.0135055
-0.137009
0.144971
-0.00796249
-0.00306485
0.00923684
0.01628
0.179368
-0.195648
-0.335532
0.100268
0.0137156
-0.0411012
0.0273855
0.118854
0.0142372
0.0108459
-0.044705
-0.046692
0.346825
-0.209308
-0.137517
-0.34364
-0.098969
-0.265337
0.157856
-0.0234618
-0.0374141
0.0608759
0.0521092
0.0607461
-0.112855
0.0125303
0.23639
-0.443886
0.388567
0.0553184
-0.222849
-0.0204556
0.0184609
0.065027
-0.00368652
0.0077249
0.203624
-0.148383
-0.0552408
-0.140935
-0.124402
-0.285858
0.3982
-0.112341
-0.175394
0.0287754
0.100961
-0.0711042
-0.0298572
-0.0026873
0.0117534
-0.00748856
-0.00232591
-0.0645684
0.0625526
0.00201575
0.0594497
-0.0759689
0.0165193
0.0664866
0.017637
-0.0841236
-0.000968719
-0.000541608
-0.192426
-0.0665179
0.258944
-0.405084
0.27564
0.129444
-0.27079
-0.192213
0.273452
-0.0846039
0.0562458
0.0283581
0.369131
-0.219716
-0.149414
0.181297
-0.00895855
0.00190049
-0.0351563
0.0536171
0.142544
0.0221715
-0.0140673
0.07004
-0.0105903
-0.0116624
0.00407227
-0.210214
-0.0737043
0.283918
0.164237
0.127447
0.18314
-0.310586
0.110007
-0.44857
0.0117393
-0.455625
-0.475157
-0.406398
0.153196
0.00375894
-0.00865513
0.00489618
0.0561961
0.198902
0.396421
-0.28143
-0.114991
-0.046642
0.0899878
0.122366
-0.0846098
-0.0377563
-0.318953
-0.0861318
0.153761
-0.236423
0.0826615
-0.097767
0.0217642
0.0760028
0.0080186
-0.0643039
0.0231762
-0.181109
0.0576347
0.214081
-0.271716
0.0455953
-0.196455
0.014707
-0.018099
0.00235974
0.0157393
-0.0374263
-0.400565
0.201374
8.90312e-05
0.00632159
-0.00641062
0.0689321
0.053434
0.106812
0.266111
-0.372923
-0.000119309
-0.00111172
0.00123103
0.00383011
-0.00303567
-0.000794433
-0.000629219
0.00184031
-0.00121109
-0.195649
-0.204916
0.267251
-0.209617
0.00427477
-0.15565
-0.0985578
0.107209
-0.00865161
-0.135766
-0.0813959
0.217162
0.0178978
0.00210599
-0.0654715
0.0420097
0.0165387
-0.0744917
-0.0299765
0.0872171
-0.0572406
0.137419
0.245371
0.0183936
0.121996
-0.0115203
-0.00198076
0.0135011
-0.00327754
0.0145769
-0.0318448
0.0172678
0.212125
-0.277013
0.0648881
0.125473
0.0367187
-0.162191
0.0327703
-0.155266
-0.00271097
0.00134765
0.00136332
0.0055995
0.00452078
-0.0855703
0.0312892
-0.124899
0.245165
0.0244059
-0.241575
0.376864
-0.086478
-0.290386
-0.0487864
0.100896
-0.228245
-0.178153
-0.040729
0.0544447
-0.106483
0.139253
-0.0123678
0.0246126
-0.294857
0.228063
0.066794
-0.274467
0.0516189
-0.425842
-0.062914
-0.118747
-0.000507297
-0.0233645
-0.118357
0.141722
0.0650448
0.0359166
-0.268822
0.381229
-0.112407
0.120654
-0.0663741
-0.0542797
0.0120517
0.0351973
-0.047249
-0.155035
0.176613
-0.0215783
0.302861
-0.17421
0.210993
-0.126688
-0.0843051
0.185682
-0.167151
-0.0185309
0.48731
-0.249973
-0.237336
0.129879
-0.163668
0.0337889
-0.0056279
-0.173536
0.0185008
-0.0418472
-0.0475866
0.0894338
-0.0347187
-0.293776
0.400588
-0.197167
-0.500421
0.109943
-0.147348
0.0119225
0.187113
0.0677538
-0.114149
0.089245
-0.299459
0.134978
0.121659
-0.0104773
0.266542
0.142623
-0.409165
0.0188655
0.0796659
-0.0985314
0.18679
-0.196487
0.00969733
-0.0563879
-0.0420845
0.0984724
-0.17144
-0.00621487
-0.0204911
0.00483364
-0.262662
0.0885028
0.17416
0.00489563
-0.00489563
0.132043
0.0281467
-0.160189
-0.0911484
0.153194
-0.0510025
-0.0166602
-0.0123559
-0.0334435
-0.0254585
0.058902
0.13707
0.0395429
0.193237
-0.191827
-0.394741
0.199092
0.210755
0.111756
-0.322511
-0.129165
0.0775207
0.0516447
0.151801
-0.126825
-0.0249758
-0.0440719
0.132416
-0.0883436
-0.106601
0.0713651
0.0352364
-0.00318315
-0.0496747
0.096894
-0.0472193
-0.355911
0.505796
-0.149885
-0.00039931
-0.00123548
0.00163479
-0.0113911
0.0528797
-0.0414886
0.141785
-0.228509
0.0867243
0.238333
-0.0275784
-0.0590822
0.0779477
0.0127032
-0.00457548
-0.133756
-0.0282509
-0.276466
-0.13764
0.414106
-0.0818458
0.0246789
0.0571668
-0.0960925
0.0542453
-0.142791
0.0633875
0.102711
0.0111216
-0.113832
-0.0392932
-0.00946025
0.0487535
-0.16228
-0.0538942
0.0616538
0.0354418
-0.0970956
0.00597785
-0.00640777
0.000429914
-0.0607456
-0.0335507
-0.0419238
0.098525
-0.057407
-0.041118
0.0322222
-0.0825506
0.145412
-0.184597
0.0391856
-0.401996
-0.0590715
-0.103983
-0.318761
0.103598
-0.00212705
-0.0229154
0.0208893
0.0146337
-0.0355231
0.00890003
-0.010217
-0.0106648
-0.037854
-0.00756604
0.00922153
-0.00165549
-0.00747962
0.00724805
0.000231568
-0.0705235
-0.0113223
-0.034802
0.182126
-0.00521322
-0.00522164
0.0104349
0.00606032
0.0281278
-0.0341881
0.207644
0.0239621
-0.0479661
0.0240039
-0.00258879
0.00487459
-0.0022858
0.0529356
0.0143414
-0.067277
0.0823965
0.121227
-0.108953
0.402636
-0.293683
-0.193813
0.0315325
-0.214133
0.183474
0.0306593
0.15543
0.0302513
-0.0631253
-0.059083
0.122208
0.0781702
0.260691
0.00176153
-0.00176153
-0.189793
0.165823
0.142856
0.0170942
-0.15995
-0.00208935
-0.000621627
-0.217597
-0.0972239
0.314821
-0.147589
0.124225
0.0355737
-0.0209968
-0.238325
-0.0972071
0.0259091
0.183117
-0.209026
-0.00193089
-0.00132903
0.00325992
-0.114728
0.416589
-0.301861
0.0424993
0.0781545
-0.152578
0.00722319
-0.00516106
-0.00206212
0.186263
-0.0491931
0.126755
-0.141726
0.0149705
0.0900938
-0.193946
0.0483381
0.145608
0.011224
-0.109782
-0.110829
0.00604069
0.104788
0.011148
0.00869499
0.1067
-0.120955
0.0142548
0.147909
-0.27223
0.12432
0.00899235
-0.00931338
0.000321034
0.146762
-0.0200061
0.00395135
0.0124046
-0.00475701
-0.00764762
0.043245
-0.089887
0.0359341
-0.0806945
-0.186272
0.138983
0.230172
-0.369155
0.00221762
0.00161249
0.104098
0.106895
-0.0279606
0.15784
0.442771
-0.305346
-0.137425
-0.054707
-0.00588868
-0.0586797
-0.0227888
-0.0125841
0.0353729
0.00118338
9.17987e-05
0.00480383
-0.0331395
-0.0514644
0.13516
-0.185594
0.0504342
-0.382253
0.273301
0.166305
-0.127981
0.111413
0.108667
-0.0432784
0.328888
-0.200628
-0.12826
0.0343051
-0.0677486
0.135521
0.0336083
-0.0374552
-0.454587
0.4423
0.0122871
0.000586381
0.00128568
0.180848
-0.238925
-0.329209
-0.122404
0.015193
0.107211
0.169354
-0.4747
-0.106468
0.37258
0.00635763
0.00141317
-0.00777079
0.0363461
-0.226057
0.177295
0.0487623
-0.252291
0.364047
-0.0544867
0.107111
-0.0526241
-0.034393
-0.119152
-0.02593
0.183781
-0.0217338
-0.0574008
-0.213505
0.230689
0.00650313
-0.0180235
-0.126761
0.0197056
0.107056
0.10268
0.154027
-0.256707
0.0306237
-0.0167685
-0.0138552
0.00047308
0.00198465
0.255271
-0.402309
0.147039
-0.0403075
0.0175187
0.236134
0.280959
-0.331501
0.0931759
-0.244326
0.10856
-0.0849198
-0.0163043
0.101224
-4.26678e-05
-0.00219258
0.00223525
-0.0336927
-0.12343
0.00117829
0.00479956
0.0325635
0.1079
-0.140464
0.00879375
-0.0260214
0.0172277
-0.0733586
0.0433821
-0.160296
-0.0243011
-0.00732956
0.109838
0.160276
0.0145836
-0.0272155
0.0126319
-0.0747477
0.0166983
-0.0146729
0.00761021
0.00464373
0.0756666
0.170811
-0.246478
-0.0147417
0.0271613
-0.0124196
0.165578
-0.192976
0.0273983
0.0023275
0.129715
-0.0234757
0.0516625
-0.0281868
0.0195862
-0.0614258
0.0418396
-0.00308131
0.00816912
-0.392509
0.287201
0.105308
-0.010334
-0.0101571
-0.144059
0.319631
-0.175572
-0.0160023
0.0271502
0.0422214
0.165229
-0.207451
-0.211788
0.105305
-0.174999
0.00784813
-0.344218
0.188786
0.155433
0.198481
-0.498965
0.300484
-0.0274451
-0.106442
0.133887
0.0745066
-0.0230424
0.075978
-0.442458
0.0988176
0.00831002
-0.00790874
-0.00040128
-0.184386
0.02409
-0.239698
-0.10452
0.109847
0.267018
0.0639833
0.0741876
-0.138171
0.0562491
0.0501082
-0.106357
0.0197859
-0.0432616
0.112034
-0.145727
-0.157633
0.366745
0.135469
-0.170443
0.0349734
-0.0083677
0.0161108
-0.129391
-0.328807
0.216244
0.337144
-0.148358
-0.0365342
0.172004
-0.0181074
-0.145668
0.163775
-0.000441554
0.00220308
-0.31745
0.0998527
-0.0498901
0.0717122
-0.0218221
0.0478992
0.0613815
0.0486465
-0.0600376
-0.000290774
-0.000338444
-0.00220875
-0.00264246
-0.113285
-0.284175
0.397459
0.022055
-0.149941
0.127886
0.12354
0.235607
-0.197756
-0.0378514
-0.195436
0.170096
0.0253399
-0.000537342
-0.00205145
-0.315168
-0.0671886
0.382357
-0.165094
-0.229647
-0.498572
0.214823
0.283749
0.0343696
0.111028
0.0529252
-0.163953
0.249982
-0.102073
0.102277
0.0396982
-0.141975
0.0282338
-0.16199
-0.00388642
0.0159324
-0.012046
-0.00246305
-0.0096537
0.365939
-0.227498
-0.138442
0.170105
0.130904
-0.301009
0.00841698
-0.156955
0.00097231
0.000698828
-0.00167114
0.00341701
-0.0106344
0.000509021
0.00158939
-0.00209841
-0.0608281
0.0386798
-0.0420281
-0.0177812
0.0598093
0.0822487
-0.0421223
-0.0401264
0.0112645
-0.418953
0.0528691
-0.117534
0.275248
-0.0953129
0.167428
0.0508668
-0.218295
0.145463
0.259079
-0.0586292
0.0214664
0.0294483
-0.0509148
-0.000210887
0.00348122
-0.241789
0.0001489
-0.0179116
-0.0356648
0.0535764
0.10026
0.317167
-0.417427
-0.0682251
0.203385
-0.120044
-0.0269889
0.298548
-0.378854
-0.028044
-0.141027
0.166936
0.00669391
0.0147521
-0.00860508
0.00546068
0.0925446
-0.142186
0.0496418
0.00381935
-0.00690067
0.0848126
-0.018326
0.00419933
-0.00120687
-0.0606155
0.0792523
0.0429836
-0.0132265
0.000832565
-0.000120593
-0.000711972
-0.119451
-0.00731025
0.0538528
-0.0418011
-0.0929781
0.0433034
0.00616613
0.0062385
0.21954
-0.301791
0.0822506
0.113388
0.332398
-0.449032
0.116633
-0.0245248
0.0450586
-0.0246169
-0.0204417
0.36533
-0.476504
0.0927058
0.383798
0.0969447
-0.00423123
-0.0927135
-0.233421
0.398077
-0.164656
-0.0864485
0.0814352
0.0159401
-0.13345
-0.534023
0.310336
0.223687
-0.0732131
0.0565554
0.0166576
0.189817
-0.281711
0.0918948
0.263668
-0.104562
0.0500751
-0.267863
-0.101402
0.369265
-0.0476897
0.0880082
-0.0403185
-0.0132533
0.0341426
0.283138
-0.109334
-0.173804
-0.244023
0.169651
0.0743728
-0.350343
0.110645
-0.100663
0.0671909
0.0334722
-0.270722
0.400244
0.0621202
0.149213
-0.211333
0.0318884
0.0555051
-0.0873935
-0.137173
-0.156897
0.29407
-0.00201728
0.00149552
0.000521758
-0.201161
-0.0648205
0.265982
-0.000554231
0.00201766
0.238773
-0.02189
-0.216883
0.0846455
-0.122448
0.0378025
-0.236328
0.32896
-0.0926322
-0.00463336
-0.10863
0.113263
-0.149784
0.0297399
-0.349695
-0.0692581
0.169746
0.113392
-0.00171946
-0.000297823
0.23465
-0.262739
-0.00633039
-0.00474737
0.0110778
-0.00811502
0.0109764
-0.00286141
-0.168593
-0.0657183
0.296216
0.237013
0.302079
0.0820799
0.388515
-0.0626266
-0.325889
-0.00135868
0.0077163
0.1041
-0.35639
0.00422108
-0.00477531
-0.00125988
-0.00201045
-0.0136097
0.101581
0.00182003
-0.00135446
-0.000465573
-0.397872
-0.131351
0.226565
0.0842705
-0.310836
-0.00113285
-0.00200636
0.00283892
0.0654695
-0.176298
0.132794
0.223617
-0.356411
-0.145852
0.273298
-0.27386
0.0740188
-0.242641
0.168622
0.0758015
-0.100716
0.0249141
-0.00589324
-0.0174487
0.0233419
0.166727
-0.165637
-0.00109028
-0.000201213
0.0106677
-0.00235764
0.0287296
-0.0748193
0.0460897
0.122336
-0.0420517
-0.0802838
-0.27753
0.248199
0.0293304
-0.0105396
-0.00010428
0.0106438
-0.00368227
-0.0384104
0.140687
-0.325477
0.0891487
-0.27628
0.109355
0.166926
0.0004255
0.00150816
-0.00193366
0.140886
0.00110516
0.00611802
-0.0330779
-0.5253
0.341184
0.184116
-0.0595662
0.123549
0.188149
0.17642
-0.364568
-0.0513102
0.163344
-0.217396
0.122705
0.0946911
-0.400699
0.167278
-0.10594
-0.28084
0.386779
0.256549
-0.182531
0.00550168
-0.00394758
-0.0015541
-0.0919492
-0.306614
0.398563
0.00412147
0.00174206
-0.000464808
-0.0964307
-0.17985
0.0600277
-0.324576
-0.0722058
-0.0214676
0.00524901
0.00715432
-0.0124033
0.144582
-0.171087
0.0265046
-0.00139415
0.00465612
-0.00326197
-0.236346
0.112116
0.081535
0.124585
-0.155016
-0.00811052
0.00289731
0.0199182
0.0107055
0.0107946
-0.00519302
-0.00560154
-0.444877
0.0470051
-0.0160366
-0.18834
0.287387
-0.00524591
0.00385175
-0.353289
0.130418
0.222871
-0.0495276
-0.0236855
0.0934385
-0.00870218
0.00734351
-0.103126
-0.291551
0.394677
0.138146
0.310766
-0.448912
-0.059134
0.0171058
-0.327389
0.061366
0.266023
0.00530871
0.000192971
0.0701945
-0.262621
0.00911724
-0.023859
-0.175074
-0.111476
-0.26986
-0.0283166
0.135283
-0.0841679
0.0342779
-0.00868554
0.0031378
0.00554773
0.150349
-0.164459
0.163955
0.0797098
-0.243665
-0.170351
0.186631
-0.082413
0.21625
0.112638
-0.0588376
-0.417667
-0.110853
0.073646
0.0372068
0.279688
-0.130513
-0.149175
0.0124948
0.0164749
-0.0289697
0.00901902
-0.162517
0.153498
-0.00266813
0.00364044
0.21423
0.0789139
-0.293144
-0.290149
0.394626
-0.104478
-0.0413019
0.0876114
-0.0463094
0.000910302
0.00141471
-0.00232502
0.0248965
-0.0438717
0.0189752
-0.193886
-0.019328
0.213214
0.0213216
-0.00423646
-0.0637054
0.277935
0.00462883
-0.00209959
-0.00252924
0.138919
0.0682465
0.0227551
-0.0910016
-0.170493
0.327126
-0.00237991
0.00208914
0.0906833
0.23032
-0.321003
-0.114887
-0.102509
-0.215668
-0.17285
0.33265
-0.235303
-0.0973465
0.277829
0.209481
0.0127531
-0.0251209
0.0507789
0.0334513
-0.0842302
-0.00931027
-0.0106272
0.0199375
0.0657744
0.0565611
-0.194947
0.168398
0.0265483
0.147036
-0.177895
-0.469635
0.150422
0.319213
-0.409877
0.104856
-0.424458
0.30973
-0.166617
0.0388648
-0.0865545
0.251535
-0.209313
0.0116381
-0.00709129
-0.00454678
-0.057154
-0.058235
0.115389
0.348562
-0.215768
0.15594
0.0308496
0.00353119
0.00109763
-0.070651
-0.0585144
-0.0568567
0.167885
0.146432
0.0442414
0.110212
-0.124093
0.0138812
-0.00183892
-0.00690149
0.0087404
0.0896168
-0.117062
0.02162
-0.0155597
-0.0257652
-0.124427
0.109946
-0.117407
0.00746073
-0.0369755
-0.0238526
0.146265
0.221122
0.101504
-0.322626
-0.109423
0.0462974
-0.0849701
-0.0238653
0.298454
-0.075923
0.0231293
0.0417954
0.0873168
-0.129112
0.00589808
-0.00690867
0.00101059
0.147026
0.132662
-0.0233829
-0.10294
0.0180204
-0.12005
0.0172313
0.102819
0.16758
-0.0421074
0.388418
-0.199571
-0.188847
0.0459152
-0.250887
0.209119
0.0417678
0.00404462
0.00759345
0.220812
-0.223601
0.00278896
0.172749
-0.00263392
0.000411612
-0.0308117
0.167878
-0.195318
0.0274392
0.0262039
0.214361
-0.30812
0.0937589
-0.0016891
-0.0458598
-0.00401758
0.00409094
-7.33561e-05
0.0900392
0.0588441
-0.0812228
0.0223786
-0.0012006
-0.00281699
0.169031
0.0275082
-0.19654
-0.0963277
-0.210058
-0.0408291
0.0325039
0.151206
-0.18371
-0.154711
0.211335
-0.0566235
-0.0231894
-0.0574792
0.0298773
0.027602
-0.0794402
-0.163201
-0.0223618
-0.139324
0.161686
0.017264
-0.322287
-0.137259
0.459545
0.000793186
-0.00853151
0.18655
0.0522233
-0.144587
0.206707
0.0362607
0.0518393
-0.0881001
0.00541043
-0.0053214
-0.109905
0.427381
-0.317476
0.341715
-0.216852
0.0621411
0.0854685
0.254556
-0.340025
0.477221
-0.170825
-0.306396
0.0138649
-0.0398208
0.0259558
-0.239438
0.506416
-0.188356
0.020576
-0.284363
-0.114396
-0.0660829
0.0723255
-0.00624251
-0.392301
0.0985249
-0.000465336
-0.0426057
-0.0304228
0.0245296
-0.153334
-0.0906895
-0.0024935
0.00604776
-0.00355426
-0.326257
-0.116201
-0.177819
-0.0250957
0.202914
-0.0638204
-0.209643
0.273463
0.00179935
-0.00114303
-0.000656323
-0.0772075
-0.400283
0.40031
-2.69416e-05
0.123304
0.226226
-0.34953
-0.240009
0.190886
0.0491235
-0.0850338
-0.227189
0.312223
-0.0833751
-0.0491537
-0.000140045
9.73774e-05
0.00349313
0.00904609
-0.00266164
0.00448167
0.0714684
0.278838
-0.350306
0.0428382
-0.213189
-0.110138
0.105505
0.209005
0.00312021
-0.26616
-0.0871291
-0.0397139
0.0482145
-0.000904165
-0.00401208
0.00491624
-0.132728
0.141747
-0.0731474
-0.136911
-0.00208319
-0.00845638
-0.32569
-0.208333
-0.304258
0.375726
-0.0208966
0.0115864
-0.00354996
-0.0405107
0.0293476
0.00963875
-0.287168
0.00600897
-0.00672358
-0.0712672
-0.14042
0.211687
-0.127723
0.0425685
0.085154
-0.378985
0.287036
0.15456
-0.175531
0.0209704
-0.287389
0.146354
0.141034
0.0884182
0.0460537
0.119073
-0.0508269
0.10733
0.0394314
0.348073
0.0767595
-0.424832
-0.00625465
0.00780036
-0.00154571
-0.0828546
-0.124402
-0.411459
0.0111767
-0.426757
0.426757
0.0195794
0.201232
-0.217249
-0.110139
0.0768218
-0.277983
-0.0537568
0.0126556
0.0214906
-0.215377
0.034583
-0.260984
0.0682585
0.192726
-0.0231774
0.000773933
0.000136368
0.174442
-0.38695
0.212507
0.00243635
0.053609
-0.0560453
-0.0231319
-0.134953
0.158085
0.383788
-0.209346
0.0969388
-0.188087
-0.112041
-0.0063084
0.11835
-0.401534
0.134978
0.266556
0.384802
-0.219233
-0.165569
-0.0927354
0.388747
-0.296012
-0.136678
-0.15818
-0.0971184
0.118468
-0.0213497
0.427817
-0.146814
-0.281003
0.0960121
-0.239923
0.143911
-0.122855
0.121563
-0.0706635
0.418736
-0.115026
0.00320565
-0.00953604
-0.0128477
0.0216414
0.0327211
-0.030595
0.04446
-0.0269564
-0.0905286
-0.0295212
0.016148
-0.0383288
0.0221809
-0.0177647
0.0455413
-0.0277766
-0.00806826
0.409297
-0.401229
-0.188883
0.23975
0.165103
-0.399615
0.234511
0.0127743
0.02867
-0.0414443
-0.0267632
0.0536366
-0.0268733
-0.136424
0.106237
0.0301864
0.169853
-0.362605
0.0724564
-0.270608
0.206787
-0.101043
-0.304486
0.405528
0.15545
0.0830876
-0.0475418
0.032774
-0.00886203
-0.00832443
-0.00743318
-0.0014986
0.0132913
0.0811499
-0.0944412
0.374515
-0.351355
-0.387382
0.516162
-0.128781
-0.0925722
-0.288148
0.38072
-0.0102804
-0.0542591
0.0861475
-0.310871
0.201183
0.109688
-0.00624239
0.00476452
0.00147787
0.279742
-0.139122
-0.0245464
0.255246
-0.143913
0.105681
-0.1305
0.0248186
0.0221094
-0.161231
0.0890614
-0.0528006
-0.150329
0.127198
0.0432352
-0.412881
0.0905943
-0.402979
0.281504
0.121475
0.0957241
-0.0376118
0.0996529
-0.368475
0.3251
0.161767
-0.120009
0.0228905
0.0430226
-0.0986279
0.0556053
0.2884
-0.381135
0.0187245
-0.0796688
0.0609443
0.270351
-0.37395
0.103599
0.203896
-0.227895
-0.381005
0.0907016
0.290304
-0.247663
0.198632
0.058386
-0.0354316
-0.0229543
0.118284
0.0316869
-0.149971
-0.19516
0.0305397
-0.177979
0.106711
-0.00420995
-0.0407562
0.010067
0.0306892
-0.398064
0.191351
0.206713
-0.104601
-0.0231215
0.13629
0.00706427
-0.0011662
0.0220287
0.0474937
-0.0695224
0.000821784
-0.000694087
-0.000127697
-0.0592471
-0.130046
-0.0997664
0.11099
0.104091
-0.0478424
0.0388446
0.0698225
0.00683004
-0.00870555
0.00187551
-0.285661
0.408672
-0.119817
-0.263469
-0.120458
-0.208349
0.0331208
0.00331759
-0.0859444
-9.61992e-05
-0.012419
0.0125152
-0.170388
-0.095268
-0.162033
0.237699
-0.000249746
-0.00238418
0.0203448
0.0812284
-0.101573
0.20427
-0.0269748
0.0584987
-0.0448492
0.371761
-0.11649
0.137691
-0.151055
0.0372574
0.0479838
-0.0852413
-0.0341432
0.0724268
-0.0382836
-0.223935
-0.107566
-0.0429151
-0.0466871
0.0896021
-0.109334
0.0816636
0.0276701
-0.0164992
0.00619115
0.010308
0.0274602
-0.014707