/*--------------------------------*- C++ -*----------------------------------*\
| =========                 |                                                 |
| \\      /  F ield         | OpenFOAM: The Open Source CFD Toolbox           |
|  \\    /   O peration     | Version:  v2012                                 |
|   \\  /    A nd           | Website:  www.openfoam.com                      |
|    \\/     M anipulation  |                                                 |
\*---------------------------------------------------------------------------*/
FoamFile
{
    version     2.0;
    format      ascii;
    class       volScalarField;
    location    "350";
    object      omega_0;
}
// * * * * * * * * * * * * * * * * * * * * * * * * * * * * * * * * * * * * * //

dimensions      [0 0 -1 0 0 0 0];


internalField   nonuniform List<scalar> 
18649
(
0.771308
0.0212387
0.753152
0.0920576
0.0227355
0.921058
0.0213579
0.019578
0.512321
0.318775
0.0212186
0.0211195
0.0240648
0.0218532
2.50328
0.0244806
0.0226506
0.0213531
1.01176
0.0212363
0.0211143
4.38879
0.558157
0.0678008
0.339925
0.555765
0.436919
0.631639
0.0216735
11.3385
0.0231517
0.0259402
0.0226485
0.0287779
0.0220957
0.036621
2.11274
0.0383508
0.021212
0.0218267
1.34213
0.0222506
0.183977
0.65238
0.431738
3.98595
0.526156
0.0283085
0.0213934
0.0914846
0.0843328
0.569263
0.0209905
1.32501
0.0202888
0.20833
2.23333
0.0213981
0.0204729
0.661167
0.0204641
0.111074
0.0214522
1.99909
9.4787
0.952923
0.669138
0.0234123
0.421522
4.55552
0.449714
0.0283236
0.0213417
0.0214497
0.0398351
0.629592
0.830314
0.0227083
4.71972
0.269278
0.0258445
0.0383821
0.570439
0.847562
0.0235613
0.196128
0.0270377
0.0297658
0.293405
1.1661
2.46882
0.129613
0.072507
0.108282
0.021592
0.0209788
0.0367478
0.0242113
0.944477
0.0204589
0.92013
0.023427
0.817012
0.0200433
0.521559
0.529012
0.666552
0.941828
0.213681
0.021337
0.0212733
0.0299548
0.0352587
0.0208448
0.0214067
0.0708561
0.0233935
0.0304143
0.0223185
0.0268358
0.0204805
0.0526012
0.854574
0.0208488
0.024533
0.0223233
0.448467
0.0215701
0.0217458
0.0202873
0.0214524
1.91429
0.154956
0.185696
0.0218246
5.3088
0.662154
1.75366
0.663218
0.419724
0.0273603
0.0229618
0.0197952
0.0216309
0.494012
0.0203871
0.0217949
0.188419
0.524769
0.0215723
0.803907
2.53782
0.0237824
0.0213374
0.0454893
0.0874174
0.0215786
0.0211477
0.020783
0.602156
0.392861
0.686605
0.021568
0.641802
2.77632
0.0217201
0.495664
0.508747
0.024995
0.0204079
0.0279036
0.0215314
0.0207902
0.0220106
0.0805233
0.444401
0.511121
0.0215655
0.515467
0.45867
0.0210616
0.392692
0.0223873
0.021065
0.0215016
0.0219878
0.0202442
0.0466699
0.0204371
0.020093
0.0232248
0.850776
2.53669
0.0305731
0.043366
0.0207849
0.0215141
0.0218259
2.79221
0.0285045
0.0200777
0.0213656
0.566965
0.0213431
0.0217242
0.0212765
0.189464
0.662901
0.0225261
0.0209467
0.0204304
0.023683
0.0201483
0.0312453
0.77164
0.0338358
0.0220171
0.0231544
0.0211373
0.528405
1.07428
0.0421451
5.22359
0.0903922
0.592638
0.490361
2.27683
0.104368
0.0256084
1.14547
0.0199387
0.0116364
0.0287018
0.0211356
2.07962
0.0210522
0.0225558
0.0215086
0.0201621
0.0194311
0.0418681
0.690286
0.827029
4.77958
0.552687
0.0322488
0.0311925
0.0227193
5.57113
0.0488536
0.0357493
0.108763
0.0215278
0.0768213
0.0255744
0.0213462
0.0209446
0.0204325
1.16346
0.0251897
2.17404
0.0200945
0.0202616
0.0365309
0.0201305
2.12071
0.027356
0.521126
0.0254359
0.0208573
2.47621
0.320183
0.0295473
0.0207919
2.35023
0.0539699
0.0218969
0.0240113
0.0411287
0.116549
0.244731
0.022486
0.67512
0.0219254
0.0201885
0.189557
0.056443
0.0213817
0.64615
0.022838
0.0210793
0.645172
0.0214399
0.0214708
0.398888
5.63394
2.15893
5.69796
0.0271876
0.0212394
0.0213356
0.618716
0.0824001
2.49474
0.223997
0.459717
0.525715
0.0789945
0.0280364
0.105771
0.0210872
0.928479
0.0205593
0.0204589
0.0220216
0.0115482
0.023539
1.0569
0.770413
0.0205252
4.02747
0.0205234
0.0204639
0.0215072
5.34704
0.0247882
0.464396
0.557176
0.0217547
0.0213846
0.0219054
0.636254
0.300356
0.0244057
0.807423
0.0210695
0.947222
0.43944
0.0485462
0.199235
0.0229999
0.67717
1.0171
0.578204
0.244026
0.0997107
0.04809
0.0211992
6.71286
1.0924
0.0224833
0.0884378
0.0200959
0.0275969
0.0253506
0.0694551
0.0242412
0.797212
0.022397
0.0202033
0.0312278
1.25119
0.669157
0.0212595
0.87577
0.663419
0.0212368
0.0234698
0.677583
0.0201501
0.0408711
2.40846
0.0428119
0.0212145
2.29192
0.0214749
0.0924752
0.694064
0.849189
0.246421
0.250323
0.0207428
0.0261224
0.318681
0.858238
0.0233524
0.0841197
0.0208042
0.0218731
0.0213825
0.306911
0.0365369
0.371909
0.0233557
0.66407
0.868363
0.02405
0.0203586
0.0215949
0.0205839
0.225103
1.19195
0.0224784
1.26599
0.353995
0.026828
0.0208029
0.913297
0.0206545
0.0461349
0.027537
0.975091
0.135673
0.0214674
0.248405
0.0248733
0.624075
0.0307375
0.0219846
0.0222542
0.0304964
0.335599
0.093623
0.816016
0.618009
0.0193585
0.647908
0.672876
0.0238427
2.51779
0.201605
0.0204031
0.0256824
0.0263707
1.43472
0.0212332
0.0211141
0.793858
0.0212057
0.0263247
0.0203824
0.0196657
0.0214461
0.0441907
0.0214807
0.0215092
0.021968
0.138017
1.03039
0.0248175
0.0215981
0.577904
0.0215887
0.442682
0.0301891
0.0251004
0.0211322
0.0204911
2.6708
0.218281
0.0213866
0.432094
0.0212261
0.522918
2.24996
0.0219301
0.0196601
0.0231289
0.0214917
0.0231357
0.0261756
0.0202309
0.0317503
0.0582632
0.354617
0.0748726
0.0213384
0.0215938
0.0360512
2.61695
0.0355233
4.89308
0.0261293
0.02044
0.0338969
0.720173
0.0210853
0.689873
3.90194
0.0223103
0.0312599
0.782869
0.085074
1.16046
0.0207813
1.17645
0.10118
0.0215764
0.0200844
0.0214024
0.68093
0.0223167
0.0220925
0.0237285
0.567447
0.934537
1.24871
0.0199171
0.0208057
0.659502
0.0263822
0.0213978
0.0273284
0.179501
0.162953
0.0353632
0.653945
0.0211098
0.318837
0.0208037
0.0208082
0.0273231
0.0214086
4.68932
0.0208035
0.408276
0.497287
0.858141
0.419523
0.0361441
0.0208851
0.320003
0.0203964
0.0206856
0.199874
0.0219457
0.0198117
0.0493156
2.15934
0.0214056
0.0867686
0.0211589
7.16325
0.0210922
0.0647166
2.53087
0.72037
0.0236446
0.0564393
0.0253313
0.0285312
0.776456
0.0257519
0.225136
0.0213907
1.18939
0.350517
0.616812
0.0210999
0.0213569
2.28426
1.20691
0.192725
0.03438
0.0205362
0.0215489
2.00287
0.108952
0.0342326
0.0478396
0.0265614
0.0691066
0.0986406
0.0207779
0.183531
0.0197571
0.632784
0.0229452
0.187149
0.0214382
0.0213707
0.0210475
0.596969
0.226428
0.0199964
0.0223135
0.0213788
0.253505
3.81356
0.0211047
0.0209507
0.021411
0.301948
0.0215546
0.727522
0.0224694
0.0214187
0.270054
0.0240967
0.374347
0.0221388
1.45695
0.0205128
0.0199506
0.0207702
0.116818
0.0278566
0.962109
0.021402
0.505725
0.0214607
3.94286
0.17328
0.0210659
0.169538
0.0215508
0.0207675
0.0217972
0.106009
0.0721192
0.0208143
0.520675
2.48033
0.0214194
0.0493737
0.0274971
0.836034
4.43901
1.25681
2.20785
0.0214098
0.521956
2.24683
0.0221369
0.0981761
0.910086
0.0332419
2.52313
0.0226561
1.10407
0.0214329
1.48923
0.399106
0.021133
0.117452
0.0225908
0.029367
0.0203679
0.0234038
1.04124
0.0214621
0.0812218
0.56164
1.2788
0.0213639
6.87989
0.057364
0.0219001
0.977044
0.0214478
0.0226709
0.64579
0.0256432
0.0359661
0.666205
0.0207839
0.0217841
0.0436774
0.0223895
0.0204745
0.545436
0.0270595
0.0209489
0.0207847
0.0443776
0.752901
0.0905917
0.187886
1.05008
0.371142
0.0212523
0.124358
1.24939
0.0213736
0.0805292
0.0207795
0.0390554
0.021357
0.0235463
0.0210928
0.0207545
0.0214124
0.588835
2.65871
0.736384
0.0309573
0.022076
2.14598
0.0200043
0.635681
0.0442727
0.403199
0.0230909
2.24832
0.0205446
1.09788
0.032509
0.628115
0.021537
0.348487
1.15023
0.0326421
0.562996
0.0216043
3.25811
0.0278223
0.0762693
0.767548
0.0204175
0.0215074
0.0208194
0.0245956
2.22463
2.67698
0.021155
1.07496
2.2097
0.680172
0.0207456
2.38181
0.020411
0.0211569
0.84947
0.49792
0.0342492
0.0857273
0.0235401
0.795913
0.0240674
0.0223219
0.902969
0.198664
0.0199986
0.0605415
0.11158
0.0214078
0.0214683
0.0197949
1.13756
0.042661
0.0201295
0.0217097
1.41422
0.0428324
0.0572165
0.0257553
0.0232018
0.212333
0.0220445
0.0201471
0.0199068
0.0340874
0.116439
0.0214238
0.0203757
0.0204979
0.105995
0.0225867
0.453288
0.148645
0.0212524
0.0659329
1.16351
0.0210792
0.0200707
0.0200411
0.0197844
0.0807211
0.0266162
5.682
0.0439936
0.0294883
0.0253151
0.0213684
0.022935
0.0258321
0.507588
10.0062
1.05829
1.83312
7.73075
1.17722
0.021641
0.0213789
1.33607
0.0401736
1.24937
0.0285227
0.11372
0.47829
0.849434
0.488702
0.929438
0.0201246
0.0220025
0.0261994
0.0209261
0.406832
2.42369
0.021244
0.0214674
0.0323421
0.0501257
2.43242
0.674678
2.61945
0.0216007
1.11996
0.0211888
0.0217192
0.0240893
0.0205472
0.0214062
0.691197
0.0209279
0.0684712
0.0395473
0.0213113
0.0215757
0.0127262
0.576853
1.15496
0.0394446
1.23969
0.0222637
0.0818192
1.80711
0.15291
0.0213595
0.0222769
0.0194311
0.0510595
0.0226721
0.0235711
0.0208549
0.0210787
0.0197945
1.70558
0.0405471
0.0386334
0.935836
0.0207934
0.0262715
0.0465504
1.16729
0.0204656
0.0212925
0.0211166
0.0203462
0.0221562
0.476077
0.0285497
0.675937
0.0202928
0.0289039
0.0207983
0.0218244
0.0333175
0.0197842
0.0202488
0.0682119
0.138671
0.529097
4.58525
0.0316498
0.0214062
0.0204641
7.62722
0.0198186
1.18484
2.3816
1.79435
0.0201242
2.35636
0.413768
0.0214558
0.027685
0.0587955
3.89065
0.0250894
0.0374724
0.0213413
1.2042
6.0654
0.0216148
1.22503
0.0228444
0.0219378
0.0215326
0.0212721
0.021767
0.0197727
1.11052
1.13597
0.0199363
0.021177
0.0211168
0.025765
0.0207545
1.41086
1.81042
0.103198
0.0197948
0.0198563
0.0197601
5.50247
1.12106
0.273848
0.0917358
0.0201666
0.694755
0.835662
2.67778
0.0197992
0.0206871
2.45097
0.0253616
9.50687
0.0209186
0.0256973
0.0209245
0.0474391
0.0550224
0.0199194
0.0240104
0.632561
0.0232898
0.0785834
0.938616
0.468368
0.0765935
0.501111
0.0214232
0.0727866
0.724907
0.0252004
0.0241668
0.594632
0.533777
9.48061
2.07484
0.0216723
0.0205144
0.0385429
0.02275
2.1654
0.101145
0.0199846
0.0250217
2.38578
0.0214086
1.22985
0.0218307
2.76458
7.37089
0.158366
0.326454
0.0135663
0.0633205
0.0216236
0.601342
0.0510994
0.0308236
0.41592
0.665995
0.0210775
0.0200656
0.0214201
2.56316
0.452451
2.3798
0.0204598
0.991666
0.688723
0.0229488
0.0196797
0.0214473
0.791142
0.0199298
0.110551
0.385946
7.0298
0.0209496
0.919711
0.0212566
0.613043
0.0197575
1.19434
0.74978
0.446873
1.0089
0.0197861
0.0213435
4.81821
0.0222293
0.0216026
0.8158
2.15833
0.0219829
0.020504
0.0216925
0.516533
2.12416
1.08082
2.27406
0.0260413
0.0244093
0.0224001
1.19415
0.080496
2.83591
0.242249
0.0263141
6.24868
0.865075
1.21948
0.233786
2.75533
0.0200497
0.024514
5.4787
0.116873
0.0644877
0.022506
0.0214687
0.466144
0.0249139
0.876978
0.0215132
0.124154
0.0211667
0.699343
0.0565425
2.10644
0.0751299
0.022245
1.0358
0.0591939
0.0201595
1.23083
2.84662
0.0345064
0.0218783
1.21405
0.0263732
2.07537
0.0211852
0.702961
0.0260588
0.0204317
0.0213669
0.688799
0.0203429
0.0200858
0.020484
0.777982
1.04018
0.0213583
0.0210631
0.0240678
0.158871
0.0241914
0.0217129
0.420929
0.949641
0.715952
0.0229519
0.0201035
0.484053
0.0197956
0.401904
1.2532
0.0210443
0.0197721
0.0215687
1.01145
2.31408
2.43731
0.0197816
0.021098
0.405722
0.0459347
2.67981
4.14565
0.450176
0.0258946
0.0214475
0.56465
0.0221013
0.0197677
0.0198077
0.0211733
0.48235
0.0253652
0.825457
0.0212391
5.22077
0.642746
0.0196727
0.0280099
2.71586
1.68079
0.0214581
0.0381649
0.0635805
0.0256638
14.4034
1.48372
1.71829
0.634082
0.435797
2.45916
0.0217375
0.0224531
0.0263649
0.0253785
0.0215732
0.0208209
0.411354
0.0269178
0.668896
0.256518
0.0206193
0.618314
0.510454
0.0234585
0.0236177
0.991893
0.0282074
1.86845
0.428516
0.0215783
0.0203474
0.861504
0.144264
2.38007
0.0222984
0.0212257
0.0208064
0.029505
0.0209439
1.68416
0.021605
0.612826
1.30517
0.0240563
0.02107
0.020332
0.554026
0.0201406
0.858715
0.0238198
1.25894
0.0211644
0.322582
0.0210334
0.412485
0.0217126
1.16173
0.0246571
0.0213443
0.0286581
0.0212471
0.0197537
0.0204415
0.0216983
0.0213819
0.210597
2.48545
0.020789
0.611526
0.0242444
0.0212795
2.50619
0.0209435
0.0197944
0.396236
0.0208095
0.0821199
0.746542
0.0349482
0.356747
0.439674
0.0210239
0.869862
0.0198161
0.100959
2.68324
0.0237286
0.0197572
0.0239201
0.0213757
0.0202058
0.0204281
0.133716
0.0200737
0.784119
0.345445
0.0790551
0.0470693
2.31244
0.0232725
0.0213681
0.025381
0.0213935
0.0632007
0.0212028
0.0212046
0.0213089
0.611892
0.0216107
0.0210519
0.0213701
0.0211492
0.0345567
0.332149
1.14768
0.0197285
0.724329
0.17489
0.295291
0.347297
1.01924
0.0214619
0.0204673
0.0214773
0.0248457
0.398311
0.0201728
0.73783
0.0209435
0.108224
0.0208195
0.0199666
0.658879
0.0244116
0.0669208
1.47346
0.643501
0.0214723
0.020764
0.248882
0.464232
0.0234016
0.861774
2.22263
0.0199266
0.0212978
0.0269955
0.779706
0.0216066
0.0213398
0.0514015
0.02124
0.402042
0.592014
1.2481
3.86108
1.77286
0.494902
0.0917637
0.648593
5.0158
0.804837
0.0209464
0.0209445
0.0308083
1.1487
0.0217949
0.0225546
0.598153
0.747735
0.0576252
0.0203021
0.0210707
0.758573
0.021154
0.0218424
0.0214506
0.401339
0.0272542
0.80534
0.0214648
1.99991
0.0561287
0.0221311
0.400617
0.0212277
0.0216394
0.0211509
0.026404
0.0209731
0.58557
2.83079
0.0210374
0.0197392
0.02101
0.0207865
0.793122
0.022024
0.0210178
0.0265461
0.0212812
0.0215184
0.0209323
0.0244213
0.459473
2.38468
0.118353
0.0221287
0.0217808
0.0198035
0.0215714
0.0185177
0.662776
0.0223212
0.0265258
0.0205216
0.977065
0.0230737
0.165393
0.0197674
14.0945
0.0216174
0.0265061
1.28232
0.320447
1.20024
0.0637447
0.90857
0.0214232
0.489773
0.020418
2.28032
2.50881
0.02048
0.520944
0.0204785
0.0197943
0.802731
0.0205135
0.0210194
2.52052
0.0417439
0.0210233
0.0253295
0.0202953
0.0207782
0.683382
0.0210755
0.0203421
0.782994
0.0214091
0.378601
0.0210129
0.0214226
0.0205684
0.0211996
0.510138
0.0492129
0.153415
0.799936
0.0903225
0.0210461
0.0203892
0.0207431
1.64666
0.0266236
0.0215181
0.0210235
0.0213604
0.946321
3.81618
0.0204279
0.959511
0.0208978
0.0590129
0.020875
0.0213421
0.560928
0.389568
0.0210624
0.205418
0.82129
0.232833
0.0214287
0.363854
0.999732
0.0197195
1.46523
0.0208293
2.4889
0.0217715
1.17747
0.161655
0.0382095
0.0207089
0.072165
0.0212739
0.0212143
0.0250498
0.0584448
0.021354
0.575414
0.595568
0.0214075
0.0211087
0.0259956
0.0223024
0.0740238
0.021155
0.0236648
0.0213676
0.0205257
0.0313199
2.4068
0.0212849
0.0211627
0.0288928
1.78482
2.46533
0.0215869
1.1895
1.19124
0.0813521
2.27091
0.0269208
0.0218025
0.0219472
0.0207612
0.0220282
2.56624
0.0220768
0.0221263
0.0249265
0.0213712
0.567889
0.0214747
0.463098
0.0221362
5.65716
0.0220384
1.06328
0.0201552
0.0653383
0.0294483
0.29987
0.0244877
0.0211128
0.529602
0.0266127
0.0214118
0.0197838
0.754265
4.72143
0.0210473
0.0211093
0.828644
0.433035
0.878279
0.020462
0.0210208
2.74878
0.0218
0.543732
1.42238
0.019952
0.0228104
0.734775
0.0211748
0.0214211
0.0204564
0.819047
0.0323715
0.159883
0.0516302
0.402416
0.278706
2.03364
0.734836
0.021173
0.0209329
0.0215988
0.0240913
0.0198711
2.10035
0.0207451
1.05624
0.022769
1.20399
0.886525
0.0335395
0.0205007
0.0215763
0.412514
0.0205639
0.0212038
0.0246117
0.659712
1.97179
0.0215311
0.0212221
0.0239101
0.0225874
0.0206171
0.0217591
0.794801
0.0248199
0.174096
0.054899
0.0316276
0.466275
0.0480742
2.00855
0.0217455
2.68027
0.0202393
0.0207726
0.0200256
0.0209146
0.471506
0.0204041
1.13338
0.0312442
0.16263
0.0218511
0.0334061
0.0219222
0.0761166
0.716185
0.431088
0.0219315
0.0210059
0.0209336
0.0271607
0.0207319
0.203229
0.0229324
0.648195
5.47487
0.0225847
0.0212018
0.0211651
0.25524
0.930859
0.774282
0.0219611
0.0207359
0.176955
0.583712
0.021413
0.0208881
1.40029
0.758884
0.0199434
1.25362
0.208862
0.0204886
1.81839
0.0201796
0.0220318
0.289635
0.0215957
0.0206218
0.035437
0.0251017
0.0232622
0.0200173
0.0198069
0.0221404
0.0225585
0.0220851
0.0197678
0.0215608
0.021756
0.0213877
0.0502547
0.0239523
0.103264
0.0198092
12.3714
0.0214594
1.41444
0.0227348
0.414053
0.0212673
0.023793
0.0211089
0.0201443
0.0928766
0.0248031
0.914028
0.0201857
0.0214243
0.55913
0.026774
0.416715
0.565742
0.677064
10.0524
0.0614818
0.233219
0.0201523
0.0257066
0.0213435
0.0224537
0.0202344
0.0201718
0.93654
0.538668
0.0261089
0.0217866
0.0223284
0.69557
0.0235551
0.020932
0.0249719
0.0202914
0.0196441
0.669251
0.0218823
0.750221
0.0330071
0.212107
0.426305
0.0148185
0.0234078
1.23058
5.31462
1.11041
0.811293
0.0207844
0.020604
0.0204459
0.0253277
0.0213582
0.0803254
0.0211176
0.677699
0.0197861
0.0345153
0.0198872
0.0218889
0.453183
0.0897961
0.934864
0.0215862
0.0197094
0.806999
2.01546
0.0212092
2.34417
0.0196234
0.0260738
0.0265951
0.0213826
1.78234
0.236798
0.0282188
0.0219541
0.34736
0.0262229
0.0213663
0.727267
0.0218563
0.421108
0.099636
0.0210225
0.0475913
0.0199804
0.146813
2.07995
0.0280665
0.0213545
0.034421
0.0197695
0.693769
0.0286979
0.40594
0.0283545
1.23376
0.88342
0.0382306
8.27564
0.477287
0.0201393
0.650906
2.20005
0.0815327
1.22318
0.0282503
0.0681305
0.0324934
0.0276925
0.767537
0.0984233
0.42408
0.611237
0.539856
0.0213541
0.0250912
8.37025
0.0284186
0.642225
0.21234
0.0372026
0.465107
0.022598
0.0290875
0.0284938
0.468133
0.020218
1.99696
0.0202216
0.635499
5.17408
0.0266487
0.651069
0.0539253
0.0234868
1.23505
0.0343431
0.0291442
0.0213968
0.624671
4.95029
0.0201811
0.0217835
0.024806
2.00236
0.684022
3.94081
0.0373872
2.11697
0.0233553
0.0205992
0.479489
2.35327
0.0209144
1.33621
0.636124
1.54011
0.0228179
0.0223863
0.698598
0.499669
1.04252
0.0250029
0.532698
4.32403
0.527623
0.0202684
0.020101
0.0220848
0.0201954
0.0204883
0.0256022
0.020117
0.0286677
0.887861
0.0800785
0.023897
0.0226989
0.536592
0.173634
0.0285111
2.13854
0.0211011
0.0387413
1.89564
0.0274024
0.0217841
0.403147
0.0214015
0.658791
0.0203178
0.423622
0.0244719
1.79935
0.015371
0.0240684
0.0211965
0.775725
2.15206
0.0612597
0.0914424
0.515915
0.672393
0.7843
0.147717
0.104392
0.45153
0.233069
0.071477
0.0215821
0.0213588
0.0216859
0.0204592
0.0238884
0.0197617
0.434879
5.88955
0.101661
2.68535
2.18122
4.20033
2.2968
0.0279234
0.39335
0.030929
0.02022
0.0244914
0.0204992
0.020996
2.09843
0.0253089
11.9617
0.0226977
0.297875
2.12804
0.0200379
2.46302
0.0225406
0.0285908
0.0209071
0.0201362
0.421209
0.580764
0.0229538
0.903854
0.0211765
0.0200249
0.585176
0.0211119
0.0197572
0.0388085
0.071452
0.0469536
0.0332506
1.99426
0.0201082
0.605486
0.0211866
0.0211949
1.7586
0.759281
2.5706
0.0245231
0.0197858
0.02043
0.71021
0.432966
0.0291772
0.0252438
0.0205864
0.0217209
0.021037
0.0253188
0.353183
8.28328
0.323013
0.0194319
0.0200958
0.451767
0.036251
0.531231
0.414826
0.0288882
0.480417
0.0211947
0.395066
1.21622
3.80556
0.0218474
0.0255795
0.0197816
0.0609368
4.16316
0.603078
2.7904
0.600504
0.0179494
0.0199498
0.445661
0.0258084
0.63122
0.0267564
0.020564
0.0695858
0.37639
0.0211685
0.0199529
0.0214308
0.0366576
0.0210967
0.0109826
0.164489
0.0458568
0.587596
0.0198051
0.024643
1.21512
0.309822
0.0206885
0.024166
1.87188
0.067813
5.30736
0.993146
0.0214207
0.0215245
0.0213555
0.97725
0.757616
0.0211028
2.12409
5.93807
0.662315
0.0207454
0.0217954
0.0208805
0.0210913
8.70889
0.00789951
1.40924
3.78689
0.0210809
0.0197421
1.96568
0.0215008
2.60672
5.44456
2.51545
2.41701
0.422281
0.0228814
0.00664236
0.0212643
1.25069
1.16695
2.37032
0.0196383
0.0250556
4.23504
0.260011
0.022811
0.0203012
0.0266706
0.0275469
0.123884
1.10592
0.0302283
0.0475242
5.20872
0.508202
2.21864
0.136724
0.120886
0.284717
0.0264649
5.30312
0.0213035
1.02704
0.440747
0.0205509
1.81625
0.0213555
0.0260193
0.0215544
0.85892
1.98708
0.0207063
0.0213536
0.778687
0.029037
0.0239916
0.480099
0.0330067
0.560828
1.16092
2.41773
0.021661
1.06988
0.0310767
0.0243544
0.0207998
0.0199883
0.0207745
10.1348
0.0215615
0.457719
0.0215393
0.0618413
0.0217158
0.0466236
0.0299478
0.0213734
0.452109
0.0213591
0.605759
0.0211614
0.389061
0.0450362
0.299805
0.0784972
0.0282212
0.378247
0.025885
0.265689
0.66071
0.169381
0.228733
0.438165
0.0222237
0.0256393
0.0232984
2.301
0.700977
0.575955
0.0534186
0.163584
0.0205078
1.63173
0.739638
4.94726
0.0226642
0.0204497
0.0617865
1.99204
0.0205814
0.225247
0.719827
0.0214359
2.75688
0.0226913
5.67088
1.20856
6.82288
0.0429173
0.0205457
0.0204881
2.70248
0.0195096
0.0232263
1.07436
0.075672
0.0204543
0.133232
0.456528
0.0304239
0.0212399
0.216636
0.17595
0.0214701
0.0274886
0.817734
1.30572
0.120717
0.425394
0.733865
0.0281766
0.021407
0.496319
0.020882
0.0267472
0.466421
0.919542
0.0218387
0.021023
0.0212544
0.203154
0.802104
0.0205983
4.37256
0.0226467
0.453651
0.333355
0.839671
5.28725
0.0415035
9.34557
0.723328
0.0260541
0.0209834
1.17744
0.0225135
0.783722
0.0197898
0.023152
0.0237989
0.0228372
0.0231265
2.09219
0.0207521
0.0527319
1.9144
0.0197225
2.09046
0.0262969
0.132131
0.916888
0.420871
0.844484
0.0211848
2.29395
0.0315037
0.0276697
0.0494029
0.0243163
0.0384268
0.112892
0.0211615
0.0219897
0.0213285
0.475411
0.423112
1.53133
0.242172
0.020881
0.614359
0.0213263
0.0270778
2.61228
0.0211608
0.0284119
0.601255
0.0211903
0.0256099
1.01983
0.0402367
1.12782
2.21182
0.022
0.0243536
0.030909
0.0213926
0.0442961
1.74998
0.0197579
0.0212261
3.66569
0.0982808
0.573849
3.34608
1.93849
0.0262232
0.613342
1.16901
0.0210244
0.0199912
0.0321826
0.818129
1.24338
0.0225858
0.0215665
0.439372
0.0874081
0.0268638
0.0229789
0.0207417
0.0197712
2.33352
0.0348742
0.539038
2.30807
0.0197793
2.21984
0.0234524
0.0250941
2.75254
5.61785
0.195186
0.0215904
0.0287225
0.72576
0.0217441
0.0224456
2.54217
0.399897
2.22624
0.792442
1.12241
0.0212384
0.0204061
0.0206526
0.821973
8.28252
0.0417772
0.0227479
0.0204491
0.597907
2.27872
0.0212899
0.353113
0.0649903
5.78379
0.341154
0.0204262
0.7293
0.0196897
0.0351921
0.158586
0.0215225
0.025293
0.318704
0.0236495
0.0229797
0.0329935
1.79402
0.0215941
2.48061
0.0206952
0.777913
0.704487
0.792137
0.0211002
0.385708
0.0732532
2.44942
0.434787
0.0214937
0.131027
0.0344103
0.0199733
2.56535
2.52657
0.0314252
0.0213113
0.0212965
0.0277562
0.0204692
0.0714819
0.0233167
0.0281403
0.435088
1.15548
0.692021
0.0267823
0.0871216
0.510738
0.0232493
0.0344033
0.291219
0.0210081
0.272017
0.0209603
0.0257266
0.0225554
1.56338
0.0682066
0.393657
0.0224456
0.763201
2.36583
5.67175
0.166893
0.775131
0.0252766
0.0228128
2.15594
0.0211121
0.0213662
0.0198453
0.0198454
0.0211874
0.021271
0.0651935
0.0200966
0.0746662
2.25862
0.0266403
0.351683
0.0245181
0.0596064
0.0721832
0.0209679
0.0234587
0.37998
2.48158
0.0263009
0.0210377
2.72867
0.0206388
0.623374
8.61661
0.366471
1.10664
0.0283667
2.66439
10.6055
0.839078
0.022676
0.128452
1.01717
1.27645
0.0215955
4.49391
0.0213875
0.0215387
2.68111
0.623182
0.021514
0.0214126
0.970759
0.0239184
0.456753
0.0219922
1.12455
0.0243813
0.022475
0.021564
0.0271189
0.0213967
0.0210515
0.0302995
2.34207
0.0227055
0.555655
0.454305
0.781465
0.0220669
1.90489
0.0208274
0.0216637
1.21228
6.55303
0.0289715
0.0909227
0.0196776
0.0213634
0.0458483
0.643265
0.79054
0.0214238
0.578144
5.97114
0.132662
0.0215504
0.0247893
0.0217192
0.0214651
0.273558
5.73815
0.0216994
9.03041
0.0142769
2.27665
0.441441
2.4167
4.373
0.0213979
0.631054
0.0249182
0.0228371
0.0525211
0.0773424
0.0372609
0.0209155
0.0211451
4.73672
2.59265
0.376072
2.69167
0.0207379
0.0201409
0.0211764
0.0210657
0.625468
0.427667
0.0326349
0.0354651
0.0211969
2.38219
0.164472
0.0200885
0.364291
1.39251
5.22882
0.0129824
0.0223726
0.021515
0.724789
4.51947
0.01953
11.5003
0.0283592
0.0213782
0.0292495
0.0197922
0.770086
0.47371
0.0221891
0.0207253
1.894
0.0215503
2.48003
0.027379
0.424546
0.0216756
0.0216925
0.0213056
0.0340089
2.31587
0.0209743
0.463192
0.0217889
0.0197841
1.84481
0.0823312
5.49845
0.0224242
0.0209666
0.0259599
6.39316
0.0207135
0.0607813
0.0215215
2.34137
0.0222605
0.6264
2.3454
0.0411348
0.0258046
0.406026
0.0216776
1.04204
0.0312664
0.0204435
0.0209902
1.76103
2.29699
12.0759
0.48812
0.0207809
2.68247
0.0247146
2.08437
0.0405021
0.021178
0.0211096
0.194685
0.489997
0.61764
0.0217835
0.687972
0.0212765
0.0210957
0.0202618
1.96598
0.025045
0.601594
0.0206939
0.0213918
1.33266
0.0211432
1.86517
1.15417
0.0214429
0.0204791
3.67783
2.77481
0.0214503
0.144335
0.0269018
0.0255428
0.0225232
3.57931
0.0197742
0.0214374
1.11247
0.0217406
0.157814
11.8946
0.0438179
0.147469
4.94978
0.0206687
0.0214575
0.0211929
0.0535167
0.020435
0.021748
0.728831
0.0259148
0.0286515
0.0221161
0.0214933
1.8036
0.0212432
0.0204658
0.0219591
0.0889674
0.00406936
0.0211972
0.0209799
0.0210257
0.0214419
0.0294891
0.02309
0.0208332
0.0729963
0.0216828
0.0202034
1.19667
0.0212619
0.0202217
0.47892
0.0207861
16.386
0.0211201
1.21354
0.0622271
6.59522
0.0288362
0.321028
0.0633847
0.858615
1.1277
0.0222907
8.58645
0.587585
0.504302
0.0254613
0.0205126
1.07961
0.0199253
0.0461444
0.0328338
0.566302
0.0244666
0.0245379
0.302869
0.0236462
3.36829
6.90891
1.22846
0.0539936
1.76108
5.49165
6.43669
0.305887
0.0282816
0.407071
0.0224239
2.40156
4.97272
7.29041
0.602142
0.0214119
4.11811
0.031658
6.79998
0.023461
0.0211682
0.0206399
0.138436
8.2307
0.642289
0.0249327
5.97226
0.809578
0.0213151
0.0235014
0.379267
0.0475719
0.135426
0.0715852
0.0211153
0.614964
0.635128
0.175432
0.0709059
5.89278
1.37061
1.31939
5.01312
0.0211956
1.1972
0.0214319
0.0653959
0.307834
2.12611
0.87274
0.0872767
0.0221427
5.84083
0.0587067
0.300151
5.95396
11.4272
6.7223
2.64932
0.126768
0.466121
0.380844
0.021156
0.340203
0.0214843
1.97264
0.00983836
0.0726039
0.637695
0.949602
1.20386
0.343338
0.0219822
0.0920652
0.714057
0.0210379
0.0213747
6.3298
0.638458
0.0274374
0.493043
0.0420325
0.0344855
0.0243094
0.138071
0.209691
0.843884
1.88307
0.0215505
1.16599
0.765482
0.0337626
1.22012
2.41155
0.137904
0.0379169
2.25163
0.0408611
2.55026
5.75495
0.0217121
0.021562
4.96074
0.71643
0.0255147
0.612353
0.158458
0.0213423
0.445726
0.0217072
0.0392663
1.13746
0.0224681
2.28299
0.613668
8.89512
0.0719718
1.129
0.334541
0.0207707
1.17612
0.455572
5.3512
0.285085
0.0206018
4.80679
0.0137128
0.0860389
0.018489
0.0218545
0.641795
0.0215362
0.0298586
0.484272
0.0209113
0.021516
0.0214374
0.0171923
2.29436
0.692653
0.0499033
0.0211636
0.0239124
0.473577
5.42887
0.368108
0.580247
1.23138
0.631784
2.23956
5.7064
0.0496806
0.0633627
0.882817
0.0219441
0.025239
2.22088
0.857564
0.630316
1.82294
0.0543125
1.72614
0.021406
0.295101
0.0268014
0.550468
0.0379153
0.197737
0.02839
3.91975
0.905834
0.0262914
0.0536443
0.0333236
0.0220851
5.21028
0.0253489
5.08841
0.288794
1.14175
0.0214463
0.0221939
0.109412
0.132755
0.507954
3.50166
0.00340445
0.0226324
0.0212121
0.021422
0.0223097
0.0212171
0.485121
2.45948
2.86303
0.381994
5.91073
0.0397763
0.0838933
0.0260067
0.489902
0.0213381
0.0394884
5.81614
0.0220707
2.27829
5.34711
0.472929
0.0211066
5.54973
5.16394
0.486947
0.0321412
0.0212543
0.0198937
4.12708
0.0208741
0.0210324
0.021614
0.0210484
0.0667527
1.22488
0.0206753
0.315153
0.0605663
0.178614
0.051646
0.0461528
0.0263141
0.565783
0.0262162
0.0209492
0.0225644
0.359343
8.05956
0.0465782
5.3744
0.552891
0.388901
0.512034
0.379626
0.0202718
2.28406
0.470025
0.0474917
0.0271792
8.29317
0.0566904
0.0209487
0.0757474
0.943491
0.190527
0.693887
1.87405
2.4113
2.42105
1.23131
1.06995
0.452927
0.0221628
0.840963
0.0414517
0.0274602
2.29367
0.0653519
9.14583
0.297158
0.258138
0.267458
0.0253125
0.0219938
0.0497168
0.0285959
0.113225
0.0213863
0.0395249
0.0219656
0.0215269
0.0197909
0.0214329
2.47343
0.0219432
0.225625
2.44854
0.0204678
0.0598193
0.0221906
2.06468
0.0212295
0.0215439
0.209025
0.841708
0.272001
4.13528
0.0588086
0.0214369
0.571294
0.0230762
0.315529
0.0515901
0.0430948
0.0205674
0.277235
0.0213306
0.40909
0.0269271
0.0216465
7.52478
0.929383
0.480348
0.0211686
0.321398
0.682414
0.420194
1.02909
0.0911868
2.40004
0.119299
0.0674934
0.0216816
0.143915
0.361712
0.0213649
0.944708
2.76424
0.727786
0.121179
0.0906051
0.60186
2.63338
0.320003
0.0233686
0.351616
0.529163
0.0273773
0.120523
3.53163
0.46607
0.202663
6.03976
0.0213509
0.028996
0.0197865
2.1261
1.89216
0.0310067
0.855138
0.0209845
0.0211921
2.35201
0.0207485
0.0730346
0.0219977
0.0209951
6.63183
0.0197948
0.0586652
0.0213094
0.086712
6.06807
1.09895
0.577281
0.254366
0.0225721
0.413259
0.0215097
0.0226713
0.132138
0.0226128
0.89726
0.0892811
0.0199483
0.0215498
0.0617718
0.0288642
0.61221
0.270871
0.495627
0.0246398
0.0198016
0.0212811
0.138687
0.190808
0.00799936
0.020869
0.0550398
0.525745
1.85721
0.457441
0.0215743
0.490004
0.424063
0.0444908
0.793518
0.021489
0.0218486
0.40346
0.0392652
0.0229901
0.0245067
0.0247741
0.0236158
0.0233056
0.0231638
2.21419
0.0303445
0.0275812
0.0227347
0.158503
0.025585
0.0309267
1.10703
1.98387
0.0202791
0.0211089
2.75044
0.0211312
0.88076
0.0222193
1.89423
0.0260053
0.0278656
6.46006
0.0243323
0.0461486
0.193786
0.0412597
0.385913
0.197772
0.0383018
1.04799
0.0237017
1.7465
6.23007
1.23259
0.321613
0.0320358
0.249384
0.148484
0.0213903
0.134732
0.0215411
0.0984275
0.0891478
0.0307332
0.0233676
0.0212162
0.0214273
0.0297166
9.89149
0.0216294
0.0235275
0.67608
0.576271
0.0363004
0.0254572
0.0718569
0.161154
0.0340351
0.222959
0.0277896
0.669984
0.356233
0.241279
0.019983
0.49754
0.40265
0.461625
0.307157
8.32778
1.96572
0.129623
0.0509655
0.0320135
0.0263649
0.020843
0.0280631
0.0204431
0.597817
1.21243
2.63598
0.0270644
0.0692167
0.130307
1.14289
0.0215869
0.0271606
0.0658222
0.0564844
1.11496
0.0337853
0.0387523
0.0277
0.0217987
0.362018
0.988246
0.12969
0.0295635
0.0210191
0.0204294
1.851
0.0223819
0.376931
0.0303889
1.33032
0.0215654
0.0297215
0.450923
0.558196
0.047013
0.671308
1.18905
0.492419
0.612692
6.32229
5.32748
0.0208512
0.51229
0.263452
1.50215
6.41409
1.84735
0.0226543
0.626689
0.0210371
2.77977
0.0224216
0.0295904
0.0211917
4.1691
0.0269219
0.510133
0.538689
0.88943
0.409444
0.0313438
0.0215061
0.00785694
0.483803
0.111795
6.07816
0.0316509
13.5784
0.408888
0.0503178
2.13463
2.88812
2.52588
0.612889
0.0852513
0.0198027
1.79662
0.0768822
2.45722
0.0213906
0.0215481
0.0212847
1.37154
1.26614
0.433083
1.31885
0.24682
3.64903
0.101375
2.24746
2.61496
0.0206231
2.28221
1.85808
0.0427247
2.03788
0.0246056
2.01793
0.0269597
0.479042
0.15877
0.0214058
2.60368
0.619866
0.312293
0.0208059
1.79632
0.371604
1.61321
0.613145
0.46401
1.18349
0.0239276
0.0236513
1.80952
1.1434
0.0215321
0.0211407
0.0711686
0.0207209