/*--------------------------------*- C++ -*----------------------------------*\
| =========                 |                                                 |
| \\      /  F ield         | OpenFOAM: The Open Source CFD Toolbox           |
|  \\    /   O peration     | Version:  v2012                                 |
|   \\  /    A nd           | Website:  www.openfoam.com                      |
|    \\/     M anipulation  |                                                 |
\*---------------------------------------------------------------------------*/
FoamFile
{
    version     2.0;
    format      ascii;
    class       volScalarField;
    location    "150";
    object      epsilon_0;
}
// * * * * * * * * * * * * * * * * * * * * * * * * * * * * * * * * * * * * * //

dimensions      [0 2 -3 0 0 0 0];


internalField   nonuniform List<scalar> 
34253
(
4.73169e-06
4.07485e-06
4.57535e-06
2.34967e-06
1.74036e-06
2.42465e-06
2.12877e-06
4.02621e-06
1.73861e-06
0.0124868
2.13482e-06
0.0175401
3.31154e-06
0.0615639
3.21161e-06
2.1635e-06
5.30026e-06
0.0107454
1.96698e-06
2.34199e-06
3.24506e-06
2.37079e-06
2.52259e-06
1.94975e-06
2.8393e-06
2.12847e-06
2.13562e-06
1.73913e-06
2.19516e-06
1.88662e-06
1.91678e-05
2.88534e-06
1.74807e-06
3.54325e-06
1.97711e-06
0.0523729
0.200015
1.72588e-06
2.781e-06
1.73928e-06
0.0472835
1.43621e-05
0.0748317
0.0537934
0.00195148
3.2271e-06
2.48551e-06
2.53317e-06
1.85542e-06
1.74681e-06
4.10604e-06
2.58167e-06
1.36363e-05
0.0033386
2.53105e-06
2.04796e-06
2.13031e-06
1.76832e-06
2.49383e-06
3.14011e-06
2.76116e-06
2.07501e-06
2.8107e-06
4.50701e-05
2.16271e-06
0.0465584
0.00400724
0.00376543
1.75587e-06
3.56167e-06
1.80604e-06
2.76824e-06
0.0026728
2.04319e-06
1.66547e-06
3.66487e-05
3.63679e-06
1.79415e-06
0.000973468
1.66192e-06
0.0198938
2.05328e-06
2.04987e-06
2.13117e-06
1.42832e-05
7.81581e-06
2.57092e-06
1.72493e-06
2.4528e-06
0.0121945
4.40064e-06
3.48943e-05
1.6332e-05
2.36036e-06
3.35028e-06
0.00131143
2.54636e-06
0.00812408
9.2156e-05
1.76929e-06
2.15361e-06
2.13262e-06
4.90456e-06
0.0513349
8.14705e-05
2.14038e-06
2.8305e-06
3.09153e-06
0.00216717
4.91074e-06
1.6433e-06
0.0107025
1.76045e-06
2.48945e-06
0.0710685
0.00357346
2.55298e-06
2.34108e-06
2.73058e-06
9.2147e-06
0.0232834
3.22045e-06
2.68736e-06
0.0188077
3.04768e-06
4.78437e-05
3.33212e-06
0.0156534
3.4052e-06
3.63091e-06
0.000959372
1.47121e-05
0.0138328
2.78702e-06
0.00733148
3.37945e-06
2.09497e-06
1.87257e-06
0.0241734
1.92778e-06
1.72697e-06
1.86643e-06
2.36494e-06
0.364697
2.53397e-05
2.50963e-06
2.89654e-06
2.62968e-06
2.5035e-06
4.85562e-06
2.89964e-06
2.18785e-06
0.0290395
2.55625e-06
1.73062e-06
2.15089e-06
0.00597379
4.17406e-06
2.13632e-06
0.00186321
1.80345e-06
2.37001e-06
2.40776e-06
1.63464e-05
3.62357e-06
0.0143518
3.68073e-06
1.79144e-06
2.36425e-06
1.86793e-06
2.50941e-06
2.54126e-06
2.09705e-06
2.76578e-06
2.85844e-06
2.48348e-06
6.58897e-06
3.58971e-06
2.87307e-06
2.36288e-06
2.36993e-06
1.9867e-06
3.85188e-06
2.83548e-06
1.93554e-06
3.23066e-06
4.81361e-06
0.0101698
3.13607e-06
0.0142751
0.00360149
0.0567325
2.0066e-06
2.12769e-06
0.0436587
2.15977e-06
1.26922e-05
1.65034e-06
2.28409e-06
3.92225e-06
2.13744e-06
1.22449e-05
0.0251158
3.04179e-06
1.43511e-05
2.01813e-06
2.63576e-06
0.0215079
0.0169429
2.31525e-06
1.63103e-05
2.34291e-06
4.25469e-06
1.82182e-06
3.23159e-06
2.88812e-06
1.70854e-06
1.94818e-05
2.24656e-06
1.77189e-06
5.71551e-06
2.354e-06
1.59115e-05
1.92418e-06
2.2324e-06
1.86239e-06
7.66062e-06
5.93756e-06
2.19715e-06
0.0110589
0.00217561
2.05273e-06
2.99192e-06
2.02254e-06
3.66352e-06
3.82399e-06
1.81126e-06
0.0342322
2.4251e-06
1.64142e-05
2.43352e-06
2.16085e-06
2.02629e-06
2.55422e-06
0.0209657
4.73015e-06
4.13236e-06
1.8462e-06
2.24228e-06
0.00140447
2.227e-06
0.0362879
2.40637e-06
2.24819e-06
0.0247831
2.31694e-06
0.20577
0.0240973
2.09077e-06
1.93206e-06
2.148e-06
2.51558e-06
3.21516e-06
1.6765e-06
2.22941e-06
2.0049e-06
0.0134638
2.24048e-06
2.22826e-06
2.77956e-06
2.46712e-06
1.8123e-05
2.19955e-06
2.25055e-06
2.07088e-06
2.1713e-06
1.28697e-05
3.45778e-06
2.32332e-06
3.14128e-05
1.68983e-06
0.00104064
1.98171e-06
2.16203e-06
0.0347072
1.84845e-06
3.07165e-06
2.88634e-06
3.11249e-06
1.97363e-06
4.79987e-06
0.000369861
5.29934e-06
2.32134e-06
2.15827e-06
2.66019e-06
5.51994e-05
1.84561e-06
2.02455e-06
3.47529e-06
4.18237e-06
0.0134895
2.05886e-06
2.02162e-06
2.1403e-06
2.3548e-06
2.30895e-06
2.19873e-06
2.24656e-06
1.82653e-06
2.00613e-06
1.04714e-05
2.52174e-06
0.0127102
2.14234e-06
6.71085e-05
0.00195968
2.31052e-06
2.74583e-06
0.0239626
2.24128e-06
3.72533e-06
9.47254e-06
3.21779e-06
3.75338e-05
2.43013e-06
2.09017e-06
2.02019e-06
3.20668e-06
2.26681e-06
2.31088e-06
0.0229953
0.00102514
0.021022
7.98578e-05
2.10827e-06
3.67771e-06
0.0163901
0.0320851
1.71954e-06
1.17157e-05
0.0689552
1.80684e-06
2.65139e-06
1.99668e-06
0.0133677
1.84106e-06
2.02573e-06
4.37584e-06
1.98649e-06
2.31114e-06
4.05648e-06
3.35776e-06
0.0392533
1.85518e-06
1.98907e-06
2.54807e-06
2.19996e-06
1.52629e-05
2.04955e-06
2.23851e-06
1.87176e-06
1.85276e-06
0.0306954
1.78617e-06
2.14324e-06
2.0526e-06
0.02469
0.00217611
2.01876e-06
1.84658e-06
2.19758e-06
0.0129851
2.09767e-06
2.55278e-06
1.93957e-06
0.0728487
2.06786e-06
1.69202e-06
2.02019e-06
1.70966e-05
2.33462e-06
0.000162435
3.42538e-06
0.000152658
2.2542e-06
0.0711686
2.1923e-06
2.68275e-06
2.24103e-06
2.20151e-06
1.1227e-05
4.21359e-06
2.35817e-06
1.92857e-06
0.0426452
1.90934e-06
2.63359e-06
7.30685e-06
2.84896e-06
1.80171e-06
1.64677e-06
2.13101e-06
2.19318e-06
2.21516e-06
2.01462e-06
2.50801e-06
2.33467e-06
0.0127815
2.13962e-06
1.74139e-06
4.05759e-06
1.94436e-06
0.000239217
2.36459e-06
2.19384e-06
3.86616e-06
2.64406e-06
2.21472e-06
2.72485e-06
7.8007e-06
3.52149e-05
1.80583e-06
0.0428336
1.94073e-06
0.0230256
5.45874e-06
1.9117e-06
4.39079e-06
0.0212717
0.0129283
1.77075e-06
2.1197e-06
0.0235175
2.46942e-06
2.20266e-06
2.53878e-06
1.98645e-06
5.32642e-06
2.28584e-06
0.0175695
1.93172e-06
1.7907e-06
2.92226e-06
0.0751004
2.06044e-06
3.37784e-06
6.17424e-06
2.23083e-06
1.87659e-06
0.236715
5.24714e-05
2.24488e-06
2.88039e-06
0.000838247
2.37942e-06
0.0788336
2.10468e-06
3.38088e-06
2.53886e-06
0.0164076
2.36742e-06
0.00146075
2.3422e-06
3.634e-06
2.94824e-06
1.8613e-06
0.178798
0.0133944
0.00275095
1.99095e-06
2.49336e-06
4.21535e-06
5.62427e-06
1.76431e-06
8.53818e-06
0.16
0.0453768
1.92195e-06
0.0814839
2.43178e-06
1.87682e-06
1.82279e-06
1.65731e-06
0.0138261
2.05451e-06
0.0208126
3.11289e-06
1.67833e-06
0.0108996
3.39668e-06
2.59204e-06
2.27659e-06
1.09951e-05
0.0160066
2.2943e-06
1.78012e-06
2.29233e-06
0.0437492
2.23145e-06
1.96929e-06
1.95161e-06
2.29351e-06
0.00877635
0.030614
1.78795e-06
1.73162e-06
2.0256e-06
2.47366e-06
2.04614e-06
2.54533e-06
0.0348836
2.53212e-06
2.13836e-06
1.86975e-06
1.94539e-06
0.0664763
2.76106e-06
2.79155e-06
1.95545e-06
0.0268648
2.33792e-06
2.029e-06
2.13558e-06
2.6894e-06
0.0175923
3.47329e-06
0.0734108
2.88585e-06
2.22696e-06
7.1516e-06
1.84506e-06
2.53781e-06
2.8518e-06
3.53968e-05
2.02724e-06
2.57541e-06
0.000102241
2.14112e-06
1.72019e-06
2.19868e-06
4.14513e-06
0.000447547
3.04569e-06
0.000107562
1.83345e-06
3.07277e-06
3.07026e-06
2.1502e-06
0.237142
1.88374e-06
2.1985e-06
0.0359749
0.00061581
1.94877e-06
2.48326e-06
4.31356e-06
6.25557e-06
1.66669e-06
1.78405e-06
0.00180791
1.88244e-06
5.93887e-06
2.7896e-06
0.0152166
0.0284263
6.94162e-06
1.72331e-06
2.3273e-06
2.09377e-06
1.66534e-06
1.77427e-06
0.0132611
1.8758e-06
2.255e-06
2.16929e-06
0.0449142
3.05984e-06
1.69362e-06
2.67247e-06
2.3697e-06
2.24384e-06
1.84868e-06
1.66342e-06
2.14544e-06
0.0227216
2.37421e-06
0.00158157
2.2301e-06
0.0357126
2.41551e-06
2.24817e-06
1.81558e-06
2.30082e-06
3.34642e-06
2.94919e-06
4.11777e-06
6.82175e-06
2.20284e-06
0.00199824
2.87324e-06
0.00588045
2.90858e-06
3.79228e-06
2.85323e-06
2.11229e-06
0.00136859
2.2079e-06
2.41621e-06
0.0500364
3.15103e-05
2.05723e-06
1.86762e-06
2.18939e-06
1.91271e-06
4.28819e-06
2.32959e-06
2.82507e-06
5.24093e-06
1.78216e-06
2.19216e-06
1.88325e-06
2.76138e-06
2.08965e-06
2.14502e-06
2.2109e-06
2.66887e-06
1.73477e-06
4.82169e-06
3.70277e-06
1.44949e-05
1.72965e-06
2.30239e-06
0.00205925
1.99353e-05
0.053706
2.74882e-06
3.01041e-06
0.0255673
2.08019e-06
2.20543e-06
0.0133414
2.19328e-06
2.1882e-06
0.0160056
1.91317e-06
0.0184337
2.33189e-06
2.85439e-06
2.47339e-06
0.124898
1.86223e-06
0.0200418
2.29353e-06
2.50266e-06
2.35625e-06
1.69067e-06
2.22016e-06
2.3642e-06
0.0153249
0.0252123
0.0197022
2.29508e-06
2.27299e-06
0.0156383
8.23704e-05
0.0183664
4.20876e-06
2.43333e-06
2.3528e-06
1.74115e-06
3.67028e-05
1.91605e-06
1.77316e-06
1.87143e-06
1.13783e-05
2.96759e-06
1.8385e-06
1.99166e-06
1.73659e-06
2.58233e-06
2.26109e-06
3.69851e-06
3.79326e-06
2.79067e-06
1.6443e-06
2.72622e-06
1.97797e-06
2.13541e-06
2.13608e-05
1.9501e-06
2.61627e-06
3.57379e-06
1.86802e-06
3.39851e-06
0.0378577
2.13713e-06
1.8585e-06
2.3013e-06
1.99938e-06
2.11953e-06
0.0122289
0.0274297
1.74172e-06
1.86009e-06
0.0544164
2.02762e-06
2.00856e-06
2.36227e-06
1.95504e-06
2.54847e-06
2.55551e-06
1.65607e-06
4.11464e-06
2.26553e-06
2.28325e-06
1.67143e-06
0.0428371
2.56253e-06
2.39026e-06
4.18385e-06
2.34324e-06
5.36496e-06
2.57584e-06
1.9353e-06
2.03236e-06
3.5918e-06
2.3333e-06
0.036519
1.99261e-06
0.0607777
2.64477e-06
2.01953e-06
2.21716e-06
0.0264394
2.31334e-06
1.67663e-06
2.20977e-06
2.2002e-06
1.99553e-06
1.81897e-06
6.53355e-06
1.98768e-06
2.10071e-06
0.0328395
1.92985e-06
1.90996e-06
2.74217e-06
2.18533e-06
2.87924e-06
3.31372e-05
1.9408e-06
3.13972e-06
5.37642e-06
0.0552259
1.76278e-06
1.65433e-06
2.4161e-06
1.83875e-06
3.25754e-06
2.8843e-06
2.71344e-06
4.83279e-06
0.116406
2.87204e-06
1.85928e-05
2.12011e-06
2.28733e-06
4.25368e-06
2.97045e-06
0.0112075
0.0288486
3.139e-06
7.73195e-06
1.96291e-06
0.0288871
2.31951e-06
1.79103e-06
1.65739e-06
0.0213332
1.94452e-06
2.58864e-06
0.0140575
3.48461e-06
2.96547e-06
1.8177e-05
4.30037e-06
2.38513e-06
2.08518e-06
1.67543e-06
1.88833e-06
0.0347507
2.22386e-06
2.25783e-06
2.13865e-06
2.1693e-06
5.90947e-05
2.56053e-06
2.2529e-06
2.23769e-06
0.00607324
1.98925e-06
2.18152e-06
2.54725e-06
2.86555e-06
1.86264e-06
2.50715e-06
2.1647e-06
2.24319e-06
2.92218e-06
2.37277e-06
2.26435e-06
2.17773e-06
1.1512e-05
0.000336318
2.2956e-06
2.29788e-06
7.06976e-06
2.12778e-06
0.0308996
0.0428279
3.75719e-06
1.12261e-05
2.51196e-06
2.13761e-06
6.76115e-06
0.038238
2.93486e-06
0.00195097
2.91e-06
8.9428e-06
2.19514e-06
4.14607e-06
1.68661e-06
0.0233548
1.34171e-05
7.95855e-06
1.95511e-06
3.36312e-06
2.78413e-06
2.20628e-06
2.77535e-06
2.47369e-06
2.28849e-06
8.33205e-06
1.83028e-06
2.25655e-06
0.0135496
2.18527e-06
2.90641e-06
3.7082e-06
0.0326386
1.72276e-06
2.62584e-06
0.0557799
0.0237984
1.01153e-05
1.79895e-06
1.95851e-06
0.169018
2.34235e-06
3.06454e-06
2.20429e-06
3.5533e-05
0.0204389
0.0290432
2.13903e-06
2.42501e-06
1.20947e-05
3.12763e-06
1.1496e-05
0.0105334
3.37699e-06
2.28885e-06
1.97513e-06
0.0330498
0.0608614
2.80071e-06
2.76994e-06
2.83083e-06
0.0166432
1.80792e-06
2.73638e-06
4.41933e-06
1.65966e-06
1.89074e-06
1.95516e-06
1.86654e-06
4.14249e-06
3.04593e-06
3.13008e-06
0.0379153
1.71101e-06
3.03409e-06
3.18635e-06
2.24169e-06
1.68774e-06
1.66275e-06
2.12363e-06
1.72808e-06
2.37083e-06
1.80999e-06
3.26102e-06
2.2794e-06
2.17737e-06
0.00831572
2.03763e-06
2.74996e-06
0.0142493
1.70909e-06
4.18454e-06
1.39042e-05
2.95072e-06
1.95063e-06
2.99066e-06
1.85295e-06
0.061754
2.24229e-06
4.1268e-06
2.1501e-06
2.09498e-06
2.61504e-06
2.74105e-06
3.88964e-06
1.76287e-06
2.87568e-06
0.0654478
2.68841e-06
5.51643e-06
2.34548e-06
0.039423
2.33594e-06
1.99955e-06
2.99788e-06
2.18754e-06
0.017034
0.000394516
2.22222e-06
0.00999031
3.0749e-06
2.18664e-06
0.0160266
0.000306916
3.10384e-06
3.28965e-06
2.47386e-06
2.23878e-06
3.94934e-06
2.11759e-06
0.0141371
1.85347e-06
2.39943e-06
0.000740515
2.11018e-06
1.42877e-05
2.19919e-06
1.98111e-06
2.4399e-06
1.73481e-06
0.0153491
2.43207e-06
1.04993e-05
3.82991e-06
0.121901
8.00761e-06
4.21197e-06
2.24188e-06
3.06158e-06
1.37054e-05
2.50205e-06
2.39161e-06
2.17435e-06
0.018088
2.30828e-06
2.9812e-06
1.97247e-06
1.9592e-06
0.000379732
7.90336e-06
0.0182125
2.55175e-06
2.22629e-06
1.77805e-06
1.28728e-05
1.72788e-06
6.78291e-06
5.38116e-06
2.24191e-06
2.37913e-06
6.94303e-06
9.25535e-06
0.0243734
0.0143473
1.86852e-06
2.36553e-06
2.63631e-06
4.49453e-05
2.48704e-06
1.85924e-06
0.000409922
2.98973e-06
2.8429e-06
0.012841
2.15661e-06
5.54827e-06
2.37632e-06
7.88925e-06
3.90128e-06
2.44786e-06
2.03247e-06
2.60517e-06
0.0205782
1.98379e-06
1.03373e-05
2.30694e-06
0.046695
1.82974e-05
0.00123505
4.72527e-05
2.49033e-06
2.71518e-06
1.94208e-05
2.13954e-06
0.0302257
2.30238e-06
2.51223e-06
0.012988
1.77574e-06
3.31026e-06
8.97437e-06
0.000537365
0.0170698
3.37982e-06
1.87047e-06
1.67361e-05
2.24578e-06
0.0150801
0.0135912
7.276e-06
1.84344e-06
2.99588e-05
3.25859e-06
2.3002e-06
1.96975e-06
5.67296e-05
1.10763e-05
1.15073e-05
1.44794e-05
2.23434e-06
3.58531e-05
7.22603e-06
4.21103e-06
9.21194e-05
2.20529e-06
7.49551e-06
6.49928e-06
7.09711e-06
2.33596e-06
0.000218367
1.91311e-06
2.16622e-06
2.22671e-06
2.14742e-06
2.2193e-06
2.13776e-06
2.47084e-06
0.0283922
0.265913
2.52357e-06
2.80197e-06
1.82374e-06
1.98903e-06
6.19201e-06
2.56662e-06
3.11794e-06
1.9695e-06
4.20008e-06
2.1885e-06
0.0335007
2.3259e-06
1.96217e-06
1.70257e-06
1.74519e-06
2.12037e-06
2.98093e-06
2.48388e-06
2.46374e-06
2.34192e-05
3.06832e-06
2.16012e-06
4.22471e-06
6.55255e-05
2.24922e-06
1.72601e-06
1.94011e-06
2.24612e-06
2.35245e-06
3.35044e-06
0.000520708
2.58886e-06
2.41401e-06
2.47399e-06
0.021975
3.39934e-06
1.76536e-05
0.0976822
2.61925e-06
5.88657e-06
3.09184e-06
0.00335875
2.228e-06
3.09843e-06
3.56641e-06
2.11358e-06
2.25473e-06
2.2529e-06
4.1907e-06
2.29333e-06
2.59098e-06
2.73305e-06
0.00960069
0.0134582
1.88502e-06
7.87326e-06
2.35393e-06
5.58295e-06
2.96632e-06
0.0191146
2.43185e-06
1.72616e-06
2.39813e-06
0.0875049
0.022917
2.24012e-06
2.24775e-06
2.02446e-06
1.9874e-06
3.02498e-06
2.07941e-06
2.05181e-06
0.0069476
0.0104785
3.53671e-06
0.0129308
3.02044e-06
1.91989e-06
0.0187152
0.0232576
0.0492725
2.22984e-06
1.33761e-05
3.23063e-06
0.0124486
5.04479e-06
0.010603
1.87653e-06
0.0157895
1.67466e-06
2.23478e-06
0.0887503
1.74021e-06
0.0226179
2.43882e-06
2.10745e-06
3.43981e-06
0.0874965
2.28978e-06
1.74573e-06
1.91831e-06
3.42924e-06
0.00011884
3.28452e-06
0.0156471
2.57559e-06
2.2654e-06
1.45064e-05
3.49692e-06
1.96082e-06
2.95083e-06
2.12778e-06
3.10537e-06
1.96061e-06
6.53097e-06
3.19608e-06
6.50465e-06
2.10341e-06
0.0159094
0.0500929
2.13267e-06
2.22641e-06
2.2451e-06
2.40568e-06
0.0119892
2.06492e-06
0.0154676
2.366e-06
2.13376e-06
0.00245038
1.63567e-06
1.74523e-05
2.0231e-06
2.08843e-06
2.18918e-06
1.88067e-06
2.62261e-06
2.48689e-06
2.22282e-06
3.11455e-06
2.11021e-06
1.98612e-06
0.0252722
1.94044e-06
2.11566e-06
4.20531e-06
0.0169828
3.51641e-06
2.62129e-06
2.16954e-06
2.26891e-06
2.53867e-06
0.0125757
0.00377226
0.00278324
0.00218276
2.55154e-06
1.88835e-06
6.16766e-06
2.57282e-06
2.38878e-06
2.32149e-06
3.34385e-06
1.96144e-06
2.50265e-06
2.23769e-06
9.94732e-05
1.96957e-06
2.02987e-06
0.281565
3.16237e-06
1.94998e-06
1.8741e-06
2.23521e-06
3.67927e-05
2.11863e-06
2.23525e-06
1.75622e-06
0.000454702
2.55403e-06
3.30533e-06
2.20997e-06
2.81071e-06
2.39959e-06
2.95072e-06
3.80502e-06
2.22367e-06
0.0108678
0.0140049
3.20953e-06
2.19885e-06
3.20769e-06
1.7162e-06
0.0490378
2.30013e-06
2.84115e-06
1.7081e-06
0.0770658
2.68686e-06
1.77684e-06
2.59124e-06
2.46162e-06
0.000241535
0.0191653
0.0334782
2.49807e-06
2.20692e-06
1.77848e-06
1.69116e-06
2.83372e-06
0.0114215
2.26498e-06
2.40674e-06
2.16286e-06
0.00659694
2.20426e-06
2.12725e-06
2.15367e-06
2.18281e-06
2.70485e-06
2.1645e-06
2.40065e-06
2.60047e-06
2.0889e-06
2.01861e-06
3.09372e-06
3.82904e-06
2.68115e-06
2.55436e-06
5.58068e-06
0.0263359
3.0756e-06
0.0488724
2.22471e-06
1.7754e-06
0.0157101
0.0228839
2.00069e-06
0.16777
2.01783e-06
2.80049e-06
3.45295e-06
2.54666e-06
6.00136e-06
3.69506e-05
3.73422e-06
2.68396e-06
0.0645757
2.27371e-06
1.67206e-06
2.69956e-06
1.96986e-06
2.1371e-06
0.0420588
1.85668e-05
1.98728e-06
2.73573e-06
2.56412e-06
2.18813e-06
2.79313e-06
0.0479632
0.0658802
2.54976e-06
2.55964e-06
3.38749e-06
0.0488706
2.48326e-06
5.47043e-06
3.13344e-06
2.2283e-06
2.26664e-06
0.0208639
4.28757e-06
0.0260441
0.000299325
0.0134198
3.41747e-06
0.0685921
2.42255e-06
0.013159
1.73557e-06
2.34256e-06
5.25461e-05
1.76571e-06
2.69429e-06
0.0397775
1.69742e-06
3.5774e-06
2.9122e-06
1.86767e-05
2.82403e-06
1.72338e-06
1.84521e-06
2.36848e-06
2.98425e-06
3.38226e-06
0.0322541
2.88895e-06
1.80933e-06
1.72529e-06
1.93817e-06
0.149239
0.142714
2.24561e-06
2.99699e-06
3.12722e-06
1.93091e-06
1.9934e-06
0.0767788
2.36718e-06
2.7049e-06
0.00187208
0.000366085
2.51355e-06
1.04484e-05
3.1192e-06
1.91681e-06
2.23855e-06
3.09578e-06
0.0605219
1.92641e-06
2.54254e-06
5.4859e-06
1.93986e-06
2.07645e-06
2.18498e-06
2.27465e-06
2.48145e-06
1.96872e-05
0.0124924
0.0922849
2.08093e-06
0.0148135
3.08264e-06
0.0327202
2.47539e-06
2.07659e-06
2.07494e-06
0.0416332
3.22488e-06
1.63632e-06
2.98844e-06
2.82412e-06
2.04342e-06
3.25158e-06
3.28171e-06
0.0473386
2.31017e-06
2.41174e-06
3.0128e-06
2.35491e-06
3.242e-06
0.00118823
4.25742e-06
2.2035e-06
0.0018392
3.30412e-06
0.0141625
2.16564e-06
1.95142e-06
3.12816e-06
0.000209659
2.26577e-06
4.9851e-06
2.28346e-06
2.8911e-06
2.88209e-06
2.29054e-06
2.945e-06
0.00272879
1.74443e-06
1.7534e-06
1.1639e-05
2.5813e-06
1.85241e-06
0.11623
1.96066e-06
1.98239e-06
1.72541e-06
2.56597e-06
0.0157183
2.21724e-06
1.35786e-05
3.30053e-06
3.13877e-06
1.8564e-06
1.8355e-06
2.13429e-06
2.83282e-06
2.30363e-06
1.77476e-06
2.01983e-06
2.39933e-06
1.91746e-05
2.36264e-06
6.63099e-06
1.96031e-06
1.72628e-06
3.73638e-05
1.65383e-06
2.15612e-06
1.9638e-06
5.19339e-06
1.97415e-06
2.71383e-06
4.1858e-06
1.85544e-06
0.0145366
2.01664e-06
2.28479e-06
1.77006e-06
2.30586e-06
4.37608e-06
0.0264072
2.23383e-06
2.23295e-05
2.22132e-06
1.86011e-06
0.0469734
3.07561e-06
2.5928e-06
2.93338e-06
1.87385e-06
7.47082e-06
2.30589e-06
0.000958768
2.47712e-06
2.44468e-06
2.28394e-06
2.57552e-06
2.03852e-06
0.0274764
1.92043e-06
2.53816e-06
2.06626e-06
3.55131e-06
1.80287e-06
0.000302913
2.46178e-06
0.161661
2.73136e-06
0.000646834
2.36779e-06
0.045816
2.95712e-06
0.0225792
2.56892e-06
0.0139076
2.36714e-06
0.0673755
2.55997e-06
2.71262e-06
2.77315e-06
2.29829e-06
2.27017e-06
0.0963177
1.96014e-06
1.7576e-06
2.20569e-06
2.15906e-06
2.59275e-06
0.000117722
2.20941e-06
0.0129605
1.94419e-06
0.00965907
0.014853
1.68746e-06
3.20142e-06
1.8726e-06
2.1326e-06
2.1755e-06
0.0176917
2.04747e-06
0.00115702
2.08215e-06
3.41144e-06
0.000814608
1.95656e-06
2.74536e-06
1.92483e-06
2.57735e-06
1.81832e-06
2.92443e-06
3.41212e-06
2.23731e-06
2.393e-06
2.85469e-06
2.36794e-06
2.50372e-06
0.187147
2.56427e-06
0.0355752
0.000831403
2.18675e-06
2.27142e-06
2.592e-06
4.22858e-06
2.96785e-06
1.89338e-06
2.93386e-06
5.44765e-06
2.26881e-06
2.03248e-06
2.20037e-06
2.54963e-06
0.0626847
2.21657e-06
3.43158e-06
1.84878e-06
2.91328e-06
1.9121e-06
2.73284e-06
2.48832e-06
0.0202442
0.0101504
2.34143e-06
2.06275e-06
2.04704e-06
1.98306e-06
2.28218e-06
2.30118e-06
1.66855e-06
2.26739e-06
2.10618e-06
2.80318e-06
5.7822e-06
1.81229e-06
1.73579e-06
2.88982e-06
2.73969e-06
3.2246e-06
8.1002e-06
2.19274e-06
2.52734e-06
0.0203067
3.87173e-05
2.22426e-06
0.102692
0.00745879
0.0174538
2.63419e-06
1.73682e-06
1.75468e-06
2.18351e-06
3.83307e-06
5.19144e-06
2.30099e-06
9.95004e-06
0.0241053
2.14881e-06
2.88575e-06
2.04788e-06
0.0423124
5.09903e-06
1.11088e-05
2.34569e-06
2.40727e-06
2.57498e-06
0.0150832
2.41377e-06
2.19929e-06
0.0440325
2.34857e-06
3.84136e-06
2.13349e-06
2.97626e-06
2.0759e-06
2.08421e-06
2.70083e-06
0.0158636
0.00158225
2.14568e-06
9.55448e-06
2.78366e-06
1.73536e-06
0.0227855
2.21152e-06
4.18728e-06
2.02669e-06
2.59334e-06
2.06707e-06
3.23748e-06
1.71467e-06
0.000723569
1.77026e-06
2.02025e-06
0.0251002
2.21145e-06
3.72478e-06
2.0305e-06
2.16522e-06
1.50328e-05
1.28958e-05
3.26092e-06
2.61893e-06
2.33557e-06
1.74231e-06
2.91322e-06
0.0355358
3.46378e-06
2.80146e-06
0.0378478
2.84304e-06
2.29276e-06
2.02325e-06
6.48226e-06
0.0327203
3.50551e-06
0.016158
0.0427521
0.000119008
2.4041e-06
2.09107e-06
1.42141e-05
0.11772
5.91207e-05
4.48196e-06
3.09593e-06
2.045e-06
2.19993e-06
0.0527045
0.0132551
2.17561e-06
3.21052e-06
2.94996e-06
1.87933e-06
2.31945e-06
2.19695e-06
2.24666e-06
6.80535e-06
2.97733e-06
1.34522e-05
3.49817e-06
2.2917e-06
1.852e-06
2.31442e-06
1.87195e-06
0.0141256
2.79099e-06
1.03741e-05
1.04651e-05
1.74036e-06
0.000239155
2.30658e-06
3.04836e-06
2.40398e-06
2.29532e-06
2.00652e-06
2.80114e-06
2.98753e-06
1.72737e-06
2.42001e-06
2.25479e-06
0.0218962
2.50104e-06
0.0131604
2.17365e-06
2.23394e-06
2.39493e-06
1.69734e-06
1.65414e-06
2.86649e-06
2.21433e-06
0.0217186
0.0208786
0.0391696
1.25394e-05
1.7804e-06
3.24082e-06
1.85422e-06
2.69996e-06
6.46713e-06
2.94597e-06
0.0201795
2.68408e-06
2.22564e-06
3.51386e-06
7.88958e-06
0.000528929
1.84857e-06
0.0260727
8.23049e-05
2.51462e-06
2.90756e-06
2.4132e-06
2.27746e-06
0.0207796
0.000225187
0.000121512
9.57641e-06
2.84844e-06
0.0270553
0.0024529
1.69824e-06
2.19257e-06
2.09904e-06
0.0101368
2.41029e-06
2.06627e-06
2.74304e-06
0.0342993
0.176647
4.3263e-06
2.02449e-06
2.16484e-06
2.04965e-06
5.12487e-06
0.0110769
3.0417e-06
2.30442e-06
2.78288e-06
2.19569e-06
3.4135e-06
1.67251e-06
0.0348294
0.020056
2.57034e-06
2.97797e-06
2.19561e-06
1.66773e-06
0.0506948
4.67004e-06
2.03468e-06
3.94627e-06
4.54379e-06
2.15292e-06
0.0083034
1.95625e-06
2.36515e-06
1.94901e-06
2.54548e-06
1.89505e-06
3.48151e-06
2.64774e-06
6.62417e-06
2.59011e-06
2.55273e-06
1.91823e-06
0.0245707
1.93648e-06
0.082968
1.84766e-06
2.69242e-06
7.13433e-06
4.0018e-06
1.79471e-06
4.18181e-06
2.9144e-06
0.0231266
1.33842e-05
1.20144e-05
3.33013e-06
1.96263e-06
2.48327e-06
1.96295e-06
1.84109e-05
0.0192333
4.84769e-05
2.01799e-06
2.65092e-06
1.92415e-06
3.09548e-06
0.0241846
0.0240047
2.24654e-06
1.7786e-06
2.1629e-06
2.18559e-06
0.0732197
2.10822e-06
0.0301537
0.0991618
2.31907e-06
3.44361e-06
5.28981e-06
0.000836502
2.11096e-06
1.6771e-06
2.27919e-06
2.792e-06
0.0143151
0.0165494
2.21086e-06
0.0211804
0.0133371
1.64225e-06
5.00018e-06
3.34374e-06
2.367e-06
1.73213e-06
0.00556942
2.551e-06
1.70569e-06
1.77684e-06
3.80578e-06
0.0105255
2.11634e-06
1.37483e-05
0.0307059
4.324e-06
2.38274e-06
6.66839e-06
2.0325e-06
2.18095e-06
2.88779e-06
2.90564e-06
2.87779e-06
2.20665e-06
0.00124181
2.19834e-06
1.9221e-06
3.02948e-06
0.0696344
0.0276229
2.93097e-06
1.99562e-06
2.13773e-06
3.44937e-06
0.0220417
0.00132524
2.47055e-06
2.38207e-06
0.00796624
0.0204034
1.2131e-05
2.00834e-06
2.03413e-06
0.186696
2.60863e-06
3.18893e-06
0.000166677
1.92779e-06
3.38525e-06
1.83114e-06
2.80248e-06
5.27654e-06
3.55654e-06
2.212e-06
6.84599e-06
1.79057e-06
3.53531e-06
2.3606e-06
2.55438e-06
2.16803e-06
2.12207e-06
2.10565e-06
3.15932e-05
0.0848755
2.81015e-06
2.19194e-06
2.17131e-06
2.44866e-06
1.67442e-06
3.36558e-06
1.74891e-06
3.07001e-06
0.0498096
2.54787e-06
0.0159722
2.53867e-06
2.70615e-06
1.85087e-06
0.0247651
2.30736e-06
1.86487e-06
1.95829e-06
2.01163e-06
0.0834436
2.19211e-06
2.39107e-06
2.21012e-06
3.24296e-06
2.94996e-06
0.0310949
1.76248e-06
3.0233e-06
1.65699e-06
0.00261749
2.73223e-06
3.6478e-05
4.0944e-06
2.71395e-06
1.87041e-06
2.71731e-06
1.67367e-06
2.23301e-06
2.24387e-06
1.69086e-06
0.000533088
2.21272e-06
3.47381e-06
2.70642e-06
0.0214131
2.26813e-05
2.24233e-06
1.45321e-05
2.49136e-06
2.30471e-06
3.31527e-06
1.79668e-06
0.0125752
0.0254771
1.84134e-06
2.0933e-06
2.03545e-06
4.12367e-06
4.23738e-06
1.92307e-06
1.74971e-06
1.93539e-06
2.32764e-06
3.20641e-06
3.31304e-06
2.244e-06
2.10175e-06
0.0197508
2.06471e-06
0.051523
0.0679153
3.39243e-06
3.88464e-06
0.00575957
2.07242e-05
0.0323222
0.172797
0.0197269
1.80041e-06
2.42134e-06
0.0107791
2.25187e-06
2.32136e-06
0.0244454
3.24785e-06
0.000474338
1.91544e-06
9.77715e-05
6.42776e-05
1.65175e-06
4.22122e-06
2.20409e-06
0.00209468
2.54621e-06
2.55213e-06
3.1053e-06
2.02381e-06
3.00661e-06
1.95667e-05
1.68176e-06
2.31817e-06
2.4956e-06
4.52519e-06
2.18825e-06
2.11413e-06
1.98735e-06
0.0174253
3.19783e-06
3.03369e-06
2.13896e-06
3.15914e-06
7.14842e-05
2.64464e-06
1.72487e-06
1.65556e-06
3.44242e-06
0.0229691
0.0166751
2.04935e-06
0.000953342
1.67381e-06
2.35148e-06
0.00951867
0.128472
2.55428e-06
2.11964e-06
4.19426e-06
3.54316e-06
2.35354e-06
0.00147766
2.1808e-06
2.47309e-06
3.30009e-06
2.62689e-06
2.93702e-06
2.41954e-06
0.16771
0.0105124
0.0321153
1.87298e-06
2.13513e-06
2.20974e-06
3.51689e-06
1.73103e-06
2.53936e-06
3.08048e-06
0.0070312
7.04126e-06
0.0506276
2.82607e-06
2.60282e-06
0.0252636
1.79701e-06
1.84577e-06
2.1124e-06
2.69115e-06
0.00272279
5.46903e-06
0.0694073
2.93208e-06
1.6523e-06
1.67854e-06
1.94049e-06
0.0882513
2.55908e-06
1.70744e-06
2.40576e-06
0.007562
2.06614e-06
1.66392e-06
3.88775e-05
0.0165713
3.43429e-06
2.60863e-06
2.28182e-06
2.08517e-06
1.93497e-06
2.54786e-06
0.0028612
2.56908e-06
0.0327481
2.16046e-06
0.0210418
2.6118e-06
2.21291e-06
2.10955e-06
2.41267e-06
1.28821e-05
2.09696e-06
1.7216e-06
2.77498e-06
2.08945e-06
0.0187749
2.18445e-06
1.94314e-06
2.09196e-06
0.0637902
1.67417e-06
0.000674645
0.00128124
1.74217e-06
3.04067e-06
0.638634
2.33053e-06
2.27606e-06
2.80808e-06
2.39134e-06
1.99867e-06
0.0114152
1.82882e-06
0.0341529
4.11782e-06
0.0237869
2.29979e-06
2.00589e-06
0.0257943
2.0974e-06
3.03465e-06
3.34652e-05
1.73007e-06
1.99324e-06
5.27215e-05
2.18387e-06
2.24733e-06
0.0220665
0.0501202
2.30629e-06
1.92079e-06
1.75297e-06
2.1828e-06
2.24573e-06
2.62331e-06
0.0129913
3.61488e-06
1.97315e-06
0.00179976
0.0470817
1.73378e-06
1.72003e-06
3.16422e-06
2.24159e-06
2.54885e-06
0.000113108
1.96155e-06
2.48614e-06
1.7807e-06
2.28636e-06
2.54676e-06
2.35808e-06
2.54437e-06
0.022492
0.0158223
1.65049e-06
2.07285e-06
0.0253091
2.6072e-06
2.1345e-06
2.49492e-06
2.79029e-06
2.70297e-06
2.2938e-06
2.48289e-06
0.013887
2.09275e-06
0.0050582
0.056978
0.0098768
2.1519e-06
2.09002e-06
0.0132567
1.93225e-06
3.45402e-06
1.72801e-06
2.11071e-06
4.27883e-06
1.96255e-06
2.79317e-06
2.5456e-06
2.6212e-06
0.000757404
2.36956e-06
2.24948e-06
2.05799e-06
7.66945e-05
1.86125e-06
0.0275092
2.39123e-06
2.70751e-06
0.0136633
6.06963e-06
2.41668e-06
3.36507e-06
0.031877
0.000513233
2.8601e-06
2.18855e-06
2.18636e-06
2.86255e-06
0.0246618
1.72416e-06
2.07799e-06
4.55527e-06
2.99486e-06
3.05796e-06
2.43982e-06
0.012835
2.36462e-06
3.17558e-06
1.83724e-06
1.94639e-06
2.03129e-06
2.49579e-06
3.33665e-06
2.5481e-06
2.62241e-06
0.0213499
3.26241e-06
2.21812e-06
2.08062e-06
3.06314e-06
2.80345e-06
9.89531e-06
0.0209039
2.313e-06
2.44025e-06
3.57947e-06
2.35778e-06
2.71096e-06
1.98882e-06
2.36586e-06
4.04608e-06
4.11033e-06
2.28389e-06
3.28535e-06
2.55155e-06
2.23759e-06
2.34863e-06
1.70681e-06
2.06031e-06
1.99041e-06
3.35125e-06
2.08544e-06
4.66887e-06
3.24169e-06
2.66752e-06
0.0129455
2.87572e-06
1.88173e-06
1.52526e-05
1.8298e-06
2.15686e-06
1.78997e-06
2.08198e-06
7.57555e-06
1.92066e-06
2.97473e-06
2.13975e-06
2.03232e-06
3.09991e-06
1.9919e-06
3.05878e-06
0.0826993
0.0176393
2.09748e-06
0.0142
2.08374e-06
2.3378e-06
2.22969e-06
5.38976e-05
1.78827e-06
1.68056e-06
3.58061e-06
2.36836e-06
0.0160281
2.07183e-06
5.05206e-06
2.53773e-06
2.35933e-06
0.0177955
2.37652e-06
0.0147463
2.2955e-06
3.04118e-06
2.92896e-06
1.86357e-06
7.02386e-05
2.2411e-06
0.037016
0.0272804
0.0283672
1.71334e-06
0.0598434
0.030085
0.0135979
2.23665e-06
2.02523e-06
1.92919e-06
1.93134e-06
1.79358e-06
2.59519e-06
2.25039e-06
0.00485637
1.77375e-06
1.90542e-06
0.0244507
2.88585e-06
2.3649e-06
2.59866e-06
1.86089e-06
0.000197995
0.0054997
1.79233e-06
2.34089e-06
3.18656e-06
1.91887e-06
2.74695e-06
0.0012819
0.0551219
1.79009e-06
0.0206865
2.13763e-06
2.57781e-06
2.13917e-06
3.35702e-06
2.15153e-06
0.0368625
5.54371e-06
0.0215313
2.48838e-06
3.35237e-06
0.000222186
1.92479e-06
0.0430439
0.0104349
3.17171e-06
2.32731e-06
3.10401e-06
2.49219e-06
2.54973e-06
2.23241e-06
4.18332e-06
2.70244e-06
3.53704e-06
1.67843e-06
3.43554e-06
2.19031e-06
3.48817e-06
1.67571e-06
2.33459e-06
3.35784e-06
1.88867e-06
1.95465e-06
2.12282e-06
2.32289e-06
2.7972e-06
1.86795e-06
2.22004e-06
0.00820641
0.0174555
2.56272e-06
2.60174e-06
2.64277e-06
2.02181e-06
5.98843e-06
2.3293e-06
3.35315e-06
0.00142004
2.02712e-06
2.63092e-06
2.54377e-06
1.94269e-06
0.0085438
3.67688e-06
0.0268448
0.00238537
0.0236023
0.000861776
0.0154135
2.80074e-06
0.096578
3.45344e-06
0.0842423
2.89818e-06
2.55125e-06
2.39847e-06
2.1622e-06
2.18289e-06
1.74881e-06
3.4095e-06
1.98893e-06
2.07656e-06
3.37279e-06
2.85942e-06
2.2772e-06
1.99376e-06
0.0634672
0.0266936
2.2116e-06
1.78959e-05
2.04366e-06
3.24352e-06
5.83742e-06
2.56676e-06
2.26474e-06
0.0177561
0.12004
0.217704
0.0304759
2.09457e-06
2.26384e-06
1.93742e-06
2.62704e-06
1.83239e-06
3.70316e-06
2.47061e-06
2.78822e-06
2.39199e-06
2.13309e-05
2.30796e-06
5.25953e-06
0.0347769
2.83372e-06
2.18324e-06
1.82133e-06
0.00111993
0.0552775
2.46053e-06
2.32041e-06
0.114716
2.71643e-06
2.04834e-06
2.42223e-06
1.9225e-06
0.0663447
2.82563e-06
0.00230984
0.0347519
2.50125e-06
1.82698e-06
3.62847e-06
2.87456e-06
2.47009e-06
2.28892e-06
1.85877e-06
2.8202e-06
1.91894e-06
2.5085e-06
2.43515e-06
2.1666e-06
2.36307e-06
2.27518e-06
2.93576e-06
2.23995e-06
2.13115e-06
2.28228e-06
2.17769e-06
7.20023e-05
2.47192e-06
0.0212813
2.81264e-06
0.0146178
1.95617e-06
2.0592e-06
2.17245e-06
7.22243e-05
2.48477e-06
2.09117e-06
1.91996e-06
3.73278e-06
0.0846239
2.35793e-06
0.0348262
0.006476
0.0750897
1.86348e-06
2.73323e-05
0.00102507
1.7049e-06
0.0218515
2.46458e-06
2.55075e-06
8.10227e-06
1.7537e-06
2.17597e-06
1.80587e-06
1.92494e-06
2.26796e-06
1.89868e-06
2.13336e-06
2.11369e-05
1.65275e-06
3.15616e-05
2.93279e-06
2.68853e-06
2.45225e-06
2.28313e-06
0.0208644
1.62013e-05
2.18435e-06
0.00979059
2.19863e-06
5.70183e-06
2.00251e-06
0.0157348
2.37422e-06
2.20563e-06
1.71582e-06
1.34644e-05
1.97435e-06
2.08851e-06
3.30924e-06