/*--------------------------------*- C++ -*----------------------------------*\
| =========                 |                                                 |
| \\      /  F ield         | OpenFOAM: The Open Source CFD Toolbox           |
|  \\    /   O peration     | Version:  v2012                                 |
|   \\  /    A nd           | Website:  www.openfoam.com                      |
|    \\/     M anipulation  |                                                 |
\*---------------------------------------------------------------------------*/
FoamFile
{
    version     2.0;
    format      ascii;
    class       surfaceScalarField;
    location    "100";
    object      ddtCorrDdt0(phi);
}
// * * * * * * * * * * * * * * * * * * * * * * * * * * * * * * * * * * * * * //

dimensions      [0 3 -2 0 0 0 0];
oriented        oriented;


internalField   nonuniform List<scalar> 
27551
(
0.00303059
0.000325962
-0.00335655
-0.00137368
0.00184946
-0.000475803
0.000102533
-6.49112e-05
-3.76182e-05
-0.011809
-0.00506208
0.016871
0.000273775
-0.000897764
0.000623988
-0.000196611
0.000194375
2.23124e-06
0.000471434
-0.000385847
-8.55934e-05
0.0118201
-0.0277008
0.0158807
-0.000110909
7.62672e-05
3.46414e-05
0.00169925
0.000138949
-0.00183821
-0.00123446
0.00138511
-0.00015065
0.0220777
-0.0585
0.0364222
-0.0290695
0.022032
0.00703737
-0.0506052
0.189392
-0.138787
-0.000747175
-6.78902e-05
0.000815065
-5.77489e-05
-5.31676e-05
0.000788483
-0.00337825
0.00258975
0.000113375
1.63949e-05
-0.000129779
7.46543e-05
-2.71258e-05
-4.75041e-05
0.000548022
-7.65979e-05
-0.00759852
0.00378561
0.00381291
-3.81234e-05
7.52928e-06
3.05851e-05
-1.79122e-05
-1.54684e-05
3.33779e-05
-0.00151085
0.00102652
0.000484322
6.73693e-05
-6.53439e-05
-2.02694e-06
0.000219701
-0.00096687
-0.000422413
2.867e-05
0.000393726
-0.0247113
-0.00959892
0.0172911
-0.00769218
-0.20445
0.153845
0.00542227
-0.0458829
0.0404606
-2.03043e-05
6.5599e-07
1.96421e-05
-0.000367254
-0.000447631
0.000814875
-0.00243368
0.00110096
0.0013327
0.000739822
-0.000466042
-0.00180168
0.00155656
0.000245141
0.0124762
0.00902123
-0.0214974
0.000308776
-0.000602857
0.000294071
-0.000673838
0.000770226
-9.63757e-05
0.00472959
-0.00460029
-0.000129319
0.00106261
0.00400792
-0.00507053
0.000303336
-0.00167702
-8.10412e-05
-8.05505e-06
8.90906e-05
6.76307e-05
0.000549345
-0.000616978
-0.000463117
0.000530366
-6.72559e-05
-5.45578e-06
2.0852e-05
-1.53841e-05
0.00411553
-0.0387645
0.0346489
0.00217317
-0.00223901
6.58382e-05
0.0013809
-0.000650868
-0.000730048
-0.0331605
0.0171683
0.0159922
-0.0113036
0.0237798
-6.91007e-05
6.44285e-05
4.67557e-06
4.6154e-05
-5.51423e-06
-4.0635e-05
-0.000985976
-0.0028485
0.00383443
-0.0113569
0.01446
-0.00310305
0.055574
-0.0501517
0.00228427
0.00244531
-8.00308e-05
-0.000826303
0.000906336
0.000443641
0.00258695
-0.00388893
-0.0037096
-0.000571514
-0.000117734
0.000689243
0.000104483
-0.00011799
1.35021e-05
7.69299e-05
-3.38336e-05
-4.30979e-05
5.33674e-05
-3.82238e-05
-1.51454e-05
-6.71853e-06
8.14002e-05
3.53196e-06
-9.1481e-05
8.7936e-05
0.0025423
-0.0010885
-0.00145384
-0.0175893
0.00623234
0.0480549
-0.0259772
3.32238e-05
2.01139e-05
-5.23641e-05
7.65811e-05
-2.42167e-05
-0.0219535
0.0123546
0.00211018
-0.00278171
0.000671549
-2.7783e-05
5.70793e-05
-2.92737e-05
0.000359359
0.00102155
0.00159831
0.06803
-0.0210852
-0.00798434
-0.000829531
0.000761635
-8.30368e-05
3.06719e-05
0.00440978
0.0240698
-0.0284796
-0.000501712
3.86012e-05
0.0001555
4.37869e-05
-0.000199291
-3.97249e-05
1.59915e-06
-3.28939e-05
-3.3737e-05
6.66343e-05
-0.001479
0.000244554
5.05676e-05
-7.90229e-05
2.84555e-05
0.0153079
-0.0126675
-0.0026404
-1.64195e-05
-3.88467e-06
0.000449708
-8.06944e-05
-0.000369016
-0.0211091
-0.0120513
-0.0723089
0.0233936
0.0489153
-0.00620313
0.02212
-0.0159169
0.0174918
0.00494832
-0.0224401
0.000159052
-0.000190789
3.17257e-05
-8.4762e-05
-1.35876e-05
9.83428e-05
-0.000908323
0.00117545
-0.000267157
0.0021706
0.0131373
8.2233e-05
-3.4259e-05
-4.79795e-05
0.00256699
-0.00114041
-0.00142658
-0.000413331
2.74801e-05
-2.31501e-05
-8.51379e-05
0.000108279
0.0120633
-0.0085736
-0.00348974
-0.000303898
-0.000109433
-4.90068e-05
-5.98523e-05
0.000108851
1.96366e-05
0.000112347
-0.000131998
-0.000107917
0.000450466
9.75526e-05
-0.0156103
0.0178934
-0.00228316
0.00105917
0.00210646
-0.00316565
-0.000124916
8.49508e-05
3.99747e-05
-0.00297554
0.00167308
0.00130246
5.07626e-05
-7.8537e-05
0.000145513
0.000304193
4.75129e-05
-0.000128555
3.83111e-05
-0.000123449
-7.16765e-05
0.000109981
0.000235864
-5.77061e-05
-0.000178178
0.000136472
-6.9311e-05
-6.71718e-05
0.000572834
0.000370651
-0.000943504
4.36421e-05
5.88859e-05
5.7601e-05
2.46233e-05
0.0169766
-0.0231798
0.0135186
-0.0215987
0.00808004
-9.90401e-05
-1.13558e-05
0.000110393
0.00331909
-0.000554958
-0.00276414
0.0104622
0.0016011
0.000612631
-0.000162174
-0.0349818
-0.0373271
5.29177e-05
-5.96031e-05
-0.000935022
4.64847e-05
0.0210376
-0.0368654
0.0158278
0.000640462
-4.65138e-05
7.77284e-05
-3.12211e-05
-0.00807966
0.0215983
3.71176e-05
-7.66495e-06
-2.94676e-05
-0.00067806
5.27357e-05
-3.84586e-05
-1.42762e-05
-0.00201456
-0.000960987
-7.11681e-05
2.46425e-05
-0.000120686
-0.00016706
-2.95499e-05
3.16328e-05
2.10978e-05
-6.15103e-05
-6.34022e-05
0.000194458
-0.000765964
-0.00903712
0.0262054
0.00852693
-0.00226894
-0.00625799
-0.0208461
-0.0388971
0.0433069
4.66839e-05
-4.23563e-05
-4.31813e-06
6.85799e-05
-3.80072e-05
-3.05748e-05
-0.00726357
-0.00192748
0.00919102
0.005311
-0.00756415
0.00225316
-7.75985e-06
4.98145e-05
-4.20559e-05
0.00045508
-0.0001463
-4.98311e-06
-2.79e-05
4.56315e-05
-4.4704e-05
-9.2935e-07
0.00556921
-0.0237812
0.018212
0.000416556
-7.2546e-05
-0.000344016
9.09411e-05
-8.7721e-05
-3.23053e-06
-0.0113921
-0.0301993
0.0415914
0.0151174
-0.0366733
0.0215558
-0.00100407
0.0156429
-0.0146388
0.00540381
0.00312311
-0.0031128
0.0161017
-0.0129889
-0.00264491
0.010373
-0.00772811
0.000152219
0.00026433
0.000879476
0.00185447
-0.00273395
5.57424e-06
-0.000104616
-2.37036e-05
8.07024e-05
-5.70005e-05
0.0012304
0.00208868
-0.00909232
0.00646538
0.00262693
-3.24693e-05
0.00326406
-0.00252368
-0.000740368
-0.0175205
0.0254258
-0.00790521
-0.0296483
-0.0153775
0.0450258
0.0222677
-0.0166985
5.07733e-05
-4.61182e-06
-0.0141681
0.0345215
-0.0203535
-8.1242e-05
7.68453e-05
4.40512e-06
9.74578e-05
-6.52105e-06
-0.0128618
0.0118577
0.00490973
-0.00385056
5.67034e-05
-0.000258828
0.000202121
3.47859e-05
1.08363e-05
0.000349593
-0.000112723
-0.000236872
-0.00285507
0.00373456
0.0378586
-0.0175372
-0.0203214
0.000343723
-0.000691517
0.0003478
0.0253414
0.0227135
0.00362714
0.00140634
-0.0050335
-0.00730777
0.00328458
0.00402318
-0.00461766
0.00150485
3.9304e-05
-0.000276378
0.000237072
0.00285404
0.00896609
0.000644641
0.000750842
-0.00139548
8.60822e-06
9.58714e-05
0.0049506
-0.0297897
0.0248391
-0.0120452
0.0137281
-0.00168291
-4.07728e-05
8.15559e-05
-4.07845e-05
-0.0101385
0.00749355
-8.87129e-05
0.00011896
-3.02454e-05
0.0129944
0.0248642
-0.000304786
0.000184161
0.000120615
-0.000792795
0.000675057
-4.02039e-05
3.13008e-05
8.89648e-06
8.60913e-05
-3.86657e-05
-4.74308e-05
-0.0497288
0.058645
-0.00891621
0.00283398
0.000892883
-0.00372687
-0.0659089
0.0161801
0.218871
-0.145987
-0.0728844
-7.90553e-05
6.67349e-05
1.23193e-05
4.56963e-05
-0.000117282
-0.00010634
0.000223618
6.49397e-05
0.000430282
-0.000495232
0.00643507
-0.00809569
0.00166064
0.0578846
0.0467879
-0.104672
-0.0012363
0.000562476
-0.00165852
0.00383167
-0.025977
-0.032523
0.00790861
-0.0193007
-0.0104974
0.00916944
0.00132794
-0.000262527
0.000138215
0.000124305
0.00407888
0.00472429
-0.00958806
0.00486378
5.97716e-05
-0.00166967
0.0016099
9.81841e-05
3.82879e-05
0.0289967
0.00899358
0.00651671
-0.0155103
0.0262411
-0.0104574
-0.0157837
0.00123615
-0.00317378
0.00193762
-0.00283546
0.000401793
0.000627306
-0.000272759
-0.000354547
-0.00545893
0.0674979
-0.062039
-0.00168222
0.00811732
0.0147987
0.00269308
0.00462937
-0.00356679
0.00137526
0.00521686
-0.0065921
0.00150997
-0.000864536
-0.000645435
-8.84945e-05
-0.000174039
-3.22705e-05
0.000191327
-0.00222207
0.00301054
0.0066039
0.00167603
-0.00827993
-0.00124802
0.000153683
0.00109433
-1.77568e-05
-5.13339e-05
0.00010054
-9.70186e-05
1.6016e-05
6.08953e-05
0.013663
-0.0162004
0.00253742
0.000323947
0.00114817
-0.0014721
-0.000118535
-0.00112948
0.00275504
0.0011636
-0.00391864
-8.60567e-05
0.000635395
0.0763604
0.142511
7.18416e-05
-2.55233e-05
-4.6328e-05
2.39568e-05
3.50533e-05
-5.90129e-05
-0.135042
0.0718863
0.0631553
-0.00271018
-0.00778719
-0.0188306
-0.0292181
-0.0235573
0.0527754
0.018019
-0.0391282
-0.00651841
0.014427
0.0436065
-0.0297635
-0.013843
0.0223086
0.0278241
-0.0501326
-0.099267
-0.0357747
0.00184589
-0.00163728
-0.000208587
0.000178265
0.000274618
-0.00045289
0.0279822
-0.0238666
-9.31372e-05
-3.2987e-06
9.64305e-05
0.000450011
0.000162612
-0.00851504
-0.00353023
5.82071e-05
-9.50701e-05
3.68604e-05
-2.97363e-05
2.17027e-05
8.02452e-06
0.00558901
3.38397e-05
-1.23363e-05
-2.14952e-05
0.000107559
-8.79333e-05
3.85184e-05
-5.31783e-06
-1.05812e-05
-8.25526e-05
0.000721255
-0.00027125
-0.00451656
-0.000464412
0.00498097
0.0175176
0.0260889
0.00132729
0.000612293
-0.00193963
2.24764e-05
-6.71441e-05
4.46732e-05
-7.58997e-05
-1.28132e-05
0.0107233
-0.0120156
0.00129225
-8.3673e-05
1.72249e-05
6.64473e-05
0.0109491
0.00271393
-0.0376105
0.00876346
0.028847
4.56986e-05
6.76714e-05
0.000115092
0.000369196
-0.000484289
0.00136987
-0.00922087
-0.016475
0.0256959
-6.20626e-05
0.000240325
0.00175984
-0.00248255
0.000722719
-0.0079558
0.0169494
0.00257946
-0.000724999
8.43596e-05
-0.000118625
3.42721e-05
-3.03478e-05
7.78607e-05
-0.000725286
-6.23044e-05
2.15318e-05
0.000849625
0.000660345
-0.00416877
0.0137527
-0.00958391
-9.73714e-05
5.98813e-05
3.75008e-05
0.00332808
-0.00216446
-2.91614e-05
-5.45126e-05
0.023453
-0.0326739
0.00500241
7.84102e-05
-5.44547e-05
-0.0169425
0.00133221
2.00577e-05
5.65229e-05
-0.0489965
0.0140147
-6.22566e-05
-3.51233e-05
0.000214394
-5.88945e-05
0.00144145
-0.00138167
-7.19962e-05
1.51923e-05
5.68059e-05
4.51418e-05
4.09373e-05
0.0038445
-0.00483049
-3.60366e-05
1.35697e-05
-2.61734e-05
-0.000170457
0.000196635
0.00244189
0.000648551
-0.00309041
3.31327e-05
-7.22121e-05
3.90669e-05
0.0197699
0.00647122
-0.000120731
6.42029e-05
5.65276e-05
-0.000513915
9.15078e-05
-7.14425e-05
2.61127e-05
4.53165e-05
-9.24882e-06
9.88124e-06
-6.22049e-07
-0.00807518
0.0315282
-1.49075e-05
5.76245e-05
-4.27093e-05
3.36136e-06
-0.000308136
-0.000760559
0.00840585
-0.00764529
-3.87027e-05
6.0533e-06
3.26544e-05
-0.00114763
-0.000654053
0.000601927
-6.78607e-05
-0.000534067
-1.581e-05
6.56596e-06
-9.86178e-05
-6.64451e-05
0.000165061
-6.18287e-05
-4.72084e-05
-1.4815e-06
4.86854e-05
-0.00131493
0.00254531
-0.0117349
-0.0150105
0.0267454
-5.54905e-05
2.24523e-05
3.30337e-05
-0.0014426
-0.00760214
0.00904473
-7.90953e-06
0.000222301
0.00258441
-0.0001425
-0.000116254
7.80899e-05
3.81545e-05
0.000538538
6.33898e-05
-9.53105e-05
0.000114227
-1.89259e-05
0.000353999
-0.0222624
0.0485164
-0.026254
-0.00256884
-0.000286227
-0.0576645
0.0592628
-7.19984e-05
-0.000595989
0.000711085
4.44886e-05
2.40788e-05
-1.78481e-05
-6.12609e-08
0.00156982
0.000129438
-0.0204456
-0.0285509
0.0101906
-0.00487964
-0.00897526
0.00938379
0.000230735
-0.00019143
-2.009e-05
-3.53835e-05
-0.0105371
0.0195584
-8.489e-05
5.45439e-05
9.47168e-06
-9.09851e-05
8.15089e-05
0.00180957
-0.00312452
0.00105433
0.00946096
-0.0105153
-0.00213999
0.00735684
0.00438607
-0.00582869
-5.13393e-05
-0.000131508
0.000182839
-0.000125623
0.000325021
-0.000199411
7.08655e-05
-8.20247e-05
1.11527e-05
2.74432e-05
-2.73014e-05
-1.43383e-07
0.0168218
1.0983e-05
-0.0168328
2.68298e-05
-0.000125456
0.00057375
-0.000230024
-0.000973942
6.55966e-05
0.0554884
-0.0380978
-0.0173906
-0.0417322
0.0517177
-0.0099856
0.000865065
0.0228446
-0.0237097
-0.000349887
0.000378553
0.00638088
-0.00438052
-0.00200038
-0.000777973
-0.000157069
8.9192e-05
1.56772e-05
-0.00010487
-0.119552
0.114093
-3.85973e-05
-8.61287e-06
0.00107962
-0.00186353
0.00078391
-0.000115216
4.59105e-05
5.8686e-05
0.00777246
-0.00783114
-0.00138971
-8.92835e-05
0.00102555
-0.00127709
0.000251539
-0.000378522
0.0002529
-0.0146723
0.00924482
-0.0141097
0.0048649
0.00134054
-0.000314999
-0.00202594
0.000131907
0.001894
6.50705e-06
5.17817e-05
-5.8278e-05
0.0174783
-0.0255536
-0.014516
-0.0543586
0.0688745
-0.0143094
0.00164192
-0.000101612
8.80108e-05
-0.000451154
0.000497463
-4.63232e-05
-0.0462037
0.0239413
-8.61293e-05
0.00014283
-5.27801e-05
-1.25677e-05
6.5341e-05
0.0466662
0.0088222
-0.000783898
-0.00573531
0.00651919
-0.00464118
-0.00200131
0.00664248
4.07374e-05
2.66376e-05
-0.00126075
0.00118073
-3.48385e-05
-4.6552e-05
8.13886e-05
0.0269803
-6.42326e-05
-8.25959e-07
6.50469e-05
-0.00154386
0.00197692
-0.00043308
0.00455736
0.0289699
-0.0335273
9.71623e-05
-6.49679e-05
-3.21731e-05
-0.00010487
7.00338e-05
-4.02384e-05
0.000124596
-0.00710958
0.0060625
0.00104706
0.000161015
0.000412734
2.97881e-05
2.58868e-05
-5.56567e-05
-0.00657706
0.00663573
-7.1761e-05
4.80583e-05
-0.0129124
-0.0141266
0.027039
-0.0593062
0.0212084
-5.01654e-05
5.30801e-05
-2.92633e-06
2.39975e-05
-7.67801e-05
-0.00320511
0.00192965
0.00127544
0.00781669
-0.00676236
-0.000219426
-3.99078e-05
0.000259335
3.57072e-05
-5.06102e-05
0.000524577
0.0254848
-0.0535744
0.0280896
0.000117991
-0.000109385
-0.00173114
6.14698e-05
0.000654348
-0.000459908
5.64902e-05
5.61232e-06
-6.21009e-05
-7.20615e-05
0.000492796
-0.000420734
-8.50714e-06
-5.68499e-05
8.0487e-05
7.38058e-05
-2.08801e-05
-0.0211233
-0.00123781
0.0223611
0.000236411
-0.000315374
7.89385e-05
-0.00251613
0.0015193
0.000996836
-0.0356397
-0.0236665
-0.0324677
0.0113445
-0.0145785
-0.023032
-0.000640602
-0.000903263
-1.92465e-05
-4.27966e-05
6.20428e-05
-3.21041e-05
0.000283363
-0.00025128
-5.26493e-05
2.47893e-06
-0.0149003
0.0480242
-0.033124
1.27367e-05
-6.85593e-05
5.58049e-05
4.81452e-05
2.88266e-05
-7.69375e-05
0.000847988
-0.00287395
-3.75549e-05
4.40386e-05
1.12276e-05
2.58871e-05
0.000595873
-0.00225703
0.00166115
3.7725e-05
-3.01994e-05
-0.00260924
0.065601
0.029459
-0.09506
4.40261e-05
-0.0037731
-0.0033365
8.62218e-05
-0.000117823
3.15928e-05
-7.43156e-05
-4.09091e-05
-0.000267405
0.000150125
0.0289656
-0.0226724
-0.00629324
3.4621e-05
2.69345e-05
-6.15441e-05
-0.0443147
0.102199
0.00708325
0.000570977
-0.00765421
0.000242515
0.0336315
-0.0791743
0.0455429
5.12453e-05
4.59305e-05
0.0120733
-0.011254
-0.000819295
0.0021891
0.000353191
0.0255007
0.00346495
9.78561e-05
8.27687e-06
-0.000106128
-6.64057e-05
-7.79168e-05
0.000144319
6.23211e-05
-3.11695e-05
-3.11542e-05
0.000348307
-0.00442685
0.00699384
0.000266622
-0.000143934
-0.000122691
-0.00118914
-4.36324e-05
-2.78697e-05
7.15092e-05
0.0165581
-0.0141778
-0.00238034
3.96331e-05
2.26868e-05
-0.0023181
0.0107909
-0.00847281
0.000162569
-1.55442e-06
0.000106636
5.84001e-07
3.06349e-05
-3.12074e-05
0.0132474
-0.00400255
-0.000661232
0.0663494
-0.0430211
-0.0233282
-5.07299e-05
-1.351e-05
-0.0152061
0.000896703
-7.55109e-05
-4.07006e-05
0.000116212
-0.0344164
0.00630258
0.0281138
-0.00251973
0.00541541
-0.00289568
0.00151781
-0.028826
0.0273082
0.00226208
0.00353037
-0.00579244
-0.00653054
0.00609879
0.000431763
3.49652e-05
-0.000110479
3.15807e-05
-3.08011e-05
-7.79698e-07
0.000106866
-0.000127617
2.07429e-05
-0.0373447
0.0245156
0.0128291
-6.04177e-05
-8.98607e-06
6.94017e-05
0.0250104
-0.0739335
0.0489232
-4.50137e-05
-7.36118e-07
4.57414e-05
0.00135006
0.0107232
-8.15222e-06
6.38041e-05
-5.5662e-05
-4.84755e-05
5.3595e-05
-5.10786e-06
-0.000180657
5.40692e-05
0.000126585
2.90515e-05
2.53214e-06
-5.14701e-05
0.000131025
-7.95659e-05
-0.00274702
-0.0185149
0.0435253
-0.00499542
0.00247568
-0.0133231
0.0149706
-0.00164759
-0.00141699
0.000393518
0.00102344
-0.00471318
-0.00338252
0.000461095
-0.00110169
-0.000223224
0.000171887
0.00934533
9.12407e-06
1.8316e-05
-8.97345e-05
-0.000330969
0.000258907
1.96377e-05
-6.81203e-05
-0.00975357
0.0307912
-0.0179764
0.0209134
-0.00293701
0.0034844
0.04079
-0.0442744
-7.67689e-05
-8.63574e-05
0.00016312
-7.29705e-05
2.20709e-05
5.08905e-05
-0.000542466
-0.000849521
0.00139198
0.0466492
-0.0130178
1.26824e-05
-1.81396e-05
-0.024086
-0.00361487
-0.00135883
-3.0874e-05
-9.92782e-05
6.27846e-05
3.64874e-05
-2.23012e-05
5.69212e-05
6.57497e-05
3.98699e-05
-0.000105617
0.000164705
-0.000250253
8.55453e-05
-4.84923e-05
-2.44704e-05
-1.54954e-06
0.00012051
-0.00833558
0.00514869
0.0031869
-0.0193152
0.0112211
0.00809411
0.000192717
-0.00160971
-0.00366437
-5.78838e-05
-2.53777e-06
-9.4496e-05
4.40203e-05
5.0489e-05
-0.0324333
-0.0191491
0.0515825
0.00193245
-0.00327473
-6.31771e-05
9.39261e-05
-3.07441e-05
-0.0562643
0.016862
0.0394024
-0.000333735
0.00417819
0.000277419
1.87524e-05
3.50763e-06
-2.22539e-05
-0.0441505
0.0149324
-0.000239046
0.00376942
2.06699e-05
-1.30323e-05
-7.6288e-06
-0.00508681
-0.00222096
0.0345096
0.0121396
-3.11779e-05
9.69256e-05
-0.0154012
0.0433833
0.000260084
-2.42237e-05
-0.000532546
0.000478521
5.40425e-05
-0.0311235
-0.0062212
-2.36781e-05
-1.65315e-05
-0.0293338
-0.0195264
1.41987e-05
8.63214e-05
0.00364333
-0.00240719
7.67005e-05
-0.000538384
0.000461683
-0.000214112
-0.000428578
0.000642673
-0.00139019
0.0051758
0.000390726
-0.000314025
0.0317825
-0.0502974
0.0434053
0.00196673
0.0016766
0.00142948
0.0133692
0.0038473
0.00770486
-0.02879
0.00559671
-0.000872413
2.5371e-05
-2.36158e-05
-1.73846e-06
-0.0262689
0.02734
-0.00107117
-0.0299118
0.00946625
-5.22731e-05
5.9168e-05
-6.89478e-06
-0.000123936
7.24653e-05
0.0101942
0.000529107
1.97046e-05
1.1517e-06
-3.27377e-05
3.33284e-05
-6.97728e-05
0.000300793
-0.000231017
-2.85489e-05
7.7042e-05
-4.84959e-05
0.000271837
-0.000146344
-0.00012549
6.49307e-05
0.000197395
-0.00026233
5.99567e-06
0.00767636
-0.00387658
-0.00379978
1.77002e-05
0.000564241
-0.000581944
0.000232202
-0.000436385
0.000204188
-3.24096e-05
8.05472e-05
0.0485206
-0.0230358
0.000317551
-0.000375254
-5.49858e-05
-6.12723e-05
-0.00590414
-0.013411
-1.05252e-05
-2.70229e-05
2.44763e-05
-6.67823e-05
4.23036e-05
-0.0186908
-6.20932e-05
-5.86398e-05
-2.33402e-05
-2.39279e-05
4.72798e-05
-3.15364e-06
-2.01939e-05
0.0284957
-0.0231097
-0.00538601
-1.36711e-05
1.88116e-05
-5.14191e-06
0.00391262
-6.04849e-05
1.68593e-05
-1.89496e-05
5.27547e-06
9.9267e-05
7.60023e-06
0.00412919
-0.00436824
0.00409318
-0.00514161
0.00104845
-0.0271377
0.0154028
8.14313e-05
-3.97918e-05
-4.16477e-05
0.000203292
-6.95199e-05
-0.000133778
9.85016e-05
-3.24071e-05
-6.60885e-05
-0.00186768
0.000129026
0.00173867
-9.64847e-06
8.05073e-05
-7.08672e-05
-9.64738e-06
0.000297866
0.000195222
-0.000493092
-2.05364e-05
-2.32711e-06
2.28628e-05
0.000791544
0.000516659
-0.0013082
8.09862e-06
-6.05378e-05
5.2445e-05
-0.00696937
0.00232818
0.000327351
0.000318968
-0.000646312
-1.13115e-05
6.95199e-05
0.0462039
-0.00312131
-0.0430826
7.90938e-05
-5.0748e-05
-2.83469e-05
-8.98393e-05
1.49844e-05
7.48497e-05
0.000124249
-0.000132158
-8.4652e-07
5.12253e-05
-5.039e-05
5.94498e-05
-4.99827e-05
0.00307731
-0.00189925
-0.00117807
-0.00110592
-0.00320016
-0.00570465
0.00890481
6.68645e-05
0.0262808
-0.00651087
-0.018804
0.0222884
5.62993e-05
4.21988e-05
0.000295257
-0.00755883
-0.000641371
0.000193739
1.28007e-06
7.42793e-05
-7.55661e-05
0.00172531
-0.0100466
0.00832126
0.0441585
-0.0306086
-0.0135499
0.00608735
-0.0101474
0.00406003
2.342e-05
2.32647e-05
-0.0272741
0.000548463
-0.000316261
0.000886222
-9.46805e-05
0.00221194
0.00546442
0.0392814
0.00487706
0.000280411
-0.000167482
-0.000112929
0.000873927
0.00051118
0.00434459
-0.000215419
7.01179e-05
0.00058424
-6.08056e-05
5.99233e-05
8.80321e-07
-0.00700443
0.00282809
0.00417632
-2.12412e-05
0.00104776
0.000136795
0.000135038
5.83381e-05
-6.64815e-05
-0.0289942
0.0335515
-1.59547e-05
-7.28796e-06
-0.00139361
3.47825e-05
-0.000194412
-5.5839e-05
-5.55726e-05
-4.37051e-05
0.00382061
-0.00702077
-0.00774787
0.000144559
-9.0492e-05
0.000587466
-0.000517352
5.91845e-05
-5.2182e-05
-7.00023e-06
5.27891e-05
9.17691e-05
0.00864378
-0.0020399
0.000189612
-0.000162799
-2.12341e-05
5.42454e-06
-4.33194e-05
7.13893e-08
4.325e-05
0.0620739
-0.0397653
-0.00409646
-0.00423914
-5.95586e-05
-2.16823e-05
0.000998191
-0.000946399
-5.17884e-05
-0.000520429
-0.000305871
-9.07008e-06
0.00019868
-0.00481387
0.017616
-0.0128021
8.39203e-05
-0.000107315
2.34005e-05
0.0052195
-0.00121159
0.0183958
-0.0410682
4.31346e-05
-5.36544e-05
5.23209e-05
0.000233223
4.71949e-05
-0.0731008
0.00212653
0.0709742
-6.02287e-05
7.81051e-05
-1.78808e-05
1.34344e-05
-7.36719e-05
4.79207e-05
2.66513e-05
-7.45849e-05
-0.0030085
-0.0103146
-0.0125096
0.0243765
-0.0118669
-0.0515967
-0.00840248
0.0149192
1.1241e-05
-1.20873e-05
0.000177899
-0.000115907
-6.20025e-05
-0.0126041
0.010286
1.03851e-05
-6.67597e-06
-0.00228877
0.00239158
-0.000102803
-0.00126499
-0.000128624
-0.0196428
0.00878456
0.0108582
0.0123702
0.0131305
8.40819e-06
6.27363e-05
-7.11398e-05
0.00429562
0.0184887
-0.00059525
0.000198267
3.81293e-05
-8.36014e-05
1.96784e-06
8.16296e-05
-0.000175177
-0.000256336
0.000431512
7.36337e-05
-7.23642e-05
0.0055083
-0.00548307
-2.52446e-05
-0.00154529
0.000683705
0.000861583
-2.55305e-05
7.34411e-05
-0.00261466
-0.00438976
-0.000447834
0.00220768
-1.85152e-05
-0.0141661
0.00999729
0.00415024
-0.00803918
-5.96953e-05
-2.41527e-05
8.38524e-05
-0.0105607
0.0567646
2.10667e-05
7.67852e-05
-0.0229936
0.0199169
0.00307666
6.80795e-05
-5.90348e-06
-6.21805e-05
0.0061408
-0.000642045
-0.00549875
-0.0106234
4.3683e-05
-5.80795e-05
1.44161e-05
-0.000500339
-0.00129646
0.00179678
0.00332374
-0.00244253
-0.000881219
-2.57459e-05
5.19763e-06
0.0256208
-0.00724724
-0.0183735
0.00206885
-0.00176905
-0.0002998
8.27073e-05
9.51901e-05
-1.6162e-05
-2.00756e-05
-1.5951e-05
0.000146919
-0.00020037
5.34521e-05
3.42895e-05
-2.99224e-06
-1.45842e-06
7.22043e-05
-7.07538e-05
-0.00304591
-0.0113898
0.0144357
0.0322204
0.00163164
0.00130171
-0.00293338
-2.62201e-05
4.46155e-05
-1.84048e-05
-0.00165462
0.00115426
6.36826e-05
-0.000106465
4.27767e-05
-6.46625e-05
6.48572e-05
-2.04682e-07
-5.26901e-05
-0.00223607
-0.00297152
-7.06234e-05
1.70654e-05
5.35501e-05
0.001555
0.000513848
9.56874e-05
3.5548e-05
-0.000131233
-0.0100332
0.00593671
5.46228e-05
8.68346e-06
-6.33569e-05
-1.55187e-05
2.54108e-05
-0.128949
0.0603974
0.0685519
-0.0290908
0.0160814
-0.0191273
0.00117342
0.0273223
2.1052e-06
-4.56523e-05
4.35603e-05
0.00977338
-0.0117297
0.00195633
-4.74903e-05
-4.70203e-05
0.0296726
-0.038266
0.00859343
-1.44442e-05
-6.91595e-05
-4.31337e-05
-3.84692e-05
8.16138e-05
-0.00329711
-0.00661335
0.00991046
0.0159573
0.0103234
-0.0054857
-0.0141571
0.000698258
0.000172049
-0.000124448
-4.75937e-05
3.45559e-05
0.000159817
0.00714341
-0.00882562
4.76847e-05
0.000155599
-0.00803056
0.000658675
0.00737187
0.00434676
-0.0025372
-0.0218723
0.0223102
-0.000437873
0.011092
0.000176832
0.00180007
-1.19956e-05
6.37244e-05
-5.17327e-05
-0.0268833
0.023762
0.000154481
0.000375883
-0.0425842
-0.0305165
5.33322e-06
8.38553e-05
0.00368772
-0.00236046
-0.00374831
0.011565
-8.10243e-05
5.17415e-05
2.92765e-05
-0.000718889
0.000384994
0.000333894
0.00204289
-0.00678586
0.00474296
-0.000289003
0.000767963
-0.000478971
-0.014059
0.00962599
0.00443302
2.20498e-05
-5.27408e-05
3.06886e-05
-1.03346e-05
6.49349e-05
-6.7524e-05
3.55898e-05
3.19305e-05
-0.0016682
0.000694239
-0.000887102
0.00153175
8.83505e-05
8.36871e-05
-0.0118062
-0.017188
3.51983e-05
-8.99846e-05
5.47836e-05
3.715e-05
-0.00103058
0.000993443
0.000514359
-0.00215164
0.0305613
-0.0188473
-0.011714
0.00111956
0.00322719
5.69369e-05
-1.62291e-05
-4.07118e-05
0.00102682
-0.00762219
0.00659536
-0.0332825
0.031659
0.0016235
3.56246e-05
1.65772e-05
-5.21979e-05
6.64985e-05
-2.59609e-05
-4.05389e-05
-0.0309454
0.0167774
0.0110193
0.00277365
-0.00720049
9.51658e-05
0.000167805
-0.000262973
-0.0480331
0.0169096
0.000230416
-2.41729e-05
-4.33493e-05
-3.8303e-05
1.3314e-06
3.69668e-05
-0.000948009
-0.00130902
0.000413659
-0.000702666
-0.00712536
0.00519786
-0.000161368
0.000256543
6.10911e-05
-7.30847e-05
-0.026453
-0.000430298
0.011581
-0.00204861
-0.00953243
-6.08424e-05
8.53186e-05
-0.00120396
-0.00131217
-3.40368e-05
3.72722e-05
-3.23667e-06
0.0391601
0.0117586
-0.0509187
-8.62546e-05
3.87574e-05
-0.0125705
0.00561002
0.00696052
0.0159907
-0.00440968
0.00808298
-0.0341167
0.0260337
1.80707e-06
-5.30808e-05
5.12715e-05
0.047558
0.000409107
-0.000254628
-0.0710249
-0.00290868
5.29462e-05
-6.14279e-05
2.22317e-05
5.92021e-05
-4.13136e-05
3.0336e-05
1.09518e-05
-0.0111979
0.00346508
0.00773283
2.80315e-05
5.80994e-06
0.0424612
-0.0273822
-0.015079
0.0015995
0.00336934
-0.00496884
0.00345605
0.00292482
-4.55956e-05
-4.06533e-05
-0.00160979
-0.000297865
0.000772883
-0.000735724
-0.0259619
0.00135201
1.22484e-07
-4.24773e-05
0.000292476
-0.000163897
-0.000128584
-0.00907494
-1.88522e-05
-5.25879e-05
0.00728587
-0.0134791
0.00619321
-0.00148854
-0.00159686
0.00308541
-4.39058e-05
5.89629e-07
8.98241e-05
0.000170996
-0.000260812
0.000139191
0.000153287
6.46169e-05
-0.000469904
-0.00188818
0.00235806
0.00154192
-0.00238018
0.000838259
-0.00103207
0.000455638
0.000576426
-0.00736095
0.00163865
-0.00267731
0.00103865
-4.22513e-06
4.20594e-05
-4.75784e-05
9.2195e-05
-6.95927e-05
2.88763e-05
4.07147e-05
-0.0505229
0.00431917
-0.00252422
-0.032947
0.0354712
8.75156e-05
-4.9028e-05
-3.84912e-05
-0.00104681
0.000665945
0.000380887
-4.39478e-05
7.70689e-05
0.00152504
-0.0014999
-2.51316e-05
-0.00158188
-0.000511957
0.00209383
-0.000250594
0.000340407
-0.00240352
-0.00123889
0.00364242
5.07698e-05
2.99322e-05
0.00104316
0.000398292
2.38666e-05
-5.79171e-05
-0.000294935
0.000268764
3.6672e-05
-0.000207131
-0.000106249
0.000230045
-0.000156364
-7.36813e-05
0.0163819
0.00923884
0.0174314
0.0131299
8.73346e-05
-2.5784e-05
-6.15576e-05
-0.135571
0.0261868
-5.04364e-05
-1.83437e-06
0.0114351
-0.0232413
-0.000936804
-9.71942e-05
3.73463e-05
4.30791e-05
4.42566e-05
-3.13742e-06
-0.000705059
0.000708196
-0.000603507
-0.00187903
0.00307834
-0.000765991
-0.000266079
-0.000299214
-0.000330439
0.000629653
4.94289e-05
0.0162447
-0.0148152
-0.0100314
0.00552217
0.00450926
4.93331e-05
-9.46839e-05
4.53622e-05
1.58284e-05
-7.90075e-05
0.000260055
-0.000221504
-4.59016e-05
-6.59544e-05
4.67175e-05
0.0940581
-0.0642286
-0.0298295
0.000235647
-0.00011282
5.07219e-05
-1.76819e-05
-7.004e-05
-0.00045004
0.00241677
-4.31178e-05
-0.000133865
0.000176978
-2.63474e-05
3.85739e-05
-1.22289e-05
-3.88819e-05
1.25275e-05
1.90795e-05
-4.61968e-05
0.00122683
-7.86534e-05
8.7259e-05
-0.00209789
-0.00910002
0.0001138
-0.000100341
-1.34591e-05
1.30271e-05
-0.00962555
0.00368431
0.00594125
-0.000555148
-0.00747537
0.00749873
-0.0058227
-6.96962e-06
-2.38976e-06
2.40947e-05
-0.0469863
-0.0885845
7.64492e-05
1.64063e-06
0.00158612
-0.00114668
-0.000439424
-4.25835e-05
-5.24916e-05
-3.81468e-05
7.33413e-05
8.76143e-05
-3.82748e-05
-0.00257703
0.00172666
0.000850389
-0.0607025
0.0601679
0.000534537
0.109006
0.072508
-0.0522004
-0.0203076
0.0169843
-3.15963e-05
-0.00635191
-4.90988e-05
4.26443e-05
3.70933e-05
-7.97324e-05
0.000129048
-3.33646e-05
0.0115276
-0.00175424
6.98546e-05
-3.662e-05
-3.32385e-05
-0.00371205
0.000863514
0.00789571
0.00289519
-0.0464544
0.0162551
0.000107937
0.000282791
3.7796e-05
-2.92309e-05
-8.56095e-06
-2.06187e-05
0.0388424
-0.0388217
9.53705e-05
-2.83018e-05
-6.70735e-05
-0.000832575
0.000533362
0.0281492
-0.036817
-0.0137059
-0.0140325
-0.0228329
-0.000311921
0.000272015
0.000516523
0.00562429
-3.15771e-06
-5.11197e-05
5.42708e-05
0.00404836
0.00452211
-0.00857051
-0.000147513
7.07416e-05
0.0243216
-0.000320577
0.000479804
-0.000159229
6.74441e-05
-5.15609e-05
-1.58698e-05
-0.00702959
0.00328128
0.000885123
0.00011307
-0.0222238
-0.0384787
4.29442e-05
-4.1139e-05
-0.0525889
4.90308e-05
-8.4566e-05
3.55368e-05
-0.00371707
0.00131355
-0.0083627
-0.00392025
-0.000680041
0.000443604
-0.00211086
0.00166726
-4.3047e-05
0.000110618
-6.75775e-05
-4.01892e-05
1.44299e-05
0.000702924
-2.28177e-05
5.0934e-05
-2.81184e-05
-0.00591898
0.00545458
0.0301284
0.0423796
-0.0349622
0.0197595
0.0152027
0.0104714
-0.00960631
-0.000784683
-0.00161214
0.00239681
-0.0213059
-0.00901647
-0.00504256
-0.0359134
0.020903
-0.00102569
6.61231e-05
0.000959567
0.00776081
-0.00781428
5.3459e-05
-0.00451265
1.72026e-05
-5.68744e-05
-7.78538e-06
-0.000227597
0.000266354
-3.87653e-05
7.97379e-05
-5.22192e-05
-2.74879e-05
0.000121772
0.000310282
-0.000245347
7.97938e-05
-5.09623e-05
0.000838837
-0.000511475
2.81609e-05
-3.03992e-05
2.23779e-06
6.39609e-05
0.000108596
-0.00113429
-7.64325e-07
2.93991e-05
-2.8638e-05
0.0204292
-0.0170399
-0.00338935
0.00561162
-0.00151842
-0.00693587
-0.00565966
0.0125955
-4.44301e-05
6.65086e-05
0.00296391
0.0057736
-0.00873755
-0.00129692
0.00143586
0.00115229
-0.000109136
8.22385e-05
-5.01511e-05
-3.20877e-05
-0.00778442
-0.0254981
2.58557e-05
-0.000101753
-0.00066162
0.000672315
-1.06897e-05
-8.33917e-05
9.14808e-05
-8.09882e-06
-0.0207777
-0.0103689
0.0311466
-0.000103121
6.00678e-05
-0.00761015
-0.00242128
-0.00411593
0.000195674
3.42137e-05
4.48796e-05
-0.0412081
0.011836
0.0293721
0.00136027
-0.000292989
-0.00106727
4.11204e-06
0.000583368
-0.000438137
-4.10636e-05
0.000479195
4.69987e-05
4.06216e-05
-1.63291e-05
-0.000599195
0.00167882
-0.00236656
0.00382168
0.0308641
-0.0346859
-0.00117685
0.000634374
0.00281082
-0.00219987
-0.000610959
-0.000825197
0.00045556
0.000369631
-4.16057e-05
4.80851e-06
3.67999e-05
0.0279099
-0.0182093
-0.0097006
0.000473047
-0.000455347
-0.0617511
0.0200189
-7.06005e-05
-1.45641e-05
8.51653e-05
4.49288e-05
6.13049e-05
8.11877e-05
-0.000142488
2.09924e-05
-1.52013e-06
-1.94684e-05
-0.00111517
0.00626385
-1.65517e-05
1.96425e-05
-3.10261e-06
-0.00267571
0.00153531
-9.3085e-05
2.24861e-05
4.13021e-05
7.24908e-05
2.86135e-05
-0.000256218
5.85712e-05
-5.60875e-06
0.000523083
-0.000518992
5.23699e-05
1.40666e-05
5.33823e-05
0.0121353
-0.0169492
-0.00042635
-0.000243698
0.00067004
-0.000864492
0.00981534
-2.51239e-05