/*--------------------------------*- C++ -*----------------------------------*\
| =========                 |                                                 |
| \\      /  F ield         | OpenFOAM: The Open Source CFD Toolbox           |
|  \\    /   O peration     | Version:  v2012                                 |
|   \\  /    A nd           | Website:  www.openfoam.com                      |
|    \\/     M anipulation  |                                                 |
\*---------------------------------------------------------------------------*/
FoamFile
{
    version     2.0;
    format      ascii;
    class       volScalarField;
    location    "100";
    object      nut;
}
// * * * * * * * * * * * * * * * * * * * * * * * * * * * * * * * * * * * * * //

dimensions      [0 2 -1 0 0 0 0];


internalField   nonuniform List<scalar> 
18540
(
0.00528912
0.00711361
0.00670759
0.000407883
0.00457185
0.00667627
0.00680036
0.0222245
0.00669312
0.00228543
0.00482563
0.000407414
0.000392317
0.0156894
0.00460806
0.00669163
0.00739437
0.00675199
0.00669016
0.00680156
0.000448315
0.00763649
0.00667504
0.00653244
0.00673478
0.00394138
0.00522941
0.0160533
0.000410423
0.0153793
0.0214886
0.00756684
0.00517107
0.00934007
0.00539585
0.00703963
0.00449184
0.00645626
0.00702094
0.00133606
0.000499079
0.00968114
0.00674499
0.00679109
0.00679327
0.00694778
0.00609149
0.00725618
0.00689521
0.000463934
0.00539067
0.00698077
0.0074179
0.000559069
0.000492465
0.0229594
0.00148274
0.00346262
0.00316613
0.000490208
0.00539223
0.00671156
0.00669931
0.00668529
0.00669021
0.00668472
0.00696165
0.000553177
0.000402039
0.00668524
0.00670647
0.000289606
0.00467348
0.00669236
0.00687971
0.0228007
0.000160277
0.00403073
0.00670601
0.0235265
0.00677995
0.00678627
0.00768127
0.0067052
0.00404039
0.00670567
0.000219533
0.00753776
0.00679385
0.000547807
0.00564144
0.00146373
0.000297638
0.00677437
0.00668083
0.00685422
0.000229502
0.00672748
0.0301722
0.00680031
0.00667976
0.0027096
0.00679996
0.00667724
0.00668734
0.00668056
0.00649827
0.001308
0.0029091
0.00671299
0.00607125
0.00669246
0.00679222
0.00674561
0.00667939
0.00667851
0.0067521
0.00674178
0.00679451
0.00670781
0.00672602
0.0014979
0.000394838
0.00670941
0.00153307
0.00268637
0.00640212
0.00544195
0.00668955
0.00613179
0.0248278
0.00679281
0.00669837
0.000391327
0.00667363
0.003764
0.00676306
0.00606758
0.00669799
0.00667806
0.006688
0.00676553
0.00671272
0.00631237
0.000484039
0.000671977
0.000538889
0.0237105
0.00670959
0.00709674
0.000153013
0.00407015
0.00670711
0.00679699
0.00670659
0.007384
0.00109549
0.00676966
0.00670958
0.0180397
0.0010761
1.44134e-05
0.000725235
0.0110746
0.000800825
0.00676335
0.00206677
0.00670866
0.00672041
0.00195281
0.00414773
0.00670568
0.00205931
0.0194908
0.00850776
0.00113102
0.00746148
0.00365776
0.00676818
0.00671059
0.000327533
0.00276537
0.00676592
0.0073121
0.00679887
0.00196862
0.00402263
0.00489662
0.00051511
0.000393542
0.00154021
0.0128606
0.00679394
0.0213537
0.00283206
0.00671149
0.00116646
0.000202127
0.00678268
0.000712783
0.00676917
0.00437287
0.00677577
0.00667405
0.00723365
0.00679927
0.011566
0.0067276
0.0130591
0.014573
0.00670875
0.00679878
0.00679061
0.00679725
0.000177598
0.0193484
0.00711174
0.00733264
0.000255954
0.0188689
0.000597297
0.00682118
0.0239648
0.00224221
0.00288546
0.00674464
0.0100341
0.000226919
0.000963865
0.00371445
0.0116115
0.00676586
0.0173374
0.00020921
0.000205802
0.000554184
0.000303063
0.0064921
0.00687177
0.00677281
0.00723394
0.000552399
0.00650247
0.00692932
0.00668381
0.00669914
0.00102325
0.00256264
0.00649673
0.00690788
0.00679119
0.0140304
0.00670882
0.00670469
0.0180275
0.000579296
0.00100105
0.0188683
0.000545221
0.0192348
0.0202002
0.0208304
0.0182574
0.00717062
0.00678075
0.00380772
0.00670061
0.00584047
6.3499e-05
0.00673155
0.00667509
0.00691336
0.00700053
0.00668826
0.00668556
0.00670101
0.00582695
0.000407673
0.019424
0.00697183
0.00672489
0.00676953
0.000179208
0.00670793
0.00225185
0.00711307
0.0067554
0.00679979
0.0041204
0.0026527
0.00677463
0.00352098
0.000251708
0.00184656
0.00671509
0.0067428
0.0135563
0.00677881
0.00649671
0.000370347
0.00668413
0.00682619
0.0067077
0.00153561
0.000423453
0.00670442
0.00113021
0.00670666
0.00551563
0.00668352
0.00678246
0.00289007
0.00673692
0.00680762
0.000497881
0.0067075
0.00737313
0.00195818
0.00671157
0.000793804
0.00671167
0.00677588
0.00678892
0.00667811
0.00100849
0.00695667
0.0067652
0.000745829
0.00675677
0.00717066
0.00675342
0.00667815
0.00676331
0.00670855
0.00677515
0.00166706
0.0170182
0.00669507
0.000588629
0.00678202
0.00275249
0.00671068
0.00560202
0.00670812
0.00524665
0.00249571
0.00205465
0.0232676
0.00339962
0.00679971
0.00712359
0.00667429
0.00232702
0.005416
0.00333811
0.0363603
0.00679345
0.00669424
0.00432828
0.00674334
0.00673897
0.00103255
0.000888722
0.000322422
0.000558635
0.00675901
0.00674741
0.00674688
0.00709949
0.000979654
0.00676289
0.0517002
0.0068985
0.0103245
0.00304002
0.00992649
0.00609171
0.000888281
0.00570023
0.00673822
0.0177496
0.00676902
0.00640198
0.00673817
0.00128439
0.00422111
0.00684146
0.00678777
0.000992622
0.000257004
0.00682345
0.000192861
0.00670543
0.00290841
0.0222614
0.000256663
0.00668153
0.00678951
0.00120775
0.00676556
0.00667471
0.00796547
0.00110811
0.00175197
0.00675072
0.00273195
0.00673165
0.000465595
0.00722121
0.00698355
0.0202385
0.00669103
0.00673475
0.00671572
0.00182963
0.0260901
0.00668954
0.00129188
0.0067186
0.00291134
0.0114891
0.00671127
0.00667403
0.00673983
0.000995586
0.00679729
0.00684534
0.00685169
0.00999551
0.00671017
0.00257854
0.0065564
0.00667334
0.00653814
0.00676922
0.00667392
0.00668956
0.0120493
0.00674186
0.0028379
0.0137784
0.0136661
0.00462288
0.00703224
0.00669409
0.0067879
0.00671084
0.0213845
0.00667542
0.0066884
0.000225572
0.00670377
0.00667424
0.00661538
0.00735997
0.00659651
0.0138997
0.00670523
0.00127698
0.00671426
0.00673569
0.00679246
0.0195285
0.0066798
0.0209541
0.00283285
0.00678038
0.0187616
0.00669157
0.00882922
0.0070236
0.0179579
0.00670588
0.00672243
0.00676349
0.00678828
0.0273953
0.00674807
0.007417
0.00679624
0.000208791
0.00675317
0.000305161
0.0140619
0.00671045
0.00747606
0.000227092
0.00596478
0.020676
0.00717239
0.000228363
0.00668962
0.000673613
0.00095613
0.00986587
0.00338004
0.0006212
0.00668812
0.00675354
0.00666719
0.00327156
0.00674733
0.0199128
0.00734798
0.0071806
0.00675259
0.0066907
0.00675145
0.00675139
0.00672167
0.0070407
0.022709
0.00119562
0.00885484
0.00690504
0.000326193
0.00692876
0.00675999
0.000867931
0.0071399
0.00670809
0.00679355
0.00669016
0.0238618
0.000998259
0.0176065
0.00674822
0.0067018
0.00478449
0.0181223
0.00680209
0.0229653
0.00491168
0.0066661
0.00668015
0.00668529
0.00676249
0.00670142
0.00677297
0.00064613
0.00365636
0.00669117
0.0208651
0.0067282
0.00670415
0.0176311
0.00112003
0.00676558
0.0035131
0.000531707
0.00676619
0.00668282
0.0147384
0.00143114
0.00667285
0.00120242
0.0178689
0.00668649
0.00432593
0.00675953
0.00625014
0.0236189
0.0021355
0.0071578
0.0155391
0.00668301
0.00368476
0.005754
0.00679454
0.000361926
0.00606418
0.0244604
0.0148466
0.00443764
0.000332337
0.000178824
0.000982342
0.00245324
0.00667811
0.0139657
0.00506256
0.00674694
0.00672178
0.000150177
0.00703448
0.00753428
0.00677806
0.00672971
0.00679019
0.00679098
0.00676478
0.00192554
0.00679374
0.00678537
0.00668837
0.0091889
0.00675573
0.00670997
0.00333769
0.0067038
0.00670389
0.00495679
0.00671139
0.00667385
0.00667468
0.0018632
0.00730919
0.00194071
0.00683411
0.00721658
0.0066669
0.00389711
0.000149029
0.0174082
0.00670784
0.00673729
0.00672768
0.00288726
0.00675209
0.00670816
0.00677558
0.00670582
0.00684637
0.00669419
0.00131829
0.00687564
0.00673041
0.00710654
0.00676753
0.00672619
0.00677761
0.00667448
0.00671943
0.00278053
0.00597478
0.00355963
0.00670657
0.000910377
0.0143558
0.0067278
0.000141082
0.00581332
0.00670073
0.000371052
0.0108278
0.000402387
0.00671872
0.0209938
0.0067855
0.00683054
0.0030669
0.00954224
0.00675839
0.00487222
0.00666916
0.00642344
0.0067777
0.00219507
0.00654987
0.00678939
0.00682788
0.020597
0.00675582
0.00728031
0.00426277
0.0067667
0.00666608
0.00377616
0.00307362
0.00675209
0.00592744
0.00669306
0.00674734
0.000648988
0.00676736
0.00667704
0.00669484
0.0215614
0.000585532
0.00676687
0.00356483
0.00405338
0.00677525
0.000531599
0.00670643
0.000451173
0.020096
0.00670225
0.00667841
0.00675229
0.00724839
0.00669761
0.00669549
0.00669173
0.00499543
0.0125849
0.0138292
0.000284349
0.00667436
0.00677071
0.000322978
0.00770695
0.00587387
0.00413638
0.000366381
0.0167203
0.00671709
0.000446477
0.00131606
0.00674794
0.00672516
0.00678318
0.00670057
0.000803663
0.00647812
0.00669136
0.00165457
0.00262963
0.00667428
0.000319278
0.000465271
0.00672911
0.00761325
0.006706
0.0158455
0.00669592
0.000132937
0.0172334
0.00667695
0.00615126
0.00219939
0.00670727
0.0119653
0.00405651
0.00676737
0.0229168
0.00671083
0.00667402
0.00738608
0.0067004
0.000428254
0.00205038
0.00759443
0.00728166
0.00619244
0.00672754
0.00670122
0.00547496
0.00253514
0.00678396
0.00548378
0.00671479
0.000602866
0.00668574
0.00667942
0.0131858
0.0108703
0.000420752
0.0014505
0.00669379
0.000187704
0.00670307
0.0124584
0.00672401
0.00669011
0.000526873
0.000904023
0.000366441
0.00704491
0.00671949
0.00667511
0.000211323
0.00673777
0.000154799
0.00157028
0.00115965
0.0210049
0.00679276
0.00671026
0.0109651
0.00681019
0.00710536
0.00673788
0.00699737
0.000929471
0.00670774
0.00499497
0.00143264
0.00680056
0.00378803
0.0067024
0.00668575
0.00669383
0.00689297
0.00293534
0.0067203
0.020248
0.00673692
0.00684826
0.00691081
0.00303731
0.00127976
0.00669415
0.00075321
0.00344243
0.00672878
0.00670313
0.00364725
0.000419381
0.0251896
0.00682035
0.0073014
0.00456992
0.00669366
0.00673493
0.00647353
0.00679747
0.000143449
0.0068193
0.00671006
0.01063
0.00718245
0.00670426
0.00282056
0.00671052
0.0127562
0.00670328
0.000641555
0.00481158
0.0136297
0.00670317
0.0217629
0.0068094
0.0205381
0.00684417
0.0067092
0.00695318
0.000821781
0.00705243
0.00873169
0.000654194
0.00095023
0.00670227
0.00699019
0.00252526
0.00684254
0.00350739
0.000250441
0.00674103
0.00669891
0.000632923
0.00677038
0.00046534
0.00169666
0.0066945
0.00676215
0.00669866
0.0067227
0.00683867
0.00384233
0.00636681
0.000998055
0.00263464
0.00667524
0.00713338
0.00670646
0.00670683
0.00168705
0.018003
0.00672979
0.0068246
0.00673167
0.00369058
0.00226902
0.00676817
0.00136658
0.00672041
0.00370894
0.00671084
0.00620874
0.00805895
0.00677154
0.0067319
0.00668618
0.0164041
0.00387871
0.00672999
0.0197331
0.00674689
0.0199548
0.00334024
0.00667672
0.00672965
0.00334761
0.00289976
0.0025698
0.00662081
0.0068212
0.00669009
0.000340956
8.72404e-05
0.00667675
0.00676371
0.00283841
0.00679363
0.0066944
0.0149546
0.00679764
0.00671088
0.00670957
0.00411203
0.00674503
0.00672053
0.00672363
0.00669038
0.00211976
0.00675031
0.00157769
0.00676176
0.00669442
0.000724201
0.000228174
0.00062025
0.00677777
0.00667591
0.0177334
0.00671158
0.00626016
0.00673151
0.00673523
0.00667723
0.00173602
0.00843956
0.0141656
0.0169674
0.00402273
0.00674924
0.0159689
0.00671072
0.00668747
0.0067154
0.000244711
0.00671146
0.000452846
0.000419326
0.0192706
0.00665038
0.00678241
0.0255759
0.00671178
0.00682587
0.014066
0.00175246
0.0241712
0.00679627
0.000205443
0.00670729
0.000271945
0.00675123
0.000593429
0.00391601
0.00670392
0.00131388
0.00385008
0.00729725
0.00670358
0.0136265
0.00670751
0.00159104
0.000632713
0.00155899
0.0115308
0.00670486
0.00670771
0.000431809
0.00666465
0.000341068
0.0165468
0.0126915
0.00569198
0.00233323
0.0145488
0.00195513
0.0179968
0.00684957
0.00078478
0.000430112
0.0067116
0.00670102
0.00677092
0.00686874
0.00671472
0.00679166
0.00668893
0.00689231
0.00673475
0.00667532
0.00701844
0.00763539
0.000396195
0.000161186
0.000399844
0.00670461
0.000244646
0.00278114
0.00383954
0.0067108
0.00338957
0.00676578
0.00683883
0.00671315
0.0240878
0.00670437
0.000382204
0.00126108
0.00676475
0.00255521
0.00645838
0.00630829
0.00654551
0.00667669
0.00670913
0.0054374
0.00202986
0.000269465
0.00593061
0.00718715
0.00445191
0.0071745
0.00243155
0.00679368
0.00573539
0.00670817
0.00672981
0.00671917
0.00685012
0.00112988
0.00671138
0.0322144
0.0067079
0.00675936
0.00676998
0.00687997
0.00630477
0.0067285
0.00670407
0.000925595
0.00657418
0.00629746
0.0012378
0.00672325
0.000260674
0.00671551
0.0067107
0.00668576
0.0117218
0.000253957
0.00667717
0.00586764
0.00677426
0.00666996
0.0195096
0.00678984
0.00678586
0.00102899
0.000362979
0.00674436
0.00645358
0.00677507
0.000634841
0.0066937
0.00670771
0.00679609
0.000696792
0.0067483
0.0210831
0.00678075
0.00676486
0.00671706
0.00672293
0.00668697
0.00673279
0.006789
0.00713055
0.00673734
0.00673599
0.00670314
0.00670514
0.000511681
0.000591363
0.00671207
0.00645066
0.00671051
0.00186432
0.0050445
0.00667302
0.00674384
0.00712526
0.00671766
0.00672153
0.00673433
0.000661263
0.000542015
0.00735595
0.00671197
0.00635623
0.0147522
0.00606413
0.00671573
0.000211745
0.000712683
0.00645758
0.00998359
0.00677088
0.00920826
0.00670437
0.00677115
0.000391729
0.00437962
0.00254891
0.0193327
0.000728787
0.0220867
0.00151484
0.00672795
0.00670568
0.00670775
0.00672094
0.00672429
0.00668039
0.00330219
0.00676024
0.00668483
0.00668239
0.00683036
0.000333608
0.00670696
0.00721952
0.0068464
0.0141049
0.00719381
0.00673257
0.00671056
0.00677078
0.0105073
0.00674595
0.000661117
0.006755
0.00624881
0.00671374
0.00739997
0.00352116
0.00673152
0.00678016
0.0066966
0.000787977
0.00677663
0.0209493
0.0017312
0.000839896
0.00669095
0.0071981
0.00670837
0.00667198
0.00668914
0.00674022
0.00667713
0.000236326
0.00883564
0.00670688
0.00672474
0.00690004
0.0066822
0.00677947
0.00672494
0.00186394
0.0200768
0.00411332
0.006743
0.0195783
0.00335031
0.00670217
0.0077896
0.00719627
0.00670509
0.00675088
0.000580739
0.00699615
0.00286679
0.00677686
0.00669833
0.00667397
0.00675577
0.00676053
0.00632572
0.00679309
0.00676186
0.000300423
0.00669867
0.0151997
0.0135029
0.0154922
0.00628879
0.00672599
0.00662849
0.00679086
0.00673462
0.00434132
0.00491744
0.00671379
0.0067957
0.000755974
0.00674649
0.000242936
0.00669515
0.0130461
0.00674456
0.00668977
0.00678808
0.00671577
0.00670612
0.00668575
0.0175283
0.00667484
0.00960591
0.00199313
0.000276964
0.00669523
0.00671512
0.00672396
0.00922761
0.00247879
0.00674892
0.00219372
0.00669625
0.00667326
0.00677624
0.00100332
0.00250784
0.0047267
0.00670801
0.000626196
0.00125013
0.00676919
0.000428908
0.0106665
0.00152578
0.00119773
0.00760628
0.000137218
0.00668288
0.000910101
0.00670517
0.0067296
0.00670754
0.000462001
0.00687178
0.00671915
0.00669589
0.00668108
0.00669449
0.000940928
0.000595958
0.000283564
0.00176069
0.000938004
0.00667123
0.0068537
0.000157096
0.000225989
0.00425554
0.00667448
0.0124142
0.0190326
0.00666647
0.00640603
0.00674309
0.0202859
0.00675177
0.00670161
0.00672804
0.00153638
0.00118049
0.00681453
0.00736676
0.00677995
0.000956649
0.000847582
0.00668744
0.00675917
0.00534766
0.000943458
0.00543954
0.00141367
0.000376594
0.00671289
0.00670059
0.0210635
0.000170302
0.00678995
0.00131378
0.00032735
0.00670285
0.00669679
0.000858117
0.00667379
0.00053156
0.00149514
0.00670452
0.0101538
0.0187503
0.0037392
0.00672472
0.0209348
0.00710548
0.00673017
0.00670859
0.0188046
0.0084913
0.000233974
0.00667474
0.00670778
0.0171166
0.00667475
0.00740291
0.00679273
0.00666914
0.005642
0.00669336
0.00666364
0.0247917
0.00214275
0.00670832
0.00671023
0.000696388
0.00490501
0.00666594
0.00839493
0.00174514
0.00670435
0.00668663
0.0016358
0.00667503
0.00643454
0.00667862
0.00256392
0.00667833
0.00667504
0.00670604
0.0195802
0.0200971
0.00670889
0.00185332
0.00677383
0.00672784
0.00131106
0.00667535
0.00066208
0.00677449
0.00986649
0.0144785
0.00668665
0.00673874
0.00623177
0.00117734
0.00650606
0.00110123
0.00667784
0.014951
0.00146062
0.00667333
0.00668112
0.00672097
0.0111808
0.000746008
0.00681087
0.00669174
0.00668794
0.00679422
0.00610277
0.0067108
0.00224546
0.0071637
0.00678183
0.00640601
0.00670378
0.00667341
0.00666586
0.00672364
0.0234671
0.0067708
0.00669247
0.000362457
0.00823332
0.00286635
0.0046315
0.000272914
0.0067392
0.00700205
0.00682936
0.0168802
0.00672705
0.00671193
0.00391291
0.0164891
0.0112139
0.00644181
0.0143119
0.000258462
0.000645222
0.00678043
0.00670392
0.00161837
0.00668539
0.00674311
0.00596585
0.019835
0.00667742
0.00670064
0.00667089
0.000534243
0.00371834
0.0086294
0.00670127
0.00238814
0.00533889
0.0127517
0.0067932
0.0208409
0.017077
0.000842546
0.00736268
0.00631652
0.0067732
0.00669397
0.000663189
0.00669342
0.000333057
0.00668214
0.00276034
0.0025087
0.00679437
0.00678545
0.00671533
0.00673439
0.000384965
0.001837
0.0126072
0.00030789
0.00666625
0.00677806
0.00673311
0.00306082
0.00672322
0.00376251
0.012065
0.00669323
0.00673337
0.0067696
0.00671171
0.00668789
0.00672509
0.00690762
0.00643144
0.00684095
0.000106581
0.00757335
0.00157014
0.011071
0.00668775
0.006758
0.00545067
0.00667272
0.0028541
0.00679505
0.00525554
0.00670765
0.00692325
0.00619413
0.00668618
0.00669013
0.00678116
0.00670144
0.00783824
0.00679515
0.00363012
0.00670678
0.00287788
0.00670188
0.00680042
0.000879122
0.00545127
0.000923071
0.00605098
0.00673161
0.00668943
0.00193225
0.0080826
0.00583463
0.00694275
0.00213083
0.00668941
0.0066844
0.00672576
0.00679222
0.00675244
0.00668052
0.0110644
0.00668062
0.00671868
0.0249332
0.00674923
0.00670313
0.00668882
0.00669335
0.00675754
0.00667016
0.0132942
0.00496922
0.00703822
0.00544209
0.00647103
0.00308864
0.00322513
0.00679648
0.00677622
0.00143167
0.0119761
0.000762628
0.00297862
0.000569623
0.00976369
0.00671397
0.00553284
0.0196141
0.0130457
0.0070488
0.00670669
9.1026e-05
0.0066795
0.00170135
0.00668536
0.0067137
0.00690027
0.00678635
0.0038585
0.0066962
0.000250174
0.00985652
0.00670963
0.0193512
0.00673352
0.00670024
0.000704673
0.000628451
0.00673303
0.00672463
0.00669346
0.00669254
0.00455165
0.0069744
0.00650841
0.000436512
0.00668794
0.00672678
0.0121875
0.0067035
0.000594575
0.017726
0.0177695
0.0108026
0.00676954
0.00667065
0.00669507
0.00681844
0.00670691
0.00895413
0.00221575
0.000196422
0.00678232
0.00669358
0.00679845
0.00270393
0.0069402
0.00677703
0.00217547
0.00671346
0.00670576
0.0145262
0.0140051
0.000345518
0.00668884
0.00667
0.00675424
0.00687724
0.00669757
0.00678798
0.000217593
0.000232611
0.0063101
0.00286221
0.00670239
0.00217636
0.0067669
0.00106984
0.00679152
0.00678075
0.00738244
0.00672075
0.00668866
0.000605857
0.000804854
0.00644857
0.00680346
0.00726192
0.00672761
0.00671912
0.00668794
0.00831725
0.00610774
0.00731146
0.00669548
0.00671256
0.000630051
0.00670374
0.00598672
0.00107136
0.00041939
0.0020722
0.00266337
0.0217864
0.00678674
0.00755201
0.00190217
0.0066941
0.000461022
0.00670083
0.00671328
0.0147929
0.0126266
0.00670536
0.00670735
0.00349677
0.0235
0.00670707
0.00933884
0.00123651
0.00675707
0.00680134
0.00670513
0.000242606
0.0101006
0.00378917
0.00675418
0.00669386
0.0067596
0.0220931
0.00678117
0.00669312
0.0185627
0.000359511
0.0069023
0.00164064
0.00666998
0.00158901
0.00670011
0.00599582
0.00668104
0.0194049
0.000432232
0.00668481
0.00907361
0.00678146
0.00859735
0.00678627
0.0067167
0.00436425
0.0110399
0.00751909
0.00068454
9.13237e-05
0.000196994
0.00668425
0.00670244
0.000813677
0.00672906
0.00636013
0.00426477
0.00951897
0.000231598
0.00585095
0.00315945
0.00472826
0.00671077
0.00670512
0.00671402
0.00668365
0.0105494
0.00669988
0.00190477
0.00676501
0.00142439
0.00196962
0.00672893
0.00671133
0.0067153
0.000973344
0.00670514
0.00685739
0.0158725
0.00728801
0.00535432
0.00668531
0.00759013
0.00669814
0.00667417
0.00574246
0.00670857
0.000234568
0.00420997
0.00524142
0.00726002
0.00669393
0.020049
0.00668587
0.00673984
0.00605513
0.00676971
0.00671719
0.00678919
0.00684754
0.00107954
0.00673324
0.0067054
0.000395216
0.00207098
0.0148774
0.00676558
0.00669038
0.00670121
0.00016918
0.00668308
0.00651196
0.00683833
0.00919746
0.00648569
0.00116592
0.000455239
0.00379728
0.00174109
0.00669375
0.000205381
0.00670928
0.00668268
0.0140866
0.00491189
0.00643025
0.00654036
0.00668168
0.00848262
0.00813382
0.00111487
0.00668997
0.00669697
0.0102914
0.006666
0.00670275
0.00668724
0.00343389
0.00675488
0.00671331
0.00672151
0.00670464
0.000773652
0.00678209
0.00670195
0.000926537
0.00063577
0.00692135
0.00676141
0.00328199
0.0113479
0.00111328
0.00571334
0.00513179
0.0208337
0.00280379
0.00668326
0.000146852
0.00670977
0.0261365
0.00668896
0.00614855
0.0111318
0.00677748
0.00678209
0.0149109
0.000103407
0.00315048
0.000820763
0.000121325
0.000278103
0.00644808
0.00669926
0.00670313
0.00672197
0.00338095
0.00668875
0.00667003
0.00674479
0.00680961
0.000186251
0.00197313
0.00674731
0.0192355
0.00674963
0.00668878
0.0067254
0.00680339
0.00639875
0.000856424
0.00677708
0.0076826
0.0157469
0.0187033
0.00690524
0.00691416
0.00677054
0.00670354
0.000403144
0.00667165
0.00468701
0.0140737
0.00697525
0.00942885
0.000839681
0.00675728
0.00344158
0.00131146
0.00205905
0.00671524
0.000210183
0.0134976
0.000127918
0.00673389
0.0125459
0.00110353
0.00671553
0.00901647
0.00667154
0.00536132
0.00670972
0.00678615
0.00676742
0.0060868
0.000399572
0.00670714
0.00670611
0.0342199
0.0010062
0.00312554
0.00669247
0.00554902
0.000889771
0.00671012
0.0136079
0.00557811
0.00610786
0.00624831
0.0203772
0.00213362
0.00678574
0.0100338
0.00678668
0.0086119
0.00614554
0.00669328
0.0357593
0.0010936
0.00684359
0.00670427
0.00234388
0.00677955
0.00671726
0.00676428
0.00670679
0.00670495
0.0115328
0.0010467
0.0066702
0.0026901
0.00106968
0.00672303
0.00677396
0.00691847
0.0067047
0.00669276
0.0102279
0.00782607
0.00690962
0.0010116
0.0190094
0.00671066
0.000922957
0.00380725
0.00679567
0.00667101
0.00667563
0.00163126
0.0066897
0.0119385
0.0073054
0.00677349
0.00668515
0.00718372
0.000188915
0.00553127
0.00138453
0.00672429
0.00198757
0.00152249
0.00668284
0.00341896
0.00667902
0.00678403
0.00674019
0.000407749
0.00676259
0.00668612
0.00678806
0.000695208
0.00669872
0.00670525
0.00520719
0.00383735
0.00672001
0.00759296
0.006679
0.00677388
0.00675898
0.00464802
0.00242001
0.00134983
0.00670333
0.00680852
0.00679055
0.000384262
0.00669103
0.00668106
0.00671212
0.00666968
0.00677561
0.00670858
0.00677614
0.00366435
0.000218857
0.00669512
0.0140455
0.00666949
0.00709855
0.00670031
0.0156208
0.00672204
0.00671251
0.000441407
0.00678875
0.00668222
0.000415692
0.00495435
0.00725304
0.00260555
0.00675488
0.00100146
0.0142729
0.000633713
0.00117563
0.00673879
0.000200615
0.00704315
0.00184413
0.00593643
0.0123315
0.00670455
0.00143989
0.00678237
0.00666608
0.0115312
0.00593561
0.00669253
0.00580456
0.00625111
0.0157594
0.023242
0.0022637
0.00112862
0.00217063
0.00676548
0.00667104
0.00672704
0.0235286
0.00777796
0.000185346
0.000345099
0.00668159
0.000189391
0.017484
0.00678699
0.00753159
0.0067024
0.00677983
0.0060214
0.00668435
0.000552561
0.00134821
0.00501201
0.00672936
0.00484495
0.00559139
0.00942811
0.00311711
0.00666605
0.00678294
0.00671268
0.00706636
0.0162493
0.00671944
0.000514659
0.00668049
0.000487248
0.00391715
0.00348197
0.00281978
0.00102335
0.00693756
0.00673509
0.00247153
0.00670659
0.00340158
0.000615593
0.000542655
0.00673263
0.00671103
0.000322362
0.00523419
0.0117188
0.00670806
0.00674139
0.00667099
0.00670251
0.00699525
0.00141105
0.00609524
0.00669921
0.00671205
0.00325107
0.00668468
0.00314702
0.00102193
0.00670161
0.00667053
0.00678802
0.00669187
0.00537242
0.00671142
0.00670305
0.00674351
0.00670162
0.000521032
0.00670032
0.00702926
0.00669534
0.0067317
0.00261438
0.000236676
0.00667584
0.00690325
0.000324781
0.00668961
0.0067712
0.000385633
0.00669785
0.00675144
0.00973251
0.00668117
0.0158203
0.00670283
0.00671006
0.000172588
0.0205246
0.0158053
0.00109657
0.000263523
0.000386614
0.000214941
0.00667111
0.0068912
0.00895816
0.00901671
0.0123886
0.0107633
0.00112448
0.035313
0.00676186
0.0152877
0.00450793
0.0204588
0.00673124
0.00674278
0.00607039
0.00670361
0.000335597
0.00669977
0.00678769
0.00670994
0.00672862
0.0066508
0.00671361
0.000241663
0.001087
0.00671379
0.00669313
0.00190723
0.00501029
0.0066982
0.00667156
0.0067291
0.00671502
0.00146751
0.0143578
0.00061954
0.00468687
0.0248372
0.00674288
0.00147092
0.00674324
0.0102577
0.00652989
0.00547475
0.00671044
0.00546099
0.0138702
0.00675264
0.00669052
0.00676424
0.00669774
0.00651133
0.0231896
0.00634352
0.00669846
0.00676711
0.00489185
0.00669308
0.00714579
0.00675833
0.0082118
0.0066863
0.00674854
0.00670785
0.00700296
0.00670354
0.00679769
0.000874762
0.00675855
0.00672688
0.000299547
0.00676992
4.86876e-05
0.00670092
0.00672602
0.000334844
0.00444733
0.00669904
0.00694039
0.0203293
0.00670378
0.00670672
0.00674561
0.00392576
0.00671098
0.00270865
0.00355151
0.00143285
0.000166384
0.00028837
0.000302903
0.00471499
0.00220356
0.00450872
0.00676989
0.000743277
0.000177212
0.00560105
0.000544092
0.000796443
0.00675345
0.00292791
0.00450942
0.00672136
0.0186236
0.00669285
0.00668268
0.0212082
0.0068091
0.00670597
0.00672707
0.0116879
0.000454631
0.00075975
0.00692556
0.00678523
0.00674735
0.000225344
0.00221286
0.000491695
0.00671013
0.0067002
0.00276691
0.00671993
0.00631721
0.00461601
0.000474893
0.00668308
0.00668103
0.00677388
0.000242385
0.00671008
0.000475111
0.00671428
0.000464614
0.0067073
0.00670098
0.00687879
0.000765568
0.0133447
0.00686404
0.00721589
0.00672137
0.00218094
0.00203474
0.00645165
0.000379944
0.00672626
0.00674846
0.00668662
0.00669785
0.00040872
0.00679745
0.000750097
0.0066944
0.005672
0.0017497
0.00671111
0.00610779
0.00670766
0.0174192
0.00670761
0.00669312
0.00738992
0.000355084
0.00668137
0.000946013
0.00818494
0.0017314
0.00203987
0.00669154
0.006732
0.00671246
0.017223
0.00931784
0.00221262
0.00304466
0.000666461
0.00671684
0.00251426
0.00269899
0.00133003
0.00679245
0.000230653
0.0074682
0.0201333
0.000915319
0.00677828
0.00703492
0.00666931
0.00453294
0.000670328
0.00652406
0.00103943
0.00127782
0.00107065
0.00670934
0.0067764
0.00670769
0.00467352
0.0127378
0.00670442
0.00354005
0.0124699
0.00674541
0.00229429
0.00490062
0.0067128
0.00670394
0.00667018
0.00017773
0.00639381
0.00671384
0.00012201
0.00573632
0.00678706
0.00496272
0.00202231
0.00669091
0.0191442
0.00124606
0.000845143
0.00670711
0.00692268
0.00670842
0.0257502
0.00666854
0.0068785
0.00672435
0.0106808
0.000530167
0.0075708
0.00670525
0.00670154
0.000416833
0.00675985
0.00534349
0.00671375
0.000968519
0.00678855
0.00571725
0.00085095
0.00679397
0.00674944
0.00670846
0.0212579
0.00680108
0.00672909
0.00670775
0.00524804
0.00094997
0.000561034
0.00610267
0.00677962
0.000630855
0.00977165
0.0067465
0.000814955
0.000197562
0.00670773
0.00670346
0.00483758
0.00670603
0.00670426
0.00652093
0.00666887
0.00692263
0.00670346
0.00677195
0.0224755
0.00255194
0.0026077
0.00670379
0.00219564
0.00673375
0.0078822
0.00674412
0.0214682
0.00671331
0.00678528
0.00288062
0.0208091
0.00669982
0.00678781
0.0067053
0.00677277
0.00635064
0.00678275
0.00668857
0.00679596
0.00878296
0.00121679
0.00353715
0.005399
0.00670526
0.00678545
0.00183459
0.00670669
0.00669862
0.00932216
0.00381787
0.00673875
0.003558
0.00483991
0.006704
0.0134897
0.00675028
0.00669773
0.00673148
0.00632991
0.0223782
0.0153973
0.00756009
0.0283739
0.00668998
0.00671214
0.00668876
0.00678761
0.0058387
0.0067039
0.00670234
0.00770622
0.00674542
0.00403868
0.00680161
0.00670619
0.0020603
0.00688985
0.0195735
0.00103068
0.00224358
0.00238205
0.0067736
0.00483987
0.00703106
0.00871919
0.00679764
0.00498377
0.0176658
0.00129546
0.00672197
0.00369646
0.00676199
0.0017508
0.00588004
0.000175892
0.0077396
0.00670943
0.000356913
0.00587078
0.00678295
0.000238071
0.00671716
0.00127351
0.00678629
0.00855523
0.0128175
0.00670841
0.00669272
0.00492488
0.00677393
0.00670563
0.00669776
0.0017913
0.00144569
0.000223256
0.00672705
0.00297496
0.00575082
0.000844667
0.00568986
0.00673501
0.000485386
0.00670491
0.00679292
0.00030036
0.0067053
0.00200553
0.00689909
0.00667002
0.0019476
0.00173214
0.00672691
0.00678989
0.00671776
0.0039589
0.00678815
0.00909804
0.00698657
0.00668963
0.00670561
0.00109008
0.0219445
0.0177625
0.0250031
0.00670207
0.00365379
0.00670026
0.00675135
0.00254919
0.00674008
0.0068346
0.00675729
0.00673175
0.00118433
0.00170455
0.00671217
0.0067413
0.00674021
0.00679106
0.016155
0.0178284
0.00667833
0.00669817
0.00636369
0.00675865
0.00679427
0.00538964
0.00754301
0.00713082
0.000833895
0.00675323
0.000981815
0.00671003
0.00667217
0.000213243
0.00200281
0.00673347
0.00671236
0.00678418
0.00441559
0.00453507
0.00678555
0.00699347
0.00729333
0.00119409
0.00025177
0.00512178
0.00679826
0.00673194
0.00213886
0.0067765
0.0066976
0.0023185
0.0060909
0.000166937
0.0250799
0.00671251
0.00667066
0.000235233
0.00685769
0.00617011
0.00323727
0.000791964
0.00203913
0.00035545
0.00120777
0.0176629
0.00678378
0.00675783
0.00418203
0.00511292
0.00670173
0.00677933
0.000232362
0.000367322
0.00670976
0.00672176
0.00310278
0.000150031
0.00678805
0.000727218
0.00667131
0.00670307
0.000545185
0.00667002
0.00670405
0.000642243
0.00680582
0.00669055
0.00672755
0.00296382
0.00667243
0.0133529
0.0143103
0.00507175
0.00147259
0.00201779
0.00674372
0.00667023
0.00171262
0.00678538
0.00667171
0.0067443
0.00274515
0.00697265
0.00676717
0.00152614
0.00671145
0.0067371
0.0178191
0.00676715
0.000215622
0.0125373
0.000610335
0.00144241
0.00678451
0.000182165
0.00677819
0.00426152
0.00667062
0.0045675
0.00581053
0.000365505
0.0146625
0.00677772
0.00249022
0.00683055
0.00669342
0.00130946
0.00668401
0.000567676
0.00671967
0.00679098
0.00668323
0.0067097
0.000784804
0.00680806
0.000727193
0.00669498
0.0007851
0.00674775
0.00670697
0.00668763
0.00340672
0.00699209
0.00797671
0.00669303
0.00666775
0.00670084
0.00697779
0.00365584
0.00672182
0.00707172
0.00670038
0.00673213
0.0121724
0.00336635
0.000854878
0.00673704
0.0015924
0.00293283
0.00667649
0.0226073
0.0064161
0.00136695
0.0066807
0.00679967
0.00272507
0.00671706
0.00667203
0.000232083
0.0124485
0.00671536
0.00670905
0.00334925
0.00809644
0.00115292
0.00672432
0.00673258
0.0239412
0.0193725
0.000183411