/*--------------------------------*- C++ -*----------------------------------*\
| =========                 |                                                 |
| \\      /  F ield         | OpenFOAM: The Open Source CFD Toolbox           |
|  \\    /   O peration     | Version:  v2012                                 |
|   \\  /    A nd           | Website:  www.openfoam.com                      |
|    \\/     M anipulation  |                                                 |
\*---------------------------------------------------------------------------*/
FoamFile
{
    version     2.0;
    format      ascii;
    class       volScalarField;
    location    "100";
    object      p;
}
// * * * * * * * * * * * * * * * * * * * * * * * * * * * * * * * * * * * * * //

dimensions      [0 2 -2 0 0 0 0];


internalField   nonuniform List<scalar> 
18540
(
-0.00506273
0.00706491
0.0150395
0.000464796
0.00878063
0.000500652
0.0156704
-0.0259354
0.00696827
0.00987091
0.00272571
-0.0476317
0.0480318
-0.243649
0.00956459
0.00690566
0.0117167
0.0151404
0.00933832
0.0158131
-0.00349244
0.00113797
0.00394506
-0.00307455
0.0101112
0.00929163
0.0027793
-0.0894869
0.00972087
-0.262016
-0.0930552
0.00266014
0.017196
0.00521704
0.00829279
0.0107493
0.0104564
0.0119588
0.00773557
-0.00804405
-0.0348763
0.00699125
0.012245
0.0172187
0.0111274
0.00522479
0.00743834
0.0108694
0.00898357
-0.00685432
0.0112417
0.00896405
0.00380267
-0.0503413
0.00729352
-0.0910451
-0.00958024
0.0140653
-0.00596536
-0.00136085
-0.00161217
0.0148267
0.0136829
0.010398
0.00944118
0.00625656
0.0112858
0.00613262
-0.0363803
0.0104728
0.0154701
0.00652704
0.00456393
0.0103904
0.00894509
-0.0449915
0.0445608
0.00995849
0.0154806
-0.0285722
0.0111733
0.0142313
0.00102964
0.0114807
0.00269545
0.0154174
0.0418737
0.0025524
0.0163259
-0.0106477
0.0146127
-0.442328
0.0408802
0.00853603
0.00615965
0.00909613
0.045358
0.0141165
0.00125554
0.015359
0.00602312
0.016502
0.015197
0.00575519
0.00609348
0.0060714
0.0160386
0.0239161
0.0165263
0.0144872
-0.00312876
0.0102955
0.0162329
0.0123791
0.00593954
0.00589122
0.0112177
0.0150465
0.0174637
0.0150952
0.0141004
-0.467634
0.0794385
0.0147627
0.0144901
0.0170177
0.0162196
0.0120959
0.00948208
-0.0062813
0.0688836
0.0174433
0.0137277
0.0743905
0.00478658
0.00888698
0.0131538
-0.00190492
0.0136517
0.00580742
0.000467617
0.0132245
0.0145326
-0.000850294
-0.00355094
0.0176731
-0.00313457
-0.034502
0.00768805
0.00623246
-0.0888017
0.0172159
0.0112672
0.0118301
0.0115252
0.00431688
-0.00815227
0.0127051
0.0147407
0.000289046
-0.0269841
0.0375984
0.0186723
-0.0648212
0.0212317
0.0126613
0.0200197
0.0147347
0.0150632
0.0149669
0.017518
0.0154222
0.0204022
0.0867335
0.00684227
-0.00326559
0.00387038
-0.210866
0.0138624
0.0147816
0.0248806
0.0165906
0.0156543
0.00439081
0.0147675
0.0202169
-0.145696
0.00205017
-0.0284196
-0.0241713
0.0233233
-0.0725479
0.0107989
-0.0194866
0.0131529
0.0148306
-0.0169424
-0.135367
0.0154204
0.0219334
0.0147071
-0.126623
0.0109435
-0.00195337
0.000577966
0.0117575
-0.00572772
0.0125334
-0.0162032
-0.205584
0.0145118
0.014992
0.0102534
0.0135349
-0.0479672
-0.186183
0.00773253
0.0111019
-0.0612915
-0.00567578
0.0113201
0.00027523
-0.0331369
0.0139314
0.0103631
0.0150502
0.000735553
0.0366902
0.00691866
0.0165532
0.0049533
0.00290125
-0.0853881
-0.0433091
0.0426266
-0.0386399
-0.0182129
-0.00150802
0.000392104
0.00857363
0.0115077
0.016762
-0.0101191
0.00885997
0.00619741
0.01369
0.0124351
0.0143611
-0.00948701
0.012074
0.0171783
-0.207131
0.0116617
0.0147827
-0.0996143
0.0108354
-0.0114493
0.00697148
-0.0158651
-0.00936686
-0.0145953
0.00388144
-0.104118
0.0103023
0.0131235
0.00997119
0.0140379
0.0165099
-0.128524
0.0123235
0.00498296
0.0125053
0.00311808
0.00616709
0.0104807
0.0140534
0.0167068
-0.0376353
-0.00919538
0.0116941
0.00709937
0.0145144
-0.0555236
0.0145409
0.013074
0.0427792
0.015237
0.0167546
0.0168634
-0.016646
0.0130383
0.0194004
0.0402677
0.0202431
0.0141937
0.0125377
0.00469099
0.0153669
-0.00212994
0.0200142
0.00740672
0.0121527
0.0145267
-0.0107945
-0.0230263
0.0148017
0.0224742
0.0155267
0.0187564
0.00734978
0.0143147
0.00993206
0.0145412
0.0118393
-0.0459646
0.0169441
0.000704371
0.0200801
0.0117645
0.00905473
0.0148535
0.00334952
0.00966598
0.00498497
-0.008541
0.00870725
0.0109099
0.0156022
0.0146564
0.0105715
0.00665757
0.00490539
0.0149417
0.0145064
0.0133446
0.0151808
-0.00164736
0.0104687
0.0169279
0.0145676
0.0202906
0.0147791
0.00671086
0.0147126
0.016992
0.00254503
0.020278
-0.042808
0.0145089
0.0169634
0.00625833
0.0038885
0.0100367
0.0166846
0.0173751
0.00151967
0.0105395
0.0104098
0.0070691
0.0126405
0.0142613
0.0150085
0.0237454
-0.0160401
0.0163809
0.0157185
0.00879521
0.0148894
0.00183624
0.0209143
0.0148313
0.00203854
0.00906997
-0.0563785
-0.0832968
0.00784027
0.00237787
0.0189782
-0.00541659
0.0154563
-0.0899895
0.0132929
-0.0019728
0.0149614
0.0267621
0.0033005
0.0122557
0.00914403
-0.0207293
0.0517571
0.0123706
-0.0980186
0.0111113
-0.00230019
0.0111466
0.04507
0.00621209
0.0169584
-0.00593652
0.0155513
0.00451332
-0.0458247
0.0256928
0.0224726
0.0102176
0.0143556
0.015282
0.0458335
0.00644298
0.00868144
0.00132353
0.010032
0.0153572
0.0140484
0.0212272
0.0018064
0.0104588
0.0268158
0.0149932
0.0136829
-0.0492786
0.0144388
0.00445739
0.0101426
0.0237755
0.0119609
0.00869645
0.00903167
-0.00589281
0.0147874
0.010569
-0.00063185
0.00431936
0.0112194
0.0100512
0.00437507
0.00957581
-0.00276781
0.0106987
0.00674475
-0.064886
-0.00734377
0.0394129
0.00879312
0.0122073
0.0133029
0.0144754
-0.024312
0.0042467
0.0097376
-0.0921462
0.0110555
0.00483919
0.00994321
0.00116372
0.0100025
-0.18616
0.0112116
0.0208138
0.014704
0.0149683
0.00990543
-0.00692917
0.0052726
-0.180832
0.0112813
0.0132433
-0.0176226
0.0100796
0.00170004
0.0113802
-0.00303909
0.014629
0.012956
0.0148722
0.0134491
0.0018579
0.000613702
0.0114213
0.0120488
0.0445151
0.0149028
0.0267597
0.00176671
0.0147893
0.00403898
0.0479419
-0.00221906
-0.0388988
0.00635652
0.0428509
0.00702447
-0.0220001
0.00838276
0.000679116
0.0119252
0.010345
0.00705327
0.0143001
0.000251993
0.0414301
0.0156696
-0.0176584
0.00126709
0.00230658
0.00688387
0.0103129
0.0154912
0.014405
0.0130755
0.0111321
-0.00713706
0.00806501
0.0109138
0.00927554
-0.0440794
0.00880376
0.0156878
0.0117867
0.00190249
0.0147118
0.010866
0.0103369
0.0751575
0.0186156
0.0117097
0.0157273
0.0106549
0.0180749
-0.0153649
0.00522334
-0.0310294
0.00343274
0.000275504
0.00534998
0.00728655
0.0156398
0.0105708
0.0148441
0.014493
0.0163179
0.00922778
-0.0158179
0.0155904
0.0131387
0.0186797
-0.0387525
0.0140563
-0.00439794
-0.0458147
0.00245707
0.00505634
0.00817558
0.0121429
0.00376705
0.0231875
-0.0089413
0.00725688
0.0124564
0.0113206
0.00639711
-0.036478
0.033995
0.00049652
0.0478401
0.006229
0.0166203
0.00987308
0.0172946
-0.00143733
0.00955165
-0.00922405
-0.207658
0.0164538
0.0443235
-0.104774
0.0427465
0.0147517
0.00514439
0.00703878
0.0165993
0.0147972
0.0130017
-0.0453141
0.00532194
0.00402511
0.0158754
0.0133077
0.00741128
0.00782408
0.00629355
0.015781
0.0166032
0.016381
0.00982886
-0.00777005
0.0111033
0.0147587
0.016487
0.0109565
0.0151524
0.0160819
0.0148858
0.00363993
0.00369699
-0.00160003
0.00208651
0.0206007
0.0119727
0.00199831
0.00016795
0.0121552
-0.120967
-0.00223835
0.0130381
0.0141735
0.015274
0.00983066
0.01455
0.0152035
0.00414378
0.0123735
0.0122015
0.0124416
0.0221932
0.00733752
0.0123789
0.0114699
0.0152169
0.0132502
0.014616
0.00411056
0.0142781
0.0194486
-0.00985985
0.0177769
0.0116081
0.00905124
0.0123552
0.0152877
-0.0844495
0.0171085
0.0143366
0.0251573
-0.000777733
0.0207125
0.00780309
0.0782241
0.0162621
0.0121573
0.015875
0.00370854
0.0123941
0.00215173
0.0129009
-0.00102616
0.0150321
0.0189573
-0.00330364
0.00723151
0.00688011
-0.00176341
0.0155773
0.00115432
0.00411088
0.0157223
0.000263015
0.0177427
0.00267315
0.0154612
-0.000739043
0.0129758
0.0153756
0.016889
0.0148126
0.00485058
0.0132552
0.00691145
0.0148477
0.0137972
0.00995802
0.0136504
0.014846
0.00861801
0.0146514
-0.0343978
-0.0103834
0.0109006
0.00522661
0.0123385
0.0153447
0.0068333
0.00685605
0.0115799
0.0113715
0.106216
0.0488202
0.0343468
0.00403689
0.011674
0.0307832
8.76284e-05
-0.00784067
0.00431397
0.0182286
0.000443278
0.0149085
-0.0422862
0.0224031
0.0107573
0.0126621
0.00428294
0.0143378
0.0128274
-0.003704
0.0115453
0.0188131
0.0198201
0.00492538
0.0221721
-0.00361013
0.0151869
0.0117778
0.0146383
0.00486014
0.0136186
-0.110911
0.000772354
0.00536101
-0.0156776
0.00287475
0.0123656
0.103639
0.00179867
0.01172
-0.0273475
0.0168588
0.000214189
0.000645203
0.0143691
0.00529218
0.0446896
0.00871117
0.000788945
-0.0155078
0.0127015
0.0137531
-0.00700288
0.0201649
0.0125255
0.00103148
0.0144271
0.0142674
0.0100691
0.00503995
-0.129993
-0.00489954
0.00140612
0.00156626
0.0131551
-0.0111182
0.0130626
-0.140405
0.0128045
0.00973192
0.0194087
0.0109886
0.0186363
0.0104028
0.0107695
0.00040507
-0.0342034
0.0143062
-0.0233826
0.0156441
0.019925
0.0132501
0.00880095
0.0151016
0.0113023
0.0112096
0.0173088
0.0154717
0.0118258
0.0249171
0.0146173
0.0147356
0.0270959
0.0161904
0.0184563
0.0147737
0.0101495
0.0120499
0.00915322
0.0128599
0.0108685
-0.0057029
0.0128264
0.0126867
0.0102564
0.0141955
0.0161481
0.013061
0.0182484
-0.0777002
0.00846772
0.0150045
-0.192164
0.00231632
0.00129756
0.00624253
0.0306364
0.013628
0.0119717
0.00799132
0.00967664
0.0162356
-0.107004
0.00617262
0.0151945
0.0113753
0.0137147
0.0151656
0.00731162
0.0120745
-0.0132229
0.0129762
0.0121626
0.0137953
0.00781537
0.0148048
0.00924812
0.0113271
-0.0324054
0.0100931
0.0131194
0.00577105
0.0165556
0.00317562
0.0244111
-0.00938167
0.0195706
0.0129005
0.0116376
0.00973087
0.0125532
0.0108431
0.0466289
0.00761
0.00553242
-0.0298524
0.00956559
0.0103188
0.00962274
0.0131909
0.0139818
0.00557095
0.0129088
0.00906537
0.0186354
0.000179489
0.0256128
-0.0260876
0.00402242
0.00379047
0.0146537
0.0150171
-0.00738782
-0.00303798
0.0127105
0.00887163
0.0117873
0.00514971
0.013057
0.0140377
0.0228678
0.0150915
0.00968303
0.0121905
0.000752156
0.00084256
0.0110597
0.0152631
0.000296473
0.0986549
0.0150324
0.0129845
-0.058473
0.0147607
-0.0104427
0.0141014
0.00567378
0.0129619
0.0136114
0.0193645
0.0126026
0.00048877
0.0149821
0.0104362
0.0456402
-0.228515
0.00546453
0.0140033
0.00498514
0.00977992
0.012199
-0.0322363
0.0120462
0.0150053
0.0147321
0.0163807
0.0156819
0.0143822
0.0144094
0.0092761
0.0148718
0.014994
0.015175
0.0112778
0.0131213
0.0178238
-0.0186723
0.015888
0.0132761
0.00495449
-0.0490846
0.0148127
-0.015154
0.0124432
0.0129575
0.0055362
0.0121505
-0.00628932
-0.183599
-0.0731769
-0.187093
0.0151825
0.00375001
0.01503
0.00998564
0.0142524
-0.000989271
0.0145149
-0.0509409
0.0253419
0.00355403
0.009501
0.000170127
0.0028738
0.01441
0.0148939
-0.0227703
-0.00187809
0.0670988
0.011663
-0.115261
0.0145552
0.014156
0.0158153
-0.0163431
0.0135445
0.0137163
0.0254826
0.00979824
-0.00196863
0.0147954
-0.177037
0.0155371
0.0229951
0.0160088
-0.00540112
0.00480795
0.0145969
0.0122723
-0.0382916
0.000288798
-0.0326415
-0.0602794
0.0164727
0.0082951
0.0139221
0.0056323
0.0175071
-0.00254076
0.00507495
0.0174943
-0.0287656
0.0144853
0.0136809
0.0161346
0.00933539
0.0145236
0.00747715
0.00970246
0.00735616
0.0143489
0.00417041
0.00489206
0.00159777
0.0785533
-0.126924
0.0154918
0.0106635
0.00495967
0.00937495
0.00985531
0.014753
-0.103942
0.0143907
0.0113956
0.0148726
0.0828493
0.0145814
-0.240312
-0.00475506
0.0152755
-0.0439213
-0.00905059
-0.00108294
0.00502046
0.00556469
0.0122762
-0.00204767
0.0133892
0.0340152
0.0178733
0.00875576
0.0152343
0.00338234
0.0261908
0.0167524
-0.102155
0.0153646
0.0126383
0.0135203
0.00493118
0.0141433
0.0115352
0.00113025
0.0153952
0.0113249
0.0160624
0.0101974
-0.000726934
0.0125442
0.0137749
0.00936183
0.00489467
0.00495619
0.0269678
0.0135564
-0.117783
0.014844
0.0144137
0.00907193
-0.0086554
0.0471322
0.00564019
0.016817
0.00614978
0.00480061
0.00128126
0.0143242
0.000251736
0.0235655
0.00513669
0.0108767
0.0112405
0.0128956
-0.239781
0.000229144
0.0145979
0.00913709
0.0172882
0.0142108
-0.0271478
0.0151662
0.00800059
0.0149238
0.00660799
0.00806856
0.0142709
0.0170011
0.0109303
0.0118165
0.015058
0.014966
0.0151182
0.0117982
0.0126917
0.0142359
-0.0518438
0.0147843
0.0112337
-0.0426058
0.0038497
0.0149195
0.0077428
0.0144171
0.00654542
0.0111806
0.0161497
0.0114863
0.000734444
0.0148243
0.0113715
-0.0307691
-0.0136236
0.0143358
-0.0312105
0.0173419
-0.00973607
-0.000355074
0.00602818
0.0217037
0.00496451
0.00368987
0.00616317
0.00154933
0.0178135
0.00339401
0.0124446
0.00177754
0.0215609
0.0132224
0.013516
0.0153211
0.0131365
0.0151124
0.0003242
0.00481283
0.0146414
0.0103041
0.00635229
0.0114027
0.0110588
0.0145467
0.00611018
0.00939914
0.0111214
0.00300234
0.0117446
0.0144263
0.00912184
0.00381519
0.0143509
-0.00465793
0.0105661
0.00730013
0.0147781
0.00448488
0.031035
0.0131881
0.00407413
0.00290883
-0.00196152
0.00360078
-0.017648
0.0214832
0.0129178
0.00283931
0.00550763
0.0152617
0.00407498
0.00632251
0.00051889
0.00953177
0.0294356
0.00456117
0.0135915
0.00792674
0.010038
0.00617554
0.0130624
0.01402
-0.000745689
-0.00939362
0.015783
0.0141346
-0.0266276
0.00964962
0.00708857
0.000142832
0.00551815
0.0152244
0.0109356
0.0146929
0.000598342
0.00214618
0.015916
0.0142228
0.00460656
0.0104642
0.0146181
-0.00499644
0.00860185
0.00831613
0.0318301
0.0142561
-0.0480955
0.0110405
-0.26322
0.00031695
0.0139536
0.0092045
0.0105305
0.0111747
0.014412
0.0154102
0.014816
0.011527
0.0171946
0.00501753
-0.0807463
0.00693761
-0.0189825
0.0144242
0.0069362
0.00544171
0.0111551
0.0105851
0.00622452
-0.00556133
0.00459225
0.006731
0.00531797
-0.000305787
0.00977133
0.0148878
0.0150773
0.00672916
0.0176415
0.0141771
0.0123378
0.0098169
0.00423867
0.00979096
-0.0373769
0.0195868
0.0132368
0.0116786
0.012253
0.0177672
0.0128405
0.0829531
0.00146043
0.00946372
0.0111373
0.00248762
-0.136324
0.00513493
0.0220837
0.0153464
0.0143151
0.0149685
0.00932533
0.01482
0.0111253
0.00552221
0.00501068
0.0124341
0.0194997
0.0124642
-0.0435875
-0.0643618
-0.0288784
0.00387397
0.0103564
-0.0344636
0.0240188
0.00474436
0.00427044
-0.00119917
0.0676687
0.000202625
-0.00761399
0.0154973
0.0050826
0.00702245
0.00557606
0.0140951
0.0267626
0.0172155
0.00531113
0.00421539
0.0155113
-0.0250211
0.0125281
0.0100757
0.0119857
0.000600833
0.0247424
0.00423985
0.0169214
0.016251
0.0147936
0.0143676
0.0124102
-0.0107363
0.00868077
-4.49963e-05
0.0324303
0.0147779
0.0104442
0.0125334
0.00355222
0.0157861
0.010157
0.0151117
0.10549
-0.296561
0.0100866
0.0133671
0.072306
0.00328871
0.0150995
0.0146657
-0.00558499
0.0225212
0.0033776
0.00344559
0.00500431
0.102589
0.0037851
0.00395833
0.0170978
0.00373064
0.00616448
0.0130306
0.000203035
0.000796414
0.010717
0.0154436
0.0105942
0.0234657
0.0149337
0.000188714
0.00679736
0.0140275
0.0148782
0.00716856
0.0119108
0.00352909
-0.00839909
0.00323675
0.0126095
0.00297788
0.00333379
0.00570718
-0.0302164
-0.0142058
0.0147286
0.0208356
0.0157788
0.0133209
0.0106055
0.00342585
0.0102592
0.00879695
0.0050383
-0.181745
0.00263992
0.0150803
-0.0162917
0.0202649
0.00957069
0.0187297
0.00331492
0.0651677
-0.0091876
0.0037457
0.00321976
0.0130529
-0.0138197
0.0211385
0.00874478
0.00299228
0.00713953
0.01736
-0.0135796
0.0106827
0.00540559
0.00571015
0.0147995
-0.0083807
0.00583181
0.00470593
0.000199172
0.0151703
-0.0695853
0.00704011
0.0053925
0.0210455
0.00442645
0.0191468
0.00323345
0.0372519
0.0154182
0.00537198
0.00971591
-0.0122079
0.0152275
0.0144257
0.0157562
-0.255401
-0.0180634
0.0168917
-0.19309
0.00864799
-0.00779514
0.00433509
0.0145607
0.015861
0.0101814
0.0106086
-0.00733757
0.0034862
0.00542909
0.00962146
0.00401137
0.015443
0.0165783
0.00480922
0.00590812
0.0191696
0.00374732
-0.0210734
0.00823935
0.00929424
0.00075199
0.0169455
0.00929949
0.0118795
0.00257053
0.013142
0.0157631
0.00656518
0.0242745
0.00749478
0.0190117
0.0102696
0.00988941
0.004759
0.00557795
0.0153752
0.0222439
0.00458283
-0.00857574
0.0501219
0.000130618
0.0170093
0.0143578
-0.0487583
0.0138674
0.0163651
-0.0191145
0.00649564
0.0151804
0.0108352
0.0142928
0.00995324
0.015179
0.00868514
0.00476782
0.00892867
-0.144422
0.0024311
-0.432611
-0.00179071
0.00949966
0.00950214
0.0298571
0.00026406
-0.00252271
0.0170328
0.0107926
0.0148228
0.00783815
0.0122927
0.00994792
0.00963734
0.0149874
0.0127463
0.0086352
0.0102192
0.0185746
0.0145786
0.0231719
0.0148373
0.0124422
0.018584
0.00337478
0.0196737
-0.0105268
0.0151132
0.00976351
-0.380184
0.00772887
0.00639886
0.00721534
-0.0263419
0.00550308
0.00024886
0.00942395
0.016392
0.014904
0.00313375
-0.00449035
0.00827512
0.0149815
0.00742724
0.0157697
0.0150939
0.00958671
0.0130995
0.00940839
0.00485565
-0.122126
0.00671242
0.0090102
-0.000147183
-0.00288352
-0.0579601
0.0185987
0.0166144
0.00289629
0.0204058
-0.118944
0.0126141
0.00864642
-0.0390513
0.00486749
0.0147135
0.0082684
0.0995084
-0.163884
0.00499934
0.0162841
0.0151753
0.00511707
-0.0201592
0.010262
0.0143137
0.0147822
0.010141
0.00435189
0.013669
-0.0477633
0.105518
0.0151099
-0.0054511
0.0150418
0.00971024
0.0146653
-0.0874585
0.0114198
0.0134454
0.0126829
0.0059126
0.012684
0.00977725
-0.00379311
0.0352501
0.00986245
0.015055
-0.0137652
0.0150547
-0.0198469
0.000622999
-0.00658189
0.0696732
0.0149671
0.00394889
0.0131789
0.0048621
0.0145234
0.00674645
0.0196272
0.0288412
0.0125447
0.00275051
0.00998273
0.00963136
0.00914665
0.00581515
0.0156428
0.0143784
0.0131297
-0.0445805
-0.0312686
0.0262977
0.0110598
0.00393707
0.00852373
0.00886402
0.0105204
0.0102477
0.0183251
0.0510401
0.00497911
0.0132231
0.0128161
-0.303467
0.0151974
0.0252204
0.00883883
0.00568916
0.00158195
0.0135596
0.010972
0.0127746
0.0184887
0.00298606
0.00980666
0.00631059
0.0138315
0.0135887
0.00625593
0.051169
0.01767
0.00192603
0.0131733
0.0146465
0.00852815
0.0143791
-0.00647904
0.0262266
0.0181758
0.00807756
0.0153802
0.00702618
0.00985632
0.00808291
-0.0606847
0.00520736
-0.0588084
0.0145049
0.0149531
-0.0457814
-0.0111775
0.015291
0.0152063
0.0228562
-0.0483234
0.0113618
0.00507683
-0.024084
0.0149684
0.0116134
0.0136553
0.0509923
0.00508984
0.0134433
0.0154188
0.00527683
0.0128129
0.0883394
0.016491
0.0126995
0.00842544
0.0302867
0.0146719
0.0216079
0.004961
0.00634229
0.0139551
0.0103307
0.00843541
-0.274316
0.0102515
0.00925225
0.0510111
0.0059566
0.00863523
0.00500101
0.0149444
0.0303055
0.00482507
0.0214669
-0.248615
-0.0939573
0.0422135
0.0087518
0.014994
0.0167154
0.00672903
-0.00678246
0.00815584
0.0113124
0.0872638
0.00918195
0.0178328
0.0296662
0.0147689
0.0137169
0.0147475
0.00870437
0.00341663
0.0139104
0.0287553
0.0157565
-0.00282422
0.0042555
0.0150311
0.0116304
0.00444212
0.0196275
0.0148044
0.00797687
0.0921108
0.0048521
-0.0691746
0.00933919
0.00857455
0.0126348
0.00468062
0.00612461
0.00431252
-0.0054771
0.00817961
0.00512211
0.0118453
0.0130724
-0.0660657
0.00613423
0.0149314
-0.00931037
0.0123562
0.00437622
0.0148702
0.00893515
0.018585
0.0114305
0.014595
0.014407
0.00825057
0.0130757
0.0139036
0.00631339
0.0148926
0.099938
0.00631881
0.00973761
0.0104179
0.00276543
0.00483353
0.0269571
0.0226772
-0.00406148
-0.0081516
0.0127416
-0.144334
0.0114827
0.00856501
0.0085448
0.0065835
-0.00919396
-0.00824981
0.00629984
0.00412549
0.00474412
0.0164595
0.0113904
0.0116556
0.0381223
0.0001374
0.0149353
0.008153
0.00300787
0.0136421
0.0147557
0.0151074
0.0152216
0.0129088
0.0123138
0.0150325
0.00785302
-0.020527
0.00905053
0.012502
0.0165375
0.00797701
0.00973318
0.00251751
0.0109887
-0.0402283
0.0136204
0.00861685
-0.0371967
0.0151369
0.00279518
0.00961082
-0.0146006
-0.00865917
0.00966878
0.0094948
-0.148967
0.0962422
0.00421015
0.012941
1.1712e-05
0.0448717
0.000379402
0.0128535
0.014779
0.0135877
0.0170571
0.00997895
0.00504391
0.0069014
0.0115952
-0.0508517
-0.367909
0.0153404
-0.00793258
0.00937149
0.00988846
0.0152082
0.0156788
-0.00125758
0.0125439
0.0148308
0.000924475
0.031922
-0.000638196
0.0103406
0.0143893
0.00750808
0.0145235
0.00170045
0.00401856
0.0155148
0.0013404
0.065257
0.0150948
0.0179332
0.0117122
0.0152438
0.0257645
0.0199325
0.0148763
-0.0541033
-0.0119651
-0.118509
0.0151291
0.00339564
-0.0350738
0.014816
0.00496884
0.00393451
0.00997805
0.0146998
0.0147687
0.00952914
0.0118358
0.0172074
0.0164299
0.0130441
0.00223542
-0.00591923
0.018528
0.00272557
0.0129349
-0.00870296
0.0152793
0.0732969
0.0169973
-0.00533523
0.0285997
-0.0161331
0.0122839
0.00581398
0.0119479
0.0162135
0.00532901
0.0127275
0.0110358
0.00089207
0.0256454
0.0102666
0.0143995
0.00416452
0.0155574
0.0137642
0.0140976
0.0144516
0.0146051
-0.000824849
0.000540445
0.00379862
0.0158451
0.0275407
0.0129765
0.0123942
0.0056757
0.014599
0.0126468
0.00289611
0.00850568
0.000381156
0.0123507
0.00234536
0.0147366
-0.00124341
0.00839728
0.0108242
0.00389912
0.000269041
0.00421376
0.0115351
0.00946949
0.00173237
0.0157628
0.00737358
0.00235884
-0.00828535
0.0124578
0.0135122
0.0149762
0.00897276
0.0209072
0.0073797
-0.0352952
0.00306593
0.0161393
0.00822326
0.00442504
0.0158083
0.0100338
0.0167623
0.0169207
0.0127023
0.0145975
0.018075
0.00223728
0.0134244
0.00955207
0.00295905
0.0119927
0.0153541
-0.150183
0.0142048
0.00414587
0.0143869
0.00819852
0.00455321
0.0199432
0.0108459
0.00823333
0.0142787
0.00387617
0.0139771
0.0146827
0.0138383
0.00882993
0.0181085
0.0132519
-0.000975415
0.00378969
0.0118918
0.0142424
0.00359088
0.0135161
0.014736
0.0168128
0.00567007
0.00847244
0.0144608
0.0066445
0.0108281
0.00451214
0.0155269
0.00875896
-0.0180407
-0.0629192
0.0212577
0.00827165
0.0235476
0.00359512
0.0241615
0.0147848
0.0089553
0.00510474
0.00745899
0.00536542
0.000210232
0.0069425
0.0146004
0.0125166
0.0164863
-0.000997278
-0.000866392
-0.0451931
0.00683548
0.00895058
-0.345249
0.0125418
0.00439483
0.00667243
0.089509
0.00851724
-0.0310432
0.0332302
0.0084226
0.0145257
-0.3345
0.0102797
0.00237507
0.00516961
0.00830526
0.0147614
0.00888047
0.00217254
0.00996181
0.0111228
0.0151617
0.0102121
0.00937948
0.0728785
0.0132145
0.00306626
0.0100773
0.0142509
0.00481522
-0.0704031
0.0138545
0.0109143
0.00831098
0.00960608
0.0176925
0.0138772
0.0134421
0.0124745
0.00962464
0.00938768
0.0152464
0.0145998
0.00920238
0.0128439
0.012415
0.0082129
0.00566224
0.0296516
0.0177464
0.0620805
0.0133639
0.0092563
0.0044754
0.00566149
0.00493685
0.0235776
-0.00501987
0.0138503
0.00471951
0.0140824
0.00896787
0.0148877
0.00928475
0.0141626
0.00386162
0.00565238
0.00555819
-0.00233429
0.00478346
0.014526
0.015122
0.0146934
-0.0658075
0.0127582
0.00933683
0.00543768
0.0148322
0.00545132
0.0870661
0.00487172
0.0142253
-0.00402186
0.00541315
0.0103037
0.0113141
0.0139061
0.00459974
-0.00385804
0.00833057
-0.0321194
0.0143439
0.00552879
-0.0477005
-0.0249744
-0.0289743
0.00714022
-0.0269995
0.0271898
-0.0285761
0.00398503
0.00939546
0.00512575
-0.076709
0.0036265
0.00153459
-0.0394765
0.00182908
0.0107261
-0.126117
0.00887626
-0.020489
0.00695145
0.0144688
-0.00537837
0.01432
-0.0592772
0.00927325
0.00625485
0.0143103
0.0149594
0.00111229
0.0149456
0.0150885
0.0538255
0.0146811
0.0109526
0.0182198
-0.0914119
0.0137525
-0.00497026
0.00449818
0.0106421
0.0206707
-0.0458479
0.0144081
0.0199582
0.0763264
0.0166018
0.00466748
0.00670319
0.00496977
0.00479036
-0.00139321
0.0153378
0.00765263
0.0025551
0.00904931
0.00601007
0.0116226
0.0138579
-0.000589643
0.08902
-8.66015e-05
0.00925163
0.0145515
0.0168876
0.0129088
0.00145567
0.0145858
-0.0469411
0.00977503
0.00719972
0.0155088
-0.00397646
0.0145085
0.00881119
0.0690228
0.00688907
0.00808078
0.0120222
0.0137487
0.019992
0.00935527
0.014
-0.0622965
0.00563075
0.0138104
0.00872376
-0.0372508
0.00489775
0.0132892
0.0090131
0.0165765
0.0146595
0.0137955
-0.023198
0.0275934
-0.0246516
0.00816202
0.0333715
-0.00112835
0.0129367
0.000483838
0.0104033
-0.028457
-0.035991
0.0105485
-0.0440183
0.0820431
0.00844012
0.00468904
0.0182283
0.0136888
-0.00725944
0.0125726
0.00746693
-0.0245284
0.0098993
0.013443
0.014194
-0.0489882
-0.048101
0.00791852
0.00304061
0.0172596
0.0120369
0.0356125
0.00862944
0.0225112
0.0149075
0.0128409
0.0169074
0.0150711
0.00442778
0.0033358
0.0213665
-0.00419452
0.00840098
0.0117765
0.0531215
0.0154673
0.01286
0.0146583
0.0536338
0.0154857
0.0144989
0.00307919
0.00802765
0.00464751
0.0130675
0.011061
0.0131602
0.0132001
0.0115427
-0.00488871
0.0133873
0.0148882
0.0147389
0.00982807
0.013857
0.0143265
0.0114363
0.00587046
0.0134714
0.0154856
-0.0727534
0.0145437
-0.0147317
0.014665
-0.0137379
0.000180998
0.0104463
-0.0591363
0.0168733
0.00837753
0.0139903
0.00292358
-0.423268
0.0187135
0.00531687
0.0105896
0.0146104
-0.0135214
-0.0695935
0.0294656
0.018939
-0.0178038
0.0164308
0.0125285
0.00475827
-0.125416
0.00975727
0.0330426
0.0067793
-0.0343212
0.0297718
0.0122506
0.00940893
0.00504816
-0.00584534
-0.0185038
0.00388197
-0.0313846
0.00248061
0.0257399
0.011772
0.00935614
0.0141725
0.00162367
-0.136303
0.0145948
0.0187248
0.0117092
0.00893021
0.0102302
0.00527762
0.0149193
0.0145504
0.00391109
0.0390737
-0.00601554
0.0147998
-0.103751
0.0167273
0.0128556
0.00209502
0.00754288
0.0107633
0.0126406
-0.00139646
0.00571156
0.0151379
0.00895728
0.0147053
0.00249528
0.00342509
0.0129463
0.0149401
0.00486377
0.0123279
-0.0688979
0.014608
0.00480247
0.0132643
0.0125474
-0.0574703
0.0143626
0.0196717
0.017252
-0.000548001
-0.0261684
0.00928111
0.0128711
0.0167125
-0.0298982
0.0157171
0.00464898
0.0156446
0.00702332
0.0200861
-0.0316445
0.00207743
0.0150814
0.0149611
0.0100019
0.00828776
0.0126899
0.0306163
0.0057941
0.0145486
0.00643913
0.0146228
0.0146022
0.00544088
0.00350977
0.00514925
0.0142891
0.00340379
0.0901644
0.0172233
-0.00333939
0.0146016
0.00715969
0.0046993
-0.00685912
0.0127984
-0.0366388
0.0150686
0.00994263
0.0164511
0.0949117
0.0130039
0.0172132
0.0148494
0.00964134
0.000263621
0.00960461
0.0106896
0.0122569
0.0135928
0.00766575
0.00767381
0.0165169
0.0148873
0.0155935
0.00978062
0.0136636
0.0127825
0.00458823
0.0169715
0.00888603
0.00451063
0.0152537
0.0148867
0.0627069
2.57328e-05
-0.000373499
0.00812782
0.0136357
-0.0579229
-0.00290047
0.0024194
0.00794931
0.0115073
0.014788
0.0113391
0.00543939
0.0145463
0.0148144
0.0144417
-0.00753642
0.0149202
0.0181245
0.00898961
0.0144719
0.00139011
0.0138574
-0.0842029
0.00998382
0.00623838
0.0020675
0.0112974
0.0136483
0.0055619
0.0174807
0.0123871
0.00852934
-0.0875379
0.00843274
0.0148624
0.00802859
0.00399104
-0.410775
0.045304
0.025412
-0.0183791
0.0153393
0.027369
0.0133357
0.0129957
-0.0702968
0.000404853
0.0221788
0.0100356
0.00525492
0.00958126
0.0147089
0.00598751
0.0163329
0.00947448
0.0149285
0.0116347
0.013976
0.0166384
0.0416694
0.00418136
-0.00288801
0.0081803
0.0123932
0.0041669
0.0152575
0.0180128
0.0113946
0.0109174
0.0290263
0.0146102
0.00882356
0.00909207
0.0038235
0.0118834
0.0105055
0.0135094
0.00794233
0.0136843
0.00384962
0.00828079
0.0134997
0.00741461
0.0114188
0.0149728
0.0259301
-0.0463035
-0.0895021
0.0532303
0.0147001
-0.0178471
0.0145694
0.0154967
0.0187766
0.0155747
0.0063426
0.0109444
0.00425344
0.0116786
0.0152623
0.0143108
0.00942377
0.0144002
0.0155929
-0.000916999
0.0931858
0.00772938
0.0125542
0.0137399
0.0137045
0.0113064
0.014987
0.00179881
0.0040134
-0.114431
0.0153922
-0.0372066
0.0145632
0.00228527
-0.00623682
0.00175089
0.0103961
0.0151895
0.0155047
0.0169483
0.0176035
0.017102
0.00968961
0.00479195
0.0207261
0.0285184
0.0173842
0.0100886
0.0116379
0.0216967
0.0158326
0.0124899
0.0193461
0.00390704
-0.0324868
0.0619945
0.0147104
0.00450226
0.0199866
0.0109236
-0.012265
0.0111518
0.017516
0.0261423
0.0598576
0.00534296
-0.300573
0.00460235
0.015447
0.0182756
0.0171525
0.00486978
0.0103463
0.0322159
0.0268154
0.0154976
0.0130071
0.029634
-0.0202287
0.00206622
0.00980425
0.00196771
0.0145117
0.0115177
0.0047224
0.0148569
-0.0111097
0.00640432
0.0114778
0.0139228
-0.0209252
0.00219373
-0.166228
-0.42016
0.0108762
0.0167003
0.0119543
0.0153339
0.00408551
0.0265747
0.00422742
0.00212705
0.0149744
-0.386079
0.0120966
0.00963689
0.0101679
0.0131122
0.00781569
-0.0870932
0.00450371
0.000695615
-0.00797653
0.0159686
0.019785
0.015334
0.00543625
0.0159212
0.00881141
0.00458352
0.0153363
-0.0399102
0.0136708
0.00530126
0.0133461
-0.343045
0.00827102
0.0128268
0.0183441
0.00708404
0.00757669
0.0133078
0.0147197
0.00711619
0.0146299
-0.0319095
0.0163635
-0.0256624
0.0135173
0.0128793
0.0163907
0.0150309
0.0108326
-0.0185199
0.0122095
0.00834382
0.0123415
0.00309582
0.0129943
0.00950194
0.0171738
0.0136022
0.0058259
0.014271
0.0140836
0.00416707
0.00699564
-0.0347338
0.0161712
0.0278298
0.0196417
-0.00160521
-0.0538233
-0.000531363
0.0214787
0.00828511
0.0159089
0.0166575
0.000351896
0.00415644
0.0385186
0.00227598
0.0146438
0.0142457
0.0131594
0.00208402
0.0183611
0.0143442
0.0146304
0.0814849
0.0714168
0.0317662
-0.0112188
0.0120551
0.0679084
-1.25885e-05
0.0144052
0.0152913
0.0152246
0.00360647
0.0150384
0.00153656
-0.0209764
-0.0138662
0.0030247
0.0109829
0.0222211
0.00203421
0.0134018
0.0533951
0.0307183
-0.00763388
-0.046431
0.0126052
0.010408
0.0121085
0.00263197
0.0114758
0.0187363
0.01716
0.0131589
0.0294701
0.0115236
-0.0240561
0.00349565
0.0117572
0.00981806
0.0144362
0.0750582
0.0144791
0.00966672
0.0119252
0.014069
0.0839914
0.013019
0.00948992
0.0732368
0.0109689
0.00410793
-0.00307866
0.105042
-0.00854278
0.0169786
0.0147678
0.0224649
0.00312439
0.0148091
0.0146212
0.0798923
0.0110146
0.0143224
0.0208071
-0.129242
-0.0115732
-0.0486025
0.0184206
0.0108764
0.0133107
0.00675658
0.00225482
-0.0201416
0.0125434
-0.0243584
-0.0680642
0.00114486
0.0170757
-0.23567
0.0150719
0.00647769
0.0146352
0.0151758
0.00415973
0.0151841
0.00929707
-0.0517728
0.0217712
0.00424831
0.0177334
0.00805672
0.0155191
-0.0526135
0.0088543
0.0156912
0.0214046
-0.008262
0.00364714
0.00428863
0.064389
-0.0131589
0.0157204
0.0527505
0.0298657
0.0157517
0.00908469
0.000267284
-1.28154e-05
0.00284362
0.0146221
0.0140526
0.0256568
0.0150858
-0.0115093
0.00419309
0.00301415
-0.0604663
0.0137819
0.0122844
0.0144707
0.0119537
0.0256363
0.0179012
0.0156147
0.0264062
0.0896719
0.00840037
0.0145297
0.00176084
0.0173068
0.0994659
-0.246807