/*--------------------------------*- C++ -*----------------------------------*\
| =========                 |                                                 |
| \\      /  F ield         | OpenFOAM: The Open Source CFD Toolbox           |
|  \\    /   O peration     | Version:  v2012                                 |
|   \\  /    A nd           | Website:  www.openfoam.com                      |
|    \\/     M anipulation  |                                                 |
\*---------------------------------------------------------------------------*/
FoamFile
{
    version     2.0;
    format      ascii;
    class       volScalarField;
    location    "150";
    object      k_0;
}
// * * * * * * * * * * * * * * * * * * * * * * * * * * * * * * * * * * * * * //

dimensions      [0 2 -2 0 0 0 0];


internalField   nonuniform List<scalar> 
18598
(
0.00151957
0.0011552
7.13132e-05
0.000110722
7.15318e-05
9.75721e-05
0.0360066
6.68651e-05
6.45593e-05
6.93212e-05
4.51284e-05
5.54031e-05
8.42083e-05
0.0413134
0.000371299
5.52841e-05
8.14727e-05
0.00675902
0.00685118
0.00433725
0.00691173
5.87761e-05
0.00012464
5.72114e-05
7.37279e-05
0.00677224
5.33538e-05
0.0433937
8.2484e-05
4.87172e-05
0.0015662
6.43181e-05
0.00129115
4.50525e-05
0.00591523
5.16143e-05
8.48065e-05
7.36234e-05
9.53789e-05
0.000191168
0.0439416
5.38962e-05
7.00594e-05
9.42234e-05
5.15215e-05
0.0432971
5.62075e-05
0.00019309
8.99404e-05
7.69793e-05
0.00016063
7.70031e-05
6.47977e-05
9.20155e-05
8.93508e-05
5.15455e-05
0.00793528
0.0334104
0.0414851
0.00571482
7.9715e-05
6.65648e-05
6.47248e-05
0.000487186
8.98885e-05
7.03704e-05
8.84281e-05
7.03786e-05
6.70401e-05
0.000459657
7.78786e-05
7.6597e-05
9.0344e-05
8.26641e-05
6.78301e-05
5.76679e-05
7.95864e-05
6.53568e-05
6.56696e-05
9.12645e-05
7.68769e-05
7.68915e-05
5.8722e-05
6.79372e-05
8.77994e-05
9.01989e-05
5.5731e-05
0.00657296
0.0129553
0.0540109
8.45993e-05
7.37734e-05
7.99148e-05
8.51437e-05
7.70108e-05
8.93028e-05
8.97755e-05
0.0004098
6.89425e-05
8.52999e-05
0.00793885
0.00803456
9.13151e-05
0.00659723
0.0370273
9.52656e-05
0.000166897
0.000180265
4.44893e-05
0.0525377
5.48727e-05
7.68998e-05
0.00012514
8.99663e-05
6.41936e-05
0.00695825
9.04751e-05
6.5686e-05
5.46828e-05
7.17815e-05
0.00668985
4.26255e-05
0.0063505
6.99377e-05
7.69594e-05
0.0350366
0.0117221
7.15764e-05
5.37352e-05
0.051068
4.19899e-05
0.0393387
8.86314e-05
9.36536e-05
9.40879e-05
9.55053e-05
5.32119e-05
4.77363e-05
4.7663e-05
0.0414483
9.053e-05
4.87739e-05
8.11987e-05
0.0422726
0.000124321
5.30387e-05
0.0362405
6.48815e-05
0.00613559
4.87051e-05
6.39842e-05
0.00728504
5.39221e-05
0.0220435
6.27225e-05
8.48756e-05
5.38877e-05
5.321e-05
7.86842e-05
7.27573e-05
9.48792e-05
0.000409079
0.000162815
8.55276e-05
0.0255124
0.00195398
0.000144401
8.72972e-05
5.96028e-05
8.2216e-05
0.000101711
8.83443e-05
0.00013303
0.000149153
0.000167135
0.000296285
8.16467e-05
0.000190226
7.13705e-05
7.09898e-05
0.0570041
4.49641e-05
8.58839e-05
0.0479002
8.87246e-05
7.38937e-05
0.0415304
6.88428e-05
0.000112359
0.00208275
0.000125325
9.07796e-05
7.20503e-05
0.00788382
8.24015e-05
0.000141983
5.85035e-05
6.87962e-05
4.87904e-05
0.025358
0.000112856
9.17641e-05
5.63258e-05
8.32612e-05
0.000172883
8.69261e-05
5.86163e-05
8.41841e-05
5.61768e-05
0.0115127
8.6792e-05
4.49324e-05
7.35237e-05
0.000129463
0.0129379
9.39995e-05
0.00588568
0.000116902
0.000121259
5.34004e-05
0.000127681
0.000159377
0.0537589
5.83489e-05
7.36424e-05
6.82885e-05
8.95113e-05
0.0551717
8.56276e-05
4.87681e-05
0.00011742
0.0181937
7.85556e-05
6.92307e-05
4.87909e-05
8.90741e-05
5.30297e-05
0.000113655
4.49304e-05
8.29576e-05
7.01052e-05
8.8521e-05
0.00011222
8.61649e-05
7.2531e-05
8.8268e-05
8.19682e-05
7.74997e-05
7.26791e-05
4.42397e-05
0.0335537
6.38853e-05
0.0219967
0.000107384
7.97844e-05
7.72973e-05
7.14781e-05
0.000108463
6.38654e-05
0.0500286
4.47231e-05
6.22545e-05
0.000110682
6.38112e-05
7.13082e-05
0.00204182
4.76635e-05
6.96863e-05
5.12913e-05
0.001938
4.76603e-05
7.78211e-05
0.0474226
4.7689e-05
9.12582e-05
0.0378051
6.85899e-05
0.00634301
0.000225032
0.000288353
0.000171218
0.00990008
6.44381e-05
8.57714e-05
0.0113855
0.000439069
0.000230497
8.86552e-05
0.0118771
0.0213841
5.07271e-05
0.001095
4.52299e-05
7.54082e-05
0.0499343
9.02355e-05
0.000112098
7.55902e-05
4.41934e-05
0.00637529
6.87073e-05
7.14012e-05
0.0133737
8.88133e-05
5.10596e-05
0.000113499
7.74711e-05
6.60132e-05
6.29866e-05
5.09524e-05
7.73705e-05
7.18952e-05
0.000234385
4.46787e-05
7.33064e-05
0.0117044
8.39568e-05
6.01304e-05
0.00563474
7.17188e-05
6.81835e-05
6.91611e-05
4.43578e-05
7.25761e-05
0.00447267
0.0069255
9.35128e-05
8.53657e-05
7.32674e-05
0.00625433
4.4442e-05
0.0550089
6.36589e-05
0.0363774
5.71329e-05
0.0467435
8.56637e-05
8.13884e-05
0.00482248
5.08295e-05
9.53868e-05
4.42984e-05
0.021286
6.33502e-05
5.4171e-05
6.22716e-05
8.45454e-05
0.00563372
0.0217392
0.0474312
8.56342e-05
0.000134483
7.73507e-05
0.0461202
0.0411464
8.96318e-05
0.0408741
0.00641987
0.000195553
8.18334e-05
8.94404e-05
0.00189437
5.41799e-05
8.98813e-05
0.0449727
8.2057e-05
0.0367805
7.06667e-05
0.0372294
7.2169e-05
8.87011e-05
8.04159e-05
6.97479e-05
8.94265e-05
0.0416528
7.05441e-05
8.06536e-05
7.10066e-05
7.75016e-05
9.00047e-05
5.74957e-05
0.000119759
0.000185434
8.79355e-05
9.37597e-05
0.000164477
6.50762e-05
8.01244e-05
8.617e-05
8.15847e-05
7.04691e-05
0.0530232
8.15669e-05
9.10374e-05
0.000136091
8.8431e-05
4.7689e-05
0.00572912
0.000260465
5.11806e-05
8.71654e-05
5.03319e-05
4.8874e-05
8.16224e-05
6.79302e-05
0.0043196
5.01766e-05
0.0287092
8.42741e-05
0.0249972
6.92419e-05
7.89906e-05
0.0531825
0.0343684
0.0215027
8.33978e-05
0.00111347
9.03133e-05
0.00669808
8.47046e-05
4.53886e-05
8.36759e-05
7.24671e-05
5.15878e-05
0.00885602
0.000902508
0.00779326
8.76347e-05
8.3793e-05
8.86524e-05
5.0837e-05
8.90768e-05
7.01383e-05
9.04491e-05
8.87153e-05
8.95983e-05
6.98118e-05
5.13758e-05
6.21978e-05
6.96407e-05
7.22184e-05
4.81316e-05
0.0160615
8.12446e-05
7.78682e-05
7.90638e-05
5.06753e-05
7.29362e-05
8.37739e-05
0.0371657
8.52877e-05
5.27445e-05
8.89156e-05
0.0371547
6.95134e-05
8.75329e-05
8.94423e-05
6.3666e-05
8.98687e-05
5.80327e-05
0.0353792
5.36384e-05
4.47751e-05
6.21138e-05
5.31298e-05
4.47031e-05
8.79925e-05
0.0463201
8.93445e-05
4.48597e-05
5.77224e-05
8.87791e-05
4.44416e-05
8.16728e-05
0.0151561
6.94281e-05
8.53845e-05
6.23405e-05
8.97218e-05
7.50409e-05
0.000117313
7.47181e-05
9.0889e-05
7.08461e-05
4.65491e-05
0.000963375
0.000121484
4.59145e-05
8.12193e-05
0.0119336
0.00814051
0.0540088
0.000112775
4.76614e-05
0.0526359
0.0163853
4.77114e-05
9.5142e-05
0.000144447
0.000117619
0.0352548
0.000455855
6.53555e-05
0.045947
8.6357e-05
6.58968e-05
4.8705e-05
5.69904e-05
0.014627
9.23796e-05
0.0040253
8.15078e-05
8.51191e-05
0.0534353
0.0063719
0.000369277
0.0337563
0.00222821
4.48818e-05
4.5522e-05
0.0209555
9.41487e-05
0.0208052
5.39863e-05
9.18542e-05
7.35801e-05
0.000101192
5.14575e-05
0.000114585
8.64969e-05
8.46484e-05
4.46348e-05
7.01753e-05
6.35397e-05
6.56893e-05
5.29145e-05
0.00615981
7.7639e-05
6.08069e-05
0.00616164
0.000131939
0.00557913
8.82866e-05
0.000130875
0.0218145
8.11202e-05
8.61867e-05
0.000100331
0.0335318
0.0568612
0.00013214
5.94163e-05
8.93521e-05
7.93333e-05
0.000125581
4.77852e-05
8.09897e-05
5.82205e-05
4.47308e-05
4.48124e-05
4.4819e-05
0.0321076
0.0205752
9.47533e-05
0.0118063
0.0166789
8.84036e-05
0.000252941
8.80577e-05
4.838e-05
9.61631e-05
0.0418983
8.27157e-05
8.51377e-05
7.99386e-05
4.81828e-05
8.25243e-05
0.0474025
7.80828e-05
6.87803e-05
5.95096e-05
0.0525358
0.000100811
0.0552167
7.53393e-05
8.4901e-05
6.35814e-05
0.00671637
0.000569249
7.90823e-05
5.88917e-05
4.44897e-05
6.34778e-05
8.82797e-05
6.79628e-05
8.2015e-05
0.000133114
6.27677e-05
0.00718371
5.51902e-05
7.57374e-05
7.4971e-05
5.87853e-05
5.70749e-05
6.28268e-05
6.96802e-05
0.000105352
8.27765e-05
0.000122362
6.35351e-05
9.39422e-05
6.32572e-05
7.9774e-05
0.0213805
5.27212e-05
6.314e-05
5.50755e-05
0.0322094
7.4028e-05
8.97542e-05
6.30889e-05
8.55572e-05
0.0207309
6.09141e-05
0.0465369
4.47409e-05
0.0142565
0.0370332
9.41197e-05
5.96898e-05
8.12799e-05
7.23914e-05
7.53246e-05
7.5772e-05
8.83363e-05
0.00803446
7.50872e-05
9.0588e-05
9.47208e-05
8.09038e-05
7.5615e-05
8.8882e-05
5.73964e-05
0.00011985
0.00649039
6.59243e-05
8.12432e-05
0.000157758
7.75698e-05
7.69358e-05
8.51033e-05
7.83001e-05
0.00678313
6.85465e-05
0.0247706
0.000106143
0.000311233
6.34277e-05
5.34032e-05
6.9606e-05
8.82535e-05
4.85946e-05
0.00700891
8.0931e-05
7.20384e-05
8.62565e-05
6.91063e-05
0.0055424
9.03181e-05
9.4925e-05
5.94028e-05
5.34221e-05
4.86815e-05
0.000590185
0.00530656
8.87569e-05
5.41536e-05
0.000249133
5.26489e-05
0.0113609
8.06815e-05
0.0406049
8.46432e-05
0.00504957
0.035638
6.95745e-05
4.47087e-05
0.0408692
5.14694e-05
4.44796e-05
0.0522888
0.0550637
5.94256e-05
8.87468e-05
8.94981e-05
7.21822e-05
0.000121477
0.00776081
0.00490057
7.36155e-05
9.60211e-05
0.000106478
5.11755e-05
0.0300145
6.41611e-05
5.99769e-05
0.0443273
8.91875e-05
0.0561372
7.82754e-05
7.89942e-05
8.07253e-05
8.11155e-05
0.0337921
0.0173147
9.00824e-05
0.0324346
6.357e-05
5.88804e-05
8.8727e-05
9.61887e-05
8.87406e-05
0.00507697
0.0325108
9.10115e-05
7.41564e-05
7.30172e-05
0.0347831
9.48733e-05
0.00554645
0.00626382
7.8938e-05
8.93477e-05
0.0399514
0.0552724
5.58854e-05
0.00598791
9.4655e-05
5.43867e-05
8.35653e-05
8.93407e-05
5.58021e-05
0.000110373
8.8366e-05
5.43481e-05
7.19868e-05
0.00678932
0.00530572
0.0117965
0.0305421
9.14735e-05
8.60498e-05
4.86857e-05
0.0215282
0.00533713
9.4402e-05
7.10405e-05
6.29533e-05
0.000110908
0.00544717
7.0607e-05
8.33647e-05
0.000144443
7.60764e-05
0.0164548
5.23022e-05
0.011256
0.0224974
5.21088e-05
6.444e-05
7.90555e-05
8.59719e-05
7.84329e-05
6.47408e-05
5.77696e-05
5.98134e-05
0.00464147
4.81917e-05
5.79805e-05
4.96543e-05
5.17254e-05
0.0415155
7.43436e-05
5.27701e-05
8.50182e-05
6.30751e-05
0.0335395
8.72329e-05
0.0231582
4.52828e-05
8.89939e-05
0.0033738
6.87098e-05
9.09415e-05
7.27162e-05
8.85226e-05
8.49112e-05
5.97226e-05
8.88864e-05
0.000118069
7.52383e-05
4.77511e-05
6.27534e-05
8.41192e-05
8.46172e-05
0.000466381
7.42451e-05
7.81686e-05
5.76646e-05
5.07744e-05
7.88697e-05
7.67518e-05
8.92185e-05
8.86357e-05
0.0221781
7.24986e-05
8.88213e-05
0.0113524
0.0418772
0.052572
0.0103253
0.0400848
8.91284e-05
0.000110702
4.84971e-05
5.48786e-05
7.86395e-05
5.97143e-05
9.19847e-05
4.44235e-05
0.000809458
8.29872e-05
5.80396e-05
4.64065e-05
7.70532e-05
9.68672e-05
8.09994e-05
0.0356354
0.0299107
7.39058e-05
7.24285e-05
4.71686e-05
0.0356637
7.07523e-05
0.0459774
5.24887e-05
0.000156051
0.000160495
5.79242e-05
9.38882e-05
0.000674052
0.0211817
7.08867e-05
0.00576398
7.35799e-05
0.0395601
0.0401621
6.33478e-05
0.000294485
6.78127e-05
6.3369e-05
8.89192e-05
7.80177e-05
5.83337e-05
4.4378e-05
0.0348171
5.54779e-05
8.58846e-05
4.9461e-05
7.59573e-05
8.87998e-05
0.0462521
8.86564e-05
6.26009e-05
6.75529e-05
6.5068e-05
6.23238e-05
4.4424e-05
7.69493e-05
5.40226e-05
9.09398e-05
4.94528e-05
8.26894e-05
0.0353115
8.31292e-05
0.000352037
9.08885e-05
4.44032e-05
5.37948e-05
7.59641e-05
6.96821e-05
0.00813044
0.00822047
0.000116988
0.0531406
6.02469e-05
7.95823e-05
7.29703e-05
8.63643e-05
7.73717e-05
8.38058e-05
8.33444e-05
7.58446e-05
8.35363e-05
8.79789e-05
6.22478e-05
8.66487e-05
8.46471e-05
5.90695e-05
6.78805e-05
0.0540617
5.69546e-05
6.24729e-05
7.52685e-05
0.000108959
5.6845e-05
6.07572e-05
8.77208e-05
6.0553e-05
0.000207914
7.57645e-05
0.0506395
8.87532e-05
7.3744e-05
8.3655e-05
8.87377e-05
5.96535e-05
8.74702e-05
0.0170753
0.000299323
6.0473e-05
0.000419415
5.48682e-05
7.65857e-05
8.85728e-05
7.03429e-05
4.75323e-05
0.0416592
7.66835e-05
0.00959773
8.32586e-05
5.57301e-05
0.000102401
0.0108511
8.21278e-05
7.68872e-05
0.0413901
0.0157905
0.000132227
0.00647928
7.0792e-05
5.29509e-05
5.39849e-05
5.95163e-05
0.00191705
6.46573e-05
0.00652761
0.00404233
8.79656e-05
5.25464e-05
7.36998e-05
4.83282e-05
0.000209003
0.0515092
0.00916052
7.90919e-05
6.22173e-05
0.0413729
0.0357742
0.0369544
7.86064e-05
0.0277878
0.0401399
8.76168e-05
0.0254121
6.21126e-05
0.000117026
7.87967e-05
5.65191e-05
6.26323e-05
0.000163724
4.51527e-05
0.0340111
9.38652e-05
5.26375e-05
5.31696e-05
5.2053e-05
9.00645e-05
0.0162047
0.00676579
0.00731352
9.12684e-05
0.0207951
7.87553e-05
8.29997e-05
8.10032e-05
8.24125e-05
4.64593e-05
7.33466e-05
5.34057e-05
5.4894e-05
7.45755e-05
7.58544e-05
0.000311805
4.61802e-05
8.79978e-05
0.00778171
0.0396167
0.00376632
6.64473e-05
0.0537303
0.000117609
0.000124963
7.77003e-05
0.00755265
8.09461e-05
9.1362e-05
0.000134294
0.000336247
0.00228798
0.0298329
0.0493344
5.74727e-05
0.0534072
7.35712e-05
0.000133731
0.000117028
5.61175e-05
4.49338e-05
5.27525e-05
5.25927e-05
0.0341994
8.65935e-05
0.00244084
6.54433e-05
6.86337e-05
8.6771e-05
6.1828e-05
7.93398e-05
4.54606e-05
5.23359e-05
8.78959e-05
5.53478e-05
4.54198e-05
0.000196963
7.52909e-05
0.000101595
4.75246e-05
6.82571e-05
5.96906e-05
0.00783971
8.94203e-05
7.99575e-05
6.83815e-05
5.31086e-05
0.00283261
0.000143653
8.22483e-05
0.00015893
0.0341681
8.89434e-05
0.000107111
0.000287241
7.85935e-05
0.00027311
7.64781e-05
9.72012e-05
9.15285e-05
0.0110753
0.0410924
0.000109705
0.0524238
6.13402e-05
7.77003e-05
0.029049
7.37468e-05
0.0107618
0.0401109
0.000100226
8.15129e-05
7.22009e-05
6.92782e-05
0.050501
4.86064e-05
8.88339e-05
8.95849e-05
6.16379e-05
6.12679e-05
7.94038e-05
8.44328e-05
6.24316e-05
0.00510109
9.04283e-05
0.00606327
6.17422e-05
0.0162084
8.90966e-05
7.56963e-05
5.10924e-05
0.00770126
0.0477347
5.96489e-05
9.30321e-05
0.00771053
8.90446e-05
0.00731671
5.92741e-05
4.76909e-05
7.3618e-05
8.10075e-05
8.99107e-05
8.08989e-05
5.71594e-05
0.0514676
7.40586e-05
0.000177153
0.0154697
7.51593e-05
7.57085e-05
6.55671e-05
0.00651151
5.15029e-05
8.63089e-05
0.0520602
0.000113363
7.95983e-05
5.68623e-05
0.0367391
7.69831e-05
7.83718e-05
8.92307e-05
0.000207434
8.21757e-05
7.66063e-05
4.79154e-05
7.3276e-05
8.74449e-05
8.96622e-05
0.0118523
7.18021e-05
7.89615e-05
7.65631e-05
0.045967
0.00497139
5.72181e-05
6.46377e-05
0.000101555
4.77263e-05
8.74198e-05
5.30998e-05
6.41573e-05
0.00416621
7.02064e-05
4.82915e-05
5.95971e-05
8.48846e-05
5.09446e-05
6.45227e-05
6.41836e-05
5.94987e-05
4.79959e-05
0.00692995
0.00490103
8.00107e-05
7.9522e-05
8.22327e-05
0.0078313
0.000101279
4.81072e-05
7.97243e-05
0.000140603
0.000134895
0.00641579
5.28296e-05
9.44266e-05
0.000121733
0.0126324
5.42754e-05
0.0078186
6.86374e-05
7.31352e-05
4.78045e-05
8.42279e-05
0.000118926
7.25246e-05
0.000100579
0.00014204
7.01338e-05
6.93547e-05
8.7265e-05
5.29445e-05
0.0510161
6.54848e-05
6.71345e-05
0.0182649
6.63215e-05
6.41202e-05
0.051754
5.66599e-05
8.44623e-05
5.27923e-05
6.12234e-05
0.000260417
7.40439e-05
6.28528e-05
5.67764e-05
0.000109897
7.69631e-05
0.0163234
0.00201269
0.00017872
6.81958e-05
7.81095e-05
8.49652e-05
8.9265e-05
0.0518947
0.0468995
0.0205312
8.18379e-05
0.000103193
8.39208e-05
6.4233e-05
0.00667493
8.54755e-05
8.14747e-05
7.06141e-05
9.42524e-05
7.00225e-05
8.54704e-05
7.95956e-05
8.03662e-05
0.0106535
5.10852e-05
8.35948e-05
0.0335936
7.39037e-05
7.43086e-05
6.25745e-05
5.35757e-05
0.0512662
4.83001e-05
8.76373e-05
7.00731e-05
8.57294e-05
8.43533e-05
8.04899e-05
0.000104656
0.0545371
5.33647e-05
6.15989e-05
0.000120339
0.000221292
8.72074e-05
0.0544287
0.0152894
0.0483428
5.98617e-05
7.2224e-05
7.5443e-05
0.013987
8.66491e-05
7.71976e-05
6.67617e-05
9.02599e-05
0.0330996
7.86565e-05
7.9962e-05
0.000101222
0.00109909
7.30008e-05
4.62312e-05
0.0545634
6.45238e-05
0.0210974
8.24327e-05
5.06699e-05
6.87132e-05
5.85656e-05
6.30905e-05
7.86719e-05
8.6584e-05
5.4525e-05
7.00284e-05
7.35308e-05
0.0128048
8.2902e-05
0.0112055
0.0387509
0.0112946
5.74007e-05
0.00615361
9.46541e-05
0.00545982
0.0296561
6.75146e-05
9.07111e-05
0.000100978
8.26103e-05
0.0388965
0.000132322
8.5636e-05
4.52136e-05
7.87596e-05
9.03357e-05
0.000127693
0.000119813
0.00012908
7.36447e-05
0.0448294
6.23132e-05
7.55698e-05
0.000100712
0.00010592
7.75008e-05
8.71662e-05
6.18503e-05
0.000238144
0.014699
7.70107e-05
8.26737e-05
0.0131768
7.24253e-05
7.5334e-05
4.89976e-05
0.000108671
7.05574e-05
9.74709e-05
4.62909e-05
0.000664565
6.19437e-05
8.39539e-05
7.85686e-05
0.00431277
0.000132105
4.89386e-05
6.94865e-05
0.000147693
0.000101261
6.78494e-05
7.83455e-05
6.10702e-05
0.000113017
5.03077e-05
7.73156e-05
5.5061e-05
0.000124894
7.57109e-05
0.00516571
8.94478e-05
6.02926e-05
8.41437e-05
8.27839e-05
7.17769e-05
0.00433405
0.00590716
0.0399611
0.0102745
5.24893e-05
0.000158019
0.0121612
5.16758e-05
9.73764e-05
5.52125e-05
6.09061e-05
7.04516e-05
0.00010603
0.000134668
6.17317e-05
0.000105282
7.61476e-05
0.0297507
7.66882e-05
4.96529e-05
0.0427564
9.65066e-05
8.33074e-05
8.47103e-05
0.00268698
6.52128e-05
9.79645e-05
8.34274e-05
7.32155e-05
4.76178e-05
5.00803e-05
8.99393e-05
0.0343943
8.96179e-05
0.0425464
6.74445e-05
0.000108655
5.71991e-05
4.60839e-05
0.000529581
0.00516904
9.17627e-05
0.000140568
0.00175487
7.96415e-05
0.000287779
7.52528e-05
6.18552e-05
0.00515816
5.4315e-05
0.000467435
0.000104156
4.75646e-05
8.92724e-05
0.000126203
0.033852
8.86916e-05
0.000125301
6.78974e-05
0.000211446
5.69911e-05
7.8216e-05
6.29182e-05
9.07203e-05
9.19965e-05
0.0168355
0.00342226
6.9392e-05
6.66421e-05
0.00049138
5.72152e-05
0.044507
0.0526326
7.34403e-05
6.97622e-05
6.83308e-05
8.85744e-05
0.0510227
8.05041e-05
0.0050811
8.01054e-05
8.8292e-05
8.42215e-05
6.01827e-05
6.99334e-05
0.0527729
0.0413604
4.49639e-05
6.68881e-05
0.000124871
0.0120466
5.11743e-05
0.000270473
9.23114e-05
7.04079e-05
0.0187458
0.00708444
7.02773e-05
0.000430629
0.00225958
6.32743e-05
8.78362e-05
0.000210898
5.14969e-05
5.87317e-05
0.0074403
4.49053e-05
0.00722886
6.43567e-05
4.5838e-05
0.000867629
4.73071e-05
9.9789e-05
0.000107712
5.2974e-05
5.35772e-05
5.31766e-05
0.0041711
5.51821e-05
5.69235e-05
8.3976e-05
0.017065
0.00146371
6.33625e-05
0.000189041
0.0502352
7.84152e-05
0.000120417
5.04891e-05
0.000126976
0.00719486
0.0469671
0.0272403
9.92487e-05
0.0109198
5.30398e-05
9.10406e-05
7.27329e-05
6.91007e-05
0.0333197
7.59817e-05
0.00602354
5.99645e-05
0.00519598
5.70238e-05
8.09879e-05
0.0521861
8.00733e-05
0.00230771
0.0402745
8.84349e-05
5.04754e-05
0.0246699
5.45863e-05
8.118e-05
0.00585129
8.56706e-05
7.47089e-05
5.71512e-05
0.0559662
7.39684e-05
7.96283e-05
0.0060042
0.00010858
4.49968e-05
0.0521878
8.9524e-05
0.0416715
0.000512569
6.08942e-05
7.79867e-05
7.76662e-05
0.0534524
0.0268472
0.000155555
8.90378e-05
8.29473e-05
6.75598e-05
9.075e-05
0.0419994
8.17239e-05
0.0349473
6.72758e-05
7.62765e-05
8.42417e-05
0.000830559
0.000100139
0.0148895
8.33268e-05
7.56732e-05
0.029125
7.25512e-05
6.9343e-05
6.3839e-05
8.34408e-05
8.41007e-05
8.69359e-05
0.0241678
8.48996e-05
8.67393e-05
8.00003e-05
5.3407e-05
5.22966e-05
0.0102282
4.56141e-05
0.0510466
6.82877e-05
0.00022633
5.32289e-05
8.52482e-05
6.15078e-05
8.61723e-05
7.04672e-05
7.80197e-05
7.62021e-05
8.34076e-05
0.00150482
8.52138e-05
9.58006e-05
7.3407e-05
9.1369e-05
4.8841e-05
0.0186934
0.000175821
4.46562e-05
7.92013e-05
0.000120349
0.000234785
5.87665e-05
0.000176585
0.00559921
0.000120891
8.06796e-05
0.00669286
6.37649e-05
8.13369e-05
5.01814e-05
5.99484e-05
7.47689e-05
5.36319e-05
7.32224e-05
5.86596e-05
4.44072e-05
0.00964142
8.84054e-05
7.98475e-05
9.15653e-05
0.047026
6.07245e-05
7.40529e-05
0.000105399
4.54488e-05
6.13665e-05
8.9006e-05
0.00101547
8.54531e-05
0.000535337
7.81115e-05
4.5293e-05
8.39143e-05
5.72225e-05
6.12513e-05
0.00766567
0.000155003
8.30639e-05
0.0272966
0.0153267
8.32556e-05
8.51566e-05
0.000107003
0.000402291
7.86311e-05
0.000123015
0.000108005
9.01478e-05
5.92627e-05
6.70235e-05
9.6489e-05
7.30771e-05
9.45286e-05
6.51745e-05
0.00770765
0.000314676
0.000631916
8.30731e-05
0.0442095
8.37929e-05
8.19248e-05
0.0199892
0.000239111
7.82372e-05
4.74914e-05
0.043072
9.98415e-05
0.0422339
8.47987e-05
4.43729e-05
5.1393e-05
8.43355e-05
4.49195e-05
0.0317987
0.053219
8.54137e-05
5.68828e-05
8.03431e-05
0.0517316
0.000224067
8.27424e-05
5.98203e-05
0.0431653
4.79133e-05
8.6365e-05
0.0435693
0.000627393
0.0328431
0.0071566
0.0265382
6.79985e-05
8.88288e-05
6.54382e-05
9.77865e-05
0.0421205
8.59969e-05
6.04287e-05
4.891e-05
8.3956e-05
0.0435689
6.37852e-05
5.53659e-05
8.50168e-05
0.038189
0.00771863
8.72145e-05
0.000125317
8.12663e-05
0.00314807
6.7233e-05
0.000172641
8.9223e-05
0.000815962
8.46848e-05
8.69325e-05
0.0426354
7.26004e-05
7.64081e-05
0.0311472
8.81715e-05
5.87522e-05
5.9986e-05
0.000119709
7.38917e-05
6.69783e-05
7.88127e-05
4.59444e-05
5.44591e-05
0.000128305
7.98295e-05
0.05171
0.000108314
0.000104307
7.31606e-05
0.00720203
5.45835e-05
5.94341e-05
8.50213e-05
7.69647e-05
4.5933e-05
0.00329763
0.000162643
0.0147643
8.0648e-05
0.000161341
4.58829e-05
0.00180436
0.000123554
0.053034
0.000114879
5.83748e-05
6.07458e-05
0.0307056
7.58184e-05
7.84088e-05
6.65691e-05
4.77528e-05
0.0149231
5.71866e-05
0.000653562
8.84537e-05
6.02039e-05
0.0337449
0.00719631
0.000261218
8.03699e-05
9.11251e-05
8.78761e-05
0.00644898
6.1715e-05
6.07761e-05
0.00011836
0.0511487
6.12488e-05
6.32485e-05
3.85688e-05
5.69074e-05
7.95259e-05
6.73211e-05
7.34463e-05
6.87532e-05
0.000205687
0.016067
5.09947e-05
8.049e-05
4.49285e-05
6.09963e-05
0.0412153
8.61211e-05
8.7549e-05
0.0104475
0.0395348
0.000161685
8.29442e-05
0.0513251
6.85494e-05
8.92779e-05
8.82719e-05
0.000246685
0.0199156
8.48121e-05
6.44552e-05
0.0344594
0.00951155
5.98138e-05
5.95976e-05
8.80056e-05
8.22228e-05
8.81424e-05
0.0062993
0.00714448
0.000101948
7.96143e-05
0.000219819
5.0475e-05
0.00287407
8.90128e-05
0.0197617
0.000198204
5.26957e-05
6.00818e-05
5.3036e-05
0.00013097
0.000190971
5.09937e-05
8.47402e-05
5.97346e-05
7.78977e-05
8.56317e-05
9.502e-05
0.0202172
5.16502e-05
8.68065e-05
8.58405e-05
8.47251e-05
0.0332406
8.04224e-05
8.82129e-05
6.02697e-05
5.84136e-05
8.92431e-05
0.000106597
7.65488e-05
9.65519e-05
0.0101042
6.84146e-05
6.00309e-05
0.00151758
5.6434e-05
5.99152e-05
0.0478511
6.09981e-05
0.00594668
5.81958e-05
9.04471e-05
8.08707e-05
4.73885e-05
8.0196e-05
7.93469e-05
5.87176e-05
0.0311137
0.00607926
5.24694e-05
4.99058e-05
9.60392e-05
7.7951e-05
5.03779e-05
0.00905605
4.83273e-05
0.000113659
9.1554e-05
0.021279
0.0001274
5.64841e-05
9.88389e-05
9.02178e-05
7.55837e-05
0.0301524
8.81137e-05
4.61227e-05
0.00961285
0.000109302
8.46034e-05
8.59496e-05
0.000224521
6.89531e-05
8.54896e-05
5.0806e-05
0.000267938
0.00203495
6.42549e-05
7.27563e-05
0.0506605
8.87226e-05
0.00756168
0.00699996
5.72542e-05
0.00624127
8.81603e-05
7.62367e-05
8.9138e-05
0.000370104
8.88895e-05
4.75609e-05
8.4539e-05
0.0396445
8.44571e-05
8.84548e-05
0.000324102
6.99333e-05
8.30404e-05
0.0384664
4.72435e-05
8.79943e-05
8.75272e-05
8.03882e-05
7.55399e-05
0.000177176
8.81394e-05
8.83861e-05
8.84685e-05
0.00485806
5.28382e-05
4.7259e-05
0.000320359
6.45229e-05
0.0257026
6.98292e-05
5.69252e-05
0.0257324
6.85094e-05
0.000104038
5.71699e-05
6.11143e-05
5.3497e-05
7.5725e-05
0.0050218
6.25468e-05
0.0505592
7.94166e-05
9.68098e-05
8.25232e-05
0.0417726
0.00619723
7.44438e-05
0.0131859
8.76855e-05
4.98536e-05
8.48632e-05
8.80817e-05
0.00291032
0.0105222
5.72496e-05
9.64797e-05
8.56988e-05
7.04776e-05
7.54785e-05
0.000119226
0.0521084
6.08814e-05
0.00575444
8.88328e-05
0.00366904
0.00972422
8.41162e-05
4.91752e-05
8.83912e-05
0.00483272
9.02158e-05
4.66383e-05
7.88112e-05
0.0101023
0.0165036
0.000172972
0.0284344
9.03162e-05
0.0273581
6.09216e-05
8.90253e-05
8.30647e-05
0.0218825
5.06743e-05
5.6958e-05
8.97895e-05
4.94336e-05
5.13182e-05
0.000940021
4.97883e-05
0.000147242
9.68699e-05
8.99451e-05
9.08382e-05
0.009868
8.45941e-05
8.37798e-05
8.77604e-05
0.00120203
0.000157855
0.0167444
7.52963e-05
6.96583e-05
7.23634e-05
0.046475
5.93353e-05
5.41105e-05
6.60551e-05
0.0369921
0.00569349
8.05694e-05
0.0273411
5.87116e-05
5.72838e-05
0.000134767
0.05129
8.05231e-05
0.00294254
8.6933e-05
0.0426428
7.26428e-05
7.61354e-05
0.000127381
0.0514498
8.13706e-05
7.11801e-05
6.95443e-05
8.48488e-05
6.26301e-05
7.78887e-05
8.06687e-05
0.0475642
0.00667531
8.38452e-05
7.55803e-05
0.000103455
0.00393048
8.76229e-05
8.4404e-05
4.45268e-05
0.000102353
4.91374e-05
0.00116909
8.86832e-05
5.93199e-05
8.03125e-05
0.000101439
0.0278415
0.0482288
0.00752866
0.0424253
0.000121296
0.00015157
0.0470035
0.00011381
0.00718752
9.0602e-05
0.000104973
8.10396e-05
0.000106694
0.000124372
4.71342e-05
0.000238305
0.0404994
0.000108109
0.00743092
0.00362883
6.07771e-05
6.00455e-05
5.31956e-05
9.12453e-05
8.99998e-05
0.00553406
4.97495e-05
0.0485978
8.74636e-05
8.43519e-05
7.57307e-05
0.00626285
9.4713e-05
0.000117317
7.68123e-05
0.00927984
0.000361321
5.06439e-05
8.90003e-05
0.0211957
0.000113432
0.000164389
6.98403e-05
6.98698e-05
0.000102165
0.000318988
0.00809151
0.00135798
0.0142496
0.000118097
0.0219251
0.0001142
5.18606e-05
8.43441e-05
5.16744e-05
5.26191e-05
0.000159255
5.3898e-05
9.31184e-05
9.03612e-05
0.021391
0.000124928
5.07274e-05
4.75883e-05
6.05085e-05
0.000116239
9.00654e-05
6.65565e-05
5.33811e-05
0.0076195
0.0518322
0.00011328
6.7129e-05
0.000102558
0.00293051
5.78724e-05
5.69942e-05
0.000100498
7.44568e-05
8.4519e-05
8.15988e-05
0.000135838
0.000628951
8.55007e-05
6.95299e-05
6.75424e-05
0.000114369
0.0273637
4.76587e-05
6.5694e-05
8.30002e-05
3.23017e-05
0.000105727
0.000127763
0.0361659
5.89937e-05
0.00624833
7.8807e-05
0.0466811
0.0103643
0.0193658
8.68673e-05
7.80916e-05
8.61523e-05
8.38831e-05
6.51348e-05
0.000137671
8.20909e-05
0.000118321
0.00296622
6.73585e-05
5.95403e-05
7.22561e-05
7.98275e-05
0.0321706
0.000108727
0.000673357
3.60295e-05
0.0156802
8.64862e-05
6.02287e-05
0.000106052
6.68947e-05
0.00532857
8.06112e-05
0.000103228
0.000132732
5.22634e-05
0.0527767
0.0545922
0.0196421
0.0393054
9.02811e-05
0.000108043
8.17898e-05
6.75605e-05
8.25845e-05
4.78856e-05
0.0422298
8.26709e-05
0.00620969
6.73583e-05
7.6108e-05
0.00951538
8.91799e-05
4.74072e-05
8.65211e-05
5.776e-05
0.0058411
8.95092e-05
7.66443e-05
9.58338e-05
7.16297e-05
9.07499e-05
0.00621442
0.0477216
0.00109102
0.0226099
8.14533e-05
8.19166e-05
0.000126942
0.000600174
8.26064e-05
0.00800077
0.0001083
0.000143571
0.000125545
0.0441511
8.69705e-05
0.0273218
0.00207962
0.00558624
0.0436387
6.88293e-05
6.28767e-05
5.66258e-05
6.72265e-05
8.5748e-05
8.42634e-05
8.44545e-05
0.0526762
0.000202135
5.65317e-05
8.79284e-05
4.61426e-05
8.66428e-05
8.76804e-05
0.00387876
0.0289594
9.02058e-05
0.000114922
0.000246522
0.0358275
8.87683e-05
0.0310488
0.0155695
0.000133907
0.000385091
0.00514614
5.06539e-05
8.77286e-05
4.79404e-05
7.21924e-05
6.59848e-05
5.35818e-05
5.46062e-05
6.69585e-05
0.0062125
9.75075e-05
7.07136e-05
0.000103795
0.0518854
5.96473e-05
0.0120494
7.9502e-05
8.77975e-05
0.000113227
8.54884e-05
4.71823e-05
0.000571868
8.72504e-05
8.79006e-05
0.0483337
5.23971e-05
8.88564e-05
0.00620106
8.91088e-05
0.0400154
0.0291888
0.0265482
8.3688e-05
7.00186e-05
7.61834e-05
4.50669e-05
8.11508e-05
0.00750058
5.06062e-05
9.35759e-05
8.7011e-05
6.67319e-05
0.0363335
0.00465095
8.03931e-05
8.88414e-05
7.6702e-05
5.06634e-05
9.65567e-05
5.4178e-05
0.000413814
7.18873e-05
0.0298608
0.0127712
0.038079
8.33144e-05
0.00670842
0.00181261
8.81668e-05
0.000133146
6.8829e-05
7.26376e-05
0.00730142
0.000752272
0.0166913
8.83435e-05
9.59162e-05
0.0423138
7.89718e-05
5.35228e-05
7.2656e-05
8.86458e-05
5.43429e-05
9.01604e-05
9.96458e-05
6.64628e-05
0.00010437
0.00144394
0.000432419
8.97625e-05
0.000106183
0.0398649
0.000107125
6.23972e-05
7.74172e-05
0.000151965
4.48903e-05
6.74428e-05
9.05248e-05
0.0443875
6.02273e-05
0.0363126
0.000126852
9.20162e-05
8.77415e-05
8.76292e-05
0.00641453
6.48105e-05
9.27504e-05
7.80424e-05
0.0259271
0.00146237
7.05928e-05
0.000114809
5.85567e-05
0.0449249
5.83602e-05
8.0394e-05
0.00989294
0.0282832
4.72119e-05
0.000232944
0.00597894
8.77806e-05
0.0404523
7.76773e-05
0.0536545
8.70632e-05
9.06644e-05
9.78452e-05
0.00516419
0.0277367
8.91832e-05
5.7642e-05
6.6367e-05
0.0528559
7.77549e-05
4.75955e-05
0.0553055
8.84681e-05
0.000120336
0.00616411
8.47527e-05
9.65243e-05
0.0546491
0.000116128
6.75807e-05
0.0128995
7.6603e-05
0.0267133
0.00463273
8.67832e-05
6.40769e-05
7.93762e-05
6.34651e-05
7.41583e-05
8.49577e-05
6.08763e-05
0.000115391
8.6507e-05
8.1384e-05
5.47001e-05
5.81931e-05
8.68919e-05
0.0534213
6.59927e-05
7.23511e-05
0.0491086
0.0451813
8.12069e-05
8.11912e-05
8.49326e-05
8.68894e-05
5.84695e-05
8.53996e-05
8.8044e-05
0.0387288
0.0505861
8.41557e-05
5.61679e-05
5.10298e-05
6.58366e-05
6.35694e-05
0.00327146
5.63577e-05
7.92813e-05
0.000111287
6.56888e-05
0.0432947
8.31266e-05
0.00242548
4.764e-05
0.000189941
9.65072e-05
0.0400146
0.000128852
4.75836e-05
8.39233e-05
9.48294e-05
9.38334e-05
7.04581e-05
4.73793e-05
0.0265319
8.53189e-05
7.19925e-05
0.0491616
8.19859e-05
0.0440955
4.42867e-05
8.91562e-05
8.73227e-05
5.26687e-05
0.000176757
0.0451274
0.0504675
0.0445158
0.0128321
0.032504
0.000116746
6.41093e-05
9.3608e-05
6.65107e-05
9.05131e-05
0.0415127
0.0429412
6.7392e-05
8.98147e-05
0.000209107
0.00343891
7.88286e-05
0.00012723
0.000268494
8.09359e-05
9.34352e-05
0.000222935
0.0123761
8.11108e-05
0.0246704
8.40011e-05
6.65516e-05
5.93652e-05
0.000770881
8.10043e-05
0.000467846
0.000107874
9.32445e-05
0.0147508
8.34071e-05
6.88266e-05
7.14933e-05
7.17349e-05
0.051972
9.02142e-05
7.63406e-05
0.0520298
8.83665e-05
8.17886e-05
0.0363938
5.53379e-05
0.00457421
0.0496577
0.00700331
0.000102179
8.82289e-05
9.25657e-05
6.8019e-05
8.04235e-05
0.0265576
5.25123e-05
0.000126038
6.27244e-05
8.44841e-05
5.34503e-05
0.000119298
7.56305e-05
9.28628e-05
8.5685e-05
6.97878e-05
0.00616149
0.0520634
0.000189707
0.000194887
4.61885e-05
8.68731e-05
9.29956e-05
0.049343
0.00607732
0.0451933
9.36623e-05
0.0407322
0.0239099
0.000140397
9.17362e-05
9.29562e-05
0.0236184
0.000114574
0.000282144
0.00550148
0.0396652
0.000131882
8.69352e-05
8.41089e-05
8.56771e-05
4.88182e-05
0.0271045
8.53297e-05
0.000114295
5.66837e-05
0.000179096
8.9751e-05
8.03615e-05
6.09366e-05
6.04386e-05
0.00748824
5.8448e-05
0.000119462
0.000104729
0.0546663
8.93754e-05
0.0201004
7.28898e-05
0.0319569
5.55035e-05