/*--------------------------------*- C++ -*----------------------------------*\
| =========                 |                                                 |
| \\      /  F ield         | OpenFOAM: The Open Source CFD Toolbox           |
|  \\    /   O peration     | Version:  v2012                                 |
|   \\  /    A nd           | Website:  www.openfoam.com                      |
|    \\/     M anipulation  |                                                 |
\*---------------------------------------------------------------------------*/
FoamFile
{
    version     2.0;
    format      ascii;
    class       volScalarField;
    location    "150";
    object      p;
}
// * * * * * * * * * * * * * * * * * * * * * * * * * * * * * * * * * * * * * //

dimensions      [0 2 -2 0 0 0 0];


internalField   nonuniform List<scalar> 
18598
(
-0.0257335
-0.0862641
-0.0021314
-0.00413139
-0.00204704
-0.0160366
0.00684075
-0.000609454
-0.00439191
-0.0020105
-0.000156386
-0.000914029
-0.0153818
-0.0346136
-0.0288208
-0.000941751
-0.00822688
-0.00163271
-0.00195544
-0.0011709
-0.0010666
-0.00238516
-0.0381751
-0.00235137
-0.00969208
-0.00181866
-0.00151674
-0.0966746
-0.018032
-0.000608649
-0.0279865
-0.00433306
-0.0885119
-0.00015165
-0.00148236
-0.00101514
-0.0134067
-0.00965334
-0.0313265
-0.00100885
-0.0962924
-0.00156049
-0.00683383
-0.0313768
-0.00104226
-0.0345921
-0.00184728
-0.00108364
-0.0201183
-0.0113237
-0.0277442
-0.0110514
-0.00282374
-0.00292876
-0.033314
-0.00100733
-0.00124075
-0.094871
-0.0523788
-0.000659038
-0.0132205
-0.0043823
-0.00290221
-0.0696628
-0.0191615
-0.0040878
-0.0241507
-0.00424569
-0.00530379
-0.0350955
-0.00840806
-0.0123504
-0.0329062
-0.0182801
-0.00460303
-0.00241993
-0.0131549
-0.00308183
-0.00307789
-0.0402407
-0.0112689
-0.0110245
-0.00219018
-0.00557472
-0.0192624
-0.0324615
-0.00184185
-0.000776349
0.000386191
-0.0450407
-0.0127982
-0.00543954
-0.0143167
-0.0235063
-0.0115429
-0.0338316
-0.0218801
-0.0370257
-0.00202379
-0.0170419
-0.000229281
0.000109679
0.000232581
-0.00142329
0.00440458
-0.00964081
-0.0444622
-0.0720967
-7.05957e-05
-0.0167716
-0.000928457
-0.0115013
-0.0365608
5.9966e-05
-0.00423983
-0.00298909
-0.0393314
-0.000869597
-0.00094438
-0.00831321
-0.00294748
1.72631e-05
-0.000732534
-0.00687214
-0.0125169
0.00658873
-0.000134254
-0.00820043
-0.00155414
-0.08774
-1.41866e-05
-0.0677214
-0.000995031
-0.0515397
-0.0321875
-0.00796052
-0.00149137
-0.000440697
-0.000421055
-0.0366851
-0.0402626
-0.00058271
-0.00969563
-0.0717244
-0.0293882
-0.00112788
0.00140671
-0.00322629
-0.000441828
-0.000584594
-0.00417247
-0.0132187
-0.00100997
-0.0895009
-0.00240101
-0.0229534
-0.000986951
-0.00026983
-0.0135906
-0.00830378
-0.00864578
-0.0304838
-0.0435452
-0.0152528
-0.104811
-2.29284e-05
-0.0275367
-0.0253585
-0.0023182
-0.0176595
-0.0160412
-0.000844581
-0.000787924
4.23105e-05
-0.00061942
-0.0011123
-0.00337393
-0.00092218
-0.00800761
-0.00791213
-0.0988027
-0.000140504
-0.0229847
-0.0726432
-0.0190751
-0.00563423
-0.0370116
-0.0052823
-0.0316531
-0.000549575
-0.0264126
-0.0400704
-0.00848052
-0.00132773
-0.00315457
-0.02661
-0.00236468
-0.00179179
-0.00056518
0.00148991
-0.0340767
-0.0461938
-0.00132341
-0.00145428
-0.027176
-0.0250618
-0.00235179
-0.0130034
-0.00130617
0.000874049
-0.0251524
-0.000134716
-0.0063362
-0.0746698
-0.000192763
-0.0525322
-0.00932731
-0.00125517
-0.0270443
-0.000550655
-0.000622232
-0.0408593
-0.0400724
-0.00232201
-0.00647675
-0.00189543
-0.0215305
-0.0383208
-0.0170385
-0.000567541
-0.0462752
-0.0217048
-0.0124663
-0.00208413
-0.000605316
-0.0288123
-0.00114743
-0.00371236
-0.000127355
-0.00137545
-0.00785913
-0.0188332
-0.0305935
-0.0235917
-0.0081278
-0.0303865
-0.0144521
-0.00835923
-0.00798647
-4.65475e-05
-0.0971031
-0.00263403
0.00119624
-0.00124863
-0.0141927
-0.00981614
-0.00855955
-0.00095996
-0.00408299
-0.023309
-4.25513e-05
-0.000612793
-0.000827759
-0.00270307
-0.00845034
-0.00267672
-0.000375235
-0.00694374
-0.00100153
-0.00179217
-0.00040001
-0.00857128
-0.0025492
-0.000419098
-0.0376005
-0.0687536
-0.00676246
-0.00059251
-0.00136973
0.00274213
-0.0728177
-0.0883682
-0.00287427
-0.00118584
-0.000428361
-0.0678622
-0.00115526
-0.0247571
2.24198e-06
0.00360082
-0.000885989
-0.00167058
-0.000181253
-0.00272968
-0.0879788
-0.0382484
-0.000572078
-0.00253111
-2.95447e-05
-0.000872536
-0.00701055
-0.00528662
-0.0213533
-0.0242378
-0.000944317
-0.000150554
-0.0125518
-0.00407308
-0.00240951
-0.000931175
-0.00850806
-0.00886542
0.00275215
-4.19746e-05
-0.00638142
-0.000611176
-0.0125845
-0.00229136
-0.000909736
-0.00877326
-0.00212203
-0.0068018
-4.57686e-05
-0.00893872
-0.00117129
-0.00181942
-0.0397369
-0.00108955
-0.00650555
-0.00143024
-5.81138e-05
-0.0354439
-0.00321893
-0.0979699
-0.00234489
-0.0241135
-0.0164799
-0.00865314
-0.00194505
-0.000904201
-0.0303946
-2.51933e-05
0.00402158
-0.00236781
-0.000994104
-0.00224025
-0.0211379
4.65763e-05
0.0039297
-0.0630275
-0.0218274
-0.0753816
-0.0101305
-0.00308426
-0.0723772
-0.0372343
-0.0539553
-0.00236914
-0.0250954
-0.0120288
-0.00331925
0.00425202
-0.000978091
-0.0379473
-0.0169166
-0.0174691
0.00549488
-0.00725156
-0.0987482
-0.00861996
-0.0321811
-0.00890897
-0.0076899
-0.0164465
-0.0718587
-0.00798208
-0.00504665
-0.0075026
-0.0126717
-0.0376218
-0.00157819
-0.000326458
-0.0252903
-0.0195165
-0.0495887
-0.0418317
-0.00284635
-0.00463713
-0.000524784
-0.014059
-0.00713888
-0.0144043
-0.013676
-0.00293176
-0.000904425
-0.0274024
-0.000399786
-0.000150467
-0.0333093
-0.000975274
-0.0254613
-0.000659943
-4.53215e-05
-0.0117286
-0.00188364
0.00337481
-0.000637649
0.00650558
-0.0207369
-0.106469
-0.00180475
-0.0136483
-0.0852956
0.00638339
0.00527542
-0.0124854
-0.00173905
-0.012656
-0.000204255
-0.000784053
-0.000189834
-0.0202665
-0.00879767
-0.00104235
0.000841134
-0.0856236
-0.000360594
-0.0173381
-0.0203957
-0.0316062
-0.000695419
-0.0311639
-0.00772379
-0.0164962
-0.00328744
-0.0373801
-0.00770071
-0.00103346
-0.0040091
-0.000809896
-0.00459293
-0.000538142
0.00203395
-0.00169896
-0.00986631
-0.00730765
-0.000667646
-0.00825015
-0.00224418
-0.0672659
-0.0164178
-0.00145115
-0.025049
-0.0660094
-0.00555111
-0.0171905
-0.0313365
-0.00401907
-0.0380625
-0.00251913
0.00602298
-0.00050804
-3.78186e-06
-0.00395226
-0.00151448
9.75529e-07
-0.031973
-0.018397
-0.0185872
-0.00013482
-0.00256382
-0.0165554
-2.27042e-05
-0.0089929
-0.0884702
-0.00551996
-0.0217518
-0.000682527
-0.0319044
-0.00890633
-0.0448956
-0.00860235
-0.0396877
-0.00739739
-5.48944e-05
0.00175354
-0.0284204
-4.79181e-05
-0.00160222
-0.0926707
-0.000848485
-0.0293798
-0.0329119
-0.000419737
-0.0323086
-0.0925889
-0.000426429
-0.015396
-0.00118505
-0.0266808
-0.100445
-0.0715706
-0.00298062
-0.0973741
-0.022749
-0.00420185
-0.000553461
-0.00231523
-0.024032
-0.0162584
-0.00149227
-0.00951741
-0.0178223
-0.014901
-0.000904447
0.00211601
-0.0999828
-1.9807e-05
-3.83105e-05
-4.38411e-05
0.00357344
-0.0399923
0.00341584
-0.000393944
-0.0467599
-0.00816806
-0.000792676
-0.000438857
-0.0275869
-0.0231958
-0.0214665
-6.88522e-05
-0.00787616
-0.00268399
-0.00315864
-0.00147656
-0.00139526
-0.0127542
-0.00313446
-0.00037321
-0.0659404
-0.0884361
-0.0275693
-0.0286698
0.00138847
-0.00802727
-0.0159873
0.000472089
-0.100358
-0.0951205
-0.000919542
-0.00315323
-0.0315896
-0.0142725
-0.0156718
-0.00048389
-0.00447309
-0.0023756
-9.82912e-05
-0.000115946
-0.000111146
-0.0962911
0.00367268
-0.0267212
0.000332421
0.000913366
-0.0192237
-0.0315013
-0.0191324
-0.00055584
-0.00885493
-0.0154473
-0.0160804
-0.013584
-0.0142174
-0.000511287
-0.0160457
-0.0295243
-0.0101548
-0.00437861
-0.00321901
-0.0789212
-0.00124302
-0.0354886
-0.00358868
-0.0178551
-0.00226861
-0.00156327
-0.00192788
-0.0140991
-0.00230637
-4.3465e-05
-0.00454961
-0.0247158
-0.00395354
-0.00886804
-0.0651039
-0.00419536
-0.00190888
-0.00137792
-0.0024642
-0.00866679
-0.00230402
-0.00158765
-0.00424536
-0.00696619
-0.00112716
-0.00248798
-0.000441724
-0.00259494
-0.010284
-0.002582
-0.00101731
0.00781541
-0.00144451
-0.00438716
-0.00136155
-0.0967258
-0.00865009
-0.0365608
-0.0043334
-0.000798918
0.00350801
-0.00312701
-0.0714503
-1.2802e-05
0.00283409
-0.069318
-0.0508221
-0.0032345
-0.0132205
-0.00814783
-0.00251786
-0.00289432
-0.0309883
-0.00155911
-0.00357536
-0.0402689
-0.00110538
-0.00939118
-0.00292691
-0.0172074
-0.000789249
-0.0163401
-0.000991365
-0.00412801
-0.0129261
0.000810252
-0.0126114
-0.0124119
-0.0210156
-0.0132509
-0.00127666
-0.002131
-0.0886854
-0.00103933
1.61151e-05
-0.00447728
-0.000870311
-0.00678472
-0.0172976
-0.000596763
-0.00105048
-0.014974
-0.00922473
-0.0152811
-0.00716034
-0.00213019
-0.0394727
-0.0293595
-0.0031693
-0.00152968
-0.000510974
-0.000602972
-0.00223674
-0.018135
-0.00110306
0.000187357
-0.00105396
0.000140205
-0.00868204
-0.0129175
-0.0225083
-0.00187788
0.0023848
-0.00704164
-8.91486e-05
-0.0479313
-0.000550101
-6.34012e-05
-0.0870192
-0.0378546
-0.000470687
-0.0343798
-0.0359497
-0.00927362
-0.0388169
-0.00103116
-0.0253978
-0.00831044
-0.0143649
-0.0012793
-0.00114467
0.00676209
-0.00265808
-0.00329572
-0.0158827
-0.0172685
-0.0953245
-0.0132146
-0.0137422
-0.0148356
-0.0100477
0.00650884
-0.0192352
-0.0279599
-0.100138
-0.00404444
-0.00236834
-0.030735
-0.0151346
-0.018688
-0.000320296
-0.10049
-0.0165427
-0.0101417
-0.00813152
0.00517307
-0.0283796
-0.00037592
-0.000738726
-0.0121821
-0.0364565
-0.0472312
-0.0912857
-0.00135712
-0.00108903
-0.0274266
-0.00131632
-0.0127867
-0.0365089
-0.000935688
-0.0477005
-0.0303456
-0.0012821
-0.00542736
-0.000905303
-0.00184057
0.00956241
0.00694963
-0.0413555
-0.000639663
-0.000611264
0.00385699
-0.0011188
-0.0331734
-0.00627396
-0.00385111
-0.00813408
-0.00105704
-0.00358173
-0.0123663
0.00152363
-0.00935081
-0.0263365
-0.00137549
0.000248293
0.000620826
-0.00134346
-0.00277611
-0.00767094
-0.0199748
-0.0135367
-0.00359978
-0.00229506
-0.00301984
-0.00137072
-0.000536667
-0.00258738
-0.000618332
-0.000402512
-0.0274895
-0.00834857
-0.0012081
-0.0230108
-0.00393259
-0.102848
-0.00365506
0.000761589
-0.000182555
-0.0312888
-0.00229412
-0.00704689
-0.0345613
-0.00804311
-0.0194468
-0.020873
-0.0028414
-0.0349879
0.00103265
-0.0021878
-0.000501297
-0.00378964
-0.0204274
-0.0202413
-0.000307546
-0.00227008
-0.01335
-0.00226218
-0.00105592
-0.0119693
-0.00791961
-0.0285962
-0.0308772
0.00120436
-0.00922606
-0.0284094
-0.0258583
-0.0260388
-0.0514969
0.00869092
-0.0165966
-0.0187491
-0.00899626
-0.000572314
-0.00189769
-0.0135764
-0.00297631
-0.0467976
-3.641e-05
3.15264e-05
-0.0147387
-0.0014026
-0.000298382
-0.0117476
-0.0573405
-0.0124642
0.00162369
0.00551293
-0.00269554
-0.00854681
-0.00029075
0.00589217
-0.00808798
-0.0640365
-0.00140037
-0.0266099
-0.000469008
-0.00141662
-0.0472741
-0.000584809
0.00164812
-0.00390566
-0.00188115
-0.00270337
-0.0495745
-0.0451482
-0.00243943
-0.0190258
-0.00507812
-0.00397976
-0.0208825
-0.0131627
-0.002378
-2.72902e-05
0.00668761
-0.00139643
-0.0224195
-0.000614544
-0.00119211
-0.0195783
-0.0715543
-0.0338511
-0.00219459
-0.00497959
-0.00295401
-0.00309814
-5.22636e-05
-0.0117122
-0.00127819
-0.0366988
-0.000622646
-0.00277782
0.00374332
-0.016898
-0.000221025
-0.0337057
-4.40445e-05
-0.000671417
-0.00513942
-0.00675018
-0.000505477
-0.000574832
-0.0433509
-0.0521626
-0.00336848
-0.00189531
-0.00981526
-0.0200807
-0.00973802
-0.0164776
-0.0194358
-0.00918132
-0.00255835
-0.029792
-0.00304714
-0.00360768
-0.0223737
-0.0024491
-0.00177103
-0.0902185
-0.00229766
-0.00224582
-0.00207789
-0.0462297
-0.000834125
-0.00282921
-0.00812492
-0.00337147
-0.000711272
-0.00526898
-0.0183455
-0.0164425
-0.00980034
-0.0152079
-0.0343059
-0.0031753
-0.00852368
-0.0422832
-0.0205469
-0.00346161
-0.00113889
-0.000734862
-0.012246
-0.0173265
-0.00783663
-0.000314519
-0.0633428
-0.0076822
0.000423296
-0.000985005
-0.00133906
-0.00189506
-0.000765592
-0.0174371
-0.0103625
-0.0805965
0.000388376
-0.0679138
-0.00135555
-0.00400866
-0.000651088
-0.00129382
-0.00319089
0.000626417
-0.00449157
-0.00131662
0.00105314
-0.0174013
-0.0014303
-0.00240531
-0.00044319
-0.00121752
-0.0275548
0.000539131
-0.00310648
-0.00223304
-0.0974688
0.00227999
0.00224864
-0.0116511
0.00643726
-0.0419775
-0.029186
-0.105451
-0.00227946
-0.0422414
-0.0136919
-0.00132622
-0.00371223
-0.0799635
-9.65342e-06
0.0063527
-0.00254864
-0.00106326
-0.00151819
-0.001314
-0.0165146
0.000498111
-0.00152324
-0.00182635
-0.038587
0.0027571
-0.0033372
-0.0125232
-0.0036797
-0.0122429
-0.00030411
-0.00929039
-0.000946372
-0.000966626
-0.00852764
-0.00854714
-0.0743729
-0.000300698
-0.0315167
-0.00123731
-0.0549557
-0.00167182
-0.00193502
-0.0123328
-0.01432
-0.0783059
-0.00997638
-0.000992176
-0.0108628
-0.0416746
-0.0691323
-0.00120166
-0.00223952
0.0066849
-0.0302729
-0.0015362
-0.0141616
-0.00953036
-0.0721876
-0.0405662
-0.0021131
-8.68383e-06
-0.00146468
-0.00105379
-0.0963414
-0.0171357
0.00373478
-0.0028036
-0.00488242
-0.0202983
-0.00347873
-0.00153065
-0.000202292
-0.000351475
-0.0297545
-0.00136918
-0.000208023
0.000358021
-0.0109529
-0.00155586
-0.000343834
-0.0017817
-0.00323688
-0.000450444
-0.0206998
-0.0143263
-0.00201442
-0.000969411
-0.00185681
-0.0303131
-0.0176203
-0.0803714
-0.101405
-0.0154235
-0.00483997
-0.00462258
-0.0134885
-0.0345044
-0.00944787
-0.0587728
-0.0451389
0.000328456
-0.0120581
-0.0418773
-0.0814777
-0.00371796
-0.0106643
0.00625759
-0.0078232
0.000155724
-0.0585154
-0.00227975
-0.0037647
-0.0083894
-0.00550356
-0.0106021
-0.000469772
-0.0183257
-0.0186811
-0.00296502
-0.00369129
-0.0145265
-0.0220274
-0.00365174
0.000251119
-0.0391877
-0.00197942
-0.00293372
0.00169477
-0.0327598
-0.00214049
-0.000707196
-0.000702094
-0.0641994
-0.00322521
-0.0101493
-0.00091456
-0.0212
-0.000809802
-0.00310889
-0.000359575
-0.00778263
-0.00407019
-0.0317661
-0.0122099
-0.00157451
-0.0677896
-0.0105406
-0.0788365
0.00142144
-0.0108217
-0.00925148
-0.00459972
-0.00188926
-0.000518393
-0.0201705
-0.0757007
-0.0148552
-0.00183099
-0.00230651
0.00244437
-0.00992329
-0.0114544
-0.0183692
0.000333093
-0.0118872
-0.00832423
-0.000504981
-0.00847649
-0.0145419
-0.0279634
-0.000818541
-0.00234934
-0.0138224
-0.00978178
-0.062188
-0.000736637
-0.001466
-0.00364482
-0.0113678
-0.000483427
-0.020845
-0.00148937
-0.00275118
-0.00244966
-0.00610328
-0.000535088
-0.00138471
-0.02291
-0.000689227
-0.00505104
-0.00487475
-0.00138633
-0.000524698
-0.00016697
-0.00129875
-0.0141403
-0.0140473
-0.0157967
-0.000564366
-0.0122614
-0.000514543
-0.0147228
-0.0292211
-0.0710514
-0.00201548
-0.000963913
-0.00784548
-0.0106813
0.0015684
-0.00165635
-0.000964381
-0.00704516
-0.00225124
-0.000502131
-0.0202316
-0.00261729
-0.00834069
-0.0016396
-0.000845076
-0.00596972
-0.00686268
-0.0285657
-0.00147875
-0.0131902
-0.00462205
-0.00404271
0.00156149
-0.00183961
-0.00481323
-0.0114249
-0.00133727
-0.0201262
-0.000947141
-0.00331092
-0.0830306
-0.0100008
-0.00220432
-0.00032785
-0.000616679
-0.0100112
0.00178892
-5.34695e-05
-0.0778366
-0.00626561
-0.0132979
-0.00387966
-0.0350179
-0.0640036
-0.0824273
0.00167173
-0.0171063
-0.0561933
-0.01728
-0.00105431
-0.00132632
-0.017749
-0.00414937
-0.00372072
-0.0485042
-0.0077257
-0.00394964
-0.00866725
-0.0148111
-0.000770198
-0.0011262
-0.0164519
0.00592024
-0.00633119
-0.00861421
-0.00256451
-0.000984078
-0.0816178
4.26391e-05
-0.0207304
-0.00705283
-0.0233937
-0.0222893
-0.0132027
-0.0227875
-0.0375501
-0.000959181
-0.00218892
-0.00209501
-0.0216209
-0.0171366
-0.0195705
-0.000554163
-0.0817178
-0.00323174
-0.00226348
-0.00904276
-0.0420851
-0.0276976
-0.00387793
-0.00194325
-0.0325717
0.00611916
-0.00844765
-0.0138773
-0.00105601
-0.000721719
-0.00834792
-0.000291495
-0.0433922
-0.00261429
0.00239099
-0.0165039
-0.00104474
-0.00713834
-0.00270498
-0.00235222
-0.00877271
-0.0273395
-0.00175558
-0.00708662
-0.00845758
0.000784871
-0.0167037
-0.000638746
-0.0633114
-0.000684791
-0.0015941
-0.00112207
-0.0258459
-0.000718244
0.00855719
-0.00609345
-0.0106902
-0.0659103
-0.0188935
-0.0719263
-0.00104628
-0.017949
-4.30979e-06
-0.0131672
-0.0119016
-0.00467156
0.000387647
-0.0790137
-0.0102422
-0.0955696
-0.00357727
-0.00802141
-0.0635808
-0.00122143
-0.0124115
-0.0280548
-0.002263
-0.082013
0.000685523
-0.00396342
-0.0188413
-0.0183523
-0.00835362
-0.00909736
-0.000609603
-0.0148374
-0.00637071
-0.0021071
-0.000298639
0.0023575
-0.00162624
-0.00419431
-0.00674811
-0.00239214
-0.027024
-0.000609931
-0.00755491
0.000150172
-0.0647851
-0.00382577
-0.00625959
-0.00368785
-0.0477753
-0.000949568
-0.0101803
-0.00189898
-0.00464071
-0.0113277
-0.00110689
-0.0132657
-0.00339825
-0.0172858
-0.0121153
-0.00859717
-0.00129389
-0.000893689
-0.0181051
-0.000803191
-0.00114429
-0.0188332
-3.67056e-05
-0.00124001
-0.0547337
-0.000499631
-0.003659
-0.00397676
-0.0234691
0.000800208
-0.00165875
-0.0554347
-0.00957067
-0.0984373
-0.0123282
-0.000447549
-0.0795246
-0.00193106
-0.019682
-0.0203845
-0.0889885
-0.00534316
-0.0136815
-0.0197826
-0.00284977
-0.000484672
-5.54705e-05
-0.0282617
0.00549867
-0.0344337
-0.0481193
-0.00186243
-0.000769796
-0.0017554
-0.000298011
-0.000293685
-0.00220132
-0.0107722
0.00171242
-0.00169253
-0.0134869
-0.00134145
-0.00231417
-0.00220164
-0.000250799
-0.00168563
-0.00120001
-0.0210247
-0.000329858
-0.0165036
-0.0585623
0.00334413
-0.0278144
-0.0252996
-0.00390078
-0.000487833
-0.00173136
-0.0131911
-0.00159549
-0.0412917
-0.0472214
0.000317434
0.000267159
-0.00683527
-0.00184319
-0.0386173
-0.00148557
-0.0108209
-0.0167133
-0.00833041
-0.00714183
-0.00092312
-0.0212608
-0.0690235
-0.0115688
-0.00150044
-0.0095565
-0.0283506
-0.0209647
-0.00335035
-0.00169806
-0.028022
-0.0167881
-0.00013985
-0.00205474
-0.0570009
0.000608884
-0.000709359
-0.0485497
-0.0119107
-0.00171471
3.0628e-05
-0.00150473
-0.00695571
-0.00112641
-0.00728968
-0.00399887
-0.0294068
-0.0341815
-0.00122334
-0.00273069
-0.000989863
-0.000133016
-0.00142459
-0.000970838
-0.000249836
1.93473e-05
-0.00029555
-0.00173142
-0.000542537
-0.00150016
-0.00153184
-0.00153522
0.000694582
-0.00103766
-0.00221825
-0.000863692
0.00197829
-0.0324447
-0.00169581
-0.0684917
-0.0640157
-0.0133432
-0.000940272
-0.00031385
-0.061491
-0.00254726
-0.0622421
0.00774669
-0.065771
-0.000726877
-0.000968098
-0.0410345
-0.00317014
-0.00730007
0.00650292
-0.00807717
-0.00212917
-0.00295843
-0.000559315
-0.00225298
-0.0161677
-0.0748447
-0.00147811
-0.0013358
-0.065145
-0.028155
-0.000938287
0.00658138
-0.00176029
-0.0111437
-0.00122233
-0.022938
-0.00847879
-0.00216193
-0.093325
-0.00849481
-0.00827626
-0.000492443
-0.0405525
-0.00015077
-0.0147689
-0.0282089
-0.0637704
0.00108941
-0.00224927
-0.013212
-0.0128627
-0.0918357
0.00589021
-0.0202543
-0.0337196
-0.0191259
-0.00483794
-0.0101229
-0.0616563
-0.0169238
0.00487718
-0.00477808
-0.00926924
-0.0131866
-0.0160675
-0.0665284
-0.0423629
-0.00285731
-0.00227923
0.00801115
-0.00853539
-0.00741609
-0.00471438
-0.00411471
-0.0208508
-0.0172098
-0.107621
-0.0195825
-0.0166944
-0.0149042
-0.00151346
-0.00136073
-0.000148786
-0.000225141
-0.00895555
-0.00609665
-0.000835852
-0.00144195
-0.0239689
-0.0022285
-0.0242038
-0.00801022
-0.0130683
-0.00824873
-0.0200612
-0.0034766
-0.0142947
-0.00709961
-0.00188584
-0.0442624
-0.000573695
-1.18219e-05
-0.00110451
-7.6254e-05
-0.0138887
-0.000895122
-0.00139491
-0.00278709
-0.00105297
-0.000189971
-0.000140888
-0.00134434
-0.00102192
-0.00167456
-0.0166301
-0.000252835
-0.00330484
-0.0022305
-0.000671068
-0.00993856
-0.0028548
-1.76845e-05
-0.00130332
-0.0255762
-0.00887315
-0.0449258
-0.0825044
-0.00255483
-0.00501053
-0.0216277
-0.000209747
-0.00347491
-0.0117696
-0.030861
-0.0145625
-0.000625162
-0.00580476
-0.000197928
-0.0163638
-0.0021722
-0.00215599
-0.000238338
0.000645124
-0.0192568
0.00700943
0.000716295
-0.0162899
-0.0193592
-0.0461861
-0.0018377
-0.00637783
-0.073281
-0.0380894
-0.0386669
-0.00313649
-0.00217058
-0.0283158
-0.00302344
-0.0129101
-0.00276977
-0.000438064
-0.0845593
-0.00112807
-0.000941031
-0.00098417
-0.0162423
-0.0149436
0.00173169
-0.00073368
-0.00858754
-0.000327435
-0.011683
-0.00144385
-0.0106975
-0.0228976
-6.33797e-05
-0.000997187
-0.0205184
-8.3904e-05
-0.0779562
-0.080705
-0.0199978
-0.00179878
-0.0153724
-0.029439
-0.0231871
-0.0181353
-0.00326432
-0.0290631
-0.000366669
-0.0166479
-0.00830452
-0.000777007
-0.0865787
-0.000941695
-0.103657
-0.00141456
-0.0341737
-0.00289685
-0.0561884
-0.0363983
-0.0232128
-0.000832607
-0.000581577
-0.0196614
-0.0116756
-0.00464532
-0.00115414
-0.0163973
-0.0642779
-0.00010516
-0.0168384
-0.0600899
-0.0164746
0.00136962
-0.00465838
-0.0101257
-0.0250701
-0.0513382
-0.0225973
-0.0275908
-0.00910181
-0.00752632
-0.00810645
-0.0947205
-0.032508
-0.0029023
-0.0016433
-0.0105879
-0.0104239
-0.00460465
-0.0136079
-0.000256606
-0.000650139
-0.0759309
-0.0147896
-0.0130177
-0.000998875
-0.047396
-0.00844276
-0.00404654
-0.00129961
-0.00316113
-0.0198495
-0.0125268
-0.000247678
0.000768053
-0.0390161
0.000893359
-0.0110221
-0.0687636
-0.000246381
-0.00852171
-0.0764283
-0.0118718
-0.0198271
-0.00254576
-0.00207556
-0.0982977
-0.00820002
-0.0059057
-0.00204121
-0.00036334
0.00180412
-0.00104327
-0.015884
-0.0331897
-0.00170418
-0.0841011
-0.000791152
-0.0763118
-0.0151291
-0.0433666
-0.0300179
-0.00697872
-0.0034122
-0.00259351
-0.0357959
-0.0632915
-0.00221365
-0.00250089
-1.71287e-05
-0.0017442
-0.0142814
-0.00151461
-0.0101227
-0.00716518
-0.0359892
0.00447568
-0.000157005
-0.0152653
-0.000141591
-0.00214235
-0.050856
-0.0223949
-0.0257614
-0.000722481
-0.00875525
-0.00122495
-0.0190273
-0.0972564
-0.00500797
-0.0346558
-0.0297515
-0.0307144
0.00287476
-0.020684
-0.00497458
-0.101684
-0.00533293
-0.00157821
-0.00145067
-0.0292033
-0.0154008
-0.0252391
-0.000657842
-0.00136778
-0.0671985
-0.0129151
-0.0826482
-0.000488858
-0.000410918
-0.0243588
0.00232255
0.000549641
-0.00143836
-0.00301053
-0.00086957
-0.0615462
-0.000642054
-0.000538854
-0.0226834
-0.00141943
-0.0129126
-0.0162293
-0.00199041
0.00254573
-0.000637849
-0.0275811
-0.0164918
-0.0163991
-0.0983709
-0.0150944
-0.0246251
-0.00194913
-0.00257175
-0.0278243
-0.0143078
-0.00875349
-0.058895
-0.000902754
-0.00700325
-0.00160795
-0.0800968
-0.00170713
-0.00154795
-0.0594418
-0.00208991
0.000367716
-0.0013567
-0.0396021
-0.0160203
-0.000295778
-0.0112548
-0.00812408
-0.00285734
0.00623633
0.000372692
-0.000570832
-0.000485154
-0.00176053
-0.0129422
-0.000512288
-0.0419317
-0.000560051
-0.0192198
-0.045151
0.00516459
0.00018864
-0.0019467
-0.013449
-0.0390926
-0.00571007
-0.0961455
-0.0241756
-0.000310409
-0.00102752
-0.0391525
-0.0186542
-0.0220602
-0.0581791
-0.0071622
-0.0201199
-0.000497812
-0.00187557
-0.0820463
-0.00258937
-0.001966
-0.0912799
-0.011248
-0.00133116
-0.00151241
-0.00239596
-0.00244127
-0.0171542
-0.0107612
-0.0323974
-0.033599
-0.0163696
-0.000482052
-0.00819039
0.00216405
-0.0205806
-0.029011
0.00236367
-0.00438736
-0.0162612
-0.0678437
-0.000242226
-0.0182733
-0.0281364
-0.0093682
-0.0073599
-0.0676278
-0.0211111
-0.021441
-0.0249273
-0.00299844
-0.00089573
-0.000264303
-0.00124173
-0.0027019
0.00596866
-0.00712231
-0.00234982
0.00504519
-0.00141515
-0.0566646
-0.00239511
-0.00325021
-0.00122067
-0.0116128
-0.000757726
-0.00361917
-0.0700803
-0.00672209
-0.0302887
-0.0182402
-0.00677504
-7.67141e-05
-0.00496698
-0.000606711
-0.0179348
-0.000503432
-0.0192849
-0.0233584
0.000165489
2.03158e-06
-0.00170163
-0.0274158
-0.0233792
-0.00621605
-0.00775968
-0.0726974
-0.0124048
-0.00194902
-0.0468552
-0.0319327
0.00162041
-0.00106788
-0.000889198
-0.000484555
-0.0151524
-0.000239369
-0.0389433
-0.000370591
-0.00823262
-0.000221339
-0.073491
-0.00152179
0.00719213
-0.0334197
0.00681967
-0.0031945
-0.0305353
-0.0191673
-0.0270995
-0.000523614
-0.00178489
-0.0321341
-0.000509199
-0.000718103
-0.00189868
-0.000634248
-0.00692949
-0.0292134
-0.0383976
-0.0420873
-0.000849256
-0.00854
-0.0197715
-0.0181256
-0.000705947
-0.0669332
0.00166296
-0.00721694
-0.00410411
-0.00738785
-0.0521386
-0.00306593
-0.00136133
-0.00319743
-0.0982098
0.000593359
-0.0152298
0.00525394
-0.00290022
-0.00174064
-0.00162404
-0.00742443
-0.0110866
-0.00213662
-0.0279908
-0.0157151
-0.00235533
-0.0107775
-0.0012066
-0.0200933
-0.0151807
-0.00255947
-0.0070099
-0.0166342
-0.00251795
-0.00537295
-0.0128433
-0.0498551
-0.000914275
-0.0193889
-0.011176
-0.0460191
0.00110901
-0.0286763
-0.0200565
-2.8287e-05
-0.0522283
-0.000492734
-0.0253978
-0.0333894
-0.00229109
-0.0145119
-0.0545155
0.00556941
-0.0951007
-0.00168821
-0.0407184
-0.0117115
-0.000663679
-0.0938806
-0.0463091
-0.0382485
-0.0409396
-0.0198516
-0.0161624
-0.0562365
-0.0752351
-0.000281927
-0.00127078
-0.00995018
-0.000205374
-0.00160754
-0.0918903
0.000154706
-0.003339
-0.000881922
-0.01107
-0.0273874
-0.000618145
-0.000609034
-0.0828076
-0.0162201
-0.0186097
-0.00557229
-0.00143142
-0.00307138
-0.01286
-0.0123944
-0.000735066
-0.073919
-0.000893584
-0.0328388
0.00523698
-0.013153
-0.00987557
-0.00583357
-0.00199174
-0.0010251
-0.0704499
-0.00306916
-0.00189164
-0.000610662
-0.0350137
0.00465767
-0.040403
-0.00127578
-0.0204279
-0.0012592
-0.00111994
-0.00085
-0.00128346
-0.0324095
-0.0317075
0.00513433
-0.000113446
-0.000916632
-0.000268382
-0.00196402
-0.0580191
-0.0265558
-0.00501759
-0.000877649
-0.000594356
-0.00877547
-0.0353352
-0.00184861
-0.05467
-0.000103901
-0.00132472
-0.00235182
-0.0611986
-0.0051379
-0.00952971
-0.0169713
-0.0154235
-0.0530366
-0.023213
-0.00248241
-0.00198018
-0.0493288
0.00601141
-0.000244094
-0.00564993
-0.0186188
0.000105107
-0.0383063
-0.0726979
-0.0967558
-0.00280863
-0.000292145
-0.00792038
-0.0520876
-5.51283e-05
-0.0766278
-0.0225767
-0.0101044
-0.0233158
-0.0200366
-0.0052691
-0.0142607
-0.00105773
-0.0494829
0.000620388
-0.00208123
-0.00312057
-0.00744441
-0.00929711
0.00885639
-0.000901735
-0.000173949
-4.06187e-05
0.0010292
-0.0170036
-0.0029273
-0.0098278
-0.00151739
-0.000695827
-0.0114624
-0.00875399
-0.00127867
-0.000982796
-0.0984243
-0.0976828
0.00217118
-0.0578598
-0.0308914
-0.0318137
-0.0171346
-0.00580825
-0.0186994
5.61591e-05
-0.0164204
-0.0166836
-0.000707725
-0.00598565
-0.00484094
-0.000409861
-0.0242542
-0.000448713
-0.0227245
-0.00169405
-0.00105261
-0.0198573
-0.0112293
-0.0544995
-0.00699341
-0.0379797
-0.00107296
-0.0542675
0.00143886
0.00506168
-0.0045605
-0.0145675
-0.000322062
-0.000898875
-0.018028
-0.0253787
-0.0543221
-0.00683088
-0.0554803
-0.0944929
-0.022971
-0.10111
0.00103214
-0.000842838
-0.0125311
-0.00190412
-0.00295927
-0.00173425
-0.00196188
-0.0203657
-0.020008
-0.0158124
-0.0111303
0.00255519
-0.00132988
-0.0266695
-0.000309773
-0.0276573
-0.0116462
-0.000877434
-0.0131639
-0.0310465
-0.0564569
-0.000705691
-0.098417
-0.0240505
0.00659947
0.00358158
-0.0630754
-0.0638918
-3.91208e-05
-0.000914449
-0.0232624
-0.000389189
-0.00853745
-0.00309469
-0.00156525
-0.00155063
-0.00145169
-0.00109339
-0.00169714
-0.00278545
-0.0192739
-0.0947139
-0.00325194
0.00693388
-0.0136921
-0.0309602
-3.51272e-05
-0.0230158
-0.000265007
-0.00170332
-0.0280977
-0.0292507
-0.0681269
-0.00106723
-0.0161983
-0.000211874
-0.0280159
-0.00745649
-0.0967721
-0.10312
-0.0163397
-0.00202711
-0.0120203
-0.000124633
-0.0165605
-0.00132829
-0.000838471
-0.0151588
-0.0285701
-0.00215148
-0.0332722
-0.0475371
-0.00128785
-0.0284342
-0.00865523
-0.000937733
-0.0595055
-0.00146592
-0.00100422
-0.00711844
-0.0161712
-4.92907e-05
0.00359101
-0.0196418
-0.0923658
0.00419722
-0.000569888
-0.0599979
-0.00424256
-0.00747612
-0.00109836
6.81406e-05
-0.0155902
-0.0180815
-0.00838973
-0.00617952
-0.0141271
-0.00153744
-0.00608075
-0.0236445
-0.00145412
-0.0270859
-0.0152479
-0.00587299
0.000314476
0.00104595
-0.000186447
-0.0382072
-0.047512
-0.0103126
-0.0530235
-0.00161967
-0.0123668
0.000643992
-0.000134138
-0.00375619
-0.0411777
0.000120456
-0.00166773
0.00738979
-0.00073674
-0.0175603
0.000298938
-0.0175555
0.00536376
-0.00171536
-0.0315792
-0.01328
-0.0180847
-0.00969836
-0.00597582
-0.000696144
-0.00197441
-0.0230573
-0.00184413
-0.0124891
-0.00524129
-0.0991817
-0.0002799
0.00126806
-0.00185964
-0.0203349
-0.00390571
-0.00496882
-0.0944748
-0.00859463
-0.0317043
-0.0119658
-0.000495655
0.00575299
-0.00257197
-0.00169447
-0.00306055
-0.0783413
-0.0130384
-0.000508636
-0.0268006
-0.0170616
-0.0569089
-0.00151009
-0.0228116
-0.0550727
-0.0363255
-0.00144556
-0.0049327
0.00287748
-0.00418409
0.00656775
-0.0424533
-0.00745027
-0.00362037
-0.013914
-0.00363785
-0.00837884
-0.0167655
-0.00199509
-0.0551142
-0.0268198
-0.0166375
-0.0013047
-0.00277535
-0.00816133
-0.0272124
-0.00316156
-0.00348541
-0.0632835
-0.0271752
-0.0164811
-0.0150585
-0.00928214
-0.0280917
-0.00284227
-0.0236116
-0.0260972
0.00308518
-0.0791053
-0.0195126
-0.00169614
-0.000350028
-0.00491475
-0.00173491
-0.000383587
-0.00172015
-0.0132598
-0.053465
-0.005683
-8.90377e-05
-0.0187455
0.00195806
-0.000499338
0.00108189
-0.0542165
-0.0173311
-0.0713914
-0.000496219
-0.0198661
-0.0573262
-0.0378529
-0.00827083
-0.000461714
-0.0773934
-0.023841
-0.00730693
-0.0957414
-0.0160856
-0.060454
-3.52849e-05
-0.016982
-0.00768053
-0.00118431
-0.0639205
-0.0324127
-0.0942434
-0.0949284
5.13767e-05
-0.0692436
-0.0396689
-0.00370579
-0.0529088
-0.00175886
-0.0383892
-0.0258007
-0.038435
-0.0014457
-0.0382388
-0.0593514
-0.000268106
-0.0068533
-0.0693235
-0.082469
-0.0160117
-0.0020201
-0.0466388
-0.000629033
-0.0164062
-0.0343706
-0.00662341
-0.00588327
-0.00232441
0.00209281
-0.0159796
-0.00165117
-0.0518441
-0.0423877
0.00312518
-0.0192545
-0.00508287
-0.00434596
-0.00890429
-0.0702788
-0.0320408
-0.00473927
-0.0694346
-0.0262153
-0.016873
0.0101837
-0.00193267
0.000240873
-0.0278
-0.00194064
-0.0598884
-0.0280849
-0.0180269
-0.00676317
-0.0155559
0.00343811
-0.00115662
-0.0629235
-0.00232684
-0.0172536
-0.00145871
-0.0768594
-0.00764024
-0.00356912
-0.0217134
-0.00570792
-0.000325021
-0.0626552
-0.0640988
-0.00154437
-0.000327442
-0.0167881
-0.0148628
-0.0648004
-0.000199644
-0.0632357
-0.051039
-0.0349188
0.00388304
-0.0525584
-0.0453859
-0.0195532
-0.110367
-0.00102068
-0.0734525
-0.000658427
-0.0616358
-0.0231859
-0.0283629
-0.015955
-0.0177095
-0.000314907