/*--------------------------------*- C++ -*----------------------------------*\
| =========                 |                                                 |
| \\      /  F ield         | OpenFOAM: The Open Source CFD Toolbox           |
|  \\    /   O peration     | Version:  v2012                                 |
|   \\  /    A nd           | Website:  www.openfoam.com                      |
|    \\/     M anipulation  |                                                 |
\*---------------------------------------------------------------------------*/
FoamFile
{
    version     2.0;
    format      ascii;
    class       volScalarField;
    location    "400";
    object      ddt0(epsilon);
}
// * * * * * * * * * * * * * * * * * * * * * * * * * * * * * * * * * * * * * //

dimensions      [0 2 -4 0 0 0 0];


internalField   nonuniform List<scalar> 
33474
(
8.49553e-11
-2.62316e-10
0.00348766
-1.79278e-10
3.4811e-09
3.92752e-05
-1.39431e-10
-8.33433e-10
5.88277e-10
-1.02651e-13
8.54414e-11
-2.52832e-10
4.5576e-10
7.5719e-10
-2.33507e-08
-2.80002e-09
-4.43446e-11
5.676e-08
0.00261353
1.34262e-10
2.95136e-11
-7.05555e-10
2.20306e-10
1.85723e-05
1.03869e-06
-3.18022e-11
1.89553e-10
4.70115e-05
0.000500678
1.54876e-10
-4.75693e-10
4.23877e-09
0.000170998
-6.12529e-10
1.85822e-07
-4.34324e-08
-4.11333e-10
7.13964e-10
-1.34317e-09
1.0928e-06
-2.30905e-11
0.0010345
-2.52146e-05
3.57762e-11
-0.00104833
0.186283
4.08356e-13
1.7074e-08
-3.58353e-10
-5.82896e-09
-3.11364e-10
-5.67823e-10
4.59377e-06
-0.00109564
2.83783e-09
1.46547e-05
3.33821e-10
-5.63444e-10
0.000234484
-0.000103147
4.74084e-10
1.98299e-09
0.000570383
6.5767e-11
1.2717e-10
4.96541e-10
-0.0065217
-0.000888071
1.55677e-10
0.000776914
3.95093e-10
1.78643e-09
1.93214e-12
-3.20659e-11
-2.25239e-10
5.40798e-10
-1.91693e-10
-7.54752e-12
2.63829e-09
1.27226e-08
0.000751945
-1.43178e-09
0.00192005
3.76999e-10
7.22635e-10
0.000531404
1.75381e-07
0.000571115
-0.00562787
2.11962e-11
1.14759e-07
8.4162e-10
-2.13761e-08
6.68421e-11
4.08582e-10
-5.91529e-10
6.71882e-11
1.97455e-09
1.50023e-11
-0.00124123
7.29392e-12
6.68511e-07
-0.000658006
-5.16377e-10
1.97966e-07
-0.000515208
9.09001e-06
-6.15173e-11
-7.66861e-11
-4.50082e-08
1.31558e-08
1.27808e-09
-0.00098991
2.40309e-09
-9.72508e-09
0.00126582
9.67038e-10
-1.26165e-09
2.76215e-10
-2.41328e-11
-6.96877e-11
-7.80219e-10
4.32155e-10
-1.91973e-10
1.77611e-06
0.000206132
7.89346e-10
-2.54382e-10
0.00137516
0.00045677
3.30269e-06
-0.000167328
0.132329
1.41649e-10
2.1099e-10
-1.02976e-10
-2.35347e-10
-7.3691e-10
3.53542e-10
4.94612e-10
0.00177379
0.00167721
2.57741e-09
-3.84339e-10
-6.80671e-09
1.19117e-08
0.000262495
-4.27898e-11
7.88212e-10
2.02711e-08
-4.88627e-11
6.62162e-10
1.47161e-10
5.37169e-10
-8.96167e-10
-3.62241e-11
0.000467655
-4.51843e-11
-8.52936e-10
0.000188862
-3.20002e-09
1.62408e-09
0.00172731
-2.60026e-10
-0.000449901
-1.50335e-09
7.30604e-12
-1.61886e-10
-2.08062e-10
-2.91688e-10
1.9474e-09
-1.58818e-10
1.08414e-10
-0.00204432
-2.2912e-10
-4.85586e-10
0.00154669
4.6116e-11
4.0828e-05
7.48701e-10
-7.84855e-10
-3.26965e-10
4.93184e-10
0.000600172
-1.84082e-10
-2.53497e-09
-8.22031e-12
0.000721698
0.000392732
1.75127e-10
-1.6582e-10
-0.0687292
1.31497e-10
-2.5174e-09
0.00185767
1.27002e-08
1.07894e-10
-5.11863e-10
0.000428103
4.22854e-10
-1.10816e-10
9.29128e-05
-8.41811e-10
-2.19432e-09
8.82465e-10
-9.03649e-11
-6.45862e-06
-3.95731e-09
1.0685e-08
-1.761e-06
-4.65592e-11
-0.000425505
4.21833e-08
-2.46434e-11
-3.82814e-12
-0.00441692
1.27655e-09
-0.000155612
1.68797e-09
-9.36437e-11
-4.82954e-07
-1.22444e-10
-1.0652e-10
1.86125e-08
2.96769e-05
-6.79387e-10
-1.35111e-08
-1.77513e-11
0.000361377
-0.000445839
-2.01234e-10
-2.85794e-05
4.79308e-10
0.000443231
0.000273023
-9.2935e-10
-5.29868e-12
1.94014e-07
3.63344e-10
-0.000302274
-4.85682e-08
-1.48225e-05
-2.32657e-11
1.45063e-10
4.1142e-10
0.00120329
-1.18549e-09
-4.88309e-10
-3.22706e-06
2.6793e-10
9.9014e-05
1.4006e-10
0.000944289
-0.000204203
7.52196e-05
-2.07099e-11
3.15419e-11
1.94605e-09
0.000917039
0.00196041
-8.81641e-10
2.29921e-10
4.1593e-14
-7.27184e-11
-2.80954e-10
5.02058e-10
-0.000300302
9.70264e-10
-7.69755e-11
-4.90812e-08
8.82426e-11
3.40273e-10
1.05131e-10
1.4775e-09
-0.002394
-1.20254e-09
9.65054e-08
-0.000227406
-1.48732e-09
-1.73363e-10
-5.72309e-09
-6.43435e-10
-3.91709e-10
-1.50056e-10
5.89575e-10
3.47302e-11
-4.60174e-10
-0.000242299
2.80418e-10
9.13316e-09
-0.00462752
2.67251e-09
-6.10603e-11
-0.00207748
0.00153986
-0.00165307
-2.8336e-10
-4.08592e-07
3.35493e-06
1.1742e-07
-5.12735e-05
0.00102677
-0.000294143
-1.01684e-10
6.03463e-05
-3.51089e-10
2.05089e-09
-0.00173329
-6.47265e-05
-5.50133e-11
1.07722e-09
-9.5537e-10
-5.17249e-11
-4.16585e-10
-3.10559e-10
0.00313928
2.22256e-10
2.38838e-05
-5.42173e-10
0.00218667
-9.02629e-11
3.11753e-09
-1.54777e-09
-5.8387e-10
1.31553e-10
1.59967e-08
-1.65852e-10
-3.3413e-10
-4.08663e-11
-1.27523e-09
0.00807129
-7.09407e-10
1.00021e-09
1.39156e-09
-1.21505e-10
-0.000860311
-3.11793e-08
-7.96053e-12
-0.0150641
-0.00111792
1.27018e-11
2.66002e-05
-1.92389e-10
-2.17354e-10
7.05283e-11
-0.000216232
-2.52533e-09
5.62342e-11
-1.62476e-09
8.99842e-11
-6.28373e-10
0.00316709
1.42642e-09
0.00113187
-0.00163392
-0.00364535
-0.0622025
0.00317487
-1.66731e-10
-7.87475e-12
1.50813e-07
8.65224e-11
0.000611472
2.81262e-10
-2.4572e-09
0.000672219
-3.63828e-11
2.29188e-11
8.55066e-12
-3.28847e-05
-1.42793e-10
-9.86614e-10
0.000846279
3.94136e-10
-2.19568e-10
-0.000108633
0.00175047
-4.04852e-10
-0.000297711
1.32884e-10
0.000492823
0.00120861
-6.89661e-10
1.89234e-11
5.866e-08
2.48486e-05
-5.30724e-10
6.41452e-10
-4.93395e-10
-0.00017119
-0.000227266
-3.3479e-11
1.26766e-09
-2.24774e-05
-7.06071e-10
-1.68168e-10
2.26259e-11
6.66175e-09
-9.78846e-11
-2.4508e-10
-0.00342945
0.0011938
-4.64273e-11
-2.61183e-08
-1.6775e-11
2.73472e-11
0.00113304
-9.50541e-08
-2.57286e-10
6.51879e-11
-2.00256e-09
0.000162347
1.54019e-11
0.00109914
9.3773e-10
1.48314e-10
-1.22148e-11
0.000823643
4.18237e-10
-0.00184626
-1.53655e-09
0.000610491
-0.00117011
-1.27901e-09
-0.00132933
1.08043e-09
-2.51378e-05
-0.000339464
-5.77041e-08
-0.00117556
2.25671e-10
-0.000630459
-0.000646078
-5.34892e-11
-2.0535e-10
-4.45397e-10
-1.7498e-09
-2.86654e-09
-6.67905e-11
3.93005e-10
4.2915e-09
3.89846e-11
-8.01329e-11
1.13783e-10
-0.000170865
0.00121968
-1.62309e-10
-1.58e-10
-4.21418e-10
7.59719e-11
-1.17256e-09
-0.00123097
5.38264e-10
-1.46565e-09
0.00307118
2.68853e-11
8.16146e-11
-9.20212e-10
7.76178e-05
-8.85643e-09
0.000479854
-0.000402318
0.00381846
0.00128539
0.000624466
-0.00168425
-4.37507e-10
-0.000276466
6.11798e-11
-2.85854e-09
0.0010517
5.98425e-11
-0.00124558
0.000164648
0.00120348
-5.81164e-08
-2.74483e-10
-5.57133e-10
-1.22605e-09
4.13889e-10
0.00128837
-1.11369e-10
-0.00103596
0.0167121
-6.66028e-11
-0.00027166
-7.23529e-05
-7.02518e-11
0.0010058
3.25957e-10
1.1122e-09
-6.47482e-10
0.00306628
-5.4357e-11
3.33234e-09
4.45698e-11
1.83445e-09
3.73125e-10
0.00158462
1.72981e-10
-0.00118438
7.07869e-11
-6.99647e-10
-0.00195802
-1.83071e-09
1.42154e-08
8.18409e-05
-3.60817e-09
0.000896314
0.0011999
-0.0281833
-6.58597e-10
-4.64166e-10
-4.49091e-10
2.62104e-09
4.12079e-05
5.68444e-10
-0.00126749
-0.00113467
-5.11809e-10
2.3924e-10
-2.26793e-10
0.000297961
4.91793e-10
-1.72792e-07
-2.33779e-07
-0.000119704
0.000534322
7.52026e-05
1.90522e-11
-8.39999e-10
1.91715e-07
3.01661e-10
0.270011
2.35149e-10
0.00298679
1.12916e-09
-0.00134997
-0.0002926
1.44635e-09
0.00478536
-1.62957e-05
3.55377e-09
-1.20716e-09
-4.66208e-08
-0.00185551
0.00472893
-1.87085e-10
-0.000203192
3.00532e-05
3.20442e-10
2.60087e-08
-1.19396e-09
0.00223959
-4.28272e-10
1.3187e-10
-5.56355e-09
-3.54483e-10
1.1018e-10
-0.00190159
3.50259e-10
1.51081e-10
-3.25354e-12
-1.43101e-09
-8.32582e-10
-1.18511e-09
-0.000994967
6.26934e-10
8.72324e-05
6.24945e-06
-6.79698e-10
4.55176e-10
6.52926e-07
6.09018e-12
-0.000490975
2.27926e-10
9.59993e-11
-0.00182239
-1.63132e-11
2.90809e-10
2.66442e-09
0.000459677
-4.58966e-05
0.0013565
3.66738e-10
-3.73172e-11
5.15426e-05
0.000488711
-1.08719e-10
8.69649e-10
-8.69106e-11
-3.13083e-09
0.00507567
3.87516e-09
-5.3784e-12
-1.71197e-10
-7.52444e-11
1.31576e-11
-5.75321e-05
2.44309e-10
-0.000349086
1.24441e-10
-1.49325e-11
-7.86505e-10
-0.000342564
3.16162e-10
4.48142e-08
1.88002e-10
1.64969e-07
-3.32068e-11
-6.51208e-10
-7.33433e-11
-3.61859e-08
-1.11582e-12
5.25193e-10
-0.000214406
0.000346982
1.2058e-09
4.5978e-10
1.57001e-10
-2.78431e-10
-0.000184141
-9.13022e-08
7.44899e-05
0.00163516
-1.19376e-11
1.18861e-10
3.6071e-10
-1.91337e-11
4.15175e-10
-2.80917e-11
0.000180691
-2.41231e-10
-3.2617e-08
-0.00130006
8.01931e-05
-1.06271e-10
-0.00972788
0.00119441
-5.157e-05
0.00106529
5.46108e-13
-1.44472e-09
-1.43891e-07
-0.00123541
-8.89973e-07
-0.000199681
8.88745e-12
3.35483e-07
5.84358e-11
-0.000487317
3.91155e-10
6.80277e-07
1.26074e-07
-1.23859e-09
-1.49239e-12
3.55033e-10
-4.00924e-11
-4.41445e-08
-1.30572e-10
2.37021e-10
1.00458e-10
0.000100929
-4.19716e-10
0.00462806
1.21615e-10
-0.000971272
-2.24382e-10
-0.000148162
-2.21734e-08
0.00300411
0.000767481
-9.02694e-12
0.00560313
-1.50395e-09
-6.812e-10
-0.000833156
5.4482e-10
-1.36952e-10
3.07001e-10
6.66576e-11
1.12374e-08
1.23551e-10
-3.87685e-10
-0.00034988
1.53647e-09
5.61793e-12
0.0034833
4.00043e-05
-0.00165932
-0.00282932
-0.000526804
-0.00158013
1.84473e-10
-0.000312437
4.35819e-10
-2.65888e-09
-3.44379e-09
0.00133159
3.80508e-10
-4.26428e-07
-2.40707e-12
-3.02685e-06
3.18195e-05
-2.69925e-08
6.76167e-10
4.33566e-10
6.11811e-10
0.00131161
3.93235e-10
-3.26284e-10
2.29055e-09
4.83022e-07
-0.00167898
3.57873e-10
-0.00143621
4.29112e-10
0.205243
4.22374e-09
-8.45247e-11
5.46008e-10
9.68147e-11
6.6527e-10
-3.1032e-10
4.39662e-11
2.85399e-11
8.01717e-11
5.17541e-10
-0.000726451
-1.21196e-10
5.08212e-05
-0.000101355
-8.78965e-10
8.10545e-08
5.50216e-07
-7.37534e-11
-1.03535e-10
1.40885e-10
3.55541e-10
0.000495833
-2.40546e-09
-3.36727e-09
-3.85683e-10
0.000689647
0.00209182
-3.14588e-05
0.00250313
0.000581807
-6.10689e-10
-8.51933e-10
0.000710922
1.09261e-07
8.44187e-09
2.49542e-10
-7.08205e-10
5.70194e-10
-2.29721e-09
-0.000994453
1.05171e-10
-6.01899e-05
1.70145e-10
1.69818e-09
-3.37299e-09
1.30304e-07
2.38715e-10
0.00173459
1.4508e-10
-2.12397e-10
-2.08687e-11
0.00109703
-0.0027577
-1.9539e-10
-4.44645e-10
0.00101233
7.88615e-10
-1.85567e-05
-2.5099e-10
0.000418182
4.02784e-10
-2.08283e-10
0.00168783
-9.1888e-08
-0.00138709
0.00170055
1.40513e-10
9.01856e-11
1.12318e-09
-1.05849e-09
-0.00162408
2.39953e-10
1.5095e-07
1.3722e-09
-1.70064e-09
0.00120908
1.19371e-09
0.00141969
-2.23242e-05
-0.000368283
0.000957575
3.66511e-05
4.28883e-11
-3.50585e-11
-3.80001e-10
3.63159e-06
1.93921e-08
1.8317e-07
5.48709e-12
4.41236e-10
0.00456223
-0.000876463
-3.00615e-05
-2.0913e-10
4.2895e-07
-9.15473e-10
2.59281e-11
-3.61476e-11
6.90154e-10
1.00441e-06
-1.06157e-10
-1.92089e-07
2.17057e-09
-4.75651e-10
1.03324e-05
-4.04561e-11
-2.34981e-10
-0.00112201
9.75448e-05
-3.2715e-10
0.00265404
2.47917e-10
3.3839e-10
2.67789e-10
2.05544e-10
2.6851e-12
-2.49775e-10
-8.23435e-11
0.00206584
-0.000121258
3.77195e-10
-1.85674e-10
-0.00474783
-4.16159e-07
-1.2434e-09
-1.87805e-10
-1.78818e-10
5.79559e-10
3.94654e-10
-3.28107e-11
3.36163e-09
-1.54543e-09
-0.000362295
2.25834e-10
0.00067594
-7.73606e-11
-1.25853e-11
3.76191e-10
0.000772384
-8.55189e-10
1.50437e-09
0.00423063
1.07578e-08
9.33938e-10
-0.00211922
0.00125784
-0.00205102
-0.0009105
6.46378e-07
0.00763797
8.29493e-10
-0.0201826
-1.4738e-05
-1.23926e-10
-8.06185e-05
-0.00164562
-1.11839e-10
-5.16577e-07
-2.71409e-10
-2.66524e-10
-0.00135498
0.00291211
-1.34092e-06
1.43691e-05
0.000725531
-2.30123e-10
-8.74864e-10
7.46127e-11
1.3655e-08
4.01208e-10
8.86387e-10
0.00303477
0.00126867
-1.33761e-12
-1.73014e-11
0.000134887
1.10571e-08
-2.14e-11
-0.000868642
-1.28861e-10
0.000678836
-2.15281e-10
-0.000384645
-0.002152
0.000276634
-5.60093e-10
-1.04887e-09
-4.8798e-10
2.6119e-10
9.84561e-07
-8.24154e-09
4.92685e-07
7.41065e-09
-8.50111e-09
-4.9382e-10
9.8921e-11
0.017715
0.000126343
-4.80525e-08
0.00121315
8.75751e-10
-6.26777e-10
3.28244e-10
-4.33517e-10
-2.11741e-09
0.000531657
1.46932e-05
0.00104889
-7.02472e-10
-0.000110055
-2.92519e-10
0.000920448
-2.81753e-07
-0.00155796
-9.55019e-10
5.74493e-07
0.00485827
-0.00119317
-2.61191e-10
-5.34786e-05
0.000946138
5.70196e-12
1.5974e-09
0.220327
7.50855e-10
0.000694135
2.48502e-09
-2.41853e-10
1.00242e-09
0.000212766
5.17621e-06
6.40292e-10
-1.52489e-11
4.85295e-10
1.16457e-05
-3.95982e-05
-1.22531e-09
3.26446e-08
-0.000893907
1.84519e-10
-3.36456e-11
-1.04915e-11
-0.00147372
0.00325469
-0.000472352
-2.41988e-11
-1.69564e-10
0.00133001
1.30576e-09
-2.62627e-10
-9.49915e-10
1.89368e-09
-1.39337e-10
-5.33847e-10
0.00114749
1.1441e-09
9.06902e-05
0.000487176
2.9086e-10
0.000388962
-0.000503283
1.18433e-11
7.67265e-10
0.000804394
-7.47988e-10
2.06687e-11
1.57338e-09
-2.49733e-10
2.85414e-12
1.17685e-10
-2.71503e-10
-5.0785e-10
-0.00124833
5.28507e-10
-0.000457104
7.70592e-07
3.90374e-11
7.84352e-06
-7.03797e-10
5.39591e-05
1.5905e-10
1.92971e-08
1.39302e-09
7.27006e-11
2.02213e-10
0.000216121
-3.58547e-11
3.32844e-08
-0.000239188
4.80064e-09
-2.72085e-11
0.00049725
5.46894e-10
0.000317492
5.3415e-10
-2.67248e-10
-9.35619e-10
3.49475e-10
-6.09826e-10
-0.000762792
6.29793e-10
-0.00106939
2.04103e-08
-2.46906e-12
-1.53521e-09
1.43268e-06
-5.4866e-11
0.0010373
-4.04982e-12
0.00211146
1.19903e-05
-1.60261e-10
0.00354813
1.73709e-09
-3.85539e-11
4.44301e-10
-0.000422873
-7.34582e-10
-0.000388656
-1.2716e-09
-9.44627e-10
-2.37723e-10
-4.08894e-10
-7.81213e-12
-7.66166e-10
6.19761e-11
6.22633e-11
2.02727e-08
-4.25228e-10
-4.07744e-11
-1.98029e-09
-0.00165634
0.00301795
-0.00037352
0.000163788
5.00592e-10
0.000456953
4.17301e-06
-1.71136e-07
-2.3466e-10
-0.00130048
1.48397e-10
-4.6269e-11
1.9739e-11
9.75098e-10
3.09255e-11
-0.000269048
2.73364e-10
0.00263057
-6.23095e-12
9.45605e-10
4.24001e-10
-1.36285e-10
0.00152759
3.8247e-12
-4.39255e-13
-2.83654e-07
5.0701e-07
-4.8128e-08
-2.00697e-09
0.000477656
-0.000109157
2.66773e-09
0.000968249
-2.6836e-10
0.000269577
-0.000313718
2.18643e-09
-1.0085e-09
-1.15152e-09
2.63084e-09
-0.000809293
-4.62081e-10
-6.69889e-11
-0.00109964
1.34331e-10
-7.72121e-09
0.000688774
4.96889e-10
-0.000164586
-2.10586e-11
-1.05566e-10
-8.22616e-11
-6.63316e-10
-1.38644e-10
2.72351e-10
0.00103453
6.83003e-11
1.29569e-10
-1.40446e-09
5.58409e-11
0.00130568
1.07632e-10
-6.56138e-10
-7.53625e-11
1.0258e-07
-1.87737e-09
-6.07664e-10
1.00588e-11
1.84666e-09
-9.41686e-11
-0.00121282
1.35878e-09
-1.30183e-08
0.00010756
-3.47154e-10
2.53861e-09
-5.29401e-10
0.00100975
2.32792e-10
-5.713e-07
5.28783e-10
-6.41645e-10
-4.31965e-10
-3.63212e-12
-5.02589e-11
0.000684358
0.000715786
4.23211e-05
1.13221e-09
-1.11906e-09
-1.67518e-10
-5.0493e-10
2.48336e-07
1.07271e-10
3.86277e-10
-4.71247e-08
-0.00625768
7.74907e-10
2.27519e-10
8.9403e-11
-1.76539e-10
-0.000158688
-1.94678e-07
0.000363007
-5.10558e-10
4.35532e-09
0.000838628
0.000377899
4.69876e-10
2.24112e-09
3.45542e-10
1.49915e-10
-3.78618e-05
0.212908
9.00506e-10
4.61282e-11
1.0386e-05
2.7687e-10
-0.000996761
-4.4492e-10
-1.15893e-09
-1.59334e-10
5.48388e-10
2.9281e-10
0.140834
-3.05831e-10
-0.000216974
-0.000614378
-4.38832e-08
-0.000613311
-0.00100888
1.27492e-10
1.83443e-09
5.61775e-09
-3.92972e-10
-0.000889913
-5.38365e-10
-7.53602e-10
0.00161709
-4.68063e-08
-0.00467094
-1.49869e-06
0.000108278
-8.828e-10
1.67533e-11
-0.000241796
1.14194e-10
1.15974e-09
2.406e-10
0.00111643
1.75568e-10
0.000414451
0.000871213
9.99634e-11
-2.6331e-10
4.73768e-10
0.00166016
-2.96482e-10
-0.000307687
-0.000652344
4.29286e-11
-2.38978e-08
-9.19037e-08
-8.48704e-11
4.45316e-10
4.12167e-10
8.70484e-10
0.00179082
-2.05047e-10
-1.49916e-09
1.40866e-08
-0.000926499
-5.24436e-11
-0.000383218
6.6148e-10
-1.09361e-10
3.8834e-10
-4.0422e-10
2.53434e-11
9.37932e-11
2.28912e-10
0.000945224
2.49034e-11
3.73837e-10
-0.000916982
-2.12824e-10
2.48463e-10
1.18668e-10
4.43882e-10
4.63747e-10
0.000533406
2.55215e-10
0.000992401
-0.0121283
0.000212431
-0.000150321
2.16943e-11
-1.08456e-11
-9.40329e-09
-4.25193e-10
-3.37097e-10
1.56197e-10
-1.32849e-06
2.049e-10
-0.00015084
0.00640195
3.58207e-10
1.74815e-10
2.40005e-10
-0.000716786
8.14001e-11
7.74868e-07
4.21308e-10
1.02804e-09
-6.54317e-10
-4.19331e-09
-5.05822e-07
-5.58713e-10
5.61573e-12
4.71173e-09
-0.000248358
-0.00049333
-0.000760659
1.04936e-07
1.83137e-10
-0.000152504
-4.4014e-10
-2.95544e-11
-3.13998e-12
-5.63692e-11
-0.00516284
1.05121e-11
0.00828635
0.000742015
-5.35168e-11
-3.40308e-10
4.29637e-10
1.10798e-10
-3.82448e-10
-0.000193507
4.11184e-10
-1.65754e-09
6.89807e-07
-1.7157e-08
-0.0009108
0.00196274
0.000111432
-1.3313e-10
2.06361e-05
8.00649e-11
1.72054e-06
2.71478e-11
0.000982664
0.000643055
3.923e-11
-2.19333e-10
0.00117596
-1.13495e-10
8.79524e-07
-0.000112169
0.00529093
-0.000863512
5.22158e-10
0.000307106
-0.00146091
-5.16135e-07
4.0112e-10
-0.000173414
-9.80097e-11
-3.88478e-08
-0.000188276
3.52439e-06
0.00012192
-0.000803445
-0.00350948
-1.30183e-11
2.85157e-09
-5.93081e-10
0.00193063
2.29891e-10
-1.4293e-11
4.43257e-10
0.000612285
-7.9042e-11
6.65316e-06
3.20263e-10
-1.1558e-10
-0.0203388
-0.0153882
6.67266e-11
-7.61788e-10
2.40962e-10
-0.00249325
-1.31504e-10
-3.47739e-11
-6.85372e-05
-1.87652e-09
-5.6788e-05
-2.72692e-10
-1.5053e-10
-4.32711e-11
4.96488e-10
-0.00126744
-3.25532e-10
0.000818986
-5.57566e-08
2.53184e-10
-3.56373e-11
0.00197872
-8.01612e-11
-3.69984e-11
-6.97554e-11
2.56655e-10
-6.15972e-08
8.31838e-10
-3.67154e-09
4.96756e-11
2.95159e-06
6.09062e-11
1.43926e-10
-1.82025e-07
-1.03512e-06
7.9627e-08
4.96237e-10
-0.000957597
-0.00172206
5.05351e-05
-2.27896e-09
-1.15756e-09
-7.43649e-11
0.00272014
1.77053e-10
-1.65755e-12
5.52696e-11
1.36256e-09
-3.18968e-09
-6.83482e-10
1.27996e-11
-2.44136e-07
-6.81381e-11
-0.00190096
0.000342878
4.53052e-10
-0.00141232
0.000136859
0.00163666
5.79869e-10
-4.6208e-10
4.63424e-11
-3.14746e-10
-5.64138e-11
-1.48713e-10
5.05878e-10
-4.00675e-11
1.59808e-10
9.0275e-11
-0.000125357
-1.04461e-10
-0.000276136
5.26421e-08
9.04344e-05
-1.44026e-09
-8.60894e-11
1.91477e-09
6.65288e-10
-0.000491037
-3.42238e-10
-6.84428e-10
1.27135e-05
0.000927975
2.83575e-10
3.55556e-09
-5.6408e-05
0.000354396
-2.01862e-10
-0.000248202
0.000739536
4.74924e-09
4.69251e-10
0.000629401
1.31096e-09
-1.60345e-11
-2.32451e-11
-4.73399e-08
-1.54134e-10
-0.00415308
0.00228432
0.00425827
3.82191e-10
-4.43267e-12
-1.16588e-09
0.00892592
3.71751e-10
-2.4578e-11
1.2002e-09
0.00196639
0.00194478
-3.77067e-09
5.38717e-08
4.99948e-09
-1.10825e-09
-2.208e-10
-0.000211191
9.10707e-10
-8.56576e-10
1.44507e-09
0.000286889
-2.77985e-09
-4.58771e-10
2.66209e-10
-1.26371e-09
2.53311e-10
-8.44033e-11
1.71694e-08
-6.15293e-10
-4.73723e-05
-3.49995e-10
-5.20377e-10
1.39772e-11
1.72929e-05
-2.41768e-09
-4.41939e-09
0.00227068
0.00074935
-1.05134e-11
-1.75325e-10
8.46077e-05
3.69401e-07
-2.59786e-09
-1.60542e-09
1.71324e-10
1.41193e-09
1.751e-11
0.0508904
0.00239278
3.03708e-09
-1.38754e-07
0.000805603
0.000379011
2.23429e-10
-8.54638e-10
-5.66337e-08
8.51303e-11
-6.17146e-10
0.00193839
-2.72582e-11
9.01206e-13
3.92212e-10
0.000687504
-0.00091065
-4.48846e-05
-0.000235333
1.69564e-10
0.00116722
0.00085613
-0.000336653
7.71216e-11
1.01849e-10
9.89554e-09
1.77654e-11
-0.00100807
7.4916e-10
2.727e-11
5.82026e-10
-1.00186e-06
2.94e-09
-3.79598e-11
0.000372866
9.80171e-10
-0.000506601
-1.22881e-08
7.49476e-10
4.91617e-08
-0.00156127
1.50533e-10
-8.12995e-11
-1.37036e-10
0.00239178
2.6813e-11
6.11175e-10
0.00117731
0.000834106
2.87489e-05
-7.89009e-10
-2.18388e-12
0.000154015
2.51273e-10
-4.18462e-10
-2.09873e-10
0.000968025
-2.13751e-11
1.6772e-07
4.99132e-10
5.54197e-05
-0.00017108
3.03147e-09
0.000727012
1.27077e-10
-0.0165573
-1.57276e-10
0.000200745
-5.83719e-10
4.59465e-09
-0.000478104
-0.000308094
-9.39539e-10
-1.56e-09
0.000712176
-5.10589e-10
-3.04554e-07
3.66217e-10
-2.93424e-11
-0.000228661
2.45305e-11
0.000626451
5.55973e-10
-2.30701e-11
-4.80602e-10
7.12413e-10
-8.47932e-11
2.07034e-07
3.55587e-10
0.00170186
-8.75487e-10
-0.0064716
-3.08426e-05
9.37631e-10
-2.93864e-10
5.56823e-05
-1.40593e-10
1.28682e-09
0.00273981
-6.15589e-10
-0.00325057
-2.99546e-10
-1.36918e-09
1.22313e-11
2.74515e-09
1.95864e-10
0.00042327
0.00316921
-0.00396982
-0.000513227
-7.74129e-10
3.60398e-08
6.48774e-05
0.00109106
-0.00377689
5.43985e-10
-0.0210504
0.00259203
2.67356e-10
-1.16058e-08
2.522e-10
0.00128915
9.10052e-10
6.57129e-10
-6.38776e-10
-2.02048e-09
-5.35731e-10
0.0001415
4.92469e-10
-4.43103e-10
0.00278379
9.38559e-11
-1.73123e-05
-5.23274e-10
0.00300115
4.0114e-10
-9.31661e-11
6.52635e-10
-4.36821e-11
9.17449e-09
-6.44077e-12
3.07327e-05
-3.41969e-11
0.000627726
0.000367099
1.83316e-10
6.49367e-10
8.18308e-09
0.000751142
-4.64148e-10
0.000180828
-0.000427854
6.32619e-10
0.00112601
-0.000568151
3.92884e-11
0.000358248
4.2951e-10
-9.93898e-10
-1.12677e-11
5.76403e-10
2.56064e-11
-3.2683e-10
2.02527e-11
0.00410193
-1.65398e-07
0.00287088
-8.61769e-10
-7.09731e-10
1.71258e-10
-6.41713e-10
4.25098e-10
4.13187e-11
2.88386e-12
-2.73962e-10
0.000521607
-0.000466621
0.00030642
2.63505e-09
1.41716e-10
2.25548e-10
-2.789e-10
9.32747e-07
-0.0187819
-2.67624e-10
-5.52604e-08
0.00172342
-2.08746e-09
0.000647177
3.017e-10
9.63024e-11
6.93147e-07
-4.96681e-11
-9.38563e-10
-1.44996e-11
6.18821e-10
-2.25285e-10
-1.22814e-11
-6.87391e-10
1.15948e-10
5.85317e-11
1.14814e-10
-0.00155078
-1.31046e-11
-4.7997e-07
-0.00319693
7.52716e-07
7.07838e-12
-1.10896e-10
1.24279e-09
1.854e-09
3.13587e-11
-0.00146288
-6.70603e-11
8.38881e-10
-0.000133568
0.00199825
5.51367e-09
0.00693047
-2.99324e-11
0.00251802
-7.6171e-05
5.02153e-10
-1.61168e-09
4.83783e-10
2.91397e-06
0.000500013
-0.000287013
3.51251e-09
-1.27312e-09
-0.000114414
2.84147e-10
-3.09443e-05
-0.0152124
0.00184543
3.72574e-12
0.000128497
-0.0014806
-0.000720788
7.83314e-11
8.8925e-10
2.55897e-11
-1.20964e-11
-1.04707e-10
-1.11625e-09
0.00140893
1.69621e-10
-1.61364e-09
8.34696e-12
4.42405e-09
-1.25883e-07
1.99116e-10
-1.82404e-12
0.00126439
-6.09695e-10
-1.85117e-10
5.94431e-10
5.51675e-10
2.46713e-09
3.5144e-10
0.00167623
2.46831e-10
-6.16954e-10
9.10545e-11
-0.000567995
-9.20217e-09
-0.00198437
0.00180245
-5.68688e-05
0.000164982
8.58996e-10
-4.82273e-10
3.62062e-08
-0.00189483
0.000223192
2.43168e-09
-9.29276e-11
1.0925e-11
0.00616462
4.35365e-11
3.33472e-10
4.34156e-05
0.00194272
-4.01323e-12
0.00101906
-1.05764e-09
-0.000524738
-1.05953e-09
2.88766e-10
-1.91264e-10
1.60142e-09
-1.79476e-09
1.89275e-10
9.73311e-10
1.80746e-10
5.16011e-12
8.37594e-05
5.61131e-11
5.0924e-09
-0.000141706
0.000196887
-6.53326e-10
-2.18032e-12
-4.18374e-10
1.67987e-10
-2.62886e-10
4.06394e-08
-9.20972e-07
-9.27224e-11
8.4236e-10
-2.32466e-10
0.00141096
-1.60182e-06
-8.74879e-05
3.26528e-11
3.02278e-07
1.82102e-10
-1.10658e-07
0.00144329
4.75221e-10
1.42647e-10
0.00116194
-1.79207e-09
-7.14499e-11
0.000101638
-3.67658e-07
-1.08262e-10
-1.78517e-10
-0.000328052
7.74224e-10
5.33554e-11
6.45089e-05
2.32196e-11
8.78513e-11
-1.4446e-09
1.06605e-09
1.213e-09
-0.00105781
-2.62793e-10
1.05566e-09
-1.86045e-09
4.1108e-09
1.53872e-10
-1.87601e-09
0.000695613
-3.95641e-11
-0.00030312
-0.00185119
-1.07116e-07
-1.57866e-10
-0.000124123
3.82683e-10
0.000381927
0.00240758
5.83219e-10
-3.37507e-10
-4.1237e-11
-7.8182e-10
-5.67576e-09
-4.51486e-11
-9.61587e-09
0.000342367
-0.0034936
-0.000692426
-7.51929e-06
-3.10124e-10
-7.94671e-05
4.14601e-10
0.000500025
-0.00171797
0.00165032
1.55996e-06
2.09204e-07
0.00526846
0.00308277
-0.00041456
6.79323e-10
-0.00187323
4.24855e-07
1.46837e-10
-9.34005e-11
3.98977e-10
0.00664998
3.66912e-09
-6.95978e-12
3.66648e-09
-1.10613e-08
-0.00378381
-1.81582e-09
-2.81604e-10
5.07167e-11
-2.35674e-11
1.30381e-10
2.49977e-10
-3.29317e-10
3.52971e-11
0.00323372
2.55379e-09
1.11157e-10
-3.04074e-11
2.31297e-09
8.656e-11
-0.000221504
1.29188e-08
2.23141e-11
5.93059e-12
0.000409234
1.42083e-10
2.43725e-09
-4.21309e-10
-3.23357e-09
3.29546e-10
-4.49727e-10
-8.319e-11
-8.7442e-06
9.89776e-11
7.35964e-10
1.13087e-10
4.06815e-10
-3.38057e-10
3.14286e-11
-1.74246e-10
6.48655e-08
-1.53604e-10
-1.53022e-09
-0.000243124
-0.00108963
2.55008e-10
-1.04991e-10
-2.63955e-11
5.9308e-10
-0.000157991
-0.000228456
3.08503e-11
0.00442098
8.77904e-10
4.64805e-11
-1.1197e-09
-5.12013e-11
0.000122504
2.28783e-10
-0.00169835
0.00359427
-7.42958e-07
-0.000359522
-2.29114e-10
-0.000309925
-0.000232837
8.69897e-11
-7.84334e-11
-7.22956e-11
-1.17395e-09
-2.36537e-11
-0.00134234
2.45127e-11
7.26102e-11
0.000316699
4.39181e-10
8.33176e-10
-5.24021e-10
-1.36619e-10
5.08398e-12
-4.49909e-05
-3.75499e-07
-0.00031298
0.00130558
-2.01378e-08
-2.25612e-10
-8.21249e-11
2.00195e-10
-0.000107623
-3.53219e-10
0.000259577
0.000895463
-0.000381597
7.77048e-10
-2.70265e-10
-0.000622298
-0.000804471
-0.000150131
-0.00307412
9.28193e-13
0.000399968
-2.81883e-11
1.15768e-10
-5.00076e-10
7.65587e-14
0.000339739
1.90711e-09
-2.30512e-10
7.30702e-11
-0.0018079
0.00492659
-3.04217e-09
-1.66381e-09
1.89922e-10
-0.000650404
1.37334e-06
-5.45133e-10
-0.000389117
0.00013989
2.10086e-08
0.000205155
1.75355e-05
-1.99503e-09
-0.00121712
3.15489e-10
0.00038896
-0.0180931
-3.39482e-10
0.000896745
-3.05865e-08
-0.0018653
-1.3316e-09
0.000989065
-2.30567e-09
-6.06717e-07
0.000765136
-1.8887e-10
1.75172e-10
-9.84112e-05
-3.28514e-10
0.000307274
-2.04282e-10
-5.17393e-10
-1.39603e-10
0.000295336
7.54797e-10
-1.15637e-10
-4.18052e-09
-1.23055e-10
-4.87254e-10
-2.66636e-11
-2.76077e-10
1.83488e-09
-0.000815941
7.62765e-10
0.00364572
-0.0014393
-0.000103037
1.74007e-10
-0.000340318
-0.000290652
-4.8698e-09
-7.0353e-11
3.45777e-06
3.23981e-10
5.36151e-05
0.00411039
-9.73479e-12
0.00131345
0.000120409
2.04251e-09
-0.000508475
-1.00243e-09
9.92661e-06
-2.04754e-10
-0.00217643
8.57523e-10
-8.72811e-05
-8.96336e-10
0.000258513
-0.000500704
1.10036e-07
-6.20497e-11
-2.32734e-06
1.56445e-10
-3.40119e-11
-1.36472e-05
3.91972e-05
2.86196e-10
0.00151084
-6.22796e-11
1.56541e-07
-2.07528e-10
1.89382e-10
2.79918e-10
0.00068147
1.64473e-09
0.00132266
-0.00251979
-3.30138e-10
-9.6605e-10
2.2036e-11
2.94712e-10
1.85443e-10
-3.71019e-09
-1.96881e-05
3.0424e-05
-0.00169274
2.98565e-10
-0.00167361
0.000520403
-0.000253367
-1.79587e-10
-0.013337
-7.6921e-10
-1.82202e-10
-6.38287e-05
-0.00457494
-5.32081e-11
0.000666118
7.39588e-09
6.18547e-11
0.000557183
2.49102e-10
0.00138983
-0.000178477
2.44582e-10
-0.00068759
0.00151774
0.000183575
8.12131e-10
-0.000236774
1.40884e-06
5.25918e-11
2.73521e-10
-1.57778e-10
0.00109378
0.000262545
3.65437e-11
-1.48877e-10
-1.33742e-10
-9.81767e-10
5.20587e-05
5.22481e-09
-1.91573e-10
5.71222e-10
-3.24719e-10
1.76332e-09
-2.29481e-05
-3.40485e-10
1.38393e-09
2.20826e-10
-2.91607e-07
9.88359e-11
-1.88095e-10
0.000154145
0.000781884
5.80827e-10
-0.000147475
-5.25663e-09
-0.000302853
-0.000548487
-0.000108949
1.11136e-10
1.64385e-10
2.47498e-10
-2.73282e-09
1.68968e-09
-6.04964e-10
-6.85218e-12
-1.71677e-09
1.88716e-10
-4.40227e-10
0.000118304
9.2729e-11
-1.88295e-07
-0.000304198
-4.26241e-08
4.96816e-12
8.23325e-10
-3.38726e-10
1.26021e-09
0.00031395
0.00107058
-6.97357e-10
-9.38214e-09
-3.42416e-10
-1.60621e-12
-9.92473e-10
-1.53704e-10
-0.00166454
0.00158547
-1.95592e-10
-5.56451e-10
-1.36775e-10
2.99916e-10
0.00560886
5.60513e-09
0.000405318
-1.03498e-09
5.20176e-10
4.11825e-09
1.07496e-10
2.67974e-08
0.000265962
6.12123e-10
0.000252792
-0.00158633
1.86937e-09
-0.00142693
6.76206e-05
2.05633e-10
6.95622e-12
-2.91574e-10
2.32918e-10
-0.00487637
1.04848e-08
-1.04633e-10
6.02653e-09
0.00148971
-4.80802e-11
-4.69108e-12
-7.98583e-07
-6.59454e-09
-0.0001212
-1.71388e-10
-2.19808e-10
-1.68725e-07
-9.70029e-11
1.60446e-10
-1.47928e-09
0.00115172
6.91079e-11
0.000164912
-9.071e-08
-3.05684e-05
-4.97905e-11
0.00115097
-1.05895e-08
-5.47803e-11
8.81995e-10
3.862e-10
-0.000365033
-9.31903e-10
1.0843e-10
0.00016476
1.5562e-10
1.33612e-10
-1.17085e-08
-7.67704e-05
1.13122e-10
7.79086e-11
2.11199e-10
2.49641e-10
1.11222e-10
0.00492445
-0.000115362
-3.80404e-10
9.0695e-10
0.000427079
1.11385e-09
-6.67665e-05
0.00190415
0.00114201
-4.14436e-10
-3.39138e-09
-0.000269693
0.000507485
0.00495193
1.23736e-09
3.79917e-09
-1.1767e-09
-0.000918262
2.878e-09
3.49842e-10
-4.07047e-10
-1.01808e-09
-2.86724e-07
-2.91332e-10
2.05739e-10
-1.28125e-09
-5.42254e-10
1.59416e-11
2.45351e-10
-0.000985402
4.85471e-11
0.00219202
0.00342101
-0.00127758
-3.79304e-10
0.00385956
-0.0016224
-5.68339e-10
6.29128e-10
-0.0208393
-4.49609e-10
-0.000426917
5.78163e-10
1.89242e-09
-7.01272e-08
-1.90538e-07
-1.65097e-09
2.53933e-08
-2.26032e-09
-1.08971e-09
2.55333e-10
0.00107608
-2.43058e-10
-0.00150792
-9.0326e-05
4.63436e-10
-2.03479e-11
-0.000347077
-0.00163136
-2.8856e-10
7.53882e-09
5.57204e-11
-6.2624e-11
3.32881e-11
-2.9516e-10
1.98566e-10
5.8121e-09
0.000319724
-1.10356e-11
0.00215367
0.00017187
1.77417e-10
0.000617226
0.00100878
1.02365e-08
9.04899e-11
-3.28997e-10
-5.59062e-11
0.000905354
-0.000102829
8.42389e-10
-1.21868
-0.00177482
2.62323e-10
8.62719e-10
-0.00832528
-4.13806e-10
0.00619676
0.000978333
0.00121358
1.29268e-07
9.54239e-10
0.000309451
-4.65866e-10
0.000848891
-0.000101017
-2.41011e-10
9.59528e-11
2.5104e-07
2.252e-10
8.06618e-10
-1.23814e-11
2.18173e-10
-5.85581e-11
-8.43453e-10
7.69998e-10
-9.45709e-11
-7.86849e-11
5.25416e-10
-6.09964e-05
-1.21713e-07
-4.22444e-10
-1.75129e-11
0.00361578
5.88773e-09
9.41763e-10
-3.51952e-09
-1.20155e-09
-1.9156e-09
-4.34171e-10
0.00387235
1.05135e-10
3.30788e-10
0.000288559
-4.91948e-10
-2.56618e-11
-0.000754559
1.72197e-07
2.47819e-10
4.64127e-10
1.71541e-08
1.02453e-11
3.09882e-08
7.05492e-10
1.09114e-10
-0.000521271
-0.00384379
4.80362e-12
2.20957e-11
-1.27701e-10
2.42317e-06
-2.97069e-10
2.15868e-10
-1.08324e-09
-1.18046e-10
3.26327e-09
2.36117e-09
-1.78106e-10
3.97141e-10
0.00066614
-1.53591e-11
2.00004e-06
-6.54619e-05
2.0902e-10
-1.85089e-09
4.76456e-10
1.5059e-10
1.7573e-09
-1.50913e-10
3.46183e-10
-9.82957e-05
-4.68268e-08
3.48663e-05
-1.28591e-10