/*--------------------------------*- C++ -*----------------------------------*\
| =========                 |                                                 |
| \\      /  F ield         | OpenFOAM: The Open Source CFD Toolbox           |
|  \\    /   O peration     | Version:  v2012                                 |
|   \\  /    A nd           | Website:  www.openfoam.com                      |
|    \\/     M anipulation  |                                                 |
\*---------------------------------------------------------------------------*/
FoamFile
{
    version     2.0;
    format      ascii;
    class       volScalarField;
    location    "400";
    object      k;
}
// * * * * * * * * * * * * * * * * * * * * * * * * * * * * * * * * * * * * * //

dimensions      [0 2 -2 0 0 0 0];


internalField   nonuniform List<scalar> 
33474
(
0.000133468
0.00010892
0.018926
9.87077e-05
0.000114029
0.0161216
0.000102254
0.00011723
0.000117578
9.9087e-05
0.000133109
0.000105236
0.000115305
0.00010994
0.000393144
0.00022938
0.000113355
0.00022459
0.0691342
0.000113547
0.00010698
0.00011077
0.000107831
0.00181924
0.00227279
0.000110249
9.74425e-05
0.00200629
0.0646915
0.000107328
0.000102772
0.000106158
0.00258193
9.83531e-05
0.000456954
0.000525349
0.000107425
0.000119522
0.000110112
0.000453494
0.000141957
0.026888
0.0125783
0.000147349
0.0768723
0.103625
0.000145716
0.000459834
0.000102212
0.000134397
9.87208e-05
0.000111212
0.00263756
0.0398519
0.000114184
0.00391282
0.000111833
0.00010212
0.0463846
0.0440734
0.000102168
0.000107387
0.0322767
9.67803e-05
0.000133775
0.000111668
0.058907
0.0763667
0.000102117
0.0579364
9.83759e-05
0.000109453
0.000146045
9.90449e-05
0.000106201
0.000132673
0.000107342
0.000102267
0.000114003
0.000167264
0.0581253
0.000110626
0.0228275
9.38639e-05
0.000132409
0.0651636
0.00029958
0.0455473
0.0244466
0.000102534
0.00182358
0.000125915
0.000233872
0.000102724
0.000105877
0.000111096
0.000106614
0.00011418
9.0945e-05
0.0418199
9.94188e-05
0.0021271
0.0742059
0.000110613
0.000281515
0.0947376
0.00125902
0.000128818
0.000100875
0.000177295
0.000202811
0.000132463
0.0412728
0.000107106
0.000223261
0.027104
0.000120621
0.000110747
9.66684e-05
9.70669e-05
9.50749e-05
0.000112567
9.65291e-05
0.000100752
0.000559525
0.028794
0.000194572
9.79302e-05
0.0259817
0.0749896
0.000508912
0.0390794
0.116946
0.000136983
0.000107249
9.41405e-05
0.000128855
0.000108763
0.000105897
0.000128861
0.0478362
0.0286153
0.000145407
0.000104333
0.000130867
0.000185209
0.028045
9.798e-05
0.0001167
0.000136971
0.000133714
0.000107722
9.75722e-05
0.000107959
0.000111229
0.000100778
0.0649142
9.67657e-05
0.000187622
0.0273587
0.000130944
0.00015203
0.0451306
9.51309e-05
0.0776129
0.000113442
9.19178e-05
0.000116231
0.0001341
0.000118094
0.000182705
0.000129451
0.000117871
0.0639967
0.000107563
9.75411e-05
0.0454186
0.000107079
0.0011728
0.000107101
0.000121246
9.82387e-05
0.000107603
0.0752754
0.000108997
0.000132463
0.000122211
0.0659664
0.0462416
0.00011891
0.00011251
0.0611726
0.000106051
0.000131689
0.0384356
0.000167363
9.15575e-05
0.00012469
0.0311287
0.000118686
9.42948e-05
0.00248793
0.000112875
0.000107791
0.00012853
0.000118593
0.00518736
0.000121755
0.000486305
0.000466065
0.000102569
0.0217228
0.000218367
0.000110789
0.000111482
0.0736986
0.000120823
0.0775308
0.000108317
0.000113068
0.000410251
0.000127422
0.000106624
0.000214959
0.0123637
0.000107661
0.000356826
0.000132573
0.0455313
0.0927582
9.76891e-05
0.005142
0.000116908
0.0656607
0.066406
0.000126848
0.000106304
0.000298211
0.000106387
0.0672613
0.000345651
0.0377621
0.000101508
0.000111377
0.000108047
0.0124048
0.000186365
0.000104562
0.0144929
9.87862e-05
0.00250339
0.000126551
0.030084
0.00319161
0.00301385
0.000109013
0.000100245
0.000107369
0.0654174
0.0114856
0.00010094
0.000117014
0.000143384
9.44691e-05
0.000113047
0.000126289
0.0669476
0.000124641
9.90318e-05
0.000179628
0.000105136
0.00010457
0.000107956
0.000120006
0.0389561
0.000108887
0.000286692
0.0603515
0.000110086
0.000102282
0.000127034
0.000107248
0.000102206
0.000104904
0.000105912
0.000100344
0.000113108
0.0157928
9.6703e-05
0.000105149
0.0308918
0.00012663
0.000138538
0.034504
0.022405
0.0224516
0.000112387
0.00101257
0.000495016
0.000203238
0.00540057
0.0202444
0.0380246
0.000208056
0.00222082
9.16146e-05
0.000108047
0.0341055
0.0803538
0.000109516
0.000108073
0.000107271
0.000119003
0.000107261
0.000106822
0.0439322
9.84677e-05
0.000995788
0.000105534
0.0406414
9.45867e-05
0.00010304
0.00010895
0.000116869
9.39091e-05
0.000560681
0.000126376
0.000105137
0.000100394
0.000117144
0.0893663
0.000102181
0.00012132
0.000147281
0.000131318
0.00681929
0.000243415
0.000104525
0.0668612
0.0396671
0.000145804
0.0127015
0.000116553
0.000111663
0.000115252
0.00312786
0.000103095
0.000147585
0.000113553
9.19066e-05
0.000116705
0.0240346
0.000114071
0.047591
0.033484
0.0145448
0.0766939
0.0842313
9.58151e-05
0.000121691
0.000215393
9.19053e-05
0.0659108
9.84191e-05
0.000110524
0.0133059
0.000109625
0.000111168
0.000149399
0.0117631
0.000124012
0.000110902
0.0654258
0.000107929
0.000110437
0.0403697
0.031445
0.000105142
0.0146984
0.000131178
0.0186443
0.00862318
0.000107578
0.00014259
0.000270783
0.0424626
0.000107286
0.000104108
0.000105704
0.0454856
0.0865326
0.000106681
0.000143737
0.0131147
0.000105817
0.000118183
0.000116902
0.000179807
0.000132727
0.000102147
0.0344161
0.00806802
0.0001454
0.000168915
0.000106961
0.000117061
0.0253493
0.00028252
0.000116592
0.000146432
0.000127074
0.0390096
0.000145014
0.0225405
0.000116897
9.71665e-05
9.83457e-05
0.0570379
9.65614e-05
0.0326538
0.000101111
0.0715045
0.0172263
0.000101741
0.0638528
0.000133027
0.0129922
0.0409235
0.000260158
0.0712914
9.29031e-05
0.00823203
0.0349185
0.000122996
0.000107282
0.000120396
0.000110629
0.000113381
0.000126925
9.88642e-05
0.000110899
0.000144359
0.000103235
0.000112495
0.0407191
0.0126723
0.000102119
9.7845e-05
9.9132e-05
0.000107727
0.00010795
0.0602337
0.000104519
0.000110248
0.0127547
0.000127461
0.000111523
0.000108165
0.00276035
0.000175665
0.0129029
0.0691171
0.0644859
0.0285583
0.0441392
0.0157123
0.000129031
0.0883905
0.000122391
0.000122992
0.0499486
0.000119317
0.0378339
0.0509802
0.0587648
0.000224679
0.000101534
0.00010711
0.000117129
0.000131377
0.0549613
0.000123372
0.0742756
0.127812
9.60734e-05
0.065564
0.0409485
0.000126769
0.0182684
0.000101686
0.000103412
0.000111585
0.0492205
0.000126988
0.000120878
9.45599e-05
0.000107801
0.000111194
0.0194977
9.31002e-05
0.0619394
0.000101627
0.000113499
0.0680375
0.000173684
0.000279123
0.00196655
0.000131942
0.0241922
0.0465297
0.0625874
0.000192607
0.000129002
0.00011951
0.000107065
0.0454356
0.000112274
0.06156
0.0604534
0.000114678
0.000105285
0.000127138
0.0957988
0.000107392
0.000956553
0.000376654
0.0405224
0.0388632
0.00207171
0.000112265
0.000110173
0.000227343
0.000129767
0.10816
9.21484e-05
0.0751388
0.000112616
0.0608299
0.00854046
0.000122935
0.0907664
0.0137285
0.00012839
0.000112567
0.000175352
0.013606
0.0228999
0.00010497
0.0378687
0.00452614
9.70754e-05
0.000376805
0.000114849
0.0309681
0.000118083
9.91197e-05
0.000132078
0.000111458
9.22896e-05
0.026155
0.000134925
0.000114044
0.000140984
0.000113085
0.000110076
0.000103008
0.0385422
0.000104239
0.00318163
0.00330435
9.9508e-05
0.000111502
0.00183552
0.00011
0.00858492
0.000122738
9.44341e-05
0.0246544
0.000106211
0.000112653
0.000123032
0.0242907
0.0415987
0.0343655
0.000105386
0.00014754
0.00166288
0.0548822
9.40481e-05
0.000116772
0.000114204
0.000118201
0.045918
0.000122754
0.000141492
0.000112932
0.000126792
0.000112363
0.0667583
9.86345e-05
0.0165739
9.40579e-05
0.000121044
0.000113326
0.0694975
0.000107943
0.000288619
9.39449e-05
0.000219384
0.000105051
0.00010789
0.000114914
0.000243863
0.000148168
0.000102043
0.034447
0.0356111
0.000147759
0.000117912
9.40087e-05
0.000118529
0.0336692
0.000391213
0.00232593
0.0726516
0.000108273
0.000100379
0.000124509
0.000105655
0.000112711
0.000126043
0.0217296
0.000111288
0.00022308
0.0143872
0.00339581
0.000105527
0.0412925
0.0224182
0.0161248
0.0650092
9.93045e-05
0.000114925
0.000472885
0.0134246
0.00128068
0.0368232
0.000134083
0.000472362
0.000145709
0.0178633
0.000132316
0.000403177
0.000287138
0.000122948
0.000147918
0.000103656
0.000108444
0.000422837
0.000232021
0.000107111
0.000108078
0.0806925
0.000106577
0.0948634
0.000107313
0.0762784
0.000111494
0.0787988
0.000234165
0.0662506
0.00907179
0.00014767
0.0101475
0.000110387
0.000117855
0.0673574
0.000122732
0.000107057
0.000118072
0.000117887
0.000127059
9.56229e-05
0.000104257
0.0283699
0.000106125
0.000105934
0.0519558
0.0118982
0.101566
0.0293767
0.0837608
0.069355
9.66869e-05
0.0196457
0.0001111
0.000116921
0.000122781
0.0498787
0.000114346
0.000512168
0.000147815
0.0146709
0.000857836
0.000177457
0.000100595
0.000123012
0.000130199
0.0498317
0.000102766
9.81951e-05
0.000107767
0.000287533
0.06986
9.87786e-05
0.0980855
0.000106338
0.128241
0.00016866
0.000106683
0.000103847
9.40492e-05
0.000122878
0.000106834
0.000107398
9.57226e-05
0.000121513
0.000123714
0.0555266
0.000105435
0.0166026
0.0349253
0.000106989
0.00024444
0.000459508
0.000139471
0.000113051
0.000131514
0.000108453
0.0599442
0.000116926
0.000131961
0.000105156
0.0949497
0.0466067
0.00525118
0.0227497
0.0647959
0.000113805
0.000110478
0.0955768
0.000284215
0.000174303
0.000105387
0.000124382
0.000118016
0.000107393
0.0757294
0.000109984
0.0123102
0.000123312
0.000144839
0.000293975
0.000296181
0.000127124
0.0554188
0.000105854
0.000106052
0.000106041
0.0150188
0.0245723
0.000107311
0.000104086
0.0396439
9.87929e-05
0.0813869
0.000102318
0.0521325
9.8977e-05
0.000112246
0.0662973
0.00035588
0.0638698
0.0825134
0.000110953
9.92323e-05
0.000114925
0.000117594
0.03211
0.000103462
0.00105864
0.000119844
0.000122714
0.0513641
0.000147359
0.0248829
0.0132375
0.0714851
0.0209508
0.00411192
0.000109656
0.000106758
0.000102109
0.000837032
0.000415332
0.000250447
0.000145164
9.9195e-05
0.115428
0.0113957
0.00136832
0.0001182
0.00027641
0.000117032
0.000105325
0.00010575
0.00012824
0.00195392
9.67546e-05
0.000384238
0.000107804
0.000104668
0.00331637
0.000133291
0.000111154
0.0763
0.00895924
0.000115266
0.0462866
0.000102613
0.000102116
9.83734e-05
9.68983e-05
0.000142802
0.000107723
0.000106487
0.0270897
0.0686185
0.000114407
0.000107202
0.0251938
0.00102159
0.000112881
0.00010278
0.000102959
9.76686e-05
9.86235e-05
0.00010387
0.000155935
0.000116834
0.0841652
0.000113016
0.0416493
0.000106827
0.000126918
0.000106933
0.0376122
0.000106792
0.000103245
0.119257
0.000122731
0.000116865
0.0204626
0.0619981
0.0470745
0.0768179
0.000324646
0.0125539
0.00011961
0.0556415
0.0254643
0.000109307
0.0830598
0.0441007
0.000110186
0.000863504
0.000106212
0.000113893
0.076559
0.105244
0.00169904
0.00348283
0.0355537
0.000108681
0.000110746
0.000109124
0.000168871
0.000103212
0.000112325
0.0234443
0.0279597
9.4596e-05
0.000109404
0.00330643
0.000122294
0.000127254
0.0691779
0.000126554
0.00918637
0.000107298
0.0885374
0.0281298
0.00618452
0.000104964
0.000127505
0.00010619
0.000106656
0.00187451
0.00015361
0.000391765
0.000134199
0.000295433
0.000108176
0.000124585
0.129687
0.0435865
0.000264345
0.0471452
0.000108275
0.000121776
0.000101747
0.000114952
0.000108329
0.0440303
0.00066233
0.037043
0.000107186
0.0787923
9.89955e-05
0.0549813
0.000413679
0.0737771
0.000112792
0.00155826
0.0994734
0.0475419
9.09146e-05
0.00956315
0.0362191
0.000148456
0.000107551
0.0812446
9.86985e-05
0.0601669
0.000116733
0.000123209
0.000109241
0.0749504
0.000902856
0.000100622
0.000147955
0.000108322
0.0137032
0.0116229
0.000109094
0.000145628
0.0285544
0.00012246
9.75376e-05
0.000145849
0.0369267
0.044623
0.00841161
9.93913e-05
0.000106263
0.0901584
0.00015415
0.000119105
0.000107192
0.000145221
0.000103762
0.000107415
0.0753334
0.00010854
0.0189707
0.031306
0.000105892
0.0550899
0.0837708
9.31073e-05
0.00012058
0.0570342
0.000110375
0.000147568
0.000106138
0.000131198
9.26721e-05
9.43383e-05
0.000109407
0.000109394
0.0352559
9.85873e-05
0.00592698
0.00214219
0.000110394
0.0142217
0.00012177
0.0176187
0.000116334
0.000137718
0.000338026
0.000108127
0.000122159
0.00608596
0.000143767
0.000147153
0.0875446
0.000167528
9.68175e-05
0.0242484
0.000100517
0.0296343
0.000113379
0.000111332
0.000105029
0.000106927
0.000113445
0.057544
0.000109575
0.0991341
0.000642094
0.000105184
0.000114417
0.000478969
0.000111635
0.0291811
0.000122787
0.0987922
0.00384107
0.000299051
0.0259702
0.000132099
0.000107833
0.000116123
0.00442477
0.000109213
0.0711909
0.000124512
0.000117752
0.000107788
0.000107473
0.00014814
0.000105664
0.000115948
0.000107178
0.000136809
0.000106952
0.000139335
0.000142714
0.0227002
0.0705118
0.0707339
0.00765079
0.000107169
0.0224516
0.000906718
0.000332941
0.000108417
0.0300883
0.000116504
0.00011922
9.8467e-05
0.000145164
0.000112457
0.0893893
0.000102676
0.0776075
0.000102163
0.000175774
0.00010024
0.000139018
0.025242
0.000142517
9.93016e-05
0.000284637
0.000396319
0.000382423
0.000111784
0.0392083
0.00252466
0.000123498
0.0422349
0.000108363
0.0440796
0.0312721
0.000119193
0.00010719
0.000107168
0.000124067
0.0645683
0.000121979
0.000107903
0.0798434
9.13129e-05
0.000356531
0.0399842
9.78021e-05
0.0772499
0.000130792
0.000108459
0.000107565
9.8525e-05
0.000102011
0.000106325
0.0535727
0.000113078
0.000121714
0.000111912
0.00011754
0.0204758
9.41176e-05
0.000104547
0.000117877
0.000249722
0.000110144
0.000110891
0.000127735
0.000145846
0.000111584
0.0282036
0.000121392
0.000147991
0.0448019
0.000103595
0.000117325
0.000103655
0.0454005
0.000123766
0.000343479
9.76522e-05
0.000123838
0.000107433
0.000107433
0.000104023
0.0381717
0.0392489
0.0422397
0.000132691
0.000196857
0.000107727
0.000106746
0.00160161
0.000106961
0.000105994
0.000177189
0.0689864
0.000117603
0.000133388
0.000102483
0.000106769
0.00884964
0.000359225
0.0799746
0.000232101
0.000348223
0.0910403
0.0661058
9.88092e-05
0.00012395
9.81817e-05
0.000107869
0.0120799
0.133146
0.000108085
0.000107599
0.0010978
0.0001125
0.0627465
0.000103785
0.00010725
9.4321e-05
0.000117124
0.000126721
0.0716245
0.0001056
0.00334621
0.0193287
0.000177779
0.00666113
0.0929727
9.12403e-05
0.000120494
0.000105424
0.000106226
0.0800208
0.000105258
0.000121034
0.0268934
0.000274611
0.0323334
0.0016723
0.00941721
0.000114428
9.59157e-05
0.00541029
9.14219e-05
0.000145618
0.000106936
0.0674589
9.21808e-05
0.0654348
0.0630447
0.000135571
9.30637e-05
9.48305e-05
0.0485147
0.000107085
0.00775316
0.0176933
0.000128092
0.000155601
0.000219349
0.000127181
0.000118115
9.98721e-05
0.000108272
0.0458099
0.000104054
0.000117066
0.000169697
0.0777236
0.000107821
0.0522633
0.000104628
9.80276e-05
0.00010619
0.000112531
9.88873e-05
0.000144699
0.000118752
0.0265067
0.000126715
9.68332e-05
0.0764965
0.000107037
0.000102405
0.000127249
0.000102294
0.00011668
0.0240315
0.000100488
0.0624225
0.0649805
0.0429409
0.0194236
0.000105948
9.18225e-05
0.000143919
0.000107258
0.000111158
0.000109444
0.00129644
0.000107296
0.0471379
0.117684
0.000144333
9.68835e-05
0.000109331
0.0820976
0.000134913
0.00222801
0.000111821
0.000209726
0.000123397
0.000236252
0.000334214
0.000125103
0.000148375
0.000154
0.0642948
0.0330626
0.0695839
0.000202317
0.000102949
0.033675
0.000127076
0.000148445
0.000106111
0.000132666
0.0298776
0.000107494
0.122543
0.0593887
0.000103887
0.000118214
9.22653e-05
9.90825e-05
0.000106851
0.0699541
9.0791e-05
0.000114177
0.000478088
0.000452575
0.0804445
0.079551
0.00807187
0.000102299
0.00076621
0.000122433
0.00248353
0.000143097
0.063383
0.0413585
0.000125672
0.000106862
0.0516486
0.000106627
0.000544298
0.0794302
0.0251634
0.0896575
0.000103875
0.0672998
0.0375752
0.000425282
0.000108382
0.00283411
0.000133658
0.000178611
0.0347112
0.000674375
0.00809354
0.0712796
0.0308681
0.000148009
0.00018279
0.000107029
0.01175
0.00010614
0.000126634
0.000107651
0.0654245
0.000119126
0.000649447
9.91566e-05
0.000114194
0.0364484
0.0485967
0.000101754
0.000110337
0.000107427
0.0428207
0.000102408
0.000135258
0.0117676
0.000125455
0.0102781
0.000106385
0.000104024
9.29738e-05
0.00010142
0.0322661
9.91804e-05
0.0671021
0.000294889
0.000103532
9.51737e-05
0.0941853
0.000112767
0.000122343
0.00013065
0.000111499
0.000249711
0.000132707
0.000189139
0.000100509
0.00270586
0.000103591
0.000132521
0.000825308
0.00187984
0.000195949
0.000100458
0.0772916
0.0360228
0.0112532
0.000116733
0.000110226
0.000130301
0.0727181
0.00010602
0.00012734
9.43164e-05
0.000108918
0.00014376
0.000116656
0.000120355
0.000339629
0.000104584
0.0368816
0.0480516
0.000116839
0.0729882
0.00766355
0.0890148
0.000105777
0.000111566
0.000107551
0.000127427
0.000116413
0.000116135
0.000111324
0.000109226
0.000108699
0.000120577
0.0499402
0.000122255
0.0302211
0.000225991
0.0454842
0.000117291
0.000104173
0.00010794
0.000117113
0.0208328
0.000111393
0.00011502
0.0820602
0.0378897
0.000120919
0.000135914
0.0107895
0.0445572
9.81075e-05
0.0345918
0.0535729
0.000136623
0.000112748
0.043842
0.000106525
9.53556e-05
0.000105963
0.000181689
9.40904e-05
0.0328886
0.0462594
0.0720112
0.000112585
0.000147135
0.000101933
0.0374564
0.000107245
0.000119496
0.000122182
0.0546221
0.0425614
0.000122283
0.00131297
0.000116574
0.000108858
0.00012144
0.0703264
0.000104597
0.00011995
0.000133973
0.026795
0.000112364
0.000109148
0.000102187
0.000193343
0.000107581
9.56262e-05
0.000138002
0.000107342
0.0217401
0.000101449
0.000107052
0.000144112
0.00089344
0.000115799
0.000123653
0.0223144
0.0694085
0.000104742
9.42585e-05
0.00309449
0.000258553
0.000120589
0.000114026
0.000104217
0.00011547
9.09321e-05
0.0565703
0.0288375
0.000127466
0.000234799
0.0570162
0.0737344
0.000127263
0.000107354
0.000239979
0.000115441
0.000122966
0.0363222
9.28008e-05
0.000126674
0.000101609
0.0242344
0.0122645
0.0460715
0.033437
0.000112662
0.0398956
0.0297673
0.0721366
0.000104227
0.000131451
0.000127356
0.000133571
0.0428777
0.000126894
0.000127033
0.000114203
0.00148515
0.000124187
0.000110355
0.0278392
0.000112357
0.0599154
0.000151161
0.00010068
0.000435722
0.0465407
0.000105232
0.000110612
0.000107607
0.0142274
0.000111013
0.000120308
0.0200943
0.021466
0.00100348
0.000110962
0.000133815
0.00675581
9.70596e-05
0.000128059
0.000135689
0.0154418
9.23884e-05
0.00153865
0.000125908
0.0421458
0.0351808
0.000114213
0.0588397
0.000114676
0.0417371
0.000102886
0.0268631
0.000126052
0.000176221
0.0581784
0.003363
0.000110591
0.000103375
0.0350234
0.00010746
0.000319447
9.90637e-05
0.000148941
0.0812951
0.000149046
0.0427177
0.000100166
9.75162e-05
0.000107438
0.000119637
0.000111974
0.0003014
9.74839e-05
0.0249674
0.000107213
0.0575781
0.0350721
0.00010793
0.000111618
0.0023248
0.000124754
0.000134159
0.0405641
9.82814e-05
0.0371539
0.000114024
0.0001034
0.000147296
0.000123475
0.000106047
0.00448741
0.019836
0.035622
0.00513679
0.000132764
0.000149426
0.00247094
0.0343993
0.0327861
0.000111338
0.0751267
0.0248853
0.000132185
0.000210559
0.000106342
0.050218
0.000104581
0.000105805
9.93092e-05
0.000108504
0.000107281
0.00710331
0.000105107
9.41883e-05
0.121139
0.000110508
0.0141578
0.000102853
0.109295
0.00010688
0.000120025
0.000124306
0.000146379
0.00012588
9.72969e-05
0.0226629
0.000143957
0.0592673
0.0446931
9.44222e-05
0.000109796
0.000120369
0.0217082
0.000104029
0.0454244
0.0777234
0.000112466
0.0614053
0.0655475
9.55218e-05
0.047149
9.44829e-05
0.000114052
0.000132417
0.000158975
0.000131653
0.000104611
9.45187e-05
0.024289
0.000634425
0.0308236
0.000114208
0.000110126
0.000104441
0.000130946
0.00011672
0.000103271
0.00010542
0.00011289
0.0442315
0.0707281
0.0577117
0.000116805
0.00010985
0.000115164
0.000123117
0.000507365
0.0839503
0.000107611
0.00046644
0.0452817
0.000114181
0.0148495
0.00010624
9.08293e-05
0.000498479
0.000106918
0.000112547
9.51604e-05
9.75342e-05
0.000127987
9.24238e-05
0.000110691
9.58995e-05
0.000139541
0.000111665
0.0364655
9.64675e-05
0.00172586
0.0365545
0.000334313
9.29386e-05
0.000110082
0.00010372
0.000112416
0.000103454
0.0331404
0.000114061
0.000107259
0.00678835
0.06073
0.000116727
0.0101035
0.000102832
0.0685147
0.0134708
0.000109391
0.000107614
0.00013164
0.00251517
0.0570153
0.0889829
0.000113219
0.000116618
0.0885125
0.000115327
0.00612758
0.0378323
0.0518565
0.000147531
0.00746315
0.0375818
0.0744747
0.000122626
0.000108073
0.000106126
0.000149529
0.00012302
0.000142873
0.0427436
0.000101273
0.00011408
9.35933e-05
0.000110909
0.000697499
0.000121667
0.000146498
0.0503273
0.000106148
0.000121446
0.000105659
0.000137973
0.000119651
0.000101097
0.0221233
9.2934e-05
0.000123058
0.000128407
0.0979337
0.000145895
0.032891
0.0326892
0.00900054
0.0244922
0.000104704
0.000106135
0.000371702
0.0332959
0.0410837
0.000150433
0.000114548
0.000147171
0.0410282
0.000111111
0.00010316
0.00198336
0.0499025
9.78367e-05
0.0647658
0.000110615
0.0328208
0.000108659
0.000109321
0.000123312
0.00012758
0.000111495
0.000110001
0.000119461
0.000106918
0.000148364
0.00179581
9.63929e-05
0.000112482
0.00145412
0.0546594
0.000109385
0.00014797
0.000107282
0.000130907
0.000104993
0.000220698
0.00217548
0.0001164
0.000124609
0.000106759
0.0263297
0.00177226
0.0858845
0.00014701
0.000270878
0.000109395
0.00178449
0.0143448
0.000105041
0.000109609
0.0516947
0.000109069
0.000105623
0.00209008
0.000350436
0.000106881
9.45897e-05
0.00715389
0.000115763
0.000129548
0.00931084
0.000111716
0.000128069
0.000107278
0.000104732
0.000110576
0.0138707
0.000107786
0.00011604
0.000103594
0.000109386
9.56827e-05
0.000107248
0.041794
9.33502e-05
0.0690881
0.0302529
0.00205472
0.000108245
0.00237372
0.000127058
0.0468017
0.0445377
0.000123768
0.000107673
0.000105678
0.000117109
0.000148629
0.000102619
0.000123235
0.0234798
0.0318526
0.101679
0.00180004
0.000105614
0.0796509
9.68015e-05
0.0258434
0.103221
0.0235759
0.00054691
0.000620861
0.022362
0.072929
0.0603019
0.000105459
0.0541684
0.000548856
9.96059e-05
9.35438e-05
9.83991e-05
0.0166828
0.000197187
0.00010732
0.00011406
0.000322213
0.0138836
0.00011468
0.000109759
0.000127018
0.000106318
9.57938e-05
0.000103291
0.000110997
9.85441e-05
0.01788
0.000124121
0.000142167
0.000105272
0.000119472
0.000107361
0.0687236
0.000127228
0.000133067
0.000107668
0.0728924
0.000112708
0.000177632
9.36812e-05
0.000119566
0.000117483
0.000102827
0.000132667
0.000930634
9.5987e-05
0.000147121
0.00010693
0.000109444
9.93092e-05
0.000132257
0.000110207
0.000238457
0.000121253
0.000107254
0.0101144
0.0783824
9.89616e-05
0.000111377
0.000105599
0.000110366
0.0380354
0.00165165
0.000130502
0.0248931
0.000103503
0.000132022
0.000143099
0.000132512
0.0194504
0.000123338
0.0308282
0.0576793
0.00203664
0.0211021
0.000107728
0.0353614
0.0488626
0.000104786
0.000126424
0.000104898
0.000106496
0.000111705
0.0722188
9.61899e-05
0.000114039
0.0380405
0.000136802
0.000101175
0.000104815
0.000105799
0.000107668
0.0217624
0.000496691
0.0299577
0.0245807
0.000280735
0.00012284
0.00010719
0.000123949
0.0388161
0.000107855
0.00568558
0.0251803
0.0703135
0.000146673
0.000102341
0.0629239
0.0415301
0.00597298
0.0589955
0.000148323
0.0424168
9.4497e-05
0.000103585
0.000108347
0.000149238
0.0592317
0.000111492
0.000109953
0.000142477
0.039638
0.0262012
0.000103552
0.000116506
9.57955e-05
0.0680471
0.00256598
0.000103276
0.0494481
0.0225969
0.000152458
0.0538742
0.000890956
0.000183124
0.075176
0.000107307
0.0560251
0.126677
0.000106308
0.0329589
0.000161043
0.0682478
0.000114189
0.0616355
0.000116701
0.000398703
0.0436049
9.7791e-05
0.000129835
0.084637
9.61917e-05
0.0451501
0.000125246
0.000111582
0.000103665
0.0250227
0.000157395
9.61792e-05
0.000122713
0.000108053
0.000103765
0.000147814
0.000103783
0.000105167
0.0300163
0.000108009
0.027335
0.0420015
0.0802524
0.000104787
0.00340615
0.0336258
0.000132607
0.00014385
0.0143459
0.000118096
0.00231902
0.0820366
0.000105283
0.0145765
0.00741017
0.000105092
0.0777926
0.00010715
0.00367544
0.000106924
0.0215427
9.8808e-05
0.0412562
0.00011235
0.0460871
0.00432812
0.000220073
0.000112764
0.000682428
0.00102757
0.000130202
0.00151187
0.0352484
0.000116278
0.0971526
0.000133122
0.000339782
9.86861e-05
0.00013478
0.000116577
0.0422868
0.000107142
0.0443257
0.0239477
0.000107604
0.000112298
9.58181e-05
0.000107362
0.000106402
0.00011478
0.0142665
0.0421648
0.0220333
0.000100611
0.0602863
0.047825
0.039189
0.000104137
0.052163
0.000117393
0.000117642
0.0106268
0.0303964
0.000104548
0.0856448
0.000135501
0.000126492
0.0559132
0.000107515
0.088065
0.022117
0.000132582
0.00837288
0.0498714
0.0711749
0.000102799
0.0217545
0.000544218
0.000105076
0.000118508
0.000106071
0.0276547
0.0488429
9.88798e-05
0.000108825
9.90493e-05
0.00012292
0.00226663
0.000124455
0.000102661
0.000120967
0.000110058
0.000127635
0.000575735
0.000111975
0.000106266
0.000106765
0.000343806
9.1665e-05
0.000109615
0.0681778
0.0585468
0.000109084
0.0340356
0.000119663
0.0221891
0.0628748
0.0338645
0.000124142
0.000117429
0.000110089
0.000136764
0.000106773
0.000112776
0.000146885
0.000112433
0.000116531
9.37047e-05
0.0475597
0.000122685
0.00178578
0.0870103
0.000182092
0.000149249
0.000103594
0.000107579
0.000103722
0.0684784
0.0282486
0.000103558
0.000165839
0.000106728
0.000146105
0.000107743
0.000102345
0.0354828
0.0729335
0.000120327
0.000103852
0.000231505
0.000109301
0.0107313
0.000134653
0.023396
0.000102964
9.77647e-05
0.000113615
0.000106537
0.000159769
0.052221
9.78079e-05
0.0442221
0.0347746
0.000126674
0.0425038
0.0193383
0.000124827
0.000101609
0.000111985
0.000111348
0.0235534
0.000127051
9.12204e-05
0.000130624
0.0380072
0.000106306
0.000140401
0.00101695
0.000163924
0.0846724
0.000101311
0.000126483
0.00049498
0.000124083
0.000116556
0.000117259
0.0625387
0.000108892
0.0457933
0.000284859
0.0340428
0.000130665
0.0116896
0.000342856
9.46526e-05
0.000108045
0.000107314
0.0696654
0.000109342
0.00010606
0.0731416
0.00010544
0.000103539
0.000215644
0.033966
0.000101894
0.000110585
0.000106287
0.000101517
0.000105707
0.0820718
0.0365
0.000112701
0.000107862
0.0676854
0.000123987
0.0441809
0.0242294
0.0517236
9.41113e-05
0.000116474
0.0791515
0.0464754
0.0229217
0.00010294
0.000116527
0.000110817
0.0775463
0.000116247
0.000104828
0.000122946
9.96988e-05
0.000280647
0.000122423
0.00011237
0.000107872
0.000111823
9.40029e-05
0.000107202
0.0758863
0.000109337
0.0599691
0.11797
0.0285143
0.000108629
0.0130557
0.049873
0.000114068
9.46541e-05
0.0608029
0.000113382
0.0577902
0.000107408
0.000146055
0.000258635
0.000927182
0.000110908
0.000149592
0.000103555
0.000112315
0.000126277
0.0536584
0.000110183
0.0999363
0.00891388
0.00010734
9.68782e-05
0.091081
0.0230969
0.000111067
0.00012044
0.000128546
0.000106875
9.65567e-05
0.000109417
0.000106403
0.000124899
0.040426
0.000101952
0.0288171
0.00231151
0.000109923
0.0729163
0.0508744
0.000123028
0.000102066
0.000107898
0.000119607
0.0251143
0.0413983
0.000111454
0.0631062
0.0248554
9.79101e-05
0.000105779
0.0417782
0.000109106
0.095901
0.0253195
0.0384115
0.000719883
0.000113943
0.0533321
0.00023521
0.0629602
0.0363983
9.13671e-05
0.000112488
0.000489968
0.000120846
0.000107944
0.000144971
0.000100386
0.000111453
0.000122942
0.000138866
0.000127135
0.000140256
0.000108146
0.00362237
0.000297029
0.000111643
9.37395e-05
0.0503727
0.000125769
0.000134676
0.000225111
0.000135796
0.000103474
9.4933e-05
0.0123212
0.000109486
0.000105468
0.065668
0.000103955
0.00014606
0.0302036
0.000244136
0.000105751
0.000105425
0.000136174
0.000139739
0.000160391
0.000110397
0.00011269
0.0703743
0.0351707
0.000108009
9.3124e-05
0.000107717
0.000849554
0.000109326
0.000112309
0.000116336
0.000131402
0.000114186
0.000107065
0.000136134
0.000101763
0.0599881
0.000147871
0.000704494
0.0390813
0.000112959
0.000120455
0.000145491
0.000111447
0.000104533
9.4521e-05
9.60917e-05
0.00899925
0.000250508
0.0123615
9.53908e-05
0.000580065
0.000122582
0.00101398
0.125751
0.000112529
0.000124161
0.000126006
0.000114052
0.00019616
0.000116498
0.00012614
0.000753686
0.000138292
0.000123238
0.000137747
0.000111279
0.00645155
0.0901514
0.000103832
0.000107136
0.000114357
0.0696614
0.000129414
0.000375916
0.000128985
0.000104796
9.67596e-05
0.000126088
0.0243129
0.0679527
0.000906495
0.000141429
0.000109555
0.000130971
0.000119629
0.0904447
9.98968e-05
9.41784e-05
0.000179782
0.0547642
0.0348323
0.0200297
0.0337636
0.000119469
9.98292e-05
0.0646701
0.0821236
0.0017706
0.0102987
0.000105237
0.000110571
0.0360549
0.000111801
0.000102734
0.000107496
9.46214e-05
0.000112199
0.000137167
0.043621
0.0204562
0.000121822
0.000122749
0.00011105
9.59844e-05
0.000119133
0.0166277
0.000132428
0.00013117
0.000112549
0.000106717
0.000103703
0.00011712
0.000117552
0.000116849
0.000119573
0.0702613
0.0470496
0.000259884
0.00010926
0.000105843
0.00012059
9.94977e-05
0.000356503
0.00116063
0.0330334
0.0558863
0.000136901
0.000117628
0.000104931
0.0404115
0.000106447
0.000148187
0.00144893
0.0225708
0.0383592
0.0611083
0.0695748
0.000135284
0.0541065
0.000106623
9.47199e-05
0.0751641
0.000121663
0.000136619
0.000282461
0.000107795
0.124567
0.000113118
0.0759485
0.000108323
0.000120085
0.000118295
9.11936e-05
0.000125762
0.000106314
0.00013178
0.000101848
9.83218e-05
0.000889384
0.000129278
0.0481928
0.000105706
0.0907682
0.000123834
0.00265599
0.0198338
0.0279293
0.0100958
0.000222364
0.00696956
0.000106698
0.000132042
0.000105688
0.00011288
0.000734605
9.31911e-05
0.0001086
0.00010659
0.00010688
0.0001242
0.0548267
0.000101941
0.000104222
0.000106092
0.000107652
9.52717e-05
0.000189745
9.63132e-05
9.59777e-05
0.000122906
9.47611e-05
0.0100864
0.000118686
0.0269572
0.000111155
0.000121742
0.000114225
0.000142996
0.000131231
0.0446676
0.000148429
0.0148285
0.0880455
0.000133288
0.000121473
0.000107159
0.040825
0.000112558
0.000113706
0.0563071
9.37776e-05
0.000148016
0.000115744
0.0594523
0.000111653
0.0592965
0.000112534
0.0326219
0.000228569
9.27195e-05
0.000140176
0.000128025
0.000107969
0.0375403
0.0380934
0.00013234
0.0261815
0.000103603
0.000103862
0.0232576
0.0386173
0.000132433
0.000102978
0.0529848
0.000128507
0.037776
0.000120745
0.000537915
0.0346623
0.0430461
0.000805971
0.000127815