/*--------------------------------*- C++ -*----------------------------------*\
| =========                 |                                                 |
| \\      /  F ield         | OpenFOAM: The Open Source CFD Toolbox           |
|  \\    /   O peration     | Version:  v2012                                 |
|   \\  /    A nd           | Website:  www.openfoam.com                      |
|    \\/     M anipulation  |                                                 |
\*---------------------------------------------------------------------------*/
FoamFile
{
    version     2.0;
    format      ascii;
    class       volScalarField;
    location    "400";
    object      p;
}
// * * * * * * * * * * * * * * * * * * * * * * * * * * * * * * * * * * * * * //

dimensions      [0 2 -2 0 0 0 0];


internalField   nonuniform List<scalar> 
33474
(
0.0186536
0.00372164
-0.448795
-0.0368825
0.0392517
0.471092
-0.0192579
0.0156344
0.0154176
-0.00451243
0.185941
-0.000375985
0.00657279
0.00487905
0.204068
0.284994
0.0257465
0.281444
-0.525474
0.0259672
0.000495351
0.0465765
0.0573176
-0.23379
0.41928
0.0478351
-0.0531139
-0.230866
-0.11651
0.0732627
-0.00421792
0.00594564
-0.228495
-0.0523116
0.319059
0.353496
0.0375552
0.0247594
0.133985
-0.179117
0.00915958
-0.111022
-0.106676
0.0112592
-0.144829
-0.512997
0.0101737
0.346272
-0.0105875
-0.0682243
-0.0355136
0.0326548
0.419077
-0.0923422
0.0389854
0.441095
0.0345233
-0.00683839
-0.361529
-0.330925
-0.00580328
-0.0869109
-0.115875
-0.036959
0.0185185
0.0344922
-0.412394
-0.143385
-0.00644986
-0.103566
-0.0571263
-0.0745275
0.0101644
-0.0450875
0.000766411
0.19449
0.0780957
-0.00214745
0.0392114
0.00734791
-0.112532
0.0407924
-0.101239
-0.0136254
0.194024
-0.111864
-0.162074
-0.30901
-0.174148
-0.0640555
0.42322
0.0103559
0.289535
-0.00208063
0.0509041
0.0332453
0.000230674
0.0388532
-0.00748249
-0.594391
-0.00434091
0.430346
-0.189838
0.0467199
-0.0974907
-0.223417
-0.127621
0.00767247
-0.0221321
-0.140967
0.106546
0.197896
-0.0928023
-0.0767821
0.286976
-0.348852
0.0240474
0.0400983
-0.0361582
-0.00611445
-0.0289424
-0.0424034
-0.0388406
-0.0223374
-0.163822
-0.114838
0.211065
-0.0535256
-0.102358
-0.202337
-0.114125
-0.0947775
-0.51228
0.191226
0.0740001
-0.017424
0.00775149
0.0627265
0.0526685
0.00925434
-0.111317
-0.0981826
0.228397
-0.0015691
-0.0664565
0.139852
0.187476
-0.00525761
-0.10324
-0.100753
0.0183296
0.0557806
-0.0541906
0.00126657
-0.0405505
-0.00330048
-0.109495
-0.0543294
0.257485
-0.117381
0.0225331
0.235074
-0.456161
-0.0284457
-0.19225
-0.0515439
-0.00744301
0.0398971
0.0181935
0.011543
0.204533
0.0138102
0.0113039
-0.154508
0.0121439
-0.0269013
-0.111197
0.0661406
-0.158906
-0.0861048
0.0207745
-0.0541773
0.0556667
-0.212922
0.00420269
-0.122523
0.163399
-0.112354
-0.418165
0.00849776
0.145433
-0.445667
0.000474376
-0.120559
-0.458938
0.0031648
-0.00949578
0.179946
-0.118149
0.164689
-0.0171041
-0.0989226
-0.0457772
0.012455
0.0093349
0.00857181
-0.109821
-0.0949793
0.081951
-0.140889
-0.0624069
-0.101142
0.266469
0.0546223
0.00313983
-0.428257
0.00870275
-0.233225
-0.0736801
0.147215
-0.139384
0.0114617
0.00328481
0.109173
-0.108993
-0.0158168
0.206501
0.022078
-0.0952191
-0.218783
-0.0567699
0.223362
0.031114
-0.114013
-0.115503
0.0213626
-9.10355e-06
-0.0983627
0.0059534
-0.349264
-0.181372
-0.387035
-0.00537576
0.00314043
0.0606338
-0.130513
0.252399
0.0213164
0.47337
-0.0374788
-0.0967288
0.0243364
-0.112101
-0.191676
-0.21171
0.00129047
-0.0084477
-0.0861436
-0.195548
-0.0974913
-0.0118499
0.161557
0.015427
-0.0116289
0.00507411
0.175675
-0.351618
0.0231171
-0.0436795
-0.145694
0.0113354
-0.0798479
0.059659
0.0246643
-0.193396
0.0619139
0.00683911
-0.343189
0.134162
-0.0205137
-0.0659542
0.087177
-0.0106883
-0.000459056
0.00652974
-0.0080584
0.00492686
0.215461
-0.0536281
0.00456968
-0.136745
0.0238106
0.00898469
-0.193907
-0.0989545
-0.120757
0.146141
0.247029
-0.114788
-0.108549
-0.109256
-0.0966702
-0.347277
0.277979
-0.0983836
-0.0135677
0.11185
-0.17588
-0.22839
0.0568703
-0.0881331
0.0855854
0.00549179
0.085846
0.0794149
-0.387478
-0.0065752
-0.156976
0.0243621
-0.105299
-0.01136
-0.00427588
0.0610989
-0.101677
-0.0163842
0.0858432
0.0103044
0.0194355
-0.00344399
0.0324946
-0.442102
-0.00874153
0.00883023
0.228385
0.0154663
-0.0964087
-0.170476
-0.00101473
-0.558184
-0.191347
0.0185623
-0.108604
0.0272285
0.142068
0.132706
-0.191973
-0.0029468
0.0136628
-0.054629
-0.0133156
0.0274255
-0.0943545
0.00585253
-0.103862
-0.12512
-0.174232
-0.454492
-0.524744
-0.0492541
0.0155715
-0.109059
-0.0100023
-0.112117
-0.00661419
0.0398345
-0.234188
0.00154019
0.0545312
0.0101174
-0.106069
0.0120943
-0.0369719
-0.111408
0.060965
0.047666
-0.0948228
-0.0964666
0.00956473
0.199144
0.0225871
-0.405901
-0.271057
0.0384185
0.00919964
0.0163528
-0.389654
0.0843214
-0.00180935
0.0243123
-0.335569
-0.20184
0.000241482
0.224638
-0.107188
0.00574804
0.0084056
0.00502304
0.134356
0.0103561
-0.00927932
-0.137586
-0.256767
0.00997144
-0.106093
0.000395279
0.00518891
-0.0990149
-0.0801079
0.031519
0.0134444
0.0214538
-0.36204
0.0186749
-0.0937328
-0.104544
-0.0132971
-0.00510659
-0.109654
-0.0395658
-0.15191
-0.0112897
-0.198701
-0.121127
-0.00832382
-0.14909
0.198753
0.458977
-0.345437
-0.0797734
-0.167968
-0.0395506
-0.0967047
-0.210069
0.0202866
0.0007641
0.0238844
0.0390931
0.0233965
0.0242813
-0.0511258
-0.0803235
0.0134393
-0.00287106
0.00454667
-0.231542
-0.132689
-0.00571228
-0.0545909
-0.00734309
0.0572981
0.0132602
-0.145005
-0.0789338
0.0518494
-0.107115
0.0126554
0.00331384
0.0135572
-0.0966398
-0.086382
-0.0932252
-0.130517
-0.49003
-0.106918
-0.27923
-0.144759
0.0232405
-0.204433
0.0123151
0.0249762
-0.103121
0.00865554
-0.152933
-0.415178
-0.202075
0.272714
-0.012735
0.0394186
-0.0989473
0.0228334
-0.441813
0.0202482
-0.168263
-0.492511
-0.0500765
-0.340952
-0.234191
0.0197754
0.418919
-0.01325
-0.00265108
0.139762
-0.396625
0.0237775
0.0210303
-0.0355241
0.110098
0.0442314
-0.0950562
-0.0401927
-0.143449
-0.00518693
0.0249122
-0.161407
-0.0865993
-0.135152
-0.223686
-0.119547
-0.0978096
-0.105834
-0.363134
0.270278
0.0137625
0.025077
-0.0770272
-0.320123
0.0442364
-0.144887
-0.140987
0.0060784
0.013958
0.0102211
-0.243947
-0.0680669
0.37643
-0.205462
-0.220618
-0.420108
-0.0974395
0.00641954
0.0520012
-0.0987577
0.02593
-0.578779
-0.0132683
-0.521863
0.0313276
-0.148454
-0.1606
0.0256873
-0.520316
-0.107496
-0.111565
0.00468226
-0.13542
-0.12129
-0.0964322
-0.000677497
0.424877
-0.214367
-0.0131711
0.0904009
0.00661012
-0.355817
0.0070102
-0.0345558
-0.0688878
0.0146863
-0.0130083
-0.119702
0.00864953
0.0380009
0.0156232
0.0233163
0.0525257
-0.00318055
-0.212379
-0.0015739
-0.236853
0.425708
-0.0543481
0.0444146
0.385076
0.00518241
-0.108963
0.0152163
-0.0123561
-0.118777
0.00766616
0.0387305
0.0224026
-0.0962664
-0.567191
-0.097922
0.0150093
0.0111471
-0.219116
-0.0980459
-0.0119976
0.0304948
0.037928
-0.0883771
-0.526422
0.0259334
0.0156575
0.148037
0.02402
0.00659732
-0.127681
-0.0348806
-0.237402
-0.0160982
0.0133041
0.0130738
-0.127538
0.0364042
-0.136493
-0.0157806
-0.0979347
0.00989347
-0.0186018
0.129569
-0.178141
0.00953277
-0.00752565
0.484515
-0.221797
-0.129247
0.009809
-0.0133185
0.00394841
-0.0943778
0.270541
-0.0980613
-0.258007
0.0819328
-0.0549264
0.0230179
-0.0199854
0.0307826
0.0109204
0.447556
0.140276
-0.173757
-0.103581
-0.237472
-1.15548e-05
-0.574992
-0.0978706
-0.166532
-0.205897
-0.0315127
-0.0920726
0.347311
-0.148597
0.243126
0.416272
0.0102467
0.317713
0.0133811
-0.101577
0.0104053
-0.177579
-0.159318
0.0259185
0.00950017
-0.0023283
0.079917
0.278102
0.289776
0.064863
0.0761741
-0.202431
0.00594522
-0.440364
0.000803205
-0.14409
0.0114328
-0.236853
0.293409
-0.233758
-0.131343
0.0138129
-0.0936913
0.0388446
0.00697495
-0.134829
0.0252396
0.000681782
0.00989764
0.00548188
-0.0857187
-0.0140113
-0.00146946
0.514357
-0.0837101
-0.0722617
-0.388921
-0.109434
-0.34453
-0.124334
-0.178286
-0.161624
-0.0352362
-0.0982542
0.0137852
0.0328897
0.0222539
-0.109876
0.0142374
-0.157431
0.0144635
0.467099
-0.117818
-0.109655
-0.0629699
0.0108261
0.0332873
-0.113541
-0.00348217
-0.0196565
0.107528
-0.103788
-0.15885
-0.0519301
-0.349709
0.0587485
-0.540462
0.135759
0.075246
-0.00210522
-0.0154932
0.173263
0.0811544
0.000661916
-0.0136545
0.0100991
0.172434
-0.2359
-0.000564136
0.469197
-0.0949551
0.00331126
-0.0948654
0.328758
0.00900965
0.0328278
0.0224238
0.119901
0.223288
-0.0856195
-0.122061
-0.0369084
-0.244325
-0.387644
0.199784
-0.45108
-0.112584
0.0136639
0.0380848
-0.272116
-0.00459187
-0.0880978
-0.0178057
-0.0312532
0.0068207
0.0155433
-0.14157
0.00544714
-0.165897
0.0110594
0.223626
0.180373
-0.0124567
0.0115232
-0.112928
4.78762e-05
0.000671094
-0.00012805
-0.131105
-0.35945
0.0379043
-0.0593595
-0.52856
-0.0180469
-0.221979
-0.00593007
0.245664
-0.0580206
0.0439293
-0.255418
-0.184467
-0.161319
-0.422249
0.0682086
-0.0347846
0.0147911
-0.101584
-0.143782
-0.076292
0.385516
0.0245193
0.0257428
-0.109228
-0.130071
-0.107527
0.470636
-0.130212
-0.0891038
-0.110115
0.121264
0.0775384
-0.0112089
-0.216797
0.0942021
-0.0974192
0.0157014
-0.0231667
-0.454661
-0.105949
-0.128781
0.00687523
-0.102911
-0.100324
0.0339888
-0.0702493
0.036849
0.335624
-0.0378994
-0.208628
-0.0750289
-0.00123002
0.435378
0.0219137
0.139957
-0.146827
-0.112816
0.0436294
-0.478613
-0.0045477
-0.0709455
-0.0349259
-0.0340699
0.0155623
0.00260288
0.050679
-0.0950406
-0.133399
0.0146143
0.0868609
-0.170883
0.261448
0.0335088
-0.00357921
-0.00326052
-0.0564138
-0.0238895
-0.00137703
-0.11863
-0.0950701
-0.271418
0.110347
-0.286357
-0.0600381
0.012422
0.0814244
-0.0927347
-0.0565197
0.00020914
-0.444071
-0.092408
0.00758644
-0.346193
-0.209251
-0.149756
-0.143604
-0.107289
-0.101118
0.00952187
-0.331784
-0.118406
0.0535993
-0.238056
-0.583784
0.0025062
-0.127331
0.0549454
0.014047
-0.167049
-0.403786
0.302976
0.363866
-0.0958721
0.00340607
-0.0661927
0.00398785
-0.0100223
-0.000968979
0.0117729
-0.0951048
-0.107709
-0.0363245
0.120675
-0.232721
-0.0925101
0.0184769
-0.137158
0.0240323
-0.133567
-0.0653969
-0.274851
-0.142822
-0.161576
0.00855366
0.0101888
0.0508456
0.00593196
0.389692
-0.0810465
-0.1288
-0.109084
0.200979
0.00301272
0.0111736
-0.508981
-0.31512
-0.173987
-0.443703
0.117592
0.0157951
-0.0636934
0.0151524
0.0143448
-0.319818
-0.114586
-0.28392
0.0878301
-0.225117
-0.022224
-0.112681
-0.200624
-0.164714
-0.0865508
0.377072
-0.442983
-0.593441
-0.0200439
0.467351
-0.289025
0.0143737
0.105707
-0.582494
-0.0179108
-0.103512
0.0287886
0.0074143
0.0211949
-0.190286
-0.221896
-0.0511052
0.0100347
0.00153935
-0.107629
-0.10628
0.0594593
-0.0996874
-0.0994561
0.0149414
-0.0263081
0.015569
-0.157142
-0.547382
-0.0533071
-0.0305887
0.0550675
-0.249021
0.238608
0.010653
0.0875643
0.221664
0.00714546
0.0753538
0.0962808
0.0146129
0.442381
0.381595
0.0175011
-0.0998539
-0.177875
-0.00735273
0.013168
-0.0999762
-0.0225859
0.00996588
-0.0840281
0.0130125
-0.00745401
-0.0126286
0.00451389
0.0570556
-0.192141
-0.0231279
-0.147418
0.374567
0.00573061
-0.108004
0.0106896
0.478481
0.0344047
-0.102397
0.29949
0.0746471
0.00643643
-0.159588
0.0193739
-0.100841
-0.195389
0.13164
-0.00626982
-0.178683
-0.0513713
-0.118695
0.0253289
0.142328
0.00825694
0.0826911
0.0134654
-0.232953
0.00455693
-0.370471
0.369291
-0.000535279
-0.0894239
0.327957
0.00327122
-0.104716
0.00652101
-0.403857
0.43149
0.20963
-0.0964086
-0.113768
0.0598848
0.0318163
-0.147121
0.0543339
-0.129385
0.023431
-0.10164
0.0730291
0.0752614
0.0159797
-0.0384059
0.0354474
0.0937593
-0.100506
-0.0596099
0.0174294
-0.131199
-0.102053
-0.239473
-0.124099
-0.222424
0.0939596
-0.180369
-0.246446
-0.090748
0.00332147
-0.0869683
0.0342244
0.0107705
-0.0355762
0.222736
0.00310239
-0.216452
-0.00465323
-0.248518
-0.00232345
-0.0877163
-0.0608815
0.0175639
-0.10665
0.0158769
-0.0222861
-0.183486
-0.132612
0.300674
0.0454426
-0.0918082
-0.0947348
0.0263814
-0.513417
0.030228
-0.305578
0.488313
0.0245523
0.0884487
-0.0564282
0.0226617
-0.348847
0.0148888
0.00289957
-0.362332
-0.00959043
0.291826
-0.291475
-0.0205279
-0.225871
0.0153768
0.0334299
-0.0662148
-0.0533755
-0.0119895
0.0116194
-0.111575
0.00328851
0.0146222
0.0453599
0.00531314
-0.0932304
-0.0249484
0.0221115
0.00784035
-0.0958273
0.0523255
-0.0670321
0.0236459
0.225838
0.0143667
-0.08663
-0.108636
-0.0711203
-0.0956096
-0.0501264
0.0324099
-9.34964e-05
-0.116231
0.0118665
-0.0883585
-0.0208753
0.0260878
0.077569
0.0500558
-0.00123381
-0.0959756
-0.310447
0.353088
0.0110535
-0.122832
0.0472568
0.0758697
0.409893
0.0855956
0.0173497
-0.140531
-0.350251
0.031992
0.0104666
-0.0428644
0.0710951
-0.092212
-0.197254
-0.21475
0.290963
0.303162
-0.396362
-0.114236
-0.0218023
0.0242637
-0.0567452
0.0719062
0.471604
-0.54566
0.0371167
0.0479606
-0.25406
0.012201
-0.163937
0.00816745
0.095856
-0.0244227
0.0307261
0.0195514
-0.576231
0.00515291
-0.187868
-0.102624
-0.144194
-0.151884
-0.367334
-0.0299831
0.0244094
0.00516247
0.0533443
-0.172397
0.0200816
0.00996565
-0.0983386
-0.143131
-0.159474
0.281435
-0.112956
0.0329263
-0.00787644
-0.0411941
-0.0295798
0.227163
0.0857512
-0.212554
-0.0268092
-0.11299
-0.11182
0.0213052
-0.0205638
-0.00876684
-0.113067
0.0631047
-0.109747
-0.0995334
0.0234476
-0.12544
-0.0841998
0.0199964
0.00724736
-0.0599414
0.0309519
-0.112781
0.00561599
-0.0977716
-0.00485012
-0.148772
0.0662725
-0.244197
-0.0372408
-0.0579346
0.0339582
0.0437585
-0.00473137
0.0100126
0.00628254
-0.112294
0.0161999
-0.0398355
-0.147412
0.0644893
-0.0054335
0.00871219
-0.0411717
0.0309741
-0.0958992
-0.054428
-0.106646
-0.390876
-0.413209
-0.0964424
-0.000175306
-0.00990161
-0.070811
0.0959517
0.141804
0.0211774
0.37077
0.0772252
-0.246258
-0.449565
0.21905
-0.0350273
0.117324
-0.172118
0.0214993
0.427888
0.0130607
0.245889
-0.026221
0.294974
-0.0883761
0.180122
0.0171251
-0.116854
-0.337177
-0.0971423
-0.13622
-0.0964815
-0.0744304
0.498509
0.0193538
0.0172494
0.00641484
0.0136342
-0.139931
0.0518147
-0.454048
0.231006
-0.00164188
0.00797395
-0.0264676
-0.0378703
0.0817939
-0.121778
-0.00982408
0.0375475
-0.184713
-0.208415
-0.168901
-0.258988
-0.112799
-0.00579019
-0.116527
0.0158578
0.38454
0.0157419
-0.107472
-0.116136
0.00816758
0.0835495
-0.108459
0.00104445
-0.161109
-0.230311
-0.101961
-0.371385
-0.00203404
-0.115814
-0.177599
-0.155895
0.0307352
-0.185383
0.010281
-0.148722
-0.0963708
-0.165671
-0.110266
-0.142202
-0.12929
0.0101764
0.198073
0.0280471
-0.0972031
0.000571611
0.0111177
0.00107721
-0.112192
0.00632843
-0.113828
-0.0514903
0.0389543
-0.573812
-0.401078
-0.0624284
0.0120024
0.0528812
-0.148908
-0.0110285
0.0214004
0.330974
0.0101925
0.464223
0.0533547
0.00419369
-0.0201592
-0.0672254
-0.197427
-0.00727745
-0.191665
-0.0810649
0.00505856
-0.00636001
-0.408559
0.0426252
0.00642511
0.00986085
0.0135377
-0.0771929
0.0156177
0.266936
-0.0238579
0.434479
-0.00210149
0.0140081
0.26181
0.313164
-0.0956893
-0.00635936
-0.145448
-0.129998
-0.1097
0.033848
0.0519861
0.00977146
-0.235844
0.03288
0.0238197
-0.00906037
0.0156267
-0.133425
0.00885739
0.0114228
-0.0904984
-0.000983789
-0.196624
-0.0949694
0.00909408
-0.148838
-0.109669
-0.245003
0.00685573
0.140304
0.0635864
0.0217117
0.0316344
0.0307082
0.0446653
0.0527869
0.015337
0.0116219
-0.563627
0.0160849
0.514226
-0.094263
-0.0963821
-0.100013
-0.00116609
-0.0747248
0.00774049
-0.0997697
0.142737
-0.0988133
-0.217521
-0.279734
0.1592
-0.113649
-0.105546
-0.411734
-0.0203373
-0.0965294
0.216196
-0.114251
0.00413006
-0.303951
-0.0844724
-0.00622163
0.0256021
-0.146019
-0.0418533
-0.141238
-0.283259
-0.492385
0.0415832
0.0161382
-0.00756996
-0.528089
-0.0853752
0.0055953
-0.110362
-0.459064
-0.111485
-0.0983886
0.409807
0.0262408
0.0618368
0.00908396
-0.123603
0.022169
0.0269286
0.000597116
0.280428
0.0438965
0.0535585
-0.07193
0.240748
-0.0673584
-0.00803486
-0.104215
0.0287869
-0.0956318
-0.0137344
0.000663389
0.0154692
-0.216741
-0.081929
-0.0675908
-0.0932643
-0.199871
-0.000836185
-0.0422325
-0.21368
-0.104603
0.0199918
0.0375066
-0.00169786
0.0156688
-0.0074661
-0.576249
-0.0966691
-0.109632
-0.0848526
-0.113127
-0.191322
0.00881843
0.0513204
-0.171769
0.0153022
0.0261504
-0.102832
-0.0235422
0.0197681
-0.0143263
-0.0908128
-0.109326
-0.246739
-0.0975392
0.116411
-0.112367
-0.112766
-0.329294
0.0121336
0.0101323
-0.0844889
0.0127798
-0.580653
0.0229817
0.0163887
0.0358932
0.271586
0.024306
0.0514196
0.385155
0.0109404
-0.131857
-0.0748871
-0.0059879
-0.206284
-0.208886
0.01219
0.0168703
0.0612661
-0.289138
0.0463198
0.0202771
-0.0937267
-0.0951861
-0.208378
-0.0136459
0.0104301
-0.11152
-0.0544024
0.00899487
0.0105851
-0.0906824
-0.0193032
0.416969
0.176766
0.353073
-0.127771
0.0315393
-0.105483
0.00365978
-0.56782
-0.00333738
0.169004
0.0221323
0.25984
-0.13391
-0.197417
0.13712
0.00205995
-0.238619
0.0294794
-0.19622
-0.0521145
0.010184
-0.188333
0.0100431
-0.289739
-0.0617436
-0.0560534
0.0981359
0.0294764
0.003005
-0.163503
-0.0577646
-0.441904
0.03918
-0.55616
-0.0955712
0.0523884
0.143868
-0.100073
0.011723
0.00458301
-0.279844
-0.053374
-0.180134
0.0389375
0.00322044
0.00937284
0.0264084
0.0569301
-0.236381
-0.0925911
-0.160706
-0.151436
0.0208557
-0.0930681
-0.0998918
-0.510087
-0.178574
0.0440428
-0.555607
-0.237589
0.0106198
0.280847
0.0569183
-0.10932
0.0204197
0.0152336
-0.0543929
0.0342582
0.0826845
-0.111875
0.0302016
-0.0117192
-0.434497
0.0703909
-0.107859
-0.00328948
-0.399591
-0.0632481
0.00967363
0.0227949
0.0126639
-0.0834063
-0.00587594
0.210693
0.0192914
-0.102909
-0.0977109
-0.0421682
0.0147722
-0.0945162
-0.0955088
-0.0576249
-0.377411
-0.331379
0.0392166
-0.199488
-0.232213
-0.0488256
-0.0948025
-0.0414829
0.0376884
0.0137087
0.225109
0.0218083
0.0219267
-0.00765853
-0.0966782
0.106889
-0.107931
0.0370673
-0.0249614
-0.00109215
0.0100312
0.0267164
-0.00182112
-0.0004783
0.0421608
-0.322842
-0.130622
-0.120931
0.025889
0.0153177
0.00633299
0.012295
0.337429
-0.549462
0.00101199
0.334238
-0.112878
0.0389583
-0.0928329
0.0268988
-0.0203275
-0.185381
0.0585354
0.0109576
-0.00865469
-0.0554993
0.00910116
-0.0196992
-0.0165818
-0.047685
0.0201179
0.00287099
-0.175108
-0.00557938
0.287849
-0.183472
-0.106742
-0.0241016
0.00235214
-0.00175854
-0.0741363
-0.00170521
-0.117391
0.00396189
0.00126921
-0.109419
-0.162781
0.0293965
-0.0927021
-0.00209265
-0.218439
0.345781
0.114032
0.0158342
0.191255
0.427167
-0.253522
-0.204202
-0.0917093
0.0304209
-0.241925
0.00568957
0.242042
-0.567842
-0.104337
0.0102375
-0.113163
-0.167026
-0.185537
0.0121712
0.0616215
0.0237256
0.00932893
0.175967
-0.131067
-0.0979247
-0.00579679
0.0314362
-0.00717223
-0.0804954
0.0210629
0.00922205
0.0185503
-0.108283
0.0515749
0.178107
0.0151484
0.183413
0.0296252
-0.0661012
-0.0989894
-0.039758
0.0233954
0.00749286
-0.302498
-0.0742093
-0.157664
-0.0993188
0.458506
-0.338661
0.025295
0.00745611
0.253376
-0.167652
-0.238926
0.0829865
0.00416113
0.00939108
-0.532268
0.00291544
0.0016159
-0.0943596
-0.104051
-0.0548516
-0.111488
0.00479333
-0.0986364
0.0339734
0.123773
0.0121459
0.0239502
0.0127857
0.00236587
0.0296633
-0.0631771
0.00946737
-0.225499
-0.00717929
-0.0811249
-0.243643
-0.166982
0.0577373
0.009441
0.09635
0.0224734
-0.0384644
0.263645
0.327193
0.0313768
0.0234639
0.0745302
-0.103954
0.292398
-0.214816
0.015466
-0.098051
0.124848
0.276789
-0.0954374
0.0282157
0.119902
-0.107846
0.0601709
-0.00108623
-0.210875
-0.202438
0.0840428
-0.0239066
-0.0914372
0.0117658
0.02314
-0.104755
0.00589659
0.00752129
0.0810158
0.024913
0.009021
-0.10851
0.0585573
0.011869
-0.00209097
-0.080857
-0.0492434
0.0824845
-0.287267
-0.0317261
-0.335394
-0.121224
0.368284
0.0194086
-0.094061
0.0218375
-0.0946267
-0.471505
0.0111776
-0.0125908
-0.0321987
0.0159535
-0.080656
-0.00222149
0.0265497
-0.408812
-0.18341
-0.302625
-0.111068
-0.0334337
-0.219382
-0.0401121
-0.102772
-0.33607
-0.103351
-0.160074
0.358553
-0.0975689
-0.42186
-0.129946
-0.000370219
-0.554545
-0.160101
-0.0233471
-0.0319308
-0.0336588
-0.100865
0.252837
0.000679236
0.0392613
0.18763
-0.154918
-0.0795317
0.127955
0.018691
0.000443665
-0.0482664
0.00294251
0.0450195
-0.00486915
-0.106619
0.0259434
0.0203397
-0.000768649
0.0299185
0.00130488
-0.124838
-0.0875093
0.0133413
0.000802071
-0.349099
0.11565
0.190611
-0.0279199
-0.0920304
0.00631454
-0.00284088
0.013426
-0.108098
-0.0482436
-0.127424
0.00289556
0.116665
-0.00572455
0.0138501
0.0025026
0.0368528
0.0140897
0.084088
-0.161974
-0.167765
-0.0355877
0.0105195
-0.0290168
0.0124125
0.443072
-0.248196
0.00940706
-0.0979024
-0.0671427
0.0128353
-0.130206
0.012754
-0.0948702
0.00752985
-0.118515
-0.495172
0.303062
-0.0988345
0.0380224
-0.12192
-0.343826
0.0243042
0.00843405
-0.000954377
-0.0430334
0.00613119
-0.166083
-0.0473683
0.00350624
-0.306451
0.177271
-0.00527654
0.0072036
0.025592
0.0020774
-0.0952037
0.349104
0.49213
-0.0994807
-0.144175
0.164752
0.0581192
0.00770461
0.443858
-0.00611177
-0.21915
-0.0983495
-0.125338
-0.126563
-0.00533731
-0.233981
-0.575989
-0.109418
-0.554134
0.0198714
-0.555301
-0.00758791
0.00599919
-0.00872753
0.0150411
-0.412423
0.010909
0.129888
0.0203115
-0.133603
-0.101055
-0.000895527
0.0337015
-0.0490793
-0.133344
0.419841
-0.00247067
-0.134094
0.43119
-0.110195
-0.548143
-0.216201
0.246953
-0.168619
-0.0849522
-0.124117
-0.518744
0.0508709
-0.310837
-0.129942
-0.155308
0.0332712
-0.10772
0.0281363
-0.136946
-0.430393
-0.0532824
0.0136563
-0.241481
-0.0448877
-0.0975089
0.00713975
0.025505
-0.0114201
-0.400291
0.220995
-0.0465184
0.0264211
0.0188113
-0.0117775
0.018652
-0.00621247
-0.000643851
-0.0992019
0.0511633
-0.103842
-0.206858
-0.191534
0.00949414
-0.195814
-0.0962448
-0.0632757
0.0135401
-0.107929
0.00595519
-0.101223
-0.456475
-0.000604344
-0.243692
-0.112938
-0.0759525
-0.185671
0.0289134
0.441138
0.0734331
-0.348044
-0.0171773
-0.0975704
-0.0813545
-0.42669
-0.0960429
-0.113922
0.00700213
-0.236994
0.396742
0.00926468
-0.110962
-0.0952909
0.157071
-0.397476
0.0188041
-0.175119
-0.0187514
0.0103455
0.026565
-0.299128
0.0921595
-0.0982541
-0.551959
0.103738
-0.083987
-0.0172089
-0.0846658
0.00017138
0.0279611
0.457726
-0.231649
-0.114851
-0.0237025
-0.410576
-0.0969756
-0.227295
0.0115657
-0.44028
-0.102734
0.00576468
-0.108608
-0.165817
-0.00134097
-0.403954
-0.110494
0.00854287
-0.423205
0.00181421
-0.405443
-0.0966227
0.0207885
-0.0986355
-0.112378
-0.188703
-0.0035149
-0.0965853
-0.152432
0.00402891
0.00743073
-9.62846e-05
-0.345908
-0.0953626
-0.0110805
0.0929512
-0.0108674
0.0115314
-0.10239
-0.0802435
-0.0428649
0.0137969
0.0229733
0.00997753
-0.131041
0.146603
0.000507508
0.078734
-0.135848
-0.00955349
0.00267742
-0.117492
-0.102629
0.0163419
0.49689
0.0271835
-0.0974426
-0.130382
-0.0952711
0.0110674
0.00766401
0.0472103
-0.12783
0.000667855
-0.0951045
0.0186687
0.0440017
0.033286
-0.0273361
0.332083
0.0262237
0.327726
-0.260667
-0.150041
0.0121981
-0.0666136
0.10263
-0.0774857
-0.118234
-0.10241
0.00618687
-0.125631
0.072556
0.0100002
0.0459567
-0.0123124
-0.15949
0.143909
0.00992897
-0.00760308
0.289405
0.0165982
-0.0942795
-0.110805
0.406563
-0.00289341
-0.056388
-0.0918917
0.0009379
-0.111553
-0.41004
-0.0589124
-0.420312
-0.582752
0.0229664
-0.13474
-0.0943834
0.0113933
-0.00264279
0.0135643
0.0110193
-0.562625
-0.0857459
-0.0175246
-0.107675
-0.315611
0.0230699
0.0154578
0.174005
-0.125234
-0.204573
-0.00710682
0.0100531
0.354017
0.00782501
0.00738511
-0.0977085
-0.109922
0.00392928
-0.397653
-0.0815698
-0.0955137
0.00926419
-0.240339
0.27747
-0.0240322
0.0302838
-0.0863216
-0.359665
0.126669
0.0580578
-0.188101
-0.022833
0.00503005
0.256315
0.495731
-0.0141086
0.00276109
0.023954
-0.0129482
-0.0276861
-0.500421
-0.32817
0.00719999
0.0533589
-0.115036
0.024865
-0.383823
-0.102034
-0.106881
-0.0121797
0.0342942
-0.19759
-0.0966185
-0.0962328
-0.00331178
0.0280036
0.137382
-0.149022
0.0308172
0.00692193
0.0263346
-0.00550869
-0.180845
0.184716
0.0692687
0.0453201
0.0117077
-0.0140061
0.000645477
-0.167668
0.122515
-0.457043
-0.438604
-0.130601
0.0092034
-0.107022
-0.207418
0.0392807
-0.0409769
-0.361828
0.00794648
-0.24556
-0.0867857
0.223539
-0.0782712
0.296762
0.00985753
-0.106654
-0.00242113
0.0413833
0.0211824
-0.438611
0.015609
-0.33954
0.187051
0.0479676
-0.0546059
-0.261694
-0.099638
0.137098
-0.0842829
0.023271
0.0844953
-0.00696405
0.0025293
0.0547215
0.024086
-0.240876
-0.00561646
-0.0969321
-0.221605
0.00514427
-0.207116
-0.102406
-0.0958468
-0.041476
0.0243436
0.00651335
-0.435581
-0.0964609
0.0181643
-0.607413
-0.120367
-0.0133284
0.00150954
-0.562584
0.0520829
-0.435341
-0.428635
-0.112838
0.0321697
-0.0723739
0.270136
0.295249
-0.425359
-0.568715
-0.0173059
0.004125
0.337568
0.00681061
0.0307154
0.0131384
-0.0384201
0.00337923
0.0209146
0.213472
0.0127571
0.0186473
0.0502774
0.0472492
-0.0824998
0.14497
-0.00651246
-0.535765
-0.081343
0.147343
0.273384
0.00871724
-0.00147969
-0.0343468
-0.0924969
0.0109836
0.0128748
-0.116582
-0.00187564
0.0128036
-0.126968
-0.0963351
0.0481754
-0.0753051
-0.102598
0.0187659
-0.111095
0.0057169
0.00419742
-0.132211
-0.166034
0.0351758
-0.00719037
0.0244834
-0.244098
0.0187384
0.111455
0.0341381
0.0216935
0.032303
-0.0820413
0.0105319
-0.013022
-0.103722
0.0154922
-0.110457
-0.321586
0.107764
0.0289822
0.2237
0.0038572
-0.0752505
-0.0111754
-0.0130699
0.158897
-0.0787708
-0.109301
-0.00798199
0.357962
0.0107004
0.375525
-0.520365
0.0150155
0.0259274
0.0210183
0.0327668
-0.105016
0.0340136
0.0100703
-0.122729
0.0121221
0.0265236
0.0120366
0.00370025
-0.0977757
-0.273846
0.00049622
0.0923344
-0.0978589
-0.147971
-0.105832
-0.0817603
0.0231054
0.0231047
-0.00672114
-0.104265
-0.103186
-0.128246
0.164502
0.00913722
0.0114778
0.0128191
0.0266121
-0.276002
-0.064304
-0.013807
-0.120586
-0.346784
-0.238051
-0.0938926
-0.227546
0.0269148
-0.0639225
-0.152888
-0.270908
0.415472
-0.113224
-0.00780712
0.0163392
-0.299555
0.0254009
-0.0753002
0.105275
-0.0109039
0.0439016
0.012124
-0.376541
0.387359
0.0103381
0.0208253
0.0102558
-0.0134192
0.168377
0.322991
0.0176226
0.021944
0.00405507
0.0531662
-0.00223584
0.0111763
-0.0837482
0.0154016
0.00921104
-0.123851
-0.113122
0.0372792
0.0588475
0.00172771
0.0194296
-0.0535882
0.287047
0.359436
0.498972
-0.387784
-0.11253
0.0303484
0.028834
-0.24331
0.0539169
0.0135438
-0.209597
-0.0934155
-0.0981085
-0.455987
-0.395984
0.0213983
-0.111658
0.00657722
-0.041479
-0.361703
0.0062793
0.0120345
-0.105341
0.0368026
-0.56954
0.0415458
-0.164516
0.00132624
0.0227471
0.00609598
-0.01816
0.00827282
0.0519899
0.0153624
-0.0252967
-0.0330307
-0.114186
0.019829
-0.0950635
0.0465576
-0.259632
-0.107633
-0.252987
-0.0910128
-0.10258
-0.108192
-0.0932263
-0.103043
0.00657647
0.0219306
-0.0250282
0.0420427
-0.128257
-0.0246751
0.087863
0.0124182
0.000951235
0.0248648
-0.209035
-0.0726945
-0.00159562
0.024674
0.0294869
-0.0277468
-0.0617052
-0.00860369
-0.0170674
0.0265218
-0.0342718
-0.106535
0.00531374
0.297697
0.00532533
0.0132371
0.00619401
-0.0805362
0.0216294
-0.0972072
0.0113077
-0.108181
-0.277947
0.0150332
0.0104497
0.0890475
-0.452622
0.0105063
0.00808321
-0.411124
-0.030886
0.0198416
0.080743
-0.103921
0.0182731
-0.103227
0.0412504
-0.131176
0.280908
-0.0250097
0.0154427
0.0237459
0.0622314
-0.116814
-0.584492
0.174373
-0.361298
-0.0480818
-0.073972
-0.353689
-0.125255
0.0177932
-0.002967
-0.112588
0.01689
0.458144
0.0100699
-0.116082
-0.318091
-0.326177
-0.171738
0.0151831
-0.131295
0.0470759
0.0194118
-0.0807779
-0.171955
0.0286454
-0.100092
0.393956
0.02192
0.143839
0.106819
-0.0644364
-0.120535
0.013603
-0.148266
-0.0954479
-0.101739
0.0128577
-0.160083
-0.103074
0.0455335
0.0312174
-0.0162403
0.00588637
0.286449
0.0275639
-0.126753
-0.011808
0.016128
0.0260618
-0.124708
-0.212985
-0.0908625
-0.0760442
-0.0553594
0.0250837
-0.08112
-0.0856828
-0.26465
-0.392977
-0.0497308
0.038265
-0.603343
0.0108101
0.0211894
0.00321336
-0.551517
0.00603842
0.0652628
0.0385335
0.00093007
-0.130213
0.0271852
-0.180096
-0.0902294
-0.0539321
-0.0928067
0.0131175
0.0265874
-0.00133317
-0.334698
0.0490648
0.0252125
0.318534
0.262395
-0.0642446
-0.020092
0.0157951
-0.0959568
-0.11524
-0.00185602
0.404725
-0.0452119
-0.0974899
0.00532269
0.0101928
0.00908429
-0.103037
0.029827
-0.0978698
-0.0310801
-0.0381146
-0.138487
0.0153832
-0.0602709
0.020613
0.0122457
-0.098301
0.0779416
0.0706457
-0.126489
-0.148619
0.00174182
-0.436253
-0.0990569
-0.158775
0.00670229
-0.174544
-0.117643
-0.530523
0.0717198
0.00862247
-0.595848
-0.00712925
0.00424269
0.047335
-0.221009
0.0553987
-0.020611
0.0485771
0.372011
-0.0391016
0.40427
0.0175078
0.017264
0.234109
0.277803
0.00940859
-0.103168
-0.103213
-0.120539
-0.0202365
0.499873
-0.0900031
-0.0929924
0.0201834
-0.0920689
-0.23705
-0.338682
0.0136822
-0.0124486
0.0145477
-0.153995
-0.0851539
0.00878935
-0.108578
-0.344432
0.0219863
-0.171928
0.00936144
0.026085
-0.0631956
0.0174159
-0.172944
0.00936129
0.0080795
0.309659
-0.095853
-0.0160442
0.000506369
-0.114207
-0.207368
-0.146537
0.00932184
0.168752
0.00373979
0.0299503
-0.00494161
-0.125144
-0.0989596
-0.114546
0.0135014
0.378393
-0.108121
0.0339704
0.0705558
-0.00870771
-0.0380547
0.23103
-0.00821811
-0.378522
0.173516
-0.34591
-0.275195
0.00258369
-0.491001
-0.106406
0.0128621
-0.0158961
-0.00717792
-0.094244
0.0093541
-0.112673
-0.0696711
-0.228131
-0.0234747
0.0590629
-0.110649
-0.156188
-0.176251
-0.209327
-0.381028
0.00652797
-0.168959
-0.0632793
0.0612523
0.022169
0.470005
-0.102064
0.311829
0.106702
0.00944693
0.018881
0.0240634
0.0234173
-0.0693
0.368273
0.0140958
0.00295766
-0.0209303
0.0245093
-0.232984
0.432901
0.048034
-0.108384
0.086146
-0.124655
-0.0063932
0.0740424
0.0258742
0.273617
0.0114985
0.245359
0.0528836
-0.100963
0.0628193
-0.00556604
-0.118144
-0.0442198
0.0102571
0.00532116
-0.121449
-0.0737672
-0.104285
-0.000918126
0.0511981
-0.0622283
-0.154857
0.0151926
-0.169128
0.0197058
0.0123658
0.450402
0.0101536
0.00921811
-0.436917
-0.0138544
0.0362948
0.0128133
-0.0949247
-0.0932603
-0.00575823
-0.00705624
-0.0127199
0.0165527
0.00663268
-0.00938248
0.0383603
0.0172807
-0.5762
0.00603259
-0.232988
-0.0262885
-0.214862
-0.00559881
-0.12037
-0.000418632
-0.0082791
0.0104642
-0.250228