/*--------------------------------*- C++ -*----------------------------------*\
| =========                 |                                                 |
| \\      /  F ield         | OpenFOAM: The Open Source CFD Toolbox           |
|  \\    /   O peration     | Version:  v2012                                 |
|   \\  /    A nd           | Website:  www.openfoam.com                      |
|    \\/     M anipulation  |                                                 |
\*---------------------------------------------------------------------------*/
FoamFile
{
    version     2.0;
    format      ascii;
    class       volScalarField;
    location    "400";
    object      epsilon_0;
}
// * * * * * * * * * * * * * * * * * * * * * * * * * * * * * * * * * * * * * //

dimensions      [0 2 -3 0 0 0 0];


internalField   nonuniform List<scalar> 
33474
(
1.60139e-06
9.97891e-07
2.22145e-06
1.27129e-06
1.5913e-06
1.27511e-06
8.23389e-07
1.51211e-06
9.76279e-07
0.0022026
1.1058e-06
1.32799e-06
8.20175e-07
1.5829e-06
1.64331e-06
7.68179e-07
6.14956e-07
3.63589e-06
1.49942e-06
1.13832e-06
2.19007e-06
1.32817e-05
1.25971e-06
1.60368e-06
1.24641e-06
1.32813e-06
8.36091e-07
1.80611e-06
1.4781e-05
6.36389e-07
4.18118e-07
1.26376e-06
2.38399e-06
3.51422e-06
7.08419e-07
1.0926e-06
0.00273725
7.0316e-07
1.31878e-06
1.59341e-06
1.17336e-06
6.34588e-07
6.43007e-07
1.26066e-06
0.00523477
5.08668e-05
8.07729e-05
1.70815e-06
2.51944e-05
7.04032e-07
1.47023e-06
9.31123e-07
1.58949e-06
8.1828e-07
1.28922e-06
1.79746e-06
1.29331e-06
2.05912e-06
1.58892e-06
1.5027e-06
1.31429e-06
7.50113e-05
0.00271372
7.12206e-07
6.8695e-07
1.45071e-06
5.34912e-07
0.00688904
9.28939e-07
1.52921e-06
0.000104337
7.62955e-05
7.9933e-07
6.85781e-07
0.000191458
6.70813e-07
2.37784e-05
1.47785e-06
1.58513e-06
1.60026e-06
0.00258792
1.33669e-06
3.72941e-05
7.06908e-07
1.71109e-06
7.17783e-07
2.21263e-06
0.00883716
0.000564966
4.90397e-07
1.265e-06
7.02672e-07
1.57869e-06
1.16434e-06
8.22754e-07
1.70636e-06
1.70107e-06
1.53152e-06
9.24003e-07
6.24071e-07
2.24535e-06
2.18742e-05
1.54684e-06
3.77579e-06
4.14665e-07
5.23306e-07
1.47491e-06
1.54347e-06
9.22407e-07
6.25223e-07
1.59546e-06
5.33395e-07
2.51905e-06
1.20185e-06
2.11797e-06
1.88089e-06
1.31072e-06
2.442e-06
1.34072e-06
8.21063e-07
1.46513e-06
2.58115e-06
1.28308e-06
7.16599e-07
1.71339e-06
1.14306e-06
1.0095e-06
2.04499e-06
2.37118e-06
1.64212e-06
8.06648e-07
1.52754e-06
2.74884e-06
0.00257361
1.63935e-06
9.20302e-07
1.91163e-06
0.00232903
1.3108e-05
2.28093e-06
1.46903e-06
6.14501e-07
4.11993e-07
1.19764e-06
1.43981e-06
1.59256e-06
0.00116549
4.39944e-05
2.16204e-06
2.46658e-06
1.50221e-06
1.11026e-06
1.3364e-06
1.17002e-06
1.87756e-06
1.25661e-06
1.67522e-06
1.27888e-06
1.59793e-06
1.95949e-06
2.66889e-06
6.14718e-07
2.21611e-06
0.000128939
1.69866e-06
1.4761e-06
8.24949e-07
8.03443e-05
1.46952e-06
1.71225e-06
4.12044e-06
7.595e-07
0.000299678
6.22986e-07
1.48057e-06
0.00318254
1.56126e-06
1.04914e-06
9.00526e-05
8.11123e-07
8.14493e-07
1.60057e-06
7.02637e-07
1.01967e-06
1.43059e-06
0.00872113
0.000935276
1.29917e-06
1.53524e-06
1.18026e-06
1.50152e-06
1.5959e-06
2.7625e-06
1.6759e-05
0.000492266
1.20554e-06
7.30769e-05
2.02364e-06
2.86248e-06
8.98297e-07
1.11526e-06
1.02064e-06
3.03292e-06
1.68773e-06
2.2546e-06
8.34179e-07
8.22158e-07
2.2264e-06
1.20624e-06
0.0085679
2.99964e-06
4.50258e-07
1.47499e-06
1.87181e-06
4.49537e-07
4.02072e-06
1.15466e-06
0.000253742
0.000988803
1.16942e-06
1.20269e-06
1.1115e-06
1.1473e-06
2.21033e-06
4.12773e-07
1.6544e-06
4.13072e-05
1.6046e-06
9.08608e-07
1.65217e-06
0.000984827
8.76573e-07
8.17004e-07
7.47036e-07
7.57251e-07
0.000710617
1.7022e-06
1.27625e-06
9.82498e-07
1.57748e-06
1.26564e-06
2.29029e-06
1.8245e-06
1.47072e-06
2.16986e-06
7.66718e-07
1.08841e-06
1.21378e-06
1.4469e-06
1.45699e-06
1.70469e-06
1.47868e-06
2.07587e-06
8.32446e-07
1.59004e-06
9.08194e-07
0.00224093
9.16421e-07
2.26021e-06
0.00288243
0.000104147
1.68598e-06
1.51283e-06
0.00143138
1.0281e-06
7.60763e-07
0.00026902
8.07648e-05
8.21707e-05
1.14471e-06
1.54879e-06
1.35193e-06
1.6432e-06
1.2674e-06
7.61513e-07
1.21356e-06
1.3643e-06
9.39689e-07
1.60518e-06
1.43174e-06
1.58082e-06
8.0225e-07
1.57475e-06
1.27292e-06
7.01689e-07
1.08326e-06
9.15571e-07
5.89278e-07
2.10001e-06
0.000148473
0.000179536
8.64051e-07
0.000533319
1.53835e-06
1.57077e-06
3.52184e-06
0.00323165
1.87898e-06
1.23151e-06
1.57764e-06
1.3625e-06
6.19374e-07
7.4077e-05
9.37752e-07
4.58895e-07
8.94702e-07
4.58981e-07
1.89029e-06
2.01774e-06
0.0083738
1.34828e-06
1.22668e-06
4.88993e-07
8.1746e-05
0.000148997
0.000912301
0.00807135
2.08412e-06
1.50665e-06
0.000452522
4.17479e-07
8.68285e-07
0.00842465
8.09981e-07
1.47618e-06
1.60197e-06
7.64042e-05
1.02564e-06
1.51926e-06
6.769e-07
1.43097e-06
1.47166e-06
1.70438e-06
4.14906e-06
6.75771e-07
1.19553e-06
1.22813e-05
4.6302e-07
4.6314e-07
6.43024e-07
1.28465e-06
2.03829e-06
6.26241e-06
8.18799e-05
4.8855e-06
6.94309e-07
9.67355e-07
1.4262e-06
1.61896e-06
1.70657e-06
1.10884e-06
6.94458e-07
1.87918e-06
1.89518e-06
1.27885e-06
4.17317e-07
1.1538e-06
8.28286e-07
5.23702e-07
0.000128715
1.31147e-06
0.000112754
1.57556e-06
1.43206e-06
1.17562e-06
1.46387e-06
7.43279e-07
1.32541e-06
1.00775e-06
5.84473e-06
4.67226e-07
4.67311e-07
9.86591e-07
2.40371e-06
1.50105e-06
1.88531e-06
1.17161e-06
1.35393e-06
1.21372e-06
0.00500584
5.52476e-07
2.02013e-05
9.82439e-07
1.28633e-06
1.80925e-06
6.14048e-07
1.4899e-06
1.19227e-06
1.39986e-06
1.50837e-06
1.02567e-06
1.86403e-06
4.50942e-07
4.54352e-07
1.42833e-06
1.72724e-06
1.54453e-06
8.73037e-07
7.56728e-07
1.30785e-06
1.35604e-06
1.45815e-06
8.90762e-07
1.27255e-06
3.75617e-06
4.13336e-07
2.07729e-06
0.00323531
0.00246313
5.71761e-07
1.32872e-06
1.15846e-06
1.44036e-06
1.01619e-06
1.50415e-06
7.71844e-07
0.00979345
4.47905e-07
5.16532e-07
1.70957e-06
7.72855e-07
1.35624e-06
1.03167e-06
4.4683e-07
1.43197e-06
1.47567e-06
1.86028e-05
1.48559e-06
1.26217e-06
1.0111e-06
8.44763e-07
0.00288281
1.03167e-06
1.83204e-05
1.5022e-06
1.2657e-06
1.55338e-06
1.60678e-06
2.12018e-06
5.36563e-07
8.00319e-07
9.27814e-07
8.45049e-07
9.83028e-07
5.37662e-07
1.50825e-06
5.30992e-07
1.32122e-06
1.15057e-06
2.3322e-05
0.00250015
1.27543e-06
6.02293e-07
1.25706e-06
3.21446e-06
2.3111e-05
3.9302e-05
3.32574e-05
1.33714e-06
4.71534e-07
1.43675e-06
1.48805e-06
1.34478e-06
1.06118e-06
7.09591e-05
1.12886e-06
4.71636e-07
1.38275e-06
1.25616e-06
1.1685e-06
0.00856868
6.51084e-07
1.49905e-06
1.29754e-06
6.17545e-07
1.48992e-06
8.03817e-07
7.04006e-07
0.0017414
1.28042e-06
2.10449e-06
0.000116012
0.000115549
1.13595e-06
1.25736e-06
1.00895e-06
0.0119054
1.50042e-06
9.46098e-07
4.11938e-07
0.000115286
0.000115903
1.58722e-06
0.00775069
6.43139e-07
1.29983e-06
6.35398e-07
6.72292e-07
1.09862e-06
6.70219e-07
1.46352e-06
1.97305e-06
1.52428e-06
5.20392e-05
1.01959e-06
1.14637e-06
1.32597e-06
0.00960971
5.34704e-06
1.8006e-06
1.58625e-06
1.06363e-06
1.59015e-06
2.66623e-06
6.34491e-07
1.28315e-06
1.27941e-06
1.46763e-06
1.35448e-06
0.00840416
1.95753e-06
1.23571e-06
7.69048e-07
8.2906e-07
1.27457e-06
1.13476e-06
7.50981e-07
7.83056e-07
0.0094357
1.54174e-06
1.5419e-06
2.04835e-05
1.58177e-06
1.4336e-06
9.05805e-07
7.26955e-06
1.64809e-06
7.09519e-07
1.27391e-06
1.0242e-06
5.21577e-07
5.12863e-06
1.09185e-06
1.2594e-06
5.27542e-07
1.0247e-06
1.23608e-06
0.00844356
1.38038e-06
4.16659e-07
0.000157458
1.02403e-06
4.12792e-07
5.80353e-07
0.00626353
0.00159553
5.7849e-07
1.29631e-06
1.55076e-06
1.43558e-06
9.0205e-07
1.58065e-06
1.0938e-06
2.41242e-05
1.58528e-06
1.4305e-06
1.46976e-06
2.40778e-05
6.13893e-07
6.71745e-07
1.52253e-06
8.67281e-07
1.12382e-06
3.86675e-06
1.58748e-06
1.5244e-06
1.26157e-06
1.21117e-06
1.61249e-06
3.38052e-06
8.71069e-07
6.47081e-07
1.22814e-06
1.33827e-06
0.000865608
0.00339595
1.43832e-06
8.12834e-07
1.12991e-06
1.34194e-06
4.00397e-06
6.73211e-05
2.95915e-06
7.7154e-07
1.08855e-06
1.4633e-06
6.73024e-05
2.03312e-06
6.70718e-07
1.44149e-06
9.81987e-07
1.14119e-06
1.23518e-06
9.54235e-07
9.04378e-05
0.0032306
1.20928e-06
9.15887e-07
1.27296e-06
5.91146e-06
1.51151e-06
6.79887e-07
1.04118e-06
2.32199e-06
0.00116237
2.85419e-06
1.42528e-06
1.24044e-06
7.59314e-07
6.97986e-07
5.22597e-07
1.22135e-06
6.66572e-07
5.91408e-06
1.3303e-06
9.01959e-07
1.46406e-06
6.34717e-07
0.00256317
1.23272e-06
9.79415e-07
1.51668e-06
1.54994e-06
0.00902655
0.00263876
2.02186e-06
3.18634e-05
1.02209e-06
9.66552e-07
0.00243381
6.13311e-07
1.75451e-06
6.15e-07
6.26093e-07
1.21764e-06
6.65576e-07
6.23293e-07
1.02042e-06
1.03087e-06
1.5473e-06
0.0119074
0.000922566
0.00117069
6.2264e-07
1.20201e-06
7.28675e-07
7.48245e-07
9.01129e-07
4.24756e-05
1.55831e-06
0.00498433
0.000398999
1.20081e-06
9.70898e-07
7.03472e-07
1.24292e-06
1.49525e-06
1.6003e-06
9.96985e-07
0.0011232
6.14367e-07
4.12362e-07
1.59335e-06
1.3105e-06
5.70716e-07
5.68831e-07
0.00171094
4.53211e-07
1.44245e-06
1.43568e-06
0.00908473
0.00166475
1.48802e-06
8.31187e-06
9.13551e-07
2.04751e-06
7.26543e-07
7.75177e-07
6.90981e-07
1.60747e-06
6.33968e-06
7.76667e-07
1.47538e-06
1.56538e-06
1.23609e-06
0.00860791
1.44694e-06
0.00103647
4.65501e-06
1.23981e-06
1.08573e-06
1.48672e-06
1.37084e-06
4.23344e-07
8.67633e-07
4.1915e-07
5.30175e-07
1.65331e-06
1.53511e-06
1.07978e-06
7.9415e-05
1.0299e-06
0.00635288
1.41541e-06
8.89516e-07
9.49346e-07
1.55516e-06
5.60499e-07
1.24687e-06
8.06879e-07
0.00697612
9.75732e-05
7.90624e-07
1.12635e-06
1.03801e-06
7.83145e-07
9.72688e-07
9.76927e-07
1.27505e-06
3.65131e-06
8.91681e-07
8.26685e-07
1.01587e-06
8.9408e-07
1.3004e-06
8.93082e-07
2.892e-05
7.80873e-07
7.82161e-07
0.0122595
9.64563e-07
1.13571e-06
1.24731e-06
1.18983e-06
5.0253e-05
1.14231e-06
7.70494e-07
1.33271e-06
5.83304e-07
0.0109211
1.91885e-06
1.8542e-06
9.42908e-05
6.63614e-07
8.01928e-07
1.15519e-05
8.9644e-07
1.58875e-06
5.2225e-07
9.35608e-07
0.0017841
1.50356e-06
1.6279e-06
8.82476e-07
9.03977e-07
1.27945e-06
0.00846663
1.18424e-06
0.00943122
7.43706e-07
1.22373e-06
1.52982e-06
0.0096648
1.05927e-06
8.93796e-07
1.64617e-06
7.56905e-07
1.70225e-06
7.28629e-07
1.54665e-06
4.11693e-07
7.9417e-07
1.52545e-06
0.000858295
1.0934e-06
0.00087196
7.63168e-07
1.35518e-06
7.52165e-07
4.17098e-07
1.38095e-06
2.20376e-06
0.000107036
1.26263e-06
1.0788e-06
3.29743e-05
8.61991e-07
4.51939e-07
1.44925e-06
0.000677044
1.08851e-06
2.60794e-06
1.20117e-05
7.64961e-07
1.3157e-06
7.21425e-07
8.04528e-07
7.63366e-07
1.25116e-06
2.07636e-06
5.14376e-06
1.27754e-06
5.2869e-07
1.56455e-06
0.00650495
1.47327e-06
5.7939e-06
7.96754e-07
7.18107e-07
4.92998e-07
6.63465e-07
7.16804e-07
4.44406e-07
1.69263e-06
6.15436e-07
1.43715e-06
1.02084e-05
1.01302e-06
9.01967e-07
5.46412e-07
9.36799e-07
6.71113e-07
3.1547e-06
1.5887e-06
5.01336e-05
1.54587e-06
5.43237e-07
2.15023e-05
1.63135e-06
0.0087931
1.62464e-06
7.89918e-07
1.06213e-06
1.2403e-06
1.48079e-06
3.85541e-06
0.000177487
1.46349e-06
0.00135953
1.52198e-06
7.60288e-07
6.12741e-07
2.70951e-06
8.87343e-07
1.30346e-06
9.04653e-07
0.00734266
1.3153e-06
2.13501e-06
8.40587e-07
1.00734e-06
1.43958e-06
1.41532e-06
1.15767e-06
1.48766e-06
1.3938e-06
9.77299e-07
6.16189e-07
1.08126e-06
0.000176476
1.47537e-06
3.78927e-06
1.2456e-06
1.02908e-06
0.00951426
5.2701e-07
1.39415e-06
1.25746e-06
1.22087e-06
1.59608e-06
7.18088e-07
1.41049e-06
1.09827e-06
2.93096e-06
1.1237e-05
1.41593e-06
1.02882e-06
1.01281e-06
7.56139e-07
5.26385e-07
1.65255e-06
2.19096e-06
7.24837e-05
1.72528e-06
1.53437e-06
0.000618726
1.63834e-05
3.61113e-05
1.12016e-06
1.13659e-06
1.94028e-06
1.17048e-06
1.43956e-06
4.22258e-07
4.48474e-07
1.53017e-06
0.00169862
1.12075e-06
1.37772e-06
1.01668e-06
1.56523e-06
5.02535e-07
5.61895e-07
5.24807e-07
5.99565e-07
9.17284e-07
2.40681e-06
1.14272e-06
4.93716e-06
5.24383e-07
8.74349e-05
5.89224e-07
0.0111916
7.00769e-07
6.99843e-07
2.06284e-06
1.26206e-05
1.47251e-06
1.37858e-06
9.80842e-07
7.29912e-07
1.38683e-06
5.55457e-07
1.40026e-06
1.14287e-06
5.54098e-07
1.5031e-06
6.6186e-07
0.00834651
8.11473e-07
1.23869e-06
1.3219e-06
9.993e-07
0.00177788
0.000101818
0.00643661
2.56117e-06
1.69344e-06
9.82902e-05
1.57492e-06
8.13505e-07
0.00194291
1.57015e-06
9.16026e-07
1.58109e-06
1.31157e-06
9.52427e-07
1.41194e-06
1.16801e-06
9.95164e-07
1.58141e-06
1.57998e-06
2.74546e-06
4.97925e-07
1.21531e-06
1.25892e-06
9.52445e-07
3.309e-05
1.29574e-06
6.73561e-07
1.13939e-05
8.08644e-07
1.3656e-06
0.000107493
1.29212e-06
6.63673e-07
1.56472e-06
7.68812e-07
1.15121e-06
1.59153e-06
1.52645e-06
2.83489e-06
2.91413e-06
1.37248e-06
1.21889e-06
9.30894e-07
1.37268e-06
1.11149e-06
6.93763e-07
1.29878e-06
1.16517e-06
5.48844e-07
1.15463e-06
1.2511e-06
1.5232e-06
4.97105e-07
1.2089e-06
1.29039e-06
1.48449e-06
1.586e-06
7.15941e-07
7.76601e-07
2.6967e-06
1.38974e-06
6.19555e-07
8.87725e-07
0.0102583
7.88884e-07
7.86675e-07
1.60686e-06
7.47433e-06
9.34209e-07
1.68307e-06
9.07804e-07
9.47979e-07
9.32216e-07
1.62992e-06
1.23457e-06
3.12782e-05
6.80367e-07
1.22534e-06
1.40252e-06
1.10236e-06
4.46597e-07
1.68524e-05
6.89257e-07
1.37562e-06
4.54087e-07
6.19226e-07
6.86368e-07
1.11039e-06
4.77844e-07
4.37558e-06
1.36039e-06
8.71999e-07
6.10644e-07
1.14879e-06
0.000143555
8.28319e-07
8.09548e-07
7.8622e-07
1.27746e-06
1.25792e-06
1.00655e-06
2.18093e-05
1.21664e-06
1.23429e-06
1.15855e-06
4.73666e-07
5.04286e-07
4.73723e-07
1.40148e-06
9.0694e-07
1.59687e-06
1.12865e-06
4.97361e-05
1.81407e-06
8.15292e-07
1.59915e-06
1.13331e-06
4.58723e-06
5.25116e-07
8.86938e-07
2.31896e-06
7.49379e-07
4.7799e-07
1.60847e-06
1.25197e-06
1.32229e-06
1.28545e-06
1.3411e-06
7.74591e-07
2.79067e-06
1.09553e-06
1.61675e-06
1.70476e-06
8.55159e-07
0.00892057
4.91436e-07
1.2809e-06
0.00764684
4.46847e-07
4.91848e-07
1.58198e-06
1.1601e-06
1.12715e-06
1.5325e-06
5.87523e-06
6.62123e-05
1.26909e-06
1.63631e-06
1.03093e-06
1.16136e-06
1.24809e-06
2.48713e-05
8.4489e-07
9.9764e-07
2.28749e-06
9.98849e-07
7.5871e-07
7.72328e-07
9.90991e-07
1.72453e-06
1.30145e-06
4.87365e-05
1.04294e-06
2.91164e-05
6.495e-07
6.39545e-07
0.00971281
0.000173405
3.46416e-06
1.65618e-06
1.13822e-06
1.27243e-06
1.51797e-06
8.5661e-07
1.21082e-06
6.77227e-07
7.05285e-05
1.57691e-06
1.26384e-06
3.64402e-06
1.89068e-06
1.64275e-06
1.1385e-06
1.59086e-06
0.0047532
7.75174e-05
4.82864e-06
5.91483e-07
5.1865e-07
8.84281e-07
7.26246e-07
4.1183e-06
1.07792e-06
1.33988e-06
1.47609e-06
8.75277e-07
2.68373e-05
1.52489e-06
2.2151e-06
9.97626e-07
1.80505e-06
6.39523e-07
7.37792e-05
1.33833e-06
2.8861e-06
1.52867e-06
1.16519e-06
1.05857e-06
5.84698e-07
1.00833e-06
5.91821e-06
1.04271e-06
0.00783405
1.6345e-06
1.43753e-06
9.23867e-07
1.71205e-06
2.43535e-06
9.86619e-07
6.81575e-07
1.20889e-06
2.81056e-06
1.36625e-06
0.00818034
1.2181e-06
1.24751e-06
7.21454e-05
1.24184e-06
9.91758e-07
1.30081e-06
8.95478e-07
7.74413e-07
1.43517e-06
5.66662e-05
1.25253e-06
0.000152783
4.16617e-07
1.33082e-06
2.81294e-06
5.42279e-07
4.4729e-07
1.4824e-06
0.0123649
1.5866e-06
1.0964e-06
1.25138e-06
1.57155e-06
6.58382e-06
1.53874e-06
9.92882e-07
7.78808e-07
7.72901e-05
0.00926653
5.25897e-07
1.29585e-06
9.11142e-07
1.71887e-06
4.15807e-07
7.43301e-07
1.7086e-06
0.000128594
1.42371e-06
1.32925e-06
1.51459e-06
5.41459e-07
7.50333e-07
9.47038e-07
8.89569e-07
0.000148295
8.85788e-07
1.13386e-06
9.81917e-07
9.61426e-06
8.61245e-07
0.00711847
7.57664e-07
1.15012e-06
1.65227e-06
7.94256e-06
9.794e-07
0.0052945
2.12267e-06
5.09323e-07
5.44455e-06
1.49502e-06
2.82075e-06
6.65074e-07
7.31794e-07
1.68601e-06
1.28632e-06
9.84056e-07
0.00812897
1.1704e-06
6.03476e-06
1.10373e-06
7.10976e-07
1.80056e-05
8.03508e-07
9.88718e-07
1.52317e-06
7.31089e-07
1.24192e-06
1.53082e-06
5.60923e-07
0.000155546
9.68059e-07
7.28842e-07
0.00154586
1.54114e-06
4.47719e-07
0.00899989
1.29113e-06
1.56809e-06
1.46463e-06
6.37783e-07
3.514e-06
0.000145622
1.53981e-06
1.35293e-06
9.02523e-07
1.28168e-06
2.86383e-05
3.35214e-06
6.05019e-07
1.67001e-06
1.03731e-06
2.89541e-06
2.43549e-06
2.16538e-06
9.70385e-07
0.00112618
5.42639e-07
5.08858e-07
1.34784e-06
1.51444e-06
1.61327e-06
4.56983e-07
1.27167e-06
4.14694e-07
1.2633e-06
7.22714e-07
5.20191e-07
1.57642e-06
1.17582e-06
9.01538e-07
7.55059e-05
8.03243e-05
5.11467e-05
2.44219e-06
6.6471e-07
1.5712e-06
6.47375e-07
1.34609e-05
5.57039e-07
1.28201e-06
7.72371e-07
5.22144e-07
5.01086e-05
2.14764e-06
6.44949e-07
1.08981e-06
8.16443e-07
1.46511e-06
7.77922e-07
7.20631e-07
4.56719e-07
8.18889e-07
2.47979e-05
6.55622e-07
0.00720008
4.16035e-07
8.4404e-07
0.00973732
5.00193e-06
1.43657e-06
3.31425e-06
7.18631e-07
1.59524e-06
6.67281e-05
2.09597e-06
1.61901e-06
2.1923e-06
1.67857e-06
9.45028e-07
3.78246e-06
2.39278e-06
8.21134e-07
1.14388e-06
5.92096e-07
1.49707e-06
1.55495e-06
1.59076e-06
8.8533e-07
5.30445e-07
1.20185e-06
1.22818e-06
8.22873e-05
1.10062e-06
6.7532e-07
6.03856e-07
8.42931e-07
1.14559e-06
6.11136e-07
0.00264235
1.12415e-06
1.17217e-06
2.55364e-06
7.36419e-07
5.27879e-07
0.00994706
6.09009e-07
8.19002e-07
2.09406e-06
6.07764e-07
1.13891e-06
1.27144e-06
1.45526e-06
5.43109e-07
1.23094e-06
1.08338e-06
0.00114696
1.55959e-06
1.17966e-06
4.61034e-07
1.92604e-05
0.00660305
7.34066e-07
1.35409e-06
4.40799e-06
0.00361342
8.89366e-07
1.44183e-06
1.69508e-06
8.33424e-07
1.4252e-06
4.60935e-07
1.18991e-06
0.00785241
5.4914e-06
1.29464e-06
9.32409e-07
6.59635e-07
1.48496e-06
1.51968e-06
4.15133e-07
1.21906e-06
1.77318e-06
0.00303075
1.48961e-06
7.51987e-07
4.68483e-06
8.04032e-06
1.54681e-06
7.06553e-07
6.63971e-07
2.34211e-06
8.07273e-07
1.51928e-06
0.0016687
7.50983e-07
1.35095e-06
2.15336e-06
5.37964e-07
8.97919e-07
1.18282e-06
0.00965873
0.00952644
1.31427e-06
7.51198e-07
0.000146657
1.17345e-06
1.57427e-06
1.42893e-06
0.00861512
7.35523e-07
1.5955e-06
1.09972e-06
1.23841e-06
1.54878e-06
9.78159e-07
1.88506e-06
1.32225e-06
1.62392e-06
3.98539e-06
1.01306e-06
1.52159e-06
1.11816e-06
8.86169e-07
1.09394e-06
7.25877e-07
0.00162912
1.42409e-06
5.36632e-07
1.56166e-06
1.24483e-06
9.30564e-07
1.58976e-06
1.51238e-06
1.11539e-06
1.3972e-06
2.98945e-06
0.0117695
8.0908e-07
6.73914e-07
3.71993e-05
1.44171e-06
1.48488e-06
1.6327e-06
2.46129e-06
7.16742e-07
5.77819e-06
6.19286e-07
5.0298e-07
1.30694e-06
9.99702e-07
0.00183272
6.61097e-07
1.21594e-06
1.02618e-06
1.47398e-06
1.06566e-06
1.47687e-06
4.65249e-07
2.60254e-06
1.77572e-06
6.67864e-07
0.0101759
3.36088e-06
9.76103e-07
0.0081686
1.24556e-06
1.01099e-06
3.52057e-05
0.00805241
1.27174e-06
4.65048e-07
1.60665e-06
0.000111732
7.22165e-07
7.69391e-07
1.77883e-06
7.41868e-07
1.26834e-06
6.73273e-07
8.68083e-07
1.24107e-06
6.58845e-07
6.27346e-07
8.07935e-07
4.1232e-07
1.90138e-06
1.89726e-06
7.5376e-07
2.54855e-06
1.16736e-06
5.09411e-07
0.00011412
1.33966e-06
1.48745e-06
7.13767e-07
4.75885e-07
7.41694e-07
8.88332e-07
8.66563e-07
1.46941e-06
1.07241e-06
7.23388e-07
1.22542e-06
8.68769e-06
1.56985e-06
6.26128e-07
6.79857e-07
1.37023e-06
3.66464e-06
1.58908e-06
0.00933093
1.55939e-06
1.13108e-06
6.9432e-07
1.49117e-06
6.95245e-05
1.34447e-06
1.17844e-06
4.55093e-07
8.87266e-07
1.69869e-06
1.14052e-06
1.34669e-06
1.62911e-06
1.24009e-06
1.47992e-06
6.39927e-07
1.38292e-06
2.63607e-06
7.39139e-07
1.70542e-06
2.31472e-06
1.28387e-06
6.4056e-07
5.20986e-07
2.98886e-06
6.57149e-07
1.70819e-06
8.02351e-07
1.6976e-06
6.85158e-07
8.65311e-07
1.61597e-06
1.46482e-06
0.00880868
1.07589e-06
2.2017e-06
1.14524e-06
4.91533e-05
1.25588e-06
1.49917e-06
1.14754e-06
6.35308e-07
1.21936e-06
1.07437e-06
1.23657e-06
1.34229e-06
9.15228e-07
1.24815e-06
6.76431e-07
1.54422e-06
6.09412e-07
1.50504e-06
0.00338312
1.23735e-06
0.0103658
1.26737e-06
1.33627e-06
4.69372e-07
1.57477e-06
1.60758e-06
2.70132e-06
0.000176861
1.53423e-06
1.5765e-06
1.47958e-06
9.44599e-05
1.57961e-06
7.66429e-07
8.13089e-07
1.1089e-06
4.57963e-07
1.19457e-06
5.19574e-07
4.69268e-07
1.34698e-06
0.00765151
3.87269e-05
0.000404013
7.73779e-07
1.57046e-05
2.86611e-06
1.47253e-06
1.11282e-06
1.22484e-06
8.19795e-05
8.87624e-07
6.54003e-05
6.55398e-07
6.46988e-07
1.62536e-06
6.42613e-07
1.49077e-06
8.86629e-07
8.62169e-07
1.0919e-06
1.1359e-06
1.52387e-06
9.98933e-07
1.57556e-06
1.88128e-05
7.18629e-07
6.68479e-07
0.00731757
1.11106e-06
6.70499e-07
8.20054e-07
1.60526e-06
1.55458e-06
5.93212e-07
1.07889e-06
8.90502e-07
1.48552e-06
1.25233e-06
1.14953e-06
8.07833e-07
1.34555e-05
1.15665e-06
9.4654e-07
1.15217e-06
0.000413495
6.66871e-07
1.98111e-06
2.81893e-06
6.59599e-05
1.90633e-06
1.02429e-06
1.45708e-06
7.96548e-07
0.0102395
1.80995e-06
8.91247e-07
0.00141109
1.63239e-06
6.63203e-07
9.53644e-07
1.25046e-06
7.19839e-07
1.59014e-06
8.82434e-07
3.64741e-06
1.99298e-06
1.67394e-06
1.08463e-06
1.51697e-06
6.19155e-07
1.22885e-06
6.76643e-07
2.10973e-06
1.41609e-06
9.54704e-07
3.09387e-06
8.80163e-07
1.50462e-06
7.17143e-07
1.3906e-06
8.25759e-07
1.50718e-06
0.00101452
7.7202e-07
5.40087e-07
1.08716e-06
6.28911e-06
0.00707226
9.67749e-05
1.39026e-06
1.41345e-06
1.58801e-06
1.56636e-06
6.67302e-07
9.88032e-07
1.13255e-06
1.27586e-05
6.68218e-07
0.00255705
1.50858e-06
1.25823e-06
3.63421e-06
1.61387e-06
1.20208e-06
1.54743e-06
1.24585e-06
1.54737e-06
9.86144e-07
8.49817e-07
1.60459e-06
3.59676e-06
0.00962749
9.52727e-06
1.49345e-06
1.13828e-06
7.61278e-07
7.04346e-07
1.31159e-06
1.57544e-06
7.61766e-06
6.90027e-07
1.51361e-06
1.22767e-06
1.07145e-06
8.61801e-05
1.03942e-06
1.32523e-06
6.53194e-06
1.55107e-06
6.62828e-07
8.11476e-07
1.35057e-06
8.62754e-07
0.00253123
4.85751e-07
1.4197e-06
1.54634e-06
0.00334681
4.85821e-07
8.49255e-07
1.39294e-06
7.50594e-07
1.41752e-06
1.5912e-06
1.57201e-06
6.38064e-07
1.69501e-06
2.46096e-05
4.15595e-07
1.41117e-06
1.14709e-06
1.67372e-06
8.54608e-07
2.81866e-06
1.61381e-06
1.51396e-06
0.0116092
6.66816e-07
1.55643e-06
7.8449e-07
1.06432e-06
4.8349e-07
1.77845e-06
1.49326e-06
1.37929e-06
1.21214e-06
9.96351e-07
1.42903e-06
5.40427e-07
6.53371e-07
9.1098e-06
8.30106e-06
5.73595e-07
1.06921e-06
1.03361e-06
5.86355e-07
1.62182e-06
1.2861e-06
4.75772e-07
6.36453e-05
1.62565e-06
0.0098374
5.90516e-07
5.75459e-07
1.51996e-06
1.23117e-06
0.00963874
1.28842e-06
1.83592e-06
1.54548e-06
7.48385e-07
7.72539e-07
1.39279e-06
0.0108525
8.48362e-07
7.69461e-07
4.15045e-07
6.76613e-07
7.00817e-07
1.03114e-06
0.00901374
6.33146e-07
1.5494e-06
1.12359e-06
1.46905e-06
0.00725864
5.84523e-07
1.40002e-06
9.94082e-06
1.82259e-06
1.63147e-06
1.72984e-06
7.78625e-07
7.51294e-05
1.52168e-06
1.69418e-06
1.36708e-06
6.33731e-07
1.33715e-06
0.000813237
8.88767e-06
1.54706e-06
1.38612e-06
1.31822e-06
7.08041e-07
5.80142e-07
5.75613e-07
5.51351e-07
9.50948e-07
1.5138e-06
5.50399e-07
1.23381e-06
4.15705e-07
1.07871e-06
6.79542e-07
1.17442e-06
1.08267e-06
1.63619e-06
1.62796e-06
0.00242749
6.31445e-07
1.43132e-06
6.68725e-07
1.02756e-06
4.90202e-07
1.38962e-06
0.0108434
1.32413e-06
1.424e-06
1.07497e-06
1.12479e-06
1.14356e-06
1.08767e-06
9.1529e-07
0.000172558
8.89487e-07
7.06335e-07
7.8436e-06
8.54703e-07
4.36583e-07
1.58655e-06
1.29887e-05
1.56839e-06
6.14856e-07
1.52118e-06
0.00854169
0.00385144
7.32124e-07
1.70321e-06
8.67765e-07
1.51499e-06
0.00012119
7.54906e-07
0.00860107
6.69589e-07
1.45271e-06
1.09366e-06
0.00273526
1.21198e-06
1.08183e-06
1.66695e-06
1.31022e-06
1.00141e-06
1.22344e-06
3.23321e-06
1.24738e-06
0.00495058
5.90582e-06
0.00846832
5.86305e-06
1.03177e-06
2.88242e-06
2.59109e-06
7.47487e-06
1.39659e-06
1.49536e-06
1.51635e-06
1.24919e-06
9.87762e-07
1.20707e-05
1.4976e-06
1.85367e-06
1.59929e-06
1.37353e-06
1.23322e-06
1.66057e-06
7.39731e-07
1.34973e-06
4.61608e-06
5.93953e-07
0.0026133
1.22437e-06
6.20982e-07
1.2708e-06
1.46681e-06
1.25631e-06
1.25684e-06
5.47767e-07
2.00711e-06
1.06972e-06
6.23412e-07
5.63983e-07
1.21116e-06
7.00661e-06
2.14798e-06
0.00701272
9.49939e-07
1.68089e-06
5.48723e-07
1.02081e-06
1.21759e-06
5.95195e-07
8.43129e-07
8.57728e-07
9.4318e-07
1.25811e-06
7.20361e-07
7.4886e-07
1.35166e-06
0.00873774
2.28971e-05
1.56456e-06
1.31076e-06
1.2305e-06
1.17364e-06
8.27095e-07
0.010364
6.18452e-07
1.1286e-06
1.56946e-06
7.42677e-07
8.35443e-07
1.44714e-06
5.17712e-07
0.0080162
0.00868687
6.11514e-07
9.86371e-07
5.37804e-07
6.81096e-07
7.43423e-07
5.5055e-06
1.6958e-06
1.55224e-06
1.37321e-06
6.27867e-07
0.0101288
9.98252e-07
8.58862e-07
1.32728e-06
1.51169e-06
0.00270157
2.34829e-06
1.59322e-06
6.11331e-07
0.00237152
1.69381e-06
3.464e-05
1.91027e-05
1.0976e-06
1.2243e-06
6.04247e-07
1.62926e-06
9.5741e-07
4.14791e-07
1.56825e-06
6.65684e-07
3.30898e-05
5.97358e-07
1.05467e-06
6.78419e-06
1.32426e-06
2.53527e-06
1.46149e-06
8.57078e-07
1.07437e-06
7.56237e-07
0.00502466
1.5504e-06
9.29262e-07
1.37242e-06
7.60368e-07
5.51592e-07
6.53956e-07
1.53248e-06
1.13872e-06
1.32011e-06
2.24771e-06
0.00100322
8.47648e-07
1.13721e-06
1.25037e-06
1.00439e-06
7.68774e-07
8.00806e-07
1.24749e-06
9.94784e-07
1.52378e-06
1.62701e-06
8.04214e-07
7.1866e-07
1.47157e-06
8.35094e-07
0.00104936
9.48374e-05
7.19864e-07
1.49372e-06
9.42125e-07
1.64452e-06
1.10079e-06
1.15448e-06
8.23531e-07
1.61172e-06
5.97549e-07
1.52092e-06
1.2872e-06
6.35632e-07
1.56329e-06
1.34023e-06
1.19554e-05
1.2207e-06
1.33726e-06
7.23801e-07
3.37978e-05
1.19071e-06
9.11908e-07
7.22382e-07
8.55933e-07
3.88398e-06
8.21603e-07
8.3755e-07
5.86338e-07
6.22264e-07
8.10566e-07
1.50089e-06
9.87323e-07
1.63133e-06
6.34646e-07
1.34952e-06
1.33114e-06
1.26881e-06
2.78726e-06
1.6358e-06
1.47886e-06
8.0209e-07
1.34461e-06
1.18544e-05
9.32114e-07
1.02752e-06
1.9818e-06
1.83836e-06
1.64719e-06
5.88381e-07
5.51915e-07
2.18499e-06
9.50186e-07
8.76312e-07
1.3271e-06
2.1632e-06
1.36751e-06
1.65884e-06
0.00747365
5.83428e-07
1.22128e-06
1.51318e-06
1.26417e-06
1.22672e-06
8.33536e-07
1.61062e-06
1.45166e-05
1.26633e-06
7.1972e-07
1.55604e-06
1.30966e-06
1.17485e-06
1.21389e-06
1.47727e-06
0.00987841
0.00747201
1.31625e-06
1.3389e-06
2.62726e-06
5.85388e-07
1.60872e-06
4.25787e-07
1.22149e-06
1.11048e-06
1.28621e-06
1.35082e-06
4.11397e-07
1.63484e-06
1.48269e-06
1.41291e-06
1.25271e-06
1.46972e-06
1.55647e-06
1.54039e-06
0.00740584
6.21735e-07
5.38924e-07
5.86442e-06
8.44608e-07
1.20822e-06
1.01762e-06
1.49061e-06
1.93615e-06
0.0108579
7.61597e-07
2.44531e-05
1.06745e-06
1.52065e-06
1.5167e-06
1.18346e-06
6.8013e-07
1.44284e-06
1.40937e-06
1.29312e-05
1.54092e-06
7.20617e-07
1.20435e-06
1.22299e-06
1.55516e-06
1.35111e-06
2.20414e-06
1.33543e-06
9.64187e-07
6.17088e-07
1.54628e-06
9.99247e-07
1.81965e-06
9.97414e-07
6.95526e-07
7.89026e-07
1.62814e-06
3.85184e-05
1.02429e-06
7.78543e-07
1.79354e-06
1.24812e-06
3.18799e-06
1.44366e-06
1.03751e-06
7.10595e-07
1.07522e-06
9.6608e-07
1.19203e-06
6.70475e-07
4.59612e-06
1.7662e-06
1.99268e-06
1.74179e-06
1.55465e-06
1.21854e-06
1.62858e-06
1.46945e-06
8.52221e-07
2.71024e-06
1.17853e-06
1.62617e-06
0.00279399
1.48564e-06
1.61097e-06
1.52537e-06
1.05389e-06
0.000374605
1.5817e-06
8.92829e-05
1.27459e-06
8.64346e-07
4.12317e-07
1.58917e-06
1.08142e-06
1.302e-05
5.40323e-07
2.02018e-06
1.52588e-06
4.14837e-07
1.0634e-05
1.60268e-06
1.47025e-06
5.71126e-06
1.35271e-06
6.08005e-07
1.23755e-06
8.03969e-07
2.18692e-06
1.18268e-06
1.66332e-06
1.22048e-06
1.60495e-06
1.21765e-06
1.22745e-06
9.29898e-07
0.00846233
1.39738e-06
1.07374e-06
6.57389e-06
1.4196e-06
1.33615e-06
1.77121e-06
1.1819e-06
1.68094e-06
9.08144e-07
0.000997722
6.48717e-07
1.67537e-06
9.53476e-07
4.5478e-05
3.04881e-06
7.00564e-06
8.75078e-07
8.82048e-07
1.2012e-06
0.00272058
4.2023e-06
1.40567e-06
1.73108e-06
5.75607e-06
1.7782e-06
1.42451e-06
2.4714e-05
9.44305e-05
1.35931e-06
7.19637e-07
1.55441e-06
8.30983e-07
7.73564e-07
4.34778e-05
1.47011e-06
1.06529e-06
1.83961e-06
1.70471e-06
1.09583e-06
1.70137e-06
1.09546e-06
7.6247e-07
1.31973e-06
1.28052e-06
1.22758e-06
0.00748678
2.62988e-06
1.19711e-06
7.35346e-07
1.45232e-06
8.31904e-07
1.67942e-05
7.65023e-07
8.85975e-07
5.94012e-07
1.09562e-06
5.73654e-06
1.39846e-06
1.4745e-06
1.16871e-06
8.2662e-07
1.53729e-06
1.27247e-06
1.45453e-06
1.12641e-06
2.59494e-06
1.8195e-06
1.48692e-06
1.48607e-06
3.77482e-06
0.00656888
6.60964e-06
6.8675e-05
1.03604e-06
7.95461e-07
1.35565e-06
1.1319e-06
5.29483e-07
6.35593e-07
0.0120454
2.6098e-05
1.65173e-06
1.4014e-05
8.02732e-07
1.54493e-06
1.44456e-06
0.0122128
5.8286e-07
1.55657e-06
7.04765e-07
1.49262e-06
1.66185e-06
2.42591e-06
0.000155011
6.05928e-07
1.15124e-06
7.39014e-07
6.45757e-07
0.00710246
7.34521e-07
5.6212e-07
1.30508e-06
1.71104e-06
6.67789e-07
1.27597e-06
6.45403e-07
1.98394e-06
1.34309e-06
7.56932e-07
1.48951e-06
1.12897e-06
6.22021e-06
6.75012e-07
7.34934e-07
1.30705e-06
4.30549e-06
9.67566e-07
1.37193e-06
6.98357e-07
1.59482e-06
5.60988e-07
1.5235e-06
1.4919e-06
8.83661e-07
3.55485e-06
8.88902e-07
1.61295e-06
6.36409e-07
1.85085e-06
1.48906e-06
1.32335e-06
1.14702e-06
2.03546e-05
9.08313e-07
4.98489e-06
1.57029e-06
1.21735e-06
1.25333e-06
1.63752e-06
1.7896e-06
1.06308e-06
1.40015e-06
9.32758e-07
3.57425e-06
1.5968e-06
2.34935e-06
0.00847833
1.44622e-06
1.542e-06
1.58311e-06
1.28257e-06
1.64096e-06
9.42117e-07
7.13051e-07
1.33117e-06
1.31973e-06
1.40739e-06
7.57001e-07
1.59804e-06
5.35139e-07
1.30344e-06
7.38963e-05
1.92017e-06
1.34316e-06
7.2135e-07
1.30529e-06
0.000109451
3.54264e-06
1.29273e-06
1.59426e-06
1.48866e-06
0.00833488
7.49194e-07
1.17341e-06
1.51296e-06
8.70784e-07
1.132e-06
1.13003e-06
9.33316e-07
1.87946e-06
9.73904e-07
1.43822e-06
1.41979e-06
4.90963e-07
7.22797e-07
2.29623e-06
7.94563e-07
4.92229e-07
0.00587092
8.69285e-07
1.38296e-06
2.41301e-05
1.50736e-06
0.000153059
5.39375e-07
1.55015e-06
7.0651e-07
1.60285e-06
1.59139e-06
1.59773e-06
1.44385e-06
1.10483e-06
1.65896e-06
6.47877e-07
1.28846e-06
9.85678e-07
1.0363e-06
5.39288e-07
1.54692e-06
5.34947e-07
5.22742e-07
6.79009e-07
1.35506e-06
3.63033e-05
0.000284259
1.97174e-06
1.06982e-06
1.06724e-06
1.36647e-06
6.48905e-07
3.12352e-06
1.61485e-06
8.94631e-07
9.65858e-07
1.79264e-06
8.63347e-06
1.5847e-06
1.05918e-06
2.37733e-06
1.0843e-06
6.22501e-07
2.10673e-06
9.60478e-07
0.0076126
1.86361e-06
8.80299e-07
0.00290013
1.50751e-06
9.02577e-07
1.239e-06
1.717e-06
1.47939e-06
0.00550689
8.88385e-07
0.000276915
5.58296e-07
1.24362e-06
1.74324e-05
6.82004e-07
1.56098e-06
0.000389203
6.49016e-07
1.01556e-06
0.000883395
1.90787e-06
1.71764e-06
1.71471e-06
5.53601e-07