/*--------------------------------*- C++ -*----------------------------------*\
| =========                 |                                                 |
| \\      /  F ield         | OpenFOAM: The Open Source CFD Toolbox           |
|  \\    /   O peration     | Version:  v2012                                 |
|   \\  /    A nd           | Website:  www.openfoam.com                      |
|    \\/     M anipulation  |                                                 |
\*---------------------------------------------------------------------------*/
FoamFile
{
    version     2.0;
    format      ascii;
    class       volScalarField;
    location    "400";
    object      k_0;
}
// * * * * * * * * * * * * * * * * * * * * * * * * * * * * * * * * * * * * * //

dimensions      [0 2 -2 0 0 0 0];


internalField   nonuniform List<scalar> 
33474
(
8.95853e-05
0.0008016
0.000115136
7.94074e-05
9.03342e-05
7.95945e-05
6.33307e-05
8.69167e-05
6.99401e-05
0.0124872
7.40502e-05
8.1302e-05
6.32009e-05
8.98733e-05
9.08825e-05
6.11109e-05
5.3627e-05
0.000160419
8.67128e-05
7.49897e-05
0.00011188
0.00426836
7.92077e-05
8.96503e-05
7.89171e-05
8.13168e-05
6.39079e-05
9.79483e-05
0.00436884
5.53758e-05
4.4523e-05
7.91528e-05
0.000122386
0.000156768
5.85977e-05
7.34837e-05
0.0195741
5.63381e-05
8.10077e-05
8.99349e-05
7.62677e-05
5.52947e-05
5.62497e-05
7.90694e-05
0.0249319
0.000785035
0.00489747
9.35166e-05
0.000365101
5.84134e-05
8.58265e-05
6.76697e-05
9.2807e-05
6.31233e-05
7.99914e-05
9.76621e-05
8.01139e-05
0.000107917
8.97918e-05
8.67769e-05
8.08047e-05
0.00625319
0.0185026
5.61255e-05
5.77544e-05
8.50769e-05
5.05926e-05
0.0374799
6.75896e-05
8.79016e-05
0.00764498
0.00605033
5.61433e-05
5.76991e-05
0.00478129
0.000267843
0.00521493
8.5921e-05
8.99837e-05
9.17866e-05
0.0162981
8.15658e-05
0.00567242
5.85411e-05
9.36624e-05
5.90016e-05
0.000112731
0.0391302
0.00449946
4.83576e-05
7.92086e-05
5.83656e-05
9.24436e-05
7.59017e-05
6.33048e-05
9.35097e-05
9.36188e-05
8.79744e-05
6.73956e-05
5.42332e-05
0.000113901
0.00466178
8.7951e-05
8.92208e-05
4.43842e-05
5.00178e-05
8.58307e-05
8.83595e-05
6.73366e-05
5.48672e-05
8.94118e-05
5.05186e-05
0.00012717
7.71627e-05
0.000109054
0.000100018
8.06884e-05
0.000123384
8.25745e-05
6.3235e-05
8.68908e-05
0.000128901
7.9789e-05
5.89561e-05
9.36865e-05
7.51527e-05
7.11262e-05
0.000107433
0.000120835
9.14993e-05
6.27203e-05
8.7867e-05
0.000130854
0.0168859
9.07678e-05
5.59435e-05
0.000117509
0.0145834
0.000661111
0.000117363
8.56504e-05
5.48561e-05
4.41678e-05
7.70191e-05
8.4733e-05
8.93009e-05
0.00721218
0.00493393
4.9887e-05
4.18633e-05
5.47778e-05
7.41992e-05
8.23978e-05
7.64971e-05
9.98893e-05
7.90093e-05
9.20862e-05
7.96604e-05
8.94888e-05
5.07353e-05
0.000129989
5.49646e-05
0.000116457
0.00131764
9.31046e-05
0.000132644
6.34325e-05
0.00089457
8.58088e-05
9.35998e-05
0.000175653
6.07274e-05
0.00249733
5.47633e-05
8.60015e-05
0.01606
8.83801e-05
0.00102142
0.00553063
6.28975e-05
6.30392e-05
8.95619e-05
5.83564e-05
7.14637e-05
8.44441e-05
0.0388035
0.0174739
8.0314e-05
8.81398e-05
7.64375e-05
8.65966e-05
8.94253e-05
3.60173e-05
0.00321954
0.00763365
7.74604e-05
0.00110301
0.000107447
3.22737e-05
6.62835e-05
7.42638e-05
7.14349e-05
2.50376e-05
9.7119e-05
0.00011411
6.38385e-05
6.33177e-05
0.000113176
7.73071e-05
0.0380188
2.50866e-05
4.62874e-05
8.73148e-05
9.96183e-05
4.62477e-05
0.000172653
7.5575e-05
0.0068557
0.0128887
7.61365e-05
7.71913e-05
7.41342e-05
7.53633e-05
0.000112537
4.42091e-05
9.17804e-05
0.0047472
9.19106e-05
6.68001e-05
9.17216e-05
0.011458
6.54426e-05
6.30758e-05
6.02042e-05
6.06651e-05
0.00628348
9.32198e-05
8.03489e-05
6.99889e-05
8.9196e-05
7.92949e-05
0.000115591
0.00106777
8.71817e-05
0.000110876
6.10419e-05
7.33322e-05
7.75307e-05
8.69675e-05
8.73097e-05
9.35507e-05
8.59464e-05
0.000107414
6.37346e-05
8.92371e-05
6.67828e-05
0.012002
6.71004e-05
0.000114535
0.01552
0.00761298
0.00103952
8.71105e-05
0.0117418
7.15556e-05
6.08134e-05
0.00633959
0.00613797
0.0060576
7.52818e-05
9.0176e-05
8.23479e-05
9.16019e-05
7.96952e-05
6.08377e-05
7.75479e-05
8.26611e-05
6.79389e-05
8.96979e-05
8.44737e-05
8.9279e-05
6.28598e-05
8.91173e-05
7.94674e-05
5.83276e-05
7.30884e-05
6.70692e-05
5.33202e-05
0.000108254
0.00821754
0.0020324
6.54726e-05
0.00368016
8.97974e-05
8.86579e-05
0.000191917
0.0162214
0.000100003
7.81066e-05
8.91849e-05
8.26006e-05
0.000715639
0.00110829
6.78728e-05
4.67477e-05
6.61434e-05
4.67423e-05
0.000100411
0.000107284
0.0343645
8.22337e-05
7.79468e-05
4.82876e-05
0.00114209
0.00617769
0.0169043
0.0331102
0.000107666
8.67478e-05
0.00378446
4.42332e-05
6.51176e-05
0.0388556
6.28602e-05
8.60007e-05
8.95696e-05
0.0067154
7.16415e-05
8.71307e-05
5.73021e-05
8.44527e-05
8.82074e-05
9.37239e-05
0.000188793
5.72594e-05
7.69531e-05
0.00399578
4.69555e-05
4.69571e-05
5.57941e-05
7.98489e-05
0.00010788
2.40547e-05
0.00466966
0.000198787
5.79488e-05
6.89794e-05
8.61678e-05
9.40958e-05
9.36819e-05
7.4085e-05
5.79536e-05
9.98927e-05
0.000100646
7.97089e-05
4.44806e-05
7.55789e-05
6.35667e-05
5.00415e-05
0.00644536
8.07075e-05
0.00608531
8.88156e-05
8.47968e-05
7.6279e-05
8.7697e-05
6.00465e-05
8.19191e-05
7.03906e-05
2.34536e-05
4.71705e-05
4.71743e-05
6.95831e-05
0.000122864
8.65682e-05
0.000100295
7.61533e-05
8.23552e-05
7.75548e-05
0.0238774
5.13617e-05
0.003529
6.94264e-05
7.9897e-05
9.81332e-05
5.43861e-05
8.66344e-05
7.68433e-05
8.51236e-05
8.69419e-05
7.10427e-05
0.000120008
3.78619e-05
5.19536e-05
8.46716e-05
9.66441e-05
8.78843e-05
6.53017e-05
6.06119e-05
8.05998e-05
8.21611e-05
8.75324e-05
6.5993e-05
7.94361e-05
0.000163904
4.42433e-05
0.000109467
0.0162262
0.0222811
0.000629516
8.14533e-05
7.62715e-05
8.47394e-05
7.06932e-05
8.66666e-05
6.12378e-05
0.0281062
0.000105492
4.96616e-05
9.366e-05
6.128e-05
8.24575e-05
7.13169e-05
9.47661e-05
8.4482e-05
8.59911e-05
0.00209077
8.75909e-05
7.91081e-05
7.05082e-05
6.41836e-05
0.0265761
7.1312e-05
0.00216583
8.69464e-05
8.02606e-05
8.81435e-05
9.37134e-05
0.000113116
5.06774e-05
6.24488e-05
0.00031424
6.41907e-05
7.01545e-05
5.07278e-05
8.69303e-05
5.0439e-05
8.10818e-05
7.54085e-05
0.00266443
0.0216945
8.05266e-05
5.38997e-05
7.89441e-05
0.000149598
0.0027997
0.00242303
0.00197503
8.16689e-05
4.73973e-05
8.58222e-05
8.65622e-05
8.18072e-05
7.22888e-05
0.00555384
7.46462e-05
4.73952e-05
8.30864e-05
8.05621e-05
7.60438e-05
0.0398886
5.60435e-05
8.66075e-05
8.02582e-05
5.46394e-05
8.62681e-05
6.25602e-05
5.84188e-05
0.0252086
8.0717e-05
0.000111745
0.00744296
0.00733982
7.50228e-05
7.99327e-05
7.12215e-05
0.0427834
8.68901e-05
6.80903e-05
4.42867e-05
0.00681179
0.00696015
8.9829e-05
0.0356712
5.5936e-05
8.03317e-05
5.56077e-05
5.69962e-05
7.37624e-05
5.69053e-05
8.56365e-05
0.000104048
8.89064e-05
0.00178105
7.0811e-05
7.56733e-05
8.13354e-05
0.0394428
0.0029547
9.78529e-05
8.94171e-05
7.23738e-05
9.02675e-05
0.000130243
5.54574e-05
7.984e-05
7.96753e-05
8.68595e-05
8.20972e-05
0.035745
0.000103466
7.82989e-05
6.11619e-05
6.39391e-05
8.05943e-05
7.49717e-05
6.04123e-05
5.3971e-05
0.0391954
8.81271e-05
8.8153e-05
0.00275623
8.9291e-05
8.48062e-05
0.00022087
0.000454144
9.37754e-05
5.75176e-05
8.05815e-05
7.10008e-05
4.99315e-05
0.00291047
7.35826e-05
7.91011e-05
5.02227e-05
7.10119e-05
7.91264e-05
0.0348588
8.30096e-05
4.44496e-05
0.0081176
7.1664e-05
4.42173e-05
5.28007e-05
0.0275173
0.0128024
5.27112e-05
8.25616e-05
8.80639e-05
8.46249e-05
0.000136015
8.92674e-05
7.3603e-05
0.00282626
8.9378e-05
8.55677e-05
8.70281e-05
0.000935984
5.43444e-05
5.70713e-05
8.888e-05
6.55723e-05
7.44715e-05
0.000167827
9.02327e-05
8.72875e-05
7.91607e-05
7.74282e-05
9.07245e-05
9.15257e-05
6.57478e-05
5.60219e-05
7.80046e-05
8.16167e-05
0.00413613
0.0160992
8.49343e-05
6.29085e-05
7.51725e-05
8.18218e-05
0.000172105
0.00620418
0.000141608
6.12248e-05
7.34925e-05
8.55907e-05
0.00620471
0.000107704
5.70196e-05
8.48002e-05
6.98682e-05
7.55907e-05
7.90721e-05
6.8497e-05
0.00568828
0.0171412
7.73838e-05
6.74156e-05
7.94695e-05
0.0012995
8.69655e-05
5.73269e-05
7.79951e-05
0.00102634
0.0143949
0.00109734
8.42729e-05
7.845e-05
6.07368e-05
5.81727e-05
4.99868e-05
7.77694e-05
5.68302e-05
0.00132627
8.21218e-05
6.65405e-05
8.54961e-05
5.43572e-05
0.0170593
7.81553e-05
6.97618e-05
8.71214e-05
8.87982e-05
0.0384684
0.013622
0.000108326
0.00337462
7.099e-05
6.88486e-05
0.0146856
5.43227e-05
9.77847e-05
5.44015e-05
5.49084e-05
7.76472e-05
5.6776e-05
5.51592e-05
7.09283e-05
0.00089159
8.8682e-05
0.0427294
0.00690399
0.0148694
5.53035e-05
7.71258e-05
5.94346e-05
6.02982e-05
6.65097e-05
0.00179818
8.82907e-05
0.0238433
0.00740191
7.70845e-05
6.9008e-05
5.8417e-05
0.00093413
0.00100429
8.95222e-05
6.9217e-05
0.0143431
0.000228532
4.41926e-05
9.05376e-05
8.08815e-05
5.23444e-05
5.22604e-05
0.0143301
0.00010079
8.50596e-05
8.46246e-05
0.0403538
0.017248
0.00012675
0.00272319
6.70242e-05
0.000109346
5.93452e-05
6.13648e-05
5.52244e-05
8.9762e-05
0.0025398
6.14276e-05
8.58262e-05
8.84936e-05
7.82491e-05
0.0355899
8.49604e-05
0.0195178
0.000196364
7.83709e-05
7.38949e-05
8.02414e-05
8.25858e-05
4.48142e-05
6.53469e-05
4.3966e-05
0.000282756
9.55482e-05
7.96122e-05
7.29705e-05
0.00560203
7.477e-05
0.035248
8.43189e-05
6.63659e-05
6.82102e-05
8.08765e-05
5.18779e-05
7.87809e-05
6.26845e-05
0.0385497
0.00630101
6.20491e-05
7.50434e-05
7.44815e-05
6.16961e-05
6.90742e-05
6.92302e-05
7.95279e-05
0.000160975
6.63308e-05
6.34621e-05
7.08572e-05
6.62386e-05
8.05843e-05
6.66029e-05
0.00144891
6.16016e-05
6.16995e-05
0.0435583
6.88756e-05
0.00118876
7.88043e-05
0.000932185
0.00442968
7.55266e-05
6.1182e-05
8.14407e-05
5.30078e-05
0.0392108
0.00104149
0.00100812
0.000699779
5.65966e-05
6.24925e-05
0.000393175
6.65709e-05
9.21416e-05
0.000328655
6.76909e-05
0.0253728
8.67401e-05
9.2981e-05
6.56592e-05
6.65005e-05
7.97184e-05
0.0359666
7.66196e-05
0.0293937
6.00743e-05
7.81584e-05
8.74499e-05
0.0299327
7.22219e-05
6.62221e-05
9.52686e-05
6.06305e-05
9.36988e-05
5.46203e-05
8.82582e-05
4.41496e-05
6.21979e-05
8.73578e-05
0.017804
7.35948e-05
0.00652949
6.08715e-05
8.21422e-05
6.04244e-05
4.44572e-05
8.30216e-05
0.000112217
0.00616381
8.12175e-05
7.31163e-05
0.00430432
6.48826e-05
4.81206e-05
8.50328e-05
0.00374564
7.3435e-05
0.000127863
0.00293538
6.09847e-05
8.10359e-05
5.9122e-05
6.26006e-05
6.08814e-05
7.87588e-05
0.000108643
0.000205805
7.96631e-05
5.02868e-05
8.15756e-05
0.0283263
8.57736e-05
0.000229918
6.23004e-05
5.89724e-05
4.84611e-05
5.65926e-05
5.89173e-05
0.000113852
9.32245e-05
5.46658e-05
8.46415e-05
0.00370175
7.06774e-05
6.6426e-05
5.11878e-05
5.58715e-05
5.64576e-05
0.000148424
8.92894e-05
0.00546602
8.82236e-05
5.10527e-05
0.00501772
9.04288e-05
0.0377688
9.03984e-05
6.20282e-05
7.23206e-05
7.83969e-05
8.78018e-05
0.000167424
0.00912983
8.55914e-05
0.00926104
8.72612e-05
6.08128e-05
5.42915e-05
0.000131589
6.58603e-05
8.12097e-05
6.65272e-05
0.0398519
8.10337e-05
0.000109687
6.44488e-05
7.86393e-05
8.47426e-05
8.57014e-05
7.57085e-05
8.62079e-05
8.38647e-05
6.92429e-05
5.44498e-05
7.30109e-05
0.00922304
8.58439e-05
0.000165314
7.86691e-05
7.03699e-05
0.0289121
5.02023e-05
8.3858e-05
7.9032e-05
7.77624e-05
8.93942e-05
5.89777e-05
8.55756e-05
7.36783e-05
0.000141353
0.000350111
8.39937e-05
7.1152e-05
7.06713e-05
6.06247e-05
5.01648e-05
9.38862e-05
0.000115119
0.00628624
9.65614e-05
8.7581e-05
0.00468377
0.0024997
0.00214085
7.43601e-05
7.54258e-05
0.000106084
7.64956e-05
8.49379e-05
4.47534e-05
0.000208227
8.74507e-05
0.0104087
7.49487e-05
8.29198e-05
7.08793e-05
8.85328e-05
4.8979e-05
5.19442e-05
5.00884e-05
5.36869e-05
6.70825e-05
4.15007e-05
7.5246e-05
0.000199974
5.00729e-05
0.00600163
5.32105e-05
0.0402501
5.82261e-05
5.81884e-05
0.000108185
0.00151404
8.59128e-05
8.29341e-05
6.93732e-05
5.94806e-05
8.37019e-05
5.16437e-05
8.3969e-05
7.52767e-05
5.15707e-05
8.85635e-05
5.65598e-05
0.036449
6.30766e-05
7.83911e-05
8.10918e-05
7.01798e-05
0.0246373
0.00455166
0.036285
8.48431e-05
9.73195e-05
0.00569468
9.13147e-05
6.29699e-05
0.0114378
9.11876e-05
6.70352e-05
8.89758e-05
8.07198e-05
6.88525e-05
8.38726e-05
7.59649e-05
7.00317e-05
8.90889e-05
9.40198e-05
0.000133208
7.78074e-05
7.76006e-05
7.91403e-05
6.84273e-05
0.00420812
8.0457e-05
5.70461e-05
0.000346046
6.30472e-05
8.2482e-05
0.000760296
0.000133838
5.66438e-05
8.85125e-05
6.15183e-05
7.54833e-05
8.99651e-05
8.73987e-05
0.000134318
0.000138423
8.28802e-05
7.79062e-05
6.75112e-05
8.28928e-05
7.40577e-05
5.83407e-05
8.10542e-05
7.58778e-05
5.1329e-05
7.55988e-05
7.96664e-05
8.73073e-05
4.86725e-05
7.7351e-05
8.03025e-05
8.60984e-05
8.92073e-05
5.91209e-05
0.000435293
0.000134105
8.38135e-05
5.46046e-05
6.59855e-05
0.0393134
6.19328e-05
6.1842e-05
9.10729e-05
0.00299114
6.76376e-05
9.23888e-05
6.66387e-05
0.000528437
6.75647e-05
9.04874e-05
7.87235e-05
0.00236156
5.73702e-05
7.79111e-05
8.54104e-05
7.38246e-05
4.64839e-05
0.00032002
5.77927e-05
8.28381e-05
4.65106e-05
5.4844e-05
5.76699e-05
7.43549e-05
4.7713e-05
0.000188778
8.23262e-05
6.52675e-05
5.4195e-05
7.53984e-05
0.00104511
6.35239e-05
6.28098e-05
6.18723e-05
7.96851e-05
7.89725e-05
7.03703e-05
0.000961221
7.77695e-05
7.82034e-05
7.57083e-05
4.75037e-05
9.0395e-05
4.75006e-05
8.40403e-05
6.66132e-05
8.94629e-05
7.47651e-05
0.00539229
9.83818e-05
6.30659e-05
8.94864e-05
7.48148e-05
0.000189525
5.01089e-05
6.59484e-05
0.000116647
6.03035e-05
4.77182e-05
9.05885e-05
7.89363e-05
8.11099e-05
8.01658e-05
8.16821e-05
6.13935e-05
0.000134597
7.36257e-05
9.00833e-05
9.43349e-05
6.50896e-05
0.0408489
4.84107e-05
8.00343e-05
0.0425464
4.61074e-05
4.84291e-05
8.90979e-05
7.57578e-05
7.47038e-05
8.75715e-05
0.000227321
0.00421304
7.93404e-05
9.20538e-05
7.12376e-05
7.58483e-05
7.9565e-05
8.41409e-05
6.46775e-05
7.02672e-05
0.000115557
7.02974e-05
6.07329e-05
6.13008e-05
7.05564e-05
9.39578e-05
8.03821e-05
0.000473688
7.17023e-05
0.00342679
5.59714e-05
5.55428e-05
0.043461
0.00102542
0.00187757
9.59574e-05
7.50035e-05
7.95222e-05
9.02608e-05
6.51599e-05
7.74219e-05
5.72062e-05
0.000880819
8.9225e-05
7.92464e-05
2.96818e-05
0.000100559
9.2341e-05
7.49996e-05
8.92832e-05
0.0217934
0.00110166
0.000197403
5.33202e-05
4.97154e-05
6.50088e-05
5.93234e-05
0.000175097
7.28992e-05
8.19724e-05
8.83093e-05
6.57721e-05
0.000873853
8.72949e-05
0.000112681
7.00457e-05
9.8092e-05
5.44611e-05
0.000982712
8.16427e-05
0.000136075
8.74505e-05
7.59824e-05
0.000963896
5.22994e-05
7.0436e-05
0.000228564
7.16998e-05
0.0435724
9.09252e-05
8.49205e-05
6.74529e-05
9.46477e-05
0.00012397
6.9582e-05
5.74412e-05
7.7361e-05
0.000133464
8.24455e-05
0.0365924
7.76735e-05
8.03586e-05
0.00630351
7.84519e-05
6.99756e-05
8.06136e-05
6.67752e-05
6.14877e-05
8.48083e-05
0.00450412
7.885e-05
0.00807399
4.44452e-05
8.1487e-05
0.000161366
5.09565e-05
4.6842e-05
8.60433e-05
0.0432092
8.91622e-05
7.36205e-05
8.0374e-05
8.90415e-05
0.000247194
8.96692e-05
6.98116e-05
6.1235e-05
0.00803725
0.0313352
5.01427e-05
8.04728e-05
6.67682e-05
9.40239e-05
4.43854e-05
6.02443e-05
9.36867e-05
0.00125812
8.42362e-05
8.14608e-05
8.71208e-05
5.09549e-05
5.45504e-05
6.82206e-05
6.6517e-05
0.00811392
6.65917e-05
7.48609e-05
6.94801e-05
0.000402957
6.48569e-05
0.0441882
6.0695e-05
7.54187e-05
9.34185e-05
0.00349551
0.000784946
0.0239762
0.000109186
4.93101e-05
0.000209534
8.67496e-05
0.000131563
5.64204e-05
5.95616e-05
9.29741e-05
8.02091e-05
6.95737e-05
0.0407147
7.60745e-05
0.000241224
7.3919e-05
5.87115e-05
0.00108762
6.25626e-05
6.98592e-05
8.72887e-05
5.95746e-05
7.86335e-05
8.74682e-05
0.000497173
0.00747048
6.91953e-05
5.94757e-05
0.00889478
8.77801e-05
4.61676e-05
0.0385946
8.03385e-05
8.8964e-05
8.54847e-05
5.54622e-05
0.000156637
0.00137316
8.96929e-05
8.20586e-05
6.6504e-05
8.00828e-05
0.00351522
0.000156161
5.39636e-05
9.20518e-05
7.14614e-05
0.000141054
1.78834e-05
0.000110732
6.92844e-05
0.0154982
5.10553e-05
4.9288e-05
8.19016e-05
8.7116e-05
8.99803e-05
4.66462e-05
7.94216e-05
4.43219e-05
7.91511e-05
5.91708e-05
4.98644e-05
8.93724e-05
7.62959e-05
6.64703e-05
0.0055986
0.00836961
0.0038461
1.48799e-05
5.68507e-05
8.90645e-05
5.58759e-05
0.00293771
0.000544032
8.16399e-05
6.15404e-05
4.99659e-05
0.00192856
0.000110031
5.57662e-05
7.33174e-05
6.30535e-05
8.67128e-05
6.15318e-05
5.91248e-05
4.66476e-05
5.71355e-05
0.00506708
5.63083e-05
0.0313811
4.44468e-05
6.41573e-05
0.0381522
7.21674e-05
8.49333e-05
0.000150267
5.90033e-05
8.93579e-05
0.00486902
0.000108974
9.00664e-05
0.00011606
9.47519e-05
6.8145e-05
0.000165026
2.16668e-05
6.32553e-05
7.52247e-05
5.33426e-05
8.68144e-05
8.82688e-05
9.24837e-05
6.47203e-05
5.04026e-05
7.71404e-05
7.80209e-05
0.00586581
7.49146e-05
5.45161e-05
5.39094e-05
6.41176e-05
7.52379e-05
5.42218e-05
0.014634
7.44948e-05
7.61327e-05
0.000128556
5.98035e-05
5.02747e-05
0.0271919
5.4147e-05
6.31698e-05
0.000108911
5.40887e-05
7.54563e-05
7.95697e-05
8.75203e-05
5.09983e-05
7.80826e-05
7.32735e-05
0.0150706
8.84653e-05
7.63912e-05
4.68471e-05
0.00088229
0.0271607
5.97019e-05
8.21016e-05
0.00247348
0.0270002
6.59235e-05
8.49005e-05
9.53357e-05
6.41205e-05
8.4306e-05
4.68467e-05
7.67335e-05
0.0447262
0.000220158
8.22088e-05
6.76633e-05
5.64237e-05
8.64293e-05
8.71854e-05
4.4348e-05
7.77201e-05
9.59072e-05
0.0154439
8.64834e-05
6.04093e-05
4.35236e-05
0.000260339
8.87779e-05
5.83915e-05
5.66176e-05
0.000121439
6.27187e-05
8.71352e-05
0.00961797
6.03798e-05
8.19887e-05
0.000110407
5.07334e-05
6.62594e-05
7.64921e-05
0.0381104
0.0421441
8.10356e-05
6.03764e-05
0.00690154
7.61609e-05
8.91291e-05
8.43919e-05
0.0394468
5.97194e-05
8.93724e-05
7.41755e-05
7.83386e-05
8.88401e-05
7.00555e-05
0.000102091
8.1768e-05
9.28895e-05
6.14645e-05
7.0601e-05
8.88779e-05
7.49343e-05
6.58023e-05
7.34695e-05
5.93488e-05
0.00909105
8.45417e-05
5.067e-05
8.85295e-05
7.90426e-05
6.75945e-05
8.9361e-05
8.69324e-05
7.41896e-05
8.39089e-05
0.000144001
0.0423997
6.27651e-05
5.70676e-05
0.00345722
8.68413e-05
8.6123e-05
9.13685e-05
0.000125396
5.92773e-05
0.00265352
5.45922e-05
4.90543e-05
8.05581e-05
7.01277e-05
0.0253266
5.64904e-05
7.77546e-05
7.11247e-05
8.58173e-05
7.34784e-05
8.72398e-05
4.70683e-05
0.000127847
9.62182e-05
5.68038e-05
0.0372658
0.000155745
6.99792e-05
0.0404966
7.8621e-05
7.05273e-05
0.00268438
0.0369187
7.9582e-05
4.70595e-05
8.97368e-05
0.00507957
5.91521e-05
5.40077e-05
9.62841e-05
6.00338e-05
8.12191e-05
5.70393e-05
6.5154e-05
7.86233e-05
5.63896e-05
5.49881e-05
6.27156e-05
4.41845e-05
0.000100913
0.000100851
6.05007e-05
0.000128949
7.60092e-05
4.93595e-05
0.00486456
8.17777e-05
8.64102e-05
5.88318e-05
4.76111e-05
5.99917e-05
6.59505e-05
6.51017e-05
8.56841e-05
7.38524e-05
5.92427e-05
7.8738e-05
0.000331571
8.86202e-05
5.49344e-05
5.75089e-05
8.40091e-05
0.000161376
8.94773e-05
0.0316415
8.83979e-05
7.52135e-05
5.80312e-05
8.62897e-05
0.00513132
8.21324e-05
7.63215e-05
4.65568e-05
6.59204e-05
9.38412e-05
7.51015e-05
8.18604e-05
9.04289e-05
7.839e-05
8.75831e-05
5.56779e-05
8.31806e-05
0.000127384
5.99178e-05
9.33532e-05
0.000116609
7.98135e-05
0.000764212
4.99051e-05
0.000139181
5.63794e-05
9.34442e-05
6.2483e-05
9.36968e-05
5.51053e-05
6.50029e-05
9.0002e-05
8.5672e-05
0.0379722
7.28255e-05
0.000115649
7.52266e-05
0.00341084
7.89121e-05
8.87515e-05
7.53046e-05
5.53476e-05
7.84484e-05
7.29808e-05
7.82772e-05
0.000314947
6.69318e-05
7.8652e-05
5.71713e-05
8.87421e-05
5.4273e-05
8.70135e-05
0.0259396
7.83529e-05
0.0372173
7.92814e-05
8.16516e-05
4.72828e-05
8.88143e-05
9.02983e-05
0.000129621
0.00899314
8.94155e-05
8.88176e-05
8.74165e-05
0.00571572
9.2855e-05
6.12691e-05
6.29177e-05
7.42486e-05
4.66922e-05
7.68963e-05
4.98334e-05
4.7277e-05
8.19495e-05
0.0300826
0.0053934
0.00362757
6.13393e-05
0.00500019
0.000138165
8.58777e-05
7.43959e-05
7.79029e-05
0.00583427
6.67814e-05
0.000602787
5.62727e-05
5.60776e-05
9.02587e-05
0.000779192
8.62779e-05
6.58212e-05
6.54146e-05
7.35765e-05
7.49396e-05
8.95879e-05
7.01656e-05
9.05358e-05
0.000332294
5.92055e-05
5.68163e-05
0.0321623
7.41769e-05
5.69029e-05
6.31985e-05
9.02239e-05
8.82139e-05
5.33893e-05
7.31307e-05
6.59712e-05
8.79164e-05
7.89554e-05
7.53748e-05
6.29141e-05
0.00318933
7.55749e-05
6.83725e-05
7.5514e-05
0.0043412
5.67593e-05
0.000107576
0.000133752
0.00598975
0.000101147
7.10612e-05
8.52515e-05
6.24505e-05
0.039232
9.83483e-05
6.69376e-05
0.00919753
9.05269e-05
5.65805e-05
6.86385e-05
7.87196e-05
5.90508e-05
8.95208e-05
6.56855e-05
0.0024849
0.00010496
9.25126e-05
7.44652e-05
8.71235e-05
5.47247e-05
7.80083e-05
5.72199e-05
0.000108654
8.39843e-05
6.84108e-05
0.000142721
6.55818e-05
8.70094e-05
5.89377e-05
8.37947e-05
6.34296e-05
8.80088e-05
0.0155293
6.12645e-05
5.08829e-05
7.34254e-05
0.000253046
0.0307833
0.00271935
8.33209e-05
8.40546e-05
8.93047e-05
9.01765e-05
5.67932e-05
7.01831e-05
7.53798e-05
0.00181183
5.68485e-05
0.024498
8.68067e-05
8.06366e-05
0.000160429
9.02945e-05
0.00101433
8.79639e-05
7.85842e-05
8.88837e-05
6.84557e-05
6.49038e-05
9.3735e-05
9.32068e-05
0.0346516
0.000298546
8.67139e-05
7.55883e-05
6.07997e-05
5.84506e-05
8.38498e-05
9.28507e-05
0.0019395
5.78911e-05
8.72262e-05
7.79756e-05
7.26669e-05
0.00645771
7.04667e-05
8.1322e-05
0.000275901
8.90438e-05
5.6565e-05
6.28513e-05
0.000100674
6.49044e-05
0.0183532
4.81205e-05
8.44264e-05
8.80962e-05
0.0285901
4.81225e-05
6.44547e-05
8.42626e-05
0.000780213
8.402e-05
8.92753e-05
8.87416e-05
5.57078e-05
9.33196e-05
0.00200304
4.44236e-05
8.41789e-05
7.52921e-05
9.21706e-05
6.50374e-05
0.000137338
9.03069e-05
8.82853e-05
0.0421234
5.67873e-05
9.0562e-05
6.17924e-05
7.32745e-05
4.80041e-05
9.76879e-05
8.8334e-05
8.28536e-05
7.74606e-05
7.07185e-05
8.44197e-05
5.08993e-05
5.61463e-05
0.00208498
0.000284384
5.24807e-05
7.3234e-05
7.12881e-05
5.3063e-05
9.01673e-05
7.99129e-05
4.76082e-05
0.00205604
9.10921e-05
0.0379159
5.33616e-05
5.25692e-05
8.76377e-05
7.81865e-05
0.0373101
8.22437e-05
0.000100292
9.06637e-05
0.000763166
6.12816e-05
8.38666e-05
0.0403664
6.44195e-05
6.11299e-05
4.43508e-05
5.7183e-05
5.83058e-05
7.21338e-05
0.0365947
5.52439e-05
8.86589e-05
7.4466e-05
8.58947e-05
0.0335653
5.29784e-05
8.35369e-05
0.00262876
9.91885e-05
9.08255e-05
9.58004e-05
6.15527e-05
0.00495785
8.76868e-05
9.33086e-05
0.000250671
5.5278e-05
8.16449e-05
0.0124358
8.78501e-05
8.89234e-05
8.30697e-05
8.23287e-05
5.85505e-05
5.26003e-05
5.25551e-05
5.14443e-05
6.82844e-05
8.72421e-05
5.13563e-05
7.81789e-05
4.43779e-05
7.30013e-05
5.73522e-05
7.66706e-05
7.31406e-05
9.15451e-05
9.04389e-05
0.0179267
5.5363e-05
8.45971e-05
5.68306e-05
7.20362e-05
4.83499e-05
8.32984e-05
0.0401416
8.13138e-05
8.45602e-05
7.35697e-05
7.45273e-05
7.56216e-05
7.32521e-05
6.69232e-05
0.00884183
6.65868e-05
5.84792e-05
0.00164602
6.48743e-05
4.55589e-05
9.04446e-05
0.000398287
8.8721e-05
5.48074e-05
8.7308e-05
0.0358248
0.0305158
5.95839e-05
9.38854e-05
6.50831e-05
8.84551e-05
0.000871395
6.05395e-05
0.0358498
5.58952e-05
8.51194e-05
7.34201e-05
0.0253093
7.74814e-05
5.65821e-05
9.39918e-05
8.08831e-05
6.34538e-05
7.80511e-05
0.000150132
7.8625e-05
0.037279
0.000231964
0.0367487
0.000216826
7.12351e-05
0.00013598
0.000125789
0.00246054
8.34609e-05
8.67727e-05
8.70379e-05
7.8704e-05
6.96379e-05
0.00183412
8.84242e-05
0.000103016
9.07644e-05
9.25118e-05
7.81562e-05
9.15411e-05
5.98965e-05
8.19263e-05
0.000190338
5.35335e-05
0.0251768
7.78977e-05
5.45566e-05
7.94012e-05
8.57149e-05
7.89781e-05
7.91651e-05
5.12585e-05
0.000105491
7.28353e-05
5.46053e-05
5.20306e-05
5.74134e-05
0.00224496
4.22941e-05
0.0341898
6.82489e-05
9.30154e-05
5.12747e-05
7.08617e-05
7.79188e-05
5.34869e-05
6.46124e-05
6.52728e-05
6.79918e-05
7.9778e-05
5.92226e-05
6.02841e-05
8.1986e-05
0.0419491
0.00549936
8.88933e-05
8.16701e-05
7.80586e-05
7.618e-05
6.34794e-05
0.0257737
5.50672e-05
7.51739e-05
8.86857e-05
6.00224e-05
6.40222e-05
8.6858e-05
4.97389e-05
0.0349506
0.035554
5.45784e-05
6.95846e-05
5.07662e-05
5.73805e-05
6.02465e-05
0.000219736
9.32978e-05
8.87873e-05
8.55512e-05
5.53943e-05
0.0281681
7.0083e-05
6.47495e-05
8.1212e-05
8.76211e-05
0.0143604
0.000117713
8.95835e-05
5.42323e-05
0.0231159
9.66332e-05
0.00615839
0.000331414
7.35688e-05
7.82905e-05
5.3905e-05
9.03547e-05
6.89891e-05
4.43218e-05
8.86509e-05
5.66946e-05
0.00158983
5.35879e-05
7.21129e-05
0.000283644
8.11589e-05
0.000123854
8.54453e-05
6.46683e-05
7.29933e-05
6.06456e-05
0.0376102
8.82187e-05
6.74493e-05
8.2638e-05
6.08113e-05
5.1452e-05
5.62093e-05
8.77683e-05
7.50096e-05
8.11752e-05
0.000117397
0.015962
6.43194e-05
7.56131e-05
7.87368e-05
7.03606e-05
6.11026e-05
6.24203e-05
7.86784e-05
6.99611e-05
8.73251e-05
9.02951e-05
6.26102e-05
5.92189e-05
8.61826e-05
6.42307e-05
0.0145302
0.00544225
5.90551e-05
8.63745e-05
6.79505e-05
9.37853e-05
7.38053e-05
7.55175e-05
6.33407e-05
9.12613e-05
5.35926e-05
8.87487e-05
7.9962e-05
5.53447e-05
9.07718e-05
8.1618e-05
0.000705951
7.77783e-05
8.16103e-05
5.92176e-05
0.00646457
7.67509e-05
6.68046e-05
5.9159e-05
6.46391e-05
0.000167796
6.32644e-05
6.39011e-05
5.30775e-05
5.51983e-05
6.32344e-05
8.65827e-05
7.01605e-05
9.39437e-05
5.52998e-05
7.97222e-05
8.13566e-05
8.10359e-05
0.000134105
9.19201e-05
8.63832e-05
6.25274e-05
8.17892e-05
0.00352337
0.000120975
7.11e-05
0.000104929
9.98061e-05
9.38242e-05
5.31769e-05
5.14931e-05
0.000111493
0.000154602
6.55465e-05
8.15721e-05
0.00179519
8.27393e-05
9.14842e-05
0.0305471
5.29436e-05
7.77617e-05
8.93994e-05
7.92033e-05
7.8041e-05
6.37386e-05
8.98533e-05
0.00218736
7.94126e-05
5.9206e-05
8.82251e-05
8.14442e-05
7.62042e-05
7.75438e-05
8.58689e-05
0.0358117
0.0361909
8.19569e-05
8.16583e-05
0.000127201
5.3036e-05
9.29244e-05
4.49638e-05
7.80666e-05
7.41186e-05
7.9937e-05
8.19821e-05
4.41342e-05
9.06339e-05
8.65019e-05
8.40052e-05
7.90348e-05
8.5694e-05
8.82706e-05
9.11909e-05
0.0326322
5.47047e-05
5.08192e-05
0.00133707
6.41985e-05
7.76326e-05
7.07498e-05
8.6339e-05
0.000102563
0.0388489
6.08297e-05
0.000809161
7.25297e-05
8.72971e-05
8.947e-05
7.65452e-05
5.73406e-05
8.50478e-05
8.38879e-05
0.00283507
9.14195e-05
5.90821e-05
7.72193e-05
7.79175e-05
8.81994e-05
8.20196e-05
0.000112241
8.17771e-05
6.90049e-05
5.44913e-05
9.15479e-05
7.08595e-05
0.000193873
5.68367e-05
5.80682e-05
6.23897e-05
9.06395e-05
0.00476093
7.09861e-05
6.18299e-05
9.82092e-05
7.93264e-05
0.000146099
8.49541e-05
7.15153e-05
5.86583e-05
7.34802e-05
6.88436e-05
7.79237e-05
5.69087e-05
0.00222587
9.56611e-05
0.000105346
9.6196e-05
8.84552e-05
7.77733e-05
9.2417e-05
8.56298e-05
6.44891e-05
0.00211097
7.6336e-05
9.02551e-05
0.0249879
8.61594e-05
8.98344e-05
8.73571e-05
7.20923e-05
0.00376664
8.89917e-05
0.000786104
7.95181e-05
6.49489e-05
4.41861e-05
9.20463e-05
7.39129e-05
0.00414089
5.0851e-05
0.000109656
8.73228e-05
4.43751e-05
0.0013208
8.99907e-05
8.82037e-05
0.0002212
8.20125e-05
5.40777e-05
7.83115e-05
6.26107e-05
0.000112812
7.64893e-05
9.19419e-05
7.7776e-05
8.96601e-05
7.02693e-05
7.79691e-05
6.80522e-05
0.0405448
8.34552e-05
0.000710591
0.000248727
8.77669e-05
8.15189e-05
9.76922e-05
7.64518e-05
9.30091e-05
6.66588e-05
0.00606227
5.60696e-05
9.26117e-05
6.88876e-05
0.00495368
0.00014584
0.00281751
6.54925e-05
6.56565e-05
7.71305e-05
0.0138352
0.000178239
8.37536e-05
8.30869e-05
0.000224356
9.64653e-05
8.4358e-05
0.00407991
0.00587835
8.33136e-05
5.90407e-05
8.84333e-05
6.36397e-05
6.13361e-05
0.0046803
8.58428e-05
7.2699e-05
9.83922e-05
9.35055e-05
7.35236e-05
9.40669e-05
7.36313e-05
6.09979e-05
8.14055e-05
8.15389e-05
7.7977e-05
0.0294129
0.000129123
7.69772e-05
6.00398e-05
8.5168e-05
6.36778e-05
0.00334442
6.1113e-05
0.000104268
5.34331e-05
7.34861e-05
0.000225165
8.39801e-05
8.59646e-05
7.60158e-05
6.36369e-05
8.78313e-05
7.94527e-05
8.52384e-05
7.4562e-05
0.000128053
9.8656e-05
8.92858e-05
8.65385e-05
0.000164856
0.0287484
0.000270663
0.00475539
7.207e-05
6.22027e-05
8.21014e-05
7.54244e-05
5.03509e-05
5.53408e-05
0.0430817
0.00148637
9.1738e-05
0.00303771
6.25431e-05
8.78969e-05
8.4867e-05
0.0434038
5.26149e-05
8.83833e-05
5.85466e-05
8.63309e-05
8.23919e-05
0.000120033
0.00874453
5.39811e-05
7.5567e-05
6.02078e-05
5.6133e-05
0.0315174
5.96867e-05
5.18405e-05
8.04989e-05
9.47172e-05
5.68089e-05
8.04401e-05
5.61203e-05
5.42321e-05
8.17406e-05
6.06158e-05
8.66436e-05
7.46694e-05
0.000258341
5.71506e-05
5.98523e-05
8.05657e-05
0.000181357
6.88993e-05
8.36095e-05
5.81823e-05
9.22033e-05
5.18588e-05
8.72456e-05
8.63262e-05
6.5719e-05
0.00171192
6.46048e-05
9.00333e-05
5.53766e-05
0.000100732
8.62276e-05
8.11108e-05
7.54195e-05
0.00150222
6.66706e-05
7.08064e-05
8.87784e-05
7.76597e-05
7.9517e-05
9.41086e-05
0.00142235
7.23707e-05
8.35049e-05
6.75817e-05
0.000158441
8.94536e-05
0.00011788
0.0369097
8.54302e-05
8.78078e-05
8.97465e-05
7.99104e-05
9.21507e-05
6.79388e-05
5.87634e-05
8.14581e-05
8.09931e-05
8.41291e-05
6.06179e-05
8.96087e-05
5.06311e-05
8.04494e-05
0.00570829
0.000105733
8.18253e-05
5.93299e-05
8.07407e-05
0.00765296
8.31321e-05
8.08305e-05
0.0011045
8.63064e-05
0.0428608
6.05284e-05
7.62103e-05
9.01297e-05
6.55433e-05
7.47581e-05
7.47354e-05
6.83584e-05
0.000223126
6.95178e-05
8.47127e-05
8.44571e-05
4.86215e-05
5.91846e-05
0.000118771
6.2167e-05
4.86818e-05
0.0339368
6.5265e-05
8.3185e-05
0.00378076
8.74718e-05
0.00172433
5.08058e-05
8.83235e-05
5.86172e-05
9.00087e-05
8.9353e-05
8.96979e-05
0.000112272
7.41367e-05
9.51351e-05
5.63276e-05
8.00922e-05
6.97196e-05
7.14368e-05
5.08017e-05
8.8721e-05
5.05913e-05
4.99898e-05
5.72909e-05
8.21494e-05
0.000652658
0.00855915
0.000104055
7.28622e-05
7.30336e-05
8.27309e-05
5.59486e-05
0.000148182
9.23891e-05
6.6133e-05
6.90639e-05
0.000100608
0.00107678
8.90814e-05
7.22332e-05
0.000118794
7.31866e-05
5.47481e-05
3.08233e-05
6.86293e-05
0.033247
0.000101398
6.58961e-05
0.014118
8.89227e-05
6.64471e-05
7.89267e-05
9.49969e-05
8.91761e-05
0.0272905
6.43423e-05
0.0130268
5.17705e-05
7.90945e-05
0.00260279
5.75337e-05
8.85151e-05
0.00379301
5.59536e-05
7.06606e-05
0.0159519
0.000102984
9.50352e-05
9.49703e-05
5.15939e-05
8.99607e-05
9.01798e-05
0.0263086
0.014866
0.000121672
5.13112e-05
6.65134e-05
0.000539486
5.74677e-05
8.9298e-05
5.55796e-05
7.42914e-05
0.000100969
8.72124e-05
5.46546e-05
6.954e-05
0.000110633
6.98253e-05
8.97501e-05
8.18695e-05
6.01667e-05
7.08107e-05
6.33997e-05
0.0240027
0.00514194
5.05026e-05
0.00293987
0.000101198
7.06431e-05