/*--------------------------------*- C++ -*----------------------------------*\
| =========                 |                                                 |
| \\      /  F ield         | OpenFOAM: The Open Source CFD Toolbox           |
|  \\    /   O peration     | Version:  v2012                                 |
|   \\  /    A nd           | Website:  www.openfoam.com                      |
|    \\/     M anipulation  |                                                 |
\*---------------------------------------------------------------------------*/
FoamFile
{
    version     2.0;
    format      ascii;
    class       surfaceScalarField;
    location    "400";
    object      phi_0;
}
// * * * * * * * * * * * * * * * * * * * * * * * * * * * * * * * * * * * * * //

dimensions      [0 3 -1 0 0 0 0];
oriented        oriented;


internalField   nonuniform List<scalar> 
49868
(
-0.0977984
0.219933
-0.122134
-0.243547
0.33772
-0.0941729
-0.0693818
-0.060211
0.129593
-0.205246
-0.134083
0.339328
-0.103283
0.1576
-0.0543168
-0.144948
-0.0929375
0.237886
0.225243
0.121081
-0.346324
-0.343566
0.172478
0.171089
0.34994
-0.372069
0.0221289
0.0591512
0.0256029
-0.0847541
-0.302109
0.174895
0.127214
-0.128747
0.236734
-0.107988
-0.12586
0.351103
0.0513128
0.0837382
-0.135051
0.22402
0.346762
-0.269713
-0.0770497
-0.324565
0.00412383
0.320442
0.112984
-0.08485
-0.0281344
-0.0494754
0.155141
-0.105665
-0.202136
0.291971
-0.089835
0.0650192
-0.102122
0.0371028
-0.2918
0.104073
0.187727
0.363922
-0.365303
0.00138052
0.105445
-0.203244
-0.405343
0.280626
0.124717
0.113479
-0.242225
0.334821
-0.322445
-0.012376
0.140527
-0.0993561
-0.0411712
-0.149001
-0.142799
0.385158
-0.0148693
-0.370289
0.0873726
0.264526
-0.351899
-0.173547
0.320949
-0.147402
-0.117167
-0.0580541
0.175222
0.0826655
0.0303189
0.142612
-0.364203
0.221591
0.181483
-0.300746
0.119262
0.0665672
0.0622903
-0.128858
-0.0378717
0.312259
-0.274387
-0.150082
-0.0858253
0.235907
0.0768873
0.0463101
-0.123197
0.28406
-0.206632
-0.0774285
0.347912
0.0372457
-0.25689
0.219018
0.364933
-0.364933
-0.0787614
0.0741472
0.00461422
-0.0459722
0.114582
-0.06861
0.356631
-0.164441
-0.19219
0.0840604
-0.134618
0.050558
0.066005
0.0544207
-0.120426
-0.375474
0.180072
0.195402
0.0737815
-0.177582
0.1038
0.386435
-0.107792
-0.278643
0.240868
-0.108008
-0.13286
-0.353023
0.128751
0.224273
-0.20505
0.306755
-0.101705
0.100719
0.0398081
-0.318581
0.113531
0.145009
-0.106174
-0.0388353
-0.0559839
0.132871
-0.178872
0.129396
0.227341
-0.0125768
-0.214764
-0.364725
0.210792
0.153933
0.13273
-0.0661629
0.0473234
0.264936
0.345053
-0.327643
-0.0174099
0.15497
0.0827742
-0.237745
0.402968
-0.334321
-0.0686468
0.0925616
-0.0601123
-0.0324493
0.283766
0.102669
-0.183485
0.123433
0.060052
-0.381531
0.134896
0.246635
-0.254046
-0.110679
0.304956
-0.257632
0.0324059
0.312647
0.105327
0.0496872
-0.155015
0.291586
0.0579191
-0.349505
0.268512
-0.164439
0.0821061
-0.213133
0.131027
0.133459
-0.082146
-0.173232
0.0800716
0.0931604
0.18155
-0.0488203
-0.116145
0.277377
-0.161232
0.174822
0.0797749
-0.254597
-0.232862
0.131288
-0.0472275
0.155419
-0.379092
0.223674
0.0645523
-0.0973024
0.0327501
0.0535467
-0.0459418
-0.00760494
-0.00774483
0.0564657
0.250869
0.0657228
-0.316592
-0.305443
0.131895
0.187044
0.0981848
-0.285229
0.122559
0.118309
-0.173843
0.282414
-0.108571
-0.231942
0.0775126
0.0537754
-0.142783
0.103505
0.039278
-0.112617
-0.0708675
0.38688
-0.103114
0.127949
-0.365763
0.237814
-0.0338063
0.0983586
-0.0888985
0.263721
-0.122599
0.273011
-0.150412
-0.249658
0.317819
-0.0681601
0.195978
-0.38356
0.187582
0.125669
-0.367223
0.241554
-0.124087
0.206193
0.355164
-0.338971
-0.0161931
0.273108
0.113772
0.3858
-0.254776
-0.131025
-0.112423
0.217868
0.102109
0.300859
-0.177793
0.0606255
0.347263
-0.223021
-0.124242
0.0703108
-0.105574
0.035263
-0.0557732
0.106404
-0.0506307
-0.0518145
0.279155
0.0807806
-0.129515
0.0487345
0.198101
-0.177472
-0.0206291
-0.352725
0.226865
0.0777043
-0.197136
0.119432
-7.97284e-05
0.146433
-0.146354
0.204733
0.102021
0.370557
-0.215139
-0.0971546
-0.0374638
-0.346629
0.144493
0.388082
-0.068012
-0.32007
0.0993605
0.0456486
-0.0457109
0.126491
0.04097
0.0807902
-0.12176
-0.361521
0.230221
0.131299
0.109217
0.014216
0.104278
-0.104358
0.147702
0.0338481
0.10921
0.11481
0.347064
-0.0421082
-0.148185
-0.0482767
0.196462
-0.163398
0.064405
0.0989928
0.20762
-0.108712
-0.0989086
-0.115093
0.156153
-0.285849
0.129696
-0.234526
-0.0775538
0.31208
-0.246939
-0.105716
0.352655
0.18741
0.159853
0.127588
0.140092
-0.26768
0.108343
-0.249211
0.140868
0.132177
-0.205057
0.0728795
0.315176
-0.327552
0.0123761
0.0545236
-0.270838
0.216315
0.267169
-0.212646
0.0518767
-0.318452
0.266576
-0.125714
-0.176395
-0.0287399
0.226841
-0.146766
-0.108112
0.254879
-0.0946161
0.0388429
-0.135854
-0.0996015
0.235455
0.151949
0.335534
-0.130801
0.107711
-0.21736
0.109649
-0.218962
-0.111857
0.118858
-0.00700182
0.123384
-0.35791
0.11051
-0.168564
0.127573
-0.227842
0.100269
-0.0586041
-0.0618265
0.120431
-0.021058
-0.182116
0.203174
0.363698
-0.24943
-0.114268
-0.0596461
0.125651
0.169577
-0.0957951
0.000473588
-0.0976282
0.0913878
-0.0650817
-0.0263061
0.452415
-0.208091
-0.244324
0.050334
0.153598
0.232202
0.0696999
-0.246988
0.177288
-0.0884367
0.0334632
0.0549735
0.101398
0.162705
-0.264103
0.0143917
-0.257939
0.0663464
0.148588
-0.214934
-0.376672
0.174509
0.202163
-0.251098
-0.125574
0.106342
-0.218766
-0.0852642
0.265336
-0.301124
0.132808
0.168316
-0.117056
0.244644
0.0420729
0.0114738
0.22404
-0.117604
-0.106436
-0.142762
-0.175819
0.289659
0.065505
0.319378
-0.225647
-0.0937316
-0.203183
0.265455
-0.062272
0.214053
0.0368926
0.230277
-0.176896
-0.189458
0.366354
-0.071787
0.208346
-0.136559
-0.0824833
-0.217241
0.299725
0.23624
-0.108667
0.11383
-0.0227223
-0.0911073
-0.220495
0.257388
0.380685
-0.27662
-0.104065
0.297024
-0.212
-0.0850239
-0.329107
0.159396
0.16971
0.411173
-0.258295
-0.152878
-0.214624
0.140909
0.0737157
-0.0529792
0.100202
-0.0472232
0.291718
0.0431026
0.183434
0.180263
-0.0322832
0.0418726
-0.215285
0.173412
-0.00626541
-0.0396764
0.248464
0.162708
0.409951
-0.155798
-0.254153
0.191467
-0.113762
0.0564399
0.0465213
0.245308
0.164643
0.0566531
0.0347347
-0.310702
0.2182
0.092502
0.219411
-0.153064
0.0877554
-0.179613
0.205104
0.0789559
-0.181149
0.105784
0.19124
0.260257
-0.0878055
-0.172451
-0.0927762
0.0397969
0.300156
0.0415643
-0.341721
0.155653
-0.0481392
-0.107514
0.356891
-0.0417154
-0.0971226
-0.0761094
0.150555
-0.314166
0.163612
0.0892765
0.0663764
-0.109283
0.197038
0.351251
-0.234758
-0.116493
0.363489
-0.234739
0.373173
-0.279692
-0.0934819
-0.352392
0.143737
0.208655
0.125928
-0.191141
0.0652132
0.0366242
-0.0952283
0.34999
-0.348789
-0.00120067
0.00226488
-0.282836
0.280571
0.189937
-0.0993006
-0.0906367
0.157324
0.0739492
-0.231273
0.124504
-0.0332362
-0.0912683
0.392776
-0.362645
-0.0301305
0.082455
0.109012
0.106561
-0.0744701
-0.0320909
0.28072
0.0660424
0.294812
-0.113328
0.19177
-0.331435
0.139665
-0.216105
0.124617
0.0914882
-0.156006
-0.0600987
0.079337
-0.131199
0.0518617
-0.138404
0.208104
-0.104646
0.0609299
0.0437163
0.40025
-0.291318
-0.108932
0.227384
-0.11904
0.309192
-0.158638
-0.133923
-0.0294745
0.383817
-0.110709
0.0866647
0.0378398
0.0881695
-0.0290184
-0.196716
-0.184815
0.0452096
0.347566
0.260672
-0.391484
0.130812
-0.132663
0.113123
0.01954
-0.12553
-0.205109
0.33064
-0.11351
-0.238882
0.147624
-0.0406532
0.254066
-0.213413
0.22312
-0.263773
0.182794
0.0774632
0.000755791
0.125304
-0.12606
0.215346
-0.0932492
-0.122097
0.123293
-0.0823235
-0.200041
-0.205302
-0.343489
0.229979
0.0668717
-0.226315
0.159443
0.253914
-0.169645
-0.0842687
0.34086
-0.301778
-0.0390821
-0.104107
-0.113253
0.178604
0.168836
-0.347441
0.194233
-0.112095
-0.0821379
0.0306676
-0.329269
0.298601
0.0849305
0.105007
0.142246
0.193288
-0.184853
0.371897
0.209513
-0.311519
0.102006
0.0696508
0.31171
-0.381928
0.0702185
0.0707048
0.00801886
-0.0787236
-0.236357
0.329484
-0.0931276
-0.0324425
0.113513
-0.0810709
0.351977
-0.357498
0.00552085
0.1883
-0.0623718
-0.131901
0.132656
-0.0263975
0.282376
-0.255979
0.192171
-0.0448736
-0.147297
-0.0517744
-0.0366623
-0.128592
0.0895876
0.0390041
0.326681
-0.190601
-0.13608
0.0949327
0.155884
0.0980299
0.241191
-0.378785
0.137594
-0.117846
0.0854037
0.298128
0.0427314
-0.0783589
0.325063
-0.246704
0.282519
0.0981663
-0.317164
0.238805
-0.0221878
0.109547
0.00428243
-0.000478467
0.0365509
-0.0360724
0.139527
0.0758189
0.216635
0.110046
-0.0771685
0.328038
0.0624967
-0.108469
0.15739
-0.238499
0.0811088
0.143189
0.0808507
-0.0467973
0.0463188
-0.0339415
0.0851564
-0.288339
-0.0444857
0.107288
-0.0628021
-0.103557
0.359938
-0.256381
-0.368486
0.256039
0.112447
0.0593798
-0.0520033
-0.00737651
-0.187011
0.0833619
0.0929734
-0.176335
0.10525
-0.251221
0.145971
0.231876
-0.152102
-0.179251
-0.149856
-0.138158
-0.205409
0.350823
-0.318995
-0.0318288
-0.159582
0.361442
-0.20186
-0.212581
0.137797
0.0747839
-0.102274
-0.0405088
0.166662
0.0255086
0.295714
0.0551091
0.330409
-0.142999
-0.256241
0.167342
-0.0774992
0.323522
-0.246023
-0.317471
0.239972
-0.208568
0.381518
-0.17295
-0.0241204
-0.212409
0.23653
0.141953
-0.0532096
-0.0887438
0.0109858
-0.243714
0.232728
0.161738
0.194893
0.0680584
-0.0148694
-0.053189
-0.142693
0.357787
-0.215094
0.185028
-0.295211
0.110183
0.135304
0.0646022
-0.199906
0.227515
-0.104956
-0.0479285
0.127266
0.306502
-0.225373
-0.0811288
-0.327206
0.184513
-0.0381762
0.127611
-0.038023
0.0970855
-0.242034
0.357025
-0.0532295
-0.303795
-0.196844
-0.0593788
0.256223
0.150821
0.359173
-0.146954
-0.212218
-0.0807645
-0.187359
0.268124
-0.191259
0.178682
-0.267987
0.187222
-0.0661
-0.165724
0.231824
0.103917
-0.187957
0.0840406
0.146917
0.172462
0.242083
-0.117466
0.131037
0.242136
-0.151517
0.195093
-0.0435763
-0.220472
-0.0951861
0.315658
-0.22328
0.234266
-0.0775501
0.323667
-0.246117
-0.317978
0.240427
0.404743
-0.204602
-0.200141
-0.161617
0.0930972
0.0685198
-0.198917
0.284074
0.0864016
0.041209
-0.273675
0.176176
0.0974984
-0.00522111
0.161105
-0.148413
-0.0292049
-0.0495565
0.259084
-0.385683
0.126599
0.173341
-0.350237
0.197811
0.206933
-0.228681
0.204561
0.139847
-0.0391275
0.4177
-0.234792
-0.182908
0.0117116
0.115707
-0.127419
0.14616
0.184249
-0.129094
0.20615
-0.0770566
0.0699004
-0.17925
0.109349
-0.222859
0.317451
-0.0945927
-0.169243
0.0155544
0.213232
-0.228787
0.291308
-0.275754
0.193204
-0.0892874
0.050112
-0.150005
0.0998932
-0.38679
0.208747
0.178043
0.113297
0.237954
0.187334
0.265081
-0.225832
0.326279
-0.100448
-0.0323023
0.186431
-0.154129
0.105358
0.136725
0.377803
-0.0952839
0.126228
-0.331474
0.11184
-0.0291742
0.126721
-0.373661
0.0883098
-0.111032
-0.0622949
0.0498273
0.0124676
-0.145985
0.0730727
0.0729123
0.375327
-0.134136
-0.104526
0.229643
-0.125117
0.413464
-0.242976
-0.170488
0.30197
-0.197868
-0.104102
0.314937
-0.224823
-0.0901147
-0.251888
0.0529703
-0.336549
0.027358
0.309191
0.00705862
0.00941013
0.410851
-0.157913
-0.252938
0.393533
-0.165347
-0.228185
0.120803
-0.0432909
-0.0690506
-0.267498
0.144218
-0.149439
-0.0725766
0.257202
-0.184626
0.243565
0.167286
0.102192
0.199779
-0.0942197
0.431492
-0.198391
-0.233101
-0.0898137
0.193593
-0.10378
0.216911
-0.349812
0.1329
0.0944656
-0.134546
0.371385
-0.236839
0.116198
-0.138557
0.0223595
-0.26424
0.191664
0.213692
0.217799
0.206005
-0.137097
-0.068908
0.0920808
-0.209784
0.117703
-0.205463
-0.181327
0.121356
0.106159
0.179361
-0.0688508
-0.302213
-0.0541376
0.35635
0.352164
-0.251372
-0.100792
0.321034
-0.222247
-0.0987867
-0.368091
0.233545
0.0965479
-0.277888
0.18134
0.0369674
-0.33918
-0.108971
-0.399164
0.296617
0.102547
0.0866528
0.0304238
0.24523
-0.275654
0.426656
-0.212963
-0.0741592
-0.0718258
-0.21642
0.120959
0.095461
0.225013
0.192688
0.366241
-0.14933
-0.190408
0.125317
0.0650914
0.185799
0.240857
-0.152379
-0.139394
0.291773
-0.315182
0.162803
-0.248877
0.0996034
0.149274
-0.0651846
0.323522
-0.258338
0.118308
0.0348021
-0.15311
-0.117492
0.129203
-0.151607
-0.0812102
0.232817
-0.159295
0.303183
-0.143887
-0.235177
-0.018869
0.320718
-0.282683
-0.0380345
-0.30466
0.239475
0.196352
-0.185676
-0.0106764
0.290706
-0.213317
-0.0773896
0.100614
-0.274457
0.01055
0.0488298
0.132854
-0.371683
0.23883
-0.204671
0.123304
0.0813669
-0.360997
0.132316
0.353587
-0.0418775
0.102594
0.137624
-0.240217
-0.364711
0.205315
0.159396
0.173093
-0.258357
0.0827042
-0.164417
0.0817127
-0.139266
-0.0771536
0.054409
0.0884371
-0.142846
0.330541
-0.13334
-0.197201
0.147449
0.183092
0.139648
-0.228929
0.0892808
0.217448
-0.125367
0.0489583
0.339124
0.0202149
-0.0315103
0.0112954
0.127861
0.0781435
-0.224642
0.366017
-0.141375
-0.166413
-0.337553
0.201271
-0.12637
0.16671
-0.0403399
-0.0367665
-0.0125256
0.0492921
-0.377096
0.168528
-0.246477
-0.11452
0.242888
-0.383779
0.140891
0.396344
-0.253678
-0.142666
0.27775
-0.116241
-0.161508
0.174907
0.221437
-0.0389591
-0.130883
0.169842
-0.0594574
0.100529
-0.0410717
0.206737
-0.134671
-0.0720658
0.0411461
-0.140464
0.0993183
0.0978271
-0.32265
0.327997
-0.17355
-0.154447
-0.233387
0.101569
0.131817
0.0299027
-0.0299382
0.26034
-0.182889
-0.0774513
0.0933128
0.0465338
0.121693
-0.0347896
-0.0869031
0.119446
-0.278741
0.0051839
-0.108467
-0.130023
0.0819091
0.0481139
0.364051
-0.121163
0.154772
0.067147
-0.221919
0.360086
-0.236944
-0.123142
-0.121129
-0.0717131
0.192842
0.0827483
0.145995
-0.228744
-0.0346324
-0.0130334
0.0476658
-0.0970591
0.0376017
-0.157252
0.239055
-0.0818028
-0.374806
0.243896
0.13091
-0.225356
-0.0899976
0.315353
0.228375
-0.205968
-0.0224076
0.232635
-0.0929873
0.380773
-0.248578
-0.132195
0.359662
-0.231713
0.0333254
-0.00342263
0.0288521
-0.12949
0.100637
-0.0953696
0.124222
0.199352
0.0832059
-0.282557
0.0194798
0.102213
-0.193526
0.0926429
0.100883
0.229559
0.0914748
0.102247
0.105373
0.0933776
-0.162332
0.0689544
-0.360855
0.0362894
0.0185914
-0.0764132
0.270915
-0.194502
0.133328
0.225845
0.172267
0.088073
-0.128929
0.294184
-0.165256
0.113639
-0.249493
0.260053
0.0716519
-0.331705
-0.276216
0.199803
0.255039
-0.161387
-0.093651
-0.0104656
0.0470164
-0.0140066
0.210359
-0.239582
0.326954
-0.11062
-0.141727
0.162993
-0.348865
0.185871
0.271539
-0.39251
0.120972
-0.0657179
0.0579118
0.0078061
-0.0455932
-0.0870699
0.38932
-0.117781
-0.206265
-0.0221182
0.228383
-0.253836
0.131237
-0.0499122
0.188955
-0.139042
0.347393
-0.117834
-0.0926157
0.118056
0.159694
0.363005
-0.163654
-0.123767
0.0889772
-0.0356277
0.153936
-0.107577
-0.0895592
0.131088
-0.0899422
0.173048
-0.420439
0.247391
0.404145
-0.108431
0.131132
0.075605
0.215937
-0.336081
0.120144
0.0481752
0.272542
-0.0933733
0.0282915
0.0737797
0.0838202
-0.352096
0.213938
0.241351
-0.0840273
0.148633
-0.347958
0.199325
0.0540925
0.0802478
-0.13434
-0.262243
0.0125841
-0.226386
0.338843
-0.112457
-0.267292
-0.109803
-0.342572
0.17814
0.164432
-0.212719
0.0965746
0.196462
-0.0642852
0.0152007
0.0333526
-0.0485533
-0.217809
0.108527
0.109282
-0.231037
-0.121499
0.352537
0.300369
0.113095
-0.117613
-0.131264
-0.0815961
-0.0117771
0.36032
-0.223435
-0.136886
-0.0950043
0.155919
-0.0609144
0.365855
-0.338497
-0.373319
0.130343
-0.0783241
-0.113529
0.191853
0.169616
0.190704
0.0493522
0.0926012
0.291517
0.112628
-0.222906
0.172994
0.316562
-0.043466
-0.273096
0.284397
-0.122088
-0.162309
0.210759
0.0442795
0.18928
0.105548
-0.294829
0.0915985
0.189934
-0.281532
-0.0700534
-0.0306369
0.10069
0.29444
-0.10267
0.298668
0.051272
0.300976
-0.132137
-0.168839
-0.371941
0.212353
0.159588
-0.228073
0.0932851
0.134788
0.374012
-0.297519
-0.0764924
-0.191214
-0.0805662
0.27178
-0.0529936
-0.244281
0.297275
-0.202918
0.111038
0.0918793
0.213146
-0.26614
-0.101708
0.280312
-0.25778
0.16572
0.0920598
0.349712
-0.314359
-0.0353528
-0.252454
0.325807
-0.0733534
-0.233156
0.358825
0.326885
-0.11025
0.369467
-0.0779508
-0.143439
-0.228501
-0.180257
0.367542
-0.05835
-0.086849
0.243002
-0.277437
-0.0883251
0.0536055
0.0940968
-0.139125
-0.203448
0.0513008
0.265261
-0.121489
-0.106584
-0.0367886
0.127729
-0.0909406
-0.0418796
0.0330394
0.00884018
-0.0441966
0.0593973
0.0218421
0.103427
-0.12527
0.150182
0.191493
-0.341676
0.376118
-0.240225
-0.135893
-0.358535
0.137475
0.22106
-0.0803178
-0.417033
0.217922
0.199111
-0.0983899
0.148502
-0.20409
-0.212943
-0.25099
-0.00378525
0.225046
0.10184
0.0896038
0.279864
-0.221934
0.352679
-0.130745
0.233751
0.142367
-0.329369
0.133417
0.195952
-0.131064
0.0942753
0.0327269
-0.012512
0.122607
0.0738553
-0.0873582
-0.115559
-0.373215
0.151281
0.125434
-0.326595
0.201162
0.351096
-0.236349
-0.114747
0.192945
0.187828
0.303302
0.0642404
0.199132
-0.0968846
-0.152438
0.0115517
0.0625955
-0.0410177
0.146345
0.323259
-0.197825
-0.134427
-0.224108
-0.14382
0.358883
-0.215063
-0.0260903
0.273905
-0.247815
0.260086
-0.286176
-0.143961
0.0305616
0.334372
0.0746996
-0.14419
0.0694906
-0.119103
0.410689
-0.199571
0.362564
-0.0951275
0.152834
-0.0577065
-0.216902
0.0924492
0.124453
0.255297
-0.398831
0.143534
0.364824
-0.109527
0.0829148
0.0302083
-0.0863981
-0.224657
0.311055
-0.136398
-0.081411
-0.156755
0.248097
-0.0913422
-0.0103993
0.0524722
-0.0679259
0.142626
0.0714353
-0.200307
0.128872
-0.0536744
0.213523
-0.159848
-0.379471
0.271786
0.107684
0.116724
-0.0948815
0.252966
0.0981301
-0.380388
0.271384
0.109005
0.339987
-0.117253
-0.222735
0.120175
-0.224282
-0.236643
0.182968
-0.28261
-0.0977788
0.0930673
-0.236317
0.143249
0.177888
-0.204286
-0.203682
0.354074
-0.150392
0.0303221
-0.0407877
0.245281
-0.0903107
0.133793
0.031355
-0.165148
0.131174
-0.0922018
-0.0389722
-0.354506
0.150823
-0.354655
0.229125
0.201395
-0.277277
0.0758826
0.206466
0.0842
-0.290666
0.429216
-0.246428
-0.182788
-0.291604
0.293869
0.266082
-0.369639
0.451116
-0.203561
-0.247555
0.236509
-0.115154
-0.0856458
0.287041
-0.0822526
0.291766
0.0848614
0.198895
-0.283757
-0.149037
-0.150462
0.299499
-0.0568358
0.10073
-0.0438944
0.119703
-0.190056
0.0703536
-0.388025
0.189461
0.198564
-0.339057
0.114415
-0.196231
-0.0810463
-0.23522
0.383572
-0.148352
0.0548886
-0.192338
0.137449
-0.192213
-0.172498
0.0357259
-0.203348
0.28821
-0.387292
0.124943
0.262348
-0.284812
0.122673
0.16214
0.129232
-0.278269
0.398489
-0.327031
-0.0714572
-0.34458
0.210152
-0.203074
-0.141505
0.222346
-0.356429
0.0802464
0.0315933
0.199058
-0.364493
0.165435
0.138143
-0.373485
0.235342
-0.147229
0.271669
-0.12444
0.135236
0.168066
0.0804132
-0.217177
0.136764
-0.188967
0.103284
0.0958476
0.115879
-0.242721
0.35925
-0.116529
0.0257061
0.00498308
0.294603
-0.109575
-0.197307
0.211699
0.180726
-0.125838
-0.332467
0.219197
0.11327
0.145968
-0.328541
0.182573
0.151042
0.176955
0.314198
0.0516573
0.169389
-0.396616
0.287022
0.109594
0.002134
-0.036792
0.034658
0.42665
-0.166565
0.182369
0.0760551
-0.128751
0.0526957
0.113861
0.199177
-0.313038
-0.406312
0.198276
0.208036
0.1093
-0.136155
0.026855
-0.138125
-0.226368
0.0761854
0.134862
-0.211048
0.217652
0.233464
0.266998
-0.36593
0.0989314
-0.0716421
0.154346
-0.0846725
-0.119999
0.167171
-0.0737937
-0.260265
-0.110916
0.37118
-0.0973255
-0.233787
0.331113
0.228643
-0.0738706
-0.045996
0.0113636
-0.270137
0.187654
0.0245676
-0.00884395
-0.0157237
0.34414
-0.259523
-0.0846168
-0.278228
0.0609869
-0.131958
-0.220138
0.018899
-0.205027
0.324473
0.297507
-0.162271
0.111185
0.125324
0.262693
0.0870191
0.113699
-0.0101939
0.349449
-0.112489
-0.23696
-0.0380134
-0.0914762
-0.094772
0.394928
-0.240631
-0.146661
0.168676
-0.0194518
-0.149225
-0.0408661
0.174659
0.284872
-0.166816
0.113359
0.0429454
-0.156304
0.181483
-0.327106
0.145623
-0.169555
0.137252
-0.397587
0.28555
0.112036
0.392928
-0.128401
0.191428
-0.205434
-0.072652
0.105311
-0.0326594
-0.176388
0.159885
-0.262078
0.102194
-0.282705
0.116307
0.166398
-0.374516
0.216001
0.158516
0.110383
0.203603
-0.313986
0.20491
-0.140132
-0.068534
0.124789
0.160082
-0.0888502
-0.0230063
-0.268883
0.16552
0.103363
-0.236455
-0.107034
0.0932609
-0.22641
0.133149
0.365683
-0.138716
-0.226967
-0.234868
-0.171444
0.327889
-0.146406
0.3102
-0.209921
-0.100279
0.134941
-0.03558
0.0675629
0.0369408
-0.104504
-0.261431
0.168493
0.357329
-0.330555
-0.0267747
-0.287195
0.0909644
-0.041906
-0.0238119
-0.138897
0.231965
-0.10584
0.0688037
0.0370368
0.111533
0.340071
-0.323718
-0.0163533
0.331198
-0.327074
0.107042
-0.33963
0.232588
0.31181
0.0282614
-0.0505676
0.294133
0.0739427
0.050435
-0.124378
-0.2787
0.391736
-0.113035
-0.300958
0.141376
-0.213164
0.0641637
0.0215042
0.212247
-0.230601
-0.0944708
0.325072
-0.250443
0.366827
-0.116384
0.11524
0.231824
-0.0664391
0.325523
-0.0946644
0.136659
-0.0419949
0.116784
-0.164078
0.0472939
-0.374491
0.229108
0.145383
-0.141306
0.103292
-0.228054
-0.17111
0.166892
0.10162
0.243131
-0.0070125
-0.0348671
0.152391
-0.0552652
-0.0971261
0.346173
-0.22123
-0.31887
0.113843
0.111622
0.194967
-0.306588
-0.186943
0.076519
0.110424
-0.0455802
-0.0360159
0.346022
-0.209443
-0.186201
0.107877
0.003591
0.0520643
-0.0556553
-0.0501047
0.218781
0.340566
-0.12456
-0.216007
0.424983
-0.251936
-0.0898072
-0.0402158
0.25263
0.125173
0.208482
-0.143478
-0.0650039
-0.327927
0.012302
-0.0724143
-0.123641
-0.028628
0.0989388
-0.336274
0.223804
0.112471
-0.27686
0.0885265
0.204292
-0.0689886
0.0699398
-0.266784
-0.144394
-0.0269173
0.142418
-0.115501
-0.392461
0.243227
0.149233
-0.160374
-0.260065
0.218415
-0.300667
0.137621
-0.108561
-0.0795299
0.0339497
0.0825925
0.28133
-0.115826
-0.249108
0.020431
0.00413658
0.270124
0.0872055
-0.162551
0.135634
-0.261302
0.1617
-0.338711
0.165381
0.173329
-0.114637
0.276047
-0.16141
0.13986
0.225823
0.075199
-0.300001
0.147981
0.15202
-0.109083
-0.0314132
0.140496
-0.0727991
0.05166
0.0211391
0.166841
-0.26626
0.0994192
0.0666113
-0.28947
-0.210558
0.232062
-0.203569
0.347306
0.28251
0.0753082
-0.357818
-0.0684228
-0.0939092
0.147178
-0.092769
-0.415897
0.243424
0.172473
-0.0214172
-0.128588
0.345694
-0.187357
-0.158337
0.168913
-0.0555545
-0.113555
0.275371
-0.161816
0.106259
0.201014
-0.307273
-0.200486
0.297674
-0.0971876
0.162719
0.121678
-0.115377
0.16234
-0.0469634
0.0758743
-0.222641
0.220533
-0.167465
-0.0530683
0.243402
0.185814
0.210258
-0.260826
0.177638
-0.331926
0.154289
0.0610366
0.388284
-0.173496
-0.214788
-0.020187
0.211615
0.112595
-0.259824
0.103224
-0.180289
0.0770641
0.293851
0.099682
-0.35377
0.11855
-0.055428
0.337938
0.260763
-0.373544
0.112781
0.303451
-0.276906
-0.0265449
0.1104
0.20227
-0.312671
-0.114182
-0.114747
0.062
0.00605839
-0.38011
-0.0923271
-0.193348
0.285675
-0.359754
0.156294
0.20346
-0.0297306
0.0318646
0.20919
-0.316944
0.107754
0.329914
-0.120724
0.0425943
0.0923462
-0.258563
0.1681
0.0904633
0.193319
-0.0847834
-0.108535
0.176438
-0.196625
-0.19465
0.359239
-0.253764
-0.105474
-0.015075
-0.135484
0.150559
0.246917
-0.387288
0.140371
0.0574401
-0.17299
0.11555
0.11681
-0.230992
0.367402
-0.120486
0.193468
-0.0879872
-0.105481
-0.151137
-0.165234
0.316371
-0.0346763
0.0447852
-0.0101089
0.34069
0.00516248
-0.345852
0.0778153
-0.235068
-0.124928
-0.104128
0.229056
0.337846
-0.172922
-0.164924
-0.0677929
0.146256
0.226015
-0.0686244
0.061347
0.0393832
-0.133029
0.301803
-0.168774
-0.103439
0.141629
0.0843856
0.194679
-0.0950742
-0.0996047
0.391269
-0.288089
-0.10318
-0.0406056
0.0755773
0.119102
0.267026
0.0364244
0.161284
-0.277646
-0.127149
-0.24492
0.272184
-0.105343
0.378201
-0.260693
-0.117509
0.168847
0.169
-0.0414893
0.157329
-0.11584
0.199428
-0.123243
-0.126297
0.0502897
0.0760075
-0.398292
0.194731
-0.166215
-0.0951146
0.26133
-0.266272
-0.0990306
0.286557
-0.0972768
-0.212788
-0.161728
-0.219185
0.0857335
0.133452
0.373292
-0.258997
-0.114295
-0.0525348
-0.0202643
0.342654
-0.352917
0.0102627
0.224733
-0.153874
-0.0708587
0.19136
-0.293883
0.102523
-0.0289736
-0.153143
-0.301048
0.149911
0.189474
-0.0862492
-0.388799
0.268743
0.120056
-0.185198
-0.0621412
0.24734
-0.12655
0.000180283
0.00561946
0.13939
-0.14501
0.0197784
-0.0720255
0.0522472
-0.0960872
0.124569
-0.0284817
0.0590906
-0.182889
0.123799
-0.234657
0.112872
0.121785
-0.245502
-0.0929996
0.338502
0.179688
-0.120597
-0.198019
0.295456
-0.097437
-0.390971
0.264911
0.126061
0.145698
0.062784
0.268544
0.109658
-0.386522
0.272243
0.114278
-0.244577
0.253307
-0.0358588
0.152559
-0.14694
-0.111407
0.343108
-0.231701
-0.177963
-0.211038
0.0770498
0.133988
0.104456
-0.243178
0.138722
0.157958
-0.0411744
-0.253076
0.283744
0.298534
-0.240615
0.066824
-0.161828
0.128528
-0.143603
-0.281789
0.38679
-0.105
0.346203
-0.0486963
-0.0295946
-0.00575959
0.0353542
0.139186
-0.319046
0.179859
-0.187845
-0.0364606
-0.10926
0.145721
-0.18264
0.279519
-0.0968789
0.0929569
-0.338459
0.133528
-0.23395
0.353676
-0.119727
0.108759
-0.331006
0.359955
0.0811791
-0.187303
0.106124
0.0527479
0.297242
-0.192141
0.302636
-0.110495
0.37917
-0.222522
-0.156648
-0.16057
0.145108
-0.220731
0.0756225
-0.196212
-0.103789
-0.0475444
0.281905
-0.234361
-0.0710364
0.125457
0.351474
-0.0799517
-0.271522
-0.051809
0.228247
-0.0823952
-0.225706
0.308101
0.256822
-0.37073
0.113909
0.273637
0.0778369
-0.15869
-0.214629
-0.0770422
0.324201
-0.247158
0.088163
0.043011
0.0804504
0.144283
-0.255189
0.177857
0.247127
0.268394
-0.188673
-0.0797212
0.18396
-0.157867
-0.0260925
0.105842
0.234934
-0.340776
0.278913
0.112356
0.228556
0.117617
0.258387
-0.16918
-0.0892073
-0.32766
0.111147
0.216512
0.20535
-0.361763
0.156413
0.0672236
0.0103472
-0.0775708
0.0996124
0.126577
-0.226189
-0.209638
0.315186
-0.105548
-0.128919
-0.181783
-0.0704312
-0.234229
-0.269591
-0.128702
-0.31876
0.248329
0.168283
-0.110843
-0.31106
0.0772728
-0.404367
0.27244
0.131927
0.148433
0.0842017
-0.163498
-0.210993
0.134688
-0.0413753
-0.231416
-0.019682
-0.268789
0.154152
0.196548
0.0954225
-0.028623
0.081052
-0.052429
-0.097099
0.0577258
0.288478
0.118867
-0.0322019
0.0770675
-0.356759
0.241809
-0.318851
-0.0593173
0.11341
0.0736574
0.125684
-0.199341
-0.235097
0.149271
0.0731207
-0.205714
0.132593
-0.146992
-0.0919375
0.238929
0.254006
-0.352829
0.0988222
-0.0443882
-0.28864
0.119201
0.169438
0.126073
-0.177413
0.0513403
0.0627407
-0.11517
0.0524292
0.0357085
0.316269
0.029545
0.0289516
-0.0584966
-0.081551
0.332321
-0.25077
-0.19948
0.0627746
0.136705
-0.0614101
0.0737121
-0.0480842
0.293393
0.242421
-0.323972
0.1238
-0.165289
0.153494
-0.0820183
0.230452
0.134126
0.0624201
-0.196547
0.0747817
-0.0227605
-0.0520212
-0.081735
0.223364
-0.127465
0.0673107
-0.120693
0.0533827
-0.283149
0.204512
0.0786369
-0.281625
0.0779692
0.203656
0.0919194
0.0921542
0.213837
-0.305991
-0.204082
0.328022
-0.12394
-0.202745
-0.0979681
0.300713
0.0831657
0.0357009
0.0322132
-0.234958
0.157141
-0.360709
-0.1208
0.292073
-0.195525
0.0890708
0.0433982
0.183517
-0.208199
0.300353
0.0833866
-0.267977
0.18459
0.392032
-0.206233
0.332452
-0.199599
0.351353
-0.101016
-0.250337
-0.0344907
0.042857
0.15791
0.0260495
-0.161032
0.260847
-0.0998156
-0.0531279
0.194036
0.27209
-0.150897
-0.121192
0.100168
0.158219
-0.137584
0.211585
-0.0740016
0.0328468
-0.320857
0.288011
0.317637
-0.0925911
0.108347
-0.350779
0.242432
0.327816
-0.164499
-0.163317
0.335372
0.00505965
-0.340432
-0.187353
-0.0267052
0.27517
-0.121314
0.0848564
0.036458
-0.0524487
0.119759
-0.283377
0.16213
0.121247
0.219734
-0.141784
-0.0779501
-0.0360477
-0.0267269
0.0627746
-0.0398233
-0.0780229
0.033377
-0.209768
-0.149986
0.166944
-0.278351
-0.341382
0.152241
0.189141
0.121158
0.23808
0.0282162
0.0591815
-0.0773013
0.295716
-0.124039
-0.0710157
0.195055
-0.107224
0.0935262
-0.319913
0.06897
0.0128525
-0.0818225
-0.138891
0.316529
-0.00710085
-0.0856753
-0.0497579
0.255108
0.0862932
0.0483949
-0.0541733
-0.223264
0.141607
0.186209
-0.398669
0.273091
0.125578
0.0721004
-0.052322
-0.0733621
0.207489
-0.076521
-0.137838
-0.191531
-0.227938
-0.132003
-0.232781
-0.128983
0.0102108
0.0645709
0.26736
-0.183974
-0.000912879
-0.0604972
0.104002
-0.132076
0.0280737
-0.0849987
-0.21762
-0.16185
0.115002
-0.0522615
-0.0760749
-0.0855421
-0.38014
0.175538
0.361041
-0.0975283
-0.263512
0.074017
0.24362
-0.0879095
0.0158839
0.296442
-0.0899759
0.0372459
-0.0435113
-0.166054
0.268746
-0.108861
-0.246281
0.316339
-0.20992
-0.106419
0.263944
0.0251684
-0.289113
-0.138772
0.333232
-0.0004655
-0.332767
0.318744
0.0088781
-0.327622
0.124067
0.0964661
-0.167937
0.313905
-0.150747
0.252818
-0.10207
-0.312398
0.0340463
0.322978
-0.130543
-0.102844
0.210201
-0.138766
-0.354022
0.293786
0.0602354
0.204912
-0.252456
-0.131861
0.0272912
0.00658293
0.139659
0.0800753
-0.152765
0.117384
0.173322
0.0761389
-0.166839
0.0906997
-0.0845702
0.0547967
0.0297735
-0.208591
0.0766903
-0.250723
-0.129417
0.34894
-0.0921178
0.231628
-0.152408
-0.0792199
-0.0278928
0.0190489
0.335362
-0.125304
-0.351997
0.118047
0.128696
-0.0818605
-0.0468353
0.339425
-0.0529815
-0.286443
-0.137861
0.311596
-0.173734
-0.0670291
-0.0641697
-0.166052
-0.0617897
-0.115221
-0.151039
0.115504
-0.22003
0.0734736
-0.183865
0.110391
0.257583
-0.379049
0.121466
0.272084
0.0773647
0.165115
0.121442
0.370026
-0.186423
-0.183604
0.214783
0.152834
0.217192
0.171581
0.100509
-0.0607924
-0.191496
0.252288
-0.109821
0.0699978
-0.194434
0.304817
-0.0295786
-0.193266
0.350407
-0.0324836
0.250684
-0.0908184
0.145547
-0.0547282
0.0893492
-0.272238
0.199882
-0.0635458
0.0274981
-0.0391067
-0.0664671
0.0845036
0.236218
-0.320721
-0.0411602
0.0874449
-0.0462847
0.00111893
0.126742
-0.178223
0.105119
0.0731037
0.302705
0.0764643
-0.35635
0.102585
0.1428
-0.0688574
-0.126359
0.187702
-0.248495
-0.0726042
0.0369545
0.0356497
-0.103619
-0.18849
0.292109
-0.0494363
-0.0564042
0.188724
0.117778
-0.24754
-0.116663
0.116642
0.0594961
-0.176138
-0.397752
0.102272
0.29548
-0.0311874
0.295132
0.147523
-0.197628
0.396405
-0.282193
-0.114212
0.0113111
0.169415
0.191853
-0.330744
0.417673
-0.20002
0.00953024
-0.221642
0.212111
-0.334902
0.0427707
0.292131
0.276257
0.120148
-0.0579698
0.0835727
-0.160996
-0.104681
0.265677
0.224952
-0.273036
-0.0448516
0.0122735
0.0325781
-0.128664
-0.159491
0.0642982
0.0951928
0.332266
-0.215741
-0.116525
0.234611
0.116742
0.0511151
-0.0787803
0.0276653
-0.104132
-0.129143
-0.0794475
0.22839
-0.145642
0.305321