/*--------------------------------*- C++ -*----------------------------------*\
| =========                 |                                                 |
| \\      /  F ield         | OpenFOAM: The Open Source CFD Toolbox           |
|  \\    /   O peration     | Version:  v2012                                 |
|   \\  /    A nd           | Website:  www.openfoam.com                      |
|    \\/     M anipulation  |                                                 |
\*---------------------------------------------------------------------------*/
FoamFile
{
    version     2.0;
    format      ascii;
    class       volVectorField;
    location    "400";
    object      U;
}
// * * * * * * * * * * * * * * * * * * * * * * * * * * * * * * * * * * * * * //

dimensions      [0 1 -1 0 0 0 0];


internalField   nonuniform List<vector> 
33474
(
(1.03149 0.000853541 -2.84512e-21)
(1.01774 -0.0149904 -9.60778e-23)
(1.03242 -0.0326066 0)
(1.01723 -0.0011454 -8.94113e-22)
(1.04017 -0.0211886 -2.52174e-21)
(1.02216 -0.00617678 -1.9459e-21)
(1.01172 -0.000814323 -5.20563e-22)
(1.02058 0.000148938 1.76726e-21)
(1.00975 -0.000106271 0)
(0.950676 -0.0640461 1.15244e-21)
(1.01952 -0.00613876 5.10891e-22)
(1.02417 -0.00688695 1.21018e-21)
(1.01163 -0.000773946 1.29179e-22)
(1.04132 -0.0193523 -2.09779e-21)
(1.03895 0.00137566 -4.80169e-21)
(1.01361 -0.00166517 -1.66656e-22)
(1.00783 -4.56386e-05 0)
(1.05194 -0.0523421 0)
(1.03421 -0.00750556 0)
(1.01802 -0.00398827 0)
(1.06394 -0.0370136 -4.03367e-21)
(1.01317 -0.0219326 0)
(1.01709 -0.000297422 0)
(1.03116 0.00100933 0)
(1.01706 -0.000355521 -2.2966e-21)
(1.02436 -0.00705047 -1.24905e-21)
(1.01611 -0.00246832 0)
(1.0533 -0.0282947 -4.9295e-21)
(1.01458 -0.0197748 -3.34861e-22)
(1.01063 -0.000442164 0)
(1.01333 -7.4525e-05 0)
(1.01832 -0.00223374 0)
(1.01695 -0.0293158 5.93883e-24)
(1.05092 -0.0517751 2.84436e-21)
(1.01392 -0.0018857 2.26887e-22)
(1.01875 -0.00522502 0)
(0.731122 -0.0360983 0)
(1.01385 -0.0021342 8.96091e-24)
(1.0238 -0.00676513 -1.19941e-21)
(1.04449 -0.0154771 -6.13641e-21)
(1.02018 -0.00626174 -5.58309e-22)
(1.01058 -0.000421511 -4.13618e-23)
(1.01384 -0.00191338 0)
(1.00291 9.46e-06 2.72053e-23)
(0.848889 -0.0773214 1.56133e-22)
(1.02393 -0.0429129 -1.04462e-21)
(0.947756 -0.00992338 -1.09775e-22)
(1.05822 -0.011833 0)
(1.02845 -0.0470789 0)
(1.01397 -0.00193227 1.05676e-22)
(1.03265 -0.00922889 -3.58807e-21)
(1.01846 -0.00296871 2.33312e-22)
(1.01801 -0.0207588 -2.10826e-23)
(1.01172 -0.000853629 -4.34278e-22)
(1.01976 -0.00297999 -3.80277e-22)
(1.05263 -0.0282036 0)
(1.01993 -0.00305286 0)
(1.04534 -0.0366065 0)
(1.04415 -0.0151939 7.44095e-21)
(1.03403 -0.00720986 0)
(1.02047 -0.00305237 -1.19818e-22)
(0.956818 0.00572371 0)
(0.75779 -0.0387006 0)
(1.0135 -0.00205219 -5.91902e-24)
(1.0148 -0.0025643 0)
(1.02526 -0.00278226 -3.97392e-22)
(1.01106 5.2476e-05 -9.10227e-23)
(0.685246 -0.0432893 0)
(1.01852 -0.00300614 -2.34468e-22)
(1.03825 -0.0148276 -3.6556e-21)
(0.927704 0.0122541 -2.50236e-23)
(0.955618 0.00229523 0)
(1.0135 -0.00231527 0)
(1.01478 -0.00251453 -7.43716e-23)
(1.00687 -0.0308105 0)
(1.01857 0.0046582 1.03446e-23)
(1.00606 -0.0232283 -5.06935e-22)
(1.02639 -0.00232842 0)
(1.04129 -0.0197832 2.05108e-21)
(1.02958 -0.0231745 1.12536e-21)
(0.775594 -0.0347301 -1.65562e-21)
(1.02433 -0.00666464 0)
(0.994724 -0.0275423 0)
(1.01403 -0.00194911 1.02296e-22)
(1.05842 -0.0124612 -5.10281e-21)
(1.01404 -0.0019043 1.14244e-22)
(1.06274 -0.0378927 2.97497e-21)
(0.573697 -0.0717991 -6.25928e-22)
(1.09372 -0.0591518 1.09119e-21)
(1.01103 0.000135968 -5.83919e-24)
(1.01847 -0.00230527 1.0475e-21)
(1.01432 -0.0021175 0)
(1.01753 -0.0203113 1.88038e-23)
(1.01936 -0.00511759 -5.82044e-22)
(1.01176 -0.000856999 3.3881e-24)
(1.05787 -0.0128555 1.03079e-20)
(1.05487 -0.01826 -8.70158e-21)
(1.03865 -0.0148244 1.90934e-22)
(1.01834 -0.00304671 1.21383e-22)
(1.01475 0.00410517 1.13248e-24)
(1.06244 -0.0386215 -4.42594e-21)
(1.00049 -0.0285554 -5.1064e-22)
(1.02378 0.000474217 1.31623e-21)
(1.00038 0.00269494 -2.85331e-22)
(1.01479 0.000237852 -5.19726e-25)
(1.0111 8.50645e-05 0)
(1.02613 -0.00227402 1.02672e-21)
(1.01759 -6.81844e-05 -9.73157e-22)
(1.01839 -0.00309201 0)
(1.01046 -0.000339342 0)
(1.03076 0.000870245 -2.41352e-21)
(1.01109 5.92518e-05 7.40918e-23)
(1.01732 -0.0303375 -4.37378e-23)
(1.02012 -0.00541376 3.09732e-22)
(1.06841 -0.0327783 -3.6294e-21)
(1.06961 -0.0211957 -8.1122e-21)
(1.0203 -0.00302613 0)
(1.03144 -0.0337121 1.20757e-21)
(1.02044 -0.013015 -1.8733e-22)
(1.0116 -0.000733993 0)
(1.02566 -0.0193376 0)
(1.01916 -0.0309333 2.40479e-22)
(1.01968 -0.00302992 3.78093e-22)
(1.01416 -0.00196651 1.14175e-22)
(1.05895 -0.0114389 0)
(1.01815 -0.00409577 0)
(1.01155 -0.000146884 5.00988e-22)
(1.04464 -0.0362595 0)
(1.03165 -0.0331552 1.16752e-21)
(1.04953 -0.0158222 0)
(1.01584 -0.00209685 -1.7809e-22)
(1.03812 -0.0151603 3.82249e-21)
(1.01869 -0.0314988 0)
(0.761289 -0.0360975 2.47031e-21)
(1.03889 0.00100064 4.84887e-21)
(1.01314 -0.00228485 6.27113e-24)
(1.00362 -0.00966878 -4.18647e-23)
(0.81014 -0.0277157 9.38233e-23)
(1.02641 -0.034205 -1.92496e-22)
(1.03228 -0.0331064 -1.46313e-21)
(1.02508 -0.0020923 2.35839e-21)
(1.01317 0.00146088 0)
(1.01046 -0.000126398 -9.60387e-25)
(1.02 -0.00536807 -1.01417e-21)
(1.0207 -0.000953897 0)
(1.02481 0.00151629 -1.40055e-21)
(0.920974 -0.00188355 -4.6588e-22)
(0.979433 0.00931954 3.82551e-24)
(1.01005 -0.00160422 0)
(1.00933 -0.0020358 6.1988e-24)
(1.01158 -0.00191557 0)
(1.01961 -0.00617602 4.06667e-23)
(1.02045 -0.0127098 0)
(1.0212 -0.0068514 1.14193e-22)
(1.06943 -0.0206663 0)
(1.02195 -0.00679367 -8.7913e-22)
(1.05206 -0.00370765 -3.35519e-21)
(1.0195 -0.00295288 1.69128e-21)
(1.02982 0.00111122 -3.61332e-23)
(1.01092 -0.00237115 -5.94092e-23)
(1.03932 -0.0420057 1.07377e-22)
(1.01299 0.00126847 3.18602e-23)
(1.01775 -0.028439 3.13144e-23)
(1.02277 0.014159 -7.76326e-22)
(1.05702 -0.00959942 -5.26895e-21)
(1.00077 -0.0104638 0)
(1.01504 -0.00212284 -2.20858e-22)
(1.02499 -0.04754 -8.02125e-22)
(1.03272 -0.00946996 -4.10764e-21)
(1.05889 -0.010979 -1.79814e-21)
(1.07264 -0.0517771 8.18698e-21)
(1.01203 -0.00117511 2.3689e-22)
(1.10038 -0.0578779 -9.64034e-21)
(1.01045 -0.000321129 0)
(1.0255 -0.00192196 -2.84443e-21)
(0.954583 -0.0764908 3.47554e-21)
(1.02331 0.00082266 -2.41964e-21)
(1.01834 -0.0159078 1.04187e-22)
(0.976994 -0.0310968 0)
(1.01571 -0.00213273 1.73425e-22)
(1.01573 -0.00216312 -1.09204e-22)
(1.03049 0.00107497 2.42682e-21)
(1.01402 -0.00195615 0)
(1.01741 -0.000570566 -5.73e-23)
(1.02055 -0.000939767 -9.60652e-22)
(0.585092 -0.0717166 5.72622e-22)
(0.879113 -0.0121111 0)
(1.02003 -0.00300443 0)
(1.0181 -7.71369e-05 2.98682e-21)
(1.01964 -0.00521895 0)
(1.02169 -0.000174844 -1.02841e-21)
(1.0301 0.000936803 3.14602e-21)
(1.00837 -0.0010026 1.50452e-23)
(1.00396 0.00781945 -3.84482e-23)
(0.930909 -0.0307878 0)
(1.01644 -0.000342486 -4.12679e-22)
(1.02622 0.014772 5.45192e-22)
(1.0355 -0.0326983 0)
(1.0078 -0.00121729 -1.09857e-22)
(1.01447 -0.00211156 -4.11915e-24)
(1.01907 -0.00540653 0)
(1.01716 -0.00136398 0)
(1.01458 -0.00849105 -3.20814e-24)
(1.01342 -0.019701 -2.34209e-23)
(1.06628 -0.0373211 0)
(1.01604 -0.0024138 0)
(1.01503 -0.00210837 0)
(1.06375 -0.0378083 1.26329e-21)
(1.02013 -0.00526603 0)
(0.599089 -0.0715765 0)
(1.01354 -0.00820562 -1.11909e-23)
(1.01412 -0.000415825 0)
(1.02542 -0.0196681 8.12487e-22)
(1.07008 -0.0193792 -1.21573e-20)
(1.01406 -0.000423671 0)
(1.0717 -0.0518917 -7.29419e-21)
(1.0192 -0.00512111 1.00565e-21)
(0.960415 -0.0309316 4.83361e-22)
(0.758618 -0.0332362 0)
(1.02012 -0.00622953 1.56093e-21)
(1.02017 -0.00533627 -6.56981e-22)
(1.01899 -0.00535859 -4.4622e-22)
(1.01966 -0.00579875 -1.14879e-23)
(1.06632 -0.036548 0)
(1.00987 -9.17968e-05 1.51589e-25)
(1.05169 -0.0128664 0)
(0.982642 0.00849142 2.0113e-24)
(1.02988 -0.0232789 2.04208e-22)
(1.01812 -0.00319878 0)
(1.05122 -0.0130821 0)
(0.782075 -0.0335232 -2.09394e-22)
(1.01406 -0.00193399 -4.844e-22)
(1.01177 -0.000894356 6.44909e-22)
(1.01179 -0.00109077 3.4424e-22)
(1.01459 -0.00190864 -1.56473e-22)
(0.958764 0.00582759 0)
(1.05753 -0.00975887 5.1863e-21)
(1.01519 -0.000206071 0)
(1.01076 -0.000206988 -8.63119e-22)
(1.0427 -0.0104966 0)
(1.02209 -0.00655431 1.02379e-21)
(1.0601 -0.0400449 0)
(1.01863 0.00711855 5.95635e-24)
(1.02503 -0.0195361 0)
(1.07091 -0.0329977 0)
(1.01362 -0.00166797 2.45269e-24)
(1.01864 -0.00510875 0)
(1.01925 -0.0040755 7.62538e-23)
(1.01947 -0.0174202 2.91854e-22)
(1.01978 -0.017848 -3.24213e-22)
(1.0571 -0.0148581 -1.08082e-20)
(1.02572 -0.00205684 0)
(1.07039 -0.0304901 5.02106e-21)
(1.01518 -0.00219836 3.79851e-22)
(1.02506 0.00143664 1.56578e-21)
(1.01795 -0.00316368 0)
(0.828977 -0.0277206 -1.84596e-21)
(1.01821 -0.00311081 0)
(1.05934 -0.0398758 0)
(0.924687 -0.064 -1.25897e-21)
(0.92806 0.00964932 0)
(1.01908 0.00659873 0)
(1.0186 -9.11623e-05 9.98352e-22)
(0.955796 -0.0270723 7.32008e-22)
(1.01326 -0.000173622 8.30283e-22)
(1.0146 -0.00190057 0)
(0.956637 -0.0313035 -2.38048e-22)
(0.928415 0.0153269 0)
(0.923089 0.015707 0)
(1.01958 -0.00576446 -5.36165e-22)
(1.02664 -0.021926 -8.79672e-22)
(1.02535 -0.0125146 0)
(1.04967 -0.0163682 0)
(1.01682 -0.000379989 1.02126e-21)
(1.01445 -0.00186601 8.66377e-23)
(1.0202 -0.00518368 -1.42471e-21)
(1.02645 -0.0120754 1.73661e-21)
(1.01754 -0.0029763 -1.33985e-22)
(1.02987 0.0014033 0)
(1.01823 -0.000335671 -2.5021e-21)
(1.04278 -0.00975783 4.53036e-21)
(1.00901 -7.49308e-05 0)
(1.0424 -0.010698 4.00019e-21)
(1.0194 -0.00298962 9.99025e-22)
(1.01439 -0.00215773 0)
(1.01767 -0.00412718 -8.92363e-23)
(1.01822 -0.00315958 -1.03659e-22)
(1.0097 -2.94819e-05 1.62415e-23)
(1.07181 -0.0304324 1.60925e-20)
(0.898403 0.0217028 6.92522e-24)
(1.01332 -0.0274469 -7.4437e-23)
(1.00852 -7.96814e-05 -1.35479e-22)
(0.982273 0.00921579 0)
(1.02671 -0.0217494 0)
(1.01956 0.000961885 3.63726e-22)
(1.00057 -0.0155215 0)
(0.953961 -0.0776937 4.93039e-21)
(1.06819 -0.0221605 -4.13191e-21)
(1.01851 -0.00292274 -6.02182e-24)
(1.04246 -0.0099358 0)
(1.02621 -0.0119794 -1.64243e-21)
(1.02228 -0.000514455 0)
(1.02344 -0.0269234 -8.92273e-23)
(1.01757 -0.00296715 0)
(1.01378 -0.000118834 3.41956e-25)
(1.01446 -0.00210608 2.67337e-22)
(1.01359 -9.13152e-05 4.21813e-26)
(1.06903 -0.0220392 1.19761e-20)
(1.03516 -0.0323969 -2.13729e-21)
(0.791095 -0.0778528 -3.06646e-21)
(1.02511 -0.0124371 0)
(1.01843 -0.00294541 -1.30659e-21)
(1.01096 0.000129477 6.00217e-24)
(1.0203 -0.0443105 6.71158e-22)
(1.00777 0.00808757 -1.71341e-22)
(0.883796 -0.0139591 -2.31373e-22)
(0.817554 -0.0787116 2.54427e-21)
(1.07107 -0.0301292 -6.10334e-21)
(1.02156 -7.95618e-05 1.949e-21)
(1.00627 -0.0502451 -9.31201e-22)
(1.01563 0.00117272 0)
(1.01413 -0.00196136 -4.29929e-22)
(0.60506 -0.0637226 -1.76748e-22)
(1.01583 -0.00212498 0)
(1.03291 -0.00875533 -3.89706e-21)
(1.02449 0.00178425 -7.90936e-22)
(0.98443 -0.027591 0)
(1.01688 -0.00170982 0)
(1.02058 0.00025669 0)
(1.01466 -0.00222653 1.64876e-23)
(1.01874 -0.000456305 1.785e-24)
(1.01755 -0.0170267 1.51956e-22)
(1.05558 -0.0181115 -8.25499e-23)
(1.00017 -0.0140434 3.65467e-22)
(1.01465 -0.00217967 0)
(1.02005 -0.00548127 1.04486e-21)
(1.00692 -0.0274696 6.32787e-22)
(1.01332 1.97657e-05 -1.82766e-24)
(1.01313 2.96376e-05 2.4241e-24)
(1.01372 -0.00103872 0)
(1.01877 -0.00218582 -1.06167e-21)
(1.0368 -0.0336845 5.44588e-21)
(1.00448 -0.00168634 2.10704e-22)
(0.946758 -0.0125466 -1.09541e-22)
(1.08751 -0.0466239 9.83834e-21)
(1.01017 -0.000423827 2.02543e-22)
(1.01763 -0.00312894 -3.43378e-22)
(1.01917 -0.0164054 -6.15026e-22)
(1.01683 -0.0207466 -1.24493e-22)
(1.05722 -0.015505 9.52809e-21)
(1.0193 -0.00577194 -1.6336e-22)
(1.01013 -0.000402621 1.82173e-25)
(1.07026 -0.0200111 0)
(1.06821 -0.0232334 -8.77277e-21)
(1.0223 -0.00633199 3.18816e-21)
(1.00963 -3.12749e-05 2.31819e-24)
(1.01968 -0.00576933 0)
(1.01517 -0.00217445 -3.30349e-22)
(1.01143 9.40681e-05 -1.81123e-23)
(0.945768 -0.0155735 -2.08211e-22)
(1.0206 -0.00313015 -9.96607e-22)
(0.957408 -0.0148876 0)
(1.02536 0.00111392 0)
(1.03072 -0.0131604 1.68186e-21)
(1.01955 -0.00519056 0)
(1.01895 -0.0176415 0)
(1.01178 -0.00108793 0)
(1.0208 -0.0122991 0)
(1.01624 -0.00311501 -1.24474e-22)
(1.00491 -0.000947606 -2.18028e-22)
(1.01285 0.000105484 0)
(1.01269 0.000104651 -3.30272e-24)
(1.01364 -0.00113935 -7.57622e-23)
(1.02838 -0.0271186 0)
(1.02132 -0.000137514 0)
(1.0676 -0.0233721 1.29576e-20)
(1.01963 -0.00541721 -1.51616e-22)
(1.026 -0.0121002 -2.03055e-22)
(1.02024 -0.00527373 0)
(0.863837 -0.0772055 0)
(1.00862 -4.32701e-05 -1.99794e-23)
(1.00101 0.00847365 4.33221e-23)
(1.01359 -0.00113188 6.8888e-23)
(1.01867 -0.00211671 3.84761e-22)
(1.05233 -0.0289887 2.2952e-21)
(1.00852 -5.43943e-05 -3.63372e-23)
(1.03512 -0.0142185 4.91288e-23)
(1.01997 -0.00545515 -3.52605e-22)
(1.01895 -0.0150047 1.24838e-22)
(1.03408 -0.00668147 0)
(1.01672 -0.00344555 0)
(1.00261 -0.0106736 0)
(1.01568 -0.00149097 4.62045e-25)
(1.01628 -0.00172339 9.02712e-24)
(1.03048 -0.0128804 -2.78326e-24)
(1.03014 -0.0253076 1.66093e-21)
(1.02003 0.000643021 0)
(1.01405 -0.00192464 -1.57497e-22)
(1.012 -0.00117024 2.44627e-22)
(1.02002 -0.00282594 -1.81629e-21)
(1.0243 -0.0054276 0)
(1.01856 -0.0172427 0)
(1.01434 -0.00205163 -6.13235e-22)
(1.01733 -0.0011965 -1.01936e-21)
(1.04994 -0.0526946 3.07084e-21)
(1.01039 -0.000123689 1.01843e-24)
(1.03525 -0.0331788 0)
(1.03457 -0.0623257 0)
(0.705322 -0.0276409 0)
(1.02217 -0.00070988 0)
(1.02481 -0.0103369 0)
(1.01439 -0.000335462 0)
(1.01927 -0.000521473 0)
(1.01639 -0.00322034 -2.56042e-22)
(1.0212 -6.26353e-05 6.89352e-22)
(1.01227 -0.00126516 -3.56105e-22)
(0.501939 -0.0303461 6.33135e-21)
(1.01589 -0.0022366 -1.8031e-23)
(1.00952 -3.30452e-05 4.98893e-24)
(1.05805 -0.0134667 -4.23093e-21)
(1.01234 -0.00128537 5.73576e-22)
(1.02598 -0.0122303 1.97438e-21)
(1.01778 -0.00420785 -7.43458e-22)
(1.01548 -0.00204928 0)
(1.01926 -0.000595683 0)
(1.03297 -0.00906567 1.90995e-21)
(0.99567 -0.00526251 0)
(1.02656 -0.0200225 -9.24163e-22)
(1.01702 -0.00104377 -4.96503e-22)
(1.01635 -0.00318686 5.10957e-22)
(1.01185 -0.000765453 0)
(0.849839 -0.0251232 1.87315e-23)
(1.01774 -0.00418203 -6.89311e-24)
(0.996151 -0.00361105 0)
(1.03613 -0.0126582 0)
(1.02006 -0.00628643 1.18365e-22)
(1.02002 0.000745241 2.81547e-21)
(1.01631 -0.0202113 1.73042e-22)
(1.01732 -0.0275657 -1.10951e-22)
(1.01133 6.58159e-05 0)
(1.01522 -0.00201909 -2.82716e-22)
(1.01078 -0.0102934 -1.14564e-23)
(1.01181 -0.000719297 -2.52189e-22)
(1.02191 0.000271477 1.36492e-24)
(1.01126 5.24097e-05 -6.67074e-24)
(1.03428 -0.00694216 0)
(1.00971 -1.92593e-05 3.88733e-23)
(1.02399 -0.0069099 1.2804e-21)
(1.01838 -0.00420139 2.46397e-22)
(0.992643 -0.00199502 0)
(0.707123 -0.0295688 0)
(1.01948 -0.00734102 -2.35606e-22)
(1.00867 -5.0393e-05 0)
(1.01691 -0.000991189 0)
(1.02846 -0.0296568 2.73352e-22)
(0.993131 -0.000221128 -1.1871e-22)
(0.980953 -0.00922486 4.84561e-22)
(0.984604 -0.0109424 0)
(1.02526 -0.00939595 -1.30127e-21)
(1.01241 0.000150258 7.29761e-24)
(1.02514 -0.0181779 1.72368e-21)
(1.03498 -0.014041 -2.3899e-21)
(1.02377 -0.0053587 1.26489e-21)
(1.01582 -0.00261076 -1.76554e-22)
(0.959651 0.000219441 1.54532e-22)
(1.01653 -0.00256846 -7.83308e-22)
(1.01226 0.000144711 0)
(1.02729 -0.00862676 -5.86087e-22)
(1.02496 -0.00559713 -1.41592e-22)
(1.01948 -0.00522252 5.88946e-22)
(0.588581 -0.063303 1.9809e-22)
(1.01083 -0.000579472 -9.20927e-23)
(1.03143 -0.0048791 0)
(1.01866 -0.00201442 -1.7447e-24)
(1.00924 -6.00398e-06 0)
(1.02535 -0.00156252 -1.29005e-21)
(1.0138 -0.00174922 0)
(1.01418 -0.00201987 -1.68944e-22)
(0.792276 0.0139878 0)
(1.01933 -0.00756937 1.3016e-22)
(1.02782 -0.0264049 6.69458e-22)
(0.906371 0.0128713 3.33716e-23)
(0.90589 0.0154089 0)
(1.01977 -0.00607017 7.14754e-22)
(1.0203 -0.00638328 0)
(1.01077 -0.000145643 -5.36788e-22)
(0.697345 -0.0534155 2.03903e-20)
(1.03578 -0.0126684 -2.44201e-21)
(1.01372 -0.0016102 0)
(1.01468 0.000138651 5.08431e-25)
(0.900126 0.0185974 9.97246e-23)
(0.900469 0.0163296 2.23134e-23)
(1.04334 -0.0168309 -5.2106e-21)
(0.666882 -0.0661599 8.29592e-22)
(1.01377 -0.00121506 0)
(1.01876 -0.0020032 0)
(1.01343 -0.00069366 -1.05941e-24)
(1.01234 -0.00113954 1.09278e-22)
(1.01923 -0.00581601 0)
(1.01231 -0.00110928 0)
(1.03258 -0.00996218 2.80427e-21)
(1.05853 -0.0331399 -1.03777e-20)
(1.0285 -0.0213094 1.45995e-23)
(1.02366 -0.0309412 -9.84438e-23)
(1.0165 -0.00329661 0)
(1.02096 -0.0070123 6.88591e-22)
(1.02476 -0.00972812 1.02818e-21)
(0.471425 -0.0821742 3.48175e-21)
(1.01636 -0.0244876 1.97991e-22)
(1.05166 -0.0288994 -4.40711e-21)
(1.04297 -0.00860559 -4.91157e-21)
(1.0158 -0.00256615 9.67287e-22)
(1.04048 -0.0208765 3.948e-21)
(1.03741 -0.0409862 2.63748e-21)
(1.01343 -0.000478223 0)
(1.02223 -0.00586879 -5.99374e-22)
(1.0171 -0.000902052 0)
(1.02664 -0.0192913 -1.45545e-23)
(1.02378 -0.00494374 -6.78376e-22)
(0.686709 -0.08021 0)
(1.05884 -0.032521 7.15108e-21)
(1.0211 -0.0059828 0)
(1.0149 -0.00194194 -1.61797e-22)
(1.01669 -0.000505081 0)
(1.01964 -0.00675238 -2.38176e-22)
(1.01969 -0.00598702 -7.71179e-22)
(1.01486 -0.00199637 -4.46334e-22)
(1.01472 0.00466262 -1.00187e-22)
(0.487301 -0.0818369 -5.60655e-21)
(1.0394 -0.0112103 0)
(1.03957 -0.0115527 7.23946e-21)
(0.995931 -0.0112581 5.63287e-24)
(1.04267 -0.00905215 -1.0203e-21)
(1.03086 -0.0122621 2.2505e-24)
(1.00911 -0.00832643 1.10118e-23)
(1.02641 -0.0346403 3.37846e-22)
(1.02898 -0.0239851 -1.32069e-21)
(1.00684 -6.759e-05 -6.90232e-24)
(1.0197 -0.00648601 1.3525e-22)
(1.01707 -0.00366872 0)
(1.01145 0.000103293 3.45175e-23)
(1.01436 -0.0261472 3.94821e-22)
(1.01923 -0.00607916 -3.59354e-22)
(1.02207 -0.00695446 9.68609e-22)
(1.0102 4.19249e-05 -4.10119e-23)
(1.01701 -0.00363553 0)
(1.02088 -0.00624263 1.58669e-22)
(0.770246 -0.0791849 0)
(1.02705 -0.00853126 -9.42366e-22)
(1.0135 -5.2572e-05 -2.03579e-24)
(0.886478 0.0255744 1.38774e-22)
(1.01704 -0.000901146 9.29873e-24)
(1.01138 -0.000157342 -2.92489e-25)
(1.01312 0.000292429 -4.85846e-23)
(0.867557 -0.081029 -1.89023e-21)
(0.946723 -0.0277444 -6.95565e-22)
(1.01302 0.000260593 6.75238e-23)
(1.02585 -0.00427959 -1.01473e-22)
(1.02355 0.000542523 0)
(1.02554 -0.00324037 -1.05788e-21)
(1.00942 -0.00663306 4.54698e-23)
(1.0429 -0.00931809 -8.5571e-21)
(1.01914 -0.00576158 -3.02535e-22)
(0.99258 -0.0122152 -5.57267e-24)
(1.04275 -0.00833499 -7.05065e-21)
(1.02497 -0.0178831 -1.83066e-21)
(1.02602 -0.019455 8.89797e-22)
(1.02992 -0.0306512 -2.35937e-23)
(1.01031 -0.000246257 0)
(1.01455 -0.00206973 0)
(1.02821 -0.0211826 1.12115e-21)
(1.01446 -0.00357996 0)
(1.01649 -0.00258368 2.26487e-22)
(1.07296 -0.0505981 0)
(1.03967 -0.021183 4.67943e-22)
(1.02038 0.000338204 7.71586e-22)
(1.02193 -0.00642557 -9.94192e-22)
(1.01702 -0.00181871 -9.30729e-22)
(1.04521 -0.0185124 -2.95917e-21)
(0.998031 0.00167334 6.6614e-22)
(1.01559 -0.00481811 1.4096e-23)
(1.01388 -0.00137419 0)
(1.01932 -0.00384279 -3.31346e-22)
(1.02431 -0.00647281 1.17958e-21)
(0.953687 0.00332519 7.07915e-22)
(1.01273 -0.0710726 1.61934e-20)
(1.03113 -0.0119222 2.26259e-21)
(1.01179 -0.000934979 2.59096e-22)
(1.01471 -0.000333635 5.09945e-22)
(1.02548 -0.00941667 -3.40988e-21)
(1.074 -0.0505764 0)
(0.952559 0.0122838 0)
(1.02807 -0.0269325 0)
(1.01216 -0.00121616 4.93405e-23)
(1.01516 -0.00031751 9.22437e-22)
(1.03189 -0.00858248 0)
(0.952567 0.0129027 0)
(1.03618 -0.0334329 -2.09065e-21)
(1.01454 -0.0020249 0)
(1.02535 -0.00312045 -7.91766e-22)
(1.01945 -0.00108515 1.43781e-22)
(1.0211 -0.00742109 -2.25084e-22)
(1.02105 -0.00613971 -1.79905e-22)
(1.01773 -0.00301434 1.62734e-22)
(0.971329 -0.0113438 0)
(0.90461 -0.0613071 -1.10738e-21)
(1.01911 -0.00396374 0)
(1.01077 -0.00014728 0)
(1.01975 -0.00329571 -7.66766e-22)
(1.00752 -0.00616768 0)
(1.03134 -0.00391039 0)
(1.01195 -0.00105847 -3.32415e-22)
(1.01151 0.00473284 3.61186e-22)
(1.01286 -0.00660018 -5.6223e-23)
(0.7837 -0.0247346 0)
(1.01187 -0.00675781 0)
(1.0183 -0.000389403 8.16763e-22)
(1.02139 -0.00634318 0)
(1.01354 -0.00165536 2.74524e-22)
(1.01444 -0.00221118 4.89552e-23)
(1.01122 9.07643e-05 4.69378e-23)
(1.01827 -0.00286246 2.51536e-21)
(1.01443 -0.00191192 -8.01437e-23)
(1.00768 -0.00699348 0)
(1.02079 -0.0125982 0)
(1.01781 -0.00316954 4.34164e-22)
(1.02481 -0.00208313 -3.08724e-21)
(1.01433 0.00370098 -1.50728e-24)
(0.77697 -0.029678 0)
(1.01944 -0.00384832 -1.16273e-21)
(1.01964 -0.00120871 -1.44632e-22)
(1.03149 -0.0037135 0)
(1.03851 -0.0185518 4.07252e-21)
(0.52917 -0.0806618 -5.03193e-21)
(1.02962 -0.0717642 -6.97729e-21)
(1.02862 -0.0263425 -2.69727e-22)
(0.987965 -0.0118004 8.97727e-23)
(1.01776 -0.00411704 -4.01245e-22)
(1.01366 -0.00141263 0)
(0.814692 -0.0305991 -8.23411e-22)
(1.01156 -0.000251146 0)
(1.02997 -0.0255557 0)
(1.01156 -0.000276937 0)
(1.01042 -0.000340875 4.47511e-23)
(1.01821 -0.00288699 -1.30428e-21)
(1.01441 -0.00186508 9.47015e-23)
(1.01321 0.000318088 1.59283e-23)
(1.01772 -0.00404473 -3.85277e-22)
(1.01323 -0.0154438 2.86698e-23)
(1.03856 -0.0181975 0)
(0.712275 -0.0563022 -1.32062e-20)
(0.940208 0.00242263 0)
(0.78828 -0.0224593 2.86791e-22)
(1.0131 0.00010546 0)
(1.01699 -0.00192702 0)
(1.01262 -0.00138893 0)
(1.01484 -0.0020207 3.353e-22)
(1.01782 -0.00321714 -4.40247e-22)
(1.01815 -0.0365276 2.39391e-23)
(1.02356 0.000735921 0)
(0.862295 -0.07608 2.06205e-21)
(0.989401 -0.0308647 0)
(1.01704 -0.00201151 -1.54102e-21)
(1.01371 -0.00141771 0)
(1.01466 -0.00232627 -1.02886e-22)
(1.01565 -0.00669981 -3.21869e-23)
(1.015 -0.00693045 -3.88868e-23)
(1.02478 0.00174117 1.69725e-21)
(1.00493 -2.39681e-06 3.28797e-24)
(0.928864 -0.0362013 -3.91759e-23)
(1.01873 0.00412031 0)
(1.01126 -0.000155023 -1.06601e-24)
(1.03879 -0.0221138 -2.05384e-21)
(1.02396 -0.0100654 1.29626e-21)
(1.01358 0.000313947 2.68935e-24)
(1.01345 0.000272202 -2.19205e-23)
(0.938744 -0.0281594 -2.75763e-22)
(1.01677 -0.00214442 4.87751e-24)
(1.03144 -0.0119038 9.29166e-22)
(1.02462 -0.00288046 4.31056e-21)
(0.551063 -0.0707724 0)
(0.898249 -0.035474 -9.78367e-23)
(1.00147 -0.00533412 0)
(1.00319 -0.0240065 0)
(1.01298 -0.00028833 3.40007e-22)
(1.02849 -0.0264267 -2.35553e-22)
(1.01261 -0.00138541 2.45985e-22)
(1.01112 -0.000668525 9.88488e-25)
(1.01248 0.000688687 0)
(1.02956 0.00156703 6.39319e-22)
(1.006 -0.0234971 0)
(1.01114 -0.00066457 2.39459e-22)
(1.02453 -0.00161776 2.37438e-21)
(1.01973 0.000979025 -5.07098e-22)
(1.01671 -0.00106488 -2.58411e-24)
(0.74558 -0.077561 0)
(1.02499 -0.00275885 0)
(0.891901 0.00748702 0)
(1.02683 -0.0374448 -8.33611e-22)
(1.01682 -0.00112482 1.20644e-21)
(1.01246 -9.9833e-05 -4.15493e-22)
(1.00815 0.00640229 2.56931e-22)
(1.01828 -0.00083003 0)
(1.00965 -3.86407e-05 3.27238e-24)
(1.0118 -0.000162567 0)
(1.01535 0.00093234 0)
(1.02142 0.00186947 -1.01336e-24)
(1.0155 -0.0205917 -1.78549e-22)
(1.00983 0.00644702 -5.38951e-23)
(1.01755 -0.00402877 -3.5982e-22)
(0.980004 -0.00353578 0)
(1.01827 0.00579609 0)
(0.719356 -0.0403351 0)
(1.02942 -0.0135342 3.73637e-21)
(1.01854 -0.00578293 0)
(1.01382 -0.00166835 0)
(1.00726 0.00436561 2.27451e-22)
(1.01426 0.000218038 -1.72201e-23)
(1.02185 -0.00831217 8.84185e-22)
(1.01382 -0.00176057 -3.43623e-22)
(0.674769 -0.0411313 -7.2775e-22)
(0.968295 -0.00425375 0)
(1.01511 -0.00197394 -7.99352e-23)
(1.02057 -0.00748665 -7.09909e-22)
(1.01816 0.00475048 0)
(1.01123 -0.00069808 3.26951e-22)
(1.01367 -0.0013624 5.50004e-22)
(1.01372 -0.00136748 5.95384e-22)
(1.01719 -0.00106506 9.14921e-22)
(1.0489 -0.0520663 -3.09487e-21)
(1.0189 -0.00534172 0)
(1.0116 -0.000688626 0)
(1.01782 -0.00388589 -7.28917e-23)
(1.01768 -0.00321971 0)
(1.02339 -0.0101765 1.16453e-21)
(1.0189 -0.00582572 1.99928e-22)
(1.01776 -0.0367508 -1.69174e-23)
(1.01121 -0.000704157 -4.54348e-22)
(1.01486 -0.00192627 0)
(0.688201 -0.0525867 1.97006e-21)
(1.01755 -0.00311218 3.52657e-22)
(1.01729 -0.0168915 7.7017e-24)
(1.02181 -0.00839403 9.48138e-22)
(1.01052 -0.0152386 5.45094e-23)
(0.975971 -0.00842635 0)
(1.02089 -0.00706507 2.0697e-22)
(1.01211 -0.00119298 0)
(1.02414 -0.00668533 0)
(1.00996 -2.62243e-05 -6.54852e-23)
(0.814209 -0.062264 1.01894e-20)
(1.01398 -0.00703222 -2.12028e-23)
(1.01386 -0.00672743 -2.73634e-23)
(1.02739 -0.0526339 1.30042e-21)
(1.01005 -0.000391347 1.28857e-22)
(1.01437 -0.0018872 0)
(1.02453 -0.0345713 1.08272e-22)
(1.01929 -0.00536677 0)
(1.02088 0.00194698 5.06424e-23)
(1.02175 0.00146089 1.25334e-24)
(1.01369 -0.00164745 -9.59475e-23)
(0.768039 0.0166629 -1.34854e-22)
(1.03159 -0.00468484 0)
(1.02885 -0.023624 -6.52869e-22)
(1.01254 -0.00107584 0)
(1.01439 -0.00208198 8.48228e-22)
(1.02205 -0.00575977 0)
(0.666386 -0.0798095 -5.09963e-21)
(1.01636 -0.00036315 -4.94472e-22)
(0.513561 -0.041086 0)
(1.01282 -0.00144829 0)
(1.01642 -0.00027843 -7.95546e-24)
(1.02035 0.000431551 2.09652e-21)
(0.513359 -0.0323287 0)
(1.01567 -0.00247579 -9.69392e-22)
(1.01752 -0.0031688 -2.2193e-22)
(1.01494 -0.0200109 5.5122e-23)
(1.01357 -0.00166078 -1.70366e-22)
(1.05472 -0.018878 -4.67018e-21)
(1.01295 0.00300529 0)
(1.03978 -0.0108775 -5.52479e-21)
(1.00981 -8.89887e-05 0)
(1.0151 -0.00198046 -2.59192e-22)
(1.02997 -0.00230768 -8.67596e-22)
(0.912622 0.00727599 -2.05284e-22)
(1.01917 -0.00583482 -2.81084e-22)
(0.943081 -0.0340601 0)
(1.01098 -0.00062498 4.48035e-22)
(1.02441 -0.00551296 -1.92803e-21)
(1.01208 -0.00120567 0)
(1.01321 -8.8495e-05 0)
(1.02698 -0.00822624 4.92176e-22)
(1.06881 -0.0352061 1.15673e-20)
(0.96045 -0.0120364 0)
(1.0264 -0.00662967 -5.19174e-23)
(1.01889 -0.00579879 0)
(0.987299 0.00811031 -1.76619e-22)
(1.01475 -0.00216886 0)
(1.01604 -0.00184289 9.14586e-24)
(1.02544 -0.0029233 0)
(0.96998 0.00687467 -7.46949e-22)
(1.01907 -0.00577444 0)
(1.04017 -0.0419214 -4.98574e-21)
(0.996975 -0.0322246 -1.0382e-22)
(1.01445 -0.00185944 8.94379e-23)
(1.02423 -0.00997319 -6.48766e-22)
(1.01157 -0.00102537 1.49518e-22)
(1.01439 -0.00189587 -1.98005e-22)
(1.01091 -0.000590157 0)
(1.01899 -0.00302521 1.10188e-23)
(1.04401 -0.0368167 0)
(1.03935 -0.0532118 1.30256e-22)
(1.02214 -0.00605045 4.62604e-22)
(1.01111 6.85995e-05 3.10625e-23)
(1.00546 0.0039771 0)
(0.860726 -0.0810799 -4.42049e-21)
(1.02471 -0.00176018 -1.6263e-21)
(1.04021 -0.0554808 0)
(1.01524 -0.00200676 9.53753e-23)
(1.01056 -0.000569671 -1.0124e-22)
(1.00923 -4.12469e-06 0)
(1.01077 -0.000629424 0)
(1.01055 -0.000571971 0)
(1.0154 -0.00223981 0)
(1.05529 -0.0161942 2.50561e-21)
(1.01351 0.00128712 0)
(1.01863 -0.000408017 9.2534e-24)
(1.01951 -0.017948 -3.81647e-23)
(1.01773 -0.00396547 0)
(1.01419 -0.00199133 0)
(1.01405 -6.79014e-05 -1.38601e-23)
(1.01289 -0.0019668 0)
(1.00729 5.58891e-05 2.74032e-23)
(1.02769 -0.0275013 1.06086e-21)
(1.0365 -0.00186167 0)
(0.971577 0.0105819 -8.42799e-23)
(1.03962 -0.0105749 4.76304e-21)
(1.00956 -2.42185e-05 -5.78089e-23)
(1.00443 -0.0251258 -4.71197e-22)
(1.0282 0.00262713 0)
(0.548464 -0.0813359 0)
(1.04222 -0.00222526 6.75564e-21)
(1.01527 -0.00198627 3.67188e-22)
(1.01564 -0.00242805 3.37599e-22)
(1.01743 -0.00178215 5.88105e-22)
(1.02367 -0.0198284 0)
(1.07493 -0.0497222 -8.06252e-21)
(0.882557 -0.0068248 -1.1702e-23)
(1.03181 -0.00827588 0)
(1.0551 -0.0703015 0)
(1.02968 -0.00235523 1.32786e-21)
(1.01537 -0.0020557 2.35031e-22)
(1.0104 -0.000247 -3.02098e-23)
(1.03798 -0.0415903 -1.5055e-21)
(1.01433 -0.00204609 2.73047e-24)
(1.0201 -0.0107879 -1.32901e-22)
(1.0143 -0.00204046 -1.72429e-22)
(0.651362 -0.0432672 1.21795e-22)
(1.02417 -0.0101546 5.45569e-24)
(1.06829 -0.0335823 0)
(1.01589 4.24577e-05 -7.54409e-23)
(1.01021 0.00463193 -3.68727e-22)
(1.02488 -0.00291427 -2.89199e-21)
(1.01922 -0.0158876 4.64624e-22)
(1.01979 -0.00587466 -2.66081e-22)
(1.02556 -0.00169746 3.43534e-21)
(1.02673 -0.0151373 2.82612e-21)
(1.01357 -0.00118805 -5.32055e-22)
(1.01031 -0.000261441 -6.67776e-23)
(1.01749 -0.00396342 1.05067e-21)
(0.883132 -0.00313723 -3.37143e-23)
(1.02518 -0.00193668 1.63709e-21)
(1.07506 -0.0490358 0)
(1.01706 -0.000334629 4.14355e-22)
(1.00454 2.07678e-07 5.14631e-25)
(0.506306 -0.0423792 2.22005e-21)
(1.01116 7.62173e-05 2.09618e-23)
(1.02686 -0.0149767 -1.46066e-21)
(1.02195 -0.00669205 -4.08406e-22)
(1.01929 -0.00396503 -1.35639e-21)
(1.0195 0.00128831 -9.39505e-22)
(1.01155 -0.00101617 0)
(1.01881 -0.0154912 6.75892e-23)
(1.01878 -0.00522279 0)
(1.02852 -0.0323913 0)
(1.08097 -0.0606067 6.16992e-21)
(1.01998 -0.00106509 0)
(1.01683 -0.00352019 0)
(1.01777 -0.00398667 0)
(1.01473 -0.00194589 1.56788e-22)
(1.01006 3.75362e-05 5.08559e-23)
(1.0293 -0.0240812 0)
(1.02782 -0.0265472 -6.19508e-22)
(0.945293 0.0140799 8.30053e-23)
(1.03046 -0.0254083 -2.28868e-21)
(1.02081 0.000457951 -3.7391e-21)
(0.962735 -0.0336926 -7.60935e-23)
(0.994696 -0.0316252 -4.61214e-23)
(1.01457 0.00972633 0)
(1.01761 -0.00377817 0)
(1.02098 -0.00752015 -2.16305e-22)
(1.02333 -0.0266108 -1.7467e-23)
(1.02111 -0.00685733 0)
(1.03113 -0.0112312 1.45349e-21)
(1.00964 -3.92837e-05 -3.64513e-24)
(1.01606 -0.00263073 0)
(1.01897 0.00040721 -2.64193e-21)
(1.06894 -0.0611713 -9.99153e-21)
(1.01362 -0.000317384 7.31769e-22)
(1.02676 -0.00811116 -4.73453e-22)
(1.01784 -0.00394481 -8.38884e-23)
(1.02974 -0.000257498 0)
(1.00967 -3.32101e-05 -1.22327e-23)
(1.01443 0.000263823 0)
(1.01001 3.66625e-05 -2.63376e-23)
(1.01118 -0.000137931 4.97153e-23)
(1.0172 -0.00293573 -1.47587e-22)
(1.01466 -0.00553755 2.16495e-24)
(1.01984 -0.00612526 -2.30265e-22)
(1.087 -0.0471195 0)
(1.01131 8.91563e-05 -5.38044e-23)
(0.976653 0.00219792 -1.15735e-22)
(1.01246 0.000119927 -4.95468e-23)
(0.789891 -0.0615369 1.08106e-20)
(1.01033 -0.000486521 0)
(1.01026 -0.000458848 1.56149e-22)
(1.04337 -0.0364318 0)
(0.996308 -0.0280264 2.90571e-22)
(1.03318 -0.00995668 3.83178e-21)
(1.02671 -0.00785609 1.53346e-21)
(1.01361 -0.00119031 6.00536e-22)
(1.01145 -0.000972551 0)
(1.02586 -0.015269 0)
(1.01455 8.5365e-05 0)
(1.02777 -0.0145508 0)
(1.01992 -0.00620823 2.30557e-22)
(1.01437 5.42258e-05 0)
(1.02467 -0.0205832 6.99271e-22)
(1.01341 -0.00136525 8.35396e-23)
(0.606805 -0.0812202 5.79408e-21)
(1.01125 -0.000173882 3.85322e-22)
(1.02124 -0.00610027 -1.19256e-21)
(1.02346 -0.00598662 -1.2805e-21)
(1.01775 -0.00360939 -8.06483e-22)
(0.716833 0.0199408 -3.74691e-22)
(1.01794 0.00890568 0)