/*--------------------------------*- C++ -*----------------------------------*\
| =========                 |                                                 |
| \\      /  F ield         | OpenFOAM: The Open Source CFD Toolbox           |
|  \\    /   O peration     | Version:  v2012                                 |
|   \\  /    A nd           | Website:  www.openfoam.com                      |
|    \\/     M anipulation  |                                                 |
\*---------------------------------------------------------------------------*/
FoamFile
{
    version     2.0;
    format      ascii;
    class       volScalarField;
    location    "200";
    object      ddt0(epsilon);
}
// * * * * * * * * * * * * * * * * * * * * * * * * * * * * * * * * * * * * * //

dimensions      [0 2 -4 0 0 0 0];


internalField   nonuniform List<scalar> 
18232
(
0.000172433
-9.53861e-10
-1.94081e-11
3.1289e-10
3.95587e-09
1.51043e-07
2.70189e-10
1.88566e-11
3.54154e-09
3.59291e-09
4.99699e-11
1.51568e-08
2.37012e-09
7.37517e-05
7.97012e-10
6.99698e-06
2.72863e-11
-5.31842e-12
6.48663e-11
9.53695e-09
9.20566e-07
1.33222e-10
-8.72598e-12
-2.59327e-10
1.1012e-10
-8.98008e-11
-3.27812e-11
1.46033e-07
-1.92643e-11
1.70707e-11
2.87946e-11
-0.000184143
1.11014e-11
-0.000642062
0.000148196
1.24816e-07
2.87677e-05
3.39031e-11
-6.44658e-05
3.11941e-10
8.10164e-05
1.27141e-08
8.37778e-09
4.53465e-05
1.46349e-11
-5.7424e-05
-4.65532e-10
1.33594e-08
-2.91826e-09
-2.08337e-10
-3.25283e-11
2.6836e-12
-0.000274894
5.381e-09
2.11996e-09
-2.0863e-08
-3.53556e-11
-3.99887e-10
0.00231194
-3.14658e-10
8.31053e-10
5.18745e-11
-2.17072e-11
3.02833e-10
8.11998e-09
-3.33135e-10
-0.00081456
-0.000253017
-1.34631e-11
-2.40307e-11
-7.88499e-11
-1.40059e-09
-0.000142883
4.60381e-06
2.14047e-08
-3.94989e-06
-9.56609e-11
-4.29411e-11
0.000515365
2.75627e-10
-0.000289614
7.54165e-09
7.00791e-09
-2.63898e-10
0.000409262
-2.04718e-08
5.40862e-11
3.28038e-11
8.09921e-09
3.88733e-09
7.90824e-12
5.63605e-11
3.07061e-12
-1.79905e-08
-3.76449e-11
-3.02074e-11
-9.67087e-12
9.02108e-11
0.00019797
4.25168e-11
4.38608e-10
5.21745e-09
-1.4813e-05
1.61711e-09
9.73225e-08
5.65841e-11
3.29692e-11
-1.03353e-08
7.99272e-12
-1.62941e-10
-3.30091e-10
1.86237e-06
-2.49286e-10
-1.17475e-13
-1.01963e-11
3.75446e-10
9.09239e-09
-5.36443e-05
2.42804e-09
5.13743e-10
1.389e-10
4.33916e-11
7.14545e-06
3.98453e-07
0.0002211
7.27738e-09
3.22124e-09
-9.43525e-11
7.39692e-07
-6.1181e-06
7.62825e-12
-3.38288e-11
2.54157e-09
-9.7928e-11
-0.000442264
-2.55987e-06
-2.87762e-09
-2.93273e-11
-4.87369e-10
-6.57546e-05
1.9577e-09
4.72739e-11
-0.000311175
-5.1895e-11
1.73407e-09
7.89677e-10
9.42256e-10
-2.39995e-12
7.73662e-05
1.6201e-08
9.81992e-06
1.21773e-08
6.24863e-09
8.90458e-11
3.46721e-09
-0.000388674
-1.46564e-05
8.01358e-09
4.2611e-08
-3.72782e-10
-9.84398e-10
-1.17933e-10
3.03434e-10
-0.000516589
0.000785881
2.14172e-10
7.7327e-09
-0.000398985
-8.26034e-10
0.000247932
8.91042e-11
1.02269e-11
9.41359e-12
-4.19582e-11
5.43268e-11
0.000257997
-6.56908e-10
1.6238e-12
0.000125087
2.38794e-10
1.97271e-08
-7.09929e-05
2.64425e-09
-1.50364e-05
0.0017193
2.52266e-13
-3.47799e-10
0.000491563
-6.63456e-10
0.000300146
-1.63242e-10
5.281e-11
3.58374e-09
1.3186e-05
-5.45813e-11
2.13299e-12
-2.37609e-10
2.681e-11
5.50054e-10
-3.22687e-11
-6.09639e-13
7.14376e-10
-2.31512e-11
6.26211e-07
-3.95191e-09
-6.38704e-06
1.41131e-06
-0.000406485
1.61943e-08
2.43797e-09
5.09724e-11
5.58612e-10
4.60149e-10
0.000101212
-1.37626e-05
6.40315e-10
6.31561e-09
-2.32883e-10
1.45508e-11
7.12126e-11
5.92717e-05
-2.67332e-10
9.16047e-05
-2.67127e-10
4.96345e-11
3.62282e-11
1.80073e-08
-1.25421e-10
8.02758e-11
2.09668e-09
-7.18186e-11
-4.78123e-10
-1.01326e-05
-7.17851e-07
-1.16327e-10
-5.61962e-05
3.14701e-10
-4.88802e-08
-2.33862e-10
3.96902e-12
-1.35258e-10
-4.99597e-05
-4.88145e-08
8.69659e-10
0.000102304
0.000278323
7.74454e-13
0.00155632
0.000874126
-1.72522e-10
-3.3089e-08
-2.82311e-08
-1.0968e-10
1.58602e-08
9.40129e-11
2.98876e-06
8.48814e-06
8.36136e-05
0.000284685
2.22547e-08
-4.5658e-10
4.8975e-09
1.77697e-08
6.31732e-12
-1.40795e-10
8.61382e-13
7.65722e-05
4.11271e-08
-2.62369e-08
1.88241e-07
-6.57262e-11
-0.00118054
4.81251e-08
-1.63253e-11
-8.03493e-11
0.000378913
6.6595e-09
-1.93943e-10
9.38216e-12
0.000471012
8.7682e-05
4.47373e-10
-4.29594e-10
0.000182318
-5.1346e-09
-8.5218e-11
1.65436e-09
2.8192e-05
-6.78485e-11
9.1079e-09
2.38769e-10
5.04843e-09
0.000280273
1.75506e-08
1.16003e-08
5.45626e-08
0.000168528
-6.08364e-10
-3.19476e-11
-1.35682e-10
3.20007e-10
4.48296e-12
0.000138354
-2.97285e-08
6.12082e-12
-6.67668e-10
3.9939e-08
3.48546e-09
2.5742e-11
-3.00212e-06
9.87923e-10
-7.27578e-11
1.29148e-08
2.53093e-10
-4.66213e-10
1.64879e-09
0.000207593
-7.28174e-11
-6.33356e-05
-3.34487e-11
1.52264e-05
4.19317e-10
2.05578e-08
2.02233e-05
4.10508e-10
-3.68109e-10
3.98771e-08
2.8139e-10
8.35168e-09
-4.0365e-11
4.76022e-09
4.12321e-11
3.77489e-09
0.000274064
7.00728e-09
-0.0004971
3.92888e-07
0.000920742
-9.36751e-11
2.53335e-09
8.06446e-11
7.56468e-07
-1.28893e-13
-6.81255e-11
-9.17804e-11
-6.98699e-09
0.00041982
1.37717e-09
4.57126e-08
1.87772e-10
0.000242346
5.42669e-10
4.24491e-10
-1.25352e-10
4.43493e-09
1.5646e-09
-2.19498e-08
0.000458998
-3.43554e-12
8.44546e-11
4.13455e-06
6.76832e-09
0.00189852
-3.55592e-10
0.000188358
-1.66246e-10
7.88594e-09
0.000513723
5.12282e-11
0.00088367
3.7955e-07
1.40172e-07
-9.41794e-10
-0.0109538
-6.36045e-11
8.2341e-12
-3.67147e-10
-2.33223e-11
1.21294e-05
2.729e-05
1.13766e-09
4.96569e-09
2.40558e-11
3.3615e-10
0.000844461
7.8784e-09
2.35922e-10
-1.65901e-11
2.28659e-10
4.11589e-10
2.20057e-09
9.15662e-09
8.72895e-05
9.25349e-09
-1.33093e-05
-6.80996e-11
1.59062e-06
-2.57539e-10
1.18558e-06
-3.0711e-11
1.69545e-07
-1.09607e-05
5.36716e-08
0.000210905
4.4438e-09
2.29655e-11
1.86294e-09
4.66008e-12
5.05604e-10
8.77409e-08
3.49749e-05
-0.00461142
3.03334e-09
3.52301e-10
5.58072e-05
3.29553e-08
-3.60233e-11
-2.03356e-13
-6.21271e-05
2.07667e-11
5.74963e-10
8.38732e-09
2.8819e-08
-4.25064e-11
-4.75534e-05
-1.71653e-09
2.17955e-08
1.89762e-08
7.80051e-09
8.99418e-09
-1.90589e-10
-1.36065e-09
0.000335283
2.24956e-10
3.63338e-09
-1.90808e-11
-1.33388e-10
1.43217e-10
3.62711e-10
1.28979e-10
1.64074e-10
-1.76801e-08
0.000147454
5.06215e-09
-3.29277e-10
4.47567e-09
-1.87692e-11
3.88632e-10
1.86416e-08
5.50969e-09
0.000105718
-1.54947e-10
-5.48609e-11
1.48229e-10
5.80252e-06
4.74323e-11
-0.00176427
3.20027e-12
4.20137e-08
1.10171e-09
-7.2815e-11
7.69843e-08
-1.54412e-11
-1.12167e-05
-4.35353e-11
3.31109e-10
-6.59233e-11
7.82539e-11
2.2181e-09
9.70212e-10
3.27981e-11
8.28335e-05
-3.02761e-09
-2.40939e-08
1.1836e-08
1.04568e-08
-4.6442e-10
-2.99296e-08
-0.000486901
-4.91186e-10
1.72968e-08
1.02908e-09
1.53415e-10
2.87823e-08
2.24542e-11
5.73203e-09
-1.56626e-10
-4.52464e-10
1.8103e-05
8.9028e-09
2.93394e-11
1.13188e-07
6.02434e-11
1.78724e-10
1.07134e-08
-1.07769e-09
4.89402e-11
2.76107e-07
-7.92932e-06
2.96973e-11
1.39393e-10
2.54075e-10
-4.26698e-10
8.47234e-08
0.000377116
2.14936e-08
5.12507e-11
5.85837e-11
-2.08497e-10
-1.02354e-10
-5.14323e-05
-7.59939e-11
2.96702e-10
7.01926e-06
-2.52277e-11
3.10083e-11
2.95219e-10
2.98211e-09
-6.37985e-11
2.95398e-11
-4.58253e-10
-3.32673e-10
-2.40044e-11
0.00176761
-0.00153814
1.17019e-11
-1.27175e-10
4.25015e-11
-3.10933e-10
0.000484174
4.21022e-11
9.42134e-09
9.57642e-08
1.09914e-08
4.64387e-05
-1.81947e-09
-7.01151e-06
2.1758e-11
0.000701974
-4.72358e-08
-6.34664e-11
2.1981e-09
1.85995e-10
-4.73359e-11
3.07413e-11
3.27751e-08
0.00013857
2.41491e-09
6.21912e-11
8.00839e-09
5.78103e-09
4.11665e-11
-9.522e-11
3.4778e-11
0.000177357
-0.000129814
-1.77432e-10
-3.42035e-10
-3.56475e-10
1.43986e-05
0.000280868
1.38143e-13
2.64818e-08
1.65605e-11
-2.98927e-05
-7.0796e-12
-5.85523e-11
-0.000161861
1.26516e-05
1.89491e-08
4.52842e-11
2.52729e-10
3.83982e-05
-1.98888e-10
-6.82913e-11
-3.33054e-10
0.00335593
4.51852e-10
0.000354704
6.08914e-11
0.000348282
-1.85845e-11
0.000238837
3.93042e-09
-2.45639e-11
3.26416e-09
-4.6915e-11
1.49066e-08
3.7938e-06
-0.000382765
-6.14516e-11
3.12547e-11
9.24263e-08
3.82634e-11
9.99236e-05
1.27401e-11
5.8652e-10
-0.00142056
4.66084e-05
-5.63281e-11
-2.6954e-11
3.77376e-11
-0.000901444
4.08465e-09
-1.01686e-10
1.00019e-09
5.0329e-11
0.000343776
3.22903e-11
5.08399e-09
-2.23529e-10
-3.38294e-10
2.27686e-09
8.10794e-09
4.93725e-10
2.94612e-11
1.10783e-10
0.000121302
1.49772e-11
1.41217e-10
1.53825e-09
7.28345e-13
1.56578e-05
-1.80995e-05
2.42278e-09
9.50026e-09
1.56321e-08
-0.00110201
-1.92324e-10
-1.92595e-10
-8.03062e-11
7.88056e-11
1.1077e-09
-2.22165e-11
-5.87475e-05
0.000235919
0.000848174
0.000120257
0.00026917
9.78721e-09
-2.72512e-08
-1.38703e-06
3.44457e-13
-6.50932e-07
5.56785e-11
4.21072e-09
8.39497e-09
-0.00104891
6.04946e-10
3.82239e-10
0.000223416
-5.35961e-10
1.00773e-10
-3.58256e-10
-2.8643e-05
1.86748e-08
5.27214e-10
4.59228e-07
3.3826e-08
-4.98676e-06
2.27267e-10
-7.76251e-10
-1.72544e-10
2.32801e-08
-2.39647e-10
4.0045e-08
8.82232e-09
6.77828e-11
-5.94618e-11
-3.78422e-10
-1.52155e-11
0.000694078
-9.92372e-07
-8.97133e-11
3.02584e-05
1.30911e-08
-2.59105e-05
1.41694e-08
-7.39657e-11
-0.000964753
7.87239e-11
4.7564e-10
0.00012262
-2.92942e-10
5.18491e-10
-4.3793e-05
7.8856e-08
1.18742e-10
3.31254e-10
1.81031e-05
1.97512e-10
-2.23414e-10
-3.51018e-05
-5.65976e-05
-1.67856e-10
1.45328e-08
0.000238286
4.23181e-10
1.41866e-08
0.00383715
-4.03904e-09
3.9861e-05
3.53783e-09
0.0016932
6.7858e-09
-4.98968e-12
-0.00429576
7.36907e-12
3.18037e-11
4.95984e-11
-0.000912682
6.28254e-08
-1.40967e-10
-4.5961e-05
1.38335e-11
9.61877e-09
9.91774e-10
-0.00239417
1.53628e-08
1.10426e-08
-2.1957e-10
-7.6108e-11
1.24618e-10
-0.000605967
-7.48764e-09
2.84031e-05
-6.29362e-13
-6.56035e-08
-1.4564e-12
1.73956e-12
1.85101e-10
2.27521e-11
-1.91563e-10
-1.46245e-10
3.89144e-10
-5.10623e-10
3.01528e-05
-2.33124e-11
3.35043e-10
0.00137673
1.05198e-08
-0.000151791
-5.21683e-11
2.84329e-07
-0.00289652
-1.30297e-10
0.00151442
8.98004e-09
0.00177372
-5.38976e-06
4.97293e-05
-1.50222e-11
-1.46111e-10
-5.42189e-10
9.13873e-09
0.000382486
3.30616e-07
-5.12568e-10
-7.53732e-13
0.000269887
-0.000742611
5.9637e-07
-1.96638e-11
6.66282e-08
1.12102e-10
2.8216e-09
-0.000574906
4.10032e-10
6.24229e-05
3.28487e-11
2.2291e-11
-0.000421577
1.94724e-05
-6.50393e-11
1.204e-10
3.11791e-09
-4.24331e-05
9.73391e-10
-7.19497e-12
2.2327e-08
-2.82387e-08
2.17521e-08
-3.21557e-10
-9.65696e-09
-2.17195e-12
2.52471e-12
0.000173834
8.68185e-09
0.000239163
1.85891e-05
1.52279e-09
1.418e-08
5.82917e-06
2.28896e-11
6.76848e-12
4.19657e-09
-7.15679e-05
-2.84491e-10
1.46077e-08
0.000110172
5.59501e-10
-2.89604e-05
9.47237e-12
-3.09538e-12
-1.02004e-10
4.36786e-10
-3.12691e-10
9.68564e-05
1.96901e-09
-2.67473e-10
5.41458e-05
8.67553e-09
0.0043236
-0.000173612
6.52792e-08
-2.58591e-05
1.29783e-07
-1.37078e-11
-1.8809e-11
9.41031e-09
-0.000855283
2.67879e-09
2.56684e-09
8.07695e-06
-2.52675e-10
9.21509e-13
2.96325e-10
0.000100745
4.17929e-10
5.44188e-06
-2.22148e-09
-4.06014e-11
1.79892e-05
2.2785e-09
0.00123209
-4.97495e-10
-1.65326e-10
5.79545e-11
-1.96158e-06
-2.18374e-11
7.43871e-09
-1.7894e-12
-0.00103164
1.48979e-10
-3.1495e-05
4.19613e-08
4.77456e-10
-2.35155e-11
-2.71089e-10
2.01968e-08
3.963e-10
9.63085e-11
0.00019152
0.000106823
6.85321e-10
4.9928e-06
1.66808e-11
-3.14651e-11
1.46805e-10
-2.60505e-11
5.05121e-11
4.72721e-09
1.51068e-09
2.78321e-09
-4.61529e-11
6.26637e-10
-7.19048e-10
-3.42812e-11
0.00331162
-1.26092e-08
1.09317e-11
-1.475e-11
3.47848e-06
0.000174279
-1.05713e-10
-2.47622e-05
-5.95543e-05
-8.28715e-11
2.94162e-11
5.39989e-05
3.76614e-05
-1.43356e-08
1.32035e-08
1.07298e-05
3.34688e-10
-7.45118e-05
0.00373187
0.000191691
7.51268e-10
6.6459e-10
2.33334e-06
1.68251e-09
-4.81246e-11
1.9582e-08
9.64209e-09
1.59697e-07
1.71435e-11
4.19198e-10
-4.19234e-10
1.71642e-10
-7.01602e-11
3.20401e-05
-2.40044e-07
-1.84528e-11
-1.52474e-10
0.00139424
-8.50195e-11
-0.000425933
-1.32274e-12
7.24364e-10
-5.87699e-05
1.70218e-10
1.63253e-09
-2.36379e-11
3.3327e-11
5.13442e-11
5.8162e-12
0.000311229
2.94934e-11
2.36662e-11
1.76422e-10
5.73793e-11
-0.000506391
-8.59508e-10
2.73839e-09
-2.41764e-10
-9.14163e-09
5.93412e-08
7.49471e-12
3.16466e-05
1.77197e-05
2.85936e-11
-2.40529e-11
6.90347e-10
9.06198e-10
1.4544e-11
-2.25127e-10
2.0455e-10
2.04168e-08
1.39724e-09
6.56112e-10
-4.01027e-10
-1.63059e-09
6.49145e-11
-1.63694e-10
0.000827765
2.97405e-05
7.20897e-09
2.9398e-09
3.79588e-07
2.12286e-10
2.05045e-11
7.27981e-05
8.79134e-05
4.40539e-10
2.34469e-12
7.7812e-07
0.000653561
-2.71005e-11
1.05963e-09
-0.000769187
3.04154e-05
6.75639e-09
1.7514e-09
-3.63707e-10
0.000328865
6.72662e-13
3.21374e-14
-4.17782e-07
0.000378505
-0.000563398
-1.36939e-09
-2.85291e-09
-5.81184e-10
8.883e-12
3.04009e-11
2.48935e-09
1.42853e-06
-1.20942e-12
-0.000464105
-1.77579e-10
1.3428e-06
0.000468536
2.04497e-10
6.63675e-07
-5.68951e-10
3.86007e-11
7.23081e-11
1.21527e-08
-7.9153e-13
6.06191e-11
3.23769e-11
-3.06135e-05
-2.30399e-11
0.000281254
2.15692e-11
3.94846e-10
1.92911e-09
2.17583e-09
5.39053e-10
0.000160215
6.48375e-10
-1.6522e-08
-2.74203e-10
-4.72974e-05
-6.38234e-05
8.2595e-07
-3.71094e-09
-3.12213e-05
2.63517e-11
-0.000344098
6.57734e-09
-8.6763e-11
9.52753e-08
-1.79016e-05
-0.000611144
-6.84285e-11
5.92317e-10
1.83873e-07
5.5539e-12
5.97367e-07
-2.0548e-10
0.000445328
-2.63367e-11
-6.82104e-10
2.57368e-10
-8.80974e-06
2.16807e-12
4.0771e-12
1.95728e-08
1.08454e-10
6.34411e-08
9.48576e-05
-7.44091e-13
-1.36382e-10
-2.4668e-11
2.35678e-09
8.73202e-09
-5.11475e-10
-1.74094e-10
1.83568e-08
2.41401e-10
0.00020681
1.61634e-09
8.80103e-09
-7.7291e-11
-2.80814e-10
-0.00220992
1.54281e-08
-9.98564e-11
2.52011e-05
0.000173858
-0.00029707
0.00199191
0.00300242
3.55344e-09
-1.9168e-11
2.03251e-11
2.073e-10
3.20578e-11
1.19796e-07
-0.000377582
5.60612e-08
2.23758e-12
3.07547e-09
-4.46176e-05
-4.72782e-05
3.31739e-11
-2.07059e-10
6.25821e-05
6.69454e-07
4.05232e-09
1.85806e-09
-5.12655e-10
-9.31907e-10
1.11176e-10
0.000255023
7.06101e-11
-0.000712766
-3.33962e-10
1.93141e-11
-0.00112395
-0.000245902
-4.78347e-11
4.89615e-11
4.94414e-10
6.50995e-09
9.59982e-09
3.83985e-08
-3.60195e-10
-3.44076e-10
8.65323e-11
0.00113584
7.8072e-09
1.07899e-09
1.29359e-06
-1.85508e-10
1.25686e-10
-5.93294e-10
3.95523e-09
-4.55965e-07
1.69683e-10
5.92999e-09
9.10452e-11
3.64886e-12
-2.51421e-12
3.04155e-11
1.285e-11
-7.41808e-12
7.3253e-09
-2.57074e-11
-8.20149e-06
1.8192e-10
2.31772e-09
6.44106e-09
2.55695e-10
1.40559e-11
0.000751953
-4.08842e-11
0.00137632
2.78238e-10
1.0273e-10
2.74732e-09
8.54578e-10
0.00118739
-6.12452e-11
2.03475e-08
7.75333e-06
-6.50881e-05
2.05996e-09
2.24871e-10
3.40653e-10
-0.000989562
-4.80314e-07
-3.73949e-10
-4.77872e-10
5.81548e-10
-0.00109419
1.76907e-09
7.47904e-06
0.000158812
-2.96259e-10
4.49393e-11
-2.1531e-12
-0.000890377
1.91551e-08
1.87237e-08
-2.56938e-09
3.26248e-08
5.45576e-05
2.00785e-10
1.25199e-07
8.62241e-05
0.000544897
2.82997e-11
-9.75686e-12
8.75008e-07
0.00267577
2.17177e-08
1.88868e-08
-4.40869e-10
-6.36732e-09
1.90067e-11
8.37477e-11
1.82503e-09
-0.00141329
-7.81774e-12
-2.11147e-11
-1.96379e-11
1.27725e-11
-5.12453e-06
1.18002e-10
-5.1653e-09
-3.68115e-12
8.03775e-10
3.79091e-05
1.97826e-09
1.01513e-10
5.84198e-09
-1.59264e-10
3.46547e-10
5.28843e-10
0.00107476
1.77804e-08
1.10277e-09
1.15927e-08
1.90073e-07
-7.25978e-11
4.57909e-10
0.00011457
-4.14135e-05
7.32421e-09
7.43167e-09
4.46021e-09
9.14975e-11
2.27928e-09
3.22455e-11
6.50506e-11
-1.34244e-11
4.07211e-10
-5.26506e-10
5.50468e-10
-2.102e-07
0.00445364
2.0985e-12
3.8966e-05
6.45702e-11
-9.9858e-10
7.64884e-09
-9.98227e-12
6.01146e-09
4.56779e-10
0.000314316
2.78139e-09
4.20505e-11
-2.02737e-05
3.40532e-09
3.72911e-09
2.24399e-10
0.00162974
3.26885e-10
4.71921e-12
6.81154e-09
2.20914e-08
-4.20066e-10
1.454e-10
-9.99091e-07
-3.96618e-10
-1.57058e-11
9.24517e-11
-7.35792e-11
4.07327e-09
-2.47822e-10
2.83992e-10
0.000200547
5.96964e-09
7.71177e-09
-6.25997e-11
-2.53606e-10
-9.9587e-11
2.56986e-10
1.65551e-09
5.10573e-10
-4.22027e-10
2.75721e-08
-0.00141184
-6.91733e-05
6.2874e-10
8.01073e-09
1.79325e-08
-0.000561329
7.56133e-11
-6.16783e-11
1.26291e-08
7.65473e-08
-1.62185e-11
-4.02426e-05
-4.03817e-11
4.30746e-05
-0.000572523
2.45198e-05
0.00157158
0.00181489
1.5544e-08
1.66143e-08
1.21439e-10
1.00352e-09
-3.26901e-10
2.10008e-08
3.15111e-08
-3.35553e-06
-4.60376e-06
-3.93556e-11
-2.65886e-11
4.57711e-11
3.66605e-07
-4.75351e-11
-5.70291e-11
0.00019602
-8.43997e-07
0.000229506
-6.90025e-12
-2.91448e-12
-0.000164022
0.002615
2.39396e-10
2.25507e-11
2.53133e-06
2.09166e-07
1.9276e-08
1.78799e-10
-2.32446e-10
1.99877e-09
-6.29136e-11
5.1197e-11
0.00141999
-2.6944e-11
-7.16802e-12
0.00125238
2.95597e-11
-4.7961e-11
4.53948e-09
7.92076e-09
-3.76458e-10
-3.10477e-07
1.0161e-10
3.12149e-09
3.43302e-11
0.000431845
-2.76362e-11
-2.26585e-10
-8.50085e-11
1.62101e-08
1.32709e-06
4.38984e-10
2.11778e-10
-1.25593e-11
1.14082e-07
0.000223652
4.2804e-09
-1.98559e-11
5.65641e-12
-6.02336e-05
1.42601e-10
1.11757e-09
-4.496e-10
-9.72817e-09
1.04499e-10
-9.04384e-12
1.25174e-09
0.000131799
1.69301e-06
-4.38674e-06
-2.12678e-10
-6.50198e-05
4.05703e-10
0.000351829
5.97546e-09
1.6071e-11
3.60865e-09
1.83215e-09
-5.68028e-10
0.000176942
-2.89686e-10
7.63628e-10
-2.97376e-11
9.73592e-10
-0.000349243
-1.23078e-10
1.07397e-08
-1.78676e-10
6.62363e-08
1.54722e-11
9.67378e-07
1.79096e-09
1.82087e-09
-1.52192e-08
-1.08418e-06
0.000324512
-0.000368749
-1.02838e-11
0.000162022
2.94132e-09
-2.08843e-11
1.2417e-11
-9.47971e-06
-6.84844e-10
0.00321001
-3.56887e-06
3.96118e-09
-0.000945662
3.51013e-10
-8.62862e-10
-1.06745e-09
2.83899e-08
3.62443e-09
9.84856e-12
1.58366e-09
-3.09605e-11
-6.5413e-11
-1.65944e-10
-7.42091e-10
2.28734e-09
1.65841e-10
-0.00103871
0.000181036
-1.01303e-11
-3.78679e-05
-2.06565e-06
0.000812232
1.60623e-10
8.72176e-10
-1.51554e-11
3.87497e-09
2.90872e-11
1.49806e-08
-2.76701e-11
8.24343e-10
3.08965e-11
-1.15509e-12
2.75982e-11
9.03581e-09
1.08184e-10
4.59326e-10
2.3521e-09
1.77786e-09
1.01695e-08
-4.20708e-10
2.58767e-10
8.72331e-05
-9.92978e-10
6.18807e-10
1.91386e-05
-8.05756e-10
-7.11326e-05
-0.00116647
-6.73087e-05
2.38707e-10
-3.85918e-11
2.06973e-10
3.06369e-10
-5.26175e-12
-3.22866e-10
1.65248e-10
-1.8739e-10
-0.000988034
2.84302e-09
-1.3974e-10
0.000605026
-2.77962e-05
1.08887e-09
7.03169e-07
2.23694e-08
-3.41634e-10
6.35025e-09
1.65391e-07
1.51949e-09
-3.54469e-10
5.97273e-09
1.14886e-09
-5.75089e-11
0.00024794
-2.22754e-10
4.72326e-13
7.05648e-12
-4.69545e-10
-6.02973e-05
4.932e-10
4.96848e-11
-3.68898e-10
-7.23176e-05
-4.12475e-11
5.42483e-10
0.00218816
-1.75453e-11
-1.00765e-10
0.000446109
6.47623e-09
-0.000389661
5.6038e-12
9.05254e-11
1.87498e-11
4.55904e-07
0.0032331
8.24278e-09
-2.61229e-10
-5.45623e-10
-1.14428e-09
-0.000209059
2.11277e-10
1.88805e-10
9.73094e-07
-6.89091e-05
-2.05476e-10
1.88203e-07
4.37607e-09
7.34404e-09
1.39358e-11
9.03317e-05
-0.000854883
-7.39429e-11
-1.45786e-06
-3.651e-05
-3.56946e-10
-3.94042e-05
7.53809e-10
-0.00043191
-0.000984463
2.10343e-09
1.28908e-11
0.000787847
8.85435e-05
3.79732e-10
-0.00105288
1.02743e-05
7.26947e-05
4.7783e-10
1.62451e-11
-8.83331e-11
-7.11882e-06
1.63938e-08
-3.00558e-10
1.96119e-09
-0.00127604
-3.39884e-10
0.00114802
1.35044e-09
-3.32527e-10
2.24827e-12
0.000167456
0.000349841
4.81429e-11
-4.20133e-10
-7.43564e-07
2.79827e-09
6.15192e-09
-1.74991e-10
6.052e-10
6.65037e-05
1.19778e-09
5.75419e-11
2.5043e-11
-1.27156e-11
-4.87457e-10
3.77669e-06
-4.74307e-09
-4.86278e-11
9.26476e-11
-5.50176e-12
6.03165e-10
-8.43362e-10
-7.95424e-11
5.29993e-10
-5.70923e-10
4.56466e-11
0.000271532
1.32372e-09
-4.76237e-10
2.99565e-10
1.82553e-06
-2.24006e-10
-2.05195e-06
6.85704e-09
3.13377e-08
2.85043e-08
-2.39472e-11
-2.04438e-10
1.88529e-11
4.23065e-10
1.47618e-10
5.62355e-05
-4.83003e-05
-1.36269e-10
-9.50556e-11
1.83378e-10
-2.22723e-10
9.70443e-11
-9.57255e-11
-2.03975e-07
5.06483e-05
-3.12258e-11
0.000398719
5.52528e-11
2.28508e-08
-6.79908e-08
7.33544e-10
7.42672e-11
-2.24947e-10
4.48585e-10
-1.92036e-11
1.65349e-07
7.77628e-10
-4.9256e-06
8.40116e-09
-1.96864e-10
0.000266023
7.82655e-11
6.77827e-05
0.00194288
4.9066e-06
-5.47129e-10
1.14325e-11
6.82787e-11
-6.82376e-05
1.42945e-09
-1.25656e-06
-0.00104045
2.05435e-07
-4.17074e-06
1.39404e-11
-1.2723e-09
-9.01468e-12
-3.8285e-10
-3.2791e-11
7.81913e-09
1.06763e-09
-2.3784e-09
-2.52654e-10
-6.33394e-10
-0.000606424
2.41229e-10
5.36468e-11
-3.70249e-10
9.7207e-10
2.46088e-05
0.000135045
1.87041e-09
1.14481e-11
1.05915e-08
8.88692e-07
3.84491e-09
0.000140959
7.91565e-11
8.23135e-11
9.00461e-10
-7.75479e-05
2.39603e-09
8.18778e-11
1.93251e-08
-1.29853e-11
9.5025e-06
-1.31451e-10
-9.9132e-11
-2.09157e-10
-1.98014e-13
-1.78265e-10
2.89912e-09
-4.61711e-08
6.38346e-08
8.54774e-07
4.71917e-09
1.40518e-11
-1.93998e-10
1.25048e-08
2.69354e-10
4.31458e-09
4.20547e-09
-2.40253e-05
-0.000924596
3.08343e-09
2.65518e-05
-1.85679e-05
4.65484e-10
-2.84349e-10
2.26976e-09
3.90376e-09
-8.37741e-05
-4.86354e-09
-5.94885e-10
4.56955e-08
4.23093e-11
-2.68941e-05
1.58325e-08
-9.35906e-12
1.0057e-08
8.35594e-09
-0.000400179
-5.25428e-11
-5.18905e-05
-1.29322e-08
0.00389316
4.63165e-05
1.14464e-09
-1.27139e-05
1.90626e-08
2.3229e-06
-4.49724e-11
-4.62393e-05
-0.000873018
-1.96567e-11
5.86639e-10
-1.7764e-10
-7.75302e-05
1.55164e-08
-1.15316e-10
2.28928e-09
-3.19274e-07
2.24516e-08
3.80871e-09
-7.0693e-10
-5.39767e-10
0.00153487
2.90876e-07
-1.54309e-10
5.54183e-05
1.05806e-08
-4.68507e-05
-1.39057e-07
9.8803e-10
5.04596e-09
-7.68779e-11
2.16498e-09
9.04406e-06
2.06108e-09
-9.42016e-11
2.18073e-09
3.50795e-09
1.23381e-12
-1.01631e-09
4.73833e-10
5.84947e-10
-3.77095e-12
1.73507e-12
-1.48182e-09
6.93031e-12
-1.28767e-11
-6.2761e-06
3.23355e-10
-6.79067e-10
4.60523e-11
-2.61939e-07
-1.51579e-10
-7.33705e-12
-3.77451e-05
-7.22331e-07
1.41346e-06
2.0072e-05
-8.83672e-11
-8.26139e-12
-2.33699e-05
-9.57868e-11
5.08344e-09
-5.76928e-07
8.00841e-12
-3.59758e-10
1.11438e-09
-1.31997e-09
1.12089e-08
-3.16911e-10
1.97286e-07
2.10581e-09
8.4429e-11
2.08557e-11
3.45522e-05
3.62303e-09
-1.67998e-10
-0.000538042
2.48378e-10
4.77134e-08
-5.21381e-10
9.88837e-07
1.49186e-05
0.000310147
1.20819e-12
-4.52163e-11
6.18194e-08
-1.93717e-10
-1.52207e-10
0.00180768
9.72066e-09
4.12883e-08
1.36242e-09
-9.41728e-12
1.49693e-06
1.34406e-09
-7.89241e-10
-0.000354624
-4.14717e-10
-2.98362e-09
1.91748e-08
3.63732e-05
-5.30133e-05
-3.84497e-12
1.4713e-10
-1.6762e-10
3.12009e-11
1.65667e-08
1.47335e-08
0.000321432
5.29248e-10
-4.27534e-10
3.28973e-07
-5.00095e-10
-7.46661e-11
2.7177e-07
0.0026178
8.15603e-05
-1.91395e-11
5.10614e-11
-1.07263e-10
-1.20748e-10
3.56706e-09
2.07698e-08
5.09726e-07
2.85543e-09
0.000277434
-5.79167e-05
3.55752e-09
-0.00159532
-3.61055e-11
8.82141e-09
1.61484e-09
-1.72529e-06
2.15749e-10
-2.58177e-10
-0.000306549
1.38265e-06
4.19709e-09
-5.58467e-11
6.92301e-07
-4.99031e-10
4.5926e-05
-1.68997e-10
4.48101e-10
-0.000502123
1.11583e-09
-1.37046e-07
6.65682e-10
3.13592e-13
0.00056771
4.51215e-07
-5.28581e-05
-4.97437e-05
4.72052e-10
-5.51639e-10
3.71621e-09
1.41376e-12
-1.07012e-10
-6.85987e-05
2.12691e-08
2.60466e-10
9.66582e-11
4.83662e-09
-2.48904e-10
4.11389e-07
-3.61516e-08
-2.50024e-11
1.75381e-09
2.0391e-09
-3.89226e-11
4.47396e-07
1.76644e-10
3.39756e-07
-7.43339e-05
1.73615e-09
5.92491e-08
6.83576e-09
-1.93299e-07
0.000819946
2.15665e-07
-0.000814506
-3.27881e-08
-5.5005e-10
0.00320544
4.03849e-10
-0.00178937
1.43133e-07
-1.36561e-10
9.45996e-12
8.0208e-09
3.6131e-05
-9.55522e-12
-4.34222e-10
-4.60922e-11
-1.03774e-10
4.74123e-10
2.05274e-10
3.97501e-09
3.74697e-09
7.02343e-11
-0.00113686
0.000357157
1.13286e-05
-1.85079e-09
-2.43921e-05
-3.68511e-05
-7.03616e-05
-5.93454e-10
0.00237792
5.11274e-07
3.04765e-06
-1.60201e-10
3.35366e-09
9.14264e-08
-3.86082e-10
0.000417502
6.50968e-10
-0.00125837
3.08642e-10
1.97359e-09
1.823e-09
9.23375e-11
4.54442e-10
6.09365e-09
2.90983e-09
0.000449459
5.89352e-12
-9.51798e-11
2.19509e-09
3.218e-09
5.71505e-07
-3.69149e-07
-3.46002e-08
-3.18865e-05
5.52153e-07
1.29378e-11
-0.000582114
1.43182e-05
0.000531473
2.65933e-11
5.58267e-09
1.35247e-11
2.68956e-12
4.9838e-10
-1.94812e-10
-3.2627e-07
-1.38864e-10
-3.8186e-11
2.18517e-05
5.83052e-09
5.7818e-09
5.32721e-08
5.12955e-10
-2.41587e-11
-1.17599e-06
-4.58402e-12
3.14973e-10
1.15277e-09
4.83173e-09
1.88949e-08
0.00151957
0.00111101
2.73791e-08
6.16003e-09
6.73665e-05
-0.000796881
1.77269e-10
0.000402126
-3.93776e-06
-6.66681e-13
-1.68403e-08
-2.64991e-09
0.000910822
3.22482e-09
1.44224e-10
1.68978e-05
-5.25248e-05
-1.01989e-10
-5.46149e-05
-5.34767e-09
7.09716e-10
4.94695e-05
-1.96917e-10
0.000997329
-4.83429e-11
-7.96397e-08
-9.26058e-11
-2.94371e-11
2.61767e-11
4.51335e-09
1.02356e-08
-2.01729e-05
4.84909e-09
0.00253686
1.06154e-08
9.22801e-05
-2.35387e-06
-4.6949e-09
-1.33763e-10
-0.000360657
-5.11604e-10
-3.05369e-05
5.5414e-11
0.000349982
-2.22659e-08
1.15185e-05
-1.51623e-08
0.000248603
-5.75843e-11
-3.02856e-05
-3.86347e-07
1.43631e-08
2.64509e-07
7.63826e-10
8.86876e-08
0.00374757
-1.5171e-10
9.90152e-11
-2.03995e-10
3.00161e-11
7.31114e-07
0.000134368
-9.32012e-13
-1.57518e-08
9.54981e-10
0.000993321
-1.0003e-11
2.93056e-11
2.70063e-09
1.96502e-09
-4.25443e-05
1.63223e-07
-9.08901e-07
-2.09291e-11
-6.05744e-10
-2.5938e-05
-7.70469e-10
-4.39269e-10
1.81798e-10
1.31742e-08
2.50368e-11
-4.95976e-10
-3.06256e-10
-1.33906e-10
5.62418e-09
-0.00124552
-3.79367e-07
7.92802e-11
2.4909e-06
-1.63461e-11
4.74016e-09
-4.40431e-10
3.62453e-09
-7.25745e-05
-1.47305e-10
-0.00170056
-1.51178e-11
-2.7563e-08
7.26356e-09
-7.389e-11
-1.60074e-10
-2.20189e-06
-1.0572e-11
1.16667e-08
1.8248e-09
4.25604e-09
6.3297e-10
1.2281e-10
7.14813e-05
2.08512e-08
0.000165318
-0.000265558
2.78274e-10
8.21035e-05
2.59156e-08
3.55756e-09
-3.17175e-10
2.01333e-09
0.000156309
-1.31193e-11
5.1391e-09
-6.53913e-12
-2.693e-10
1.21727e-10
9.17133e-06
6.84764e-09
-2.41402e-10
-2.20807e-10
4.18316e-10
4.20042e-10
5.38316e-10
1.62681e-10
-2.41881e-10
-1.93456e-10
1.41249e-11
1.62913e-08
3.5319e-10
0.000595937
-1.24089e-10
3.00814e-07
-1.59749e-11
3.5108e-09
-2.79144e-10
1.90898e-08
1.73807e-09
8.79301e-09
0.000318175
5.38357e-09
1.8965e-10
2.62062e-08
0.000451242
5.81427e-07
-1.66913e-12
2.39124e-08
5.9599e-11
-5.8249e-05
-0.000736203
1.69628e-05
4.25877e-10
-0.000469761
2.29994e-09
5.81048e-12
7.25594e-08
-1.8898e-10
-0.00028318
-2.62216e-11
1.87529e-08
1.55273e-10
-5.33217e-11
0.000177025
-5.07637e-05
-3.05571e-10
-1.08033e-10
5.56978e-07
2.90358e-05
0.000715081
-1.46046e-10
3.92001e-07
1.96651e-09
0.000248624
-1.04071e-10
-5.75465e-05
-4.9633e-09
1.91051e-11
-8.19131e-10
2.09288e-08
0.00455782
2.01815e-11
6.77996e-10
0.00159292
2.34686e-09
1.30501e-10
1.35314e-08
1.75393e-09
1.63123e-09
-1.65838e-05
-4.30485e-10
1.06818e-10
2.59106e-10
-1.38317e-10
2.83188e-06
4.54012e-09
1.36669e-05
6.4856e-05
2.16717e-11
-0.00141134
-1.89631e-10
-0.000725661
9.27118e-10
7.20579e-12
-3.47215e-10
-0.000991135
-7.80187e-11
-3.33992e-10
-3.10735e-10
0.00205991
1.81206e-10
-3.95517e-10
4.77832e-08
8.20402e-11
8.46071e-11
-3.39128e-10
-5.41638e-10
0.00015497
1.34724e-10
4.13837e-10
-7.85129e-06
9.7128e-11
-5.02972e-06
-1.18952e-11
4.1964e-11
-1.16569e-05
1.4478e-08
-1.29083e-09
2.09576e-11
7.57988e-10
1.03154e-12
2.14195e-08
-2.77612e-05
2.85809e-10
3.16639e-09
1.98169e-12
0.00118838
4.97289e-10
4.95097e-10
-1.89629e-10
2.66799e-09
2.334e-10
1.17962e-08
-1.58109e-10
-4.27231e-06
-1.14074e-12
0.00115714
4.88988e-09
1.24783e-09
-8.91022e-12
6.68248e-05
1.4515e-09
-7.05723e-07
-7.18846e-11
2.22953e-09
3.81347e-09
0.000490698
0.00155919
-2.17442e-05
8.13624e-11
1.54015e-11
1.17037e-08
-2.89472e-05
1.33897e-08
2.62645e-07
1.27302e-10
7.68148e-08
-1.12876e-08
-4.35081e-05
3.05089e-09
2.73097e-09
0.000569068
2.18071e-11
0.000319529
8.03937e-09
-6.54617e-11
4.2721e-10
1.4173e-09
1.09326e-08
9.0252e-05
1.86543e-09
-5.06431e-08
5.75536e-09
0.000217146
0.00028183
-6.74688e-10
-1.85897e-10
-0.000892141
3.98711e-10
-1.8695e-10
0.000194664
-6.78479e-05
1.66645e-08
-3.65925e-06
-2.0512e-10
-2.64775e-10
-1.00505e-05
7.53053e-08
2.85698e-08
6.60599e-11
-2.08319e-11
6.43134e-07
2.71619e-10
-2.51774e-10
1.32242e-10
-7.02435e-11
1.69203e-08
-2.80464e-10
4.33716e-06
4.1269e-10
0.00150468
1.48185e-08
4.80292e-09
8.10979e-09
-6.60825e-05
-2.04161e-08
5.56202e-09
2.54815e-10
1.19437e-09
-3.21449e-10
1.54382e-09
4.31724e-10
-6.08997e-05
-4.44812e-06
-1.85225e-10
-2.41846e-05
2.33432e-10
4.33938e-09
-0.000652067
-5.39805e-05
-6.83265e-11
-5.02328e-10
-0.000493062
-2.99323e-05
0.00161781
-6.58594e-10
-3.26082e-10
-2.22493e-07
-1.977e-10
5.62918e-09
4.36609e-10
-2.75302e-05
1.96362e-06
-2.62292e-05
-6.832e-11
8.16214e-10
3.9095e-09
2.12442e-05
-5.41753e-11
1.94857e-11
7.86832e-05
-5.99267e-05
1.67225e-10
-8.71325e-11
-1.75627e-11
3.90974e-08
5.57159e-09
-1.11534e-06
-1.44965e-10
-2.72377e-05
3.79175e-10
0.000351682
-2.01546e-12
3.48751e-07
4.04816e-10
-2.11562e-11
1.87549e-08
9.82074e-11
3.68717e-08
7.18838e-10
4.88321e-08
0.00012585
0.000141639
-6.55329e-06
9.30626e-11
0.00354693
1.35032e-08
-0.000597053
1.3581e-10
-2.80487e-08
8.30623e-10
-6.19052e-07
0.00313944
2.98469e-08
5.67687e-10
-2.56706e-05
0.000811798
3.69495e-12
-7.33546e-12
-7.98628e-10
-2.26866e-10
-1.61215e-06
4.2361e-10
-4.25994e-11
-6.22601e-11
-6.51237e-08
-3.11348e-12
-5.21832e-12
1.83447e-09
2.54213e-10
-4.60944e-12
1.14765e-07
-1.19874e-10
-1.20845e-10
1.05441e-08
7.70144e-11
3.20008e-05
1.6244e-09
1.32141e-10
-3.12786e-11
6.6028e-08
-8.04857e-11
3.34422e-07
-0.00014789
-9.33347e-10
-1.38482e-05
-4.00454e-10
-2.73304e-11
4.47426e-09
2.02617e-10
-5.10272e-05
3.32414e-09
6.89979e-10
2.35591e-08
0.000238155
2.32502e-10
9.79416e-05
2.8605e-08
2.16788e-09
6.55294e-07
-1.83278e-05
1.04696e-08
-3.12071e-11
-8.26484e-11
-1.01255e-09
0.000824285
1.79806e-11
-3.33661e-11
-2.30709e-08
0.00042749
-3.42944e-05
-0.0013698
8.08274e-12
3.39992e-10
-3.97571e-06
5.51261e-06
0.00124887
0.000124593
-7.42291e-05
-2.88069e-10
-2.15907e-07
1.70013e-10
3.2208e-10