/*--------------------------------*- C++ -*----------------------------------*\
| =========                 |                                                 |
| \\      /  F ield         | OpenFOAM: The Open Source CFD Toolbox           |
|  \\    /   O peration     | Version:  v2012                                 |
|   \\  /    A nd           | Website:  www.openfoam.com                      |
|    \\/     M anipulation  |                                                 |
\*---------------------------------------------------------------------------*/
FoamFile
{
    version     2.0;
    format      ascii;
    class       surfaceScalarField;
    location    "200";
    object      phi;
}
// * * * * * * * * * * * * * * * * * * * * * * * * * * * * * * * * * * * * * //

dimensions      [0 3 -1 0 0 0 0];
oriented        oriented;


internalField   nonuniform List<scalar> 
27055
(
-0.00743694
0.00743694
-0.261219
-0.461134
0.33661
0.124524
-0.358465
0.164415
0.19405
-0.0286241
-0.0577565
0.0863806
0.0825878
-0.0375668
-0.045021
-0.184575
-0.081309
0.265884
-0.433977
0.373372
0.0606057
0.112094
-0.0238573
-0.0882367
-0.0935405
0.0649165
0.0186844
0.199768
-0.218453
0.130055
-0.148279
0.018224
-0.112423
0.00764625
0.104776
-0.0439263
0.0428344
0.0010919
-0.106556
0.120582
-0.0140255
-0.070489
0.0939592
-0.0234702
-0.479243
0.477267
0.00197584
0.0826699
0.324348
-0.407018
-0.366492
0.223243
0.14325
0.0957255
-0.0829289
-0.0127966
0.0377427
-0.0665201
0.0287773
-0.0618252
0.231887
-0.170062
-0.208888
0.227573
0.243393
-0.231172
-0.0122211
0.128367
-0.053297
-0.0750701
0.0541999
0.0741671
0.0859073
0.248417
-0.334324
0.0507556
0.0318322
-0.345423
0.428093
-0.169182
-0.291952
0.34178
0.205798
-0.547578
-0.00661325
0.00757763
-0.000964372
0.264138
0.138434
-0.402572
-0.00165667
-0.00163914
0.00329581
0.0390398
-0.0389336
-0.000106216
-0.0504964
0.075334
-0.0248376
0.0352004
-0.0353207
0.000120251
0.481912
-0.179471
-0.302441
0.0202539
0.0238393
-0.0440932
0.54822
-0.285279
-0.262941
-0.00727502
2.30777e-05
0.00725194
0.131955
-0.141868
0.00991321
0.00802015
-0.079971
0.0719509
0.0254664
0.00845681
-0.0339232
0.275036
0.161925
-0.436961
0.026292
-0.0483227
0.0220307
-0.25945
-0.104229
0.13804
-0.00608521
-0.0889004
0.0667043
0.0221961
0.188967
-0.291251
0.102284
-0.371834
0.326227
0.0456073
0.391755
0.0666167
-0.458372
0.00520983
-0.00674007
0.00153024
0.11787
-0.124734
0.00686398
0.039222
0.0575609
-0.0967829
0.095551
-0.0456423
-0.0499087
0.00631992
-0.314202
0.307882
0.39535
-0.225729
-0.16962
-0.00711611
-0.000924081
0.00804019
0.187632
-0.286587
0.0989549
-0.127394
0.020837
0.446874
-0.171838
-0.0900512
-0.0327776
0.122829
-0.164003
-0.194462
-0.0896004
-0.0246277
0.114228
-0.125082
0.205991
-0.0809095
0.00688088
-0.00773637
0.000855487
-0.00455626
-0.00205699
-0.235028
0.320935
-0.210982
0.120931
-0.27822
0.28454
-0.448435
0.341513
0.106922
0.00638965
0.00118798
0.0295572
0.0279692
-0.0575263
0.140049
-0.0520066
-0.0880421
0.0606322
-0.00112555
-0.0595067
0.111794
0.0559862
-0.167781
0.188941
-0.238302
0.0493612
-0.0221761
0.0221761
-0.177763
0.244288
-0.0665258
-0.00718522
0.00262896
0.103411
-0.00993888
-0.0934719
0.0123894
-0.126489
0.114099
0.141673
0.0994334
-0.241107
0.0493734
0.0121313
-0.0615046
0.0541648
0.0413862
-0.432439
0.330304
0.102135
-0.173725
-0.192768
0.0981148
0.00529598
-0.0903836
-0.0236674
0.114051
-0.378792
0.205067
-0.329997
0.232229
0.0977679
-0.0742982
0.416078
-0.0367336
0.0907021
-0.0539685
-0.174985
-0.203807
-0.080821
-0.130161
0.0998816
-0.336807
0.236925
-0.290221
0.192143
0.0980782
0.00639827
0.0470002
-0.0533985
-0.334069
0.179625
0.154444
-0.0816383
0.105742
-0.0241033
-0.00836219
0.126232
0.0658957
-0.0385293
-0.0273664
-0.0979803
0.0183367
0.0796436
-0.0706897
0.0201933
-0.11159
-0.0119389
0.123529
-0.383753
0.21457
0.0350006
0.0484821
-0.0834827
-0.513627
0.513627
0.129753
-0.162531
-0.228116
0.103034
0.0676238
-0.0487414
-0.0188824
0.103016
0.179805
-0.282821
-0.273658
0.0890833
-0.320868
-0.0509666
0.141083
-0.15566
0.0145774
0.0141618
-0.110131
0.0959696
0.0433896
-0.0170976
0.11912
-0.102068
-0.0170522
-0.150575
0.146077
0.00449743
0.132546
0.254835
-0.387382
0.262745
0.219167
-0.0326796
0.0271594
0.00552017
0.0719311
-0.026196
-0.0457351
-0.00414471
0.0357547
-0.03161
0.0930107
-0.0849905
-0.0357817
-0.0656156
0.101397
0.290024
-0.467011
0.176987
-0.0233163
0.061059
0.0126817
0.054942
-0.368407
0.318495
0.0499116
0.247681
-0.0648609
-0.18282
0.0173407
0.101779
0.349888
-0.036811
-0.313077
-0.00189765
0.00710747
0.0494144
0.0112179
-0.0840411
-0.00485924
-0.257015
0.50706
-0.250045
-0.283016
0.194415
0.0886014
0.0219781
0.0228309
-0.044809
-0.0719972
0.111219
-0.152588
0.040998
0.00955486
-0.00045628
-0.00909858
-0.172257
0.348115
-0.175858
0.137356
-0.0556361
-0.08172
-0.0128042
-0.102062
0.114866
-0.127478
8.48743e-05
-0.238634
0.497989
-0.259355
0.00470043
-0.0302506
0.0255501
-0.0954986
0.0810328
0.0144658
-0.00850999
0.0121153
0.122238
-0.133153
0.0109149
-0.0132439
0.101786
-0.0885422
-0.0499499
0.161744
-0.110091
0.0197079
-0.00646167
-0.000813345
0.100997
-0.0745469
-0.0264499
-0.10702
0.0174196
-0.0494656
0.0552579
-0.00579233
-0.0953842
-0.149157
-0.112061
0.319082
0.030806
-0.0815803
0.00672782
0.00015306
-0.0479941
0.0147489
0.0332452
0.334823
-0.19441
-0.140412
-0.0781747
0.0954137
-0.017239
0.00924206
0.000312808
-0.170278
0.0189577
0.151321
-0.0555857
0.00990035
0.0456853
-0.0283042
-0.192668
0.220972
-0.334074
-0.0999037
-0.0289323
-0.339474
0.185856
-0.160335
-0.0347189
0.195054
-0.0246301
0.0246301
0.21337
-0.0716965
0.367082
0.0499378
-0.417019
0.0367932
0.00224659
-0.237323
-0.0945038
0.331827
-0.0864334
0.0669597
0.0194737
-0.0288619
0.0491158
-0.375298
-0.0731373
0.026081
0.0398147
0.0114283
-0.0114283
0.237557
-0.159079
0.243825
-0.0847458
0.000940823
0.0484326
0.376184
0.172036
0.0248457
-0.0263157
0.00147008
0.166338
-0.0603009
-0.106037
0.350922
-0.156039
-0.194883
0.0185535
0.0065422
-0.0358266
0.0292844
0.144377
-0.316634
0.00949696
-0.205365
0.195868
-0.195105
0.298122
-0.0190059
-0.188717
0.207723
0.429186
-0.0186685
-0.410518
-0.101864
0.3311
-0.229236
0.254712
0.222585
-0.477296
-0.134814
0.153387
-0.0185728
-0.106563
0.0286254
0.0779372
0.0572692
-0.0311573
-0.0261119
-0.068454
0.103455
-0.00371841
0.000252609
0.00346581
0.0179252
0.0548234
-0.0727486
-0.00527368
-0.00389181
0.00916548
0.0835694
-0.0629639
-0.0206055
0.0259559
-0.131646
0.10569
-0.199824
0.349623
-0.149799
0.00396983
-0.131448
-0.105532
0.0238937
0.060647
-0.0542487
0.065153
0.00445469
-0.0696077
-0.150065
0.0152513
-0.0957375
0.0824936
0.317008
-0.0847794
-0.28532
-0.0984323
-0.162218
-0.128003
0.0387311
-0.0340306
-0.0829934
-0.203594
-0.00678861
0.0153355
-0.00854694
-0.00532026
-0.135601
0.140921
-0.0333392
0.462526
0.238494
-0.266798
-0.0119292
0.20183
0.0415625
0.137245
-0.374568
-0.401811
0.342169
0.0596421
0.33878
-0.149646
-0.189135
0.00969329
-0.179972
0.0107321
0.024576
0.0764208
-0.168968
0.433106
0.0152911
-0.0466171
0.031326
-0.145784
-0.0317865
0.17757
0.11664
-0.0499742
-0.0666659
0.300586
-0.111619
0.138413
-0.514394
0.375982
0.207506
0.131274
0.0185574
-0.0486587
0.0301013
0.0922466
0.0243935
0.119046
-0.0289963
-0.0900499
0.031338
-0.00587164
-0.043797
-0.0117887
-0.514503
0.204168
0.310336
-0.0108341
0.00963677
0.00119738
0.0200925
0.000334782
-0.0204273
0.143055
0.0173308
-0.160386
-0.00723084
0.0695243
-0.0622934
0.0865892
-0.0524968
-0.0340924
0.320488
-0.167841
-0.152646
-0.0879092
0.0249453
0.225186
-0.215689
-0.0245371
0.0237506
0.000786531
0.0302163
-0.0556761
0.0254599
-0.0152143
0.00842569
-0.0442046
0.0563359
-0.085737
-0.00069648
0.196317
-0.145054
-0.0512626
-0.0905879
-0.0341462
0.0702844
-0.0863853
0.0161009
-0.0571276
0.424209
-0.0775246
0.282539
-0.205015
-0.522275
0.403127
0.119148
0.0276376
-0.0331788
0.00554115
-0.0486964
-0.000769172
0.0409469
0.0672965
-0.0637846
-0.00351193
0.149625
-0.214486
0.00182672
-0.0034834
0.0365505
-0.0722227
0.0356722
-0.44977
0.452163
-0.00239308
0.214931
0.105557
0.0241897
-0.0228845
-0.00130517
0.134749
-0.12236
-0.156569
-0.0683929
0.224962
-0.272544
0.410957
-0.0258318
0.0216871
0.0205999
0.00792453
-0.0285245
-0.00949228
-0.0963115
0.257542
-0.16123
0.0323326
-0.0191382
-0.0131945
0.0850071
-0.0183028
0.0737936
-0.219577
-0.0715659
-0.0143392
0.0859051
-0.0316009
-0.00346593
0.0350668
0.196952
-0.123113
-0.073839
0.106996
-0.0928344
0.152796
0.198126
-0.0804793
0.120721
-0.040242
0.00467344
0.0201722
0.00693851
0.123117
-0.0196304
-0.00390101
0.0711975
0.0118911
0.0204416
0.278853
-0.195512
-0.0833405
0.290374
0.156501
-0.181171
0.165134
0.0160376
-0.18418
0.1967
-0.0125198
-0.484644
0.0602793
0.424364
0.0268489
-0.0449811
0.0181322
-0.0845427
0.0165505
0.0679922
-0.431507
-0.0531371
0.1437
0.25165
-0.129033
0.012969
-0.103681
0.147603
-0.043922
-0.402408
-0.0768351
0.0427573
-0.0362151
0.0655057
0.0535405
-0.115492
-0.248361
0.363853
0.00240826
-0.0842273
0.0818191
0.0910534
0.115767
-0.206821
-0.262708
0.166397
0.0657901
0.0223408
-0.0270955
0.00475472
-0.21114
-0.112876
0.324016
0.0470413
-0.0317502
0.413884
-0.146486
-0.267398
-0.0416368
0.0138682
0.0277686
-0.151311
-0.00434941
-0.105952
0.128678
-0.0227258
-0.0084616
-0.0325782
-0.06125
0.0938282
0.144237
-0.223652
0.0794155
-0.0836395
-0.169281
0.0179703
0.143331
-0.159692
0.0163611
0.116131
-0.13141
0.0408218
0.237275
0.0573067
-0.294581
-0.073007
0.0937993
-0.0207923
0.0184995
-0.0266916
0.00819215
-0.0772514
-0.00500898
0.0822604
-0.00562769
-0.00250339
0.00813108
-0.0582744
0.07367
-0.0153956
0.0651725
-0.0341049
-0.0310676
-0.333213
0.0981847
0.126808
-0.100852
-0.155078
-0.246733
-0.0517913
0.0697165
-0.0883603
-0.426143
-0.348585
0.511598
-0.163013
-0.327974
0.116835
-0.0803582
0.0768756
0.00348254
-0.00922141
-0.00264596
0.0118674
-0.1174
0.103061
-0.11207
-0.0169628
0.10914
0.0898432
-0.198983
0.0761956
-0.042766
-0.0334296
0.11885
-0.0491246
-0.0697255
0.0706234
-0.103202
0.288735
-0.296737
0.00800163
0.112716
-0.121435
0.00871878
0.10594
-0.120617
0.0146765
0.0230785
-0.0598121
-0.0101382
0.00993828
0.000199885
-0.457649
0.0599249
0.397724
-0.0819312
0.369327
-0.287396
0.0694355
-0.0146121
0.0222324
0.0707783
0.000966886
-0.00808299
0.182934
-0.00652439
-0.000912554
0.0885187
0.0778196
-0.101963
0.0704699
0.0314927
-0.0106527
0.00143126
-0.136598
0.124659
0.0356967
0.0294758
0.0685586
-0.0216104
-0.0469482
0.0466972
-0.0689859
0.0222887
0.0425143
-0.191672
-0.00404898
0.000167846
0.00388114
-0.311754
0.209891
-0.224507
-0.109563
-0.221734
0.298711
-0.076977
0.273354
-0.454116
0.180762
-0.0788273
0.00833825
0.0833889
-0.0333178
-0.0500711
0.000647157
0.0980663
-0.0987134
-0.12322
0.0427406
0.29736
-0.480044
0.182684
-0.310715
0.162903
0.147812
0.0176202
0.00247234
0.147121
-0.00379054
-0.219272
0.00818131
0.21109
0.423281
-0.149927
0.34504
-0.197235
-0.147805
-0.137729
0.127242
0.0104874
-0.0487637
0.0904112
-0.0416474
0.0721629
-0.00421999
-0.067943
-0.0329574
0.0027068
0.157391
-0.0102696
-0.0335095
-0.00501516
0.0385247
0.166274
-0.0232181
-0.0190402
-0.0136394
-0.433759
0.0584606
0.0201215
0.0371477
0.323708
-0.447481
0.123773
0.0630417
-0.0163445
0.0870469
-0.0218939
-0.043535
0.130041
-0.0865064
-0.0141709
0.0326704
-0.0105037
-0.373273
-0.0843754
0.132347
-0.109566
-0.0227813
0.525284
-0.133528
0.327412
-0.0926781
-0.234734
-0.00712547
-0.0553842
0.0625096
-0.0183223
-0.0233145
-0.00148647
-0.00256252
-0.147738
0.0440572
-0.149603
-0.0196782
-0.0133527
-0.0305736
0.0766703
-0.0647396
-0.0119306
-0.479033
0.118752
0.360281
-0.467772
0.447598
0.0201742
0.0399999
-0.0180218
-0.139906
0.1209
0.140658
-0.12338
-0.0172779
0.10046
-0.0776062
-0.0228541
0.119359
0.0237416
-0.143101
-0.0915991
-0.198715
0.290314
0.041303
-0.0227455
-0.0889782
0.0950468
-0.00606854
0.075156
0.0648927
0.114484
-0.134646
0.0201618
-0.0313228
-0.0706398
0.043635
0.0520905
0.226726
0.104304
-0.331031
-0.0371954
-0.0468458
-0.00156265
-0.00857552
-0.223257
0.0666871
-0.0962255
0.0232185
-0.3423
0.260369
0.208616
0.205268
0.243956
0.0982129
-0.197035
0.0438895
0.153145
-0.301428
0.137425
-0.0915308
-0.0150318
0.0132637
-0.0783473
0.0650836
-0.0120847
-0.0729253
0.102172
-0.029247
-0.249719
0.09064
-0.100673
0.0277473
0.0721704
0.0895832
-0.161754
-0.24909
0.071328
0.109312
-0.116773
0.00746132
-0.0928897
0.0147149
0.00918761
-0.040256
0.0310684
0.167644
-0.229059
0.0614152
-0.255315
0.392924
-0.137609
0.253835
-0.0322375
0.0624538
-0.0172348
0.278602
-0.261368
0.0057609
0.000394908
-0.00615581
-0.392537
-0.0752355
0.0830422
-0.0464916
-0.105052
0.0922476
-0.276438
0.184838
0.0692066
-0.0731718
0.0039652
0.180382
-0.108212
-0.0351951
0.0605569
-0.0253618
0.0294399
-0.297008
0.267568
0.135373
0.199449
0.046066
0.252317
-0.298383
0.0616514
-0.139128
0.0774764
-0.114518
0.00209511
-0.104405
-0.111745
-0.367288
0.0436234
-0.0344358
-0.0660974
-0.0195552
0.0856526
-0.105389
0.0851777
0.0202111
0.0237286
0.0484343
-0.0720987
-0.0125769
0.0846756
-0.247984
0.190997
0.0569873
0.0449119
0.016464
-0.061376
-0.00813835
0.00251067
0.146918
0.049399
-0.0979922
0.0787075
0.0192847
-0.149405
0.15974
-0.0103358
-0.22986
0.362407
0.139489
-0.0201296
0.268982
-0.525997
0.0977815
-0.0682939
-0.0294876
-0.148223
0.164399
-0.016176
0.0420206
-0.187075
-0.0353972
0.0037963
0.143327
0.0140638
-0.0169216
-0.342707
0.359629
-0.0588001
0.0516747
-0.234877
0.217643
-0.156842
0.00723965
0.0856641
-0.0864928
0.000828762
-0.0163939
-0.0725843
0.133685
0.219021
-0.352706
0.0421865
0.0263721
0.0246496
-0.0631789
-0.423885
0.0214778
-0.0988801
-0.202548
0.125926
0.0564172
-0.182343
-0.137048
0.146741
-0.0793601
0.0569905
0.0223696
0.0101722
-0.00023397
-0.0361878
-0.0495492
0.373487
-0.165597
-0.20789
0.206095
-0.217494
0.0113982
0.312348
0.0799272
-0.392275
-0.0870386
0.21459
-0.127551
0.0427809
0.000608695
-0.0168415
0.184485
-0.164154
0.0073115
0.00990669
0.0252938
0.408184
-0.28194
-0.126245
0.174831
0.198655
-0.252446
0.0331739
-0.0219898
0.0860312
-0.0640414
0.178209
-0.244091
0.0658822
-0.147689
-0.163417
0.311106
-0.166036
0.0289876
-0.0838795
0.0080901
-0.00192932
-0.0133013
0.0152307
0.00706375
-0.00932783
0.00226408
-0.255685
0.199273
0.0564118
0.21121
0.244409
-0.341031
0.096622
-0.165113
0.159792
-0.00048042
-0.406513
0.205673
0.20084
0.0570445
-0.0928262
-0.0101535
0.0879619
-0.00229782
0.00406117
-0.00741302
0.00335185
-0.114072
-0.319687
0.0774023
-0.0450595
-0.0323429
-0.0874232
0.331832
0.0366375
-0.0621522
0.0549214
0.192078
-0.00313719
-0.0922428
0.0434791
-0.0848244
0.397172
-0.158284
0.448308
-0.0461025
-0.377783
0.0900832
-0.0672964
-0.0227868
0.0253175
-0.00471753
-0.101354
-0.000713977
-0.0827591
-0.224094
0.306853
-0.0123674
-0.064884
-0.0729926
0.095225
0.109151
0.221948
0.207443
-0.0292345
0.264389
-0.28131
-0.027739
0.0290351
-0.00129602
0.00934716
-0.00166959
-0.00767757
0.135815
0.113494
-0.249309
-0.0620537
0.165188
-0.103134
0.241367
0.0468824
-0.28825
0.0483113
0.029091
0.0483148
-0.0481621
-0.000152632
0.350367
-0.447055
0.0966878
0.00403009
-0.0616272
0.0575971
-0.475214
0.0408607
0.434354
-0.0612496
0.0260545
-0.495041
0.283156
0.211886
0.34418
-0.210496
0.0484931
0.0277025
0.00247367
-0.0270108
-0.0169594
0.398728
-0.297755
-0.100973
-0.0697275
-0.206164
0.275892
0.0269691
0.00448925
-0.0314584
-0.156484
0.00826157
-0.228086
0.0803967
-0.222202
-0.0257821
-0.00606557
-0.029584
0.0356496
-0.0246885
-0.0711519
0.0958404
-0.0501095
0.00243425
0.0476753
-0.237817
-0.0953963
0.00335244
0.0208372
0.0321314
0.241555
-0.273687
0.00451774
-0.060452
0.0945769
-0.034125
0.425604
-0.304678
-0.120926
0.0607039
-0.0826937
0.344842
-0.312711
0.0372822
0.100758
-0.107932
0.00173616
-0.00626686
0.0045307
0.337765
-0.228614
-0.528693
0.249023
0.27967
-0.0737414
0.000569611
-0.247212
-0.185228
0.00981857
-0.0152606
0.00544204
0.171763
0.0169384
-0.188702
-0.00854806
-0.188487
0.00651807
-0.00075717
0.00943618
0.0292949
-0.152625
-0.0285457
-0.0222872
0.19405
-0.3432
-0.062406
0.405606
0.0018324
0.00457652
-0.00640892
0.0333473
-0.322038
0.22854
0.0934978
-0.00542591
-0.0985305
0.103956
-0.145297
-0.261216
-0.00827883
-0.0138973
-0.210947
-0.317745
0.0316726
0.0661089
-0.104125
0.28393
-0.208677
0.121638
-0.104374
0.00302013
0.00327693
0.0719894
-0.0752664
0.113277
0.00339923
-0.116676
0.0734909
0.302833
-0.376324
-0.339618
0.101802
0.0379688
-0.0132723
-0.0246965
0.377916
-0.304425
0.195395
-0.314494
0.136508
0.177986
-0.368567
-0.106647
0.0384174
-0.0226049
-0.0158125
0.00321283
-0.0339668
0.030754
-0.012908
-0.118738
-0.0201642
-0.0627647
-0.0723961
-0.0155131
0.00559522
0.00204272
-0.00763794
-0.0962413
-0.0788825
0.175124
-0.166281
-0.0834378
0.377819
-0.116971
-0.260849
-0.0414367
0.257446
-0.216009
-0.336596
0.292874
-0.409471
-0.0402995
-0.0165735
0.0404128
0.0276273
-0.0172812
-0.0103461
-0.00806304
-0.0399311
0.0301476
-0.00250994
-0.0554977
0.030639
0.0248587
0.116167
-0.136086
0.019918
-0.0614642
0.00947845
-0.0602687
0.0507903
-0.138729
0.489096
0.0649765
-0.055498
-0.041095
0.0800546
-0.0990482
0.0189936
-0.0120166
-0.00244556
0.00804078
-0.150639
0.162247
-0.0116077
-0.114598
-0.196117
0.0130817
0.0145456
-0.257266
0.183542
0.0737234
-0.129409
0.149387
-0.0199785
-0.179002
0.116949
0.00978396
-0.0432935
-0.0852218
0.0701814
0.0150404
-0.106889
-0.207606
-0.0669627
0.0151714
0.00996731
0.0371051
-0.0592214
0.0221164
0.185684
-0.0597573
0.347311
-0.239861
-0.10745
-0.205892
0.144346
0.0615463
-0.133242
0.0628759
0.0703665
-0.212133
-0.029257
0.24139
-0.103874
-0.00819538
0.0607111
0.0397492
-0.343032
0.3141
-0.252257
0.0859757
0.0304708
-0.252205
0.129107
0.311315
-0.440422
0.0210046
-0.00105512
-0.0199495
-0.00963334
0.0346162
-0.0249829
0.33944
-0.14882
-0.190621
0.030182
-0.0491899
0.0853562
-0.0361662
0.00640981
-0.0403766
-0.0180389
0.0959995
-0.0779606
-0.29734
0.390568
-0.0932281
0.00799153
-0.0070018
-0.0891439
0.150795
-0.100471
0.0757826
-0.00957712
0.000186562
0.00939056
-0.322142
-0.0144544
-0.157467
0.00682754
-0.0180499
0.0456493
-0.0275993
-0.0394396
-0.00777191
0.0472115
0.210857
-0.252293
0.120439
-0.132444
0.0120056
-0.00358579
-0.000132624
0.173484
-0.24342
0.0699357
-0.431332
0.329937
0.101396
-0.0402181
-0.0210297
0.0612479
0.0379011
0.00487986
0.101915
-0.0688205
-0.083083
0.0106868
0.0252544
-0.00291361
0.0109688
-0.106111
0.0951418
-0.158381
0.147069
0.0113119
-0.00311767
0.0268264
-0.0237087
0.0242463
-0.0887533
0.064507
-0.00884842
-0.000728696
-0.0916496
-0.0184419
-0.00631945
-0.0045147
-0.0135393
-0.112949
0.340801
-0.24092
0.00706375
-0.0985714
0.474458
-0.375886
-0.102499
-0.306391
0.408889
0.248024
-0.357664
0.10964
-0.00479158
0.00662398
0.0819891
-0.0340022
-0.0479869
0.306503
-0.405762
0.099259
-0.0522231
0.0341732
-0.213756
0.511116
0.130699
-0.117939
-0.0127599
-0.136656
0.0628521
0.0738042
-0.00257522
-0.00675262
-0.0840179
-0.0642616
0.0387719
0.197033
0.0768154
-0.273849
0.0719234
0.211468
-0.283391
-0.0594058
0.296681
0.00729186
0.000860724
-0.00815258
-0.093873
0.0266911
0.0671819
-0.0329034
0.0423396
0.519275
-0.264563
0.0670152
-0.0221033
-0.453348
0.415056
-0.0172902
-0.0482131
0.378518
0.0937478
-0.189989
0.12214
-0.00727429
-0.114865
-0.000132196
0.0820783
-0.0819461
0.526909
-0.269607
-0.257302
-0.0481557
-0.0597766
-0.130407
0.0314966
0.0742451
0.00798707
0.00344126
-0.0169854
0.00367934
0.00566782
0.282065
-0.210141
-0.00120644
-0.0570679
-0.00196301
-0.00333869
0.00530171
-0.101248
-0.00978399
0.00785467
0.0394047
-0.0931958
0.0537912
0.0107152
-0.00107839
-0.0783193
0.0147308
0.0635885
0.0362851
-0.0366835
0.00039844
-0.326761
0.455868
0.134777
0.0296221
0.167954
0.0895876
-0.0682417
0.0857799
-0.0175382
0.0481243
-0.0382216
-0.00990271
0.0524703
0.0194608
-0.264807
0.188464
0.0763434
0.410658
-0.00901483
-0.401643
-0.0181996
0.0209541
-0.00275448
-0.00802998
0.00622909
0.00180089
0.0237032
-0.0498992
0.382824
0.0692871
-0.452111
0.0472811
0.034708
-0.0100497
-0.332982
-0.123266
0.102966
0.0202993
0.000614091
0.0265042
0.092346
0.00938771
-0.0114395
0.00205184
0.243508
-0.0927078
-0.1508
0.0137992
-0.143208
0.00158444
-0.00685812
0.00256355
0.00128835
-0.00385191
0.172984
-0.0382075
0.324931
-0.402371
0.0774404
0.0109701
-0.10262
-0.0520513
0.0154225
0.0366288
-0.0612834
-0.0753729
-0.232574
-0.1147
0.347274
-0.0187586
-0.0413847
-0.0640041
-0.0767732
0.00225069
0.0745225
-0.208841
0.0298391
-0.0806281
0.000269943
-0.478074
0.157643
0.32043
0.445736
-0.0530825
-0.392653
-0.0180974
-0.00859427
0.0145335
-0.0866322
0.0100239
-0.0282235
-0.00416397
-0.0131248
0.0172887
-0.0924925
0.065671
0.0268215
-0.085493
0.0606217
0.0248713
-0.0278671
-0.00745361
0.301495
-0.191462
-0.110033
0.116975
0.0188933
-0.135869
0.0868099
-0.110667
0.0278751
-0.0519467
0.0240715
0.0191346
0.186857
-0.121099
0.00861437
0.0293545
-0.0945747
0.0944425
-0.0111192
0.04567
-0.0345508
-0.106402
-0.437213
0.134075
0.0997912
-0.0894059
-0.0103853
0.00223209
0.239135
-0.0129946
0.0228132
0.0727957
0.0300223
-0.102818
-0.169227
0.148231
0.0209966
-0.041848
0.00987055
0.0319775
-0.0169799
0.11158
-0.0945997
-0.0258986
0.0196304
0.00626819
0.005878
-0.00414183
0.00143246
0.0561664
-0.0575989
-0.0576746
0.0174565
0.0412985
-0.0632102
0.0219116
-0.0762768
-0.162026
0.309026
-0.451654
0.142628
-0.0732506
0.00893509
-0.00487234
-0.00406275
-0.00202459
0.0925696
-0.090545
0.104219
0.0225887
0.00394912
0.0232103
-0.180239
-0.0286029
-0.167057
0.151132
0.0159246
-0.265207
0.214415
0.0507918
-0.00401197
0.00662221
-0.00261024
-0.0535753
0.238946
-0.185371
0.0498125
-0.0202554
-0.0927114
0.0266141
-0.257419
-0.0793876
-0.109809
0.0616536
0.0330423
-0.0111723
-0.00142933
0.0126017
-0.0738104
-0.127363
0.306988
0.314116
-0.0660924
0.0235033
0.0400716
-0.063575
0.402533
0.0450037
-0.447536
-0.136902
0.122656
0.0142458
0.111575
0.245335
-0.356909
0.00802429
-3.27575e-05
0.0433528
-0.203688
0.0577882
0.036171
-0.108173
0.00429878
0.131194
0.0310529
-0.335879
-0.0778957
0.413775
0.169278
-0.18977
0.0204914
-0.0149374
0.358064
-0.152827
-0.205238
0.0745408
-0.179318
0.104778
0.00113382
-0.0391722
0.0380384
0.0113683
-0.000477628
-0.0108907
0.04078
0.079802
0.0537841
-0.00397155
0.0162632
0.409096
-0.42536
-0.386892
0.256808
0.130084
-0.12016
-0.0439943
0.116468
0.29419
0.0292277
-0.0206181
-0.101544
0.00356322
-0.127543
-0.0201953
-0.406427
0.332129
0.104201
0.00907567
-0.106142
0.0373212
-0.479662
0.0234415
0.45622
0.0116275
-0.0147452
-0.0817252
0.0669593
0.0147659
-0.322512
0.414172
-0.0916603
0.35111
-0.468375
0.117264
0.0491063
0.00467778
-0.0353414
0.00211081
0.0332305
0.117625
-0.350199
0.0142837
-0.0447777
0.030494
0.0338848
-0.0590333
0.0251485
-0.24981
-0.0898085
0.509417
-0.260394
-0.00652439
0.018708
0.0197095
0.0768714
-0.0636077
-0.0894051
0.0713662
-0.0609117
-0.0174076
-0.0794542
-0.182278
0.261733
-0.0475415
0.0186796
0.0207608
-0.0173209
-0.00730918
0.00848264
-0.133354
0.124871
-0.154876
0.150747
0.0041292
0.0241895
-0.056427
-0.0780333
-0.0144592
-0.275508
-0.188132
0.46364
-0.00666104
0.115973
-0.0869968
0.0618352
0.233155
-0.380723
0.147568
-0.250997
-0.0972843
0.348281
-0.175145
0.00591727
0.195843
0.0755509
-0.481978
-0.0310285
0.0213952
0.0351199
-0.0628275
0.0277075
0.424675
-0.0221424
0.223065
0.0108462
0.00340855
-0.0142548
0.00592727
0.00489298
0.000842959
-0.00573594
0.252241
0.132505
-0.358235
-0.0238516
0.0577364
0.13409
-0.176885
0.0427951
0.0462783
0.0597475
-0.106026
0.264064
-0.255883
-0.416201
0.0730009
-0.378377
0.447472
-0.0690956
0.381395
0.0930628
-0.00638992
-7.1753e-05
0.320369
0.189048
0.389635
0.366491
-0.133336
-0.362752
0.238129
0.124624
-0.00593138
-0.00220698
0.064709
-0.276842
-0.144756
0.0172131
-0.28846
0.0933545
-0.0734212
-0.0102159
0.0836371
0.0747334
-0.0512543
-0.0234791
0.0761924
0.187872
-0.0229422
0.0488492
-0.025907
-0.0633459
-0.0464634
-0.276174
-0.0814907
0.423565
-0.0069597
-0.416605
-0.161051
0.025485
0.135566
0.22449
0.133575
-0.382725
0.00434816
0.0996889
-0.448274
-0.464674
0.189166
-0.0671674
-0.0106208
0.0777882
-0.0588249
0.105103
0.170717
-0.0395233
0.0568277
-0.0883406
0.0315129
0.0706822
-0.0919148
0.0212325
0.41455
0.212222
-0.000298701
-0.00641028
0.00670898
0.0359843
-0.104625
0.0686405
0.0158183
0.0876507
-0.0896753
-0.0684787
0.0195877
0.048891
0.254503
-0.177804
-0.0766984
0.0945069
0.314589
-0.00375735
0.0109424
0.00857196
-0.0440504
0.147762
-0.103712
-0.128024
0.310499
-0.182476
0.0515373
-0.00964147
-0.0418958
0.00307337
0.0179313
-0.0836741
-0.318697
-0.0510027
0.116607
-0.065604
-0.00314273
-0.00488725
-0.00909565
0.0298746
-0.020779
0.125332
-0.150085
0.0247532
-0.0876104
0.105947
0.108923
0.0864287
-0.195351
0.000919898
0.0141325
-0.0150524
0.465916
-0.3993
0.298646
0.177545
0.0628936
-0.0277737
0.00578915
-0.00542158
0.00693746
-0.000209635
-0.0701747
-0.0187941
0.0889688
-0.0508602
0.0620433
-0.0111832
-0.0742445
-0.328986
0.258217
0.0707693
-0.359863
-0.135178
-0.123317
0.14102
-0.0177021
-0.0412262
0.0654157
0.199844
-0.327868
-0.00864288
0.00547637
0.00316651
-0.168646
0.0233059
0.14534
0.0254324
0.0367057
-0.0621381
0.00576736
-0.349829
0.10002
0.0314496
0.0200877
-0.0893114
-0.0867932
0.161334
-0.099569
0.0687342
-0.0813111
-0.191527
-0.330748
-0.253064
-0.109689
0.133057
-0.0160815
-0.03809
0.0523738
-0.00706843
-0.123204
0.130272
-0.0193043
-0.0361934
0.492617
-0.344169
-0.148448
0.0798275
-0.196488
0.11666
0.0981385
-0.0253428
-0.0849131
0.00687977
-0.107849
0.111248
-0.00525445
0.0410092
0.0300755
0.0697157
0.0726485
0.0180535
-0.269014
0.18956
0.0272927
-0.0408835
0.0135908
-0.0433532
0.0410699
0.00228323
0.0681942
-0.0510209
-0.0171733
-0.0654372
0.014577
-0.0388973
-0.00678358
0.0456809
0.28167
-0.00725076
-0.00139213
0.120277
0.0144723
0.0941683
0.194035
-0.288203
0.0150263
0.0578822
-0.0729085
-0.0313783
-0.00649762
0.0378759
-0.000762516
-0.00562741
0.120599
0.0762654
-0.196864
0.0158412
-0.022486
0.43961
-0.217026
0.0336614
0.0192401
-0.0529015
0.117184
0.00493198
0.0172442
-0.413598
0.0862112
-0.0293834
0.112679
0.0172357
-0.129915
-0.0474951
0.00243561
0.053199
0.196735
0.00936054
-0.00767778
-0.0354833
-0.177093
0.212576
0.0407312
-0.00303522
0.0070964
0.469797
-0.328334
-0.141463
0.171611
-0.265688
-0.147704
0.0243864
0.0902782
-0.107258
-0.133155
0.17382
0.0044072
-0.178227
-0.0384994
0.0425295
-0.130718
0.221772
-0.0585195
0.0143148
-0.0047449
0.110685
0.063799
-0.0824857
0.0186867
0.175737
-0.0236959
-0.152041
0.107005
0.093308
-0.200313
-0.00566058
0.00369757
0.138459
-0.0377004
-0.386996
0.110822
0.0265911
-0.0495333
-0.0354476
0.0024791
-0.0063709
0.00104894
-0.00731849
0.00626955
-0.0394425
0.00985841
0.104589
-0.12188
0.0172915
-0.126708
0.509532
-0.306183
0.511981
-0.0795279
0.195295
0.241454
0.0692295
-0.310683
-0.00239655
0.0642318
0.00530944
0.00162802
-0.011503
-0.0520183
0.0635213
-0.355558
0.341468
0.0140903
-0.0699213
0.0775676
0.00450772
0.00275478
-0.0072625
0.0296333
-0.0449634
0.0153302
0.275418
-0.102448
-0.103444
-0.0334469
0.0100113
0.0234357
0.0551929
-0.0215316
0.0954242
-0.117116
0.021692
0.0953045
0.0113837
-0.106688
0.109109
0.169743
-0.191847
0.156363
-0.0150642
-0.11738
0.0192585
0.00537165
-0.043727
-0.231418
0.275145
0.0102216
-0.00474519
-0.232268
0.262739
0.152676
0.00647403
0.000385172
-0.0068592
-0.029202
-0.0498208
0.0790228
0.116677
0.12683
-0.555578
0.235254
0.320324
-0.125614
-0.0244518
-0.0808885
0.0969152
-0.0160267
0.0968457
0.0101505
-0.106071
0.062536
0.277458
-0.19068
-0.0867774
0.2966
-0.209709
-0.0868912
0.187718
0.0312099
0.00828104
-0.0394909
-0.0758663
0.0903998
0.0895505
-0.0949764
0.015929
-0.0349692
-0.156133
-0.0125131
0.397736
-0.283359
-0.114377
-0.226512
-0.0378461
0.264358
-0.103413
0.0818394
0.0215732
0.0284524
-0.0964037
0.0679513
0.10771
-0.308065
0.200355
0.139077
-0.142023
0.00294578
0.0401567
-0.129301
0.0450804
0.358047
-0.451407
0.24057
0.210837
-0.398638
0.280759
0.117879
0.362225
-0.124454
-0.237771
-0.278396
-0.173011
-0.083494
-0.0235259
0.0340334
0.314082
-0.0420812
0.0409556
-0.0469021
-0.137278
-0.116521
0.134819
-0.0182981
0.0166432
0.0705951
-0.0872383
0.0562208
0.140479
0.31185
-0.0703961
-0.0226708
0.0538807
-0.0159073
0.172451
-0.156544
-0.0025652
-0.00710369
0.0096689
0.162348
-0.222243
0.0598953
-0.163517
0.0119429
0.151574
-0.0575137
0.082384
-0.0248703
0.238149
-0.426099
0.18795
-0.0130619
0.00188959
0.19404
-0.164601
0.0906365
-0.0204551
-0.0029053
-0.0220807
-0.0212724
0.0141932
-0.130714
0.13116
-0.0878838
-0.0432759
-0.286183
-0.142717
0.4289
-0.00609476
0.00798946
-0.0103053
0.0613887
-0.0510834
0.136876
0.159724
-0.0637365
0.258152
-0.0664837
0.252976
-0.186492
-0.00725248
0.00232352
0.00492896
0.134057
0.00998922
-0.144047
0.0625612
0.0208277
-0.00642929
-0.0213098
0.194464
-0.184692
-0.0639816
0.248674
0.0107969
0.317498
-0.328295
0.00830906
-0.00144937
-0.00685969
-0.121869
0.129755
-0.00788552
-0.112613
-0.0220292
0.0349018
0.0551814
0.00155379
0.00100977
-0.076625
-0.0535337
-0.0171559
-0.00704719
-0.0261997
-0.00216257
0.0283623
-0.0667706
0.373274
-0.440419
0.383291
-0.0312601
0.0566925
-0.00438571
-0.0182622
0.0226479
0.0766713
0.0123889
-0.0795563
-0.259249
0.00774238
-0.0811636
-0.363866
0.334501
0.0293651
-0.292812
-0.0710544
0.0767109
-0.00607657
-0.000635839
0.00671241
-0.316929
0.327726
-0.297477
-0.101161
0.239386
-0.283113
-0.00600367
-0.349554
0.00484644
0.0436467
0.350022
-0.232397
0.025703
0.059304
-0.344592
0.1228
0.221792
-0.104917
0.1134
-0.0141774
-0.0484024
0.0625798
0.183575
0.343333
0.299218
-0.191508
0.0123768
-0.0932653
-0.283003
0.0885925
0.160004
-0.0259136
-0.0967024
0.112259
-0.0155566
-0.00306729
-0.00836104
0.00842392
-0.0700512
0.414205
-0.207216
-0.206989
0.0769907
0.0267659
-0.103757
0.0672584
-0.0422211
-0.0250373
0.252966
0.0830848
-0.33605
-0.143862
0.0182486
-0.0436943
0.0344091
0.00928525
-0.00640208
0.0918472
-0.0166249
-0.0213668
-0.0820459
-0.0417816
-0.115254
0.157035
-0.0100667
-0.08978
0.0998467
-0.141995
0.34789
-0.205895
0.351556
0.155504
0.110828
0.317365
-0.428194
0.0966077
0.144745
0.0967359
-0.241481
-0.112887
0.00503884
-0.0513936
0.0202363
-0.00741804
-0.0184806
-0.158966
0.363134
-0.0446501
-0.0415362
0.0861864
0.190995