/*--------------------------------*- C++ -*----------------------------------*\
| =========                 |                                                 |
| \\      /  F ield         | OpenFOAM: The Open Source CFD Toolbox           |
|  \\    /   O peration     | Version:  v2012                                 |
|   \\  /    A nd           | Website:  www.openfoam.com                      |
|    \\/     M anipulation  |                                                 |
\*---------------------------------------------------------------------------*/
FoamFile
{
    version     2.0;
    format      ascii;
    class       volVectorField;
    location    "300";
    object      ddtCorrDdt0(U);
}
// * * * * * * * * * * * * * * * * * * * * * * * * * * * * * * * * * * * * * //

dimensions      [0 1 -2 0 0 0 0];


internalField   nonuniform List<vector> 
18232
(
(-0.355249 -0.0602759 8.90094e-21)
(0.00112613 -0.00680868 -3.59931e-21)
(0.000728468 0.000186761 3.39192e-20)
(0.00066877 0.000982587 3.23815e-21)
(0.00806194 0.00315889 0)
(0.018031 -0.0175867 1.24336e-20)
(0.000446859 0.000488368 -1.20512e-20)
(-2.31356e-05 0.000526865 0)
(0.0099091 -0.000507682 0)
(-0.00168955 0.00987103 6.02253e-21)
(0.00102448 0.000743713 -2.78715e-20)
(0.00858019 0.0322603 -3.01628e-20)
(0.00638716 0.0132186 3.03882e-20)
(-0.0204611 -0.00813642 5.00263e-20)
(-0.000172326 0.00908799 0)
(-0.0449954 0.0795039 1.57249e-20)
(0.000197108 6.14425e-05 0)
(-5.51409e-06 -9.4246e-05 6.47832e-21)
(0.000869523 -0.00139075 7.57567e-23)
(-0.00127771 0.00190958 2.95629e-20)
(0.00805109 -0.00714173 1.16994e-20)
(0.00128142 0.000991705 -8.09887e-21)
(0.000782392 0.00077738 2.49251e-20)
(0.00164174 0.00173367 0)
(0.00229564 0.00702826 -1.59598e-20)
(-0.000420836 0.00157565 1.67015e-20)
(0.000948758 0.000690708 0)
(0.0198734 -0.0231371 2.55214e-20)
(-2.86935e-05 -9.09237e-05 5.93239e-21)
(0.000686105 0.000297523 -2.21508e-20)
(1.18689e-05 -0.000147121 -1.25745e-20)
(0.0155156 -0.114958 0)
(2.16968e-05 0.00148912 0)
(-0.0108222 -0.146924 2.47059e-20)
(-0.00457807 -0.00535181 -4.16375e-20)
(-0.000155975 -0.00435471 -1.00056e-20)
(0.0264979 0.0068081 0)
(3.57163e-05 0.000734601 3.81296e-21)
(0.0250633 0.00734471 0)
(-1.08437e-05 -0.000190633 9.76667e-21)
(-0.307252 -0.0333802 9.96429e-21)
(0.0135536 0.0147552 1.13996e-20)
(7.98717e-05 0.0136332 0)
(0.0416042 0.00877879 2.74015e-20)
(0.000362599 -3.35895e-05 0)
(-0.00348746 0.00391356 4.17241e-20)
(-0.000432915 -0.00398326 -9.45963e-21)
(0.0203325 0.000855842 -2.83703e-20)
(-0.00562958 0.00314469 -7.9106e-20)
(0.000416264 -0.00282806 -1.25294e-21)
(0.000330414 0.00126368 -5.34253e-21)
(-3.65726e-05 -7.31938e-06 0)
(-0.353986 -0.0502977 4.31588e-21)
(0.00827111 0.00349284 0)
(0.00032215 0.000847216 1.84715e-20)
(-0.0120396 0.0191931 -2.7935e-21)
(0.000284733 0.00128747 -1.86884e-20)
(7.00268e-05 0.00187795 1.31509e-20)
(-0.0196418 -0.00471453 4.20314e-20)
(0.00138647 -0.00340833 5.54766e-21)
(0.000859563 0.00448234 0)
(0.000399909 -8.9774e-05 9.34252e-21)
(0.00258694 0.00291743 2.46415e-20)
(0.000682174 4.87929e-05 -3.03516e-21)
(0.00708257 0.0313147 6.9143e-21)
(0.00324108 -0.00104839 -1.3699e-20)
(0.0344972 -0.434975 -1.26194e-20)
(0.11409 -0.0520505 0)
(0.000852529 0.000647169 0)
(0.00361249 0.00110054 0)
(0.00033639 0.00138247 -6.58153e-22)
(0.000413594 -0.00018696 2.99167e-20)
(-0.0638069 -0.035739 -3.60988e-20)
(0.00170729 -0.0182665 0)
(0.0161903 0.0666831 0)
(-0.0059274 0.00260715 -3.29597e-21)
(0.00292296 0.00258654 0)
(0.000906569 0.00155172 -3.63406e-20)
(0.0389973 0.00541763 -1.25164e-20)
(0.00125134 0.00138359 -1.66326e-20)
(0.104723 0.00952046 1.41374e-21)
(0.00250338 0.0138493 -2.06923e-20)
(0.00716694 0.0148077 1.36088e-20)
(0.00288507 0.00135324 2.20949e-20)
(-0.00116091 -0.0185918 5.34095e-25)
(-0.0183833 0.00488893 -5.25399e-20)
(0.000535041 0.00012119 1.14336e-20)
(0.000611313 1.85647e-05 0)
(0.00268302 0.0136421 2.15191e-20)
(0.00371696 0.000488228 -4.5164e-20)
(0.000575169 6.03764e-05 4.71271e-21)
(0.00103193 0.000121411 0)
(1.87765e-05 -0.00016385 -1.93358e-21)
(-0.0112399 0.00139815 0)
(0.000621126 -0.000172406 -4.39565e-21)
(0.00261552 -0.00155946 0)
(0.000595461 -4.06618e-06 -1.47173e-20)
(0.00114535 0.00152223 0)
(-0.00785049 -0.0211661 0)
(0.00184297 0.000346377 0)
(0.0084466 0.00917344 5.27495e-20)
(0.00635945 0.00631815 8.15728e-21)
(-0.0130461 0.000468895 -2.53803e-20)
(-0.00553678 0.0162135 3.66117e-20)
(0.00468823 0.00201729 0)
(0.000500513 0.00400353 0)
(0.000699278 0.000389317 -1.35949e-20)
(-0.00474491 0.00796144 -2.97697e-20)
(-4.0085e-05 3.80547e-06 2.28271e-20)
(0.00157191 0.00171305 -1.86689e-20)
(0.0033493 -0.00139932 4.16798e-20)
(-0.00630279 0.0139291 0)
(0.000809093 -0.0023523 0)
(0.000736148 0.000271148 -5.9182e-21)
(0.000279648 0.00126836 -6.0865e-21)
(0.0032312 0.00194301 0)
(0.004925 0.0129997 0)
(-0.00103118 0.00425989 -3.71532e-20)
(0.000885692 0.00221423 0)
(0.00390839 0.000393005 -4.00076e-20)
(0.000387856 0.00110755 -9.34189e-21)
(4.19863e-05 0.000820325 4.60676e-21)
(0.114373 -0.184774 -7.61894e-21)
(0.0104374 -0.00198574 5.46928e-20)
(-0.0602977 0.107188 1.92125e-20)
(-0.000154136 0.00561 0)
(0.00963627 0.0736868 -7.23581e-19)
(0.000166185 -0.000493244 1.76419e-20)
(0.000684245 0.0218374 1.22556e-20)
(-0.00939834 0.0186352 0)
(0.000960593 0.00058305 0)
(0.00110547 0.00113599 3.38465e-20)
(0.00128725 0.00392582 0)
(0.000201101 -0.0012595 0)
(-0.33639 -0.0499582 0)
(-0.0111402 0.015288 3.35492e-22)
(-0.00719311 -0.00310085 4.72971e-20)
(1.54752e-05 -0.00026566 1.58592e-20)
(0.00138165 -0.00345994 1.6011e-20)
(0.0183057 0.00403338 0)
(-0.000260189 0.00137019 -4.88102e-20)
(2.56962e-06 0.000577152 0)
(-0.0143389 0.254254 7.90171e-20)
(0.000603884 9.19586e-05 1.46372e-20)
(0.00417529 -0.00800299 3.76263e-20)
(0.00290933 -0.00273654 0)
(0.00208056 0.00257246 1.96806e-21)
(8.66056e-07 -0.00011286 -1.55708e-20)
(0.0203099 0.00078968 0)
(0.00206473 -0.00295837 -2.82603e-20)
(-0.0122236 0.00292315 0)
(0.0226388 0.00321714 -1.23922e-20)
(0.00109734 0.00890243 0)
(0.00177122 0.00422282 -2.09399e-20)
(0.000253815 0.0126828 4.27656e-20)
(-0.293144 -0.0343579 -1.92228e-20)
(-0.00706027 0.0282024 0)
(0.0017369 0.0131217 -3.85592e-21)
(0.0163358 0.00715154 5.69515e-20)
(0.0013826 -0.0031823 -1.67317e-20)
(0.00130471 -0.00675341 4.03266e-21)
(0.000100904 -0.00118875 0)
(0.000902732 0.00038181 0)
(0.00364857 -0.390211 0)
(0.0179566 -0.00912954 0)
(0.000206167 -0.000362023 -1.69216e-20)
(-0.000193386 -0.0281565 0)
(0.00636177 0.24008 -2.00785e-19)
(-0.00126952 -0.00347652 -3.24466e-20)
(0.019618 -0.0401228 -1.71508e-20)
(0.000970217 0.000258807 1.77007e-20)
(-3.22244e-05 0.000408756 -1.55022e-20)
(0.000805765 0.000281388 -1.10043e-20)
(0.00153182 0.00144722 -7.43518e-21)
(0.000639882 0.00188219 -1.62942e-20)
(0.0427438 0.00802893 2.64585e-20)
(0.00241941 0.00166116 -5.96053e-21)
(-2.71125e-06 -9.92484e-05 -6.62628e-21)
(0.000966188 -0.00601598 4.68067e-20)
(0.000184555 0.00142191 -3.27503e-20)
(0.00455725 -0.00111403 0)
(0.0148046 0.00657642 -6.86191e-20)
(0.00049339 0.000162247 1.05289e-20)
(-0.00696454 -0.00374947 6.16837e-21)
(0.0573812 -0.000189613 1.87743e-20)
(1.85781e-06 -8.28624e-05 0)
(0.00284857 -0.00194198 0)
(0.00396471 0.0282043 1.44626e-21)
(6.15606e-06 -0.000177122 0)
(0.0285879 -0.000437528 1.28312e-20)
(0.00170975 0.00680761 -2.11532e-20)
(0.000786036 -8.13389e-05 0)
(-0.00609351 0.021145 -2.24243e-20)
(0.0120775 1.46013e-05 0)
(0.000556529 0.000152768 7.57097e-21)
(0.00137319 0.00132033 0)
(0.000775594 -0.00230867 0)
(0.0012162 0.0010673 1.19522e-20)
(0.000192004 2.02656e-06 -3.19537e-20)
(0.00070542 -9.4179e-05 0)
(-2.21083e-05 -0.00011163 1.21425e-20)
(0.00150313 0.00161401 -5.28146e-20)
(0.0115082 0.00542331 -5.53709e-20)
(0.056433 0.110376 -7.62075e-20)
(-0.00462578 0.0209388 1.20178e-20)
(-0.00973309 0.00752592 0)
(0.0129626 0.0750862 -6.54678e-22)
(-0.0176445 0.0952869 0)
(0.0113972 0.013076 -5.29591e-20)
(0.00423925 0.00327929 1.63017e-20)
(0.00101132 0.000479799 -1.65574e-20)
(0.00145651 0.00110831 -9.79253e-21)
(0.00225826 0.00327154 -4.30015e-20)
(-0.0143211 -0.0198291 -8.28533e-20)
(-0.0616139 0.115655 -6.46851e-21)
(0.00224911 0.000422538 4.24218e-20)
(0.00215916 0.00332736 0)
(0.00124917 0.000938187 1.73604e-20)
(0.000725974 0.000440248 3.557e-20)
(0.00111701 0.00118889 1.49721e-20)
(0.0119465 -0.00152642 0)
(0.00138595 -0.00345764 -5.68578e-21)
(0.0332471 0.0502847 4.12276e-20)
(0.000393928 0.00325998 4.06872e-20)
(0.000204114 -3.24183e-05 2.22423e-20)
(0.000994782 0.0003385 2.42455e-20)
(0.00841865 0.00278481 4.42487e-20)
(0.00177158 0.00173138 0)
(0.000160295 0.00157567 1.18529e-20)
(-8.46023e-05 0.00104555 -1.32958e-20)
(0.000417501 0.000628154 -1.69928e-20)
(-0.000699538 -0.00377979 2.00217e-20)
(-0.0307035 0.32111 -1.3602e-19)
(0.00288109 0.0869718 0)
(-2.16441e-06 0.00153025 6.36295e-21)
(0.00188488 0.00206243 0)
(0.000742524 0.00137456 -5.73057e-21)
(0.00552568 0.0972173 0)
(0.000488789 -0.00285426 0)
(-2.8185e-05 4.37386e-05 -1.06658e-20)
(0.000484346 -0.000563149 1.67308e-22)
(-0.00691559 0.0100635 4.33631e-20)
(-0.0246754 0.0836425 -1.16833e-20)
(0.00130393 -0.000793524 0)
(0.0400638 0.00908567 2.97233e-20)
(-0.000512342 -0.0389335 1.3609e-20)
(-1.22041e-05 -1.91984e-05 1.31735e-20)
(-0.00495522 0.0087183 4.44062e-20)
(-0.105883 -0.0144239 -4.03964e-21)
(0.0018766 0.00225682 -2.10129e-20)
(0.00299973 0.00910118 2.68447e-21)
(-0.0090071 0.00314272 4.40971e-20)
(0.00143732 -0.000650348 1.16087e-22)
(0.0106844 -0.00129534 3.86475e-20)
(0.00136164 0.0011216 -2.25419e-20)
(0.010117 0.0178275 -1.30846e-19)
(0.000268109 0.00449088 2.43029e-22)
(0.00860011 -0.00935351 -3.50906e-20)
(0.0331766 -0.0259772 -3.67286e-24)
(0.00332053 0.00139926 -3.03892e-20)
(0.00206556 0.00185162 -4.54427e-20)
(0.00989059 0.00601155 0)
(0.00539731 -0.00616087 0)
(1.12316e-05 -0.000141442 0)
(0.00111386 -0.00130523 1.9183e-20)
(-9.52999e-06 -6.07506e-05 0)
(0.0489841 0.0094778 2.43432e-20)
(0.00263164 0.00108208 -5.7763e-20)
(-0.0115969 -0.0138972 -2.35841e-19)
(-0.00517386 7.94791e-05 0)
(0.00112432 0.00134175 1.97807e-20)
(0.00861637 -0.215642 -5.69463e-21)
(0.0110195 0.00203311 -1.71424e-20)
(0.000236852 -4.45464e-05 2.16869e-22)
(0.00129934 -2.72895e-05 0)
(0.016444 -0.00199637 6.36642e-21)
(0.00516544 -0.000509558 0)
(0.0003384 -0.000863844 -1.8704e-20)
(-2.68443e-05 -3.17064e-06 1.35871e-20)
(-0.396205 0.209194 0)
(0.0487399 0.00843134 0)
(0.00339436 0.00212851 2.48093e-20)
(0.00200233 -0.00422758 1.56867e-20)
(0.0482156 0.0081361 2.4616e-20)
(-0.00470832 0.00132263 4.3103e-20)
(-3.8174e-05 0.00358074 1.39705e-20)
(0.00269653 0.00052925 -1.67693e-20)
(0.0491875 0.0120454 5.51288e-21)
(6.53875e-06 0.00587055 -2.88224e-20)
(0.00682313 0.0141123 6.79721e-20)
(0.00077408 9.30828e-05 1.15486e-22)
(0.00234063 0.00630741 5.6865e-21)
(0.0309127 -2.73596e-06 -2.58436e-20)
(0.0227109 0.0175408 -4.31039e-21)
(0.0158848 0.00607745 1.37769e-20)
(-0.00514193 0.00142059 -1.02943e-20)
(0.0494892 0.00795186 -3.03192e-20)
(0.00153301 -0.00419102 0)
(0.000414504 -8.35611e-05 2.34254e-20)
(0.00438204 0.00502458 1.41342e-21)
(0.00615363 -0.00155303 8.39602e-21)
(-3.47734e-05 -8.95477e-06 0)
(-0.00617819 -0.00832718 -1.52906e-20)
(-0.00745565 0.00207135 0)
(-3.79648e-05 3.79659e-06 1.23139e-20)
(3.59123e-05 0.00194227 5.54431e-21)
(0.0568233 0.0670373 1.86624e-20)
(0.00646005 0.00277015 1.21041e-20)
(0.000201771 0.000108045 0)
(0.00503956 -0.00415764 -1.27545e-22)
(0.00551916 0.000991496 2.71365e-20)
(0.000444122 0.000902173 0)
(-0.00509796 0.0396498 -1.44163e-20)
(0.00160923 0.00324173 3.17765e-20)
(0.00207804 -0.00440705 -5.55188e-22)
(0.00412042 -0.00190065 -3.30983e-20)
(0.046435 0.00605061 0)
(0.000258085 -0.00121892 3.67922e-20)
(-0.00128879 0.00185389 4.15682e-20)
(0.000260589 0.00151477 2.32468e-21)
(-0.0153118 -5.59891e-05 1.42998e-20)
(0.00317499 0.00103763 1.75604e-21)
(0.0165122 -0.00155001 -4.61176e-21)
(0.00170509 -0.00410623 -6.99358e-20)
(0.00220014 0.00215166 0)
(0.00304152 -0.00123416 -5.717e-21)
(0.0248784 0.0540582 -3.13157e-20)
(0.00341345 0.00156789 -4.71395e-20)
(0.0163347 0.00202135 0)
(0.00313519 0.00901249 2.5392e-20)
(0.0066561 0.00444564 0)
(0.000750165 -0.000107715 0)
(-0.0041208 0.00929619 0)
(-0.587194 0.28913 4.04551e-19)
(-0.00124283 -0.00714423 0)
(-0.301629 -0.0540135 0)
(-0.000317968 -0.00736061 1.90302e-20)
(0.00935011 -0.0296594 0)
(0.000696207 3.83424e-05 8.0284e-21)
(0.00310643 0.00564618 5.38518e-21)
(-1.28097e-05 0.000914602 -3.44768e-21)
(0.0124652 -0.0257686 1.74961e-21)
(-6.90207e-06 -2.51976e-05 -2.80167e-20)
(-6.57553e-05 -0.000128642 0)
(0.000322233 -0.00107301 -3.85474e-20)
(-0.00133772 0.013039 6.28566e-21)
(-0.0131995 -0.0431615 0)
(0.00359662 0.00121898 1.18809e-20)
(0.021085 0.0338226 -2.9172e-19)
(0.000298656 0.00209609 -2.85022e-20)
(-0.00794019 -0.0180239 -2.99493e-19)
(-0.00278689 -0.00572234 -2.24162e-20)
(0.00289745 0.00363701 -2.60538e-20)
(0.00112898 -0.000993136 4.04345e-20)
(0.00607487 0.00741625 0)
(0.0017879 -0.00063111 -7.61844e-22)
(-0.00496325 0.00899083 0)
(-0.0698366 -0.0494244 0)
(8.63819e-05 0.000889902 6.83011e-21)
(0.000372516 0.00103268 0)
(0.0308251 -0.0128042 0)
(0.00642563 0.00207104 0)
(-0.0209214 -0.00698678 -4.18954e-20)
(-0.000788432 0.00123618 1.03637e-20)
(-0.379978 -0.0816967 0)
(0.000379575 -0.00913688 2.94768e-20)
(-0.000960262 0.0162387 6.3489e-20)
(-0.0228644 -0.0343826 1.60927e-20)
(0.00135904 0.00096344 2.60554e-20)
(0.0144593 0.0115417 -1.54764e-20)
(-0.00249114 -0.00488399 -1.21713e-20)
(-0.0017871 -0.00206799 0)
(0.00153233 -0.00667963 0)
(-0.343143 -0.212779 -1.11454e-19)
(0.000739504 -9.71069e-05 -1.52256e-20)
(0.00153441 0.00118175 0)
(0.00133919 -0.00341626 -1.96986e-20)
(0.000235795 -8.48693e-05 -1.50315e-20)
(-0.00211684 0.0188139 1.46422e-20)
(-0.104066 0.12727 1.25315e-20)
(0.00332812 0.00111805 0)
(0.00444576 0.00775201 0)
(-3.86733e-06 -0.000183781 -1.89689e-20)
(0.000972809 0.0013945 3.13761e-20)
(-0.0923696 -0.0217628 0)
(0.0170585 0.000570939 0)
(-0.000114238 -5.30151e-05 0)
(0.000242089 -8.89632e-05 0)
(0.00016461 -0.00139851 2.51873e-20)
(0.00300748 0.00877042 0)
(0.00235447 0.00590824 1.03261e-20)
(0.00113715 0.00976912 -6.08358e-20)
(0.0277368 0.00291748 1.60416e-20)
(0.0169203 -0.00962418 0)
(0.0051395 0.00528548 -3.53454e-20)
(0.00203336 0.0012984 0)
(0.0270491 -0.0296296 0)
(0.000451007 -0.000470057 -1.32771e-20)
(0.13941 -0.175795 4.03544e-20)
(0.000257131 -0.000114064 0)
(-0.00360472 0.00561714 0)
(0.00686313 0.0191341 6.55107e-21)
(0.0496118 0.020938 6.38975e-21)
(1.68015 -0.336091 3.01972e-19)
(0.00561302 0.00578317 0)
(4.43122e-06 0.000841923 -1.64547e-20)
(0.00255482 -0.00207901 0)
(-3.29801e-05 1.34515e-06 -1.50848e-21)
(2.51847e-05 0.00154972 -1.07538e-20)
(0.00606742 -0.00592911 0)
(-0.0139165 -0.000116215 -3.0198e-20)
(-0.216733 -0.281662 1.00828e-19)
(0.00784462 0.00107478 0)
(0.00347291 0.00198666 5.42509e-20)
(-0.0213529 0.00190322 -2.14665e-20)
(0.00173233 -0.0127685 -1.04009e-21)
(0.000459813 0.000242403 -1.8999e-20)
(-3.19857e-05 -4.062e-05 -7.28391e-21)
(0.027972 0.00595493 0)
(0.00109722 0.00156028 5.28221e-20)
(0.00205659 0.00333435 -2.24767e-20)
(0.000777933 0.0386406 8.60087e-20)
(0.0248033 0.0154723 -1.76136e-21)
(0.000985639 -0.000146228 0)
(-0.00667523 0.00868416 0)
(-0.00330884 0.000950173 -2.76468e-20)
(0.0182219 -0.00435732 -1.2606e-18)
(0.0223515 0.0082125 1.52212e-21)
(0.00140609 -0.011034 -9.54731e-20)
(0.000148282 0.00173016 0)
(0.000413261 -0.000936417 -2.47437e-20)
(-0.00359259 0.00161361 -4.83728e-20)
(-0.0858669 -0.0632186 0)
(-0.000290016 0.00261074 1.18273e-22)
(-0.00252969 0.0126444 0)
(0.000394918 0.00107903 1.87415e-20)
(0.000271983 0.00130733 -4.12667e-21)
(-3.22636e-05 0.00121744 1.78262e-20)
(0.0122194 -0.00676346 -1.64355e-20)
(0.000675949 0.000634078 0)
(0.000165226 0.0040759 9.23149e-20)
(0.00110098 0.00794223 3.13302e-20)
(-0.00334972 -0.00468316 3.97067e-20)
(0.00488387 0.00449011 -9.8448e-21)
(0.00250422 0.000996389 2.57365e-22)
(0.00704796 0.000740636 -1.71802e-20)
(0.00217977 0.00445093 -1.06482e-20)
(0.00123526 0.00123015 4.67741e-21)
(0.0079566 0.0383412 2.54576e-19)
(-0.013708 0.0110649 0)
(-0.0032412 -0.010694 2.24718e-20)
(0.00107425 0.0021813 0)
(0.00011128 -0.000681969 -1.07565e-20)
(0.000457268 0.000934171 0)
(-0.000259655 0.00299192 -5.48602e-20)
(0.000664687 -0.000183569 0)
(0.120057 -0.208803 -1.33852e-19)
(-4.37719e-05 -7.44466e-05 2.62423e-20)
(0.000750055 0.0246168 4.43316e-20)
(0.00546363 -0.000839937 -2.5165e-20)
(0.000983773 -0.000179212 1.06515e-20)
(0.0148291 0.00991997 7.681e-21)
(0.00183876 0.00342266 0)
(-0.0312979 -0.00279045 2.08585e-19)
(0.00103484 0.000263022 0)
(0.000179687 0.00254371 3.38541e-21)
(0.000779905 -8.01238e-05 1.51303e-20)
(-0.000447661 0.0016607 6.42141e-20)
(0.00918112 0.00909964 -4.72972e-22)
(0.00493377 -0.0013251 -2.13105e-20)
(0.00046193 0.000437714 9.50411e-21)
(-0.00612812 -0.00778825 0)
(-0.00243924 0.00800867 -5.12883e-20)
(-0.0172061 0.0467815 -1.90048e-20)
(-0.0056127 0.00681055 1.17534e-19)
(0.000617922 -0.0177441 3.0147e-21)
(0.00238311 -0.00292227 1.61909e-20)
(-0.0099374 0.00355891 0)
(-0.322795 -0.0556556 -2.07071e-21)
(0.00195923 0.00302122 4.45103e-20)
(0.00280334 0.00587288 5.71566e-20)
(0.00871057 -0.0041388 -1.94912e-20)
(0.000411643 0.00108649 3.34478e-20)
(0.0262223 -0.0114162 4.86942e-21)
(-1.08247e-05 -0.000209812 1.2977e-21)
(-0.000145365 -0.00182624 0)
(0.00351252 7.76802e-05 0)
(0.00264918 0.000554547 4.04738e-20)
(0.0488543 0.0125929 -3.01862e-20)
(0.0213493 -0.00817789 0)
(0.00030089 0.00107204 0)
(0.00186866 -0.0102204 -1.95877e-20)
(0.000733722 0.000232632 0)
(0.00339489 0.00153213 -4.8997e-20)
(0.0115536 0.00433462 -2.56664e-20)
(-0.00353603 -0.00429574 0)
(0.000500486 3.19509e-05 1.44406e-20)
(-0.00140234 -0.00790573 0)
(-0.00970536 -0.00404809 0)
(0.000157916 8.07409e-05 0)
(0.000562625 0.000749148 -2.34738e-20)
(0.00399708 -0.000922335 3.87309e-20)
(0.000643357 -0.00173322 0)
(-0.00816589 -0.0188543 7.47103e-21)
(-0.0515642 -0.0540947 -8.75064e-20)
(0.00161145 0.00134991 1.75942e-20)
(0.000478426 -0.000538874 -1.30328e-20)
(0.00184881 0.00171751 3.80201e-21)
(0.000424723 -0.000218611 2.59498e-20)
(0.00164293 -0.000536913 0)
(0.000493382 0.00473822 0)
(0.00107008 0.00151532 -3.48708e-21)
(0.00418829 0.000671481 5.52792e-20)
(0.0268127 0.00754531 0)
(0.000245545 -0.000476477 -1.13673e-20)
(0.000435651 0.000378327 0)
(0.000420616 0.000144059 -6.39497e-21)
(0.00228085 -0.00769286 7.38962e-21)
(0.00231724 0.000385507 -8.70916e-23)
(0.0017326 2.45072e-05 0)
(0.00228544 0.00497298 0)
(0.00346148 -0.00109471 0)
(-0.00293865 -0.00247253 -2.40929e-20)
(-0.0191111 -0.0024217 3.42835e-20)
(0.0982378 -0.372697 0)
(0.00201868 0.000562839 0)
(0.00101268 -0.00101119 -1.99833e-20)
(0.000601041 0.000135726 -1.33426e-20)
(0.0021969 0.00167638 0)
(-0.0461004 -0.0428034 6.19576e-20)
(0.000234037 0.00108528 1.03721e-20)
(0.0248642 0.0102687 -4.5413e-21)
(0.00697505 -0.0192205 -9.63276e-21)
(0.00456941 0.00604972 3.31152e-20)
(-0.0945225 -0.0680752 4.4861e-21)
(0.000350283 -0.000541837 -2.89294e-20)
(-0.00364497 -0.0137555 8.65201e-20)
(0.000528783 6.00048e-05 0)
(0.0211408 0.0572702 2.01079e-20)
(6.60359e-05 0.00888389 0)
(0.00110567 0.000469558 5.40803e-20)
(0.00150017 0.00133739 2.10609e-20)
(0.000485526 -0.000272996 -3.03212e-20)
(0.000161239 -0.000623044 8.73762e-21)
(0.00013941 6.50134e-05 -1.17474e-20)
(0.0124771 -0.0571177 -1.21056e-19)
(0.0477409 0.008559 1.09232e-21)
(0.00288454 0.00421627 -6.29389e-20)
(0.000763478 5.49755e-05 -2.58062e-20)
(7.30561e-05 -0.00597949 -1.79792e-20)
(0.00388243 0.00423376 -3.95281e-20)
(0.000697595 -0.000125939 1.44313e-20)
(0.00285217 0.000186217 -2.79064e-21)
(0.000336678 0.00112326 0)
(0.0486981 0.00853808 -2.68857e-20)
(-0.362992 -0.0676462 2.41751e-21)
(0.00197608 -0.00135264 -2.20341e-20)
(0.00550176 -0.00413011 -1.47508e-20)
(-0.00062984 0.000282488 -3.87055e-21)
(-0.00740417 0.0110695 -5.48978e-20)
(-0.0120063 -0.00417435 8.83701e-21)
(5.24948e-06 9.39232e-07 -6.92074e-21)
(-0.010271 -0.0610759 0)
(-1.29709e-05 3.09833e-05 0)
(-0.00618585 0.017958 -8.54715e-20)
(0.000302128 3.91104e-05 1.60231e-20)
(0.000481398 1.84888e-05 1.47448e-20)
(0.0115398 -0.0426827 -1.36886e-20)
(0.0195287 0.0059356 1.13392e-19)
(0.00664186 -0.00058824 -4.98516e-20)
(0.000240731 0.0015861 -1.40896e-20)
(0.000680559 -0.000142199 1.10611e-20)
(0.0288999 0.0051487 -1.19419e-19)
(0.00273148 0.000252967 -1.90121e-20)
(0.00159443 0.000185043 -2.80684e-20)
(0.00244614 -0.00277688 -2.25962e-20)
(-0.122881 -0.0603756 1.38018e-21)
(0.000547688 0.0019229 -2.03239e-20)
(0.0451995 -0.0461989 -8.86069e-21)
(0.000961662 0.000253495 -1.56536e-20)
(0.0191788 -0.00225644 2.5944e-20)
(0.00057987 0.000158616 0)
(-0.0056832 -0.0240182 1.87814e-20)
(-0.00439378 0.0244194 1.0963e-20)
(0.000285838 -6.22329e-05 0)
(0.0015877 -0.00518681 -7.71315e-21)
(0.00059326 0.000162349 0)
(0.0221113 -0.00407384 3.50831e-20)
(-0.0626263 0.1799 -2.23089e-21)
(-0.0415475 -0.305479 0)
(0.000664244 -0.000139732 1.38481e-20)
(0.000142107 0.000474391 -1.97547e-20)
(0.00915185 0.0238998 -4.12874e-21)
(0.000567082 4.08287e-05 -1.13722e-20)
(0.076085 -0.0263012 -1.31586e-19)
(0.00137843 0.00162154 -5.37205e-21)
(0.00990112 -0.00743415 2.07117e-20)
(0.135618 -0.19566 3.10589e-20)
(0.00610632 -0.00150945 0)
(0.00432555 0.00918498 -1.20659e-20)
(0.00142805 0.0015338 0)
(0.00032799 9.2896e-06 8.6726e-21)
(0.0286029 -0.144306 -5.59902e-20)
(-0.00315235 0.0121236 0)
(-9.36061e-05 -0.0013008 0)
(0.0033845 0.0144164 0)
(0.000248804 0.00112384 0)
(0.0388646 0.00585207 7.27173e-23)
(0.000123606 0.000448904 2.03948e-21)
(0.00429519 -0.0087447 0)
(0.00077738 -0.00268565 0)
(0.00213002 0.000187646 -1.26727e-22)
(0.00120168 0.00169651 7.22746e-20)
(-0.0100257 0.00976779 -8.12015e-20)
(0.000109759 0.00432169 9.48423e-20)
(0.000273147 0.000364774 -8.4753e-21)
(0.000918712 0.000851634 0)
(0.0387575 0.00737574 2.17784e-20)
(0.000272109 0.000345913 8.51772e-21)
(0.000305015 0.000655374 3.57802e-20)
(0.0011313 0.000734893 -7.10284e-21)
(1.33014e-05 -4.34463e-05 8.3909e-21)
(0.198388 -0.0553666 -4.08362e-20)
(0.0348247 0.0058594 -2.46535e-20)
(0.00368953 0.00312684 0)
(-0.00226194 0.00162058 -5.5016e-20)
(0.00960495 0.00697388 0)
(-0.148468 0.0222162 0)
(0.00196888 0.0016795 1.94888e-20)
(0.00230873 -0.000213766 8.90187e-21)
(0.000301877 0.000537307 0)
(0.00117931 0.000582106 2.58506e-20)
(0.000127056 0.00143838 -1.41123e-20)
(0.000227525 -4.75958e-05 3.75901e-21)
(0.0282912 0.00873522 -2.11475e-20)
(0.0356499 -0.00549558 -1.59532e-20)
(0.0209577 0.0723722 0)
(0.0481619 0.00959098 -7.17482e-20)
(0.00465167 -0.0267048 0)
(0.0152131 0.00917009 -3.80618e-20)
(-0.0114493 0.00142667 3.17328e-20)
(-0.00299483 -0.0116496 0)
(3.87677e-08 -6.82197e-05 0)
(-1.04828e-05 -0.000450118 0)
(0.00193513 -0.000313793 0)
(0.00208118 0.00517443 -8.09281e-20)
(0.00486489 0.0120846 0)
(-0.136273 0.0260353 0)
(0.00475143 0.000170436 0)
(0.00118312 0.00121401 4.50409e-20)
(0.0427555 -0.00201594 -3.42159e-20)
(0.00190946 -0.00436471 0)
(0.00293987 5.01396e-05 0)
(0.00566426 -0.00557454 1.73449e-22)
(0.00597201 0.00605786 9.20373e-21)
(0.00424547 -0.0059512 -1.96625e-21)
(0.00112113 0.000979776 -1.80317e-20)
(-0.0264233 -0.0236609 -8.72407e-22)
(0.0435144 0.0336917 -2.11608e-21)
(-0.00991667 -0.00246415 5.81206e-20)
(0.00426888 -0.00129194 -4.77611e-20)
(0.00107582 0.000837752 -9.73486e-21)
(0.00476312 -0.00153847 2.70125e-20)
(0.0229912 0.00341278 1.59078e-20)
(0.00162042 0.000603768 6.37144e-21)
(0.0354356 0.0322787 1.50404e-19)
(0.000220315 0.00349453 -5.19918e-20)
(0.000690451 0.000302592 3.98579e-21)
(0.00216624 -0.000379353 0)
(0.00124956 -0.0032764 2.19374e-20)
(0.000337756 -9.29941e-05 1.65908e-20)
(-0.068838 -0.0268627 -3.67004e-20)
(0.03209 0.00543307 7.36229e-20)
(0.00127415 0.00111346 -2.45484e-20)
(0.0297532 0.00499493 1.40849e-19)
(0.00584848 0.0268842 5.10581e-20)
(0.0336673 0.00581613 -2.43797e-21)
(0.0129565 0.0283267 1.30506e-20)
(0.000170977 0.00164331 -1.15746e-21)
(-0.0965747 0.0437895 0)
(-0.000605246 0.00109895 -3.28321e-20)
(-0.000171613 0.000137119 3.01054e-20)
(-0.267348 -0.0785123 6.23791e-20)
(0.000124485 0.00166213 9.41329e-21)
(0.00479853 0.000231642 -1.16175e-21)
(-0.0221927 0.00712767 -1.56241e-20)
(0.00916786 -0.00629544 2.95607e-22)
(0.000263161 -0.000523632 -2.63274e-20)
(0.00150227 -0.00207036 0)
(-0.00544976 0.00928337 1.92281e-19)
(0.00105324 0.00124546 3.80188e-20)
(0.000492699 -0.000489005 3.38103e-20)
(0.00112278 0.00193048 -2.52905e-21)
(-0.00201954 0.00350967 2.75852e-20)
(0.00795303 0.0101137 -6.04437e-21)
(0.0100601 0.000166504 -3.52558e-21)
(0.0469267 0.0066431 0)
(0.00132358 0.00308284 0)
(0.0149588 0.0103753 1.25334e-20)
(-0.0825133 -0.0329693 3.60111e-20)
(-0.00258415 0.0141672 0)
(-0.273823 -0.0913989 -6.65788e-20)
(0.00149005 -0.0027673 -1.80507e-21)
(-0.000590178 0.00501586 0)
(0.00641857 -0.00537794 -1.41336e-20)
(0.00062402 0.000487894 2.07102e-20)
(0.0459785 -0.457365 0)
(-2.89234e-05 1.46869e-05 0)
(0.000307448 0.000285153 -1.5715e-20)
(0.000539381 -0.000287295 0)
(0.0272065 -0.133464 1.30539e-19)
(0.00822922 -0.170293 1.69705e-19)
(0.000212961 0.00162123 1.79768e-20)
(-0.0204394 0.00804928 2.45796e-20)
(-2.41937e-05 -0.000215724 9.48677e-21)
(0.013605 0.00375139 -1.10419e-20)
(0.00168285 0.00433289 -2.81269e-20)
(0.0935944 -0.507255 -1.43697e-20)
(0.015044 -0.021197 0)
(0.000131568 -0.00361348 -4.56546e-21)
(0.000457565 0.000132824 -3.17391e-20)
(0.00102282 -0.000420398 9.58837e-21)
(0.000695614 -0.000310202 -8.80846e-21)
(-0.213458 -0.0199574 -7.52441e-21)
(0.00246138 0.00737264 0)
(-0.000977039 -0.00270644 0)
(-1.37746e-05 -0.000217219 -2.99542e-21)
(-0.0106577 -0.00682633 0)
(-3.55361e-05 1.19171e-06 -1.21443e-20)
(-3.438e-05 2.87075e-06 -1.26483e-20)
(0.00171169 0.00195119 0)
(0.000617128 0.000214101 0)
(0.0019801 0.00134521 0)
(-0.000520555 -0.00132456 -1.18086e-20)
(0.0059301 -0.00316067 -6.84088e-21)
(3.43624e-05 -0.000141629 3.06691e-20)
(-0.0929369 0.170221 3.76327e-19)
(0.000252701 -0.000115944 -2.76513e-22)
(-0.000441722 0.00848103 0)
(0.0585649 -0.0020169 0)
(0.0123041 0.00965106 3.99586e-20)
(-0.358875 -0.0702636 0)
(0.000950462 -0.000355036 0)
(-0.000557718 -0.00295086 -1.48969e-20)
(-0.458118 -0.245793 -1.11683e-19)
(0.000411476 -0.00109565 2.45656e-20)
(-0.0118184 -0.00683001 1.66124e-20)
(0.00505267 -0.00382948 3.27152e-20)
(-0.00501156 0.000634553 -3.84727e-20)
(-0.01599 0.0224417 0)
(0.0141989 0.00636199 -6.77366e-20)
(0.000329563 -0.000100161 7.96555e-21)
(0.00383005 0.00104564 -4.50289e-21)
(0.00188006 -0.00418621 -1.57705e-20)
(-0.000817516 -0.00813652 -8.21194e-21)
(0.00546708 -0.0313386 0)
(0.0143249 -0.0145372 0)
(0.00263983 -0.00358525 2.32348e-20)
(-5.29597e-05 -0.000115673 -2.82093e-20)
(0.0401601 0.00367315 6.54e-20)
(0.101366 -0.0969647 1.21064e-18)
(0.012371 -0.000718344 -4.2882e-20)
(0.000305704 -1.49308e-05 -3.11452e-20)
(0.00690946 -0.00446884 -1.66438e-20)
(0.000635095 0.000131326 0)
(0.00283629 0.00338087 0)
(-0.15847 -0.0154437 0)
(-0.00107575 0.0120605 0)
(0.17263 0.255303 -5.70881e-20)
(0.00116307 0.00432601 2.77049e-20)
(0.00273429 0.00104789 3.87431e-22)
(-0.0382749 0.141431 1.52152e-19)
(-0.00396944 0.00562567 2.63855e-19)
(0.00317052 0.00103679 0)
(0.000503652 6.47801e-05 4.13323e-21)
(0.00267967 0.0115942 4.20945e-22)
(-0.0257707 0.0103432 -2.72659e-20)
(0.00219115 0.00242362 5.37512e-20)
(0.000624648 -0.000230454 1.32051e-20)
(0.0227443 0.0206837 -4.049e-21)
(-0.0153705 0.0568039 5.01233e-21)
(0.005299 0.020855 0)
(0.00529812 -0.00309049 -1.26046e-20)
(-0.00428773 0.0111845 2.22954e-23)
(-2.34762e-05 -8.77023e-05 -4.36218e-23)
(-8.54608e-05 -0.000236299 1.44621e-20)
(0.0637774 0.0381694 0)
(-0.0069736 -0.0197306 -1.40522e-21)
(0.040202 0.00182767 -4.77687e-20)
(0.0130028 0.0603457 0)
(-0.00599782 0.00553508 8.94036e-20)
(-0.0019833 -0.0085994 -3.0576e-20)
(0.028389 0.00767607 0)
(0.00121402 0.00138712 -2.73767e-20)
(0.00147823 0.00274829 -3.44471e-20)
(0.0081472 -0.00429737 0)
(-0.00549668 0.0119591 -1.77579e-20)
(0.00360706 -0.00127554 3.15283e-20)
(0.0146831 0.00585969 -2.46384e-20)
(0.0415609 0.00647136 2.67895e-20)
(0.000877887 0.00174864 -5.42832e-20)
(-0.0378799 0.0119236 -1.50947e-20)
(0.000469221 -0.00041624 -2.54838e-20)
(-6.58711e-05 -0.000195836 0)
(0.00125702 0.00107485 0)
(0.00559156 0.00674737 -4.0286e-20)
(-0.000244446 0.000605067 0)
(-0.161477 -0.0430333 1.42053e-18)
(0.00313385 -0.00593053 1.90226e-20)
(0.00418194 -0.000362154 -1.41386e-20)
(-0.0345072 0.00648123 2.00373e-21)
(0.0120158 0.0090425 -6.41432e-21)
(0.0688668 0.0659668 4.41441e-21)
(-0.0721497 -0.32754 7.38107e-20)
(0.0111998 0.0443168 3.39616e-19)
(-0.00292367 0.00788566 5.97863e-21)
(-0.00458289 -0.00535166 -1.13723e-20)
(4.31438e-05 0.000504971 1.63278e-20)
(0.000296961 -0.000116633 1.2709e-20)
(-0.00419375 -0.00763048 0)
(0.0205747 -0.608006 0)
(0.0069963 0.0141317 8.70801e-21)
(0.00300117 0.00343791 -2.34251e-20)
(-0.0428462 0.0365802 -9.14765e-20)
(0.00521163 -0.00327815 2.68639e-20)
(0.00336983 5.17673e-05 1.79013e-20)
(0.000843931 0.00117917 0)
(-0.147725 -0.228579 1.26054e-20)
(0.00137806 0.000975633 2.04745e-20)
(-0.00662643 -0.0216076 0)
(-0.00233225 0.0151673 6.01221e-20)
(0.000705884 -0.000114072 -3.63478e-20)
(-0.0399148 0.162449 0)
(0.00461576 0.0143334 -1.51376e-20)
(-0.0584304 0.0365023 1.74756e-21)
(0.00260662 -0.00334456 0)
(0.0014723 0.000110658 0)
(0.000525702 -0.000243081 0)
(-0.00698761 0.0068115 7.5917e-20)
(0.000191343 -1.30792e-05 -3.35294e-21)
(0.00950669 0.00103966 -1.39313e-20)
(0.000590417 0.000352132 0)
(-0.113557 0.0354242 4.38241e-21)
(0.000840509 0.00123683 1.13945e-20)
(-0.0497677 0.0399659 0)
(0.0405662 0.0211007 -1.88533e-20)
(0.00524068 0.000609731 -4.95395e-21)
(0.000359088 -0.000176526 2.45769e-20)
(0.00259583 0.000903664 0)
(0.0053141 -0.00706198 -1.21657e-20)
(0.00124125 0.000530276 -2.23544e-20)
(0.00021372 -0.000147652 -3.41914e-20)
(-0.14242 0.47165 -1.32658e-20)
(0.174028 0.211117 7.88977e-21)
(0.000914773 0.00415955 0)
(-0.0101488 -0.0167677 -7.91442e-20)
(5.07821e-06 0.000608205 3.1513e-20)