/*--------------------------------*- C++ -*----------------------------------*\
| =========                 |                                                 |
| \\      /  F ield         | OpenFOAM: The Open Source CFD Toolbox           |
|  \\    /   O peration     | Version:  v2012                                 |
|   \\  /    A nd           | Website:  www.openfoam.com                      |
|    \\/     M anipulation  |                                                 |
\*---------------------------------------------------------------------------*/
FoamFile
{
    version     2.0;
    format      ascii;
    class       surfaceScalarField;
    location    "300";
    object      phi;
}
// * * * * * * * * * * * * * * * * * * * * * * * * * * * * * * * * * * * * * //

dimensions      [0 3 -1 0 0 0 0];
oriented        oriented;


internalField   nonuniform List<scalar> 
27055
(
-0.00742718
0.00742718
-0.254397
-0.458588
0.336004
0.122584
-0.357655
0.165564
0.192091
-0.0308489
-0.0560514
0.0869003
0.0821346
-0.0393936
-0.042741
-0.186028
-0.0790838
0.265112
-0.433985
0.37344
0.0605447
0.111152
-0.0220089
-0.0891431
-0.0944178
0.0635689
0.0162848
0.200372
-0.216657
0.133968
-0.145424
0.0114553
-0.113578
0.00986352
0.103714
-0.0456529
0.043996
0.00165684
-0.105168
0.12027
-0.0151024
-0.0785985
0.100054
-0.0214558
-0.479026
0.477129
0.00189684
0.0826899
0.324343
-0.407033
-0.365827
0.221343
0.144484
0.0942229
-0.0827713
-0.0114517
0.0345946
-0.0659155
0.031321
-0.0591109
0.230173
-0.171062
-0.209734
0.226019
0.240526
-0.231097
-0.00942877
0.127536
-0.0516813
-0.0758549
0.0523587
0.0751776
0.083669
0.248948
-0.332617
0.0485811
0.0335536
-0.345417
0.428107
-0.166945
-0.291643
0.341784
0.205795
-0.547578
-0.0371039
0.0552122
-0.0181084
0.263421
0.139054
-0.402475
0.00963205
-0.0369865
0.0273545
0.044573
-0.0444827
-9.02795e-05
-0.0512713
0.0740136
-0.0227423
0.0349413
-0.0350108
6.94775e-05
0.481884
-0.179384
-0.3025
0.0228203
0.0263941
-0.0492143
0.548222
-0.285301
-0.262921
-0.00559638
0.00145052
0.00414586
0.136103
-0.13849
0.00238662
0.00573992
-0.0787411
0.0730011
0.0249209
0.00847331
-0.0333943
0.275481
0.160685
-0.436166
0.0292388
-0.0539694
0.0247306
-0.255249
-0.101536
0.13533
0.000773654
-0.0881448
0.0669395
0.0212053
0.187553
-0.287111
0.0995589
-0.372768
0.325321
0.047447
0.391744
0.066624
-0.458368
0.00561573
-0.00737691
0.00176118
0.113801
-0.124307
0.0105066
0.0368611
0.0590116
-0.0958726
0.0963191
-0.0451493
-0.0511698
0.00768251
-0.314852
0.30717
0.39549
-0.226863
-0.168627
0.00605851
0.000715804
-0.00677432
0.185991
-0.281556
0.0955655
-0.127189
0.0220212
0.446258
-0.170777
-0.0878674
-0.0356118
0.123479
-0.162133
-0.195522
-0.0945143
-0.0212423
0.115757
-0.126777
0.20445
-0.0776734
0.0016629
-0.000723736
-0.000939163
-0.00887646
-0.0282274
-0.235383
0.319052
-0.209676
0.121809
-0.277469
0.285151
-0.446659
0.341008
0.105651
0.0294822
0.0257301
0.0292417
0.0268065
-0.0560483
0.140686
-0.046333
-0.0943531
0.0610497
-0.000669759
-0.0603799
0.109344
0.0578914
-0.167236
0.189779
-0.2373
0.0475204
-0.0232338
0.0232338
-0.175487
0.243637
-0.0681498
-0.0491434
0.040267
0.102059
-0.00620017
-0.0958583
0.00725524
-0.123338
0.116083
0.143232
0.0960664
-0.239298
0.0550075
0.0114158
-0.0664234
0.0537883
0.0425308
-0.430449
0.329981
0.100467
-0.171736
-0.194091
0.100528
0.00153046
-0.0936615
-0.0210483
0.11471
-0.377843
0.206106
-0.328279
0.232721
0.0955578
-0.0742935
0.416077
-0.0358974
0.0913242
-0.0554268
-0.172886
-0.204957
-0.0783735
-0.131303
0.0978053
-0.335759
0.237954
-0.28896
0.193214
0.0957463
0.00768331
0.0476964
-0.0553797
-0.332118
0.180806
0.151312
-0.0824367
0.105153
-0.0227164
-0.0137388
0.12754
0.0660663
-0.0386381
-0.0274282
-0.096601
0.0166047
0.0799963
-0.0691145
0.0178432
-0.109904
-0.0137018
0.123606
-0.38162
0.214675
0.0322265
0.0527526
-0.0849791
-0.513626
0.513626
0.127541
-0.163153
-0.225496
0.0987195
0.068089
-0.0496793
-0.0184097
0.100144
0.178777
-0.278921
-0.27296
0.0869318
-0.320182
-0.0525864
0.141595
-0.152755
0.0111599
0.00925038
-0.108351
0.0991008
0.0492662
-0.0200275
0.117236
-0.102309
-0.0149271
-0.1475
0.146069
0.00143167
0.130947
0.255864
-0.386812
0.262596
0.219289
-0.030598
0.0241382
0.00645979
0.0701477
-0.0236793
-0.0464683
-0.00371608
0.0389393
-0.0352233
0.0920865
-0.0863466
-0.0480301
-0.0591178
0.107148
0.288703
-0.46397
0.175267
-0.0257782
0.0603728
0.0124594
0.0556296
-0.367723
0.316493
0.0512296
0.24592
-0.0624113
-0.183509
0.0148904
0.102345
0.346039
-0.0355351
-0.310504
-0.00293722
0.00855295
0.0503873
0.0106624
-0.0839911
-0.00415368
-0.25701
0.507062
-0.250052
-0.277809
0.192469
0.0853403
0.0247682
0.0259886
-0.0507568
-0.0731895
0.110051
-0.152433
0.042529
0.0628166
-0.0560084
-0.00680822
-0.174062
0.348234
-0.174172
0.136427
-0.0532172
-0.08321
-0.0104548
-0.102996
0.11345
-0.125875
-0.00131379
-0.238651
0.497994
-0.259342
0.00620058
-0.0366138
0.0304132
-0.0938912
0.0817765
0.0121147
-0.0102801
0.0119419
0.125396
-0.129479
0.00408305
-0.0094889
0.1012
-0.0917108
-0.0514734
0.160818
-0.110388
0.0167262
-0.00151303
-0.00408336
0.103784
-0.0791427
-0.0246415
-0.107905
0.0133902
-0.0476548
0.0546447
-0.00698997
-0.0918181
-0.143654
-0.110743
0.316191
0.0298479
-0.0793305
0.000456998
0.0012059
-0.0529517
0.0113313
0.0416203
0.335078
-0.196455
-0.138623
-0.0784041
0.0947414
-0.0163373
0.00912052
0.0536961
-0.170867
0.0199943
0.150872
-0.0553506
0.00733385
0.0480167
-0.0303689
-0.190259
0.220628
-0.334089
-0.0998958
-0.0302551
-0.337467
0.186809
-0.16149
-0.0326579
0.194148
-0.0263583
0.0263583
0.211542
-0.0683099
0.367068
0.049944
-0.417012
0.0420873
0.00248572
-0.239031
-0.0929011
0.331932
-0.0847627
0.067252
0.0175108
-0.0324655
0.0552858
-0.374817
-0.0718418
0.0262563
0.03981
0.0134706
-0.0134706
0.237539
-0.16078
0.241965
-0.0811846
0.00274755
0.05226
0.376202
0.17202
0.0247465
-0.0264669
0.00172042
0.165796
-0.0586714
-0.107125
0.349569
-0.153914
-0.195656
0.0167342
0.00835205
-0.0427072
0.0343552
0.142547
-0.31661
0.00655431
-0.202911
0.196357
-0.193887
0.294031
-0.0169548
-0.189777
0.206732
0.427064
-0.0184454
-0.408618
-0.0994512
0.328458
-0.229007
0.254704
0.222589
-0.477293
-0.13612
0.151677
-0.0155565
-0.106843
0.0301825
0.0766604
0.0552136
-0.0303954
-0.0248182
-0.0728904
0.105117
-0.00439099
-0.000278936
0.00466992
0.0175406
0.057194
-0.0747346
-0.0263955
-0.0386438
0.0650394
0.0839204
-0.0651754
-0.018745
0.0225671
-0.129459
0.106892
-0.200827
0.3481
-0.147273
0.0056156
-0.131491
-0.104842
0.0224048
0.0625841
-0.0549008
0.0670441
0.00876528
-0.0758093
-0.148465
0.0123447
-0.0949367
0.0854478
0.315391
-0.0826701
-0.284969
-0.0966508
-0.163182
-0.125779
0.045996
-0.0397954
-0.0797304
-0.201826
-0.00766405
0.0158825
-0.00821847
-0.00824207
-0.133322
0.141564
-0.0332419
0.460306
0.236293
-0.266662
-0.00997078
0.201819
0.0387071
0.135593
-0.374624
-0.401732
0.34228
0.0594526
0.33867
-0.147846
-0.190824
0.00784119
-0.178708
0.0377249
0.0213728
0.0824114
-0.169464
0.432885
0.0177835
-0.0534747
0.0356912
-0.143662
-0.0337816
0.177444
0.124721
-0.0603789
-0.0643424
0.29641
-0.108857
0.138428
-0.514405
0.375977
0.205897
0.132773
0.0211404
-0.0542255
0.0330851
0.0905561
0.0341652
0.117829
-0.0273621
-0.0904668
0.0306725
-0.00575157
-0.0454391
-0.00991148
-0.514502
0.204163
0.310338
0.00761302
-0.00658698
-0.00102604
0.00613449
0.00150603
-0.00764052
0.144021
0.0152077
-0.159228
-0.00608932
0.0701201
-0.0640308
0.0873423
-0.0522916
-0.0350507
0.317765
-0.164344
-0.153422
-0.0880522
0.0228768
0.223201
-0.216647
-0.0228936
0.0240407
-0.00114701
0.0277825
-0.0535067
0.0257242
-0.0131528
0.0054887
-0.0475496
0.0589655
-0.0856723
0.000909597
0.195023
-0.146215
-0.0488081
-0.094233
-0.0300744
0.0714582
-0.0853378
0.0138795
-0.057125
0.424193
-0.0743394
0.279104
-0.204765
-0.522276
0.403131
0.119145
0.027226
-0.0328995
0.00567357
-0.0483526
0.000697854
0.042193
0.0659118
-0.0629355
-0.00297628
0.150564
-0.212975
0.0419151
-0.032283
0.0355238
-0.0725252
0.0370015
-0.448521
0.451038
-0.00251641
0.211469
0.106296
0.0231217
-0.022247
-0.00087471
0.131192
-0.123937
-0.157867
-0.066554
0.224421
-0.272528
0.410955
-0.0345394
0.0308233
0.0202539
0.00817047
-0.0284244
-0.00590543
-0.0920779
0.252251
-0.160173
0.032958
-0.0199499
-0.013008
0.0844597
-0.0175203
0.0754598
-0.219122
-0.069307
-0.0171944
0.0865014
-0.0325276
-0.00356994
0.0360976
0.195516
-0.123796
-0.0717204
0.105468
-0.0962178
0.150781
0.198788
-0.084672
0.121333
-0.0366613
0.00455607
0.0201904
0.0145393
0.119429
-0.0130942
-0.0042756
0.0701874
0.0124971
0.0204609
0.27332
-0.19348
-0.0798394
0.289282
0.156976
-0.179162
0.165431
0.0137307
-0.183486
0.191707
-0.00822162
-0.484644
0.0602763
0.424368
0.0304277
-0.0498745
0.0194467
-0.0863643
0.0180622
0.0683021
-0.431506
-0.0531385
0.144636
0.250855
-0.122001
0.00159082
-0.107672
0.146893
-0.0392212
-0.402357
-0.0766696
0.0495011
-0.0411491
0.0657534
0.0520755
-0.113498
-0.249617
0.363115
-0.00429939
-0.0829235
0.0872229
0.0884429
0.117404
-0.205847
-0.257182
0.165104
0.0671201
0.0224596
-0.0273736
0.00491401
-0.210455
-0.110837
0.321292
0.0525542
-0.0347706
0.413595
-0.144906
-0.26869
-0.0429592
0.0140942
0.028865
-0.151296
-0.00145837
-0.111645
0.128343
-0.0166984
-0.00974809
-0.0342205
-0.0596595
0.09388
0.145267
-0.220857
0.07559
-0.0886643
-0.16585
0.0145538
0.134014
-0.156418
0.0224039
0.117143
-0.129871
0.0356379
0.238255
0.0551099
-0.293365
-0.0760969
0.094707
-0.01861
0.0156236
-0.0228443
0.00722069
-0.0772087
-0.00384377
0.0810525
-0.00823042
-0.00351133
0.0117417
-0.0577346
0.0720468
-0.0143122
0.0747572
-0.0389322
-0.035825
-0.331451
0.096068
0.125058
-0.102491
-0.154867
-0.246865
-0.0537802
0.0713208
-0.0883564
-0.426146
-0.346695
0.508821
-0.162126
-0.325229
0.114774
-0.0803588
0.0794209
0.000937933
-0.00939324
-0.00432088
0.0137141
-0.118103
0.100909
-0.115191
-0.00681
0.106969
0.0913913
-0.19836
0.0794968
-0.0457202
-0.0337766
0.117822
-0.0476012
-0.0702206
0.0695987
-0.103819
0.284782
-0.294907
0.010125
0.109158
-0.121252
0.0120939
0.106896
-0.119176
0.0122799
0.0243291
-0.0602265
-0.0107593
0.0101946
0.000564747
-0.457802
0.0601824
0.39762
-0.0799157
0.368364
-0.288448
0.0711921
-0.0139981
0.0199802
0.0721063
-0.000617901
0.00667641
0.182429
-0.00665518
-0.000771999
0.0868941
0.0789019
-0.101059
0.0704824
0.030577
-0.0112966
0.00190332
-0.137233
0.123531
0.0398394
0.0349179
0.0666649
-0.0195609
-0.047104
0.0469088
-0.0676487
0.0207399
0.0432642
-0.186918
0.00990069
0.0266155
-0.0365162
-0.309101
0.20965
-0.221153
-0.110965
-0.219934
0.293763
-0.0738292
0.273112
-0.453063
0.179951
-0.0826624
0.00406384
0.097634
-0.0349784
-0.0626556
-0.00199474
0.0991742
-0.0971794
-0.123407
0.0387351
0.297337
-0.480041
0.182704
-0.309467
0.160631
0.148836
0.00784494
-0.00171045
0.144835
-0.0108214
-0.220548
0.0101412
0.210406
0.422315
-0.149203
0.344539
-0.198774
-0.145766
-0.136109
0.128043
0.00806559
-0.0507327
0.0905276
-0.039795
0.0705117
-0.00283651
-0.0676752
-0.039603
0.00298921
0.148091
-0.00325632
-0.0346916
-0.00492974
0.0396213
0.165586
-0.0215652
-0.0189141
-0.0116839
-0.432304
0.0574876
0.0199619
0.0352517
0.323328
-0.446452
0.123125
0.0619854
-0.0150765
0.0954213
-0.0283772
-0.0317557
0.126109
-0.0943538
-0.0129138
0.0285374
-0.0142487
-0.373215
-0.0845877
0.130961
-0.110426
-0.0205352
0.525273
-0.133528
0.326574
-0.09073
-0.235844
-0.0046075
-0.0563142
0.0609217
-0.0184372
-0.024522
-0.0304682
0.0403689
-0.14655
0.0388779
-0.14905
-0.0168002
-0.0145398
-0.031113
0.0751537
-0.0649801
-0.0101736
-0.479318
0.120108
0.35921
-0.467787
0.447592
0.0201945
0.0448911
-0.0201229
-0.138693
0.121739
0.13907
-0.124287
-0.0147831
0.0991845
-0.0776257
-0.0215588
0.126921
0.0130137
-0.139934
-0.0890215
-0.198462
0.287483
0.0456326
-0.0244921
-0.0907475
0.09512
-0.00437249
0.0702016
0.0704845
0.120061
-0.131167
0.0111056
-0.0303914
-0.070668
0.042013
0.05221
0.225876
0.102311
-0.328186
-0.0377533
-0.0462378
-0.00242747
-0.00833183
-0.222635
0.0647682
-0.0966173
0.0205204
-0.341319
0.261403
0.209792
0.203804
0.243756
0.0985235
-0.1896
0.0379745
0.151625
-0.300646
0.138514
-0.0905028
-0.0163401
0.0116805
-0.0786071
0.0669266
-0.014055
-0.0742195
0.101339
-0.0271196
-0.247725
0.0869446
-0.0997226
0.025503
0.0701899
0.0908354
-0.161025
-0.248118
0.0726316
0.114676
-0.115262
0.000585223
-0.091982
0.013578
0.0106937
-0.0470515
0.0363578
0.168703
-0.227946
0.0592423
-0.254235
0.390204
-0.135968
0.254866
-0.0324573
0.0602398
-0.0152257
0.276996
-0.26177
0.0375932
-0.00208796
-0.0355052
-0.392542
-0.0752447
0.0832286
-0.0477049
-0.103433
0.0929787
-0.273833
0.184812
0.0704166
-0.0719356
0.00151895
0.179496
-0.109306
-0.0370731
0.0624674
-0.0253943
0.0313382
-0.296276
0.264938
0.136903
0.198175
0.0439354
0.251649
-0.295584
0.0592394
-0.13807
0.0788305
-0.11384
0.000261783
-0.105428
-0.113028
-0.366289
0.0486489
-0.0379552
-0.0680535
-0.0182755
0.086329
-0.111529
0.0843751
0.0271535
0.0217547
0.048757
-0.0727412
-0.0116015
0.0843427
-0.242583
0.189249
0.0533335
0.0448907
0.0159952
-0.0608859
-0.0113534
0.00312293
0.143946
0.0510774
-0.0967159
0.0797088
0.0170071
-0.148223
0.153577
-0.00535406
-0.231066
0.362013
0.137591
-0.0106704
0.268979
-0.525988
0.0973041
-0.0694588
-0.0278452
-0.149422
0.162784
-0.0133622
0.0388549
-0.18507
-0.0366846
0.00415699
0.141982
0.00610983
-0.0158422
-0.343251
0.359094
-0.0572315
0.052624
-0.232897
0.217672
-0.153136
0.00408551
0.0844917
-0.0867805
0.00228882
-0.0184924
-0.0722552
0.131948
0.21864
-0.350588
0.0422638
0.024401
0.0245416
-0.0631797
-0.423757
0.0214006
-0.096804
-0.203842
0.12785
0.0521106
-0.17996
-0.138183
0.146025
-0.0785166
0.0586741
0.0198425
0.0113141
-0.00111959
-0.0374623
-0.0482101
0.372937
-0.163448
-0.209489
0.20383
-0.217049
0.0132194
0.310653
0.0806143
-0.391268
-0.0892928
0.213619
-0.124326
0.0489415
0.000324733
-0.0147976
0.183501
-0.16318
0.0100448
0.00990936
0.0250319
0.405489
-0.280779
-0.124709
0.176002
0.196936
-0.251741
0.0311935
-0.0203769
0.085123
-0.0647461
0.179564
-0.2419
0.0623361
-0.143806
-0.164214
0.30802
-0.165351
0.0271675
-0.0802291
0.00637657
0.00169147
-0.000300136
-0.00139133
-0.00416806
0.00268161
0.00148645
-0.252159
0.199364
0.0527945
0.210443
0.245556
-0.340131
0.094575
-0.165863
0.157621
1.75829e-05
-0.406229
0.204739
0.20149
0.052259
-0.100289
-0.00810003
0.0881774
-0.0036858
0.0143346
-0.0365744
0.0222398
-0.112728
-0.319576
0.0786077
-0.0450199
-0.0335878
-0.0852523
0.330808
0.0425869
-0.0624971
0.0564078
0.191441
-0.00166127
-0.092212
0.0414793
-0.0854871
0.39614
-0.156563
0.445266
-0.0460034
-0.377754
0.09014
-0.0680771
-0.0220628
0.024956
-0.00470215
-0.0992164
-0.00309222
-0.0807527
-0.224475
0.305227
-0.0134081
-0.0638006
-0.0742654
0.0942456
0.106823
0.221635
0.20514
-0.0255763
0.264821
-0.280663
-0.028177
0.0294929
-0.00131595
0.0109914
-0.00195699
-0.00903442
0.137073
0.109215
-0.246288
-0.0654907
0.163492
-0.0980017
0.242976
0.0446761
-0.287652
0.0485659
0.0300418
0.0468379
-0.0492606
0.00242272
0.350367
-0.447057
0.0966906
0.0047922
-0.0614998
0.0567076
-0.475206
0.0408289
0.434377
-0.0627547
0.0256816
-0.494595
0.282787
0.211809
0.342092
-0.210144
0.0493258
0.030171
0.00439231
-0.027286
-0.0149394
0.398255
-0.298746
-0.0995091
-0.067469
-0.207004
0.274473
0.0265499
0.0046477
-0.0311976
-0.154399
0.00497701
-0.225536
0.0817305
-0.219445
-0.0231381
-0.00642628
-0.0265701
0.0329964
-0.0261378
-0.0697142
0.095852
-0.0511551
-0.00178735
0.0529425
-0.238177
-0.0932739
0.00284707
0.0202746
0.0297109
0.24253
-0.272241
0.00139878
-0.0641447
0.0961947
-0.03205
0.424756
-0.304354
-0.120402
0.0614257
-0.0818026
0.343659
-0.313948
0.0292403
0.106089
-0.131818
-0.00089701
0.00126723
-0.000370217
0.335106
-0.228283
-0.528622
0.248763
0.279859
-0.0745578
0.00262223
-0.247217
-0.183232
0.00909403
-0.0140301
0.00493611
0.168972
0.019157
-0.188129
-0.00360799
-0.185992
0.0303194
0.00727375
0.0114911
0.0345049
-0.152865
-0.0262971
-0.0245416
0.193513
-0.342408
-0.0611976
0.403606
-0.0555242
0.047123
0.00840119
0.0305623
-0.319221
0.225892
0.0933289
-0.00400193
-0.0989619
0.102964
-0.144573
-0.261656
-0.00855741
-0.0146764
-0.21071
-0.317912
0.0298312
0.0674729
-0.101033
0.27981
-0.207097
0.117804
-0.104189
0.00497292
0.00444966
0.0709906
-0.0754402
0.113818
0.00190056
-0.115718
0.0728515
0.303102
-0.375953
-0.337978
0.0998011
0.0442584
-0.015274
-0.0289844
0.377478
-0.304627
0.196693
-0.312954
0.134494
0.178461
-0.368588
-0.106617
0.0362023
-0.0206181
-0.0155842
0.0033159
-0.0348851
0.0315692
-0.0101416
-0.119317
-0.0214966
-0.0612747
-0.0742849
-0.0137673
0.00281373
0.0105673
-0.0133811
-0.0983638
-0.076688
0.175052
-0.167673
-0.0800513
0.377069
-0.114858
-0.262211
-0.0389516
0.255931
-0.21698
-0.336933
0.292707
-0.408579
-0.0399419
-0.0180811
0.0444751
0.0311482
-0.0199697
-0.0111785
-0.00510033
-0.0478513
0.0298273
-0.0026013
-0.0582446
0.0302746
0.02797
0.118877
-0.13242
0.0135426
-0.0620352
0.00918566
-0.0602847
0.051099
-0.138731
0.489098
0.0650531
-0.0558675
-0.0385396
0.0812079
-0.0981367
0.0169288
-0.00782316
-0.0127381
0.0155519
-0.152193
0.160236
-0.00804239
-0.112523
-0.196943
0.0149128
0.0162354
-0.251831
0.181621
0.07021
-0.130805
0.148148
-0.0173428
-0.17673
0.11124
0.00995621
-0.0446478
-0.0841815
0.0714469
0.0127346
-0.104842
-0.208112
-0.0683035
0.0145233
0.0190595
0.0366234
-0.058618
0.0219946
0.182921
-0.0550707
0.345301
-0.240176
-0.105125
-0.202789
0.145803
0.0569862
-0.130926
0.054192
0.0767338
-0.21295
-0.0259971
0.238947
-0.0960269
-0.0191642
0.0606798
0.0385046
-0.342449
0.312194
-0.250329
0.0826554
0.0281511
-0.248085
0.128411
0.311207
-0.439618
0.0128323
0.000462997
-0.0132953
-0.00953706
0.0348663
-0.0253292
0.338278
-0.146603
-0.191675
0.0298658
-0.0509224
0.0858045
-0.034882
0.00666755
-0.0415527
-0.0107641
0.0949233
-0.0841593
-0.29853
0.390432
-0.0919025
0.0211464
-0.0031195
-0.0903325
0.149572
-0.101019
0.0748809
-0.00919416
0.000156874
0.00903729
-0.322011
-0.0149224
-0.154839
0.00264523
-0.0215345
0.0517468
-0.0302123
-0.0400367
-0.00628745
0.0463241
0.211798
-0.25075
0.12118
-0.130899
0.00971917
-0.0051706
0.000779617
0.174495
-0.242469
0.0679745
-0.429541
0.329774
0.0997665
-0.0407795
-0.0213952
0.0621746
0.0429919
0.0059496
0.100566
-0.0690591
-0.0831172
0.0088323
0.0253548
-0.00289514
0.0124988
-0.10655
0.0940509
-0.152519
0.14895
0.00356898
-0.00225156
0.0145268
-0.0122752
0.0224735
-0.0892363
0.0667628
-0.00876227
-0.000431892
-0.0943978
-0.0159899
0.0024272
0.00518583
-0.0086434
-0.114695
0.33975
-0.241945
-0.00416806
-0.0985562
0.474442
-0.375886
-0.10183
-0.30664
0.40847
0.248401
-0.356516
0.108115
-0.0569715
0.00144731
0.0806827
-0.033047
-0.0476357
0.307525
-0.405423
0.097898
-0.0593919
0.0378574
-0.213774
0.511111
0.127415
-0.120384
-0.00703029
-0.136605
0.0646144
0.0719901
-0.00045679
0.0031384
-0.0881848
-0.0572389
0.037255
0.198517
0.0744542
-0.272972
0.0693628
0.211262
-0.280625
-0.057232
0.295487
0.0136634
0.00144927
-0.0151126
-0.0947284
0.0245675
0.0701609
-0.0370178
0.0485089
0.51928
-0.264576
0.0664282
-0.0215375
-0.45335
0.41507
-0.0149285
-0.0465499
0.376531
0.0915742
-0.189938
0.122534
-0.00918788
-0.113346
-0.00160315
0.082467
-0.0808638
0.526912
-0.269594
-0.257318
-0.0642667
-0.0675515
-0.129736
0.0321883
0.0729649
0.0101085
0.00336209
-0.0106013
0.00507841
0.00591299
0.279118
-0.209755
-0.00202984
-0.0557047
-0.0311226
0.0294342
0.0016884
-0.0993526
0.00770785
-0.00601639
0.0376315
-0.0929874
0.0553559
-0.00659543
8.44461e-06
-0.0800337
0.0135434
0.0664903
0.0358723
-0.0363457
0.000473368
-0.326585
0.454995
0.136704
0.0260804
0.166537
0.0857136
-0.0682741
0.0848381
-0.0165639
0.0527801
-0.0431806
-0.00959953
0.0531685
0.0169792
-0.259355
0.186736
0.072619
0.410607
-0.00893936
-0.401668
-0.0184527
0.0209814
-0.00252873
-0.0503151
0.0569669
-0.00665176
0.0253292
-0.0490086
0.382225
0.0690144
-0.451239
0.046319
0.0343637
-0.0113885
-0.33106
-0.121589
0.104564
0.0170247
0.00091161
0.0250663
0.0927555
-0.00135497
-0.0516321
0.052987
0.242653
-0.0905878
-0.152065
0.0106475
-0.141452
0.0320079
-0.0584034
0.00239764
0.00173771
-0.00413535
0.171869
-0.0351654
0.324905
-0.400615
0.0757094
0.00776463
-0.102162
-0.0580564
0.0163691
0.0416872
-0.0630442
-0.0735604
-0.232166
-0.112359
0.344525
-0.0108645
-0.0481394
-0.0633891
-0.0770682
0.00296253
0.0741057
-0.202178
0.0254476
-0.082455
0.00209621
-0.47805
0.157599
0.320451
0.44574
-0.0530818
-0.392658
-0.0160831
-0.0067612
0.0131412
-0.0858824
0.0102097
-0.0286624
-0.0052421
-0.0111872
0.0164293
-0.0913709
0.0661613
0.0252095
-0.0840684
0.0607231
0.0233452
-0.0274601
-0.00755064
0.300138
-0.192303
-0.107835
0.11787
0.0165997
-0.134469
0.0879082
-0.109917
0.0314747
-0.0580539
0.0265792
0.0212943
0.183156
-0.123278
0.0105432
0.0337151
-0.0951417
0.0935386
-0.0112558
0.0503627
-0.0391069
-0.104635
-0.437222
0.135367
0.0986023
-0.0896483
-0.00895391
0.00454651
0.23843
-0.0120284
0.0211225
0.0738612
0.0280591
-0.10192
-0.165314
0.147973
0.0173409
-0.0445609
0.00997342
0.0345874
-0.011945
0.10932
-0.0973753
-0.0133061
0.0108181
0.00248803
0.00250997
-0.00340698
0.00176825
0.0552381
-0.0570063
-0.0583321
0.0175527
0.0412796
-0.0622673
0.0209877
-0.0740311
-0.163269
0.308786
-0.450727
0.141941
-0.0721179
0.00915213
-0.00543796
-0.00371417
-0.000402484
0.0916806
-0.0912781
0.105643
0.0194151
0.0025873
0.0215509
-0.177847
-0.0243311
-0.163184
0.151093
0.012091
-0.263406
0.215094
0.0483116
-0.0105157
0.0174354
-0.00691971
-0.0508483
0.237032
-0.186184
0.048699
-0.0194572
-0.0934391
0.0253856
-0.258407
-0.0773524
-0.129547
0.0652804
0.0305319
0.00557162
-0.00260834
-0.00296328
-0.0701059
-0.12404
0.304846
0.313375
-0.0649736
0.0232379
0.0410452
-0.0642831
0.401339
0.044831
-0.44617
-0.133128
0.124724
0.00840417
0.109494
0.246631
-0.356125
0.0106544
0.0104921
0.041449
-0.202939
0.0572577
0.0427965
-0.109353
0.0133256
0.133368
0.0268679
-0.335856
-0.0769244
0.41278
0.169859
-0.187539
0.0176808
-0.0127232
0.356932
-0.153945
-0.202987
0.0726703
-0.178357
0.105687
0.000315127
-0.0362854
0.0359703
0.0195431
0.0385791
-0.0581222
0.0397329
0.0805376
0.0523905
-0.00369157
0.0161711
0.409197
-0.425368
-0.385121
0.256675
0.128446
-0.122204
-0.0409765
0.116379
0.294228
0.0259438
-0.0185146
-0.101258
0.0046574
-0.122032
-0.0245182
-0.406421
0.332127
0.103144
0.0106738
-0.10515
0.0360912
-0.479661
0.0234379
0.456223
-0.000525835
-0.00172573
-0.0824317
0.0690834
0.0133482
-0.322501
0.414186
-0.0916848
0.350995
-0.46743
0.116435
0.0481754
0.00421514
-0.04234
0.00241513
0.0399249
0.115483
-0.347649
0.0147533
-0.0492611
0.0345078
0.0362676
-0.0622964
0.0260288
-0.250197
-0.0877814
0.50938
-0.260617
-0.00665518
0.0167216
0.0194808
0.0772572
-0.0655767
-0.0884718
0.0777077
-0.0630309
-0.0170028
-0.0770938
-0.183638
0.260732
-0.0535557
0.0210902
0.00810049
-0.018861
-0.0074973
0.0123835
-0.134357
0.121973
-0.149911
0.15004
-0.000129074
0.0220157
-0.0544729
-0.0781385
-0.0132324
-0.275527
-0.188115
0.463642
-0.000348585
0.115025
-0.0927712
0.0599555
0.232832
-0.37842
0.145588
-0.251579
-0.0965509
0.34813
-0.17397
0.00865604
0.196243
0.0755569
-0.481978
-0.0306434
0.0211063
0.0355425
-0.062951
0.0274085
0.423301
-0.0219618
0.222747
-0.00224391
-0.00219476
0.00443867
0.00868478
0.0108729
0.0406139
-0.0514868
0.25335
0.131276
-0.358139
-0.0253079
0.0615755
0.135672
-0.173783
0.038111
0.0435796
0.0614659
-0.105046
0.265197
-0.255056
-0.414273
0.0718644
-0.377835
0.446897
-0.0690618
0.381386
0.0930563
-0.00351391
0.00200088
0.320068
0.189312
0.389611
0.36417
-0.131338
-0.362802
0.23658
0.126222
-0.00842493
-0.00292843
0.0615769
-0.274526
-0.143295
0.0212628
-0.284499
0.0906123
-0.075498
-0.00863731
0.0841353
0.0734187
-0.0507427
-0.022676
0.0781806
0.187016
-0.0233162
0.0476213
-0.0243051
-0.079999
-0.0495481
-0.276417
-0.0800987
0.42351
-0.00689457
-0.416616
-0.156681
0.0211624
0.135518
0.222096
0.134836
-0.382321
0.0044856
0.0990818
-0.445777
-0.464672
0.189146
-0.0675182
-0.0091863
0.0767045
-0.0602014
0.103781
0.169009
-0.0356414
0.0580422
-0.0881938
0.0301515
0.0726917
-0.092301
0.0196093
0.414571
0.21362
-0.000388195
-0.00503397
0.00542217
0.050754
-0.121027
0.0702726
0.0146081
0.0884159
-0.0888183
-0.0663515
0.0173018
0.0490497
0.253406
-0.178719
-0.0746875
0.0946573
0.31454
-0.0596525
0.0480756
0.0452104
-0.0412976
0.146176
-0.104878
-0.129292
0.3105
-0.181209
0.0497488
-0.00798382
-0.0417649
0.00012444
0.0127079
-0.0820979
-0.318517
-0.0493779
0.115741
-0.0663626
-0.00306589
-0.0472492
-0.00911629
0.0294695
-0.0203532
0.128542
-0.14629
0.0177478
-0.0883784
0.104983
0.101241
0.0877714
-0.189013
0.000940349
0.0155202
-0.0164606
0.465923
-0.399299
0.298646
0.177545
0.0630333
-0.0274908
0.00761144
-0.00601001
0.000457437
-4.39128e-07
-0.0734797
-0.016237
0.0897167
-0.0508171
0.0608115
-0.00999441
-0.0704459
-0.326213
0.257622
0.0685911
-0.359655
-0.13494
-0.125656
0.138617
-0.0129613
-0.0413496
0.0633652
0.198429
-0.327721
-0.0469401
0.0316409
0.0152992
-0.166492
0.0204149
0.146077
0.0242642
0.0362895
-0.0605537
0.00547019
-0.34825
0.0980534
0.0313945
0.0183543
-0.0852941
-0.0879281
0.160598
-0.099534
0.0694136
-0.0810151
-0.191527
-0.330749
-0.251584
-0.111217
0.131692
-0.0138226
-0.044185
0.0589383
-0.00991703
-0.120631
0.130548
-0.0193447
-0.0388999
0.492543
-0.344317
-0.148226
0.0776301
-0.195814
0.118184
0.0972955
-0.0234343
-0.0834482
0.0053097
-0.108374
0.110275
-0.00696999
0.0459093
0.0285587
0.0700435
0.0743358
0.0169884
-0.268029
0.190935
0.0293398
-0.0437459
0.0144061
-0.0484326
0.0459274
0.00250515
0.0697169
-0.0520742
-0.0176427
-0.0640879
0.0132708
-0.0429958
-0.00671744
0.0497133
0.281833
-0.040257
-0.00668309
0.12221
0.00898161
0.091463
0.192976
-0.284439
0.0126095
0.0596618
-0.0722713
-0.03551
-0.00744113
0.0429511
-0.00581058
0.00229667
0.122304
0.0724449
-0.194748
0.0190979
-0.021656
0.439611
-0.217022
0.0325278
0.0190582
-0.051586
0.114564
0.00469574
0.0185381
-0.410798
0.0864778
-0.0284356
0.113313
0.0155068
-0.12882
-0.0479395
0.00291957
0.0531977
0.196884
0.00694628
-0.00562897
-0.0330292
-0.178652
0.211681
0.0403717
-0.0141752
0.0285098
0.468886
-0.328378
-0.140509
0.172353
-0.265166
-0.143874
0.0182188
0.0932778
-0.105223
-0.132204
0.174776
0.00189565
-0.176672
-0.0372957
0.0420879
-0.131871
0.220314
-0.0609874
0.0134378
-0.00257881
0.109475
0.0643037
-0.0821933
0.0178896
0.173591
-0.0209259
-0.152665
0.109298
0.0891854
-0.198484
-0.00778932
-0.0233333
0.136876
-0.0307866
-0.385731
0.109314
0.0247293
-0.0480455
-0.0424303
0.00979756
-0.0484414
-0.000473015
0.00695337
-0.00648036
-0.0396682
0.0130981
0.107161
-0.120812
0.0136509
-0.126201
0.508426
-0.306186
0.511981
-0.0773624
0.194767
0.242375
0.067114
-0.309489
-0.00348913
0.0634446
-0.000474976
0.000932414
-0.0113813
-0.0515022
0.0628835
-0.354155
0.341329
0.0128263
-0.0680527
0.0779162
0.0171756
0.0261223
-0.0432978
0.0333206
-0.0508788
0.0175582
0.275649
-0.104233
-0.0985556
-0.033275
0.0101076
0.0231673
0.0536632
-0.0211354
0.0983431
-0.116368
0.0180251
0.0965467
0.0093792
-0.105926
0.105519
0.167801
-0.190812
0.157783
-0.0127133
-0.118186
0.0212369
0.00512142
-0.0446094
-0.229627
0.274237
0.0560679
-0.024427
-0.23026
0.258411
0.153535
0.00814804
0.00635949
-0.0145075
-0.0285497
-0.0535473
0.082097
0.117757
0.124896
-0.553558
0.234247
0.319311
-0.126916
-0.0215492
-0.0838671
0.0968874
-0.0130203
0.100017
0.00545073
-0.105078
0.0733223
0.272564
-0.189341
-0.0832232
0.292796
-0.20894
-0.0838561
0.188462
0.0351427
0.0140703
-0.049213
-0.0768125
0.0899537
0.0899747
-0.0939767
0.014387
-0.0333011
-0.156733
-0.00975864
0.396459
-0.28366
-0.112799
-0.223328
-0.0356901
0.259018
-0.10242
0.0829596
0.0194603
0.0354581
-0.102876
0.0674178
0.108606
-0.307155
0.198549
0.141332
-0.137603
-0.00372907
0.0376465
-0.127979
0.0450826
0.358048
-0.450141
0.239611
0.210529
-0.396786
0.280489
0.116297
0.360048
-0.122511
-0.237537
-0.277927
-0.172213
-0.0875877
-0.0203168
0.0356209
0.312613
-0.0423748
0.0417051
-0.0500824
-0.133403
-0.118259
0.132355
-0.0140955
0.0154992
0.0712588
-0.086758
0.0509154
0.140792
0.310636
-0.0682611
-0.0282135
0.0633562
-0.0185604
0.172598
-0.154037
-0.000819089
0.00688467
-0.00606558
0.163605
-0.221532
0.0579271
-0.160207
0.00865813
0.151548
-0.0584759
0.0820558
-0.0235799
0.238265
-0.426071
0.187806
0.00582869
-0.000257076
0.193674
-0.162336
0.0898178
-0.018371
-0.0193988
-0.0247553
-0.0236772
0.00984432
-0.128104
0.130793
-0.0892096
-0.041583
-0.28501
-0.14207
0.42708
-0.00595264
0.0165392
-0.00977381
0.0618239
-0.05205
0.13364
0.159156
-0.060731
0.2532
-0.0638037
0.251249
-0.187445
-0.0143044
0.0320234
-0.017719
0.135044
0.00495161
-0.139995
0.0771051
0.0205289
-0.00682611
-0.0213509
0.192834
-0.18615
-0.061955
0.248105
0.0108246
0.317477
-0.328302
0.0201422
-0.0208101
0.000667868
-0.125855
0.126762
-0.000906688
-0.111993
-0.0207474
0.034154
0.055986
0.000966159
0.00143148
-0.0744424
-0.0541571
-0.0149575
-0.0246909
-0.0323717
-0.000780789
0.0331525
-0.0653218
0.372847
-0.440422
0.383297
-0.0311638
0.055428
-3.60026e-05
-0.00478972
0.00482572
0.0820103
0.0107873
-0.0783055
-0.254211
0.00614439
-0.0816424
-0.362349
0.334253
0.0280953
-0.292971
-0.0693778
0.0777443
-0.0320854
0.00703146
0.025054
-0.31692
0.327744
-0.297032
-0.0997544
0.23763
-0.28224
-0.00474377
-0.349411
0.00269644
0.0466294
0.347453
-0.231971
0.0246447
0.0598151
-0.341766
0.120258
0.221509
-0.101793
0.114177
-0.0148577
-0.0495329
0.0643905
0.183582
0.34333
0.298364
-0.189759
0.00887687
-0.092744
-0.282811
0.0863566
0.157639
-0.0219665
-0.0971937
0.111296
-0.0141027
-0.0041133
-0.00935731
0.00719626
-0.068696
0.414214
-0.207217
-0.206997
0.0711932
0.0322068
-0.1034
0.0673048
-0.0419898
-0.0253151
0.25111
0.0824247
-0.333534
-0.14236
0.0154441
-0.0503869
0.0398677
0.0105193
-0.00630962
0.0949996
-0.0109182
-0.0191797
-0.0832402
-0.043624
-0.113778
0.157402
-0.00840485
-0.0905317
0.0989366
-0.142461
0.34709
-0.204629
0.351589
0.155473
0.110468
0.317056
-0.427524
0.0977722
0.140375
0.0960158
-0.236391
-0.111824
0.00344986
-0.0495975
0.0192021
-0.00309663
-0.0102095
-0.158969
0.363133
-0.0446865
-0.0469168
0.0916033
0.188427
-0.286333
0.0979055
0.210841
-0.411855
0.201014
-0.0278756