/*--------------------------------*- C++ -*----------------------------------*\
| =========                 |                                                 |
| \\      /  F ield         | OpenFOAM: The Open Source CFD Toolbox           |
|  \\    /   O peration     | Version:  v2012                                 |
|   \\  /    A nd           | Website:  www.openfoam.com                      |
|    \\/     M anipulation  |                                                 |
\*---------------------------------------------------------------------------*/
FoamFile
{
    version     2.0;
    format      ascii;
    class       surfaceScalarField;
    location    "200";
    object      phi_0;
}
// * * * * * * * * * * * * * * * * * * * * * * * * * * * * * * * * * * * * * //

dimensions      [0 3 -1 0 0 0 0];
oriented        oriented;


internalField   nonuniform List<scalar> 
27551
(
-0.108864
-0.0494037
0.158268
0.105596
-0.45546
0.349864
-0.508803
0.26666
0.242143
0.11974
-0.227477
0.107737
-0.287718
0.129235
0.158483
0.13037
0.356858
-0.487228
0.341883
-0.183757
-0.158126
-0.459963
0.105388
0.354574
0.364372
0.0675404
-0.431912
0.140414
-0.22025
0.0798364
0.0549498
-0.168112
0.113162
-0.1151
-0.10426
0.21936
0.172478
-0.0831093
-0.0893692
0.298584
-0.051795
-0.246789
-0.1664
0.259288
-0.0928879
-0.125674
0.490045
-0.493081
0.339214
0.153866
0.0291645
-0.282501
0.253337
-0.535045
0.268004
0.267041
0.181264
0.160619
0.0818819
0.0273842
-0.109266
0.488252
-0.121427
-0.366825
0.361089
-0.540882
0.179794
0.205571
-0.144684
-0.0608864
-0.600339
0.440538
0.159801
-0.25703
0.0906299
0.179277
0.0158513
-0.195128
0.0867018
0.243365
-0.0761994
-0.167166
0.112409
0.186175
0.144686
0.0121631
-0.156849
0.476228
0.0123318
-0.48856
-0.298736
0.195133
0.103603
0.586274
-0.247254
-0.33902
-0.156668
-0.13105
0.490916
-0.340662
-0.150254
0.36104
-0.0169212
-0.344118
-0.145754
-0.0933378
0.239092
0.149147
-0.444303
0.295156
-0.0998345
0.155213
-0.0553783
-0.131506
0.0699397
0.0615664
-0.320044
0.425639
0.33159
-0.232608
-0.0989822
0.138195
-0.346352
0.208157
-0.123071
-0.233144
0.356214
0.0206582
-0.434522
0.413864
0.211386
-0.415658
0.204273
-0.506203
0.343802
0.162401
0.48986
-0.204345
-0.285516
-0.0943075
-0.123933
0.21824
-0.0389427
0.399982
0.481074
-0.473444
-0.00762977
-0.449889
0.0419315
0.407957
0.132729
-0.081232
-0.0514967
0.0601379
0.126295
-0.186433
-0.021941
0.166627
0.0239368
-0.123771
0.117334
-0.250828
0.133494
0.0241799
-0.133044
-0.0567867
0.138669
0.127046
0.057626
-0.184672
-0.447326
0.30658
0.140746
-0.273196
-0.127013
0.40021
-0.401874
0.492999
-0.0911248
-0.196144
-0.338901
0.33752
0.107653
-0.445173
-0.353324
0.495099
-0.141776
-0.124963
0.185101
0.106241
-0.221341
-0.0157446
-0.38613
0.262082
-0.434951
0.172869
0.0685846
0.174781
-0.537968
0.246524
0.291444
0.518449
-0.381774
-0.136676
0.285079
0.204781
-0.400609
0.261754
0.0660081
0.10647
0.122977
0.136311
0.47307
-0.210988
0.394355
-0.0899622
-0.304392
0.377683
-0.500754
0.212395
0.0429294
-0.255324
0.47955
0.00870256
-0.348604
0.485089
-0.136484
0.169548
-0.114598
-0.275084
0.465417
-0.190333
-0.0687054
0.123136
-0.0544311
0.409734
0.0664942
0.197574
-0.340039
0.142465
0.118099
-0.212407
0.398788
-0.315109
-0.0836792
0.0438929
0.0116026
-0.0554955
-0.119278
-0.0597422
0.17902
-0.208416
0.244272
-0.035856
0.511588
-0.388951
-0.122637
-0.37266
0.540441
-0.167781
0.0609123
-0.129618
-0.0931869
-0.195973
0.28916
-0.266396
-0.248315
0.514711
-0.338155
0.154398
-0.366234
0.512861
-0.146628
0.410874
-0.221347
-0.189527
-0.176477
-0.161678
-0.363807
0.547563
-0.183756
-0.420394
-0.0964896
0.516883
0.145354
0.333291
-0.152027
-0.229963
0.102141
0.127822
0.358733
-0.168483
-0.190249
0.336052
-0.0436356
-0.292416
0.19325
-0.120502
-0.0727482
0.102581
0.415868
0.367785
-0.170211
0.22691
0.10468
0.357191
0.15567
0.520264
-0.163073
-0.324338
0.465897
-0.141559
-0.217446
-0.0963771
0.313823
-0.307607
0.117789
0.189818
-0.301503
-0.2073
-0.317812
0.224625
0.0399888
0.00390414
-0.102717
0.0487569
0.0539602
0.0300204
0.284504
-0.314525
0.284894
-0.185713
-0.0991817
0.195288
0.215586
0.175273
0.158019
0.0548863
0.343902
-0.50659
0.310446
0.108875
0.0917871
-0.104714
0.0958676
0.0088461
-0.169412
0.472854
-0.337969
-0.134885
-0.0738432
-0.0288739
-0.383017
0.549991
-0.166974
-0.127794
-0.517255
0.370377
0.146878
0.12249
0.0707596
0.237783
0.23507
0.156457
-0.323351
0.453721
-0.304905
-0.21235
0.369039
-0.0329875
-0.0681296
0.195176
-0.217812
0.0938791
0.233329
-0.0853313
-0.147998
-0.0980719
0.0850265
0.309328
-0.533076
0.368273
0.164803
-0.52795
0.376842
0.151107
0.00842567
-0.0919326
0.0835069
-0.288801
-0.0823069
0.371108
0.326123
-0.484291
0.158168
0.148513
-0.294267
-0.442793
0.0941882
-0.495507
0.514036
-0.0185296
0.0316225
-0.159472
0.12785
0.253249
-0.39255
0.139301
-0.285427
0.415097
-0.12967
0.445238
-0.125926
-0.319312
0.0683069
-0.209332
0.141026
-0.0774977
0.0546129
0.0228847
0.159492
0.073837
0.411257
-0.287991
-0.123266
0.101351
0.090173
-0.191524
0.390711
-0.137462
0.288003
-0.219586
-0.0684165
-0.261528
0.291548
0.264731
-0.397305
0.132574
0.175473
0.109422
-0.358438
0.152532
0.205906
0.197985
-0.322906
0.225615
0.097291
0.106178
-0.0515502
-0.0546277
0.0907094
0.287081
-0.37779
0.155603
-0.123981
-0.499214
0.0493257
-0.035801
0.0559328
-0.0201318
0.466644
-0.468441
0.00179704
-0.413877
0.12845
-0.0554082
-0.0220895
0.243826
0.114907
-0.345523
0.197125
0.148398
-0.460318
-0.0351885
0.342575
-0.175768
-0.166807
0.177618
0.110384
0.0581661
-0.0164044
-0.0417617
-0.323773
-0.130787
0.454561
0.221939
-0.115698
0.0537862
-0.116321
0.062535
0.174883
-0.263233
0.0883501
0.337766
0.0734909
-0.319172
0.155968
0.163205
-0.363439
-0.0965239
-0.0943647
0.235693
-0.141329
-0.231082
-0.216244
0.0335728
-0.180793
0.14722
-0.0364982
0.0927978
-0.0562996
0.252561
-0.501012
0.248451
-0.0979091
0.19926
-0.292484
0.133176
0.159308
0.0313385
0.0268276
0.300085
-0.51885
0.218766
0.177675
-0.120049
0.528474
-0.296344
-0.23213
-0.555627
0.203553
0.352074
0.0827882
-0.403427
0.320639
0.382747
-0.0646195
-0.318128
0.466928
-0.38414
-0.146273
-0.233316
0.37959
0.401125
-0.133152
-0.267973
0.166098
-0.20344
0.283716
-0.0802762
0.256983
-0.39334
0.136357
0.0754471
0.013365
-0.0888121
0.133485
-0.171868
0.0383823
0.44102
-0.291872
-0.189506
-0.316696
-0.220801
0.116541
0.0871157
0.358122
0.0266172
0.133777
-0.160394
-0.395029
-0.116162
0.511191
0.410914
-0.144971
-0.176223
0.321194
-0.212764
0.0895328
0.123231
0.0802821
-0.297728
-0.312718
-0.0919051
-0.0528737
0.144779
0.252504
-0.0782929
-0.174212
0.345349
-0.251348
-0.0940012
0.258281
0.327992
-0.243796
0.104224
0.139572
0.194252
-0.0713048
-0.122947
0.113862
-0.0384144
-0.126038
0.00675985
-0.0665607
-0.0649455
-0.114722
0.0544199
0.0603024
-0.192597
0.0900454
0.102551
-0.469598
0.0745683
-0.000528019
-0.207888
-0.190002
-0.303078
-0.207148
0.125805
0.0813432
0.188488
-0.107977
-0.0805108
0.0576339
0.42344
-0.121964
0.459484
0.206118
-0.479315
-0.177391
-0.174171
0.351562
-0.0861108
0.228885
-0.142774
0.0880783
0.10041
0.023217
0.391742
-0.414959
-0.162254
-0.184098
-0.341288
0.195015
0.246821
0.210262
-0.457083
0.150938
-0.37991
0.228972
0.119807
-0.437849
0.318042
0.156247
-0.12963
-0.1259
-0.17755
0.472576
-0.295026
0.216273
-0.0981739
0.463936
-0.37682
0.367526
0.20835
-0.575876
-0.476223
0.147442
0.328782
-0.303003
0.42281
-0.477886
0.193986
0.2839
0.263908
-0.388721
0.124813
0.407138
-0.195752
0.117396
0.292756
-0.410152
0.344034
-0.168762
-0.0831469
0.0466488
-0.209121
0.340964
-0.131843
0.348183
0.123381
-0.471564
0.405964
-0.525626
0.365898
0.159728
-0.429935
0.00954105
-0.320952
0.305207
-0.281949
0.399345
0.149972
0.194063
-0.0641775
0.11819
-0.0540122
0.568889
-0.201363
-0.371251
0.511906
-0.140655
-0.00380468
0.438637
-0.434832
-0.127205
-0.165279
0.0835786
-0.0139411
-0.0696374
0.428811
-0.290243
-0.138568
0.162334
-0.339725
-0.052375
0.0219137
0.0304613
0.223487
-0.194322
0.312843
-0.223311
-0.0895323
-0.16315
0.0109779
-0.141019
0.130041
0.395419
-0.131512
-0.223016
0.316808
-0.0937927
0.0440478
-0.135953
0.0173335
-0.23692
0.123686
0.207153
-0.330839
0.306622
-0.0797115
-0.279686
0.390068
-0.137507
-0.104809
-0.0877877
-0.102076
-0.0633668
0.165443
0.340333
0.127302
-0.467635
0.370489
0.0212524
0.320977
0.107834
0.158192
-0.147215
-0.060936
-0.232625
0.383563
-0.12261
-0.107353
-0.0433707
-0.39158
0.378607
-0.323721
-0.103815
0.444149
0.31103
-0.0986351
-0.0894339
-0.12333
0.489964
-0.0702188
-0.419745
-0.267923
-0.287705
0.0642374
0.0684913
0.326386
0.153239
-0.269994
-0.217173
0.487166
-0.322244
0.133775
0.18847
-0.148829
0.4774
-0.32857
0.165555
0.0869493
0.277562
0.0806669
-0.358229
0.243996
-0.0647194
0.499139
-0.225881
-0.273258
0.48284
-0.336809
-0.146031
0.0139918
0.144201
0.0475254
-0.426031
0.378506
-0.157815
0.4579
-0.109417
0.229468
-0.120052
-0.082325
-0.21165
0.293975
0.328349
0.162568
-0.0477785
-0.133334
0.181113
0.354992
0.127848
0.492162
-0.315412
-0.176749
0.110882
0.429014
0.0151188
-0.444132
-0.00150281
0.176975
-0.518047
0.203181
0.314866
0.356945
0.0575812
-0.414526
-0.143423
-0.0880156
0.231438
0.186371
0.124659
-0.124034
-0.198211
0.315677
-0.0303453
-0.285332
-0.201311
0.153533
0.450077
-0.276191
-0.173886
-0.148764
0.185181
-0.228146
0.0429649
-0.0845987
0.262217
-0.292358
-0.108251
0.489964
0.216156
0.0966872
-0.298317
-0.229633
0.493476
-0.132387
-0.0699754
0.210389
0.0481445
0.330463
0.0226533
-0.311454
-0.370262
0.20157
-0.126292
-0.192881
-0.074023
0.430968
-0.278204
0.261283
0.0946147
0.212007
-0.0252221
0.461798
-0.436576
0.161508
-0.163011
0.13609
0.0831946
-0.219285
0.111036
-0.0566166
0.0271399
-0.170563
0.373208
-0.267887
-0.105321
0.287899
-0.178702
-0.109197
0.0938794
0.206836
-0.300715
-0.539824
0.351194
0.18863
0.232503
-0.0780876
-0.154415
0.304952
0.187209
0.214192
-0.537965
-0.468061
0.0954012
0.367996
-0.266036
-0.10196
0.117581
0.111907
-0.229488
-0.434623
0.12931
0.305313
0.15015
-0.134299
0.230326
-0.156834
-0.073492
0.191749
-0.0828738
-0.348059
0.215943
0.132116
0.104206
0.0900463
0.393518
0.0354953
-0.104472
0.193487
-0.0890146
0.22299
-0.319367
-0.29907
0.110458
0.188612
0.0531163
0.116431
-0.13041
-0.261395
0.391805
0.125063
0.162836
-0.112486
-0.108549
0.0536869
0.0548617
0.273909
-0.40432
0.00911534
-0.0678195
0.0587042
0.325496
-0.449204
0.123708
0.129985
-0.115993
0.457229
-0.175314
-0.281915
0.0763543
0.0467822
0.114695
-0.503646
0.331341
-0.133866
-0.197475
0.244224
-0.0590423
-0.173843
-0.17168
0.369564
-0.539564
0.17
0.253346
0.11465
0.280542
-0.148169
-0.132373
0.198946
0.0753972
-0.274343
-0.285063
-0.315276
-0.147821
0.265155
-0.252941
0.380247
-0.127306
-0.142852
0.440321
0.0217031
-0.462024
-0.450744
0.169935
0.280809
0.133188
-0.479664
0.346477
-0.327495
-0.0966178
0.424113
0.122522
-0.375462
0.328249
-0.204563
0.300144
-0.279188
-0.0209566
-0.292185
0.506377
0.131753
-0.446914
0.315161
-0.132291
-0.166779
0.397459
-0.132727
-0.407637
0.258243
0.149394
-0.367918
0.101882
0.390413
-0.240252
-0.150161
0.510263
-0.1407
0.475507
-0.188898
-0.286609
0.198315
-0.0622246
0.0968738
-0.253718
0.156844
-0.334534
0.38206
0.336096
-0.326945
0.355362
-0.0284172
-0.468015
0.236933
-0.120375
0.209908
-0.18738
0.119251
-0.318534
0.497889
-0.179355
-0.273397
0.197557
0.0758404
-0.0440492
0.484588
0.191729
-0.31334
-0.19325
0.140087
-0.431863
0.291776
-0.333097
0.501353
-0.168256
0.112713
0.0602832
-0.172997
-0.321323
-0.0465949
-0.291354
0.431441
-0.0282953
-0.0240797
-0.181957
-0.268786
0.143825
0.281362
-0.425187
0.259701
-0.393527
0.133826
0.22872
0.161693
-0.488987
0.283344
0.205643
0.544662
-0.213008
-0.331654
-0.491542
0.187185
0.304356
0.0830301
-0.0739147
0.45604
-0.130544
-0.490623
0.107606
-0.316312
0.495879
-0.179567
-0.423739
0.302312
0.159195
0.300356
-0.302932
0.00257663
-0.123081
0.265971
0.0341736
0.134263
0.202785
-0.337048
0.327415
-0.104425
-0.00101744
-0.202422
0.299791
-0.517748
0.217957
-0.491585
0.308533
0.183052
0.174876
-0.0413906
-0.252501
-0.14307
0.395571
-0.12902
-0.498362
0.160942
0.33742
-0.464784
0.137289
-0.574875
0.334337
0.240538
0.106474
-0.459798
0.547596
-0.247805
-0.446021
0.226706
0.219315
0.368892
-0.187208
-0.181684
-0.532461
0.238844
0.293617
-0.136544
0.241954
-0.50835
0.342296
0.127196
-0.469493
0.445689
0.289725
0.162941
-0.452666
-0.0764654
0.1296
-0.0531349
-0.31087
-0.221591
0.0625853
-0.150631
0.0880456
0.211542
-0.503727
-0.183511
-0.00146785
-0.382186
0.383653
-0.0556062
-0.0529425
0.100762
-0.132144
-0.343663
0.475807
0.386149
0.0541719
0.125362
-0.0490076
-0.125094
0.447051
-0.321957
-0.0974762
-0.123057
0.220533
0.0981895
-0.160375
0.062185
0.0643291
-0.403497
0.339168
-0.152849
-0.240964
0.393813
0.133206
-0.0867869
-0.0464188
-0.435842
0.310749
0.297775
-0.242842
-0.0549333
0.462994
0.0395404
-0.502535
0.165593
-0.0559148
-0.109678
0.398069
0.0317854
-0.429855
-0.14051
0.175586
-0.0350767
0.490284
0.00181873
-0.492103
-0.313807
-0.261068
0.0056521
-0.420325
0.414673
-0.0821666
-0.294589
0.376755
-0.270662
0.373495
-0.102834
0.323355
-0.0255801
0.365801
-0.247411
-0.118391
0.305593
-0.0517202
-0.0887895
0.148217
-0.0500273
-0.180115
-0.232413
0.412528
0.180255
-0.491632
0.311377
0.0753154
-0.0619504
0.277747
-0.459704
0.15012
0.223088
-0.40535
-0.301976
-0.237849
0.188549
-0.144666
-0.128731
-0.438627
0.356461
-0.0328391
-0.0718746
-0.120234
0.22864
-0.108406
-0.465808
0.172019
0.293788
0.0574791
0.248131
-0.30561
0.491253
-0.0828299
-0.408423
-0.115981
0.283188
-0.167207
-0.128551
-0.369811
-0.39843
0.419088
-0.331826
0.437215
0.158229
-0.105113
0.118838
0.365765
-0.484603
-0.301121
-0.190463
0.125562
-0.445316
0.319754
-0.0855448
-0.284446
0.369991
0.416843
0.0744098
-0.170399
0.303575
0.0778828
-0.18127
0.103387
0.352984
-0.0196878
-0.333296
0.483483
-0.303228
0.100497
0.35515
0.042919
0.321186
0.104976
-0.426162
0.0120013
0.128533
-0.140534
0.0632839
0.0753308
0.347737
-0.487169
0.139432
0.173737
0.0226915
-0.196429
0.124246
-0.0600081
-0.0936456
-0.482972
0.325866
0.157105
0.339555
-0.517105
0.143626
-0.38459
-0.493817
0.176902
0.316915
0.269409
-0.0945259
-0.49301
0.364459
0.443443
-0.317881
0.238445
0.168693
0.104996
-0.429334
0.0704071
-0.209436
0.139029
0.0529348
0.112658
0.147784
0.38069
0.0445261
-0.014606
0.356523
-0.478487
0.237073
0.108277
-0.250283
0.0945589
0.155724
-0.138538
0.318671
-0.180133
0.0959222
-0.068538
-0.116505
-0.133778
-0.115722
0.0640015
-0.285111
0.354575
-0.117502
-0.0705971
-0.0554411
0.0189237
-0.106815
0.172823
0.162677
-0.307649
-0.546806
0.193335
0.35347
-0.4832
0.236307
0.246893
0.381606
-0.333461
0.433098
-0.496213
0.0631147
0.242032
0.123769
-0.000202904
0.0837815
-0.4708
0.0362771
0.333185
-0.334653
-0.382822
0.262898
0.119924
-0.19216
-0.120429
0.312589
-0.234912
0.150451
0.0844612
-0.151347
-0.0914922
0.24284
-0.130904
0.175904
-0.278584
0.102681
0.311533
-0.199291
-0.112242
-0.35798
0.168652
0.189328
-0.19732
-0.294222
-0.254021
-0.0729238
0.141167
0.324729
-0.077525
0.393202
-0.0345676
0.387551
0.298385
0.157655
-0.296353
0.479935
-0.183582
0.361918
-0.0619387
0.339501
-0.341036
0.519948
-0.178912
-0.511791
0.170755
0.220999
-0.149654
-0.0713457
0.405709
-0.455304
0.0495949
-0.189131
0.399447
-0.109723
0.386204
0.0195051
-0.080756
0.54375
-0.252169
0.395795
-0.0251914
-0.0412309
0.0664223
-0.371425
-0.146621
-0.293479
-0.105585
0.399064
-0.479135
0.276776
0.202359
-0.375137
0.208001
0.167137
-0.113209
0.196161
-0.0829521
0.24103
-0.465809
0.33107
0.13474
-0.130397
-0.0843135
0.21471
0.109801
0.280286
-0.390087
0.0679254
0.252626
-0.320551
0.140861
0.296635
-0.437496
0.28021
-0.081264
-0.34263
-0.100616
0.443246
0.0369422
-0.246063
-0.251989
0.402462
-0.150473
-0.534697
0.376505
0.158192
0.147797
0.200784
-0.348581
0.303453
-0.117082
0.529462
-0.338164
-0.191299
-0.326556
0.301334
-0.314851
0.218041
0.0968105
0.0760818
0.419848
-0.2648
-0.155048
-0.195972
0.239108
-0.0735532
-0.220301
-0.245507
-0.180399
-0.194738
0.0727256
-0.0642999
-0.0709267
0.266059
-0.143692
-0.280981
0.424673
-0.0752453
0.145206
-0.0699607
0.527801
-0.359314
-0.168487
-0.0486954
0.145548
-0.0968526
-0.304227
-0.22885
0.0733388
-0.18876
-0.16922
0.312935
-0.24501
-0.109129
0.285032
0.270057
0.257743
0.244478
-0.393726
0.149247
-0.171945
0.00383325
-0.420123
0.167954
-0.0661828
-0.121197
0.437313
-0.461887
0.0245735
0.287794
-0.260183
-0.0276109
0.0038478
-0.148532
-0.139013
-0.0958999
-0.434539
0.440191
0.48281
-0.349622
-0.356207
0.0665449
0.045675
0.112554
0.0742049
-0.358651
0.429292
-0.310454
0.242601
0.177247
-0.0544093
0.247328
0.126168
-0.189055
0.122872
-0.347975
0.488476
-0.140501
0.383542
-0.136214
-0.122837
-0.084311
0.0429368
0.262016
-0.13424
0.489232
0.333279
0.115211
-0.44849
-0.336718
-0.139505
0.187605
-0.109723
0.393761
0.0728829
-0.119797
-0.0928224
0.21262
-0.143723
-0.107105
0.288178
-0.245241
-0.360088
0.209345
0.150742
-0.464714
0.292351
0.172364
-0.0471982
0.117138
-0.212955
-0.304794
-0.14721
0.445595
-0.238273
0.392
-0.147521
0.196705
-0.174209
-0.0224955
-0.0885558
-0.305867
0.394423
-0.37985
0.291294
0.115793
-0.356072
0.240279
-0.403506
0.223391
0.0188485
0.0380913
-0.0569398
0.0419894
0.0948738
-0.147748
0.199798
0.329664
0.0362364
0.171997
-0.208234
0.145021
-0.0824356
-0.308371
-0.178744
0.0974164
-0.148282
0.0508658
0.156255
-0.11058
0.0609869
-0.163379
0.102392
0.239846
0.30775
0.254501
-0.393376
0.138875
0.0576848
0.224823
-0.122682
-0.459207
0.12611
0.181525
0.0926805
-0.274206
0.0815334
0.139762
-0.221295
-0.421099
0.277407
-0.0459535
-0.162863
0.208816
0.191638
-0.103094
-0.0885435
0.366733
-0.25094
0.259303
0.0284906
0.0691254
-0.292141
-0.14244
0.0647759
-0.166852
-0.122008
0.0652217
-0.252671
0.372324
-0.119653
-0.398871
0.146882
-0.297418
-0.148603
-0.50771
0.23482
0.27289
-0.442877
0.291041
0.151837
-0.0102586
0.0749444
-0.0646858
-0.267864
-0.523517
0.213626
0.30989
-0.0597205
0.142583
-0.0828626
-0.17947
0.0881831
0.0912867
0.362932
-0.253131
0.0325898
0.0207649
-0.0533547
-0.177729
0.0875399
0.0901888
-0.18475
0.220987
-0.421789
-0.079251
0.405637
-0.234658
-0.262053
0.496711
-0.432843
0.136499
0.155725
-0.430961
0.275235
0.215516
-0.166344
-0.0491716
-0.16273
0.464006
-0.32746
-0.136546
0.400691
-0.496556
0.0958652
0.0817982
-0.141519
-0.282151
0.349877
-0.0677258
0.472085
-0.244427
-0.227658
-0.0357436
0.13316
0.29474
0.458651
-0.0774601
-0.381191
-0.0943106
-0.0834181
0.128433
-0.336936
0.208503
0.0961446
0.0914608
-0.511638
0.234391
0.277248
0.180167
-0.516975
0.0295522
0.281133
-0.310685
-0.294985
0.135393
0.0801228
0.0837844
0.137215
0.125424
0.319069
-0.444493
0.0833612
-0.0231884
-0.0601728
0.442581
-0.121395
-0.311252
0.0319797
0.279272
-0.102231
0.283757
0.50584
-0.192742
-0.313099
-0.0959829
0.173119
-0.0771361
0.140899
0.0982092
-0.0982771
0.159264
-0.149537
-0.467925
0.375467
0.0924584
0.550349
-0.193491
0.0622069
0.0516546
-0.30173
-0.177405
0.053524
-0.105406
0.0518822
0.268973
-0.107465
-0.10811
0.213996
-0.105885
-0.0767882
-0.260222
0.430158
-0.245738
-0.0387887
0.284527
0.263217
0.139245
-0.452729
0.219585
-0.0214693
0.218174
-0.202115
-0.145944
0.000158131
-0.371409
0.091571
0.106744
0.409173
-0.275412
-0.133761
-0.267446
0.147596
0.11985
-0.258249
0.164718
0.0935314
-0.345527
0.227438
0.11809
-0.355799
0.140917
0.214883
-0.267232
0.434738
-0.167507
-0.20341
-0.308229
0.427954
-0.144894
-0.283059
-0.332772
-0.135289
-0.229603
0.135238
-0.13246
-0.335466
0.131258
0.351552
0.242369
0.0982074
-0.340577
0.389599
-0.258312
-0.131287
-0.265178
0.459163
0.31779
-0.246612
-0.0711786
0.116295
0.152678
-0.327645
-0.120245
0.44789
0.073101
-0.221347
0.148246
-0.0563516
0.0541811
0.00217043
-0.205438
-0.29117
0.496608
-0.467397
0.30008
0.167317
-0.0590602
0.0232592
-0.0920842
-0.274731
0.516685
0.441167
-0.302004
-0.139163
0.168973
-0.116038
0.0919707
0.30539
0.122564
0.446823
0.0071951
-0.454018
0.336946
0.158933
-0.137282
-0.208245
-0.0830854
-0.00884721
0.403185
0.0379824
-0.415435
0.169697
-0.1411
0.404317
0.431207
-0.178791
-0.252416
0.177745
-0.474098
-0.0857713
0.198485
-0.546831
0.211798
0.335033
-0.364131
0.264137
0.0999934
0.315986
0.126595
-0.138465
-0.0682713
0.206736
0.181872
0.249335
0.450878
-0.24753
-0.203348
-0.212155
0.432113
-0.219958
0.120511
-0.157583
-0.295146
0.0394089
0.136177
-0.470414
0.426365
0.120897
-0.414376
0.512682
-0.222847
-0.289834
0.284512
0.0732068
-0.357719
-0.299002
-0.226625
-0.161576
-0.028341
0.189917
0.0540155
-0.119041
0.0650259
0.155289
0.0750368
0.445299
-0.129313
0.321903
-0.183184
0.267986
0.121613
-0.160426
0.0488965
-0.101596
0.469869
-0.13077
-0.356101
0.486871
0.124463
0.165189
0.33395
-0.053864
-0.149926
0.20379
-0.131751
0.19208
-0.060329
0.45711
-0.123831
-0.0838585
-0.259601
0.343459
0.352114
-0.482884
0.121482
-0.458582
0.136161
0.322422
-0.215602
0.313872
-0.0982707
0.170283
-0.0477679
-0.122515
0.148251
0.0588361
0.069794
-0.12863
-0.341084
-0.412726
0.454658
-0.238008
0.493211
-0.310932
-0.182279
0.203012
0.0412122
-0.128059
0.480626
-0.352568
-0.341587
0.253209
0.0883784
-0.473884
0.176975
0.296909
0.352553
-0.501382
-0.0254252
0.12626
-0.100835
0.0614447
-0.204849
0.143404
0.250537
-0.334396
0.284831
-0.159433
-0.125397
-0.235684
-0.161621
0.113059
-0.202493
-0.3387
-0.208131
-0.536123
0.266129
0.245655
-0.462828
0.127576
0.345267
0.144745
-0.490013
-0.0156872
0.048277
0.0704222
0.247368
-0.286644
0.289761
-0.0031169
0.177699
-0.222074
0.432356
0.000742313
-0.358763
0.490021
-0.233932
0.25272
0.294843
-0.277971
-0.00867302
-0.0992252
-0.128249
0.227474
0.112476
0.204332
-0.225765
0.149051
0.0212318
0.401341
-0.169835
-0.231506
-0.306874
-0.133187
0.0625895
-0.0920313
0.0364831
0.0555483
-0.555887
0.222106
0.333781
-0.0747885
0.422525
0.13083
0.169659
-0.170676
0.443336
-0.299511
-0.158274
-0.20202
0.360294
0.245387
0.34818
-0.410119
0.148412
0.266685
0.105756
0.248819
0.106854
0.209751
-0.316604
0.100687
-0.371685
0.270998
0.36516
-0.264473
-0.0882784
0.356282
0.18265
0.046235
-0.188622
-0.074889
0.359401
-0.0167877
0.186348
-0.16956
0.129465
-0.206758
0.0786855
0.128073
0.101076
-0.0475517
-0.065034
0.190839
0.0886134
0.481647
-0.358266
0.25136
-0.0736616
-0.256957
0.226612
-0.0831199
0.143597
-0.0604775
0.226557
0.114406
0.291222
-0.0488526
-0.256572
-0.299315
-0.124945
-0.0781183
0.203063
-0.278704
0.0728317
0.205872
0.0152443
-0.0224554
-0.293579
0.316034
0.0395284
0.333619
-0.24838
0.309392
-0.522883
0.208051
0.314832
-0.200646
0.329079
0.00675238
0.0766088
-0.419644
0.27182
0.147824
0.0107556
-0.0919876
-0.0763909
-0.07424
0.303445
-0.429372
-0.255104
0.138599
-0.384681
-0.0105069
0.395188
-0.386889
0.171217
0.215672
-0.418927
0.168016
0.250911
0.254143
0.147198
0.308654
0.213487
-0.0104752
-0.00168774
0.0975553
-0.165458
-0.0882606
-0.073832
0.0635734
0.269734
0.114254
-0.383988
-0.109312
0.0505097
0.0588021
0.237171
-0.179691
0.093216
-0.205878
0.160597
0.0452812
-0.446265
0.209438
0.236827
-0.0898356
0.181407
0.0949678
-0.214765
-0.219987
-0.058717
-0.38677
0.174615
-0.311736
-0.102662
0.436004
-0.333342
0.164557
0.120273
-0.197432
0.0815335
0.0736793
0.349599
0.205039
-0.554638
-0.123092
-0.277524
0.400616
0.0336312
0.329301
-0.111376
0.501464
-0.204192
-0.297272
0.0592073
0.0589825
-0.315583
0.293128
-0.0454363
0.0211646
0.0242718
-0.385722
-0.0489007
-0.191549
0.0348309
0.156718
0.468865
-0.183147
-0.172652
-0.355934
0.559115
0.483717
-0.344858
-0.138859
0.239737
-0.163779
-0.0759579
-0.057114
-0.190923
0.188684
0.283402
0.36947
-0.290262
-0.0792078
-0.518484
0.353925
0.164559
-0.202673
-0.244578
0.0932308
-0.315685
0.502871
-0.445914
0.103285
-0.227874
0.361523
-0.13365
0.206499
0.362536
0.121182
0.0447918
-0.424475
0.379683
-0.0756953
0.113867
-0.038172
0.0430327
-0.0682241
-0.102058
0.188815
-0.086757
0.360889
-0.443719
-0.108682
0.0561152
0.0525663
-0.116991
-0.10326
-0.105799
0.218858
-0.410955
0.275604
0.135351
-0.00698596
-0.0493656
0.146805
-0.27401
-0.16932
-0.228678
0.397998
0.277722
-0.39815
0.120428
-0.0204009
0.0786723
-0.0582715
0.275879
-0.39897
-0.0586982
-0.0333331
0.145524
-0.0639907
-0.267977
-0.26672
-0.324652
0.100735
0.223918
-0.189769
0.101167
0.0886024
-0.0671302
-0.121925
0.490859
-0.345769
-0.14509
-0.576782
0.32021
-0.305069
0.0867573
-0.19123
-0.130104
0.116321
-0.189148
0.0728276
0.18169
-0.297671
0.477872
-0.194333
-0.283539
-0.293067
0.126291
0.166775
0.440142
0.0180827
-0.458225
0.087696
-0.209622
0.121926
0.0710401
0.240493
-0.105446
0.223027
0.263054
0.22595
-0.489004
-0.11503
-0.367278
0.180453
0.186826
-0.331031
-0.125905
0.456936
-0.106154
-0.0751154
-0.486812
0.341454
0.145358
0.247836
-0.496151
0.542487
-0.279433
0.169913
-0.1867
0.0732254
0.296244
-0.482947
0.0125328
-0.193644
0.126514
-0.245209
-0.268046
-0.17822
-0.172158
-0.187929
-0.343411
0.504992
-0.161581
0.147448
-0.147791
-0.202222
-0.121134
0.323355
0.0727713
0.0200265
0.390775
-0.136275
-0.032972
-0.20728
0.325971
0.157513
-0.282331
-0.081799
-0.0852194
0.138531
-0.0533118
-0.324062
-0.294238
0.073976
-0.21476
0.140784
-0.320326
0.493083
-0.172757
0.450887
0.204684
-0.161755
0.0367319
-0.421413
0.131017
0.0938059
0.0587022
-0.118839
0.0601371
-0.33171
-0.127498
0.366251
-0.257161
-0.10909
0.26219
0.13323
-0.084241
0.0531197
0.0311214
0.486215
-0.140948
0.280726
0.128447
-0.132612
-0.133657
0.482894
-0.0210954
-0.320921
-0.168067
-0.295378
0.129098
0.166281
0.0372355
0.145534
-0.182769
-0.264017
-0.129359
0.47805
-0.333332
-0.144719
-0.491486
0.190379
0.301107
-0.261086
0.0332123
0.169087
0.105662
-0.446325
0.23432
-0.371736
0.137416
0.20787
0.119545
0.179756
0.313455
0.283483
-0.452207
0.168724
-0.192329
0.0891388
0.0440669
-0.277784
0.390863
-0.113079
0.33614
-0.0827938
-0.107297
-0.214468
0.131178
0.0832898
0.231348
0.104792
-0.144334
-0.349483
-0.090892
-0.214759
-0.228267
0.443026
0.279304
-0.386622
0.107318
0.335795
0.142255
0.315055
-0.14663
-0.168426
0.137907
0.0915614
0.20304
-0.024583
-0.178457
-0.0321519
0.406172
0.30207
0.0641809
-0.0534804
0.129252
-0.075772
-0.0702189
-0.0649078
0.135127
-0.0921142
0.371418
-0.0431994
0.154406
-0.101691
0.164792
0.254279
-0.419071
-0.13546
-0.0235226
-0.330712
0.485374
-0.154662
-0.207566
0.0771698
0.130803
-0.072101
-0.0341056
-0.13784
0.295415
-0.0328981
-0.262517
0.359176
-0.424544
0.0653679
0.190374
0.0126657
-0.526756
0.252025
0.166391
0.113819
0.318138
-0.170341
-0.303858
0.427549
-0.123691
0.286584
0.255902
0.321966
-0.079934
-0.334786
0.208105
0.126681
0.380305
-0.496467
0.124609
0.342428
-0.467037
0.420343
0.0243146
-0.444657
0.172956
0.320043
0.138454
0.343205
-0.481659
-0.326903
-0.346329
0.397164
-0.116438
-0.0941494
0.470992
-0.323097
-0.168535
0.258478
0.1924
-0.103967
0.469865
-0.155598
0.389918
0.27742
-0.310392
-0.141028
0.26639
-0.125362
-0.275362
0.343119
-0.0677565
0.297035
-0.322615
0.119789
-0.0677442
-0.0520452
0.475431
-0.20136
-0.274071
-0.41666
0.201901
-0.161901
0.364687
-0.489987
0.0296685
0.210764
-0.160333
-0.0504305
0.102442
-0.294603
-0.140653
0.222187
0.3278
-0.492492
0.164692
0.0625311
0.0572583
0.103343
0.491694
-0.112797
-0.177804
0.185854
-0.00805037
0.5135
-0.1857
-0.534745
0.220132
0.314613
-0.239859
0.327383
-0.480798
0.153415
0.327937
0.108315
-0.436251
-0.127301
-0.323085
0.4663
-0.143215
0.183459
-0.0671376
-0.391885
0.291327
0.100558
-0.457236
0.153378
0.389314
0.057509
-0.0131005
0.439465
0.471217
-0.089742
0.460119
0.399728
-0.276565
-0.123163
0.00222978
-0.110494
0.108264
0.109044
-0.467807
0.287209
-0.0483903
-0.238819
-0.0628799
0.339656
-0.330693
0.491635
-0.198622
0.364829
-0.368633
0.127718
-0.436088
-0.300683
-0.234062
-0.478708
0.294892
0.183816
-0.489525
-0.0929272
0.189072
-0.321389
0.448585
-0.0718471
-0.107623
-0.175778
-0.207044
-0.456238
0.255519
0.200719
0.244378
-0.581159
0.336781
0.173434
0.301998
0.137941
-0.349592
0.0740494
0.1177
-0.139505
-0.0983915
0.237897
0.196462
-0.159227
-0.0586645
0.153538
-0.194408
-0.26183
-0.416648
0.214628
-0.0453025
0.173835
-0.162788
0.275197
-0.243783
-0.238598
0.482381
0.28632
0.113407
-0.130041
0.157424
0.196227
0.118829
-0.194774
-0.0726722
0.246251
0.0409586
0.0337453
0.215241
-0.248986
-0.0967106
-0.127182
0.205868
0.189411
-0.520441
0.0122419
-0.0762365
0.0639945
-0.312309
0.00872297
-0.392863
0.0523103
0.244724
0.321377
-0.14241
-0.0816985
0.224108
0.126405
0.255003
-0.381408
-0.0947369
0.455626
0.445805
-0.338152
-0.37316
-0.11985
-0.295186
0.471608
-0.335247
-0.136361
0.0837994
-0.167184
0.0833849
-0.057177
-0.0515045
-0.320117
0.423473
-0.103356
-0.269357
0.395393
-0.126037
-0.198319
-0.136467
0.301679
0.169929
0.263465
0.0319496
0.264464
-0.327344
0.136963
0.0689804
-0.205943
-0.424788
0.104671
0.188689
0.3092
-0.311593
0.458178
-0.146584
0.0624574
-0.13354
0.0710823
-0.202375
-0.198073
-0.00780476
0.419188
0.0582121
0.147911
-0.0587719
-0.226143
0.138014
0.088129
-0.13036
-0.105621
0.0299254
0.115705
-0.427049
0.311344
0.0417537
-0.173505
-0.163121
0.170085
-0.00696354
0.425247
-0.0155135
0.0145395
0.0637046
-0.0782441
-0.169942
-0.31303
0.109892
0.198939
0.266479
0.0356171
0.321008
-0.356625
-0.0389114
0.305571
0.00955919
-0.159485
-0.111
-0.264623
0.375622
-0.228417
0.354821
-0.129911
0.482026
0.506033
0.42685
-0.285989
-0.198322
0.00132789
-0.179132
-0.0489139
-0.0471643
0.0960782
-0.108895
0.217256
-0.15354
-0.0637162
-0.331128
-0.147204
0.478332
-0.454075
-0.0500602
0.091278
-0.0412178
0.0416594
-0.105904
0.0642447
0.147232
-0.207641
0.0604089
0.310482
-0.52349
-0.316158
-0.0983488
-0.0115706
0.109919
0.430172
-0.510928
-0.174094
0.0834487
0.0906454
0.248172
-0.370312
0.12214
0.329245
0.143331
0.442348
-0.00371149
-0.478459
0.122358
-0.425017
0.148452
-0.134591
0.218107
-0.0835162
-0.0924776
-0.133666
-0.241563
-0.320845
0.562407
0.127685
0.386352
-0.362488
0.212217
0.150271
0.143181
0.074075
-0.138227
-0.0613637
0.199591
-0.318058
-0.204825
0.259406
-0.324026
-0.180568
0.0862572
-0.198566
0.080469
0.118097
0.212856
-0.108812
-0.104043
-0.23519
0.142713
-0.18364
0.0815816
0.255615
-0.22187
-0.265374
0.265914
-0.441228
0.0505744
0.0505013
-0.00165533
-0.177046
0.105977
-0.103748
0.0849132
0.0601077
0.164881
-0.422887
0.480468
-0.184181
0.206521
0.313428
-0.0870119
-0.0965059
0.183518
0.133448
0.27023
-0.403678